/*--------------------------------*- C++ -*----------------------------------*\
  =========                 |
  \\      /  F ield         | OpenFOAM: The Open Source CFD Toolbox
   \\    /   O peration     | Website:  https://openfoam.org
    \\  /    A nd           | Version:  6.0
     \\/     M anipulation  |
\*---------------------------------------------------------------------------*/
FoamFile
{
    version     2.0;
    format      ascii;
    class       volVectorField;
    location    "23";
    object      U;
}
// * * * * * * * * * * * * * * * * * * * * * * * * * * * * * * * * * * * * * //

dimensions      [0 1 -1 0 0 0 0];

internalField   nonuniform List<vector> 
12500
(
(-0.000270998 0.000143233 -8.09456e-22)
(-0.00159579 0.000364995 1.15865e-20)
(-0.00416169 0.000519604 -1.6902e-20)
(-0.00744407 0.000619743 7.80228e-21)
(-0.0111584 0.000675031 4.70241e-22)
(-0.0151272 0.000693574 -9.71247e-22)
(-0.0192091 0.000682908 -1.4395e-20)
(-0.0232994 0.000649892 7.93349e-21)
(-0.0273258 0.000600734 5.26317e-21)
(-0.0312409 0.000541074 5.36216e-21)
(-0.0350176 0.00047606 -9.10111e-21)
(-0.0386445 0.000410391 5.30781e-21)
(-0.0421227 0.000348342 -2.50518e-21)
(-0.0454626 0.000293771 4.25654e-21)
(-0.0486822 0.000250106 -1.08774e-20)
(-0.0518046 0.000220323 1.57448e-20)
(-0.0548564 0.000206913 -3.00639e-21)
(-0.0578666 0.000211863 -1.11667e-20)
(-0.0608641 0.000236634 5.72624e-21)
(-0.0638785 0.000282144 -5.47099e-21)
(-0.0669441 0.000348678 4.9009e-21)
(-0.0700952 0.000435948 6.48336e-21)
(-0.0733015 0.000544092 6.58511e-22)
(-0.0764479 0.000674335 -1.8582e-20)
(-0.0799755 0.000819593 1.04266e-20)
(-0.000307299 0.000806215 1.47689e-20)
(-0.00169056 0.00208161 -3.95558e-20)
(-0.00430178 0.00304154 1.17345e-20)
(-0.00761725 0.00374319 7.88345e-21)
(-0.0113534 0.0042317 -6.31602e-21)
(-0.0153335 0.00454567 -3.60467e-20)
(-0.0194172 0.00472007 1.07617e-20)
(-0.0235007 0.00478611 -2.03972e-20)
(-0.027512 0.00477141 2.44863e-20)
(-0.0314045 0.00470039 -3.27887e-20)
(-0.0351516 0.00459465 1.75539e-20)
(-0.0387422 0.00447324 5.68645e-21)
(-0.0421777 0.00435291 -1.43584e-20)
(-0.0454691 0.00424822 -6.35758e-21)
(-0.0486346 0.00417173 4.66146e-20)
(-0.0516976 0.00413396 -4.13077e-20)
(-0.0546854 0.00414354 9.89414e-21)
(-0.0576273 0.00420713 1.71373e-20)
(-0.0605532 0.00432953 -3.91919e-21)
(-0.0634929 0.00451368 2.76771e-20)
(-0.0664818 0.00476042 5.04195e-21)
(-0.0695549 0.00506877 -1.80511e-21)
(-0.0726824 0.00543895 -3.50252e-20)
(-0.0757484 0.0058743 3.22612e-20)
(-0.0791956 0.00635291 -6.54133e-20)
(-0.000385129 0.00146622 4.73623e-20)
(-0.00189198 0.00378969 1.63308e-20)
(-0.00459635 0.00554948 -2.15372e-20)
(-0.00797788 0.00684722 9.30146e-21)
(-0.0117557 0.00776348 8.75396e-21)
(-0.0157554 0.0083673 3.33729e-20)
(-0.019839 0.00872102 -4.25656e-20)
(-0.0239042 0.00888007 -6.94542e-21)
(-0.0278809 0.00889336 -2.87051e-20)
(-0.0317237 0.00880401 -2.404e-20)
(-0.0354069 0.00865001 3.11307e-20)
(-0.0389204 0.00846473 -1.04456e-19)
(-0.0422663 0.00827742 -3.26904e-21)
(-0.0454562 0.00811345 -6.29565e-20)
(-0.0485092 0.00799462 -7.42477e-21)
(-0.0514493 0.00793926 8.97385e-21)
(-0.0543049 0.00796235 -4.91147e-20)
(-0.0571062 0.00807554 -3.07679e-20)
(-0.0598842 0.00828724 -3.64745e-20)
(-0.0626703 0.0086027 5.72155e-20)
(-0.0655012 0.00902358 2.09394e-20)
(-0.0684137 0.00954838 -9.3154e-20)
(-0.0713792 0.0101776 -4.49028e-20)
(-0.0742801 0.0109169 -5.02439e-20)
(-0.077562 0.0117295 1.44065e-19)
(-0.000504284 0.00212029 -1.482e-21)
(-0.00219953 0.00548112 -3.77625e-20)
(-0.00504469 0.00803079 -1.82324e-20)
(-0.00852509 0.00991503 1.13733e-20)
(-0.0123643 0.0112497 7.12056e-20)
(-0.016392 0.0121341 -3.22718e-20)
(-0.0204735 0.0126577 6.90973e-20)
(-0.0245096 0.0129 6.60597e-20)
(-0.0284326 0.0129309 4.03553e-20)
(-0.0321991 0.0128119 -6.11224e-22)
(-0.0357851 0.0125975 8.18466e-20)
(-0.0391817 0.0123351 1.42046e-20)
(-0.0423921 0.0120666 6.27631e-20)
(-0.045429 0.0118282 1.44583e-19)
(-0.0483123 0.0116513 -1.68062e-19)
(-0.0510674 0.0115623 2.53142e-19)
(-0.0537237 0.011583 5.51549e-20)
(-0.0563132 0.0117304 -1.21873e-19)
(-0.0588685 0.0120172 -1.73174e-20)
(-0.0614231 0.0124514 4.44309e-20)
(-0.0640158 0.013036 -2.22913e-20)
(-0.0666863 0.0137692 -1.33486e-20)
(-0.0694078 0.0146522 -1.30265e-20)
(-0.0720607 0.0156936 -5.25387e-20)
(-0.0750945 0.016841 1.95728e-19)
(-0.000664417 0.00276568 2.46651e-20)
(-0.00261229 0.00714826 -1.1891e-19)
(-0.00564544 0.0104734 1.4516e-19)
(-0.00925717 0.0129306 -5.81318e-20)
(-0.0131774 0.0146707 6.99647e-20)
(-0.0172411 0.0158229 5.73651e-20)
(-0.0213187 0.0165036 2.1877e-20)
(-0.025315 0.0168159 1.06968e-21)
(-0.0291659 0.0168503 1.24117e-19)
(-0.0328306 0.0166868 8.61953e-20)
(-0.0362872 0.0163954 -3.46729e-20)
(-0.0395286 0.0160379 -2.23871e-20)
(-0.0425594 0.0156687 9.46754e-20)
(-0.0453935 0.015335 1.78749e-20)
(-0.048052 0.0150781 4.85962e-20)
(-0.0505618 0.0149329 1.1661e-19)
(-0.0529538 0.0149285 -1.00927e-19)
(-0.055262 0.0150883 8.16185e-20)
(-0.0575215 0.0154298 -1.76187e-19)
(-0.0597682 0.0159645 1.48272e-19)
(-0.0620442 0.0166974 9.58827e-22)
(-0.0643929 0.0176273 -1.18512e-19)
(-0.0667903 0.0187563 4.77712e-20)
(-0.0691144 0.0200967 1.08583e-19)
(-0.0718204 0.0215805 -1.6996e-19)
(-0.000865051 0.00339992 1.27562e-19)
(-0.0031289 0.00878397 -1.40582e-19)
(-0.00639651 0.012866 -2.27797e-20)
(-0.0101713 0.0158786 2.88954e-20)
(-0.0141914 0.0180077 -6.27739e-20)
(-0.018299 0.019412 -9.83929e-20)
(-0.0223707 0.0202341 -8.22004e-20)
(-0.0263169 0.0206003 -1.99056e-20)
(-0.0300778 0.0206213 -1.42691e-19)
(-0.0336161 0.0203947 1.14058e-19)
(-0.0369126 0.0200062 -1.77783e-19)
(-0.0399622 0.0195315 9.01536e-20)
(-0.0427713 0.0190372 -3.00147e-20)
(-0.045355 0.0185819 6.97069e-20)
(-0.0477361 0.018217 -1.7572e-19)
(-0.0499427 0.0179865 8.53459e-20)
(-0.0520078 0.0179276 6.37048e-21)
(-0.0539677 0.0180709 3.80247e-20)
(-0.0558602 0.0184397 2.30099e-19)
(-0.0577247 0.0190503 5.10525e-20)
(-0.0596073 0.0199107 -4.66386e-21)
(-0.0615562 0.021021 1.46243e-20)
(-0.0635516 0.0223854 9.6504e-20)
(-0.0654689 0.0240208 2.75204e-20)
(-0.0677712 0.0258432 9.61015e-20)
(-0.0011056 0.00402078 -7.94828e-20)
(-0.00374753 0.0103816 1.17133e-19)
(-0.00729487 0.0151978 7.38997e-21)
(-0.0112633 0.0187451 -1.44903e-19)
(-0.0154012 0.0212436 3.06456e-19)
(-0.0195595 0.0228814 -9.96248e-20)
(-0.0236229 0.0238269 1.46148e-19)
(-0.0275085 0.0242287 1.34348e-19)
(-0.0311617 0.024217 -1.11646e-19)
(-0.0345498 0.0239064 -1.63148e-19)
(-0.0376567 0.0233978 4.4822e-20)
(-0.0404798 0.0227801 -4.74241e-20)
(-0.0430272 0.0221324 -2.10446e-19)
(-0.0453156 0.0215244 2.56404e-19)
(-0.0473691 0.0210177 -1.23303e-19)
(-0.0492176 0.0206664 -8.52398e-20)
(-0.050896 0.0205166 7.79667e-22)
(-0.052443 0.020607 6.99397e-20)
(-0.0539 0.0209684 2.88984e-20)
(-0.0553102 0.0216232 -1.13422e-19)
(-0.0567248 0.0225838 1.29696e-19)
(-0.0581981 0.0238532 -2.2574e-19)
(-0.0597156 0.0254386 1.38061e-19)
(-0.0611511 0.0273634 -1.05895e-19)
(-0.0629778 0.029527 2.92459e-20)
(-0.00138536 0.00462626 1.15632e-19)
(-0.00446583 0.011935 -9.23146e-20)
(-0.00833635 0.0174588 -5.91474e-20)
(-0.0125272 0.0215165 -1.05101e-19)
(-0.0167988 0.0243625 -1.93318e-19)
(-0.0210133 0.0262133 -1.43642e-19)
(-0.0250646 0.0272624 8.99838e-20)
(-0.0288781 0.02768 -1.36949e-19)
(-0.0324059 0.0276151 1.74602e-19)
(-0.0356202 0.0271983 -2.85352e-19)
(-0.0385089 0.0265447 1.27242e-19)
(-0.0410721 0.0257562 2.69707e-19)
(-0.0433198 0.0249234 -3.80212e-19)
(-0.0452703 0.0241275 5.44538e-20)
(-0.0469491 0.0234405 7.10534e-20)
(-0.0483874 0.0229268 6.88888e-20)
(-0.0496222 0.0226427 -7.42159e-20)
(-0.0506949 0.0226362 -1.82922e-20)
(-0.0516502 0.0229473 -5.47144e-20)
(-0.0525364 0.0236063 -4.57366e-20)
(-0.0534103 0.0246324 -2.51424e-19)
(-0.054334 0.026033 -1.70013e-20)
(-0.0552998 0.0278204 2.74673e-21)
(-0.0561812 0.0300265 -1.1425e-19)
(-0.0574647 0.0325347 1.2482e-19)
(-0.00170352 0.00521449 3.33957e-21)
(-0.00528076 0.0134382 3.77591e-20)
(-0.00951532 0.0196396 3.9592e-20)
(-0.0139545 0.0241806 2.31324e-20)
(-0.0183733 0.0273496 1.96741e-19)
(-0.0226465 0.0293913 1.85819e-19)
(-0.0266798 0.0305234 -1.51835e-19)
(-0.0304081 0.0309369 -4.64299e-20)
(-0.0337913 0.030798 -4.1422e-20)
(-0.0368076 0.0302526 2.14623e-19)
(-0.0394494 0.029429 7.73376e-20)
(-0.0417199 0.0284409 -1.13015e-19)
(-0.0436312 0.0273901 -9.5967e-20)
(-0.0452033 0.0263685 2.31968e-19)
(-0.0464625 0.0254588 -5.7367e-20)
(-0.0474414 0.0247361 -6.97268e-20)
(-0.0481785 0.0242675 -9.75511e-20)
(-0.048718 0.0241125 -7.61084e-20)
(-0.0491083 0.0243215 -9.73541e-20)
(-0.0494026 0.0249358 -6.37899e-20)
(-0.0496649 0.0259835 2.65591e-19)
(-0.0499663 0.0274795 -1.31013e-19)
(-0.050308 0.0294438 8.8369e-20)
(-0.0505651 0.0319201 -2.3536e-19)
(-0.0512418 0.034776 1.00523e-19)
(-0.00205906 0.00578357 -1.03828e-19)
(-0.00618845 0.0148852 -2.80728e-20)
(-0.0108244 0.0217305 -2.20863e-19)
(-0.0155339 0.026725 -1.06521e-19)
(-0.0201092 0.030191 -2.1156e-19)
(-0.0244402 0.0324009 -2.21856e-20)
(-0.0284458 0.0335956 1.14623e-19)
(-0.0320724 0.0339855 -7.01577e-20)
(-0.035289 0.0337534 1.51887e-19)
(-0.0380809 0.0330585 -3.7061e-19)
(-0.0404456 0.0320413 -1.07758e-20)
(-0.04239 0.0308261 6.61815e-20)
(-0.0439284 0.0295248 -8.4245e-20)
(-0.0450821 0.0282391 7.68905e-20)
(-0.0458782 0.0270624 -5.89606e-20)
(-0.0463504 0.0260804 -1.26672e-19)
(-0.0465382 0.0253721 2.31654e-19)
(-0.0464878 0.0250094 1.44004e-19)
(-0.0462516 0.0250561 -2.99202e-20)
(-0.045888 0.0255665 9.54249e-20)
(-0.0454688 0.0265817 -1.88666e-19)
(-0.0450759 0.0281273 2.72397e-19)
(-0.0447217 0.0302353 -3.72689e-19)
(-0.0442854 0.0329655 7.68538e-20)
(-0.0442948 0.0361712 -1.54693e-19)
(-0.00245073 0.00633144 5.63364e-21)
(-0.00718393 0.0162697 -9.58848e-20)
(-0.0122538 0.0237218 1.43056e-19)
(-0.0172507 0.0291377 2.95251e-19)
(-0.0219864 0.0328734 -4.88351e-21)
(-0.0263685 0.0352285 3.38295e-20)
(-0.0303315 0.0364663 -1.28494e-19)
(-0.0338348 0.0368154 6.04642e-20)
(-0.0368581 0.0364733 4.1862e-19)
(-0.0393949 0.0356117 -9.53923e-20)
(-0.0414487 0.034381 -1.13089e-19)
(-0.0430306 0.0329149 4.28978e-19)
(-0.0441574 0.0313338 1.40546e-19)
(-0.0448516 0.0297483 6.71099e-20)
(-0.045141 0.028261 6.88947e-20)
(-0.0450593 0.0269685 1.88254e-19)
(-0.0446469 0.0259619 -7.25288e-20)
(-0.0439514 0.0253268 1.92182e-19)
(-0.0430282 0.0251424 2.60644e-19)
(-0.0419414 0.0254796 -2.22788e-19)
(-0.040771 0.0263964 3.31671e-19)
(-0.0396113 0.0279342 1.18528e-19)
(-0.0384884 0.0301424 -4.50623e-19)
(-0.0372891 0.0331031 6.52741e-19)
(-0.0365731 0.0366581 -5.59783e-19)
(-0.0028769 0.00685569 -2.64326e-19)
(-0.00826089 0.0175847 1.49564e-19)
(-0.0137915 0.025603 -1.01074e-19)
(-0.0190859 0.0314058 -9.66426e-20)
(-0.0239789 0.0353831 -1.0494e-19)
(-0.0283981 0.037861 -1.14503e-19)
(-0.032296 0.0391243 3.15938e-20)
(-0.0356469 0.0394184 3.01607e-19)
(-0.0384428 0.0389543 -6.49109e-20)
(-0.0406867 0.037914 -1.69742e-19)
(-0.0423892 0.0364563 -1.04063e-19)
(-0.0435662 0.0347221 -4.27331e-20)
(-0.0442374 0.0328387 1.26814e-19)
(-0.0444268 0.0309235 -8.12714e-20)
(-0.0441625 0.0290872 -2.65996e-19)
(-0.0434777 0.027436 -2.94305e-19)
(-0.0424127 0.0260729 1.17654e-19)
(-0.0410158 0.0250979 -2.19509e-19)
(-0.0393447 0.0246076 1.91013e-19)
(-0.0374683 0.024693 -5.40664e-19)
(-0.0354756 0.0254334 4.16213e-19)
(-0.0334745 0.0268923 -5.51447e-19)
(-0.0315075 0.0291439 -1.02863e-20)
(-0.0294734 0.0323016 -1.86257e-19)
(-0.027974 0.0362004 5.78687e-19)
(-0.00333542 0.00735345 4.05575e-19)
(-0.00941135 0.0188222 6.17059e-20)
(-0.015422 0.0273624 -4.0832e-20)
(-0.0210159 0.0335155 -1.73461e-20)
(-0.0260541 0.0377056 3.24669e-19)
(-0.0304871 0.0402849 1.06199e-19)
(-0.0342874 0.0415586 9.6803e-20)
(-0.0374465 0.041788 -7.82091e-20)
(-0.0399703 0.0411956 3.02991e-19)
(-0.041873 0.0399721 -1.49615e-19)
(-0.0431732 0.0382828 9.69394e-20)
(-0.0438926 0.0362735 2.47458e-19)
(-0.0440548 0.0340759 -1.4082e-19)
(-0.0436853 0.0318121 1.52971e-19)
(-0.0428125 0.0295985 1.44898e-19)
(-0.041469 0.0275491 4.97315e-20)
(-0.0396939 0.0257774 -1.22814e-19)
(-0.0375352 0.0243977 3.40538e-19)
(-0.0350517 0.023525 -3.1763e-20)
(-0.0323163 0.0232731 -3.6651e-20)
(-0.0294265 0.023748 4.10373e-19)
(-0.0265052 0.0250427 -2.92439e-19)
(-0.0236136 0.0272654 4.93475e-19)
(-0.0206677 0.0305732 -4.09878e-19)
(-0.0183252 0.0348025 5.5697e-19)
(-0.00382354 0.00782123 -1.95901e-19)
(-0.0106254 0.0199727 4.50708e-20)
(-0.0171265 0.0289866 -4.73106e-20)
(-0.0230119 0.0354511 -2.25459e-19)
(-0.0281723 0.0398246 1.31626e-20)
(-0.0325838 0.042485 1.29876e-19)
(-0.0362414 0.0437574 -5.31107e-19)
(-0.0391559 0.0439173 3.98406e-19)
(-0.0413487 0.0431976 -3.89639e-19)
(-0.0428467 0.0417958 -2.46791e-19)
(-0.0436783 0.0398817 2.22201e-19)
(-0.0438722 0.0376037 -4.82608e-19)
(-0.0434565 0.0350953 4.07897e-19)
(-0.0424593 0.0324804 -1.30138e-19)
(-0.0409095 0.0298781 -3.7275e-19)
(-0.0388391 0.0274071 9.23358e-20)
(-0.0362857 0.0251889 -8.69286e-20)
(-0.0332956 0.0233502 3.28207e-20)
(-0.0299275 0.0220241 -1.17711e-19)
(-0.0262567 0.0213491 -3.91287e-19)
(-0.0223885 0.0214625 8.78468e-20)
(-0.0184611 0.0224942 -1.55024e-22)
(-0.0145569 0.0245988 -4.05488e-19)
(-0.0106137 0.0279933 2.85371e-19)
(-0.00736343 0.0325277 -2.60526e-19)
(-0.00433772 0.00825492 7.92966e-20)
(-0.0118909 0.0210258 1.51566e-19)
(-0.0188826 0.0304606 2.13596e-19)
(-0.0250398 0.037195 1.10591e-19)
(-0.0302864 0.0417217 -1.09119e-19)
(-0.0346268 0.0444441 2.6181e-19)
(-0.038081 0.0457063 1.94778e-19)
(-0.0406808 0.0457975 -7.12548e-20)
(-0.0424653 0.0449594 2.5564e-19)
(-0.0434756 0.0433949 -2.64094e-19)
(-0.0437513 0.0412765 -7.77593e-20)
(-0.0433297 0.0387529 7.92177e-20)
(-0.0422449 0.0359567 1.57485e-19)
(-0.0405287 0.0330105 1.89306e-21)
(-0.0382118 0.0300323 1.00275e-19)
(-0.0353259 0.0271416 1.856e-19)
(-0.031907 0.0244636 -3.16839e-19)
(-0.0279995 0.0221338 3.9481e-19)
(-0.0236603 0.0203007 1.33474e-19)
(-0.0189658 0.0191271 4.71434e-20)
(-0.014027 0.0187843 -4.81937e-19)
(-0.0089971 0.0194463 6.83495e-20)
(-0.00398103 0.0213277 1.06179e-19)
(0.00105709 0.0247267 -2.55055e-20)
(0.00528891 0.0295249 1.27998e-19)
(-0.00487358 0.00864984 6.21314e-21)
(-0.0131934 0.0219693 -3.90422e-19)
(-0.0206638 0.0317674 -9.79741e-21)
(-0.0270596 0.038727 -9.98091e-20)
(-0.0323413 0.0433754 -6.59969e-19)
(-0.0365444 0.0461413 5.73094e-19)
(-0.0397158 0.0473875 -4.09956e-19)
(-0.0419104 0.0474159 -2.0733e-20)
(-0.0431865 0.0464763 -1.95516e-19)
(-0.043601 0.0447761 3.395e-19)
(-0.0432065 0.0424886 -3.66877e-19)
(-0.0420503 0.0397614 -1.72404e-19)
(-0.0401746 0.0367238 3.65158e-21)
(-0.0376166 0.0334937 -3.75448e-19)
(-0.0344105 0.0301845 5.13803e-19)
(-0.0305894 0.0269112 -5.96887e-19)
(-0.0261889 0.0237977 1.19173e-21)
(-0.0212515 0.0209818 9.19268e-20)
(-0.0158318 0.018622 -2.30486e-19)
(-0.0100053 0.0169012 2.24023e-19)
(-0.00388712 0.0160239 -3.18511e-19)
(0.00235642 0.0162131 -2.10793e-19)
(0.00859818 0.0177564 3.93445e-19)
(0.0148454 0.0210591 -4.29915e-19)
(0.0201469 0.0260603 -8.75887e-21)
(-0.00542588 0.00900088 -3.18352e-19)
(-0.0145159 0.0227903 3.79115e-19)
(-0.0224398 0.0328884 -1.17829e-19)
(-0.0290258 0.0400248 2.28317e-19)
(-0.0342746 0.0447613 2.47723e-19)
(-0.0382548 0.0475522 -2.19453e-19)
(-0.0410425 0.0487784 -1.46267e-19)
(-0.0427172 0.0487543 -1.75982e-19)
(-0.0433577 0.0477376 1.61854e-19)
(-0.043038 0.0459391 -1.08459e-20)
(-0.0418254 0.0435328 2.37882e-19)
(-0.0397791 0.0406638 2.35329e-19)
(-0.0369512 0.0374564 -2.82057e-19)
(-0.0333868 0.0340217 5.55672e-19)
(-0.0291263 0.0304645 -3.69569e-19)
(-0.0242069 0.026891 -6.35519e-20)
(-0.0186663 0.0234167 7.23725e-19)
(-0.0125472 0.0201742 -3.35962e-19)
(-0.00590259 0.0173228 2.14502e-19)
(0.00119355 0.0150566 4.19842e-19)
(0.00862452 0.013607 -2.72982e-19)
(0.016213 0.0132443 2.88399e-20)
(0.0238125 0.0143392 -1.8829e-20)
(0.0314038 0.0174332 -1.12446e-19)
(0.0378841 0.0225559 2.2294e-19)
(-0.00598849 0.00930271 7.27527e-20)
(-0.0158391 0.0234751 -2.40285e-19)
(-0.0241764 0.0338037 1.32279e-19)
(-0.0308874 0.041064 -1.63829e-21)
(-0.0360162 0.0458523 1.00852e-19)
(-0.0396667 0.0486483 -1.74528e-19)
(-0.0419455 0.0498513 1.00382e-19)
(-0.0429579 0.049788 2.74707e-19)
(-0.0428043 0.0487239 -8.3872e-21)
(-0.0415772 0.0468738 -1.41559e-19)
(-0.0393592 0.0444121 1.42883e-19)
(-0.0362234 0.0414814 -3.32301e-21)
(-0.0322338 0.038201 -4.55737e-19)
(-0.0274465 0.0346736 1.69546e-19)
(-0.0219112 0.0309936 3.75792e-20)
(-0.0156733 0.0272542 -6.62874e-20)
(-0.0087772 0.0235564 -1.18505e-19)
(-0.0012696 0.0200185 4.55455e-19)
(0.00679434 0.016789 1.11289e-19)
(0.0153409 0.0140593 -2.39018e-19)
(0.0242526 0.012073 -2.87641e-20)
(0.0333441 0.011137 3.30309e-19)
(0.0424548 0.0117051 -1.54558e-19)
(0.0515489 0.0144822 6.64479e-20)
(0.0593459 0.0196288 4.71036e-20)
(-0.00655454 0.0095501 -1.45691e-19)
(-0.0171416 0.0240098 1.50324e-19)
(-0.0258357 0.034493 -8.53291e-20)
(-0.032588 0.0418193 -2.75739e-19)
(-0.0374888 0.0466193 -2.55411e-19)
(-0.0406792 0.0493983 -1.13703e-19)
(-0.0422971 0.0505739 -9.4656e-20)
(-0.0424745 0.0504858 -2.81367e-19)
(-0.041334 0.0494075 -1.14174e-19)
(-0.0389868 0.0475585 1.04505e-19)
(-0.035532 0.0451147 -1.49821e-19)
(-0.0310575 0.0422177 -1.5878e-19)
(-0.0256413 0.0389823 -1.4948e-19)
(-0.0193531 0.0355042 2.72289e-19)
(-0.0122562 0.0318671 -5.73656e-19)
(-0.00440941 0.0281496 3.28428e-19)
(0.00413041 0.0244341 -5.63221e-19)
(0.013305 0.0208171 -8.69956e-20)
(0.0230505 0.0174235 -3.10703e-19)
(0.0332879 0.0144241 -7.26997e-20)
(0.0438962 0.012052 -8.88765e-20)
(0.0546837 0.0106257 -2.9736e-19)
(0.0654824 0.0106653 -3.25795e-20)
(0.0762624 0.0130552 1.82588e-19)
(0.0855512 0.0181283 -4.99091e-19)
(-0.00711652 0.00973821 1.24978e-19)
(-0.0183994 0.0243814 1.69685e-19)
(-0.0273759 0.0349364 5.98573e-19)
(-0.0340658 0.0422653 -1.05792e-19)
(-0.0386082 0.0470324 2.53309e-19)
(-0.0411821 0.0497691 6.06886e-19)
(-0.0419583 0.0509113 -1.66269e-19)
(-0.0410953 0.0508118 2.26142e-19)
(-0.0387379 0.0497531 1.32508e-19)
(-0.035016 0.0479606 2.41146e-19)
(-0.0300452 0.0456137 -4.84923e-20)
(-0.023929 0.0428547 3.28842e-20)
(-0.0167607 0.0397974 -8.53608e-20)
(-0.00862611 0.036533 4.63303e-19)
(0.000394008 0.0331374 5.94723e-20)
(0.0102218 0.0296767 4.32064e-19)
(0.02078 0.026215 -1.10752e-19)
(0.0319892 0.0228232 3.97028e-19)
(0.0437654 0.0195933 5.57964e-20)
(0.0560129 0.0166579 2.026e-19)
(0.0685991 0.0142108 -8.75855e-20)
(0.0813208 0.0125424 -1.55507e-20)
(0.0940095 0.0121964 4.84194e-19)
(0.106677 0.0142268 2.9816e-19)
(0.117676 0.019167 -1.30551e-19)
(-0.00766644 0.00986288 -3.02897e-19)
(-0.0195871 0.0245779 -3.18705e-19)
(-0.028752 0.0351156 -3.35504e-19)
(-0.0352537 0.0423781 1.23752e-19)
(-0.0392822 0.0470635 -2.50075e-19)
(-0.0410561 0.0497288 -3.74723e-20)
(-0.0407788 0.0508286 -9.93067e-20)
(-0.0386353 0.0507289 -4.13849e-19)
(-0.0347921 0.0497222 -6.48924e-20)
(-0.0293971 0.048041 1.07063e-19)
(-0.0225821 0.0458704 -3.37164e-19)
(-0.0144658 0.0433567 4.69048e-19)
(-0.00515748 0.0406161 -6.38958e-19)
(0.00523912 0.0377408 1.54284e-19)
(0.0166227 0.0348043 -3.93466e-19)
(0.0288911 0.0318668 -3.20063e-19)
(0.0419385 0.0289796 -1.82426e-20)
(0.0556531 0.0261924 -4.85598e-20)
(0.0699155 0.0235632 3.84463e-20)
(0.0845957 0.0211761 -1.8424e-19)
(0.0995303 0.01916 -1.27745e-19)
(0.11449 0.017728 1.57264e-19)
(0.1293 0.017374 -4.35712e-19)
(0.144066 0.0192632 1.41867e-19)
(0.15704 0.0241167 1.05973e-19)
(-0.00819595 0.00992082 -5.37374e-20)
(-0.0206769 0.0245895 -9.25617e-20)
(-0.0299145 0.0350148 3.62188e-19)
(-0.0360781 0.0421374 1.35591e-19)
(-0.0394108 0.0466883 1.80547e-19)
(-0.0401713 0.0492501 -2.42512e-19)
(-0.0385959 0.0502956 4.18928e-22)
(-0.0348958 0.0502045 -1.98198e-19)
(-0.029258 0.0492794 3.68015e-19)
(-0.0218475 0.0477615 1.20615e-19)
(-0.0128112 0.0458433 1.35797e-19)
(-0.00228253 0.0436784 -5.42055e-19)
(0.00961351 0.0413897 6.70725e-19)
(0.0227549 0.039076 -2.0212e-19)
(0.0370181 0.0368166 -1.45034e-19)
(0.0522729 0.0346752 4.35433e-19)
(0.0683786 0.0327029 1.94742e-19)
(0.0851806 0.0309408 -4.94125e-19)
(0.102508 0.0294258 -2.06675e-19)
(0.120173 0.0281995 6.25101e-19)
(0.137954 0.0273177 -4.7852e-19)
(0.155562 0.0268739 2.88293e-19)
(0.172786 0.0272119 1.61376e-19)
(0.189871 0.0294804 -2.07929e-19)
(0.205141 0.034507 -2.09643e-19)
(-0.00869629 0.00990973 -1.9767e-19)
(-0.021639 0.0244084 3.18834e-19)
(-0.0308097 0.0346221 1.36766e-19)
(-0.0364587 0.0415279 -1.98818e-19)
(-0.038884 0.0458892 -3.20144e-20)
(-0.0383858 0.0483138 -2.10937e-19)
(-0.0352331 0.0492922 -8.44814e-20)
(-0.0296625 0.049217 9.52785e-20)
(-0.021881 0.0484013 -2.39138e-20)
(-0.0120695 0.0470955 1.81391e-19)
(-0.000388922 0.0455009 -1.58165e-19)
(0.0130137 0.0437804 4.39264e-19)
(0.0279983 0.0420674 -5.46345e-19)
(0.0444253 0.0404725 3.41823e-19)
(0.0621485 0.0390886 4.25947e-19)
(0.0810094 0.0379943 -6.17392e-19)
(0.10083 0.0372562 -1.88389e-19)
(0.121405 0.0369292 3.18237e-19)
(0.142502 0.0370568 -1.96923e-19)
(0.16385 0.0376711 1.90534e-19)
(0.185131 0.0387835 -4.62806e-19)
(0.20594 0.0403662 7.72444e-20)
(0.225955 0.042529 3.02778e-19)
(0.245566 0.0462404 -4.87946e-19)
(0.263491 0.0522638 1.37038e-19)
(-0.00915826 0.00982822 -1.82828e-19)
(-0.0224408 0.0240296 5.94825e-19)
(-0.0313783 0.0339299 1.14998e-19)
(-0.0363063 0.0405412 -3.12782e-19)
(-0.0375807 0.0446583 2.25414e-19)
(-0.0355438 0.0469134 1.15105e-19)
(-0.0304976 0.0478135 1.84788e-19)
(-0.0227042 0.0477635 -1.21358e-20)
(-0.0123896 0.0470862 -1.93863e-20)
(0.000249692 0.0460408 -4.08098e-20)
(0.0150392 0.0448374 -1.79047e-19)
(0.0318187 0.0436487 -6.08585e-21)
(0.0504337 0.04262 4.21403e-19)
(0.0707278 0.0418765 -6.93359e-19)
(0.0925351 0.0415295 4.94857e-19)
(0.115671 0.0416817 1.00435e-19)
(0.139925 0.0424306 1.78077e-19)
(0.165046 0.0438708 -9.2012e-20)
(0.190737 0.0460952 8.18461e-19)
(0.216632 0.0491932 -5.08218e-19)
(0.242275 0.0532283 4.07332e-19)
(0.267046 0.0581731 9.61397e-20)
(0.290324 0.0640241 -2.99687e-19)
(0.312438 0.0716377 2.54368e-19)
(0.332895 0.0813077 4.09305e-19)
(-0.00957184 0.00967566 -5.31459e-20)
(-0.0230463 0.0234506 -2.09742e-19)
(-0.0315542 0.0329362 -3.60966e-19)
(-0.0355221 0.0391775 -2.07043e-19)
(-0.0353664 0.0429997 -2.91307e-20)
(-0.0314732 0.0450583 -8.27007e-20)
(-0.0241786 0.0458756 -3.85277e-19)
(-0.0137701 0.0458669 6.41429e-20)
(-0.000493673 0.0453634 -4.36951e-19)
(0.0154378 0.0446313 -3.40419e-20)
(0.0338351 0.0438878 -4.2246e-19)
(0.0545231 0.0433138 -1.51025e-19)
(0.0773322 0.043064 8.69706e-20)
(0.10209 0.043276 -4.15352e-19)
(0.128612 0.0440777 3.77555e-21)
(0.156697 0.0455956 -3.59941e-19)
(0.186116 0.0479618 1.39349e-19)
(0.216605 0.0513239 -5.05352e-19)
(0.247847 0.0558564 -8.68398e-20)
(0.279451 0.0617752 -1.21239e-20)
(0.310898 0.0693355 -8.61089e-20)
(0.341424 0.0788005 -8.85326e-20)
(0.370029 0.0906284 -4.44937e-20)
(0.396161 0.106235 -1.78295e-19)
(0.41846 0.124567 -3.94597e-19)
(-0.00992592 0.00945196 9.70103e-20)
(-0.023415 0.0226715 2.65899e-19)
(-0.0312634 0.0316442 3.21824e-19)
(-0.0339951 0.037446 -2.5884e-19)
(-0.0320913 0.0409313 4.83159e-19)
(-0.0259842 0.0427771 -2.63781e-19)
(-0.0160453 0.0435192 1.43991e-19)
(-0.00258969 0.0435813 2.25561e-19)
(0.0141143 0.0433002 2.06158e-19)
(0.0338341 0.0429467 1.00669e-19)
(0.0563611 0.0427415 1.6333e-19)
(0.0815004 0.0428686 9.53195e-20)
(0.109061 0.0434858 6.46453e-19)
(0.138849 0.0447344 -4.71339e-19)
(0.17066 0.0467469 5.39851e-19)
(0.204279 0.0496566 -2.25015e-19)
(0.239475 0.0536077 4.8708e-19)
(0.276003 0.0587692 -2.31908e-20)
(0.31361 0.0653564 -1.01384e-19)
(0.352039 0.0736621 -1.87279e-20)
(0.391046 0.0840965 3.87179e-19)
(0.430439 0.0972938 -3.80531e-19)
(0.470399 0.114551 2.67145e-19)
(0.511603 0.137769 2.97815e-19)
(0.550571 0.160983 6.33175e-20)
(-0.0102075 0.00915715 6.7132e-20)
(-0.0235011 0.0216944 -3.80409e-19)
(-0.030422 0.0300628 -1.39087e-19)
(-0.0316014 0.0353661 1.27829e-19)
(-0.0275898 0.0384859 -3.96152e-19)
(-0.0188684 0.0401191 -7.85907e-20)
(-0.0058479 0.0408123 5.47733e-20)
(0.0111253 0.0409948 2.1741e-19)
(0.0317553 0.0410064 -5.52917e-19)
(0.0557824 0.0411179 4.22148e-20)
(0.0829695 0.0415486 -1.6297e-19)
(0.11309 0.0424787 -4.97039e-19)
(0.145919 0.0440596 3.39829e-19)
(0.181226 0.0464229 1.45851e-20)
(0.218771 0.049687 -1.02422e-20)
(0.258305 0.053965 3.45721e-19)
(0.299575 0.0593716 -6.13071e-19)
(0.342332 0.0660316 4.86746e-19)
(0.386347 0.0740905 -9.02291e-20)
(0.431437 0.0837251 2.85706e-19)
(0.477494 0.095149 -4.71384e-19)
(0.524549 0.108643 2.71385e-19)
(0.573044 0.124765 -4.88604e-19)
(0.623866 0.144083 5.06818e-19)
(0.672062 0.160507 -1.60748e-19)
(-0.0104011 0.00879116 4.51578e-19)
(-0.0232515 0.0205233 -7.64274e-20)
(-0.0289361 0.0282063 5.66759e-19)
(-0.0282034 0.0329674 2.64007e-19)
(-0.0216798 0.0357121 2.12907e-20)
(-0.00990066 0.037155 1.16566e-19)
(0.00667935 0.0378505 2.82717e-20)
(0.0276753 0.0382306 4.79569e-19)
(0.0527545 0.0386334 1.55132e-19)
(0.0816181 0.0393257 -2.08986e-20)
(0.113985 0.0405184 4.20311e-20)
(0.14958 0.0423799 1.62359e-19)
(0.18812 0.0450448 1.35951e-19)
(0.229315 0.0486215 2.91777e-19)
(0.27286 0.0531979 -3.33485e-19)
(0.318443 0.058846 1.01003e-19)
(0.365747 0.0656256 3.07324e-20)
(0.414469 0.0735874 1.50337e-19)
(0.464328 0.0827741 4.08638e-19)
(0.515096 0.0932178 -2.67096e-19)
(0.566615 0.104928 2.29504e-20)
(0.618821 0.117878 -3.8095e-19)
(0.671867 0.132123 3.6182e-19)
(0.726176 0.147906 -3.525e-19)
(0.776839 0.161352 3.37403e-20)
(-0.0104882 0.00835385 -3.76708e-19)
(-0.0226059 0.0191641 2.98865e-19)
(-0.0267001 0.0260948 -4.89803e-19)
(-0.02365 0.0302893 4.2522e-20)
(-0.0141651 0.0326733 3.48877e-19)
(0.00115787 0.0339759 -5.84339e-19)
(0.0218119 0.0347557 4.65844e-19)
(0.0473629 0.035443 -7.42545e-19)
(0.0774269 0.0363698 1.4863e-19)
(0.111648 0.0377922 3.18959e-20)
(0.14968 0.0399058 2.52557e-19)
(0.191172 0.0428577 -8.42266e-19)
(0.235758 0.0467549 1.45951e-19)
(0.283054 0.0516705 1.55071e-19)
(0.33266 0.0576481 -9.32668e-20)
(0.384163 0.0647052 -5.80151e-19)
(0.437149 0.0728353 2.73922e-19)
(0.491213 0.0820084 5.14112e-19)
(0.545979 0.0921691 -5.4414e-19)
(0.601115 0.103232 3.9585e-19)
(0.656342 0.115068 -5.15246e-19)
(0.711441 0.127489 3.75481e-19)
(0.76629 0.140328 -1.05162e-19)
(0.820945 0.15379 6.02521e-19)
(0.871294 0.165892 -7.00817e-19)
(-0.0104469 0.00784504 5.39285e-20)
(-0.0214959 0.0176249 4.41235e-20)
(-0.0235981 0.023754 1.08834e-19)
(-0.0177779 0.0273817 3.90838e-19)
(-0.00483842 0.029448 -1.23025e-20)
(0.014553 0.0306923 8.83311e-20)
(0.0398246 0.031673 3.9512e-19)
(0.0704775 0.0328133 1.60183e-19)
(0.106057 0.0344327 -5.29976e-20)
(0.146124 0.036769 4.53076e-19)
(0.190241 0.0399932 -5.17885e-19)
(0.237948 0.0442208 7.97505e-19)
(0.288764 0.0495195 -3.17525e-19)
(0.342181 0.0559151 5.78129e-19)
(0.397669 0.0633957 -1.95817e-19)
(0.454687 0.0719157 7.16328e-20)
(0.512695 0.0813977 8.70457e-20)
(0.571172 0.0917344 -1.68829e-19)
(0.629627 0.102788 1.41662e-19)
(0.68762 0.114389 9.1369e-20)
(0.744762 0.126327 1.26633e-19)
(0.800719 0.138347 2.70063e-19)
(0.855209 0.150196 -2.25062e-20)
(0.908113 0.162048 -1.24187e-19)
(0.956417 0.173366 3.82811e-19)
(-0.0102515 0.00726474 -3.15333e-19)
(-0.0198447 0.0159165 3.46012e-20)
(-0.0195038 0.0212161 -6.2621e-19)
(-0.010415 0.0243045 -1.50514e-19)
(0.00651314 0.0261284 -2.83402e-19)
(0.0305289 0.027432 -6.11212e-20)
(0.0609791 0.0287673 -3.067e-19)
(0.0972778 0.0305431 -1.84129e-19)
(0.138872 0.0330582 2.44896e-19)
(0.185212 0.0365222 -4.10459e-19)
(0.235729 0.04107 -1.14458e-19)
(0.289825 0.0467732 4.52819e-21)
(0.346866 0.0536473 -7.79184e-19)
(0.406189 0.0616587 3.32363e-19)
(0.467112 0.0707306 -4.86822e-19)
(0.528948 0.080748 -1.52576e-20)
(0.591028 0.0915629 9.67816e-20)
(0.652714 0.102998 -1.5732e-19)
(0.713421 0.114853 -1.38365e-19)
(0.77263 0.1269 6.96163e-20)
(0.829894 0.138895 7.8306e-20)
(0.884834 0.150566 -5.08048e-19)
(0.937129 0.161649 2.90494e-19)
(0.986617 0.172277 1.4811e-19)
(1.03135 0.182922 4.24253e-20)
(-0.00987253 0.00661369 3.2269e-19)
(-0.0175683 0.0140532 -3.57314e-19)
(-0.0142835 0.0185202 5.04551e-19)
(-0.00138376 0.021128 7.89445e-20)
(0.0201014 0.0228204 -2.43574e-20)
(0.049318 0.0243384 -1.72595e-19)
(0.0855082 0.0262194 2.60935e-20)
(0.12797 0.0288482 2.64976e-19)
(0.17602 0.0324916 -3.67165e-19)
(0.228958 0.0373181 3.87197e-19)
(0.28605 0.043413 -4.10495e-20)
(0.346519 0.0507888 1.81485e-20)
(0.409551 0.0593952 5.09244e-19)
(0.474305 0.0691276 6.8493e-19)
(0.539934 0.0798358 -2.68803e-19)
(0.605609 0.0913327 4.79495e-19)
(0.670544 0.103403 2.44804e-19)
(0.734019 0.115811 -1.49861e-19)
(0.795397 0.128309 4.77764e-19)
(0.854138 0.140644 -1.76202e-20)
(0.909805 0.152561 -4.6298e-19)
(0.96206 0.163808 4.91153e-19)
(1.01064 0.174149 7.19363e-20)
(1.05545 0.183686 -3.07743e-19)
(1.09544 0.193531 9.74338e-20)
(-0.00927688 0.00589403 -4.49138e-19)
(-0.0145762 0.0120545 4.87129e-19)
(-0.00779809 0.0157137 -3.11288e-19)
(0.00949345 0.0179342 -9.78147e-20)
(0.0361288 0.0196431 -2.20084e-19)
(0.0711284 0.0215687 3.91316e-19)
(0.1136 0.0242219 -2.28309e-19)
(0.16269 0.0279512 -1.05103e-19)
(0.217543 0.0329764 -3.02215e-19)
(0.277268 0.0394094 7.84944e-21)
(0.340926 0.0472681 -1.19186e-19)
(0.40753 0.0564904 5.82628e-20)
(0.476062 0.0669457 -6.15361e-19)
(0.545496 0.0784481 1.75902e-19)
(0.614829 0.0907687 -2.13225e-19)
(0.683113 0.103649 -1.72645e-19)
(0.749486 0.116816 5.34118e-20)
(0.813197 0.129989 -2.54042e-19)
(0.873621 0.142895 -1.1017e-19)
(0.930273 0.155277 3.16818e-19)
(0.982802 0.166899 1.35582e-19)
(1.03098 0.177549 -5.76808e-19)
(1.0747 0.187043 4.26589e-19)
(1.11397 0.195481 -8.10297e-20)
(1.14846 0.2043 -1.70218e-19)
(-0.0084286 0.00510999 -1.63828e-19)
(-0.0107738 0.00994599 -9.09553e-20)
(9.28634e-05 0.012854 -1.83243e-20)
(0.0223883 0.0148171 1.34735e-19)
(0.0547796 0.0167292 1.47435e-19)
(0.0961315 0.0192921 1.29081e-19)
(0.14538 0.0229758 1.61329e-19)
(0.201478 0.0280752 2.47404e-19)
(0.263352 0.0347454 3.79752e-19)
(0.32988 0.0430215 3.77231e-19)
(0.39988 0.0528356 1.99949e-19)
(0.472133 0.0640336 -5.38801e-20)
(0.545411 0.0763921 1.35321e-20)
(0.618513 0.0896365 -1.86331e-20)
(0.69031 0.103459 1.6055e-19)
(0.759786 0.117539 -4.33634e-20)