/*--------------------------------*- C++ -*----------------------------------*\
  =========                 |
  \\      /  F ield         | OpenFOAM: The Open Source CFD Toolbox
   \\    /   O peration     | Website:  https://openfoam.org
    \\  /    A nd           | Version:  6.0
     \\/     M anipulation  |
\*---------------------------------------------------------------------------*/
FoamFile
{
    version     2.0;
    format      ascii;
    class       surfaceScalarField;
    location    "2.8";
    object      phi;
}
// * * * * * * * * * * * * * * * * * * * * * * * * * * * * * * * * * * * * * //

dimensions      [0 3 -1 0 0 0 0];

internalField   nonuniform List<scalar> 
15760
(
-2.44121e-05
2.45535e-05
-1.41445e-07
-7.93901e-05
5.53313e-05
-3.5334e-07
-0.000153332
7.44537e-05
-5.11661e-07
-0.000238389
8.5686e-05
-6.29115e-07
-0.000329134
9.14616e-05
-7.16901e-07
-0.000421786
9.34362e-05
-7.83823e-07
-0.000513645
9.26948e-05
-8.35694e-07
-0.0006027
8.99301e-05
-8.75725e-07
-0.000687388
8.55943e-05
-9.0534e-07
-0.000766473
8.00097e-05
-9.24958e-07
-0.000838981
7.34427e-05
-9.34565e-07
-0.000904193
6.61453e-05
-9.34054e-07
-0.000961642
5.83727e-05
-9.2339e-07
-0.00101112
5.03851e-05
-9.02666e-07
-0.00105269
4.2436e-05
-8.72058e-07
-0.00108661
3.47519e-05
-8.31764e-07
-0.00111334
2.75135e-05
-7.81995e-07
-0.00113347
2.08506e-05
-7.22793e-07
-0.00114763
1.48176e-05
-6.5383e-07
9.34392e-06
-5.7493e-07
-0.0011564
-2.32817e-05
4.78352e-05
-7.60513e-05
0.000108101
-0.000147337
0.00014574
-0.000229615
0.000167964
-0.000317612
0.000179459
-0.000407612
0.000183436
-0.000496936
0.000182018
-0.000583573
0.000176568
-0.000665957
0.000167978
-0.000742828
0.000156881
-0.000813178
0.000143792
-0.000876229
0.000129196
-0.000931439
0.000113583
-0.000978508
9.74543e-05
-0.00101738
8.13117e-05
-0.00104825
6.56167e-05
-0.00107149
5.0755e-05
-0.00108766
3.70249e-05
-0.00109744
2.45925e-05
1.33732e-05
-0.00110147
-2.11025e-05
6.89377e-05
-6.95815e-05
0.00015658
-0.000135673
0.000211831
-0.000212481
0.000244772
-0.00029504
0.000262018
-0.000379763
0.000268159
-0.000464015
0.00026627
-0.000545797
0.00025835
-0.000623531
0.000245712
-0.000695928
0.000229278
-0.000761922
0.000209787
-0.000820643
0.000187917
-0.000871414
0.000164354
-0.000913769
0.000139809
-0.000947469
0.000115012
-0.00097252
9.06673e-05
-0.000989168
6.74035e-05
-0.0009979
4.57564e-05
-0.000999418
2.61107e-05
8.4906e-06
-0.000994536
-1.80266e-05
8.69642e-05
-6.03723e-05
0.000198926
-0.000118956
0.000270415
-0.000187782
0.000313598
-0.00026233
0.000336567
-0.000339215
0.000345044
-0.000415877
0.000342932
-0.000490339
0.000332812
-0.000561018
0.000316391
-0.000626603
0.000294862
-0.000685971
0.000269155
-0.000738156
0.000240102
-0.000782334
0.000208531
-0.000817838
0.000175314
-0.000844196
0.00014137
-0.000861168
0.000107639
-0.000868788
7.50239e-05
-0.000867408
4.43761e-05
-0.000857738
1.64413e-05
-8.45008e-06
-0.000840798
-1.42704e-05
0.000101235
-4.89933e-05
0.000233649
-9.81062e-05
0.000319528
-0.000156723
0.000372215
-0.000220906
0.000400749
-0.000287537
0.000411675
-0.000354171
0.000409566
-0.000418871
0.000397512
-0.000480069
0.000377589
-0.000536448
0.000351241
-0.000586858
0.000319565
-0.000630265
0.00028351
-0.000665731
0.000243997
-0.000692415
0.000201997
-0.000709608
0.000158563
-0.000716799
0.00011483
-0.000713754
7.19792e-05
-0.000700612
3.1234e-05
-0.00067802
-6.15059e-06
-3.92731e-05
-0.000647197
-1.00997e-05
0.000111334
-3.61638e-05
0.000259713
-7.43141e-05
0.000357678
-0.000120915
0.000418816
-0.000172716
0.00045255
-0.000226946
0.000465904
-0.000281314
0.000463935
-0.000333956
0.000450154
-0.000383337
0.00042697
-0.000428164
0.000396068
-0.000467301
0.000358702
-0.000499706
0.000315915
-0.000524394
0.000268685
-0.000540421
0.000218023
-0.000546905
0.000165048
-0.000543095
0.00011102
-0.000528467
5.73514e-05
-0.000502881
5.64735e-06
-0.000466812
-4.22188e-05
-8.4477e-05
-0.000421609
-5.80714e-06
0.000117141
-2.27067e-05
0.000276612
-4.89875e-05
0.000383959
-8.23195e-05
0.000452148
-0.000120216
0.000490447
-0.000160322
0.00050601
-0.000200558
0.000504171
-0.000239165
0.00048876
-0.000274672
0.000462478
-0.000305841
0.000427237
-0.000331592
0.000384453
-0.000350937
0.00033526
-0.000362928
0.000280676
-0.000366618
0.000221713
-0.000361057
0.000159487
-0.000345335
9.52981e-05
-0.000318682
3.06984e-05
-0.000280647
-3.23882e-05
-0.000231427
-9.14386e-05
-0.000143542
-0.000172362
-1.6872e-06
0.000118829
-9.48587e-06
0.000284411
-2.36608e-05
0.000398134
-4.31482e-05
0.000471636
-6.62627e-05
0.000513561
-9.11248e-05
0.000530872
-0.000115925
0.000528971
-0.000139055
0.00051189
-0.000159145
0.000482568
-0.000175041
0.000443132
-0.000185753
0.000395165
-0.000190397
0.000339905
-0.000188129
0.000278407
-0.000178091
0.000211675
-0.000159376
0.000140772
-0.000131029
6.6951e-05
-9.212e-05
-8.2104e-06
-4.19163e-05
-8.25919e-05
1.97327e-05
-0.000153088
-0.000215451
9.16413e-05
1.99204e-06
0.000116837
2.6683e-06
0.000283735
1.27351e-07
0.000400675
-5.70346e-06
0.000477466
-1.39263e-05
0.000521784
-2.31799e-05
0.000540126
-3.19817e-05
0.000537773
-3.89291e-05
0.000518838
-4.27921e-05
0.000486431
-4.25321e-05
0.000442872
-3.72758e-05
0.000389909
-2.62649e-05
0.000328894
-8.79425e-06
0.000260937
1.58538e-05
0.000187027
4.84701e-05
0.000108156
8.99557e-05
2.54655e-05
0.000141297
-5.95521e-05
0.000203435
-0.000144729
0.000276868
-0.000226521
-0.000299241
0.000360658
5.01386e-06
0.000111823
1.30377e-05
0.000275711
2.09777e-05
0.000392735
2.7833e-05
0.000470611
3.37812e-05
0.000515836
3.96532e-05
0.000534254
4.65582e-05
0.000530868
5.56399e-05
0.000509756
6.79435e-05
0.000474127
8.43631e-05
0.000426453
0.000105644
0.000368628
0.000132416
0.000302122
0.000165251
0.000228101
0.00020473
0.000147548
0.000251513
6.13735e-05
0.000306401
-2.94225e-05
0.000370361
-0.000123513
0.000444447
-0.000218815
0.000529442
-0.000311517
-0.000394447
0.000624648
7.23135e-06
0.000104591
2.10853e-05
0.000261857
3.77724e-05
0.000376048
5.56286e-05
0.000452755
7.42298e-05
0.000497235
9.3903e-05
0.000514581
0.000115362
0.000509409
0.000139451
0.000485666
0.000166997
0.000446581
0.000198728
0.000394722
0.00023526
0.000332096
0.000277118
0.000260263
0.000324782
0.000180437
0.000378741
9.35891e-05
0.000439563
5.51254e-07
0.000507964
-9.78235e-05
0.000584852
-0.000200401
0.000671299
-0.000305262
0.000768255
-0.000408473
-0.000501355
0.000875163
8.57688e-06
9.60145e-05
2.65044e-05
0.000243929
4.97942e-05
0.000352758
7.64128e-05
0.000426136
0.000105494
0.000468153
0.000136931
0.000483144
0.000171056
0.000475284
0.000208409
0.000448314
0.000249582
0.000405408
0.000295141
0.000349163
0.000345596
0.000281641
0.000401412
0.000204447
0.000463036
0.000118813
0.000530941
2.56847e-05
0.000605667
-7.41754e-05
0.000687876
-0.000180033
0.000778389
-0.000290913
0.000878189
-0.000405061
0.000988216
-0.0005185
-0.000621036
0.0011079
9.06245e-06
8.6952e-05
2.92415e-05
0.00022375
5.6803e-05
0.000325196
8.96362e-05
0.000393303
0.000126621
0.000431168
0.000167326
0.000442439
0.000211765
0.000430845
0.000260205
0.000399874
0.000313037
0.000352576
0.0003707
0.0002915
0.000433649
0.000218692
0.000502351
0.000135746
0.000577293
4.38715e-05
0.000658995
-5.60177e-05
0.000748016
-0.000163197
0.00084496
-0.000276977
0.000950489
-0.000396442
0.00106533
-0.000519905
0.00119018
-0.000643351
-0.00075512
0.00132427
8.77311e-06
7.81789e-05
2.94942e-05
0.000203029
5.90611e-05
0.000295629
9.55533e-05
0.000356811
0.000137795
0.000388927
0.000185175
0.000395058
0.000237494
0.000378526
0.000294835
0.000342533
0.000357461
0.00028995
0.000425761
0.0002232
0.000500206
0.000144247
0.000581334
5.46181e-05
0.000669721
-4.4516e-05
0.000765954
-0.00015225
0.000870577
-0.00026782
0.000984049
-0.000390449
0.00110671
-0.000519106
0.00123881
-0.000652005
0.0013805
-0.000785034
-0.00090524
0.00153062
7.85642e-06
7.03225e-05
2.76873e-05
0.000183198
5.73072e-05
0.000266009
9.52125e-05
0.000318906
0.000140365
0.000343774
0.000192143
0.00034328
0.00025028
0.000320389
0.000314798
0.000278016
0.000385949
0.000218798
0.000464165
0.000144985
0.000550006
5.8405e-05
0.000644113
-3.94889e-05
0.000747136
-0.000147538
0.000859646
-0.00026476
0.000982036
-0.00039021
0.00111442
-0.00052283
0.00125657
-0.00066126
0.00140798
-0.000803414
0.00156797
-0.000945025
-0.00107217
0.00173491
6.5093e-06
6.38132e-05
2.44297e-05
0.000165278
5.26805e-05
0.000237759
9.03516e-05
0.000281234
0.000136722
0.000297403
0.000191332
0.00028867
0.000254013
0.000257709
0.000324874
0.000207155
0.000404273
0.000139399
0.000492761
5.64965e-05
0.000591009
-3.98434e-05
0.000699712
-0.000148192
0.000819464
-0.000267291
0.000950624
-0.00039592
0.00109317
-0.000532756
0.00124659
-0.00067625
0.00140983
-0.000824499
0.00158139
-0.000974976
0.00175963
-0.00112327
-0.00125492
0.00194238
4.96138e-06
5.88518e-05
2.04543e-05
0.000149785
4.65958e-05
0.000211617
8.31943e-05
0.000244636
0.000129998
0.0002506
0.000186873
0.000231795
0.000253899
0.000190682
0.000331401
0.000129653
0.000419918
5.08827e-05
0.000520127
-4.37131e-05
0.000632733
-0.000152449
0.000758313
-0.000273771
0.000897156
-0.000406134
0.0010491
-0.000547862
0.00121339
-0.000697043
0.00138859
-0.000851459
0.00157265
-0.00100856
0.001763
-0.00116533
0.00195709
-0.00131735
-0.00145007
0.00215223
3.45283e-06
5.5399e-05
1.65372e-05
0.000136701
4.05727e-05
0.000187582
7.61601e-05
0.000209049
0.000123629
0.000203131
0.000183295
0.000172129
0.000255597
0.000118381
0.000341131
4.41185e-05
0.000440604
-4.85911e-05
0.00055472
-0.000157828
0.00068401
-0.000281739
0.000828654
-0.000418415
0.000988296
-0.000565776
0.0011619
-0.000721468
0.00134769
-0.000882828
0.00154313
-0.0010469
0.00174509
-0.00121052
0.00195011
-0.00137035
0.00215497
-0.00152221
-0.00165184
0.00235674
2.20636e-06
5.31927e-05
1.34017e-05
0.000125505
3.60354e-05
0.000164948
7.15202e-05
0.000173564
0.000120826
0.000153825
0.000184778
0.000108178
0.000264197
3.89622e-05
0.000359911
-5.15961e-05
0.000472668
-0.000161348
0.00060297
-0.000288131
0.000750883
-0.000429651
0.000915842
-0.000583374
0.00109651
-0.000746444
0.00129071
-0.000915666
0.00149544
-0.00108756
0.00170704
-0.0012585
0.00192138
-0.00142485
0.0021343
-0.00158327
0.00234236
-0.00173027
-0.00185275
0.00254326
1.39775e-06
5.17949e-05
1.1623e-05
0.00011528
3.41172e-05
0.000142454
7.10681e-05
0.000136613
0.000124077
0.000100816
0.000194454
3.78007e-05
0.000283325
-4.99086e-05
0.000391596
-0.000159867
0.000519816
-0.000289568
0.000667984
-0.000436299
0.00083536
-0.000597028
0.00102033
-0.000768339
0.00122033
-0.000946447
0.00143195
-0.00112728
0.00165105
-0.00130666
0.00187302
-0.00148047
0.00209306
-0.00164489
0.00230632
-0.00179652
0.00250792
-0.00193188
-0.00204117
0.00269635
1.13183e-06
5.06631e-05
1.15554e-05
0.000104857
3.55183e-05
0.000118491
7.58887e-05
9.62426e-05
0.000134817
4.18881e-05
0.000213981
-4.13637e-05
0.000314636
-0.000150563
0.000437516
-0.000282748
0.000582664
-0.000434716
0.000749244
-0.000602879
0.000935409
-0.000783192
0.00113827
-0.000971198
0.00135398
-0.00116216
0.00157798
-0.00135129
0.0018053
-0.00153398
0.0020309
-0.00170608
0.0022501
-0.00186409
0.00245887
-0.0020053
0.00265469
-0.0021277
-0.00222904
0.00284256
1.43693e-06
4.92262e-05
1.33125e-05
9.29809e-05
4.04648e-05
9.13386e-05
8.62966e-05
5.04108e-05
0.000153354
-2.51696e-05
0.00024349
-0.000131499
0.00035783
-0.000264903
0.00049663
-0.000421548
0.000659099
-0.000597185
0.000843264
-0.000787044
0.00104596
-0.000985885
0.00126294
-0.00118818
0.00148917
-0.00138839
0.00171918
-0.0015813
0.00194751
-0.00176231
0.00216915
-0.00192772
0.00237989
-0.00207483
0.00257667
-0.00220208
0.00275796
-0.00230899
-0.00239551
0.00292442
2.27005e-06
4.69561e-05
1.67888e-05
7.84621e-05
4.87608e-05
5.93666e-05
0.000101937
-2.76576e-06
0.000179052
-0.000102285
0.000281876
-0.000234322
0.000411102
-0.00039413
0.000566182
-0.000576628
0.000745183
-0.000776185
0.000944774
-0.000986635
0.00116038
-0.00120149
0.00138649
-0.00141429
0.00161711
-0.00161901
0.00184628
-0.00181046
0.00206852
-0.00198455
0.00227927
-0.00213847
0.00247512
-0.00227069
0.00265395
-0.00238091
0.00281482
-0.00246986
-0.0025391
0.00295841
3.54436e-06
4.34118e-05
2.17362e-05
6.02703e-05
5.99313e-05
2.11716e-05
0.000122017
-6.48514e-05
0.000210667
-0.000190934
0.000327273
-0.000350929
0.000471776
-0.000538633
0.000642502
-0.000747354
0.000836134
-0.000969817
0.00104787
-0.00119837
0.00127177
-0.00142539
0.00150131
-0.00164383
0.00172997
-0.00184767
0.00195175
-0.00203225
0.00216171
-0.00219451
0.00235617
-0.00233293
0.00253289
-0.0024474
0.00269095
-0.00253897
0.00283063
-0.00260954
-0.00266186
0.00295339
5.15811e-06
3.82536e-05
2.78489e-05
3.75794e-05
7.33815e-05
-2.4361e-05
0.000145551
-0.000137021
0.000246697
-0.00029208
0.000377517
-0.000481749
0.000536867
-0.000697983
0.000721675
-0.000932162
0.000927077
-0.00117522
0.00114681
-0.0014181
0.00137382
-0.0016524
0.00160095
-0.00187096
0.00182164
-0.00206835
0.00203044
-0.00224105
0.00222336
-0.00238743
0.00239798
-0.00250755
0.00255336
-0.00260278
0.00268984
-0.00267545
0.00280873
-0.00272843
-0.00276516
0.00291204
7.02001e-06
3.12336e-05
3.48364e-05
9.76299e-06
8.85292e-05
-7.80537e-05
0.000171563
-0.000220055
0.000285645
-0.000406162
0.000430451
-0.000626556
0.000603444
-0.000870976
0.000799938
-0.00112866
0.00101348
-0.00138876
0.00123654
-0.00164116
0.0014613
-0.00187716
0.0016805
-0.00209017
0.00188811
-0.00227596
0.00207968
-0.00243262
0.00225253
-0.00256028
0.00240563
-0.00266065
0.00253934
-0.0027365
0.0026551
-0.00279121
0.002755
-0.00282833
-0.00285161
0.00284145
9.06334e-06
2.21703e-05
4.24645e-05
-2.36382e-05
0.000104876
-0.000140465
0.000199178
-0.000314356
0.000326134
-0.000533118
0.000484067
-0.000784488
0.000668778
-0.00105569
0.00087386
-0.00133374
0.00109139
-0.0016063
0.00131289
-0.00186266
0.00153032
-0.00209458
0.00173687
-0.00229672
0.00192751
-0.0024666
0.00209916
-0.00260428
0.0022506
-0.00271172
0.00238216
-0.0027922
0.00249529
-0.00284963
0.00259222
-0.00288813
0.0026755
-0.00291162
-0.0029238
0.00274769
1.12475e-05
1.09228e-05
5.05616e-05
-6.29523e-05
0.000122018
-0.000211922
0.000227638
-0.000419976
0.000366914
-0.000672394
0.000536507
-0.000954081
0.000730374
-0.00124955
0.000940416
-0.00154378
0.00115753
-0.00182341
0.00137277
-0.00207791
0.00157844
-0.00230025
0.0017687
-0.00248698
0.00193991
-0.00263781
0.0020905
-0.00275487
0.00222067
-0.00284189
0.00233189
-0.00290342
0.00242644
-0.00294418
0.00250699
-0.00296869
0.00257629
-0.00298091
-0.00298432
0.0026368
1.35506e-05
-2.62781e-06
5.90005e-05
-0.000108402
0.000139612
-0.000292533
0.000256251
-0.000536615
0.000406811
-0.000822955
0.000586038
-0.00113331
0.00078598
-0.0014495
0.000997052
-0.00175485
0.0012094
-0.00203575
0.00141421
-0.00228272
0.00160464
-0.00249067
0.00177624
-0.00265858
0.00192693
-0.0027885
0.00205663
-0.00288457
0.00216676
-0.00295201
0.00225963
-0.00299629
0.00233802
-0.00302258
0.00240477
-0.00303544
0.00246253
-0.00303867
-0.00303536
0.00251357
1.59585e-05
-1.85863e-05
6.76698e-05
-0.000160114
0.000157332
-0.000382195
0.000284339
-0.000663622
0.000444685
-0.000983301
0.000631038
-0.00131966
0.000833633
-0.00165209
0.00104177
-0.00196298
0.00124539
-0.00223938
0.00143638
-0.0024737
0.0016092
-0.0026635
0.00176101
-0.00281039
0.00189128
-0.00291877
0.00200124
-0.00299454
0.00209322
-0.00304399
0.00217009
-0.00307315
0.0022348
-0.00308729
0.00229012
-0.00309076
0.00233848
-0.00308703
-0.00307871
0.00238183
1.84546e-05
-3.70409e-05
7.64495e-05
-0.000218108
0.000174832
-0.000480578
0.000311206
-0.000799997
0.00047942
-0.00115151
0.000670032
-0.00151027
0.000871731
-0.00185379
0.0010732
-0.00216445
0.00126477
-0.00243095
0.00143949
-0.00264843
0.00159344
-0.00281744
0.0017254
-0.00294234
0.00183624
-0.00302962
0.00192822
-0.00308652
0.00200427
-0.00312004
0.00206748
-0.00313637
0.00212079
-0.00314059
0.00216672
-0.00313669
0.00220737
-0.00312768
-0.00311572
0.00224438
2.10139e-05
-5.80548e-05
8.51958e-05
-0.00028229
0.000191732
-0.000587114
0.000336135
-0.0009444
0.000509954
-0.00132533
0.000701765
-0.00170208
0.00089912
-0.00205115
0.00109065
-0.00235598
0.00126764
-0.00260793
0.00142464
-0.00280543
0.00155942
-0.00295222
0.00167228
-0.0030552
0.00176526
-0.00312259
0.00184129
-0.00316255
0.00190363
-0.00318237
0.00195535
-0.0031881
0.00199919
-0.00318442
0.00203736
-0.00317486
0.00207161
-0.00316193
-0.00314736
0.00210325
2.36006e-05
-8.16554e-05
9.37384e-05
-0.000352428
0.000207619
-0.000700995
0.000358415
-0.0010952
0.000535341
-0.00150226
0.00072527
-0.00189201
0.00091514
-0.00224102
0.00109411
-0.00253496
0.00125481
-0.00276863
0.0013935
-0.00294413
0.00150959
-0.00306831
0.00160468
-0.00315029
0.00168162
-0.00319953
0.00174378
-0.00322471
0.00179444
-0.00323304
0.00183653
-0.00323019
0.00187246
-0.00322035
0.0019041
-0.0032065
0.00193287
-0.00319071
-0.00317429
0.0019598
2.61689e-05
-0.000107824
0.000101886
-0.000428145
0.000222072
-0.000821181
0.000377384
-0.00125051
0.000554809
-0.00167968
0.000739928
-0.00207713
0.00091963
-0.00242072
0.00108411
-0.00269943
0.00122761
-0.00291213
0.00134814
-0.00306467
0.00144657
-0.00316674
0.00152548
-0.0032292
0.00158829
-0.00326234
0.00163849
-0.00327491
0.00167925
-0.0032738
0.0017132
-0.00326414
0.0017424
-0.00324955
0.00176841
-0.00323251
0.00179235
-0.00321464
-0.00319693
0.00181498
2.86659e-05
-0.00013649
0.000109437
-0.000508916
0.000234683
-0.000946427
0.000392472
-0.0014083
0.000567807
-0.00185502
0.00074548
-0.0022548
0.000912883
-0.00258812
0.00106162
-0.00284817
0.0011877
-0.00303821
0.00129076
-0.00316773
0.00137286
-0.00324883
0.0014373
-0.00329365
0.00148777
-0.00331281
0.0015277
-0.00331483
0.00156
-0.0033061
0.00158697
-0.00329111
0.00161033
-0.00327292
0.00163133
-0.00325351
0.00165084
-0.00323414
-0.00321552
0.00166943
3.10342e-05
-0.000167524
0.00011619
-0.000594071
0.000245082
-0.00107532
0.000403234
-0.00156645
0.000574029
-0.00202581
0.000742011
-0.00242279
0.000895558
-0.00274167
0.00102794
-0.00298055
0.00113691
-0.00314718
0.00122353
-0.00325435
0.00129078
-0.00331608
0.00134241
-0.00334528
0.00138214
-0.00335254
0.0014132
-0.0033459
0.00143819
-0.00333108
0.00145904
-0.00331197
0.00147718
-0.00329105
0.00149357
-0.00326991
0.00150889
-0.00324946
-0.00323021
0.00152357
3.32157e-05
-0.00020074
0.000121958
-0.000682814
0.000252964
-0.00120633
0.000409377
-0.00172286
0.000573412
-0.00218985
0.000729903
-0.00257928
0.000868588
-0.00288035
0.000984507
-0.00309647
0.00107705
-0.00323973
0.00114846
-0.00332575
0.00120236
-0.00336998
0.00124269
-0.00338561
0.00127305
-0.00338289
0.00129637
-0.00336922
0.0013149
-0.00334962
0.00133027
-0.00332733
0.00134359
-0.00330437
0.00135562
-0.00328194
0.00136688
-0.00326072
-0.00324103
0.0013777
3.51541e-05
-0.000235894
0.000126576
-0.000774236
0.000258099
-0.00133785
0.000410763
-0.00187553
0.00056612
-0.00234521
0.000709771
-0.00272293
0.000833069
-0.00300365
0.000932828
-0.00319623
0.00100988
-0.00331678
0.00106737
-0.00338325
0.00110932
-0.00341193
0.00113967
-0.00341596
0.00116177
-0.00340499
0.00117824
-0.00338568
0.00119096
-0.00336234
0.00120125
-0.00333762
0.00121001
-0.00331313
0.00121783
-0.00328976
0.00122509
-0.00326798
-0.00324798
0.00123204
3.67975e-05
-0.000272692
0.00012991
-0.000867349
0.000260342
-0.00146828
0.000407404
-0.00202259
0.000552498
-0.0024903
0.000682388
-0.00285282
0.00079018
-0.00311144
0.000874361
-0.00328041
0.000936975
-0.00337939
0.000981815
-0.00342809
0.00101308
-0.00344319
0.00103456
-0.00343744
0.0010493
-0.00341974
0.00105957
-0.00339595
0.00106692
-0.00336969
0.00107243
-0.00334313
0.00107679
-0.00331749
0.00108045
-0.00329342
0.00108371
-0.00327124
-0.00325103
0.00108676
3.81004e-05
-0.000310792
0.000131861
-0.000961109
0.000259636
-0.00159605
0.000399448
-0.0021624
0.000533035
-0.00262389
0.000648622
-0.0029684
0.0007411
-0.00320392
0.000810468
-0.00334978
0.000859732
-0.00342866
0.000893104
-0.00346146
0.000914777
-0.00346487
0.0009283
-0.00345096
0.000936378
-0.00342782
0.000940923
-0.00340049
0.000943223
-0.00337199
0.000944117
-0.00334403
0.000944148
-0.00331752
0.000943669
-0.00329294
0.000942904
-0.00327047
-0.00325013
0.000942006
3.90301e-05
-0.000349822
0.000132376
-0.00105445
0.000256018
-0.0017197
0.000387166
-0.00229355
0.000508333
-0.00274505
0.000609396
-0.00306947
0.000686981
-0.00328151
0.000742396
-0.00340519
0.000779372
-0.00346564
0.000802332
-0.00348442
0.000815336
-0.00347787
0.000821628
-0.00345725
0.00082356
-0.00342975
0.000822729
-0.00339966
0.000820173
-0.00336944
0.000816551
-0.0033404
0.000812285
-0.00331325
0.00080765
-0.00328831
0.000802818
-0.00326564
-0.00324523
0.000797911
3.95497e-05
-0.000389372
0.000131414
-0.00114632
0.000249559
-0.00183784
0.000370871
-0.00241486
0.000478995
-0.00285318
0.000565567
-0.00315604
0.000628831
-0.00334477
0.000671184
-0.00344754
0.000696862
-0.00349131
0.000710332
-0.00349789
0.000715429
-0.00348297
0.000715056
-0.00345688
0.000711228
-0.00342592
0.000705258
-0.00339369
0.000697972
-0.00336215
0.000689883
-0.00333231
0.00068132
-0.00330469
0.000672497
-0.00327949
0.000663551
-0.00325669
-0.00323626
0.000654581
3.96447e-05
-0.000429017
0.000128995
-0.00123567
0.000240425
-0.00194927
0.000350971
-0.00252541
0.000445692
-0.0029479
0.000518002
-0.00322835
0.000567608
-0.00339438
0.000597775
-0.00347771
0.000613049
-0.00350659
0.000617814
-0.00350265
0.000615614
-0.00348077
0.000609009
-0.00345028
0.000599698
-0.00341661
0.000588745
-0.00338274
0.000576801
-0.0033502
0.000564261
-0.00331978
0.000551382
-0.00329181
0.000538333
-0.00326644
0.000525225
-0.00324359
-0.00322317
0.00051214
3.93054e-05
-0.000468322
0.000125162
-0.00132153
0.000228819
-0.00205293
0.000327895
-0.00262448
0.000409068
-0.00302907
0.000467487
-0.00328677
0.000504137
-0.00343103
0.000522947
-0.00349652
0.000528607
-0.00351225
0.000525319
-0.00349936
0.000516306
-0.00347176
0.000503792
-0.00343776
0.000489191
-0.00340201
0.000473356
-0.0033669
0.000456788
-0.00333364
0.000439793
-0.00330278
0.00042257
-0.00327459
0.000405256
-0.00324912
0.000387942
-0.00322627
-0.00320593
0.000370698
3.85313e-05
-0.000506853
0.000119984
-0.00140298
0.000214973
-0.00214792
0.000302083
-0.00271159
0.000369738
-0.00309673
0.00041473
-0.00333176
0.000439132
-0.00345543
0.000447346
-0.00350473
0.000444073
-0.00350897
0.000433267
-0.00348856
0.000417817
-0.00345631
0.000399631
-0.00341958
0.000379872
-0.00338225
0.000359211
-0.00334624
0.000338033
-0.00331246
0.000316568
-0.00328131
0.000294971
-0.00325299
0.000273353
-0.00322751
0.000251795
-0.00320471
-0.00318449
0.000230358
3.73304e-05
-0.000544184
0.000113552
-0.0014792
0.000199138
-0.0022335
0.000273968
-0.00278642
0.000328271
-0.00315103
0.000360356
-0.00336384
0.000373197
-0.00346827
0.000371501
-0.00350304
0.000359874
-0.00349735
0.000341981
-0.00347067
0.000320382
-0.00343471
0.000296693
-0.00339589
0.00027186
-0.00335742
0.000246405
-0.00332079
0.000220615
-0.00328667
0.000194659
-0.00325536
0.000168657
-0.00322699
0.000142703
-0.00320155
0.000116867
-0.00317888
-0.00315883
9.12078e-05
3.5718e-05
-0.000579902
0.000105972
-0.00154945
0.000181577
-0.00230911
0.000243967
-0.00284881
0.000285185
-0.00319225
0.000304913
-0.00338357
0.000306841
-0.0034702
0.000295842
-0.00349204
0.000276347
-0.00347785
0.000251711
-0.00344603
0.000224175
-0.00340717
0.000195099
-0.00336681
0.000165244
-0.00332756
0.000135008
-0.00329055
0.000104595
-0.00325626
7.41258e-05
-0.00322489
4.36904e-05
-0.00319655
1.33677e-05
-0.00317123
-1.67728e-05
-0.00314874
-0.00312893
-4.66745e-05
3.37156e-05
-0.000613617
9.73629e-05
-0.0016131
0.000162549
-0.0023743
0.000212471
-0.00289874
0.000240947
-0.00322072
0.000248872
-0.0033915
0.000240489
-0.00346182
0.000220717
-0.00347227
0.000193757
-0.00345089
0.000162646
-0.00341492
0.000129329
-0.00337386
9.49424e-05
-0.00333242
6.00905e-05
-0.00329271
2.50698e-05
-0.00325553
-9.98109e-06
-0.00322121
-4.49863e-05
-0.00318988
-7.98816e-05
-0.00316166
-0.000114599
-0.00313651
-0.000149067
-0.00311427
-0.00309477
-0.000183227
3.13498e-05
-0.000644967
8.78471e-05
-0.0016696
0.00014231
-0.00242876
0.000179843
-0.00293627
0.000195967
-0.00323685
0.000192636
-0.00338817
0.000174492
-0.00344367
0.000146407
-0.00344418
0.000112314
-0.0034168
7.49336e-05
-0.00337754
3.59457e-05
-0.00333487
-3.70898e-06
-0.00329277
-4.35524e-05
-0.00325287
-8.33702e-05
-0.00321571
-0.00012308
-0.0031815
-0.000162644
-0.00315032
-0.000202023
-0.00312228
-0.000241159
-0.00309737
-0.000279976
-0.00307545
-0.00305634
-0.000318405
2.86515e-05
-0.000673618
7.75518e-05
-0.0017185
0.000121102
-0.00247231
0.000146413
-0.00296158
0.000150611
-0.00324105
0.000136552
-0.00337411
0.000109147
-0.00341627
7.31438e-05
-0.00340818
3.21869e-05
-0.00337584
-1.13054e-05
-0.00333405
-5.58937e-05
-0.00329028
-0.0001008
-0.00324786
-0.000145648
-0.00320802
-0.000190287
-0.00317107
-0.000234681
-0.0031371
-0.000278829
-0.00310617
-0.000322717
-0.00307839
-0.000366296
-0.0030538
-0.000409478
-0.00303227
-0.00301364
-0.000452183
2.56545e-05
-0.000699273
6.66039e-05
-0.00175945
9.91583e-05
-0.00250486
0.000112481
-0.0029749
0.000105199
-0.00323376
8.09148e-05
-0.00334982
4.47001e-05
-0.00338005
1.12082e-06
-0.0033646
-4.64801e-05
-0.00332824
-9.59685e-05
-0.00328456
-0.000146117
-0.00324013
-0.000196282
-0.0031977
-0.000246165
-0.00315813
-0.000295664
-0.00312158
-0.000344778
-0.00308799
-0.000393542
-0.00305741
-0.000441969
-0.00302996
-0.00049002
-0.00300574
-0.000537595
-0.0029847
-0.00296664
-0.00058459
2.23952e-05
-0.000721668
5.51289e-05
-0.00179218
7.66945e-05
-0.00252643
7.83221e-05
-0.00297653
6.00128e-05
-0.00321545
2.59837e-05
-0.00331579
-1.86324e-05
-0.00333544
-6.94932e-05
-0.00331374
-0.000123558
-0.00327418
-0.000178958
-0.00322916
-0.000234651
-0.00318444
-0.000290104
-0.00314224
-0.000345074
-0.00310316
-0.00039949
-0.00306716
-0.000453378
-0.0030341
-0.000506803
-0.00300398
-0.000559815
-0.00297695
-0.000612389
-0.00295317
-0.000664408
-0.00293268
-0.00291532
-0.000715733
1.89117e-05
-0.00074058
4.32492e-05
-0.00181652
5.39137e-05
-0.00253709
4.41821e-05
-0.0029668
1.53045e-05
-0.00318658
-2.80144e-05
-0.00327247
-8.06598e-05
-0.00328279
-0.000138543
-0.00325586
-0.000198921
-0.0032138
-0.00026017
-0.00316791
-0.000321411
-0.0031232
-0.0003822
-0.00308146
-0.000442332
-0.00304303
-0.000501749
-0.00300774
-0.000560488
-0.00297536
-0.000618648
-0.00294582
-0.000676315
-0.00291928
-0.000733494
-0.00289599
-0.000790052
-0.00287612
-0.00285957
-0.000845796
1.52435e-05
-0.000755823
3.10835e-05
-0.00183236
3.1005e-05
-0.00253701
1.02862e-05
-0.00294608
-2.86999e-05
-0.00314759
-8.08743e-05
-0.0032203
-0.000141205
-0.00322246
-0.000205876
-0.00319118
-0.000272435
-0.00314724
-0.000339483
-0.00310086
-0.000406287
-0.00305639
-0.000472477
-0.00301527
-0.00053787
-0.00297764
-0.000602404
-0.00294321
-0.000666112
-0.00291165
-0.00072911
-0.00288283
-0.000791533
-0.00285686
-0.00085343
-0.00283409
-0.000914662
-0.00281489
-0.0027993
-0.00097494
1.14304e-05
-0.000767254
1.87462e-05
-0.00183967
8.14473e-06
-0.00252641
-2.31598e-05
-0.00291478
-7.1795e-05
-0.00309896
-0.000132407
-0.00315969
-0.000200098
-0.00315477
-0.000271336
-0.00311995
-0.000343948
-0.00307463
-0.000416746
-0.00302806
-0.00048913
-0.00298401
-0.000560794
-0.0029436
-0.000631572
-0.00290686
-0.000701382
-0.0028734
-0.000770228
-0.00284281
-0.00083822
-0.00281483
-0.000905536
-0.00278955
-0.000972288
-0.00276734
-0.00103834
-0.00274883
-0.00273438
-0.00110326
7.51282e-06
-0.000774767
6.34635e-06
-0.00183851
-1.45037e-05
-0.00250556
-5.59681e-05
-0.00287331
-0.000113792
-0.00304113
-0.000182433
-0.00309105
-0.000257169
-0.00308003
-0.000334754
-0.00304236
-0.000413284
-0.0029961
-0.000491768
-0.00294958
-0.000569731
-0.00290605
-0.000646937
-0.0028664
-0.000723237
-0.00283056
-0.000798524
-0.00279811
-0.000872752
-0.00276858
-0.000945986
-0.0027416
-0.00101842
-0.00271712
-0.00109023
-0.00269553
-0.00116132
-0.00267774
-0.00266458
-0.00123112
3.53069e-06
-0.000778297
-6.01247e-06
-0.00182896
-3.67894e-05
-0.00247479
-8.7967e-05
-0.00282213
-0.000154518
-0.00297458
-0.000230786
-0.00301478
-0.000312249
-0.00299857
-0.000395952
-0.00295866
-0.000480241
-0.00291181
-0.000564313
-0.00286551
-0.000647818
-0.00282254
-0.000730599
-0.00278362
-0.000812546
-0.00274861
-0.000893539
-0.00271712
-0.000973473
-0.00268864
-0.00105234
-0.00266274
-0.0011303
-0.00263916
-0.00120763
-0.0026182
-0.00128428
-0.00260109
-0.00258893
-0.00135993
-4.77102e-07
-0.00077782
-1.82337e-05
-0.00181121
-5.85749e-05
-0.00243444
-0.000119002
-0.00276171
-0.000193816
-0.00289977
-0.000277304
-0.00293129
-0.00036517
-0.00291071
-0.000454736
-0.00286909
-0.00054459
-0.00282195
-0.000634103
-0.00277599
-0.000723054
-0.00273359
-0.000811385
-0.00269528
-0.000899058
-0.00266094
-0.000985989
-0.00263019
-0.00107204
-0.00260259
-0.00115712
-0.00257766
-0.00124133
-0.00255494
-0.00132507
-0.00253446
-0.00140849
-0.00251767
-0.00250506
-0.00149237
-4.47358e-06
-0.000773347
-3.0229e-05
-0.00178545
-7.97378e-05
-0.00238494
-0.000148936
-0.00269251
-0.000231544
-0.00281716
-0.000321843
-0.00284099
-0.000415766
-0.00281678
-0.000510906
-0.00277395
-0.000606071
-0.00272679
-0.000700797
-0.00268127
-0.000794998
-0.00263939
-0.000888738
-0.00260154
-0.000982114
-0.00256756
-0.00107517
-0.00253713
-0.00116785
-0.00250991
-0.00126005
-0.00248546
-0.00135178
-0.00246321
-0.00144341
-0.00244283
-0.00153545
-0.00242563
-0.00240996
-0.00163054
-8.42452e-06
-0.000764922
-4.192e-05
-0.00175196
-0.000100173
-0.00232668
-0.000177656
-0.00261503
-0.000267589
-0.00272723
-0.00036428
-0.0027443
-0.000463895
-0.00271717
-0.000564273
-0.00267357
-0.000664418
-0.00262665
-0.000764006
-0.00258168
-0.000863066
-0.00254033
-0.000961794
-0.00250282
-0.00106047
-0.00246889
-0.00115938
-0.00243822
-0.00125883
-0.00241046
-0.001359
-0.00238529
-0.00146002
-0.00236219
-0.0015625
-0.00234036
-0.00166874
-0.00231939
-0.00231139
-0.00176731
-1.22864e-05
-0.000752636
-5.32189e-05
-0.00171102
-0.00011977
-0.00226013
-0.000205048
-0.00252975
-0.00030184
-0.00263043
-0.000404508
-0.00264163
-0.00050944
-0.00261224
-0.000614696
-0.00256832
-0.000719434
-0.00252191
-0.000823429
-0.00247768