/*--------------------------------*- C++ -*----------------------------------*\
  =========                 |
  \\      /  F ield         | OpenFOAM: The Open Source CFD Toolbox
   \\    /   O peration     | Website:  https://openfoam.org
    \\  /    A nd           | Version:  6.0
     \\/     M anipulation  |
\*---------------------------------------------------------------------------*/
FoamFile
{
    version     2.0;
    format      ascii;
    class       volVectorField;
    location    "3.7";
    object      U;
}
// * * * * * * * * * * * * * * * * * * * * * * * * * * * * * * * * * * * * * //

dimensions      [0 1 -1 0 0 0 0];

internalField   nonuniform List<vector> 
8000
(
(-0.00318492 0.00341236 -4.75753e-21)
(-0.0156308 0.00771703 2.54697e-20)
(-0.0369838 0.0103173 -3.11948e-20)
(-0.0617685 0.011808 2.38505e-20)
(-0.0874944 0.0125535 1.17522e-20)
(-0.112995 0.0127976 -3.53256e-20)
(-0.137523 0.0127072 -3.17394e-21)
(-0.16064 0.0123936 -1.19395e-21)
(-0.182124 0.0119297 -1.88935e-20)
(-0.201875 0.0113624 -1.03634e-20)
(-0.21987 0.0107223 7.614e-21)
(-0.236124 0.0100295 2.95107e-20)
(-0.250682 0.0092983 -2.08545e-21)
(-0.263605 0.00853883 3.27702e-21)
(-0.274955 0.00775879 -3.01391e-20)
(-0.284772 0.006964 1.86206e-20)
(-0.293144 0.00615758 -2.67227e-20)
(-0.300402 0.00533793 4.04707e-20)
(-0.306819 0.00450316 -4.73023e-23)
(-0.310703 0.00367956 8.94712e-21)
(-0.00356863 0.0100494 1.57943e-20)
(-0.016197 0.0227495 -8.10967e-20)
(-0.0372118 0.0304327 -5.64787e-20)
(-0.0614398 0.034833 -3.86407e-20)
(-0.086516 0.0370179 -5.01281e-20)
(-0.111324 0.0377048 1.06979e-20)
(-0.13514 0.0373875 -5.85568e-20)
(-0.157533 0.0363977 -1.34953e-20)
(-0.178281 0.0349537 3.82972e-21)
(-0.197278 0.0331979 4.43185e-20)
(-0.214493 0.0312239 -4.90442e-20)
(-0.229935 0.0290946 6.86431e-20)
(-0.243641 0.0268542 -5.1769e-20)
(-0.255667 0.0245354 -6.1781e-20)
(-0.266069 0.0221634 -8.55162e-20)
(-0.274887 0.0197576 5.44918e-20)
(-0.282206 0.0173297 -1.78395e-20)
(-0.288359 0.0148761 -6.45495e-20)
(-0.293645 0.0123922 6.08724e-20)
(-0.29638 0.00995794 -4.67086e-20)
(-0.00430126 0.0162298 1.55051e-19)
(-0.0172811 0.0368941 8.11019e-20)
(-0.0376428 0.0495207 9.15222e-20)
(-0.0607895 0.0568332 7.73105e-21)
(-0.0845979 0.0605234 5.09332e-20)
(-0.10805 0.06174 6.39069e-20)
(-0.130469 0.0612807 -1.17106e-19)
(-0.151443 0.0596864 -6.27208e-20)
(-0.170748 0.0573165 -8.30565e-20)
(-0.188271 0.0544078 8.81056e-20)
(-0.203967 0.0511169 -6.78854e-20)
(-0.217834 0.0475507 -8.87119e-20)
(-0.229896 0.0437853 -3.27058e-20)
(-0.240198 0.0398785 3.09337e-20)
(-0.24879 0.0358769 -8.7869e-21)
(-0.255708 0.0318186 1.21713e-20)
(-0.26103 0.0277292 1.44383e-19)
(-0.265092 0.0236093 -2.04689e-20)
(-0.268245 0.0194547 -1.4662e-19)
(-0.268829 0.0154044 1.97518e-19)
(-0.00531745 0.0216875 5.49581e-20)
(-0.0187925 0.0496189 -7.64751e-20)
(-0.0382297 0.0669503 -1.96389e-20)
(-0.0598318 0.0771651 3.66435e-20)
(-0.0818153 0.082457 1.04359e-19)
(-0.103304 0.0843382 2.29948e-19)
(-0.123695 0.0838733 2.26502e-19)
(-0.142605 0.081794 1.96119e-20)
(-0.159815 0.0785929 1.41193e-19)
(-0.175203 0.0745985 2.17684e-19)
(-0.188713 0.0700309 -1.75342e-19)
(-0.200326 0.0650417 2.5985e-19)
(-0.210054 0.0597413 -6.09024e-20)
(-0.217927 0.0542159 1.44067e-20)
(-0.223988 0.0485378 6.28914e-20)
(-0.228268 0.0427702 8.4163e-20)
(-0.230836 0.0369618 -1.32406e-19)
(-0.232025 0.0311263 -1.10934e-19)
(-0.23226 0.0252659 -1.95301e-19)
(-0.229943 0.0195872 2.89006e-19)
(-0.00652839 0.0262093 -2.84024e-20)
(-0.0206064 0.0604771 -2.94528e-19)
(-0.0389088 0.082169 -8.78875e-20)
(-0.0585901 0.0952439 -2.14657e-19)
(-0.0782799 0.102244 8.12547e-20)
(-0.0972813 0.104957 -1.29379e-19)
(-0.115088 0.104665 4.54996e-20)
(-0.131362 0.102264 -2.78006e-19)
(-0.145897 0.0983699 1.47778e-19)
(-0.158571 0.0933973 -1.77004e-19)
(-0.169317 0.0876292 -1.58627e-19)
(-0.178104 0.0812628 -1.80064e-19)
(-0.18493 0.074444 1.63961e-19)
(-0.189816 0.0672894 -1.49093e-19)
(-0.192795 0.0599008 2.07265e-19)
(-0.193895 0.0523728 6.02601e-20)
(-0.193174 0.0447864 1.49845e-19)
(-0.190956 0.0371804 6.52337e-20)
(-0.187745 0.0295726 -2.6027e-19)
(-0.182074 0.0222459 4.25301e-19)
(-0.00783158 0.0296496 1.28316e-19)
(-0.0225769 0.0691337 8.8276e-21)
(-0.039607 0.09473 5.30563e-20)
(-0.0570993 0.110567 1.85127e-19)
(-0.0741377 0.119364 -2.79702e-20)
(-0.0902322 0.123085 3.03897e-19)
(-0.104996 0.123171 1.36869e-19)
(-0.118155 0.12065 1.15662e-20)
(-0.129527 0.116241 3.56084e-19)
(-0.138999 0.110443 1.18694e-19)
(-0.146502 0.103597 5.68654e-20)
(-0.152 0.0959472 1.79461e-19)
(-0.155484 0.0876737 1.66041e-19)
(-0.156967 0.0789244 3.05764e-19)
(-0.156477 0.0698317 -2.73549e-19)
(-0.154041 0.0605246 3.8989e-19)
(-0.149708 0.0511242 6.56893e-21)
(-0.14378 0.0417076 -4.99316e-19)
(-0.136841 0.0323198 6.48685e-19)
(-0.127636 0.0233275 2.67577e-19)
(-0.00912201 0.0319387 -7.52903e-20)
(-0.0245513 0.0753852 -1.39029e-19)
(-0.0402506 0.104317 -2.88798e-19)
(-0.0554065 0.122737 -8.83015e-21)
(-0.069565 0.133373 5.0676e-20)
(-0.0824582 0.13826 -3.72257e-19)
(-0.0938384 0.138931 -2.78318e-19)
(-0.10351 0.136509 -3.93931e-20)
(-0.111335 0.131798 -3.57029e-19)
(-0.11722 0.125368 -2.50249e-19)
(-0.121106 0.117618 -7.32536e-20)
(-0.122961 0.108833 -2.37828e-19)
(-0.122777 0.0992296 -3.34841e-21)
(-0.120566 0.0889839 -3.20597e-19)
(-0.116355 0.078257 1.35755e-19)
(-0.110175 0.0672115 -1.54806e-19)
(-0.102069 0.0560121 1.20195e-19)
(-0.0923085 0.044786 -1.52035e-19)
(-0.0815402 0.0336194 -4.37052e-19)
(-0.0688147 0.022964 -1.32328e-19)
(-0.0103036 0.0330849 -2.9268e-20)
(-0.0263867 0.07917 -3.15918e-20)
(-0.040775 0.110762 2.43213e-19)
(-0.0535729 0.131485 -3.9808e-19)
(-0.0647623 0.143923 5.81259e-20)
(-0.0742994 0.150081 -2.3249e-19)
(-0.0820873 0.151519 1.09486e-19)
(-0.0880269 0.149411 4.99398e-19)
(-0.0920383 0.144623 -3.05324e-20)
(-0.094064 0.137784 -3.78439e-19)
(-0.0940682 0.129342 6.77361e-20)
(-0.092034 0.119624 1.28647e-20)
(-0.0879619 0.108877 -8.17026e-20)
(-0.0818695 0.0973018 5.68704e-21)
(-0.0737907 0.0850844 7.0879e-19)
(-0.0637621 0.072416 -9.97156e-20)
(-0.0518249 0.059503 -1.99127e-19)
(-0.0382139 0.0465317 -3.59191e-19)
(-0.0236116 0.0336454 3.65784e-19)
(-0.00746321 0.0213754 1.55551e-19)
(-0.0112996 0.033169 1.42866e-19)
(-0.0279649 0.0805686 -1.88533e-19)
(-0.0411335 0.114056 2.66034e-19)
(-0.0516723 0.13669 2.68535e-19)
(-0.0599442 0.150786 2.47375e-19)
(-0.0661167 0.158237 5.04152e-19)
(-0.0702484 0.160564 3.28789e-19)
(-0.072349 0.158951 -7.11151e-19)
(-0.0724124 0.1543 3.66582e-19)
(-0.0704317 0.14728 2.9109e-19)
(-0.0664065 0.138381 -4.13606e-21)
(-0.0603454 0.127964 3.31838e-19)
(-0.0522669 0.116304 2.62328e-19)
(-0.0421998 0.103623 -1.40937e-19)
(-0.0301857 0.0901239 4.85748e-19)
(-0.0162694 0.0760184 -6.02331e-19)
(-0.000493974 0.0615484 2.42991e-19)
(0.0169467 0.0469633 3.13076e-19)
(0.0353705 0.0324844 -7.23492e-20)
(0.0548654 0.0187158 6.18844e-19)
(-0.0120604 0.0323335 2.91969e-19)
(-0.0292058 0.0797928 1.54662e-20)
(-0.0413041 0.114351 -1.0423e-19)
(-0.0497877 0.138389 -1.09485e-19)
(-0.0553231 0.15388 -5.11855e-19)
(-0.0582645 0.162535 7.23994e-20)
(-0.0588215 0.165784 2.07612e-19)
(-0.0571198 0.164783 -1.00359e-19)
(-0.0532391 0.160438 8.33515e-20)
(-0.0472356 0.153441 -2.10309e-20)
(-0.0391557 0.144313 -1.10315e-19)
(-0.0290421 0.13344 1.05485e-19)
(-0.0169366 0.121118 -4.67057e-19)
(-0.00288275 0.107585 4.47773e-19)
(0.0130716 0.0930525 -3.92614e-19)
(0.0308767 0.0777433 1.20827e-19)
(0.0504875 0.0619234 2.79109e-19)
(0.0717534 0.0459054 -5.71936e-20)
(0.0940327 0.0300155 -1.93419e-19)
(0.116897 0.0149381 -1.28997e-19)
(-0.0125683 0.0307665 -3.65848e-19)
(-0.0300754 0.0771637 -2.3292e-20)
(-0.0412931 0.111943 7.69569e-20)
(-0.0480037 0.136786 1.97189e-19)
(-0.0510882 0.153283 -2.78166e-19)
(-0.0510535 0.162929 -2.43675e-19)
(-0.048248 0.167024 5.72604e-19)
(-0.0429137 0.166659 -3.15725e-19)
(-0.0352223 0.16272 -2.05603e-19)
(-0.0253019 0.155901 -2.98705e-19)
(-0.0132531 0.146736 1.99145e-19)
(0.000842551 0.135629 -3.12532e-21)
(0.0169173 0.122888 -3.75552e-19)
(0.0349148 0.108757 -6.24379e-19)
(0.054785 0.0934514 4.76578e-19)
(0.076481 0.0771912 -3.9098e-19)
(0.0999608 0.0602526 5.55308e-19)
(0.125116 0.0430049 -1.55272e-19)
(0.151384 0.0259131 3.30368e-19)
(0.177795 0.00978109 -1.09098e-18)
(-0.0128386 0.0286824 -7.45716e-19)
(-0.0305887 0.073081 4.8676e-19)
(-0.0411333 0.107256 6.58794e-20)
(-0.0463949 0.132235 1.28145e-20)
(-0.0473788 0.149246 -2.98833e-19)
(-0.0447064 0.15955 4.39719e-19)
(-0.0388452 0.164295 4.87975e-20)
(-0.0301464 0.164487 -9.10886e-20)
(-0.0188735 0.160964 -2.93965e-19)
(-0.00522814 0.154405 3.18983e-19)
(0.0106335 0.145341 8.17841e-19)
(0.0285911 0.13418 -1.80581e-19)
(0.0485542 0.121233 4.13574e-19)
(0.0704582 0.106743 -4.94369e-19)
(0.0942584 0.0909167 -4.78327e-19)
(0.11992 0.0739616 2.87867e-19)
(0.147407 0.0561469 4.81976e-19)
(0.176647 0.0378852 -1.56114e-18)
(0.207187 0.019816 1.83328e-19)
(0.237508 0.00294319 2.43705e-19)
(-0.0129164 0.0263026 5.53061e-19)
(-0.0308048 0.0679853 1.81934e-19)
(-0.0408754 0.100794 9.38995e-19)
(-0.0450091 0.125222 4.80744e-20)
(-0.0442542 0.14218 -1.04446e-19)
(-0.039308 0.152709 -4.9738e-19)
(-0.030733 0.157806 4.22567e-19)
(-0.0189745 0.158372 7.61531e-19)
(-0.00437912 0.155187 5.12155e-19)
(0.0127845 0.148892 3.70716e-19)
(0.032311 0.140003 3.22027e-19)
(0.0540482 0.128919 -5.83163e-19)
(0.0778905 0.115944 -1.86842e-19)
(0.103772 0.101312 -1.36578e-19)
(0.131659 0.0852125 1.47809e-18)
(0.161531 0.0678306 -2.80577e-21)
(0.193357 0.0494116 -3.73091e-19)
(0.227074 0.0303902 -1.20614e-19)
(0.262351 0.0116111 1.07657e-18)
(0.297144 -0.00560132 1.38271e-19)
(-0.0128691 0.0238354 -2.7313e-20)
(-0.0308138 0.0623179 -5.20254e-19)
(-0.0405722 0.0931063 -7.71018e-19)
(-0.0438457 0.116321 -2.13719e-19)
(-0.0416611 0.132631 1.17949e-19)
(-0.0347571 0.142896 2.5113e-20)
(-0.0237637 0.14797 6.76158e-19)
(-0.00919871 0.148652 -8.39631e-19)
(0.00852617 0.145649 -3.19989e-19)
(0.0290907 0.139559 -6.50116e-19)
(0.0522541 0.130865 -5.58849e-19)
(0.0778448 0.119949 -4.97745e-19)
(0.105751 0.1071 1.2431e-19)
(0.135909 0.0925355 -1.62684e-19)
(0.168293 0.0764247 7.08281e-19)
(0.202884 0.0589251 -3.89e-19)
(0.23963 0.0402455 -1.23262e-18)
(0.27843 0.0208155 -2.52395e-19)
(0.31906 0.00170293 6.1101e-19)
(0.359031 -0.0152955 -5.1612e-19)
(-0.0127763 0.0214591 -8.80917e-20)
(-0.0307174 0.0564831 6.35806e-19)
(-0.0402561 0.0847348 -8.08131e-19)
(-0.0428304 0.106147 1.8701e-19)
(-0.0394036 0.121243 -3.82891e-19)
(-0.0307269 0.130746 8.51963e-19)
(-0.0174692 0.135396 -6.09743e-19)
(-0.000193549 0.135897 6.99908e-19)
(0.0206478 0.132882 -6.63157e-19)
(0.0447052 0.126898 2.86399e-19)
(0.0717204 0.118392 -1.37901e-19)
(0.101514 0.107718 -3.49883e-19)
(0.133971 0.0951478 -4.36771e-19)
(0.169022 0.0808797 4.39243e-19)
(0.206622 0.0650643 -3.70227e-19)
(0.246719 0.0478329 -8.18539e-19)
(0.289185 0.0293531 8.55915e-19)
(0.333803 0.0100214 -1.09466e-18)
(0.380402 -0.00887791 4.96014e-19)
(0.426247 -0.024887 1.27182e-20)
(-0.0127161 0.0193092 -7.98143e-19)
(-0.0306036 0.0508144 -8.56961e-19)
(-0.0399123 0.0761682 9.88761e-20)
(-0.0417915 0.0953035 -8.19871e-19)
(-0.0371213 0.108697 -7.14813e-20)
(-0.0266442 0.116992 -6.0173e-19)
(-0.0110404 0.120845 -1.37797e-19)
(0.00911076 0.120879 -4.03055e-19)
(0.0333439 0.117664 5.36096e-21)
(0.0613014 0.111693 -1.76232e-19)
(0.092721 0.103375 1.50772e-20)
(0.127416 0.0930357 -5.16153e-19)
(0.165254 0.0809252 5.77856e-19)
(0.206124 0.067228 -8.17548e-19)
(0.249915 0.0520806 2.95198e-19)
(0.296467 0.0355968 1.30925e-20)
(0.345503 0.0179079 -4.7002e-19)
(0.396588 -0.00064991 1.18082e-18)
(0.449514 -0.0186225 -2.78887e-19)
(0.501669 -0.0326363 -1.76157e-19)
(-0.0127513 0.0174687 8.93588e-19)
(-0.0305204 0.0455511 4.80612e-19)
(-0.0394543 0.0678044 4.45182e-19)
(-0.0404428 0.0843329 6.62256e-20)
(-0.0342842 0.0956568 5.99347e-19)
(-0.0216997 0.102397 8.61912e-19)
(-0.00335779 0.105157 7.03521e-19)
(0.0201712 0.104506 6.45916e-20)
(0.0484292 0.100957 5.17568e-19)
(0.081062 0.0949557 8.00872e-19)
(0.117798 0.0868735 -2.0734e-19)
(0.158422 0.0770092 3.5079e-19)
(0.202738 0.0655944 2.83114e-19)
(0.250532 0.0528025 2.91519e-19)
(0.301541 0.0387632 1.74388e-18)
(0.355411 0.0235826 -6.55623e-19)
(0.411628 0.00736519 -3.86723e-20)
(0.469459 -0.00963961 7.71365e-19)
(0.528532 -0.0259116 -4.38037e-19)
(0.58688 -0.036794 2.10034e-19)
(-0.0129161 0.0159652 -7.20483e-19)
(-0.030455 0.0408249 4.51302e-20)
(-0.0387084 0.0599232 -5.70713e-19)
(-0.0383821 0.0736713 -7.32956e-20)
(-0.0302134 0.0827088 4.15644e-19)
(-0.0148988 0.0876818 -1.23679e-18)
(0.00691805 0.0891779 -1.61196e-21)
(0.0346881 0.0877287 5.7546e-19)
(0.0679639 0.0838055 5.40185e-19)
(0.106381 0.0778139 -2.38625e-19)
(0.149626 0.0700922 7.95356e-20)
(0.197398 0.0609139 1.83088e-19)
(0.24936 0.0504944 -8.70155e-20)
(0.305105 0.038999 -9.8734e-19)
(0.364116 0.0265549 2.49268e-19)
(0.425748 0.0132661 6.98497e-19)
(0.489183 -0.00078312 -9.99738e-19)
(0.553352 -0.0154547 4.85974e-19)
(0.617634 -0.0293075 1.31098e-19)
(0.681205 -0.0359521 6.45254e-19)
(-0.0132074 0.0147738 -1.04781e-19)
(-0.0303204 0.03666 -5.01407e-19)
(-0.0374112 0.0526736 2.30177e-19)
(-0.03511 0.0636202 7.64291e-22)
(-0.0241299 0.0703125 -9.97219e-19)
(-0.00515188 0.0734606 1.56047e-19)
(0.021201 0.0736628 -2.93396e-20)
(0.0543911 0.0714331 2.00351e-19)
(0.0939558 0.0672125 -9.17884e-19)
(0.139474 0.0613733 -6.57271e-20)
(0.190523 0.0542236 -2.18353e-19)
(0.246624 0.0460125 1.91691e-19)
(0.307205 0.0369388 6.56863e-19)
(0.37156 0.0271594 -1.01236e-19)
(0.438828 0.0168005 4.08992e-20)
(0.507996 0.00596808 2.59919e-19)
(0.577885 -0.00526599 -6.64235e-20)
(0.647093 -0.0168624 5.35898e-19)
(0.714747 -0.0275121 -3.09678e-19)
(0.781107 -0.0290259 -4.75171e-19)
(-0.0135812 0.013826 9.82233e-20)
(-0.0299556 0.0329857 2.4545e-20)
(-0.0352232 0.0460779 2.0059e-19)
(-0.0300667 0.0543353 4.89433e-19)
(-0.0152247 0.0587724 2.73707e-19)
(0.00861049 0.0601889 2.81468e-20)
(0.0408089 0.0592131 -3.25169e-19)
(0.0808027 0.0563546 8.34226e-20)
(0.128053 0.0520321 4.38791e-19)
(0.182001 0.0465878 -7.44241e-19)
(0.24201 0.0402977 5.62796e-19)
(0.307324 0.0333814 -4.25386e-19)
(0.37703 0.0260127 3.62656e-19)
(0.450047 0.0183316 -7.85157e-19)
(0.525132 0.0104575 8.68165e-19)
(0.600908 0.00250082 -9.30006e-19)
(0.675869 -0.0054542 -2.43111e-19)
(0.748353 -0.0133413 7.5979e-19)
(0.817257 -0.0197813 -2.57195e-19)
(0.881867 -0.016831 1.10432e-19)
(-0.0139564 0.0130252 -7.39329e-20)
(-0.0291371 0.029661 6.96928e-19)
(-0.0317552 0.0400521 -3.62569e-21)
(-0.0226782 0.045837 -4.3131e-19)
(-0.00273382 0.0482352 -2.88451e-19)
(0.0273277 0.0481474 5.28823e-19)
(0.0668117 0.0462413 -2.09259e-19)
(0.115044 0.0430283 -2.63467e-20)
(0.171314 0.0389062 4.35669e-19)
(0.234808 0.0341831 -5.41433e-19)
(0.304562 0.0290934 5.99987e-20)
(0.37943 0.0238113 -7.06937e-19)
(0.458077 0.0184642 3.73374e-19)
(0.539013 0.013148 -1.06916e-18)
(0.620638 0.00794506 1.70442e-18)
(0.701322 0.00294328 -3.15001e-19)
(0.779473 -0.00174345 3.21316e-19)
(0.853668 -0.00584863 -8.32749e-19)
(0.923271 -0.00799131 1.24818e-20)
(0.982022 -0.00788576 8.55844e-19)
(-0.0142242 0.0122635 -2.23521e-19)
(-0.027598 0.0265072 1.92538e-19)
(-0.0265969 0.0344416 -7.0943e-19)
(-0.0123993 0.0380435 1.04804e-18)
(0.0140035 0.0387175 -7.55499e-19)
(0.0517323 0.037463 3.88113e-20)
(0.0999394 0.0349862 -8.1242e-19)
(0.157735 0.0317971 5.80558e-19)
(0.224109 0.0282658 -8.31446e-20)
(0.297865 0.0246539 -5.13401e-19)
(0.377588 0.0211353 -3.00262e-19)
(0.461648 0.0178135 3.17093e-19)
(0.548246 0.014738 2.09861e-19)
(0.635487 0.0119223 -9.25891e-19)
(0.721479 0.00936187 3.34847e-19)
(0.804439 0.00705079 -4.90741e-19)
(0.882793 0.00499752 6.18646e-20)
(0.955291 0.00326807 -4.01842e-19)
(1.02137 0.00230599 1.41478e-19)
(1.07819 0.0021589 -5.69785e-19)
(-0.0142596 0.0114403 6.36551e-19)
(-0.0250504 0.0233437 -3.85283e-19)
(-0.019344 0.0290663 3.16978e-19)
(0.00125805 0.0308212 -3.99319e-19)
(0.0355141 0.0301595 6.68953e-19)
(0.0823217 0.0281643 -1.2154e-20)
(0.140562 0.025568 -8.14743e-20)
(0.208994 0.022866 -6.06254e-20)
(0.286162 0.0203836 3.70786e-19)
(0.370354 0.0183132 6.30759e-19)
(0.459601 0.0167405 -3.72961e-19)
(0.551744 0.015668 3.62661e-19)
(0.644529 0.0150377 6.60997e-19)
(0.735734 0.0147539 -4.63015e-19)
(0.823302 0.0147063 -9.28988e-19)
(0.905454 0.0147882 1.68999e-18)
(0.980786 0.0149096 -3.01606e-19)
(1.04833 0.0150103 -9.32066e-20)
(1.10766 0.0151586 9.71699e-19)
(1.15802 0.0161875 -2.22693e-19)
(-0.0139344 0.0104761 -1.03559e-18)
(-0.021205 0.020021 -6.88781e-19)
(-0.00961513 0.0237675 -2.64054e-19)
(0.0187132 0.0240428 5.09162e-19)
(0.0621901 0.0224923 -1.14862e-18)
(0.119371 0.0202553 5.94041e-19)
(0.188725 0.0180661 7.51855e-20)
(0.2685 0.0163799 7.54175e-20)
(0.356651 0.0154468 -7.78705e-19)
(0.450832 0.015356 -2.75291e-19)
(0.548465 0.0160701 -4.84285e-19)
(0.646875 0.0174587 4.66928e-19)
(0.743444 0.019332 1.30594e-19)
(0.835782 0.0214741 2.45554e-20)
(0.921866 0.0236721 5.91339e-19)
(1.00014 0.0257395 -6.04111e-19)
(1.06957 0.0275287 -2.31916e-20)
(1.12965 0.0289426 2.20362e-20)
(1.18035 0.0299406 8.71917e-20)
(1.2222 0.0316893 4.14008e-19)
(-0.0131257 0.00932143 3.29739e-19)
(-0.0157843 0.0164452 8.4834e-19)
(0.00293953 0.0184477 6.80312e-19)
(0.0403179 0.0176412 -2.34358e-19)
(0.0943015 0.0157018 8.14547e-19)
(0.162964 0.0137854 -6.81861e-20)
(0.244196 0.0125902 -9.68609e-20)
(0.335573 0.0124897 5.70944e-20)
(0.434324 0.0136144 7.87504e-19)
(0.537397 0.0159058 4.62373e-19)
(0.641616 0.0191645 1.35138e-19)
(0.743886 0.0231007 9.17801e-21)
(0.841407 0.0273833 -8.84548e-19)
(0.931851 0.0316848 7.69238e-19)
(1.01348 0.0357174 1.27543e-19)
(1.08519 0.0392562 -2.15101e-19)
(1.14651 0.0421494 -8.93723e-19)
(1.19751 0.0443227 -6.74454e-20)
(1.2387 0.0457411 3.37932e-19)
(1.27143 0.0476347 -6.32442e-20)
(-0.011721 0.00795922 -8.35953e-19)
(-0.00853057 0.0125915 3.49573e-19)
(0.0186345 0.0130981 -1.70632e-18)
(0.0663593 0.0116469 6.98783e-19)
(0.132008 0.00987328 -5.57401e-19)
(0.21301 0.00889604 4.11578e-19)
(0.306499 0.00932218 -6.38921e-19)
(0.409222 0.0113848 5.84537e-20)
(0.517585 0.0150371 -3.27658e-20)
(0.627823 0.0200228 1.7123e-19)
(0.736262 0.0259475 2.46008e-19)
(0.839585 0.0323509 -4.64413e-19)
(0.935066 0.0387736 2.46901e-19)
(1.02072 0.0448108 2.23429e-19)
(1.09533 0.0501472 9.40387e-19)
(1.15846 0.0545737 -4.13917e-19)
(1.21031 0.0579867 -2.60203e-19)
(1.25156 0.0603773 4.32631e-19)
(1.28327 0.0617864 2.13464e-19)
(1.30714 0.0633049 -4.30198e-19)
(-0.00961819 0.00640241 7.31933e-19)
(0.000791196 0.00850624 7.05338e-19)
(0.0377456 0.00780823 2.03468e-19)
(0.0970566 0.00620468 8.57732e-19)
(0.175355 0.00520888 4.2207e-19)
(0.269243 0.00583262 -7.60198e-19)
(0.374919 0.00851742 1.15248e-18)
(0.488172 0.0132815 -5.67188e-19)
(0.604554 0.0198355 5.65358e-19)
(0.719681 0.027681 7.28986e-19)
(0.829581 0.036213 -4.16004e-19)
(0.930998 0.0448166 7.94363e-20)
(1.02159 0.0529454 4.33913e-19)
(1.09997 0.060174 3.01813e-19)
(1.16568 0.0662212 6.80689e-19)
(1.21903 0.0709493 -2.7956e-19)
(1.26091 0.0743454 -4.00539e-20)
(1.29259 0.0764921 4.02773e-19)
(1.31552 0.0775237 -8.99607e-20)
(1.33157 0.0783357 -1.34614e-21)
(-0.00672453 0.004689 -3.77803e-19)
(0.0123907 0.00430164 -1.38772e-18)
(0.0605017 0.0027619 3.26979e-19)
(0.132546 0.00156755 -2.48933e-19)
(0.224251 0.00201599 -5.75616e-19)
(0.331197 0.00492267 -4.11306e-19)
(0.448487 0.0104711 -2.5416e-19)
(0.570883 0.0183802 6.16966e-19)
(0.693149 0.0280572 -3.66111e-19)
(0.810485 0.0387373 -3.74856e-19)
(0.918925 0.0496202 -4.69397e-19)
(1.01561 0.059984 -7.73742e-20)
(1.09887 0.0692627 -5.58168e-20)
(1.16816 0.0770815 -1.05501e-18)
(1.22388 0.0832556 4.98937e-19)
(1.26708 0.0877646 -6.57901e-19)
(1.29928 0.090712 1.94703e-19)
(1.32217 0.0922814 -1.49094e-18)
(1.33748 0.0926934 4.51766e-19)
(1.34704 0.092649 5.46978e-19)
(-0.00295445 0.00287662 -9.49946e-20)
(0.0264487 0.000144378 6.76271e-19)
(0.0870712 -0.00177843 4.33845e-20)
(0.172855 -0.00192544 1.04548e-19)
(0.278436 0.000674505 -2.12799e-19)
(0.39818 0.00653134 -3.48842e-21)
(0.525979 0.0154648 -5.33971e-21)
(0.655596 0.026812 -1.27928e-19)
(0.781194 0.0396371 4.54831e-19)
(0.897869 0.0529187 1.74789e-19)
(1.00203 0.0657134 7.86807e-19)
(1.09154 0.0772701 -2.13609e-19)
(1.16567 0.0870858 1.46469e-19)
(1.22482 0.0949072 -1.65124e-20)
(1.27021 0.100697 3.99362e-19)
(1.30361 0.104577 2.38026e-19)
(1.32697 0.106774 5.57616e-19)
(1.34226 0.107564 -8.92319e-19)
(1.35128 0.107228 1.10319e-18)
(1.35576 0.106318 -3.48747e-19)
(0.00177078 0.00103811 -8.80167e-19)
(0.0431096 -0.00375621 -2.75332e-19)
(0.117544 -0.00549261 2.14735e-19)
(0.217877 -0.00388111 1.35595e-19)
(0.337452 0.00159317 1.39552e-19)
(0.469257 0.0110083 1.41316e-19)
(0.605944 0.0237122 -3.5417e-19)
(0.740423 0.0385969 -1.44965e-19)
(0.866567 0.0543805 4.59936e-20)
(0.979764 0.0698375 -4.28485e-19)
(1.07717 0.0839683 -1.90834e-19)
(1.15767 0.0960884 1.15068e-18)
(1.22157 0.10584 -2.97796e-19)
(1.27025 0.113149 -4.00009e-19)
(1.30569 0.118153 -1.82748e-19)
(1.33013 0.121123 1.30206e-19)
(1.34583 0.122396 1.49892e-19)
(1.35482 0.122316 -7.15788e-19)
(1.35889 0.121201 1.01817e-18)
(1.35956 0.119497 -8.80392e-19)
(0.00752123 -0.00074134 -9.8866e-20)
(0.0624728 -0.00715932 2.81833e-20)
(0.151912 -0.00802479 -3.66348e-20)
(0.267345 -0.00388628 5.32795e-19)
(0.400628 0.00516498 2.97636e-20)
(0.543274 0.0186398 1.95816e-19)
(0.686774 0.0353197 -4.07345e-19)
(0.823471 0.053626 -1.44039e-20)
(0.947362 0.0719751 5.61668e-19)
(1.05455 0.0890313 7.67292e-20)
(1.14326 0.103849 -4.82352e-19)
(1.21356 0.115908 -4.2225e-20)
(1.26687 0.125063 -3.84287e-19)
(1.30539 0.131452 3.86037e-19)
(1.33169 0.135394 5.21864e-19)
(1.34834 0.137292 -5.69772e-20)
(1.35766 0.137567 -6.65916e-20)
(1.36166 0.136608 2.02947e-19)
(1.36196 0.134744 -6.37723e-19)
(1.35989 0.132357 5.67955e-19)
(0.0143546 -0.00236588 1.00283e-19)
(0.0845805 -0.0098024 -6.43897e-19)
(0.190054 -0.00900425 1.72054e-19)
(0.320819 -0.00153954 -5.36611e-19)
(0.467091 0.0117289 1.84784e-19)
(0.618901 0.0296136 -6.8546e-19)
(0.766803 0.0502684 2.76141e-19)
(0.90298 0.0716688 -8.81357e-20)
(1.02202 0.0920246 -3.69322e-21)
(1.12112 0.110014 8.79079e-20)
(1.19982 0.124861 -3.1897e-19)
(1.25943 0.136293 -4.49748e-19)
(1.30235 0.144419 -8.96761e-20)
(1.33148 0.1496 -4.01904e-20)
(1.34976 0.152315 -1.01326e-19)
(1.35986 0.153075 -3.2316e-20)
(1.36407 0.152355 -9.6496e-20)
(1.36424 0.150555 -8.27857e-20)
(1.36177 0.148005 -2.39533e-19)
(1.3578 0.145045 3.76267e-19)
(0.0223113 -0.00373021 2.39051e-19)
(0.109407 -0.0114098 -2.65744e-19)
(0.231721 -0.00806414 5.72955e-19)
(0.377688 0.00352153 -2.48038e-19)
(0.535794 0.0215416 6.63053e-19)
(0.694712 0.0440017 1.02836e-20)
(0.844422 0.0684173 3.31991e-19)
(0.97744 0.0924013 -8.94622e-20)
(1.0894 0.114092 3.66746e-19)
(1.1789 0.132321 2.4722e-20)
(1.24692 0.146586 8.56682e-19)
(1.29591 0.156917 -5.87974e-19)
(1.32912 0.163696 8.05713e-20)
(1.3499 0.167488 1.5068e-19)
(1.36137 0.168906 7.6111e-19)
(1.36616 0.168529 -2.72507e-19)
(1.3664 0.166856 -5.29778e-20)
(1.3637 0.164278 -2.73004e-19)
(1.35927 0.161113 -2.63166e-20)
(1.35401 0.157677 1.35173e-19)
(0.0314088 -0.00472118 -1.13623e-19)
(0.13685 -0.0117019 3.29981e-19)
(0.276538 -0.00485864 -3.40137e-19)
(0.437188 0.0115985 1.3346e-19)
(0.605571 0.0347596 -1.61228e-19)
(0.769271 0.0617577 5.89185e-19)
(0.918179 0.0895223 -8.27561e-20)
(1.04567 0.115441 1.99012e-19)
(1.14881 0.137743 -1.18186e-19)
(1.22781 0.155542 -3.45537e-21)
(1.28502 0.168693 1.30654e-19)
(1.32393 0.177559 -1.00352e-19)
(1.34837 0.18278 2.58738e-19)
(1.36198 0.185093 -1.29208e-19)
(1.36784 0.185207 -5.53694e-19)
(1.36845 0.183737 5.46608e-19)
(1.36568 0.181174 -2.41957e-19)
(1.3609 0.177883 1.9254e-19)
(1.3551 0.17417 3.27622e-19)
(1.349 0.170326 1.34074e-19)
(0.0416372 -0.00522009 2.83286e-19)
(0.166725 -0.010404 -5.84291e-19)
(0.324002 0.000921075 1.11484e-19)
(0.498427 0.0229153 -8.14018e-20)
(0.675196 0.0514324 -3.29622e-19)
(0.841221 0.082728 -2.57796e-19)
(0.986863 0.113264 -5.10603e-20)
(1.10685 0.140383 -4.55455e-19)
(1.19998 0.16257 -2.74828e-20)
(1.26811 0.179338 -8.36572e-20)
(1.31485 0.190945 -2.24868e-19)
(1.34451 0.198084 -5.0315e-20)
(1.3613 0.201625 -1.69454e-19)
(1.36891 0.202438 -2.77767e-19)
(1.37028 0.201283 2.81115e-19)
(1.36766 0.19878 3.64143e-20)
(1.36266 0.195392 7.24087e-20)
(1.35641 0.191446 -3.15034e-19)
(1.34969 0.187239 -9.16584e-21)
(1.34306 0.18303 -4.76118e-19)
(0.0529557 -0.00510601 3.08275e-19)
(0.19876 -0.00725748 2.06265e-19)
(0.3735 0.00953215 -3.34516e-19)
(0.560425 0.0376074 5.22002e-19)
(0.743452 0.0715042 -5.68791e-20)
(0.90935 0.10667 1.94533e-19)
(1.04954 0.139279 6.72082e-20)
(1.16051 0.16683 2.35864e-19)
(1.24296 0.18822 -1.84662e-19)
(1.30031 0.203442 6.06336e-20)
(1.33727 0.213175 -5.79746e-20)
(1.3587 0.218421 -2.45322e-20)
(1.36899 0.220234 4.75405e-20)
(1.37169 0.219567 -8.63669e-20)
(1.36954 0.2172 -2.57338e-20)
(1.36449 0.213727 -7.93099e-20)
(1.35789 0.209571 -1.27628e-19)
(1.35062 0.205016 8.2841e-20)
(1.34331 0.200353 -1.10459e-19)
(1.33637 0.1958 4.7985e-19)
(0.0652897 -0.00425992 -1.53064e-19)
(0.232606 -0.0020308 -4.35887e-19)
(0.424325 0.0211672 -5.80544e-20)
(0.622162 0.0557154 -1.64868e-20)
(0.809185 0.0948224 -1.95776e-19)
(0.972642 0.133273 -3.20905e-19)
(1.10555 0.167182 1.04228e-19)
(1.20648 0.194407 -1.43096e-19)
(1.27805 0.21439 -1.5873e-19)
(1.3251 0.22765 8.77159e-20)
(1.35318 0.235279 -6.58885e-20)
(1.36747 0.23854 -1.31641e-19)
(1.37234 0.238624 -3.2864e-21)
(1.37115 0.236526 8.88651e-20)
(1.3663 0.233008 -8.87031e-20)
(1.35946 0.228623 1.23175e-19)
(1.35172 0.223744 3.36475e-20)
(1.34378 0.218612 8.22507e-20)
(1.33611 0.213516 1.57066e-19)
(1.32902 0.208618 -1.34315e-19)
(0.0785313 -0.00256936 1.4578e-19)
(0.267837 0.00546971 -1.19618e-20)
(0.475705 0.0359442 6.63738e-20)
(0.682618 0.0771855 -8.93671e-20)
(0.871361 0.121152 8.00175e-21)
(1.0303 0.162184 3.09275e-19)
(1.15453 0.196588 -2.02364e-19)
(1.24485 0.222778 8.5155e-20)
(1.30573 0.240832 7.46913e-20)
(1.34321 0.251812 -2.08049e-19)
(1.36342 0.257187 1.94302e-19)
(1.37166 0.258431 1.74305e-21)
(1.37214 0.25682 -1.34512e-19)
(1.36789 0.253348 1.61549e-19)
(1.36101 0.248739 -6.34853e-20)
(1.35289 0.24349 4.82511e-20)
(1.34439 0.237918 -5.41428e-20)
(1.33603 0.232226 -2.19984e-20)
(1.32817 0.226709 -1.84038e-19)
(1.32102 0.221453 5.65457e-20)
(0.0925391 6.66921e-05 -4.85073e-20)
(0.303966 0.0153896 1.31573e-19)
(0.526831 0.0539001 2.07607e-20)
(0.74082 0.101874 8.62341e-20)
(0.929088 0.150189 4.12222e-20)
(1.08175 0.19302 1.93536e-20)
(1.19631 0.227128 1.08534e-19)
(1.27587 0.251643 -1.31128e-20)
(1.32656 0.26734 4.73103e-20)
(1.35537 0.275813 7.55056e-20)
(1.36876 0.278853 3.60857e-20)
(1.37199 0.278091 2.57382e-20)
(1.36896 0.274835 1.03907e-19)
(1.36238 0.270049 -1.00521e-19)
(1.35403 0.264399 2.14059e-20)
(1.34502 0.25832 -1.98265e-20)
(1.33602 0.252074 3.07434e-20)
(1.32744 0.245831 2.56319e-20)
(1.31951 0.239893 5.2735e-20)
(1.31238 0.234255 2.01393e-21)
(0.107142 0.00373302 2.88109e-20)
(0.340458 0.0278183 2.62949e-20)
(0.576885 0.0749879 -3.65221e-20)
(0.795871 0.129555 2.28259e-20)
(0.981644 0.18158 1.2851e-20)
(1.12661 0.225391 -4.00813e-20)
(1.23093 0.258451 1.31101e-20)
(1.29991 0.280737 2.46484e-21)
(1.34113 0.293746 2.24058e-20)
(1.36226 0.29956 -5.99734e-20)
(1.36988 0.300239 -1.27026e-22)
(1.36903 0.297507 1.63906e-20)
(1.36328 0.292666 -1.3074e-20)
(1.35497 0.286622 1.31825e-20)
(1.34558 0.279971 3.40621e-20)
(1.33599 0.273085 -1.92775e-20)
(1.32671 0.266173 5.44169e-21)
(1.31803 0.259379 2.08846e-20)
(1.31013 0.253014 -3.41648e-20)
(1.30309 0.246966 1.65185e-20)
(0.122144 0.00849393 7.92448e-20)
(0.376749 0.0427831 -4.33771e-20)
(0.625071 0.0990783 5.12313e-20)
(0.846978 0.159933 -3.8132e-20)
(1.02847 0.214935 -1.70454e-20)
(1.1647 0.258904 5.23744e-21)
(1.25856 0.290229 -1.66352e-20)
(1.31743 0.309825 5.96051e-20)
(1.35004 0.319901 -4.94835e-20)
(1.3645 0.322975 1.16164e-20)
(1.36733 0.321304 -8.64063e-21)
(1.36324 0.316657 -5.5763e-20)
(1.35542 0.31029 5.39545e-20)
(1.34588 0.303036 2.04175e-20)
(1.3358 0.295416 -2.02366e-20)
(1.32586 0.287737 4.73359e-20)
(1.31647 0.28016 -7.76508e-22)
(1.30782 0.27281 -4.54684e-20)
(1.30001 0.266007 3.34721e-20)
(1.29311 0.25952 1.05138e-20)
(0.137326 0.0143898 -2.78195e-20)
(0.412262 0.0602462 8.03322e-20)
(0.670642 0.125964 9.31262e-20)
(0.893469 0.192654 -4.40493e-20)
(1.06917 0.249842 7.64174e-20)
(1.19597 0.293174 1.20681e-19)
(1.27948 0.322159 -6.753e-21)
(1.32889 0.338696 -2.0634e-20)
(1.35384 0.345673 1.01554e-19)
(1.36263 0.345976 4.94207e-20)
(1.36156 0.341998 -8.88125e-21)
(1.35497 0.335498 7.33558e-20)
(1.34565 0.327665 -7.81971e-20)
(1.33527 0.319242 1.21884e-19)
(1.32478 0.310673 -2.02284e-20)
(1.3147 0.302208 5.78336e-20)
(1.30532 0.293964 1.03279e-20)
(1.29679 0.286052 4.09064e-20)
(1.28914 0.278799 -3.8876e-20)
(1.28244 0.271844 9.58462e-21)
(0.152456 0.0214339 -4.32586e-20)
(0.446426 0.0801039 1.00853e-19)
(0.712914 0.155368 7.52385e-20)
(0.934798 0.227318 -1.14394e-20)
(1.10351 0.285873 1.17543e-19)
(1.2205 0.327828 -8.85834e-20)
(1.29401 0.353955 -6.70424e-21)
(1.33476 0.367153 7.73455e-20)
(1.35302 0.370934 2.44531e-20)
(1.35709 0.36848 3.43184e-20)
(1.35294 0.362254 -5.06054e-20)
(1.34449 0.353971 1.32003e-19)
(1.33414 0.344724 2.45113e-20)
(1.32325 0.335167 -1.16306e-19)
(1.31257 0.325668 1.69919e-19)
(1.3025 0.316419 -1.99863e-19)
(1.29326 0.307503 -9.13723e-20)
(1.28492 0.299023 1.54948e-20)
(1.27749 0.291307 8.80966e-20)
(1.27103 0.283859 -1.67057e-19)
(0.167291 0.0296106 -9.55326e-20)
(0.478691 0.102188 -2.26307e-19)
(0.751286 0.186951 -1.96808e-19)
(0.970546 0.26349 -2.6688e-19)
(1.13135 0.322598 -1.51816e-19)
(1.23847 0.362504 -3.14076e-19)
(1.30251 0.385348 3.99745e-20)
(1.33549 0.395011 -1.66549e-19)
(1.34803 0.395559 -1.83751e-20)
(1.34826 0.390393 2.7398e-20)
(1.34176 0.381995 -6.01795e-20)
(1.332 0.371996 7.55378e-20)
(1.32101 0.361387 1.34165e-19)
(1.30989 0.350725 -1.88334e-19)
(1.29922 0.340307 3.06441e-20)
(1.2893 0.330277 8.73487e-20)
(1.28027 0.320685 1.45928e-19)
(1.2722 0.311634 -1.25862e-19)
(1.26505 0.303445 -5.96374e-21)