1.22 	3.45254e-18 	-6.98323e-18 	-0.123793 	-0.00280441 	-4.17414e-22
1.66 	3.45254e-18 	-6.96118e-18 	-0.239134 	-0.0227362 	-2.06828e-23
2.1 	3.45254e-18 	-6.93894e-18 	-0.260904 	-0.0461617 	-1.17615e-21
2.54 	3.45254e-18 	-8.30431e-18 	-0.330502 	-0.0319436 	7.45511e-24
2.98 	3.45254e-18 	-8.28171e-18 	-0.349507 	0.0326733 	1.23213e-21
3.42 	3.45254e-18 	-6.87115e-18 	-0.403471 	0.108552 	1.37456e-21
3.86 	3.45254e-18 	-6.84819e-18 	-0.355938 	0.130088 	2.88279e-22
4.3 	3.45254e-18 	-6.82504e-18 	-0.30296 	0.0784055 	1.10045e-21
4.74 	3.45254e-18 	-5.41391e-18 	-0.182085 	0.00110549 	-5.9808e-22
5.18 	3.45254e-18 	-2.61482e-18 	-0.109214 	-0.0642994 	-2.62322e-22
5.62 	3.45254e-18 	-1.2033e-18 	-0.0262097 	-0.10287 	9.21516e-23
6.06 	3.45254e-18 	-1.17937e-18 	0.0276296 	-0.113223 	1.68706e-22
6.5 	3.45254e-18 	-1.15524e-18 	0.0939884 	-0.0974678 	-3.96262e-23
