/*--------------------------------*- C++ -*----------------------------------*\
  =========                 |
  \\      /  F ield         | OpenFOAM: The Open Source CFD Toolbox
   \\    /   O peration     | Website:  https://openfoam.org
    \\  /    A nd           | Version:  6.0
     \\/     M anipulation  |
\*---------------------------------------------------------------------------*/
FoamFile
{
    version     2.0;
    format      ascii;
    class       volVectorField;
    location    "74";
    object      U;
}
// * * * * * * * * * * * * * * * * * * * * * * * * * * * * * * * * * * * * * //

dimensions      [0 1 -1 0 0 0 0];

internalField   nonuniform List<vector> 
4000
(
(0.112968 0.00796199 6.8332e-20)
(0.348343 0.0405466 -3.73136e-20)
(0.579837 0.0950657 4.39791e-20)
(0.789914 0.155345 -3.2694e-20)
(0.965345 0.21132 -1.45663e-20)
(1.10045 0.257509 4.491e-21)
(1.19655 0.291746 -1.41668e-20)
(1.2594 0.314405 5.06436e-20)
(1.29653 0.327316 -4.19051e-20)
(1.31531 0.332804 9.8307e-21)
(1.32192 0.333081 -7.30596e-21)
(1.321 0.329958 -4.65631e-20)
(1.31582 0.324776 4.48775e-20)
(1.30849 0.318458 1.68088e-20)
(1.30032 0.311598 -1.66465e-20)
(1.29208 0.304562 3.86451e-20)
(1.28425 0.297553 -7.25329e-22)
(1.27706 0.290715 -3.66571e-20)
(1.27065 0.284381 2.68329e-20)
(1.26513 0.278375 8.2415e-21)
(0.127424 0.0135009 -2.40128e-20)
(0.382776 0.0570609 6.90885e-20)
(0.624923 0.120765 7.99334e-20)
(0.837043 0.18692 -3.77401e-20)
(1.00784 0.245228 6.54183e-20)
(1.13433 0.290889 1.03016e-19)
(1.22044 0.322781 -5.76843e-21)
(1.2738 0.342265 -1.74545e-20)
(1.30299 0.351888 8.58951e-20)
(1.3157 0.35439 4.16226e-20)
(1.318 0.352155 -7.34274e-21)
(1.31423 0.347007 6.12119e-20)
(1.30727 0.340225 -6.46294e-20)
(1.29891 0.332639 1.00507e-19)
(1.29019 0.324762 -1.66067e-20)
(1.28172 0.316891 4.68536e-20)
(1.27384 0.309177 8.12865e-21)
(1.26673 0.301747 3.26369e-20)
(1.26046 0.294934 -3.10464e-20)
(1.2551 0.288433 7.51788e-21)
(0.141938 0.020143 -3.72128e-20)
(0.416165 0.075908 8.6892e-20)
(0.667111 0.14894 6.46285e-20)
(0.879362 0.220401 -9.77391e-21)
(1.04414 0.2802 1.00412e-19)
(1.16146 0.324548 -7.55638e-20)
(1.23776 0.353538 -5.445e-21)
(1.28234 0.369546 6.55768e-20)
(1.30452 0.375784 2.06345e-20)
(1.31213 0.375332 2.88371e-20)
(1.31099 0.370673 -4.23737e-20)
(1.30506 0.363601 1.09453e-19)
(1.29684 0.355302 1.99775e-20)
(1.28782 0.34651 -9.55686e-20)
(1.27881 0.337652 1.38095e-19)
(1.27029 0.328964 -1.61535e-19)
(1.26249 0.320554 -7.28433e-20)
(1.25555 0.312535 1.26428e-20)
(1.24947 0.305238 6.97301e-20)
(1.24432 0.298229 -1.30756e-19)
(0.15627 0.0278828 -8.24246e-20)
(0.447947 0.0969439 -1.94771e-19)
(0.70575 0.179273 -1.69114e-19)
(0.916376 0.25537 -2.28539e-19)
(1.07407 0.315816 -1.29674e-19)
(1.18196 0.358141 -2.67549e-19)
(1.24887 0.383775 3.4083e-20)
(1.28548 0.396099 -1.40598e-19)
(1.30161 0.398924 -1.55017e-20)
(1.30503 0.395585 2.30059e-20)
(1.30122 0.388607 -5.00644e-20)
(1.29374 0.379709 6.18632e-20)
(1.2847 0.369971 1.09355e-19)
(1.27532 0.360023 -1.53878e-19)
(1.26624 0.350214 2.42669e-20)
(1.25781 0.340723 6.97106e-20)
(1.2502 0.331622 1.1566e-19)
(1.2435 0.323016 -9.97788e-20)
(1.23766 0.315231 -4.57913e-21)
(1.23279 0.3077 1.14673e-19)
(0.170177 0.0366852 -1.54408e-19)
(0.477586 0.119962 4.24787e-19)
(0.74028 0.211393 -7.44368e-20)
(0.947719 0.291381 9.9135e-20)
(1.09755 0.351658 -9.61493e-20)
(1.19603 0.391335 2.96288e-19)
(1.25415 0.413256 -4.68659e-20)
(1.28368 0.421771 2.79653e-20)
(1.29471 0.421206 -1.36726e-20)
(1.29479 0.415076 4.51907e-20)
(1.289 0.405886 2.90961e-20)
(1.28047 0.395256 3.63059e-20)
(1.27098 0.384145 -1.03124e-19)
(1.26151 0.373085 1.49887e-19)
(1.25253 0.362349 -1.13508e-19)
(1.2443 0.352067 2.11029e-20)
(1.23697 0.342279 -7.18593e-20)
(1.23058 0.33309 1.48195e-20)
(1.22505 0.324814 1.65101e-20)
(1.2205 0.316753 -1.56325e-19)
(0.183417 0.0464852 1.0315e-20)
(0.504596 0.144701 -2.12417e-19)
(0.77024 0.244886 1.18215e-19)
(0.97315 0.327975 -4.08855e-19)
(1.11463 0.387314 1.98408e-19)
(1.20395 0.423813 -3.37656e-19)
(1.254 0.44176 -2.62554e-19)
(1.27737 0.446414 -9.92661e-21)
(1.28419 0.442527 -8.85225e-20)
(1.28171 0.433718 -2.74684e-19)
(1.27453 0.422429 -3.40831e-20)
(1.2654 0.410156 -2.60988e-19)
(1.25577 0.397736 4.73934e-20)
(1.24641 0.385601 -3.72364e-20)
(1.23769 0.373961 2.17868e-20)
(1.22979 0.362899 -1.70725e-19)
(1.22282 0.352433 9.73302e-21)
(1.21679 0.342667 3.4416e-20)
(1.21162 0.333899 -7.72078e-20)
(1.20745 0.32531 6.7436e-20)
(0.195759 0.0571888 -8.713e-20)
(0.528547 0.170849 3.86834e-19)
(0.795272 0.279304 3.62859e-21)
(0.992542 0.364686 -3.33208e-19)
(1.12542 0.422385 2.52278e-19)
(1.20601 0.455271 1.05505e-19)
(1.24881 0.469074 2.19532e-20)
(1.26693 0.469876 -1.76416e-19)
(1.27041 0.462769 2.87123e-19)
(1.26604 0.451407 -1.67245e-19)
(1.25801 0.438133 6.07844e-20)
(1.24865 0.424303 2.81179e-19)
(1.23915 0.410631 -2.5181e-19)
(1.23009 0.39746 2.74989e-19)
(1.22176 0.384938 -1.7853e-19)
(1.21428 0.373111 -3.49446e-20)
(1.20774 0.361976 4.13974e-20)
(1.20215 0.351642 5.1791e-20)
(1.19739 0.342386 7.11852e-20)
(1.19366 0.333277 4.27023e-20)
(0.206984 0.0686748 3.37125e-20)
(0.549072 0.198054 -3.45096e-19)
(0.815119 0.31418 6.19228e-20)
(1.00587 0.401051 8.01358e-19)
(1.13011 0.456485 -7.39957e-20)
(1.20255 0.485422 2.2036e-19)
(1.23895 0.494989 1.37902e-19)
(1.25272 0.492004 2.32993e-20)
(1.25363 0.481804 -1.58952e-19)
(1.24801 0.468026 2.60427e-19)
(1.23958 0.452879 -2.98888e-20)
(1.23032 0.437575 3.9241e-19)
(1.22118 0.42271 1.50003e-19)
(1.21259 0.408541 9.31601e-20)
(1.20476 0.395163 -1.94386e-19)
(1.1978 0.382588 4.14119e-20)
(1.19178 0.370801 1.49149e-19)
(1.18668 0.359912 3.77032e-20)
(1.18239 0.350176 -1.78498e-19)
(1.17916 0.340565 -4.41841e-20)
(0.216895 0.0807976 -1.9176e-19)
(0.565879 0.225934 6.16409e-19)
(0.829624 0.349033 -3.35329e-19)
(1.01319 0.436617 -3.07657e-19)
(1.12897 0.489247 -2.68292e-19)
(1.19393 0.513989 -2.25542e-19)
(1.2248 0.519303 -2.77324e-19)
(1.23507 0.512638 3.47065e-19)
(1.23412 0.499497 -2.46883e-19)
(1.2278 0.483444 -1.98276e-20)
(1.21937 0.466538 -2.08657e-21)
(1.21049 0.449843 -4.70588e-20)
(1.20192 0.433842 -1.20431e-19)
(1.19395 0.418717 -1.33398e-19)
(1.18674 0.404513 -7.09763e-21)
(1.18038 0.391213 -2.93959e-20)
(1.17494 0.378793 -7.16687e-20)
(1.17041 0.367367 -2.17774e-20)
(1.16665 0.357164 2.40835e-20)
(1.16398 0.34708 -1.49465e-19)
(0.22532 0.0933905 3.30642e-19)
(0.578749 0.254085 3.44305e-19)
(0.838724 0.383383 -2.13089e-19)
(1.01466 0.470944 1.3221e-19)
(1.12228 0.520319 2.25935e-19)
(1.1805 0.540711 -4.61334e-20)
(1.20671 0.541819 5.58645e-20)
(1.21428 0.531618 6.23805e-20)
(1.21212 0.515702 1.03668e-19)
(1.20557 0.497521 -1.21237e-19)
(1.1975 0.47897 5.9326e-20)
(1.18926 0.460968 -4.04927e-20)
(1.18143 0.443892 1.80412e-19)
(1.17423 0.427855 7.76051e-20)
(1.16775 0.412859 -1.7809e-19)
(1.16208 0.398864 9.71805e-20)
(1.15729 0.385836 4.78725e-20)
(1.15337 0.373894 -8.67656e-20)
(1.1502 0.363244 2.33255e-19)
(1.14815 0.352728 -1.7173e-19)
(0.232116 0.10627 -2.42487e-19)
(0.58754 0.28209 -3.1471e-19)
(0.84244 0.416757 2.20923e-19)
(1.01047 0.503612 -2.03536e-19)
(1.11037 0.549372 -1.96995e-20)
(1.16262 0.56534 -2.21927e-19)
(1.18501 0.562344 1.85039e-19)
(1.19061 0.548785 3.39007e-19)
(1.18782 0.530273 -4.71825e-19)
(1.18148 0.510114 2.43285e-20)
(1.17406 0.490031 1.82944e-20)
(1.16669 0.470806 -9.33945e-20)
(1.15978 0.452719 6.51506e-20)
(1.15348 0.43582 -2.69817e-20)
(1.14784 0.420073 1.78172e-19)
(1.14294 0.405416 -1.91654e-19)
(1.13888 0.391809 -6.48454e-20)
(1.13564 0.379376 1.69211e-19)
(1.13312 0.368302 -2.48724e-19)
(1.13176 0.357405 1.56664e-19)
(0.237173 0.119238 5.0233e-19)
(0.592181 0.30953 4.44568e-19)
(0.840873 0.448699 -7.49783e-20)
(1.00089 0.534226 -9.31443e-21)
(1.0936 0.5761 -2.25949e-19)
(1.14067 0.587644 9.63956e-20)
(1.16003 0.580697 4.69369e-19)
(1.16433 0.563979 -4.12166e-19)
(1.16143 0.543059 2.59438e-19)
(1.15567 0.521075 -2.26261e-20)
(1.14917 0.499577 1.57761e-19)
(1.14286 0.479214 -3.97398e-20)
(1.13703 0.460181 9.39736e-20)
(1.13176 0.442473 1.199e-19)
(1.12707 0.42602 -6.74477e-20)
(1.12304 0.410739 8.02331e-20)
(1.11977 0.396585 -1.10507e-19)
(1.11727 0.383686 2.81863e-19)
(1.11547 0.372211 -1.72735e-19)
(1.11487 0.360989 1.23244e-19)
(0.240411 0.13209 -2.42275e-19)
(0.592675 0.33599 -4.53652e-19)
(0.834195 0.478772 -3.13646e-19)
(0.98622 0.562419 -2.18342e-20)
(1.07232 0.600221 7.45808e-20)
(1.115 0.60741 -4.02648e-20)
(1.13208 0.596704 -2.65702e-19)
(1.1357 0.577048 -1.15522e-19)
(1.13313 0.553916 -2.10453e-19)
(1.12826 0.530261 -1.01164e-19)
(1.12293 0.507462 5.09639e-20)
(1.11786 0.486049 -2.42165e-19)
(1.11325 0.466139 -5.50815e-20)
(1.10914 0.447679 -5.34017e-20)
(1.10552 0.430567 -1.70526e-19)
(1.10244 0.414702 7.56768e-20)
(1.10003 0.400035 3.17695e-21)
(1.09833 0.386689 6.66053e-20)
(1.09733 0.374828 -2.86631e-20)
(1.09755 0.363335 -9.33293e-20)
(0.241788 0.144617 5.59145e-19)
(0.58909 0.36107 4.888e-19)
(0.822636 0.506569 6.01049e-19)
(0.966818 0.587855 -6.26355e-20)
(1.04693 0.621479 -2.15179e-19)
(1.08597 0.624442 6.41659e-19)
(1.10146 0.610205 -3.16504e-19)
(1.10493 0.587847 3.49583e-19)
(1.1031 0.562705 -6.36047e-20)
(1.09941 0.537534 2.12583e-19)
(1.09543 0.51355 2.40284e-20)
(1.09176 0.491173 9.81562e-20)
(1.08852 0.470454 -2.17827e-20)
(1.0857 0.4513 9.59767e-20)
(1.08325 0.433581 -7.33444e-20)
(1.08122 0.417176 7.56267e-21)
(1.07975 0.402026 3.72482e-20)
(1.07892 0.388248 5.60383e-20)
(1.07877 0.376008 -5.98296e-21)
(1.07985 0.364305 2.45442e-20)
(0.241294 0.156612 -1.70596e-19)
(0.581558 0.384389 -4.77272e-19)
(0.806484 0.531715 -2.9064e-19)
(0.943058 0.610233 -5.06159e-19)
(1.01783 0.639646 5.40583e-19)
(1.05395 0.638564 -3.76077e-19)
(1.06847 0.621054 2.3735e-19)
(1.07228 0.596244 -8.41061e-20)
(1.07151 0.569298 -9.85712e-20)
(1.06923 0.542768 -6.92011e-20)
(1.06678 0.517715 3.63508e-20)
(1.06464 0.49446 4.26736e-20)
(1.06289 0.472998 2.96314e-20)
(1.06147 0.453204 -4.58735e-20)
(1.06033 0.434926 -2.51855e-20)
(1.05947 0.418024 8.35313e-20)
(1.05901 0.402423 -1.73548e-20)
(1.0591 0.388225 -1.88931e-20)
(1.05986 0.375618 6.9326e-21)
(1.06182 0.363791 7.84011e-21)
(0.238953 0.16787 7.43816e-19)
(0.570265 0.405594 3.48631e-19)
(0.786072 0.553873 3.26984e-19)
(0.915346 0.629286 -1.91843e-19)
(0.985419 0.654525 2.2007e-20)
(1.0193 0.649625 2.70518e-19)
(1.03341 0.629124 3.39012e-20)
(1.03797 0.602122 6.75293e-20)
(1.03854 0.573584 7.25158e-20)
(1.03786 0.545854 9.74126e-22)
(1.03707 0.519847 3.09853e-20)
(1.03657 0.495798 -1.06615e-20)
(1.03641 0.473656 -2.12453e-20)
(1.03652 0.453269 -3.53691e-20)
(1.0368 0.43447 1.38262e-20)
(1.03723 0.417104 4.57825e-21)
(1.0379 0.401075 -7.19352e-21)
(1.03899 0.38646 1.34867e-21)
(1.04069 0.373499 2.49722e-20)
(1.04359 0.361654 -2.03129e-20)
(0.234823 0.1782 -5.26114e-19)
(0.555448 0.424361 -4.54779e-19)
(0.761769 0.572745 2.14397e-19)
(0.884106 0.644784 -2.61305e-19)
(0.950106 0.665947 -2.03987e-20)
(0.982363 0.657495 2.96721e-20)
(0.996575 0.634306 -3.953e-20)
(1.00223 0.605385 -3.5996e-20)
(1.00438 0.57547 -6.19568e-20)
(1.00545 0.546703 -4.03444e-20)
(1.00642 0.519862 -2.13155e-20)
(1.00763 0.495103 -5.12776e-22)
(1.00914 0.472337 5.3021e-21)
(1.01086 0.451395 -2.21992e-21)
(1.01269 0.432099 7.34956e-21)
(1.01456 0.414286 -3.93302e-20)
(1.0165 0.397838 -3.84521e-20)
(1.01869 0.382776 -4.321e-20)
(1.02147 0.369382 -3.69025e-22)
(1.02554 0.357537 6.93147e-20)
(0.228988 0.187421 4.79462e-19)
(0.537389 0.440403 2.07209e-20)
(0.733979 0.588075 -4.86578e-20)
(0.849778 0.656537 5.64199e-20)
(0.912308 0.673774 1.70777e-19)
(0.943512 0.662072 -1.28949e-19)
(0.958253 0.636515 3.92766e-20)
(0.965294 0.605954 -6.13437e-20)
(0.969213 0.574885 1.82461e-22)
(0.972133 0.54525 -9.97981e-21)
(0.974923 0.517697 -3.65403e-20)
(0.977886 0.492312 -3.26567e-20)
(0.981083 0.468972 3.39564e-20)
(0.984474 0.447497 -1.47944e-20)
(0.987968 0.427707 -1.5192e-19)
(0.991447 0.409448 1.4714e-19)
(0.994846 0.392577 -9.14432e-20)
(0.998359 0.376983 -5.93033e-20)
(1.0026 0.362882 7.22333e-20)
(1.00835 0.350804 -9.01063e-20)
(0.221564 0.195369 -1.01714e-19)
(0.516404 0.453472 1.09654e-19)
(0.70313 0.599649 6.31361e-20)
(0.812813 0.664391 -9.50429e-20)
(0.872444 0.677902 3.87219e-20)
(0.903103 0.663278 -6.99608e-20)
(0.918744 0.63569 -1.51713e-20)
(0.927416 0.60378 1.11743e-20)
(0.933234 0.57179 -5.08273e-21)
(0.938074 0.541466 -9.3236e-20)
(0.9427 0.513332 1.90038e-20)
(0.947391 0.487405 1.15608e-21)
(0.952239 0.463524 1.11709e-19)
(0.957263 0.441491 -2.92869e-19)
(0.962428 0.421132 2.72658e-19)
(0.967607 0.402323 1.46465e-19)
(0.972675 0.38491 -3.19378e-20)
(0.977913 0.368563 2.3248e-20)
(0.984239 0.353288 2.63072e-19)
(0.991928 0.340617 -1.09679e-19)
(0.212689 0.201902 -2.93234e-20)
(0.492842 0.463359 7.0729e-20)
(0.66967 0.607298 -7.12486e-20)
(0.773672 0.66823 9.43688e-20)
(0.830937 0.678253 -2.71761e-20)
(0.8615 0.66106 1.35263e-20)
(0.878355 0.631792 2.04482e-20)
(0.888848 0.598837 -6.19224e-20)
(0.896664 0.566176 6.17007e-20)
(0.903456 0.535367 4.47431e-20)
(0.909893 0.506817 2.46409e-20)
(0.916235 0.480467 2.44206e-21)
(0.922594 0.456103 9.66124e-20)
(0.929049 0.43348 -9.85834e-20)
(0.935635 0.412385 1.16466e-19)
(0.942275 0.392682 -2.42771e-19)
(0.948885 0.374164 2.72741e-19)
(0.955931 0.356189 -2.34689e-19)
(0.964398 0.338507 -1.5677e-19)
(0.973144 0.324555 2.71213e-19)
(0.202521 0.206895 2.78443e-20)
(0.467075 0.469897 -1.37293e-20)
(0.634059 0.610892 -2.58963e-21)
(0.732819 0.667972 -3.668e-20)
(0.788207 0.674779 4.52667e-21)
(0.81907 0.655387 6.43379e-21)
(0.837403 0.624801 -1.49124e-19)
(0.849868 0.591117 9.89265e-20)
(0.859753 0.558057 1.00141e-19)
(0.868512 0.527003 -1.42284e-19)
(0.876729 0.498261 1.69158e-19)
(0.884631 0.471709 -6.40296e-20)
(0.892324 0.447085 1.28226e-19)
(0.899891 0.424082 -2.04121e-19)
(0.907383 0.402406 4.25233e-19)
(0.914764 0.381801 -9.53821e-20)
(0.922059 0.36185 -2.62899e-20)
(0.929932 0.341297 2.81237e-19)
(0.939108 0.318246 -1.36677e-19)
(0.944619 0.295209 6.20528e-20)
(0.191236 0.21025 -5.40266e-20)
(0.43949 0.472962 5.48728e-20)
(0.596765 0.610346 -3.27997e-20)
(0.690718 0.663571 3.85294e-20)
(0.744678 0.667458 -2.08768e-20)
(0.776181 0.646248 -1.56209e-19)
(0.796209 0.614711 2.37913e-19)
(0.810767 0.580618 1.65433e-20)
(0.822778 0.547436 -2.54462e-20)
(0.833522 0.516393 5.61877e-21)
(0.843515 0.487712 7.96166e-20)
(0.852954 0.461242 1.3707e-19)
(0.861923 0.436715 8.15526e-20)
(0.870464 0.413842 -1.94466e-19)
(0.87857 0.392371 -5.64747e-20)
(0.886189 0.372104 -8.71193e-21)
(0.893435 0.352775 3.71081e-20)
(0.900893 0.333699 5.28329e-21)
(0.908465 0.314191 4.18219e-19)
(0.911535 0.296338 -2.92413e-19)
(0.17902 0.211886 1.50884e-19)
(0.410483 0.472463 -1.79111e-20)
(0.558258 0.605607 -1.12147e-19)
(0.647829 0.655009 3.55141e-19)
(0.700764 0.65629 7.30505e-20)
(0.733199 0.63365 -2.17429e-19)
(0.755098 0.601527 2.05362e-19)
(0.771839 0.567343 -4.72336e-20)
(0.786016 0.534316 1.81772e-19)
(0.798764 0.503528 8.39538e-20)
(0.810547 0.475135 -3.98156e-19)
(0.821556 0.448958 -4.56729e-20)
(0.83188 0.424725 5.5466e-19)
(0.84156 0.402158 -6.78779e-19)
(0.850578 0.381013 6.27342e-19)
(0.858875 0.361088 2.17548e-19)
(0.866526 0.342102 -7.72372e-19)
(0.873929 0.323489 3.73821e-19)
(0.88088 0.304972 -7.64356e-20)
(0.883945 0.288905 8.98068e-20)
(0.16607 0.211746 -2.90278e-19)
(0.380459 0.468352 -2.98951e-19)
(0.519003 0.596665 2.03309e-19)
(0.604606 0.642304 -2.5791e-19)
(0.656875 0.641303 -7.06401e-19)
(0.690484 0.61762 -2.42882e-20)
(0.714388 0.585271 -2.08339e-19)
(0.733375 0.55131 8.91029e-21)
(0.74974 0.518711 -4.11066e-19)
(0.764495 0.488425 -4.17283e-19)
(0.778066 0.460555 -2.84225e-19)
(0.79064 0.434906 -1.16749e-20)
(0.802318 0.411213 -6.99844e-19)
(0.813155 0.389218 -6.01816e-21)
(0.823159 0.368708 3.40983e-19)
(0.832308 0.349515 -3.38885e-19)
(0.840684 0.33142 -2.61503e-19)
(0.848608 0.313995 2.51653e-19)
(0.855873 0.297076 -1.80366e-19)
(0.859697 0.282511 3.47504e-20)
(0.152586 0.209797 2.35607e-19)
(0.349819 0.460619 1.8239e-19)
(0.479459 0.583546 -7.51984e-21)
(0.561491 0.6255 -1.50983e-19)
(0.613408 0.622547 3.64651e-19)
(0.648385 0.598202 5.86336e-19)
(0.674394 0.565978 -6.08756e-20)
(0.695664 0.532542 1.05068e-20)
(0.714228 0.50063 1.13085e-19)
(0.730992 0.471077 2.58111e-19)
(0.746359 0.44394 3.7373e-19)
(0.760524 0.419014 -3.02799e-19)
(0.773601 0.396041 2.97695e-19)
(0.785664 0.374777 -1.0287e-19)
(0.796744 0.355021 3.46649e-19)
(0.806848 0.336618 -1.35034e-19)
(0.816089 0.319374 -3.35098e-19)
(0.824787 0.302957 2.01338e-19)
(0.832768 0.287314 -2.87515e-19)
(0.837621 0.273988 -3.27179e-19)
(0.138774 0.206026 1.06542e-19)
(0.318961 0.449288 1.92543e-19)
(0.440075 0.566309 -2.02052e-19)
(0.518911 0.604676 8.967e-21)
(0.570746 0.600099 3.50188e-20)
(0.607243 0.575462 2.79975e-19)
(0.635417 0.543701 -4.12162e-19)
(0.658979 0.511078 3.90483e-19)
(0.679729 0.480101 -3.81819e-20)
(0.698488 0.451498 1.06121e-19)
(0.715644 0.425288 1.71138e-19)
(0.731405 0.401261 -3.26465e-19)
(0.745907 0.379169 1.5605e-19)
(0.759248 0.358782 1.48075e-19)
(0.771486 0.339913 5.45496e-20)
(0.782658 0.322415 -2.79263e-19)
(0.792903 0.30611 9.40562e-19)
(0.802534 0.290714 -5.26228e-19)
(0.811379 0.276207 9.55285e-19)
(0.817315 0.263857 -6.23095e-20)
(0.124836 0.200442 7.74434e-20)
(0.288271 0.434419 4.55834e-19)
(0.401282 0.545049 1.62086e-19)
(0.477278 0.579934 3.36551e-19)
(0.529257 0.574058 8.78249e-20)
(0.56738 0.549487 -5.34484e-19)
(0.597745 0.51851 8.27187e-19)
(0.623584 0.486975 4.26883e-19)
(0.646488 0.457166 1.74445e-20)
(0.667211 0.429715 5.5143e-19)
(0.686132 0.404609 8.9081e-20)
(0.703478 0.381638 5.76958e-20)
(0.719407 0.360561 3.28332e-19)
(0.734041 0.34116 -1.22608e-19)
(0.747465 0.323258 -1.28804e-19)
(0.759747 0.306713 7.61788e-19)
(0.771048 0.291359 -6.3582e-19)
(0.781672 0.276949 2.5014e-20)
(0.791442 0.263478 8.03524e-19)
(0.798484 0.251981 -8.40555e-22)
(0.110971 0.193074 -9.80406e-19)
(0.258124 0.416103 -1.64694e-19)
(0.363494 0.51989 -2.23174e-19)
(0.436982 0.551409 -1.70471e-19)
(0.489291 0.544548 -4.30569e-19)
(0.529106 0.520385 1.47742e-19)
(0.561653 0.490499 -2.04605e-19)
(0.589726 0.460309 5.96328e-20)
(0.614731 0.431886 -2.96128e-19)
(0.637368 0.405774 -2.79598e-19)
(0.658015 0.381934 5.76942e-20)
(0.676917 0.36016 -4.50621e-19)
(0.694256 0.340219 3.59402e-19)
(0.710178 0.321905 -1.29416e-19)
(0.724792 0.305048 4.05353e-19)
(0.738192 0.289511 -8.745e-19)
(0.750556 0.275135 -1.65927e-19)
(0.762174 0.261705 -3.13111e-19)
(0.772868 0.249215 -8.39905e-19)
(0.781 0.238499 -1.35187e-19)
(0.0973718 0.18397 1.60021e-19)
(0.228879 0.394462 -1.8848e-20)
(0.327103 0.49099 -2.46185e-19)
(0.398395 0.519261 8.67093e-20)
(0.451177 0.511718 -1.74633e-19)
(0.492712 0.488287 -1.96767e-21)
(0.527401 0.459778 2.3681e-19)
(0.557638 0.431175 -3.52959e-19)
(0.58467 0.404341 1.37637e-19)
(0.609151 0.379741 -7.90956e-20)
(0.631464 0.357318 2.11796e-20)
(0.651874 0.336869 -3.91999e-19)
(0.670584 0.318172 -4.75701e-19)
(0.687763 0.301032 -1.78132e-20)
(0.703542 0.285288 5.28577e-19)
(0.718038 0.270807 2.46911e-20)
(0.731441 0.257439 6.66849e-19)
(0.744021 0.244994 -9.71162e-19)
(0.755613 0.233462 5.16776e-19)
(0.764804 0.223504 8.90296e-19)
(0.084225 0.173195 -1.39434e-19)
(0.200874 0.369649 7.51969e-20)
(0.29248 0.458535 4.86276e-19)
(0.361864 0.483677 1.19405e-19)
(0.415226 0.47574 -1.61599e-19)
(0.458468 0.453345 1.26929e-19)
(0.495229 0.426481 4.97866e-19)
(0.527537 0.399689 -4.04174e-19)
(0.556501 0.374632 3.72012e-20)
(0.582739 0.351704 -1.46483e-19)
(0.606642 0.330836 5.29289e-19)
(0.628491 0.31183 3.76909e-19)
(0.648515 0.294478 -5.51398e-20)
(0.6669 0.278594 -5.71098e-19)
(0.683798 0.264028 3.08428e-20)
(0.699345 0.250652 -6.97094e-20)
(0.713738 0.238327 3.34849e-19)
(0.727231 0.226885 5.43554e-19)
(0.739676 0.216309 4.74005e-19)
(0.749882 0.207109 -7.93685e-19)
(0.0717066 0.160833 -8.72444e-20)
(0.17443 0.341843 3.71617e-19)
(0.25997 0.422737 -3.6237e-19)
(0.327711 0.444869 5.02242e-19)
(0.381724 0.436809 -2.72712e-19)
(0.42663 0.415733 1.955e-19)
(0.465362 0.390761 4.94357e-19)
(0.499625 0.365986 -5.93299e-19)
(0.530406 0.34288 2.69713e-19)
(0.558296 0.321773 3.40456e-19)
(0.583694 0.302587 -4.62562e-19)
(0.6069 0.285132 -3.28157e-20)
(0.628162 0.269216 -3.69515e-19)
(0.647685 0.254666 5.92487e-19)
(0.665639 0.241341 -3.20636e-19)
(0.682176 0.229119 3.44337e-19)
(0.697497 0.217875 -6.21824e-20)
(0.711838 0.207461 2.12082e-19)
(0.725083 0.19785 4.80698e-20)
(0.736246 0.189428 -1.2386e-19)
(0.059982 0.146983 -2.66842e-19)
(0.149841 0.311248 -6.13641e-19)
(0.229892 0.383835 1.61815e-19)
(0.296235 0.403071 -5.16336e-19)
(0.350935 0.39514 -4.8765e-19)
(0.397429 0.375644 -3.49571e-19)
(0.438008 0.352791 2.72348e-19)
(0.474089 0.330222 2.08922e-19)
(0.506554 0.309226 -1.43956e-21)
(0.535974 0.290074 -1.81869e-19)
(0.562757 0.272685 -3.26898e-19)
(0.587221 0.256882 2.9399e-19)
(0.609631 0.242487 -1.01803e-19)
(0.63021 0.229343 -5.00377e-19)
(0.649143 0.217318 3.24773e-19)
(0.666596 0.2063 -2.44287e-19)
(0.68277 0.196177 -9.9343e-20)
(0.697889 0.18682 -2.77489e-19)
(0.71187 0.178192 -2.51225e-19)
(0.723925 0.170578 6.51155e-20)
(0.049204 0.131759 2.33267e-19)
(0.127381 0.278092 1.20883e-19)
(0.202538 0.342091 1.84248e-19)
(0.267706 0.35854 -6.27316e-19)
(0.3231 0.35097 6.71119e-19)
(0.371077 0.33329 3.40164e-21)
(0.413354 0.31276 5.65835e-21)
(0.451096 0.292569 -4.06364e-19)
(0.485097 0.273825 3.78531e-19)
(0.515912 0.256752 -2.63171e-19)
(0.543957 0.241265 7.94133e-20)
(0.569567 0.227205 -3.51315e-19)
(0.593023 0.214409 -1.66455e-19)
(0.614563 0.202737 -7.90245e-20)
(0.634386 0.192068 5.99498e-19)
(0.652671 0.182303 -2.94343e-19)
(0.669617 0.17334 -2.64792e-19)
(0.685436 0.16507 2.72403e-19)
(0.700085 0.157449 -2.23316e-19)
(0.712955 0.150678 1.7411e-19)
(0.0395119 0.11529 4.93794e-19)
(0.107294 0.242625 -2.97832e-19)
(0.178168 0.297789 4.49101e-20)
(0.242368 0.311552 5.20954e-19)
(0.298436 0.304551 2.05827e-19)
(0.347765 0.288899 2.5517e-19)
(0.391572 0.270875 2.53739e-19)
(0.430801 0.253214 5.37074e-19)
(0.466174 0.236851 -1.23236e-19)
(0.498233 0.221965 2.93077e-19)
(0.527405 0.208476 4.25034e-19)
(0.554038 0.19624 1.56165e-19)
(0.578428 0.185114 2.82591e-19)
(0.600825 0.174975 1.02213e-19)
(0.621442 0.165715 6.0226e-20)
(0.640465 0.157246 -4.38714e-20)
(0.658095 0.149482 3.48767e-19)
(0.674533 0.142328 2.14494e-19)
(0.689775 0.135739 -1.95403e-19)
(0.703376 0.129849 1.83968e-19)
(0.0310305 0.097715 -3.27536e-19)
(0.0897992 0.205116 3.73069e-20)
(0.157017 0.251233 -9.44016e-20)
(0.220436 0.262402 -2.86101e-19)
(0.277131 0.256153 -1.51629e-19)
(0.327661 0.242715 -2.74558e-19)
(0.37281 0.227358 1.27021e-19)
(0.413338 0.21236 -4.92144e-19)
(0.449907 0.19849 2.8976e-19)
(0.48305 0.185888 -4.00952e-19)
(0.513202 0.174479 -2.48566e-19)
(0.540725 0.164139 -3.2814e-19)
(0.565927 0.154747 7.50157e-20)
(0.58907 0.146194 -7.42443e-20)
(0.610376 0.13839 8.8159e-20)
(0.63004 0.131259 4.71276e-20)
(0.64826 0.124728 9.36128e-20)
(0.665231 0.118719 -7.87618e-19)
(0.680987 0.113186 3.91411e-19)
(0.695227 0.108215 -2.35149e-19)
(0.0238685 0.0791866 1.07804e-19)
(0.0750861 0.165852 2.17587e-19)
(0.139285 0.202742 -1.4168e-19)
(0.202096 0.211399 3.50187e-19)
(0.259353 0.206061 -5.60555e-20)
(0.310912 0.194996 4.03954e-19)
(0.357199 0.182443 7.75493e-20)
(0.398825 0.170222 -8.15755e-20)
(0.436402 0.158941 2.96755e-19)
(0.470458 0.148704 2.26449e-19)
(0.501436 0.139447 8.37438e-20)
(0.529709 0.131066 1.10354e-19)
(0.555594 0.123461 5.52756e-20)
(0.579363 0.116542 -2.33732e-19)
(0.601248 0.110236 -3.24051e-20)
(0.621449 0.104478 2.43623e-19)
(0.640163 0.0992111 -1.66498e-19)
(0.657578 0.0943719 -7.72233e-21)
(0.673766 0.0899178 -3.47444e-19)
(0.688544 0.0859006 7.0032e-19)
(0.0181182 0.0598656 2.88125e-19)
(0.0633148 0.125134 -3.46534e-19)
(0.12514 0.152651 1.62206e-19)
(0.187505 0.158865 -2.29337e-19)
(0.245239 0.154571 2.01816e-19)
(0.297639 0.146011 -3.50068e-19)
(0.344849 0.136374 -2.56116e-19)
(0.38736 0.127024 1.88347e-20)
(0.425749 0.118412 -3.47929e-19)
(0.460539 0.110609 -2.16841e-19)
(0.492181 0.103562 -3.74875e-19)
(0.521056 0.0971921 -1.21118e-20)
(0.54749 0.0914189 -1.4467e-19)
(0.571761 0.0861742 3.6707e-19)
(0.594109 0.0813997 2.52479e-19)
(0.61474 0.0770464 -8.48808e-20)
(0.633847 0.0730695 -7.64395e-20)
(0.651616 0.0694217 -3.27964e-21)
(0.668151 0.0660666 9.50622e-21)
(0.683361 0.0630335 1.3803e-19)
(0.0138546 0.0399212 -7.21971e-20)
(0.0546149 0.0832732 -2.4605e-19)
(0.114721 0.101307 -1.53356e-19)
(0.176788 0.105134 -9.58876e-20)
(0.234901 0.101989 -1.98336e-19)
(0.287943 0.0960374 3.39798e-19)
(0.335848 0.0894063 -3.62073e-20)
(0.379023 0.0830018 -8.16456e-20)
(0.41802 0.0771197 3.50662e-21)
(0.45336 0.0718041 2.39022e-19)
(0.485498 0.0670157 -2.26624e-19)
(0.514822 0.0626966 2.215e-19)
(0.541665 0.0587914 1.0396e-19)
(0.56631 0.0552518 -1.88888e-19)
(0.589002 0.0520368 4.1243e-20)
(0.609951 0.049112 1.21154e-19)
(0.62935 0.0464463 4.21075e-20)
(0.647381 0.044007 -2.92707e-20)
(0.664173 0.0417676 -2.541e-19)
(0.679702 0.0397431 2.02516e-19)
(0.0111344 0.0195287 6.46526e-20)
(0.0490844 0.040594 7.85483e-20)
(0.10813 0.049067 2.21737e-20)
(0.170042 0.0505492 -1.65171e-20)
(0.228425 0.0486294 4.73943e-20)
(0.281896 0.045362 7.234e-20)
(0.330262 0.0418007 2.74599e-20)
(0.373875 0.0383948 3.33687e-20)
(0.413271 0.0352885 -7.05814e-20)
(0.448971 0.0324991 1.32424e-19)
(0.481432 0.0300021 -3.11979e-20)
(0.511049 0.027764 -2.54552e-21)
(0.538157 0.0257529 3.16515e-20)
(0.563045 0.0239413 3.56621e-20)
(0.585959 0.022306 -9.54503e-20)
(0.607114 0.0208275 6.28617e-20)
(0.6267 0.0194882 4.12467e-20)
(0.644898 0.0182702 3.51592e-20)
(0.661856 0.0171586 7.52018e-20)
(0.67759 0.0161606 3.11576e-20)
(0.00999618 -0.00113188 -1.31839e-20)
(0.0467898 -0.00257423 2.73626e-20)
(0.105437 -0.00370688 -3.82714e-20)
(0.167331 -0.00454137 2.40379e-20)
(0.225866 -0.00518783 1.4084e-20)
(0.279551 -0.00572433 6.35811e-21)
(0.328137 -0.00617631 1.48755e-20)
(0.371956 -0.0065509 -4.26385e-20)
(0.411539 -0.00685388 2.72253e-20)
(0.447405 -0.00709322 9.52249e-21)
(0.480015 -0.00727801 -5.44678e-22)
(0.509765 -0.00741707 5.81148e-20)
(0.536993 -0.00751809 -1.76582e-20)
(0.561989 -0.00758754 -1.68897e-20)
(0.585002 -0.00763073 -1.61667e-20)
(0.606247 -0.00765203 2.4964e-21)
(0.625915 -0.00765534 -2.15587e-20)
(0.644187 -0.0076442 4.09748e-21)
(0.661218 -0.00762035 8.10011e-22)
(0.677036 -0.00758137 -2.74554e-21)
(0.0104594 -0.0218777 8.3369e-21)
(0.047765 -0.0458976 -4.43163e-20)
(0.106678 -0.0566468 5.28082e-20)
(0.168687 -0.059785 -3.96681e-20)
(0.227254 -0.0591392 -1.84883e-20)
(0.280932 -0.0569272 5.53021e-20)
(0.329496 -0.0542552 4.60569e-21)
(0.373288 -0.0515866 1.28378e-21)
(0.412842 -0.0490762 2.5702e-20)
(0.44868 -0.046757 1.32633e-20)
(0.481262 -0.0446221 -1.05111e-20)
(0.510985 -0.0426555 -3.68003e-20)
(0.538186 -0.0408407 3.54071e-21)
(0.563156 -0.0391629 -3.15837e-21)
(0.586143 -0.0376093 3.4172e-20)
(0.607362 -0.0361693 -2.0538e-20)
(0.627005 -0.0348332 2.81347e-20)
(0.645256 -0.0335897 -4.21305e-20)
(0.662265 -0.0324273 4.86264e-23)
(0.678048 -0.0313482 -8.85708e-21)
(0.0125249 -0.042525 -2.75812e-20)
(0.0520116 -0.0890409 1.3868e-19)
(0.111855 -0.109384 9.33808e-20)
(0.174114 -0.114828 6.18481e-20)
(0.232592 -0.1129 7.70272e-20)
(0.286042 -0.107951 -1.89976e-20)
(0.33434 -0.102166 8.52585e-20)
(0.377872 -0.0964626 1.73815e-20)
(0.417182 -0.0911466 -7.73333e-21)
(0.452796 -0.0862755 -6.09271e-20)
(0.485174 -0.0818268 6.29232e-20)
(0.514708 -0.0777596 -8.53342e-20)
(0.541736 -0.0740333 6.1894e-20)
(0.566544 -0.0706121 7.08007e-20)
(0.589381 -0.0674652 9.35369e-20)
(0.610458 -0.0645668 -6.15309e-20)
(0.62997 -0.0618934 1.72113e-20)
(0.648104 -0.0594191 6.4682e-20)
(0.664998 -0.0571197 -6.12146e-20)
(0.680624 -0.055004 4.61336e-20)
(0.0161743 -0.0628909 -2.64473e-19)
(0.0594987 -0.13167 -1.32889e-19)
(0.120936 -0.161551 -1.47718e-19)
(0.18358 -0.169318 -1.15703e-20)
(0.241851 -0.166147 -7.96344e-20)
(0.294857 -0.158501 -9.81607e-20)
(0.342649 -0.149638 1.71975e-19)
(0.385687 -0.14093 8.77926e-20)
(0.424541 -0.132834 1.07491e-19)
(0.459738 -0.125433 -1.17475e-19)
(0.491736 -0.118689 8.68036e-20)
(0.520922 -0.112538 1.05327e-19)
(0.54763 -0.106915 3.68341e-20)
(0.572143 -0.101763 -3.52403e-20)
(0.594705 -0.097034 7.52268e-21)
(0.615526 -0.092687 -1.53591e-20)
(0.634801 -0.0886847 -1.48646e-19)
(0.652723 -0.084986 2.30046e-20)
(0.669408 -0.0815554 1.44102e-19)
(0.68476 -0.0784141 -1.93757e-19)
(0.0213705 -0.0827949 -8.58539e-20)
(0.0701633 -0.173454 1.29273e-19)
(0.133855 -0.212784 2.9884e-20)
(0.197025 -0.222905 -5.47195e-20)
(0.25498 -0.21856 -1.56278e-19)
(0.307328 -0.208287 -3.35454e-19)
(0.354379 -0.196404 -3.18861e-19)
(0.396696 -0.184743 -2.24761e-20)
(0.434883 -0.173909 -1.85102e-19)
(0.469473 -0.164015 -2.76502e-19)
(0.500918 -0.155009 2.14644e-19)
(0.529599 -0.146802 -3.16082e-19)
(0.555844 -0.139307 6.20038e-20)
(0.57993 -0.132446 -2.0294e-20)
(0.602095 -0.126154 -6.58981e-20)
(0.622545 -0.120375 -8.29824e-20)
(0.641479 -0.115057 1.34626e-19)
(0.659094 -0.110146 1.07284e-19)
(0.67548 -0.105594 1.84542e-19)
(0.690441 -0.101446 -2.76575e-19)
(0.0280578 -0.102061 4.67944e-20)
(0.0839101 -0.214069 4.5258e-19)
(0.150511 -0.262726 1.29531e-19)
(0.214358 -0.275246 3.13435e-19)
(0.271895 -0.269823 -1.1643e-19)
(0.323384 -0.25702 1.80242e-19)
(0.369465 -0.242204 -5.55771e-20)
(0.410839 -0.22766 3.64744e-19)
(0.448155 -0.214149 -1.86934e-19)
(0.481952 -0.201813 2.20982e-19)
(0.512675 -0.19059 1.91812e-19)
(0.540699 -0.180367 2.04145e-19)
(0.56634 -0.171034 -1.82886e-19)
(0.589869 -0.162494 1.56062e-19)
(0.611518 -0.154665 -2.17466e-19)
(0.631486 -0.147477 -5.96872e-20)
(0.649975 -0.140865 -1.42564e-19)
(0.667191 -0.134755 -6.07484e-20)
(0.683187 -0.129099 2.39724e-19)
(0.697647 -0.123967 -3.97727e-19)
(0.0361625 -0.12052 -1.84708e-19)
(0.100613 -0.253203 -2.31047e-20)
(0.170772 -0.311028 -7.35944e-20)
(0.235454 -0.326007 -2.60303e-19)
(0.292488 -0.319629 4.57282e-20)
(0.342928 -0.304422 -4.07234e-19)
(0.38782 -0.286782 -1.69984e-19)
(0.428039 -0.269445 -1.28711e-20)
(0.464286 -0.253334 -4.29155e-19)
(0.49711 -0.238624 -1.32808e-19)
(0.526949 -0.225241 -6.03382e-20)