/*--------------------------------*- C++ -*----------------------------------*\
  =========                 |
  \\      /  F ield         | OpenFOAM: The Open Source CFD Toolbox
   \\    /   O peration     | Website:  https://openfoam.org
    \\  /    A nd           | Version:  6.0
     \\/     M anipulation  |
\*---------------------------------------------------------------------------*/
FoamFile
{
    version     2.0;
    format      ascii;
    class       volScalarField;
    location    "0.9";
    object      p;
}
// * * * * * * * * * * * * * * * * * * * * * * * * * * * * * * * * * * * * * //

dimensions      [0 2 -2 0 0 0 0];

internalField   nonuniform List<scalar> 
8000
(
-0.199877
-0.207418
-0.209479
-0.208177
-0.204192
-0.197124
-0.186733
-0.173077
-0.156501
-0.137587
-0.117081
-0.095793
-0.0745249
-0.0539998
-0.0348239
-0.0174699
-0.00227693
0.0106065
0.0212615
0.0288764
-0.203682
-0.211025
-0.213034
-0.211772
-0.207888
-0.200966
-0.190742
-0.177255
-0.160829
-0.14203
-0.121593
-0.100326
-0.0790293
-0.0584287
-0.0391342
-0.0216221
-0.00623425
0.00687915
0.0178027
0.0257157
-0.211146
-0.218099
-0.220003
-0.218817
-0.215126
-0.208485
-0.198589
-0.185432
-0.169299
-0.150725
-0.130426
-0.109201
-0.0878488
-0.0671011
-0.0475755
-0.0297559
-0.0139901
-0.000432465
0.0110063
0.0194907
-0.222
-0.228387
-0.230134
-0.229047
-0.225629
-0.219388
-0.209963
-0.197281
-0.18157
-0.163322
-0.143222
-0.122055
-0.100621
-0.0796593
-0.0597993
-0.0415373
-0.0252306
-0.0110422
0.00112046
0.0104066
-0.235871
-0.241537
-0.243072
-0.242097
-0.239009
-0.233266
-0.22443
-0.212347
-0.197168
-0.17933
-0.159479
-0.138384
-0.116843
-0.0956073
-0.0753232
-0.0565041
-0.0395223
-0.024554
-0.0115084
-0.00124714
-0.252309
-0.257125
-0.258394
-0.257527
-0.254805
-0.249628
-0.241471
-0.230082
-0.215523
-0.198161
-0.178598
-0.157582
-0.135911
-0.114352
-0.0935709
-0.0741056
-0.0563482
-0.0404941
-0.0264617
-0.0151141
-0.270818
-0.274688
-0.275635
-0.274857
-0.272512
-0.267939
-0.260519
-0.249889
-0.236012
-0.219172
-0.199922
-0.178986
-0.157165
-0.135243
-0.113913
-0.0937407
-0.0751441
-0.0583436
-0.0432749
-0.0307917
-0.290897
-0.293753
-0.294328
-0.293604
-0.291621
-0.287661
-0.281003
-0.271166
-0.258001
-0.241706
-0.222777
-0.201917
-0.179927
-0.157614
-0.135704
-0.114794
-0.0953318
-0.0775683
-0.0614642
-0.0478524
-0.312065
-0.313874
-0.314028
-0.313312
-0.311656
-0.308287
-0.302382
-0.293337
-0.280885
-0.265132
-0.246515
-0.225714
-0.203539
-0.180819
-0.158316
-0.136666
-0.116349
-0.0976462
-0.0805517
-0.0658663
-0.333892
-0.334651
-0.334343
-0.33358
-0.332196
-0.32937
-0.324179
-0.315892
-0.30412
-0.288877
-0.270541
-0.249773
-0.227391
-0.204257
-0.18117
-0.158803
-0.137672
-0.118091
-0.100087
-0.0844215
-0.356022
-0.355753
-0.35495
-0.35408
-0.3529
-0.350548
-0.346002
-0.338404
-0.327247
-0.31245
-0.29434
-0.273563
-0.250952
-0.227402
-0.203753
-0.180717
-0.158841
-0.138469
-0.119665
-0.103141
-0.378181
-0.376925
-0.375603
-0.37457
-0.373519
-0.371552
-0.367555
-0.360547
-0.349903
-0.335458
-0.317494
-0.296649
-0.27378
-0.249816
-0.22564
-0.201999
-0.179468
-0.158417
-0.138938
-0.121696
-0.40018
-0.397997
-0.396143
-0.394893
-0.393892
-0.39221
-0.388644
-0.382095
-0.371831
-0.357611
-0.339686
-0.318698
-0.295533
-0.27116
-0.246499
-0.22233
-0.199248
-0.17764
-0.157624
-0.13981
-0.421919
-0.418874
-0.416486
-0.414975
-0.413946
-0.412439
-0.409166
-0.402917
-0.392867
-0.378716
-0.360699
-0.339476
-0.31597
-0.29119
-0.266091
-0.241476
-0.217953
-0.195915
-0.175499
-0.157257
-0.443372
-0.439534
-0.436619
-0.434811
-0.43368
-0.432233
-0.429097
-0.422964
-0.412932
-0.398666
-0.380404
-0.35884
-0.334941
-0.309756
-0.284266
-0.259287
-0.235429
-0.213082
-0.192391
-0.173855
-0.464574
-0.460009
-0.45658
-0.454451
-0.45315
-0.45164
-0.448469
-0.442245
-0.432011
-0.417422
-0.398747
-0.376726
-0.352377
-0.326785
-0.300948
-0.275683
-0.251588
-0.229042
-0.208189
-0.189469
-0.485608
-0.480373
-0.476452
-0.473984
-0.472446
-0.470745
-0.467351
-0.460807
-0.450129
-0.434996
-0.415726
-0.393129
-0.36827
-0.342265
-0.316117
-0.290632
-0.266387
-0.243742
-0.222827
-0.20401
-0.506584
-0.500726
-0.496337
-0.493518
-0.491673
-0.489643
-0.485824
-0.478714
-0.467338
-0.451427
-0.431384
-0.408089
-0.382661
-0.356231
-0.329795
-0.30413
-0.279788
-0.257104
-0.236185
-0.217355
-0.527625
-0.521181
-0.516344
-0.513161
-0.510937
-0.508428
-0.503966
-0.496031
-0.483693
-0.466776
-0.445786
-0.421685
-0.395634
-0.368768
-0.342051
-0.316219
-0.291776
-0.269005
-0.247981
-0.229208
-0.54885
-0.541843
-0.536578
-0.533015
-0.530326
-0.527174
-0.521835
-0.512806
-0.499247
-0.481107
-0.459014
-0.434014
-0.407301
-0.379994
-0.353014
-0.327032
-0.302479
-0.279529
-0.258222
-0.239514
-0.570364
-0.562806
-0.557127
-0.553156
-0.549903
-0.545924
-0.539463
-0.529072
-0.514042
-0.494482
-0.471153
-0.445184
-0.417783
-0.390042
-0.362821
-0.336727
-0.312122
-0.289143
-0.268017
-0.249614
-0.592244
-0.58414
-0.578052
-0.573632
-0.569695
-0.56469
-0.556852
-0.544835
-0.528104
-0.506955
-0.482289
-0.455301
-0.427203
-0.399034
-0.371587
-0.345394
-0.320759
-0.297812
-0.276807
-0.258122
-0.614539
-0.605887
-0.599385
-0.594458
-0.589695
-0.583445
-0.573972
-0.560078
-0.541445
-0.518572
-0.492497
-0.464468
-0.435674
-0.407091
-0.379429
-0.35314
-0.328464
-0.305482
-0.28437
-0.26525
-0.637259
-0.628054
-0.621122
-0.615609
-0.609858
-0.602132
-0.590766
-0.574767
-0.554064
-0.529368
-0.501845
-0.472772
-0.443297
-0.414318
-0.386453
-0.360076
-0.335361
-0.312344
-0.291151
-0.271798
-0.660379
-0.650613
-0.643224
-0.637027
-0.630103
-0.620657
-0.607152
-0.588845
-0.565941
-0.539364
-0.510384
-0.480284
-0.450154
-0.4208
-0.392747
-0.366287
-0.341536
-0.318488
-0.297229
-0.277693
-0.683833
-0.673501
-0.665616
-0.658616
-0.650314
-0.638902
-0.623028
-0.602244
-0.577048
-0.548564
-0.518144
-0.487052
-0.456299
-0.426593
-0.398366
-0.371835
-0.347056
-0.323994
-0.302701
-0.283055
-0.707521
-0.69662
-0.688188
-0.680243
-0.670346
-0.656723
-0.638271
-0.614878
-0.587338
-0.556957
-0.525135
-0.493095
-0.461757
-0.431725
-0.403338
-0.376742
-0.351944
-0.328878
-0.307565
-0.287838
-0.731304
-0.719834
-0.710794
-0.701746
-0.690024
-0.673956
-0.652747
-0.626651
-0.596754
-0.564511
-0.531344
-0.498411
-0.466528
-0.436194
-0.407661
-0.381007
-0.356197
-0.333137
-0.311817
-0.292042
-0.75501
-0.742977
-0.733255
-0.722929
-0.709149
-0.690417
-0.666307
-0.637457
-0.605223
-0.571179
-0.536738
-0.50297
-0.470584
-0.439973
-0.411307
-0.384603
-0.359786
-0.33674
-0.315423
-0.295623
-0.778435
-0.765848
-0.755361
-0.743571
-0.727503
-0.705913
-0.678795
-0.647176
-0.612659
-0.576897
-0.54126
-0.506723
-0.473876
-0.443015
-0.41423
-0.387484
-0.362668
-0.339645
-0.318341
-0.298542
-0.801348
-0.788221
-0.776875
-0.763426
-0.74485
-0.720239
-0.690047
-0.655687
-0.618968
-0.581585
-0.544843
-0.509603
-0.476341
-0.445257
-0.41637
-0.389594
-0.364789
-0.341799
-0.320521
-0.300746
-0.823491
-0.809839
-0.797533
-0.782229
-0.760945
-0.733186
-0.699898
-0.662859
-0.624045
-0.585155
-0.547404
-0.511533
-0.477905
-0.446629
-0.41766
-0.390869
-0.366088
-0.343145
-0.321907
-0.302182
-0.844583
-0.830426
-0.817052
-0.799702
-0.775533
-0.744542
-0.708182
-0.668562
-0.627783
-0.587512
-0.548857
-0.512431
-0.478489
-0.447057
-0.41803
-0.391243
-0.366504
-0.343625
-0.322444
-0.302798
-0.864328
-0.849687
-0.835136
-0.815559
-0.788363
-0.754101
-0.714734
-0.672666
-0.630074
-0.58856
-0.54911
-0.51221
-0.478012
-0.446464
-0.417411
-0.390652
-0.365977
-0.343182
-0.322079
-0.302541
-0.882418
-0.867314
-0.851477
-0.829511
-0.799186
-0.761664
-0.719401
-0.675047
-0.630811
-0.588203
-0.548074
-0.510788
-0.476396
-0.444779
-0.415735
-0.389035
-0.364452
-0.341764
-0.320763
-0.301363
-0.898538
-0.882995
-0.865767
-0.841274
-0.807763
-0.767043
-0.722034
-0.675585
-0.629891
-0.586346
-0.545663
-0.508083
-0.473567
-0.441934
-0.412941
-0.386336
-0.361876
-0.339325
-0.318451
-0.299223
-0.912373
-0.896412
-0.877698
-0.850574
-0.813871
-0.770063
-0.7225
-0.67417
-0.627218
-0.582903
-0.541795
-0.504019
-0.469455
-0.437866
-0.408974
-0.382505
-0.358204
-0.335821
-0.315105
-0.296084
-0.923611
-0.907258
-0.886977
-0.857156
-0.817304
-0.770568
-0.720676
-0.670702
-0.622703
-0.577791
-0.536394
-0.498528
-0.463998
-0.432518
-0.403782
-0.377496
-0.353397
-0.331217
-0.310691
-0.291916
-0.931953
-0.915234
-0.893323
-0.860781
-0.817878
-0.76842
-0.716454
-0.66509
-0.616266
-0.570937
-0.529392
-0.491546
-0.457138
-0.42584
-0.39732
-0.371271
-0.347418
-0.325481
-0.305181
-0.286693
-0.937116
-0.920061
-0.89648
-0.861239
-0.815434
-0.763499
-0.709743
-0.657256
-0.607836
-0.562272
-0.520725
-0.483015
-0.448822
-0.417784
-0.389547
-0.363793
-0.340238
-0.318587
-0.298552
-0.280396
-0.93884
-0.921481
-0.896219
-0.858346
-0.809836
-0.755709
-0.700464
-0.647133
-0.597349
-0.551739
-0.510337
-0.472884
-0.439006
-0.408311
-0.380429
-0.355031
-0.331828
-0.31051
-0.290785
-0.273008
-0.936886
-0.919263
-0.892337
-0.851949
-0.800978
-0.744972
-0.688559
-0.634667
-0.584753
-0.539286
-0.498182
-0.461108
-0.427648
-0.397384
-0.369934
-0.34496
-0.322169
-0.301235
-0.281868
-0.264521
-0.931051
-0.913211
-0.884669
-0.84193
-0.78878
-0.731234
-0.673983
-0.619817
-0.57001
-0.524874
-0.484221
-0.447653
-0.414718
-0.384978
-0.358039
-0.333562
-0.311245
-0.290751
-0.271793
-0.254933
-0.921168
-0.903164
-0.873087
-0.828202
-0.773192
-0.714463
-0.656709
-0.602556
-0.553088
-0.508473
-0.468426
-0.432493
-0.400193
-0.371072
-0.34473
-0.320824
-0.299049
-0.279054
-0.260563
-0.244249
-0.907103
-0.889
-0.857501
-0.810714
-0.75419
-0.694648
-0.63673
-0.582873
-0.533975
-0.490067
-0.45078
-0.415612
-0.38406
-0.355658
-0.33
-0.306746
-0.285584
-0.266152
-0.248191
-0.232485
-0.888768
-0.870638
-0.837861
-0.789453
-0.731783
-0.671804
-0.614057
-0.560774
-0.512671
-0.469654
-0.431279
-0.397009
-0.366319
-0.338737
-0.313857
-0.291336
-0.270862
-0.252062
-0.234697
-0.219665
-0.866115
-0.848039
-0.814159
-0.764439
-0.706005
-0.645968
-0.58872
-0.536281
-0.489193
-0.447247
-0.409937
-0.376695
-0.346983
-0.320325
-0.296315
-0.274615
-0.254908
-0.236811
-0.220115
-0.205823
-0.839142
-0.821212
-0.786427
-0.735727
-0.676923
-0.6172
-0.560771
-0.509437
-0.463575
-0.422874
-0.386778
-0.354695
-0.326077
-0.300449
-0.277406
-0.256614
-0.237756
-0.220439
-0.204486
-0.191001
-0.807891
-0.790208
-0.75474
-0.703411
-0.644629
-0.585586
-0.530283
-0.480303
-0.435868
-0.396582
-0.361845
-0.331048
-0.30364
-0.279147
-0.25717
-0.237377
-0.219451
-0.202994
-0.187865
-0.175253
-0.772452
-0.755123
-0.719213
-0.667614
-0.609245
-0.551236
-0.49735
-0.448959
-0.406143
-0.368432
-0.335194
-0.305808
-0.279724
-0.256471
-0.235657
-0.216956
-0.200049
-0.184536
-0.170312
-0.158639
-0.73296
-0.716099
-0.680001
-0.628498
-0.570923
-0.514283
-0.462088
-0.415505
-0.374488
-0.338503
-0.306896
-0.27904
-0.25439
-0.232481
-0.212927
-0.195411
-0.179612
-0.16513
-0.151898
-0.14123
-0.689593
-0.673318
-0.637297
-0.586252
-0.529839
-0.474884
-0.424635
-0.380061
-0.341007
-0.306889
-0.277035
-0.250823
-0.227711
-0.207244
-0.189047
-0.172808
-0.158207
-0.14485
-0.132702
-0.123108
-0.642574
-0.627006
-0.59133
-0.5411
-0.486197
-0.43322
-0.385147
-0.342766
-0.305823
-0.273697
-0.245709
-0.221242
-0.199765
-0.180835
-0.164086
-0.149215
-0.135906
-0.123772
-0.112808
-0.104359
-0.592167
-0.577427
-0.542364
-0.493294
-0.440226
-0.389494
-0.343806
-0.303779
-0.269078
-0.239053
-0.213027
-0.190393
-0.170636
-0.153325
-0.13811
-0.124695
-0.112771
-0.101966
-0.0922931
-0.085052
-0.538675
-0.524882
-0.490695
-0.44311
-0.392179
-0.343931
-0.30081
-0.263277
-0.230928
-0.203096
-0.179109
-0.15838
-0.140409
-0.124786
-0.111175
-0.0992926
-0.0888414
-0.0794698
-0.0711952
-0.065215
-0.482434
-0.469703
-0.436647
-0.390852
-0.34233
-0.296779
-0.256382
-0.221459
-0.191551
-0.165982
-0.144094
-0.125319
-0.109181
-0.0952913
-0.0833336
-0.0730404
-0.0641309
-0.0562853
-0.0495175
-0.0448795
-0.423814
-0.412255
-0.380569
-0.336847
-0.290976
-0.248303
-0.210762
-0.178543
-0.151143
-0.127886
-0.108134
-0.0913413
-0.0770613
-0.0649322
-0.0546623
-0.0460008
-0.0386913
-0.0324748
-0.0273922
-0.0243076
-0.36321
-0.352923
-0.322833
-0.281438
-0.23843
-0.19879
-0.164209
-0.134765
-0.109919
-0.0890002
-0.0713927
-0.056581
-0.0441514
-0.0337803
-0.0252108
-0.0182165
-0.0125904
-0.00821709
-0.00523522
-0.0041112
-0.301039
-0.292115
-0.263828
-0.224986
-0.185022
-0.148543
-0.117005
-0.0903856
-0.0681177
-0.0495391
-0.0340548
-0.0211765
-0.0105244
-0.00181646
0.00516315
0.010603
0.0145938
0.0169266
0.0172653
0.0160553
-0.237737
-0.230257
-0.203956
-0.167863
-0.131096
-0.0978785
-0.0694471
-0.0456875
-0.0260119
-0.0097652
0.00363169
0.0146506
0.0236559
0.0309163
0.0366501
0.0410548
0.0440891
0.0450758
0.043504
0.0412071
-0.173751
-0.167782
-0.143626
-0.110448
-0.0770005
-0.0471217
-0.0218425
-0.000968838
0.0161025
0.0300166
0.0413383
0.0505294
0.0579549
0.0639072
0.0686737
0.0725619
0.0755495
0.0766628
0.0756993
0.0807241
-0.109528
-0.105126
-0.0832515
-0.0531225
-0.0230861
0.00340048
0.0254994
0.0434725
0.0579312
0.0695058
0.078741
0.0860805
0.0918777
0.0964274
0.100025
0.102954
0.105181
0.106175
0.106833
0.11349
-0.0455214
-0.0427282
-0.0232445
0.00373446
0.0302986
0.0533651
0.0722747
0.0873467
0.0991943
0.108429
0.115575
0.121054
0.125207
0.12832
0.130669
0.132487
0.133728
0.134041
0.134385
0.139777
0.0178168
0.0189748
0.0359877
0.0597499
0.0828125
0.102457
0.11819
0.130375
0.139624
0.146524
0.151572
0.15517
0.157637
0.159242
0.160237
0.160828
0.160982
0.160429
0.159999
0.163773
0.0800438
0.0795554
0.0940468
0.11456
0.134125
0.150374
0.162964
0.172298
0.178976
0.183563
0.186527
0.188242
0.189005
0.189061
0.188636
0.187903
0.18682
0.185158
0.183702
0.185966
0.140727
0.138597
0.150546
0.167814
0.183916
0.196824
0.20633
0.212868
0.217025
0.219338
0.220245
0.220096
0.219161
0.217664
0.215804
0.213727
0.211379
0.20856
0.206027
0.206831
0.199448
0.195696
0.205111
0.219172
0.231881
0.24153
0.248036
0.251856
0.25356
0.253657
0.252558
0.250582
0.247979
0.244948
0.241664
0.23825
0.234642
0.230675
0.227074
0.226491
0.255804
0.250466
0.257387
0.268313
0.277728
0.284229
0.287843
0.289044
0.288384
0.286344
0.283306
0.279565
0.275345
0.270825
0.26616
0.261448
0.256624
0.251553
0.246919
0.245011
0.309412
0.302539
0.307034
0.314931
0.321184
0.324673
0.325525
0.324227
0.321312
0.317232
0.312343
0.306913
0.301146
0.295202
0.289213
0.283262
0.277283
0.271168
0.265549
0.262382
0.359909
0.351569
0.353733
0.358737
0.361987
0.362626
0.360869
0.357212
0.352168
0.346163
0.339525
0.3325
0.325273
0.317983
0.310746
0.303628
0.296567
0.289478
0.282927
0.27857
0.406955
0.397229
0.397185
0.399463
0.399895
0.397869
0.393677
0.387819
0.380789
0.372987
0.364718
0.356206
0.347616
0.339071
0.330671
0.322469
0.314408
0.306418
0.298997
0.293524
0.450237
0.43922
0.437114
0.436858
0.434685
0.4302
0.423763
0.415879
0.40702
0.397565
0.387795
0.377914
0.36807
0.358372
0.348903
0.339707
0.330731
0.32192
0.313694
0.307186
0.489464
0.477265
0.473266
0.470695
0.466149
0.45943
0.450957
0.441235
0.43072
0.419766
0.408635
0.397513
0.386534
0.375792
0.365357
0.355262
0.345463
0.335912
0.326953
0.319498
0.524376
0.511115
0.505414
0.500768
0.494102
0.485392
0.475105
0.463747
0.451757
0.439469
0.427128
0.414903
0.402914
0.391244
0.37995
0.369058
0.358531
0.348324
0.338709
0.330405
0.554743
0.54055
0.533355
0.526893
0.518378
0.507933
0.496068
0.483288
0.470015
0.456568
0.443174
0.429991
0.417124
0.404647
0.392608
0.381025
0.369866
0.359093
0.348903
0.339854
0.580361
0.565377
0.556913
0.548912
0.538833
0.526923
0.513727
0.499746
0.485391
0.470967
0.456686
0.442694
0.429088
0.415932
0.403264
0.391099
0.37941
0.368159
0.357482
0.3478
0.601063
0.585436
0.57594
0.566691
0.555346
0.542251
0.527979
0.513028
0.4978
0.482585
0.467588
0.452943
0.438741
0.425036
0.411861
0.399227
0.38711
0.375474
0.364401
0.354204
0.616711
0.600596
0.590316
0.580121
0.567818
0.553828
0.538742
0.523058
0.50717
0.491358
0.475819
0.460682
0.446029
0.431909
0.418351
0.405363
0.392924
0.380997
0.369623
0.359035
0.627202
0.610759
0.599952
0.589121
0.576175
0.561584
0.545953
0.529778
0.513447
0.497236
0.481334
0.465866
0.450911
0.436514
0.422699
0.409473
0.396819
0.384697
0.37312
0.362269
0.632467
0.615859
0.604787
0.593637
0.580368
0.565476
0.549571
0.53315
0.516596
0.500185
0.484101
0.468467
0.45336
0.438823
0.42488
0.411535
0.398772
0.386553
0.374875
0.363891
0.632471
0.615863
0.604791
0.593641
0.580372
0.565479
0.549574
0.533153
0.516599
0.500187
0.484103
0.46847
0.453362
0.438826
0.424882
0.411537
0.398775
0.386555
0.374877
0.363893
0.627214
0.610771
0.599964
0.589132
0.576186
0.561594
0.545962
0.529787
0.513456
0.497244
0.481342
0.465874
0.450918
0.436521
0.422706
0.40948
0.396825
0.384703
0.373127
0.362275
0.616731
0.600616
0.590335
0.580139
0.567835
0.553844
0.538757
0.523073
0.507184
0.491372
0.475833
0.460695
0.446041
0.431921
0.418363
0.405374
0.392935
0.381008
0.369633
0.359045
0.60109
0.585463
0.575966
0.566716
0.55537
0.542274
0.528001
0.513049
0.49782
0.482605
0.467607
0.452961
0.438758
0.425053
0.411877
0.399242
0.387126
0.375489
0.364415
0.354218
0.580396
0.565412
0.556946
0.548944
0.538864
0.526953
0.513755
0.499773
0.485417
0.470992
0.45671
0.442717
0.429111
0.415954
0.403285
0.39112
0.37943
0.368178
0.3575
0.347817
0.554786
0.540592
0.533396
0.526932
0.518416
0.507969
0.496103
0.483321
0.470047
0.456599
0.443203
0.430019
0.417152
0.404674
0.392633
0.38105
0.369891
0.359116
0.348925
0.339876
0.524428
0.511165
0.505463
0.500814
0.494147
0.485434
0.475146
0.463787
0.451795
0.439506
0.427163
0.414937
0.402947
0.391275
0.37998
0.369088
0.358559
0.348352
0.338735
0.330431
0.489523
0.477323
0.473323
0.470749
0.466201
0.459479
0.451005
0.441281
0.430763
0.419808
0.408675
0.397552
0.386572
0.375828
0.365392
0.355296
0.345496
0.335944
0.326984
0.319528
0.450304
0.439286
0.437178
0.436919
0.434743
0.430256
0.423817
0.41593
0.40707
0.397613
0.387841
0.377958
0.368113
0.358413
0.348943
0.339745
0.330769
0.321956
0.313729
0.30722
0.407031
0.397303
0.397257
0.399531
0.399961
0.397932
0.393737
0.387877
0.380845
0.373041
0.36477
0.356256
0.347664
0.339117
0.330716
0.322512
0.314449
0.306459
0.299036
0.293562
0.359992
0.351651
0.353813
0.358813
0.362059
0.362695
0.360935
0.357276
0.35223
0.346222
0.339582
0.332555
0.325326
0.318034
0.310795
0.303675
0.296613
0.289522
0.282971
0.278612
0.309504
0.30263
0.307121
0.315014
0.321263
0.324749
0.325598
0.324297
0.321379
0.317297
0.312405
0.306973
0.301204
0.295258
0.289268
0.283314
0.277334
0.271217
0.265597
0.262428
0.255904
0.250564
0.257482
0.268404
0.277815
0.284312
0.287922
0.28912
0.288457
0.286415
0.283374
0.27963
0.275408
0.270886
0.266219
0.261505
0.256679
0.251606
0.246971
0.245061
0.199557
0.195802
0.205214
0.219271
0.231974
0.24162
0.248122
0.251939
0.253639
0.253733
0.252631
0.250653
0.248047
0.245014
0.241728
0.238312
0.234702
0.230733
0.227131
0.226546
0.140844
0.138712
0.150656
0.167919
0.184017
0.19692
0.206422
0.212957
0.21711
0.21942
0.220324
0.220172
0.219235
0.217735
0.215872
0.213793
0.211443
0.208623
0.206087
0.20689
0.0801695
0.0796786
0.0941654
0.114674
0.134233
0.150477
0.163062
0.172393
0.179068
0.183651
0.186611
0.188323
0.189084
0.189137
0.188709
0.187974
0.186889
0.185224
0.183767
0.186029
0.0179511
0.0191064
0.0361143
0.0598708
0.0829278
0.102568
0.118295
0.130477
0.139721
0.146617
0.151663
0.155257
0.157721
0.159323
0.160315
0.160904
0.161056
0.1605
0.160069
0.16384
-0.0453784
-0.0425881
-0.0231099
0.00386298
0.0304212
0.0534822
0.0723868
0.0874544
0.0992978
0.108529
0.115671
0.121147
0.125297
0.128406
0.130752
0.132568
0.133807
0.134117
0.13446
0.139849
-0.109376
-0.104977
-0.0831087
-0.0529862
-0.0229561
0.00352459
0.0256182
0.0435865
0.0580409
0.0696115
0.0788429
0.0861788
0.0919726
0.0965191
0.100114
0.103039
0.105264
0.106256
0.106912
0.113567
-0.173591
-0.167625
-0.143475
-0.110304
-0.076863
-0.0469905
-0.0217169
-0.000848313
0.0162184
0.0301283
0.0414461
0.0506334
0.0580552
0.0640043
0.0687677
0.0726529
0.0756379
0.076749
0.0757841
0.0808067
-0.237567
-0.230091
-0.203796
-0.16771
-0.130951
-0.0977402
-0.0693147
-0.0455605
-0.0258897
-0.00964746
0.00374522
0.0147602
0.0237617
0.0310187
0.0367494
0.0411512
0.044183
0.0451676
0.0435943
0.0412969
-0.300861
-0.291941
-0.26366
-0.224825
-0.18487
-0.148398
-0.116866
-0.0902521
-0.0679893
-0.0494154
-0.0339354
-0.0210614
-0.0104131
-0.0017087
0.00526774
0.0107048
0.014693
0.0170236
0.0173607
0.0161499
-0.363023
-0.35274
-0.322657
-0.28127
-0.238269
-0.198638
-0.164063
-0.134625
-0.109784
-0.0888705
-0.0712676
-0.0564603
-0.0440348
-0.0336673
-0.0251011
-0.0181099
-0.0124864
-0.00811553
-0.00513554
-0.00401271
-0.423619
-0.412063
-0.380385
-0.336671
-0.290808
-0.248143
-0.210609
-0.178396
-0.151002
-0.127751
-0.108003
-0.0912151
-0.0769393
-0.0648142
-0.0545477
-0.0458895
-0.0385828
-0.0323689
-0.0272885
-0.0242054
-0.482231
-0.469504
-0.436454
-0.390668
-0.342154
-0.296611
-0.256222
-0.221306
-0.191404
-0.16584
-0.143958
-0.125187
-0.109054
-0.0951683
-0.0832143
-0.0729244
-0.0640181
-0.0561753
-0.0494098
-0.0447735
-0.538463
-0.524674
-0.490494
-0.442918
-0.391996
-0.343756
-0.300644
-0.263118
-0.230775
-0.202948
-0.178968
-0.158243
-0.140277
-0.124658
-0.111051
-0.0991722
-0.0887243
-0.0793556
-0.0710836
-0.0651054
-0.591947
-0.577211
-0.542155
-0.493093
-0.440036
-0.389312
-0.343632
-0.303613
-0.268919
-0.2389
-0.21288
-0.190251
-0.170499
-0.153193
-0.137981
-0.12457
-0.11265
-0.101848
-0.0921778
-0.0849388
-0.642346
-0.626782
-0.591113
-0.540893
-0.485999
-0.433031
-0.384967
-0.342594
-0.305658
-0.273539
-0.245557
-0.221095
-0.199623
-0.180698
-0.163953
-0.149086
-0.135781
-0.12365
-0.112689
-0.104242
-0.689357
-0.673086
-0.637072
-0.586036
-0.529633
-0.474688
-0.424447
-0.379882
-0.340836
-0.306725
-0.276877
-0.250671
-0.227564
-0.207103
-0.18891
-0.172675
-0.158078
-0.144725
-0.13258
-0.122988
-0.732716
-0.715859
-0.679768
-0.628274
-0.570709
-0.514079
-0.461894
-0.41532
-0.374311
-0.338334
-0.306733
-0.278884
-0.254239
-0.232335
-0.212786
-0.195274
-0.179479
-0.165001
-0.151772
-0.141107
-0.772201
-0.754876
-0.718972
-0.667382
-0.609023
-0.551025
-0.497149
-0.448767
-0.405961
-0.368258
-0.335026
-0.305647
-0.279569
-0.256322
-0.235512
-0.216816
-0.199913
-0.184403
-0.170183
-0.158513
-0.807631
-0.789953
-0.754491
-0.70317
-0.644398
-0.585367
-0.530075
-0.480105
-0.43568
-0.396402
-0.361673
-0.330882
-0.303481
-0.278994
-0.257021
-0.237234
-0.219312
-0.202858
-0.187733
-0.175124
-0.838874
-0.820949
-0.786169
-0.735478
-0.676684
-0.616973
-0.560556
-0.509233
-0.463381
-0.422689
-0.386602
-0.354525
-0.325914
-0.300292
-0.277255
-0.256468
-0.237613
-0.2203
-0.204352
-0.19087
-0.86584
-0.847768
-0.813893
-0.764181
-0.705758
-0.645733
-0.588497
-0.536071
-0.488994
-0.447057
-0.409756
-0.376522
-0.346816
-0.320165
-0.296161
-0.274465
-0.254763
-0.23667
-0.219977
-0.205689
-0.888485
-0.870358
-0.837587
-0.789186
-0.731527
-0.671561
-0.613827
-0.560558
-0.512467
-0.46946
-0.431095
-0.396833
-0.366149
-0.338574
-0.313699
-0.291184
-0.270715
-0.251918
-0.234558
-0.219529
-0.906812
-0.888712
-0.857218
-0.810439
-0.753926
-0.694397
-0.636494
-0.582651
-0.533766
-0.489869
-0.450592
-0.415433
-0.383888
-0.355492
-0.329841
-0.306591
-0.285435
-0.266007
-0.248049
-0.232348
-0.920869
-0.902869
-0.872796
-0.827917
-0.772918
-0.714203
-0.656466
-0.602328
-0.552874
-0.508271
-0.468235
-0.432311
-0.400018
-0.370905
-0.344569
-0.320668
-0.298898
-0.278907
-0.26042
-0.24411
-0.930745
-0.912908
-0.884369
-0.841636
-0.788498
-0.730966
-0.673732
-0.619583
-0.569791
-0.524668
-0.484027
-0.447469
-0.414542
-0.384809
-0.357876
-0.333405
-0.311093
-0.290603
-0.271649
-0.254793
-0.936572
-0.918952
-0.892028
-0.851647
-0.800686
-0.744696
-0.688301
-0.634427
-0.58453
-0.539077
-0.497985
-0.460922
-0.42747
-0.397214
-0.36977
-0.344802
-0.322016
-0.301087
-0.281723
-0.264381
-0.938518
-0.921162
-0.895902
-0.858034
-0.809535
-0.755424
-0.700199
-0.646887
-0.59712
-0.551526
-0.510137
-0.472695
-0.438826
-0.408139
-0.380264
-0.354873
-0.331675
-0.310362
-0.290641
-0.272868
-0.936788
-0.919734
-0.896155
-0.860918
-0.815123
-0.763206
-0.709469
-0.657003
-0.607602
-0.562056
-0.520522
-0.482825
-0.448642
-0.417612
-0.389383
-0.363635
-0.340085
-0.318438
-0.298409
-0.280256
-0.931618
-0.9149
-0.89299
-0.860451
-0.817559
-0.768117
-0.716172
-0.66483
-0.616028
-0.570716
-0.529187
-0.491354
-0.456957
-0.425668
-0.397156
-0.371113
-0.347266
-0.325334
-0.305038
-0.286554
-0.923269
-0.906917
-0.886636
-0.856818
-0.816976
-0.770257
-0.720386
-0.670436
-0.62246
-0.577567
-0.536187
-0.498336
-0.463817
-0.432347
-0.403618
-0.377339
-0.353245
-0.331071
-0.310549
-0.291778
-0.912025
-0.896065
-0.87735
-0.850228
-0.813534
-0.769743
-0.722203
-0.673898
-0.626969
-0.582676
-0.541586
-0.503826
-0.469274
-0.437695
-0.408811
-0.382349
-0.358054
-0.335676
-0.314965
-0.295949
-0.898184
-0.882642
-0.865412
-0.84092
-0.807418
-0.766714
-0.721729
-0.675306
-0.629637
-0.586116
-0.545452
-0.507888
-0.473386
-0.441764
-0.41278
-0.386182
-0.361728
-0.339182
-0.318314
-0.29909
-0.882059
-0.866956
-0.851118
-0.829151
-0.798833
-0.761328
-0.719088
-0.674761
-0.630552
-0.587969
-0.547862
-0.510594
-0.476216
-0.444611
-0.415576
-0.388883
-0.364306
-0.341625
-0.320628
-0.301233
-0.863963
-0.849323
-0.834771
-0.815193
-0.788003
-0.753757
-0.714413
-0.672374
-0.629811
-0.588324
-0.548897
-0.512016
-0.477834
-0.446298
-0.417254
-0.390503
-0.365835
-0.343046
-0.321948
-0.302413
-0.844213
-0.830058
-0.816683
-0.799331
-0.775167
-0.744189
-0.707852
-0.668262
-0.627514
-0.587273
-0.548642
-0.512237
-0.478312
-0.446893
-0.417877
-0.391098
-0.366366
-0.343492
-0.322317
-0.302674
-0.823117
-0.809467
-0.797159
-0.781854
-0.760572
-0.732826
-0.699561
-0.662552
-0.623771
-0.584912
-0.547189
-0.511341
-0.477731
-0.446469
-0.417511
-0.390728
-0.365954
-0.343017
-0.321783
-0.302062
-0.800971
-0.787846
-0.776498
-0.763046
-0.744472
-0.719872
-0.689702
-0.655372
-0.618687
-0.581338
-0.544627
-0.509411
-0.476169
-0.445101
-0.416225
-0.389458
-0.36466
-0.341676
-0.320402
-0.30063
-0.778056
-0.765471
-0.754982
-0.743188
-0.72712
-0.705539
-0.678442
-0.646854
-0.612373
-0.576647
-0.541043
-0.506533
-0.473708
-0.442863
-0.41409
-0.387354
-0.362545
-0.339527
-0.318227
-0.29843
-0.754628
-0.742597
-0.732874
-0.722544
-0.708762
-0.690038
-0.665946
-0.637127
-0.604931
-0.570926
-0.53652
-0.502782
-0.470419
-0.439827
-0.411174
-0.38448
-0.359669
-0.336628
-0.315314
-0.295516
-0.730921
-0.719453
-0.710412
-0.701359
-0.689634
-0.673571
-0.65238
-0.626314
-0.596456
-0.564254
-0.531126
-0.498226
-0.466368
-0.436054
-0.407536
-0.380892
-0.356088
-0.333032
-0.311714
-0.29194
-0.707138
-0.696239
-0.687806
-0.679856
-0.669954
-0.656335
-0.637898
-0.614534
-0.587034
-0.556695
-0.524915
-0.492912
-0.461603
-0.431592
-0.403221
-0.376635
-0.351844
-0.328781
-0.307468
-0.287742
-0.683451
-0.673122
-0.665235
-0.658229
-0.649922
-0.638511
-0.62265
-0.601894
-0.576738
-0.548299
-0.517923
-0.486871
-0.45615
-0.426468
-0.398258
-0.371737
-0.346965
-0.323905
-0.302611
-0.282963
-0.659999
-0.650235
-0.642844
-0.636642
-0.629712
-0.620265
-0.606772
-0.588491
-0.565626
-0.539095
-0.510162
-0.480106
-0.450011
-0.420683
-0.392648
-0.3662
-0.341454
-0.318407
-0.297146
-0.277607
-0.636883
-0.627679
-0.620745
-0.615227
-0.609469
-0.60174
-0.590383
-0.574408
-0.553744
-0.529096
-0.501623
-0.472596
-0.44316
-0.414209
-0.386365
-0.359999
-0.335289
-0.312272
-0.291076
-0.271718
-0.614167
-0.605517
-0.599012
-0.594079
-0.58931
-0.583056
-0.573589
-0.559718
-0.541122
-0.518297
-0.492274
-0.464294
-0.435541
-0.406991
-0.37935
-0.353074
-0.328403
-0.305421
-0.284304
-0.265176
-0.591878
-0.583775
-0.577685
-0.573259
-0.569314
-0.564304
-0.556471
-0.544474
-0.527778
-0.506677
-0.482065
-0.455129
-0.427075
-0.398942
-0.371518
-0.345339
-0.320709
-0.297761
-0.276751
-0.258057
-0.570004
-0.562447
-0.556766
-0.55279
-0.549529
-0.545545
-0.539087
-0.528713
-0.513716
-0.494203
-0.470929
-0.445013
-0.41766
-0.389956
-0.362761
-0.336682
-0.312083
-0.289103
-0.267972
-0.249559
-0.548499
-0.541492
-0.536225
-0.532656
-0.52996
-0.526802
-0.521465
-0.512451
-0.498923
-0.480828
-0.458789
-0.433845
-0.407181
-0.379914
-0.352962
-0.326997
-0.302451
-0.279502
-0.25819
-0.239477
-0.527283
-0.520839
-0.516
-0.512812
-0.510581
-0.508067
-0.503605
-0.495682
-0.483373
-0.4665
-0.445562
-0.421517
-0.395517
-0.368692
-0.342006
-0.316192
-0.291757
-0.268986
-0.247957
-0.229175
-0.506253
-0.500395
-0.496003
-0.493179
-0.491328
-0.489293
-0.485474
-0.478375
-0.467024
-0.451154
-0.431162
-0.407922
-0.382546
-0.356159
-0.329754
-0.304108
-0.279775
-0.257091
-0.236164
-0.217322
-0.485289
-0.480054
-0.47613
-0.473658
-0.472114
-0.470408
-0.467014
-0.46048
-0.449825
-0.434729
-0.415508
-0.392964
-0.368156
-0.342194
-0.316079
-0.290614
-0.266378
-0.243732
-0.222808
-0.203977
-0.464269
-0.459703
-0.456272
-0.454139
-0.452833
-0.451319
-0.448147
-0.441932
-0.431718
-0.417165
-0.398534
-0.376565
-0.352266
-0.326717
-0.300913
-0.275668
-0.251582
-0.229034
-0.208171
-0.189435
-0.443082
-0.439243
-0.436325
-0.434514
-0.433379
-0.431928
-0.428791
-0.422667
-0.412654
-0.398419
-0.3802
-0.358684
-0.334833
-0.30969
-0.284233
-0.259274
-0.235425
-0.213076
-0.192375
-0.173822
-0.421645
-0.4186
-0.41621
-0.414695
-0.413662
-0.412152
-0.408879
-0.402637
-0.392604
-0.378483
-0.360505
-0.339327
-0.315866
-0.291127
-0.26606
-0.241465
-0.217951
-0.195912
-0.175486
-0.157227
-0.399924
-0.39774
-0.395884
-0.394631
-0.393626
-0.391941
-0.388376
-0.381834
-0.371586
-0.357393
-0.339504
-0.318558
-0.295435
-0.2711
-0.24647
-0.222321
-0.199249
-0.177641
-0.157616
-0.139785
-0.377944
-0.376687
-0.375364
-0.374328
-0.373273
-0.371303
-0.367308
-0.360306
-0.349678
-0.335258
-0.317327
-0.29652
-0.27369
-0.249762
-0.225615
-0.201994
-0.179474
-0.158423
-0.138936
-0.121679
-0.355806
-0.355535
-0.35473
-0.353859
-0.352675
-0.35032
-0.345776
-0.338185
-0.327042
-0.312268
-0.294189
-0.273447
-0.250872
-0.227355
-0.203734
-0.180717
-0.158851
-0.138481
-0.11967
-0.103135
-0.333697
-0.334455
-0.334145
-0.33338
-0.331992
-0.329164
-0.323976
-0.315695
-0.303937