/*--------------------------------*- C++ -*----------------------------------*\
  =========                 |
  \\      /  F ield         | OpenFOAM: The Open Source CFD Toolbox
   \\    /   O peration     | Website:  https://openfoam.org
    \\  /    A nd           | Version:  6.0
     \\/     M anipulation  |
\*---------------------------------------------------------------------------*/
FoamFile
{
    version     2.0;
    format      ascii;
    class       volScalarField;
    location    "101";
    object      p;
}
// * * * * * * * * * * * * * * * * * * * * * * * * * * * * * * * * * * * * * //

dimensions      [0 2 -2 0 0 0 0];

internalField   nonuniform List<scalar> 
12500
(
-0.478851
-0.478465
-0.478089
-0.477662
-0.47729
-0.477116
-0.477235
-0.477698
-0.478516
-0.479681
-0.481166
-0.482942
-0.48498
-0.487251
-0.48973
-0.492396
-0.495229
-0.498209
-0.501321
-0.504542
-0.507845
-0.511206
-0.514686
-0.518362
-0.521369
-0.472102
-0.472164
-0.472044
-0.471774
-0.471512
-0.471403
-0.471544
-0.471983
-0.472731
-0.473775
-0.475091
-0.476648
-0.478419
-0.480379
-0.482507
-0.484785
-0.487199
-0.489735
-0.49238
-0.495119
-0.497929
-0.500792
-0.503763
-0.506903
-0.509468
-0.465054
-0.465584
-0.465727
-0.465615
-0.465461
-0.465414
-0.46557
-0.465975
-0.466639
-0.467546
-0.468672
-0.469989
-0.471469
-0.473091
-0.474837
-0.476695
-0.478653
-0.480705
-0.482842
-0.485053
-0.487323
-0.489638
-0.492045
-0.494591
-0.496673
-0.457807
-0.458817
-0.459228
-0.459274
-0.459228
-0.459238
-0.459401
-0.459763
-0.46033
-0.461086
-0.462005
-0.46306
-0.464225
-0.465482
-0.466817
-0.468221
-0.469689
-0.471217
-0.472803
-0.474443
-0.476125
-0.477842
-0.479632
-0.481531
-0.483088
-0.450472
-0.45197
-0.452649
-0.452853
-0.452911
-0.452975
-0.45314
-0.453449
-0.453907
-0.454497
-0.455191
-0.455964
-0.456792
-0.457659
-0.458553
-0.45947
-0.46041
-0.461374
-0.462366
-0.463386
-0.464433
-0.465502
-0.466624
-0.467825
-0.468813
-0.443175
-0.445159
-0.446103
-0.446463
-0.446623
-0.446736
-0.446894
-0.447142
-0.44748
-0.44789
-0.448344
-0.448816
-0.449284
-0.449733
-0.450156
-0.450551
-0.450924
-0.451282
-0.451634
-0.451988
-0.452348
-0.452719
-0.45312
-0.453574
-0.453947
-0.436052
-0.438509
-0.439711
-0.440222
-0.44048
-0.440636
-0.440783
-0.44096
-0.441168
-0.441385
-0.441584
-0.441737
-0.441823
-0.441828
-0.441749
-0.441587
-0.441352
-0.441057
-0.440719
-0.440353
-0.439973
-0.43959
-0.439216
-0.438872
-0.438581
-0.429242
-0.432151
-0.433597
-0.434253
-0.434603
-0.434799
-0.434927
-0.435027
-0.435096
-0.435111
-0.435041
-0.434859
-0.434543
-0.43408
-0.433466
-0.432709
-0.431822
-0.430825
-0.429741
-0.428596
-0.427415
-0.426216
-0.425006
-0.423813
-0.422806
-0.422887
-0.426212
-0.427887
-0.428678
-0.429115
-0.429345
-0.429451
-0.429469
-0.429394
-0.4292
-0.428853
-0.428324
-0.427588
-0.426633
-0.425455
-0.424064
-0.422478
-0.420723
-0.418831
-0.416841
-0.414788
-0.412701
-0.410588
-0.408487
-0.40671
-0.417123
-0.420817
-0.422698
-0.423615
-0.424133
-0.424393
-0.424475
-0.424411
-0.424191
-0.423786
-0.423158
-0.422275
-0.421108
-0.419643
-0.417875
-0.415813
-0.413479
-0.410907
-0.408138
-0.405224
-0.402218
-0.399161
-0.396063
-0.392986
-0.390383
-0.412075
-0.41608
-0.418138
-0.419169
-0.419762
-0.420052
-0.420111
-0.419968
-0.419608
-0.418997
-0.418094
-0.416858
-0.415257
-0.41327
-0.41089
-0.408125
-0.404998
-0.401548
-0.397828
-0.393904
-0.389849
-0.385722
-0.381542
-0.377405
-0.373915
-0.407851
-0.412095
-0.414299
-0.41543
-0.416093
-0.416413
-0.416455
-0.416242
-0.415753
-0.41495
-0.413783
-0.412206
-0.410178
-0.40767
-0.404669
-0.401177
-0.397217
-0.392832
-0.388085
-0.383057
-0.377845
-0.372532
-0.367152
-0.361846
-0.357403
-0.404535
-0.408937
-0.41125
-0.412467
-0.413194
-0.413547
-0.41358
-0.41331
-0.412712
-0.411737
-0.410329
-0.408432
-0.405996
-0.402981
-0.399363
-0.395136
-0.390316
-0.384949
-0.379103
-0.372876
-0.366392
-0.359761
-0.353036
-0.346424
-0.340947
-0.402181
-0.406654
-0.409035
-0.41032
-0.411107
-0.411495
-0.411532
-0.411223
-0.410536
-0.409416
-0.407798
-0.405614
-0.402802
-0.399308
-0.395094
-0.390141
-0.384456
-0.378077
-0.371075
-0.363563
-0.35569
-0.347598
-0.339365
-0.331273
-0.324661
-0.400811
-0.405262
-0.407668
-0.409003
-0.409842
-0.410269
-0.410319
-0.40999
-0.40924
-0.408005
-0.406212
-0.40378
-0.400634
-0.396703
-0.391931
-0.386283
-0.37975
-0.372356
-0.364169
-0.355308
-0.345944
-0.336253
-0.326332
-0.316553
-0.308675
-0.400415
-0.40475
-0.407134
-0.408497
-0.409378
-0.409844
-0.409917
-0.409583
-0.408793
-0.407474
-0.405541
-0.402903
-0.399468
-0.39515
-0.389873
-0.38358
-0.376241
-0.367862
-0.358496
-0.348259
-0.337336
-0.325931
-0.314153
-0.30246
-0.293155
-0.400945
-0.405074
-0.407389
-0.408754
-0.409663
-0.410164
-0.410263
-0.409936
-0.409123
-0.407744
-0.405702
-0.402894
-0.399214
-0.39456
-0.388835
-0.38196
-0.37388
-0.364577
-0.354082
-0.342492
-0.329996
-0.316814
-0.303048
-0.289224
-0.278305
-0.402328
-0.406166
-0.408364
-0.409703
-0.41062
-0.411143
-0.411264
-0.410946
-0.410119
-0.408692
-0.406561
-0.40361
-0.399721
-0.394774
-0.388656
-0.381266
-0.372523
-0.362382
-0.350844
-0.33798
-0.323966
-0.30902
-0.293216
-0.277101
-0.264371
-0.404464
-0.407939
-0.409974
-0.411253
-0.412151
-0.412676
-0.412805
-0.412486
-0.411641
-0.410168
-0.407953
-0.404871
-0.400793
-0.395585
-0.389117
-0.381271
-0.371943
-0.361063
-0.348599
-0.33459
-0.319182
-0.302578
-0.284801
-0.266341
-0.251624
-0.40724
-0.41029
-0.412117
-0.413299
-0.414146
-0.414645
-0.414756
-0.414416
-0.413535
-0.412003
-0.409696
-0.40648
-0.402217
-0.396762
-0.389974
-0.381719
-0.371877
-0.360356
-0.347097
-0.332104
-0.315487
-0.29742
-0.277857
-0.257152
-0.240327
-0.410533
-0.413113
-0.414691
-0.415737
-0.416493
-0.416929
-0.416989
-0.416597
-0.415651
-0.414034
-0.411613
-0.408248
-0.40379
-0.398091
-0.390999
-0.382371
-0.372077
-0.360009
-0.34609
-0.330294
-0.312693
-0.293428
-0.27239
-0.249709
-0.230743
-0.414222
-0.416302
-0.417595
-0.418465
-0.419086
-0.419416
-0.419383
-0.418899
-0.417852
-0.416116
-0.413551
-0.410012
-0.405346
-0.399397
-0.392013
-0.383044
-0.372358
-0.35984
-0.345402
-0.328997
-0.310664
-0.290517
-0.268406
-0.244178
-0.223128
-0.418199
-0.419764
-0.420741
-0.421392
-0.421835
-0.422011
-0.421838
-0.421216
-0.420026
-0.418133
-0.415392
-0.411655
-0.406764
-0.400566
-0.392906
-0.383641
-0.372636
-0.35978
-0.344979
-0.328173
-0.309368
-0.288646
-0.265835
-0.240448
-0.217304
-0.422368
-0.423418
-0.424053
-0.424448
-0.424666
-0.424639
-0.424278
-0.423472
-0.422095
-0.420006
-0.417059
-0.413101
-0.407979
-0.401541
-0.393641
-0.384144
-0.372931
-0.3599
-0.344965
-0.328056
-0.309138
-0.28821
-0.264956
-0.238422
-0.212804
-0.42666
-0.427203
-0.427479
-0.427581
-0.42753
-0.427254
-0.426657
-0.425622
-0.424016
-0.421697
-0.418516
-0.414322
-0.408968
-0.402312
-0.394223
-0.38459
-0.373323
-0.360357
-0.345652
-0.329191
-0.310975
-0.290977
-0.268724
-0.242843
-0.216547
-0.431027
-0.431082
-0.430984
-0.430763
-0.430403
-0.429835
-0.428957
-0.427651
-0.425779
-0.423199
-0.419762
-0.415323
-0.409742
-0.402894
-0.394672
-0.384996
-0.373823
-0.361151
-0.347032
-0.331585
-0.315022
-0.297656
-0.279843
-0.262867
-0.252835
-0.43545
-0.435036
-0.434555
-0.433985
-0.433283
-0.432384
-0.431188
-0.429574
-0.427405
-0.424538
-0.420827
-0.416134
-0.410331
-0.403313
-0.394998
-0.385343
-0.37435
-0.362074
-0.348639
-0.334248
-0.319207
-0.303937
-0.288988
-0.275648
-0.26795
-0.439932
-0.43907
-0.438201
-0.43726
-0.436188
-0.434928
-0.433382
-0.431431
-0.428937
-0.42576
-0.421759
-0.416804
-0.410781
-0.403602
-0.395215
-0.385609
-0.374824
-0.36296
-0.350183
-0.336733
-0.322933
-0.309188
-0.295965
-0.284046
-0.27581
-0.444496
-0.443204
-0.441942
-0.440616
-0.439154
-0.437508
-0.435588
-0.433275
-0.430435
-0.426929
-0.422621
-0.417391
-0.411139
-0.403796
-0.395334
-0.385768
-0.375168
-0.36366
-0.351426
-0.338705
-0.325788
-0.313004
-0.300682
-0.289246
-0.280203
-0.449183
-0.447472
-0.445815
-0.444093
-0.442226
-0.440177
-0.437864
-0.435171
-0.431964
-0.42811
-0.423477
-0.417953
-0.411453
-0.403925
-0.395361
-0.385799
-0.375327
-0.364083
-0.352249
-0.340044
-0.327711
-0.315504
-0.303643
-0.292352
-0.282624
-0.454042
-0.451916
-0.449861
-0.447736
-0.445455
-0.442993
-0.440274
-0.437183
-0.433592
-0.429367
-0.424384
-0.418539
-0.41176
-0.404011
-0.395302
-0.385687
-0.375268
-0.364185
-0.352611
-0.340741
-0.328777
-0.316912
-0.305299
-0.294066
-0.283891
-0.459129
-0.456583
-0.454126
-0.451595
-0.448895
-0.446012
-0.442875
-0.439372
-0.435375
-0.430754
-0.42539
-0.419187
-0.412087
-0.404069
-0.395158
-0.385424
-0.374975
-0.363953
-0.352519
-0.340847
-0.329107
-0.31745
-0.305992
-0.294816
-0.284398
-0.464497
-0.461517
-0.458654
-0.455716
-0.452594
-0.449285
-0.445721
-0.441788
-0.437361
-0.432311
-0.426525
-0.419918
-0.412444
-0.404099
-0.394924
-0.385
-0.374442
-0.363392
-0.352003
-0.34043
-0.328819
-0.317296
-0.305956
-0.294862
-0.284362
-0.470193
-0.466761
-0.463486
-0.460138
-0.456594
-0.452853
-0.448849
-0.444466
-0.439577
-0.434058
-0.427801
-0.420735
-0.412828
-0.404093
-0.394587
-0.384404
-0.373667
-0.362516
-0.351098
-0.339553
-0.328011
-0.316581
-0.305344
-0.294355
-0.283875
-0.476255
-0.472347
-0.468651
-0.464894
-0.460925
-0.456745
-0.452284
-0.447424
-0.442035
-0.435996
-0.429212
-0.421624
-0.413219
-0.404028
-0.394128
-0.383625
-0.372648
-0.361338
-0.349834
-0.338269
-0.326757
-0.315395
-0.304251
-0.293378
-0.282973
-0.482708
-0.478297
-0.474173
-0.470005
-0.465607
-0.460976
-0.456036
-0.450662
-0.444725
-0.438109
-0.430733
-0.422555
-0.413585
-0.403876
-0.393523
-0.382646
-0.37138
-0.359866
-0.348239
-0.336619
-0.325109
-0.313794
-0.302733
-0.291974
-0.281666
-0.489561
-0.484621
-0.480062
-0.47548
-0.470645
-0.465546
-0.460095
-0.454163
-0.44762
-0.440361
-0.432321
-0.423484
-0.413884
-0.403599
-0.392742
-0.381448
-0.369857
-0.358108
-0.346328
-0.334628
-0.3231
-0.311815
-0.300823
-0.290166
-0.279953
-0.496809
-0.491316
-0.486314
-0.481314
-0.47603
-0.470438
-0.464438
-0.457892
-0.450676
-0.4427
-0.433922
-0.424356
-0.414064
-0.403152
-0.391752
-0.380009
-0.368066
-0.356061
-0.34411
-0.332314
-0.32075
-0.309478
-0.298539
-0.287966
-0.277834
-0.50443
-0.498365
-0.492915
-0.487489
-0.48174
-0.475621
-0.46902
-0.461795
-0.45383
-0.445058
-0.435468
-0.425106
-0.41407
-0.40249
-0.390517
-0.378303
-0.365994
-0.353719
-0.341586
-0.329681
-0.318068
-0.306795
-0.295891
-0.285381
-0.275312
-0.512385
-0.505735
-0.499833
-0.493974
-0.487734
-0.481046
-0.473783
-0.465803
-0.457007
-0.447358
-0.436882
-0.425666
-0.413841
-0.401564
-0.388998
-0.376304
-0.363622
-0.351072
-0.338751
-0.326728
-0.315056
-0.303768
-0.292883
-0.282415
-0.27239
-0.52062
-0.51338
-0.507024
-0.50072
-0.493959
-0.486648
-0.478651
-0.469831
-0.460117
-0.44951
-0.438082
-0.425962
-0.413315
-0.400322
-0.387157
-0.373981
-0.360927
-0.348104
-0.335592
-0.323448
-0.311709
-0.300394
-0.289514
-0.279071
-0.269074
-0.529065
-0.521235
-0.514427
-0.507661
-0.500339
-0.492343
-0.483529
-0.47378
-0.46306
-0.451418
-0.43898
-0.425918
-0.41243
-0.398715
-0.384954
-0.371302
-0.357885
-0.344794
-0.332094
-0.319827
-0.308015
-0.296667
-0.28578
-0.275346
-0.265368
-0.537632
-0.529223
-0.521964
-0.514717
-0.506787
-0.498031
-0.488312
-0.477539
-0.465727
-0.452983
-0.439489
-0.42546
-0.411123
-0.396691
-0.382346
-0.368235
-0.354466
-0.341118
-0.328236
-0.315848
-0.303961
-0.292573
-0.281673
-0.271237
-0.261272
-0.546219
-0.537249
-0.529542
-0.521788
-0.513193
-0.503596
-0.492877
-0.480987
-0.468004
-0.454102
-0.439519
-0.424512
-0.409334
-0.394201
-0.379293
-0.364742
-0.35064
-0.337047
-0.323993
-0.311487
-0.299527
-0.288098
-0.277181
-0.266737
-0.256783
-0.554706
-0.5452
-0.537049
-0.528758
-0.519433
-0.508908
-0.497092
-0.483997
-0.469775
-0.454672
-0.438983
-0.423004
-0.407001
-0.391194
-0.37575
-0.360785
-0.346373
-0.332552
-0.319337
-0.306722
-0.294692
-0.283224
-0.27229
-0.261836
-0.251897
-0.562959
-0.552952
-0.544359
-0.535494
-0.525369
-0.513824
-0.500816
-0.486437
-0.470921
-0.454592
-0.437798
-0.420864
-0.404067
-0.387621
-0.371675
-0.356326
-0.341628
-0.327599
-0.314237
-0.301524
-0.289432
-0.277931
-0.266983
-0.25652
-0.246604
-0.57083
-0.560361
-0.551329
-0.541848
-0.530847
-0.51819
-0.503905
-0.488174
-0.471328
-0.453765
-0.435881
-0.418026
-0.400476
-0.383431
-0.367023
-0.351325
-0.336368
-0.322154
-0.308664
-0.295866
-0.283723
-0.272197
-0.261242
-0.250776
-0.240894
-0.57816
-0.567275
-0.557803
-0.54766
-0.535706
-0.52185
-0.50621
-0.489078
-0.470883
-0.452097
-0.433157
-0.414425
-0.396171
-0.378577
-0.36175
-0.34574
-0.330557
-0.316183
-0.302584
-0.289718
-0.277538
-0.266
-0.255048
-0.244587
-0.234754
-0.584779
-0.573527
-0.563615
-0.55276
-0.539777
-0.52464
-0.507584
-0.489021
-0.46948
-0.449501
-0.429553
-0.410001
-0.391101
-0.373011
-0.355813
-0.339531
-0.324155
-0.309649
-0.295966
-0.283051
-0.270851
-0.259316
-0.24838
-0.237938
-0.22817
-0.590508
-0.578944
-0.568589
-0.556971
-0.542885
-0.526401
-0.507885
-0.487882
-0.467019
-0.445895
-0.425001
-0.404696
-0.385214
-0.366687
-0.349168
-0.332659
-0.317126
-0.302519
-0.288778
-0.275838
-0.263639
-0.252125
-0.241221
-0.230811
-0.221129
-0.595166
-0.583347
-0.572544
-0.560113
-0.54486
-0.526976
-0.506979
-0.485548
-0.463408
-0.441205
-0.419439
-0.398455
-0.378462
-0.359561
-0.341776
-0.325085
-0.309435
-0.294761
-0.280991
-0.268052
-0.255876
-0.244405
-0.233552
-0.223193
-0.213618
-0.598566
-0.586551
-0.575296
-0.562006
-0.545532
-0.526214
-0.504736
-0.481916
-0.458563
-0.435361
-0.412809
-0.39123
-0.370802
-0.351592
-0.333598
-0.316774
-0.30105
-0.286345
-0.272578
-0.259668
-0.247543
-0.236137
-0.225357
-0.215068
-0.205625
-0.600527
-0.588375
-0.576665
-0.562475
-0.544741
-0.523976
-0.501043
-0.476892
-0.452411
-0.428304
-0.40506
-0.382975
-0.362191
-0.342742
-0.324599
-0.307694
-0.291939
-0.277243
-0.263515
-0.250665
-0.238619
-0.227306
-0.216622
-0.206426
-0.197141
-0.600871
-0.588642
-0.576474
-0.561353
-0.542337
-0.520136
-0.495796
-0.470396
-0.444885
-0.41998
-0.396148
-0.373651
-0.352592
-0.332977
-0.314747
-0.297814
-0.282077
-0.267432
-0.253779
-0.241025
-0.229089
-0.217898
-0.207335
-0.197258
-0.188157
-0.599427
-0.587181
-0.574556
-0.558483
-0.538182
-0.51458
-0.488906
-0.462358
-0.435932
-0.410344
-0.386033
-0.363221
-0.341975
-0.322267
-0.304015
-0.287111
-0.271442
-0.256892
-0.243355
-0.230733
-0.21894
-0.207901
-0.197489
-0.187558
-0.178669
-0.596038
-0.583833
-0.570756
-0.553723
-0.532157
-0.507211
-0.480299
-0.45272
-0.425506
-0.39936
-0.374684
-0.351658
-0.330313
-0.310588
-0.29238
-0.275565
-0.260014
-0.245606
-0.232228
-0.219777
-0.208164
-0.197311
-0.187079
-0.177322
-0.168676
-0.590559
-0.578454
-0.564934
-0.546949
-0.524157
-0.497949
-0.469913
-0.441438
-0.413574
-0.386999
-0.362075
-0.338939
-0.317584
-0.297921
-0.279826
-0.263158
-0.247781
-0.233565
-0.22039
-0.20815
-0.196756
-0.186123
-0.176104
-0.166552
-0.158179
-0.582862
-0.570913
-0.556968
-0.538055
-0.514098
-0.486732
-0.457706
-0.428481
-0.400111
-0.373241
-0.348189
-0.325047
-0.303774
-0.284253
-0.26634
-0.249882
-0.234735
-0.22076
-0.207836
-0.195851
-0.184715
-0.17434
-0.164567
-0.155254
-0.147184
-0.572841
-0.561103
-0.546758
-0.526955
-0.501917
-0.473516
-0.443648
-0.413829
-0.385104
-0.358077
-0.333018
-0.309975
-0.288874
-0.269575
-0.251915
-0.235732
-0.220871
-0.207192
-0.194566
-0.182881
-0.172045
-0.161966
-0.152475
-0.143434
-0.135701
-0.560409
-0.548935
-0.534222
-0.513588
-0.487571
-0.458275
-0.427726
-0.397477
-0.368551
-0.341504
-0.316558
-0.293721
-0.272884
-0.253886
-0.236552
-0.220708
-0.206193
-0.192863
-0.180586
-0.169247
-0.158754
-0.149012
-0.139841
-0.131108
-0.123742
-0.545501
-0.534345
-0.519305
-0.497912
-0.471036
-0.441002
-0.409943
-0.379432
-0.350459
-0.323531
-0.298819
-0.27629
-0.255808
-0.237193
-0.220256
-0.204816
-0.190707
-0.17778
-0.165903
-0.154959
-0.144854
-0.13549
-0.126678
-0.118292
-0.111326
-0.528078
-0.51729
-0.501974
-0.479912
-0.452313
-0.421707
-0.390315
-0.359712
-0.330848
-0.304174
-0.279813
-0.257695
-0.237658
-0.219505
-0.203037
-0.188067
-0.174424
-0.161958
-0.150533
-0.140032
-0.130361
-0.12142
-0.113008
-0.105007
-0.0984739
-0.508126
-0.497756
-0.482222
-0.459593
-0.431421
-0.400419
-0.368875
-0.338351
-0.309747
-0.28346
-0.259564
-0.237957
-0.218452
-0.20084
-0.184913
-0.170477
-0.157361
-0.145411
-0.134492
-0.124485
-0.115296
-0.106822
-0.0988547
-0.091281
-0.0852127
-0.485655
-0.475751
-0.460067
-0.436986
-0.4084
-0.377184
-0.345668
-0.315392
-0.287197
-0.261425
-0.238105
-0.217104
-0.198217
-0.181221
-0.165903
-0.152067
-0.139537
-0.12816
-0.1178
-0.108338
-0.0996807
-0.0917213
-0.0842441
-0.0771418
-0.0715715
-0.4607
-0.45131
-0.435549
-0.412142
-0.383309
-0.352063
-0.320757
-0.290891
-0.263248
-0.238113
-0.215475
-0.195171
-0.176983
-0.160677
-0.146035
-0.13286
-0.120975
-0.110228
-0.10048
-0.0916157
-0.0835402
-0.0761449
-0.0692071
-0.0626231
-0.0575835
-0.433322
-0.424492
-0.408734
-0.385135
-0.356227
-0.325135
-0.294215
-0.264917
-0.237961
-0.21358
-0.191722
-0.172202
-0.154788
-0.139241
-0.125339
-0.112884
-0.101702
-0.0916376
-0.0825565
-0.0743419
-0.0669005
-0.0601216
-0.0537765
-0.0477622
-0.0432885
-0.403606
-0.39538
-0.379711
-0.356058
-0.32725
-0.296494
-0.266129
-0.237549
-0.211409
-0.187888
-0.166902
-0.148246
-0.131677
-0.116951
-0.103848
-0.0921693
-0.0817419
-0.072414
-0.0640516
-0.0565398
-0.0497863
-0.0436792
-0.0379856
-0.0326
-0.0287355
-0.371659
-0.364081
-0.348589
-0.325027
-0.296491
-0.266247
-0.236601
-0.208879
-0.183673
-0.161112
-0.141082
-0.123362
-0.1077
-0.0938532
-0.0816005
-0.0707472
-0.0611232
-0.0525799
-0.0449858
-0.0382288
-0.032218
-0.0268414
-0.0218654
-0.0171799
-0.0139774
-0.337612
-0.330721
-0.315498
-0.292171
-0.264079
-0.234517
-0.205742
-0.179009
-0.154845
-0.133335
-0.114337
-0.0976151
-0.0829156
-0.0699954
-0.0586373
-0.048651
-0.0398714
-0.0321546
-0.0253739
-0.0194208
-0.0142069
-0.00962274
-0.00543984
-0.00153917
0.000951219
-0.301615
-0.295449
-0.280588
-0.257639
-0.230156
-0.201437
-0.173677
-0.148053
-0.12503
-0.104651
-0.0867489
-0.0710805
-0.0573887
-0.0454339
-0.035004
-0.0259154
-0.0180102
-0.0111515
-0.00521966
-0.000112276
0.00425427
0.00798245
0.0112888
0.0143142
0.0160614
-0.263836
-0.258431
-0.244025
-0.221595
-0.194879
-0.167155
-0.14054
-0.116135
-0.0943413
-0.0751627
-0.058414
-0.0438435
-0.0311947
-0.0202328
-0.0107528
-0.00257957
0.00443587
0.0104206
0.015484
0.0197186
0.0231995
0.0260165
0.0283672
0.0304256
0.0313745
-0.224461
-0.21985
-0.20599
-0.184215
-0.158416
-0.131828
-0.106479
-0.0833899
-0.0629029
-0.0449862
-0.0294375
-0.0160001
-0.00441968
0.00553267
0.0140537
0.0213087
0.0274355
0.0325485
0.0367423
0.040094
0.0426667
0.0445337
0.0458519
0.0467884
0.0467007
-0.183691
-0.179903
-0.166676
-0.145687
-0.120946
-0.0956213
-0.0716476
-0.0499616
-0.0308494
-0.0142465
6.36994e-05
0.0123412
0.0228375
0.0317752
0.0393423
0.0456936
0.0509536
0.05522
0.0585645
0.0610396
0.0626908
0.0635606
0.0636829
0.0630768
0.0614009
-0.141739
-0.138798
-0.126288
-0.106208
-0.0826546
-0.0587112
-0.0362091
-0.0160029
0.00167555
0.0169203
0.0299603
0.0410581
0.0504626
0.058391
0.0650246
0.0705098
0.0749599
0.0784547
0.0810383
0.0827301
0.0835484
0.08345
0.0821473
0.0793041
0.0755033
-0.0988265
-0.0967552
-0.0850416
-0.0659839
-0.0437358
-0.0212781
-0.000333066
0.0183264
0.0345201
0.0483685
0.0601113
0.0700129
0.0783204
0.0852483
0.0909754
0.0956472
0.0993768
0.102242
0.104281
0.105517
0.105979
0.10552
0.10337
0.0987964
0.0940387
-0.0551878
-0.054002
-0.0431565
-0.025225
-0.00438781
0.0164924
0.0358064
0.052862
0.067527
0.0799456
0.0903664
0.0990547
0.106256
0.112182
0.117014
0.120901
0.123966
0.126305
0.127995
0.129133
0.129873
0.130146
0.128984
0.125861
0.12842
-0.011052
-0.0107663
-0.000855551
0.0158559
0.0351891
0.0544126
0.0720332
0.0874368
0.100536
0.111497
0.120572
0.128029
0.134109
0.139021
0.142945
0.146031
0.148405
0.150175
0.151436
0.152315
0.152977
0.153385
0.152997
0.152296
0.157154
0.0333395
0.0327155
0.0416331
0.0570427
0.0747928
0.092294
0.108171
0.121884
0.133389
0.142867
0.150579
0.156786
0.161727
0.165607
0.168604
0.170865
0.172519
0.173677
0.17444
0.174937
0.175306
0.175511
0.175171
0.174842
0.179142
0.0777454
0.076207
0.0840817
0.0981202
0.114222
0.129949
0.144044
0.156039
0.165928
0.173908
0.180239
0.185181
0.188965
0.191793
0.193835
0.195236
0.19612
0.196597
0.196767
0.19675
0.19667
0.196497
0.195916
0.195375
0.198638
0.121926
0.119473
0.126264
0.138875
0.153279
0.167195
0.179481
0.189742
0.198003
0.204474
0.209415
0.213081
0.215696
0.217453
0.218516
0.219024
0.219094
0.21883
0.218324
0.217682
0.21701
0.21627
0.215177
0.214147
0.216428
0.165642
0.162279
0.167956
0.179097
0.191768
0.203849
0.214315
0.222835
0.229467
0.234428
0.237977
0.240363
0.241801
0.242476
0.242543
0.242133
0.241357
0.240308
0.239071
0.23774
0.2364
0.235002
0.233288
0.231665
0.233
0.208661
0.204397
0.208937
0.218581
0.229498
0.239737
0.248384
0.25517
0.26018
0.263639
0.265804
0.266913
0.267175
0.266764
0.265828
0.264487
0.262844
0.260985
0.258984
0.256923
0.254872
0.252775
0.250399
0.248153
0.248586
0.250753
0.245602
0.248995
0.257126
0.266286
0.274689
0.28153
0.286601
0.290009
0.291985
0.292781
0.292627
0.291722
0.290232
0.288294
0.28602
0.283506
0.280826
0.278049
0.275244
0.27247
0.269665
0.266625
0.263757
0.263326
0.291695
0.285675
0.28792
0.294538
0.301952
0.30854
0.313605
0.316989
0.318825
0.319346
0.318799
0.317405
0.315353
0.312799
0.309872
0.306675
0.303295
0.2998
0.296249
0.292704
0.289212
0.285711
0.282023
0.278548
0.277292
0.331272
0.324406
0.325512
0.330632
0.336325
0.341134
0.344462
0.346203
0.346507
0.345611
0.343756
0.341153
0.337982
0.334389
0.330495
0.326395
0.322166
0.317872
0.313563
0.309294
0.305102
0.300927
0.296616
0.292555
0.290511
0.369275
0.361592
0.361579
0.365227
0.369241
0.37232
0.373964
0.374114
0.372939
0.370674
0.367554
0.363782
0.359529
0.354931
0.3501
0.345124
0.340074
0.335005
0.329962
0.324993
0.320128
0.315309
0.310407
0.305785
0.302988
0.405506
0.397038
0.395935
0.398154
0.400542
0.401954
0.40198
0.400604
0.398009
0.394432
0.390099
0.385208
0.379916
0.374355
0.368625
0.362809
0.35697
0.351158
0.345413
0.339776
0.33427
0.328841
0.323381
0.318226
0.314713
0.439777
0.430561
0.428408
0.429251
0.430081
0.4299
0.428384
0.425556
0.421612
0.416788
0.411304
0.405348
0.39907
0.392592
0.386009
0.379394
0.372807
0.36629
0.359879
0.353609
0.347498
0.341497
0.335515
0.329857
0.325664
0.47191
0.461986
0.458832
0.458365
0.457717
0.456031
0.453059
0.448863
0.443649
0.437651
0.431083
0.424125
0.416919
0.409578
0.402191
0.394826
0.387535
0.380356
0.37332
0.366457
0.359781
0.353246
0.34678
0.34065
0.335818
0.501737
0.491151
0.487053
0.485353
0.48332
0.480225
0.475896
0.470424
0.464025
0.456934
0.449357
0.441465
0.433394
0.42525
0.417115
0.409051
0.401105
0.39331
0.385694
0.378281
0.371081
0.364056
0.357143
0.350574
0.345144
0.529103
0.517905
0.512928
0.510083
0.506767
0.502372
0.49679
0.490142
0.482654
0.474556
0.466049
0.457299
0.448432
0.439549
0.430726
0.422019
0.41347
0.40511
0.396962
0.389044
0.381365
0.37389
0.36657
0.359597
0.353616
0.553865
0.542107
0.536325
0.532433
0.527947
0.522367
0.515647
0.507932
0.499453
0.490441
0.481091
0.471561
0.461972
0.452419
0.442971
0.43368
0.424586
0.415713
0.407082
0.398708
0.390595
0.382716
0.375028
0.367688
0.361203
0.575892
0.56363
0.557125
0.552292
0.546757
0.540118
0.53238
0.523712
0.51435
0.504522
0.494419
0.484192
0.473959
0.463806
0.453801
0.44399
0.434408
0.425079
0.416017
0.407236
0.398738
0.390499
0.382486
0.374817
0.36788
0.595067
0.582362
0.575218
0.569559
0.563105
0.555539
0.546911
0.53741
0.527276
0.516735
0.505973
0.495138
0.484341
0.473665
0.463172
0.452906
0.442899
0.43317
0.423733
0.414597
0.405762
0.39721
0.388913
0.380956
0.37362
0.611286
0.5982
0.590511
0.584147
0.576911
0.568556
0.559172
0.548962
0.538171
0.527024
0.515703
0.504351
0.493074
0.481953
0.471045
0.460392
0.450022
0.439954
0.430197
0.420759
0.411638
0.40282
0.394283
0.386079
0.378402
0.62446
0.611058
0.60292
0.59598
0.588103
0.579105
0.569103
0.558313
0.546986
0.535343
0.523564
0.511787
0.500118
0.488632
0.477384
0.466414
0.455747
0.4454
0.435382
0.425696
0.416341
0.407306
0.398571
0.390164
0.382206
0.634514
0.620862
0.612378
0.604993
0.596624
0.58713
0.576652
0.565417
0.553675
0.541649
0.529517
0.517413
0.505439
0.493671
0.48216
0.470944
0.460048
0.449485
0.439264
0.429386
0.41985
0.410646
0.401759
0.393193
0.385015
0.641387
0.627554
0.618827
0.611135
0.602426
0.592588
0.58178
0.570234
0.558205
0.545912
0.533531
0.521198
0.509012
0.497045
0.485349
0.473961
0.462902
0.452188
0.441823
0.43181
0.422146
0.412824
0.403829
0.39515
0.386816
0.645033
0.631089
0.622227
0.614368
0.605473
0.595446
0.584456
0.572738
0.560547
0.548104
0.535585
0.523121
0.510814
0.498735
0.486934
0.475446
0.464295
0.453493
0.443046
0.432955
0.423218
0.413827
0.404769
0.396024
0.387599
0.645421
0.631437
0.622548
0.614664
0.60574
0.595682
0.584659
0.572909
0.560685
0.548211
0.535661
0.523169
0.510834
0.498727
0.486901
0.475389
0.464215
0.453391
0.442923
0.432812
0.423055
0.413647
0.404572
0.395808
0.387358
0.642537
0.628583
0.619778
0.612011
0.603216
0.593284
0.582379
0.570736
0.55861
0.546224
0.533753
0.521333
0.509063
0.497017
0.485246
0.473785
0.462658
0.451877
0.44145
0.431377
0.421656
0.41228
0.403234
0.394498
0.38609
0.63638
0.622527
0.613915
0.606408
0.5979
0.588253
0.577616
0.566221
0.554322
0.542142
0.52986
0.517613
0.505503
0.493604
0.481968
0.470633
0.459623
0.448952
0.438627
0.42865
0.419019
0.409727
0.400756
0.392096
0.383795
0.626965
0.613284
0.604972
0.597868
0.589803
0.580598
0.57038
0.559373
0.547829
0.535975
0.523991
0.512019
0.500161
0.488494
0.477075
0.46594
0.455117
0.44462
0.434459
0.424636
0.41515
0.405993
0.397143
0.388606
0.380478
0.614322
0.600882
0.592979
0.586417
0.578951
0.570342
0.560691
0.55021
0.539149
0.527738
0.516162
0.504563
0.49305
0.481702
0.470578
0.459719
0.449152
0.438894
0.428957
0.419346
0.41006
0.401087
0.392404
0.384036
0.376146
0.598496
0.585366
0.577975
0.572092
0.565377
0.557518
0.54858
0.53876
0.528309
0.517458
0.506395
0.495268
0.484191
0.473247
0.462497
0.451986
0.441743
0.43179
0.422137
0.412794
0.403762
0.395024
0.386553
0.3784
0.370811
0.579549
0.566794
0.560017
0.554946
0.549128
0.542168
0.534086
0.525062
0.515344
0.505166
0.494721
0.484164
0.473612
0.463154
0.452856
0.442765
0.432914
0.423327
0.414019
0.405
0.396275
0.387821
0.379606
0.371713
0.364486
0.557553
0.54524
0.539172
0.53504
0.530264
0.524347
0.51726
0.509162
0.500297
0.490903
0.481179
0.471285
0.461347
0.451456
0.441685
0.432084
0.422692
0.413533
0.404627
0.395988
0.387621
0.379501
0.371586
0.363996
0.35719
0.5326
0.520789
0.515522
0.512451
0.508853
0.504119
0.498161
0.491115
0.48322
0.474717
0.465813
0.456675
0.447434
0.43819
0.429019
0.419977
0.411107
0.402437
0.39399
0.385784
0.377827
0.370088
0.362517
0.355272
0.348943
0.504793
0.493542
0.489163
0.487267
0.484977
0.481559
0.476857
0.470984
0.464171
0.456663
0.448675
0.440381
0.43192
0.423398
0.414898
0.406481
0.398195
0.390073
0.382139
0.374419
0.366921
0.359611
0.352427
0.345566
0.339769
0.474248
0.463614
0.460202
0.459586
0.458726
0.456749
0.453427
0.448842
0.443218
0.436805
0.429823
0.422458
0.414854
0.407127
0.399366
0.391639
0.383996
0.376477
0.369111
0.361927
0.354937
0.348102
0.341346
0.334909
0.329692
0.441097
0.431131
0.428758
0.42952
0.430203
0.429785
0.427957
0.424768
0.420435
0.41521
0.409322
0.402964
0.396293
0.38943
0.382473
0.375494
0.368553
0.361691
0.354943
0.348343
0.341909
0.335593
0.329307
0.32333
0.318742
0.405483
0.396233
0.394963
0.397191
0.399519
0.400768
0.400541
0.39885
0.395903
0.391953
0.387239
0.381965
0.376296
0.370363
0.364269
0.358097
0.351909
0.345756
0.339675
0.333706
0.327871
0.322119
0.316343
0.310862
0.306947
0.367563
0.359073
0.358962
0.362731
0.366797
0.36981
0.371282
0.371183
0.369708
0.367115
0.363651
0.35953
0.354927
0.349983
0.344809
0.339496
0.334113
0.328715
0.323346
0.318052
0.312861
0.307714
0.302488
0.297535
0.294335
0.327503
0.319814
0.320909
0.326284
0.332167
0.337032
0.34029
0.341867
0.341944
0.340782
0.338636
0.335732
0.332254
0.328353
0.32415
0.319744
0.315211
0.310611
0.305996
0.301418
0.296911
0.292411
0.287773
0.283381
0.280935
0.285485
0.278632
0.280968
0.288002
0.29577
0.302562
0.307683
0.311011
0.312711
0.313046
0.312279
0.310647
0.308346
0.305537
0.302351
0.298893
0.29525
0.291488
0.287664
0.283838
0.280052
0.276238
0.272226
0.268425
0.26677
0.241698
0.235712
0.239318
0.248049
0.257755
0.266536
0.273587
0.27873
0.282115
0.284003
0.284669
0.284358
0.283278
0.281601
0.279469
0.276996
0.274277
0.271384
0.268384
0.265343
0.262311
0.259218
0.255868
0.252686
0.251858
0.196344
0.19125
0.196142
0.206596
0.218279
0.229099
0.238132
0.245145
0.250266
0.253756
0.255897
0.256947
0.257125
0.256615
0.255567
0.254107
0.252336
0.250339
0.248186
0.245954
0.243704
0.241364
0.238708
0.236172
0.236208
0.149633
0.145453
0.151637
0.163825
0.17751
0.190403
0.20146
0.210384
0.217281
0.222411
0.226063
0.228505
0.229968
0.230648
0.230706
0.230276
0.229471
0.228383
0.227093
0.225686
0.224236
0.222673
0.220738
0.218871
0.219808
0.101784
0.0985356
0.106007
0.119924
0.13562
0.150607
0.163714
0.17458
0.183284
0.190082
0.195269
0.199124
0.201891
0.203775
0.204949
0.205558
0.205724
0.205548
0.205122
0.204542
0.203896
0.203121
0.201925
0.200742
0.202621
0.0530266
0.0507201
0.0594628
0.0750916
0.0927912
0.109878
0.125049
0.137875
0.148404
0.156887
0.163625
0.168905
0.172984
0.176076
0.178367
0.180009
0.181137
0.181861
0.182283
0.182512
0.182656
0.182659
0.1822
0.181702
0.184566
0.00359423
0.00223695
0.0122245
0.0295315
0.0492121
0.0683889
0.0856247
0.100415
0.112778
0.122953
0.131247
0.137955
0.143344
0.147639
0.151034
0.153693
0.155759
0.157351
0.158581
0.159575
0.160459
0.161192
0.161424
0.16158
0.16548
-0.0462718
-0.0466778
-0.0354823
-0.0165453
0.00507764
0.0263192
0.0456061
0.0623559
0.0765487
0.0884144
0.09826
0.10639
0.113079
0.118562
0.12304
0.126687
0.129651
0.132061
0.134037
0.135721
0.137261
0.138625
0.13943
0.140131
0.145105
-0.0963255
-0.095783
-0.083427
-0.0629225
-0.0394118
-0.0161453
0.00516576
0.0238567
0.0398669
0.0534122
0.064799
0.0743381