/*--------------------------------*- C++ -*----------------------------------*\
  =========                 |
  \\      /  F ield         | OpenFOAM: The Open Source CFD Toolbox
   \\    /   O peration     | Website:  https://openfoam.org
    \\  /    A nd           | Version:  6.0
     \\/     M anipulation  |
\*---------------------------------------------------------------------------*/
FoamFile
{
    version     2.0;
    format      ascii;
    class       surfaceScalarField;
    location    "101";
    object      phi;
}
// * * * * * * * * * * * * * * * * * * * * * * * * * * * * * * * * * * * * * //

dimensions      [0 3 -1 0 0 0 0];

internalField   nonuniform List<scalar> 
24700
(
1.01974e-06
-0.000107813
0.000106793
2.11544e-06
-0.000277614
0.000276518
2.10038e-06
-0.000409468
0.000409483
4.0832e-07
-0.000509074
0.000510766
-3.04966e-06
-0.000581896
0.000585354
-8.02449e-06
-0.000633152
0.000638127
-1.40591e-05
-0.000667546
0.000673581
-2.0596e-05
-0.000689085
0.000695622
-2.70582e-05
-0.000701001
0.000707464
-3.29043e-05
-0.000705762
0.000711608
-3.76629e-05
-0.000705144
0.000709902
-4.09501e-05
-0.000700346
0.000703633
-4.24759e-05
-0.00069211
0.000693636
-4.20425e-05
-0.000680847
0.000680413
-3.95386e-05
-0.00066674
0.000664236
-3.49299e-05
-0.000649843
0.000645235
-2.82484e-05
-0.00063015
0.000623468
-1.95799e-05
-0.000607649
0.000598981
-9.05165e-06
-0.000582365
0.000571837
3.18043e-06
-0.000554371
0.000542139
1.69444e-05
-0.0005238
0.000510036
3.20643e-05
-0.000490832
0.000475712
4.83708e-05
-0.000455676
0.000439369
6.57042e-05
-0.000418504
0.000401171
-0.000379373
0.000361151
8.39269e-05
1.63886e-07
-0.000107977
-8.16663e-07
-0.000276633
-3.7462e-06
-0.000406539
-8.88371e-06
-0.000503937
-1.60773e-05
-0.000574703
-2.48974e-05
-0.000624332
-3.47584e-05
-0.000657685
-4.50164e-05
-0.000678827
-5.50401e-05
-0.000690978
-6.42577e-05
-0.000696544
-7.21845e-05
-0.000697217
-7.84359e-05
-0.000694094
-8.2731e-05
-0.000687815
-8.48897e-05
-0.000678688
-8.48265e-05
-0.000666804
-8.25411e-05
-0.000652129
-7.81075e-05
-0.000634583
-7.1661e-05
-0.000614096
-6.33836e-05
-0.000590642
-5.34889e-05
-0.000564266
-4.22051e-05
-0.000535084
-2.97581e-05
-0.000503279
-1.63553e-05
-0.000469079
-2.17599e-06
-0.000432684
-0.000394199
1.26495e-05
-7.49375e-07
-0.000107228
-3.90065e-06
-0.000273482
-9.83115e-06
-0.000400608
-1.84709e-05
-0.000495297
-2.9421e-05
-0.000563753
-4.20744e-05
-0.000611679
-5.57235e-05
-0.000644036
-6.96452e-05
-0.000664906
-8.3159e-05
-0.000677464
-9.56653e-05
-0.000684038
-0.000106665
-0.000686217
-0.00011577
-0.000684989
-0.000122704
-0.000680882
-0.000127296
-0.000674096
-0.000129481
-0.000664618
-0.000129288
-0.000652322
-0.000126827
-0.000637044
-0.000122282
-0.000618642
-0.000115887
-0.000597036
-0.000107917
-0.000572235
-9.866e-05
-0.000544341
-8.83962e-05
-0.000513543
-7.73783e-05
-0.000480096
-6.58124e-05
-0.00044425
-0.00040618
-5.38317e-05
-1.7083e-06
-0.000105519
-7.09657e-06
-0.000268094
-1.60779e-05
-0.000391627
-2.82387e-05
-0.000483136
-4.29329e-05
-0.000549059
-5.93824e-05
-0.000595229
-7.67677e-05
-0.000626651
-9.42945e-05
-0.000647379
-0.000111239
-0.000660519
-0.000126976
-0.000668301
-0.000140989
-0.000672203
-0.000152883
-0.000673096
-0.000162375
-0.00067139
-0.000169297
-0.000667173
-0.000173594
-0.000660321
-0.000175312
-0.000650605
-0.000174591
-0.000637765
-0.000171654
-0.000621579
-0.00016679
-0.0006019
-0.000160331
-0.000578695
-0.000152628
-0.000552044
-0.000144024
-0.000522146
-0.000134827
-0.000489294
-0.000125279
-0.000453797
-0.000415927
-0.000115531
-2.69788e-06
-0.000102822
-1.03557e-05
-0.000260436
-2.2395e-05
-0.000379588
-3.80519e-05
-0.000467479
-5.64383e-05
-0.000530672
-7.66166e-05
-0.000575051
-9.76669e-05
-0.0006056
-0.000118734
-0.000626312
-0.000139057
-0.000640196
-0.000157986
-0.000649372
-0.000174988
-0.000655201
-0.00018965
-0.000658434
-0.000201676
-0.000659364
-0.000210888
-0.000657961
-0.000217224
-0.000653985
-0.000220736
-0.000647093
-0.000221579
-0.000636921
-0.000220009
-0.000623149
-0.000216358
-0.000605552
-0.000211015
-0.000584037
-0.000204399
-0.00055866
-0.000196922
-0.000529623
-0.000188957
-0.00049726
-0.000180802
-0.000461952
-0.000424087
-0.000172642
-3.69967e-06
-9.91218e-05
-1.36195e-05
-0.000250516
-2.86736e-05
-0.000364534
-4.775e-05
-0.000448403
-6.97294e-05
-0.000508693
-9.35299e-05
-0.00055125
-0.000118145
-0.000580985
-0.00014267
-0.000601787
-0.000166316
-0.000616551
-0.000188411
-0.000627278
-0.000208401
-0.00063521
-0.000225851
-0.000640984
-0.00024044
-0.000644776
-0.000251964
-0.000646437
-0.000260339
-0.000645609
-0.000265604
-0.000641829
-0.000267913
-0.000634612
-0.000267535
-0.000623526
-0.000264839
-0.000608248
-0.000260265
-0.000588611
-0.000254298
-0.000564626
-0.000247429
-0.000536492
-0.000240111
-0.000504578
-0.000232717
-0.000469345
-0.000431314
-0.000225491
-4.69136e-06
-9.44305e-05
-1.68187e-05
-0.000238389
-3.47863e-05
-0.000346566
-5.71449e-05
-0.000426044
-8.2561e-05
-0.000483277
-0.000109826
-0.000523985
-0.000137863
-0.000552947
-0.000165734
-0.000573917
-0.000192626
-0.000589659
-0.000217852
-0.000602051
-0.000240839
-0.000612224
-0.000261121
-0.000620702
-0.000278342
-0.000627554
-0.000292259
-0.00063252
-0.000302746
-0.000635122
-0.000309804
-0.000634771
-0.000313567
-0.00063085
-0.000314298
-0.000622795
-0.00031238
-0.000610166
-0.000308298
-0.000592693
-0.000302602
-0.000570322
-0.000295866
-0.000543229
-0.000288639
-0.000511805
-0.000281393
-0.000476591
-0.000438247
-0.00027446
-5.64699e-06
-8.87835e-05
-1.98736e-05
-0.000224162
-4.05876e-05
-0.000325852
-6.60215e-05
-0.00040061
-9.46494e-05
-0.000454649
-0.000125156
-0.000493479
-0.000156415
-0.000521689
-0.000187464
-0.000542868
-0.000217484
-0.000559639
-0.000245776
-0.000573759
-0.000271749
-0.000586251
-0.000294906
-0.000597544
-0.000314849
-0.000607612
-0.000331278
-0.000616091
-0.000344008
-0.000622393
-0.00035298
-0.000625798
-0.000358278
-0.000625552
-0.000360132
-0.000620941
-0.00035892
-0.000611378
-0.00035515
-0.000596464
-0.000349429
-0.000576043
-0.000342419
-0.000550238
-0.000334781
-0.000519442
-0.00032711
-0.000484263
-0.000445499
-0.000319858
-6.53744e-06
-8.22461e-05
-2.26964e-05
-0.000208003
-4.59166e-05
-0.000302632
-7.4141e-05
-0.000372386
-0.000105677
-0.000423113
-0.000139125
-0.00046003
-0.000173327
-0.000487487
-0.000207314
-0.00050888
-0.000240271
-0.000526682
-0.000271499
-0.000542531
-0.000300394
-0.000557356
-0.000326432
-0.000571506
-0.000349166
-0.000584878
-0.000368233
-0.000597024
-0.000383369
-0.000607256
-0.000394433
-0.000614734
-0.000401429
-0.000618556
-0.000404523
-0.000617847
-0.000404054
-0.000611847
-0.000400529
-0.000599989
-0.000394595
-0.000581977
-0.000386999
-0.000557834
-0.000378522
-0.000527919
-0.00036991
-0.000492875
-0.000453635
-0.000361773
-7.33163e-06
-7.49144e-05
-2.51936e-05
-0.000190141
-5.06032e-05
-0.000277222
-8.12495e-05
-0.00034174
-0.000115301
-0.000389061
-0.000151299
-0.000424032
-0.000188069
-0.000450717
-0.000224654
-0.000472295
-0.000260256
-0.000491081
-0.000294188
-0.000508599
-0.000325845
-0.000525698
-0.000354682
-0.000542669
-0.000380208
-0.000559352
-0.000401991
-0.000575241
-0.000419681
-0.000589566
-0.000433034
-0.000601381
-0.000441944
-0.000609646
-0.000446477
-0.000613314
-0.000446896
-0.000611428
-0.000443667
-0.000603218
-0.000437452
-0.000588192
-0.000429067
-0.00056622
-0.000419418
-0.000537567
-0.000409422
-0.000502871
-0.000463165
-0.000399893
-7.99813e-06
-6.69163e-05
-2.72715e-05
-0.000170868
-5.4476e-05
-0.000250018
-8.70894e-05
-0.000309126
-0.000123172
-0.000352978
-0.000161226
-0.000385979
-0.000200079
-0.000411863
-0.000238801
-0.000433574
-0.000276623
-0.000453259
-0.000312886
-0.000472335
-0.000347
-0.000491585
-0.00037841
-0.000511259
-0.000406594
-0.000531168
-0.00043106
-0.000550775
-0.000451368
-0.000569258
-0.000467159
-0.00058559
-0.000478196
-0.000598609
-0.000484409
-0.000607101
-0.000485939
-0.000609898
-0.000483168
-0.000605989
-0.000476726
-0.000594634
-0.000467469
-0.000575477
-0.000456421
-0.000548615
-0.000444686
-0.000514606
-0.000474531
-0.00043332
-8.50735e-06
-5.8409e-05
-2.88421e-05
-0.000150533
-5.73735e-05
-0.000221486
-9.14158e-05
-0.000275084
-0.000128952
-0.000315442
-0.000168462
-0.000346468
-0.000208795
-0.000371531
-0.000249053
-0.000393316
-0.000288514
-0.000413798
-0.000326561
-0.000434288
-0.000362632
-0.000455514
-0.000396189
-0.000477702
-0.000426694
-0.000500663
-0.000453615
-0.000523853
-0.000476434
-0.000546439
-0.00049468
-0.000567345
-0.00050797
-0.000585319
-0.000516072
-0.000598999
-0.000518962
-0.000607008
-0.00051688
-0.000608071
-0.000510369
-0.000601146
-0.000500275
-0.00058557
-0.000487712
-0.000561179
-0.000473974
-0.000528344
-0.000488105
-0.000460399
-8.83395e-06
-4.9575e-05
-2.98297e-05
-0.000129537
-5.91563e-05
-0.00019216
-9.40148e-05
-0.000240225
-0.000132339
-0.000277118
-0.000172608
-0.0003062
-0.000213694
-0.000330445
-0.000254747
-0.000352263
-0.000295096
-0.000373448
-0.000334178
-0.000395205
-0.000371482
-0.00041821
-0.000406504
-0.000442681
-0.000438723
-0.000468444
-0.000467594
-0.000494983
-0.000492548
-0.000521484
-0.000513021
-0.000546871
-0.000528496
-0.000569844
-0.000538563
-0.000588932
-0.000542996
-0.000602575
-0.000541838
-0.000609229
-0.000535474
-0.00060751
-0.000524672
-0.000596373
-0.000510579
-0.000575272
-0.000494661
-0.000544262
-0.000504199
-0.000478568
-8.95939e-06
-4.06156e-05
-3.01787e-05
-0.000108318
-5.97198e-05
-0.000162618
-9.47231e-05
-0.000205222
-0.000133101
-0.00023874
-0.000173341
-0.00026596
-0.000214347
-0.000289439
-0.000255315
-0.000311295
-0.000295633
-0.000333131
-0.0003348
-0.000356038
-0.000372368
-0.000380643
-0.000407891
-0.000407158
-0.000440896
-0.000435438
-0.000470862
-0.000465017
-0.000497214
-0.000495133
-0.000519335
-0.000524751
-0.0005366
-0.000552579
-0.000548435
-0.000577097
-0.000554402
-0.000596609
-0.000554298
-0.000609332
-0.000548275
-0.000613533
-0.00053693
-0.000607717
-0.00052136
-0.000590842
-0.00050315
-0.000562471
-0.000523085
-0.000484264
-8.87408e-06
-3.17415e-05
-2.9859e-05
-8.73331e-05
-5.90058e-05
-0.000133472
-9.34452e-05
-0.000170783
-0.000131093
-0.000201093
-0.000170453
-0.0002266
-0.000210461
-0.000249431
-0.000250356
-0.0002714
-0.00028958
-0.000293907
-0.000327696
-0.000317922
-0.000364328
-0.000344011
-0.000399107
-0.000372379
-0.000431635
-0.00040291
-0.000461456
-0.000435195
-0.000488038
-0.000468551
-0.000510769
-0.000502019
-0.000528976
-0.000534372
-0.000541966
-0.000564107
-0.000549103
-0.000589472
-0.000549924
-0.000608512
-0.000544282
-0.000619175
-0.000532502
-0.000619496
-0.000515511
-0.000607833
-0.00049491
-0.000583072
-0.000545052
-0.000472944
-8.57897e-06
-2.31626e-05
-2.88716e-05
-6.70406e-05
-5.70112e-05
-0.000105332
-9.0168e-05
-0.000137626
-0.000126282
-0.000164979
-0.000163879
-0.000189003
-0.000201922
-0.000211388
-0.000239684
-0.000233638
-0.000276651
-0.000256939
-0.000312445
-0.000282128
-0.000346758
-0.000309697
-0.000379309
-0.000339829
-0.000409793
-0.000372426
-0.000437854
-0.000407134
-0.000463054
-0.00044335
-0.000484854
-0.00048022
-0.000502607
-0.000516619
-0.000515578
-0.000551136
-0.000522999
-0.000582051
-0.000524169
-0.000607341
-0.000518618
-0.000624727
-0.000506303
-0.000631811
-0.000487839
-0.000626298
-0.000464684
-0.000606227
-0.000570472
-0.000439264
-8.08624e-06
-1.50763e-05
-2.72498e-05
-4.7877e-05
-5.37922e-05
-7.87896e-05
-8.49672e-05
-0.000106451
-0.000118758
-0.000131188
-0.000153715
-0.000154045
-0.000188821
-0.000176282
-0.00022337
-0.000199089
-0.000256878
-0.000223431
-0.000289011
-0.000249996
-0.000319521
-0.000279187
-0.000348206
-0.000311144
-0.000374863
-0.000345769
-0.000399255
-0.000382742
-0.000421077
-0.000421528
-0.000439921
-0.000461376
-0.000455251
-0.000501289
-0.000466393
-0.000539994
-0.000472548
-0.000575896
-0.000472865
-0.000607024
-0.000466575
-0.000631016
-0.000453225
-0.000645161
-0.000432973
-0.00064655
-0.000406929
-0.000632271
-0.000599891
-0.000377509
-7.41881e-06
-7.65751e-06
-2.50589e-05
-3.02369e-05
-4.94628e-05
-5.43857e-05
-7.80064e-05
-7.79072e-05
-0.000108732
-0.000100462
-0.000140219
-0.000122559
-0.000171457
-0.000145044
-0.00020175
-0.000168796
-0.000230627
-0.000194554
-0.000257776
-0.000222846
-0.000282994
-0.000253969
-0.00030614
-0.000287998
-0.000327102
-0.000324806
-0.000345765
-0.000364079
-0.00036197
-0.000405324
-0.00037548
-0.000447865
-0.00038594
-0.000490829
-0.000392835
-0.000533099
-0.000395469
-0.000573262
-0.000392973
-0.00060952
-0.000384396
-0.000639593
-0.000368902
-0.000660655
-0.000346106
-0.000669347
-0.000316544
-0.000661833
-0.000634102
-0.000282333
-6.60876e-06
-1.04875e-06
-2.23917e-05
-1.44539e-05
-4.41883e-05
-3.25891e-05
-6.95278e-05
-5.25678e-05
-9.65266e-05
-7.34635e-05
-0.00012379
-9.52949e-05
-0.000150315
-0.000118519
-0.000175399
-0.000143712
-0.000198566
-0.000171387
-0.000219508
-0.000201904
-0.000238042
-0.000235436
-0.000254065
-0.000271974
-0.000267536
-0.000311336
-0.000278436
-0.000353179
-0.000286748
-0.000397012
-0.000292412
-0.000442201
-0.000295288
-0.000487953
-0.000295095
-0.000533292
-0.000291359
-0.000576998
-0.000283362
-0.000617517
-0.000270149
-0.000652807
-0.000250642
-0.000680161
-0.000223936
-0.000696053
-0.000189821
-0.000695948
-0.000674175
-0.000149748
-5.69482e-06
4.64608e-06
-1.93615e-05
-7.87243e-07
-3.81726e-05
-1.37781e-05
-5.98334e-05
-3.0907e-05
-8.25455e-05
-5.07513e-05
-0.000104945
-7.28951e-05
-0.000126029
-9.74355e-05
-0.000145079
-0.000124662
-0.000161601
-0.000154865
-0.000175275
-0.00018823
-0.000185912
-0.000224799
-0.000193427
-0.00026446
-0.000197814
-0.000306949
-0.000199126
-0.000351867
-0.00019745
-0.000398687
-0.000192885
-0.000446766
-0.000185495
-0.000495343
-0.000175262
-0.000543525
-0.000162008
-0.000590252
-0.000145312
-0.000634213
-0.000124427
-0.000673691
-9.82752e-05
-0.000706314
-6.56031e-05
-0.000728725
-2.54276e-05
-0.000736123
-0.000721418
2.1815e-05
-4.71908e-06
9.36516e-06
-1.60931e-05
1.05868e-05
-3.16424e-05
1.77124e-06
-4.92616e-05
-1.32878e-05
-6.72461e-05
-3.27668e-05
-8.42662e-05
-5.58749e-05
-9.93169e-05
-8.23848e-05
-0.000111661
-0.000112319
-0.000120776
-0.000145749
-0.000126316
-0.00018269
-0.000128073
-0.000223043
-0.000125953
-0.000266579
-0.000119964
-0.000312939
-0.000110192
-0.000361639
-9.67958e-05
-0.000412084
-7.99815e-05
-0.00046358
-5.99812e-05
-0.000515343
-3.70093e-05
-0.000566497
-1.11975e-05
-0.000616064
1.75026e-05
-0.000662913
4.94502e-05
-0.000705639
8.54428e-05
-0.000742306
0.000126753
-0.000770035
0.000174938
-0.000784308
-0.000777236
0.000230756
-3.72345e-06
1.30886e-05
-1.27123e-05
1.95756e-05
-2.48286e-05
1.38875e-05
-3.8159e-05
4.26737e-08
-5.10977e-05
-1.98281e-05
-6.2353e-05
-4.46196e-05
-7.09199e-05
-7.3818e-05
-7.60401e-05
-0.000107198
-7.71619e-05
-0.000144627
-7.39045e-05
-0.000185947
-6.60317e-05
-0.000230915
-5.3431e-05
-0.00027918
-3.61004e-05
-0.000330269
-1.4138e-05
-0.000383601
1.2266e-05
-0.000438488
4.28391e-05
-0.000494154
7.724e-05
-0.000549744
0.000115083
-0.00060434
0.00015598
-0.000656961
0.000199617
-0.000706551
0.000245888
-0.000751909
0.000295076
-0.000791495
0.000348068
-0.000823027
0.000406506
-0.000842746
-0.000843035
0.000472304
-2.74619e-06
1.58348e-05
-9.33616e-06
2.61656e-05
-1.79475e-05
2.24988e-05
-2.68523e-05
8.94748e-06
-3.45439e-05
-1.21364e-05
-3.97718e-05
-3.93918e-05
-4.15346e-05
-7.20551e-05
-3.9056e-05
-0.000109677
-3.17551e-05
-0.000151928
-1.92192e-05
-0.000198483
-1.18229e-06
-0.000248952
2.24913e-05
-0.000302853
5.18179e-05
-0.000359596
8.6702e-05
-0.000418485
0.000126942
-0.000478728
0.000172234
-0.000539446
0.00022218
-0.00059969
0.000276293
-0.000658453
0.000334016
-0.000714684
0.000394762
-0.000767296
0.00045799
-0.000815138
0.000523386
-0.00085689
0.000591122
-0.000890764
0.000662278
-0.000913901
-0.00092058
0.000739824
-1.81893e-06
1.76537e-05
-6.06312e-06
3.04098e-05
-1.11837e-05
2.76194e-05
-1.5622e-05
1.33858e-05
-1.79664e-05
-9.79202e-06
-1.70091e-05
-4.03491e-05
-1.17571e-05
-7.73072e-05
-1.42159e-06
-0.000120013
1.46007e-05
-0.000167951
3.6747e-05
-0.000220629
6.53049e-05
-0.00027751
0.000100425
-0.000337973
0.000142131
-0.000401302
0.000190326
-0.00046668
0.000244802
-0.000533204
0.000305244
-0.000599888
0.000371237
-0.000665683
0.000442271
-0.000729486
0.000517738
-0.000790152
0.000596936
-0.000846493
0.000679063
-0.000897265
0.000763279
-0.000941106
0.000848853
-0.000976338
0.000935694
-0.00100074
-0.00101251
0.00102762
-9.64339e-07
1.86181e-05
-2.96632e-06
3.24118e-05
-4.67672e-06
2.93298e-05
-4.68182e-06
1.33909e-05
-1.65664e-06
-1.28172e-05
5.56398e-06
-4.75697e-05
1.79598e-05
-8.9703e-05
3.63234e-05
-0.000138376
6.12686e-05
-0.000192896
9.3242e-05
-0.000252603
0.000132534
-0.000316802
0.000179287
-0.000384727
0.000233509
-0.000455523
0.000295078
-0.000528249
0.000363759
-0.000601885
0.00043922
-0.000675349
0.000521055
-0.000747517
0.000608805
-0.000817236
0.000701989
-0.000883336
0.000800115
-0.000944619
0.000902673
-0.000999823
0.00100906
-0.00104749
0.00111819
-0.00108547
0.00122723
-0.00110978
-0.00111438
0.0013291
-1.95101e-07
1.88132e-05
-8.90486e-08
3.23057e-05
1.48853e-06
2.77522e-05
5.83578e-06
9.0436e-06
1.42035e-05
-2.11849e-05
2.77157e-05
-6.10819e-05
4.73332e-05
-0.00010932
7.384e-05
-0.000164883
0.000107843
-0.000226898
0.000149772
-0.000294532
0.00019989
-0.00036692
0.000258294
-0.000443131
0.000324926
-0.000522155
0.000399589
-0.000602912
0.000481963
-0.00068426
0.000571642
-0.000765028
0.000668172
-0.000844047
0.000771112
-0.000920177
0.000880123
-0.000992347
0.000995093
-0.00105959
0.00111634
-0.00112107
0.00124494
-0.00117609
0.0013835
-0.00122404
0.00153851
-0.00126478
-0.00130058
0.00172471
4.87304e-07
1.83259e-05
2.55786e-06
3.02352e-05
7.28535e-06
2.30247e-05
1.58848e-05
4.44131e-07
2.95474e-05
-3.48475e-05
4.93581e-05
-8.08926e-05
7.62507e-05
-0.000136213
0.000110984
-0.000199617
0.000154132
-0.000270046
0.000206075
-0.000346475
0.000267
-0.000427845
0.000336903
-0.000513034
0.000415598
-0.000600851
0.000502734
-0.000690048
0.000597821
-0.000779347
0.00070027
-0.000867477
0.000809441
-0.000953218
0.00092471
-0.00103545
0.00104555
-0.00111318
0.0011716
-0.00118565
0.00130284
-0.00125231
0.00143968
-0.00131293
0.00158326
-0.00136762
0.00173545
-0.00141697
-0.00146035
0.00189522
1.09066e-06
1.72352e-05
4.99288e-06
2.6333e-05
1.27422e-05
1.52755e-05
2.55025e-05
-1.23162e-05
4.44199e-05
-5.3765e-05
7.05409e-05
-0.000107014
0.000104761
-0.000170433
0.000147791
-0.000242647
0.000200135
-0.000322391
0.000262078
-0.000408418
0.000333674
-0.000499441
0.000414752
-0.000594111
0.000504919
-0.000691018
0.000603592
-0.00078872
0.000710022
-0.000885777
0.000823349
-0.000980804
0.000942651
-0.00107252
0.00106701
-0.00115981
0.00119558
-0.00124175
0.00132762
-0.00131769
0.00146257
-0.00138725
0.00160003
-0.00145039
0.00173976
-0.00150735
0.00188127
-0.00155848
-0.00160197
0.00202289
1.63124e-06
1.5604e-05
7.26042e-06
2.07038e-05
1.7935e-05
4.60086e-06
3.47965e-05
-2.91776e-05
5.89574e-05
-7.79259e-05
9.14226e-05
-0.000139479
0.000133031
-0.000212042
0.000184414
-0.00029403
0.000245963
-0.000383939
0.000317805
-0.00048026
0.000399796
-0.000581433
0.000491521
-0.000685835
0.000592307
-0.000791805
0.000701263
-0.000897676
0.000817321
-0.00100184
0.000939296
-0.00110278
0.00106595
-0.00119917
0.00119605
-0.00128991
0.00132845
-0.00137415
0.00146209
-0.00145132
0.00159602
-0.00152119
0.00172943
-0.0015838
0.00186152
-0.00163944
0.0019914
-0.00168836
-0.0017288
0.00211824
2.13124e-06
1.34727e-05
9.42349e-06
1.34115e-05
2.29744e-05
-8.95005e-06
4.39245e-05
-5.01278e-05
7.33592e-05
-0.000107361
0.000112231
-0.000178351
0.000161297
-0.000261108
0.000221066
-0.000353798
0.000291757
-0.00045463
0.000373276
-0.00056178
0.000465205
-0.000673361
0.000566809
-0.000787439
0.000677071
-0.000902067
0.00079474
-0.00101535
0.000918397
-0.00112549
0.00104653
-0.00123091
0.00117761
-0.00133025
0.00131016
-0.00142246
0.00144282
-0.0015068
0.00157437
-0.00158287
0.00170374
-0.00165057
0.00183002
-0.00171008
0.00195238
-0.00176179
0.00207008
-0.00180607
-0.00184159
0.00218287
2.61597e-06
1.08568e-05
1.15552e-05
4.47228e-06
2.79891e-05
-2.53839e-05
5.30692e-05
-7.52079e-05
8.78506e-05
-0.000142142
0.000133214
-0.000223714
0.000189797
-0.00031769
0.000257931
-0.000421932
0.000337598
-0.000534298
0.000428407
-0.000652588
0.00052959
-0.000774544
0.00064003
-0.00089788
0.000758318
-0.00102035
0.000882822
-0.00113985
0.00101178
-0.00125445
0.0011434
-0.00136253
0.00127595
-0.00146279
0.0014078
-0.00155432
0.00153754
-0.00163655
0.00166397
-0.0017093
0.00178609
-0.0017727
0.00190315
-0.00182714
0.00201456
-0.0018732
0.00211991
-0.00191143
-0.00194108
0.00221941
3.11097e-06
7.7458e-06
1.37299e-05
-6.14666e-06
3.3109e-05
-4.4763e-05
6.24107e-05
-0.00010451
0.000102645
-0.000182377
0.00015459
-0.000275659
0.000218713
-0.000381813
0.000295103
-0.000498322
0.000383431
-0.000622626
0.000482931
-0.000752089
0.000592423
-0.000884035
0.000710361
-0.00101582
0.000834925
-0.00114492
0.000964123
-0.00126905
0.00109591
-0.00138624
0.00122828
-0.00149491
0.00135942
-0.00159393
0.00148772
-0.00168261
0.00161184
-0.00176067
0.00173075
-0.00182821
0.00184371
-0.00188566
0.00195025
-0.00193367
0.00205011
-0.00197306
0.00214328
-0.0020046
-0.00202809
0.00223029
3.63936e-06
4.10644e-06
1.60145e-05
-1.85218e-05
3.84488e-05
-6.71973e-05
7.21016e-05
-0.000138162
0.00011791
-0.000228185
0.000176503
-0.000334253
0.000248116
-0.000453425
0.000332524
-0.00058273
0.000429007
-0.000719109
0.00053636
-0.000859441
0.000652937
-0.00100061
0.000776751
-0.00113963
0.00090559
-0.00127376
0.00103716
-0.00140062
0.00116922
-0.00151829
0.0012997
-0.00162539
0.00142681
-0.00172104
0.00154909
-0.00180489
0.00166544
-0.00187702
0.00177513
-0.00193789
0.00187773
-0.00198827
0.00197314
-0.00202908
0.00206145
-0.00206138
0.00214301
-0.00208615
-0.00210366
0.00221858
4.21981e-06
-1.13366e-07
1.84621e-05
-3.27641e-05
4.40956e-05
-9.28308e-05
8.2247e-05
-0.000176314
0.000133739
-0.000279677
0.000198992
-0.000399506
0.000277938
-0.000532371
0.000369958
-0.00067475
0.000473873
-0.000823025
0.000587983
-0.000973552
0.000710162
-0.00112279
0.000837993
-0.00126746
0.000968936
-0.0014047
0.00110049
-0.00153217
0.00123034
-0.00164815
0.00135649
-0.00175154
0.00147733
-0.00184188
0.00159166
-0.00191922
0.00169873
-0.00198408
0.00179815
-0.00203731
0.00188988
-0.00208
0.00197415
-0.00211335
0.0020514
-0.00213863
0.00212224
-0.00215699
-0.00216902
0.0021876
4.86522e-06
-4.97859e-06
2.11076e-05
-4.90065e-05
5.00999e-05
-0.000121823
9.28927e-05
-0.000219107
0.000150137
-0.000336921
0.000221975
-0.000471344
0.000307955
-0.000618351
0.000406992
-0.000773787
0.000517387
-0.00093342
0.00063692
-0.00109308
0.000762994
-0.00124887
0.000892827
-0.0013973
0.00102365
-0.00153552
0.00115287
-0.00166139
0.00127826
-0.00177353
0.00139801
-0.00187129
0.00151081
-0.00195468
0.00161584
-0.00202425
0.00171272
-0.00208096
0.00180146
-0.00212605
0.00188237
-0.00216091
0.001956
-0.00218698
0.00202303
-0.00220566
0.00208427
-0.00221823
-0.00222548
0.00214072
5.5824e-06
-1.0561e-05
2.39661e-05
-6.73903e-05
5.64732e-05
-0.00015433
0.00010402
-0.000266654
0.000167017
-0.000399918
0.00024525
-0.000549577
0.000337805
-0.000710906
0.000443061
-0.000879043
0.000558767
-0.00104912
0.000682184
-0.0012165
0.000810303
-0.00137698
0.000940067
-0.00152706
0.0010686
-0.00166405
0.00119338
-0.00178617
0.00131237
-0.00189253
0.00142411
-0.00198303
0.00152766
-0.00205823
0.00162261
-0.00211921
0.00170899
-0.00216734
0.00178717
-0.00220423
0.00185777
-0.00223151
0.00192157
-0.00225078
0.00197944
-0.00226353
0.00203228
-0.00227107
-0.00227429
0.0020811
6.37226e-06
-1.69332e-05
2.70334e-05
-8.80514e-05
6.31887e-05
-0.000190485
0.000115551
-0.000319016
0.00018421
-0.000468577
0.000268511
-0.000633878
0.000367006
-0.000809401
0.000477491
-0.000989529
0.000597153
-0.00116879
0.000722779
-0.00134213
0.000851033
-0.00150524
0.000978709
-0.00165474
0.00110297
-0.00178831
0.0012215
-0.0019047
0.0013326
-0.00200363
0.0014352
-0.00208563
0.00152881
-0.00215184
0.00161343
-0.00220383
0.00168948
-0.00224339
0.00175763
-0.00227238
0.00181873
-0.00229261
0.00187372
-0.00230577
0.00192356
-0.00231338
0.00196918
-0.00231669
-0.00231665
0.00201154
7.23075e-06
-2.4164e-05
3.02884e-05
-0.000111109
7.0186e-05
-0.000230383
0.000127353
-0.000376183
0.000201472
-0.000542697
0.00029137
-0.000723776
0.000395001
-0.000913031
0.000509556
-0.00110408
0.000631683
-0.00129091
0.000757779
-0.00146822
0.000884294
-0.00163175
0.00100802
-0.00177847
0.00112631
-0.0019066
0.00123717
-0.00201556
0.00133932
-0.00210578
0.00143216
-0.00217846
0.00151562
-0.0022353
0.00159011
-0.00227832
0.00165635
-0.00230963
0.00171525
-0.00233128
0.00176783
-0.00234518
0.00181509
-0.00235304
0.00185801
-0.0023563
0.00189749
-0.00235617
-0.00235355
0.0019344
8.14982e-06
-3.23138e-05
3.36963e-05
-0.000136655
7.73778e-05
-0.000274065
0.000139253
-0.000438058
0.000218513
-0.000621957
0.000313389
-0.000818652
0.000421197
-0.00102084
0.00053853
-0.00122142
0.000661562
-0.00141395
0.000786401
-0.00159306
0.000909434
-0.00175479
0.0010276
-0.00189663
0.00113855
-0.00201755
0.00124073
-0.00211774
0.00133333
-0.00219839
0.0014162
-0.00226133
0.0014897
-0.00230881
0.00155457
-0.00234319
0.00161177
-0.00236682
0.00166236
-0.00238187
0.00170743
-0.00239025
0.001748
-0.00239361
0.00178502
-0.00239331
0.0018193
-0.00239045
-0.00238584
0.00185159
9.11848e-06
-4.14323e-05
3.72119e-05
-0.000164749
8.46563e-05
-0.000321509
0.00015105
-0.000504451
0.000235008
-0.000705915
0.000334106
-0.00091775
0.000445006
-0.00113174
0.000563744
-0.00134015
0.00068611
-0.00153631
0.000808063
-0.00171501
0.000926069
-0.00187279
0.00103735
-0.00200791
0.00113997
-0.00212017
0.00123286
-0.00221064
0.00131571
-0.00228123
0.00138879
-0.00233441
0.00145281
-0.00237283
0.00150878
-0.00239916
0.00155781
-0.00241586
0.00160106
-0.00242511
0.0016396
-0.00242879
0.00167443
-0.00242844
0.0017064
-0.00242529
0.00173625
-0.0024203
-0.00241419
0.0017646
1.01237e-05
-5.1556e-05
4.07825e-05
-0.000195408
9.18998e-05
-0.000372626
0.000162523
-0.000575075
0.000250617
-0.000794009
0.000353063
-0.0010202
0.000465881
-0.00124456
0.00058462
-0.00145889
0.000704811
-0.0016565
0.000822405
-0.00183261
0.000934094
-0.00198448
0.00103749
-0.0021113
0.00113116
-0.00221384
0.00121453
-0.002294
0.00128774
-0.00235444
0.00135146
-0.00239813
0.00140668
-0.00242806
0.00145458
-0.00244706
0.00149636
-0.00245764
0.00153317
-0.00246193
0.00156607
-0.00246169
0.00159597
-0.00245834
0.00162362
-0.00245294
0.00164965
-0.00244633
-0.0024391
0.00167457
1.11509e-05
-6.27069e-05
4.43506e-05
-0.000228607
9.89787e-05
-0.000427254
0.000173448
-0.000649544
0.000265009
-0.000885569
0.000369833
-0.00112502
0.000483346
-0.00135807
0.000600707
-0.00157625
0.000717328
-0.00177312
0.0008293
-0.00194458
0.000933665
-0.00208885
0.00102851
-0.00220615
0.00111293
-0.00229825
0.00118684
-0.00236791
0.00125079
-0.0024184
0.00130577
-0.0024531
0.00135296
-0.00247525
0.00139364
-0.00248774
0.00142903
-0.00249303
0.00146025
-0.00249315
0.00148827
-0.00248971
0.0015139
-0.00248397
0.0015378
-0.00247683
0.00156048
-0.00246901
-0.00246097
0.00158234
1.21848e-05
-7.48917e-05
4.78558e-05
-0.000264278
0.00010576
-0.000485159
0.000183599
-0.000727383
0.000277867
-0.000979837
0.000384039
-0.00123119
0.000497016
-0.00147105
0.000611696
-0.00169093
0.000723515
-0.00188494
0.00082884
-0.00204991
0.00092516
-0.00218517
0.00101109
-0.00229209
0.00108625
-0.00237341
0.00115099
-0.00243266
0.00120624
-0.00247364
0.00125318
-0.00250004
0.00129314
-0.00251521
0.00132742
-0.00252201
0.00135721
-0.00252282
0.00138355
-0.00251949
0.00140732
-0.00251348
0.00142921
-0.00250586
0.00144978
-0.00249741
0.00146945
-0.00248868
-0.00248005
0.00148854
1.32089e-05
-8.81006e-05
5.12362e-05
-0.000302306
0.000112113
-0.000546036
0.000192765
-0.000808035
0.000288911
-0.00107598
0.000395368
-0.00133765
0.000506616
-0.00158229
0.000617427
-0.00180175
0.000723403
-0.00199092
0.000821303
-0.00214781
0.000909131
-0.002273
0.000986048
-0.002369
0.00105215
-0.00243951
0.0011082
-0.00248871
0.00115537
-0.00252081
0.00119502
-0.00253969
0.00122852
-0.00254871
0.00125714
-0.00255064
0.00128201
-0.00254769
0.00130407
-0.00254155
0.00132409
-0.00253349
0.00134265
-0.00252442
0.00136022
-0.00251497
0.00137713
-0.00250559
-0.00249654
0.00139361
1.42068e-05
-0.000102307
5.44303e-05
-0.000342529
0.000117911
-0.000609517
0.000200751
-0.000890874
0.000297898
-0.00117313
0.000403582
-0.00144333
0.00051198
-0.00169069
0.000617881
-0.00190765
0.000717183
-0.00209022
0.000807122
-0.00223774
0.000886253
-0.00235213
0.000954265
-0.00243701
0.00101169
-0.00249694
0.00105961
-0.00253663
0.0010994
-0.0025606
0.00113248
-0.00257277
0.00116022
-0.00257645
0.00118383
-0.00257425
0.00120435
-0.00256821
0.00122261
-0.00255981
0.00123925
-0.00255014
0.00125479
-0.00253995
0.00126958
-0.00252976
0.00128389
-0.0025199
-0.00251055
0.0012979
1.51616e-05
-0.000117469
5.73785e-05
-0.000384746
0.000123036
-0.000675175
0.000207387
-0.000975224
0.000304638
-0.00127038
0.000408525
-0.00154722
0.000513054
-0.00179522
0.000613171
-0.00200776
0.000705176
-0.00218223
0.00078684
-0.00231941
0.000857274
-0.00242256
0.000916655
-0.0024964
0.000965889
-0.00254617
0.0010063
-0.00257704
0.00103937
-0.00259366
0.00106654
-0.00259995
0.00108915
-0.00259905
0.00110831
-0.00259342
0.00112494
-0.00258484
0.00113977
-0.00257463
0.00115333
-0.00256371
0.00116605
-0.00255267
0.00117822
-0.00254193
0.00119005
-0.00253173
-0.00252216
0.00120166
1.60567e-05
-0.000133526
6.00239e-05
-0.000428713
0.000127384
-0.000742534
0.000212531
-0.00106037
0.000308994
-0.00136685
0.000410121
-0.00164835
0.000509888
-0.00189499
0.00060352
-0.0021014
0.000687804
-0.00226651
0.000761072
-0.00239268
0.000822971
-0.00248446
0.00087411
-0.00254753
0.000915693
-0.00258775
0.00094921
-0.00261056
0.000976194
-0.00262065
0.000998073
-0.00262183
0.00101608
-0.00261706
0.00103124
-0.00260857
0.00104434
-0.00259795
0.00105601
-0.0025863
0.00106671
-0.0025744
0.00107677
-0.00256273
0.00108642
-0.00255158
0.00109582
-0.00254113
-0.00253141
0.00110507