/*--------------------------------*- C++ -*----------------------------------*\
  =========                 |
  \\      /  F ield         | OpenFOAM: The Open Source CFD Toolbox
   \\    /   O peration     | Website:  https://openfoam.org
    \\  /    A nd           | Version:  6.0
     \\/     M anipulation  |
\*---------------------------------------------------------------------------*/
FoamFile
{
    version     2.0;
    format      ascii;
    class       surfaceScalarField;
    location    "30";
    object      phi;
}
// * * * * * * * * * * * * * * * * * * * * * * * * * * * * * * * * * * * * * //

dimensions      [0 3 -1 0 0 0 0];

internalField   nonuniform List<scalar> 
7840
(
3.47472e-05
-0.000246847
0.000123518
-0.000778621
0.000249584
-0.00131507
0.000394404
-0.00181358
0.000540657
-0.00224069
0.000675258
-0.00257942
0.000790609
-0.00282897
0.000884115
-0.00299972
0.000956762
-0.00310745
0.00101154
-0.00316863
0.00105214
-0.0031978
0.00108214
-0.00320637
0.00110452
-0.0032026
0.00112159
-0.00319208
0.00113501
-0.00317839
0.00114593
-0.00316377
0.00115514
-0.00314955
0.00116316
-0.00313655
0.00117031
-0.0031253
-0.00311631
0.00117679
3.61952e-05
-0.000283042
0.000126052
-0.000868478
0.000250108
-0.00143913
0.000388284
-0.00195175
0.000523283
-0.00237569
0.000643257
-0.0026994
0.000742347
-0.00292806
0.000819573
-0.00307695
0.000877068
-0.00316494
0.000918423
-0.00320999
0.000947487
-0.00322687
0.000967672
-0.00322656
0.000981677
-0.00321661
0.000991472
-0.00320187
0.000998415
-0.00318534
0.00100341
-0.00316877
0.00100707
-0.0031532
0.00100979
-0.00313927
0.00101181
-0.00312733
-0.00311777
0.00101326
3.72419e-05
-0.000320284
0.000127018
-0.000958255
0.00024738
-0.00155949
0.0003772
-0.00208157
0.000499702
-0.00249819
0.000604559
-0.00280425
0.000687663
-0.00301116
0.000749469
-0.00313876
0.000793
-0.00320847
0.00082221
-0.0032392
0.000840921
-0.00324558
0.000852299
-0.00323793
0.00085871
-0.00322302
0.0008618
-0.00320496
0.00086266
-0.0031862
0.000861996
-0.0031681
0.00086027
-0.00315148
0.000857787
-0.00313678
0.000854736
-0.00312428
-0.00311423
0.000851201
3.78494e-05
-0.000358133
0.000126369
-0.00104677
0.000241475
-0.0016746
0.000361507
-0.00220161
0.000470641
-0.00260732
0.000560242
-0.00289385
0.000627878
-0.0030788
0.000675219
-0.0031861
0.000705932
-0.00323919
0.00072413
-0.0032574
0.000733479
-0.00325493
0.000736839
-0.0032413
0.000736243
-0.00322242
0.000733039
-0.00320176
0.000728088
-0.00318125
0.000721933
-0.00316195
0.000714927
-0.00314447
0.000707307
-0.00312916
0.000699216
-0.00311618
-0.00310573
0.000690714
3.79914e-05
-0.000396125
0.000124102
-0.00113288
0.000232546
-0.00178304
0.000341646
-0.00231071
0.000436872
-0.00270255
0.000511353
-0.00296833
0.000564193
-0.00313164
0.000598045
-0.00321995
0.000616996
-0.00325814
0.000625156
-0.00326556
0.000625948
-0.00325572
0.000621903
-0.00323725
0.000614732
-0.00321525
0.000605524
-0.00319255
0.000594947
-0.00317067
0.000583414
-0.00315042
0.000571194
-0.00313225
0.00055847
-0.00311644
0.00054536
-0.00310307
-0.00309228
0.000531909
3.7654e-05
-0.000433779
0.000120258
-0.00121549
0.000220815
-0.0018836
0.000318114
-0.002408
0.000399173
-0.00278361
0.000458872
-0.00302803
0.000497669
-0.00317043
0.000518976
-0.00324126
0.000527108
-0.00326627
0.000526048
-0.0032645
0.000518925
-0.0032486
0.000507939
-0.00322626
0.000494509
-0.00320182
0.0004795
-0.00317754
0.000463421
-0.00315459
0.000446582
-0.00313358
0.000429188
-0.00311486
0.000411385
-0.00309864
0.00039327
-0.00308496
-0.00307389
0.000374882
3.6835e-05
-0.000470614
0.000114912
-0.00129357
0.000206551
-0.00197524
0.000291435
-0.00249289
0.000358296
-0.00285047
0.000403688
-0.00307342
0.000429226
-0.00319597
0.000438869
-0.0032509
0.000437001
-0.0032644
0.000427394
-0.00325489
0.000412859
-0.00323406
0.000395277
-0.00320868
0.000375814
-0.00318236
0.000355144
-0.00315687
0.000333647
-0.00313309
0.000311551
-0.00311148
0.000289009
-0.00309232
0.000266141
-0.00307577
0.000243032
-0.00306185
-0.00305058
0.000219724
3.5543e-05
-0.000506157
0.000108171
-0.00136619
0.000190053
-0.00205712
0.000262134
-0.00256497
0.000314945
-0.00290328
0.000346593
-0.00310507
0.000359645
-0.00320902
0.000358424
-0.00324968
0.000347256
-0.00325323
0.000329647
-0.00323728
0.000308085
-0.0032125
0.000284163
-0.00318476
0.000258825
-0.00315702
0.000232588
-0.00313063
0.00020573
-0.00310624
0.00017841
-0.00308416
0.00015074
-0.00306465
0.000122819
-0.00304785
9.47278e-05
-0.00303376
-0.00302237
6.65136e-05
3.3797e-05
-0.000539954
0.000100161
-0.00143256
0.000171637
-0.00212859
0.00023072
-0.00262405
0.000269765
-0.00294233
0.000288278
-0.00312358
0.000289585
-0.00321033
0.000278209
-0.0032383
0.000258331
-0.00323335
0.000233156
-0.00321211
0.00020486
-0.0031842
0.00017478
-0.00315468
0.000143673
-0.00312591
0.000111933
-0.00309889
7.9751e-05
-0.00307405
4.72301e-05
-0.00305164
1.44474e-05
-0.00303187
-1.85164e-05
-0.00301488
-5.15771e-05
-0.0030007
-0.00298927
-8.4677e-05
3.16239e-05
-0.000571578
9.1028e-05
-0.00149196
0.000151619
-0.00218919
0.000197675
-0.00267011
0.000223335
-0.00296799
0.00022934
-0.00312959
0.000219594
-0.00320058
0.000198689
-0.0032174
0.000170589
-0.00320525
0.000138192
-0.00317971
0.00010338
-0.00314939
6.72681e-05
-0.00311857
3.0461e-05
-0.0030891
-6.74692e-06
-0.00306169
-4.42303e-05
-0.00303657
-8.19362e-05
-0.00301393
-0.000119821
-0.00299398
-0.000157817
-0.00297689
-0.000195835
-0.00296268
-0.00295131
-0.000233798
2.90582e-05
-0.000600636
8.09236e-05
-0.00154383
0.000130315
-0.00223858
0.000163446
-0.00270324
0.00017617
-0.00298071
0.000170292
-0.00312371
0.00015013
-0.00318042
0.000120239
-0.00318751
8.43252e-05
-0.00316934
4.4974e-05
-0.00314036
3.80382e-06
-0.00310822
-3.82595e-05
-0.00307651
-8.0732e-05
-0.00304663
-0.000123394
-0.00301902
-0.000166173
-0.00299379
-0.000209059
-0.00297105
-0.000252041
-0.002951
-0.000295068
-0.00293386
-0.000338038
-0.00291971
-0.0029085
-0.000380848
2.61395e-05
-0.000626775
7.00059e-05
-0.00158769
0.000108023
-0.00227659
0.000128443
-0.00272366
0.000128725
-0.00298099
0.000111573
-0.00310656
8.15773e-05
-0.00315043
4.3174e-05
-0.0031491
-2.18232e-07
-0.00312595
-4.6313e-05
-0.00309426
-9.373e-05
-0.0030608
-0.000141701
-0.00302853
-0.000189835
-0.0029985
-0.000237963
-0.0029709
-0.000286052
-0.0029457
-0.000334129
-0.00292297
-0.000382221
-0.00290291
-0.000430298
-0.00288578
-0.000478241
-0.00287177
-0.00286083
-0.000525911
2.2912e-05
-0.000649687
5.84334e-05
-0.00162321
8.50303e-05
-0.00230319
9.30355e-05
-0.00273166
8.13979e-05
-0.00296935
5.35594e-05
-0.00307872
1.42622e-05
-0.00311113
-3.22396e-05
-0.0031026
-8.28276e-05
-0.00307536
-0.0001355
-0.00304159
-0.000189087
-0.00300722
-0.000242953
-0.00297467
-0.000296772
-0.00294468
-0.000350407
-0.00291726
-0.000403847
-0.00289226
-0.00045715
-0.00286967
-0.000510389
-0.00284967
-0.000563563
-0.00283261
-0.000616545
-0.00281879
-0.00280824
-0.000669133
1.94226e-05
-0.00066911
4.6362e-05
-0.00165015
6.16015e-05
-0.00231843
5.75593e-05
-0.00272762
3.45399e-05
-0.00294634
-3.42144e-06
-0.00304076
-5.15316e-05
-0.00306302
-0.000105764
-0.00304837
-0.000163304
-0.00301782
-0.000222417
-0.00298248
-0.000282123
-0.00294751
-0.000341892
-0.0029149
-0.000401448
-0.00288512
-0.000460665
-0.00285804
-0.000519532
-0.0028334
-0.000578129
-0.00281107
-0.000636576
-0.00279122
-0.000694921
-0.00277426
-0.000753034
-0.00276067
-0.00275065
-0.000810623
1.57203e-05
-0.00068483
3.39425e-05
-0.00166838
3.79833e-05
-0.00232247
2.23142e-05
-0.00271195
-1.15402e-05
-0.00291248
-5.90826e-05
-0.00299322
-0.000115551
-0.00300655
-0.000177177
-0.00298674
-0.000241448
-0.00295355
-0.000306878
-0.00291705
-0.000372659
-0.00288173
-0.000438357
-0.0028492
-0.000503729
-0.00281975
-0.000568643
-0.00279313
-0.000633065
-0.00276897
-0.000697071
-0.00274706
-0.000760819
-0.00272747
-0.000824424
-0.00271066
-0.000887768
-0.00269733
-0.00268799
-0.000950423
1.18546e-05
-0.000696685
2.13188e-05
-0.00167784
1.44018e-05
-0.00231555
-1.24315e-05
-0.00268512
-5.65699e-05
-0.00286834
-0.000113169
-0.00293662
-0.000177565
-0.00294216
-0.000246265
-0.00291804
-0.000317049
-0.00288276
-0.000388668
-0.00284543
-0.000460472
-0.00280993
-0.000532118
-0.00277756
-0.0006034
-0.00274847
-0.000674172
-0.00272236
-0.000744353
-0.00269879
-0.000813977
-0.00267744
-0.00088321
-0.00265824
-0.000952242
-0.00264163
-0.00102099
-0.00262858
-0.00262007
-0.00108891
7.87497e-06
-0.00070456
8.62648e-06
-0.00167859
-8.93809e-06
-0.00229799
-4.64395e-05
-0.00264762
-0.000100309
-0.00281447
-0.000165455
-0.00287147
-0.000237357
-0.00287025
-0.000312812
-0.00284259
-0.000389882
-0.0028057
-0.000467535
-0.00276778
-0.000545276
-0.00273218
-0.000622862
-0.00269997
-0.000700136
-0.00267119
-0.000776952
-0.00264554
-0.00085318
-0.00262257
-0.000928779
-0.00260184
-0.00100389
-0.00258313
-0.00107879
-0.00256673
-0.00115347
-0.0025539
-0.00254598
-0.00122757
3.82933e-06
-0.000708389
-4.00943e-06
-0.00167075
-3.18528e-05
-0.00227015
-7.95011e-05
-0.00259997
-0.000142547
-0.00275143
-0.000215735
-0.00279828
-0.000294728
-0.00279126
-0.000376607
-0.00276071
-0.000459702
-0.0027226
-0.00054319
-0.00268429
-0.000626726
-0.00264865
-0.000710181
-0.00261651
-0.000793482
-0.00258789
-0.000876525
-0.0025625
-0.000959163
-0.00253993
-0.00104128
-0.00251972
-0.00112297
-0.00250144
-0.00120462
-0.00248508
-0.00128645
-0.00247208
-0.0024634
-0.00136902
-2.36726e-07
-0.000708153
-1.64756e-05
-0.00165451
-5.41817e-05
-0.00223244
-0.000111437
-0.00254271
-0.000183105
-0.00267976
-0.000263835
-0.00271755
-0.000349491
-0.0027056
-0.000437435
-0.00267277
-0.000526246
-0.00263379
-0.000615292
-0.00259524
-0.00070438
-0.00255956
-0.000793516
-0.00252738
-0.000882766
-0.00249864
-0.000972161
-0.0024731
-0.00106165
-0.00245044
-0.00115111
-0.00243026
-0.00124055
-0.002412
-0.00133031
-0.00239531
-0.00142097
-0.00238142
-0.00236915
-0.00151523
-4.28122e-06
-0.000703871
-2.86725e-05
-0.00163012
-7.57887e-05
-0.00218532
-0.000142101
-0.0024764
-0.00022184
-0.00260002
-0.000309611
-0.00262978
-0.000401492
-0.00261372
-0.000495106
-0.00257915
-0.000589251
-0.00253964
-0.000683459
-0.00250103
-0.000777668
-0.00246535
-0.000872022
-0.00243302
-0.000966768
-0.0024039
-0.00106219
-0.00237768
-0.00115857
-0.00235406
-0.0012561
-0.00233273
-0.00135491
-0.00231319
-0.00145554
-0.00229468
-0.00156023
-0.00227674
-0.00227064
-0.00165873
-8.2546e-06
-0.000695617
-4.04957e-05
-0.00159788
-9.65406e-05
-0.00212928
-0.000171355
-0.00240159
-0.000258624
-0.00251275
-0.000352948
-0.00253546
-0.000450614
-0.00251606
-0.000549482
-0.00248028
-0.00064853
-0.0024406
-0.000747405
-0.00240216
-0.000846111
-0.00236665
-0.000944842
-0.00233429
-0.00104392
-0.00230482
-0.00114379
-0.0022778
-0.00124508
-0.00225277
-0.00134862
-0.0022292
-0.00145526
-0.00220655
-0.00156541
-0.00218453
-0.00168003
-0.00216212
-0.00213235
-0.00181832
-1.21457e-05
-0.000683471
-5.19124e-05
-0.00155812
-0.000116396
-0.0020648
-0.000199167
-0.00231882
-0.00029344
-0.00241848
-0.000393841
-0.00243506
-0.000496865
-0.00241303
-0.000600582
-0.00237657
-0.000704118
-0.00233706
-0.000807194
-0.00229908
-0.000909822
-0.00226402
-0.00101214
-0.00223198
-0.00111433
-0.00220263
-0.0012166
-0.00217553
-0.0013192
-0.00215017
-0.00142233
-0.00212607
-0.00152605
-0.00210283
-0.00163058
-0.00207999
-0.00173663
-0.00205607
-0.00202762
-0.00184137
-1.59156e-05
-0.000667556
-6.28489e-05
-0.00151118
-0.000135271
-0.00199237
-0.000225462
-0.00222863
-0.000326234
-0.00231771
-0.000432264
-0.00232903
-0.000540244
-0.00230505
-0.000648436
-0.00226837
-0.000756094
-0.0022294
-0.000863008
-0.00219217
-0.000969208
-0.00215782
-0.00107482
-0.00212637
-0.00117998
-0.00209747
-0.00128483
-0.00207068
-0.00138944
-0.00204556
-0.00149383
-0.00202168
-0.00159798
-0.00199868
-0.00170184
-0.00197614
-0.0018047
-0.0019532
-0.00192906
-0.00190326
-1.95423e-05
-0.000648013
-7.32637e-05
-0.00145746
-0.000153124
-0.00191251
-0.000250215
-0.00213153
-0.000357006
-0.00221092
-0.000468242
-0.00221779
-0.000580804
-0.00219249
-0.000693125
-0.00215605
-0.000804567
-0.00211796
-0.000914964
-0.00208177
-0.00102435
-0.00204843
-0.00113283
-0.00201789
-0.00124048
-0.00198981
-0.00134738
-0.00196379
-0.00145352
-0.00193942
-0.00155884
-0.00191636
-0.00166318
-0.00189434
-0.00176627
-0.00187304
-0.00186746
-0.00185201
-0.00183084
-0.00196569
-2.30081e-05
-0.000625005
-8.31267e-05
-0.00139734
-0.00016993
-0.00182571
-0.000273421
-0.00202804
-0.000385778
-0.00209856
-0.000501827
-0.00210174
-0.000618631
-0.00207569
-0.000734779
-0.00203991
-0.000849731
-0.00200301
-0.000963365
-0.00196814
-0.00107573
-0.00193607
-0.0011869
-0.00190672
-0.00129695
-0.00187976
-0.00140591
-0.00185482
-0.00151377
-0.00183156
-0.00162044
-0.00180969
-0.00172578
-0.001789
-0.00182956
-0.00176927
-0.00193136
-0.00175021
-0.00173158
-0.00203062
-2.62988e-05
-0.000598706
-9.24167e-05
-0.00133122
-0.000185677
-0.00173245
-0.000295087
-0.00191863
-0.000412583
-0.00198106
-0.000533078
-0.00198125
-0.000653811
-0.00195495
-0.000773513
-0.0019202
-0.000891731
-0.00188479
-0.00100839
-0.00185148
-0.00112354
-0.00182091
-0.00123728
-0.00179298
-0.00134966
-0.00176738
-0.00146072
-0.00174376
-0.00157045
-0.00172184
-0.00167877
-0.00170137
-0.0017856
-0.00168217
-0.00189078
-0.00166409
-0.00199411
-0.00164688
-0.00163038
-0.00209531
-2.94036e-05
-0.000569303
-0.000101119
-0.00125951
-0.00020036
-0.00163321
-0.00031523
-0.00180376
-0.000437459
-0.00185883
-0.000562059
-0.00185665
-0.000686431
-0.00183058
-0.000809439
-0.0017972
-0.000930711
-0.00176352
-0.00105021
-0.00173198
-0.00116802
-0.00170311
-0.00128423
-0.00167678
-0.00139891
-0.00165269
-0.00151211
-0.00163056
-0.00162384
-0.00161011
-0.00173408
-0.00159113
-0.00184277
-0.00157348
-0.00194985
-0.00155701
-0.00205523
-0.0015415
-0.00152685
-0.00215875
-3.23138e-05
-0.000536989
-0.000109225
-0.0011826
-0.000213981
-0.00152845
-0.000333868
-0.00168388
-0.000460446
-0.00173226
-0.000588828
-0.00172827
-0.000716567
-0.00170284
-0.000842651
-0.00167111
-0.000966781
-0.00163939
-0.00108896
-0.0016098
-0.0012093
-0.00158277
-0.00132789
-0.00155818
-0.00144484
-0.00153574
-0.00156021
-0.00151519
-0.00167403
-0.00149629
-0.00178632
-0.00147885
-0.00189707
-0.00146273
-0.00200628
-0.0014478
-0.00211392
-0.00143385
-0.00142084
-0.00221993
-3.50227e-05
-0.000501966
-0.000116728
-0.00110089
-0.000226545
-0.00141864
-0.000351022
-0.0015594
-0.000481582
-0.0016017
-0.000613436
-0.00159641
-0.000744283
-0.001572
-0.000873221
-0.00154218
-0.00100002
-0.00151259
-0.00112472
-0.00148509
-0.00124746
-0.00146004
-0.00136835
-0.00143729
-0.00148751
-0.00141658
-0.00160503
-0.00139768
-0.00172096
-0.00138035
-0.00183535
-0.00136445
-0.00194824
-0.00134984
-0.00205967
-0.00133638
-0.00216964
-0.00132388
-0.00131234
-0.00227814
-3.75248e-05
-0.000464441
-0.000123624
-0.00101479
-0.000238055
-0.0013042
-0.000366711
-0.00143074
-0.000500897
-0.00146751
-0.000635926
-0.00146138
-0.000769628
-0.00143829
-0.000901203
-0.0014106
-0.00103048
-0.00138331
-0.00115755
-0.00135803
-0.00128255
-0.00133504
-0.00140563
-0.00131421
-0.00152692
-0.00129529
-0.00164652
-0.00127807
-0.00176453
-0.00126235
-0.00188101
-0.00124797
-0.00199603
-0.00123482
-0.00210965
-0.00122276
-0.00222192
-0.00121162
-0.00120141
-0.00233284
-3.98153e-05
-0.000424626
-0.000129908
-0.0009247
-0.000248518
-0.00118559
-0.00038095
-0.00129831
-0.000518417
-0.00133004
-0.000656329
-0.00132347
-0.000792637
-0.00130198
-0.000926631
-0.00127661
-0.0010582
-0.00125174
-0.00118746
-0.00122877
-0.00131457
-0.00120793
-0.00143971
-0.00118907
-0.00156302
-0.00117199
-0.00168462
-0.00115647
-0.00180462
-0.00114234
-0.00192312
-0.00112947
-0.00204019
-0.00111774
-0.00215592
-0.00110703
-0.00227037
-0.00109717
-0.0010882
-0.00238359
-4.189e-05
-0.000382736
-0.000135578
-0.000831012
-0.000257936
-0.00106324
-0.00039375
-0.0011625
-0.000534162
-0.00118963
-0.000674668
-0.00118297
-0.000813333
-0.00116332
-0.000949527
-0.00114041
-0.00108319
-0.00111808
-0.00121446
-0.0010975
-0.00134352
-0.00107886
-0.00147057
-0.00106202
-0.00159576
-0.0010468
-0.00171923
-0.001033
-0.00184111
-0.00102047
-0.0019615
-0.00100908
-0.00208051
-0.000998739
-0.00219822
-0.00098932
-0.00231471
-0.000980677
-0.000972873
-0.00243004
-4.37451e-05
-0.000338991
-0.000140631
-0.000734127
-0.000266311
-0.000937556
-0.000405121
-0.00102369
-0.000548144
-0.00104661
-0.00069096
-0.00104015
-0.000831731
-0.00102255
-0.000969899
-0.00100224
-0.00110544
-0.000982533
-0.00123853
-0.000964411
-0.00136938
-0.00094802
-0.00149817
-0.000933235
-0.00162508
-0.000919885
-0.00175027
-0.000907807
-0.00187387
-0.000896865
-0.001996
-0.000886947
-0.00211678
-0.000877961
-0.0022363
-0.000869796
-0.00235466
-0.000862323
-0.000855617
-0.00247191
-4.53771e-05
-0.000293614
-0.000145062
-0.000634442
-0.000273644
-0.000808973
-0.000415069
-0.000882263
-0.000560373
-0.000901303
-0.000705214
-0.00089531
-0.000847838
-0.000879925
-0.000987748
-0.000862334
-0.00112496
-0.000845317
-0.00125967
-0.000829702
-0.0013921
-0.000815596
-0.00152244
-0.000802888
-0.0016509
-0.000791428
-0.00177763
-0.000781076
-0.00190278
-0.000771714
-0.00202648
-0.000763246
-0.00214885
-0.000755589
-0.00227
-0.000748646
-0.00239002
-0.000742306
-0.000736645
-0.00250899
-4.67827e-05
-0.000246831
-0.000148869
-0.000532356
-0.000279935
-0.000677908
-0.000423596
-0.000738602
-0.000570855
-0.000754044
-0.000717433
-0.000748731
-0.000861654
-0.000735704
-0.00100307
-0.000720917
-0.00114173
-0.000706654
-0.00127785
-0.000693587
-0.00141165
-0.000681794
-0.00154336
-0.000671181
-0.00167317
-0.000661621
-0.00180125
-0.000652996
-0.00192775
-0.000645207
-0.00205283
-0.000638174
-0.00217659
-0.000631825
-0.00229916
-0.000626077
-0.00242063
-0.000620838
-0.000616182
-0.00254109
-4.79589e-05
-0.000198872
-0.000152048
-0.000428267
-0.000285181
-0.000544775
-0.000430703
-0.00059308
-0.00057959
-0.000605157
-0.00072762
-0.000600701
-0.000873178
-0.000590147
-0.00101586
-0.000578236
-0.00115574
-0.000566774
-0.00129304
-0.000556285
-0.00142801
-0.000546828
-0.00156086
-0.000538324
-0.00169181
-0.00053067
-0.00182104
-0.000523772
-0.0019487
-0.00051755
-0.00207493
-0.000511939
-0.00219987
-0.000506881
-0.00232364
-0.000502307
-0.00244634
-0.000498146
-0.000494461
-0.00256806
-4.89032e-05
-0.000149969
-0.000154596
-0.000322574
-0.000289382
-0.000409989
-0.000436391
-0.00044607
-0.00058658
-0.000454968
-0.000735774
-0.000451507
-0.000882405
-0.000443516
-0.0010261
-0.000434537
-0.00116697
-0.000425911
-0.00130523
-0.000418026
-0.00144113
-0.000410921
-0.00157492
-0.000404536
-0.0017068
-0.000398793
-0.00183695
-0.000393622
-0.00196554
-0.000388961
-0.00209271
-0.000384762
-0.00221861
-0.000380981
-0.00234335
-0.000377566
-0.00246704
-0.000374462
-0.000371723
-0.00258978
-4.96134e-05
-0.000100355
-0.000156509
-0.000215678
-0.000292534
-0.000273964
-0.000440658
-0.000297946
-0.000591824
-0.000303802
-0.000741892
-0.000301439
-0.000889331
-0.000296077
-0.0010338
-0.000290071
-0.0011754
-0.000284308
-0.00131438
-0.000279044
-0.001451
-0.000274303
-0.00158549
-0.000270043
-0.00171807
-0.000266215
-0.00184892
-0.000262769
-0.00197822
-0.000259666
-0.00210611
-0.000256872
-0.00223273
-0.000254358
-0.00235821
-0.000252089
-0.00248264
-0.000250029
-0.000248216
-0.00260615
-5.00878e-05
-5.02676e-05
-0.000157786
-0.000107979
-0.000294637
-0.000137114
-0.000443504
-0.000149079
-0.000595322
-0.000151984
-0.000745973
-0.000150788
-0.000893951
-0.000148099
-0.00103893
-0.000145092
-0.00118103
-0.000142209
-0.0013205
-0.000139577
-0.00145759
-0.000137207
-0.00159256
-0.000135079
-0.00172561
-0.000133166
-0.00185693
-0.000131445
-0.0019867
-0.000129896
-0.00211507
-0.000128502
-0.00224218
-0.000127249
-0.00236815
-0.000126118
-0.00249308
-0.000125093
-0.000124191
-0.00261711
-5.03253e-05
5.76337e-08
-0.000158425
1.20624e-07
-0.000295689
1.49764e-07
-0.000444927
1.5943e-07
-0.000597071
1.59377e-07
-0.000748014
1.55216e-07
-0.000896262
1.49699e-07
-0.0010415
1.43969e-07
-0.00118385
1.38424e-07
-0.00132356
1.33169e-07
-0.00146089
1.28215e-07
-0.00159609
1.23549e-07
-0.00172938
1.19152e-07
-0.00186094
1.15007e-07
-0.00199095
1.11099e-07
-0.00211956
1.07413e-07
-0.00224691
1.03936e-07
-0.00237313
1.00651e-07
-0.00249832
9.75343e-08
9.45878e-08
-0.0026226
-5.03254e-05
5.0383e-05
-0.000158426
0.000108221
-0.000295689
0.000137413
-0.000444928
0.000149398
-0.000597071
0.000152303
-0.000748015
0.000151099
-0.000896264
0.000148399
-0.0010415
0.00014538
-0.00118385
0.000142486
-0.00132356
0.000139843
-0.00146089
0.000137463
-0.0015961
0.000135326
-0.00172938
0.000133404
-0.00186094
0.000131676
-0.00199095
0.000130119
-0.00211956
0.000128717
-0.00224691
0.000127457
-0.00237313
0.00012632
-0.00249832
0.000125288
0.00012438
-0.00262261
-5.00881e-05
0.000100471
-0.000157787
0.00021592
-0.000294638
0.000274264
-0.000443506
0.000298266
-0.000595324
0.000304121
-0.000745976
0.00030175
-0.000893955
0.000296378
-0.00103893
0.00029036
-0.00118103
0.000284586
-0.0013205
0.000279311
-0.0014576
0.00027456
-0.00159256
0.000270291
-0.00172561
0.000266454
-0.00185694
0.000263
-0.00198671
0.000259888
-0.00211508
0.000257087
-0.00224218
0.000254566
-0.00236816
0.00025229
-0.00249309
0.000250225
0.000248405
-0.00261712
-4.96139e-05
0.000150085
-0.000156511
0.000322817
-0.000292537
0.00041029
-0.000440662
0.000446391
-0.000591829
0.000455288
-0.000741898
0.000451819
-0.000889337
0.000443817
-0.0010338
0.000434826
-0.00117541
0.00042619
-0.00131439
0.000418294
-0.00145101
0.000411179
-0.0015855
0.000404784
-0.00171808
0.000399033
-0.00184893
0.000393853
-0.00197823
0.000389184
-0.00210612
0.000384978
-0.00223274
0.00038119
-0.00235822
0.000377768
-0.00248266
0.000374658
0.000371913
-0.00260616
-4.89038e-05
0.000198989
-0.000154598
0.000428511
-0.000289385
0.000545078
-0.000436396
0.000593402
-0.000586587
0.000605479
-0.000735782
0.000601014
-0.000882414
0.000590449
-0.00102611
0.000578527
-0.00116698
0.000567053
-0.00130524
0.000556554
-0.00144115
0.000547087
-0.00157493
0.000538573
-0.00170681
0.00053091
-0.00183696
0.000524004
-0.00196555
0.000517774
-0.00209273
0.000512155
-0.00221863
0.00050709
-0.00234337
0.00050251
-0.00246706
0.000498342
0.000494651
-0.00258979
-4.79597e-05
0.000246948
-0.00015205
0.000532602
-0.000285186
0.000678213
-0.00043071
0.000738926
-0.000579598
0.000754368
-0.00072763
0.000749046
-0.000873189
0.000736008
-0.00101587
0.000721209
-0.00115575
0.000706935
-0.00129306
0.000693857
-0.00142802
0.000682054
-0.00156088
0.000671431
-0.00169183
0.000661862
-0.00182106
0.000653229
-0.00194872
0.000645432
-0.00207495
0.000638391
-0.0021999
0.000632035
-0.00232367
0.00062628
-0.00244636
0.000621035
0.000616373
-0.00256808
-4.67836e-05
0.000293732
-0.000148872
0.00063469
-0.00027994
0.000809281
-0.000423604
0.000882589
-0.000570865
0.000901629
-0.000717446
0.000895627
-0.000861668
0.00088023
-0.00100309
0.000862628
-0.00114175
0.0008456
-0.00127787
0.000829974
-0.00141167
0.000815857
-0.00154338
0.00080314
-0.00167319
0.000791671
-0.00180127
0.00078131
-0.00192778
0.000771941
-0.00205285
0.000763465
-0.00217662
0.000755801
-0.00229919
0.00074885
-0.00242066
0.000742504
0.000736836
-0.00254112
-4.53782e-05
0.00033911
-0.000145065
0.000734377
-0.000273651
0.000937866
-0.000415078
0.00102402
-0.000560385
0.00104694
-0.000705228
0.00104047
-0.000847855
0.00102286
-0.000987767
0.00100254
-0.00112498
0.000982817
-0.0012597
0.000964685
-0.00139212
0.000948283
-0.00152247
0.000933488
-0.00165093
0.000920129
-0.00177766
0.000908043
-0.00190281
0.000897092
-0.00202651
0.000887167
-0.00214889
0.000878173
-0.00227004
0.000870001
-0.00239006
0.000862522
0.000855809
-0.00250903
-4.37464e-05
0.000382857
-0.000140634
0.000831265
-0.000266319
0.00106355
-0.000405132
0.00116283
-0.000548158
0.00118996
-0.000690977
0.00118329
-0.000831751
0.00116363
-0.000969921
0.00114071
-0.00110547
0.00111837
-0.00123856
0.00109778
-0.0013694
0.00107913
-0.0014982
0.00106228
-0.00162511
0.00104704
-0.0017503
0.00103323
-0.0018739
0.00102069
-0.00199604
0.0010093
-0.00211682
0.000998953
-0.00223634
0.000989527
-0.0023547
0.000980877
0.000973066
-0.00247196
-4.18914e-05
0.000424748
-0.000135582
0.000924956
-0.000257944
0.00118591
-0.000393762
0.00129865
-0.000534177
0.00133038
-0.000674687
0.0013238
-0.000813355
0.0013023
-0.000949552
0.00127691
-0.00108322
0.00125203
-0.00121449
0.00122905
-0.00134356
0.0012082
-0.00147061
0.00118933
-0.0015958
0.00117223
-0.00171927
0.00115671
-0.00184115
0.00114257
-0.00196154
0.0011297
-0.00208055
0.00111796
-0.00219826
0.00110724
-0.00231475
0.00109737
0.0010884
-0.00243008
-3.98169e-05
0.000464565
-0.000129913
0.00101505
-0.000248527
0.00130453
-0.000380963
0.00143108
-0.000518435
0.00146785
-0.00065635
0.00146171
-0.000792662
0.00143861
-0.000926659
0.00141091
-0.00105823
0.0013836
-0.00118749
0.00135831
-0.00131461
0.00133531
-0.00143975
0.00131447
-0.00156306
0.00129554
-0.00168466
0.00127831
-0.00180467
0.00126258
-0.00192317
0.00124819
-0.00204024
0.00123503
-0.00215598
0.00122297
-0.00227043
0.00121182
0.00120161
-0.00238364
-3.75265e-05
0.000502091
-0.000123629
0.00110115
-0.000238066
0.00141896
-0.000366726
0.00155974
-0.000500917
0.00160204
-0.000635949
0.00159675
-0.000769656
0.00157232
-0.000901234
0.00154248
-0.00103052
0.00151289
-0.00115759
0.00148538
-0.00128259
0.00146031
-0.00140567
0.00143755
-0.00152696
0.00141684
-0.00164657
0.00139792
-0.00176458
0.00138059
-0.00188107
0.00136468
-0.00199609
0.00135006
-0.00210971
0.00133659
-0.00222198
0.00132409
0.00131253
-0.0023329
-3.50245e-05
0.000537116
-0.000116734
0.00118286
-0.000226556
0.00152878
-0.000351039
0.00168423
-0.000481603
0.0017326
-0.000613462
0.0017286
-0.000744314
0.00170317
-0.000873255
0.00167143
-0.00100006
0.00163969
-0.00112477
0.00161009
-0.0012475
0.00158305
-0.0013684
0.00155845
-0.00148756
0.001536
-0.00160508
0.00151544
-0.00172102
0.00149653
-0.00183541
0.00147908
-0.00194831
0.00146295
-0.00205973
0.00144802
-0.00216971
0.00143406
0.00142104
-0.00227821
-3.23157e-05
0.000569432
-0.000109232
0.00125978
-0.000213993
0.00163355
-0.000333886
0.00180412
-0.00046047
0.00185919
-0.000588856
0.00185699
-0.000716601
0.00183091
-0.000842688
0.00179751
-0.000966823
0.00176382
-0.00108901
0.00173227
-0.00120935
0.00170339
-0.00132795
0.00167705
-0.0014449
0.00165295
-0.00156027
0.00163081
-0.00167409
0.00161035
-0.00178638
0.00159136
-0.00189714
0.0015737
-0.00200635
0.00155723
-0.00211399
0.00154171
0.00152705
-0.00222001
-2.94055e-05
0.000598837
-0.000101126
0.0013315
-0.000200373
0.00173279
-0.000315249
0.001919
-0.000437484
0.00198142
-0.00056209
0.0019816
-0.000686467
0.00195529
-0.00080948
0.00192053
-0.000930756
0.0018851
-0.00105026
0.00185178
-0.00116807
0.0018212
-0.00128428
0.00179326
-0.00139897
0.00176764
-0.00151218
0.00174402
-0.00162391
0.00172208
-0.00173415
0.0017016
-0.00184285
0.0016824
-0.00194993
0.00166431
-0.00205531
0.00164709
0.00163058
-0.00215884
-2.63009e-05
0.000625138
-9.24238e-05
0.00139762
-0.00018569
0.00182606
-0.000295108
0.00202841
-0.00041261
0.00209893
-0.000533111
0.0021021
-0.00065385
0.00207603
-0.000773557
0.00204023
-0.00089178
0.00200332
-0.00100844
0.00196844
-0.0011236
0.00193636
-0.00123734
0.001907
-0.00134973
0.00188003
-0.0014608
0.00185508
-0.00157052
0.00183181
-0.00167885
0.00180993
-0.00178568
0.00178923
-0.00189086
0.00176949
-0.0019942
0.00175042
0.00173179
-0.0020954
-2.30102e-05
0.000648148
-8.31341e-05
0.00145775
-0.000169945
0.00191287
-0.000273443
0.00213191
-0.000385807
0.00221129
-0.000501862
0.00221815
-0.000618673
0.00219284
-0.000734827
0.00215639
-0.000849783
0.00211828
-0.000963423
0.00208208
-0.00107579
0.00204872
-0.00118697
0.00201818
-0.00129702
0.00199009
-0.00140599
0.00196405
-0.00151385
0.00193967
-0.00162052
0.00191661
-0.00172587
0.00189458
-0.00182965
0.00187327
-0.00193146
0.00185223
0.00183105
-0.00203071
-1.95444e-05
0.000667693
-7.32714e-05
0.00151147
-0.000153139
0.00199274
-0.000250238
0.00222901
-0.000357037
0.00231809
-0.00046828
0.0023294
-0.000580848
0.00230541
-0.000693175
0.00226871
-0.000804623
0.00222973
-0.000915026
0.00219248
-0.00102442
0.00215812
-0.0011329
0.00212666
-0.00124056
0.00209775
-0.00134746
0.00207095
-0.00145361
0.00204582
-0.00155893
0.00202192
-0.00166327
0.00199892
-0.00176637
0.00197637
-0.00186757
0.00195343
0.00192927
-0.00196579
-1.59177e-05
0.00068361
-6.28567e-05
0.00155841
-0.000135287
0.00206517
-0.000225486
0.00231921
-0.000326266
0.00241887
-0.000432303
0.00243543
-0.000540291
0.00241339
-0.000648489
0.00237691
-0.000756154
0.00233739
-0.000863073
0.0022994
-0.000969279
0.00226432
-0.00107489
0.00223227
-0.00118006
0.00220292
-0.00128491
0.0021758
-0.00138953
0.00215043
-0.00149393
0.00212632
-0.00159809
0.00210308
-0.00170195
0.00208023
-0.00180482
0.0020563
0.00202783
-0.00190337
-1.21477e-05
0.000695758
-5.19203e-05
0.00159819
-0.000116412
0.00212966
-0.000199192
0.00240199
-0.000293473
0.00251315
-0.000393883
0.00253584
-0.000496915
0.00251643
-0.000600639
0.00248064
-0.000704181
0.00244093
-0.000807264
0.00240248
-0.000909898
0.00236696
-0.00101222
0.00233459
-0.00111441
0.00230511
-0.00121669
0.00227808
-0.0013193
0.00225304
-0.00142243
0.00222946
-0.00152616
0.0022068
-0.0016307
0.00218477
-0.00173676
0.00216235
0.00213257
-0.0018415
-8.25654e-06
0.000704015
-4.05036e-05
0.00163043
-9.6557e-05
0.00218571
-0.000171381
0.00247681
-0.000258659
0.00260043
-0.000352992
0.00263018
-0.000450666
0.0026141
-0.000549542
0.00257951
-0.000648596
0.00253999
-0.000747478
0.00250136
-0.000846191
0.00246567
-0.000944929
0.00243333
-0.00104401
0.00240419
-0.00114389
0.00237796
-0.00124519
0.00235434
-0.00134873
0.00233299
-0.00145538
0.00231345
-0.00156554
0.00229493
-0.00168016
0.00227698
0.00227088
-0.00181847
-4.28303e-06
0.000708298
-2.86803e-05
0.00165483
-7.58054e-05
0.00223284
-0.000142127
0.00254314
-0.000221876
0.00268018
-0.000309657
0.00271796
-0.000401547
0.00270599
-0.000495168
0.00267313
-0.00058932
0.00263414
-0.000683536
0.00259558
-0.000777752
0.00255989
-0.000872113
0.00252769
-0.000966865
0.00249895
-0.0010623
0.0024734
-0.00115868
0.00245073
-0.00125622
0.00243053