/*--------------------------------*- C++ -*----------------------------------*\
  =========                 |
  \\      /  F ield         | OpenFOAM: The Open Source CFD Toolbox
   \\    /   O peration     | Website:  https://openfoam.org
    \\  /    A nd           | Version:  6.0
     \\/     M anipulation  |
\*---------------------------------------------------------------------------*/
FoamFile
{
    version     2.0;
    format      ascii;
    class       surfaceScalarField;
    location    "22";
    object      phi;
}
// * * * * * * * * * * * * * * * * * * * * * * * * * * * * * * * * * * * * * //

dimensions      [0 3 -1 0 0 0 0];

internalField   nonuniform List<scalar> 
15760
(
-2.87437e-06
2.68986e-06
1.84516e-07
-1.01578e-05
6.84097e-06
4.42466e-07
-2.0786e-05
1.00106e-05
6.17589e-07
-3.38906e-05
1.23748e-05
7.29812e-07
-4.87749e-05
1.40893e-05
7.95069e-07
-6.48936e-05
1.52926e-05
8.26138e-07
-8.18332e-05
1.61065e-05
8.33072e-07
-9.92942e-05
1.66374e-05
8.23614e-07
-0.000117076
1.6978e-05
8.03613e-07
-0.000135062
1.72091e-05
7.77389e-07
-0.000153211
1.74002e-05
7.48067e-07
-0.000171539
1.76109e-05
7.17851e-07
-0.000190119
1.78911e-05
6.8826e-07
-0.00020906
1.82814e-05
6.6031e-07
-0.000228509
1.88135e-05
6.3464e-07
-0.00024863
1.95097e-05
6.116e-07
-0.000269605
2.03838e-05
5.91303e-07
-0.000291619
2.14406e-05
5.7365e-07
-0.000314856
2.26788e-05
5.58483e-07
2.40967e-05
5.45626e-07
-0.000339499
-2.86125e-06
5.55111e-06
-1.01095e-05
1.40892e-05
-2.06807e-05
2.05818e-05
-3.37047e-05
2.53988e-05
-4.84824e-05
2.88669e-05
-6.44646e-05
3.12748e-05
-8.1233e-05
3.28749e-05
-9.84825e-05
3.38869e-05
-0.000116006
3.45014e-05
-0.00013368
3.48835e-05
-0.000151456
3.51756e-05
-0.000169344
3.54994e-05
-0.00018741
3.59573e-05
-0.000205762
3.66328e-05
-0.00022454
3.75916e-05
-0.000243911
3.88809e-05
-0.000264057
4.05302e-05
-0.000285168
4.25512e-05
-0.000307431
4.49421e-05
4.76999e-05
-0.000331035
-2.83487e-06
8.38598e-06
-1.00123e-05
2.12667e-05
-2.0469e-05
3.10384e-05
-3.33323e-05
3.82622e-05
-4.78983e-05
4.34329e-05
-6.36109e-05
4.69874e-05
-8.00427e-05
4.93067e-05
-9.68775e-05
5.07217e-05
-0.000113896
5.15194e-05
-0.00013096
5.19481e-05
-0.000148007
5.22227e-05
-0.000165036
5.25278e-05
-0.000182098
5.30198e-05
-0.000199293
5.38281e-05
-0.000216758
5.50558e-05
-0.000234656
5.67794e-05
-0.000253174
5.90483e-05
-0.000272508
6.18849e-05
-0.000292857
6.52906e-05
6.92619e-05
-0.000314419
-2.79732e-06
1.11833e-05
-9.87241e-06
2.83418e-05
-2.01627e-05
4.13287e-05
-3.27925e-05
5.08919e-05
-4.70512e-05
5.76917e-05
-6.23736e-05
6.23097e-05
-7.83196e-05
6.52527e-05
-9.45575e-05
6.69596e-05
-0.000110849
6.78107e-05
-0.000127037
6.81361e-05
-0.000143036
6.82221e-05
-0.000158825
6.83166e-05
-0.000174438
6.86326e-05
-0.000189959
6.93492e-05
-0.000205515
7.06124e-05
-0.00022127
7.2534e-05
-0.000237413
7.51909e-05
-0.000254151
7.86228e-05
-0.0002717
8.28401e-05
8.78423e-05
-0.000290281
-2.7512e-06
1.39345e-05
-9.69749e-06
3.52881e-05
-1.97766e-05
5.14078e-05
-3.21089e-05
6.32242e-05
-4.59769e-05
7.15597e-05
-6.08044e-05
7.71373e-05
-7.61366e-05
8.05849e-05
-9.16224e-05
8.24454e-05
-0.000107
8.31886e-05
-0.000122087
8.32228e-05
-0.000136769
8.29041e-05
-0.000150996
8.25439e-05
-0.000164777
8.24135e-05
-0.000178175
8.27467e-05
-0.000191301
8.37391e-05
-0.000204315
8.55474e-05
-0.00021741
8.82857e-05
-0.000230809
9.20223e-05
-0.000244755
9.67862e-05
0.000102586
-0.000259499
-2.69918e-06
1.66337e-05
-9.49514e-06
4.2084e-05
-1.93246e-05
6.12373e-05
-3.13042e-05
7.52038e-05
-4.47096e-05
8.49651e-05
-5.89537e-05
9.13814e-05
-7.35659e-05
9.51971e-05
-8.81742e-05
9.70537e-05
-0.00010249
9.75048e-05
-0.0001163
9.70323e-05
-0.000129454
9.60585e-05
-0.000141867
9.49569e-05
-0.000153512
9.40587e-05
-0.000164423
9.36567e-05
-0.000174688
9.40047e-05
-0.000184456
9.53154e-05
-0.000193925
9.77546e-05
-0.000203337
0.000101435
-0.000212971
0.00010642
0.000112739
-0.000223124
-2.64334e-06
1.9277e-05
-9.27093e-06
4.87116e-05
-1.88167e-05
7.07831e-05
-3.03938e-05
8.67809e-05
-4.32725e-05
9.78437e-05
-5.68563e-05
0.000104965
-7.06603e-05
0.000109001
-8.42913e-05
0.000110685
-9.74333e-05
0.000110647
-0.000109837
0.000109436
-0.000121314
0.000107535
-0.000131734
0.000105377
-0.000141026
0.000103351
-0.000149181
0.000101812
-0.000156258
0.000101081
-0.000162383
0.000101441
-0.000167755
0.000103127
-0.000172638
0.000106318
-0.000177355
0.000111137
0.000117656
-0.000182272
-2.58465e-06
2.18617e-05
-9.02661e-06
5.51536e-05
-1.82547e-05
8.00112e-05
-2.93792e-05
9.79055e-05
-4.16674e-05
0.000110132
-5.4517e-05
0.000117815
-6.74314e-05
0.000121916
-7.99993e-05
0.000123253
-9.18785e-05
0.000122526
-0.000102785
0.000120342
-0.000112485
0.000117236
-0.0001208
0.000113692
-0.000127604
0.000110154
-0.000132835
0.000107042
-0.000136503
0.000104749
-0.000138703
0.000103641
-0.000139623
0.000104046
-0.000139545
0.00010624
-0.000138847
0.000110439
0.000116797
-0.000137988
-2.52255e-06
2.43842e-05
-8.75868e-06
6.13897e-05
-1.76291e-05
8.88816e-05
-2.82424e-05
0.000108519
-3.98657e-05
0.000121755
-5.18951e-05
0.000129844
-6.38282e-05
0.000133849
-7.52409e-05
0.000134665
-8.57694e-05
0.000133055
-9.50973e-05
0.00012967
-0.00010295
0.000125089
-0.000109092
0.000119834
-0.000113337
0.000114399
-0.000115556
0.000109261
-0.000115695
0.000104889
-0.000113798
0.000101743
-0.000110022
0.00010027
-0.00010466
0.000100878
-9.81491e-05
0.000103928
0.000109713
-9.10653e-05
-2.45473e-06
2.68389e-05
-8.4576e-06
6.73926e-05
-1.69177e-05
9.73417e-05
-2.69421e-05
0.000118543
-3.78009e-05
0.000132614
-4.88937e-05
0.000140937
-5.97189e-05
0.000144674
-6.98476e-05
0.000144794
-7.89024e-05
0.000142109
-8.65429e-05
0.000137311
-9.24569e-05
0.000131002
-9.63587e-05
0.000123736
-9.79953e-05
0.000116036
-9.7161e-05
0.000108427
-9.37204e-05
0.000101448
-8.76394e-05
9.56625e-05
-7.90221e-05
9.1653e-05
-6.8148e-05
9.00041e-05
-5.55081e-05
9.12884e-05
9.60262e-05
-4.18215e-05
-2.37726e-06
2.92162e-05
-8.10806e-06
7.31234e-05
-1.60852e-05
0.000105319
-2.54132e-05
0.000127871
-3.53669e-05
0.000142568
-4.53536e-05
0.000150924
-5.48795e-05
0.0001542
-6.35198e-05
0.000153434
-7.08948e-05
0.000149484
-7.66523e-05
0.000143068
-8.04549e-05
0.000134805
-8.19756e-05
0.000125257
-8.09013e-05
0.000114962
-7.69465e-05
0.000104472
-6.98801e-05
9.43817e-05
-5.95666e-05
8.5349e-05
-4.60201e-05
7.81065e-05
-2.94706e-05
7.34546e-05
-1.04399e-05
7.22577e-05
7.53933e-05
1.01931e-05
-2.28507e-06
3.15013e-05
-7.69028e-06
7.85286e-05
-1.50857e-05
0.000112714
-2.35696e-05
0.000136355
-3.24205e-05
0.000151418
-4.10556e-05
0.000159559
-4.89934e-05
0.000162137
-5.58213e-05
0.000160262
-6.11693e-05
0.000154832
-6.46886e-05
0.000146587
-6.60351e-05
0.000136152
-6.486e-05
0.000124081
-6.08074e-05
0.000110909
-5.35237e-05
9.71885e-05
-4.26816e-05
8.35396e-05
-2.80261e-05
7.06935e-05
-9.44457e-06
5.9525e-05
1.29346e-05
5.10754e-05
3.86081e-05
4.65841e-05
4.74589e-05
6.65425e-05
-2.17271e-06
3.3674e-05
-7.18228e-06
8.35381e-05
-1.38668e-05
0.000119399
-2.13108e-05
0.000143799
-2.87913e-05
0.000158899
-3.57324e-05
0.0001665
-4.1665e-05
0.00016807
-4.6193e-05
0.00016479
-4.8965e-05
0.000157604
-4.96505e-05
0.000147273
-4.79203e-05
0.000134421
-4.34318e-05
0.000119593
-3.58187e-05
0.000103296
-2.46906e-05
8.60605e-05
-9.64801e-06
6.8497e-05
9.67884e-06
5.13666e-05
3.35534e-05
3.56504e-05
6.20071e-05
2.26217e-05
9.46356e-05
1.39556e-05
1.1794e-05
0.0001303
-2.03527e-06
3.57093e-05
-6.56265e-06
8.80655e-05
-1.23751e-05
0.000125211
-1.85311e-05
0.000149955
-2.42952e-05
0.000164663
-2.90888e-05
0.000171293
-3.24481e-05
0.000171429
-3.39895e-05
0.000166332
-3.33815e-05
0.000156996
-3.03209e-05
0.000144212
-2.45127e-05
0.000128613
-1.56511e-05
0.000110731
-3.40374e-06
9.10487e-05
1.26017e-05
7.0055e-05
3.27796e-05
4.83191e-05
5.75668e-05
2.65795e-05
8.73615e-05
5.85579e-06
0.000122393
-1.24101e-05
0.000162461
-2.61125e-05
-3.21886e-05
0.000206444
-1.8692e-06
3.75785e-05
-5.81305e-06
9.20094e-05
-1.05614e-05
0.00012996
-1.51292e-05
0.000154523
-1.87509e-05
0.000168285
-2.08276e-05
0.00017337
-2.0884e-05
0.000171486
-1.85341e-05
0.000163982
-1.34551e-05
0.000151917
-5.36744e-06
0.000136124
5.98254e-06
0.000117263
2.08394e-05
9.58746e-05
3.94569e-05
7.24313e-05
6.21184e-05
4.73935e-05
8.91586e-05
2.12789e-05
0.000120975
-5.23694e-06
0.000158008
-3.11773e-05
0.000200654
-5.50561e-05
0.000249004
-7.44626e-05
-8.53462e-05
0.000302162
-1.67269e-06
3.92512e-05
-4.91949e-06
9.52562e-05
-8.38418e-06
0.000133424
-1.1015e-05
0.000157154
-1.19924e-05
0.000169262
-1.06722e-05
0.00017205
-6.54029e-06
0.000167354
8.19301e-07
0.000156622
1.17468e-05
0.00014099
2.65206e-05
0.000121351
4.53662e-05
9.84175e-05
6.84648e-05
7.2776e-05
9.59627e-05
4.49333e-05
0.00012799
1.53663e-05
0.000164688
-1.54196e-05
0.000206252
-4.68007e-05
0.000252965
-7.78902e-05
0.000305211
-0.000107302
0.000363346
-0.000132598
-0.000148929
0.000426928
-1.44529e-06
4.06965e-05
-3.87144e-06
9.76823e-05
-5.80814e-06
0.000135361
-6.10964e-06
0.000157455
-3.87353e-06
0.000167026
1.62172e-06
0.000166555
1.09636e-05
0.000158012
2.46367e-05
0.000142949
4.30396e-05
0.000122587
6.64909e-05
9.78994e-05
9.52273e-05
6.96811e-05
0.000129396
3.86072e-05
0.000169048
5.28157e-06
0.000214133
-2.97191e-05
0.000264516
-6.58018e-05
0.000320008
-0.000102293
0.000380445
-0.000138328
0.000445797
-0.000172653
0.000516313
-0.000203114
-0.000224773
0.000592157
-1.18672e-06
4.18832e-05
-2.6585e-06
9.91541e-05
-2.79888e-06
0.000135501
-3.38027e-07
0.000154994
5.74104e-06
0.000160947
1.62721e-05
0.000156024
3.19554e-05
0.000142329
5.33875e-05
0.000121517
8.10745e-05
9.49e-05
0.00011543
6.3544e-05
0.000156761
2.83499e-05
0.000205246
-9.87775e-06
0.000260901
-5.0373e-05
0.000323542
-9.23606e-05
0.000392754
-0.000135014
0.000467868
-0.000177408
0.000547992
-0.000218452
0.000632114
-0.000256774
0.000719447
-0.000290447
-0.000316169
0.000810843
-8.94992e-07
4.27782e-05
-1.26486e-06
9.95239e-05
6.87352e-07
0.000133549
6.38647e-06
0.000149295
1.69959e-05
0.000150338
3.34958e-05
0.000139524
5.67362e-05
0.000119088
8.74665e-05
9.07866e-05
0.000126345
5.60211e-05
0.000173935
1.59546e-05
0.00023068
-2.83953e-05
0.000296876
-7.60743e-05
0.000372623
-0.000126119
0.000457753
-0.000177491
0.000551742
-0.000229003
0.000653582
-0.000279247
0.000761624
-0.000326494
0.000873398
-0.000368548
0.000985717
-0.000402767
-0.000429666
0.00109921
-5.64158e-07
4.33423e-05
3.37017e-07
9.86228e-05
4.71546e-06
0.000129171
1.41807e-05
0.00013983
3.00715e-05
0.000134447
5.3543e-05
0.000116052
8.56221e-05
8.70092e-05
0.000127236
4.91724e-05
0.000179221
4.03599e-06
0.000242315
-4.71392e-05
0.000317141
-0.000103221
0.000404188
-0.000163121
0.000503785
-0.000225716
0.000616065
-0.000289771
0.000740916
-0.000353854
0.000877862
-0.000416193
0.00102579
-0.000474419
0.00118203
-0.000524789
0.00133922
-0.00055996
-0.000564846
0.0014744
-1.8327e-07
4.35256e-05
2.19045e-06
9.62491e-05
9.37995e-06
0.000121981
2.32055e-05
0.000126005
4.52044e-05
0.000112448
7.67242e-05
8.45323e-05
0.000118977
4.47563e-05
0.000173064
-4.914e-06
0.000239974
-6.28746e-05
0.000320581
-0.000127746
0.00041563
-0.00019827
0.000525738
-0.000273229
0.000651421
-0.000351399
0.000793169
-0.000431518
0.000951591
-0.000512277
0.00112773
-0.000592327
0.00132359
-0.00067028
0.00154345
-0.000744648
0.00179769
-0.000814203
-0.000875971
0.00210881
2.67163e-07
4.32584e-05
4.36105e-06
9.21552e-05
1.48134e-05
0.000111529
3.36759e-05
0.000107142
6.26978e-05
8.3426e-05
0.000103421
4.38094e-05
0.000157224
-9.04673e-06
0.000225333
-7.30238e-05
0.000308811
-0.000146352
0.000408532
-0.000227467
0.000525165
-0.000314903
0.000659176
-0.00040724
0.000810852
-0.000503075
0.000980371
-0.000601038
0.00116793
-0.000699838
0.00137395
-0.000798344
0.00159937
-0.000895703
0.00184618
-0.000991455
0.00211754
-0.00108556
-0.00117051
0.00241208
8.10626e-07
4.24478e-05
6.92785e-06
8.60379e-05
2.11735e-05
9.72832e-05
4.58419e-05
8.24738e-05
8.28949e-05
4.63731e-05
0.000134047
-7.34301e-06
0.000200794
-7.57934e-05
0.000284395
-0.000156625
0.00038584
-0.000247798
0.000505806
-0.000347433
0.000644626
-0.000453723
0.000802277
-0.000564891
0.000978405
-0.000679203
0.00117237
-0.000795002
0.00138332
-0.000910791
0.00161029
-0.00102532
0.00185227
-0.00113768
0.00210822
-0.0012474
0.00237685
-0.0013542
-0.00144957
0.00265592
1.47527e-06
4.09725e-05
9.98081e-06
7.75324e-05
2.86328e-05
7.86312e-05
5.99663e-05
5.11403e-05
0.000106136
2.03758e-07
0.000168979
-7.01865e-05
0.000250014
-0.000156829
0.000350392
-0.000257002
0.00047083
-0.000368236
0.000611557
-0.00048816
0.000772277
-0.000614443
0.000952166
-0.00074478
0.00114991
-0.000876946
0.00136377
-0.00100886
0.00159167
-0.00113869
0.00183128
-0.00126493
0.00208005
-0.00138644
0.00233518
-0.00150253
0.00259375
-0.00161277
-0.00170992
0.0028541
2.29012e-06
3.86824e-05
1.36095e-05
6.6213e-05
3.73557e-05
5.4885e-05
7.62827e-05
1.22133e-05
0.000132689
-5.62029e-05
0.000208447
-0.000145944
0.000304952
-0.000253334
0.000423044
-0.000375094
0.00056292
-0.000508111
0.000724074
-0.000649314
0.000905288
-0.000795656
0.00110467
-0.000944165
0.00131977
-0.00109204
0.00154766
-0.00123675
0.00178513
-0.00137617
0.00202881
-0.0015086
0.00227523
-0.00163286
0.00252091
-0.00174822
0.00276252
-0.00185438
-0.00194615
0.00299875
3.28184e-06
3.54006e-05
1.7892e-05
5.16028e-05
4.74744e-05
2.53026e-05
9.49529e-05
-3.52652e-05
0.000162684
-0.000123934
0.000252432
-0.000235692
0.000365272
-0.000366173
0.000501473
-0.000511295
0.000660418
-0.000667056
0.000840576
-0.000829473
0.00103956
-0.000994641
0.00125426
-0.00115886
0.00148103
-0.00131881
0.00171592
-0.00147165
0.0019549
-0.00161515
0.00219402
-0.00174773
0.00242961
-0.00186844
0.00265831
-0.00197692
0.00287728
-0.00207335
-0.0021546
0.00308573
4.47196e-06
3.09286e-05
2.28853e-05
3.31895e-05
5.90679e-05
-1.088e-05
0.000116029
-9.22263e-05
0.00019605
-0.000203955
0.000300588
-0.00034023
0.000430135
-0.00049572
0.000584093
-0.000665254
0.00076073
-0.000843693
0.000957238
-0.00102598
0.00116992
-0.00120732
0.00139443
-0.00138338
0.00162613
-0.00155051
0.00186036
-0.00170588
0.00209274
-0.00184752
0.00231937
-0.00197436
0.00253699
-0.00208606
0.00274301
-0.00218294
0.00293557
-0.00226591
-0.00233367
0.00311464
5.87499e-06
2.50536e-05
2.86177e-05
1.04469e-05
7.21456e-05
-5.4408e-05
0.000139426
-0.000159507
0.000232475
-0.000297004
0.000352188
-0.000459944
0.000498168
-0.000641699
0.000668632
-0.000835718
0.000860471
-0.00103553
0.00106946
-0.00123497
0.00129059
-0.00142845
0.00151851
-0.0016113
0.00174794
-0.00177993
0.001974
-0.00193194
0.00219257
-0.00206609
0.00240036
-0.00218215
0.00259503
-0.00228073
0.00277515
-0.00236306
0.00294008
-0.00243084
-0.00248426
0.00309067
7.49749e-06
1.75562e-05
3.50851e-05
-1.71407e-05
8.66384e-05
-0.000105961
0.000164906
-0.000237774
0.000271394
-0.000403492
0.000406128
-0.000594678
0.000567492
-0.000803064
0.00075224
-0.00102047
0.000955722
-0.00123901
0.0011723
-0.00145155
0.00139591
-0.00165205
0.00162054
-0.00183594
0.00184082
-0.00200021
0.00205226
-0.00214338
0.00225148
-0.00226532
0.0024363
-0.00236696
0.00260557
-0.00245
0.00275912
-0.00251661
0.00289749
-0.0025692
-0.00260908
0.00302231
9.33777e-06
8.21838e-06
4.22488e-05
-5.00518e-05
0.000102394
-0.000166106
0.000192073
-0.000327454
0.000311986
-0.000523404
0.000460951
-0.000743643
0.000635827
-0.000977939
0.000831707
-0.00121635
0.0010424
-0.0014497
0.00126107
-0.00167023
0.00148099
-0.00187197
0.00169608
-0.00205103
0.00190142
-0.00220555
0.00209345
-0.0023354
0.00226996
-0.00244184
0.00243006
-0.00252705
0.00257385
-0.0025938
0.00270228
-0.00264504
0.00281677
-0.0026837
-0.00271181
0.00291951
1.13858e-05
-3.1674e-06
5.00347e-05
-8.87007e-05
0.000119175
-0.000235246
0.000220381
-0.00042866
0.000353206
-0.00065623
0.000514931
-0.000905367
0.000700649
-0.00116366
0.000903746
-0.00141944
0.00111667
-0.00166263
0.00133182
-0.00188538
0.00154234
-0.00208249
0.00174269
-0.00225138
0.00192893
-0.00239179
0.00209876
-0.00250523
0.00225135
-0.00259443
0.00238706
-0.00266276
0.00250708
-0.00271382
0.00261314
-0.00275111
0.00270724
-0.0027778
-0.00279632
0.00279176
1.36229e-05
-1.67903e-05
5.8333e-05
-0.000133411
0.000136664
-0.000313577
0.000249143
-0.000541139
0.000393829
-0.000800915
0.000566173
-0.00107771
0.000759393
-0.00135688
0.000965301
-0.00162535
0.00117538
-0.00187271
0.0013818
-0.0020918
0.0015782
-0.00227889
0.00176008
-0.00243326
0.00192484
-0.00255655
0.00207161
-0.002652
0.00220085
-0.00272367
0.00231398
-0.00277589
0.00241296
-0.0028128
0.00249998
-0.00283813
0.00257723
-0.00285505
-0.00286611
0.00264701
1.60218e-05
-3.28121e-05
6.69994e-05
-0.000184388
0.00015447
-0.000401048
0.000277563
-0.000664233
0.000432514
-0.000955866
0.000612753
-0.00125795
0.000809674
-0.0015538
0.00101385
-0.00182953
0.00121632
-0.00207518
0.00140966
-0.00228514
0.00158852
-0.00245775
0.0017498
-0.00259453
0.00189239
-0.00269914
0.00201675
-0.00277637
0.00212445
-0.00283137
0.00221763
-0.00286907
0.00229866
-0.00289384
0.00236989
-0.00290936
0.00243346
-0.00291861
-0.00292404
0.00249139
1.85457e-05
-5.13578e-05
7.58566e-05
-0.000241699
0.000172139
-0.00049733
0.000304772
-0.000796866
0.000467895
-0.00111899
0.000652868
-0.00144292
0.000849498
-0.00175043
0.00104761
-0.00202763
0.00123842
-0.00226599
0.00141544
-0.00246216
0.00157473
-0.00261705
0.00171475
-0.00273455
0.00183579
-0.00282018
0.00193945
-0.00288003
0.00202805
-0.00291996
0.00210413
-0.00294515
0.0021702
-0.00295991
0.0022285
-0.00296766
0.00228095
-0.00297106
-0.00297233
0.00232923
2.1149e-05
-7.25068e-05
8.46982e-05
-0.000305248
0.000189171
-0.000601802
0.00032987
-0.000937565
0.000498672
-0.00128779
0.000684977
-0.00162923
0.000877418
-0.00194287
0.00106565
-0.00221587
0.00124167
-0.00244201
0.00140034
-0.00262083
0.00153933
-0.00275604
0.00165858
-0.00285379
0.0017596
-0.0029212
0.00184479
-0.00296523
0.0019169
-0.00299207
0.00197859
-0.00300685
0.00203227
-0.00301359
0.00207995
-0.00301533
0.00212325
-0.00301436
-0.00301258
0.00216351
2.37774e-05
-9.62842e-05
9.32957e-05
-0.000374767
0.000205046
-0.000713553
0.000351988
-0.00108451
0.000523704
-0.00145951
0.000707918
-0.00181344
0.000892624
-0.00212757
0.00106792
-0.00239117
0.00122703
-0.00260112
0.00136644
-0.00276024
0.0014854
-0.002875
0.00158517
-0.00295356
0.00166816
-0.00300419
0.00173725
-0.00303432
0.00179534
-0.00305015
0.00184499
-0.0030565
0.00188837
-0.00305697
0.00192719
-0.00305415
0.00196277
-0.00304994
-0.00304592
0.00199611
2.63699e-05
-0.000122654
0.000101408
-0.000449804
0.00021925
-0.000831395
0.000370341
-0.0012356
0.000542088
-0.00163125
0.000720974
-0.00199233
0.000894944
-0.00230154
0.00105507
-0.00255129
0.00119613
-0.00274218
0.00131629
-0.00288039
0.00141624
-0.00297495
0.00149826
-0.00303558
0.00156534
-0.00307127
0.00162058
-0.00308956
0.00166678
-0.00309635
0.0017063
-0.00309602
0.00174098
-0.00309165
0.00177223
-0.0030854
0.00180107
-0.00307878
-0.0030731
0.00182825
2.886e-05
-0.000151514
0.00010879
-0.000529735
0.000231305
-0.00095391
0.000384279
-0.00138857
0.000553217
-0.00180019
0.000723893
-0.00216301
0.000884778
-0.00246243
0.00102833
-0.00269484
0.00115103
-0.00286488
0.00125262
-0.00298199
0.001335
-0.00305733
0.00140115
-0.00310174
0.00145437
-0.00312449
0.00149773
-0.00313291
0.00153381
-0.00313243
0.00156465
-0.00312686
0.00159181
-0.0031188
0.00161638
-0.00310997
0.00163915
-0.00310156
-0.00309462
0.00166067
3.11796e-05
-0.000182694
0.000115211
-0.000613765
0.000240796
-0.00107949
0.00039332
-0.0015411
0.000556794
-0.00196367
0.00071685
-0.00232306
0.000862981
-0.00260856
0.000989285
-0.00282115
0.00109395
-0.00296955
0.00117811
-0.00306614
0.00124454
-0.00312376
0.00129667
-0.00315387
0.00133785
-0.00316567
0.00137096
-0.00316602
0.00139829
-0.00315976
0.00142156
-0.00315014
0.00144201
-0.00313925
0.00146051
-0.00312847
0.00147766
-0.0031187
-0.00311077
0.00149381
3.32611e-05
-0.000215955
0.000120459
-0.000700963
0.000247394
-0.00120643
0.00039718
-0.00169088
0.000552826
-0.00211931
0.000700376
-0.00247061
0.000830725
-0.00273891
0.000939721
-0.00293014
0.00102713
-0.00305696
0.0010952
-0.00313421
0.00114732
-0.00317589
0.00118711
-0.00319366
0.00121779
-0.00319634
0.00124195
-0.00319019
0.00126157
-0.00317938
0.00127806
-0.00316662
0.00129238
-0.00315357
0.0013052
-0.0031413
0.00131698
-0.00313048
-0.00312175
0.00132796
3.50445e-05
-0.000250999
0.000124364
-0.000790282
0.000250882
-0.00133295
0.000395779
-0.00183578
0.000541601
-0.00226513
0.000675289
-0.0026043
0.000789383
-0.002853
0.000881456
-0.00302221
0.000952647
-0.00312815
0.00100605
-0.00318761
0.00104541
-0.00321525
0.00107431
-0.00322256
0.00109573
-0.00321776
0.00111196
-0.00320641
0.00112463
-0.00319205
0.00113486
-0.00317686
0.00114343
-0.00316214
0.00115084
-0.00314871
0.00115741
-0.00313705
-0.00312767
0.00116333
3.64668e-05
-0.000287466
0.000126776
-0.000880592
0.000251122
-0.00145729
0.000389181
-0.00197384
0.000523576
-0.00239953
0.000642531
-0.00272326
0.000740341
-0.00295081
0.000816187
-0.00309806
0.000872331
-0.00318429
0.000912442
-0.00322772
0.000940402
-0.00324321
0.000959622
-0.00324178
0.00097278
-0.00323092
0.000981822
-0.00321545
0.000988082
-0.00319831
0.000992449
-0.00318122
0.00099551
-0.0031652
0.000997652
-0.00315085
0.000999121
-0.00313852
-0.00312858
0.00100004
3.74834e-05
-0.00032495
0.000127613
-0.000970721
0.000248109
-0.00157779
0.000377641
-0.00210337
0.000499404
-0.00252129
0.000603177
-0.00282703
0.000685012
-0.00303265
0.000745509
-0.00315856
0.000787799
-0.00322658
0.00081589
-0.00325581
0.000833617
-0.00326094
0.000844134
-0.0032523
0.000849786
-0.00323657
0.000852192
-0.00321786
0.000852422
-0.00319854
0.000851167
-0.00317997
0.000848877
-0.00316291
0.000845849
-0.00314782
0.000842267
-0.00313494
-0.00312453
0.000838214
3.80573e-05
-0.000363007
0.000126828
-0.00105949
0.000241922
-0.00169288
0.000361522
-0.00222297
0.000469819
-0.00262959
0.000558305
-0.00291551
0.000624706
-0.00309905
0.000670821
-0.00320467
0.000700399
-0.00325616
0.000717588
-0.003273
0.000726054
-0.00326941
0.00072864
-0.00325488
0.000727352
-0.00323528
0.000723517
-0.00321403
0.000717977
-0.003193
0.000711264
-0.00317325
0.00070372
-0.00315537
0.000695577
-0.00313968
0.000686975
-0.00312634
-0.00311553
0.000677975
3.81633e-05
-0.00040117
0.000124426
-0.00114575
0.000232725
-0.00180118
0.000341273
-0.00233152
0.000435595
-0.00272391
0.000508958
-0.00298888
0.000560612
-0.0031507
0.000593323
-0.00323738
0.000611238
-0.00327408
0.000618485
-0.00328024
0.000618479
-0.0032694
0.000613727
-0.00325013
0.000605918
-0.00322748
0.000596121
-0.00320423
0.000584987
-0.00318187
0.00057292
-0.00316119
0.000560184
-0.00314263
0.000546958
-0.00312645
0.000533355
-0.00311274
-0.00310159
0.000519422
3.77884e-05
-0.000438959
0.000120448
-0.00122841
0.000220744
-0.00190148
0.000317398
-0.00242817
0.000397512
-0.00280403
0.000456107
-0.00304747
0.000493778
-0.00318837
0.000514028
-0.00325763
0.000521211
-0.00328126
0.00051932
-0.00327835
0.000511467
-0.00326155
0.000499828
-0.00323849
0.000485803
-0.00321345
0.000470236
-0.00318866
0.000453627
-0.00316526
0.000436276
-0.00314384
0.000418385
-0.00312474
0.000400096
-0.00310816
0.000381505
-0.00309414
-0.00308274
0.000362652
3.69315e-05
-0.00047589
0.000114975
-0.00130646
0.000206252
-0.00199276
0.000290421
-0.00251234
0.000356316
-0.00286992
0.000400634
-0.00309179
0.000425109
-0.00321285
0.000433772
-0.0032663
0.000431034
-0.00327852
0.000420665
-0.00326798
0.000405454
-0.00324634
0.000387264
-0.0032203
0.000367238
-0.00319342
0.000346037
-0.00316746
0.000324032
-0.00314325
0.000301442
-0.00312125
0.00027842
-0.00310172
0.000255082
-0.00308483
0.000231513
-0.00307058
-0.00305898
0.000207754
3.56021e-05
-0.000511492
0.000108114
-0.00137897
0.000189551
-0.00207419
0.000260866
-0.00258366
0.000312709
-0.00292177
0.00034332
-0.0031224
0.000355372
-0.0032249
0.000353242
-0.00326417
0.000341272
-0.00326655
0.000322958
-0.00324967
0.000300766
-0.00322415
0.00027627
-0.0031958
0.000250396
-0.00316755
0.00022365
-0.00314072
0.000196302
-0.00311591
0.000168505
-0.00309345
0.00014037
-0.00307359
0.000111994
-0.00305645
8.34573e-05
-0.00304204
-0.00303033
5.48081e-05
3.38198e-05
-0.000545312
9.99956e-05
-0.00144515
0.000170956
-0.00214515
0.000229241
-0.00264194
0.000267327
-0.00295985
0.000284847
-0.00313992
0.000285214
-0.00322527
0.000272994
-0.00325195
0.00025237
-0.00324593
0.000226537
-0.00322384
0.000197649
-0.00319526
0.000167024
-0.00316518
0.000135404
-0.00313593
0.000103172
-0.00310848
7.05163e-05
-0.00308325
3.75338e-05
-0.00306047
4.30031e-06
-0.00304035
-2.91042e-05
-0.00302305
-6.25959e-05
-0.00300855
-0.00299681
-9.61162e-05
3.16125e-05
-0.000576924
9.07634e-05
-0.0015043
0.000150786
-0.00220517
0.000196024
-0.00268718
0.000220744
-0.00298457
0.000225802
-0.00314498
0.000215173
-0.00321464
0.00019348
-0.00323025
0.000164685
-0.00321713
0.000131668
-0.00319082
9.62936e-05
-0.00315988
5.96596e-05
-0.00312855
2.23582e-05
-0.00309863
-1.53243e-05
-0.0030708
-5.32672e-05
-0.00304531
-9.14206e-05
-0.00302231
-0.000129742
-0.00300203
-0.000168166
-0.00298462
-0.0002066
-0.00297011
-0.00295844
-0.000244969
2.90147e-05
-0.000605939
8.05716e-05
-0.00155585
0.000129353
-0.00225396
0.00016166
-0.00271949
0.000173469
-0.00299638
0.000166689
-0.0031382
0.000145697
-0.00319364
0.000115068
-0.00319962
7.84999e-05
-0.00318057
3.85622e-05
-0.00315088
-3.14547e-06
-0.00311817
-4.57116e-05
-0.00308598
-8.86624e-05
-0.00305568
-0.000131785
-0.00302768
-0.00017501
-0.00300208
-0.00021833
-0.00297899
-0.000261736
-0.00295862
-0.000305177
-0.00294118
-0.00034855
-0.00292674
-0.00291524
-0.000391753
2.60666e-05
-0.000632006
6.95781e-05
-0.00159937
0.000106957
-0.00229133
0.000126553
-0.00273908
0.000125949
-0.00299578
0.00010794
-0.00312019
7.71624e-05
-0.00316287
3.80643e-05
-0.00316053
-5.94622e-06
-0.00313656
-5.26002e-05
-0.00310423
-0.000100534
-0.00307024
-0.000148991
-0.00303752
-0.000197589
-0.00300708
-0.000246165
-0.0029791
-0.000294687
-0.00295356
-0.000343186
-0.0029305
-0.00039169
-0.00291012
-0.000440168
-0.0028927
-0.000488502
-0.00287841
-0.00286719
-0.000536552
2.28126e-05
-0.000654818
5.79409e-05
-0.00163449
8.38794e-05
-0.00231727
9.10703e-05
-0.00274627
7.8578e-05
-0.00298328
4.99248e-05
-0.00309154
9.8896e-06
-0.00312283
-3.7269e-05
-0.00311337
-8.8445e-05
-0.00308538
-0.000141653
-0.00305102
-0.00019574
-0.00301615
-0.000250078
-0.00298318
-0.000304348
-0.00295281
-0.000358419
-0.00292503
-0.000412281
-0.0028997
-0.000465995
-0.00287678
-0.000519634
-0.00285648
-0.000573199
-0.00283914
-0.00062656
-0.00282505
-0.00281423
-0.000679516
1.92998e-05
-0.000674118
4.58154e-05
-0.00166101
6.03853e-05
-0.00233184
5.55429e-05
-0.00274143
3.17015e-05
-0.00295944
-7.03417e-06
-0.0030528
-5.5843e-05
-0.00307402
-0.000110699
-0.00305851
-0.000168801
-0.00302728
-0.00022843
-0.00299139
-0.00028862
-0.00295597
-0.000348849
-0.00292296
-0.000408846
-0.00289281
-0.000468488
-0.00286539
-0.000527766
-0.00284042
-0.000586763
-0.00281778
-0.000645599
-0.00279764
-0.000704324
-0.00278041
-0.000762807
-0.00276656
-0.00275629
-0.000820753
1.5577e-05
-0.000689695
3.33519e-05
-0.00167878
3.67187e-05
-0.00233521
2.02674e-05
-0.00272498
-1.43761e-05
-0.0029248
-6.26549e-05
-0.00300452
-0.000119787
-0.00301689
-0.000182007
-0.00299629
-0.000246817
-0.00296247
-0.000312746
-0.00292546
-0.000378997
-0.00288971
-0.000445144
-0.00285681
-0.000510947
-0.00282701
-0.000576277
-0.00280006
-0.0006411
-0.0027756
-0.000705496
-0.00275339
-0.000769624
-0.00273352
-0.000833599
-0.00271644
-0.000897303
-0.00270286
-0.00269329
-0.000960303
1.16938e-05
-0.000701389
2.06934e-05
-0.00168778
1.31035e-05
-0.00232762
-1.44911e-05
-0.00269739
-5.93861e-05
-0.0028799
-0.000116687
-0.00294722
-0.000181713
-0.00295187
-0.000250981
-0.00292702
-0.000322285
-0.00289116
-0.000394387
-0.00285336
-0.000466649
-0.00281745
-0.000538735
-0.00278472
-0.000610439
-0.00275531
-0.000681618
-0.00272888
-0.000752193
-0.00270502
-0.000822198
-0.00268338
-0.000891801
-0.00266391
-0.000961194
-0.00264704
-0.00103029
-0.00263376
-0.00262503
-0.00109855
7.6994e-06
-0.000709088
7.97441e-06
-0.00168806
-1.02571e-05
-0.00230939
-4.84973e-05
-0.00265915
-0.000103091
-0.00282531
-0.000168905
-0.00288141
-0.00024141
-0.00287936
-0.00031741
-0.00285102
-0.00039498
-0.00281359
-0.000473103
-0.00277523
-0.000551291
-0.00273926
-0.000629306
-0.00270671
-0.000706995
-0.00267762
-0.000784212
-0.00265167
-0.000860827
-0.00262841
-0.0009368
-0.00260741
-0.00101227
-0.00258844
-0.00108753
-0.00257179
-0.00116255
-0.00255874
-0.0025506
-0.00123699
3.64175e-06
-0.00071273
-4.68063e-06
-0.00167974
-3.31815e-05
-0.00228089
-8.15447e-05
-0.00261078
-0.000145284
-0.00276157
-0.00021911
-0.00280758
-0.000298678
-0.00279979
-0.00038108
-0.00276862
-0.000464659
-0.00273002
-0.000548603
-0.00269129
-0.000632575
-0.00265529
-0.000716451
-0.00262283
-0.000800159
-0.00259391
-0.000883597
-0.00256823
-0.000966618
-0.00254539
-0.00104911
-0.00252492
-0.00113116
-0.00250639
-0.00121316
-0.00248979
-0.00129534
-0.00247656
-0.00246768
-0.00137825
-4.33821e-07
-0.000712296
-1.71594e-05
-0.00166301
-5.55107e-05
-0.00224254
-0.000113457
-0.00255284
-0.000185789
-0.00268924
-0.000267127
-0.00272624
-0.000353334
-0.00271359
-0.000441781
-0.00268017
-0.000531059
-0.00264074
-0.000620548
-0.0026018
-0.00071006
-0.00256578
-0.000799607
-0.00253328
-0.000889257
-0.00250426
-0.000979042
-0.00247844
-0.00106891
-0.00245552
-0.00115874
-0.00243509
-0.00124855
-0.00241658
-0.00133867
-0.00239966
-0.00142969
-0.00238555
-0.00237306
-0.00152431
-4.48553e-06
-0.000707811
-2.93631e-05
-0.00163813
-7.71101e-05
-0.00219479
-0.000144088
-0.00248586
-0.000224463
-0.00260886
-0.000312816
-0.00263789
-0.000405224
-0.00262118
-0.000499322
-0.00258608
-0.000593918
-0.00254614
-0.000688554
-0.00250717
-0.000783175
-0.00247116
-0.000877928
-0.00243853
-0.000973063
-0.00240912
-0.00106887
-0.00238264
-0.00116562
-0.00235877
-0.00126353
-0.00233718
-0.0013627
-0.00231741
-0.0014637
-0.00229866
-0.00156877
-0.00228048
-0.00227423
-0.0016676
-8.46399e-06
-0.000699347
-4.11881e-05
-0.00160541
-9.78477e-05
-0.00213813
-0.000173303
-0.0024104
-0.000261181