/*--------------------------------*- C++ -*----------------------------------*\
  =========                 |
  \\      /  F ield         | OpenFOAM: The Open Source CFD Toolbox
   \\    /   O peration     | Website:  https://openfoam.org
    \\  /    A nd           | Version:  6.0
     \\/     M anipulation  |
\*---------------------------------------------------------------------------*/
FoamFile
{
    version     2.0;
    format      ascii;
    class       volVectorField;
    location    "6";
    object      U;
}
// * * * * * * * * * * * * * * * * * * * * * * * * * * * * * * * * * * * * * //

dimensions      [0 1 -1 0 0 0 0];

internalField   nonuniform List<vector> 
4000
(
(0.11015 0.00808554 7.18092e-20)
(0.344768 0.041438 -3.92243e-20)
(0.578257 0.0974703 4.62977e-20)
(0.791517 0.159541 -3.44724e-20)
(0.970267 0.217244 -1.54605e-20)
(1.10825 0.264903 4.71224e-21)
(1.20657 0.300274 -1.51543e-20)
(1.27103 0.323734 5.44397e-20)
(1.30928 0.337164 -4.53244e-20)
(1.32883 0.342948 1.06509e-20)
(1.33598 0.343356 -7.92452e-21)
(1.33549 0.340239 -5.1591e-20)
(1.33065 0.334969 5.00399e-20)
(1.32361 0.328485 1.90489e-20)
(1.31569 0.321395 -1.89225e-20)
(1.30769 0.314072 4.44273e-20)
(1.30005 0.306723 -6.6496e-22)
(1.29304 0.299499 -4.30207e-20)
(1.2868 0.292761 3.18102e-20)
(1.28146 0.286332 1.00637e-20)
(0.125015 0.0135462 -2.51883e-20)
(0.380233 0.0578985 7.28876e-20)
(0.624745 0.123203 8.44375e-20)
(0.840156 0.191206 -3.99355e-20)
(1.01416 0.251237 6.93828e-20)
(1.1433 0.298311 1.09844e-19)
(1.23135 0.331255 -6.11668e-21)
(1.28606 0.351457 -1.89086e-20)
(1.31613 0.361529 9.31219e-20)
(1.32942 0.364277 4.54338e-20)
(1.33212 0.362141 -8.25646e-21)
(1.32866 0.356985 6.77981e-20)
(1.32194 0.350112 -7.27207e-20)
(1.31377 0.342369 1.13339e-19)
(1.30523 0.334276 -1.88869e-20)
(1.29691 0.326139 5.42421e-20)
(1.28915 0.318112 9.80484e-21)
(1.28215 0.31033 3.87446e-20)
(1.27598 0.303153 -3.68396e-20)
(1.27074 0.296271 9.02418e-21)
(0.139952 0.0201415 -3.91976e-20)
(0.41465 0.0767657 9.19939e-20)
(0.66828 0.1515 6.85552e-20)
(0.883875 0.224863 -1.04308e-20)
(1.05173 0.286372 1.07248e-19)
(1.17144 0.332074 -8.06526e-20)
(1.24942 0.362039 -6.31514e-21)
(1.2951 0.37869 7.08559e-20)
(1.31796 0.385318 2.24383e-20)
(1.32599 0.38507 3.15894e-20)
(1.32513 0.380486 -4.66985e-20)
(1.31941 0.373395 1.22067e-19)
(1.31135 0.365006 2.28564e-20)
(1.30244 0.356063 -1.08202e-19)
(1.29353 0.347004 1.58572e-19)
(1.28509 0.338069 -1.87118e-19)
(1.27735 0.32937 -8.60497e-20)
(1.27045 0.321029 1.43392e-20)
(1.26441 0.313404 8.34176e-20)
(1.25933 0.306048 -1.58213e-19)
(0.154717 0.0278671 -8.71683e-20)
(0.447441 0.0978937 -2.06214e-19)
(0.708199 0.182038 -1.78998e-19)
(0.922175 0.260086 -2.43404e-19)
(1.08278 0.322224 -1.38496e-19)
(1.19282 0.365841 -2.87099e-19)
(1.26116 0.392373 3.65154e-20)
(1.29865 0.405272 -1.52889e-19)
(1.3153 0.408432 -1.68878e-20)
(1.31901 0.405262 2.52105e-20)
(1.31538 0.398337 -5.55853e-20)
(1.30801 0.389411 6.99089e-20)
(1.29905 0.37958 1.24632e-19)
(1.28972 0.369488 -1.7491e-19)
(1.28067 0.359489 2.85844e-20)
(1.27225 0.349767 8.18085e-20)
(1.26464 0.340398 1.37099e-19)
(1.25792 0.331495 -1.18239e-19)
(1.25208 0.323414 -5.70388e-21)
(1.24722 0.315567 1.39685e-19)
(0.169062 0.0366882 -1.63869e-19)
(0.478063 0.121074 4.51098e-19)
(0.743932 0.214442 -7.91888e-20)
(0.954689 0.296425 1.06002e-19)
(1.10725 0.358368 -1.03503e-19)
(1.20765 0.399276 3.18916e-19)
(1.26698 0.422023 -5.07004e-20)
(1.29719 0.43105 3.00242e-20)
(1.30858 0.430773 -1.56956e-20)
(1.30884 0.424779 4.98947e-20)
(1.30314 0.415624 3.23661e-20)
(1.29464 0.404956 4.15229e-20)
(1.28517 0.393753 -1.17172e-19)
(1.27568 0.382552 1.72476e-19)
(1.26668 0.371636 -1.31296e-19)
(1.25841 0.361136 2.54957e-20)
(1.25102 0.351098 -8.47379e-20)
(1.24457 0.341635 1.84676e-20)
(1.23898 0.33309 2.0999e-20)
(1.2344 0.324741 -1.92721e-19)
(0.182739 0.0465397 1.11978e-20)
(0.506016 0.146041 -2.2659e-19)
(0.775011 0.248291 1.25814e-19)
(0.981176 0.333415 -4.38045e-19)
(1.12519 0.39439 2.12742e-19)
(1.2162 0.432056 -3.64802e-19)
(1.26726 0.450762 -2.86043e-19)
(1.29115 0.455869 -1.09684e-20)
(1.29821 0.452226 -9.75858e-20)
(1.29581 0.443525 -3.06034e-19)
(1.28864 0.432253 -3.8903e-20)
(1.27948 0.419934 -2.96683e-19)
(1.26981 0.407418 5.33122e-20)
(1.26038 0.395146 -4.33483e-20)
(1.25158 0.383333 2.56107e-20)
(1.24358 0.372064 -2.03724e-19)
(1.23651 0.361362 9.22061e-21)
(1.23038 0.351341 4.01167e-20)
(1.2251 0.342328 -9.64514e-20)
(1.22087 0.333474 8.3781e-20)
(0.195511 0.0573272 -9.25758e-20)
(0.530864 0.172479 4.1332e-19)
(0.801072 0.283132 3.73742e-21)
(1.00151 0.370583 -3.58523e-19)
(1.13673 0.429885 2.723e-19)
(1.21881 0.463876 1.15008e-19)
(1.26243 0.478372 2.31835e-20)
(1.28092 0.479573 -1.95697e-19)
(1.28452 0.472669 3.18162e-19)
(1.28016 0.461388 -1.88746e-19)
(1.27207 0.448114 6.69913e-20)
(1.26262 0.434228 3.21764e-19)
(1.25302 0.420457 -2.91449e-19)
(1.24386 0.407151 3.21512e-19)
(1.23539 0.39446 -2.08955e-19)
(1.22777 0.382435 -4.07802e-20)
(1.22109 0.371077 5.00086e-20)
(1.21536 0.360504 6.45765e-20)
(1.21046 0.351023 8.98167e-20)
(1.20663 0.341668 5.37132e-20)
(0.207157 0.0689287 3.67149e-20)
(0.552234 0.200033 -3.70473e-19)
(0.821859 0.31849 6.58079e-20)
(1.01567 0.407461 8.65145e-19)
(1.14208 0.464463 -7.95344e-20)
(1.2158 0.494443 2.41813e-19)
(1.25286 0.504641 1.51593e-19)
(1.26688 0.502002 2.49002e-20)
(1.26781 0.491969 -1.78331e-19)
(1.26211 0.478245 2.92925e-19)
(1.25357 0.46308 -3.57344e-20)
(1.24417 0.44771 4.52652e-19)
(1.23489 0.432741 1.76572e-19)
(1.22615 0.418436 1.12002e-19)
(1.21815 0.404893 -2.33565e-19)
(1.21101 0.392126 4.96014e-20)
(1.20481 0.380125 1.83686e-19)
(1.19953 0.369011 4.8978e-20)
(1.19507 0.359067 -2.25882e-19)
(1.19171 0.349226 -5.69565e-20)
(0.217474 0.0811972 -2.05669e-19)
(0.569828 0.228316 6.63511e-19)
(0.837213 0.353881 -3.61397e-19)
(1.02373 0.443591 -3.33771e-19)
(1.14148 0.497751 -2.91584e-19)
(1.20755 0.523476 -2.47229e-19)
(1.23893 0.529361 -3.07097e-19)
(1.24933 0.522993 3.87029e-19)
(1.24833 0.509982 -2.7893e-19)
(1.24186 0.493956 -2.29697e-20)
(1.23327 0.477016 -1.70382e-21)
(1.22421 0.460244 -5.42492e-20)
(1.21545 0.444132 -1.41927e-19)
(1.2073 0.428869 -1.60505e-19)
(1.1999 0.4145 -8.61219e-21)
(1.19332 0.401014 -3.61222e-20)
(1.18767 0.388387 -9.11284e-20)
(1.18293 0.376746 -2.91278e-20)
(1.17897 0.36635 3.00904e-20)
(1.17614 0.356048 -1.99736e-19)
(0.226288 0.0939645 3.58579e-19)
(0.583424 0.256918 3.72377e-19)
(0.847071 0.388819 -2.31687e-19)
(1.02583 0.478527 1.4281e-19)
(1.13525 0.529394 2.48639e-19)
(1.19441 0.550709 -5.28931e-20)
(1.221 0.55233 6.13313e-20)
(1.2286 0.54238 7.12086e-20)
(1.22631 0.526558 1.18896e-19)
(1.21957 0.508379 -1.40952e-19)
(1.21128 0.489774 6.87377e-20)
(1.20283 0.471682 -4.92867e-20)
(1.19478 0.454488 2.18543e-19)
(1.18737 0.438309 9.8797e-20)
(1.18066 0.423149 -2.21647e-19)
(1.17476 0.408969 1.24024e-19)
(1.16973 0.395739 6.15639e-20)
(1.16557 0.383591 -1.16916e-19)
(1.16218 0.372758 3.16762e-19)
(1.15995 0.362034 -2.35426e-19)
(0.233453 0.107045 -2.63509e-19)
(0.592878 0.285418 -3.43215e-19)
(0.851457 0.422824 2.42274e-19)
(1.02218 0.511845 -2.23122e-19)
(1.12372 0.559058 -1.95624e-20)
(1.17676 0.575891 -2.50379e-19)
(1.1994 0.573353 2.06452e-19)
(1.20495 0.559998 3.90695e-19)
(1.20197 0.541544 -5.44495e-19)
(1.19539 0.521361 2.80778e-20)
(1.18771 0.501206 2.23589e-20)
(1.18009 0.481877 -1.13314e-19)
(1.17294 0.463662 7.65135e-20)
(1.1664 0.446615 -3.40887e-20)
(1.16051 0.430702 2.32892e-19)
(1.15536 0.41586 -2.51379e-19)
(1.15103 0.402055 -9.06408e-20)
(1.14753 0.389422 2.33134e-19)
(1.14477 0.378173 -3.58144e-19)
(1.14321 0.367073 2.26202e-19)
(0.238855 0.12024 5.48691e-19)
(0.598118 0.313393 4.8777e-19)
(0.850473 0.455436 -8.16482e-20)
(1.01304 0.543146 -1.06148e-20)
(1.10723 0.586433 -2.5126e-19)
(1.15496 0.598785 1.06737e-19)
(1.17447 0.592241 5.38713e-19)
(1.17865 0.575682 -4.75291e-19)
(1.1755 0.554786 3.07641e-19)
(1.16945 0.532751 -2.83845e-20)
(1.16267 0.51116 1.93761e-19)
(1.15607 0.490678 -4.51165e-20)
(1.14998 0.471506 1.19061e-19)
(1.14445 0.453643 1.5943e-19)
(1.1395 0.43702 -8.51265e-20)
(1.13519 0.421553 1.11358e-19)
(1.13164 0.407203 -1.65039e-19)
(1.12887 0.394107 4.1965e-19)
(1.1268 0.382462 -2.69423e-19)
(1.12599 0.37104 1.94576e-19)
(0.242414 0.133342 -2.6958e-19)
(0.599145 0.340424 -5.03572e-19)
(0.844292 0.486213 -3.48247e-19)
(0.998743 0.572058 -2.63762e-20)
(1.08617 0.611233 8.4529e-20)
(1.12938 0.619174 -4.62573e-20)
(1.14651 0.608818 -3.05385e-19)
(1.14994 0.589277 -1.36748e-19)
(1.14708 0.566135 -2.55035e-19)
(1.14189 0.5424 -1.32562e-19)
(1.13624 0.519487 6.57166e-20)
(1.13086 0.497938 -3.14793e-19)
(1.12598 0.477876 -7.86385e-20)
(1.12159 0.459252 -7.977e-20)
(1.11769 0.441965 -2.50398e-19)
(1.11433 0.425912 1.1154e-19)
(1.11163 0.411046 -2.07433e-21)
(1.10964 0.397506 1.09442e-19)
(1.10835 0.385476 -4.59571e-20)
(1.10835 0.373785 -1.76472e-19)
(0.244085 0.146141 6.22975e-19)
(0.596029 0.366106 5.42385e-19)
(0.833151 0.514744 6.79725e-19)
(0.979624 0.598242 -7.04332e-20)
(1.06093 0.633198 -2.53255e-19)
(1.10038 0.636858 7.44201e-19)
(1.11584 0.622919 -3.78592e-19)
(1.11906 0.600633 4.25424e-19)
(1.11689 0.575445 -8.06667e-20)
(1.11285 0.550167 2.68697e-19)
(1.10853 0.526046 2.95191e-20)
(1.10453 0.503514 1.38972e-19)
(1.101 0.482629 -3.19508e-20)
(1.09788 0.4633 1.46327e-19)
(1.09515 0.445397 -1.28781e-19)
(1.09284 0.4288 3.162e-21)
(1.09107 0.413449 6.4532e-20)
(1.08994 0.399476 1.08706e-19)
(1.08949 0.387066 -2.04529e-20)
(1.09034 0.375163 6.66067e-20)
(0.243858 0.158425 -1.91952e-19)
(0.588901 0.390054 -5.42898e-19)
(0.817338 0.540651 -3.31007e-19)
(0.95607 0.621392 -5.82903e-19)
(1.0319 0.652098 6.33301e-19)
(1.06833 0.651658 -4.5649e-19)
(1.08275 0.634395 2.93411e-19)
(1.08626 0.609614 -1.00175e-19)
(1.08511 0.582587 -1.3067e-19)
(1.08245 0.555921 -9.35383e-20)
(1.07963 0.530706 4.82946e-20)
(1.07715 0.507276 7.14402e-20)
(1.07509 0.485632 6.45003e-20)
(1.07338 0.465649 -8.0873e-20)
(1.07194 0.447178 -6.70763e-20)
(1.07079 0.430076 2.15982e-19)
(1.07005 0.41427 -1.64711e-20)
(1.06983 0.399874 -9.78626e-20)
(1.07028 0.387094 1.30685e-21)
(1.07201 0.375063 -2.8002e-20)
(0.241755 0.169992 8.57537e-19)
(0.577949 0.411912 4.04758e-19)
(0.797187 0.563591 3.78237e-19)
(0.92849 0.641238 -2.27213e-19)
(0.999496 0.66773 2.95001e-20)
(1.03359 0.663419 3.27829e-19)
(1.04754 0.643114 4.64117e-20)
(1.05175 0.616099 1.02942e-19)
(1.05192 0.587444 1.16245e-19)
(1.05083 0.559549 1.56781e-20)
(1.04966 0.533356 7.03536e-20)
(1.0488 0.50911 -7.99439e-21)
(1.04831 0.486766 -3.01909e-20)
(1.04812 0.466175 -1.16292e-19)
(1.04811 0.44717 2.66461e-20)
(1.04825 0.429595 3.79642e-21)
(1.04864 0.413355 -4.14741e-21)
(1.04942 0.398538 7.72548e-21)
(1.05082 0.385397 -1.58127e-20)
(1.05347 0.373342 2.93307e-20)
(0.237833 0.180644 -6.18784e-19)
(0.563411 0.431352 -5.363e-19)
(0.773074 0.583266 2.6127e-19)
(0.897311 0.657548 -3.26039e-19)
(0.964129 0.679924 -2.30088e-20)
(0.996523 0.67201 5.22127e-20)
(1.01051 0.648966 -5.42638e-20)
(1.01577 0.619988 -4.17648e-20)
(1.0175 0.58992 -1.06532e-19)
(1.01813 0.560958 -6.58596e-20)
(1.0187 0.533905 -4.65117e-21)
(1.01954 0.508926 -6.76254e-20)
(1.02071 0.485938 2.0381e-20)
(1.02212 0.464775 -2.49293e-20)
(1.02366 0.445258 1.15786e-20)
(1.02525 0.427224 1.10853e-20)
(1.02692 0.410557 -2.96889e-21)
(1.02881 0.395285 -7.60319e-21)
(1.03129 0.381702 2.29063e-21)
(1.03513 0.369639 1.77725e-20)
(0.232179 0.190202 5.84573e-19)
(0.545569 0.448085 1.64008e-20)
(0.745403 0.599414 -5.28639e-20)
(0.862975 0.670129 6.38112e-20)
(0.926216 0.68854 2.40169e-19)
(0.957479 0.677322 -1.70115e-19)
(0.971941 0.651861 8.78256e-20)
(0.978563 0.6212 -1.1227e-19)
(0.982026 0.589942 4.14064e-20)
(0.984499 0.560081 -3.1859e-20)
(0.986871 0.532289 -3.23556e-21)
(0.989449 0.50666 -9.40694e-21)
(0.992292 0.483077 4.31519e-21)
(0.995362 0.461359 -8.61295e-21)
(0.998564 0.44133 -6.96065e-20)
(1.00177 0.422836 6.11477e-20)
(1.00491 0.405734 -4.80928e-20)
(1.00815 0.38992 -3.43601e-20)
(1.01212 0.375616 3.22143e-20)
(1.01765 0.363306 -4.31443e-20)
(0.224905 0.198499 -1.21985e-19)
(0.524743 0.46186 1.28816e-19)
(0.714605 0.611821 1.00304e-19)
(0.825937 0.678823 -1.52894e-19)
(0.886177 0.693469 7.8119e-20)
(0.916824 0.679277 -1.3536e-19)
(0.932141 0.651736 -1.24076e-20)
(0.940363 0.619683 -5.88e-21)
(0.945706 0.587467 -1.41673e-20)
(0.950085 0.556886 -4.73457e-20)
(0.95428 0.528485 -3.39392e-21)
(0.958573 0.502289 -1.47701e-20)
(0.963056 0.47814 6.09866e-20)
(0.967747 0.455842 -1.82248e-19)
(0.972611 0.43522 1.69542e-19)
(0.97752 0.416153 9.5034e-20)
(0.982336 0.398489 -2.76052e-20)
(0.987327 0.381902 1.29355e-20)
(0.993411 0.366399 1.68344e-19)
(1.00092 0.353483 -6.89169e-20)
(0.21615 0.205391 -3.92743e-20)
(0.501282 0.472465 1.00092e-19)
(0.68113 0.620312 -1.20133e-19)
(0.786659 0.683513 1.62584e-19)
(0.844437 0.694632 -3.07208e-23)
(0.874924 0.677819 -3.98935e-20)
(0.891414 0.648549 1.65216e-21)
(0.901432 0.615408 -2.40591e-20)
(0.908756 0.582485 2.54879e-20)
(0.915074 0.551388 2.43336e-20)
(0.921071 0.522543 1.92734e-20)
(0.927005 0.495899 -1.51468e-21)
(0.932988 0.471244 6.93509e-20)
(0.939096 0.448331 -7.4058e-20)
(0.945365 0.426948 8.50884e-20)
(0.951718 0.406958 -1.74403e-19)
(0.958066 0.388157 1.99768e-19)
(0.964869 0.369897 -1.73047e-19)
(0.973134 0.351924 -1.09791e-19)
(0.981737 0.337713 1.9675e-19)
(0.206074 0.210753 6.5138e-20)
(0.475559 0.479733 1.18861e-20)
(0.64544 0.624759 2.68491e-20)
(0.745607 0.684115 2.74248e-21)
(0.801419 0.691978 -2.24446e-20)
(0.832145 0.672915 1.04502e-20)
(0.850077 0.642277 -8.51714e-20)
(0.862046 0.608364 5.62718e-20)
(0.871425 0.575006 6.49604e-20)
(0.879702 0.543632 -9.9589e-20)
(0.887471 0.514567 1.26873e-19)
(0.894958 0.487699 -4.64026e-20)
(0.902269 0.462763 1.00816e-19)
(0.909479 0.439453 -1.59042e-19)
(0.916639 0.417474 3.33901e-19)
(0.923707 0.39657 -7.2368e-20)
(0.930708 0.376323 -1.98742e-20)
(0.938329 0.355455 2.2687e-19)
(0.947354 0.332017 -1.09497e-19)
(0.952709 0.308602 5.4562e-20)
(0.194852 0.214483 -3.71377e-21)
(0.447963 0.483535 -5.57498e-20)
(0.608005 0.625072 -2.55591e-20)
(0.703246 0.680579 -4.57951e-22)
(0.757545 0.685482 -6.21428e-21)
(0.788858 0.664551 -1.12128e-19)
(0.808453 0.632912 1.67242e-19)
(0.822497 0.598548 1.33415e-20)
(0.833991 0.565031 -1.92134e-20)
(0.844246 0.533635 5.61267e-21)
(0.853786 0.504604 6.49144e-20)
(0.862808 0.477791 1.13713e-19)
(0.871393 0.45293 6.63913e-20)
(0.879577 0.429733 -1.60419e-19)
(0.887348 0.407945 -4.92773e-20)
(0.894645 0.387374 -3.65327e-21)
(0.901579 0.36775 3.32473e-20)
(0.908759 0.348374 5.87293e-21)
(0.916123 0.328531 3.55359e-19)
(0.91893 0.310385 -2.4727e-19)
(0.18267 0.216501 6.23748e-20)
(0.418892 0.48378 1.8751e-20)
(0.569295 0.621199 -8.50424e-20)
(0.660039 0.672888 2.27694e-19)
(0.713232 0.675144 6.90065e-20)
(0.745427 0.652731 -1.69558e-19)
(0.766866 0.620457 1.66552e-19)
(0.783077 0.58596 -4.34294e-20)
(0.796729 0.55256 1.54465e-19)
(0.808982 0.521387 7.61307e-20)
(0.820309 0.492614 -3.35122e-19)
(0.830899 0.466068 -3.71335e-20)
(0.840838 0.441478 4.76373e-19)
(0.850163 0.418564 -5.85115e-19)
(0.858851 0.397081 5.41217e-19)
(0.866836 0.376828 1.89958e-19)
(0.874189 0.357524 -6.6937e-19)
(0.881324 0.338583 3.27051e-19)
(0.88806 0.319703 -6.52576e-20)
(0.890843 0.303323 7.80814e-20)
(0.169725 0.216749 -1.97067e-19)
(0.388752 0.480419 -2.08352e-19)
(0.529779 0.613126 1.41617e-19)
(0.61644 0.661055 -1.9395e-19)
(0.668889 0.660988 -5.62734e-19)
(0.702213 0.63748 -2.67141e-20)
(0.725634 0.604932 -1.70096e-19)
(0.74408 0.570614 2.43027e-21)
(0.759914 0.537605 -3.54307e-19)
(0.77417 0.506902 -3.61104e-19)
(0.787282 0.478623 -2.51252e-19)
(0.799436 0.45258 -1.11093e-20)
(0.810728 0.428507 -6.14477e-19)
(0.821208 0.406145 -9.35663e-21)
(0.830882 0.385279 3.01599e-19)
(0.839718 0.365746 -2.98887e-19)
(0.8478 0.347324 -2.33705e-19)
(0.855464 0.329568 2.25318e-19)
(0.86252 0.312295 -1.60716e-19)
(0.866064 0.297427 3.08974e-20)
(0.156219 0.215192 1.78683e-19)
(0.357944 0.47344 1.38141e-19)
(0.489917 0.600877 -9.97189e-21)
(0.572891 0.645125 -1.33539e-19)
(0.624915 0.643064 2.97708e-19)
(0.659568 0.618842 5.00946e-19)
(0.685072 0.586369 -5.39585e-20)
(0.705792 0.552533 5.32057e-21)
(0.72382 0.520174 9.38537e-20)
(0.740086 0.490171 2.25438e-19)
(0.754994 0.462595 3.30659e-19)
(0.76874 0.437248 -2.7134e-19)
(0.781433 0.413871 2.63221e-19)
(0.793141 0.392217 -9.41031e-20)
(0.803893 0.372087 3.10123e-19)
(0.813689 0.353326 -1.21242e-19)
(0.822639 0.335737 -3.0448e-19)
(0.831083 0.318973 1.80994e-19)
(0.838859 0.302968 -2.61735e-19)
(0.843436 0.289339 -2.96196e-19)
(0.142357 0.211816 9.48258e-20)
(0.326867 0.462865 1.64553e-19)
(0.450157 0.584512 -1.71748e-19)
(0.529822 0.625172 2.98588e-21)
(0.581694 0.621445 2.96831e-20)
(0.617829 0.596878 2.50817e-19)
(0.64548 0.564819 -3.66849e-19)
(0.668487 0.531753 3.4747e-19)
(0.688699 0.500291 -3.59155e-20)
(0.70696 0.471205 9.45295e-20)
(0.72366 0.444526 1.55629e-19)
(0.739003 0.420052 -2.97193e-19)
(0.753124 0.397531 1.39916e-19)
(0.766115 0.376733 1.33871e-19)
(0.778029 0.35747 4.98024e-20)
(0.788898 0.339597 -2.54523e-19)
(0.798859 0.322932 8.56975e-19)
(0.808244 0.307178 -4.81865e-19)
(0.81689 0.292302 8.71736e-19)
(0.822551 0.279644 -5.67825e-20)
(0.128341 0.206631 7.35724e-20)
(0.295908 0.448753 4.02387e-19)
(0.410932 0.564121 1.4687e-19)
(0.487643 0.6013 2.96282e-19)
(0.539594 0.59623 8.01588e-20)
(0.577321 0.571675 -4.81723e-19)
(0.607149 0.540351 7.4941e-19)
(0.632428 0.508329 3.9114e-19)
(0.654795 0.477997 1.70163e-20)
(0.675022 0.450029 5.06376e-19)
(0.693491 0.424424 8.42958e-20)
(0.710423 0.400977 5.27349e-20)
(0.725976 0.379446 3.02214e-19)
(0.740265 0.359612 -1.13975e-19)
(0.75337 0.341296 -1.17887e-19)
(0.765355 0.324357 7.04079e-19)
(0.77638 0.308626 -5.86146e-19)
(0.786766 0.293844 2.26122e-20)
(0.796343 0.279997 7.42691e-19)
(0.803113 0.268183 -8.14705e-22)
(0.11437 0.199663 -8.76481e-19)
(0.265444 0.431194 -1.39396e-19)
(0.372655 0.539831 -1.96279e-19)
(0.446748 0.57364 -1.52259e-19)
(0.498963 0.56754 -3.9127e-19)
(0.538352 0.54334 1.33793e-19)
(0.570352 0.513056 -1.89076e-19)
(0.597862 0.482335 5.77079e-20)
(0.622333 0.45335 -2.73843e-19)
(0.644478 0.426686 -2.55874e-19)
(0.664678 0.402318 5.66895e-20)
(0.683172 0.380039 -4.17114e-19)
(0.700141 0.359619 3.35553e-19)
(0.715724 0.340848 -1.21347e-19)
(0.730027 0.323557 3.76415e-19)
(0.743138 0.307607 -8.12585e-19)
(0.755235 0.292837 -1.5474e-19)
(0.766623 0.279019 -2.91717e-19)
(0.77713 0.266144 -7.8118e-19)
(0.784995 0.2551 -1.26077e-19)
(0.10064 0.190959 1.41533e-19)
(0.235832 0.41031 -1.44352e-20)
(0.335721 0.511796 -2.25365e-19)
(0.407505 0.542352 7.99506e-20)
(0.460134 0.535523 -1.61636e-19)
(0.501214 0.512 -1.77388e-21)
(0.535346 0.483042 2.18831e-19)
(0.565022 0.453863 -3.27809e-19)
(0.591524 0.426429 1.2682e-19)
(0.61552 0.401242 -7.36951e-20)
(0.637393 0.378259 2.07712e-20)
(0.657402 0.357277 -3.66258e-19)
(0.675749 0.338075 -4.44326e-19)
(0.692597 0.320455 -1.70075e-20)
(0.708073 0.304254 4.94422e-19)
(0.722289 0.28934 2.25706e-20)
(0.735434 0.27556 6.24279e-19)
(0.747795 0.262712 -9.10619e-19)
(0.759205 0.250785 4.83366e-19)
(0.768136 0.240486 8.34468e-19)
(0.0873343 0.180586 -1.28607e-19)
(0.207412 0.386252 6.90229e-20)
(0.3005 0.480201 4.50132e-19)
(0.370263 0.50762 1.11813e-19)
(0.423414 0.500349 -1.49878e-19)
(0.466177 0.477806 1.18813e-19)
(0.502375 0.450442 4.66089e-19)
(0.534124 0.423029 -3.7905e-19)
(0.562565 0.397332 3.50514e-20)
(0.588326 0.373783 -1.38109e-19)
(0.611796 0.352322 4.98688e-19)
(0.633255 0.332754 3.56045e-19)
(0.652924 0.314869 -5.18006e-20)
(0.670987 0.298481 -5.38453e-19)
(0.687592 0.283436 2.90837e-20)
(0.702869 0.269607 -6.62528e-20)
(0.717015 0.25685 3.16062e-19)
(0.730298 0.24499 5.13148e-19)
(0.74257 0.234006 4.4719e-19)
(0.752522 0.224451 -7.48508e-19)
(0.0746306 0.168626 -8.17362e-20)
(0.180504 0.359198 3.47986e-19)
(0.267337 0.445257 -3.38019e-19)
(0.335345 0.469656 4.72571e-19)
(0.38909 0.462211 -2.55435e-19)
(0.433496 0.440931 1.84944e-19)
(0.471662 0.415406 4.66413e-19)
(0.505371 0.389965 -5.61965e-19)
(0.535637 0.366179 2.55948e-19)
(0.563059 0.344414 3.23283e-19)
(0.588035 0.324602 -4.38454e-19)
(0.61086 0.306555 -3.02204e-20)
(0.631778 0.290079 -3.50093e-19)
(0.650989 0.275 5.62793e-19)
(0.668661 0.261173 -3.04262e-19)
(0.684938 0.248477 3.2653e-19)
(0.700024 0.236782 -5.84835e-20)
(0.714168 0.225934 2.01888e-19)
(0.727246 0.215902 4.62169e-20)
(0.738167 0.207109 -1.17437e-19)
(0.0626939 0.155176 -2.52738e-19)
(0.155404 0.329351 -5.78161e-19)
(0.236551 0.407202 1.52078e-19)
(0.303048 0.428692 -4.87557e-19)
(0.357427 0.421324 -4.62222e-19)
(0.403401 0.401565 -3.32442e-19)
(0.443413 0.378106 2.58712e-19)
(0.478946 0.354825 1.98648e-19)
(0.510907 0.333107 -1.10961e-21)
(0.539872 0.313261 -1.72881e-19)
(0.566244 0.295213 -3.12485e-19)
(0.590339 0.278788 2.81095e-19)
(0.612417 0.263805 -9.68769e-20)
(0.632696 0.250105 -4.77213e-19)
(0.651358 0.237555 3.09866e-19)
(0.668564 0.226041 -2.32743e-19)
(0.684516 0.215447 -9.4575e-20)
(0.699449 0.205638 -2.64822e-19)
(0.713273 0.196576 -2.38926e-19)
(0.725099 0.188573 6.19648e-20)
(0.0516772 0.140352 2.20569e-19)
(0.132383 0.29694 1.13782e-19)
(0.208432 0.366298 1.7461e-19)
(0.273642 0.384984 -5.97939e-19)
(0.328665 0.377921 6.39606e-19)
(0.376105 0.359919 2.00163e-21)
(0.417817 0.338729 4.89606e-21)
(0.455021 0.317779 -3.88578e-19)
(0.488529 0.298272 3.62399e-19)
(0.5189 0.280467 -2.52436e-19)
(0.546548 0.264287 7.5321e-20)
(0.571802 0.249573 -3.36697e-19)
(0.59494 0.236161 -1.59939e-19)
(0.616194 0.223907 -7.60669e-20)
(0.63576 0.212689 5.74551e-19)
(0.653811 0.202404 -2.81749e-19)
(0.670549 0.19295 -2.54069e-19)
(0.686194 0.18421 2.60504e-19)
(0.700696 0.17614 -2.13759e-19)
(0.713353 0.168963 1.66599e-19)
(0.0417196 0.12428 4.72408e-19)
(0.111687 0.262212 -2.85411e-19)
(0.183243 0.322826 4.25573e-20)
(0.247372 0.338807 4.98717e-19)
(0.303018 0.332255 1.98312e-19)
(0.351798 0.316219 2.45214e-19)
(0.395043 0.297481 2.43946e-19)
(0.433745 0.279012 5.16629e-19)
(0.468639 0.261845 -1.18162e-19)
(0.50027 0.246188 2.82237e-19)
(0.529059 0.231971 4.09341e-19)
(0.555351 0.219049 1.50556e-19)
(0.579437 0.207278 2.72084e-19)
(0.601564 0.196529 9.85232e-20)
(0.621938 0.186695 5.75677e-20)
(0.640743 0.177684 -4.18941e-20)
(0.65818 0.169407 3.35675e-19)
(0.674457 0.161766 2.06435e-19)
(0.689562 0.154711 -1.87856e-19)
(0.70297 0.148396 1.77134e-19)
(0.0329455 0.1071 -3.14262e-19)
(0.0935342 0.225436 3.50465e-20)
(0.161215 0.27709 -9.06335e-20)
(0.22445 0.290453 -2.75574e-19)
(0.280677 0.284594 -1.45409e-19)
(0.330647 0.270708 -2.64714e-19)
(0.37524 0.25458 1.23377e-19)
(0.415254 0.238726 -4.75198e-19)
(0.45136 0.224008 2.80563e-19)
(0.484091 0.210597 -3.87359e-19)
(0.513877 0.198424 -2.4005e-19)
(0.541076 0.187366 -3.173e-19)
(0.565991 0.177297 7.26424e-20)
(0.588879 0.168108 -7.16867e-20)
(0.609958 0.159704 8.51248e-20)
(0.62942 0.152007 4.56699e-20)
(0.647463 0.144941 9.06796e-20)
(0.664287 0.138425 -7.61106e-19)
(0.67992 0.13241 3.78412e-19)
(0.693987 0.126994 -2.26981e-19)
(0.0254637 0.0889642 1.04255e-19)
(0.0781126 0.186898 2.10328e-19)
(0.142549 0.229408 -1.37105e-19)
(0.205062 0.24023 3.38724e-19)
(0.261807 0.23522 -5.39472e-20)
(0.312798 0.223642 3.91467e-19)
(0.358538 0.21026 7.58473e-20)
(0.399665 0.197133 -7.91744e-20)
(0.436797 0.18496 2.88378e-19)
(0.470459 0.173874 2.19921e-19)
(0.501089 0.163817 8.15485e-20)
(0.529056 0.154685 1.06979e-19)
(0.554672 0.146372 5.3531e-20)
(0.578204 0.138788 -2.27252e-19)
(0.599879 0.131854 -3.14494e-20)
(0.619897 0.125507 2.36454e-19)
(0.638451 0.119683 -1.61568e-19)
(0.655734 0.114317 -7.76333e-21)
(0.671813 0.109362 -3.37125e-19)
(0.686442 0.10488 6.78661e-19)
(0.019366 0.0700317 2.80258e-19)
(0.0655821 0.146897 -3.35845e-19)
(0.127412 0.180113 1.57675e-19)
(0.189364 0.18846 -2.22498e-19)
(0.246544 0.184428 1.96518e-19)
(0.298372 0.175287 -3.40644e-19)
(0.345045 0.164763 -2.49235e-19)
(0.387075 0.154456 1.86251e-20)
(0.425038 0.144906 -3.38909e-19)
(0.459455 0.136214 -2.11209e-19)
(0.490769 0.128331 -3.64969e-19)
(0.519358 0.121174 -1.19789e-20)
(0.545542 0.114662 -1.41313e-19)
(0.569595 0.108722 3.57664e-19)
(0.591753 0.103294 2.45956e-19)
(0.612219 0.0983251 -8.27349e-20)
(0.631185 0.0937686 -7.46626e-20)
(0.64884 0.0895732 -3.39383e-21)
(0.665279 0.085699 9.25456e-21)
(0.680367 0.0821799 1.34289e-19)
(0.0147269 0.0504716 -7.01213e-20)
(0.0560711 0.105746 -2.40023e-19)
(0.115941 0.129552 -1.49571e-19)
(0.177482 0.135476 -9.35425e-20)
(0.235001 0.132522 -1.93663e-19)
(0.287466 0.12592 3.31532e-19)
(0.334849 0.118341 -3.5689e-20)
(0.377563 0.110927 -7.97079e-20)
(0.416156 0.104062 3.21395e-21)
(0.451145 0.0978159 2.33475e-19)
(0.482977 0.0921524 -2.21562e-19)
(0.512036 0.0870119 2.16477e-19)
(0.53865 0.0823353 1.01419e-19)
(0.563098 0.0780708 -1.84696e-19)
(0.585621 0.0741741 4.03698e-20)
(0.606426 0.0706081 1.18394e-19)
(0.625704 0.067339 4.10256e-20)
(0.643638 0.0643307 -2.87411e-20)
(0.66035 0.0615524 -2.48233e-19)
(0.675787 0.0590212 1.97605e-19)
(0.0116028 0.0304586 6.33161e-20)
(0.0496767 0.0637667 7.67596e-20)
(0.108237 0.07808 2.15718e-20)
(0.169508 0.0816175 -1.62174e-20)
(0.227259 0.0798158 4.63354e-20)
(0.280155 0.0758257 7.07661e-20)
(0.328015 0.0712534 2.68313e-20)
(0.371189 0.0667848 3.27188e-20)
(0.410205 0.0626489 -6.92989e-20)
(0.445577 0.0588863 1.29864e-19)
(0.477757 0.0554755 -3.06307e-20)
(0.507132 0.0523801 -2.45897e-21)
(0.534035 0.0495644 3.10109e-20)
(0.558748 0.0469972 3.49458e-20)
(0.581516 0.0446518 -9.36992e-20)
(0.602548 0.0425057 6.1728e-20)
(0.622034 0.0405388 4.04138e-20)
(0.640155 0.0387294 3.44773e-20)
(0.657052 0.0370583 7.37396e-20)
(0.672724 0.0355329 3.0476e-20)
(0.0100315 0.0101721 -1.29686e-20)
(0.0464639 0.0212874 2.69454e-20)
(0.104368 0.0260579 -3.76798e-20)
(0.165506 0.0272323 2.36738e-20)
(0.223375 0.0266265 1.38706e-20)
(0.276488 0.0252922 6.20296e-21)
(0.324588 0.0237648 1.46521e-20)
(0.367993 0.0222727 -4.19743e-20)
(0.407221 0.0208921 2.67657e-20)
(0.442786 0.0196363 9.35835e-21)
(0.47514 0.018498 -5.27334e-22)
(0.504674 0.017465 5.72265e-20)
(0.531721 0.0165256 -1.73824e-20)
(0.556568 0.0156691 -1.66196e-20)
(0.579459 0.0148867 -1.59377e-20)
(0.600605 0.0141708 2.47453e-21)
(0.620195 0.0135149 -2.123e-20)
(0.63841 0.0129116 4.06905e-21)
(0.655399 0.0123544 7.96391e-22)
(0.67119 0.0118453 -2.68982e-21)
(0.0100322 -0.0102058 8.23508e-21)
(0.0464653 -0.0213589 -4.38221e-20)
(0.10437 -0.0261477 5.22105e-20)
(0.165508 -0.0273289 -3.92224e-20)
(0.223377 -0.026724 -1.82776e-20)
(0.27649 -0.0253879 5.47193e-20)
(0.32459 -0.0238578 4.54878e-21)
(0.367995 -0.0223629 1.25247e-21)
(0.407223 -0.0209794 2.54564e-20)
(0.442788 -0.0197209 1.31326e-20)
(0.475142 -0.01858 -1.04008e-20)
(0.504676 -0.0175446 -3.63595e-20)
(0.531723 -0.0166028 3.48877e-21)
(0.556569 -0.015744 -3.13834e-21)
(0.57946 -0.0149595 3.37903e-20)
(0.600606 -0.0142416 -2.0313e-20)
(0.620197 -0.0135837 2.78033e-20)
(0.638412 -0.0129786 -4.16569e-20)
(0.655401 -0.0124196 4.88415e-23)
(0.671191 -0.0119089 -8.74831e-21)
(0.0116048 -0.0304923 -2.73551e-20)
(0.0496809 -0.0638382 1.37925e-19)
(0.108242 -0.0781697 9.28743e-20)
(0.169514 -0.081714 6.13985e-20)
(0.227265 -0.0799131 7.65589e-20)
(0.280161 -0.0759213 -1.86773e-20)
(0.328021 -0.0713463 8.4704e-20)
(0.371195 -0.0668749 1.726e-20)
(0.410211 -0.062736 -7.64907e-21)
(0.445583 -0.0589708 -6.03443e-20)
(0.477762 -0.0555574 6.24419e-20)
(0.507138 -0.0524595 -8.47093e-20)
(0.53404 -0.0496415 6.14671e-20)
(0.558753 -0.047072 7.02978e-20)
(0.581521 -0.0447245 9.28069e-20)
(0.602553 -0.0425763 -6.10702e-20)
(0.622039 -0.0406075 1.71266e-20)
(0.64016 -0.0387963 6.41461e-20)
(0.657056 -0.0371234 -6.06699e-20)
(0.672728 -0.0355963 4.57349e-20)
(0.0147302 -0.0505052 -2.64228e-19)
(0.0560781 -0.105818 -1.32584e-19)
(0.11595 -0.129642 -1.47395e-19)
(0.177491 -0.135572 -1.15877e-20)
(0.23501 -0.132619 -7.94337e-20)
(0.287476 -0.126016 -9.73074e-20)
(0.334858 -0.118433 1.71736e-19)
(0.377572 -0.111017 8.73503e-20)
(0.416165 -0.104149 1.07306e-19)
(0.451154 -0.0979001 -1.16712e-19)
(0.482986 -0.092234 8.63631e-20)
(0.512045 -0.087091 1.05087e-19)
(0.538658 -0.0824121 3.69711e-20)
(0.563107 -0.0781453 -3.51444e-20)
(0.585629 -0.0742465 7.44245e-21)
(0.606434 -0.0706785 -1.52284e-20)
(0.625711 -0.0674075 -1.47823e-19)
(0.643645 -0.0643974 2.30256e-20)
(0.660358 -0.0616173 1.43298e-19)
(0.675794 -0.0590845 -1.92431e-19)
(0.0193707 -0.0700651 -8.66736e-20)
(0.0655919 -0.146968 1.28852e-19)
(0.127425 -0.180203 2.97142e-20)
(0.189378 -0.188556 -5.54545e-20)
(0.246558 -0.184525 -1.56868e-19)
(0.298385 -0.175382 -3.3579e-19)
(0.345059 -0.164855 -3.19188e-19)
(0.387088 -0.154545 -2.2775e-20)
(0.425051 -0.144993 -1.85183e-19)
(0.459468 -0.136298 -2.76637e-19)
(0.490782 -0.128412 2.14242e-19)
(0.51937 -0.121253 -3.15904e-19)
(0.545553 -0.114738 6.23401e-20)
(0.569607 -0.108796 -2.02229e-20)
(0.591764 -0.103366 -6.5787e-20)
(0.61223 -0.0983951 -8.29043e-20)
(0.631196 -0.0938367 1.34744e-19)
(0.64885 -0.0896394 1.07409e-19)
(0.665289 -0.0857635 1.84331e-19)
(0.680377 -0.0822428 -2.75917e-19)
(0.0254697 -0.0889974 4.71069e-20)
(0.0781253 -0.186969 4.56517e-19)
(0.142565 -0.229497 1.30549e-19)
(0.20508 -0.240326 3.15557e-19)
(0.261825 -0.235316 -1.17861e-19)
(0.312816 -0.223736 1.81179e-19)
(0.358556 -0.210352 -5.6668e-20)
(0.399682 -0.197222 3.66614e-19)
(0.436813 -0.185046 -1.88371e-19)
(0.470475 -0.173958 2.21892e-19)
(0.501105 -0.163898 1.92383e-19)
(0.529071 -0.154763 2.05208e-19)
(0.554687 -0.146448 -1.83479e-19)
(0.578219 -0.138861 1.57041e-19)
(0.599894 -0.131926 -2.18311e-19)
(0.61991 -0.125576 -5.98651e-20)
(0.638464 -0.119751 -1.43092e-19)
(0.655748 -0.114383 -6.06574e-20)
(0.671826 -0.109426 2.40542e-19)
(0.686455 -0.104942 -3.98136e-19)
(0.0329529 -0.107134 -1.88352e-19)
(0.0935496 -0.225506 -2.24331e-20)
(0.161235 -0.277178 -7.49674e-20)
(0.224471 -0.290548 -2.63797e-19)
(0.280699 -0.28469 4.51788e-20)
(0.330669 -0.270802 -4.12298e-19)
(0.375262 -0.254672 -1.72733e-19)
(0.415275 -0.238815 -1.3286e-20)
(0.45138 -0.224094 -4.34013e-19)
(0.484111 -0.210679 -1.34295e-19)
(0.513896 -0.198504 -6.12498e-20)