/*--------------------------------*- C++ -*----------------------------------*\
  =========                 |
  \\      /  F ield         | OpenFOAM: The Open Source CFD Toolbox
   \\    /   O peration     | Website:  https://openfoam.org
    \\  /    A nd           | Version:  6.0
     \\/     M anipulation  |
\*---------------------------------------------------------------------------*/
FoamFile
{
    version     2.0;
    format      ascii;
    class       volVectorField;
    location    "8";
    object      U;
}
// * * * * * * * * * * * * * * * * * * * * * * * * * * * * * * * * * * * * * //

dimensions      [0 1 -1 0 0 0 0];

internalField   nonuniform List<vector> 
4000
(
(0.104166 0.00783426 6.76282e-20)
(0.328361 0.0405033 -3.6894e-20)
(0.553668 0.0960139 4.3523e-20)
(0.76172 0.158276 -3.24056e-20)
(0.938308 0.217005 -1.45459e-20)
(1.0766 0.266339 4.4183e-21)
(1.17684 0.303719 -1.42768e-20)
(1.24398 0.329222 5.1331e-20)
(1.28505 0.344514 -4.27676e-20)
(1.30721 0.351873 1.00498e-20)
(1.3166 0.353543 -7.48012e-21)
(1.31795 0.351404 -4.8806e-20)
(1.3146 0.346878 4.73671e-20)
(1.30879 0.340957 1.80578e-20)
(1.30191 0.334297 -1.79521e-20)
(1.2948 0.327309 4.2186e-20)
(1.28796 0.320225 -6.14698e-22)
(1.28169 0.313212 -4.09437e-20)
(1.27615 0.306645 3.03167e-20)
(1.27151 0.300388 9.60011e-21)
(0.118767 0.0130692 -2.37128e-20)
(0.363543 0.0564314 6.86795e-20)
(0.600291 0.121136 7.95137e-20)
(0.811143 0.189412 -3.75903e-20)
(0.983614 0.250604 6.53495e-20)
(1.11349 0.299453 1.03518e-19)
(1.20363 0.334429 -5.74598e-21)
(1.26096 0.356618 -1.78415e-20)
(1.29365 0.368446 8.79288e-20)
(1.30928 0.37264 4.29223e-20)
(1.31394 0.371641 -7.81881e-21)
(1.31207 0.367355 6.41215e-20)
(1.30664 0.361142 -6.88757e-20)
(1.29955 0.353902 1.07329e-19)
(1.29193 0.346199 -1.7906e-20)
(1.28441 0.338372 5.14584e-20)
(1.2774 0.330597 9.32402e-21)
(1.27108 0.323018 3.68547e-20)
(1.26557 0.316011 -3.50537e-20)
(1.26099 0.309302 8.54613e-21)
(0.133503 0.0194254 -3.69085e-20)
(0.397848 0.074761 8.69328e-20)
(0.644184 0.148839 6.4732e-20)
(0.855841 0.222568 -9.84434e-21)
(1.02269 0.285362 1.01237e-19)
(1.14346 0.332912 -7.6e-20)
(1.2236 0.364903 -6.00269e-21)
(1.27178 0.383469 6.69328e-20)
(1.29704 0.391741 2.1218e-20)
(1.30714 0.392819 2.98589e-20)
(1.30799 0.389262 -4.41576e-20)
(1.30364 0.382952 1.15436e-19)
(1.29671 0.375157 2.16467e-20)
(1.28876 0.366673 -1.02456e-19)
(1.28068 0.357977 1.50183e-19)
(1.27297 0.349336 -1.7735e-19)
(1.26591 0.34088 -8.16467e-20)
(1.25966 0.33274 1.35355e-20)
(1.25424 0.325285 7.92781e-20)
(1.24979 0.318107 -1.50179e-19)
(0.148133 0.0269044 -8.23938e-20)
(0.430691 0.0953598 -1.94758e-19)
(0.684655 0.178815 -1.6886e-19)
(0.895269 0.257326 -2.29839e-19)
(1.05531 0.320853 -1.30725e-19)
(1.16662 0.366365 -2.71147e-19)
(1.23711 0.394896 3.44742e-20)
(1.27694 0.409626 -1.44482e-19)
(1.29575 0.414321 -1.59458e-20)
(1.30128 0.412366 2.38279e-20)
(1.29914 0.406372 -5.25584e-20)
(1.29297 0.398154 6.6071e-20)
(1.28501 0.388867 1.17872e-19)
(1.27653 0.379202 -1.65446e-19)
(1.26824 0.369548 2.70028e-20)
(1.2605 0.360111 7.74546e-20)
(1.25352 0.350981 1.2988e-19)
(1.24741 0.342279 -1.12012e-19)
(1.24216 0.334371 -5.42691e-21)
(1.23789 0.326707 1.32415e-19)
(0.162409 0.0354777 -1.55069e-19)
(0.461515 0.118031 4.26406e-19)
(0.721105 0.210696 -7.4932e-20)
(0.92902 0.293237 1.00147e-19)
(1.08137 0.356656 -9.79213e-20)
(1.18316 0.39948 3.01464e-19)
(1.24457 0.42418 -4.79261e-20)
(1.27694 0.434947 2.83864e-20)
(1.29026 0.436098 -1.48256e-20)
(1.29212 0.43122 4.71575e-20)
(1.28771 0.422916 3.05886e-20)
(1.28027 0.412898 3.91791e-20)
(1.27168 0.4022 -1.10732e-19)
(1.26297 0.391404 1.62943e-19)
(1.25465 0.38082 -1.24052e-19)
(1.24702 0.3706 2.40374e-20)
(1.24023 0.360801 -8.00637e-20)
(1.23434 0.35154 1.74598e-20)
(1.22931 0.343171 1.98519e-20)
(1.22529 0.335012 -1.82217e-19)
(0.17608 0.0450859 1.07852e-20)
(0.489808 0.14252 -2.14408e-19)
(0.753034 0.244069 1.18866e-19)
(0.956817 0.329838 -4.14366e-19)
(1.10089 0.392356 2.01139e-19)
(1.19335 0.431938 -3.45146e-19)
(1.24638 0.452536 -2.70591e-19)
(1.27223 0.459289 -1.03705e-20)
(1.281 0.456974 -9.2257e-20)
(1.27999 0.4493 -2.89132e-19)
(1.27396 0.438812 -3.66811e-20)
(1.26572 0.427095 -2.80033e-19)
(1.25684 0.415056 5.03595e-20)
(1.24812 0.403173 -4.08519e-20)
(1.23995 0.391684 2.4114e-20)
(1.23255 0.380693 -1.92057e-19)
(1.22603 0.370231 8.78297e-21)
(1.22044 0.360414 3.78744e-20)
(1.2157 0.351582 -9.08869e-20)
(1.21199 0.342924 7.89661e-20)
(0.188908 0.05564 -8.77045e-20)
(0.515113 0.16852 3.91438e-19)
(0.780051 0.278485 3.38104e-21)
(0.978505 0.366661 -3.39616e-19)
(1.11398 0.42755 2.57701e-19)
(1.1975 0.463437 1.08814e-19)
(1.24295 0.479754 2.19212e-20)
(1.26321 0.482507 -1.84977e-19)
(1.26832 0.476838 3.00696e-19)
(1.26517 0.466507 -1.78072e-19)
(1.25807 0.453959 6.34007e-20)
(1.24945 0.440639 3.03328e-19)
(1.24057 0.427324 -2.74455e-19)
(1.23204 0.414394 3.02823e-19)
(1.22417 0.402024 -1.96678e-19)
(1.2171 0.390275 -3.84263e-20)
(1.21095 0.379159 4.7147e-20)
(1.20572 0.368793 6.06929e-20)
(1.20133 0.359496 8.42882e-20)
(1.19799 0.350344 5.04803e-20)
(0.200665 0.0670226 3.49244e-20)
(0.537041 0.195682 -3.51328e-19)
(0.801871 0.313474 6.23127e-20)
(0.994035 0.403237 8.19711e-19)
(1.12083 0.461849 -7.53852e-20)
(1.19596 0.493689 2.28948e-19)
(1.23469 0.50563 1.43394e-19)
(1.25028 0.504452 2.36099e-20)
(1.25253 0.495567 -1.68327e-19)
(1.24791 0.482725 2.76404e-19)
(1.24023 0.46824 -3.35399e-20)
(1.23156 0.453407 4.25885e-19)
(1.22293 0.438876 1.6589e-19)
(1.21478 0.42494 1.05081e-19)
(1.20733 0.411714 -2.19013e-19)
(1.2007 0.399225 4.63892e-20)
(1.19499 0.387466 1.72102e-19)
(1.1902 0.376561 4.5724e-20)
(1.18621 0.366805 -2.11376e-19)
(1.18331 0.357172 -5.32436e-20)
(0.211144 0.0790907 -1.95128e-19)
(0.555275 0.223622 6.295e-19)
(0.818309 0.348552 -3.42826e-19)
(1.00346 0.439107 -3.165e-19)
(1.12168 0.494883 -2.76307e-19)
(1.18907 0.522418 -2.34083e-19)
(1.22198 0.529965 -2.90404e-19)
(1.23377 0.524968 3.65603e-19)
(1.23392 0.513027 -2.62976e-19)
(1.22839 0.497824 -2.15989e-20)
(1.22055 0.481523 -1.75776e-21)
(1.21215 0.465264 -5.09841e-20)
(1.20398 0.449579 -1.33019e-19)
(1.19637 0.434678 -1.50086e-19)
(1.18947 0.420625 -8.05717e-21)
(1.18339 0.407416 -3.37621e-20)
(1.17819 0.395033 -8.47836e-20)
(1.1739 0.383603 -2.69228e-20)
(1.17038 0.373396 2.83067e-20)
(1.16798 0.363308 -1.85339e-19)
(0.220164 0.0916792 3.40849e-19)
(0.569575 0.251935 3.5343e-19)
(0.829281 0.383232 -2.19849e-19)
(1.0069 0.473825 1.35441e-19)
(1.11683 0.526297 2.35585e-19)
(1.17723 0.549363 -4.98395e-20)
(1.20518 0.552561 5.81037e-20)
(1.214 0.543897 6.70158e-20)
(1.21272 0.529074 1.11781e-19)
(1.20679 0.511666 -1.32249e-19)
(1.19917 0.493668 6.45455e-20)
(1.1913 0.476069 -4.57955e-20)
(1.18379 0.45929 2.03921e-19)
(1.17688 0.443468 9.15432e-20)
(1.17064 0.428622 -2.06007e-19)
(1.16519 0.41472 1.14876e-19)
(1.16059 0.401735 5.72015e-20)
(1.15686 0.389799 -1.07613e-19)
(1.15387 0.379158 2.92312e-19)
(1.15204 0.36865 -2.16614e-19)
(0.227571 0.104605 -2.50546e-19)
(0.579777 0.2802 -3.26043e-19)
(0.834793 0.417036 2.29687e-19)
(1.00455 0.506967 -2.11618e-19)
(1.10661 0.555759 -1.87365e-20)
(1.16079 0.574275 -2.36293e-19)
(1.18464 0.57323 1.95152e-19)
(1.19125 0.561079 3.66997e-19)
(1.18915 0.543561 -5.11307e-19)
(1.18327 0.524103 2.64117e-20)
(1.17619 0.504526 2.08598e-20)
(1.16909 0.485673 -1.05482e-19)
(1.16243 0.467863 7.16998e-20)
(1.15634 0.45117 -3.15757e-20)
(1.15089 0.435568 2.14239e-19)
(1.14616 0.421004 -2.31282e-19)
(1.14223 0.407444 -8.26102e-20)
(1.13913 0.395023 2.13671e-19)
(1.13674 0.383968 -3.26108e-19)
(1.13555 0.373087 2.06024e-19)
(0.233246 0.11767 5.21383e-19)
(0.585796 0.307993 4.62821e-19)
(0.834932 0.449499 -7.75333e-20)
(0.996688 0.538132 -1.00323e-20)
(1.09138 0.58296 -2.37765e-19)
(1.14012 0.596923 1.01073e-19)
(1.1607 0.591787 5.06548e-19)
(1.1658 0.576357 -4.4643e-19)
(1.16341 0.556338 2.87182e-19)
(1.15797 0.534987 -2.61437e-20)
(1.15172 0.513948 1.79593e-19)
(1.14559 0.493927 -4.26943e-20)
(1.13994 0.475153 1.0979e-19)
(1.13483 0.457639 1.45716e-19)
(1.13028 0.441325 -7.88408e-20)
(1.12636 0.426134 1.01195e-19)
(1.12318 0.412027 -1.48315e-19)
(1.12077 0.399144 3.78082e-19)
(1.11906 0.387693 -2.41219e-19)
(1.11858 0.376491 1.74123e-19)
(0.237101 0.130669 -2.55693e-19)
(0.587619 0.334895 -4.77354e-19)
(0.829857 0.480179 -3.30014e-19)
(0.983605 0.566946 -2.4627e-20)
(1.07151 0.607615 7.97429e-20)
(1.11562 0.61709 -4.36307e-20)
(1.13368 0.60806 -2.87208e-19)
(1.1379 0.589576 -1.27732e-19)
(1.13569 0.567256 -2.36868e-19)
(1.13104 0.544171 -1.20927e-19)
(1.12585 0.521787 6.01799e-20)
(1.12089 0.500685 -2.8812e-19)
(1.1164 0.481012 -7.06894e-20)
(1.1124 0.462731 -7.11332e-20)
(1.10887 0.445751 -2.24432e-19)
(1.10586 0.429972 9.97191e-20)
(1.10351 0.415349 -7.4268e-22)
(1.10186 0.40202 9.68019e-20)
(1.1009 0.390184 -4.05559e-20)
(1.1012 0.378712 -1.53097e-19)
(0.239086 0.143391 5.90926e-19)
(0.585304 0.360497 5.14308e-19)
(0.819795 0.50866 6.42405e-19)
(0.965651 0.59307 -6.66326e-20)
(1.04738 0.629465 -2.3712e-19)
(1.08763 0.634579 6.98807e-19)
(1.10389 0.621886 -3.52852e-19)
(1.1078 0.60059 3.9478e-19)
(1.10618 0.576176 -7.41193e-20)
(1.1026 0.551513 2.47064e-19)
(1.09868 0.527901 2.7348e-20)
(1.09506 0.505803 1.24658e-19)
(1.09188 0.485298 -2.8437e-20)
(1.08911 0.466306 1.2955e-19)
(1.08672 0.448706 -1.11202e-19)
(1.08474 0.432381 4.09681e-21)
(1.08328 0.417271 5.5972e-20)
(1.08246 0.403508 9.30298e-20)
(1.08232 0.391291 -1.64516e-20)
(1.08345 0.379605 5.48105e-20)
(0.239183 0.155625 -1.81854e-19)
(0.57897 0.384413 -5.12887e-19)
(0.805026 0.53456 -3.12411e-19)
(0.943207 0.616194 -5.4879e-19)
(1.01941 0.648277 5.93807e-19)
(1.05653 0.649213 -4.2432e-19)
(1.07163 0.633117 2.71379e-19)
(1.07572 0.609263 -9.35112e-20)
(1.07505 0.582964 -1.18754e-19)
(1.07278 0.556884 -8.46536e-20)
(1.07032 0.532158 4.38622e-20)
(1.06817 0.509149 6.17151e-20)
(1.06643 0.487876 5.32367e-20)
(1.06503 0.468225 -6.94423e-20)
(1.0639 0.450051 -5.42283e-20)
(1.06305 0.433218 1.7536e-19)
(1.0626 0.417651 -1.63418e-20)
(1.06267 0.403464 -7.49633e-20)
(1.0634 0.390876 2.63657e-21)
(1.06537 0.379058 -1.84409e-20)
(0.23741 0.167165 8.08705e-19)
(0.568798 0.406282 3.80772e-19)
(0.785879 0.557536 3.55969e-19)
(0.916678 0.636047 -2.12692e-19)
(0.988001 0.663851 2.6936e-20)
(1.02268 0.660835 3.04945e-19)
(1.03721 0.641623 4.1902e-20)
(1.04191 0.615476 9.06036e-20)
(1.04248 0.587507 1.01125e-19)
(1.04173 0.560169 1.09743e-20)
(1.04087 0.534446 5.73506e-20)
(1.0403 0.510608 -8.66018e-21)
(1.0401 0.488626 -2.69933e-20)
(1.04018 0.46836 -9.07911e-20)
(1.04045 0.449648 2.23671e-20)
(1.04087 0.432337 3.87867e-21)
(1.04152 0.416334 -4.98223e-21)
(1.04256 0.401724 6.0199e-21)
(1.04421 0.388772 -4.35002e-21)
(1.04709 0.376926 1.57211e-20)
(0.23382 0.177815 -5.81232e-19)
(0.555019 0.425773 -5.03018e-19)
(0.762724 0.577282 2.43225e-19)
(0.886492 0.652396 -3.01708e-19)
(0.953569 0.676014 -2.18025e-20)
(0.986452 0.669315 4.46812e-20)
(1.00092 0.647294 -4.89596e-20)
(1.0066 0.619128 -3.93052e-20)
(1.00866 0.589707 -9.13085e-20)
(1.00958 0.561275 -5.70949e-20)
(1.01042 0.534673 -9.68502e-21)
(1.01151 0.51009 -4.62568e-20)
(1.01293 0.487454 1.54848e-20)
(1.01458 0.466608 -1.79577e-20)
(1.01638 0.447377 1.00176e-20)
(1.01822 0.429603 -3.95258e-21)
(1.02012 0.413168 -1.31916e-20)
(1.02225 0.398101 -1.75655e-20)
(1.02496 0.384704 1.67925e-21)
(1.029 0.372842 3.18007e-20)
(0.228493 0.187393 5.4498e-19)
(0.537909 0.442594 1.70941e-20)
(0.735963 0.593535 -5.05858e-20)
(0.853092 0.665043 6.04504e-20)
(0.916533 0.684626 2.15997e-19)
(0.948198 0.674546 -1.55185e-19)
(0.963059 0.65004 7.19218e-20)
(0.970018 0.620139 -9.51876e-20)
(0.973761 0.58949 2.81885e-20)
(0.97648 0.560133 -2.47218e-20)
(0.97908 0.532775 -1.34754e-20)
(0.981878 0.507528 -1.6462e-20)
(0.98494 0.484286 1.32696e-20)
(0.988228 0.462877 -1.0491e-20)
(0.991648 0.443127 -9.35959e-20)
(0.995077 0.424886 8.60526e-20)
(0.998433 0.408013 -6.05171e-20)
(1.00189 0.392402 -4.13377e-20)
(1.00606 0.37828 4.31458e-20)
(1.01176 0.366161 -5.60621e-20)
(0.221541 0.19573 -1.14157e-19)
(0.517783 0.456488 1.21101e-19)
(0.706026 0.606077 8.82615e-20)
(0.816932 0.67383 -1.34016e-19)
(0.877317 0.689576 6.5564e-20)
(0.908286 0.676447 -1.14002e-19)
(0.923925 0.649795 -1.30063e-20)
(0.932421 0.618453 -5.87863e-22)
(0.937993 0.586811 -1.11729e-20)
(0.942577 0.556709 -6.09639e-20)
(0.946966 0.528724 3.55127e-21)
(0.95145 0.502896 -9.73935e-21)
(0.956123 0.479078 7.59318e-20)
(0.961004 0.45708 -2.1426e-19)
(0.966059 0.436731 1.99286e-19)
(0.971161 0.41791 1.0963e-19)
(0.976173 0.400472 -2.87739e-20)
(0.981355 0.384089 1.58118e-20)
(0.987614 0.368769 1.94306e-19)
(0.995266 0.356032 -8.00224e-20)
(0.213097 0.202679 -3.58707e-20)
(0.494987 0.467241 9.02807e-20)
(0.67336 0.61473 -1.04392e-19)
(0.778476 0.678637 1.40676e-19)
(0.836346 0.690785 -7.99872e-21)
(0.867083 0.674961 -2.36081e-20)
(0.883827 0.646518 7.34534e-21)
(0.894062 0.61404 -3.5282e-20)
(0.90157 0.581658 3.63262e-20)
(0.908058 0.551015 3.04104e-20)
(0.914218 0.522567 2.07618e-20)
(0.920316 0.496278 -2.84593e-22)
(0.926465 0.471943 7.71144e-20)
(0.932739 0.449323 -8.09472e-20)
(0.939175 0.428206 9.3907e-20)
(0.945698 0.408459 -1.93651e-19)
(0.952219 0.389881 2.20005e-19)
(0.959193 0.371832 -1.90086e-19)
(0.967613 0.354058 -1.22628e-19)
(0.976349 0.340022 2.16742e-19)
(0.20332 0.208115 5.3917e-20)
(0.469893 0.47468 4.61905e-21)
(0.638428 0.619362 1.81412e-20)
(0.738191 0.679377 -8.5915e-21)
(0.794046 0.688198 -1.42981e-20)
(0.824958 0.670054 9.20408e-21)
(0.843083 0.640184 -1.03398e-19)
(0.855219 0.60689 6.8511e-20)
(0.864743 0.574038 7.50697e-20)
(0.873156 0.543095 -1.11722e-19)
(0.881061 0.514408 1.38742e-19)
(0.888688 0.487879 -5.14043e-20)
(0.896142 0.46325 1.08439e-19)
(0.903499 0.440222 -1.71608e-19)
(0.910808 0.418501 3.59252e-19)
(0.918029 0.397834 -7.87905e-20)
(0.925185 0.377807 -2.16454e-20)
(0.93296 0.357156 2.41692e-19)
(0.942135 0.33394 -1.16939e-19)
(0.94768 0.310723 5.64697e-20)
(0.192383 0.211934 -1.74865e-20)
(0.442888 0.478676 -2.42019e-20)
(0.601701 0.61988 -2.71898e-20)
(0.696544 0.675999 1.07889e-20)
(0.750841 0.681791 -1.03251e-20)
(0.782282 0.661711 -1.23983e-19)
(0.802017 0.630784 1.86484e-19)
(0.816183 0.596995 1.42076e-20)
(0.827786 0.563953 -2.09377e-20)
(0.838148 0.532963 5.49396e-21)
(0.847799 0.50429 6.88433e-20)
(0.856938 0.4778 1.20002e-19)
(0.865646 0.453231 7.05509e-20)
(0.873959 0.430301 -1.69726e-19)
(0.881863 0.408757 -5.11977e-20)
(0.889298 0.388407 -5.0893e-21)
(0.896369 0.368984 3.42696e-20)
(0.90368 0.349796 5.70429e-21)
(0.911174 0.33013 3.7225e-19)
(0.914147 0.312135 -2.59235e-19)
(0.180471 0.214053 8.58627e-20)
(0.414369 0.479133 8.31759e-21)
(0.56365 0.616229 -9.17009e-20)
(0.654 0.668483 2.6117e-19)
(0.707151 0.671562 6.96451e-20)
(0.739421 0.649934 -1.81847e-19)
(0.760952 0.618318 1.76282e-19)
(0.777247 0.584355 -4.42887e-20)
(0.790977 0.551399 1.61508e-19)
(0.80331 0.520607 7.80775e-20)
(0.814724 0.492173 -3.51856e-19)
(0.825409 0.465933 -3.9471e-20)
(0.835452 0.44162 4.97313e-19)
(0.844886 0.41896 -6.10224e-19)
(0.853692 0.397709 5.64376e-19)
(0.861799 0.377669 1.97377e-19)
(0.869277 0.35856 -6.97143e-19)
(0.876534 0.339803 3.39652e-19)
(0.883392 0.321094 -6.82637e-20)
(0.886323 0.304852 8.11524e-20)
(0.167779 0.214412 -2.20196e-19)
(0.384742 0.475998 -2.3098e-19)
(0.524743 0.608393 1.57236e-19)
(0.611013 0.656841 -2.09756e-19)
(0.663385 0.657532 -5.98242e-19)
(0.696739 0.634747 -2.59609e-20)
(0.72021 0.602805 -1.79834e-19)
(0.738704 0.568982 4.3292e-21)
(0.754588 0.536386 -3.68648e-19)
(0.768901 0.506041 -3.75525e-19)
(0.782078 0.47808 -2.59697e-19)
(0.794308 0.452325 -1.12821e-20)
(0.805684 0.428513 -6.3703e-19)
(0.816257 0.40639 -8.47035e-21)
(0.82603 0.385743 3.12086e-19)
(0.834973 0.366408 -3.09569e-19)
(0.843163 0.348166 -2.41173e-19)
(0.850935 0.330579 2.32404e-19)
(0.858102 0.313462 -1.66027e-19)
(0.861779 0.298725 3.1903e-20)
(0.15451 0.212975 1.92199e-19)
(0.354408 0.469257 1.48806e-19)
(0.485442 0.596395 -9.23863e-21)
(0.56803 0.641116 -1.37323e-19)
(0.619944 0.639751 3.13705e-19)
(0.654586 0.616191 5.21216e-19)
(0.680103 0.584276 -5.55736e-20)
(0.700842 0.550896 6.68463e-21)
(0.718894 0.518921 9.87592e-20)
(0.735194 0.489252 2.33721e-19)
(0.750149 0.461974 3.41704e-19)
(0.763952 0.436897 -2.79377e-19)
(0.776712 0.413765 2.72265e-19)
(0.788497 0.392336 -9.63496e-20)
(0.799334 0.372411 3.19832e-19)
(0.80922 0.353836 -1.24896e-19)
(0.818265 0.336417 -3.12728e-19)
(0.826803 0.319811 1.86474e-19)
(0.834678 0.30395 -2.6875e-19)
(0.839373 0.29044 -3.04438e-19)
(0.140867 0.209727 9.70668e-20)
(0.323768 0.458931 1.70598e-19)
(0.446198 0.58029 -1.78456e-19)
(0.52548 0.621381 4.45477e-21)
(0.577214 0.618289 3.08038e-20)
(0.613302 0.594328 2.5725e-19)
(0.640935 0.562779 -3.77316e-19)
(0.663933 0.530133 3.577e-19)
(0.684148 0.499027 -3.63207e-20)
(0.702423 0.47025 9.7444e-20)
(0.71915 0.443849 1.59566e-19)
(0.734534 0.419626 -3.0459e-19)
(0.748706 0.397335 1.44059e-19)
(0.761758 0.376746 1.37571e-19)
(0.773741 0.357674 5.10698e-20)
(0.784687 0.339975 -2.61192e-19)
(0.794729 0.323468 8.79529e-19)
(0.804196 0.30786 -4.93964e-19)
(0.812928 0.293118 8.94575e-19)
(0.818694 0.280569 -5.82343e-20)
(0.127053 0.204674 7.40321e-20)
(0.293209 0.445076 4.13331e-19)
(0.407444 0.56017 1.49798e-19)
(0.483777 0.597737 3.0485e-19)
(0.535564 0.593243 8.16928e-20)
(0.573214 0.569241 -4.93391e-19)
(0.602995 0.538383 7.66913e-19)
(0.628242 0.506746 3.99504e-19)
(0.650591 0.47674 1.72181e-20)
(0.670814 0.449058 5.17318e-19)
(0.689294 0.423711 8.54841e-20)
(0.706252 0.400498 5.39593e-20)
(0.72184 0.37918 3.08909e-19)
(0.736176 0.35954 -1.16245e-19)
(0.749337 0.341402 -1.20819e-19)
(0.761385 0.324624 7.19699e-19)
(0.772477 0.30904 -5.99696e-19)
(0.782933 0.294393 2.31811e-20)
(0.792585 0.280669 7.59636e-19)
(0.799448 0.268957 -8.126e-22)
(0.113267 0.197844 -8.96808e-19)
(0.263109 0.427781 -1.44909e-19)
(0.369596 0.536157 -2.01915e-19)
(0.443314 0.570314 -1.56003e-19)
(0.495345 0.564735 -3.99499e-19)
(0.53463 0.541035 1.36655e-19)
(0.566558 0.511175 -1.92629e-19)
(0.594016 0.480805 5.80111e-20)
(0.618451 0.45212 -2.78948e-19)
(0.640576 0.425719 -2.61503e-19)
(0.660771 0.401588 5.70325e-20)
(0.679277 0.379525 -4.25509e-19)
(0.696268 0.359301 3.41687e-19)
(0.711885 0.34071 -1.23531e-19)
(0.72623 0.323582 3.84224e-19)
(0.739391 0.307781 -8.2935e-19)
(0.751544 0.293147 -1.57811e-19)
(0.762991 0.279455 -2.97713e-19)
(0.773561 0.266692 -7.97853e-19)
(0.781507 0.255744 -1.28703e-19)
(0.0997036 0.189281 1.45185e-19)
(0.233826 0.407165 -1.54224e-20)
(0.33305 0.508405 -2.29332e-19)
(0.404464 0.539271 8.12621e-20)
(0.45689 0.532911 -1.64288e-19)
(0.497843 0.509839 -1.88602e-21)
(0.531882 0.481263 2.22771e-19)
(0.561487 0.452403 -3.33406e-19)
(0.587937 0.425241 1.29277e-19)
(0.611899 0.400295 -7.5029e-20)
(0.633754 0.377529 2.09412e-20)
(0.653761 0.356744 -3.72676e-19)
(0.672118 0.337723 -4.52454e-19)
(0.688988 0.320268 -1.72726e-20)
(0.704495 0.304217 5.03659e-19)
(0.718749 0.28944 2.3136e-20)
(0.731939 0.275784 6.36351e-19)
(0.744348 0.263052 -9.28047e-19)
(0.755813 0.251228 4.92928e-19)
(0.764813 0.241016 8.50556e-19)
(0.0865491 0.179052 -1.30578e-19)
(0.205702 0.383378 7.01008e-20)
(0.298178 0.477097 4.56867e-19)
(0.367575 0.504791 1.13315e-19)
(0.420508 0.497939 -1.52135e-19)
(0.463124 0.4758 1.20467e-19)
(0.49921 0.448779 4.72976e-19)
(0.530873 0.421653 -3.84444e-19)
(0.559247 0.396202 3.55929e-20)
(0.584961 0.372871 -1.40147e-19)
(0.608402 0.351608 5.06274e-19)
(0.629846 0.332219 3.61539e-19)
(0.649514 0.314499 -5.25612e-20)
(0.667588 0.298261 -5.47348e-19)
(0.684213 0.283353 2.9427e-20)
(0.699519 0.269648 -6.74059e-20)
(0.7137 0.257006 3.21456e-19)
(0.727022 0.24525 5.22204e-19)
(0.739339 0.23436 4.55374e-19)
(0.749351 0.224885 -7.61867e-19)
(0.0739803 0.167236 -8.26782e-20)
(0.179058 0.356598 3.52201e-19)
(0.265326 0.442444 -3.42442e-19)
(0.332973 0.467085 4.78129e-19)
(0.386487 0.460011 -2.58831e-19)
(0.430728 0.43909 1.86975e-19)
(0.468767 0.413871 4.72368e-19)
(0.502375 0.388686 -5.68906e-19)
(0.532563 0.365121 2.59143e-19)
(0.559927 0.343552 3.27534e-19)
(0.584862 0.323917 -4.44488e-19)
(0.607663 0.306033 -3.08752e-20)
(0.628569 0.289705 -3.55407e-19)
(0.647782 0.274761 5.71031e-19)
(0.665464 0.261057 -3.0899e-19)
(0.681762 0.248474 3.31685e-19)
(0.696874 0.236882 -5.95673e-20)
(0.711048 0.226128 2.05096e-19)
(0.724163 0.216181 4.69089e-20)
(0.735135 0.207461 -1.19416e-19)
(0.0621629 0.153934 -2.55103e-19)
(0.154191 0.327026 -5.84423e-19)
(0.234815 0.404684 1.5375e-19)
(0.300956 0.426383 -4.92963e-19)
(0.355093 0.419341 -4.67263e-19)
(0.400888 0.399898 -3.36049e-19)
(0.44076 0.376708 2.61626e-19)
(0.47618 0.353654 2.00978e-19)
(0.508052 0.332132 -1.19345e-21)
(0.536948 0.312461 -1.75029e-19)
(0.56327 0.294571 -3.16236e-19)
(0.587332 0.27829 2.84674e-19)
(0.60939 0.263439 -9.80917e-20)
(0.629661 0.24986 -4.83798e-19)
(0.648326 0.23742 3.14386e-19)
(0.665543 0.226007 -2.3615e-19)
(0.681514 0.215505 -9.60383e-20)
(0.69647 0.20578 -2.68905e-19)
(0.710323 0.196794 -2.42865e-19)
(0.722193 0.188857 6.29466e-20)
(0.0512506 0.139257 2.22685e-19)
(0.131374 0.294891 1.15005e-19)
(0.206938 0.364075 1.76365e-19)
(0.271796 0.382942 -6.03413e-19)
(0.326567 0.376162 6.45688e-19)
(0.373817 0.358433 2.24615e-21)
(0.415376 0.337478 5.01571e-21)
(0.452457 0.316726 -3.92678e-19)
(0.485867 0.297391 3.66356e-19)
(0.516161 0.279739 -2.55129e-19)
(0.543751 0.263698 7.63493e-20)
(0.568964 0.249111 -3.4082e-19)
(0.592073 0.235815 -1.61984e-19)
(0.613312 0.223667 -7.71342e-20)
(0.632873 0.212546 5.82302e-19)
(0.650929 0.20235 -2.85638e-19)
(0.667678 0.192977 -2.57657e-19)
(0.683341 0.184311 2.64434e-19)
(0.697865 0.176308 -2.17031e-19)
(0.710559 0.169189 1.6915e-19)
(0.0413829 0.123332 4.76014e-19)
(0.110854 0.260439 -2.87563e-19)
(0.181956 0.320902 4.29293e-20)
(0.245737 0.337034 5.02865e-19)
(0.301125 0.330724 1.99887e-19)
(0.349704 0.314922 2.47378e-19)
(0.392787 0.296385 2.46157e-19)
(0.431358 0.278086 5.21568e-19)
(0.466146 0.261066 -1.19368e-19)
(0.497692 0.245542 2.85111e-19)
(0.526416 0.231445 4.13765e-19)
(0.552659 0.218632 1.52263e-19)
(0.576711 0.206961 2.75345e-19)
(0.598816 0.196304 9.97687e-20)
(0.619179 0.186554 5.84044e-20)
(0.637982 0.17762 -4.24577e-20)
(0.655425 0.169413 3.40326e-19)
(0.671713 0.161835 2.09457e-19)
(0.686836 0.154839 -1.90549e-19)
(0.700274 0.148574 1.7969e-19)
(0.0326848 0.106301 -3.16513e-19)
(0.0928485 0.22394 3.53998e-20)
(0.160104 0.275464 -9.1333e-20)
(0.222995 0.288953 -2.77649e-19)
(0.278958 0.283295 -1.46675e-19)
(0.328718 0.269605 -2.66922e-19)
(0.373142 0.253645 1.24324e-19)
(0.413017 0.237934 -4.79448e-19)
(0.44901 0.22334 2.83113e-19)
(0.48165 0.21004 -3.91096e-19)
(0.511365 0.197968 -2.42522e-19)
(0.53851 0.187002 -3.20715e-19)
(0.563385 0.177018 7.34402e-20)
(0.586245 0.167906 -7.24827e-20)
(0.607308 0.159573 8.62383e-20)
(0.626764 0.15194 4.63109e-20)
(0.644808 0.144934 9.19763e-20)
(0.661639 0.138472 -7.71403e-19)
(0.677284 0.132506 3.83648e-19)
(0.691376 0.127133 -2.30098e-19)
(0.0252654 0.0883118 1.04903e-19)
(0.0775487 0.185678 2.11699e-19)
(0.141582 0.228081 -1.38042e-19)
(0.203755 0.239005 3.41019e-19)
(0.260231 0.234157 -5.44353e-20)
(0.311006 0.222737 3.94376e-19)
(0.35657 0.209492 7.63739e-20)
(0.397552 0.196481 -7.98617e-20)
(0.434566 0.184409 2.90831e-19)
(0.468132 0.173413 2.21971e-19)
(0.498687 0.163439 8.23283e-20)
(0.526594 0.154381 1.08078e-19)
(0.552165 0.146137 5.41195e-20)
(0.575666 0.138616 -2.29769e-19)
(0.59732 0.131741 -3.18565e-20)
(0.617327 0.125446 2.39347e-19)
(0.635878 0.119671 -1.6356e-19)
(0.653164 0.114349 -7.78635e-21)
(0.669252 0.109434 -3.41685e-19)
(0.683902 0.104987 6.87975e-19)
(0.0192171 0.0695267 2.81827e-19)
(0.0651145 0.145953 -3.37924e-19)
(0.12656 0.179086 1.58618e-19)
(0.188175 0.187511 -2.24007e-19)
(0.245082 0.183604 1.97797e-19)
(0.296688 0.174585 -3.43058e-19)
(0.34318 0.164166 -2.51101e-19)
(0.385061 0.153948 1.87784e-20)
(0.422902 0.144477 -3.41743e-19)
(0.457219 0.135855 -2.13086e-19)
(0.488454 0.128035 -3.68466e-19)
(0.516979 0.120937 -1.21746e-20)
(0.543115 0.114478 -1.42819e-19)
(0.567133 0.108587 3.61487e-19)
(0.589267 0.103204 2.48774e-19)
(0.609718 0.0982757 -8.36412e-20)
(0.628678 0.0937565 -7.55199e-20)
(0.646333 0.0895953 -3.41642e-21)
(0.662778 0.0857524 9.35193e-21)
(0.677883 0.0822608 1.36069e-19)
(0.0146146 0.0501138 -7.05077e-20)
(0.0556749 0.105078 -2.41365e-19)
(0.115173 0.128825 -1.50446e-19)
(0.176379 0.134804 -9.41147e-20)
(0.233622 0.131939 -1.94925e-19)
(0.285863 0.125423 3.33834e-19)
(0.333061 0.117918 -3.58822e-20)
(0.375623 0.110568 -8.03044e-20)
(0.414091 0.103759 3.24623e-21)
(0.448977 0.097562 2.35497e-19)
(0.480726 0.0919437 -2.23574e-19)
(0.50972 0.0868446 2.18541e-19)
(0.536283 0.082206 1.02458e-19)
(0.560693 0.0779762 -1.86657e-19)
(0.583189 0.0741113 4.08048e-20)
(0.603977 0.0705743 1.19791e-19)
(0.623246 0.0673318 4.15759e-20)
(0.641178 0.0643478 -2.90421e-20)
(0.657895 0.0615916 -2.51456e-19)
(0.673346 0.0590801 2.00193e-19)
(0.0115146 0.0302479 6.3648e-20)
(0.0493276 0.0633735 7.7194e-20)
(0.107525 0.077653 2.16988e-20)
(0.168463 0.0812238 -1.63252e-20)
(0.225937 0.0794749 4.66047e-20)
(0.278605 0.0755362 7.12189e-20)
(0.326278 0.0710081 2.70051e-20)
(0.369298 0.0665771 3.29395e-20)
(0.408187 0.062474 -6.98785e-20)
(0.443454 0.0587409 1.30946e-19)
(0.475549 0.0553569 -3.09054e-20)
(0.504857 0.052286 -2.48864e-21)
(0.531707 0.0494929 3.13229e-20)
(0.55638 0.0469463 3.5306e-20)
(0.57912 0.0446196 -9.47493e-20)
(0.600133 0.0424908 6.23889e-20)
(0.619609 0.0405395 4.08747e-20)
(0.637727 0.0387445 3.48834e-20)
(0.654626 0.0370865 7.46765e-20)
(0.67031 0.0355728 3.08806e-20)
(0.00995525 0.0101083 -1.3036e-20)
(0.0461379 0.0211693 2.70881e-20)
(0.103685 0.0259312 -3.78893e-20)
(0.164489 0.0271173 2.38084e-20)
(0.22208 0.0265289 1.39607e-20)
(0.274965 0.0252111 6.24844e-21)
(0.322876 0.0236979 1.47562e-20)
(0.366125 0.0222178 -4.22854e-20)
(0.405226 0.0208476 2.69681e-20)
(0.440685 0.0196011 9.42779e-21)
(0.472954 0.0184712 -5.40311e-22)
(0.502419 0.017446 5.77643e-20)
(0.529413 0.0165136 -1.75395e-20)
(0.554218 0.0156636 -1.67822e-20)
(0.57708 0.0148871 -1.61083e-20)
(0.598207 0.0141766 2.49983e-21)
(0.617786 0.0135255 -2.14851e-20)
(0.635997 0.0129267 4.11255e-21)
(0.652988 0.0123736 8.06621e-22)
(0.66879 0.0118681 -2.7239e-21)
(0.00995553 -0.0101227 8.27849e-21)
(0.0461385 -0.021202 -4.40557e-20)
(0.103685 -0.0259741 5.25014e-20)
(0.16449 -0.027165 -3.94481e-20)
(0.222081 -0.026578 -1.8395e-20)
(0.274965 -0.02526 5.50732e-20)
(0.322877 -0.0237458 4.58268e-21)
(0.366126 -0.0222645 1.26763e-21)
(0.405226 -0.020893 2.5666e-20)
(0.440686 -0.0196453 1.32515e-20)
(0.472954 -0.0185143 -1.04847e-20)
(0.50242 -0.017488 -3.67023e-20)
(0.529413 -0.0165545 3.50914e-21)
(0.554219 -0.0157035 -3.18011e-21)
(0.57708 -0.014926 3.41545e-20)
(0.598207 -0.0142146 -2.05404e-20)
(0.617787 -0.0135626 2.81362e-20)
(0.635997 -0.0129629 -4.21628e-20)
(0.652988 -0.0124089 4.94082e-23)
(0.66879 -0.0119027 -8.86225e-21)
(0.0115155 -0.0302622 -2.74998e-20)
(0.0493294 -0.0634062 1.38679e-19)
(0.107528 -0.0776958 9.34095e-20)
(0.168465 -0.0812714 6.17759e-20)
(0.225939 -0.0795239 7.70667e-20)
(0.278608 -0.0755849 -1.87728e-20)
(0.32628 -0.0710559 8.53238e-20)
(0.3693 -0.0666237 1.74146e-20)
(0.408189 -0.0625193 -7.67949e-21)
(0.443456 -0.0587851 -6.0833e-20)
(0.475551 -0.0553999 6.30019e-20)
(0.504859 -0.0523279 -8.55043e-20)
(0.531708 -0.0495337 6.20765e-20)
(0.556382 -0.0469861 7.10377e-20)
(0.579121 -0.0446585 9.38508e-20)
(0.600135 -0.0425287 -6.17267e-20)
(0.619611 -0.0405766 1.73533e-20)
(0.637728 -0.0387807 6.49606e-20)
(0.654627 -0.0371219 -6.14391e-20)
(0.670312 -0.0356073 4.63239e-20)
(0.0146159 -0.050128 -2.65686e-19)
(0.0556779 -0.10511 -1.33358e-19)
(0.115177 -0.128868 -1.48278e-19)
(0.176383 -0.134851 -1.16667e-20)
(0.233627 -0.131988 -7.9939e-20)
(0.285867 -0.125472 -9.79572e-20)
(0.333065 -0.117966 1.72959e-19)
(0.375627 -0.110615 8.80304e-20)
(0.414094 -0.103804 1.08246e-19)
(0.44898 -0.097606 -1.17697e-19)
(0.480729 -0.0919866 8.71372e-20)
(0.509723 -0.0868864 1.06129e-19)
(0.536285 -0.0822467 3.73598e-20)
(0.560696 -0.0780159 -3.55131e-20)
(0.583192 -0.0741501 7.55839e-21)
(0.60398 -0.0706122 -1.53694e-20)
(0.623249 -0.0673688 -1.49618e-19)
(0.64118 -0.0643839 2.32678e-20)
(0.657897 -0.0616269 1.45154e-19)
(0.673348 -0.0591146 -1.94943e-19)
(0.0192189 -0.0695407 -8.72242e-20)
(0.0651186 -0.145985 1.29566e-19)
(0.126565 -0.179129 2.99095e-20)
(0.18818 -0.187558 -5.58289e-20)
(0.245087 -0.183652 -1.57936e-19)
(0.296693 -0.174633 -3.38198e-19)
(0.343185 -0.164213 -3.21621e-19)
(0.385066 -0.153995 -2.30087e-20)
(0.422907 -0.144522 -1.86766e-19)
(0.457224 -0.135898 -2.79114e-19)
(0.488458 -0.128078 2.16273e-19)
(0.516984 -0.120978 -3.1892e-19)
(0.543119 -0.114518 6.30871e-20)
(0.567137 -0.108627 -2.03809e-20)
(0.589271 -0.103242 -6.65573e-20)
(0.609722 -0.0983134 -8.39539e-20)
(0.628682 -0.0937934 1.36374e-19)
(0.646336 -0.0896313 1.08795e-19)
(0.662782 -0.0857876 1.86803e-19)
(0.677886 -0.0822952 -2.796e-19)
(0.0252678 -0.0883255 4.73841e-20)
(0.0775539 -0.18571 4.59501e-19)
(0.141589 -0.228123 1.31457e-19)
(0.203762 -0.239051 3.17792e-19)
(0.260238 -0.234205 -1.18719e-19)
(0.311013 -0.222785 1.82575e-19)
(0.356576 -0.209539 -5.71951e-20)
(0.397559 -0.196527 3.69721e-19)
(0.434572 -0.184453 -1.90051e-19)
(0.468138 -0.173457 2.23919e-19)
(0.498692 -0.163481 1.94224e-19)
(0.5266 -0.154423 2.07345e-19)
(0.552171 -0.146178 -1.85436e-19)
(0.575671 -0.138656 1.5885e-19)
(0.597325 -0.131779 -2.2083e-19)
(0.617331 -0.125484 -6.06096e-20)
(0.635882 -0.119707 -1.44963e-19)
(0.653169 -0.114384 -6.14842e-20)
(0.669256 -0.109469 2.43824e-19)
(0.683906 -0.105021 -4.03606e-19)
(0.0326876 -0.106314 -1.89738e-19)
(0.0928547 -0.223971 -2.24688e-20)
(0.160112 -0.275505 -7.55472e-20)
(0.223003 -0.288999 -2.65784e-19)
(0.278966 -0.283343 4.54406e-20)
(0.328727 -0.269652 -4.15658e-19)
(0.37315 -0.253692 -1.74313e-19)
(0.413025 -0.237979 -1.34296e-20)
(0.449018 -0.223385 -4.38159e-19)
(0.481658 -0.210083 -1.35716e-19)
(0.511372 -0.19801 -6.19426e-20)