/*--------------------------------*- C++ -*----------------------------------*\
  =========                 |
  \\      /  F ield         | OpenFOAM: The Open Source CFD Toolbox
   \\    /   O peration     | Website:  https://openfoam.org
    \\  /    A nd           | Version:  6.0
     \\/     M anipulation  |
\*---------------------------------------------------------------------------*/
FoamFile
{
    version     2.0;
    format      ascii;
    class       surfaceScalarField;
    location    "78";
    object      phi;
}
// * * * * * * * * * * * * * * * * * * * * * * * * * * * * * * * * * * * * * //

dimensions      [0 3 -1 0 0 0 0];

internalField   nonuniform List<scalar> 
7840
(
4.02636e-05
-0.000322087
0.000138852
-0.000995755
0.000272331
-0.00165111
0.00041712
-0.00223154
0.000554026
-0.00269986
0.000671102
-0.00304533
0.000763587
-0.00327831
0.00083202
-0.0034204
0.000879911
-0.00349587
0.000911817
-0.00352642
0.000932112
-0.00352895
0.000944391
-0.00351538
0.000951319
-0.00349349
0.000954738
-0.00346803
0.00095586
-0.00344176
0.000955463
-0.00341621
0.000954054
-0.00339224
0.00095196
-0.00337031
0.00094939
-0.0033506
-0.00333326
0.000946467
4.11896e-05
-0.000363276
0.000139062
-0.00109363
0.00026764
-0.00177969
0.000402591
-0.00236649
0.000525717
-0.00282298
0.000626956
-0.00314657
0.000703427
-0.00335478
0.000757019
-0.00347399
0.000791938
-0.00353079
0.000812891
-0.00354737
0.000824052
-0.00354011
0.000828658
-0.00351999
0.000828999
-0.00349383
0.000826585
-0.00346562
0.000822379
-0.00343755
0.000816987
-0.00341082
0.000810798
-0.00338606
0.000804071
-0.00336358
0.000796967
-0.0033435
-0.00332587
0.000789584
4.1654e-05
-0.00040493
0.00013762
-0.00118959
0.000259808
-0.00190188
0.0003837
-0.00249038
0.000492478
-0.00293176
0.000578044
-0.00323213
0.000639238
-0.00341597
0.000679041
-0.0035138
0.000702108
-0.00355386
0.000713121
-0.00355839
0.000715969
-0.00354296
0.00071351
-0.00351753
0.000707675
-0.003488
0.000699688
-0.00345763
0.000690303
-0.00342817
0.000679987
-0.0034005
0.000669043
-0.00337511
0.000657675
-0.00335221
0.000646011
-0.00333184
-0.00331399
0.00063413
4.16362e-05
-0.000446566
0.000134548
-0.0012825
0.000249038
-0.00201637
0.000360934
-0.00260228
0.000455086
-0.00302591
0.000525346
-0.00330239
0.000572071
-0.0034627
0.000599087
-0.00354081
0.000611288
-0.00356606
0.000613203
-0.0035603
0.00060838
-0.00353813
0.000599305
-0.00350845
0.000587583
-0.00347627
0.00057419
-0.00344424
0.000559712
-0.00341369
0.000544506
-0.0033853
0.000528808
-0.00335941
0.000512782
-0.00333619
0.000496535
-0.00331559
-0.00329759
0.000480132
4.11283e-05
-0.000487695
0.000129909
-0.00137129
0.00023559
-0.00212205
0.000334819
-0.00270151
0.000414304
-0.0031054
0.000469767
-0.00335785
0.00050286
-0.00349579
0.000518021
-0.00355597
0.000520216
-0.00356825
0.000513728
-0.00355381
0.000501742
-0.00352615
0.000486388
-0.0034931
0.000468983
-0.00345887
0.000450299
-0.00342556
0.00043078
-0.00339417
0.000410699
-0.00336521
0.000390239
-0.00333895
0.000369536
-0.00331549
0.000348681
-0.00329473
-0.00327664
0.000327732
4.01338e-05
-0.000527828
0.000123799
-0.00145495
0.000219753
-0.002218
0.000305877
-0.00278763
0.00037084
-0.00317036
0.000412098
-0.00339911
0.000432379
-0.00351607
0.000436528
-0.00356012
0.000429447
-0.00356117
0.000415116
-0.00353948
0.000396353
-0.00350738
0.000374963
-0.00347171
0.000352014
-0.00343592
0.000328107
-0.00340165
0.000303574
-0.00336964
0.000278618
-0.00334026
0.000253384
-0.00331372
0.000227983
-0.00329008
0.000202499
-0.00326925
-0.00325113
0.000176987
3.86662e-05
-0.000566495
0.000116336
-0.00153262
0.000201837
-0.0023035
0.00027462
-0.00286042
0.000325344
-0.00322108
0.000353037
-0.0034268
0.000361288
-0.00352432
0.000355174
-0.00355401
0.00033943
-0.00354543
0.000317702
-0.00351775
0.000292454
-0.00348214
0.000265202
-0.00344446
0.000236802
-0.00340752
0.000207714
-0.00337256
0.000178179
-0.0033401
0.000148345
-0.00331042
0.00011832
-0.0032837
8.82029e-05
-0.00325997
5.80719e-05
-0.00323912
-0.00322104
2.79832e-05
3.67479e-05
-0.000603242
0.000107656
-0.00160353
0.000182156
-0.002378
0.000241531
-0.00291979
0.000278399
-0.00325795
0.000293182
-0.00344159
0.000290129
-0.00352127
0.000274405
-0.00353828
0.000250509
-0.00352153
0.000221735
-0.00348898
0.00019022
-0.00345062
0.000157224
-0.00341146
0.00012343
-0.00337373
8.91822e-05
-0.00333831
5.46487e-05
-0.00330557
1.99269e-05
-0.0032757
-1.49011e-05
-0.00324887
-4.97522e-05
-0.00322512
-8.45449e-05
-0.00320433
-0.00318637
-0.000119218
3.44084e-05
-0.000637651
9.79046e-05
-0.00166703
0.000161021
-0.00244112
0.000207057
-0.00296583
0.000230523
-0.00328142
0.000233043
-0.00344411
0.000219353
-0.00350758
0.000194586
-0.00351351
0.000162956
-0.0034899
0.000127409
-0.00345343
8.97847e-05
-0.003413
5.11238e-05
-0.0033728
1.19667e-05
-0.00333457
-2.74338e-05
-0.00329891
-6.69703e-05
-0.00326603
-0.000106588
-0.00323608
-0.000146233
-0.00320922
-0.000185832
-0.00318552
-0.000225297
-0.00316486
-0.00314711
-0.000264556
3.16831e-05
-0.000669334
8.7234e-05
-0.00172258
0.000138728
-0.00249261
0.000171609
-0.00299871
0.000182168
-0.00329198
0.000173055
-0.003435
0.00014933
-0.00348386
0.000116008
-0.00348019
7.69867e-05
-0.00345088
3.48797e-05
-0.00341133
-8.74405e-06
-0.00336937
-5.3025e-05
-0.00332852
-9.75365e-05
-0.00329006
-0.000142096
-0.00325435
-0.000186647
-0.00322148
-0.000231173
-0.00319156
-0.000275649
-0.00316475
-0.000320009
-0.00314116
-0.000364155
-0.00312071
-0.00310326
-0.000407999
2.86119e-05
-0.000697946
7.57975e-05
-0.00176976
0.000115562
-0.00253238
0.000135557
-0.0030187
0.00013373
-0.00329015
0.000113584
-0.00341485
8.03703e-05
-0.00345064
3.89127e-05
-0.00343873
-7.21819e-06
-0.00340475
-5.57244e-05
-0.00336282
-0.000105273
-0.00331982
-0.000155156
-0.00327864
-0.000205034
-0.00324018
-0.000254776
-0.00320461
-0.000304363
-0.00317189
-0.000353818
-0.0031421
-0.000403144
-0.00311542
-0.000452289
-0.00309201
-0.000501136
-0.00307187
-0.00305483
-0.000549572
2.52379e-05
-0.000723184
6.37467e-05
-0.00180827
9.17844e-05
-0.00256041
9.92331e-05
-0.00302615
8.55566e-05
-0.00327647
5.49462e-05
-0.00338424
1.27344e-05
-0.00340843
-3.64949e-05
-0.00338951
-8.95025e-05
-0.00335174
-0.000144284
-0.00330804
-0.000199712
-0.0032644
-0.000255203
-0.00322315
-0.00031048
-0.00318491
-0.000365445
-0.00314964
-0.000420109
-0.00311723
-0.000474529
-0.00308768
-0.000528745
-0.00306121
-0.000582721
-0.00303804
-0.000636322
-0.00301827
-0.00300176
-0.000689394
2.16067e-05
-0.00074479
5.1229e-05
-0.00183789
6.76421e-05
-0.00257683
6.29372e-05
-0.00302145
3.79492e-05
-0.00325149
-2.58673e-06
-0.0033437
-5.33501e-05
-0.00335767
-0.000110032
-0.00333282
-0.000169719
-0.00329206
-0.000230676
-0.00324708
-0.00029196
-0.00320311
-0.000353083
-0.00316202
-0.000413814
-0.00312418
-0.00047407
-0.00308939
-0.000533876
-0.00305742
-0.000593321
-0.00302824
-0.000652489
-0.00300204
-0.000711378
-0.00297915
-0.000769835
-0.00295981
-0.00294395
-0.000827637
1.77652e-05
-0.000762556
3.83864e-05
-0.00185851
4.33605e-05
-0.0025818
2.69365e-05
-0.00300502
-8.82513e-06
-0.00321572
-5.87749e-05
-0.00329375
-0.000117679
-0.00329876
-0.000181525
-0.00326898
-0.000247716
-0.00322587
-0.000314766
-0.00318003
-0.000381891
-0.00313599
-0.000448686
-0.00309523
-0.000514948
-0.00305791
-0.000580593
-0.00302374
-0.000645639
-0.00299238
-0.000710196
-0.00296368
-0.000774402
-0.00293783
-0.000838303
-0.00291525
-0.000901742
-0.00289637
-0.00288131
-0.000964384
1.37607e-05
-0.000776316
2.53544e-05
-0.00187011
1.91474e-05
-0.00257559
-8.52873e-06
-0.00297735
-5.45291e-05
-0.00316972
-0.000113403
-0.00323488
-0.000180062
-0.0032321
-0.000250802
-0.00319824
-0.00032333
-0.00315334
-0.000396389
-0.00310697
-0.000469341
-0.00306304
-0.000541856
-0.00302271
-0.000613748
-0.00298602
-0.000684916
-0.00295258
-0.00075535
-0.00292194
-0.000825152
-0.00289388
-0.000894503
-0.00286848
-0.00096352
-0.00284623
-0.00103205
-0.00282784
-0.00281375
-0.00109962
9.6406e-06
-0.000785957
1.22605e-05
-0.00187273
-4.80775e-06
-0.00255853
-4.32434e-05
-0.00293891
-9.89505e-05
-0.00311402
-0.000166275
-0.00316755
-0.000240317
-0.00315806
-0.000317685
-0.00312087
-0.000396375
-0.00307465
-0.000475344
-0.003028
-0.00055409
-0.00298429
-0.00063236
-0.00294444
-0.000709993
-0.00290839
-0.000786864
-0.0028757
-0.00086291
-0.0028459
-0.000938183
-0.00281861
-0.00101288
-0.00279379
-0.0010872
-0.00277191
-0.00116101
-0.00275402
-0.00274102
-0.00123374
5.45124e-06
-0.000791408
-7.75846e-07
-0.0018665
-2.83333e-05
-0.00253097
-7.70156e-05
-0.00289023
-0.0001419
-0.00304913
-0.000217211
-0.00309224
-0.000298268
-0.00307701
-0.000381989
-0.00303715
-0.000466643
-0.00298999
-0.000551388
-0.00294326
-0.000635856
-0.00289982
-0.000719881
-0.00286042
-0.000803347
-0.00282492
-0.000886125
-0.00279293
-0.000968094
-0.00276393
-0.00104923
-0.00273747
-0.0011297
-0.00271331
-0.00120982
-0.0026918
-0.00128953
-0.00267431
-0.00266205
-0.00136849
1.23727e-06
-0.000792645
-1.36453e-05
-0.00185162
-5.1276e-05
-0.00249334
-0.000109676
-0.00283183
-0.00018321
-0.0029756
-0.000266045
-0.00300941
-0.000353741
-0.00298931
-0.000443519
-0.00294737
-0.000533902
-0.00289961
-0.000624236
-0.00285292
-0.000714289
-0.00280977
-0.000804002
-0.0027707
-0.000893342
-0.00273558
-0.000982223
-0.00270405
-0.00107051
-0.00267565
-0.00115809
-0.00264988
-0.00124512
-0.00262629
-0.00133202
-0.0026049
-0.00141901
-0.00258732
-0.00257436
-0.0015067
-2.95948e-06
-0.000789686
-2.62497e-05
-0.00182833
-7.35026e-05
-0.00244608
-0.000141082
-0.00276425
-0.000222736
-0.00289394
-0.000312632
-0.00291951
-0.000406577
-0.00289536
-0.000502077
-0.00285187
-0.000597892
-0.00280379
-0.000693542
-0.00275728
-0.000788933
-0.00271438
-0.000884138
-0.0026755
-0.000979265
-0.00264046
-0.00107437
-0.00260894
-0.00116942
-0.00258059
-0.00126433
-0.00255498
-0.00135913
-0.00253149
-0.00145424
-0.00250978
-0.0015503
-0.00249126
-0.00247462
-0.00165003
-7.10091e-06
-0.000782585
-3.85035e-05
-0.00179693
-9.49016e-05
-0.00238969
-0.000171115
-0.00268804
-0.000260366
-0.00280469
-0.000356856
-0.00282302
-0.00045664
-0.00279558
-0.000557485
-0.00275103
-0.000658357
-0.00270292
-0.00075892
-0.00265671
-0.000859201
-0.0026141
-0.000959402
-0.0025753
-0.00105982
-0.00254004
-0.00116077
-0.00250798
-0.00126258
-0.00247879
-0.00136547
-0.00245208
-0.00146961
-0.00242736
-0.00157562
-0.00240377
-0.00168601
-0.00238087
-0.00237135
-0.00178928
-1.11403e-05
-0.000771445
-5.03141e-05
-0.00175775
-0.00011536
-0.00232464
-0.000199663
-0.00260373
-0.000295997
-0.00270836
-0.000398623
-0.0027204
-0.000503831
-0.00269037
-0.000609622
-0.00264524
-0.000715125
-0.00259742
-0.000820101
-0.00255174
-0.000924626
-0.00250957
-0.00102894
-0.00247098
-0.0011334
-0.00243558
-0.00123849
-0.00240289
-0.00134488
-0.0023724
-0.00145344
-0.00234353
-0.00156504
-0.00231575
-0.00168005
-0.00228876
-0.00179946
-0.00226147
-0.00222615
-0.00194466
-1.50728e-05
-0.000756372
-6.16647e-05
-0.00171116
-0.00013486
-0.00225145
-0.000226722
-0.00251187
-0.000329639
-0.00260544
-0.000437954
-0.00261208
-0.000548183
-0.00258014
-0.00065853
-0.00253489
-0.000768257
-0.00248769
-0.000877184
-0.00244281
-0.000985381
-0.00240137
-0.00109302
-0.00236334
-0.00120029
-0.0023283
-0.00130744
-0.00229575
-0.0014147
-0.00226514
-0.00152226
-0.00223597
-0.00163017
-0.00220783
-0.0017387
-0.00218024
-0.00184861
-0.00215156
-0.00211799
-0.00195677
-1.88623e-05
-0.00073751
-7.24913e-05
-0.00165753
-0.000153334
-0.0021706
-0.000252235
-0.00241297
-0.000361257
-0.00249642
-0.000474838
-0.0024985
-0.000589707
-0.00246527
-0.000704252
-0.00242034
-0.000817849
-0.0023741
-0.00093037
-0.00233029
-0.0010419
-0.00228985
-0.00115259
-0.00225265
-0.0012626
-0.00221829
-0.00137208
-0.00218627
-0.00148111
-0.00215612
-0.00158969
-0.00212739
-0.00169781
-0.00209971
-0.00180542
-0.00207262
-0.00191177
-0.00204521
-0.00201662
-0.00201315
-2.24908e-05
-0.000715019
-8.27631e-05
-0.00159726
-0.000170755
-0.00208261
-0.000276194
-0.00230753
-0.000390868
-0.00238175
-0.00050932
-0.00238005
-0.000628477
-0.00234612
-0.000746888
-0.00230193
-0.000864023
-0.00225696
-0.00097979
-0.00221452
-0.00109426
-0.00217537
-0.00120757
-0.00213935
-0.0013198
-0.00210605
-0.00143105
-0.00207503
-0.00154129
-0.00204587
-0.00165046
-0.00201821
-0.00175842
-0.00199176
-0.00186486
-0.00196618
-0.00196909
-0.00194098
-0.0019157
-0.00207001
-2.59441e-05
-0.000689075
-9.24596e-05
-0.00153074
-0.000187114
-0.00198796
-0.000298612
-0.00219603
-0.000418511
-0.00226185
-0.000541466
-0.00225709
-0.000664591
-0.00222299
-0.000786585
-0.00217994
-0.000907002
-0.00213654
-0.00102578
-0.00209574
-0.00114301
-0.00205814
-0.00125879
-0.00202357
-0.00137319
-0.00199165
-0.00148626
-0.00196196
-0.00159798
-0.00193416
-0.00170826
-0.00190793
-0.00181698
-0.00188305
-0.00192386
-0.00185929
-0.00202849
-0.00183635
-0.00181394
-0.00213025
-2.92116e-05
-0.000659863
-0.000101568
-0.00145839
-0.000202409
-0.00188712
-0.000319508
-0.00207893
-0.00044423
-0.00213712
-0.000571347
-0.00212998
-0.000698148
-0.00209619
-0.000823467
-0.00205462
-0.000946937
-0.00201307
-0.00106853
-0.00197414
-0.00118835
-0.00193833
-0.00130648
-0.00190544
-0.00142301
-0.00187512
-0.00153796
-0.00184701
-0.00165133
-0.00182079
-0.00176306
-0.0017962
-0.00187304
-0.00177307
-0.00198112
-0.00175121
-0.0020871
-0.00173037
-0.00171036
-0.00219068
-3.22856e-05
-0.000627578
-0.000110082
-0.00138059
-0.000216647
-0.00178055
-0.000338909
-0.00195667
-0.000468077
-0.00200796
-0.000599037
-0.00199902
-0.000729246
-0.00196598
-0.000857662
-0.00192621
-0.000983988
-0.00188675
-0.00110824
-0.00184989
-0.00123051
-0.00181605
-0.00135093
-0.00178503
-0.00146957
-0.00175648
-0.00158648
-0.0017301
-0.00170167
-0.00170559
-0.00181513
-0.00168274
-0.0019268
-0.00166139
-0.00203663
-0.00164139
-0.00214452
-0.00162248
-0.00160456
-0.00225032
-3.51603e-05
-0.000592417
-0.000117998
-0.00129775
-0.000229839
-0.00166871
-0.000356847
-0.00182966
-0.0004901
-0.0018747
-0.000624604
-0.00186451
-0.00075797
-0.00183262
-0.000889268
-0.00179491
-0.00101827
-0.00175774
-0.00114503
-0.00172314
-0.00126966
-0.00169142
-0.00139229
-0.00166239
-0.00151303
-0.00163575
-0.00163194
-0.00161119
-0.00174906
-0.00158847
-0.00186442
-0.00156739
-0.00197801
-0.0015478
-0.00208984
-0.00152956
-0.00219988
-0.00151244
-0.00149637
-0.00230806
-3.78315e-05
-0.000554586
-0.000125317
-0.00121027
-0.000241997
-0.00155203
-0.000373348
-0.00169831
-0.000510344
-0.00173771
-0.000648107
-0.00172675
-0.000784389
-0.00169633
-0.000918367
-0.00166093
-0.00104988
-0.00162624
-0.001179
-0.00159402
-0.00130587
-0.00156454
-0.00143065
-0.00153761
-0.00155345
-0.00151295
-0.00167437
-0.00149027
-0.00179346
-0.00146937
-0.0019108
-0.00145006
-0.00202641
-0.00143219
-0.00214033
-0.00141563
-0.0022526
-0.00140017
-0.00138578
-0.0023632
-4.02959e-05
-0.00051429
-0.000132039
-0.00111852
-0.000253132
-0.00143094
-0.000388438
-0.00156301
-0.000528847
-0.0015973
-0.000669592
-0.00158601
-0.000808558
-0.00155737
-0.000945017
-0.00152447
-0.00107886
-0.00149239
-0.0012102
-0.00146268
-0.00133921
-0.00143554
-0.00146604
-0.00141078
-0.00159084
-0.00138815
-0.00171371
-0.00136739
-0.00183477
-0.00134832
-0.00195408
-0.00133075
-0.00207171
-0.00131456
-0.00218774
-0.00129961
-0.00230221
-0.00128569
-0.00127284
-0.00241515
-4.25508e-05
-0.000471739
-0.000138163
-0.00102291
-0.000263254
-0.00130585
-0.000402138
-0.00142412
-0.000545639
-0.0014538
-0.000689096
-0.00144255
-0.000830516
-0.00141595
-0.000969256
-0.00138573
-0.00110526
-0.00135639
-0.00123866
-0.00132927
-0.00136966
-0.00130454
-0.00149844
-0.00128201
-0.00162514
-0.00126144
-0.00174991
-0.00124263
-0.00187285
-0.00122537
-0.00199408
-0.00120952
-0.00211367
-0.00119496
-0.00223172
-0.00118155
-0.00234831
-0.00116911
-0.00115768
-0.00246346
-4.45936e-05
-0.000427146
-0.000143692
-0.000923814
-0.000272371
-0.00117717
-0.000414464
-0.00128203
-0.000560743
-0.00130752
-0.000706647
-0.00129664
-0.00085029
-0.00127231
-0.000991108
-0.00124491
-0.00112909
-0.00121841
-0.00126439
-0.00119396
-0.00139724
-0.00117169
-0.00152782
-0.00115143
-0.00165631
-0.00113296
-0.00178285
-0.00111609
-0.00190758
-0.00110064
-0.00203061
-0.00108649
-0.00215206
-0.00107352
-0.00227202
-0.00106159
-0.00239058
-0.00105056
-0.00104047
-0.00250779
-4.64219e-05
-0.000380724
-0.000148624
-0.000821612
-0.000280489
-0.0010453
-0.000425429
-0.00113709
-0.000574177
-0.00115877
-0.000722262
-0.00114856
-0.000867897
-0.00112667
-0.00101058
-0.00110222
-0.00115035
-0.00107865
-0.00128738
-0.00105693
-0.00142191
-0.00103716
-0.00155415
-0.00101919
-0.00168427
-0.00100283
-0.00181245
-0.000987907
-0.00193883
-0.000974264
-0.00206354
-0.000961783
-0.00218669
-0.000950362
-0.0023084
-0.00093988
-0.00242876
-0.000930195
-0.000921381
-0.00254785
-4.80334e-05
-0.00033269
-0.000152958
-0.000716687
-0.000287612
-0.000910648
-0.000435041
-0.000989661
-0.000585951
-0.00100786
-0.000735953
-0.000998558
-0.000883344
-0.00097928
-0.00102768
-0.000957883
-0.00116904
-0.000937299
-0.00130761
-0.000918354
-0.00144365
-0.000901123
-0.00157737
-0.000885472
-0.00170897
-0.000871234
-0.00183862
-0.000858253
-0.00196648
-0.0008464
-0.0020927
-0.00083557
-0.00221739
-0.00082567
-0.00234068
-0.000816593
-0.00246265
-0.000808217
-0.000800619
-0.00258342
-4.94258e-05
-0.000283264
-0.000156693
-0.00060942
-0.00029374
-0.000773601
-0.000443305
-0.000840096
-0.000596073
-0.000855092
-0.000747726
-0.000846905
-0.000896634
-0.000830372
-0.00104241
-0.000812108
-0.00118514
-0.000794569
-0.00132506
-0.000778437
-0.00146241
-0.000763771
-0.00159743
-0.000750453
-0.00173032
-0.00073834
-0.00186127
-0.000727303
-0.00199044
-0.000717231
-0.00211798
-0.000708032
-0.00224402
-0.00069963
-0.00236868
-0.000691928
-0.00249207
-0.000684826
-0.000678399
-0.00261429
-5.05969e-05
-0.000232668
-0.000159827
-0.00050019
-0.000298876
-0.000634552
-0.000450225
-0.000688746
-0.000604547
-0.00070077
-0.000757583
-0.000693869
-0.000907766
-0.000680188
-0.00105475
-0.000665125
-0.00119864
-0.000650675
-0.0013397
-0.000637386
-0.00147816
-0.000625303
-0.00161429
-0.00061433
-0.00174828
-0.000604348
-0.00188033
-0.000595252
-0.00201061
-0.00058695
-0.00213927
-0.000579369
-0.00226646
-0.000572443
-0.00239229
-0.000566094
-0.00251688
-0.000560239
-0.000554946
-0.00264033
-5.15449e-05
-0.000181123
-0.000162358
-0.000389376
-0.000303017
-0.000493893
-0.000455802
-0.000535961
-0.000611373
-0.000545199
-0.000765524
-0.000539719
-0.000916737
-0.000528975
-0.0010647
-0.000517166
-0.00120953
-0.000505837
-0.00135151
-0.000495414
-0.00149088
-0.000485929
-0.0016279
-0.000477309
-0.00176279
-0.000469461
-0.00189574
-0.000462304
-0.00202692
-0.000455766
-0.0021565
-0.00044979
-0.00228462
-0.000444325
-0.0024114
-0.000439309
-0.00253696
-0.00043468
-0.000430492
-0.00266142
-5.22681e-05
-0.000128855
-0.000164285
-0.00027736
-0.000306165
-0.000352013
-0.000460036
-0.00038209
-0.000616553
-0.000388682
-0.000771549
-0.000384723
-0.000923542
-0.000376981
-0.00107224
-0.000368464
-0.0012178
-0.000360281
-0.00136047
-0.00035274
-0.00150054
-0.000345866
-0.00163824
-0.000339605
-0.00177381
-0.000333893
-0.00190744
-0.000328672
-0.00203931
-0.000323893
-0.00216959
-0.000319513
-0.00229842
-0.000315497
-0.00242593
-0.000311801
-0.00255223
-0.000308381
-0.000305276
-0.00267744
-5.27651e-05
-7.60895e-05
-0.000165605
-0.00016452
-0.000308317
-0.000209301
-0.000462927
-0.00022748
-0.000620086
-0.000231522
-0.000775655
-0.000229155
-0.000928179
-0.000224457
-0.00107738
-0.000219259
-0.00122343
-0.000214239
-0.00136657
-0.000209591
-0.00150711
-0.000205333
-0.00164528
-0.000201436
-0.00178131
-0.000197862
-0.0019154
-0.000194577
-0.00204774
-0.000191551
-0.0021785
-0.000188762
-0.00230781
-0.000186187
-0.00243581
-0.000183801
-0.00256261
-0.000181578
-0.00017954
-0.00268834
-5.30351e-05
-2.30544e-05
-0.000166318
-5.12374e-05
-0.000309474
-6.6145e-05
-0.000464475
-7.24792e-05
-0.000621973
-7.40245e-05
-0.000777842
-7.32858e-05
-0.000930643
-7.16563e-05
-0.00108011
-6.97902e-05
-0.00122641
-6.79433e-05
-0.0013698
-6.61945e-05
-0.00151058
-6.45572e-05
-0.00164899
-6.30255e-05
-0.00178526
-6.15896e-05
-0.0019196
-6.02397e-05
-0.00205218
-5.89674e-05
-0.00218318
-5.77654e-05
-0.00231274
-5.66271e-05
-0.00244099
-5.55459e-05
-0.00256806
-5.45154e-05
-5.35351e-05
-0.00269406
-5.30776e-05
3.00232e-05
-0.000166423
6.21076e-05
-0.000309635
7.70675e-05
-0.00046468
8.25662e-05
-0.000622213
8.35076e-05
-0.000778109
8.2611e-05
-0.000930934
8.11685e-05
-0.00108042
7.96996e-05
-0.00122674
7.83725e-05
-0.00137016
7.72208e-05
-0.00151095
7.62363e-05
-0.00164938
7.54012e-05
-0.00178566
7.46982e-05
-0.00192002
7.41124e-05
-0.00205261
7.36316e-05
-0.00218363
7.32464e-05
-0.0023132
7.29478e-05
-0.00244147
7.27242e-05
-0.00256855
7.25634e-05
7.24869e-05
-0.00269457
-5.28932e-05
8.29164e-05
-0.000165921
0.000175135
-0.000308802
0.000219949
-0.000463545
0.000237309
-0.000620807
0.00024077
-0.000776459
0.000238263
-0.000929055
0.000233764
-0.00107832
0.000228969
-0.00122443
0.000224474
-0.00136763
0.000220425
-0.00150821
0.000216821
-0.00164643
0.000213619
-0.00178251
0.000210777
-0.00191665
0.000208254
-0.00204904
0.000206018
-0.00217983
0.000204042
-0.00230919
0.000202303
-0.00243724
0.00020077
-0.00256408
0.000199413
0.000198272
-0.00268987
-5.2482e-05
0.000135398
-0.000164813
0.000287466
-0.000306975
0.000362111
-0.000461068
0.000391402
-0.000617758
0.00039746
-0.000772893
0.000393398
-0.000925006
0.000385877
-0.00107381
0.000377778
-0.00121947
0.000370127
-0.00136223
0.00036319
-0.00150238
0.000356971
-0.00164017
0.000351406
-0.00177582
0.000346424
-0.00190952
0.000341962
-0.00204147
0.000337966
-0.00217182
0.000334393
-0.00230072
0.000331205
-0.00242831
0.000328353
-0.00255468
0.000325789
0.00032357
-0.00267998
-5.1845e-05
0.000187243
-0.000163099
0.00039872
-0.000304155
0.000503167
-0.000457253
0.000544499
-0.000613066
0.000553273
-0.000767412
0.000547744
-0.000918793
0.000537258
-0.0010669
0.000525888
-0.00121188
0.000515103
-0.00135398
0.00050529
-0.00149347
0.000496465
-0.00163061
0.00048854
-0.0017656
0.000481419
-0.00189866
0.000475015
-0.00202994
0.000469252
-0.00215962
0.000464073
-0.00228784
0.000459425
-0.00241473
0.000455241
-0.00254039
0.000451454
0.000448135
-0.00266496
-5.09838e-05
0.000238227
-0.000160784
0.00050852
-0.000300345
0.000642729
-0.000452099
0.000696253
-0.000606733
0.000707907
-0.000760021
0.000701032
-0.00091042
0.000687657
-0.0010576
0.000673063
-0.00120167
0.000659174
-0.00134288
0.000646506
-0.0014815
0.000635086
-0.00161777
0.000624808
-0.0017519
0.00061555
-0.00188409
0.000607199
-0.0020145
0.000599662
-0.00214329
0.000592864
-0.0022706
0.000586739
-0.00239656
0.000581204
-0.00252128
0.000576173
0.000571726
-0.00264488
-4.99002e-05
0.000288127
-0.000157868
0.000616487
-0.000295547
0.000780408
-0.000445609
0.000846315
-0.000598761
0.000861059
-0.000750723
0.000852994
-0.000899895
0.000836829
-0.0010459
0.000819073
-0.00118885
0.000802118
-0.00132896
0.000786621
-0.0014665
0.000772624
-0.0016017
0.000760003
-0.00173476
0.000748609
-0.00186587
0.000738308
-0.00199519
0.000728987
-0.00212288
0.000720554
-0.00224907
0.000712931
-0.00237389
0.000706023
-0.00249744
0.00069972
0.000694109
-0.00261982
-4.85964e-05
0.000336724
-0.000154354
0.000722245
-0.000289761
0.000915815
-0.000437783
0.000994337
-0.000589151
0.00101243
-0.00073952
0.00100336
-0.000887223
0.000984532
-0.00103184
0.000963691
-0.00117344
0.000943722
-0.00131225
0.000925429
-0.00144851
0.000908879
-0.00158243
0.000893927
-0.00171422
0.000880403
-0.00184406
0.000868148
-0.00197211
0.00085703
-0.0020985
0.000846943
-0.00222336
0.000837797
-0.00234682
0.000829484
-0.00246898
0.000821875
0.000815055
-0.00258992
-4.70747e-05
0.000383798
-0.000150246
0.000825416
-0.000282989
0.00104856
-0.000428619
0.00113997
-0.0005779
0.00116171
-0.000726411
0.00115187
-0.000872407
0.00113053
-0.00101541
0.0011067
-0.00115547
0.00108378
-0.00129277
0.00106273
-0.00142755
0.00104366
-0.00156002
0.0010264
-0.00169036
0.00101075
-0.00181875
0.000996536
-0.00194533
0.000983608
-0.00207023
0.000971845
-0.00219358
0.000961145
-0.00231549
0.000951389
-0.00243604
0.000942431
0.000934345
-0.00255533
-4.53378e-05
0.000429136
-0.000145545
0.000925623
-0.000275231
0.00117824
-0.000418116
0.00128285
-0.000565005
0.0013086
-0.000711395
0.00129826
-0.000855449
0.00127458
-0.000996629
0.00124788
-0.00113493
0.00122208
-0.00127055
0.00119834
-0.00140367
0.00117678
-0.00153451
0.00115724
-0.00166324
0.00113948
-0.00179002
0.00112331
-0.00191497
0.00110856
-0.00203822
0.00109509
-0.00215988
0.0010828
-0.00228004
0.00107156
-0.00239881
0.0010612
0.00105178
-0.00251624
-4.3388e-05
0.000472524
-0.000140253
0.00102249
-0.000266484
0.00130447
-0.000406265
0.00142263
-0.000550456
0.00145279
-0.000694462
0.00144227
-0.000836342
0.00141646
-0.000975488
0.00138702
-0.00111185
0.00135845
-0.0012456
0.00133208
-0.0013769
0.00130809
-0.00150596
0.0012863
-0.00163294
0.00126645
-0.00175795
0.00124833
-0.00188114
0.00123175
-0.0020026
0.00121655
-0.00212242
0.00120262
-0.00224069
0.00118983
-0.0023575
0.001178
0.00116716
-0.00247288
-4.12283e-05
0.000513753
-0.000134373
0.00111563
-0.000256745
0.00142685
-0.000393059
0.00155895
-0.000534241
0.00159397
-0.000675597
0.00158363
-0.000815075
0.00155594
-0.000951983
0.00152393
-0.00108623
0.0014927
-0.00121794
0.00146379
-0.00134728
0.00143744
-0.00147442
0.00141344
-0.00159951
0.00139154
-0.00172266
0.00137148
-0.00184398
0.00135306
-0.00196353
0.0013361
-0.0020814
0.0013205
-0.00219767
0.0013061
-0.00231237
0.0012927
0.00128033
-0.00242554
-3.88613e-05
0.000552614
-0.000127904
0.00120468
-0.000246007
0.00154495
-0.000378482
0.00169142
-0.000516338
0.00173182
-0.000654779
0.00172207
-0.000791625
0.00169279
-0.000926095
0.0016584
-0.00105804
0.00162464
-0.00118756
0.00159331
-0.00131481
0.00156468
-0.00143992
0.00153856
-0.00156303
0.00151465
-0.00168424
0.00149269
-0.00180361
0.00147243
-0.00192121
0.0014537
-0.00203707
0.00143636
-0.00215124
0.00142027
-0.00226375
0.00140522
0.00139117
-0.00237459
-3.62901e-05
0.000588904
-0.000120847
0.00128923
-0.000234264
0.00165837
-0.000362518
0.00181968
-0.000496722
0.00186603
-0.000631973
0.00185732
-0.000765956
0.00182677
-0.000897789
0.00179023
-0.00102727
0.00175412
-0.00115446
0.0017205
-0.00127948
0.0016897
-0.00140248
0.00166155
-0.00152355
0.00163572
-0.00164277
0.00161191
-0.00176018
0.00158985
-0.00187582
0.00156933
-0.00198967
0.00155022
-0.00210176
0.00153235
-0.00221205
0.00151551
0.00149961
-0.00232049
-3.35184e-05
0.000622422
-0.000113202
0.00136892
-0.000221506
0.00176667
-0.000345144
0.00194331
-0.000475358
0.00199624
-0.000607137
0.0019891
-0.000738018
0.00195765
-0.000867013
0.00191923
-0.000993852
0.00188096
-0.00111856
0.00184521
-0.00124126
0.0018124
-0.00136206
0.00178235
-0.00148105
0.00175471
-0.00159829
0.00172915
-0.00171379
0.00170535
-0.00182755
0.00168308
-0.0019395
0.00166217
-0.0020496
0.00164245
-0.00215776
0.00162367
0.00160567
-0.00226383
-3.05505e-05
0.000652973
-0.000104972
0.00144334
-0.000207723
0.00186942
-0.000326335
0.00206193
-0.000452207
0.00212211
-0.000580217
0.00211711
-0.000707748
0.00208518
-0.000833691
0.00204517
-0.000957711
0.00200498
-0.0010798
0.0019673
-0.00120006
0.00193266
-0.0013186
0.00190089
-0.0014355
0.00187161
-0.0015508
0.00184445
-0.0016645
0.00181905
-0.00177654
0.00179512
-0.00188682
0.00177245
-0.0019952
0.00175083
-0.00210147
0.00172994
0.00170955
-0.00220535
-2.73925e-05
0.000680365
-9.616e-05
0.0015121
-0.000192908
0.00196617
-0.000306066
0.00217508
-0.000427224
0.00224327
-0.000551152
0.00224104
-0.000675066
0.00220909
-0.000797728
0.00216783
-0.000918731
0.00212599
-0.00103804
0.0020866
-0.00115573
0.00205036
-0.00127194
0.0020171
-0.00138673
0.00198641
-0.00150017
0.00195788
-0.00161223
0.00193111
-0.00172285
0.00190574
-0.00183189
0.00188149
-0.00193909
0.00185803
-0.00204405
0.0018349
0.00181165
-0.00214615
-2.40522e-05
0.000704418
-8.67743e-05
0.00157483
-0.000177056
0.00205645
-0.000284314
0.00228234
-0.000400365
0.00235932
-0.000519874
0.00236054
-0.00063988
0.0023291
-0.000759006
0.00228696
-0.000876764
0.00224374
-0.000993082
0.00220292
-0.00110805
0.00216533
-0.00122181
0.00213085
-0.00133446
0.00209907
-0.00144609
0.00206951
-0.00155671
0.00204173
-0.00166625
0.00201528
-0.00177456
0.00198981
-0.00188138
0.00196485
-0.00198601
0.00193952
0.00191297
-0.00208733
-2.05404e-05
0.000724958
-7.68285e-05
0.00163111
-0.000160171
0.00213979
-0.000261063
0.00238324
-0.000371589
0.00246985
-0.000486318
0.00247527
-0.0006021
0.00244488
-0.000717407
0.00240227
-0.000831659
0.002358
-0.000944757
0.00231602
-0.0010568
0.00227737
-0.00116795
0.002242
-0.00127838
0.0022095
-0.00138824
0.00217937
-0.00149763
0.00215112
-0.00160657
0.00212422
-0.00171506
0.0020983
-0.00182305
0.00207284
-0.0019298
0.00204627
0.00201484
-0.00203166
-1.68712e-05
0.000741829
-6.63444e-05
0.00168059
-0.000142267
0.00221572
-0.000236307
0.00247728
-0.000340866
0.00257441
-0.000450425
0.00258483
-0.000561634
0.00255609
-0.00067279
0.00251342
-0.000783205
0.00246841
-0.00089273
0.00242554
-0.00100145
0.0023861
-0.00110956
0.0023501
-0.00121727
0.00231721
-0.00132484
0.00228694
-0.00143253
0.00225881
-0.00154056
0.00223225
-0.001649
0.00220674
-0.00175808
0.00218193
-0.00186851
0.0021567
0.00212353
-0.0019772
-1.30626e-05
0.000754892
-5.53537e-05
0.00172288
-0.000123372
0.00228374
-0.000210059
0.00256396
-0.000308187
0.00267254
-0.000412162
0.00268881
-0.000518423
0.00266235
-0.00062507
0.00262007
-0.000731294
0.00257464
-0.00083689
0.00253114
-0.000941958
0.00249116
-0.00104676
0.00245491
-0.00115168
0.00242212
-0.00125721
0.00239247
-0.00136403
0.00236563
-0.00147302
0.00234124
-0.00158503
0.00231875
-0.00170039
0.00229729
-0.00182004
0.00227635
0.00226845
-0.00196495
-9.14975e-06
0.000764041
-4.39202e-05
0.00175765
-0.000103557
0.00234337
-0.000182379
0.00264278
-0.000273591
0.00276375
-0.000371547
0.00278676
-0.000472461
0.00276327
-0.000574213
0.00272182
-0.000675837
0.00267626
-0.000777033
0.00263234
-0.000877853
0.00259198
-0.000978512
0.00255557
-0.00107931
0.00252292
-0.00118056
0.00249372