/*--------------------------------*- C++ -*----------------------------------*\
  =========                 |
  \\      /  F ield         | OpenFOAM: The Open Source CFD Toolbox
   \\    /   O peration     | Website:  https://openfoam.org
    \\  /    A nd           | Version:  6.0
     \\/     M anipulation  |
\*---------------------------------------------------------------------------*/
FoamFile
{
    version     2.0;
    format      ascii;
    class       volScalarField;
    location    "61";
    object      p;
}
// * * * * * * * * * * * * * * * * * * * * * * * * * * * * * * * * * * * * * //

dimensions      [0 2 -2 0 0 0 0];

internalField   nonuniform List<scalar> 
4000
(
-0.47448
-0.46044
-0.447873
-0.433857
-0.417193
-0.398413
-0.378388
-0.357997
-0.337983
-0.318866
-0.300942
-0.284334
-0.269047
-0.255018
-0.24215
-0.230335
-0.219469
-0.209424
-0.200003
-0.191504
-0.482173
-0.467699
-0.454285
-0.438768
-0.420101
-0.399131
-0.377005
-0.354771
-0.333233
-0.312902
-0.294028
-0.27668
-0.260815
-0.24633
-0.233098
-0.220992
-0.209891
-0.199649
-0.190053
-0.181476
-0.487966
-0.473156
-0.458842
-0.441699
-0.420932
-0.397753
-0.373592
-0.349639
-0.326729
-0.305339
-0.285661
-0.267705
-0.251378
-0.236541
-0.22304
-0.210728
-0.199472
-0.189105
-0.179402
-0.17082
-0.49149
-0.476442
-0.46118
-0.442313
-0.419402
-0.394059
-0.367984
-0.342478
-0.318376
-0.2961
-0.275775
-0.25735
-0.240684
-0.225605
-0.211933
-0.199506
-0.188178
-0.177761
-0.168025
-0.159511
-0.492389
-0.4772
-0.460951
-0.440301
-0.415259
-0.38786
-0.360044
-0.333187
-0.308095
-0.28512
-0.264314
-0.245565
-0.228689
-0.213481
-0.199742
-0.187294
-0.17598
-0.165593
-0.1559
-0.14753
-0.490331
-0.475097
-0.45784
-0.435392
-0.408296
-0.379005
-0.349664
-0.321687
-0.295824
-0.272346
-0.251231
-0.232308
-0.215355
-0.200137
-0.186437
-0.174067
-0.162858
-0.152584
-0.143014
-0.134865
-0.485021
-0.469833
-0.451572
-0.427363
-0.398348
-0.36738
-0.336767
-0.307921
-0.281518
-0.25774
-0.236491
-0.21755
-0.200654
-0.185549
-0.172
-0.159809
-0.148799
-0.138725
-0.129362
-0.121511
-0.476205
-0.461157
-0.441921
-0.41604
-0.385296
-0.352911
-0.321305
-0.291856
-0.265149
-0.241278
-0.220075
-0.20127
-0.184571
-0.169702
-0.156418
-0.144513
-0.133798
-0.124014
-0.114945
-0.10747
-0.463684
-0.448865
-0.428715
-0.401302
-0.36907
-0.335561
-0.30326
-0.273482
-0.246711
-0.222952
-0.201972
-0.18346
-0.167098
-0.152594
-0.139692
-0.12818
-0.117861
-0.10846
-0.0997753
-0.0927539
-0.447314
-0.432816
-0.411844
-0.383088
-0.349646
-0.315331
-0.282644
-0.252812
-0.226215
-0.202771
-0.182191
-0.164128
-0.148242
-0.13423
-0.121828
-0.11082
-0.101001
-0.0920826
-0.0838768
-0.0773887
-0.427013
-0.412929
-0.391259
-0.361388
-0.32705
-0.292261
-0.259499
-0.229885
-0.203693
-0.180761
-0.160752
-0.143289
-0.128018
-0.114625
-0.102842
-0.0924505
-0.083238
-0.0749065
-0.0672824
-0.0614148
-0.402766
-0.389189
-0.366973
-0.336251
-0.301348
-0.266425
-0.233895
-0.204762
-0.179196
-0.156965
-0.137691
-0.120974
-0.106451
-0.0938007
-0.0827551
-0.073092
-0.0645951
-0.0569597
-0.050029
-0.0448767
-0.374619
-0.361645
-0.339061
-0.307777
-0.272655
-0.237933
-0.205932
-0.177529
-0.152798
-0.131445
-0.113058
-0.0972247
-0.0835739
-0.0717855
-0.06159
-0.0527657
-0.0450932
-0.0382683
-0.0321494
-0.0277987
-0.342687
-0.330411
-0.307658
-0.276119
-0.241123
-0.20693
-0.175738
-0.148299
-0.124595
-0.10428
-0.0869191
-0.0720925
-0.0594286
-0.0486099
-0.0393707
-0.031491
-0.0247524
-0.0188573
-0.0136679
-0.0101727
-0.307143
-0.295661
-0.272952
-0.241474
-0.206946
-0.173594
-0.143473
-0.117209
-0.0947034
-0.0755691
-0.0593558
-0.045642
-0.0340615
-0.0243051
-0.0161152
-0.00927826
-0.00358262
0.00125903
0.00540559
0.0080018
-0.26822
-0.257628
-0.235185
-0.204083
-0.170353
-0.138133
-0.109322
-0.0844236
-0.063268
-0.045436
-0.03047
-0.0179532
-0.00753063
0.00109306
0.00816053
0.0138727
0.018429
0.0220996
0.0250658
0.0265968
-0.226204
-0.216595
-0.194645
-0.164229
-0.131608
-0.100788
-0.0735001
-0.0501344
-0.0304573
-0.0140268
-0.000384408
0.0108755
0.020091
0.0275355
0.0334286
0.0379553
0.0412982
0.0436719
0.0451932
0.0452137
-0.18143
-0.172891
-0.151657
-0.122226
-0.0910028
-0.061825
-0.0362513
-0.0145611
0.00353248
0.0184877
0.0307588
0.040736
0.0487333
0.0549914
0.0596958
0.0630097
0.0650752
0.0659309
0.0654641
0.0634025
-0.134269
-0.126883
-0.106583
-0.0784175
-0.0488579
-0.0215397
0.00215393
0.0220465
0.0384718
0.0519014
0.0627854
0.0715007
0.0783383
0.0835043
0.0871469
0.0893978
0.0902839
0.0894467
0.0864174
0.0822159
-0.0851311
-0.0789719
-0.0598125
-0.0331713
-0.00551407
0.0197521
0.0414196
0.0594071
0.07409
0.0859523
0.095445
0.102943
0.108734
0.113024
0.115973
0.117729
0.118195
0.116519
0.111994
0.107429
-0.034449
-0.0295821
-0.011753
0.013129
0.038673
0.0617196
0.0812328
0.0972182
0.110085
0.120327
0.128396
0.13467
0.139453
0.142987
0.145517
0.147319
0.148367
0.147677
0.144988
0.148585
0.0173327
0.0208497
0.0371758
0.0600913
0.0833404
0.104025
0.121275
0.135173
0.146154
0.154713
0.161296
0.166276
0.169953
0.172584
0.174429
0.175751
0.176537
0.176317
0.175986
0.181737
0.0697513
0.0718726
0.0865455
0.107318
0.128123
0.146332
0.161232
0.172972
0.182006
0.188825
0.193866
0.197492
0.199998
0.201638
0.20266
0.203286
0.203498
0.203005
0.202714
0.207347
0.122341
0.123034
0.135928
0.154416
0.172661
0.188309
0.200795
0.210325
0.217363
0.222392
0.225833
0.228032
0.229271
0.229792
0.229825
0.229566
0.22901
0.227936
0.227091
0.230221
0.174638
0.173883
0.184901
0.200997
0.216602
0.229635
0.23967
0.246961
0.251975
0.255183
0.256984
0.257707
0.257615
0.256929
0.255855
0.25456
0.253027
0.25106
0.249348
0.251076
0.226186
0.223976
0.23305
0.246683
0.259605
0.270003
0.277578
0.282624
0.285609
0.286983
0.287127
0.286347
0.284886
0.282946
0.280709
0.278315
0.275732
0.272787
0.270131
0.270517
0.276538
0.272883
0.279973
0.291111
0.301342
0.309116
0.314252
0.317074
0.318047
0.3176
0.316093
0.313809
0.310971
0.30776
0.304337
0.300818
0.297161
0.293219
0.289617
0.288734
0.325264
0.320187
0.325284
0.333932
0.341501
0.346695
0.34944
0.350086
0.349088
0.346857
0.343728
0.339964
0.335767
0.331299
0.326702
0.322071
0.31736
0.312448
0.307925
0.305836
0.371951
0.365491
0.368616
0.374813
0.379785
0.382475
0.382904
0.381445
0.378542
0.374584
0.369885
0.364685
0.359169
0.353482
0.347746
0.34204
0.336317
0.330481
0.325075
0.321844
0.416208
0.408417
0.409622
0.413443
0.415914
0.416204
0.41442
0.410951
0.406229
0.400623
0.394423
0.387853
0.381077
0.374225
0.367403
0.360676
0.353998
0.347294
0.341053
0.336743
0.457666
0.448614
0.447975
0.449529
0.449627
0.447648
0.443777
0.438415
0.431979
0.42482
0.417209
0.409347
0.401386
0.393438
0.385597
0.377914
0.370349
0.36284
0.355817
0.350496
0.495985
0.485752
0.483375
0.482799
0.48068
0.476589
0.470779
0.463658
0.455633
0.447034
0.438113
0.429054
0.419994
0.411033
0.402249
0.393685
0.385305
0.37706
0.369312
0.363054
0.530849
0.519531
0.515545
0.513005
0.50885
0.502826
0.495244
0.486518
0.477043
0.46713
0.457013
0.446864
0.436803
0.426919
0.417278
0.407915
0.398799
0.389888
0.38148
0.374365
0.561975
0.54968
0.544235
0.539921
0.533936
0.526178
0.517007
0.506845
0.496072
0.484983
0.473799
0.462674
0.451719
0.441011
0.430606
0.420532
0.410761
0.401262
0.392261
0.384377
0.589111
0.575955
0.569223
0.563348
0.555758
0.546481
0.535923
0.524505
0.512598
0.500483
0.488366
0.47639
0.464655
0.453229
0.442159
0.431466
0.421128
0.411117
0.401598
0.393038
0.612036
0.598148
0.590316
0.583112
0.574158
0.563594
0.55186
0.53938
0.526514
0.513531
0.500625
0.487929
0.475535
0.463502
0.45187
0.440655
0.42984
0.419398
0.40944
0.400306
0.630564
0.616081
0.607353
0.599067
0.589005
0.577398
0.564711
0.551371
0.537727
0.524041
0.510497
0.497219
0.484292
0.471768
0.459682
0.448045
0.436846
0.426056
0.41574
0.40614
0.644547
0.629611
0.620201
0.611094
0.600192
0.587794
0.574387
0.560395
0.546164
0.531946
0.517919
0.504201
0.490871
0.477976
0.465546
0.453592
0.442102
0.431051
0.420463
0.410509
0.65387
0.638629
0.628761
0.619102
0.607638
0.59471
0.580819
0.566391
0.551766
0.537192
0.522842
0.508829
0.495229
0.482087
0.469427
0.45726
0.445577
0.43435
0.423581
0.41339
0.658456
0.643062
0.632966
0.623032
0.611287
0.598095
0.583963
0.569317
0.554496
0.539745
0.525233
0.511073
0.497339
0.484073
0.471299
0.459026
0.447247
0.435933
0.425073
0.414765
0.658268
0.642874
0.632781
0.622852
0.611111
0.597923
0.583795
0.569152
0.554334
0.539585
0.525075
0.510918
0.497185
0.483921
0.47115
0.458879
0.447101
0.435789
0.424931
0.414626
0.653302
0.638062
0.628206
0.618561
0.60711
0.594195
0.580314
0.565895
0.551278
0.536712
0.522368
0.508362
0.494768
0.481632
0.468978
0.456817
0.44514
0.433918
0.423154
0.412974
0.643596
0.628662
0.619272
0.610189
0.59931
0.586932
0.573542
0.559565
0.545348
0.531143
0.517127
0.50342
0.490101
0.477217
0.464797
0.452853
0.441373
0.43033
0.419752
0.409816
0.629224
0.614744
0.606044
0.597793
0.587764
0.576185
0.563523
0.550204
0.53658
0.522912
0.509385
0.496123
0.483211
0.470702
0.45863
0.447008
0.435822
0.425045
0.414742
0.405167
0.610298
0.596415
0.58862
0.581462
0.572551
0.562025
0.550323
0.537872
0.525031
0.512072
0.499188
0.486514
0.47414
0.462126
0.450513
0.439317
0.428521
0.418095
0.408153
0.399052
0.586964
0.573814
0.567129
0.561312
0.553776
0.544547
0.53403
0.522649
0.510774
0.49869
0.4866
0.474651
0.462941
0.45154
0.440493
0.429824
0.41951
0.409518
0.400021
0.391502
0.559406
0.547118
0.54173
0.537488
0.53157
0.52387
0.51475
0.504633
0.493899
0.482848
0.471698
0.460605
0.449681
0.439003
0.428628
0.418583
0.40884
0.399365
0.390391
0.382555
0.527841
0.516534
0.512616
0.510162
0.506087
0.500134
0.492612
0.483941
0.474513
0.464645
0.45457
0.44446
0.434436
0.424588
0.414983
0.405655
0.396571
0.38769
0.379313
0.372255
0.49252
0.482301
0.480005
0.479531
0.477507
0.473499
0.467761
0.460705
0.452737
0.444191
0.435319
0.426307
0.417291
0.408372
0.39963
0.391107
0.382766
0.374555
0.366844
0.360651
0.453725
0.444689
0.444146
0.445818
0.446028
0.444147
0.440361
0.435074
0.428706
0.421609
0.414055
0.406248
0.398338
0.39044
0.382648
0.375013
0.367493
0.360024
0.353043
0.347796
0.411767
0.403998
0.405312
0.409271
0.411872
0.412275
0.410591
0.40721
0.402566
0.397032
0.3909
0.384392
0.377676
0.370881
0.364116
0.357444
0.350819
0.344161
0.337968
0.333742
0.366987
0.360553
0.363805
0.37016
0.375281
0.378102
0.378646
0.377289
0.374477
0.370602
0.36598
0.360853
0.355406
0.349784
0.344112
0.33847
0.332807
0.327025
0.321674
0.318535
0.319752
0.314706
0.319947
0.328775
0.336515
0.341861
0.344737
0.345499
0.344606
0.34247
0.339429
0.335748
0.331629
0.327237
0.322713
0.318154
0.313511
0.308661
0.304199
0.302213
0.270451
0.266832
0.274085
0.285428
0.295854
0.3038
0.309085
0.312041
0.313132
0.312794
0.311387
0.309197
0.306448
0.303322
0.299981
0.296542
0.292963
0.289091
0.285558
0.28479
0.219496
0.217329
0.226585
0.24045
0.253591
0.264184
0.27193
0.277126
0.280245
0.281742
0.281999
0.281324
0.279963
0.278119
0.275974
0.27367
0.271175
0.268308
0.265729
0.266241
0.167316
0.16661
0.177833
0.194188
0.210041
0.223294
0.233521
0.240981
0.246147
0.249491
0.251419
0.252259
0.252279
0.251699
0.250727
0.249532
0.248095
0.246216
0.244588
0.246457
0.114359
0.115108
0.12823
0.147006
0.165529
0.181423
0.194124
0.203844
0.211052
0.216234
0.219815
0.222145
0.223507
0.224144
0.224288
0.224138
0.223689
0.22271
0.221957
0.225241
0.06108
0.0632649
0.0781881
0.0992812
0.120395
0.138879
0.15402
0.165972
0.175194
0.182184
0.18738
0.19115
0.193789
0.195555
0.196698
0.197442
0.197767
0.197372
0.197177
0.201982
0.00794418
0.011532
0.0281324
0.0514012
0.0749933
0.0959842
0.113502
0.127635
0.138825
0.147571
0.154325
0.159462
0.163285
0.166051
0.168024
0.16947
0.170375
0.170256
0.170019
0.175954
-0.0445819
-0.0396369
-0.0215091
0.00376068
0.0296834
0.0530689
0.0728788
0.0891245
0.102222
0.112671
0.120927
0.127372
0.132312
0.135991
0.138656
0.140587
0.141756
0.141162
0.138532
0.142277
-0.0960339
-0.0897894
-0.0703068
-0.0432424
-0.0151687
0.0104714
0.0324664
0.0507411
0.065678
0.0777674
0.0874648
0.0951484
0.101108
0.105551
0.108638
0.110521
0.111097
0.109504
0.105023
0.100469
-0.145965
-0.138487
-0.11784
-0.0892143
-0.059199
-0.0314698
-0.00741559
0.0127929
0.0294974
0.0431759
0.0542837
0.0632011
0.0702213
0.0755522
0.0793425
0.081725
0.082727
0.0819867
0.0790251
0.074848
-0.193939
-0.185302
-0.163697
-0.13377
-0.10205
-0.0724223
-0.0464528
-0.0244157
-0.0060158
0.00921244
0.0217287
0.0319273
0.040125
0.0465649
0.0514337
0.0548964
0.0570971
0.0580767
0.0577155
0.0557176
-0.239545
-0.229831
-0.207488
-0.176539
-0.14338
-0.112068
-0.0843476
-0.060602
-0.0405891
-0.0238593
-0.00994794
0.0015554
0.0109921
0.0186386
0.0247163
0.0294122
0.032912
0.0354344
0.0370906
0.0372042
-0.282404
-0.271703
-0.248847
-0.217176
-0.182865
-0.150111
-0.120827
-0.0955143
-0.0739916
-0.0558321
-0.0405712
-0.027787
-0.0171205
-0.00827306
-0.000999657
0.00490276
0.00963693
0.013478
0.0166021
0.0182478
-0.322179
-0.310585
-0.287444
-0.255363
-0.220211
-0.186282
-0.155648
-0.128932
-0.106026
-0.086534
-0.0699984
-0.0559917
-0.0441432
-0.0341402
-0.0257221
-0.0186734
-0.0127788
-0.0077457
-0.00341966
-0.000688596
-0.358579
-0.346187
-0.322987
-0.290814
-0.255153
-0.220338
-0.188591
-0.160661
-0.136522
-0.115818
-0.0981062
-0.0829601
-0.0700031
-0.0589139
-0.0494237
-0.0413102
-0.0343513
-0.0282439
-0.022854
-0.0192033
-0.391365
-0.378272
-0.35523
-0.323284
-0.287456
-0.252069
-0.219469
-0.190536
-0.165335
-0.14356
-0.124792
-0.108612
-0.0946422
-0.0825588
-0.0720893
-0.063009
-0.055095
-0.0480373
-0.0416976
-0.0371709
-0.420357
-0.40666
-0.383978
-0.35257
-0.316925
-0.281293
-0.248122
-0.218418
-0.192346
-0.16966
-0.149974
-0.132883
-0.118014
-0.105044
-0.0937015
-0.0837604
-0.0750011
-0.0671132
-0.0599421
-0.0545938
-0.445435
-0.431229
-0.409091
-0.378516
-0.343402
-0.307864
-0.274418
-0.244194
-0.217458
-0.194038
-0.173586
-0.15572
-0.140077
-0.12634
-0.114237
-0.103545
-0.09405
-0.0854466
-0.0775632
-0.0714799
-0.466543
-0.451925
-0.430487
-0.401016
-0.366771
-0.331668
-0.298256
-0.267774
-0.240596
-0.21663
-0.195577
-0.177082
-0.160799
-0.146418
-0.133673
-0.122343
-0.112221
-0.103011
-0.0945278
-0.0878043
-0.483692
-0.468753
-0.448145
-0.420014
-0.386956
-0.352626
-0.319563
-0.289095
-0.261708
-0.237393
-0.21591
-0.196938
-0.180153
-0.165256
-0.151988
-0.140132
-0.12949
-0.11978
-0.110799
-0.103522
-0.496956
-0.481788
-0.462107
-0.435512
-0.40393
-0.370696
-0.338293
-0.308118
-0.280759
-0.2563
-0.234564
-0.215271
-0.198124
-0.182839
-0.169166
-0.156897
-0.145839
-0.135726
-0.126343
-0.118593
-0.506471
-0.491164
-0.472477
-0.447567
-0.417709
-0.385873
-0.354432
-0.324827
-0.297738
-0.273341
-0.251531
-0.232075
-0.214706
-0.19916
-0.185201
-0.172625
-0.161252
-0.150831
-0.141136
-0.132991
-0.512431
-0.497077
-0.479417
-0.456291
-0.428358
-0.398186
-0.367994
-0.339228
-0.312649
-0.288523
-0.266817
-0.247355
-0.229904
-0.214224
-0.200092
-0.187317
-0.175726
-0.165087
-0.155167
-0.146704
-0.515084
-0.499774
-0.483147
-0.461849
-0.435988
-0.407706
-0.379023
-0.351354
-0.325518
-0.301867
-0.280445
-0.261131
-0.243735
-0.228043
-0.213852
-0.200979
-0.189264
-0.178494
-0.168434
-0.159731
-0.51472
-0.499548
-0.483936
-0.46446
-0.440757
-0.414541
-0.387592
-0.361256
-0.336388
-0.313412
-0.292447
-0.273434
-0.256226
-0.240642
-0.226499
-0.213628
-0.20188
-0.191063
-0.180942
-0.172076
-0.511666
-0.496728
-0.482094
-0.464388
-0.442867
-0.418836
-0.393803
-0.369011
-0.345318
-0.323207
-0.302868
-0.284304
-0.267414
-0.252053
-0.238062
-0.225288
-0.213595
-0.20281
-0.192706
-0.183752
-0.506276
-0.491668
-0.477965
-0.461935
-0.442562
-0.420773
-0.397791
-0.374717
-0.352386
-0.331319
-0.311766
-0.293792
-0.277346
-0.262319
-0.248579
-0.235994
-0.224439
-0.213762
-0.203747
-0.19478
-0.498918
-0.484738
-0.47191
-0.457434
-0.440121
-0.420567
-0.399713
-0.378493
-0.357684
-0.337821
-0.319205
-0.301956
-0.286072
-0.271486
-0.258094
-0.245783
-0.234446
-0.223951
-0.214095
-0.205186
0.089799
0.0615543
0.040959
0.0312434
0.0225314
0.0106997
-0.00258635
-0.0154018
-0.0274505
-0.039149
-0.0507394
-0.0621922
-0.0734116
-0.0843537
-0.0950238
-0.105444
-0.115635
-0.125621
-0.135433
-0.14511
0.0340815
0.0203125
0.00841456
0.00116988
-0.00430305
-0.0106799
-0.0180886
-0.0255252
-0.0324194
-0.03883
-0.0449797
-0.0509622
-0.056752
-0.0623027
-0.067595
-0.0726313
-0.0774173
-0.0819541
-0.0862379
-0.0902623
0.0213304
0.0153642
0.0101923
0.00575931
0.00166224
-0.00254323
-0.00698682
-0.0115108
-0.0159418
-0.0202424
-0.0244655
-0.0286617
-0.0328443
-0.0370056
-0.0411396
-0.0452487
-0.0493403
-0.0534221
-0.0575012
-0.0615843
0.0142676
0.0106124
0.00717359
0.00369192
0.000181422
-0.00330336
-0.00675789
-0.0101865
-0.0135762
-0.0169122
-0.0201923
-0.0234227
-0.0266079
-0.0297476
-0.0328401
-0.0358845
-0.0388812
-0.0418319
-0.0447379
-0.0476005
0.00890727
0.00597028
0.00340127
0.000959977
-0.0015175
-0.00402176
-0.0065001
-0.00893378
-0.0113303
-0.0136987
-0.0160425
-0.0183628
-0.0206611
-0.0229399
-0.0252015
-0.0274483
-0.0296827
-0.031907
-0.0341237
-0.0363352
0.0049467
0.00259421
0.00068415
-0.00104242
-0.00281152
-0.00464879
-0.00649715
-0.00832128
-0.0101214
-0.0119086
-0.0136891
-0.0154634
-0.0172303
-0.0189894
-0.0207414
-0.0224868
-0.0242263
-0.0259604
-0.0276894
-0.0294137
0.0026368
0.000817387
-0.000609273
-0.00188604
-0.00320841
-0.00460008
-0.00601246
-0.00741245
-0.00879711
-0.010175
-0.0115516
-0.0129277
-0.0143019
-0.0156735
-0.0170426
-0.0184094
-0.0197745
-0.0211382
-0.0225009
-0.0238629
0.00139642
6.58378e-06
-0.00110643
-0.00211923
-0.00316686
-0.00426637
-0.00538456
-0.00649744
-0.0076016
-0.00870227
-0.00980337
-0.0109055
-0.0120076
-0.013109
-0.0142095
-0.0153091
-0.016408
-0.0175062
-0.0186038
-0.0197009
0.000726556
-0.000313756
-0.00120704
-0.00205137
-0.00291569
-0.00380848
-0.00471258
-0.00561489
-0.00651286
-0.00740886
-0.00830496
-0.00920154
-0.0100981
-0.0109941
-0.0118894
-0.0127839
-0.0136777
-0.0145709
-0.0154634
-0.0163553
0.000279791
-0.000478188
-0.00120076
-0.00192211
-0.00265355
-0.00339287
-0.00413477
-0.00487598
-0.00561577
-0.00635465
-0.00709312
-0.00783127
-0.00856892
-0.00930588
-0.010042
-0.0107774
-0.0115119
-0.0122457
-0.0129787
-0.013711
-0.000107557
-0.000647288
-0.00122732
-0.00184166
-0.00246218
-0.00307696
-0.00368724
-0.00429646
-0.00490587
-0.00551515
-0.0061238
-0.00673164
-0.00733868
-0.00794496
-0.00855052
-0.00915538
-0.00975956
-0.0103631
-0.0109661
-0.0115686
-0.000486492
-0.000864423
-0.00132236
-0.00183492
-0.00235345
-0.00285974
-0.00335752
-0.0038537
-0.0043509
-0.00484866
-0.00534604
-0.00584269
-0.00633871
-0.0068343
-0.00732958
-0.00782465
-0.00831955
-0.00881437
-0.00930919
-0.00980407
-0.000825636
-0.00107596
-0.00142436
-0.0018388
-0.00226088
-0.00266841
-0.00306558
-0.00346078
-0.00385752
-0.00425548
-0.00465364
-0.00505159
-0.00544951
-0.00584769
-0.00624638
-0.0066457
-0.00704577
-0.00744671
-0.00784863
-0.00825161
-0.00109875
-0.00123165
-0.00147683
-0.00179946
-0.00213233
-0.002449
-0.0027537
-0.00305617
-0.00336077
-0.00366751
-0.00397537
-0.00428402
-0.00459374
-0.00490495
-0.00521802
-0.00553317
-0.00585056
-0.00617036
-0.0064927
-0.00681766
-0.00128869
-0.00128174
-0.00140749
-0.00162935
-0.00186663
-0.0020857
-0.00229068
-0.00249352
-0.00270027
-0.00291147
-0.00312619
-0.00334414
-0.00356573
-0.00379157
-0.00402212
-0.00425768
-0.00449844
-0.00474453
-0.00499604
-0.00525299
-0.00152223
-0.00138742
-0.00135724
-0.00142047
-0.0015107
-0.00159418
-0.00167092
-0.00175096
-0.00184062
-0.00194126
-0.00205229
-0.00217331
-0.00230447
-0.00244609
-0.00259838
-0.00276139
-0.00293499
-0.003119
-0.00331316
-0.00351716
-0.00128068
-0.00104948
-0.000763568
-0.000510651
-0.000316504
-0.00017057
-5.84782e-05
2.59797e-05
8.30863e-05
0.000111989
0.000112901
8.70336e-05
3.59102e-05
-3.90291e-05
-0.000136472
-0.000255154
-0.000393804
-0.000551138
-0.000725879
-0.000916756
0.00139718
0.00191229
0.00245777
0.00290052
0.00323257
0.0034828
0.0036725
0.00381023
0.00389877
0.0039403
0.00393788
0.00389513
0.00381567
0.00370282
0.00355962
0.00338887
0.00319322
0.00297514
0.00273695
0.00248082
0.0130036
0.0167193
0.0180399
0.0174344
0.016392
0.0156076
0.0150714
0.0145954
0.01408
0.0135214
0.0129452
0.0123677
0.0117924
0.0112178
0.0106429
0.0100685
0.00949589
0.00892625
0.00836046
0.00779919
0.0250248
0.037272
0.0410309
0.0384543
0.0346766
0.0319545
0.0301924
0.0287435
0.0272715
0.0257564
0.0242722
0.0228627
0.0215303
0.0202621
0.0190481
0.017884
0.0167678
0.0156976
0.014671
0.0136856
0.130964
0.131477
0.132527
0.134106
0.136214
0.138866
0.142081
0.145883
0.150288
0.155299
0.160904
0.167044
0.173609
0.180365
0.186894
0.192394
0.19534
0.192687
0.177806
0.135691
0.122131
0.122506
0.123217
0.124284
0.125669
0.127394
0.129393
0.131697
0.134177
0.136862
0.139501
0.142097
0.144156
0.145596
0.145433
0.143317
0.137182
0.12573
0.103838
0.0656647
0.111663
0.111863
0.112217
0.112737
0.11339
0.114169
0.115
0.115855
0.116603
0.117184
0.117372
0.117037
0.115794
0.113378
0.109145
0.102587
0.0927404
0.0789288
0.0604469
0.0374732
0.100237
0.100271
0.100311
0.100358
0.100389
0.100377
0.100259
0.0999722
0.099413
0.0984756
0.097005
0.0948333
0.0917379
0.0874776
0.0817916
0.0744299
0.0652566
0.0541561
0.0410621
0.0250585
0.0885379
0.0884488
0.0882574
0.0879593
0.0875417
0.0869705
0.0862006
0.0851635
0.0837891
0.0819794
0.0796463
0.0766646
0.0729457
0.0683595
0.0628659
0.0563669
0.0488812
0.040207
0.0300745
0.0175156
0.0771332
0.0769695
0.0766357
0.076127
0.0754366
0.0745367
0.0733968
0.0719643
0.0701967
0.0680273
0.0654154
0.0622908
0.0586313
0.0543732
0.0495206
0.0439928
0.0377606
0.0305956
0.022239
0.0119719
0.0664158
0.0662167
0.0658148
0.0652062
0.0643879
0.0633414
0.0620489
0.0604767
0.0586021
0.0563859
0.0538114
0.0508399
0.0474658
0.0436462
0.0393782
0.0345909
0.0292545
0.0232182
0.0163366
0.00814452
0.0566057
0.0563979
0.0559799
0.0553484
0.0545024
0.053431
0.0521255
0.050566
0.0487415
0.0466287
0.0442201
0.0414902
0.0384359
0.035026
0.0312603
0.0270967
0.0225361
0.0175061
0.0119492
0.00558085
0.0477878
0.0475871
0.047184
0.0465754
0.0457608
0.044734
0.0434914
0.0420219
0.0403205
0.0383726
0.036175
0.0337106
0.0309798
0.0279639
0.024672
0.0210865
0.0172292
0.0130754
0.00863524
0.00380424
0.0399566
0.0397709
0.0393985
0.0388358
0.0380822
0.0371338
0.0359902
0.0346452
0.033098
0.03134
0.0293721
0.0271841
0.0247813
0.0221541
0.0193171
0.0162643
0.0130269
0.00960868
0.00607587
0.00247719
0.0330547
0.0328872
0.0325516
0.032044
0.0313634
0.0305073
0.029477
0.0282698
0.026888
0.0253279
0.0235941
0.0216823
0.0196015
0.0173474
0.0149363
0.0123666
0.00967319
0.00687696
0.00408076
0.00142785
0.0270011
0.026852
0.0265538
0.0261023
0.0254967
0.0247353
0.0238209
0.0227529
0.0215363
0.0201699
0.0186614
0.0170103
0.0152289
0.0133171
0.0112939
0.00916055
0.00695284
0.00469742
0.00250977
0.000570261
0.0217105
0.0215779
0.0213132
0.0209127
0.0203758
0.0197023
0.0188966
0.0179605
0.0169001
0.0157163
0.014417
0.013003
0.0114879
0.00987579
0.00819065
0.00644087
0.00466571
0.00289207
0.00123022
-0.00013707
0.0171078
0.0169873
0.0167477
0.0163858
0.0159021
0.0152982
0.0145813
0.0137562
0.0128322
0.0118125
0.0107057
0.00951105
0.00823882
0.00689047
0.00549065
0.00405654
0.00264187
0.00128826
0.000105745
-0.000745902
0.0131383
0.0130235
0.0127964
0.012454
0.0119981
0.011432
0.0107658
0.0100087
0.00917607
0.00827792
0.00733023
0.00633614
0.00530485
0.00422649
0.00310977
0.00195575
0.000823269
-0.000216463
-0.000998389
-0.00132538
0.00977503
0.00965868
0.00942943
0.00908388
0.0086245
0.00805424
0.0073852
0.00662781
0.00580439
0.00493283
0.0040471
0.00316871
0.00233304
0.00153905
0.000790572
3.57177e-05
-0.000724954
-0.00147229
-0.00196961
-0.0018793
0.00701986
0.00689627
0.00665198
0.00628297
0.00579111
0.00517692
0.0044502
0.0036173
0.00269918
0.00171315
0.00070375
-0.000286302
-0.00117151
-0.00188341
-0.0023265
-0.00250671
-0.00246916
-0.00241155
-0.00232156
-0.00178281
0.00489754
0.00476548
0.00449891
0.00409521
0.00355305
0.00287168
0.00205184
0.00109453
3.77336e-06
-0.00121325
-0.00253802
-0.00393424
-0.00532564
-0.00657615
-0.00745734
-0.0076591
-0.00686364
-0.00497603
-0.00239551
1.97517e-05
0.00344825
0.00330899
0.00302079
0.00258356
0.00199178
0.00124457
0.000331259
-0.000751359
-0.00202217
-0.00348756
-0.0051778
-0.00709794
-0.00927656
-0.0116614
-0.014145
-0.0163049
-0.0173467
-0.015719
-0.0095856
0.00231014
0.00271422
0.00256795
0.00226672
0.00180844
0.0011875
0.000398621
-0.000570678
-0.00173329
-0.00311386
-0.00473955
-0.00665877
-0.00892948
-0.011649
-0.0149348
-0.0189493
-0.0237915
-0.0292696
-0.0339781
-0.0328586
-0.00996934
0.140776
0.141334
0.142584
0.144429
0.147016
0.150242
0.154352
0.1592
0.165166
0.172038
0.180407
0.189952
0.201616
0.214891
0.231364
0.250172
0.274184
0.301778
0.338434
0.380697
0.140755
0.141313
0.142563
0.144409
0.146995
0.150221
0.15433
0.159177
0.165142
0.172011
0.180376
0.189915
0.201567
0.214826
0.231268
0.250033
0.273963
0.301433
0.33787
0.379757
0.140699
0.141257
0.142507
0.144351
0.146936
0.150161
0.154267
0.15911
0.165069
0.171931
0.180284
0.189806
0.20143
0.214652
0.231025
0.249697
0.273453
0.300664
0.336646
0.377764
0.140608
0.141166
0.142414
0.144257
0.14684
0.150061
0.154163
0.158999
0.164949
0.171798
0.180131
0.189628
0.201207
0.214371
0.230638
0.249166
0.272656
0.299474
0.334769
0.374728
0.140481
0.141039
0.142286
0.144127
0.146706
0.149923
0.154018
0.158845
0.164782
0.171613
0.17992
0.189379
0.2009
0.213984
0.230109
0.248443
0.271578
0.297872
0.332248
0.370667
0.14032
0.140878
0.142122
0.143961
0.146535
0.149746
0.153832
0.158648
0.164568
0.171376
0.179649
0.189063
0.200509
0.213492
0.22944
0.247532
0.270224
0.295869
0.329093
0.365602
0.140123
0.140681
0.141924
0.143759
0.146328
0.149531
0.153607
0.158408
0.164309
0.171089
0.179322
0.188678
0.200036
0.212898
0.228637
0.246439
0.268601
0.293476
0.32532
0.35956
0.139893
0.14045
0.14169
0.143522
0.146084
0.149279
0.153343
0.158127
0.164004
0.170752
0.178938
0.188228
0.199485
0.212204
0.227702
0.245168
0.26672
0.290708
0.320945
0.352573
0.139628
0.140186
0.141423
0.14325
0.145805
0.14899
0.15304
0.157805
0.163656
0.170365
0.1785
0.187714
0.198857
0.211412
0.226642
0.243725
0.26459
0.287581
0.315987
0.34468
0.13933
0.139888
0.141122
0.142944
0.145491
0.148666
0.152699
0.157443
0.163265
0.169932
0.178008
0.187137
0.198156
0.210527
0.225462
0.242118
0.262223
0.284111
0.310467
0.335924
0.138998
0.139557
0.140788
0.142605
0.145144
0.148306
0.152322
0.157043
0.162832
0.169453
0.177465
0.186499
0.197384
0.209551
0.224169
0.240354
0.259634
0.280318
0.304409
0.326352
0.138634
0.139193
0.140421
0.142234
0.144762
0.147912
0.15191
0.156604
0.162358
0.168929
0.176873
0.185803
0.196544
0.208489
0.222769
0.238438
0.256837
0.276219
0.297842
0.316017
0.138237
0.138798
0.140023
0.14183
0.144349
0.147485
0.151462
0.15613
0.161846
0.168362
0.176234
0.185052
0.19564
0.207344
0.221268
0.236381
0.253849
0.271834
0.290796
0.304973
0.137809
0.138372
0.139594
0.141396
0.143904
0.147026
0.150982
0.15562
0.161296
0.167754
0.175549
0.184248
0.194676
0.206121
0.219676
0.234189
0.25069
0.26718
0.283308
0.293273
0.137349
0.137915
0.139135
0.140932
0.143429
0.146536
0.150469
0.155076
0.16071
0.167107
0.17482
0.183393
0.193654
0.204823
0.217997
0.231872
0.247378
0.262275
0.275421
0.280966
0.136859
0.137429
0.138647
0.140438
0.142924
0.146015
0.149923
0.154498
0.160086
0.166419
0.174046
0.182485
0.19257
0.203449
0.21623
0.229431
0.243926
0.257134
0.26719
0.268092
0.13634
0.136914
0.138131
0.139917
0.14239
0.145466
0.149348
0.15389
0.15943
0.165695
0.173232
0.181531
0.191434
0.202009
0.214387
0.226878
0.240354
0.251772
0.258676
0.254681
0.135791
0.136372
0.13759
0.139374
0.141837
0.144899
0.148759
0.15327
0.158768
0.16497
0.172421
0.180584
0.190309
0.200574
0.212553
0.224302
0.236756
0.246243
0.249923
0.240631
0.135213
0.135803
0.137024
0.138809
0.141267
0.144321
0.148165
0.152654
0.158117
0.164266
0.171643
0.17968
0.189239
0.1992
0.210785
0.221765
0.233195
0.240589
0.240953
0.225264
0.134603
0.135195
0.13641
0.138185
0.14062
0.143646
0.147443
0.15188
0.15726
0.163313
0.17054
0.178393
0.187674
0.197267
0.208322
0.218519
0.228858
0.234338
0.231864
0.208883
0.134053
0.13464
0.13584
0.137592
0.139993
0.142977
0.14672
0.15109
0.156388
0.162341
0.169446
0.177149
0.18625
0.195618
0.206402
0.216246
0.226159
0.231058
0.227847
0.203782
0.134689
0.135273
0.13648
0.138243
0.140669
0.143682
0.147475
0.1519
0.157285
0.163339
0.170601
0.178495
0.187884
0.19763
0.20896
0.219604
0.230633
0.237478
0.237153
0.220486
0.135292
0.135868
0.137072
0.138835
0.141269
0.144292
0.148104
0.152554
0.157978
0.16409
0.171432
0.17946
0.189025
0.199087
0.210825
0.222257
0.234335
0.24331
0.246349
0.236162
0.135867
0.136436
0.13764
0.139406
0.141852
0.14489
0.148727
0.153211
0.158682
0.164862
0.172296
0.180468
0.19022
0.200602
0.212754
0.224947
0.238069
0.249008
0.255316
0.250495
0.136413
0.136978
0.138184
0.139956
0.142415
0.145472
0.149336
0.153858
0.15938
0.165633
0.173163
0.181483
0.191426
0.202124
0.214692
0.227612
0.241776
0.254538
0.264043
0.264181
0.13693
0.137491
0.1387
0.140479
0.142951
0.146026
0.149917
0.154475
0.160047
0.166368
0.173991
0.182452
0.19258
0.203579
0.216554
0.230167
0.245365
0.259846
0.272485
0.277326
0.137417
0.137975
0.139187
0.140972
0.143457
0.146549
0.150466
0.155058
0.160676
0.167064
0.174775
0.183369
0.193673
0.204959
0.21833
0.232599
0.248814
0.264918
0.280581
0.2899
0.137872
0.138429
0.139645
0.141436
0.143933
0.147042
0.150983
0.155607
0.16127
0.167721
0.175514
0.184236
0.194709
0.206266
0.220019
0.234906
0.25211
0.269739
0.288277
0.301863
0.138297
0.138853
0.140072
0.14187
0.144378
0.147503
0.151467
0.156122
0.161826
0.168337
0.176209
0.18505
0.195685
0.207495
0.221617
0.237079
0.255235
0.274292
0.295529
0.313167
0.13869
0.139245
0.140467
0.142272
0.144792
0.147931
0.151917
0.1566
0.162345
0.16891
0.176858
0.185809
0.196598
0.208642
0.223115
0.239111
0.25817
0.278558
0.302302
0.32376
0.13905
0.139605
0.140831
0.142641
0.145172
0.148325
0.152331
0.157042
0.162823
0.16944
0.177457
0.186511
0.197443
0.209702
0.224508
0.240992
0.260898
0.282519
0.308563
0.333587
0.139377