/*--------------------------------*- C++ -*----------------------------------*\
  =========                 |
  \\      /  F ield         | OpenFOAM: The Open Source CFD Toolbox
   \\    /   O peration     | Website:  https://openfoam.org
    \\  /    A nd           | Version:  6.0
     \\/     M anipulation  |
\*---------------------------------------------------------------------------*/
FoamFile
{
    version     2.0;
    format      ascii;
    class       volVectorField;
    location    "21.7";
    object      U;
}
// * * * * * * * * * * * * * * * * * * * * * * * * * * * * * * * * * * * * * //

dimensions      [0 1 -1 0 0 0 0];

internalField   nonuniform List<vector> 
8000
(
(-0.000495657 0.000503464 -3.51892e-21)
(-0.00270522 0.00125943 1.88094e-20)
(-0.00678245 0.00179639 -2.28776e-20)
(-0.0117832 0.00216451 1.7421e-20)
(-0.0172175 0.00240176 8.48353e-21)
(-0.0228094 0.00253904 -2.54752e-20)
(-0.0283625 0.00260292 -2.25175e-21)
(-0.03375 0.00261598 -7.99234e-22)
(-0.0389019 0.0025973 -1.32239e-20)
(-0.0437895 0.00256301 -7.16444e-21)
(-0.048414 0.0025266 5.34289e-21)
(-0.052798 0.00249928 2.03132e-20)
(-0.0569789 0.00249006 -1.52113e-21)
(-0.0610035 0.002506 2.17637e-21)
(-0.0649241 0.0025522 -2.04604e-20)
(-0.0687993 0.00263188 1.26069e-20)
(-0.0726879 0.00274648 -1.80635e-20)
(-0.0766004 0.00289664 2.73348e-20)
(-0.0804869 0.00308297 -3.06167e-23)
(-0.0846883 0.00329816 5.90383e-21)
(-0.00058071 0.00163466 1.16855e-20)
(-0.00291148 0.00406853 -5.97177e-20)
(-0.00706395 0.00578397 -4.12466e-20)
(-0.0121038 0.00694672 -2.80113e-20)
(-0.0175473 0.00768282 -3.6035e-20)
(-0.0231231 0.00809461 7.93064e-21)
(-0.0286385 0.00826912 -4.15983e-20)
(-0.0339693 0.00827962 -9.3434e-21)
(-0.0390476 0.00818742 2.95236e-21)
(-0.0438459 0.0080438 3.10922e-20)
(-0.0483667 0.00789139 -3.39164e-20)
(-0.0526333 0.0077653 4.71787e-20)
(-0.0566843 0.0076938 -3.53297e-20)
(-0.0605673 0.00769889 -4.18965e-20)
(-0.0643359 0.00779664 -5.77367e-20)
(-0.0680503 0.00799722 3.68726e-20)
(-0.0717711 0.00830535 -1.19253e-20)
(-0.0755103 0.00872327 -4.34249e-20)
(-0.0792178 0.00925299 4.10592e-20)
(-0.0832374 0.00987248 -3.05081e-20)
(-0.000752328 0.00274992 1.14227e-19)
(-0.00332747 0.00683762 5.91575e-20)
(-0.00763161 0.00971286 6.65294e-20)
(-0.0127503 0.0116547 5.53583e-21)
(-0.0182126 0.012876 3.6771e-20)
(-0.0237569 0.0135493 4.58952e-20)
(-0.0291975 0.0138214 -8.34005e-20)
(-0.0344161 0.0138154 -4.41664e-20)
(-0.0393484 0.0136342 -5.75194e-20)
(-0.0439702 0.0133641 6.1404e-20)
(-0.0482857 0.0130767 -4.68996e-20)
(-0.0523203 0.0128313 -6.03403e-20)
(-0.0561142 0.012676 -2.19701e-20)
(-0.059717 0.0126485 2.08728e-20)
(-0.0631849 0.0127767 -5.80296e-21)
(-0.0665809 0.0130789 8.36868e-21)
(-0.0699695 0.013564 9.68515e-20)
(-0.0733662 0.0142366 -1.35998e-20)
(-0.0767201 0.0151012 -9.84553e-20)
(-0.0803817 0.0161206 1.2979e-19)
(-0.00100875 0.00383924 3.97415e-20)
(-0.00394932 0.00954122 -5.61396e-20)
(-0.00848074 0.0135454 -1.40827e-20)
(-0.0137178 0.016241 2.63264e-20)
(-0.0192092 0.0179251 7.47563e-20)
(-0.0247074 0.0188393 1.63674e-19)
(-0.0300381 0.0191881 1.59931e-19)
(-0.0350912 0.0191432 1.32858e-20)
(-0.0398087 0.0188484 9.80737e-20)
(-0.0441703 0.0184239 1.50114e-19)
(-0.0481834 0.0179706 -1.19949e-19)
(-0.051876 0.0175721 1.77518e-19)
(-0.0552906 0.0172972 -4.01931e-20)
(-0.0584797 0.0172006 1.01408e-20)
(-0.061503 0.0173239 4.19771e-20)
(-0.0644282 0.017695 5.57812e-20)
(-0.0673254 0.0183288 -8.7785e-20)
(-0.0702154 0.0192339 -7.32648e-20)
(-0.0730477 0.0204189 -1.29659e-19)
(-0.0761832 0.0218313 1.88734e-19)
(-0.00134747 0.00489375 -2.07635e-20)
(-0.00477122 0.0121561 -2.12543e-19)
(-0.00960389 0.017247 -6.28675e-20)
(-0.0149983 0.0206615 -1.53201e-19)
(-0.0205289 0.0227786 5.79087e-20)
(-0.0259675 0.023906 -9.1332e-20)
(-0.0311549 0.0243039 3.14073e-20)
(-0.0359924 0.0241909 -1.93439e-19)
(-0.0404299 0.0237497 1.02047e-19)
(-0.0444528 0.0231339 -1.21696e-19)
(-0.0480723 0.0224728 -1.08227e-19)
(-0.0513194 0.0218749 -1.21177e-19)
(-0.0542395 0.0214306 1.09995e-19)
(-0.0568885 0.0212135 -9.87554e-20)
(-0.0593305 0.0212809 1.37516e-19)
(-0.0616392 0.0216734 3.97423e-20)
(-0.0638927 0.0224145 9.8372e-20)
(-0.0661194 0.0235198 4.31726e-20)
(-0.0682704 0.0250045 -1.70937e-19)
(-0.0707226 0.0268008 2.78193e-19)
(-0.00176536 0.00590592 9.15287e-20)
(-0.00578545 0.0146615 7.0427e-21)
(-0.0109903 0.0207862 3.77057e-20)
(-0.0165788 0.0248765 1.31569e-19)
(-0.0221577 0.02739 -2.01432e-20)
(-0.0275231 0.0286975 2.13651e-19)
(-0.0325351 0.0291122 9.48254e-20)
(-0.0371093 0.0288966 7.97145e-21)
(-0.0412058 0.0282707 2.43834e-19)
(-0.0448167 0.0274193 7.98949e-20)
(-0.047958 0.0264995 3.79005e-20)
(-0.0506637 0.0256447 1.2029e-19)
(-0.0529822 0.0249679 1.10258e-19)
(-0.0549731 0.0245637 2.01283e-19)
(-0.0567055 0.0245084 -1.7991e-19)
(-0.0582602 0.0248586 2.54302e-19)
(-0.0597256 0.0256508 3.3314e-21)
(-0.0611405 0.0269117 -3.25029e-19)
(-0.0624602 0.0286678 4.21339e-19)
(-0.0640849 0.0308364 1.7457e-19)
(-0.00225879 0.00686945 -5.39399e-20)
(-0.00698218 0.0170393 -9.79104e-20)
(-0.0126253 0.0241353 -2.03751e-19)
(-0.0184406 0.0288508 -6.03888e-21)
(-0.0240737 0.0317188 3.47663e-20)
(-0.0293503 0.0331697 -2.60176e-19)
(-0.034154 0.0335663 -1.9302e-19)
(-0.038418 0.0332118 -2.76116e-20)
(-0.0421149 0.0323599 -2.4415e-19)
(-0.0452449 0.0312249 -1.6904e-19)
(-0.047829 0.0299897 -4.92643e-20)
(-0.0499045 0.0288119 -1.58627e-19)
(-0.0515227 0.0278281 -2.58623e-21)
(-0.0527463 0.0271559 -2.10651e-19)
(-0.0536494 0.0268941 8.86091e-20)
(-0.0543212 0.0271206 -1.01095e-19)
(-0.0548622 0.0278903 7.74385e-20)
(-0.0553247 0.0292475 -9.85514e-20)
(-0.0556726 0.031237 -2.81613e-19)
(-0.0563388 0.0337631 -8.55737e-20)
(-0.00282362 0.00777904 -1.98516e-20)
(-0.00834922 0.0192734 -2.15585e-20)
(-0.0144891 0.0272691 1.70828e-19)
(-0.020557 0.0325533 -2.77987e-19)
(-0.026244 0.0357303 4.07822e-20)
(-0.0314107 0.0372867 -1.60577e-19)
(-0.0359691 0.0376307 7.58846e-20)
(-0.0398736 0.0371023 3.41074e-19)
(-0.0431114 0.035985 -2.18803e-20)
(-0.0456925 0.034519 -2.54441e-19)
(-0.0476437 0.0329104 4.62334e-20)
(-0.0490054 0.0313397 8.96469e-21)
(-0.0498308 0.0299667 -5.22375e-20)
(-0.0501852 0.0289336 5.28705e-21)
(-0.0501473 0.0283658 4.58932e-19)
(-0.0498146 0.0283682 -6.53492e-20)
(-0.0493016 0.029022 -1.2747e-19)
(-0.0486774 0.0303981 -2.28692e-19)
(-0.0479199 0.03257 2.33297e-19)
(-0.0475087 0.0354339 1.00591e-19)
(-0.00345511 0.00862994 1.0024e-19)
(-0.0098715 0.0213489 -1.31146e-19)
(-0.0165559 0.030165 1.85415e-19)
(-0.0228914 0.035956 1.86652e-19)
(-0.0286212 0.0393947 1.72063e-19)
(-0.0336471 0.0410198 3.48908e-19)
(-0.0379141 0.0412806 2.25625e-19)
(-0.0414015 0.040549 -4.84832e-19)
(-0.0441143 0.039134 2.47954e-19)
(-0.0460742 0.0372968 1.94569e-19)
(-0.0473143 0.0352629 -2.76306e-21)
(-0.0478783 0.0332325 2.178e-19)
(-0.0478205 0.0313869 1.69799e-19)
(-0.0472073 0.0298939 -9.23661e-20)
(-0.0461208 0.0289083 3.12102e-19)
(-0.0446663 0.0285682 -3.86887e-19)
(-0.042973 0.0289908 1.54852e-19)
(-0.0411304 0.0302864 1.99132e-19)
(-0.0391373 0.0325724 -4.63959e-20)
(-0.0375382 0.0357464 3.99977e-19)
(-0.00414771 0.00941732 2.01431e-19)
(-0.0115304 0.023251 1.04448e-20)
(-0.0187925 0.0328004 -7.22972e-20)
(-0.0253953 0.0390324 -7.63673e-20)
(-0.031141 0.0426851 -3.53647e-19)
(-0.0359788 0.0443458 5.00783e-20)
(-0.0398919 0.0445002 1.41888e-19)
(-0.0428889 0.0435471 -6.82458e-20)
(-0.0449959 0.0418155 5.62956e-20)
(-0.0462485 0.0395822 -1.49272e-20)
(-0.0466878 0.0370866 -7.35356e-20)
(-0.0463609 0.0345433 6.98183e-20)
(-0.0453227 0.0321519 -3.03539e-19)
(-0.0436394 0.0301035 2.90992e-19)
(-0.0413941 0.0285839 -2.52045e-19)
(-0.0386984 0.0277703 7.7856e-20)
(-0.0356966 0.0278259 1.77157e-19)
(-0.0325004 0.028917 -3.6853e-20)
(-0.0291375 0.0312267 -1.22575e-19)
(-0.0262431 0.0346703 -8.33356e-20)
(-0.00489474 0.0101358 -2.50912e-19)
(-0.0133031 0.0249636 -1.65102e-20)
(-0.0211573 0.0351521 5.28414e-20)
(-0.028006 0.0417557 1.35861e-19)
(-0.0337184 0.0455756 -1.91806e-19)
(-0.0382971 0.0472442 -1.67378e-19)
(-0.0417686 0.0472795 3.90676e-19)
(-0.0441757 0.0461022 -2.15877e-19)
(-0.0455693 0.0440556 -1.39257e-19)
(-0.0460019 0.0414258 -1.99816e-19)
(-0.0455251 0.0384592 1.32278e-19)
(-0.0441908 0.0353782 -3.57547e-21)
(-0.0420545 0.0323937 -2.47025e-19)
(-0.0391809 0.0297151 -4.04096e-19)
(-0.0356522 0.0275571 3.07862e-19)
(-0.0315839 0.0261384 -2.49439e-19)
(-0.0271338 0.0256781 3.53648e-19)
(-0.0224369 0.0264171 -9.90715e-20)
(-0.0175564 0.0286346 2.08211e-19)
(-0.0132523 0.0322891 -7.06922e-19)
(-0.00568806 0.010779 -5.08162e-19)
(-0.0151616 0.0264691 3.33205e-19)
(-0.0235986 0.0371945 4.53165e-20)
(-0.0306457 0.0440966 8.76554e-21)
(-0.0362462 0.0480378 -2.05456e-19)
(-0.0404619 0.0496933 3.02132e-19)
(-0.0433686 0.0496095 3.298e-20)
(-0.0450473 0.0482248 -6.19552e-20)
(-0.0455782 0.0458915 -1.98864e-19)
(-0.0450346 0.0428987 2.14963e-19)
(-0.043482 0.0394925 5.45012e-19)
(-0.0409798 0.0358943 -1.20402e-19)
(-0.0375862 0.0323169 2.72081e-19)
(-0.0333645 0.0289788 -3.21396e-19)
(-0.0283947 0.0261157 -3.0818e-19)
(-0.0227938 0.0239847 1.85291e-19)
(-0.0167303 0.0228653 3.06129e-19)
(-0.0103611 0.0230918 -9.91994e-19)
(-0.00378878 0.0250766 1.16484e-19)
(0.00205897 0.0288604 1.58415e-19)
(-0.00651783 0.0113395 3.76293e-19)
(-0.0170724 0.0277471 1.23781e-19)
(-0.0260547 0.0388985 6.44824e-19)
(-0.0332198 0.0460214 3.31831e-20)
(-0.0385927 0.0500386 -7.17152e-20)
(-0.0423 0.051666 -3.41507e-19)
(-0.0444709 0.0514764 2.90419e-19)
(-0.0452294 0.0499224 5.21054e-19)
(-0.0446891 0.0473615 3.47155e-19)
(-0.0429488 0.0440806 2.50637e-19)
(-0.0400924 0.040319 2.16079e-19)
(-0.0361917 0.0362881 -3.88013e-19)
(-0.0313116 0.0321911 -1.21543e-19)
(-0.0255177 0.0282419 -8.95256e-20)
(-0.018889 0.024683 9.5932e-19)
(-0.0115427 0.0217969 -3.2778e-21)
(-0.00365609 0.0199184 -2.39088e-19)
(0.00459683 0.019486 -7.53788e-20)
(0.0130779 0.0210866 6.86108e-19)
(0.0206414 0.0248955 9.00113e-20)
(-0.00737234 0.0118089 -1.85548e-20)
(-0.0189961 0.0287751 -3.55978e-19)
(-0.0284529 0.0402314 -5.29592e-19)
(-0.0356173 0.0474913 -1.47366e-19)
(-0.0406022 0.0515374 8.13728e-20)
(-0.0436035 0.0531262 1.7522e-20)
(-0.0448082 0.0528554 4.64707e-19)
(-0.0443865 0.0511905 -5.76346e-19)
(-0.0424891 0.0484923 -2.1923e-19)
(-0.0392447 0.0450434 -4.41826e-19)
(-0.0347613 0.0410714 -3.76327e-19)
(-0.0291298 0.036771 -3.33238e-19)
(-0.0224297 0.032325 8.33211e-20)
(-0.0147364 0.0279271 -1.08195e-19)
(-0.00613415 0.0238054 4.63601e-19)
(0.00325576 0.0202447 -2.54083e-19)
(0.0132471 0.0176118 -7.96571e-19)
(0.0236542 0.0164426 -1.60712e-19)
(0.03432 0.0175333 3.93155e-19)
(0.0438325 0.0212542 -3.42595e-19)
(-0.00823806 0.0121782 -6.00383e-20)
(-0.0208874 0.029529 4.35386e-19)
(-0.0307099 0.0411579 -5.55283e-19)
(-0.0377099 0.0484629 1.28347e-19)
(-0.0420941 0.052487 -2.64379e-19)
(-0.0441314 0.0540274 5.88899e-19)
(-0.0440685 0.0537072 -4.20897e-19)
(-0.0421241 0.0520056 4.81551e-19)
(-0.0384885 0.0492875 -4.56588e-19)
(-0.033324 0.0458317 1.94824e-19)
(-0.0267685 0.0418549 -9.4546e-20)
(-0.0189403 0.0375327 -2.37402e-19)
(-0.00994431 0.0330213 -2.93355e-19)
(0.000120963 0.0284809 2.92319e-19)
(0.0111519 0.0241036 -2.44827e-19)
(0.0230111 0.0201422 -5.35369e-19)
(0.0354942 0.0169536 5.57368e-19)
(0.0484063 0.0151324 -7.11114e-19)
(0.0616053 0.0156913 3.19837e-19)
(0.0733867 0.0192461 8.16285e-21)
(-0.00909993 0.0124392 -5.44351e-19)
(-0.0226948 0.0299848 -5.87764e-19)
(-0.032731 0.0416413 6.77323e-20)
(-0.0393521 0.0488901 -5.66833e-19)
(-0.0428636 0.0528349 -5.04531e-20)
(-0.0436095 0.0543148 -4.16965e-19)
(-0.0418968 0.0539793 -9.56581e-20)
(-0.0379931 0.0523235 -2.79573e-19)
(-0.0321288 0.0497203 2.4827e-21)
(-0.0245022 0.0464496 -1.22332e-19)
(-0.0152856 0.0427224 8.68959e-21)
(-0.00463324 0.0387007 -3.52537e-19)
(0.00731133 0.0345166 3.88589e-19)
(0.0204081 0.0302938 -5.51372e-19)
(0.0345114 0.0261735 1.9538e-19)
(0.0494423 0.0223448 7.43776e-21)
(0.0649537 0.0190968 -3.1125e-19)
(0.0808275 0.0170037 7.71838e-19)
(0.0969859 0.0172451 -1.84404e-19)
(0.111467 0.0206838 -1.19629e-19)
(-0.00994153 0.0125844 6.1106e-19)
(-0.0243612 0.0301206 3.29954e-19)
(-0.0344099 0.0416476 3.06929e-19)
(-0.0403801 0.0487291 4.58219e-20)
(-0.0426803 0.05253 4.1504e-19)
(-0.0417303 0.0539321 5.98239e-19)
(-0.0378969 0.0536131 4.89827e-19)
(-0.0314946 0.0520869 4.38394e-20)
(-0.0227929 0.0497395 3.58732e-19)
(-0.0120258 0.0468597 5.54311e-19)
(0.00059685 0.0436632 -1.43798e-19)
(0.0148781 0.0403111 2.41338e-19)
(0.0306226 0.0369258 1.94872e-19)
(0.0476284 0.0336067 1.9826e-19)
(0.0656779 0.0304493 1.17326e-18)
(0.0845133 0.0275664 -4.39778e-19)
(0.103798 0.0251278 -2.68884e-20)
(0.123241 0.0235747 5.10552e-19)
(0.142868 0.024121 -2.89585e-19)
(0.160617 0.0277899 1.4321e-19)
(-0.0107452 0.0126083 -4.9416e-19)
(-0.0258223 0.0299178 3.16637e-20)
(-0.0356264 0.0411483 -3.95594e-19)
(-0.0406088 0.047944 -5.14951e-20)
(-0.0412849 0.051531 2.89591e-19)
(-0.0381505 0.0528342 -8.62106e-19)
(-0.0316301 0.0525602 -6.34956e-22)
(-0.0220824 0.0512442 4.01217e-19)
(-0.00981306 0.0492903 3.76974e-19)
(0.00490927 0.0470044 -1.65973e-19)
(0.0218367 0.0446193 5.47337e-20)
(0.0407248 0.0423131 1.2695e-19)
(0.0613166 0.0402226 -6.01019e-20)
(0.0833282 0.0384535 -6.74453e-19)
(0.106437 0.0370909 1.7075e-19)
(0.130258 0.0362019 4.70297e-19)
(0.154293 0.0358362 -6.70281e-19)
(0.178073 0.0362121 3.26987e-19)
(0.201707 0.0384141 8.78939e-20)
(0.223381 0.0434405 4.45502e-19)
(-0.0114916 0.0125071 -7.29688e-20)
(-0.0270055 0.0293635 -3.46263e-19)
(-0.0362438 0.0401249 1.59336e-19)
(-0.0398278 0.0465144 7.3329e-22)
(-0.0383843 0.049818 -6.94458e-19)
(-0.0324853 0.0510028 1.08372e-19)
(-0.0226111 0.0508038 -2.05807e-20)
(-0.00916187 0.0497778 1.402e-19)
(0.00752263 0.0483496 -6.41758e-19)
(0.0271411 0.0468475 -4.49959e-20)
(0.0494081 0.0455311 -1.50793e-19)
(0.0740311 0.0446118 1.3413e-19)
(0.100688 0.0442679 4.52919e-19)
(0.129003 0.044656 -7.00162e-20)
(0.158527 0.04592 2.71401e-20)
(0.188688 0.0481834 1.7849e-19)
(0.218715 0.0515093 -4.40562e-20)
(0.247736 0.0560364 3.60911e-19)
(0.27567 0.0628562 -2.08941e-19)
(0.301305 0.0726439 -3.31413e-19)
(-0.012159 0.0122787 6.76807e-20)
(-0.0278272 0.0284508 1.65074e-20)
(-0.036104 0.0385722 1.38853e-19)
(-0.0377952 0.0444421 3.40087e-19)
(-0.0336448 0.0474036 1.90841e-19)
(-0.0243021 0.0484639 1.99125e-20)
(-0.0103036 0.0483829 -2.27829e-19)
(0.00790898 0.047737 5.84046e-20)
(0.0299608 0.0469686 3.0717e-19)
(0.0555161 0.0464265 -5.20524e-19)
(0.0842511 0.0463962 3.92803e-19)
(0.11583 0.0471246 -2.95993e-19)
(0.149879 0.0488411 2.51259e-19)
(0.185967 0.0517798 -5.42063e-19)
(0.22357 0.0562037 5.96654e-19)
(0.262018 0.0624195 -6.38322e-19)
(0.300349 0.0707735 -1.66178e-19)
(0.33724 0.0818939 5.22597e-19)
(0.371531 0.0977495 -1.76146e-19)
(0.400092 0.118388 7.89501e-20)
(-0.0127215 0.0119221 -5.12247e-20)
(-0.0281892 0.0271793 4.8341e-19)
(-0.0350231 0.036501 -2.02783e-21)
(-0.0342325 0.0417569 -3.00094e-19)
(-0.0266866 0.0443432 -2.01823e-19)
(-0.0131169 0.0453023 3.69741e-19)
(0.00587942 0.0454143 -1.46448e-19)
(0.0298112 0.0452676 -1.84492e-20)
(0.0582572 0.0453139 3.05208e-19)
(0.0908327 0.0459092 -3.79162e-19)
(0.127161 0.0473462 4.15864e-20)
(0.166852 0.0498802 -4.93032e-19)
(0.209489 0.0537537 2.59724e-19)
(0.254626 0.0592254 -7.43414e-19)
(0.301795 0.0666086 1.18502e-18)
(0.350518 0.076322 -2.1704e-19)
(0.400343 0.0890077 2.27331e-19)
(0.451137 0.10608 -5.90023e-19)
(0.503382 0.130561 3.13054e-21)
(0.549113 0.158229 6.74511e-19)
(-0.0131468 0.0114363 -1.55191e-19)
(-0.0279745 0.0255547 1.34085e-19)
(-0.0327868 0.0339394 -4.93783e-19)
(-0.0288204 0.0385206 7.30337e-19)
(-0.0170821 0.0407406 -5.27274e-19)
(0.00160423 0.0416716 2.72118e-20)
(0.0265669 0.0421055 -5.68558e-19)
(0.0572445 0.0426328 4.06508e-19)
(0.0931402 0.0436992 -5.8075e-20)
(0.133782 0.0456471 -3.58761e-19)
(0.178692 0.0487445 -2.09396e-19)
(0.227371 0.0532076 2.2124e-19)
(0.279295 0.0592194 1.46398e-19)
(0.333927 0.0669468 -6.48197e-19)
(0.390744 0.076557 2.33918e-19)
(0.449286 0.0882296 -3.45587e-19)
(0.509218 0.102177 4.19097e-20)
(0.570555 0.118844 -2.94591e-19)
(0.634149 0.139402 1.2182e-19)
(0.692743 0.159844 -4.43641e-19)
(-0.0133941 0.0108198 4.41807e-19)
(-0.0270441 0.0235891 -2.67574e-19)
(-0.0291475 0.0309335 2.20481e-19)
(-0.0211988 0.0348279 -2.78352e-19)
(-0.00436054 0.0367504 4.66585e-19)
(0.0204324 0.0377948 -8.16516e-21)
(0.0524064 0.038755 -5.67994e-20)
(0.0908912 0.0402094 -4.21135e-20)
(0.135262 0.0425798 2.59221e-19)
(0.184895 0.0461695 4.40801e-19)
(0.239134 0.0511898 -2.6039e-19)
(0.297282 0.0577783 2.53197e-19)
(0.358609 0.0660118 4.62707e-19)
(0.422369 0.075916 -3.24429e-19)
(0.487841 0.0874704 -6.59867e-19)
(0.554371 0.100604 1.2074e-18)
(0.621416 0.115176 -2.15514e-19)
(0.688633 0.131022 -7.02039e-20)
(0.756237 0.148469 7.59034e-19)
(0.819004 0.166597 -1.5989e-19)
(-0.0134122 0.0100709 -7.19299e-19)
(-0.0252347 0.0213011 -4.78844e-19)
(-0.0238255 0.0275484 -1.83819e-19)
(-0.0109731 0.0308063 3.54633e-19)
(0.011978 0.0325749 -8.006e-19)
(0.0439496 0.0339581 4.14596e-19)
(0.0840208 0.0357372 5.2543e-20)
(0.131351 0.0384604 5.31305e-20)
(0.185112 0.0425012 -5.43033e-19)
(0.244436 0.0480945 -1.91773e-19)
(0.308395 0.0553606 -3.38107e-19)
(0.375996 0.0643228 3.2659e-19)
(0.446211 0.0749201 9.28061e-20)
(0.518003 0.087018 1.82343e-20)
(0.590381 0.100415 4.26623e-19)
(0.662437 0.114843 -4.3191e-19)
(0.73339 0.129958 -1.80138e-20)
(0.802609 0.145354 1.07175e-20)
(0.869783 0.160878 5.89392e-20)
(0.931991 0.178073 3.37365e-19)
(-0.0131384 0.00918826 2.29029e-19)
(-0.0223594 0.0187181 5.89888e-19)
(-0.0165132 0.0238688 4.73385e-19)
(0.00227421 0.0266158 -1.63169e-19)
(0.0324383 0.02846 5.67488e-19)
(0.0727075 0.030499 -4.78125e-20)
(0.121945 0.0334808 -6.73482e-20)
(0.179054 0.0378962 4.00928e-20)
(0.242899 0.0440378 5.48554e-19)
(0.312265 0.0520343 3.22331e-19)
(0.385846 0.0618764 9.4126e-20)
(0.462273 0.0734374 5.76199e-21)
(0.540162 0.0864941 -6.25063e-19)
(0.618164 0.100745 5.43119e-19)
(0.695034 0.115828 9.33313e-20)
(0.769675 0.131335 -1.53494e-19)
(0.841173 0.146816 -6.67355e-19)
(0.908819 0.161815 -5.67671e-20)
(0.972087 0.175866 2.64173e-19)
(1.03015 0.192113 -5.41035e-20)
(-0.0124984 0.00817322 -5.81229e-19)
(-0.0182099 0.0158792 2.43187e-19)
(-0.00688429 0.0200021 -1.18727e-18)
(0.0189645 0.0224485 4.86238e-19)
(0.0574975 0.0246904 -3.87768e-19)
(0.107177 0.0277945 2.85875e-19)
(0.166555 0.0324441 -4.44093e-19)
(0.234162 0.0390342 4.0768e-20)
(0.308439 0.0477321 -2.28911e-20)
(0.38771 0.0585138 1.19454e-19)
(0.470209 0.0711964 1.72567e-19)
(0.554146 0.0854708 -3.26165e-19)
(0.637784 0.100935 1.72705e-19)
(0.719521 0.11713 1.58734e-19)
(0.797967 0.133564 6.86593e-19)
(0.871986 0.149747 -2.98024e-19)
(0.940725 0.165206 -1.98568e-19)
(1.00362 0.179529 3.34181e-19)
(1.06025 0.192153 1.78955e-19)
(1.11119 0.206939 -3.358e-19)
(-0.0114079 0.00703174 5.09162e-19)
(-0.0125624 0.0128399 4.90961e-19)
(0.00539419 0.0160823 1.41626e-19)
(0.0395002 0.0185298 5.96527e-19)
(0.0875675 0.0215856 2.9303e-19)
(0.147691 0.026248 -5.28239e-19)
(0.217988 0.0330906 8.00058e-19)
(0.296484 0.0423601 -3.9372e-19)
(0.381069 0.0540415 3.93048e-19)
(0.469513 0.0679044 5.08642e-19)
(0.559554 0.0835507 -2.90695e-19)
(0.648999 0.100466 5.52084e-20)
(0.735849 0.118072 3.08113e-19)
(0.818395 0.135777 2.1721e-19)
(0.895285 0.153016 5.00808e-19)
(0.965557 0.169281 -2.0014e-19)
(1.02863 0.184148 -2.44747e-20)
(1.0843 0.19731 3.16929e-19)
(1.1325 0.208287 -6.80421e-20)
(1.1746 0.221001 3.55287e-22)
(-0.00977425 0.00577751 -2.62846e-19)
(-0.00518512 0.00967749 -9.66102e-19)
(0.0206455 0.0122742 2.27497e-19)
(0.0642372 0.0151202 -1.73185e-19)
(0.122954 0.0194947 -3.99756e-19)
(0.194393 0.0262753 -2.85388e-19)
(0.276088 0.0358636 -1.76307e-19)
(0.365417 0.0482899 4.28199e-19)
(0.459613 0.0632915 -2.54305e-19)
(0.555853 0.0803788 -2.60417e-19)
(0.651404 0.0989086 -3.29514e-19)
(0.743791 0.11816 -5.4394e-20)
(0.830927 0.137409 -3.67744e-20)
(0.911214 0.155986 -7.62872e-19)
(0.983574 0.173322 3.70227e-19)
(1.04744 0.188971 -4.86817e-19)
(1.10269 0.202626 1.53284e-19)
(1.14958 0.214127 -1.16683e-18)
(1.18858 0.2232 3.51616e-19)
(1.22139 0.233405 4.45703e-19)
(-0.00750016 0.00443453 -6.59967e-20)
(0.00415156 0.00649563 4.71374e-19)
(0.0391649 0.00877785 3.02164e-20)
(0.0934565 0.0125149 7.27127e-20)
(0.163815 0.0187899 -1.4783e-19)
(0.247185 0.0282879 -2.42581e-21)
(0.340353 0.0411584 -3.79259e-21)
(0.439925 0.0571351 -8.91927e-20)
(0.54242 0.0756412 3.16345e-19)
(0.644454 0.0958888 1.22334e-19)
(0.742961 0.116985 5.55511e-19)
(0.835386 0.138037 -1.51493e-19)
(0.919808 0.158234 1.05844e-19)
(0.994996 0.176913 -1.38227e-20)
(1.06037 0.193584 2.93341e-19)
(1.11593 0.20794 1.79683e-19)
(1.16213 0.219844 4.33497e-19)
(1.19974 0.229308 -7.0044e-19)
(1.22968 0.236308 8.82028e-19)
(1.25382 0.243855 -2.7956e-19)
(-0.00448708 0.00303936 -6.14508e-19)
(0.0156638 0.00342819 -1.91804e-19)
(0.0611997 0.00583013 1.49928e-19)
(0.127334 0.0110411 9.452e-20)
(0.210127 0.0198553 9.68244e-20)
(0.305693 0.0326723 9.8175e-20)
(0.409923 0.0492935 -2.45682e-19)
(0.518567 0.0690722 -1.01615e-19)
(0.627457 0.0910639 3.15105e-20)
(0.732788 0.114171 -3.01047e-19)
(0.831393 0.137287 -1.36241e-19)
(0.92092 0.159415 8.2345e-19)
(0.999897 0.179755 -2.12407e-19)
(1.0677 0.19774 -2.931e-19)
(1.12441 0.213047 -1.39311e-19)
(1.17069 0.225563 9.63725e-20)
(1.20755 0.235353 1.17802e-19)
(1.23621 0.242602 -5.64762e-19)
(1.25798 0.247509 8.17842e-19)
(1.2747 0.252519 -7.09076e-19)
(-0.000639455 0.00164256 -6.9577e-20)
(0.0295416 0.000640952 1.99363e-20)
(0.0869277 0.00370357 -2.53966e-20)
(0.165911 0.0110501 3.71188e-19)
(0.26165 0.0230701 2.04296e-20)
(0.369252 0.0397649 1.36305e-19)
(0.483596 0.0604831 -2.83165e-19)
(0.599579 0.0841231 -1.03298e-20)
(0.712477 0.109349 3.93428e-19)
(0.818318 0.134785 5.48642e-20)
(0.914144 0.159189 -3.42911e-19)
(0.998118 0.181565 -3.01206e-20)
(1.06948 0.201231 -2.82029e-19)
(1.12836 0.217812 2.80738e-19)
(1.17561 0.231209 3.9031e-19)
(1.21248 0.241535 -4.30394e-20)
(1.24049 0.249053 -5.25505e-20)
(1.26118 0.254098 1.60177e-19)
(1.27604 0.257036 -5.15408e-19)
(1.28683 0.259809 4.53872e-19)
(0.00413071 0.000309376 6.98327e-20)
(0.0459356 -0.0016692 -4.50618e-19)
(0.116437 0.00270079 1.20606e-19)
(0.209072 0.012904 -3.74024e-19)
(0.317914 0.0287874 1.28601e-19)
(0.436911 0.0498261 -4.77607e-19)
(0.559889 0.0748146 1.92649e-19)
(0.681 0.102151 -6.13236e-20)
(0.795221 0.130128 -2.48544e-21)
(0.89875 0.157174 6.27956e-20)
(0.989186 0.182026 -2.28776e-19)
(1.06549 0.203816 -3.26748e-19)
(1.12779 0.22208 -6.70607e-20)
(1.17705 0.236703 -3.01074e-20)
(1.21482 0.247843 -7.64131e-20)
(1.24286 0.255833 -2.49117e-20)
(1.26302 0.261105 -7.4585e-20)
(1.27699 0.264101 -6.46963e-20)
(1.28633 0.265289 -1.92671e-19)
(1.29264 0.266203 3.05836e-19)
(0.00989909 -0.000880573 1.68042e-19)
(0.0649437 -0.00327783 -1.86615e-19)
(0.149704 0.0031448 4.01599e-19)
(0.256525 0.0169587 -1.73325e-19)
(0.378217 0.0373104 4.63234e-19)
(0.507472 0.0630166 6.58268e-21)
(0.63713 0.092239 2.32651e-19)
(0.760834 0.122874 -6.2299e-20)
(0.87362 0.152922 2.6008e-19)
(0.97224 0.180741 1.8829e-20)
(1.05517 0.205186 6.19493e-19)
(1.12238 0.225635 -4.27691e-19)
(1.17493 0.241922 5.76065e-20)
(1.2146 0.254228 1.09983e-19)
(1.24348 0.26296 5.76588e-19)
(1.2637 0.26864 -2.07179e-19)
(1.27725 0.271819 -4.10993e-20)
(1.28586 0.273001 -2.17874e-19)
(1.29097 0.272699 -2.29954e-20)
(1.29402 0.272129 1.09069e-19)
(0.0167239 -0.00183448 -8.06955e-20)
(0.0865983 -0.00393923 2.33047e-19)
(0.186585 0.00536552 -2.3854e-19)
(0.307794 0.0235425 9.42415e-20)
(0.441639 0.0488687 -1.12617e-19)
(0.579553 0.0793821 4.13426e-19)
(0.713579 0.112576 -5.75678e-20)
(0.837211 0.145904 1.41908e-19)
(0.945964 0.177204 -8.35456e-20)
(1.03751 0.20492 -2.18418e-21)
(1.11145 0.228168 9.5508e-20)
(1.16884 0.246662 -7.40152e-20)
(1.21165 0.26058 1.9202e-19)
(1.24231 0.270395 -9.57219e-20)
(1.2633 0.276729 -4.21787e-19)
(1.27692 0.280242 4.19433e-19)
(1.28515 0.281553 -1.89078e-19)
(1.28961 0.281181 1.50995e-19)
(1.29161 0.279646 2.61955e-19)
(1.29237 0.277918 1.07629e-19)
(0.024641 -0.00244845 2.00784e-19)
(0.110855 -0.00339501 -4.13749e-19)
(0.226798 0.00968357 7.91721e-20)
(0.362228 0.032935 -5.74269e-20)
(0.507088 0.0635995 -2.31592e-19)
(0.651674 0.0988496 -1.81765e-19)
(0.787556 0.135533 -3.57235e-20)
(0.908526 0.170787 -3.24107e-19)
(1.011 0.202454 -1.97392e-20)
(1.09389 0.229233 -6.02358e-20)
(1.15801 0.250614 -1.6356e-19)
(1.2055 0.26671 -3.63368e-20)
(1.2391 0.278044 -1.25237e-19)
(1.2617 0.285346 -2.09106e-19)
(1.27597 0.289403 2.14202e-19)
(1.28421 0.290956 2.95625e-20)
(1.2883 0.290644 5.89152e-20)
(1.28967 0.288964 -2.46937e-19)
(1.28944 0.286423 -6.15998e-21)
(1.28863 0.283794 -3.81196e-19)
(0.033659 -0.00261051 2.20181e-19)
(0.137586 -0.00138474 1.46844e-19)
(0.269928 0.0163928 -2.36722e-19)
(0.419014 0.0453477 3.69663e-19)
(0.573353 0.0815369 -3.98432e-20)
(0.722352 0.121235 1.3808e-19)
(0.857556 0.160741 4.7808e-20)
(0.973534 0.19705 1.69404e-19)
(1.06798 0.228207 -1.32649e-19)
(1.14121 0.253311 4.42216e-20)
(1.19531 0.272309 -4.24534e-20)
(1.23333 0.285731 -1.86932e-20)
(1.25859 0.294413 3.55306e-20)
(1.27424 0.299291 -6.54883e-20)
(1.28298 0.301254 -2.01367e-20)
(1.287 0.301074 -6.16102e-20)
(1.28795 0.299369 -1.00174e-19)
(1.28708 0.296594 6.46707e-20)
(1.28529 0.29323 -8.87844e-20)
(1.28343 0.289889 3.83644e-19)
(0.0437555 -0.00220441 -1.09971e-19)
(0.166574 0.00234202 -3.11489e-19)
(0.315429 0.0257427 -4.14641e-20)
(0.47722 0.0609082 -1.12755e-20)
(0.639172 0.102609 -1.3952e-19)
(0.790199 0.146263 -2.29075e-19)
(0.922334 0.187784 7.49928e-20)
(1.03138 0.224244 -1.03049e-19)
(1.1166 0.254079 -1.15496e-19)
(1.17976 0.276902 6.43524e-20)
(1.2241 0.29316 -4.86403e-20)
(1.25342 0.303776 -9.84509e-20)
(1.27141 0.309849 -3.3405e-21)
(1.28127 0.312454 6.66879e-20)
(1.2856 0.31253 -6.80649e-20)
(1.28638 0.310833 9.44555e-20)
(1.28502 0.307935 2.54025e-20)
(1.28256 0.304234 6.40549e-20)
(1.27971 0.300187 1.24908e-19)
(1.27715 0.296261 -1.07013e-19)
(0.0548739 -0.00111416 1.05053e-19)
(0.197511 0.00801315 -9.30125e-21)
(0.362646 0.0379232 4.71208e-20)
(0.535829 0.0796522 -6.39623e-20)
(0.703303 0.126647 5.25235e-21)
(0.853989 0.173589 2.2195e-19)
(0.980949 0.216236 -1.45815e-19)
(1.08161 0.251968 6.1773e-20)
(1.15692 0.279773 5.44762e-20)
(1.21008 0.299855 -1.53156e-19)
(1.24531 0.313157 1.43951e-19)
(1.26692 0.320949 1.27483e-21)
(1.27874 0.324527 -1.0149e-19)
(1.28391 0.325043 1.22347e-19)
(1.28481 0.323434 -4.85691e-20)
(1.28316 0.320411 3.71476e-20)
(1.28015 0.31648 -4.15454e-20)
(1.27658 0.31198 -1.6611e-20)
(1.27303 0.307347 -1.45557e-19)
(1.27001 0.302916 4.458e-20)
(0.0669222 0.000770944 -3.54329e-20)
(0.23001 0.0158216 9.50675e-20)
(0.410832 0.0530519 1.48186e-20)
(0.593795 0.10152 6.21687e-20)
(0.764587 0.153396 2.96616e-20)
(0.912715 0.20283 1.39036e-20)
(1.03277 0.245689 7.88397e-20)
(1.12406 0.279882 -9.56979e-21)
(1.18929 0.305076 3.47728e-20)
(1.23292 0.322095 5.58828e-20)
(1.25991 0.332346 2.6974e-20)
(1.27486 0.337377 1.93688e-20)
(1.2816 0.338613 7.85556e-20)
(1.28306 0.337227 -7.60438e-20)
(1.28135 0.334115 1.63261e-20)
(1.27792 0.329921 -1.52909e-20)
(1.27374 0.325078 2.36618e-20)
(1.26943 0.319871 1.98276e-20)
(1.26543 0.314717 4.14203e-20)
(1.26213 0.309823 1.7456e-21)
(0.0797732 0.00355113 2.10048e-20)
(0.263607 0.0259139 1.91863e-20)
(0.459182 0.0711658 -2.65583e-20)
(0.650087 0.126359 1.65952e-20)
(0.822 0.182535 9.37584e-21)
(0.965607 0.233582 -2.91663e-20)
(1.07745 0.275761 9.62639e-21)
(1.15888 0.307705 1.73475e-21)
(1.21423 0.329839 1.66062e-20)
(1.24905 0.343599 -4.45294e-20)
(1.26879 0.350794 -1.38567e-22)
(1.27815 0.353179 1.23456e-20)
(1.2808 0.352242 -9.83775e-21)
(1.27939 0.349128 9.95418e-21)
(1.27575 0.344667 2.59824e-20)
(1.27106 0.339423 -1.4785e-20)
(1.26609 0.333756 4.11493e-21)
(1.2613 0.327902 1.62041e-20)
(1.25703 0.322266 -2.67185e-20)
(1.25357 0.316926 1.28244e-20)
(0.0932671 0.007311 5.85664e-20)
(0.297782 0.0383812 -3.18485e-20)
(0.506865 0.0922169 3.75008e-20)
(0.703734 0.153937 -2.79028e-20)
(0.87468 0.213695 -1.25152e-20)
(1.01213 0.265443 3.78282e-21)
(1.11489 0.306112 -1.22852e-20)
(1.18636 0.335213 4.41871e-20)
(1.23236 0.353963 -3.67974e-20)
(1.25925 0.364371 8.63471e-21)
(1.27277 0.368571 -6.43503e-21)
(1.27755 0.368453 -4.19263e-20)
(1.27699 0.365508 4.06706e-20)
(1.27342 0.360821 1.54867e-20)
(1.26839 0.355134 -1.54078e-20)
(1.26283 0.348931 3.61719e-20)
(1.25734 0.342499 -5.30825e-22)
(1.25228 0.336036 -3.5098e-20)
(1.24787 0.32994 2.60037e-20)
(1.24434 0.324155 8.19784e-21)
(0.107215 0.0121149 -2.05221e-20)
(0.331976 0.053252 5.95196e-20)
(0.553057 0.116074 6.87681e-20)
(0.753863 0.183948 -3.24419e-20)
(0.921949 0.246473 5.64507e-20)
(1.05198 0.29802 8.93363e-20)
(1.14517 0.336438 -4.9177e-21)
(1.20693 0.362222 -1.53376e-20)
(1.24431 0.377379 7.5777e-20)
(1.26425 0.38442 3.69486e-20)
(1.27257 0.385731 -6.70451e-21)
(1.27367 0.383263 5.50839e-20)
(1.27065 0.378466 -5.90732e-20)
(1.26551 0.372335 9.19837e-20)
(1.25951 0.365519 -1.53461e-20)
(1.25339 0.358421 4.39593e-20)
(1.24761 0.351263 7.92266e-21)
(1.24242 0.344215 3.14618e-20)
(1.23797 0.337667 -2.99489e-20)
(1.23445 0.331428 7.20524e-21)
(0.121401 0.0180027 -3.19397e-20)
(0.365602 0.0704881 7.58256e-20)
(0.596968 0.142526 5.63278e-20)
(0.799718 0.21603 -8.53448e-21)
(0.963309 0.280453 8.77584e-20)
(1.08501 0.330941 -6.55294e-20)
(1.16853 0.36647 -5.13636e-21)
(1.22108 0.38858 5.78735e-20)
(1.25071 0.400028 1.8389e-20)
(1.26469 0.403753 2.57212e-20)
(1.26874 0.402306 -3.79799e-20)
(1.26699 0.397642 9.90241e-20)
(1.26215 0.391129 1.84873e-20)
(1.25591 0.383661 -8.77116e-20)
(1.24928 0.37579 1.28137e-19)
(1.24284 0.367841 -1.51186e-19)
(1.23693 0.359983 -6.93995e-20)
(1.23173 0.352362 1.15018e-20)
(1.22733 0.345364 6.74043e-20)
(1.22388 0.33866 -1.27036e-19)
(0.135594 0.0249864 -7.1917e-20)
(0.398079 0.0899837 -1.6964e-19)
(0.637871 0.171289 -1.46665e-19)
(0.840679 0.249776 -1.99719e-19)
(0.99843 0.31521 -1.13311e-19)
(1.11125 0.363851 -2.34971e-19)
(1.18529 0.395964 2.98539e-20)
(1.22931 0.414152 -1.24793e-19)