/*--------------------------------*- C++ -*----------------------------------*\
  =========                 |
  \\      /  F ield         | OpenFOAM: The Open Source CFD Toolbox
   \\    /   O peration     | Website:  https://openfoam.org
    \\  /    A nd           | Version:  6.0
     \\/     M anipulation  |
\*---------------------------------------------------------------------------*/
FoamFile
{
    version     2.0;
    format      ascii;
    class       volScalarField;
    location    "2.9";
    object      p;
}
// * * * * * * * * * * * * * * * * * * * * * * * * * * * * * * * * * * * * * //

dimensions      [0 2 -2 0 0 0 0];

internalField   nonuniform List<scalar> 
8000
(
-0.354471
-0.361626
-0.366053
-0.369778
-0.373837
-0.378281
-0.382999
-0.387807
-0.392482
-0.396797
-0.400552
-0.403582
-0.405765
-0.407021
-0.407299
-0.406563
-0.404913
-0.402738
-0.399947
-0.393702
-0.356396
-0.363279
-0.36758
-0.371243
-0.375264
-0.379693
-0.384415
-0.389246
-0.393961
-0.398331
-0.402152
-0.405254
-0.40751
-0.408836
-0.409177
-0.408495
-0.406887
-0.404744
-0.402011
-0.395863
-0.360107
-0.36646
-0.370514
-0.374053
-0.377999
-0.382393
-0.38712
-0.391993
-0.396783
-0.401256
-0.405203
-0.408443
-0.41084
-0.412301
-0.412763
-0.412185
-0.410653
-0.408562
-0.405923
-0.39996
-0.365347
-0.370943
-0.374638
-0.377993
-0.381822
-0.386158
-0.390884
-0.395808
-0.400697
-0.405312
-0.409433
-0.412869
-0.415468
-0.417123
-0.417761
-0.417331
-0.415904
-0.413873
-0.411338
-0.405628
-0.371769
-0.376421
-0.379658
-0.382768
-0.386434
-0.39068
-0.395385
-0.400353
-0.405349
-0.410126
-0.414453
-0.418126
-0.420975
-0.422875
-0.423737
-0.423496
-0.422201
-0.420226
-0.417775
-0.412365
-0.378964
-0.382538
-0.385233
-0.388037
-0.391486
-0.395594
-0.400239
-0.405223
-0.410306
-0.415237
-0.419775
-0.423701
-0.426828
-0.429008
-0.430131
-0.430116
-0.42898
-0.427059
-0.424652
-0.419564
-0.386503
-0.388928
-0.391018
-0.393454
-0.39662
-0.400524
-0.405044
-0.409983
-0.415101
-0.420143
-0.42486
-0.429021
-0.43242
-0.434888
-0.436292
-0.43653
-0.435581
-0.433719
-0.431315
-0.42655
-0.39398
-0.395251
-0.396695
-0.3987
-0.401507
-0.405119
-0.409423
-0.414225
-0.419286
-0.424353
-0.429173
-0.433506
-0.437132
-0.439861
-0.441537
-0.442034
-0.441293
-0.439506
-0.437074
-0.432623
-0.401044
-0.401223
-0.402006
-0.403523
-0.405886
-0.409104
-0.413073
-0.417612
-0.42249
-0.427458
-0.432264
-0.436663
-0.440425
-0.443345
-0.445246
-0.44598
-0.445448
-0.443753
-0.441276
-0.437121
-0.407428
-0.406636
-0.406774
-0.407754
-0.40959
-0.4123
-0.415803
-0.419933
-0.424477
-0.429194
-0.433839
-0.438165
-0.441939
-0.444944
-0.446986
-0.447898
-0.447546
-0.445943
-0.443406
-0.439512
-0.412961
-0.411371
-0.410905
-0.411318
-0.412553
-0.41465
-0.417555
-0.421129
-0.425181
-0.429488
-0.433814
-0.437918
-0.441565
-0.444529
-0.446604
-0.447604
-0.447367
-0.445825
-0.44319
-0.439478
-0.417575
-0.41539
-0.414389
-0.414227
-0.414809
-0.416206
-0.4184
-0.421288
-0.42471
-0.428464
-0.432331
-0.436075
-0.439464
-0.442265
-0.44426
-0.445241
-0.445024
-0.443466
-0.440644
-0.436959
-0.421297
-0.418733
-0.417283
-0.41656
-0.416467
-0.417111
-0.418519
-0.42063
-0.423319
-0.426416
-0.429717
-0.432999
-0.436027
-0.438564
-0.440373
-0.441226
-0.440908
-0.439214
-0.436054
-0.432139
-0.424238
-0.421502
-0.419696
-0.418449
-0.417691
-0.41757
-0.418161
-0.419452
-0.421361
-0.423746
-0.426424
-0.429182
-0.431785
-0.433982
-0.435517
-0.436132
-0.435577
-0.433586
-0.42989
-0.425391
-0.426578
-0.423845
-0.421774
-0.420055
-0.41867
-0.417812
-0.417606
-0.418089
-0.419221
-0.420893
-0.42294
-0.425155
-0.427298
-0.429103
-0.430286
-0.430551
-0.429609
-0.427138
-0.422694
-0.417217
-0.428547
-0.425945
-0.423685
-0.421554
-0.419603
-0.41807
-0.41713
-0.416865
-0.417273
-0.418273
-0.419716
-0.421397
-0.423066
-0.424433
-0.425183
-0.424981
-0.423493
-0.420359
-0.415001
-0.408197
-0.430407
-0.428006
-0.425612
-0.423128
-0.420686
-0.418567
-0.416985
-0.416064
-0.415832
-0.41623
-0.417117
-0.418283
-0.41946
-0.420334
-0.420555
-0.419754
-0.417565
-0.413618
-0.40728
-0.398962
-0.432431
-0.43024
-0.427739
-0.424957
-0.422105
-0.419498
-0.417384
-0.415915
-0.415141
-0.415014
-0.41539
-0.416047
-0.416697
-0.416996
-0.416567
-0.415016
-0.411965
-0.407075
-0.399752
-0.389943
-0.434879
-0.432849
-0.430245
-0.427211
-0.424025
-0.421029
-0.418492
-0.416581
-0.415355
-0.414763
-0.414654
-0.414785
-0.414843
-0.414463
-0.413244
-0.410781
-0.406696
-0.400669
-0.392147
-0.380917
-0.43798
-0.436015
-0.433289
-0.430033
-0.426577
-0.423278
-0.420411
-0.418145
-0.416534
-0.415512
-0.414911
-0.414467
-0.413849
-0.412677
-0.410555
-0.40709
-0.401921
-0.394683
-0.384708
-0.372429
-0.44191
-0.439884
-0.436994
-0.433531
-0.429852
-0.426313
-0.423184
-0.42062
-0.418654
-0.417202
-0.416067
-0.414971
-0.413571
-0.411499
-0.408393
-0.403927
-0.397835
-0.389909
-0.380022
-0.370028
-0.446787
-0.444555
-0.441447
-0.437774
-0.433893
-0.430151
-0.426795
-0.423953
-0.421629
-0.419705
-0.417964
-0.416113
-0.413815
-0.410733
-0.406561
-0.401057
-0.394068
-0.385545
-0.375605
-0.365219
-0.45267
-0.450088
-0.446697
-0.442793
-0.438709
-0.43477
-0.43119
-0.428056
-0.425331
-0.422866
-0.42042
-0.417697
-0.414385
-0.410193
-0.404889
-0.398321
-0.39043
-0.381258
-0.370946
-0.360006
-0.459573
-0.456505
-0.452761
-0.448592
-0.444283
-0.440129
-0.436298
-0.432825
-0.429628
-0.426522
-0.423252
-0.419535
-0.4151
-0.409721
-0.403247
-0.395617
-0.386853
-0.377059
-0.366396
-0.355207
-0.467476
-0.463807
-0.459642
-0.455164
-0.450596
-0.446187
-0.44205
-0.438162
-0.434389
-0.430519
-0.426294
-0.421462
-0.415809
-0.409188
-0.401538
-0.392877
-0.383296
-0.372938
-0.361979
-0.350672
-0.476347
-0.47198
-0.467333
-0.462503
-0.457628
-0.452907
-0.448385
-0.443975
-0.439496
-0.434717
-0.429397
-0.423333
-0.416387
-0.408499
-0.399691
-0.390054
-0.379726
-0.368877
-0.357683
-0.34636
-0.486144
-0.481005
-0.475828
-0.470602
-0.465367
-0.460256
-0.455244
-0.450175
-0.444832
-0.438982
-0.432425
-0.425027
-0.416734
-0.407577
-0.397653
-0.387105
-0.376101
-0.364817
-0.353419
-0.342082
-0.496827
-0.490861
-0.485116
-0.479453
-0.473794
-0.468197
-0.462559
-0.456665
-0.450276
-0.443186
-0.435256
-0.426438
-0.416773
-0.406369
-0.395383
-0.383993
-0.372377
-0.360699
-0.349108
-0.337737
-0.508347
-0.501516
-0.495176
-0.489036
-0.482877
-0.476673
-0.470242
-0.463328
-0.455698
-0.447197
-0.437775
-0.42748
-0.416439
-0.40483
-0.392847
-0.380682
-0.368506
-0.356461
-0.344673
-0.333224
-0.520643
-0.512925
-0.505973
-0.499311
-0.492558
-0.485595
-0.478177
-0.470028
-0.460955
-0.450888
-0.439879
-0.428076
-0.415683
-0.402923
-0.390011
-0.377134
-0.364442
-0.35205
-0.340052
-0.328485
-0.533635
-0.52502
-0.517442
-0.510204
-0.50274
-0.494839
-0.486212
-0.476603
-0.465895
-0.45413
-0.441471
-0.428159
-0.414455
-0.400611
-0.38684
-0.373308
-0.360138
-0.347412
-0.335192
-0.323474
-0.547212
-0.537704
-0.529488
-0.521606
-0.513286
-0.504239
-0.494167
-0.482875
-0.470362
-0.456799
-0.442461
-0.427665
-0.412712
-0.397856
-0.383292
-0.369159
-0.355543
-0.342496
-0.330046
-0.318156
-0.561228
-0.550844
-0.541976
-0.53336
-0.524014
-0.513592
-0.501832
-0.488651
-0.474195
-0.458773
-0.442762
-0.426534
-0.410403
-0.394611
-0.379321
-0.364636
-0.350607
-0.337253
-0.324568
-0.312499
-0.575499
-0.56427
-0.55473
-0.545269
-0.5347
-0.52266
-0.50898
-0.493734
-0.477238
-0.459936
-0.44229
-0.4247
-0.407474
-0.390823
-0.374872
-0.359683
-0.345272
-0.331629
-0.318715
-0.30647
-0.589804
-0.577772
-0.567529
-0.557091
-0.545084
-0.531183
-0.515372
-0.497925
-0.479337
-0.460176
-0.44096
-0.422096
-0.403864
-0.386433
-0.369885
-0.354239
-0.339481
-0.325571
-0.312437
-0.300032
-0.60388
-0.591101
-0.580113
-0.568544
-0.554873
-0.538881
-0.520766
-0.501029
-0.480345
-0.459382
-0.438688
-0.418649
-0.399506
-0.381375
-0.364292
-0.34824
-0.333171
-0.31902
-0.305686
-0.293146
-0.617433
-0.603968
-0.592184
-0.579315
-0.563757
-0.545469
-0.524921
-0.50286
-0.480123
-0.457449
-0.435386
-0.414284
-0.394326
-0.375577
-0.358026
-0.341618
-0.326279
-0.311922
-0.298413
-0.285768
-0.630137
-0.616057
-0.603413
-0.589066
-0.57141
-0.550663
-0.527609
-0.503243
-0.478538
-0.454273
-0.430969
-0.40892
-0.388249
-0.368966
-0.351014
-0.334307
-0.318745
-0.304218
-0.290566
-0.277857
-0.641643
-0.627022
-0.613447
-0.597446
-0.577508
-0.55419
-0.528616
-0.502016
-0.475467
-0.449754
-0.425348
-0.402477
-0.381198
-0.361467
-0.343187
-0.326239
-0.310506
-0.295853
-0.282097
-0.269369
-0.651586
-0.636501
-0.621918
-0.604098
-0.581736
-0.555791
-0.527744
-0.49903
-0.470795
-0.443796
-0.418439
-0.394875
-0.373097
-0.353008
-0.334476
-0.317353
-0.301505
-0.286774
-0.272959
-0.260263
-0.659594
-0.644122
-0.628456
-0.608676
-0.583796
-0.555233
-0.524816
-0.494153
-0.464416
-0.43631
-0.410159
-0.386038
-0.363873
-0.343522
-0.324817
-0.30759
-0.291689
-0.276935
-0.263111
-0.250501
-0.665296
-0.649516
-0.632697
-0.610849
-0.583415
-0.552307
-0.519678
-0.487267
-0.456235
-0.427213
-0.400434
-0.375893
-0.353458
-0.332944
-0.314153
-0.296898
-0.281011
-0.266294
-0.252516
-0.240052
-0.668334
-0.652323
-0.634296
-0.610314
-0.580353
-0.546833
-0.512199
-0.478272
-0.44617
-0.41643
-0.389193
-0.364376
-0.341793
-0.321221
-0.302435
-0.285232
-0.269431
-0.254815
-0.241144
-0.228889
-0.668375
-0.652206
-0.632935
-0.606802
-0.574404
-0.538664
-0.502271
-0.467085
-0.43415
-0.403899
-0.376377
-0.351433
-0.328827
-0.308305
-0.28962
-0.272555
-0.256918
-0.242471
-0.228974
-0.216994
-0.665111
-0.648861
-0.628335
-0.600087
-0.565404
-0.527685
-0.489814
-0.453642
-0.42012
-0.389567
-0.36194
-0.337017
-0.314519
-0.29416
-0.275676
-0.25884
-0.243449
-0.229245
-0.215992
-0.204356
-0.658275
-0.642021
-0.620259
-0.589987
-0.553225
-0.513813
-0.474768
-0.437898
-0.404039
-0.373398
-0.345843
-0.321096
-0.298837
-0.278759
-0.260582
-0.244071
-0.22901
-0.215127
-0.202193
-0.190973
-0.647647
-0.631466
-0.60852
-0.576369
-0.537786
-0.496999
-0.457104
-0.419829
-0.385885
-0.355368
-0.328066
-0.303649
-0.281765
-0.262088
-0.244327
-0.228238
-0.213598
-0.200119
-0.187583
-0.176851
-0.633056
-0.617029
-0.592985
-0.559149
-0.519046
-0.477227
-0.436815
-0.399429
-0.365651
-0.335469
-0.308599
-0.284667
-0.263296
-0.244143
-0.226908
-0.211344
-0.197219
-0.184228
-0.172175
-0.162003
-0.614387
-0.598597
-0.573576
-0.538294
-0.497004
-0.454514
-0.413921
-0.376717
-0.343349
-0.313709
-0.287449
-0.264156
-0.243435
-0.224929
-0.208335
-0.1934
-0.179886
-0.167475
-0.15599
-0.146452
-0.591582
-0.57612
-0.550273
-0.513821
-0.471702
-0.428909
-0.388468
-0.351729
-0.31901
-0.290112
-0.264634
-0.242133
-0.222197
-0.204464
-0.188626
-0.174427
-0.161623
-0.149887
-0.139062
-0.130235
-0.564644
-0.549605
-0.523113
-0.485797
-0.443221
-0.400491
-0.360527
-0.324526
-0.292684
-0.26472
-0.240188
-0.218626
-0.19961
-0.182773
-0.167805
-0.154451
-0.142461
-0.1315
-0.121435
-0.113399
-0.533636
-0.519117
-0.492186
-0.454333
-0.411678
-0.369371
-0.330195
-0.29519
-0.264438
-0.237588
-0.214161
-0.193677
-0.175708
-0.159886
-0.145902
-0.133502
-0.122431
-0.112352
-0.103156
-0.0960023
-0.49868
-0.484784
-0.457637
-0.419588
-0.377228
-0.33569
-0.297594
-0.263825
-0.234359
-0.20879
-0.186611
-0.167335
-0.150533
-0.135839
-0.122948
-0.111608
-0.101563
-0.0924791
-0.0842685
-0.0780829
-0.459955
-0.446786
-0.419662
-0.381761
-0.34006
-0.299619
-0.262872
-0.230558
-0.202556
-0.178416
-0.157614
-0.139662
-0.124133
-0.11067
-0.0989737
-0.0887959
-0.0798831
-0.0719117
-0.064805
-0.0596444
-0.417694
-0.405358
-0.378501
-0.341089
-0.300397
-0.261354
-0.226203
-0.195538
-0.169157
-0.146575
-0.127259
-0.110726
-0.0965596
-0.0844131
-0.0739988
-0.0650763
-0.0574004
-0.0506624
-0.044772
-0.0406764
-0.37218
-0.36078
-0.334439
-0.297848
-0.258491
-0.221123
-0.187787
-0.158941
-0.134314
-0.113396
-0.0956532
-0.0806129
-0.0678748
-0.0571085
-0.0480432
-0.0404519
-0.0341036
-0.0287119
-0.0241677
-0.0212763
-0.323742
-0.313378
-0.287797
-0.252344
-0.214623
-0.179179
-0.147849
-0.120966
-0.0982029
-0.079031
-0.0629245
-0.0494258
-0.0381563
-0.0288103
-0.0211416
-0.01494
-0.00999361
-0.00607478
-0.00312957
-0.00185026
-0.272746
-0.263515
-0.238929
-0.204911
-0.169101
-0.135798
-0.106639
-0.0818404
-0.0610248
-0.0436555
-0.0292173
-0.0172735
-0.00747425
0.000450065
0.00670888
0.0114893
0.014958
0.0171665
0.0179623
0.0170315
-0.219596
-0.211585
-0.188219
-0.155908
-0.122253
-0.0912843
-0.0644357
-0.0418183
-0.0230133
-0.00747752
0.00529394
0.0157189
0.0241197
0.0307269
0.0357094
0.039219
0.0412998
0.0416018
0.0396314
0.0363077
-0.164718
-0.158008
-0.136068
-0.105712
-0.0744276
-0.0459574
-0.0215385
-0.00118514
0.0155571
0.0292377
0.0403566
0.0493252
0.0564588
0.061983
0.0660772
0.0689082
0.0703836
0.0696371
0.0659404
0.0620257
-0.108564
-0.103222
-0.0828958
-0.0547135
-0.0259848
-0.000152171
0.0217363
0.039753
0.054381
0.0661726
0.0756242
0.0831468
0.0890671
0.0936473
0.0971504
0.09987
0.101774
0.101829
0.0997653
0.104132
-0.0515865
-0.0476743
-0.0291281
-0.00330708
0.0227108
0.0457923
0.0650683
0.080687
0.0931517
0.103011
0.11075
0.116771
0.121396
0.124896
0.12755
0.129633
0.131123
0.131518
0.131747
0.138231
0.00574342
0.00817954
0.0248045
0.0481091
0.0712942
0.0915384
0.108141
0.121315
0.131577
0.139466
0.145455
0.149931
0.153208
0.155556
0.157237
0.15848
0.159258
0.159254
0.159424
0.164694
0.0629571
0.063884
0.0784737
0.0991419
0.119406
0.136756
0.150647
0.161346
0.169377
0.175263
0.179458
0.182331
0.184181
0.185261
0.185814
0.186043
0.185935
0.185249
0.184774
0.188435
0.11959
0.118989
0.131458
0.149406
0.166697
0.181125
0.192292
0.20051
0.206299
0.210168
0.212546
0.213781
0.214151
0.213888
0.213207
0.21228
0.211083
0.209406
0.207978
0.210147
0.175186
0.173053
0.183347
0.198528
0.212828
0.22434
0.232797
0.238548
0.242109
0.243966
0.244525
0.244109
0.242974
0.241331
0.239371
0.237237
0.23489
0.232144
0.229694
0.230434
0.229301
0.225648
0.233742
0.246146
0.257475
0.266107
0.271896
0.275222
0.27659
0.276464
0.275223
0.273167
0.27053
0.267502
0.26425
0.260892
0.25738
0.253556
0.250086
0.249478
0.281509
0.276362
0.282263
0.291918
0.300329
0.306148
0.30934
0.310306
0.309539
0.30748
0.304483
0.300824
0.296715
0.292326
0.287803
0.283245
0.278596
0.273727
0.26927
0.267381
0.3314
0.324802
0.328547
0.335516
0.341097
0.344202
0.344892
0.343587
0.340766
0.336846
0.332156
0.326951
0.321421
0.315718
0.309969
0.304255
0.298519
0.292661
0.28726
0.284159
0.378588
0.370597
0.372251
0.376631
0.379502
0.380018
0.378328
0.374864
0.37009
0.364401
0.358102
0.351425
0.344543
0.337591
0.330678
0.323869
0.317113
0.310326
0.304034
0.299791
0.422709
0.413397
0.413055
0.414976
0.415287
0.413365
0.409438
0.403948
0.397343
0.389993
0.382183
0.374126
0.365976
0.357853
0.34985
0.342021
0.334317
0.326673
0.319548
0.314233
0.463426
0.452881
0.450663
0.450283
0.448211
0.444028
0.438029
0.430663
0.422363
0.413477
0.404271
0.394937
0.385616
0.376411
0.367403
0.358636
0.350064
0.341636
0.333741
0.327435
0.50043
0.488752
0.484802
0.482307
0.478055
0.471808
0.463921
0.454847
0.445003
0.43472
0.424242
0.413748
0.403361
0.393174
0.383255
0.373637
0.364283
0.355149
0.346552
0.339339
0.533441
0.520743
0.515228
0.510828
0.504619
0.496524
0.48695
0.47635
0.465128
0.453596
0.441984
0.430454
0.419118
0.408056
0.397324
0.386951
0.376903
0.367143
0.357918
0.349891
0.562209
0.548615
0.541721
0.535649
0.527726
0.518017
0.50697
0.495038
0.482615
0.469995
0.457394
0.444961
0.432798
0.420974
0.409536
0.398506
0.387857
0.377554
0.36778
0.359038
0.58652
0.572164
0.564094
0.556599
0.547223
0.536148
0.523854
0.510797
0.497357
0.483818
0.470381
0.457186
0.444324
0.431856
0.419823
0.408239
0.397084
0.386325
0.376084
0.366735
0.606191
0.591214
0.582186
0.573535
0.56298
0.550796
0.537493
0.523525
0.509263
0.49498
0.480867
0.467055
0.453628
0.440641
0.428125
0.416095
0.404532
0.393405
0.382784
0.372941
0.621074
0.605626
0.595869
0.586339
0.574891
0.561868
0.547801
0.533143
0.518259
0.503413
0.488789
0.47451
0.460656
0.447275
0.434396
0.422028
0.410157
0.398751
0.387843
0.377625
0.631059
0.615294
0.605046
0.594926
0.582876
0.56929
0.55471
0.53959
0.524288
0.509064
0.494097
0.479506
0.465365
0.451721
0.438597
0.426003
0.413926
0.402334
0.391232
0.380761
0.636072
0.620146
0.609652
0.599234
0.586883
0.573014
0.558176
0.542824
0.527313
0.511899
0.49676
0.482011
0.467727
0.453951
0.440705
0.427997
0.415816
0.404131
0.392931
0.382333
0.636073
0.620148
0.609653
0.599236
0.586884
0.573015
0.558178
0.542825
0.527313
0.5119
0.496761
0.482012
0.467728
0.453951
0.440705
0.427997
0.415817
0.404131
0.392931
0.382333
0.631065
0.615299
0.605051
0.59493
0.58288
0.569294
0.554713
0.539593
0.524291
0.509067
0.4941
0.479508
0.465367
0.451723
0.438599
0.426005
0.413927
0.402335
0.391233
0.380762
0.621084
0.605635
0.595878
0.586347
0.574898
0.561874
0.547806
0.533148
0.518263
0.503417
0.488793
0.474513
0.460659
0.447278
0.434399
0.422031
0.410159
0.398754
0.387845
0.377627
0.606204
0.591227
0.582198
0.573546
0.56299
0.550805
0.537501
0.523532
0.509269
0.494986
0.480873
0.46706
0.453632
0.440645
0.428129
0.416099
0.404535
0.393408
0.382787
0.372944
0.586538
0.57218
0.564109
0.556613
0.547236
0.536159
0.523864
0.510806
0.497365
0.483825
0.470388
0.457192
0.444329
0.431861
0.419828
0.408244
0.397088
0.386329
0.376088
0.366738
0.56223
0.548636
0.54174
0.535666
0.527742
0.518031
0.506982
0.495049
0.482624
0.470004
0.457403
0.444969
0.432805
0.42098
0.409542
0.398511
0.387862
0.377559
0.367784
0.359042
0.533465
0.520767
0.51525
0.510848
0.504637
0.49654
0.486964
0.476362
0.465139
0.453607
0.441994
0.430462
0.419126
0.408063
0.397331
0.386957
0.376909
0.367149
0.357923
0.349896
0.500458
0.48878
0.484828
0.48233
0.478075
0.471826
0.463937
0.454861
0.445016
0.434732
0.424253
0.413757
0.40337
0.393183
0.383263
0.373644
0.364289
0.355155
0.346558
0.339345
0.463458
0.452912
0.450692
0.450309
0.448234
0.444048
0.438048
0.43068
0.422377
0.41349
0.404283
0.394948
0.385626
0.37642
0.367412
0.358643
0.350071
0.341643
0.333748
0.327441
0.422744
0.413432
0.413087
0.415004
0.415312
0.413388
0.409459
0.403966
0.397358
0.390007
0.382196
0.374138
0.365987
0.357863
0.349859
0.342029
0.334325
0.32668
0.319555
0.31424
0.378626
0.370634
0.372285
0.376662
0.37953
0.380042
0.378349
0.374883
0.370108
0.364417
0.358116
0.351438
0.344555
0.337601
0.330688
0.323878
0.317121
0.310335
0.304042
0.299798
0.331442
0.324842
0.328584
0.335549
0.341127
0.344228
0.344915
0.343608
0.340785
0.336863
0.332172
0.326965
0.321433
0.315729
0.30998
0.304265
0.298529
0.292669
0.287268
0.284167
0.281554
0.276405
0.282303
0.291954
0.300361
0.306177
0.309365
0.310328
0.309559
0.307498
0.304499
0.300838
0.296728
0.292338
0.287815
0.283255
0.278606
0.273737
0.269279
0.26739
0.229349
0.225694
0.233785
0.246185
0.257509
0.266137
0.271923
0.275246
0.276611
0.276482
0.27524
0.273183
0.270544
0.267515
0.264261
0.260903
0.25739
0.253565
0.250096
0.249487
0.175236
0.173101
0.183391
0.198568
0.212863
0.224371
0.232825
0.238573
0.242131
0.243986
0.244543
0.244125
0.242989
0.241344
0.239383
0.237249
0.234901
0.232155
0.229704
0.230443
0.119642
0.119039
0.131505
0.149448
0.166734
0.181158
0.192321
0.200535
0.206322
0.210189
0.212565
0.213798
0.214166
0.213902
0.21322
0.212292
0.211095
0.209417
0.207988
0.210157
0.0630114
0.0639365
0.0785224
0.0991856
0.119445
0.13679
0.150677
0.161373
0.1694
0.175284
0.179477
0.182348
0.184196
0.185276
0.185827
0.186055
0.185946
0.185259
0.184785
0.188445
0.00579946
0.0082336
0.0248546
0.0481543
0.0713342
0.0915736
0.108172
0.121343
0.131601
0.139488
0.145474
0.149948
0.153225
0.155571
0.157251
0.158493
0.159269
0.159266
0.159435
0.164704
-0.0515291
-0.047619
-0.0290766
-0.0032608
0.0227518
0.0458283
0.0651001
0.0807151
0.0931767
0.103033
0.11077
0.116789
0.121412
0.124911
0.127564
0.129646
0.131135
0.131529
0.131758
0.138241
-0.108505
-0.103166
-0.0828435
-0.0546664
-0.025943
-0.00011539
0.0217687
0.0397816
0.0544064
0.0661953
0.0756444
0.0831651
0.0890837
0.0936624
0.0971643
0.0998829
0.101786
0.101841
0.0997763
0.104143
-0.164659
-0.157951
-0.136015
-0.105665
-0.0743853
-0.0459201
-0.0215057
-0.00115614
0.0155828
0.0292606
0.0403771
0.0493437
0.0564755
0.0619983
0.0660913
0.0689212
0.0703958
0.0696487
0.0659517
0.0620367
-0.219536
-0.211528
-0.188165
-0.15586
-0.12221
-0.0912467
-0.0644026
-0.0417891
-0.0229875
-0.00745453
0.00531452
0.0157375
0.0241365
0.0307422
0.0357235
0.0392321
0.0413122
0.0416136
0.0396429
0.0363191
-0.272687
-0.263458
-0.238876
-0.204863
-0.169058
-0.135761
-0.106606
-0.0818112
-0.060999
-0.0436325
-0.0291967
-0.0172551
-0.0074575
0.000465323
0.00672291
0.0115023
0.0149702
0.0171782
0.0179736
0.0170427
-0.323683
-0.313321
-0.287744
-0.252296
-0.214581
-0.179141
-0.147816
-0.120937
-0.0981773
-0.0790082
-0.0629042
-0.0494075
-0.0381398
-0.0287952
-0.0211279
-0.0149273
-0.0099817
-0.00606353
-0.00311876
-0.00183975
-0.372123
-0.360724
-0.334387
-0.297801
-0.258449
-0.221086
-0.187755
-0.158912
-0.134289
-0.113373
-0.0956331
-0.0805949
-0.0678586
-0.0570938
-0.0480298
-0.0404395
-0.0340922
-0.0287011
-0.0241574
-0.0212664
-0.417638
-0.405304
-0.378451
-0.341043
-0.300356
-0.261318
-0.226171
-0.19551
-0.169132
-0.146553
-0.127239
-0.110708
-0.0965438
-0.0843989
-0.0739859
-0.0650644
-0.0573894
-0.0506521
-0.0447622
-0.040667
-0.459901
-0.446735
-0.419613
-0.381716
-0.340021
-0.299583
-0.262841
-0.23053
-0.202532
-0.178395
-0.157595
-0.139645
-0.124118
-0.110656
-0.0989613
-0.0887845
-0.0798726
-0.071902
-0.0647958
-0.0596356
-0.498629
-0.484735
-0.457591
-0.419545
-0.37719
-0.335657
-0.297564
-0.263799
-0.234336
-0.20877
-0.186593
-0.167319
-0.150519
-0.135826
-0.122937
-0.111598
-0.101553
-0.0924699
-0.0842598
-0.0780746
-0.533588
-0.519071
-0.492142
-0.454293
-0.411641
-0.369339
-0.330166
-0.295165
-0.264415
-0.237568
-0.214143
-0.193661
-0.175694
-0.159873
-0.145891
-0.133491
-0.122422
-0.112343
-0.103148
-0.0959945
-0.564599
-0.549562
-0.523072
-0.485759
-0.443187
-0.400461
-0.3605
-0.324503
-0.292663
-0.264701
-0.240172
-0.218612
-0.199597
-0.182761
-0.167794
-0.154441
-0.142452
-0.131492
-0.121428
-0.113392
-0.591541
-0.576082
-0.550236
-0.513787
-0.471671
-0.428881
-0.388443
-0.351707
-0.318991
-0.290095
-0.264618
-0.242119
-0.222185
-0.204453
-0.188616
-0.174418
-0.161615
-0.149879
-0.139055
-0.130228
-0.61435
-0.598563
-0.573543
-0.538263
-0.496976
-0.454489
-0.413898
-0.376696
-0.343331
-0.313693
-0.287434
-0.264143
-0.243423
-0.224919
-0.208326
-0.193392
-0.179878
-0.167467
-0.155983
-0.146446
-0.633025
-0.616999
-0.592956
-0.559122
-0.519021
-0.477204
-0.436795
-0.399411
-0.365634
-0.335454
-0.308586
-0.284655
-0.263285
-0.244133
-0.2269
-0.211336
-0.197211
-0.184221
-0.172168
-0.161997
-0.647621
-0.631441
-0.608496
-0.576346
-0.537765
-0.496979
-0.457086
-0.419812
-0.38587
-0.355355
-0.328054
-0.303638
-0.281756
-0.262079
-0.244319
-0.22823
-0.213591
-0.200112
-0.187577
-0.176845
-0.658254
-0.642002
-0.62024
-0.589969
-0.553208
-0.513796
-0.474753
-0.437884
-0.404026
-0.373386
-0.345833
-0.321086
-0.298828
-0.278751
-0.260575
-0.244064
-0.229004
-0.215121
-0.202187
-0.190967
-0.665095
-0.648847
-0.628322
-0.600074
-0.56539
-0.527671
-0.489801
-0.45363
-0.420109
-0.389557
-0.36193
-0.337008
-0.31451
-0.294152
-0.275669
-0.258834
-0.243442
-0.229239
-0.215986
-0.20435
-0.668364
-0.652198
-0.632927
-0.606793
-0.574395
-0.538654
-0.502262
-0.467075
-0.434141
-0.40389
-0.376369
-0.351425
-0.32882
-0.308298
-0.289613
-0.272548
-0.256911
-0.242465
-0.228968
-0.216988
-0.66833
-0.65232
-0.634293
-0.61031
-0.580348
-0.546827
-0.512192
-0.478265
-0.446163
-0.416423
-0.389186
-0.36437
-0.341787
-0.321215
-0.302429
-0.285226
-0.269425
-0.254808
-0.241138
-0.228883
-0.665297
-0.649519
-0.6327
-0.61085
-0.583415
-0.552304
-0.519674
-0.487262
-0.456231
-0.427207
-0.400428
-0.375887
-0.353452
-0.332939
-0.314147
-0.296892
-0.281004
-0.266288
-0.252509
-0.240046
-0.6596
-0.644131
-0.628465
-0.608683
-0.5838
-0.555235
-0.524815
-0.494151
-0.464413
-0.436306
-0.410155
-0.386033
-0.363867
-0.343516
-0.324811
-0.307584
-0.291682
-0.276929
-0.263104
-0.250494
-0.651598
-0.636514
-0.621931
-0.60411
-0.581744
-0.555796
-0.527746
-0.499031
-0.470794
-0.443794
-0.418436
-0.394871
-0.373092
-0.353003
-0.33447
-0.317347
-0.301498
-0.286768
-0.272952
-0.260255
-0.64166
-0.627041
-0.613465
-0.597462
-0.57752
-0.554198
-0.528621
-0.502019
-0.475468
-0.449753
-0.425346
-0.402474
-0.381194
-0.361462
-0.343181
-0.326233
-0.310499
-0.295845
-0.282089
-0.26936
-0.630159
-0.61608
-0.603436
-0.589087
-0.571426
-0.550676
-0.527618
-0.503248
-0.478541
-0.454273
-0.430968
-0.408917
-0.388245
-0.368961
-0.351009
-0.3343
-0.318738
-0.30421
-0.290557
-0.277848
-0.61746
-0.603996
-0.592211
-0.579339
-0.563777
-0.545485
-0.524932
-0.502867
-0.480127
-0.45745
-0.435386
-0.414282
-0.394322
-0.375572
-0.35802
-0.341611
-0.326272
-0.311914
-0.298404
-0.285758
-0.60391
-0.591132
-0.580143
-0.568572
-0.554897
-0.5389
-0.520779
-0.501038
-0.48035
-0.459384
-0.438688
-0.418648
-0.399502
-0.38137
-0.364286
-0.348233
-0.333163
-0.319011
-0.305676
-0.293135
-0.589837
-0.577806
-0.567562
-0.557122
-0.545111
-0.531204
-0.515388
-0.497936
-0.479343
-0.460179
-0.440961
-0.422094
-0.403861
-0.386428
-0.369878
-0.354232
-0.339472
-0.325561
-0.312426
-0.30002
-0.575535
-0.564307
-0.554765
-0.545303
-0.53473
-0.522684
-0.508999
-0.493747
-0.477246
-0.45994
-0.442291
-0.424699
-0.407471
-0.390817
-0.374865
-0.359675
-0.345262
-0.331618
-0.318702
-0.306457
-0.561266
-0.550882
-0.542014
-0.533396
-0.524046
-0.513618
-0.501852
-0.488666
-0.474205
-0.458778
-0.442764
-0.426532
-0.410399
-0.394604
-0.379313
-0.364626
-0.350596
-0.33724
-0.324554
-0.312484
-0.547251
-0.537743
-0.529527
-0.521642
-0.513319
-0.504267
-0.494189
-0.482891
-0.470373
-0.456804
-0.442463
-0.427664
-0.412707
-0.397849
-0.383283
-0.369148
-0.355531
-0.342482
-0.33003
-0.318139
-0.533675
-0.52506
-0.517481
-0.510242
-0.502774
-0.494869
-0.486236
-0.476621
-0.465908
-0.454137
-0.441473
-0.428157
-0.41445
-0.400603
-0.38683
-0.373296
-0.360124
-0.347396
-0.335174
-0.323455
-0.520684
-0.512965
-0.506011
-0.499348
-0.492593
-0.485626
-0.478203
-0.470048
-0.460969
-0.450896
-0.439882
-0.428074
-0.415677
-0.402914
-0.39
-0.37712
-0.364426
-0.352032
-0.340033
-0.328464
-0.508386
-0.501555
-0.495214
-0.489073
-0.482912
-0.476705
-0.47027
-0.46335
-0.455713
-0.447207
-0.437779
-0.427478
-0.416434
-0.404821
-0.392835
-0.380667
-0.368489
-0.356442
-0.344652
-0.333201
-0.496866
-0.490899
-0.485153
-0.479489
-0.473828
-0.468229
-0.462587
-0.456688
-0.450294
-0.443197
-0.435261
-0.426438
-0.416767
-0.406359
-0.39537
-0.383977
-0.372358
-0.360677
-0.349085
-0.337712
-0.486182
-0.481042
-0.475864
-0.470637
-0.465401
-0.460289
-0.455273
-0.4502
-0.444852
-0.438996
-0.432432
-0.425027
-0.416729
-0.407567
-0.397639
-0.387087
-0.376081
-0.364793
-0.353393
-0.342055
-0.476384
-0.472015
-0.467368
-0.462537
-0.457662
-0.452939
-0.448415
-0.444002
-0.439518
-0.434733
-0.429407
-0.423336
-0.416383
-0.408489
-0.399676
-0.390035
-0.379704
-0.368852
-0.357656
-0.346331
-0.467512
-0.46384
-0.459674
-0.455197
-0.450628
-0.446219
-0.442081
-0.438191
-0.434414
-0.430538
-0.426307
-0.421468
-0.415807
-0.40918
-0.401523
-0.392857
-0.383272
-0.372911
-0.36195
-0.350641
-0.459606
-0.456537
-0.452792
-0.448622
-0.444315
-0.440161
-0.43633
-0.432855
-0.429655
-0.426544
-0.423268
-0.419544
-0.415101
-0.409714
-0.403233
-0.395596
-0.386828
-0.377029
-0.366365
-0.355175
-0.452701
-0.450117
-0.446725
-0.442822
-0.438739
-0.434801
-0.431222
-0.428088
-0.425361
-0.422892
-0.42044
-0.417709
-0.414388
-0.410188
-0.404876
-0.398299
-0.390402
-0.381226
-0.370912
-0.359973
-0.446815
-0.444581
-0.441473
-0.437801
-0.433922
-0.430181
-0.426827
-0.423986
-0.421661
-0.419734
-0.417988
-0.416129
-0.413822
-0.41073
-0.406548
-0.401035
-0.394038
-0.38551
-0.375567
-0.365183
-0.441934
-0.439906
-0.437016
-0.433555
-0.429878
-0.426342
-0.423216
-0.420653
-0.418688
-0.417233
-0.416094
-0.41499
-0.413581
-0.411498
-0.408381
-0.403903
-0.397802
-0.389868
-0.379977
-0.369985
-0.437999
-0.436033
-0.433307
-0.430053
-0.426601
-0.423305
-0.420442
-0.418178
-0.416567
-0.415545
-0.414939
-0.414488
-0.41386
-0.412677
-0.410542
-0.407064
-0.401883
-0.394633
-0.384648
-0.372365
-0.434892
-0.432861
-0.430259
-0.427227
-0.424045
-0.421053
-0.41852
-0.416612
-0.415387
-0.414794
-0.414681
-0.414806
-0.414855
-0.414462
-0.41323
-0.410752
-0.406652
-0.400611
-0.392077
-0.38084
-0.432437
-0.430246
-0.427747
-0.424969
-0.422121
-0.419519
-0.417409
-0.415943
-0.415171
-0.415042
-0.415414
-0.416065
-0.416705
-0.416992
-0.416549
-0.414981
-0.411914
-0.407009
-0.399672
-0.389855
-0.430405
-0.428006
-0.425614
-0.423134
-0.420697
-0.418582
-0.417004
-0.416086
-0.415856
-0.416253
-0.417136
-0.418295
-0.419462
-0.420323
-0.42053
-0.419712
-0.417505
-0.41354
-0.407188
-0.398859
-0.428537
-0.425938
-0.423682
-0.421554
-0.419608
-0.41808
-0.417143
-0.416881
-0.417289
-0.418287
-0.419726
-0.4214
-0.423058
-0.424412
-0.425147
-0.424926
-0.423419
-0.420267
-0.414892
-0.408074
-0.426559
-0.423831
-0.421764
-0.42005
-0.418669
-0.417815
-0.417612
-0.418097
-0.419228
-0.420897
-0.422938
-0.425144
-0.427276
-0.429067
-0.430233
-0.43048
-0.429518
-0.427027
-0.422563
-0.41707
-0.424211
-0.421481
-0.41968
-0.418437
-0.417683
-0.417565
-0.418159
-0.41945
-0.421356
-0.423737
-0.426408
-0.429156
-0.431746
-0.433928
-0.435445
-0.436039
-0.435464
-0.433451
-0.429734
-0.425217
-0.421262
-0.418706
-0.41726
-0.416542
-0.416453
-0.417099
-0.418508
-0.420617
-0.423303
-0.426393
-0.429685
-0.432955
-0.435968
-0.438488
-0.440278
-0.441109
-0.44077
-0.439052
-0.43587
-0.431935
-0.417534
-0.415356
-0.41436
-0.414202
-0.414787
-0.416186
-0.41838
-0.421265
-0.424681
-0.428427
-0.432282
-0.436013
-0.439385
-0.442168
-0.444141
-0.4451
-0.444859
-0.443278
-0.440432
-0.436726
-0.412914
-0.411332
-0.410871
-0.411288
-0.412525
-0.414623
-0.417526
-0.421095
-0.42514
-0.429437
-0.43375
-0.437839
-0.441467
-0.444411
-0.446464
-0.447439
-0.447178
-0.445612
-0.442952
-0.439219
-0.407377
-0.406593
-0.406735
-0.407719
-0.409556
-0.412267
-0.415767
-0.419891
-0.424425
-0.429131
-0.433761
-0.438071
-0.441825
-0.444808
-0.446827
-0.447714
-0.447336
-0.445709