/*--------------------------------*- C++ -*----------------------------------*\
  =========                 |
  \\      /  F ield         | OpenFOAM: The Open Source CFD Toolbox
   \\    /   O peration     | Website:  https://openfoam.org
    \\  /    A nd           | Version:  6.0
     \\/     M anipulation  |
\*---------------------------------------------------------------------------*/
FoamFile
{
    version     2.0;
    format      ascii;
    class       surfaceScalarField;
    location    "2.9";
    object      phi;
}
// * * * * * * * * * * * * * * * * * * * * * * * * * * * * * * * * * * * * * //

dimensions      [0 3 -1 0 0 0 0];

internalField   nonuniform List<scalar> 
15760
(
-2.33339e-05
2.34615e-05
-1.27602e-07
-7.60651e-05
5.30542e-05
-3.22996e-07
-0.000147196
7.16037e-05
-4.7326e-07
-0.000229259
8.26519e-05
-5.88822e-07
-0.000317075
8.84951e-05
-6.79106e-07
-0.000407033
9.07098e-05
-7.51631e-07
-0.000496564
9.03427e-05
-8.11363e-07
-0.000583776
8.80723e-05
-8.60927e-07
-0.00066722
8.43459e-05
-9.01282e-07
-0.000745768
7.94799e-05
-9.32432e-07
-0.000818541
7.37277e-05
-9.53967e-07
-0.000884895
6.73189e-05
-9.65374e-07
-0.000944406
6.04774e-05
-9.66184e-07
-0.000996874
5.34243e-05
-9.56069e-07
-0.00104231
4.63692e-05
-9.34865e-07
-0.0010809
3.94947e-05
-9.02527e-07
-0.00111298
3.29419e-05
-8.59061e-07
-0.00113899
2.68106e-05
-8.04401e-07
-0.00115939
2.11372e-05
-7.38224e-07
1.58564e-05
-6.60452e-07
-0.00117458
-2.22649e-05
4.57264e-05
-7.28947e-05
0.000103684
-0.000141484
0.000140193
-0.000220874
0.000162042
-0.000306031
0.000173653
-0.000393405
0.000178084
-0.000480443
0.000177381
-0.000565248
0.000172877
-0.000646358
0.000165456
-0.000722617
0.000155738
-0.000793106
0.000144217
-0.000857122
0.000131335
-0.000914169
0.000117524
-0.000963959
0.000103215
-0.00100641
8.88237e-05
-0.00104165
7.47259e-05
-0.00106993
6.12269e-05
-0.00109168
4.85607e-05
-0.00110739
3.68506e-05
2.60119e-05
-0.00111755
-2.02034e-05
6.59298e-05
-6.67502e-05
0.000150231
-0.00013037
0.000203813
-0.000204501
0.000236172
-0.000284401
0.000253553
-0.000366642
0.000260324
-0.000448706
0.000259445
-0.000528696
0.000252867
-0.000605127
0.000241887
-0.000676799
0.00022741
-0.000742728
0.000210146
-0.000802114
0.000190721
-0.000854333
0.000169743
-0.000898945
0.000147827
-0.000935706
0.000125585
-0.000964577
0.000103597
-0.000985719
8.23692e-05
-0.00099949
6.23312e-05
-0.00100643
4.37874e-05
2.67359e-05
-0.00100715
-1.72922e-05
8.3222e-05
-5.80018e-05
0.00019094
-0.000114442
0.000260253
-0.000180901
0.000302632
-0.000253068
0.00032572
-0.0003277
0.000334956
-0.000402347
0.000334092
-0.000475118
0.000325639
-0.000544509
0.000311277
-0.000609279
0.00029218
-0.000668376
0.000269243
-0.000720895
0.00024324
-0.000766069
0.000214917
-0.000803274
0.000185031
-0.000832056
0.000154367
-0.000852167
0.000123708
-0.000863592
9.37943e-05
-0.000866582
6.53215e-05
-0.000861696
3.89008e-05
1.47819e-05
-0.000849742
-1.37343e-05
9.69563e-05
-4.7187e-05
0.000224393
-9.45708e-05
0.000307637
-0.000151227
0.000359289
-0.000213397
0.00038789
-0.000278098
0.000399657
-0.00034298
0.000398974
-0.000406183
0.000388841
-0.000466197
0.000371292
-0.000521759
0.000347742
-0.000571771
0.000319255
-0.000615251
0.000286721
-0.000651314
0.00025098
-0.000679169
0.000212887
-0.000698155
0.000173353
-0.000707788
0.000133341
-0.000707828
9.38345e-05
-0.000698358
5.58511e-05
-0.000679897
2.04395e-05
-1.16688e-05
-0.000653446
-9.77905e-06
0.000106735
-3.49843e-05
0.000249598
-7.18853e-05
0.000344538
-0.000117009
0.000404412
-0.000167252
0.000438133
-0.000219963
0.000452367
-0.000272941
0.000451953
-0.000324384
0.000440284
-0.000372803
0.000419711
-0.000416941
0.00039188
-0.000455694
0.000358008
-0.000488058
0.000319085
-0.000513089
0.00027601
-0.000529895
0.000229693
-0.000537656
0.000181113
-0.000535675
0.00013136
-0.000523472
8.16321e-05
-0.000500903
3.32821e-05
-0.000468361
-1.21026e-05
-5.30474e-05
-0.000426983
-5.70144e-06
0.000112437
-2.21695e-05
0.000266066
-4.77171e-05
0.000370085
-8.01071e-05
0.000436802
-0.000116966
0.000474991
-0.00015604
0.000491442
-0.000195333
0.000491245
-0.000233138
0.00047809
-0.000268022
0.000454595
-0.000298767
0.000422625
-0.000324309
0.00038355
-0.000343679
0.000338454
-0.000355953
0.000288284
-0.000360226
0.000233966
-0.000355609
0.000176496
-0.000341265
0.000117016
-0.000316503
5.68701e-05
-0.000280924
-2.29658e-06
-0.000234704
-5.83228e-05
-0.000108748
-0.000179003
-1.7787e-06
0.000114216
-9.55873e-06
0.000273846
-2.35189e-05
0.000384045
-4.26202e-05
0.000455904
-6.52512e-05
0.000497622
-8.96161e-05
0.000515807
-0.000113976
0.000515606
-0.000136774
0.000500887
-0.000156666
0.000474487
-0.00017251
0.000438469
-0.000183321
0.000394361
-0.000188214
0.000343347
-0.000186353
0.000286424
-0.000176905
0.000224519
-0.000159009
0.0001586
-0.000131783
8.97906e-05
-9.43959e-05
1.9483e-05
-4.62135e-05
-5.0479e-05
1.28693e-05
-0.000117405
-0.000177669
8.17898e-05
1.73535e-06
0.00011248
2.06134e-06
0.00027352
-7.49956e-07
0.000386857
-6.73423e-06
0.000461888
-1.5027e-05
0.000505915
-2.43273e-05
0.000525107
-3.32119e-05
0.00052449
-4.03218e-05
0.000507997
-4.44506e-05
0.000478616
-4.45661e-05
0.000438585
-3.97897e-05
0.000389584
-2.9353e-05
0.00033291
-1.25446e-05
0.000269616
1.13475e-05
0.000200626
4.30868e-05
0.00012686
8.35147e-05
4.93626e-05
0.000133522
-3.05241e-05
0.000193923
-0.00011088
0.000265113
-0.000188596
-0.000258761
0.000346206
4.63385e-06
0.000107846
1.20063e-05
0.000266148
1.92566e-05
0.000379606
2.5472e-05
0.000455673
3.08364e-05
0.000500551
3.61464e-05
0.000519797
4.24675e-05
0.000518169
5.09076e-05
0.000499557
6.24922e-05
0.000467031
7.81113e-05
0.000422965
9.85176e-05
0.000369178
0.000124356
0.000307072
0.000156212
0.00023776
0.000194671
0.000162167
0.000240381
8.11501e-05
0.000294107
-4.36267e-06
0.000356735
-9.31528e-05
0.000429197
-0.000183342
0.000512137
-0.000271535
-0.000351461
0.000604836
6.77433e-06
0.000101072
1.97593e-05
0.000253163
3.54282e-05
0.000363937
5.22423e-05
0.000438858
6.98186e-05
0.000482974
8.84776e-05
0.000501138
0.000108907
0.00049774
0.000131927
0.000476536
0.000158347
0.000440611
0.000188892
0.000392421
0.000224184
0.000333886
0.00026476
0.000266496
0.000311109
0.000191411
0.000363729
0.000109548
0.000423184
2.16943e-05
0.000490172
-7.13503e-05
0.00056555
-0.000168531
0.000650298
-0.000268089
0.000745223
-0.000366461
-0.000455932
0.000849695
8.0883e-06
9.29837e-05
2.50184e-05
0.000236233
4.70666e-05
0.000341889
7.23456e-05
0.000413579
0.000100058
0.000455262
0.000130116
0.00047108
0.000162845
0.000465011
0.00019877
0.000440611
0.000238473
0.000400908
0.000282514
0.00034838
0.000331401
0.000284998
0.000385602
0.000212296
0.000445565
0.000131447
0.000511765
4.33486e-05
0.000584742
-5.12825e-05
0.000665153
-0.000151762
0.000753807
-0.000257185
0.000851644
-0.000365926
0.000959501
-0.000474319
-0.000573131
0.0010767
8.58241e-06
8.44013e-05
2.77206e-05
0.000217095
5.39236e-05
0.000315686
8.5232e-05
0.000382271
0.000120612
0.000419882
0.000159671
0.000432022
0.000202432
0.000422249
0.00024916
0.000393883
0.000300236
0.000349832
0.000356088
0.000292528
0.000417161
0.000223925
0.000483911
0.000145546
0.000556815
5.85435e-05
0.000636385
-3.62219e-05
0.000723183
-0.00013808
0.000817827
-0.000246406
0.000921008
-0.000360367
0.00103348
-0.000478401
0.00115591
-0.000596746
-0.000704623
0.0012874
8.33328e-06
7.6068e-05
2.80426e-05
0.000197385
5.62298e-05
0.000287499
9.1117e-05
0.000347384
0.000131621
0.000379379
0.000177181
0.000386461
0.000227621
0.000371809
0.000283024
0.00033848
0.000343646
0.000289211
0.000409857
0.000226317
0.000482108
0.000151673
0.000560914
6.67408e-05
0.000646831
-2.73737e-05
0.000740437
-0.000129828
0.00084229
-0.000239934
0.000952894
-0.00035701
0.00107267
-0.000480145
0.00120196
-0.000607694
0.00134097
-0.000735755
-0.0008521
0.00148845
7.47826e-06
6.85897e-05
2.63798e-05
0.000178484
5.46743e-05
0.000259205
9.09799e-05
0.000311078
0.000134347
0.000336012
0.000184207
0.000336601
0.00024032
0.000315696
0.000302712
0.000276088
0.000371622
0.0002203
0.000447457
0.000150481
0.000530751
6.83795e-05
0.000622117
-2.46247e-05
0.000722188
-0.000127445
0.000831545
-0.000239185
0.000950621
-0.000359009
0.00107962
-0.000486004
0.00121844
-0.000618973
0.00136676
-0.000756007
0.00152401
-0.000893008
-0.00101657
0.00168848
6.20342e-06
6.23863e-05
2.33085e-05
0.000161379
5.03359e-05
0.000232177
8.64688e-05
0.000274945
0.000131061
0.000291419
0.000183702
0.00028396
0.000244244
0.000255154
0.000312798
0.000207534
0.000389706
0.000143392
0.000475493
6.46942e-05
0.000570805
-2.69324e-05
0.000676321
-0.000130141
0.000792647
-0.000243771
0.000920186
-0.000366724
0.00105901
-0.000497831
0.00120874
-0.000635734
0.00136851
-0.000778745
0.00153704
-0.000924534
0.00171285
-0.00106882
-0.00119741
0.00189369
4.72792e-06
5.76584e-05
1.95283e-05
0.000146578
4.4566e-05
0.000207139
7.9711e-05
0.0002398
0.000124765
0.000246365
0.000179631
0.000229094
0.000244405
0.000190381
0.000319407
0.000132532
0.00040516
5.76389e-05
0.000502328
-3.24735e-05
0.000611608
-0.000136212
0.000733598
-0.000252132
0.000868648
-0.000378821
0.00101669
-0.000514771
0.00117714
-0.000658273
0.00134874
-0.000807338
0.00152965
-0.000959651
0.00171752
-0.00111241
0.00190997
-0.00126127
-0.00139168
0.00210424
3.28266e-06
5.43757e-05
1.57852e-05
0.000134076
3.8827e-05
0.000184098
7.30371e-05
0.00020559
0.000118776
0.000200626
0.00017638
0.00017149
0.000246295
0.000120465
0.000329117
4.97112e-05
0.000425548
-3.87924e-05
0.000536301
-0.000143226
0.000661946
-0.000261857
0.000802739
-0.000392925
0.000958449
-0.00053453
0.00112821
-0.000684534
0.00131045
-0.000840511
0.00150286
-0.000999749
0.00170252
-0.00115931
0.00190615
-0.00131604
0.00211066
-0.00146578
-0.00159399
0.00231297
2.08341e-06
5.22923e-05
1.27799e-05
0.000123379
3.44988e-05
0.000162379
6.86507e-05
0.000171438
0.000116214
0.000153063
0.000178022
0.000109682
0.0002549
4.35868e-05
0.000347687
-4.30758e-05
0.000457154
-0.000148259
0.000583858
-0.00026993
0.000727962
-0.00040596
0.000889048
-0.000554011
0.00106597
-0.000711457
0.00125679
-0.000875353
0.00145875
-0.00104247
0.0016684
-0.00120939
0.00188178
-0.00137269
0.00209484
-0.0015291
0.00230415
-0.00167508
-0.00179707
0.00250723
1.30212e-06
5.09902e-05
1.10749e-05
0.000113607
3.26903e-05
0.000140763
6.83093e-05
0.000135819
0.000119525
0.000101847
0.000187649
4.15578e-05
0.000273822
-4.25857e-05
0.000378983
-0.000148237
0.000503751
-0.000273026
0.000648237
-0.000414417
0.000811868
-0.000569592
0.000993241
-0.000735384
0.00119006
-0.000908274
0.00139916
-0.00108446
0.00161666
-0.00125997
0.00183816
-0.00143089
0.00205895
-0.00159349
0.00227421
-0.00174436
0.00247894
-0.00187982
-0.00198907
0.00267094
1.04331e-06
4.99469e-05
1.10228e-05
0.000103627
3.40984e-05
0.000117688
7.30958e-05
9.68219e-05
0.000130149
4.47935e-05
0.000206944
-3.52368e-05
0.000304768
-0.00014041
0.000424432
-0.000267901
0.0005661
-0.000414694
0.000729115
-0.000577431
0.000911859
-0.000752336
0.00111171
-0.000935235
0.00132511
-0.00112167
0.00154775
-0.00130709
0.00177486
-0.00148708
0.00200157
-0.0016576
0.00222325
-0.00181516
0.00243588
-0.00195699
0.00263702
-0.00208096
-0.00218408
0.00283203
1.33813e-06
4.86088e-05
1.27449e-05
9.22202e-05
3.89644e-05
9.14683e-05
8.33517e-05
5.24346e-05
0.00014844
-2.02948e-05
0.000236105
-0.000122902
0.000347542
-0.000251847
0.00048313
-0.000403489
0.000642259
-0.000573823
0.000823194
-0.000758366
0.00102304
-0.000952185
0.00123785
-0.00115005
0.00146285
-0.00134667
0.00169277
-0.00153702
0.0019223
-0.00171661
0.00214644
-0.00188174
0.00236093
-0.00202965
0.00256257
-0.00215863
0.00274963
-0.00226803
-0.00235722
0.00292277
2.14847e-06
4.64603e-05
1.615e-05
7.82186e-05
4.71198e-05
6.04985e-05
9.87667e-05
7.87717e-07
0.000173826
-9.53544e-05
0.00027412
-0.000223196
0.000400457
-0.000378184
0.000552461
-0.000555494
0.000728439
-0.000749801
0.000925341
-0.000955268
0.00113888
-0.00116572
0.00136382
-0.00137498
0.00159438
-0.00157723
0.00182471
-0.00176735
0.00204937
-0.00194127
0.0022637
-0.00209607
0.00246414
-0.00223009
0.00264832
-0.00234281
0.00281506
-0.00243477
-0.00250703
0.00296487
3.3929e-06
4.30674e-05
2.10061e-05
6.06053e-05
5.812e-05
2.33847e-05
0.000118595
-5.9687e-05
0.000205131
-0.000181891
0.000319212
-0.000337277
0.000460938
-0.00051991
0.000628865
-0.000723421
0.000819955
-0.00094089
0.0010297
-0.00116501
0.00125245
-0.00138847
0.00148189
-0.00160443
0.00171161
-0.00180695
0.00193565
-0.0019914
0.00214897
-0.00215458
0.00234771
-0.00229481
0.00252939
-0.00241177
0.00269283
-0.00250626
0.00283804
-0.00257997
-0.00263532
0.00296633
4.97444e-06
3.80929e-05
2.7022e-05
3.85577e-05
7.13977e-05
-2.09909e-05
0.000141894
-0.000130183
0.000240911
-0.000280908
0.000369284
-0.00046565
0.000526078
-0.000676704
0.000708492
-0.000905836
0.000911964
-0.00114436
0.00113052
-0.00138357
0.00135733
-0.00161528
0.00158537
-0.00183247
0.00180811
-0.00202969
0.00202001
-0.00220329
0.00221689
-0.00235146
0.00239609
-0.00247402
0.00255642
-0.0025721
0.00269797
-0.0026478
0.00282181
-0.00270382
-0.00274336
0.00292985
6.80517e-06
3.12878e-05
3.3918e-05
1.14448e-05
8.63915e-05
-7.34643e-05
0.000167719
-0.000211511
0.000279712
-0.0003929
0.000422228
-0.000608166
0.000592987
-0.000847462
0.000787601
-0.00110045
0.00099992
-0.00135668
0.00122265
-0.00160629
0.00144812
-0.00184076
0.00166913
-0.00205348
0.00187953
-0.00224009
0.00207473
-0.00239848
0.00225179
-0.00252853
0.00240944
-0.00263166
0.00254779
-0.00271045
0.00266807
-0.00276808
0.00277221
-0.00280797
-0.00283371
0.00286257
8.82031e-06
2.24675e-05
4.1467e-05
-2.12018e-05
0.000102617
-0.000134615
0.000195218
-0.000304112
0.000320182
-0.000517864
0.000476062
-0.000764046
0.000658951
-0.00103035
0.000862746
-0.00130424
0.00107979
-0.00157373
0.00130178
-0.00182829
0.00152073
-0.0020597
0.00172976
-0.00226251
0.00192369
-0.00243401
0.00209919
-0.00257399
0.0022548
-0.00268414
0.00239061
-0.00276747
0.00250788
-0.00282772
0.00260867
-0.00286888
0.00269548
-0.00289477
-0.00290905
0.00277081
1.09803e-05
1.14872e-05
4.95015e-05
-5.97231e-05
0.00011968
-0.000204793
0.000223646
-0.000408078
0.000361089
-0.000655307
0.00052894
-0.000931897
0.000721465
-0.00122288
0.000930852
-0.00151363
0.0011482
-0.00179108
0.00136467
-0.00204475
0.00157248
-0.00226752
0.00176568
-0.00245571
0.00194039
-0.00260872
0.0020948
-0.0027284
0.00222887
-0.00281821
0.00234388
-0.00288248
0.00244198
-0.00292582
0.00252575
-0.00295265
0.00259789
-0.00296691
-0.00297206
0.0026609
1.32637e-05
-1.77646e-06
5.78972e-05
-0.000104357
0.000137242
-0.000284138
0.00025232
-0.000523156
0.000401264
-0.000804252
0.000579121
-0.00110975
0.000778245
-0.001422
0.000989291
-0.00172468
0.00120253
-0.00200432
0.00140915
-0.00225136
0.00160216
-0.00246053
0.00177692
-0.00263046
0.0019311
-0.0027629
0.00206439
-0.0028617
0.00217801
-0.00293183
0.00227415
-0.00297862
0.0023555
-0.00300717
0.00242486
-0.00302201
0.00248489
-0.00302693
-0.00302507
0.0025379
1.56567e-05
-1.74332e-05
6.65447e-05
-0.000155245
0.000154983
-0.000372576
0.000280565
-0.000648739
0.000439566
-0.000963252
0.000624964
-0.00129515
0.000827275
-0.00162431
0.00103597
-0.00193337
0.00124103
-0.00220938
0.00143424
-0.00244458
0.00160988
-0.00263617
0.00176487
-0.00278545
0.00189845
-0.00289648
0.00201165
-0.0029749
0.00210667
-0.00302685
0.00218628
-0.00305823
0.00225341
-0.0030743
0.00231083
-0.00307943
0.00236099
-0.00307709
-0.00306997
0.00240589
1.81434e-05
-3.55765e-05
7.53256e-05
-0.000212427
0.000172558
-0.000469808
0.000307687
-0.000783868
0.000474866
-0.00113043
0.000664961
-0.00148525
0.000866888
-0.00182624
0.00106942
-0.0021359
0.00126284
-0.0024028
0.00144004
-0.00262178
0.00159687
-0.002793
0.00173186
-0.00292045
0.00184573
-0.00301034
0.00194054
-0.00306972
0.00201916
-0.00310547
0.00208465
-0.00312372
0.00213991
-0.00312957
0.00218752
-0.00312704
0.00222961
-0.00311918
-0.00310822
0.00226786
2.06992e-05
-5.62757e-05
8.40976e-05
-0.000275825
0.000189587
-0.000575297
0.000332961
-0.000927242
0.000506084
-0.00130355
0.000697811
-0.00167697
0.000895852
-0.00202428
0.00108885
-0.0023289
0.00126796
-0.00258191
0.00142754
-0.00278136
0.00156511
-0.00293057
0.00168079
-0.00303612
0.00177643
-0.00310599
0.0018549
-0.00314819
0.00191938
-0.00316995
0.00197297
-0.0031773
0.00201839
-0.00317498
0.0020579
-0.00316655
0.00209331
-0.00315459
-0.00314087
0.00212596
2.32888e-05
-7.95646e-05
9.2691e-05
-0.000345228
0.000205658
-0.000688264
0.000355667
-0.00107725
0.000532246
-0.00148013
0.000722495
-0.00186722
0.000913436
-0.00221522
0.00109416
-0.00250963
0.00125712
-0.00274487
0.00139837
-0.0029226
0.00151708
-0.00304929
0.00161469
-0.00313373
0.00169395
-0.00318525
0.00175816
-0.0032124
0.0018106
-0.00322239
0.00185421
-0.00322091
0.00189142
-0.0032122
0.00192417
-0.0031993
0.00195389
-0.00318432
-0.00316864
0.00198166
2.58668e-05
-0.000105431
0.000100914
-0.000420275
0.000220342
-0.000807692
0.000375127
-0.00123204
0.000552545
-0.00165755
0.000738341
-0.00205302
0.000919413
-0.00239629
0.00108582
-0.00267604
0.00123162
-0.00289066
0.00135459
-0.00304557
0.0014554
-0.0031501
0.00153653
-0.00321487
0.00160132
-0.00325004
0.00165324
-0.00326431
0.00169547
-0.00326461
0.00173067
-0.00325611
0.00176094
-0.00324247
0.00178787
-0.00322623
0.0018126
-0.00320905
-0.003192
0.00183596
2.83802e-05
-0.000133812
0.000108563
-0.000500457
0.000233224
-0.000932353
0.000390752
-0.00138956
0.000566394
-0.00183319
0.00074504
-0.00223167
0.000914024
-0.00256528
0.00106477
-0.00282679
0.00119309
-0.00301898
0.00129841
-0.00315089
0.00138264
-0.00323433
0.00144901
-0.00328124
0.00150116
-0.00330218
0.00154252
-0.00330568
0.00157604
-0.00329814
0.00160405
-0.00328412
0.00162831
-0.00326673
0.00165009
-0.00324801
0.00167029
-0.00322925
-0.00321122
0.00168952
3.07714e-05
-0.000164583
0.000115435
-0.000585121
0.000243926
-0.00106084
0.000402074
-0.00154771
0.000573453
-0.00200457
0.000742639
-0.00240085
0.000897892
-0.00272053
0.00103228
-0.00296118
0.00114337
-0.00313006
0.00123204
-0.00323956
0.00130117
-0.00330346
0.00135446
-0.00333452
0.00139561
-0.00334333
0.00142787
-0.00333795
0.00145388
-0.00332415
0.00147562
-0.00330585
0.00149452
-0.00328563
0.0015116
-0.00326508
0.00152753
-0.00324518
-0.00322647
0.00154278
3.29818e-05
-0.000197565
0.000121338
-0.000673476
0.000252131
-0.00119164
0.000408779
-0.00170436
0.000573632
-0.00216942
0.000731488
-0.00255871
0.000871931
-0.00286097
0.000989802
-0.00307905
0.00108431
-0.00322457
0.00115755
-0.0033128
0.00121309
-0.00335899
0.00125483
-0.00337627
0.00128639
-0.00337489
0.00131074
-0.00336229
0.00133015
-0.00334356
0.00134627
-0.00332198
0.00136026
-0.00329962
0.0013729
-0.00327773
0.00138472
-0.003257
-0.00323781
0.00139606
3.49541e-05
-0.000232519
0.000126102
-0.000764624
0.000257595
-0.00132313
0.000410709
-0.00185747
0.000567066
-0.00232578
0.000712182
-0.00270382
0.000837233
-0.00298602
0.000938839
-0.00318066
0.00101768
-0.00330341
0.00107679
-0.00337192
0.00112016
-0.00340236
0.00115172
-0.00340783
0.00117485
-0.00339802
0.00119219
-0.00337963
0.00120567
-0.00335703
0.00121663
-0.00333294
0.00122599
-0.00330898
0.00123436
-0.0032861
0.00124213
-0.00326477
-0.00324525
0.00124957
3.66354e-05
-0.000269154
0.000129589
-0.000857578
0.000260165
-0.00145371
0.000407858
-0.00200517
0.000554085
-0.00247201
0.000685485
-0.00283522
0.000794979
-0.00309552
0.000880877
-0.00326656
0.000945097
-0.00336763
0.000991364
-0.00341818
0.00102386
-0.00343485
0.00104638
-0.00343035
0.00106201
-0.00341365
0.00107303
-0.00339066
0.00108106
-0.00336506
0.00108716
-0.00333905
0.00109207
-0.00331389
0.00109624
-0.00329027
0.00109997
-0.00326851
-0.00324875
0.00110348
3.79789e-05
-0.000307133
0.000131694
-0.000951294
0.00025977
-0.00158178
0.000400361
-0.00214576
0.000535169
-0.00260682
0.000652266
-0.00295232
0.000746363
-0.00318961
0.000817305
-0.0033375
0.000868002
-0.00341832
0.000902622
-0.0034528
0.00092536
-0.00345759
0.000939785
-0.00344478
0.000948634
-0.0034225
0.000953851
-0.00339588
0.000956749
-0.00336795
0.000958186
-0.00334048
0.000958721
-0.00331442
0.000958715
-0.00329026
0.000958398
-0.00326819
-0.00324828
0.000957924
3.89506e-05
-0.000346084
0.00013236
-0.0010447
0.000256441
-0.00170586
0.000388481
-0.0022778
0.000510914
-0.00272925
0.000613453
-0.00305486
0.000692554
-0.00326872
0.000749397
-0.00339434
0.000787644
-0.00345657
0.000811696
-0.00347686
0.000825627
-0.00347152
0.000832706
-0.00345186
0.000835318
-0.00342511
0.000835088
-0.00339565
0.000833074
-0.00336594
0.000829952
-0.00333736
0.000826154
-0.00331062
0.000821961
-0.00328607
0.00081755
-0.00326378
-0.00324377
0.000813044
3.95126e-05
-0.000385596
0.000131541
-0.00113673
0.00025024
-0.00182456
0.000372523
-0.00240008
0.000481925
-0.00283865
0.000569913
-0.00314285
0.000634579
-0.00333338
0.000678218
-0.00343798
0.00070502
-0.00348337
0.000719447
-0.00349128
0.000725355
-0.00347743
0.000725675
-0.00345218
0.000722454
-0.00342189
0.000717027
-0.00339022
0.000710238
-0.00335915
0.000702612
-0.00332974
0.000694485
-0.0033025
0.000686077
-0.00327766
0.000677528
-0.00325523
-0.00323518
0.000668936
3.96488e-05
-0.000425245
0.000129254
-0.00122634
0.000241331
-0.00193664
0.000352896
-0.00251165
0.000448878
-0.00293463
0.000522527
-0.0032165
0.000573417
-0.00338427
0.000604736
-0.0034693
0.000621003
-0.00349964
0.000626609
-0.00349689
0.000625123
-0.00347594
0.000619135
-0.00344619
0.00061037
-0.00341313
0.000599913
-0.00337976
0.000588426
-0.00334766
0.000576316
-0.00331763
0.000563845
-0.00329003
0.000551186
-0.003265
0.000538451
-0.0032425
-0.00322245
0.000525722
3.93485e-05
-0.000464594
0.000125538
-0.00131253
0.000229911
-0.00204101
0.000330029
-0.00261177
0.000412425
-0.00301703
0.000472095
-0.00327617
0.000509913
-0.00342209
0.000529751
-0.00348914
0.000536288
-0.00350618
0.000533741
-0.00349434
0.000525363
-0.00346756
0.000513401
-0.00343423
0.000499295
-0.00339902
0.000483914
-0.00336438
0.00046777
-0.00333152
0.000451175
-0.00330103
0.000434333
-0.00327318
0.000417384
-0.00324805
0.000400419
-0.00322553
-0.00320554
0.000383508
3.86104e-05
-0.000503204
0.000120461
-0.00139438
0.000216214
-0.00213677
0.000304366
-0.00269992
0.000373189
-0.00308585
0.000419338
-0.00332232
0.000444797
-0.00344755
0.000453927
-0.00349827
0.000451429
-0.00350368
0.00044128
-0.00348419
0.000426396
-0.00345268
0.000408708
-0.00341654
0.0003894
-0.00337971
0.000369157
-0.00334414
0.000348372
-0.00331074
0.000327279
-0.00327994
0.000306036
-0.00325194
0.000284758
-0.00322677
0.000263525
-0.0032043
-0.00318441
0.000242397
3.74416e-05
-0.000540646
0.000114113
-0.00147105
0.000200491
-0.00222314
0.000276344
-0.00277577
0.00033175
-0.00314126
0.000364898
-0.00335546
0.00037869
-0.00346134
0.000377809
-0.00349739
0.000366869
-0.00349274
0.000349561
-0.00346689
0.000328468
-0.00343159
0.00030523
-0.0033933
0.000280809
-0.00335529
0.000255739
-0.00331907
0.000230312
-0.00328531
0.0002047
-0.00325433
0.000179027
-0.00322627
0.000153386
-0.00320113
0.00012785
-0.00317876
-0.00315903
0.000102476
3.58571e-05
-0.000576503
0.0001066
-0.00154179
0.000183007
-0.00229955
0.000246386
-0.00283915
0.000288636
-0.00318351
0.000309334
-0.00337616
0.000312115
-0.00346412
0.00030184
-0.00348711
0.000282956
-0.00347385
0.000258841
-0.00344277
0.00023176
-0.00340451
0.000203094
-0.00336464
0.000173615
-0.00332581
0.000143731
-0.00328918
0.000113652
-0.00325523
8.34999e-05
-0.00322418
5.33664e-05
-0.00319614
2.33317e-05
-0.0031711
-6.53459e-06
-0.0031489
-0.00312939
-3.61767e-05
3.38778e-05
-0.00061038
9.80396e-05
-0.00160595
0.000164024
-0.00236553
0.00021489
-0.00289001
0.000244322
-0.00321294
0.000253128
-0.00338497
0.000245507
-0.0034565
0.00022638
-0.00346798
0.000199963
-0.00344744
0.000169317
-0.00341212
0.00013641
-0.0033716
0.000102395
-0.00333062
6.78859e-05
-0.00329131
3.31873e-05
-0.00325448
-1.55879e-06
-0.00322048
-3.62746e-05
-0.00318946
-7.08949e-05
-0.00316152
-0.000105351
-0.00313664
-0.000139572
-0.00311468
-0.00309547
-0.000173498
3.15303e-05
-0.000641911
8.85564e-05
-0.00166298
0.0001438
-0.00242078
0.000182225
-0.00292844
0.00019923
-0.00322995
0.000196694
-0.00338243
0.000179231
-0.00343904
0.000151718
-0.00344047
0.000118108
-0.00341383
8.11438e-05
-0.00337516
4.25244e-05
-0.00333298
3.20503e-06
-0.0032913
-3.63274e-05
-0.00325177
-7.58531e-05
-0.00321496
-0.000115286
-0.00318105
-0.000154589
-0.00315016
-0.000193721
-0.00312238
-0.000232623
-0.00309774
-0.000271219
-0.00307608
-0.00305724
-0.000309441
2.88455e-05
-0.000670756
7.82784e-05
-0.00171241
0.000122583
-0.00246508
0.000148728
-0.00295459
0.000153732
-0.00323495
0.000140387
-0.00336909
0.000113589
-0.00341224
7.80939e-05
-0.00340498
3.75663e-05
-0.0033733
-5.55457e-06
-0.00333204
-4.98124e-05
-0.00328872
-9.44175e-05
-0.0032467
-0.000138986
-0.0032072
-0.000183362
-0.00317058
-0.000227509
-0.0031369
-0.000271423
-0.00310624
-0.000315092
-0.00307871
-0.000358464
-0.00305437
-0.000401455
-0.00303309
-0.00301472
-0.000443981
2.58574e-05
-0.000696614
6.73342e-05
-0.00175389
0.000100608
-0.00249836
0.000114706
-0.00296868
0.000108155
-0.0032284
8.45113e-05
-0.00334544
4.88358e-05
-0.00337656
5.70662e-06
-0.00336185
-4.15135e-05
-0.00332608
-9.06714e-05
-0.00328288
-0.000140525
-0.00323887
-0.000190422
-0.0031968
-0.000240057
-0.00315757
-0.000289323
-0.00312132
-0.000338218
-0.00308801
-0.000386777
-0.00305768
-0.000435012
-0.00303048
-0.000482886
-0.00300649
-0.000530298
-0.00298568
-0.00296787
-0.000577142
2.26027e-05
-0.000719216
5.5851e-05
-0.00178714
7.8096e-05
-0.0025206
8.0437e-05
-0.00297102
6.2789e-05
-0.00321075
2.93313e-05
-0.00331198
-1.48071e-05
-0.00333243
-6.527e-05
-0.00331138
-0.000118998
-0.00327235
-0.000174106
-0.00322777
-0.000229538
-0.00318343
-0.000284755
-0.00314158
-0.000339508
-0.00310282
-0.000393721
-0.0030671
-0.000447419
-0.00303431
-0.000500668
-0.00300444
-0.000553518
-0.00297763
-0.000605943
-0.00295407
-0.000657827
-0.0029338
-0.00291667
-0.000709032
1.912e-05
-0.000738336
4.39529e-05
-0.00181197
5.52528e-05
-0.0025319
4.61735e-05
-0.00296194
1.78906e-05
-0.00318247
-2.49204e-05
-0.00326917
-7.71439e-05
-0.0032802
-0.000134676
-0.00325385
-0.000194758
-0.00321227
-0.000255751
-0.00316678
-0.000316764
-0.00312242
-0.000377348
-0.003081
-0.000437293
-0.00304287
-0.000496537
-0.00300786
-0.000555118
-0.00297573
-0.000613131
-0.00294642
-0.000670665
-0.0029201
-0.000727724
-0.00289701
-0.000784178
-0.00287734
-0.00286101
-0.000839832
1.5449e-05
-0.000753785
3.17606e-05
-0.00182828
3.22712e-05
-0.00253241
1.21449e-05
-0.00294182
-2.63091e-05
-0.00314401
-7.80338e-05
-0.00321745
-0.000137993
-0.00322024
-0.000202357
-0.00318949
-0.000268657
-0.00314597
-0.000335482
-0.00309996
-0.000402091
-0.00305581
-0.000468107
-0.00301499
-0.000533344
-0.00297763
-0.000597735
-0.00294347
-0.000661315
-0.00291215
-0.000724196
-0.00288354
-0.000786515
-0.00285778
-0.000848324
-0.0028352
-0.000909482
-0.00281618
-0.00280079
-0.000969702
1.16303e-05
-0.000765416
1.939e-05
-0.00183604
9.33031e-06
-0.00252235
-2.14392e-05
-0.00291105
-6.96005e-05
-0.00309585
-0.000129816
-0.00315723
-0.000197181
-0.00315288
-0.000268152
-0.00311852
-0.00034054
-0.00307358
-0.000413147
-0.00302735
-0.000485366
-0.00298359
-0.000556886
-0.00294346
-0.000627539
-0.00290698
-0.000697238
-0.00287377
-0.000765986
-0.0028434
-0.000833893
-0.00281564
-0.000901135
-0.00279053
-0.000967828
-0.00276851
-0.00103384
-0.00275017
-0.0027359
-0.00109873
7.70464e-06
-0.00077312
6.95206e-06
-0.00183529
-1.34034e-05
-0.002502
-5.43874e-05
-0.00287006
-0.000111792
-0.00303845
-0.000180085
-0.00308894
-0.000254536
-0.00307843
-0.00033189
-0.00304116
-0.000410228
-0.00299524
-0.000488551
-0.00294903
-0.000566378
-0.00290577
-0.00064347
-0.00286637
-0.000719675
-0.00283078
-0.000794884
-0.00279856
-0.000869046
-0.00276924
-0.000942225
-0.00274246
-0.00101461
-0.00271815
-0.0010864
-0.00269672
-0.00115748
-0.00267909
-0.0026661
-0.00122728
3.71254e-06
-0.000776833
-5.44819e-06
-0.00182613
-3.57767e-05
-0.00247167
-8.65254e-05
-0.00281932
-0.000152706
-0.00297227
-0.000228669
-0.00301298
-0.000309887
-0.00299721
-0.00039339
-0.00295766
-0.000477517
-0.00291112
-0.000561456
-0.00286509
-0.000644853
-0.00282237
-0.000727549
-0.00278368
-0.00080943
-0.0027489
-0.000890376
-0.00271761
-0.000970278
-0.00268934
-0.00104912
-0.00266361
-0.00112707
-0.0026402
-0.00120441
-0.00261938
-0.00128108
-0.00260241
-0.00259041
-0.00135678
-3.06626e-07
-0.000776526
-1.77128e-05
-0.00180872
-5.76501e-05
-0.00243173
-0.000117696
-0.00275927
-0.000192184
-0.00289778
-0.000275408
-0.00292975
-0.000363061
-0.00290955
-0.000452458
-0.00286826
-0.000542176
-0.0028214
-0.000631582
-0.00277568
-0.000720451
-0.0027335
-0.000808723
-0.00269541
-0.000896359
-0.00266126
-0.000983273
-0.0026307
-0.00106933
-0.00260328
-0.00115442
-0.00257852
-0.00123867
-0.00255595
-0.00132245
-0.0025356
-0.00140595
-0.00251892
-0.00250644
-0.00148991
-4.31541e-06
-0.000772211
-2.97522e-05
-0.00178329
-7.88992e-05
-0.00238258
-0.000147761
-0.00269041
-0.000230084
-0.00281546
-0.000320153
-0.00283968
-0.000413894
-0.00281581
-0.000508891
-0.00277327
-0.000603943
-0.00272635
-0.000698585
-0.00268104
-0.000792725
-0.00263936
-0.00088643
-0.0026017
-0.000979795
-0.00256789
-0.00107286
-0.00253763
-0.00116558
-0.00251056
-0.00125784
-0.00248626
-0.00134965
-0.00246414
-0.00144137
-0.00244388
-0.00153353
-0.00242676
-0.00241119
-0.00162879
-8.27916e-06
-0.000763932
-4.1487e-05
-0.00175008
-9.94176e-05
-0.00232465
-0.000176604
-0.00261322
-0.000266288
-0.00272577
-0.000362781
-0.00274319
-0.00046224
-0.00271635
-0.000562498
-0.00267301
-0.000662551
-0.00262629
-0.000762073
-0.00258152
-0.000861092
-0.00254034
-0.000959803
-0.00250299
-0.00105848
-0.00246921
-0.00115744
-0.00243868
-0.00125695
-0.00241105
-0.00135721
-0.00238599
-0.00145836
-0.002363
-0.00156098
-0.00234125
-0.0016674
-0.00232035
-0.00231242
-0.00176616
-1.2154e-05
-0.000751778
-5.28286e-05
-0.0017094
-0.000119094
-0.00225839
-0.000204112
-0.0025282
-0.000300688
-0.0026292
-0.000403185
-0.00264069
-0.000507984
-0.00261156
-0.000613138
-0.00256785
-0.000717802
-0.00252163
-0.000821746
-0.00247757