/*--------------------------------*- C++ -*----------------------------------*\
  =========                 |
  \\      /  F ield         | OpenFOAM: The Open Source CFD Toolbox
   \\    /   O peration     | Website:  https://openfoam.org
    \\  /    A nd           | Version:  6.0
     \\/     M anipulation  |
\*---------------------------------------------------------------------------*/
FoamFile
{
    version     2.0;
    format      ascii;
    class       surfaceScalarField;
    location    "76";
    object      phi;
}
// * * * * * * * * * * * * * * * * * * * * * * * * * * * * * * * * * * * * * //

dimensions      [0 3 -1 0 0 0 0];

internalField   nonuniform List<scalar> 
24700
(
-5.01864e-06
5.45832e-05
-4.95646e-05
-1.72644e-05
0.000111729
-9.94837e-05
-3.47658e-05
0.000131669
-0.000114167
-5.6066e-05
0.00012548
-0.00010418
-8.0068e-05
0.000101597
-7.75951e-05
-0.000105931
6.62175e-05
-4.03541e-05
-0.000132989
2.37352e-05
3.32209e-06
-0.000160683
-2.28462e-05
5.0541e-05
-0.000188529
-7.15389e-05
9.93845e-05
-0.000216084
-0.000121054
0.000148609
-0.000242937
-0.000170554
0.000197408
-0.000268705
-0.000219474
0.000245242
-0.00029303
-0.000267403
0.000291727
-0.000315579
-0.000314021
0.00033657
-0.000336052
-0.000359071
0.000379544
-0.000354187
-0.000402345
0.00042048
-0.000369764
-0.000443702
0.000459279
-0.000382615
-0.000483074
0.000495925
-0.000392633
-0.000520486
0.000530504
-0.000399779
-0.000556069
0.000563215
-0.000404091
-0.000590073
0.000594385
-0.000405694
-0.000622864
0.000624466
-0.000404806
-0.00065494
0.000654052
-0.00040176
-0.000687023
0.000683977
-0.000720031
0.00071531
-0.000397039
-4.99191e-06
5.95751e-05
-1.73212e-05
0.000124059
-3.51084e-05
0.000149456
-5.69318e-05
0.000147304
-8.16931e-05
0.000126358
-0.000108532
9.30562e-05
-0.000136753
5.19563e-05
-0.000165771
6.17177e-06
-0.000195071
-4.22388e-05
-0.000224184
-9.19413e-05
-0.00025267
-0.000142068
-0.000280114
-0.00019203
-0.000306119
-0.000241398
-0.00033031
-0.000289831
-0.000352337
-0.000337043
-0.000371886
-0.000382796
-0.000388687
-0.000426901
-0.000402526
-0.000469235
-0.000413262
-0.00050975
-0.000420839
-0.000548493
-0.000425298
-0.000585614
-0.000426792
-0.000621369
-0.000425593
-0.000656139
-0.000422113
-0.000690504
-0.000725207
-0.000416936
-4.81075e-06
6.43859e-05
-1.68767e-05
0.000136125
-3.44785e-05
0.000167058
-5.62706e-05
0.000169096
-8.11775e-05
0.000151265
-0.000108333
0.000120211
-0.000137022
8.0646e-05
-0.000166639
3.57878e-05
-0.000196643
-1.22339e-05
-0.000226546
-6.20391e-05
-0.000255883
-0.00011273
-0.000284212
-0.000163701
-0.000311105
-0.000214505
-0.000336149
-0.000264787
-0.00035895
-0.000314242
-0.000379148
-0.000362598
-0.000396422
-0.000409627
-0.000410517
-0.00045514
-0.000421254
-0.000499012
-0.00042856
-0.000541187
-0.000432479
-0.000581695
-0.000433191
-0.000620657
-0.000431025
-0.000658305
-0.000426482
-0.000695047
-0.00073143
-0.000420258
-4.46844e-06
6.88543e-05
-1.59043e-05
0.000147561
-3.28188e-05
0.000183972
-5.39855e-05
0.000190263
-7.83783e-05
0.000175658
-0.000105141
0.000146974
-0.000133552
0.000109057
-0.000162987
6.52227e-05
-0.000192892
1.76716e-05
-0.000222761
-3.21702e-05
-0.000252115
-8.33762e-05
-0.000280494
-0.000135322
-0.000307446
-0.000187553
-0.000332531
-0.000239702
-0.000355323
-0.000291449
-0.000375422
-0.0003425
-0.000392467
-0.000392581
-0.000406162
-0.000441445
-0.000416298
-0.000488876
-0.00042278
-0.000534705
-0.000425651
-0.000578824
-0.000425117
-0.000621191
-0.000421562
-0.00066186
-0.000415579
-0.00070103
-0.000739026
-0.000407984
-3.96688e-06
7.28212e-05
-1.44043e-05
0.000157998
-3.01206e-05
0.000199688
-5.00517e-05
0.000210194
-7.32489e-05
0.000198855
-9.88843e-05
0.00017261
-0.000126239
0.000136411
-0.000154681
9.36655e-05
-0.00018365
4.66403e-05
-0.000212629
-3.19089e-06
-0.000241134
-5.48715e-05
-0.000268695
-0.000107761
-0.000294853
-0.000161395
-0.000319153
-0.000215402
-0.00034115
-0.000269453
-0.000360419
-0.000323232
-0.000376571
-0.000376429
-0.00038928
-0.000428736
-0.000398305
-0.00047985
-0.000403531
-0.00052948
-0.000404994
-0.000577361
-0.000402916
-0.000623269
-0.000397729
-0.000667048
-0.00039011
-0.000708649
-0.000748142
-0.000380994
-3.31741e-06
7.61386e-05
-1.24049e-05
0.000167085
-2.6427e-05
0.00021371
-4.4522e-05
0.000228289
-6.58466e-05
0.00022018
-8.96192e-05
0.000196382
-0.000115136
0.000161928
-0.000141769
0.000120299
-0.000168954
7.38253e-05
-0.000196176
2.40307e-05
-0.000222951
-2.80965e-05
-0.000248815
-8.18966e-05
-0.000273311
-0.000136898
-0.000295988
-0.000192725
-0.000316399
-0.000249042
-0.000334111
-0.00030552
-0.000348722
-0.000361817
-0.000359886
-0.000417572
-0.00036734
-0.000472397
-0.000370942
-0.000525878
-0.000370713
-0.000577589
-0.000366876
-0.000627107
-0.00035989
-0.000674033
-0.000350502
-0.000718037
-0.000758888
-0.000339756
-2.54012e-06
7.86787e-05
-9.96211e-06
0.000174507
-2.18329e-05
0.000225581
-3.75281e-05
0.000243984
-5.63349e-05
0.000238987
-7.75372e-05
0.000217585
-0.00010046
0.00018485
-0.000124485
0.000144324
-0.000149057
9.83969e-05
-0.000173666
4.86398e-05
-0.000197841
-3.92184e-06
-0.000221131
-5.86063e-05
-0.000243098
-0.000114931
-0.000263309
-0.000172515
-0.000281331
-0.00023102
-0.000296745
-0.000290106
-0.000309152
-0.00034941
-0.000318199
-0.000408526
-0.000323605
-0.00046699
-0.000325204
-0.000524279
-0.000322988
-0.000579806
-0.000317158
-0.000632937
-0.000308173
-0.000683017
-0.000296819
-0.000729392
-0.000771478
-0.000284229
-1.66333e-06
8.0342e-05
-7.15809e-06
0.000180002
-1.6483e-05
0.000234906
-2.92769e-05
0.000256778
-4.49806e-05
0.000254691
-6.29608e-05
0.000235565
-8.25838e-05
0.000204473
-0.000103254
0.000164995
-0.000124428
0.000119571
-0.000145611
6.98227e-05
-0.000166349
1.68165e-05
-0.000186217
-3.87386e-05
-0.000204804
-9.63437e-05
-0.000221708
-0.000155611
-0.00023653
-0.000216197
-0.000248879
-0.000277757
-0.000258376
-0.000339913
-0.000264676
-0.000402226
-0.00026749
-0.000464176
-0.000266625
-0.000525144
-0.000262032
-0.000584398
-0.000253866
-0.000641104
-0.000242551
-0.000694332
-0.000228867
-0.000743076
-0.000786334
-0.000214011
-7.21864e-07
8.10639e-05
-4.09662e-06
0.000183377
-1.05642e-05
0.000241374
-2.00428e-05
0.000266256
-3.21445e-05
0.000266792
-4.63346e-05
0.000249755
-6.20342e-05
0.000220173
-7.86785e-05
0.000181639
-9.57443e-05
0.000136636
-0.000112757
8.68357e-05
-0.000129287
3.33464e-05
-0.000144938
-2.30882e-05
-0.000159334
-8.1947e-05
-0.000172116
-0.000142829
-0.000182928
-0.000205385
-0.00019142
-0.000269265
-0.000197249
-0.000334084
-0.000200092
-0.000399383
-0.000199662
-0.000464606
-0.000195743
-0.000529063
-0.000188236
-0.000591905
-0.000177225
-0.000652115
-0.00016306
-0.000708496
-0.000146473
-0.000759663
-0.000804126
-0.000128681
2.4515e-07
8.08187e-05
-8.97389e-07
0.000184519
-4.2969e-06
0.000244773
-1.01546e-05
0.000272114
-1.82653e-05
0.000274903
-2.82064e-05
0.000259696
-3.94657e-05
0.000231432
-5.15185e-05
0.000193692
-6.38693e-05
0.000148987
-7.60678e-05
9.90342e-05
-8.77102e-05
4.49888e-05
-9.84321e-05
-1.23663e-05
-0.000107898
-7.24808e-05
-0.000115793
-0.000134935
-0.00012181
-0.000199368
-0.000125649
-0.000265426
-0.000127013
-0.000332719
-0.000125612
-0.000400784
-0.000121173
-0.000469045
-0.000113464
-0.000536771
-0.000102337
-0.000603033
-8.779e-05
-0.000666662
-7.00672e-05
-0.000726219
-4.98027e-05
-0.000779927
-0.000825733
-2.81955e-05
1.19682e-06
7.96219e-05
2.31136e-06
0.000183405
2.07831e-06
0.000245006
2.25945e-08
0.00027417
-3.83715e-06
0.000278763
-9.20042e-06
0.000265059
-1.56321e-05
0.000237864
-2.26566e-05
0.000200716
-2.9812e-05
0.000156143
-3.66756e-05
0.000105898
-4.2871e-05
5.11842e-05
-4.80653e-05
-7.17207e-06
-5.19604e-05
-6.85856e-05
-5.42837e-05
-0.000132612
-5.47781e-05
-0.000198874
-5.31948e-05
-0.00026701
-4.92867e-05
-0.000336628
-4.28056e-05
-0.000407265
-3.35045e-05
-0.000478346
-2.11496e-05
-0.000549126
-5.55006e-06
-0.000618632
1.33814e-05
-0.000685594
3.55252e-05
-0.000748363
6.03816e-05
-0.000804784
-0.000852162
8.68106e-05
2.09323e-06
7.75287e-05
5.40098e-06
0.000180097
8.31503e-06
0.000242092
1.01088e-05
0.000272376
1.06183e-05
0.000278253
1.00172e-05
0.00026566
8.65522e-06
0.000239226
6.95098e-06
0.000202421
5.32728e-06
0.000157766
4.17697e-06
0.000107048
3.8494e-06
5.15118e-05
4.6494e-06
-7.97208e-06
6.84298e-06
-7.07792e-05
1.06658e-05
-0.000136434
1.63322e-05
-0.00020454
2.40444e-05
-0.000274722
3.40007e-05
-0.000346584
4.6403e-05
-0.000419667
6.14623e-05
-0.000493405
7.93979e-05
-0.000567062
0.000100422
-0.000639656
0.000124691
-0.000709863
0.00015221
-0.000775882
0.000182633
-0.000835207
-0.000884441
0.000214912
2.89807e-06
7.46306e-05
8.25078e-06
0.000174744
1.41769e-05
0.000236166
1.97327e-05
0.00026682
2.45845e-05
0.000273401
2.87794e-05
0.000261465
3.25768e-05
0.000235428
3.63327e-05
0.000198665
4.04261e-05
0.000153673
4.52186e-05
0.000102256
5.10342e-05
4.56962e-05
5.81545e-05
-1.50924e-05
6.68213e-05
-7.9446e-05
7.72424e-05
-0.000146856
8.95999e-05
-0.000216898
0.000104058
-0.00028918
0.000120772
-0.000363298
0.000139898
-0.000438793
0.000161603
-0.00051511
0.000186072
-0.00059153
0.00021351
-0.000667094
0.000244113
-0.000740466
0.000277984
-0.000809753
0.000314928
-0.000872151
-0.000923523
0.000354011
3.58103e-06
7.10496e-05
1.0756e-05
0.000167569
1.94531e-05
0.000227469
2.85565e-05
0.000257717
3.75837e-05
0.000264374
4.64621e-05
0.000252587
5.53603e-05
0.00022653
6.4568e-05
0.000189457
7.44184e-05
0.000143822
8.52411e-05
9.1433e-05
9.73377e-05
3.35996e-05
0.000110973
-2.87274e-05
0.000126372
-9.48452e-05
0.000143726
-0.00016421
0.000163197
-0.000236368
0.000184921
-0.000310904
0.000209019
-0.000387396
0.000235603
-0.000465378
0.000264789
-0.000544295
0.00029671
-0.000623451
0.00033153
-0.000701915
0.000369441
-0.000778377
0.000410596
-0.000850908
0.000454927
-0.000916483
-0.000970217
0.000501621
4.11961e-06
6.693e-05
1.28347e-05
0.000158854
2.39728e-05
0.000216331
3.6299e-05
0.000245391
4.92109e-05
0.000251462
6.25294e-05
0.000239268
7.63364e-05
0.000212723
9.08565e-05
0.000174937
0.000106377
0.000128302
0.000123196
7.46133e-05
0.000141599
1.51973e-05
0.000161837
-4.89656e-05
0.00018413
-0.000117138
0.000208661
-0.000188742
0.000235582
-0.000263289
0.000265011
-0.000340333
0.00029704
-0.000419426
0.00033174
-0.000500077
0.000369167
-0.000581722
0.000409385
-0.000663669
0.000452483
-0.000745013
0.000498593
-0.000824487
0.000547864
-0.000900179
0.000600304
-0.000968923
-0.00102513
0.000655216
4.50045e-06
6.24295e-05
1.44328e-05
0.000148922
2.76167e-05
0.000203147
4.27562e-05
0.000230251
5.9164e-05
0.000235054
7.65742e-05
0.000221858
9.49924e-05
0.000194305
0.000114583
0.000155346
0.000135591
0.000107294
0.000158289
5.19154e-05
0.000182947
-9.46025e-06
0.000209813
-7.58316e-05
0.000239106
-0.000146431
0.00027101
-0.000220646
0.000305672
-0.000297951
0.000343197
-0.000377859
0.00038365
-0.000459879
0.000427055
-0.000543482
0.000473401
-0.000628068
0.000522659
-0.000712928
0.000574811
-0.000797165
0.00062988
-0.000879556
0.000687941
-0.00095824
0.000749017
-0.00103
-0.00108862
0.00081251
4.71994e-06
5.77096e-05
1.55277e-05
0.000138114
3.03257e-05
0.000188349
4.78166e-05
0.00021276
6.72684e-05
0.000215603
8.83537e-05
0.000200773
0.000111018
0.000171641
0.000135376
0.000130988
0.000161637
8.10326e-05
0.000190055
2.34973e-05
0.000220892
-4.02968e-05
0.000254397
-0.000109336
0.000290793
-0.000182827
0.000330267
-0.00026012
0.000372961
-0.000340645
0.000418964
-0.000423862
0.000468305
-0.000509219
0.000520949
-0.000596126
0.000576801
-0.000683921
0.000635719
-0.000771845
0.000697539
-0.000858985
0.000762132
-0.000944148
0.000829436
-0.00102554
0.000899422
-0.00109998
-0.00116077
0.000971571
4.78435e-06
5.29252e-05
1.61299e-05
0.000126769
3.21052e-05
0.000172374
5.14711e-05
0.000193394
7.34932e-05
0.00019358
9.78129e-05
0.000176453
0.000124337
0.000145117
0.000153145
0.00010218
0.000184425
4.97528e-05
0.000218417
-1.04953e-05
0.000255383
-7.72628e-05
0.000295577
-0.000149529
0.000339224
-0.000226475
0.000386512
-0.000307408
0.000437566
-0.000391699
0.000492444
-0.00047874
0.00055112
-0.000567895
0.000613478
-0.000658484
0.000679311
-0.000749754
0.000748336
-0.000840869
0.000820218
-0.000930867
0.000894633
-0.00101856
0.000971335
-0.00110225
0.00105018
-0.00117883
-0.0012413
0.00113072
4.70932e-06
4.82159e-05
1.6282e-05
0.000115196
3.3026e-05
0.00015563
5.38159e-05
0.000172605
7.79582e-05
0.000169438
0.000105096
0.000149315
0.000135123
0.00011509
0.000168105
6.9198e-05
0.000204219
1.36387e-05
0.000243705
-4.99813e-05
0.000286827
-0.000120384
0.00033384
-0.000196543
0.00038497
-0.000277605
0.000440384
-0.000362822
0.000500174
-0.000451489
0.000564337
-0.000542902
0.000632758
-0.000636317
0.000705206
-0.000730932
0.00078133
-0.000825878
0.000860672
-0.000920211
0.000942702
-0.0010129
0.00102688
-0.00110274
0.00111275
-0.00118811
0.00120001
-0.0012661
-0.00132954
0.00128825
4.51897e-06
4.36969e-05
1.60564e-05
0.000103659
3.32202e-05
0.000138466
5.50479e-05
0.000150777
8.09285e-05
0.000143558
0.000110542
0.000119701
0.000143797
8.18359e-05
0.000180765
3.223e-05
0.000221629
-2.72257e-05
0.000266635
-9.49875e-05
0.00031605
-0.000169798
0.000370122
-0.000250616
0.000429057
-0.000336539
0.000492976
-0.000426742
0.000561902
-0.000520415
0.000635729
-0.000616728
0.000714209
-0.000714797
0.000796951
-0.000813674
0.000883419
-0.000912346
0.000972955
-0.00100975
0.00106481
-0.00110476
0.00115824
-0.00119616
0.00125255
-0.00128243
0.0013473
-0.00136085
-0.00142434
0.0014421
4.2445e-06
3.94524e-05
1.55509e-05
9.23523e-05
3.28726e-05
0.000121144
5.54514e-05
0.000128198
8.27972e-05
0.000116212
0.000114661
8.78378e-05
0.000150992
4.55051e-05
0.00019189
-8.6681e-06
0.000237556
-7.28918e-05
0.000288243
-0.000145675
0.000344212
-0.000225768
0.000405688
-0.000312092
0.00047282
-0.000403671
0.000545648
-0.00049957
0.000624072
-0.000598839
0.00070783
-0.000700486
0.00079649
-0.000803457
0.000889451
-0.000906635
0.000985956
-0.00100885
0.00108512
-0.00110891
0.00118599
-0.00120563
0.0012876
-0.00129777
0.00138909
-0.00138392
0.00148988
-0.00146163
-0.00152406
0.0015896
3.92228e-06
3.55302e-05
1.48823e-05
8.13922e-05
3.22081e-05
0.000103818
5.53782e-05
0.000105028
8.4056e-05
8.75339e-05
0.000118092
5.38014e-05
0.000157504
6.094e-06
0.000202432
-5.35969e-05
0.000253102
-0.000123562
0.000309769
-0.000202341
0.000372665
-0.000288664
0.000441957
-0.000381384
0.000517696
-0.00047941
0.000599781
-0.000581655
0.000687931
-0.000686988
0.000781669
-0.000794224
0.000880322
-0.00090211
0.000983036
-0.00100935
0.00108881
-0.00111462
0.00119652
-0.00121663
0.00130503
-0.00131413
0.00141319
-0.00140593
0.00152003
-0.00149076
0.00162489
-0.0015665
-0.00162661
0.00172744
3.59153e-06
3.19386e-05
1.4178e-05
7.08057e-05
3.14752e-05
8.65213e-05
5.52201e-05
8.1283e-05
8.52545e-05
5.74995e-05
0.000121553
1.75029e-05
0.000164215
-3.65683e-05
0.000213435
-0.000102816
0.000269453
-0.00017958
0.000332506
-0.000265394
0.000402767
-0.000358925
0.000480293
-0.00045891
0.000564978
-0.000564095
0.000656516
-0.000673192
0.000754379
-0.000784851
0.000857815
-0.00089766
0.000965863
-0.00101016
0.00107739
-0.00112087
0.00119112
-0.00122836
0.00130574
-0.00133125
0.00141991
-0.00142831
0.00153243
-0.00151844
0.00164227
-0.0016006
0.00174878
-0.001673
-0.00172953
0.00185169
3.29149e-06
2.86471e-05
1.35668e-05
6.05304e-05
3.09264e-05
6.91618e-05
5.5376e-05
5.68334e-05
8.69517e-05
2.59238e-05
0.000125766
-2.13109e-05
0.000172007
-8.28102e-05
0.000225917
-0.000156726
0.000287733
-0.000241396
0.000357637
-0.000335298
0.000435693
-0.000436981
0.000521787
-0.000545004
0.000615587
-0.000657896
0.000716514
-0.000774119
0.000823734
-0.000892071
0.000936172
-0.0010101
0.00105255
-0.00112654
0.00117145
-0.00123977
0.00129135
-0.00134826
0.00141073
-0.00145063
0.00152816
-0.00154573
0.00164232
-0.00163261
0.00175225
-0.00171053
0.00185743
-0.00177818
-0.00183004
0.00195794
3.05855e-06
2.55886e-05
1.31689e-05
5.042e-05
3.07979e-05
5.15328e-05
5.6219e-05
3.14123e-05
8.96665e-05
-7.5237e-06
0.000131392
-6.30362e-05
0.000181668
-0.000133087
0.00024076
-0.000215818
0.000308871
-0.000309506
0.000386075
-0.000412503
0.000472262
-0.000523168
0.000567079
-0.000639821
0.000669898
-0.000760714
0.000779802
-0.000884024
0.000895607
-0.00100788
0.00101589
-0.00113038
0.00113907
-0.00124972
0.00126346
-0.00136416
0.00138737
-0.00147216
0.00150916
-0.00157243
0.00162734
-0.00166391
0.00174058
-0.00174585
0.00184767
-0.00181762
0.00194744
-0.00187795
-0.00192314
0.00204054
2.92304e-06
2.26656e-05
1.30861e-05
4.0257e-05
3.12904e-05
3.33285e-05
5.80641e-05
4.63858e-06
9.38312e-05
-4.32908e-05
0.00013897
-0.000108175
0.000193815
-0.000187932
0.000258619
-0.000280622
0.000333495
-0.000384382
0.000418349
-0.000497358
0.000512824
-0.000617643
0.000616254
-0.000743251
0.00072765
-0.00087211
0.000845716
-0.00100209
0.000968891
-0.00113105
0.00109542
-0.00125691
0.00122344
-0.00137774
0.0013511
-0.00149181
0.0014766
-0.00159766
0.00159834
-0.00169417
0.00171495
-0.00178053
0.00182537
-0.00185626
0.00192887
-0.00192112
0.00202584
-0.00197492
-0.0020159
0.0021186
2.90832e-06
1.97572e-05
1.33959e-05
2.97694e-05
3.25557e-05
1.41687e-05
6.11448e-05
-2.39505e-05
9.97555e-05
-8.19014e-05
0.000148866
-0.000157285
0.000208831
-0.000247897
0.000279841
-0.000351632
0.000361853
-0.000466395
0.000454531
-0.000590036
0.000557195
-0.000720307
0.000668801
-0.000854856
0.000787951
-0.000991261
0.000912947
-0.00112709
0.00104186
-0.00125997
0.00117265
-0.0013877
0.00130324
-0.00150834
0.00143168
-0.00162025
0.0015562
-0.00172218
0.00167532
-0.00181328
0.00178786
-0.00189308
0.00189307
-0.00196147
0.00199063
-0.00201868
0.0020808
-0.00206509
-0.00209957
0.00216447
3.02758e-06
1.67297e-05
1.41455e-05
1.86515e-05
3.46858e-05
-6.37159e-06
6.55988e-05
-5.48636e-05
0.000107609
-0.000123912
0.000161252
-0.000210928
0.000226851
-0.000313496
0.000304463
-0.000429244
0.000393818
-0.000555749
0.000494256
-0.000690474
0.000604709
-0.000830759
0.000723701
-0.000973849
0.000849407
-0.00111697
0.000979731
-0.00125741
0.00111243
-0.00139266
0.00124523
-0.0015205
0.00137597
-0.00163907
0.00150269
-0.00174698
0.00162377
-0.00184326
0.00173791
-0.00192742
0.00184424
-0.0019994
0.00194226
-0.00205949
0.00203184
-0.00210827
0.00211318
-0.00214643
-0.00217346
0.00218708
3.28521e-06
1.34445e-05
1.5352e-05
6.58466e-06
3.77137e-05
-2.87332e-05
7.14669e-05
-8.86168e-05
0.000117421
-0.000169866
0.000176111
-0.000269618
0.00024776
-0.000385145
0.000332219
-0.000513703
0.000428906
-0.000652435
0.000536768
-0.000798337
0.00065429
-0.000948281
0.000779541
-0.0010991
0.00091027
-0.00124769
0.00104403
-0.00139117
0.00117834
-0.00152697
0.00131081
-0.00165297
0.00143929
-0.00176755
0.00156196
-0.00186965
0.00167743
-0.00195872
0.00178471
-0.0020347
0.00188326
-0.00209795
0.00197292
-0.00214916
0.00205389
-0.00218924
0.00212664
-0.00221918
-0.00223911
0.00219228
3.67748e-06
9.76698e-06
1.70063e-05
-6.74413e-06
4.16185e-05
-5.33454e-05
7.8702e-05
-0.0001257
0.000129091
-0.000220255
0.000193253
-0.00033378
0.000271233
-0.000463125
0.00036259
-0.00060506
0.000466354
-0.000756199
0.000581018
-0.000913001
0.000704586
-0.00107185
0.00083467
-0.00122918
0.000968635
-0.00138166
0.00110377
-0.0015263
0.00123745
-0.00166065
0.00136729
-0.00178282
0.0014913
-0.00189156
0.00160791
-0.00198626
0.00171604
-0.00206685
0.00181508
-0.00213374
0.00190486
-0.00218773
0.00198558
-0.00222988
0.00205773
-0.00226139
0.00212204
-0.00228349
-0.00229675
0.00217968
4.19453e-06
5.57245e-06
1.90776e-05
-2.16272e-05
4.6336e-05
-8.06038e-05
8.71867e-05
-0.000166551
0.00014242
-0.000275489
0.000212356
-0.000403716
0.000296776
-0.000547545
0.000394868
-0.000703152
0.000505202
-0.000866534
0.000625773
-0.00103357
0.000754093
-0.00120017
0.000887354
-0.00136245
0.00102261
-0.00151692
0.001157
-0.00166069
0.00128787
-0.00179153
0.00141301
-0.00190795
0.00153066
-0.00200921
0.00163961
-0.00209521
0.00173918
-0.00216641
0.00182915
-0.00222371
0.00190973
-0.00226831
0.00198144
-0.00230159
0.00204505
-0.002325
0.00210149
-0.00233993
-0.00234724
0.00215199
4.82272e-06
7.49729e-07
2.15212e-05
-3.83256e-05
5.17723e-05
-0.000110855
9.67533e-05
-0.000211532
0.000157133
-0.000335869
0.000233001
-0.000479583
0.000323787
-0.000638331
0.000428228
-0.000807593
0.00054438
-0.000982686
0.000669716
-0.00115891
0.000801286
-0.00133174
0.000935925
-0.00149709
0.00107049
-0.00165149
0.00120207
-0.00179227
0.00132817
-0.00191763
0.00144682
-0.0020266
0.00155664
-0.00211903
0.00165682
-0.00219539
0.00174711
-0.0022567
0.00182768
-0.00230429
0.00189909
-0.00233972
0.00196213
-0.00236463
0.00201776
-0.00238063
0.00206703
-0.0023892
-0.00239137
0.00211117
5.54691e-06
-4.79718e-06
2.4285e-05
-5.70637e-05
5.78159e-05
-0.000144386
0.000107204
-0.00026092
0.000172914
-0.000401579
0.000254714
-0.000561382
0.000351598
-0.000735216
0.000461785
-0.000917779
0.00058278
-0.00110368
0.000711544
-0.00128767
0.000844718
-0.00146491
0.000978884
-0.00163125
0.00111083
-0.00178343
0.00123774
-0.00191918
0.00135738
-0.00203727
0.00146816
-0.00213738
0.00156912
-0.00221999
0.0016599
-0.00228618
0.00174066
-0.00233746
0.00181194
-0.00237557
0.00187458
-0.00240235
0.00192956
-0.00241961
0.00197797
-0.00242904
0.00202092
-0.00243215
-0.00243002
0.00205957
6.35219e-06
-1.11494e-05
2.7315e-05
-7.80265e-05
6.43482e-05
-0.000181419
0.000118326
-0.000314898
0.000189422
-0.000472675
0.000276991
-0.000648952
0.000379517
-0.000837742
0.000494644
-0.0010329
0.000619319
-0.00122836
0.000750033
-0.00141839
0.000883105
-0.00159798
0.00101499
-0.00176313
0.00114253
-0.00191097
0.00126317
-0.00203982
0.00137503
-0.00214914
0.00147697
-0.00223932
0.0015685
-0.00231152
0.0016497
-0.00236738
0.00172109
-0.00240885
0.00178353
-0.002438
0.00183803
-0.00245686
0.00188574
-0.00246732
0.00192778
-0.00247109
0.00196526
-0.00246963
-0.002464
0.00199923
7.22489e-06
-1.83742e-05
3.05581e-05
-0.00010136
7.12496e-05
-0.000222111
0.000129902
-0.00037355
0.000206307
-0.00054908
0.000299324
-0.000741969
0.000406854
-0.000945271
0.000525939
-0.00115199
0.00065299
-0.00135541
0.000784098
-0.00154949
0.000915379
-0.00172926
0.00104329
-0.00189105
0.0011649
-0.00203257
0.00127799
-0.00215291
0.00138115
-0.0022523
0.00147371
-0.00233188
0.00155564
-0.00239345
0.00162743
-0.00243916
0.00168991
-0.00247134
0.00174416
-0.00249225
0.00179134
-0.00250404
0.00183262
-0.00250861
0.00186915
-0.00250761
0.00190194
-0.00250242
-0.00249402
0.00193197
8.15278e-06
-2.6527e-05
3.39639e-05
-0.000127171
7.84023e-05
-0.000266549
0.000141715
-0.000436863
0.000223223
-0.000630589
0.000321209
-0.000839955
0.000432942
-0.001057
0.000554862
-0.00127391
0.000682894
-0.00148344
0.000812833
-0.00167943
0.000940727
-0.00185716
0.00106319
-0.00201351
0.00117761
-0.00214699
0.00128223
-0.00225753
0.00137614
-0.0023462
0.00145915
-0.00241489
0.00153166
-0.00246596
0.0015945
-0.002502
0.00164874
-0.00252558
0.00169559
-0.0025391
0.00173629
-0.00254473
0.001772
-0.00254432
0.00180379
-0.0025394
0.00183261
-0.00253124
-0.0025207
0.00185929
9.12483e-06
-3.56519e-05
3.74839e-05
-0.00015553
8.56905e-05
-0.000314756
0.00015355
-0.000504722
0.000239826
-0.000716865
0.000342158
-0.000942287
0.000457156
-0.001172
0.000580687
-0.00139744
0.000708273
-0.00161103
0.00083554
-0.0018067
0.00095861
-0.00198023
0.00107439
-0.00212929
0.00118069
-0.0022533
0.00127628
-0.00235312
0.00136074
-0.00243067
0.00143435
-0.0024885
0.00149788
-0.00252949
0.0015524
-0.00255652
0.00159917
-0.00257234
0.00163946
-0.00257939
0.0016745
-0.00257977
0.00170541
-0.00257523
0.00173317
-0.00256716
0.00175861
-0.00255668
-0.00254454
0.00178245
1.01305e-05
-4.57823e-05
4.10705e-05
-0.00018647
9.2999e-05
-0.000366684
0.000165193
-0.000576916
0.000255782
-0.000807454
0.000361709
-0.00104821
0.000478929
-0.00128922
0.000602791
-0.0015213
0.000728529
-0.00173676
0.000851738
-0.00192991
0.00096876
-0.00209725
0.0010769
-0.00223742
0.00117448
-0.00235088
0.00126079
-0.00243943
0.0013359
-0.00250579
0.0014005
-0.0025531
0.00145565
-0.00258463
0.00150261
-0.00260349
0.00154272
-0.00261245
0.00157726
-0.00261393
0.0016074
-0.00260992
0.00163419
-0.00260202
0.0016585
-0.00259147
0.00168104
-0.00257922
-0.00256589
0.00170239
1.11591e-05
-5.69414e-05
4.46753e-05
-0.000219986
0.000100212
-0.000422221
0.000176434
-0.000653138
0.000270768
-0.000901787
0.000379435
-0.00115688
0.000497762
-0.00140755
0.000620671
-0.00164421
0.000743237
-0.00185933
0.000861172
-0.00204784
0.000971158
-0.00220724
0.00107099
-0.00233725
0.00115953
-0.00243942
0.0012366
-0.0025165
0.0013027
-0.00257189
0.00135885
-0.00260925
0.00140633
-0.00263211
0.0014465
-0.00264366
0.00148073
-0.00264668
0.00151026
-0.00264346
0.00153618
-0.00263584
0.00155941
-0.00262525
0.00158073
-0.00261278
0.00160072
-0.00259922
-0.00258505
0.00161987
1.21993e-05
-6.91407e-05
4.82484e-05
-0.000256035
0.000107213
-0.000481185
0.000187066
-0.000732992
0.00028448
-0.000999201
0.000394952
-0.00126735
0.00051324
-0.00152584
0.000633953
-0.00176492
0.000752149
-0.00197753
0.000863792
-0.00215949
0.00096601
-0.00230946
0.00105714
-0.00242838
0.0011366
-0.00251888
0.00120467
-0.00258457
0.00126226
-0.00262948
0.00131062
-0.00265761
0.00135116
-0.00267265
0.0013853
-0.0026778
0.00141437
-0.00267575
0.00143954
-0.00266862
0.00146179
-0.00265809
0.00148192
-0.00264539
0.0015006
-0.00263146
0.00151832
-0.00261693
-0.00260218
0.00153545
1.32387e-05
-8.23794e-05
5.1738e-05
-0.000294535
0.000113883
-0.000543331
0.00019689
-0.000815998
0.000296638
-0.00109895
0.00040793
-0.00137865
0.000525042
-0.00164295
0.0006424
-0.00188228
0.000755185
-0.00209031
0.000859736
-0.00226404
0.000953701
-0.00240342
0.00103598
-0.00251066
0.00110652
-0.00258942
0.00116602
-0.00264407
0.00121568
-0.00267914
0.00125694
-0.00269886
0.00129127
-0.00270698
0.00132009
-0.00270662
0.00134464
-0.0027003
0.00136599
-0.00268997
0.00138501
-0.00267711
0.0014024
-0.00266278
0.0014187
-0.00264776
0.00143432
-0.00263255
-0.00261742
0.00144955
1.42639e-05
-9.66433e-05
5.50907e-05
-0.000335361
0.000120109
-0.000608349
0.000205716
-0.000901605
0.000306996
-0.00120023
0.000418105
-0.00148975
0.000532947
-0.00175779
0.000645906
-0.00199524
0.000752421
-0.00219683
0.000849298
-0.00236092
0.000934753
-0.00248888
0.00100824
-0.00258415
0.00107018
-0.00265136
0.00112163
-0.00269553
0.00116402
-0.00272152
0.00119886
-0.00273371
0.00122766
-0.00273578
0.00125177
-0.00273073
0.00127234
-0.00272087
0.00129031
-0.00270795
0.00130646
-0.00269325
0.00132136
-0.00267768
0.00133546
-0.00266186
0.00134909
-0.00264618
-0.00263082
0.00136249
1.52608e-05
-0.000111904
5.82526e-05
-0.000378353
0.000125777
-0.000675872
0.000213374
-0.000989203
0.000315345
-0.0013022
0.000425279
-0.00159969
0.000536835
-0.00186935
0.000644493
-0.0021029
0.000744065
-0.0022964
0.000832896
-0.00244975
0.000909778
-0.00256576
0.000974694
-0.00264907
0.00102848
-0.00270514
0.00107246
-0.00273951
0.00110821
-0.00275727
0.00113729
-0.00276279
0.00116117
-0.00275966
0.0011811
-0.00275065
0.00119812
-0.00273789
0.00121307
-0.0027229
0.0012266
-0.00270678
0.00123919
-0.00269028
0.00125122
-0.00267388
0.00126293
-0.0026579
-0.00264241
0.00127451
1.62143e-05
-0.000128118
6.11704e-05
-0.000423309
0.000130782
-0.000745484
0.000219714
-0.00107813
0.000321522
-0.00140401
0.000429328
-0.00170749
0.000536681
-0.0019767
0.00063829
-0.00220451
0.000730433
-0.00238854
0.000811029
-0.00253034
0.000879441
-0.00263417
0.000936126
-0.00270575
0.000982253
-0.00275127
0.00101936
-0.00277662
0.0010491
-0.002787
0.00107301
-0.00278671
0.00109249
-0.00277914
0.00110869
-0.00276685
0.00112252
-0.00275172
0.00113471
-0.00273509
0.00114581
-0.00271788
0.00115621
-0.00270068
0.00116622
-0.00268389
0.00117603
-0.00266771
-0.00265217
0.0011858
1.71097e-05
-0.000145228
6.37932e-05
-0.000469993
0.000135032
-0.000816723
0.000224612
-0.00116772
0.00032541
-0.00150481
0.000430198
-0.00181228
0.000532551
-0.00207905
0.00062752
-0.00229948
0.000711919
-0.00247294
0.000784256
-0.00260268
0.000844425
-0.00269434
0.000893296
-0.00275462
0.000932307
-0.00279028
0.000963127
-0.00280744
0.000987418
-0.00281129
0.00100669
-0.00280598
0.00102221
-0.00279466
0.00103502
-0.00277966
0.00104594
-0.00276264
0.00105556
-0.00274472
0.00106435
-0.00272667
0.00107264
-0.00270897
0.00108066
-0.00269191
0.00108858
-0.00267563
-0.0026601
0.0010965
1.79322e-05
-0.00016316
6.60735e-05
-0.000518134
0.000138443
-0.000889092
0.000227973
-0.00125725
0.000326944
-0.00160378
0.000427905
-0.00191324
0.000524587
-0.00217574
0.00061248
-0.00238737
0.000688973
-0.00254943
0.000753153
-0.00266686
0.000805399
-0.00274658
0.000846922
-0.00279615
0.000879354
-0.00282271
0.000904433
-0.00283252
0.000923793
-0.00283065
0.000938856
-0.00282104
0.000950788
-0.00280659
0.000960504
-0.00278938
0.000968701
-0.00277083
0.000975894
-0.00275191
0.000982459
-0.00273323
0.000988667
-0.00271518
0.000994706
-0.00269795
0.0010007
-0.00268163
-0.00266614
0.00100675
1.86677e-05
-0.000181828
6.79693e-05
-0.000567436
0.00014095
-0.000962073
0.000229733
-0.00134603
0.000326105
-0.00170015
0.000422524
-0.00200966
0.000512994
-0.00226621
0.000593517
-0.00246789
0.000662074
-0.00261799
0.000718303
-0.00272309
0.000763003
-0.00279129
0.000797659
-0.0028308
0.000824029
-0.00284908
0.000843866
-0.00285236
0.000858742
-0.00284553
0.000869974
-0.00283227
0.000878607
-0.00281522
0.00088544
-0.00279621
0.000891066
-0.00277646
0.000895917
-0.00275676
0.000900302
-0.00273762
0.000904439
-0.00271931
0.000908481
-0.00270199
0.000912528
-0.00268568
-0.00267027
0.00091665
1.93032e-05
-0.000201131
6.94445e-05
-0.000617577
0.000142504
-0.00103513
0.00022986
-0.00143338
0.000322921
-0.00179321
0.000414183
-0.00210092
0.000498026
-0.00235005
0.000571011
-0.00254088
0.000631711
-0.00267869
0.000680265
-0.00277164
0.000717831
-0.00282885
0.000746095
-0.00285907
0.000766886
-0.00286987
0.000781926
-0.0028674
0.000792698
-0.0028563
0.000800403
-0.00283998
0.000805966
-0.00282079
0.000810076
-0.00280032
0.000813234
-0.00277962
0.000815797
-0.00275933
0.000818018
-0.00273984
0.000820076
-0.00272137
0.000822094
-0.00270401
0.00082415
-0.00268773
-0.00267242
0.000826301
1.98273e-05
-0.000220958
7.047e-05
-0.00066822