/*--------------------------------*- C++ -*----------------------------------*\
  =========                 |
  \\      /  F ield         | OpenFOAM: The Open Source CFD Toolbox
   \\    /   O peration     | Website:  https://openfoam.org
    \\  /    A nd           | Version:  6.0
     \\/     M anipulation  |
\*---------------------------------------------------------------------------*/
FoamFile
{
    version     2.0;
    format      ascii;
    class       volVectorField;
    location    "76";
    object      U;
}
// * * * * * * * * * * * * * * * * * * * * * * * * * * * * * * * * * * * * * //

dimensions      [0 1 -1 0 0 0 0];

internalField   nonuniform List<vector> 
12500
(
(-0.0014975 0.0260103 -9.43543e-22)
(-0.00664602 0.052676 1.41297e-20)
(-0.0154276 0.0611641 -2.05662e-20)
(-0.0259373 0.0569219 9.44199e-21)
(-0.03725 0.0440943 5.28115e-22)
(-0.0488749 0.0257264 -1.09346e-21)
(-0.0604434 0.00397863 -1.71426e-20)
(-0.0716837 -0.0196705 9.3838e-21)
(-0.0823943 -0.0442414 6.28666e-21)
(-0.0924187 -0.0690986 6.31423e-21)
(-0.101631 -0.0938289 -1.0736e-20)
(-0.109931 -0.118154 6.21324e-21)
(-0.117236 -0.141874 -2.93238e-21)
(-0.123485 -0.164834 4.99073e-21)
(-0.128633 -0.18691 -1.26637e-20)
(-0.132654 -0.20801 1.80612e-20)
(-0.135537 -0.228073 -3.34165e-21)
(-0.137292 -0.247078 -1.2853e-20)
(-0.137945 -0.265056 6.67056e-21)
(-0.137545 -0.282092 -6.32668e-21)
(-0.136161 -0.298334 5.57232e-21)
(-0.133872 -0.313991 7.17433e-21)
(-0.130784 -0.32934 7.68388e-22)
(-0.127103 -0.344776 -2.06602e-20)
(-0.12301 -0.360821 1.09307e-20)
(-0.0024139 0.0284672 1.92673e-20)
(-0.00857054 0.058617 -4.93087e-20)
(-0.0178419 0.0695094 1.435e-20)
(-0.0285293 0.0668933 9.6905e-21)
(-0.0398392 0.0551139 -7.67473e-21)
(-0.0513637 0.0373561 -4.39988e-20)
(-0.062784 0.015877 1.2988e-20)
(-0.0738563 -0.00778069 -2.48494e-20)
(-0.0843934 -0.0325954 2.95734e-20)
(-0.094244 -0.0579037 -3.93666e-20)
(-0.103283 -0.0832725 2.0868e-20)
(-0.111403 -0.108408 7.04032e-21)
(-0.118519 -0.133095 -1.70417e-20)
(-0.124556 -0.157164 -7.36411e-21)
(-0.12946 -0.180475 5.49475e-20)
(-0.133191 -0.202916 -4.86593e-20)
(-0.135728 -0.224402 1.17745e-20)
(-0.137069 -0.244887 2.00847e-20)
(-0.137233 -0.264367 -4.15625e-21)
(-0.136266 -0.282892 3.15959e-20)
(-0.134233 -0.300566 5.89868e-21)
(-0.131219 -0.317553 -2.54031e-21)
(-0.127379 -0.334083 -4.00531e-20)
(-0.123012 -0.3505 3.62958e-20)
(-0.118056 -0.36724 -7.01954e-20)
(-0.00344629 0.0308421 6.29509e-20)
(-0.0106964 0.0644559 2.05785e-20)
(-0.0203855 0.0778171 -2.75855e-20)
(-0.0310932 0.07693 1.20726e-20)
(-0.0421917 0.0663116 1.07e-20)
(-0.0533725 0.0492714 4.14685e-20)
(-0.0643779 0.0281569 -5.29875e-20)
(-0.0749992 0.00457305 -9.13498e-21)
(-0.0850684 -0.0204166 -3.57743e-20)
(-0.0944434 -0.0461203 -2.97955e-20)
(-0.103001 -0.0720855 3.76601e-20)
(-0.110634 -0.0980036 -1.27851e-19)
(-0.11725 -0.123648 -4.53961e-21)
(-0.122769 -0.148836 -7.71189e-20)
(-0.127126 -0.173413 -9.17203e-21)
(-0.130271 -0.197249 1.05215e-20)
(-0.132172 -0.220235 -5.99324e-20)
(-0.132818 -0.242294 -3.74564e-20)
(-0.132224 -0.263383 -4.37634e-20)
(-0.130432 -0.283507 6.79974e-20)
(-0.127509 -0.302717 2.43197e-20)
(-0.123546 -0.32112 -1.1141e-19)
(-0.118748 -0.338888 -5.30028e-20)
(-0.113503 -0.356305 -5.94251e-20)
(-0.107546 -0.373695 1.58895e-19)
(-0.00457897 0.0330522 -1.16047e-21)
(-0.0129903 0.0700123 -4.81831e-20)
(-0.0230107 0.0858584 -2.44277e-20)
(-0.0335683 0.0867819 1.53578e-20)
(-0.0442328 0.0774317 9.05023e-20)
(-0.054812 0.0612209 -4.0179e-20)
(-0.0651201 0.0405771 8.69264e-20)
(-0.0749916 0.0171636 8.34848e-20)
(-0.0842826 -0.00791469 5.04972e-20)
(-0.0928643 -0.0339377 -4.6363e-22)
(-0.10062 -0.0604338 1.02228e-19)
(-0.107443 -0.0870813 1.8001e-20)
(-0.11324 -0.113643 7.83824e-20)
(-0.117927 -0.139928 1.81338e-19)
(-0.121432 -0.165769 -2.10261e-19)
(-0.123698 -0.191018 3.16603e-19)
(-0.124686 -0.215543 6.87636e-20)
(-0.124379 -0.239234 -1.52895e-19)
(-0.122787 -0.262006 -2.09628e-20)
(-0.119953 -0.283809 5.40519e-20)
(-0.115946 -0.304632 -2.7921e-20)
(-0.110871 -0.324512 -1.72684e-20)
(-0.104975 -0.343551 -1.62982e-20)
(-0.0987326 -0.361958 -6.42181e-20)
(-0.0917288 -0.37993 2.22842e-19)
(-0.00578824 0.035015 3.41904e-20)
(-0.0154058 0.0751047 -1.56726e-19)
(-0.0256613 0.0933983 1.90976e-19)
(-0.0358925 0.0961884 -7.54175e-20)
(-0.045896 0.0882057 9.15675e-20)
(-0.0556104 0.0729391 7.57265e-20)
(-0.064933 0.0528817 2.88664e-20)
(-0.0737487 0.0297497 2.9055e-21)
(-0.0819438 0.00468748 1.61739e-19)
(-0.0894069 -0.0215569 1.13196e-19)
(-0.096031 -0.0484927 -4.37419e-20)
(-0.101716 -0.0757864 -2.87268e-20)
(-0.106369 -0.103192 1.23504e-19)
(-0.109908 -0.130512 2.2943e-20)
(-0.112258 -0.157571 6.43584e-20)
(-0.11336 -0.184205 1.51415e-19)
(-0.11317 -0.21026 -1.28242e-19)
(-0.111669 -0.235593 1.02286e-19)
(-0.108868 -0.260074 -2.25129e-19)
(-0.10481 -0.283594 1.88324e-19)
(-0.0995709 -0.306071 1.39098e-21)
(-0.0932669 -0.327457 -1.50402e-19)
(-0.0861881 -0.347771 5.87894e-20)
(-0.0788828 -0.367135 1.34344e-19)
(-0.0708547 -0.385599 -1.96148e-19)
(-0.00704317 0.036653 1.79729e-19)
(-0.0178848 0.0795571 -1.90966e-19)
(-0.0282731 0.100205 -2.92288e-20)
(-0.0380046 0.104888 3.9503e-20)
(-0.0471253 0.0983612 -8.30939e-20)
(-0.055717 0.0841535 -1.28873e-19)
(-0.0637699 0.0648062 -1.08556e-19)
(-0.0712272 0.0420799 -2.61808e-20)
(-0.0780106 0.0171555 -1.85888e-19)
(-0.0840308 -0.00919094 1.52909e-19)
(-0.0891954 -0.0364499 -2.33167e-19)
(-0.0934138 -0.0642758 1.1986e-19)
(-0.0966004 -0.0924165 -3.71757e-20)
(-0.0986762 -0.120668 9.13062e-20)
(-0.0995717 -0.14885 -2.30518e-19)
(-0.099229 -0.176787 1.14915e-19)
(-0.0976067 -0.204305 1.00247e-20)
(-0.0946861 -0.231232 4.98561e-20)
(-0.0904795 -0.257391 3.00665e-19)
(-0.0850366 -0.282613 6.80832e-20)
(-0.0784405 -0.306738 -5.13751e-21)
(-0.0708196 -0.329625 1.9051e-20)
(-0.0624975 -0.351193 1.23235e-19)
(-0.0540901 -0.371459 3.59658e-20)
(-0.0450869 -0.390314 1.13331e-19)
(-0.008307 0.0378989 -1.11715e-19)
(-0.0203596 0.0832102 1.59025e-19)
(-0.0307772 0.106061 1.04596e-20)
(-0.0398465 0.112631 -1.95221e-19)
(-0.0478776 0.10763 4.14985e-19)
(-0.0551045 0.0945917 -1.33285e-19)
(-0.0616185 0.0760816 1.97176e-19)
(-0.0674279 0.0538944 1.80204e-19)
(-0.0724955 0.0292436 -1.48621e-19)
(-0.0767592 0.00293252 -2.18652e-19)
(-0.0801452 -0.02451 6.02951e-20)
(-0.082577 -0.052726 -6.42273e-20)
(-0.0839801 -0.081457 -2.83119e-19)
(-0.0842856 -0.110496 3.4825e-19)
(-0.0834321 -0.139657 -1.67373e-19)
(-0.0813695 -0.168759 -1.14714e-19)
(-0.078063 -0.197613 3.37832e-21)
(-0.0734994 -0.22602 9.68353e-20)
(-0.0676964 -0.253763 3.82872e-20)
(-0.0607103 -0.280614 -1.50436e-19)
(-0.0526327 -0.306331 1.74796e-19)
(-0.0436051 -0.330675 -2.96646e-19)
(-0.0339742 -0.353451 1.82407e-19)
(-0.0244126 -0.374551 -1.35519e-19)
(-0.0144657 -0.393695 3.87431e-20)
(-0.0095393 0.0386995 1.69179e-19)
(-0.0227563 0.0859297 -1.29977e-19)
(-0.0331028 0.110774 -8.21531e-20)
(-0.0413658 0.119186 -1.4594e-19)
(-0.0481245 0.115759 -2.65977e-19)
(-0.0537701 0.103988 -1.96433e-19)
(-0.0585011 0.0864398 1.24733e-19)
(-0.0623967 0.0649289 -1.89287e-19)
(-0.0654667 0.0406964 2.40362e-19)
(-0.0676805 0.0145712 -3.9327e-19)
(-0.0689873 -0.0128975 1.75895e-19)
(-0.0693287 -0.0413387 3.72747e-19)
(-0.068646 -0.0704864 -5.26337e-19)
(-0.066884 -0.100131 7.57632e-20)
(-0.0639949 -0.130084 9.9412e-20)
(-0.0599408 -0.160161 9.45863e-20)
(-0.0546979 -0.190164 -1.00434e-19)
(-0.0482629 -0.219874 -2.32167e-20)
(-0.0406618 -0.249041 -7.69654e-20)
(-0.0319586 -0.277385 -6.14181e-20)
(-0.0222545 -0.304587 -3.4202e-19)
(-0.0117024 -0.330305 -2.31172e-20)
(-0.000661555 -0.35422 4.12689e-21)
(0.0101513 -0.376079 -1.50456e-19)
(0.0210656 -0.395419 1.53548e-19)
(-0.0106984 0.0390198 5.97135e-21)
(-0.024999 0.087614 5.30993e-20)
(-0.0351805 0.114186 5.63851e-20)
(-0.0425174 0.12435 3.0936e-20)
(-0.0478532 0.122516 2.74488e-19)
(-0.0517356 0.112092 2.60362e-19)
(-0.0544739 0.0956206 -2.1091e-19)
(-0.0562235 0.0749202 -6.65312e-20)
(-0.0570457 0.0512526 -5.8153e-20)
(-0.056946 0.0254701 3.00196e-19)
(-0.0559008 -0.0018574 1.10413e-19)
(-0.0538733 -0.0303439 -1.57227e-19)
(-0.0508238 -0.059715 -1.35972e-19)
(-0.0467149 -0.0897567 3.26948e-19)
(-0.0415154 -0.120281 -8.10193e-20)
(-0.0352034 -0.151102 -9.9456e-20)
(-0.02777 -0.182017 -1.37626e-19)
(-0.019225 -0.212796 -1.08002e-19)
(-0.00960503 -0.243167 -1.37948e-19)
(0.00101694 -0.272806 -8.86026e-20)
(0.0125297 -0.301331 3.68361e-19)
(0.0247704 -0.328301 -1.8203e-19)
(0.0373772 -0.353265 1.21858e-19)
(0.0496037 -0.375809 -3.18931e-19)
(0.061587 -0.39527 1.28316e-19)
(-0.0117442 0.0388451 -1.55648e-19)
(-0.0270144 0.088201 -4.15048e-20)
(-0.0369457 0.116183 -3.16984e-19)
(-0.0432656 0.127964 -1.53363e-19)
(-0.0470658 0.127701 -3.00954e-19)
(-0.0490447 0.118679 -3.17076e-20)
(-0.0496232 0.10338 1.62302e-19)
(-0.0490364 0.0836127 -1.00966e-19)
(-0.047401 0.0606504 2.1604e-19)
(-0.044763 0.0353653 -5.28569e-19)
(-0.0411292 0.00834788 -1.68668e-20)
(-0.0364877 -0.0199996 9.45954e-20)
(-0.0308201 -0.0493918 -1.20372e-19)
(-0.024109 -0.0796097 1.1079e-19)
(-0.0163421 -0.110464 -8.59232e-20)
(-0.00751586 -0.14177 -1.84471e-19)
(0.00236152 -0.173326 3.35309e-19)
(0.0132651 -0.204898 2.07871e-19)
(0.0251455 -0.236202 -4.41808e-20)
(0.0379198 -0.266887 1.36832e-19)
(0.0514663 -0.296522 -2.69387e-19)
(0.0656123 -0.324582 3.8327e-19)
(0.0800016 -0.350484 -5.21244e-19)
(0.0938735 -0.373634 1.05952e-19)
(0.107108 -0.393164 -1.93022e-19)
(-0.012641 0.0381824 8.8003e-21)
(-0.0287358 0.0876713 -1.43714e-19)
(-0.0383421 0.116699 2.07665e-19)
(-0.0435849 0.129911 4.27179e-19)
(-0.0457776 0.131158 -8.23561e-21)
(-0.0457589 0.123553 4.86765e-20)
(-0.0440587 0.109497 -1.86248e-19)
(-0.0409929 0.0907667 8.51727e-20)
(-0.0367371 0.0686356 6.05813e-19)
(-0.0313812 0.0439919 -1.37141e-19)
(-0.0249652 0.0174453 -1.65732e-19)
(-0.0175044 -0.0105846 6.2481e-19)
(-0.00900325 -0.0397997 2.08019e-19)
(0.000534622 -0.0699735 9.92794e-20)
(0.0111017 -0.100914 1.02973e-19)
(0.0226828 -0.132439 2.76935e-19)
(0.0352517 -0.164349 -1.05597e-19)
(0.0487669 -0.196413 2.84764e-19)
(0.0631654 -0.228346 3.82415e-19)
(0.0783527 -0.259788 -3.22434e-19)
(0.0941959 -0.290276 4.77771e-19)
(0.110511 -0.319221 1.68778e-19)
(0.126952 -0.345922 -6.37439e-19)
(0.142759 -0.369595 9.16589e-19)
(0.157498 -0.389154 -7.24383e-19)
(-0.01336 0.0370594 -4.11116e-19)
(-0.0301076 0.0860499 2.20146e-19)
(-0.0393244 0.115721 -1.48611e-19)
(-0.04346 0.130131 -1.39719e-19)
(-0.0440147 0.132776 -1.53878e-19)
(-0.0419517 0.126566 -1.66574e-19)
(-0.0379037 0.113787 4.43029e-20)
(-0.032267 0.0961679 4.38566e-19)
(-0.0252781 0.0749714 -9.16098e-20)
(-0.017073 0.0510938 -2.46345e-19)
(-0.0077275 0.0251617 -1.52908e-19)
(0.0027149 -0.00238791 -6.21051e-20)
(0.0142257 -0.0312427 1.91158e-19)
(0.0267807 -0.0611666 -1.19619e-19)
(0.0403529 -0.0919633 -3.94169e-19)
(0.0549089 -0.123449 -4.37847e-19)
(0.0704047 -0.155431 1.75458e-19)
(0.0867822 -0.187684 -3.24907e-19)
(0.103964 -0.219931 2.84384e-19)
(0.121842 -0.251815 -7.97876e-19)
(0.14027 -0.282864 6.09309e-19)
(0.15905 -0.312453 -7.99694e-19)
(0.177846 -0.339779 -1.18635e-20)
(0.195914 -0.363873 -2.5911e-19)
(0.212454 -0.383421 7.54961e-19)
(-0.0138812 0.0355233 6.33459e-19)
(-0.0310888 0.0834042 9.31934e-20)
(-0.0398606 0.113292 -6.1777e-20)
(-0.0428856 0.12862 -2.51131e-20)
(-0.0418095 0.132503 4.78806e-19)
(-0.0376999 0.127615 1.57724e-19)
(-0.0312832 0.116106 1.44587e-19)
(-0.0230331 0.0996385 -1.15063e-19)
(-0.0132472 0.0794494 4.48595e-19)
(-0.00210885 0.0564363 -2.2076e-19)
(0.010269 0.0312378 1.415e-19)
(0.0238137 0.00430708 3.69437e-19)
(0.038473 -0.0240286 -2.0949e-19)
(0.0542027 -0.0535217 2.30681e-19)
(0.0709578 -0.0839691 2.1888e-19)
(0.0886875 -0.115185 7.44837e-20)
(0.107331 -0.146979 -1.84586e-19)
(0.126814 -0.179134 5.1279e-19)
(0.147042 -0.211386 -4.69142e-20)
(0.167893 -0.243392 -5.21104e-20)
(0.189204 -0.274689 6.08871e-19)
(0.210758 -0.304644 -4.27071e-19)
(0.232222 -0.332384 7.16866e-19)
(0.252882 -0.356761 -5.8347e-19)
(0.27154 -0.376238 7.39976e-19)
(-0.014195 0.0336368 -3.10277e-19)
(-0.0316556 0.0798399 6.92706e-20)
(-0.0399332 0.109504 -7.25669e-20)
(-0.0418648 0.125434 -3.35526e-19)
(-0.0391956 0.130344 1.94811e-20)
(-0.033075 0.126656 1.9395e-19)
(-0.0243104 0.116365 -7.87161e-19)
(-0.0134473 0.101047 5.91757e-19)
(-0.000842791 0.0819021 -5.77789e-19)
(0.0132724 0.0598192 -3.66889e-19)
(0.0287479 0.0354434 3.32502e-19)
(0.045482 0.00924082 -7.26569e-19)
(0.0633995 -0.018447 6.15376e-19)
(0.0824369 -0.04736 -1.94966e-19)
(0.102532 -0.0772859 -5.64113e-19)
(0.123619 -0.108034 1.39542e-19)
(0.14562 -0.139414 -1.30491e-19)
(0.168443 -0.171216 4.92631e-20)
(0.191975 -0.203186 -1.77245e-19)
(0.216076 -0.235002 -5.87757e-19)
(0.240561 -0.266226 1.31938e-19)
(0.265186 -0.29624 1.64664e-21)
(0.289615 -0.324139 -5.89986e-19)
(0.313176 -0.348616 4.15171e-19)
(0.334259 -0.36792 -3.44896e-19)
(-0.0143028 0.0314744 1.26674e-19)
(-0.0318023 0.0754937 2.33112e-19)
(-0.0395392 0.104497 3.23391e-19)
(-0.0404065 0.120681 1.67456e-19)
(-0.0362023 0.126365 -1.63677e-19)
(-0.0281326 0.123706 3.9168e-19)
(-0.0170709 0.114532 2.92016e-19)
(-0.00362692 0.100318 -1.04158e-19)
(0.0117871 0.0822145 3.83508e-19)
(0.0288946 0.0610917 -3.95178e-19)
(0.047509 0.0375941 -1.16557e-19)
(0.0675002 0.0121968 1.18581e-19)
(0.0887706 -0.0147463 2.39352e-19)
(0.111238 -0.0429629 2.36319e-21)
(0.134826 -0.0722298 1.53961e-19)
(0.159449 -0.102349 2.84022e-19)
(0.185014 -0.133125 -4.84249e-19)
(0.211407 -0.164351 6.02739e-19)
(0.238493 -0.195783 2.03659e-19)
(0.266107 -0.227118 7.01442e-20)
(0.294037 -0.257951 -7.25517e-19)
(0.322002 -0.287698 1.04143e-19)
(0.34965 -0.315459 1.57189e-19)
(0.376363 -0.339798 -3.45372e-20)
(0.400135 -0.358768 1.68729e-19)
(-0.0142164 0.0291175 1.07806e-20)
(-0.031541 0.070525 -6.00868e-19)
(-0.0386887 0.0984474 -1.34464e-20)
(-0.0385223 0.114522 -1.50859e-19)
(-0.0328476 0.120689 -9.93719e-19)
(-0.0229021 0.118845 8.60603e-19)
(-0.00960877 0.11064 -6.1402e-19)
(0.00636928 0.0974398 -3.02951e-20)
(0.0245703 0.0803345 -2.94246e-19)
(0.0446758 0.0601648 5.12044e-19)
(0.0664648 0.0375674 -5.54382e-19)
(0.0897803 0.0130209 -2.61811e-19)
(0.114503 -0.0131113 5.80771e-21)
(0.140533 -0.0405451 -5.75391e-19)
(0.167774 -0.0690458 7.86912e-19)
(0.196125 -0.0984047 -9.16184e-19)
(0.225468 -0.12842 1.34439e-21)
(0.255664 -0.158879 1.4098e-19)
(0.286548 -0.189546 -3.51915e-19)
(0.317919 -0.22013 3.3935e-19)
(0.349528 -0.25026 -4.82032e-19)
(0.381049 -0.279402 -3.13619e-19)
(0.412099 -0.306689 5.78467e-19)
(0.442122 -0.330596 -6.2473e-19)
(0.468774 -0.349 -9.9401e-21)
(-0.0139567 0.026649 -5.1327e-19)
(-0.0308995 0.0651055 5.85576e-19)
(-0.0374018 0.091559 -1.79891e-19)
(-0.0362215 0.107156 3.46519e-19)
(-0.0291317 0.113491 3.73727e-19)
(-0.0173767 0.11221 -3.29688e-19)
(-0.00191149 0.104786 -2.21438e-19)
(0.0165596 0.0924708 -2.6565e-19)
(0.0375334 0.0762819 2.43104e-19)
(0.0606546 0.0570236 -1.62215e-20)
(0.0856713 0.035317 3.59488e-19)
(0.112401 0.0116389 3.56825e-19)
(0.140702 -0.0136415 -4.30968e-19)
(0.170455 -0.0402298 8.49639e-19)
(0.201541 -0.0678791 -5.66571e-19)
(0.233834 -0.0963684 -9.85802e-20)
(0.267187 -0.125484 1.11153e-18)
(0.301423 -0.155008 -5.15121e-19)
(0.336334 -0.1847 3.27577e-19)
(0.371673 -0.214281 6.37237e-19)
(0.407141 -0.243405 -4.12902e-19)
(0.442358 -0.271597 4.42999e-20)
(0.476892 -0.298048 -2.68348e-20)
(0.510257 -0.32118 -1.60229e-19)
(0.539867 -0.338719 2.98888e-19)
(-0.0135521 0.0241484 1.1831e-19)
(-0.0299174 0.0594082 -3.7257e-19)
(-0.0357044 0.084049 2.04123e-19)
(-0.0335062 0.0988119 -2.27654e-21)
(-0.0250296 0.104988 1.52821e-19)
(-0.0115039 0.103995 -2.63726e-19)
(0.00610142 0.0971346 1.5088e-19)
(0.0270542 0.08554 4.13134e-19)
(0.0508196 0.070154 -1.37263e-20)
(0.0770113 0.0517362 -2.14842e-19)
(0.10535 0.0308855 2.16885e-19)
(0.135628 0.00807165 -3.86341e-21)
(0.167681 -0.0163336 -6.9548e-19)
(0.201362 -0.0420273 2.57796e-19)
(0.236524 -0.0687507 5.69469e-20)
(0.273005 -0.0962691 -1.01662e-19)
(0.310613 -0.124356 -1.82683e-19)
(0.349121 -0.152779 6.97061e-19)
(0.388262 -0.181294 1.68793e-19)
(0.427725 -0.209626 -3.63474e-19)
(0.467149 -0.23745 -4.30633e-20)
(0.50609 -0.264344 4.90799e-19)
(0.544055 -0.289582 -2.29833e-19)
(0.580628 -0.311569 9.53292e-20)
(0.613123 -0.327888 6.28493e-20)
(-0.0130352 0.0216875 -2.36553e-19)
(-0.0286407 0.053598 2.33458e-19)
(-0.0336213 0.0761363 -1.31263e-19)
(-0.0303642 0.0897327 -4.21307e-19)
(-0.0204845 0.0954284 -3.87644e-19)
(-0.00517828 0.0944373 -1.7263e-19)
(0.0145872 0.0879039 -1.43176e-19)
(0.0380651 0.0768454 -4.24551e-19)
(0.0646986 0.0621267 -1.72782e-19)
(0.0940772 0.0444583 1.58172e-19)
(0.125896 0.0244121 -2.26272e-19)
(0.159922 0.00244643 -2.39746e-19)
(0.19596 -0.0210676 -2.27087e-19)
(0.233828 -0.0458204 4.17137e-19)
(0.273337 -0.0715417 -8.75183e-19)
(0.314272 -0.0979827 5.03526e-19)
(0.356379 -0.124902 -8.6053e-19)
(0.39936 -0.152055 -1.32404e-19)
(0.442871 -0.179187 -4.72161e-19)
(0.486522 -0.206024 -1.08748e-19)
(0.529875 -0.232259 -1.33458e-19)
(0.572415 -0.257519 -4.40474e-19)
(0.613586 -0.281171 -4.46171e-20)
(0.653034 -0.30164 2.61616e-19)
(0.688152 -0.31636 -6.51427e-19)
(-0.0124399 0.0193263 2.03838e-19)
(-0.0271156 0.0478215 2.65298e-19)
(-0.0311701 0.0680283 9.22719e-19)
(-0.0267627 0.0801646 -1.62176e-19)
(-0.0154018 0.0850774 3.84934e-19)
(0.00176395 0.0838091 9.1858e-19)
(0.0237836 0.0773628 -2.50532e-19)
(0.0499078 0.0666476 3.40358e-19)
(0.0795665 0.0524513 1.9899e-19)
(0.112329 0.0354333 3.63143e-19)
(0.147866 0.0161354 -7.32138e-20)
(0.185912 -0.00499891 4.94595e-20)
(0.226231 -0.0276015 -1.31931e-19)
(0.268591 -0.0513578 7.0229e-19)
(0.312742 -0.0759874 8.9344e-20)
(0.358392 -0.101228 6.5724e-19)
(0.405205 -0.126825 -1.68374e-19)
(0.452788 -0.152522 6.02806e-19)
(0.500701 -0.178055 8.38284e-20)
(0.548458 -0.203151 3.03363e-19)
(0.59554 -0.227519 -1.28687e-19)
(0.641362 -0.250831 -1.92629e-20)
(0.685305 -0.272553 7.05634e-19)
(0.727073 -0.291168 4.23278e-19)
(0.764327 -0.30393 -1.70178e-19)
(-0.0117974 0.0171102 -4.92158e-19)
(-0.0253815 0.0422005 -4.95627e-19)
(-0.0283529 0.0599105 -5.16655e-19)
(-0.0226424 0.0703419 1.89609e-19)
(-0.00964536 0.0742037 -3.80248e-19)
(0.00954553 0.072401 -5.67091e-20)
(0.0340061 0.0658156 -1.4957e-19)
(0.0629939 0.0552591 -6.23681e-19)
(0.0959315 0.0414461 -9.89185e-20)
(0.132369 0.0249856 1.61112e-19)
(0.171946 0.00638798 -5.08836e-19)
(0.214354 -0.0139198 7.07408e-19)
(0.259301 -0.0355748 -9.65186e-19)
(0.306481 -0.0582595 2.33618e-19)
(0.355556 -0.0816855 -5.94497e-19)
(0.406135 -0.105581 -4.8435e-19)
(0.457768 -0.129679 -2.77858e-20)
(0.509952 -0.153716 -7.27193e-20)
(0.562131 -0.177427 5.79798e-20)
(0.61372 -0.200543 -2.74264e-19)
(0.664112 -0.22279 -1.87871e-19)
(0.71267 -0.243885 2.28447e-19)
(0.758725 -0.263393 -6.29147e-19)
(0.802032 -0.27989 2.02312e-19)
(0.840695 -0.290408 1.30962e-19)
(-0.0111331 0.0150685 -8.69528e-20)
(-0.0234639 0.0368257 -1.434e-19)
(-0.0251506 0.0519375 5.58858e-19)
(-0.0179127 0.0604759 2.07292e-19)
(-0.00303639 0.0630656 2.74454e-19)
(0.0184443 0.0605085 -3.66728e-19)
(0.0456377 0.0535875 6.3486e-22)
(0.077813 0.0430291 -2.98592e-19)
(0.114385 0.0294817 5.52172e-19)
(0.154881 0.0135068 1.81748e-19)
(0.198896 -0.00441678 2.06347e-19)
(0.246061 -0.0238792 -8.13874e-19)
(0.296 -0.0445246 1.00995e-18)
(0.348308 -0.0660355 -3.02374e-19)
(0.402528 -0.0881193 -2.17146e-19)
(0.458139 -0.110498 6.53903e-19)
(0.514559 -0.132903 2.92149e-19)
(0.57115 -0.15507 -7.37537e-19)
(0.62724 -0.176739 -3.05217e-19)
(0.682142 -0.197657 9.22393e-19)
(0.735182 -0.217575 -6.97161e-19)
(0.785688 -0.236252 4.1876e-19)
(0.832979 -0.253361 2.28428e-19)
(0.876858 -0.267596 -2.93751e-19)
(0.915996 -0.275696 -2.64505e-19)
(-0.010463 0.0132138 -3.19978e-19)
(-0.0213689 0.0317552 4.97224e-19)
(-0.0215171 0.0442272 2.1092e-19)
(-0.0124497 0.0507457 -3.04169e-19)
(0.00464344 0.0518987 -4.85069e-20)
(0.0287833 0.0484175 -3.18305e-19)
(0.0591103 0.0410081 -1.26899e-19)
(0.0949028 0.0303263 1.43349e-19)
(0.135562 0.0169627 -3.52825e-20)
(0.180576 0.00143513 2.72255e-19)
(0.229477 -0.0158071 -2.37153e-19)
(0.281807 -0.0343723 6.58135e-19)
(0.337076 -0.0539142 -8.19227e-19)
(0.394746 -0.0741193 5.1148e-19)
(0.454208 -0.0946967 6.37614e-19)
(0.514786 -0.115371 -9.21646e-19)
(0.575746 -0.135879 -2.78597e-19)
(0.636311 -0.155968 4.71627e-19)
(0.695694 -0.175395 -2.88053e-19)
(0.753126 -0.193935 2.76495e-19)
(0.80789 -0.211374 -6.66118e-19)
(0.859317 -0.227529 1.12682e-19)
(0.90677 -0.242178 4.26097e-19)
(0.950138 -0.254133 -6.79136e-19)
(0.988664 -0.259796 1.82708e-19)
(-0.00979155 0.0115425 -2.9502e-19)
(-0.0190788 0.0270137 9.24639e-19)
(-0.0173768 0.0368585 1.76645e-19)
(-0.00609759 0.0412925 -4.7754e-19)
(0.0136447 0.0409066 3.42011e-19)
(0.0409156 0.0363909 1.74204e-19)
(0.074879 0.0283955 2.78117e-19)
(0.114812 0.0175198 -1.71505e-20)
(0.160085 0.00430529 -2.86281e-20)
(0.210124 -0.0107687 -6.14209e-20)
(0.26437 -0.0272809 -2.68406e-19)
(0.322238 -0.0448591 -9.99454e-21)
(0.38309 -0.0631702 6.27852e-19)
(0.446217 -0.0819107 -1.03291e-18)
(0.510834 -0.1008 7.34874e-19)
(0.576091 -0.119575 1.49766e-19)
(0.641094 -0.137988 2.64003e-19)
(0.704934 -0.155811 -1.33235e-19)
(0.766729 -0.172831 1.18852e-18)
(0.825656 -0.188861 -7.30108e-19)
(0.880986 -0.203735 5.79625e-19)
(0.932089 -0.217339 1.33713e-19)
(0.978432 -0.229542 -4.17857e-19)
(1.02006 -0.23922 3.52215e-19)
(1.05656 -0.242728 5.19876e-19)
(-0.00911012 0.0100374 -8.51846e-20)
(-0.0165503 0.0225957 -3.25849e-19)
(-0.0126253 0.0298717 -5.55286e-19)
(0.00132666 0.0322168 -3.15541e-19)
(0.0242391 0.0302546 -4.39628e-20)
(0.0552038 0.0246589 -1.24305e-19)
(0.0933911 0.0160421 -5.78572e-19)
(0.138055 0.00496067 9.59488e-20)
(0.18851 -0.00808449 -6.53363e-19)
(0.244086 -0.0226484 -5.12992e-20)
(0.304091 -0.0383371 -6.29485e-19)
(0.367778 -0.0548006 -2.24571e-19)
(0.434321 -0.0717247 1.29267e-19)
(0.50281 -0.0888244 -6.13933e-19)
(0.572265 -0.105839 5.64773e-21)
(0.641655 -0.12253 -5.27986e-19)
(0.709939 -0.13868 2.03708e-19)
(0.776105 -0.154092 -7.30064e-19)
(0.839212 -0.168595 -1.23222e-19)
(0.898429 -0.182044 -1.25247e-20)
(0.953061 -0.194324 -1.19191e-19)
(1.00255 -0.205378 -1.20107e-19)
(1.04648 -0.215085 -5.83976e-20)
(1.085 -0.222391 -2.33354e-19)
(1.1171 -0.225109 -4.87722e-19)
(-0.00839701 0.00867052 1.57226e-19)
(-0.0137152 0.0184708 4.11851e-19)
(-0.00713211 0.0232732 4.93642e-19)
(0.0100255 0.0235802 -3.93919e-19)
(0.0367049 0.0200679 7.31421e-19)
(0.0719983 0.0134127 -3.96764e-19)
(0.115055 0.00420479 2.15726e-19)
(0.165075 -0.00703174 3.37509e-19)
(0.221277 -0.0198297 3.07624e-19)
(0.282854 -0.0337756 1.50167e-19)
(0.348937 -0.0485043 2.42478e-19)
(0.418574 -0.0636929 1.41566e-19)
(0.490716 -0.0790542 9.55935e-19)
(0.564236 -0.0943325 -6.9299e-19)
(0.63795 -0.1093 7.91774e-19)
(0.710664 -0.123755 -3.25422e-19)
(0.781222 -0.137521 7.03486e-19)
(0.848553 -0.150448 -3.29703e-20)
(0.911719 -0.16241 -1.44511e-19)
(0.96995 -0.173306 -2.04665e-20)
(1.02266 -0.183063 5.25137e-19)
(1.06946 -0.191626 -4.91918e-19)
(1.11022 -0.198803 3.53553e-19)
(1.14492 -0.204127 3.69318e-19)
(1.16919 -0.210211 6.69103e-20)
(-0.00761841 0.00740685 1.08565e-19)
(-0.0104831 0.0145908 -5.87268e-19)
(-0.000746962 0.0170424 -2.13045e-19)
(0.0202112 0.0154111 1.94993e-19)
(0.0513126 0.0104346 -5.98726e-19)
(0.0916161 0.00280482 -1.17922e-19)
(0.140213 -0.00689951 8.2067e-20)
(0.196205 -0.0181787 3.25327e-19)
(0.258669 -0.0305951 -8.22615e-19)
(0.32661 -0.0437672 6.29619e-20)
(0.398939 -0.0573625 -2.41211e-19)
(0.474458 -0.0710928 -7.34009e-19)
(0.551875 -0.0847089 4.99169e-19)
(0.629835 -0.0979969 2.27274e-20)
(0.706972 -0.110775 -1.63655e-20)
(0.78196 -0.122892 5.00136e-19)
(0.853581 -0.134224 -8.74464e-19)
(0.920768 -0.144674 6.87427e-19)
(0.982656 -0.15417 -1.29673e-19)
(1.0386 -0.16266 3.78604e-19)
(1.0882 -0.170116 -6.27728e-19)
(1.13126 -0.176515 3.46095e-19)
(1.16789 -0.181754 -5.96912e-19)
(1.19829 -0.185706 5.87942e-19)
(1.21949 -0.190588 -1.98577e-19)
(-0.00673061 0.00620889 7.23651e-19)
(-0.00674608 0.0108981 -1.16992e-19)
(0.00669345 0.0111415 8.66299e-19)
(0.0320954 0.0077134 4.00975e-19)
(0.0683108 0.00141257 3.26084e-20)
(0.114323 -0.00704698 1.74959e-19)
(0.169117 -0.0170919 4.22954e-20)
(0.231646 -0.0282433 7.14875e-19)
(0.300788 -0.040093 2.30784e-19)
(0.375311 -0.0522945 -3.11274e-20)
(0.453858 -0.0645559 6.22074e-20)
(0.534962 -0.0766343 2.38962e-19)
(0.617075 -0.0883311 1.98951e-19)
(0.698635 -0.0994876 4.24132e-19)
(0.778126 -0.109981 -4.8413e-19)
(0.854151 -0.11972 1.436e-19)
(0.925494 -0.128642 4.71664e-20)
(0.991172 -0.136706 2.10131e-19)
(1.05046 -0.143892 5.51713e-19)
(1.10291 -0.150197 -3.67463e-19)
(1.14833 -0.15563 2.44573e-20)
(1.18676 -0.160208 -4.74012e-19)
(1.2185 -0.163901 4.32841e-19)
(1.24392 -0.166689 -3.91964e-19)
(1.26099 -0.170345 5.43953e-20)
(-0.00568298 0.00504078 -6.02647e-19)
(-0.00238503 0.00733463 4.6024e-19)
(0.0153575 0.005526 -7.47842e-19)
(0.04588 0.000477788 6.43834e-20)
(0.0879154 -0.00695968 5.26134e-19)
(0.140321 -0.01605 -8.76548e-19)
(0.20192 -0.0262247 6.9633e-19)
(0.271457 -0.0370267 -1.10563e-18)
(0.347553 -0.0480815 2.2023e-19)
(0.428688 -0.0590856 4.73243e-20)
(0.513205 -0.0697984 3.71872e-19)
(0.59935 -0.0800357 -1.23541e-18)
(0.685338 -0.0896632 2.13947e-19)
(0.769434 -0.0985902 2.24729e-19)
(0.850034 -0.106763 -1.33148e-19)
(0.925742 -0.114156 -8.1742e-19)
(0.995432 -0.120768 3.87241e-19)
(1.05828 -0.126614 7.02091e-19)
(1.11377 -0.131719 -7.25503e-19)
(1.1617 -0.136114 5.17315e-19)
(1.20213 -0.139833 -6.45029e-19)
(1.23534 -0.142913 4.62747e-19)
(1.26184 -0.145342 -1.15855e-19)
(1.28216 -0.14713 6.61111e-19)
(1.29501 -0.149767 -7.23456e-19)
(-0.00442112 0.0038719 8.56398e-20)
(0.00272453 0.0038498 6.79256e-20)
(0.0254114 0.000155747 1.6501e-19)
(0.0617495 -0.00630593 5.90965e-19)
(0.110302 -0.0146503 -1.88218e-20)
(0.169743 -0.0241246 1.31793e-19)
(0.238672 -0.0341702 5.89234e-19)
(0.315557 -0.0443587 2.38104e-19)
(0.39871 -0.0543583 -7.87164e-20)
(0.486275 -0.0639208 6.68305e-19)
(0.576275 -0.0728711 -7.60241e-19)
(0.666681 -0.0810985 1.16484e-18)
(0.755505 -0.0885464 -4.61065e-19)
(0.8409 -0.095202 8.29665e-19)
(0.921257 -0.101086 -2.80206e-19)
(0.99527 -0.10624 1.01009e-19)
(1.06199 -0.110719 1.21277e-19)
(1.12082 -0.114583 -2.23979e-19)
(1.17152 -0.117889 1.89914e-19)
(1.21416 -0.120689 1.20405e-19)
(1.24908 -0.123029 1.58848e-19)
(1.27679 -0.124944 3.18296e-19)
(1.29798 -0.126425 -3.53352e-20)
(1.31334 -0.127496 -1.42308e-19)
(1.32216 -0.129416 3.80817e-19)
(-0.00288983 0.00267957 -5.00543e-19)
(0.00870653 0.000407427 5.27601e-20)
(0.0370125 -0.00499526 -9.50265e-19)
(0.0798643 -0.0126369 -2.26663e-19)
(0.135601 -0.0216212 -4.25646e-19)
(0.20265 -0.0311911 -9.09709e-20)
(0.279318 -0.0408091 -4.56548e-19)
(0.363735 -0.0500877 -2.73543e-19)
(0.453845 -0.0587526 3.61609e-19)
(0.547433 -0.0666271 -6.03845e-19)
(0.6422 -0.0736183 -1.67735e-19)
(0.735873 -0.0797036 6.10085e-21)
(0.826321 -0.0849149 -1.12214e-18)
(0.911675 -0.0893229 4.74454e-19)
(0.99041 -0.0930215 -6.85149e-19)
(1.06141 -0.0961136 -1.97423e-20)
(1.12397 -0.0986994 1.28021e-19)
(1.17781 -0.100869 -2.12935e-19)
(1.22299 -0.102695 -1.83474e-19)
(1.25987 -0.104236 8.42955e-20)
(1.28905 -0.10553 9.05767e-20)
(1.31126 -0.1066 -5.93172e-19)
(1.32735 -0.107423 3.35099e-19)
(1.3381 -0.108029 1.53798e-19)
(1.34322 -0.109505 2.70631e-20)
(-0.00103552 0.00145074 5.10312e-19)
(0.0156795 -0.00300936 -5.43295e-19)
(0.050304 -0.00993098 7.63449e-19)
(0.100357 -0.0184933 1.20032e-19)
(0.163894 -0.027817 -3.65268e-20)
(0.239031 -0.0371591 -2.56797e-19)
(0.323708 -0.0460203 3.87063e-20)
(0.415658 -0.0540726 3.92089e-19)
(0.512415 -0.0611188 -5.41047e-19)
(0.611393 -0.0670734 5.68094e-19)
(0.709997 -0.0719429 -6.00645e-20)
(0.805768 -0.0758052 2.90539e-20)
(0.896521 -0.0787869 7.29342e-19)
(0.980461 -0.0810414 9.65786e-19)
(1.05625 -0.0827282 -3.7885e-19)
(1.12306 -0.0839976 6.53283e-19)
(1.18049 -0.0849786 3.19482e-19)
(1.22862 -0.0857734 -2.00124e-19)
(1.26782 -0.0864544 6.04488e-19)
(1.29875 -0.0870667 -3.31344e-20)
(1.32224 -0.087632 -5.58198e-19)
(1.33918 -0.0881508 5.69996e-19)
(1.35055 -0.0885794 7.15098e-20)
(1.35719 -0.0889509 -3.31189e-19)
(1.35906 -0.0902041 1.05132e-19)
(0.00119199 0.000182569 -7.07232e-19)
(0.0237525 -0.00639541 7.40004e-19)
(0.065411 -0.0146283 -4.69116e-19)
(0.123327 -0.0238254 -1.45571e-19)
(0.195214 -0.0331576 -3.28934e-19)
(0.278803 -0.0419197 5.82589e-19)
(0.371601 -0.0496746 -3.38039e-19)
(0.470888 -0.0561781 -1.55024e-19)
(0.573767 -0.061334 -4.42862e-19)
(0.677292 -0.0651684 1.20246e-20)
(0.778624 -0.0678032 -1.73392e-19)
(0.875205 -0.0694249 8.21877e-20)
(0.9649 -0.0702541 -8.73514e-19)
(1.0461 -0.070518 2.49167e-19)
(1.11776 -0.0704272 -2.94131e-19)
(1.17938 -0.0701603 -2.30671e-19)
(1.23098 -0.0698549 6.94481e-20)
(1.27295 -0.0696061 -3.26521e-19)
(1.30601 -0.0694685 -1.30841e-19)
(1.33105 -0.0694624 3.90269e-19)
(1.3491 -0.0695824 1.54754e-19)
(1.3612 -0.0698012 -6.63499e-19)
(1.36835 -0.0700522 4.7359e-19)
(1.37143 -0.0703671 -8.82652e-20)
(1.37058 -0.0715593 -1.73642e-19)
(0.0038384 -0.00111782 -2.5561e-19)
(0.0330225 -0.00972282 -1.36734e-19)
(0.0824362 -0.0190346 -2.67062e-20)
(0.14884 -0.0285527 2.02485e-19)
(0.22954 -0.037535 2.19692e-19)
(0.321812 -0.045344 1.90892e-19)
(0.422669 -0.0516349 2.38531e-19)
(0.528895 -0.0562762 3.63612e-19)
(0.637163 -0.0592989 5.5583e-19)
(0.744207 -0.0608613 5.47673e-19)
(0.847027 -0.0612114 2.87818e-19)
(0.943071 -0.0606454 -7.81265e-20)
(1.03037 -0.0594693 1.91452e-20)
(1.10762 -0.0579676 -2.08143e-20)
(1.17414 -0.0563808 2.23187e-19)
(1.22986 -0.054893 -5.24224e-20)
(1.27516 -0.0536294 6.27558e-19)
(1.31081 -0.0526596 -2.85373e-19)
(1.33779 -0.0520064 1.34958e-21)
(1.35724 -0.0516562 1.80452e-19)
(1.37028 -0.0515711 -4.00434e-19)
(1.37804 -0.0516943 6.41397e-19)
(1.38155 -0.0519379 -5.12803e-19)
(1.38167 -0.0523308 8.75077e-20)
(1.37861 -0.053571 -3.14401e-19)
(0.00694435 -0.00243418 5.47734e-19)
(0.0435716 -0.0129419 3.69797e-19)
(0.101456 -0.023069 -2.366e-19)
(0.17692 -0.0325645 1.04975e-18)
(0.266796 -0.0408146 -9.09352e-19)