/*--------------------------------*- C++ -*----------------------------------*\
  =========                 |
  \\      /  F ield         | OpenFOAM: The Open Source CFD Toolbox
   \\    /   O peration     | Website:  https://openfoam.org
    \\  /    A nd           | Version:  6.0
     \\/     M anipulation  |
\*---------------------------------------------------------------------------*/
FoamFile
{
    version     2.0;
    format      ascii;
    class       surfaceScalarField;
    location    "6";
    object      phi;
}
// * * * * * * * * * * * * * * * * * * * * * * * * * * * * * * * * * * * * * //

dimensions      [0 3 -1 0 0 0 0];

internalField   nonuniform List<scalar> 
7840
(
-1.01267e-05
9.96009e-06
1.66579e-07
-3.42392e-05
2.37248e-05
3.87715e-07
-6.83123e-05
3.35437e-05
5.29407e-07
-0.000109553
4.06259e-05
6.14379e-07
-0.000155969
4.5756e-05
6.59914e-07
-0.000206139
4.94916e-05
6.79032e-07
-0.00025905
5.22296e-05
6.81131e-07
-0.000313974
5.42513e-05
6.72625e-07
-0.000370387
5.57556e-05
6.57572e-07
-0.000427908
5.68828e-05
6.38275e-07
-0.000486256
5.77321e-05
6.15811e-07
-0.000545221
5.83745e-05
5.90485e-07
-0.000604646
5.88627e-05
5.62154e-07
-0.000664414
5.92379e-05
5.30471e-07
-0.000724443
5.95342e-05
4.95056e-07
-0.000784681
5.97824e-05
4.55626e-07
-0.000845103
6.00099e-05
4.12074e-07
-0.000905705
6.02368e-05
3.64327e-07
-0.0009665
6.04828e-05
3.12383e-07
6.08148e-05
2.56583e-07
-0.00102757
-9.75928e-06
1.97194e-05
-3.308e-05
4.70455e-05
-6.61041e-05
6.65677e-05
-0.00010613
8.06514e-05
-0.000151213
9.0839e-05
-0.000199953
9.8232e-05
-0.000251341
0.000103618
-0.000304645
0.000107556
-0.000359333
0.000110443
-0.000415012
0.000112562
-0.00047139
0.00011411
-0.000528246
0.000115231
-0.000585412
0.000116029
-0.000642763
0.000116588
-0.000700206
0.000116977
-0.00075768
0.000117256
-0.000815152
0.000117482
-0.00087261
0.000117695
-0.000930062
0.000117935
0.00011833
-0.000987577
-9.04737e-06
2.87667e-05
-3.08275e-05
6.88257e-05
-6.18041e-05
9.75443e-05
-9.94526e-05
0.0001183
-0.000141923
0.000133309
-0.000187856
0.000144165
-0.000236253
0.000152015
-0.000286376
0.000157678
-0.000337676
0.000161743
-0.000389739
0.000164625
-0.000442253
0.000166624
-0.000494975
0.000167953
-0.000547718
0.000168772
-0.000600338
0.000169208
-0.000652724
0.000169364
-0.000704802
0.000169334
-0.000756523
0.000169203
-0.000807863
0.000169036
-0.000858819
0.000168891
0.000168949
-0.000909438
-8.03931e-06
3.6806e-05
-2.76227e-05
8.84091e-05
-5.56638e-05
0.000125585
-8.98894e-05
0.000152526
-0.000128584
0.000172004
-0.000170453
0.000186034
-0.000214514
0.000196076
-0.000260023
0.000203187
-0.000306409
0.000208129
-0.000353233
0.00021145
-0.000400153
0.000213543
-0.000446897
0.000214697
-0.000493251
0.000215127
-0.000539047
0.000215003
-0.000584152
0.000214469
-0.00062847
0.000213652
-0.000671938
0.000212671
-0.00071452
0.000211618
-0.000756201
0.000210571
0.000209755
-0.000797007
-6.80255e-06
4.36086e-05
-2.36639e-05
0.00010527
-4.804e-05
0.000149961
-7.79652e-05
0.000182451
-0.000111894
0.000205933
-0.000148614
0.000222754
-0.000187173
0.000234635
-0.000226822
0.000242836
-0.00026697
0.000248277
-0.000307148
0.000251628
-0.00034698
0.000253375
-0.000386161
0.000253878
-0.000424445
0.000253411
-0.000461634
0.000252192
-0.000497571
0.000250406
-0.000532139
0.00024822
-0.00056526
0.000245791
-0.000596889
0.000243247
-0.000627012
0.000240694
0.000238389
-0.000655645
-5.41808e-06
4.90267e-05
-1.91926e-05
0.000119045
-3.9371e-05
0.00017014
-6.43304e-05
0.00020741
-9.27214e-05
0.000234324
-0.000123432
0.000253464
-0.000155551
0.000266754
-0.000188335
0.00027562
-0.000221175
0.000281118
-0.000253575
0.000284027
-0.000285122
0.000284922
-0.000315477
0.000284233
-0.00034436
0.000282294
-0.00037154
0.000279372
-0.000396834
0.0002757
-0.000420104
0.00027149
-0.000441259
0.000266946
-0.000460257
0.000262246
-0.000477097
0.000257533
0.000253102
-0.00049181
-3.97374e-06
5.30004e-05
-1.4475e-05
0.000129546
-3.01465e-05
0.000185811
-4.97196e-05
0.000226983
-7.20554e-05
0.00025666
-9.6158e-05
0.000277567
-0.000121171
0.000291767
-0.000146367
0.000300815
-0.000171129
0.00030588
-0.000194936
0.000307834
-0.000217346
0.000307333
-0.000237986
0.000304873
-0.000256538
0.000300846
-0.000272738
0.000295572
-0.000286372
0.000289334
-0.000297281
0.000282399
-0.000305364
0.000275029
-0.000310588
0.00026747
-0.000312986
0.000259932
0.000252759
-0.000312643
-2.55733e-06
5.55577e-05
-9.7825e-06
0.000136771
-2.08737e-05
0.000196903
-3.49035e-05
0.000241013
-5.0946e-05
0.000272703
-6.81313e-05
0.000294752
-8.56716e-05
0.000309307
-0.000102868
0.000318012
-0.000119109
0.000322121
-0.000133859
0.000322585
-0.000146655
0.000320128
-0.000157089
0.000315308
-0.000164811
0.000308567
-0.000169519
0.000300279
-0.000170962
0.000290778
-0.000168953
0.000280389
-0.000163375
0.000269451
-0.000154208
0.000258303
-0.000141539
0.000247263
0.000236774
-0.000125554
-1.25006e-06
5.68078e-05
-5.37202e-06
0.000140893
-1.20412e-05
0.000203572
-2.06355e-05
0.000249607
-3.04311e-05
0.000282498
-4.06883e-05
0.00030501
-5.06987e-05
0.000319318
-5.98077e-05
0.000327121
-6.74219e-05
0.000329735
-7.30082e-05
0.000328171
-7.60884e-05
0.000323208
-7.62331e-05
0.000315452
-7.30571e-05
0.000305391
-6.62178e-05
0.00029344
-5.54209e-05
0.000279981
-4.04334e-05
0.000265402
-2.1108e-05
0.000250126
2.57603e-06
0.000234619
3.04686e-05
0.000219371
0.000205014
6.22284e-05
-1.20766e-07
5.69286e-05
-1.46728e-06
0.00014224
-4.08289e-06
0.000206187
-7.59597e-06
0.00025312
-1.14611e-05
0.000286363
-1.50649e-05
0.000308613
-1.77858e-05
0.000322039
-1.90268e-05
0.000328362
-1.82289e-05
0.000328937
-1.48755e-05
0.000324818
-8.48896e-06
0.000316822
1.37373e-06
0.00030559
1.51262e-05
0.000291639
3.31539e-05
0.000275412
5.58078e-05
0.000257327
8.33867e-05
0.000237823
0.0001161
0.000217412
0.000154001
0.000196718
0.000196892
0.00017648
0.000157685
0.000244221
7.7861e-07
5.61499e-05
1.75734e-06
0.000141261
2.65437e-06
0.00020529
3.66104e-06
0.000252114
5.17885e-06
0.000284846
7.70738e-06
0.000306085
1.17796e-05
0.000317966
1.79259e-05
0.000322216
2.66572e-05
0.000320206
3.84589e-05
0.000313016
5.37935e-05
0.000301487
7.31054e-05
0.000286278
9.68286e-05
0.000267916
0.00012539
0.000246851
0.000159207
0.00022351
0.000198668
0.000198363
0.000244082
0.000171998
0.000295591
0.000145209
0.00035299
0.000119081
9.51883e-05
0.000415486
1.4162e-06
5.47337e-05
4.1894e-06
0.000138488
7.93925e-06
0.00020154
1.27563e-05
0.000247297
1.8942e-05
0.00027866
2.69032e-05
0.000298124
3.70909e-05
0.000307779
4.99667e-05
0.00030934
6.59861e-05
0.000304186
8.55934e-05
0.000293408
0.000109224
0.000277856
0.000137313
0.000258189
0.000170303
0.000234925
0.000208657
0.000208497
0.000252858
0.000179309
0.000303397
0.000147824
0.00036072
0.000114674
0.000425114
8.08157e-05
0.000496441
4.77541e-05
1.79594e-05
0.00057367
1.78209e-06
5.29516e-05
5.78717e-06
0.000134483
1.16767e-05
0.000195651
1.95239e-05
0.000239449
2.95812e-05
0.000268603
4.21926e-05
0.000285512
5.77441e-05
0.000292227
7.66372e-05
0.000290447
9.92753e-05
0.000281548
0.000126061
0.000266623
0.0001574
0.000246517
0.000193711
0.000221879
0.000235435
0.000193201
0.000283057
0.000160875
0.000337112
0.000125254
0.000398182
8.67539e-05
0.000466857
4.59991e-05
0.000543601
4.07155e-06
0.000628423
-3.70677e-05
-7.37184e-05
0.000720101
1.88899e-06
5.10627e-05
6.58396e-06
0.000129788
1.39203e-05
0.000188315
2.40364e-05
0.000229333
3.71918e-05
0.000255447
5.37065e-05
0.000268997
7.39309e-05
0.000272003
9.82284e-05
0.000266149
0.000126969
0.000252808
0.000160528
0.000233063
0.000199292
0.000207753
0.000243665
0.000177506
0.000294083
0.000142783
0.000351031
0.000103926
0.00041506
6.12256e-05
0.000486796
1.50181e-05
0.000566917
-3.41223e-05
0.00065604
-8.50512e-05
0.00075435
-0.000135378
-0.000179896
0.000860528
1.77171e-06
4.9291e-05
6.68771e-06
0.000124872
1.48738e-05
0.000180128
2.6612e-05
0.000217595
4.22276e-05
0.000239832
6.20653e-05
0.00024916
8.64809e-05
0.000247587
0.000115838
0.000236792
0.00015051
0.000218136
0.000190875
0.000192698
0.000237326
0.000161302
0.00029027
0.000124562
0.000350135
8.29182e-05
0.00041738
3.66807e-05
0.000492515
-1.39092e-05
0.000576112
-6.8579e-05
0.000668811
-0.000126821
0.000771245
-0.000187485
0.000883715
-0.000247847
-0.000301082
0.0010049
1.48525e-06
4.78057e-05
6.27491e-06
0.000120082
1.4881e-05
0.000171522
2.77999e-05
0.000204676
4.54834e-05
0.000222148
6.83565e-05
0.000226287
9.68345e-05
0.000219109
0.000131334
0.000202293
0.000172278
0.000177192
0.000220098
0.000144878
0.000275229
0.000106171
0.000338102
6.16892e-05
0.000409137
1.18826e-05
0.000488739
-4.29205e-05
0.000577291
-0.000102462
0.000675177
-0.000166464
0.000782793
-0.000234438
0.00090054
-0.000305232
0.00102862
-0.000375924
-0.000438194
0.00116573
1.10114e-06
4.67046e-05
5.57799e-06
0.000115605
1.44002e-05
0.0001627
2.834e-05
0.000190737
4.80362e-05
0.000202452
7.40546e-05
0.000200268
0.000106931
0.000186233
0.000147194
0.00016203
0.000195375
0.000129011
0.000252004
8.82489e-05
0.000317593
4.05819e-05
0.000392615
-1.33332e-05
0.000477473
-7.29748e-05
0.000572464
-0.000137911
0.000677756
-0.000207754
0.00079338
-0.000282088
0.000919252
-0.00036031
0.00105521
-0.000441194
0.00120097
-0.000521679
-0.000592283
0.00135506
7.01595e-07
4.6003e-05
4.8657e-06
0.000111441
1.39647e-05
0.000153601
2.90974e-05
0.000175604
5.11461e-05
0.000180403
8.0878e-05
0.000170536
0.000119009
0.000148102
0.000166237
0.000114802
0.000223247
7.20012e-05
0.000290699
2.07961e-05
0.000369199
-3.79179e-05
0.000459249
-0.000103383
0.000561193
-0.000174919
0.000675157
-0.000251875
0.000800981
-0.000333578
0.000938181
-0.000419288
0.00108597
-0.000508096
0.00124333
-0.000598555
0.00140904
-0.000687394
-0.000764316
0.00158108
3.71774e-07
4.56312e-05
4.41726e-06
0.000107396
1.41301e-05
0.000143888
3.09739e-05
0.00015876
5.61226e-05
0.000155255
9.05963e-05
0.000136063
0.000135339
0.000103359
0.000191253
5.88883e-05
0.000259196
4.05827e-06
0.000339954
-5.99624e-05
0.000434194
-0.000132157
0.000542394
-0.000211584
0.000664776
-0.000297301
0.000801212
-0.000388312
0.000951143
-0.000483508
0.00111348
-0.000581622
0.00128654
-0.000681162
0.00146816
-0.000780168
0.00165579
-0.000875031
-0.00095508
0.00184656
1.90742e-07
4.54405e-05
4.49328e-06
0.000103093
1.54162e-05
0.000132965
3.48102e-05
0.000139366
6.4175e-05
0.00012589
0.000104816
9.54215e-05
0.000157926
5.02495e-05
0.000224609
-7.79471e-06
0.000305864
-7.71965e-05
0.000402537
-0.000156635
0.000515257
-0.000244878
0.000644368
-0.000340695
0.000789858
-0.000442791
0.0009513
-0.000549753
0.0011278
-0.000660006
0.00131793
-0.000771758
0.00151967
-0.000882898
0.00172999
-0.000990492
0.00194339
-0.00108843
-0.00115657
0.00214489
2.22147e-07
4.52183e-05
5.30732e-06
9.80081e-05
1.82504e-05
0.000120022
4.12935e-05
0.000116323
7.62741e-05
9.09091e-05
0.000124786
4.69098e-05
0.000188248
-1.3213e-05
0.000267911
-8.74575e-05
0.000364811
-0.000174097
0.000479707
-0.000271531
0.000613001
-0.000378172
0.000764681
-0.000492375
0.000934281
-0.00061239
0.00112089
-0.000736361
0.00132322
-0.000862341
0.00153981
-0.000988341
0.00176929
-0.00111238
0.00201127
-0.00123247
0.00226927
-0.00134643
-0.00144379
0.00255649
5.1084e-07
4.47075e-05
7.01088e-06
9.15081e-05
2.2934e-05
0.000104099
5.08972e-05
8.83599e-05
9.30592e-05
4.87471e-05
0.000151265
-1.12965e-05
0.00022709
-8.90372e-05
0.000321804
-0.000182172
0.000436308
-0.000288601
0.000571041
-0.000406263
0.000725902
-0.000533034
0.000900209
-0.000666682
0.00109269
-0.000804877
0.00130157
-0.000945234
0.00152463
-0.0010854
0.00175945
-0.00122316
0.00200361
-0.00135655
0.00225513
-0.00148399
0.00251308
-0.00160438
-0.00170927
0.00277856
1.07671e-06
4.36308e-05
9.67944e-06
8.29053e-05
2.96192e-05
8.41594e-05
6.3848e-05
5.4131e-05
0.000114796
-2.20081e-06
0.000184478
-8.09783e-05
0.00027449
-0.00017905
0.000385942
-0.000293624
0.000519352
-0.000422011
0.000674553
-0.000561464
0.000850635
-0.000709115
0.00104594
-0.000861985
0.00125812
-0.00101706
0.00148427
-0.00117139
0.00172111
-0.00132224
0.00196516
-0.00146721
0.00221295
-0.00160434
0.0024612
-0.00173224
0.00270687
-0.00185005
-0.0019515
0.00294909
1.92005e-06
4.17107e-05
1.33234e-05
7.15019e-05
3.8325e-05
5.91578e-05
8.01473e-05
1.23088e-05
0.000141403
-6.3457e-05
0.000224145
-0.00016372
0.000329804
-0.000284708
0.000459076
-0.000422896
0.00061181
-0.000574745
0.000786926
-0.00073658
0.000982412
-0.000904601
0.0011954
-0.00107498
0.00142235
-0.001244
0.00165923
-0.00140827
0.00190182
-0.00156482
0.0021459
-0.00171129
0.00238752
-0.00184596
0.00262308
-0.00196779
0.00284946
-0.00207644
-0.00216811
0.00306608
3.02695e-06
3.86838e-05
1.79039e-05
5.6625e-05
4.89662e-05
2.80956e-05
9.96148e-05
-3.83398e-05
0.000172517
-0.000136359
0.000269577
-0.00026078
0.000391813
-0.000406945
0.000539217
-0.000570301
0.00071065
-0.000746178
0.00090383
-0.000929759
0.00111543
-0.0011162
0.00134129
-0.00130084
0.00157672
-0.00147943
0.00181682
-0.00164836
0.00205678
-0.00180479
0.00229224
-0.00194675
0.00251941
-0.00207312
0.00273519
-0.00218358
0.00293727
-0.00227852
-0.00235634
0.0031255
4.37697e-06
3.43068e-05
2.33536e-05
3.76484e-05
6.13899e-05
-9.9408e-06
0.000121944
-9.88936e-05
0.000207562
-0.000221978
0.000319764
-0.000372981
0.000458858
-0.000546039
0.000623808
-0.00073525
0.000812186
-0.000934556
0.00102029
-0.00113786
0.0012434
-0.00133931
0.00147616
-0.0015336
0.001713
-0.00171628
0.00194858
-0.00188394
0.0021781
-0.00203432
0.00239762
-0.00216626
0.00260411
-0.00227962
0.00279557
-0.00237503
0.00297089
-0.00245385
-0.00251617
0.00313071
5.94974e-06
2.83571e-05
2.95949e-05
1.40032e-05
7.54077e-05
-5.57536e-05
0.000146746
-0.000170231
0.000245814
-0.000321046
0.000373455
-0.000500622
0.00052894
-0.000701524
0.000709881
-0.000916191
0.000912325
-0.001137
0.00113106
-0.0013566
0.00136008
-0.00156833
0.00159314
-0.00176666
0.00182427
-0.00194741
0.00204824
-0.00210791
0.00226086
-0.00224694
0.00245913
-0.00236453
0.00264123
-0.00246171
0.00280643
-0.00254024
0.00295493
-0.00260234
-0.00264939
0.00308815
7.72877e-06
2.06283e-05
3.65505e-05
-1.48186e-05
9.08114e-05
-0.000110014
0.000173571
-0.000252991
0.000286421
-0.000433897
0.000429197
-0.000643398
0.000599793
-0.00087212
0.0007942
-0.0011106
0.00100683
-0.00134963
0.00123105
-0.00158082
0.00145989
-0.00179717
0.00168668
-0.00199346
0.00190567
-0.00216639
0.00211233
-0.00231457
0.00230356
-0.00243816
0.00247764
-0.00253861
0.00263412
-0.00261819
0.00277353
-0.00267965
0.00289713
-0.00272594
-0.00275925
0.00300699
9.70151e-06
1.09268e-05
4.41429e-05
-4.926e-05
0.000107372
-0.000173244
0.000201908
-0.000347527
0.000328411
-0.0005604
0.000485358
-0.000800345
0.00066896
-0.00105572
0.00087343
-0.00131507
0.0010916
-0.00156779
0.00131573
-0.00180495
0.00153837
-0.00201981
0.00175306
-0.00220815
0.00195483
-0.00236816
0.00214033
-0.00250007
0.00230784
-0.00260568
0.00245707
-0.00268784
0.00258879
-0.00274991
0.00270455
-0.00279541
0.00280634
-0.00282773
-0.0028495
0.00289659
1.18567e-05
-9.29891e-07
5.22872e-05
-8.96905e-05
0.000124827
-0.000245784
0.000231165
-0.000453865
0.000370681
-0.000699915
0.000540154
-0.000969819
0.000733895
-0.00124946
0.000944341
-0.00152552
0.00116301
-0.00178646
0.00138154
-0.00202348
0.00159264
-0.0022309
0.00179063
-0.00240615
0.00197179
-0.00254932
0.00213425
-0.00266252
0.00227774
-0.00274917
0.00240322
-0.00281331
0.00251244
-0.00285914
0.00260763
-0.0028906
0.00269112
-0.00291122
-0.00292378
0.0027654
1.41799e-05
-1.51098e-05
6.08801e-05
-0.000136391
0.000142865
-0.000327768
0.000260661
-0.000571661
0.000412011
-0.000851265
0.000591717
-0.00114953
0.00079211
-0.00144986
0.00100405
-0.00173746
0.00121821
-0.00200062
0.00142622
-0.00223149
0.00162152
-0.0024262
0.00179975
-0.00258437
0.00195868
-0.00270825
0.00209797
-0.00280181
0.00221864
-0.00286985
0.00232263
-0.0029173
0.00241233
-0.00294883
0.00249024
-0.00296851
0.00255878
-0.00297975
-0.00298525
0.00262025
1.665e-05
-3.17598e-05
6.97908e-05
-0.000189531
0.000161112
-0.000419089
0.000289624
-0.000700173
0.000451098
-0.00101274
0.00063819
-0.00133662
0.000841355
-0.00165302
0.00105028
-0.00194638
0.00125536
-0.0022057
0.00144885
-0.00242499
0.00162547
-0.00260282
0.0017824
-0.0027413
0.00191902
-0.00284487
0.00203632
-0.00291911
0.00213634
-0.00296986
0.00222163
-0.0030026
0.00229488
-0.00302208
0.00235862
-0.00303225
0.00241507
-0.00303621
-0.00303642
0.00246624
1.9236e-05
-5.09958e-05
7.88557e-05
-0.000249151
0.000179136
-0.000519369
0.000317213
-0.00083825
0.000486625
-0.00118215
0.000677861
-0.00152785
0.000879794
-0.00185495
0.00108148
-0.00214806
0.00127369
-0.00239791
0.00144984
-0.00260115
0.00160624
-0.00275921
0.00174171
-0.00287678
0.00185707
-0.00296023
0.00195437
-0.00301642
0.00203632
-0.00305181
0.00210576
-0.00307204
0.0021654
-0.00308171
0.00221756
-0.00308441
0.00226422
-0.00308286
-0.00307919
0.00230699
2.18963e-05
-7.28921e-05
8.78798e-05
-0.000315135
0.000196457
-0.000627946
0.000342562
-0.000984355
0.000517348
-0.00135694
0.000709292
-0.0017198
0.000906148
-0.00205181
0.00109696
-0.00233888
0.00127347
-0.00257442
0.00143064
-0.00275831
0.00156646
-0.00289503
0.00168133
-0.00299164
0.00177719
-0.0030561
0.00185685
-0.00309608
0.00192334
-0.0031183
0.00197953
-0.00312824
0.00202794
-0.00313012
0.00207061
-0.00312709
0.00210918
-0.00312143
-0.00311493
0.00214491
2.45793e-05
-9.74714e-05
9.66425e-05
-0.000387198
0.00021257
-0.000743873
0.00036483
-0.00113662
0.000542184
-0.00153429
0.000731421
-0.00190903
0.000919755
-0.00224014
0.00109684
-0.00251596
0.00125583
-0.00273341
0.00139342
-0.0028959
0.00150925
-0.00301087
0.001605
-0.0030874
0.00168348
-0.00313458
0.00174788
-0.00316048
0.0018013
-0.00317171
0.00184643
-0.00317337
0.00188551
-0.00316919
0.00192024
-0.00316182
0.00195194
-0.00315313
-0.00314456
0.00198158
2.72256e-05
-0.000124697
0.000104908
-0.00046488
0.000226975
-0.00086594
0.000383262
-0.0012929
0.000560287
-0.00171132
0.000743626
-0.00209237
0.000920569
-0.00241709
0.0010819
-0.0026773
0.00122248
-0.00287398
0.00134074
-0.00301416
0.00143778
-0.00310791
0.00151627
-0.00316589
0.00157952
-0.00319782
0.00163085
-0.00321181
0.00167322
-0.00321408
0.00170905
-0.0032092
0.00174022
-0.00320036
0.00176814
-0.00318974
0.00179381
-0.00317881
-0.00316871
0.00181796
2.97703e-05
-0.000154467
0.000112439
-0.000547549
0.000239206
-0.000992707
0.000397235
-0.00145093
0.000571101
-0.00188518
0.000745732
-0.002267
0.000909076
-0.00258043
0.00105345
-0.00282167
0.00117549
-0.00299602
0.00127529
-0.00311396
0.00135509
-0.00318772
0.00141824
-0.00322903
0.00146826
-0.00324785
0.00150841
-0.00325196
0.00154137
-0.00324704
0.00156923
-0.00323706
0.00159355
-0.00322468
0.00161542
-0.00321161
0.00163562
-0.00319901
-0.00318776
0.00165467
3.21468e-05
-0.000186614
0.000119007
-0.000634409
0.000248862
-0.00112256
0.000406296
-0.00160837
0.000574375
-0.00205326
0.000737971
-0.0024306
0.000886182
-0.00272864
0.00101308
-0.00294857
0.00111707
-0.00310002
0.00119962
-0.00319651
0.00126387
-0.00325196
0.0013135
-0.00327867
0.00135207
-0.00328642
0.00138259
-0.00328247
0.00140742
-0.00327187
0.0014283
-0.00325794
0.00144647
-0.00324285
0.00146281
-0.00322795
0.00147788
-0.00321408
-0.00320195
0.00149207
3.42881e-05
-0.000220902
0.000124404
-0.000724524
0.000255621
-0.00125378
0.000410175
-0.00176292
0.000570147
-0.00221323
0.00072091
-0.00258136
0.00085308
-0.00286081
0.00096256
-0.00305805
0.00104938
-0.00318684
0.0011161
-0.00326323
0.00116643
-0.00330229
0.0012042
-0.00331644
0.0012328
-0.00331501
0.00125491
-0.00330459
0.00127255
-0.0032895
0.00128714
-0.00327254
0.00129967
-0.00325538
0.0013108
-0.00323907
0.00132096
-0.00322425
-0.00321141
0.00133043
3.61299e-05
0.000128452
0.00025926
0.000408795
0.000558708
0.000695363
0.000811115
0.000903658
0.0009744
0.00102674
0.00106468
0.00109201
0.00111181
0.00112645
0.00113759
0.00114638
0.00115359
0.00115971
0.00116508
0.00116988
3.61344e-05
0.000220956
0.000128466
0.000724691
0.000259281
0.00125405
0.000408819
0.00176326
0.000558728
0.00221362
0.000695374
0.00258177
0.000811113
0.00286121
0.000903641
0.00305843
0.00097437
0.00318719
0.0010267
0.00326357
0.00106463
0.00330261
0.00109194
0.00331673
0.00111174
0.00331529
0.00112637
0.00330485
0.00113751
0.00328976
0.0011463
0.00327278
0.00115349
0.00325561
0.00115961
0.0032393
0.00116498
0.00322446
0.00321162
0.00116977
3.42929e-05
0.000186664
0.000124418
0.000634565
0.000255646
0.00112282
0.000410206
0.0016087
0.000570176
0.00205365
0.000720931
0.00243101
0.000853087
0.00272905
0.000962551
0.00294896
0.00104935
0.00310039
0.00111606
0.00319686
0.00116638
0.00325229
0.00120414
0.00327897
0.00123272
0.00328671
0.00125483
0.00328275
0.00127246
0.00327212
0.00128705
0.00325819
0.00129957
0.00324309
0.00131069
0.00322817
0.00132085
0.0032143
0.00320216
0.00133031
3.21517e-05
0.000154512
0.000119022
0.000547695
0.00024889
0.000992953
0.000406332
0.00145126
0.000574413
0.00188557
0.000738002
0.00226742
0.0008862
0.00258086
0.00101308
0.00282209
0.00111706
0.00299642
0.00119959
0.00311432
0.00126382
0.00318806
0.00131344
0.00322935
0.001352
0.00324815
0.00138251
0.00325224
0.00140733
0.00324731
0.0014282
0.00323732
0.00144637
0.00322492
0.0014627
0.00321184
0.00147777
0.00319923
0.00318798
0.00149195
2.97753e-05
0.000124737
0.000112455
0.000465015
0.000239236
0.000866172
0.000397276
0.00129322
0.000571146
0.0017117
0.000745774
0.0020928
0.000909107
0.00241752
0.00105346
0.00267773
0.00117549
0.00287439
0.00127526
0.00301455
0.00135505
0.00310827
0.00141818
0.00316622
0.00146819
0.00319814
0.00150833
0.0032121
0.00154128
0.00321436
0.00156913
0.00320947
0.00159344
0.00320062
0.0016153
0.00318998
0.0016355
0.00317904
0.00316893
0.00165454
2.72307e-05
9.75059e-05
0.000104925
0.00038732
0.000227007
0.00074409
0.000383308
0.00113692
0.00056034
0.00153467
0.000743679
0.00190946
0.000920614
0.00224059
0.00108194
0.00251641
0.00122249
0.00273384
0.00134073
0.00289631
0.00143775
0.00301125
0.00151622
0.00308775
0.00157946
0.0031349
0.00163077
0.00316078
0.00167313
0.003172
0.00170895
0.00317365
0.00174011
0.00316945
0.00176802
0.00316207
0.00179369
0.00315337
0.00314479
0.00181783
2.45843e-05
7.29215e-05
9.666e-05
0.000315244
0.000212604
0.000628146
0.000364881
0.000984645
0.000542246
0.0013573
0.000731487
0.00172022
0.000919817
0.00205226
0.00109689
0.00233934
0.00125586
0.00257487
0.00139342
0.00275874
0.00150924
0.00289544
0.00160497
0.00299202
0.00168343
0.00305644
0.00174781
0.0030964
0.00180121
0.0031186
0.00184633
0.00312852
0.00188539
0.00313039
0.00192012
0.00312734
0.00195181
0.00312168
0.00311517
0.00198144
2.19011e-05
5.10204e-05
8.78974e-05
0.000249248
0.000196492
0.000519552
0.000342616
0.000838521
0.000517419
0.0011825
0.000709371
0.00152826
0.000906226
0.0018554
0.00109703
0.00214853
0.00127352
0.00239838
0.00143067
0.0026016
0.00156647
0.00275964
0.00168131
0.00287718
0.00177715
0.0029606
0.00185679
0.00301676
0.00192326
0.00305213
0.00197944
0.00307235
0.00202783
0.003082
0.00207049
0.00308468
0.00210905
0.00308312
0.00307944
0.00214477
1.92407e-05
3.17797e-05
7.88732e-05
0.000189616
0.000179172
0.000419253
0.000317271
0.000700422
0.000486703
0.00101307
0.000677953
0.00133701
0.000879891
0.00165347
0.00108157
0.00194685
0.00127377
0.00220618
0.0014499
0.00242546
0.00160627
0.00260327
0.00174172
0.00274173
0.00185705
0.00284527
0.00195433
0.00291948
0.00203625
0.00297021
0.00210568
0.00300292
0.00216529
0.00302239
0.00221744
0.00303253
0.00226409
0.00303648
0.00303668
0.00230685
1.66545e-05
1.51252e-05
6.98078e-05
0.000136462
0.000161148
0.000327913
0.000289683
0.000571887
0.000451181
0.000851571
0.000638292
0.0011499
0.000841468
0.00145029
0.00105039
0.00173793
0.00125546
0.00200111
0.00144894
0.00223198
0.00162553
0.00242668
0.00178244
0.00258482
0.00191903
0.00270868
0.0020363
0.00280221
0.00213629
0.00287022
0.00222156
0.00291765
0.00229479
0.00294916
0.0023585
0.00296882
0.00241494
0.00298004
0.00298552
0.0024661
1.4184e-05
9.412e-07
6.08964e-05
8.975e-05
0.0001429
0.000245909
0.000260722
0.000454065
0.000412098
0.000700195
0.000591828
0.000970173
0.000792239
0.00124988
0.00100419
0.00152598
0.00121835
0.00178695
0.00142634
0.00202398
0.00162162
0.0022314
0.00179982
0.00240663
0.00195872
0.00254978
0.00209798
0.00266296
0.00221862
0.00274958
0.00232258
0.00281369
0.00241225
0.00285949
0.00249014
0.00289093
0.00255866
0.00291152
0.00292407
0.0026201
1.18604e-05
-1.09192e-05
5.23024e-05
4.93079e-05
0.000124862
0.000173349
0.000231225
0.000347702
0.000370769
0.00056065
0.000540272
0.00080067
0.000734037
0.00105611
0.000944499
0.00131551
0.00116317
0.00156828
0.0013817
0.00180545
0.00159278
0.00202032
0.00179075
0.00220866
0.00197188
0.00236865
0.0021343
0.00250053
0.00227776
0.00260612
0.0024032
0.00268825
0.00251239
0.0027503
0.00260755
0.00279577
0.00269101
0.00282806
0.00284982
0.00276527
9.70475e-06
-2.06239e-05
4.41569e-05
1.48558e-05
0.000107405
0.000110102
0.000201966
0.000253141
0.000328499
0.000434117
0.000485479
0.00064369
0.000669111
0.000872481
0.000873606
0.00111102
0.00109179
0.0013501
0.00131592
0.00158132
0.00153855
0.00179769
0.00175323
0.00199398
0.00195497
0.00216691
0.00214043
0.00231507
0.00230791
0.00243864
0.00245709
0.00253906
0.00258877
0.00261862
0.0027045
0.00268005
0.00280625
0.00272631
0.0027596
0.00289647
7.73147e-06
-2.83554e-05
3.6563e-05
-1.39757e-05
9.08414e-05
5.58234e-05
0.000173626
0.000170356
0.000286508
0.000321235
0.000429319
0.000500879
0.00059995
0.00070185
0.00079439
0.000916581
0.00100704
0.00113745
0.00123128
0.00135709
0.00146012
0.00156885
0.0016869
0.00176719
0.00190587
0.00194794
0.0021125
0.00210844
0.00230369
0.00224745
0.00247773
0.00236502
0.00263416
0.00246218
0.00277353
0.00254068
0.00289708
0.00260275
0.00264977
0.00300691
5.95188e-06
-3.43073e-05
2.96058e-05
-3.76296e-05
7.5435e-05
9.99413e-06
0.000146797
9.89938e-05
0.000245898
0.000222135
0.000373576
0.000373201
0.0005291
0.000546325
0.00071008
0.000735601
0.000912557
0.000934967
0.00113132
0.00113833
0.00136035
0.00133982
0.00159341
0.00153413
0.00182453
0.00171683
0.00204848
0.00188449
0.00226106
0.00203487
0.00245929
0.0021668
0.00264134
0.00228013
0.00280649
0.00237553
0.00295494
0.00245431
0.0025166
0.00308811
4.37859e-06
-3.86859e-05
2.33629e-05
-5.66139e-05
6.14147e-05
-2.80577e-05
0.000121992
3.84163e-05
0.000207643
0.000136484
0.000319882
0.000260962
0.00045902
0.000407188
0.000624013
0.000570608
0.000812432
0.000746548
0.00102057
0.000930187
0.00124371
0.00111668
0.00147648
0.00130136
0.00171332
0.00147998
0.00194889
0.00164893
0.00217839
0.00180537
0.00239786
0.00194732
0.00260431
0.00207369
0.00279571
0.00218412
0.00297098
0.00227904
0.00235684
0.00313074
3.02818e-06
-4.1714e-05
1.79123e-05
-7.1498e-05
4.89892e-05
-5.91347e-05
9.9661e-05
-1.22554e-05
0.000172595
6.35506e-05
0.000269693
0.000163863
0.000391974
0.000284907
0.000539426
0.000423156
0.000710907
0.000575067
0.000904132
0.000736963
0.00111577
0.000905042
0.00134166
0.00107547
0.00157711
0.00124454
0.0018172
0.00140884
0.00205715
0.00156541
0.00229258
0.00171189
0.0025197
0.00184657
0.00273543
0.00196839
0.00293745
0.00207702
0.00216868
0.00312562
1.92111e-06
-4.36351e-05
1.33315e-05
-8.29083e-05
3.83477e-05
-8.41509e-05
8.01931e-05
-5.41008e-05
0.000141481
2.2629e-06
0.000224262
8.10817e-05
0.000329967
0.000179203
0.00045929
0.000293833
0.000612077
0.00042228
0.000787245
0.000561795
0.000982778
0.000709508
0.00119581
0.000862437
0.00142279
0.00101756
0.00165968
0.00117194
0.00190227
0.00132283
0.00214634
0.00146783
0.00238792
0.00160498
0.00262343
0.00173288
0.00284976
0.00185069
0.00195214
0.0030663
1.07793e-06
-4.47131e-05
9.68822e-06
-9.15186e-05
2.96434e-05
-0.000104106
6.38962e-05
-8.83536e-05
0.000114877
-4.87174e-05
0.000184599
1.13595e-05
0.000274659
8.91428e-05
0.000386163
0.000182328
0.00051963
0.000288813
0.000674889
0.000406536
0.000851026
0.000533371
0.00104638
0.000667083
0.0012586
0.000805339
0.00148479
0.000945754
0.00172164
0.00108597
0.00196569
0.00122378
0.00221347
0.0013572
0.00246167
0.00148468
0.00270729
0.00160508
0.00170999
0.00294944
5.12644e-07
-4.52257e-05
7.0217e-06
-9.80277e-05
2.29623e-05
-0.000120047
5.09515e-05
-0.000116343
9.3148e-05
-9.09139e-05
0.000151396
-4.68889e-05
0.00022727
1.32695e-05
0.000322039
8.75585e-05
0.000436602
0.00017425
0.000571397
0.000271742
0.00072632
0.000378447
0.000900687
0.000492716
0.00109323
0.000612798
0.00130215
0.000736835
0.00152524
0.00086288
0.00176008
0.000988941
0.00200424
0.00111304
0.00225574
0.00123318
0.00251363
0.00134718
0.00144459
0.00277904
2.24986e-07
-4.54507e-05
5.32159e-06
-0.000103124
1.82854e-05
-0.00013301
4.13581e-05
-0.000139416
7.63765e-05
-0.000125932
0.000124933
-9.54459e-05
0.000188448
-5.02447e-05
0.000268168
7.83841e-06
0.00036513
7.72879e-05
0.000480091
0.000156782
0.000613452
0.000245085
0.000765199
0.000340968
0.000934863
0.000443134
0.00112153
0.000550168
0.00132392
0.000660494
0.00154054
0.00077232
0.00177004
0.000883533
0.00201202
0.000991202
0.00226999
0.00108922
0.00115745
0.00255712
1.95073e-07
-4.56458e-05
4.51242e-06
-0.000107442
1.54605e-05
-0.000143959
3.4889e-05
-0.000158844
6.42966e-05
-0.00015534
0.000104987
-0.000136137
0.000158153
-0.00010341
0.000224897
-5.89054e-05
0.000306217
-4.03195e-06
0.000402958
6.00404e-05
0.000515749
0.000132294
0.000644933
0.000211785
0.000790495
0.000297572
0.000952007
0.000388656
0.00112857
0.000483929
0.00131877
0.000582123
0.00152056
0.000681744
0.00173092
0.000780834
0.00194436
0.000875786
0.000955918
0.00214589
3.78008e-07
-4.60238e-05
4.44252e-06
-0.000111506
1.41861e-05
-0.000153702
3.10705e-05
-0.000175729
5.62682e-05
-0.000180538
9.07974e-05
-0.000170666
0.000135601
-0.000148214
0.00019158
-0.000114884
0.000259592
-7.20437e-05
0.000340422
-2.079e-05
0.000434736
3.79803e-05
0.000543013
0.000103508
0.000665472
0.000175113
0.000801987
0.000252141
0.000951995
0.000333921
0.00111441
0.000419712
0.00128755
0.000508604
0.00146923
0.000599151
0.00165693
0.000688082
0.000765095
0.00184776
7.10055e-07
-4.67338e-05
4.89804e-06
-0.000115694
1.4034e-05
-0.000162838
2.92144e-05
-0.000190909
5.13191e-05
-0.000202642
8.11133e-05
-0.00020046
0.000119311
-0.000186412