/*--------------------------------*- C++ -*----------------------------------*\
  =========                 |
  \\      /  F ield         | OpenFOAM: The Open Source CFD Toolbox
   \\    /   O peration     | Website:  https://openfoam.org
    \\  /    A nd           | Version:  6.0
     \\/     M anipulation  |
\*---------------------------------------------------------------------------*/
FoamFile
{
    version     2.0;
    format      ascii;
    class       volVectorField;
    location    "34";
    object      U;
}
// * * * * * * * * * * * * * * * * * * * * * * * * * * * * * * * * * * * * * //

dimensions      [0 1 -1 0 0 0 0];

internalField   nonuniform List<vector> 
4000
(
(0.0912006 0.00720447 5.59789e-20)
(0.291899 0.0379305 -3.04049e-20)
(0.497737 0.0913614 3.57685e-20)
(0.69226 0.152867 -2.65999e-20)
(0.861901 0.212709 -1.19112e-20)
(0.998993 0.264828 3.60072e-21)
(1.10208 0.30607 -1.16747e-20)
(1.17429 0.335836 4.19599e-20)
(1.2212 0.355252 -3.48973e-20)
(1.24898 0.366263 8.18163e-21)
(1.26331 0.370977 -6.09907e-21)
(1.26877 0.371277 -3.9584e-20)
(1.26875 0.368663 3.83549e-20)
(1.26563 0.364236 1.45637e-20)
(1.26095 0.358756 -1.44889e-20)
(1.2557 0.352719 3.39463e-20)
(1.25046 0.346424 -5.17615e-22)
(1.24563 0.340078 -3.2842e-20)
(1.24143 0.334082 2.43061e-20)
(1.23809 0.328395 7.62151e-21)
(0.105004 0.0119241 -1.96137e-20)
(0.325848 0.0525893 5.68878e-20)
(0.543763 0.114957 6.56629e-20)
(0.74243 0.182639 -3.09384e-20)
(0.909461 0.245311 5.38335e-20)
(1.03934 0.297296 8.50638e-20)
(1.133 0.336329 -4.67014e-21)
(1.19554 0.36279 -1.45352e-20)
(1.23381 0.378595 7.18874e-20)
(1.25457 0.386207 3.49953e-20)
(1.26361 0.387991 -6.3106e-21)
(1.2653 0.3859 5.20083e-20)
(1.26275 0.3814 -5.56081e-20)
(1.258 0.375503 8.65306e-20)
(1.25231 0.368875 -1.44194e-20)
(1.24646 0.36193 4.11405e-20)
(1.2409 0.354903 7.3544e-21)
(1.23592 0.347966 2.93335e-20)
(1.23167 0.341517 -2.79351e-20)
(1.22833 0.335376 6.67233e-21)
(0.119064 0.017719 -3.05169e-20)
(0.359288 0.0696032 7.26163e-20)
(0.587597 0.141147 5.38862e-20)
(0.788422 0.214491 -8.1429e-21)
(0.951188 0.279125 8.37047e-20)
(1.07292 0.330108 -6.23579e-20)
(1.157 0.366284 -4.79678e-21)
(1.21034 0.389072 5.50175e-20)
(1.2408 0.401147 1.74821e-20)
(1.25553 0.405408 2.43559e-20)
(1.26023 0.404395 -3.59048e-20)
(1.25898 0.400073 9.33438e-20)
(1.25455 0.39383 1.7328e-20)
(1.24864 0.386576 -8.24235e-20)
(1.24229 0.378879 1.1999e-19)
(1.23609 0.371076 -1.41343e-19)
(1.23039 0.363344 -6.46167e-20)
(1.22539 0.355833 1.07705e-20)
(1.22117 0.348932 6.26536e-20)
(1.2179 0.342328 -1.17704e-19)
(0.133152 0.0246032 -6.88924e-20)
(0.391637 0.0888713 -1.6238e-19)
(0.628508 0.169653 -1.40246e-19)
(0.829603 0.248019 -1.9081e-19)
(0.986733 0.313726 -1.08075e-19)
(1.09972 0.362911 -2.23884e-19)
(1.17437 0.395692 2.84427e-20)
(1.21918 0.414551 -1.18451e-19)
(1.24277 0.422858 -1.29653e-20)
(1.25243 0.42386 1.94381e-20)
(1.25365 0.4202 -4.25865e-20)
(1.25019 0.413798 5.30009e-20)
(1.24441 0.405938 9.42023e-20)
(1.23775 0.397418 -1.32465e-19)
(1.23102 0.388712 2.11242e-20)
(1.22467 0.380085 6.11005e-20)
(1.21896 0.371667 1.02087e-19)
(1.21403 0.36359 -8.80572e-20)
(1.20992 0.356236 -4.21233e-21)
(1.20678 0.349157 1.02935e-19)
(0.147025 0.0325613 -1.29983e-19)
(0.422331 0.110227 3.56095e-19)
(0.665845 0.200135 -6.28018e-20)
(0.865478 0.282788 8.30972e-20)
(1.0159 0.348694 -8.13261e-20)
(1.11988 0.395372 2.49415e-19)
(1.18549 0.424333 -3.95039e-20)
(1.22257 0.439104 2.35362e-20)
(1.24023 0.44367 -1.17719e-20)
(1.24574 0.44154 3.8401e-20)
(1.24428 0.435386 2.47733e-20)
(1.2392 0.427044 3.11038e-20)
(1.23254 0.417675 -8.84971e-20)
(1.22545 0.407965 1.29163e-19)
(1.21857 0.398296 -9.80637e-20)
(1.21222 0.388871 1.84243e-20)
(1.20662 0.379778 -6.2605e-20)
(1.20186 0.371142 1.3268e-20)
(1.19791 0.363333 1.49158e-20)
(1.19497 0.355771 -1.39511e-19)
(0.160439 0.0415476 9.47301e-21)
(0.450836 0.133444 -1.79378e-19)
(0.699054 0.232202 9.89622e-20)
(0.895688 0.318345 -3.45174e-19)
(1.03864 0.383614 1.67028e-19)
(1.13362 0.427176 -2.86109e-19)
(1.19077 0.452001 -2.2302e-19)
(1.22098 0.462611 -8.49734e-21)
(1.23365 0.463516 -7.54069e-20)
(1.23586 0.458399 -2.34002e-19)
(1.2324 0.449904 -2.91135e-20)
(1.22624 0.439751 -2.23186e-19)
(1.21908 0.428968 4.04739e-20)
(1.21183 0.418129 -3.19557e-20)
(1.20498 0.407535 1.87042e-20)
(1.19879 0.397331 -1.48189e-19)
(1.19339 0.387575 7.99103e-21)
(1.18886 0.378386 2.97501e-20)
(1.18516 0.370119 -6.82182e-20)
(1.18246 0.362072 5.95755e-20)
(0.173153 0.0514862 -7.37552e-20)
(0.476671 0.158238 3.28179e-19)
(0.727681 0.265423 2.34053e-21)
(0.920002 0.354225 -2.83885e-19)
(1.05498 0.418085 2.14048e-19)
(1.14121 0.458027 8.97708e-20)
(1.19061 0.4785 1.82327e-20)
(1.21487 0.48495 -1.50717e-19)
(1.22345 0.482314 2.44708e-19)
(1.22313 0.474369 -1.42702e-19)
(1.21828 0.463682 5.18708e-20)
(1.21148 0.451835 2.40141e-19)
(1.20414 0.439721 -2.15141e-19)
(1.19696 0.427806 2.35934e-19)
(1.19031 0.416319 -1.52864e-19)
(1.18437 0.405356 -3.00113e-20)
(1.17928 0.394947 3.6123e-20)
(1.17506 0.385213 4.52198e-20)
(1.17165 0.376488 6.20661e-20)
(1.16927 0.367961 3.74542e-20)
(0.184936 0.0622722 2.94985e-20)
(0.499413 0.184281 -2.95324e-19)
(0.751382 0.299339 5.23891e-20)
(0.938308 0.389964 6.84621e-19)
(1.06509 0.451722 -6.31864e-20)
(1.14298 0.487644 1.89115e-19)
(1.18543 0.503642 1.17745e-19)
(1.20463 0.505994 1.96663e-20)
(1.20996 0.499965 -1.35656e-19)
(1.20781 0.489358 2.22161e-19)
(1.2021 0.476623 -2.55003e-20)
(1.19505 0.46319 3.3412e-19)
(1.1878 0.44982 1.27871e-19)
(1.18089 0.43688 7.95934e-20)
(1.17458 0.42453 -1.65754e-19)
(1.16902 0.412826 3.49169e-20)
(1.1643 0.401779 1.27936e-19)
(1.16046 0.39151 3.25249e-20)
(1.15741 0.382332 -1.53953e-19)
(1.15542 0.373337 -3.82649e-20)
(0.195572 0.0737742 -1.64308e-19)
(0.518709 0.211207 5.29319e-19)
(0.769916 0.333475 -2.88041e-19)
(0.950596 0.425105 -2.64756e-19)
(1.06915 0.484156 -2.30115e-19)
(1.13927 0.515761 -1.93523e-19)
(1.17562 0.527243 -2.37731e-19)
(1.19065 0.525608 2.96946e-19)
(1.1935 0.516357 -2.10752e-19)
(1.19013 0.503257 -1.68367e-20)
(1.18403 0.488613 -1.94216e-21)
(1.17707 0.473697 -3.99394e-20)
(1.17015 0.459141 -1.01919e-19)
(1.16368 0.445222 -1.12669e-19)
(1.15784 0.432042 -6.01983e-21)
(1.15274 0.41962 -2.49552e-20)
(1.14849 0.407952 -6.04544e-20)
(1.1451 0.397162 -1.81843e-20)
(1.14246 0.38754 2.11236e-20)
(1.14092 0.378099 -1.27087e-19)
(0.20487 0.0858368 2.87674e-19)
(0.534282 0.238622 2.97099e-19)
(0.783147 0.36735 -1.84295e-19)
(0.956949 0.459203 1.1353e-19)
(1.06745 0.515036 1.95338e-19)
(1.13047 0.542125 -3.97898e-20)
(1.16156 0.549122 4.80709e-20)
(1.17326 0.543652 5.31929e-20)
(1.17434 0.531367 8.8188e-20)
(1.17029 0.515944 -1.02721e-19)
(1.1642 0.499524 5.03689e-20)
(1.15761 0.483222 -3.36327e-20)
(1.15124 0.467549 1.51554e-19)
(1.14537 0.452699 6.44046e-20)
(1.14012 0.438723 -1.4862e-19)
(1.13559 0.425611 8.06172e-20)
(1.13188 0.413344 4.0316e-20)
(1.129 0.402049 -7.12946e-20)
(1.12685 0.391997 1.9437e-19)
(1.12581 0.382144 -1.41797e-19)
(0.212666 0.0982851 -2.11508e-19)
(0.545932 0.266114 -2.74184e-19)
(0.791032 0.400487 1.91249e-19)
(0.957528 0.491834 -1.76534e-19)
(1.0603 0.544033 -1.66376e-20)
(1.11693 0.566496 -1.91147e-19)
(1.14361 0.569103 1.5926e-19)
(1.15276 0.559984 2.88704e-19)
(1.15272 0.544863 -4.01208e-19)
(1.14848 0.527287 2.07137e-20)
(1.14273 0.509221 1.53089e-20)
(1.13677 0.491627 -7.79508e-20)
(1.13114 0.474904 5.51502e-20)
(1.12602 0.459173 -2.23106e-20)
(1.12148 0.44444 1.44803e-19)
(1.11761 0.430667 -1.55988e-19)
(1.11452 0.417826 -5.15507e-20)
(1.11221 0.406049 1.37375e-19)
(1.11061 0.395584 -1.9848e-19)
(1.11015 0.385363 1.25449e-19)
(0.218825 0.110929 4.38549e-19)
(0.553537 0.293264 3.86881e-19)
(0.793616 0.43242 -6.51362e-20)
(0.952559 0.522594 -8.16875e-21)
(1.04802 0.57084 -1.9548e-19)
(1.09904 0.588651 8.33145e-20)
(1.12214 0.587014 4.01561e-19)
(1.12946 0.574458 -3.51637e-19)
(1.12885 0.556706 2.18157e-19)
(1.12483 0.537146 -1.85082e-20)
(1.11974 0.517561 1.30263e-19)
(1.11464 0.498766 -3.44049e-20)
(1.10991 0.481061 7.65875e-20)
(1.10568 0.464502 9.53797e-20)
(1.10198 0.449054 -5.57972e-20)
(1.09887 0.434654 6.28498e-20)
(1.09646 0.421267 -8.35074e-20)
(1.0948 0.409028 2.15506e-19)
(1.09382 0.398169 -1.29232e-19)
(1.09401 0.387628 9.23788e-20)
(0.223248 0.123566 -2.12572e-19)
(0.557049 0.319655 -3.96395e-19)
(0.791024 0.462705 -2.73497e-19)
(0.942326 0.551109 -1.87392e-20)
(1.03101 0.595173 6.44179e-20)
(1.07718 0.60838 -3.54086e-20)
(1.09746 0.602691 -2.28249e-19)
(1.10361 0.58693 -9.77346e-20)
(1.10293 0.566759 -1.7506e-19)
(1.0995 0.545383 -8.01768e-20)
(1.09533 0.524402 4.08252e-20)
(1.09128 0.504497 -1.93255e-19)
(1.08763 0.485877 -4.13881e-20)
(1.08443 0.468544 -3.88793e-20)
(1.08167 0.452425 -1.26884e-19)
(1.07942 0.437435 5.56903e-20)
(1.07778 0.423532 4.81428e-21)
(1.07683 0.410846 4.70562e-20)
(1.07654 0.399604 -1.99162e-20)
(1.07746 0.388791 -5.93225e-20)
(0.225868 0.13599 4.91228e-19)
(0.556494 0.344877 4.2754e-19)
(0.78345 0.490923 5.24658e-19)
(0.927155 0.577034 -5.46612e-20)
(1.00963 0.616775 -1.84193e-19)
(1.05171 0.62549 5.51104e-19)
(1.06991 0.615979 -2.67232e-19)
(1.07547 0.597263 2.91794e-19)
(1.07516 0.574888 -5.16466e-20)
(1.07263 0.551861 1.72479e-19)
(1.06961 0.529605 1.99113e-20)
(1.06678 0.508677 7.32652e-20)
(1.06435 0.48921 -1.57753e-20)
(1.06231 0.471156 6.77315e-20)
(1.06063 0.454413 -4.50321e-20)
(1.05934 0.438873 8.43e-21)
(1.05855 0.424481 2.35088e-20)
(1.05837 0.411361 3.19767e-20)
(1.05885 0.399738 -3.15539e-22)
(1.06053 0.388707 7.66754e-21)
(0.226655 0.147991 -1.50138e-19)
(0.551965 0.368541 -4.1794e-19)
(0.771148 0.516685 -2.53544e-19)
(0.907411 0.600059 -4.39345e-19)
(0.98429 0.635416 4.65393e-19)
(1.02302 0.639809 -3.17645e-19)
(1.03979 0.626738 1.97462e-19)
(1.04528 0.605327 -7.14166e-20)
(1.04573 0.580965 -7.77316e-20)
(1.04436 0.556452 -5.35287e-20)
(1.04267 0.533041 2.85061e-20)
(1.04122 0.511176 2.66975e-20)
(1.04014 0.490925 1.17346e-20)
(1.03939 0.472201 -2.72576e-20)
(1.0389 0.454877 -5.36935e-21)
(1.03868 0.438825 2.08082e-20)
(1.03884 0.423973 -1.65218e-20)
(1.03951 0.410427 1.47454e-20)
(1.0408 0.39843 8.42507e-21)
(1.04328 0.387258 2.04878e-20)
(0.225614 0.159365 6.52768e-19)
(0.543616 0.39028 3.04026e-19)
(0.754427 0.539641 2.84667e-19)
(0.883491 0.619907 -1.6549e-19)
(0.955396 0.650892 1.84396e-20)
(0.991464 0.651184 2.2923e-19)
(1.00741 0.634841 2.64984e-20)
(1.01329 0.611006 4.77199e-20)
(1.0148 0.584878 4.80585e-20)
(1.01481 0.559044 -5.93004e-21)
(1.01461 0.534596 1.06008e-20)
(1.01465 0.511878 -1.13539e-20)
(1.01503 0.490901 -1.5761e-20)
(1.01569 0.47155 4.1328e-21)
(1.01653 0.453677 6.9278e-21)
(1.01752 0.437141 4.51503e-21)
(1.01873 0.421848 -8.25877e-21)
(1.02032 0.407877 -1.00306e-21)
(1.02249 0.395511 4.10282e-20)
(1.02582 0.384293 -3.88211e-20)
(0.222783 0.169915 -4.60123e-19)
(0.531657 0.409759 -3.95696e-19)
(0.733638 0.559478 1.84158e-19)
(0.855812 0.636339 -2.21276e-19)
(0.923363 0.663031 -1.80129e-20)
(0.957417 0.659486 1.85751e-20)
(0.973074 0.640179 -3.08559e-20)
(0.979731 0.6142 -3.09939e-20)
(0.98257 0.586531 -3.78585e-20)
(0.984137 0.559544 -2.61045e-20)
(0.985533 0.534179 -2.81881e-20)
(0.987153 0.510689 3.16868e-20)
(0.989072 0.48904 -2.20726e-21)
(0.991233 0.469096 8.38521e-21)
(0.993528 0.450694 4.75521e-21)
(0.995876 0.433686 -6.10936e-20)
(0.998285 0.417956 -5.28513e-20)
(1.00091 0.403527 -5.69251e-20)
(1.00409 0.390711 -1.09305e-21)
(1.00851 0.379455 8.78785e-20)
(0.218232 0.179454 4.15636e-19)
(0.516344 0.426677 1.989e-20)
(0.709169 0.575927 -4.35224e-20)
(0.824812 0.649155 4.96491e-20)
(0.888612 0.671691 1.34233e-19)
(0.921242 0.664606 -1.04846e-19)
(0.937079 0.642664 1.65359e-20)
(0.944842 0.61483 -3.57462e-20)
(0.949222 0.585848 -1.87937e-20)
(0.95247 0.557879 8.42748e-22)
(0.955543 0.531719 -5.06437e-20)
(0.958788 0.50754 -4.24558e-20)
(0.962286 0.485267 4.67071e-20)
(0.966007 0.464746 -1.72538e-20)
(0.969862 0.445815 -1.84972e-19)
(0.973732 0.42833 1.81566e-19)
(0.977536 0.412157 -1.08364e-19)
(0.981438 0.397188 -6.86461e-20)
(0.986001 0.383656 8.6846e-20)
(0.991999 0.372129 -1.07204e-19)
(0.21206 0.187814 -8.86794e-20)
(0.497978 0.440771 9.61807e-20)
(0.681439 0.588759 4.74605e-20)
(0.79094 0.65819 -6.99467e-20)
(0.851566 0.676758 2.24998e-20)
(0.883308 0.666464 -4.03874e-20)
(0.89973 0.64223 -1.52085e-20)
(0.908868 0.612839 1.82412e-20)
(0.914952 0.582782 -4.76621e-22)
(0.919967 0.554012 -1.10584e-19)
(0.924749 0.527188 2.85291e-20)
(0.929611 0.502401 8.45913e-21)
(0.934657 0.479534 1.31778e-19)
(0.939909 0.458412 -3.35286e-19)
(0.945335 0.438873 3.12232e-19)
(0.950815 0.420804 1.65816e-19)
(0.956217 0.404063 -3.32699e-20)
(0.96178 0.388339 2.71104e-20)
(0.968357 0.373645 2.97422e-19)
(0.976234 0.361502 -1.24071e-19)
(0.204394 0.194844 -2.45547e-20)
(0.47689 0.451817 5.75216e-20)
(0.650886 0.597791 -5.09738e-20)
(0.754659 0.663319 6.61941e-20)
(0.812652 0.67815 -3.60571e-20)
(0.843982 0.665002 3.32192e-20)
(0.861335 0.638833 2.75724e-20)
(0.872069 0.608196 -7.54144e-20)
(0.879977 0.577318 7.54548e-20)
(0.886808 0.54795 5.27029e-20)
(0.89329 0.520624 2.64598e-20)
(0.899706 0.495347 4.2893e-21)
(0.906174 0.471943 1.06361e-19)
(0.91277 0.450186 -1.07127e-19)
(0.919528 0.429875 1.27699e-19)
(0.926381 0.410881 -2.67582e-19)
(0.933244 0.393014 2.98944e-19)
(0.940543 0.375665 -2.56751e-19)
(0.949231 0.358585 -1.73631e-19)
(0.958213 0.345157 2.96185e-19)
(0.195383 0.200413 1.56885e-20)
(0.453442 0.459634 -2.05066e-20)
(0.617968 0.60288 -1.18803e-20)
(0.716433 0.664449 -4.81574e-20)
(0.772296 0.675811 1.40156e-20)
(0.803636 0.660183 4.98543e-21)
(0.822214 0.632447 -1.68707e-19)
(0.83472 0.600885 1.12449e-19)
(0.844543 0.569458 1.11895e-19)
(0.85322 0.539732 -1.56263e-19)
(0.861382 0.512124 1.82804e-19)
(0.869275 0.486572 -7.0011e-20)
(0.877004 0.462846 1.37302e-19)
(0.884645 0.44066 -2.19416e-19)
(0.892246 0.419729 4.56482e-19)
(0.899772 0.399807 -1.0337e-19)
(0.907243 0.380497 -2.85589e-20)
(0.915316 0.360581 2.99934e-19)
(0.924769 0.338168 -1.46097e-19)
(0.930762 0.315699 6.42329e-20)
(0.185191 0.204414 -6.53365e-20)
(0.428012 0.464084 8.46484e-20)
(0.58315 0.603928 -3.3084e-20)
(0.676729 0.661525 5.01168e-20)
(0.730925 0.669711 -2.47685e-20)
(0.762642 0.651988 -1.6681e-19)
(0.782689 0.623059 2.55938e-19)
(0.79711 0.590896 1.74364e-20)
(0.808921 0.559201 -2.73147e-20)
(0.819476 0.529369 4.93574e-21)
(0.829324 0.501727 8.33881e-20)
(0.838677 0.476174 1.43637e-19)
(0.847618 0.452471 8.63618e-20)
(0.85618 0.430345 -2.05199e-19)
(0.864353 0.409551 -5.86258e-20)
(0.872072 0.389899 -1.0587e-20)
(0.879435 0.371131 3.83106e-20)
(0.887018 0.352577 5.05326e-21)
(0.894786 0.333539 4.39026e-19)
(0.898193 0.316095 -3.06559e-19)
(0.173999 0.206759 1.67974e-19)
(0.400992 0.465063 -2.77142e-20)
(0.546898 0.600871 -1.1574e-19)
(0.63601 0.654521 3.80078e-19)
(0.688957 0.659844 7.25705e-20)
(0.721368 0.640419 -2.26572e-19)
(0.743084 0.610668 2.11893e-19)
(0.759531 0.578228 -4.77073e-20)
(0.773387 0.546541 1.87915e-19)
(0.785846 0.516847 8.57241e-20)
(0.797402 0.489394 -4.14796e-19)
(0.808253 0.464049 -4.82859e-20)
(0.818484 0.440564 5.77359e-19)
(0.828129 0.418673 -7.06697e-19)
(0.837168 0.398141 6.53705e-19)
(0.845532 0.378774 2.2636e-19)
(0.85328 0.360301 -8.05606e-19)
(0.860805 0.342163 3.89021e-19)
(0.867939 0.324055 -8.0136e-20)
(0.871264 0.308307 9.34157e-20)
(0.161998 0.207384 -3.02248e-19)
(0.372779 0.462512 -3.11385e-19)
(0.509682 0.593687 2.12872e-19)
(0.594734 0.643445 -2.66513e-19)
(0.646806 0.64623 -7.2741e-19)
(0.680176 0.625495 -2.35478e-20)
(0.703718 0.595288 -2.15633e-19)
(0.722273 0.562887 1.11903e-20)
(0.73821 0.531483 -4.22456e-19)
(0.752589 0.502173 -4.29912e-19)
(0.765857 0.475141 -2.91937e-19)
(0.778206 0.450235 -1.2039e-20)
(0.78973 0.427207 -7.23659e-19)
(0.800476 0.405812 -5.3332e-21)
(0.810448 0.385841 3.5279e-19)
(0.819612 0.367134 -3.51032e-19)
(0.82804 0.349481 -2.70431e-19)
(0.836053 0.332457 2.60314e-19)
(0.843476 0.315881 -1.86868e-19)
(0.847509 0.3016 3.60082e-20)
(0.149384 0.206248 2.40654e-19)
(0.343775 0.456407 1.86995e-19)
(0.471961 0.582392 -6.75983e-21)
(0.553345 0.628333 -1.51636e-19)
(0.604873 0.628913 3.72122e-19)
(0.639419 0.607254 5.96395e-19)
(0.664907 0.576947 -6.16789e-20)
(0.685622 0.544891 1.15793e-20)
(0.703662 0.51403 1.16984e-19)
(0.719972 0.485334 2.65052e-19)
(0.734969 0.458931 3.83862e-19)
(0.748848 0.434655 -3.10258e-19)
(0.761716 0.412263 3.0705e-19)
(0.773638 0.391521 -1.05078e-19)
(0.784638 0.372233 3.57585e-19)
(0.794714 0.354249 -1.39096e-19)
(0.803966 0.337383 -3.45109e-19)
(0.812716 0.321301 2.08054e-19)
(0.820818 0.305933 -2.96402e-19)
(0.825828 0.292839 -3.37189e-19)
(0.136358 0.203333 1.05549e-19)
(0.314375 0.446762 1.92904e-19)
(0.434185 0.567036 -2.03159e-19)
(0.512277 0.609254 9.61285e-21)
(0.563545 0.607961 3.49095e-20)
(0.599438 0.585754 2.81666e-19)
(0.626951 0.555692 -4.16916e-19)
(0.649852 0.524272 3.96477e-19)
(0.669993 0.494203 -3.79376e-20)
(0.688227 0.466336 1.08571e-19)
(0.704951 0.440755 1.74794e-19)
(0.72037 0.417284 -3.33205e-19)
(0.734611 0.395686 1.60014e-19)
(0.747763 0.375739 1.51923e-19)
(0.759876 0.357263 5.60235e-20)
(0.770977 0.340115 -2.87372e-19)
(0.781193 0.324122 9.68088e-19)
(0.790841 0.308997 -5.41651e-19)
(0.799771 0.294709 9.84844e-19)
(0.805815 0.282543 -6.38749e-20)
(0.123122 0.198639 7.61003e-20)
(0.284968 0.433629 4.54298e-19)
(0.396789 0.547703 1.6099e-19)
(0.471943 0.586306 3.36921e-19)
(0.523194 0.583467 8.76001e-20)
(0.560559 0.561076 -5.37831e-19)
(0.59014 0.531585 8.33867e-19)
(0.615224 0.501079 4.31809e-19)
(0.637444 0.472036 1.80798e-20)
(0.65758 0.445199 5.59718e-19)
(0.676015 0.420616 9.02301e-20)
(0.692968 0.398104 5.86905e-20)
(0.70859 0.377433 3.34999e-19)
(0.722991 0.358392 -1.25155e-19)
(0.736248 0.340807 -1.32305e-19)
(0.748418 0.324543 7.81087e-19)
(0.759653 0.309435 -6.53033e-19)
(0.770259 0.295236 2.53348e-20)
(0.78008 0.281928 8.26623e-19)
(0.787185 0.27057 -7.88198e-22)
(0.109873 0.192191 -9.73613e-19)
(0.255929 0.417088 -1.65187e-19)
(0.360191 0.524511 -2.2298e-19)
(0.43274 0.559615 -1.70146e-19)
(0.484171 0.555549 -4.31025e-19)
(0.523092 0.533321 1.47588e-19)
(0.554749 0.504711 -2.06438e-19)
(0.581984 0.47538 5.93713e-20)
(0.606242 0.447581 -2.98802e-19)
(0.628236 0.421962 -2.8325e-19)
(0.648348 0.398539 5.85579e-20)
(0.666813 0.377126 -4.58276e-19)
(0.683802 0.357501 3.65774e-19)
(0.699452 0.339464 -1.32149e-19)
(0.713861 0.322849 4.14927e-19)
(0.727114 0.307522 -8.9528e-19)
(0.739378 0.293328 -1.69904e-19)
(0.750947 0.280048 -3.21381e-19)
(0.761659 0.267668 -8.63844e-19)
(0.769814 0.257047 -1.3919e-19)
(0.0968036 0.18403 1.589e-19)
(0.227618 0.397256 -1.89881e-20)
(0.324788 0.49761 -2.44639e-19)
(0.395042 0.529334 8.63624e-20)
(0.446812 0.524348 -1.74636e-19)
(0.487331 0.502614 -2.30945e-21)
(0.521036 0.475176 2.38091e-19)
(0.550366 0.447264 -3.5527e-19)
(0.576594 0.420913 1.38813e-19)
(0.600387 0.396685 -8.02499e-20)
(0.622122 0.37457 2.16664e-20)
(0.642055 0.354383 -3.97877e-19)
(0.660379 0.335913 -4.84383e-19)
(0.67725 0.318968 -1.8336e-20)
(0.692792 0.303389 5.40038e-19)
(0.707108 0.289047 2.53538e-20)
(0.720381 0.275796 6.84044e-19)
(0.732885 0.263441 -9.9698e-19)
(0.744466 0.251967 5.30747e-19)
(0.753646 0.242057 9.14496e-19)
(0.0841002 0.174219 -1.38261e-19)
(0.200377 0.374277 7.42838e-20)
(0.290952 0.46718 4.83204e-19)
(0.359199 0.495644 1.1927e-19)
(0.411426 0.490032 -1.60978e-19)
(0.453548 0.469099 1.27003e-19)
(0.489244 0.443105 5.00128e-19)
(0.520585 0.416838 -4.05765e-19)
(0.548699 0.392125 3.77303e-20)
(0.574208 0.369448 -1.48213e-19)
(0.597497 0.348779 5.36265e-19)
(0.618836 0.329936 3.83287e-19)
(0.638441 0.312719 -5.5563e-20)
(0.656489 0.296946 -5.82507e-19)
(0.673121 0.282469 3.07782e-20)
(0.688462 0.269162 -7.19874e-20)
(0.7027 0.256888 3.42796e-19)
(0.716093 0.245476 5.58066e-19)
(0.728503 0.234905 4.87822e-19)
(0.738667 0.225707 -8.14931e-19)
(0.0719393 0.162836 -8.6442e-20)
(0.174529 0.348324 3.68983e-19)
(0.259034 0.433425 -3.59937e-19)
(0.32554 0.458752 5.00376e-19)
(0.378305 0.452787 -2.72293e-19)
(0.421998 0.432944 1.95163e-19)
(0.459599 0.408645 4.96102e-19)
(0.492845 0.384232 -5.96656e-19)
(0.522736 0.361331 2.71915e-19)
(0.549864 0.340353 3.44479e-19)
(0.574618 0.321255 -4.68478e-19)
(0.597286 0.303864 -3.34298e-20)
(0.618103 0.287992 -3.76471e-19)
(0.637263 0.273469 6.0374e-19)
(0.654927 0.260154 -3.27737e-19)
(0.671236 0.24793 3.52117e-19)
(0.686381 0.236672 -6.38532e-20)
(0.700605 0.226228 2.17822e-19)
(0.713792 0.216569 4.96577e-20)
(0.72489 0.208101 -1.27279e-19)
(0.0604869 0.149976 -2.64771e-19)
(0.150372 0.319597 -6.09634e-19)
(0.229355 0.396582 1.6047e-19)
(0.294363 0.418886 -5.14728e-19)
(0.347715 0.412824 -4.87609e-19)
(0.392916 0.394335 -3.50618e-19)
(0.432307 0.371962 2.73359e-19)
(0.467331 0.349593 2.1033e-19)
(0.498875 0.328663 -1.50798e-21)
(0.527506 0.309519 -1.8362e-19)
(0.553621 0.292108 -3.3128e-19)
(0.577525 0.276269 2.98978e-19)
(0.599469 0.261825 -1.02946e-19)
(0.619665 0.248623 -5.10014e-19)
(0.638289 0.23653 3.32347e-19)
(0.655496 0.225439 -2.49689e-19)
(0.671479 0.215235 -1.01844e-19)
(0.686466 0.205788 -2.85108e-19)
(0.700372 0.197059 -2.58485e-19)
(0.712344 0.189348 6.68478e-20)
(0.0498968 0.135752 2.31311e-19)
(0.12818 0.288318 1.19932e-19)
(0.20221 0.356905 1.83495e-19)
(0.265944 0.376297 -6.2589e-19)
(0.319899 0.370373 6.7056e-19)
(0.366515 0.353479 3.15363e-21)
(0.407559 0.333238 5.47672e-21)
(0.444211 0.313086 -4.09283e-19)
(0.477267 0.294271 3.82332e-19)
(0.507272 0.277083 -2.66022e-19)
(0.53463 0.261465 8.04408e-20)
(0.559663 0.247267 -3.57328e-19)
(0.582638 0.23433 -1.70155e-19)
(0.603782 0.222514 -8.13775e-20)
(0.623282 0.2117 6.1319e-19)
(0.641308 0.201787 -3.01124e-19)
(0.658051 0.192677 -2.71924e-19)
(0.673727 0.184256 2.80036e-19)
(0.688287 0.17648 -2.30015e-19)
(0.701063 0.169561 1.79289e-19)
(0.0403092 0.120287 4.91119e-19)
(0.108201 0.254735 -2.96598e-19)
(0.177864 0.314676 4.44609e-20)
(0.240529 0.331259 5.20081e-19)
(0.295074 0.325683 2.06457e-19)
(0.342986 0.310597 2.56293e-19)
(0.385523 0.292674 2.55241e-19)
(0.423639 0.274893 5.41736e-19)
(0.458049 0.258321 -1.24266e-19)
(0.489285 0.243199 2.96776e-19)
(0.517758 0.229467 4.31628e-19)
(0.543802 0.216991 1.59129e-19)
(0.567701 0.205631 2.88413e-19)
(0.589692 0.195261 1.04744e-19)
(0.609977 0.185777 6.17271e-20)
(0.628734 0.177088 -4.47056e-20)
(0.646155 0.169109 3.58827e-19)
(0.662442 0.161743 2.2145e-19)
(0.677586 0.154943 -2.01248e-19)
(0.691087 0.148853 1.89851e-19)
(0.0318496 0.10372 -3.26023e-19)
(0.090657 0.219111 3.68346e-20)
(0.156552 0.270194 -9.42619e-20)
(0.218334 0.284059 -2.86363e-19)
(0.273433 0.279018 -1.51903e-19)
(0.322499 0.265929 -2.76073e-19)
(0.36635 0.250485 1.2828e-19)
(0.405749 0.235209 -4.96909e-19)
(0.441345 0.220993 2.93561e-19)
(0.473656 0.208031 -4.06325e-19)
(0.503103 0.196269 -2.52541e-19)
(0.530033 0.185587 -3.34497e-19)
(0.554738 0.175865 7.66535e-20)
(0.57747 0.166996 -7.56881e-20)
(0.598441 0.158887 9.06752e-20)
(0.617835 0.151462 4.88536e-20)
(0.635844 0.144648 9.71162e-20)
(0.652661 0.138365 -8.12363e-19)
(0.668315 0.132565 4.04449e-19)
(0.682455 0.12734 -2.425e-19)
(0.0246276 0.0862014 1.07692e-19)
(0.0757383 0.181732 2.17569e-19)
(0.138477 0.223774 -1.42027e-19)
(0.199548 0.235003 3.50789e-19)
(0.255141 0.230656 -5.64384e-20)
(0.305199 0.219725 4.06588e-19)
(0.35017 0.206898 7.85985e-20)
(0.390658 0.194241 -8.26904e-20)
(0.427259 0.182478 3.00945e-19)
(0.460482 0.171758 2.30342e-19)
(0.490754 0.162036 8.5502e-20)
(0.518433 0.15321 1.12527e-19)
(0.543822 0.145181 5.64892e-20)
(0.567181 0.137858 -2.39893e-19)
(0.588731 0.131166 -3.34774e-20)
(0.608664 0.12504 2.50904e-19)
(0.62717 0.119422 -1.71514e-19)
(0.644432 0.114246 -7.89123e-21)
(0.660517 0.109467 -3.598e-19)
(0.675201 0.105141 7.24998e-19)
(0.0187362 0.0678895 2.88694e-19)
(0.0636067 0.142895 -3.46889e-19)
(0.12381 0.175749 1.62707e-19)
(0.184328 0.184411 -2.30423e-19)
(0.240339 0.18089 2.03263e-19)
(0.29121 0.172249 -3.5325e-19)
(0.337094 0.162153 -2.58917e-19)
(0.378466 0.15221 1.94094e-20)
(0.415881 0.142977 -3.53444e-19)
(0.449843 0.134568 -2.20783e-19)
(0.480784 0.126944 -3.82697e-19)
(0.50907 0.120025 -1.29379e-20)
(0.535013 0.113733 -1.48883e-19)
(0.55888 0.107996 3.76893e-19)
(0.5809 0.102754 2.60072e-19)
(0.601269 0.0979575 -8.72856e-20)
(0.620174 0.0935599 -7.89533e-20)
(0.637796 0.0895117 -3.50847e-21)
(0.654231 0.0857737 9.74394e-21)
(0.669359 0.0823766 1.43147e-19)
(0.0142507 0.0489521 -7.22023e-20)
(0.0543924 0.10291 -2.47242e-19)
(0.112688 0.126463 -1.54253e-19)
(0.1728 0.132611 -9.65842e-20)
(0.229138 0.130021 -2.00312e-19)
(0.280631 0.123773 3.43568e-19)
(0.327207 0.116498 -3.67298e-20)
(0.36925 0.109342 -8.28002e-20)
(0.407283 0.102701 3.37871e-21)
(0.441805 0.0966563 2.43804e-19)
(0.473253 0.0911766 -2.31798e-19)
(0.501998 0.086205 2.26938e-19)
(0.528361 0.0816843 1.0666e-19)
(0.552613 0.0775635 -1.9456e-19)
(0.574988 0.0737994 4.25551e-20)
(0.595687 0.0703556 1.25372e-19)
(0.614894 0.0671993 4.37593e-20)
(0.632787 0.0642954 -3.02537e-20)
(0.649487 0.0616136 -2.64267e-19)
(0.664953 0.0591692 2.10484e-19)
(0.011228 0.0295632 6.51155e-20)
(0.0481938 0.0620994 7.90925e-20)
(0.105214 0.0762681 2.22509e-20)
(0.165061 0.0799424 -1.67834e-20)
(0.221622 0.0783581 4.77765e-20)
(0.273535 0.0745787 7.31567e-20)
(0.320579 0.0701866 2.77477e-20)
(0.363072 0.0658707 3.38755e-20)
(0.40152 0.0618675 -7.2267e-20)
(0.436418 0.0582242 1.35406e-19)
(0.468205 0.0549221 -3.20285e-20)
(0.49726 0.0519266 -2.60704e-21)
(0.523904 0.0492031 3.25849e-20)
(0.548414 0.0467208 3.67602e-20)
(0.571027 0.0444537 -9.89594e-20)
(0.591948 0.0423798 6.50477e-20)
(0.611358 0.0404795 4.27206e-20)
(0.629432 0.0387318 3.65063e-20)
(0.64631 0.0371176 7.84022e-20)
(0.662005 0.0356435 3.24876e-20)
(0.00970655 0.00990172 -1.33344e-20)
(0.0450769 0.0207901 2.77177e-20)
(0.101458 0.0255261 -3.88061e-20)
(0.161174 0.0267503 2.43954e-20)
(0.217849 0.0262167 1.43447e-20)
(0.269973 0.0249503 6.43911e-21)
(0.317251 0.0234802 1.51938e-20)
(0.359971 0.0220361 -4.35866e-20)
(0.398627 0.020697 2.78123e-20)
(0.433714 0.0194783 9.71811e-21)
(0.465672 0.0183737 -5.89828e-22)
(0.494882 0.0173718 5.99522e-20)
(0.521668 0.0164608 -1.81814e-20)
(0.546308 0.0156305 -1.74413e-20)
(0.56904 0.0148722 -1.67944e-20)
(0.590071 0.0141786 2.60185e-21)
(0.609583 0.013543 -2.25024e-20)
(0.627749 0.0129586 4.2873e-21)
(0.644717 0.0124188 8.47265e-22)
(0.660526 0.0119253 -2.85949e-21)
(0.0097055 -0.00985091 8.47023e-21)
(0.0450747 -0.0206859 -4.50854e-20)
(0.101456 -0.0253988 5.37746e-20)
(0.161171 -0.0266166 -4.04304e-20)
(0.217845 -0.0260845 -1.88962e-20)
(0.269969 -0.0248228 5.65835e-20)
(0.317248 -0.0233583 4.72429e-21)
(0.359968 -0.0219199 1.32767e-21)
(0.398624 -0.0205861 2.6531e-20)
(0.433711 -0.0193726 1.37366e-20)
(0.465669 -0.0182729 -1.08315e-20)
(0.494879 -0.0172755 -3.80963e-20)
(0.521665 -0.0163688 3.59678e-21)
(0.546305 -0.0155426 -3.34543e-21)
(0.569037 -0.0147882 3.56184e-20)
(0.590068 -0.0140981 -2.14519e-20)
(0.60958 -0.013466 2.94639e-20)
(0.627746 -0.0128848 -4.4179e-20)
(0.644714 -0.012348 5.16722e-23)
(0.660523 -0.0118574 -9.3148e-21)
(0.0112249 -0.0295123 -2.81384e-20)
(0.0481871 -0.0619951 1.41989e-19)
(0.105205 -0.0761407 9.57397e-20)
(0.165051 -0.0798086 6.34003e-20)
(0.221612 -0.0782259 7.92257e-20)
(0.273525 -0.0744512 -1.91966e-20)
(0.320568 -0.0700648 8.79209e-20)
(0.363062 -0.0657545 1.80461e-20)
(0.40151 -0.0617568 -7.8212e-21)
(0.436408 -0.0581186 -6.28534e-20)
(0.468196 -0.0548214 6.52907e-20)
(0.49725 -0.0518305 -8.87392e-20)
(0.523895 -0.0491113 6.45435e-20)
(0.548405 -0.0466332 7.40174e-20)
(0.571018 -0.0443699 9.80336e-20)
(0.591939 -0.0422996 -6.43661e-20)
(0.611349 -0.0404027 1.82526e-20)
(0.629424 -0.0386582 6.81985e-20)
(0.646302 -0.0370471 -6.44971e-20)
(0.661997 -0.0355758 4.8665e-20)
(0.0142454 -0.048901 -2.72072e-19)
(0.0543812 -0.102806 -1.36724e-19)
(0.112673 -0.126335 -1.52099e-19)
(0.172784 -0.132477 -1.20019e-20)
(0.229121 -0.129889 -8.21039e-20)
(0.280614 -0.123646 -1.00715e-19)
(0.327191 -0.116376 1.78109e-19)
(0.369234 -0.109226 9.08574e-20)
(0.407266 -0.102591 1.12099e-19)
(0.441789 -0.096551 -1.21751e-19)
(0.473236 -0.0910762 9.03022e-20)
(0.501983 -0.0861092 1.10347e-19)
(0.528345 -0.0815928 3.89273e-20)
(0.552598 -0.0774761 -3.69991e-20)
(0.574973 -0.0737159 8.0134e-21)
(0.595672 -0.0702757 -1.59428e-20)
(0.61488 -0.0671229 -1.56775e-19)
(0.632773 -0.0642222 2.4243e-20)
(0.649473 -0.0615435 1.52527e-19)
(0.66494 -0.0591019 -2.04923e-19)
(0.0187288 -0.0678382 -8.95859e-20)
(0.0635909 -0.14279 1.32694e-19)
(0.12379 -0.175621 3.07429e-20)
(0.184305 -0.184277 -5.7424e-20)
(0.240316 -0.180758 -1.62466e-19)
(0.291186 -0.172121 -3.48333e-19)
(0.33707 -0.162032 -3.31776e-19)
(0.378442 -0.152094 -2.39528e-20)
(0.415858 -0.142867 -1.93278e-19)
(0.44982 -0.134463 -2.89254e-19)
(0.480761 -0.126844 2.24533e-19)
(0.509047 -0.11993 -3.31181e-19)
(0.534991 -0.113642 6.60701e-20)
(0.558859 -0.107909 -2.1035e-20)
(0.580878 -0.102671 -6.96375e-20)
(0.601248 -0.0978782 -8.81302e-20)
(0.620154 -0.0934841 1.42879e-19)
(0.637776 -0.0894391 1.14305e-19)
(0.654211 -0.0857042 1.96611e-19)
(0.66934 -0.08231 -2.94226e-19)
(0.0246179 -0.0861498 4.85857e-20)
(0.0757179 -0.181626 4.72251e-19)
(0.138451 -0.223646 1.35304e-19)
(0.199519 -0.234869 3.27235e-19)
(0.255111 -0.230524 -1.22331e-19)
(0.305168 -0.219598 1.884e-19)
(0.35014 -0.206777 -5.93509e-20)
(0.390628 -0.194126 3.82527e-19)
(0.427229 -0.182368 -1.9694e-19)
(0.460453 -0.171654 2.32205e-19)
(0.490725 -0.161936 2.01711e-19)
(0.518404 -0.153115 2.15973e-19)
(0.543794 -0.14509 -1.93319e-19)
(0.567153 -0.137772 1.66099e-19)
(0.588704 -0.131084 -2.30917e-19)
(0.608638 -0.124962 -6.35774e-20)
(0.627143 -0.119347 -1.52403e-19)
(0.644406 -0.114174 -6.47617e-20)
(0.660492 -0.109398 2.56844e-19)
(0.675177 -0.105075 -4.25316e-19)
(0.0318375 -0.103668 -1.95555e-19)
(0.0906317 -0.219005 -2.26902e-20)
(0.15652 -0.270065 -7.79692e-20)
(0.218298 -0.283924 -2.74113e-19)
(0.273395 -0.278886 4.65761e-20)
(0.322461 -0.265802 -4.29599e-19)
(0.366312 -0.250364 -1.8078e-19)
(0.405711 -0.235094 -1.40089e-20)
(0.441308 -0.220884 -4.55048e-19)