/*--------------------------------*- C++ -*----------------------------------*\
  =========                 |
  \\      /  F ield         | OpenFOAM: The Open Source CFD Toolbox
   \\    /   O peration     | Website:  https://openfoam.org
    \\  /    A nd           | Version:  6.0
     \\/     M anipulation  |
\*---------------------------------------------------------------------------*/
FoamFile
{
    version     2.0;
    format      ascii;
    class       surfaceScalarField;
    location    "30";
    object      phi;
}
// * * * * * * * * * * * * * * * * * * * * * * * * * * * * * * * * * * * * * //

dimensions      [0 3 -1 0 0 0 0];

internalField   nonuniform List<scalar> 
15760
(
-2.61206e-06
2.36861e-06
2.43454e-07
-9.26863e-06
6.08364e-06
5.72918e-07
-1.90062e-05
8.9493e-06
7.88246e-07
-3.10241e-05
1.10983e-05
9.19589e-07
-4.4672e-05
1.26575e-05
9.90425e-07
-5.94357e-05
1.37446e-05
1.0191e-06
-7.49218e-05
1.44664e-05
1.01972e-06
-9.08435e-05
1.49187e-05
1.00296e-06
-0.000107007
1.51864e-05
9.76711e-07
-0.000123298
1.53447e-05
9.46691e-07
-0.000139674
1.54592e-05
9.16898e-07
-0.000156151
1.55866e-05
8.90021e-07
-0.000172794
1.57751e-05
8.67729e-07
-0.000189709
1.60642e-05
8.50905e-07
-0.000207034
1.64853e-05
8.39816e-07
-0.000224929
1.70612e-05
8.34228e-07
-0.000243569
1.78067e-05
8.3345e-07
-0.000263134
1.87282e-05
8.36403e-07
-0.000283802
1.98262e-05
8.41842e-07
2.11017e-05
8.48466e-07
-0.000305752
-2.60844e-06
4.97705e-06
-9.25165e-06
1.27268e-05
-1.89626e-05
1.86603e-05
-3.09372e-05
2.30729e-05
-4.45214e-05
2.62417e-05
-5.9197e-05
2.84202e-05
-7.45661e-05
2.98356e-05
-9.03368e-05
3.06894e-05
-0.000106309
3.11591e-05
-0.000122365
3.14001e-05
-0.000138453
3.15479e-05
-0.000154586
3.17189e-05
-0.000170823
3.2012e-05
-0.000187267
3.25086e-05
-0.000204055
3.32731e-05
-0.000221346
3.43527e-05
-0.000239318
3.57782e-05
-0.000258153
3.75631e-05
-0.000278035
3.97082e-05
4.22147e-05
-0.000299148
-2.60017e-06
7.57723e-06
-9.21423e-06
1.93409e-05
-1.8869e-05
2.83151e-05
-3.07541e-05
3.49579e-05
-4.42089e-05
3.96965e-05
-5.87077e-05
4.2919e-05
-7.38442e-05
4.49721e-05
-8.93164e-05
4.61616e-05
-0.000104914
4.67564e-05
-0.000120505
4.69916e-05
-0.00013603
4.70722e-05
-0.000151486
4.71752e-05
-0.000166926
4.74518e-05
-0.000182445
4.80277e-05
-0.000198175
4.90037e-05
-0.000214278
5.04553e-05
-0.000230933
5.24329e-05
-0.00024833
5.49607e-05
-0.000266665
5.8043e-05
6.16828e-05
-0.000286133
-2.58836e-06
1.01656e-05
-9.15944e-06
2.5912e-05
-1.87312e-05
3.78868e-05
-3.04843e-05
4.67111e-05
-4.37493e-05
5.29615e-05
-5.79905e-05
5.71601e-05
-7.27893e-05
5.97709e-05
-8.78299e-05
6.12022e-05
-0.000102886
6.1812e-05
-0.000117808
6.19138e-05
-0.000132517
6.17815e-05
-0.000146995
6.16536e-05
-0.000161279
6.17357e-05
-0.000175453
6.22014e-05
-0.000189642
6.31927e-05
-0.000204006
6.48194e-05
-0.000218731
6.71579e-05
-0.00023402
7.02493e-05
-0.000250083
7.41068e-05
7.87381e-05
-0.000267139
-2.57425e-06
1.27398e-05
-9.09059e-06
3.24283e-05
-1.85551e-05
4.73513e-05
-3.01379e-05
5.82939e-05
-4.3159e-05
6.59826e-05
-5.70707e-05
7.10718e-05
-7.14402e-05
7.41405e-05
-8.59342e-05
7.56963e-05
-0.000100306
7.61835e-05
-0.000114383
7.59913e-05
-0.000128063
7.54614e-05
-0.000141303
7.4894e-05
-0.000154119
7.45511e-05
-0.000166576
7.46588e-05
-0.00017879
7.54067e-05
-0.000190918
7.6947e-05
-0.000203151
7.93915e-05
-0.00021571
8.28077e-05
-0.00022883
8.72265e-05
9.26668e-05
-0.000242758
-2.55884e-06
1.52987e-05
-9.00996e-06
3.88794e-05
-1.83446e-05
5.66859e-05
-2.97212e-05
6.96705e-05
-4.24486e-05
7.871e-05
-5.59668e-05
8.459e-05
-6.98279e-05
8.80015e-05
-8.36792e-05
8.95475e-05
-9.72499e-05
8.97542e-05
-0.000110341
8.90828e-05
-0.00012282
8.79399e-05
-0.000134612
8.66862e-05
-0.000145703
8.56422e-05
-0.000156135
8.50905e-05
-0.000166005
8.52763e-05
-0.000175462
8.64045e-05
-0.000184706
8.86349e-05
-0.000193974
9.20759e-05
-0.000203537
9.67898e-05
0.000102818
-0.000213688
-2.54242e-06
1.78411e-05
-8.91726e-06
4.52543e-05
-1.80981e-05
6.58667e-05
-2.92312e-05
8.08036e-05
-4.16154e-05
9.10941e-05
-5.46792e-05
9.76539e-05
-6.79602e-05
0.000101282
-8.10863e-05
0.000102674
-9.37619e-05
0.00010243
-0.000105758
0.000101079
-0.000116904
9.90866e-05
-0.000127091
9.68725e-05
-0.000136263
9.48148e-05
-0.000144429
9.32564e-05
-0.000151658
9.25055e-05
-0.000158086
9.28325e-05
-0.000163913
9.44619e-05
-0.0001694
9.75624e-05
-0.000174859
0.000102249
0.000108606
-0.000180647
-2.52408e-06
2.03652e-05
-8.80819e-06
5.15384e-05
-1.78057e-05
7.48642e-05
-2.86511e-05
9.1649e-05
-4.06348e-05
0.000103078
-5.31769e-05
0.000110196
-6.58032e-05
0.000113909
-7.81244e-05
0.000114995
-8.98208e-05
0.000114126
-0.000100632
0.000111889
-0.000110349
0.000108804
-0.000118817
0.000105341
-0.000125935
0.000101933
-0.000131663
9.89845e-05
-0.000136032
9.68742e-05
-0.00013915
9.59505e-05
-0.00014121
9.65228e-05
-0.000142495
9.88467e-05
-0.000143367
0.000103122
0.000109504
-0.000144266
-2.50147e-06
2.28666e-05
-8.67343e-06
5.77104e-05
-1.74466e-05
8.36374e-05
-2.79448e-05
0.000102147
-3.94529e-05
0.000114586
-5.13864e-05
0.00012213
-6.32638e-05
0.000125786
-7.46835e-05
0.000126414
-8.53056e-05
0.000124748
-9.48402e-05
0.000121424
-0.000103041
0.000117004
-0.000109703
0.000112003
-0.00011467
0.0001069
-0.000117845
0.000102159
-0.000119201
9.82305e-05
-0.000118803
9.55529e-05
-0.000116823
9.45428e-05
-0.000113553
9.5576e-05
-0.000109411
9.89803e-05
0.000105035
-0.000104942
-2.47062e-06
2.53373e-05
-8.49812e-06
6.37379e-05
-1.69884e-05
9.21276e-05
-2.70552e-05
0.000112214
-3.7981e-05
0.000125512
-4.91815e-05
0.00013333
-6.01739e-05
0.000136779
-7.05511e-05
0.000136792
-7.99603e-05
0.000134158
-8.80889e-05
0.000129552
-9.46557e-05
0.000123571
-9.94096e-05
0.000116757
-0.000102135
0.000109625
-0.000102664
0.000102688
-0.000100898
9.6465e-05
-9.68362e-05
9.14908e-05
-9.06025e-05
8.83091e-05
-8.24807e-05
8.74542e-05
-7.29409e-05
8.94405e-05
9.47482e-05
-6.26538e-05
-2.42621e-06
2.77635e-05
-8.26237e-06
6.9574e-05
-1.63869e-05
0.000100252
-2.59036e-05
0.000121731
-3.60945e-05
0.000135703
-4.63795e-05
0.000143615
-5.62812e-05
0.00014668
-6.5395e-05
0.000145905
-7.33651e-05
0.000142128
-7.98669e-05
0.000136054
-8.45953e-05
0.0001283
-8.72601e-05
0.000119421
-8.75896e-05
0.000109955
-8.53432e-05
0.000100442
-8.03358e-05
9.14577e-05
-7.24745e-05
8.36294e-05
-6.18055e-05
7.76402e-05
-4.85705e-05
7.42192e-05
-3.32691e-05
7.4139e-05
7.81917e-05
-1.67126e-05
-2.362e-06
3.01255e-05
-7.94272e-06
7.51547e-05
-1.55893e-05
0.000107899
-2.43932e-05
0.000130535
-3.3636e-05
0.000144945
-4.27439e-05
0.000152723
-5.12494e-05
0.000155186
-5.87581e-05
0.000153414
-6.4922e-05
0.000148292
-6.94184e-05
0.000140551
-7.19346e-05
0.000130816
-7.21587e-05
0.000119645
-6.97778e-05
0.000107574
-6.44868e-05
9.51507e-05
-5.60115e-05
8.29823e-05
-4.41492e-05
7.17672e-05
-2.88321e-05
6.2323e-05
-1.02115e-05
5.55986e-05
1.12285e-05
5.2699e-05
5.4878e-05
3.45423e-05
-2.27168e-06
3.23971e-05
-7.51443e-06
8.03975e-05
-1.45379e-05
0.000114922
-2.24158e-05
0.000138413
-3.0425e-05
0.000152954
-3.79959e-05
0.000160294
-4.46714e-05
0.000161861
-5.00712e-05
0.000158814
-5.38635e-05
0.000152084
-5.5742e-05
0.000142429
-5.54065e-05
0.00013048
-5.25485e-05
0.000116788
-4.68433e-05
0.000101869
-3.79491e-05
8.62565e-05
-2.55214e-05
7.05547e-05
-9.24997e-06
5.54957e-05
1.10733e-05
4.19998e-05
3.54431e-05
3.12288e-05
6.34663e-05
2.46758e-05
2.4235e-05
9.41092e-05
-2.14981e-06
3.45469e-05
-6.9544e-06
8.52021e-05
-1.31762e-05
0.000121144
-1.98612e-05
0.000145098
-2.62718e-05
0.000159365
-3.18344e-05
0.000165856
-3.60957e-05
0.000166123
-3.86862e-05
0.000161404
-3.92926e-05
0.00015269
-3.76333e-05
0.00014077
-3.34389e-05
0.000126286
-2.64347e-05
0.000109783
-1.63246e-05
9.17585e-05
-2.78059e-06
7.27125e-05
1.45596e-05
5.32145e-05
3.60737e-05
3.39816e-05
6.20992e-05
1.59743e-05
9.28172e-05
5.10735e-07
0.000128026
-1.05326e-05
-1.44571e-05
0.000166718
-1.99264e-06
3.65396e-05
-6.24371e-06
8.94532e-05
-1.14541e-05
0.000126354
-1.66265e-05
0.00015027
-2.09933e-05
0.000163732
-2.39607e-05
0.000168824
-2.50632e-05
0.000167225
-2.39289e-05
0.00016027
-2.02524e-05
0.000149014
-1.37743e-05
0.000134292
-4.26415e-06
0.000116776
8.49588e-06
9.70232e-05
2.47286e-05
7.55258e-05
4.46811e-05
5.27599e-05
6.86448e-05
2.92508e-05
9.69661e-05
5.6603e-06
0.000130029
-1.70886e-05
0.000168178
-3.76381e-05
0.000211491
-5.38459e-05
-6.21536e-05
0.000259188
-1.79857e-06
3.83382e-05
-5.36905e-06
9.30236e-05
-9.33109e-06
0.000130316
-1.26235e-05
0.000153563
-1.44262e-05
0.000165535
-1.41012e-05
0.000168499
-1.11458e-05
0.00016427
-5.15868e-06
0.000154283
4.18235e-06
0.000139673
1.71354e-05
0.000121339
3.39041e-05
0.000100007
5.46457e-05
7.62817e-05
7.9481e-05
5.06904e-05
0.000108512
2.3729e-05
0.000141849
-4.08601e-06
0.000179648
-3.21393e-05
0.000222152
-5.95922e-05
0.000269701
-8.51867e-05
0.000322637
-0.000106782
-0.000120145
0.000380629
-1.56781e-06
3.9906e-05
-4.32205e-06
9.57779e-05
-6.77608e-06
0.00013277
-7.7793e-06
0.000154566
-6.43206e-06
0.000164187
-2.02148e-06
0.000164088
6.02666e-06
0.000156222
1.818e-05
0.00014213
3.48178e-05
0.000123035
5.62378e-05
9.99187e-05
8.26548e-05
7.359e-05
0.000114195
4.4742e-05
0.000150886
1.39987e-05
0.00019266
-1.80445e-05
0.000239357
-5.07831e-05
0.000290767
-8.35496e-05
0.000346698
-0.000115523
0.00040709
-0.000145579
0.000472194
-0.000171887
-0.000190241
0.000542289
-1.30131e-06
4.12073e-05
-3.09609e-06
9.75727e-05
-3.76169e-06
0.000133436
-2.02961e-06
0.000152834
3.11008e-06
0.000159048
1.24792e-05
0.000154719
2.6762e-05
0.000141939
4.65364e-05
0.000122355
7.22876e-05
9.72837e-05
0.000104408
6.77981e-05
0.000143186
3.48126e-05
0.00018878
-8.51956e-07
0.000241191
-3.84123e-05
0.000300223
-7.70772e-05
0.000365449
-0.000116009
0.000436185
-0.000154286
0.000511515
-0.000190853
0.000590392
-0.000224456
0.000672016
-0.000253511
-0.000275656
0.000757431
-9.98764e-07
4.2206e-05
-1.68069e-06
9.82546e-05
-2.54291e-07
0.00013201
4.69672e-06
0.000147883
1.43236e-05
0.000149421
2.9591e-05
0.000139452
5.13302e-05
0.000120199
8.02708e-05
9.34148e-05
0.000117051
6.0503e-05
0.000162216
2.26334e-05
0.000216196
-1.91669e-05
0.000279277
-6.39329e-05
0.000351555
-0.000110691
0.000432867
-0.000158389
0.000522692
-0.000205834
0.000620019
-0.000251612
0.000723173
-0.000294007
0.000829609
-0.000330892
0.00093602
-0.000359922
-0.000382949
0.00104331
-6.56364e-07
4.28624e-05
-5.49374e-08
9.76532e-05
3.79846e-06
0.000128156
1.24969e-05
0.000139184
2.73618e-05
0.000134556
4.95288e-05
0.000117285
8.00047e-05
8.97236e-05
0.000119697
5.3722e-05
0.000169427
1.07735e-05
0.000229921
-3.78605e-05
0.000301802
-9.10482e-05
0.000385571
-0.000147701
0.00048158
-0.000206699
0.000590002
-0.000266812
0.000710774
-0.000326605
0.000843464
-0.000384302
0.000986975
-0.000437518
0.00113857
-0.000482485
0.00129057
-0.000511929
-0.000511839
0.00141947
-2.65458e-07
4.31279e-05
1.81734e-06
9.55704e-05
8.47738e-06
0.000121496
2.15106e-05
0.000126151
4.24313e-05
0.000113635
7.25645e-05
8.71516e-05
0.000113102
4.91862e-05
0.000165128
1.69615e-06
0.000229625
-5.37235e-05
0.00030747
-0.000115705
0.000399429
-0.000183007
0.000506163
-0.000254435
0.000628258
-0.000328795
0.000766305
-0.000404859
0.000921056
-0.000481356
0.00109374
-0.000556982
0.0012866
-0.000630386
0.00150425
-0.000700135
0.00175752
-0.000765193
-0.000823758
0.00206944
1.91248e-07
4.29366e-05
3.99497e-06
9.17666e-05
1.39022e-05
0.000111589
3.19326e-05
0.00010812
5.98076e-05
8.57602e-05
9.90444e-05
4.79148e-05
0.000151003
-2.77259e-06
0.000216901
-6.42018e-05
0.000297804
-0.000134627
0.000394612
-0.000212513
0.000508043
-0.000296438
0.000638639
-0.000385032
0.0007868
-0.000476956
0.000952853
-0.000570912
0.00113719
-0.000665688
0.00134045
-0.000760244
0.00156388
-0.00085382
0.00180981
-0.000946059
0.00208166
-0.00103705
-0.0011197
0.00237761
7.35524e-07
4.22011e-05
6.55168e-06
8.59505e-05
2.02205e-05
9.79202e-05
4.3998e-05
8.4343e-05
7.98145e-05
4.99438e-05
0.000129361
-1.6313e-06
0.000194118
-6.75297e-05
0.000275348
-0.000145433
0.000374066
-0.000233344
0.000490998
-0.000329445
0.000626557
-0.000431997
0.000780837
-0.000539312
0.000953628
-0.000649747
0.00114447
-0.000761752
0.00135271
-0.000873934
0.00157762
-0.000985151
0.00181841
-0.00109461
0.00207429
-0.00120194
0.00234417
-0.00130693
-0.00140109
0.00262556
1.39452e-06
4.08066e-05
9.57441e-06
7.77706e-05
2.75996e-05
7.9895e-05
5.79625e-05
5.39801e-05
0.000102785
5.12138e-06
0.000163885
-6.27313e-05
0.000242778
-0.000146422
0.000340634
-0.000243289
0.000458224
-0.000350934
0.000595859
-0.00046708
0.000753361
-0.000589499
0.000930056
-0.000716007
0.00112481
-0.000844497
0.00133607
-0.000973014
0.00156197
-0.00109983
0.00180036
-0.00122354
0.00204886
-0.00134311
0.00230482
-0.00145791
0.00256542
-0.00156753
-0.00166449
0.00282882
2.19712e-06
3.86094e-05
1.31524e-05
6.68153e-05
3.6204e-05
5.68434e-05
7.40619e-05
1.61222e-05
0.000128995
-4.98121e-05
0.000202865
-0.000136601
0.000297084
-0.000240641
0.00041254
-0.000358744
0.000549513
-0.000487907
0.000707621
-0.000625188
0.000885803
-0.000767681
0.00108235
-0.000912555
0.001295
-0.00105714
0.00152102
-0.00119904
0.00175738
-0.00133619
0.00200083
-0.001467
0.00224801
-0.00159029
0.00249549
-0.00170538
0.00273989
-0.00181193
-0.00190444
0.00297984
3.17062e-06
3.54388e-05
1.7366e-05
5.262e-05
4.61711e-05
2.80382e-05
9.24688e-05
-3.01755e-05
0.000158595
-0.000115938
0.00024632
-0.000224326
0.000356761
-0.000351082
0.000490271
-0.000492255
0.00064636
-0.000643996
0.000823658
-0.000802487
0.00101997
-0.000963992
0.00123238
-0.00112497
0.00145744
-0.0012822
0.00169136
-0.00143296
0.00193023
-0.00157506
0.00217017
-0.00170694
0.00240751
-0.00182764
0.00263886
-0.00193673
0.00286124
-0.00203431
-0.00211698
0.00307378
4.33774e-06
3.11011e-05
2.22761e-05
3.46816e-05
5.75891e-05
-7.2749e-06
0.000113253
-8.58394e-05
0.000191543
-0.000194228
0.00029395
-0.000326733
0.000421042
-0.000478174
0.000572347
-0.00064356
0.000746299
-0.000817949
0.000940292
-0.00099648
0.00115083
-0.00117453
0.00137377
-0.00134791
0.00160463
-0.00151306
0.00183886
-0.00166719
0.00207213
-0.00180833
0.00230053
-0.00193534
0.00252072
-0.00204782
0.00272998
-0.00214599
0.00292628
-0.00223062
-0.00230016
0.00310946
5.71449e-06
2.53866e-05
2.79164e-05
1.24797e-05
7.04792e-05
-4.98376e-05
0.000136351
-0.000151711
0.000227565
-0.000285443
0.000345084
-0.000444252
0.000488628
-0.000621718
0.000656587
-0.000811518
0.000846054
-0.00100742
0.00105302
-0.00120344
0.00127268
-0.00139419
0.00149986
-0.00157508
0.00172935
-0.00174256
0.00195635
-0.00189419
0.00217667
-0.00202865
0.00238696
-0.00214562
0.00258471
-0.00224558
0.00276833
-0.00232961
0.00293701
-0.00239929
-0.00245459
0.00309144
7.30896e-06
1.80776e-05
3.42884e-05
-1.44998e-05
8.47843e-05
-0.000100334
0.000161547
-0.000228474
0.000266131
-0.000390027
0.000398669
-0.00057679
0.000557711
-0.00078076
0.000740218
-0.000994025
0.000941768
-0.00120897
0.00115694
-0.00141862
0.00137983
-0.00161708
0.00160456
-0.00179981
0.00182575
-0.00196375
0.00203889
-0.00210733
0.00224051
-0.00223027
0.00242824
-0.00233336
0.00260079
-0.00241813
0.00275781
-0.00248662
0.00289964
-0.00254113
-0.00258279
0.00302785
9.12083e-06
8.9568e-06
4.13586e-05
-4.67375e-05
0.000100364
-0.000159339
0.000188467
-0.000316577
0.000306454
-0.000508014
0.000453297
-0.000723633
0.00062606
-0.000953523
0.000820074
-0.00118804
0.00102937
-0.00141827
0.00124732
-0.00163657
0.00146728
-0.00183704
0.00168322
-0.00201575
0.00189018
-0.0021707
0.00208445
-0.0023016
0.00226371
-0.00240952
0.00242685
-0.0024965
0.00257384
-0.00256512
0.00270544
-0.00261823
0.00282298
-0.00265867
-0.00268837
0.00292856
1.11412e-05
-2.18441e-06
4.90574e-05
-8.46537e-05
0.000116992
-0.000227273
0.000216584
-0.000416169
0.000347518
-0.000638948
0.000507271
-0.000883386
0.000691179
-0.00113743
0.000892871
-0.00138973
0.00110501
-0.0016304
0.00132011
-0.00185167
0.00153136
-0.0020483
0.00173318
-0.00221757
0.0019215
-0.00235903
0.00209388
-0.00247398
0.0022493
-0.00256494
0.00238794
-0.00263514
0.00251087
-0.00268805
0.00261971
-0.00272707
0.00271637
-0.00275533
-0.00277521
0.00280321
1.33525e-05
-1.55369e-05
5.72795e-05
-0.000128581
0.000134361
-0.000304355
0.000245228
-0.000527036
0.000388117
-0.000781837
0.000558717
-0.00105399
0.000750505
-0.00132922
0.000955524
-0.00159475
0.00116541
-0.00184029
0.00137241
-0.00205866
0.0015701
-0.00224599
0.00175388
-0.00240134
0.00192098
-0.00252613
0.00207035
-0.00262335
0.00220231
-0.0026969
0.00231812
-0.00275095
0.00241963
-0.00278957
0.00250898
-0.00281642
0.00258833
-0.00283468
-0.00284686
0.00265998
1.57282e-05
-3.12651e-05
6.58842e-05
-0.000178737
0.000152087
-0.000390558
0.000273615
-0.000648564
0.000426924
-0.000935146
0.000605713
-0.00123277
0.00080163
-0.00152514
0.00100544
-0.00179856
0.00120828
-0.00204313
0.0014027
-0.00225308
0.00158325
-0.00242654
0.00174666
-0.00256475
0.00189165
-0.00267112
0.00201853
-0.00275023
0.00212869
-0.00280706
0.00222421
-0.00284646
0.00230738
-0.00287274
0.00238053
-0.00288957
0.00244579
-0.00289994
-0.00290629
0.00250523
1.82325e-05
-4.94976e-05
7.46974e-05
-0.000235202
0.000169723
-0.000485583
0.000300882
-0.000779724
0.000462575
-0.00109684
0.000646439
-0.00141664
0.000842513
-0.00172121
0.00104075
-0.0019968
0.0012324
-0.00223478
0.00141088
-0.00243156
0.00157209
-0.00258776
0.00171431
-0.00270697
0.00183767
-0.00279448
0.00194363
-0.00285619
0.0020344
-0.00289782
0.00211246
-0.00292453
0.00218031
-0.00294059
0.00224017
-0.00294944
0.002294
-0.00295376
-0.00295581
0.00234352
2.08205e-05
-7.03181e-05
8.35157e-05
-0.000297897
0.000186773
-0.00058884
0.000326133
-0.000919084
0.00049376
-0.00126447
0.000679323
-0.0016022
0.000871643
-0.00191353
0.00106045
-0.0021856
0.00123766
-0.00241199
0.00139802
-0.00259192
0.00153902
-0.00272875
0.00166041
-0.00282837
0.00176357
-0.00289764
0.0018508
-0.00294341
0.00192476
-0.00297179
0.00198812
-0.00298789
0.00204327
-0.00299573
0.00209223
-0.0029984
0.00213667
-0.0029982
-0.00299708
0.00217795
2.34389e-05
-9.3757e-05
9.21125e-05
-0.000366571
0.00020272
-0.000699448
0.000348496
-0.00106486
0.00051932
-0.00143529
0.000703161
-0.00178604
0.000888141
-0.00209851
0.00106435
-0.00236182
0.00122491
-0.00257255
0.00136612
-0.00273313
0.00148706
-0.0028497
0.00158884
-0.00293014
0.00167374
-0.00298255
0.0017446
-0.00301426
0.00180425
-0.00303145
0.0018553
-0.00303893
0.0018999
-0.00304033
0.00193979
-0.0030383
0.00197633
-0.00303474
-0.0030313
0.00201054
2.6027e-05
-0.000119784
0.000100247
-0.000440791
0.000217048
-0.000816248
0.000367174
-0.00121499
0.000538327
-0.00160644
0.000717189
-0.0019649
0.000891766
-0.00227309
0.00105306
-0.00252311
0.00119571
-0.00271519
0.00131768
-0.0028551
0.00141951
-0.00295153
0.00150335
-0.00301398
0.00157212
-0.00305131
0.00162886
-0.00307101
0.00167639
-0.00307898
0.00171708
-0.00307961
0.00175278
-0.00307604
0.00178495
-0.00307046
0.00181462
-0.00306441
-0.00305925
0.00184257
2.8519e-05
-0.000148303
0.000107677
-0.000519949
0.000229274
-0.000937846
0.000381504
-0.00136722
0.000550142
-0.00177508
0.000721105
-0.00213587
0.000882862
-0.00243484
0.00102775
-0.002668
0.00115208
-0.00283953
0.00125543
-0.00295844
0.00133954
-0.00303564
0.00140732
-0.00308176
0.001462
-0.00310599
0.00150664
-0.00311565
0.00154385
-0.00311619
0.00157569
-0.00311145
0.00160372
-0.00310408
0.00162909
-0.00309583
0.00165261
-0.00308792
-0.00308145
0.00167481
3.08469e-05
-0.00017915
0.000114167
-0.000603269
0.000238979
-0.00106266
0.000390988
-0.00151923
0.000554437
-0.00193853
0.000715042
-0.00229647
0.000862238
-0.00258204
0.000989971
-0.00279574
0.00109626
-0.00294581
0.00118206
-0.00304425
0.00125006
-0.00310364
0.00130362
-0.00313532
0.00134606
-0.00314843
0.00138027
-0.00314987
0.00140857
-0.00314449
0.0014327
-0.00313559
0.00145393
-0.00312531
0.00147315
-0.00311504
0.00149096
-0.00310574
-0.00309825
0.00150775
3.29429e-05
-0.000212093
0.000119505
-0.000689831
0.000245824
-0.00118898
0.000395321
-0.00166872
0.000551189
-0.0020944
0.000699498
-0.00244478
0.000831037
-0.00271358
0.000941488
-0.00290619
0.00103045
-0.00303477
0.00110003
-0.00311383
0.00115356
-0.00315717
0.0011946
-0.00317636
0.00122637
-0.0031802
0.0012515
-0.00317499
0.00127196
-0.00316496
0.00128921
-0.00315283
0.00130423
-0.00314032
0.00131771
-0.00312853
0.00133011
-0.00311813
-0.00310982
0.00134168
3.47468e-05
-0.00024684
0.000123517
-0.000778601
0.000249583
-0.00131504
0.000394403
-0.00181354
0.000540658
-0.00224065
0.000675261
-0.00257938
0.000790615
-0.00282893
0.000884123
-0.00299969
0.000956773
-0.00310742
0.00101155
-0.00316861
0.00105216
-0.00319778
0.00108216
-0.00320635
0.00110454
-0.00320258
0.00112161
-0.00319206
0.00113503
-0.00317838
0.00114596
-0.00316376
0.00115517
-0.00314953
0.00116318
-0.00313654
0.00117034
-0.00312529
-0.0031163
0.00117682
3.61948e-05
-0.000283034
0.000126051
-0.000868458
0.000250107
-0.0014391
0.000388284
-0.00195172
0.000523285
-0.00237565
0.000643261
-0.00269936
0.000742354
-0.00292802
0.000819582
-0.00307692
0.000877079
-0.00316492
0.000918437
-0.00320997
0.000947502
-0.00322685
0.000967689
-0.00322654
0.000981696
-0.00321659
0.000991492
-0.00320186
0.000998436
-0.00318532
0.00100344
-0.00316876
0.0010071
-0.00315319
0.00100981
-0.00313926
0.00101184
-0.00312732
-0.00311776
0.00101329
3.72416e-05
-0.000320276
0.000127018
-0.000958234
0.00024738
-0.00155946
0.000377201
-0.00208154
0.000499705
-0.00249816
0.000604564
-0.00280422
0.000687671
-0.00301113
0.000749479
-0.00313873
0.000793012
-0.00320845
0.000822224
-0.00323918
0.000840937
-0.00324556
0.000852316
-0.00323792
0.000858728
-0.003223
0.000861819
-0.00320495
0.00086268
-0.00318618
0.000862017
-0.00316809
0.000860292
-0.00315147
0.00085781
-0.00313677
0.00085476
-0.00312427
-0.00311422
0.000851225
3.78492e-05
-0.000358125
0.000126369
-0.00104675
0.000241475
-0.00167457
0.000361509
-0.00220157
0.000470645
-0.00260729
0.000560248
-0.00289382
0.000627886
-0.00307877
0.000675229
-0.00318607
0.000705944
-0.00323917
0.000724144
-0.00325738
0.000733494
-0.00325491
0.000736856
-0.00324128
0.00073626
-0.00322241
0.000733057
-0.00320175
0.000728107
-0.00318123
0.000721953
-0.00316194
0.000714948
-0.00314446
0.000707328
-0.00312915
0.000699238
-0.00311618
-0.00310572
0.000690737
3.79913e-05
-0.000396116
0.000124102
-0.00113286
0.000232547
-0.00178301
0.000341648
-0.00231068
0.000436876
-0.00270252
0.000511359
-0.00296831
0.000564201
-0.00313161
0.000598055
-0.00321993
0.000617008
-0.00325812
0.000625169
-0.00326554
0.000625963
-0.0032557
0.000621919
-0.00323724
0.000614749
-0.00321524
0.000605542
-0.00319254
0.000594966
-0.00317066
0.000583433
-0.00315041
0.000571214
-0.00313224
0.000558491
-0.00311643
0.000545382
-0.00310307
-0.00309227
0.000531931
3.7654e-05
-0.00043377
0.000120258
-0.00121547
0.000220816
-0.00188357
0.000318117
-0.00240798
0.000399178
-0.00278358
0.000458878
-0.00302801
0.000497677
-0.00317041
0.000518987
-0.00324124
0.00052712
-0.00326625
0.000526061
-0.00326448
0.00051894
-0.00324858
0.000507954
-0.00322625
0.000494525
-0.00320181
0.000479517
-0.00317753
0.000463439
-0.00315458
0.0004466
-0.00313357
0.000429207
-0.00311485
0.000411405
-0.00309863
0.00039329
-0.00308495
-0.00307388
0.000374904
3.6835e-05
-0.000470605
0.000114913
-0.00129355
0.000206553
-0.00197521
0.000291438
-0.00249286
0.000358301
-0.00285044
0.000403695
-0.0030734
0.000429234
-0.00319595
0.000438879
-0.00325088
0.000437013
-0.00326438
0.000427407
-0.00325488
0.000412872
-0.00323405
0.000395292
-0.00320867
0.000375829
-0.00318235
0.00035516
-0.00315686
0.000333664
-0.00313308
0.000311568
-0.00311147
0.000289028
-0.00309231
0.00026616
-0.00307576
0.000243052
-0.00306184
-0.00305058
0.000219744
3.55431e-05
-0.000506148
0.000108171
-0.00136617
0.000190055
-0.0020571
0.000262137
-0.00256494
0.00031495
-0.00290326
0.0003466
-0.00310505
0.000359654
-0.003209
0.000358434
-0.00324966
0.000347267
-0.00325322
0.00032966
-0.00323727
0.000308098
-0.00321249
0.000284177
-0.00318475
0.000258839
-0.00315701
0.000232603
-0.00313063
0.000205746
-0.00310623
0.000178427
-0.00308415
0.000150758
-0.00306464
0.000122837
-0.00304784
9.47463e-05
-0.00303375
-0.00302236
6.65327e-05
3.37971e-05
-0.000539946
0.000100162
-0.00143254
0.000171639
-0.00212857
0.000230723
-0.00262403
0.00026977
-0.0029423
0.000288285
-0.00312356
0.000289593
-0.00321031
0.000278219
-0.00323829
0.000258342
-0.00323334
0.000233168
-0.0032121
0.000204873
-0.00318419
0.000174794
-0.00315467
0.000143688
-0.0031259
0.000111948
-0.00309889
7.97665e-05
-0.00307405
4.72462e-05
-0.00305163
1.4464e-05
-0.00303186
-1.84993e-05
-0.00301488
-5.15594e-05
-0.00300069
-0.00298926
-8.46588e-05
3.16241e-05
-0.00057157
9.10289e-05
-0.00149194
0.000151621
-0.00218916
0.000197679
-0.00267008
0.00022334
-0.00296797
0.000229347
-0.00312957
0.000219602
-0.00320057
0.000198698
-0.00321738
0.0001706
-0.00320524
0.000138203
-0.0031797
0.000103392
-0.00314938
6.7281e-05
-0.00311856
3.04746e-05
-0.00308909
-6.73273e-06
-0.00306168
-4.42156e-05
-0.00303656
-8.19209e-05
-0.00301393
-0.000119805
-0.00299398
-0.000157801
-0.00297688
-0.000195818
-0.00296268
-0.0029513
-0.00023378
2.90584e-05
-0.000600628
8.09246e-05
-0.00154381
0.000130317
-0.00223856
0.00016345
-0.00270322
0.000176176
-0.00298069
0.000170299
-0.0031237
0.000150138
-0.00318041
0.000120249
-0.00318749
8.43353e-05
-0.00316933
4.4985e-05
-0.00314035
3.8155e-06
-0.00310821
-3.82471e-05
-0.0030765
-8.07191e-05
-0.00304662
-0.000123381
-0.00301902
-0.000166159
-0.00299378
-0.000209044
-0.00297104
-0.000252026
-0.00295099
-0.000295053
-0.00293385
-0.000338022
-0.00291971
-0.00290849
-0.000380831
2.61398e-05
-0.000626768
7.0007e-05
-0.00158768
0.000108026
-0.00227657
0.000128446
-0.00272364
0.00012873
-0.00298097
0.00011158
-0.00310654
8.15851e-05
-0.00315041
4.31829e-05
-0.00314909
-2.0853e-07
-0.00312594
-4.63025e-05
-0.00309425
-9.37188e-05
-0.00306079
-0.000141689
-0.00302853
-0.000189822
-0.00299849
-0.00023795
-0.00297089
-0.000286039
-0.0029457
-0.000334115
-0.00292297
-0.000382207
-0.0029029
-0.000430283
-0.00288578
-0.000478226
-0.00287176
-0.00286082
-0.000525895
2.29122e-05
-0.00064968
5.84345e-05
-0.0016232
8.50327e-05
-0.00230317
9.30393e-05
-0.00273165
8.14031e-05
-0.00296934
5.35658e-05
-0.00307871
1.42697e-05
-0.00311112
-3.22312e-05
-0.00310259
-8.28184e-05
-0.00307535
-0.00013549
-0.00304158
-0.000189077
-0.00300721
-0.000242942
-0.00297466
-0.00029676
-0.00294467
-0.000350395
-0.00291725
-0.000403834
-0.00289226
-0.000457137
-0.00286966
-0.000510376
-0.00284966
-0.000563549
-0.0028326
-0.00061653
-0.00281878
-0.00280823
-0.000669119
1.94229e-05
-0.000669103
4.63632e-05
-0.00165014
6.16039e-05
-0.00231841
5.75631e-05
-0.0027276
3.45449e-05
-0.00294632
-3.41523e-06
-0.00304075
-5.15244e-05
-0.00306301
-0.000105756
-0.00304836
-0.000163295
-0.00301781
-0.000222407
-0.00298247
-0.000282112
-0.0029475
-0.000341881
-0.00291489
-0.000401437
-0.00288512
-0.000460653
-0.00285804
-0.00051952
-0.00283339
-0.000578117
-0.00281107
-0.000636563
-0.00279122
-0.000694907
-0.00277426
-0.00075302
-0.00276067
-0.00275064
-0.000810609
1.57206e-05
-0.000684824
3.39437e-05
-0.00166836
3.79857e-05
-0.00232246
2.23179e-05
-0.00271194
-1.15354e-05
-0.00291247
-5.90766e-05
-0.00299321
-0.000115544
-0.00300654
-0.000177169
-0.00298673
-0.000241439
-0.00295354
-0.000306869
-0.00291704
-0.000372649
-0.00288172
-0.000438346
-0.0028492
-0.000503718
-0.00281974
-0.000568632
-0.00279312
-0.000633053
-0.00276897
-0.000697059
-0.00274706
-0.000760806
-0.00272747
-0.000824411
-0.00271065
-0.000887755
-0.00269733
-0.00268799
-0.000950409
1.1855e-05
-0.000696679
2.13201e-05
-0.00167783
1.44042e-05
-0.00231554
-1.24279e-05
-0.0026851
-5.65651e-05
-0.00286833
-0.000113164
-0.00293661
-0.000177558
-0.00294215
-0.000246257
-0.00291804
-0.000317041
-0.00288276
-0.00038866
-0.00284542
-0.000460462
-0.00280992
-0.000532109
-0.00277755
-0.00060339
-0.00274846
-0.000674161
-0.00272235
-0.000744342
-0.00269879
-0.000813966
-0.00267744
-0.000883198
-0.00265824
-0.00095223
-0.00264162
-0.00102098
-0.00262858
-0.00262007
-0.0010889
7.87532e-06
-0.000704554
8.62769e-06
-0.00167858
-8.93578e-06
-0.00229798
-4.64361e-05
-0.0026476
-0.000100304
-0.00281446
-0.000165449
-0.00287146
-0.000237351
-0.00287024
-0.000312805
-0.00284258
-0.000389874
-0.00280569
-0.000467527
-0.00276777
-0.000545268
-0.00273218
-0.000622853
-0.00269996
-0.000700126
-0.00267119
-0.000776942
-0.00264554
-0.00085317
-0.00262256
-0.000928768
-0.00260184
-0.00100388
-0.00258313
-0.00107878
-0.00256672
-0.00115346
-0.0025539
-0.00254597
-0.00122755
3.82969e-06
-0.000708384
-4.00824e-06
-0.00167074
-3.18506e-05
-0.00227013
-7.94978e-05
-0.00259996
-0.000142543
-0.00275142
-0.00021573
-0.00279827
-0.000294722
-0.00279125
-0.0003766
-0.0027607
-0.000459695
-0.00272259
-0.000543183
-0.00268428
-0.000626718
-0.00264864
-0.000710173
-0.00261651
-0.000793473
-0.00258789
-0.000876516
-0.00256249
-0.000959153
-0.00253992
-0.00104127
-0.00251972
-0.00112296
-0.00250144
-0.00120461
-0.00248508
-0.00128643
-0.00247208
-0.0024634
-0.00136901
-2.36366e-07
-0.000708147
-1.64745e-05
-0.0016545
-5.41796e-05
-0.00223243
-0.000111434
-0.0025427
-0.000183101
-0.00267975
-0.00026383
-0.00271755
-0.000349485
-0.0027056
-0.000437429
-0.00267276
-0.000526239
-0.00263378
-0.000615285
-0.00259524
-0.000704372
-0.00255956
-0.000793508
-0.00252737
-0.000882758
-0.00249864
-0.000972152
-0.0024731
-0.00106164
-0.00245044
-0.0011511
-0.00243026
-0.00124054
-0.002412
-0.0013303
-0.00239531
-0.00142096
-0.00238142
-0.00236914
-0.00151522
-4.28086e-06
-0.000703866
-2.86714e-05
-0.00163011
-7.57866e-05
-0.00218531
-0.000142098
-0.00247639
-0.000221836
-0.00260001
-0.000309607
-0.00262978
-0.000401487
-0.00261372
-0.0004951
-0.00257915
-0.000589244
-0.00253964
-0.000683452
-0.00250103
-0.000777661
-0.00246535
-0.000872014
-0.00243302
-0.000966759
-0.00240389
-0.00106218
-0.00237768
-0.00115856
-0.00235406
-0.00125609
-0.00233273
-0.0013549
-0.00231319
-0.00145553
-0.00229468
-0.00156022
-0.00227673
-0.00227064
-0.00165872
-8.25424e-06
-0.000695612
-4.04946e-05
-0.00159787
-9.65386e-05
-0.00212927
-0.000171352
-0.00240158