/*--------------------------------*- C++ -*----------------------------------*\
  =========                 |
  \\      /  F ield         | OpenFOAM: The Open Source CFD Toolbox
   \\    /   O peration     | Website:  https://openfoam.org
    \\  /    A nd           | Version:  6.0
     \\/     M anipulation  |
\*---------------------------------------------------------------------------*/
FoamFile
{
    version     2.0;
    format      ascii;
    class       surfaceScalarField;
    location    "91";
    object      phi;
}
// * * * * * * * * * * * * * * * * * * * * * * * * * * * * * * * * * * * * * //

dimensions      [0 3 -1 0 0 0 0];

internalField   nonuniform List<scalar> 
24700
(
-4.56914e-06
-2.98828e-06
7.55741e-06
-1.55379e-05
-3.18539e-05
4.28227e-05
-3.10892e-05
-7.53207e-05
9.0872e-05
-4.99306e-05
-0.000127118
0.00014596
-7.10832e-05
-0.000182884
0.000204036
-9.37523e-05
-0.000239845
0.000262514
-0.000117249
-0.000296381
0.000319877
-0.000140947
-0.000351636
0.000375334
-0.000164273
-0.000405196
0.000428522
-0.000186708
-0.000456846
0.000479281
-0.000207795
-0.00050641
0.000527497
-0.000227151
-0.000553663
0.000573019
-0.000244475
-0.000598307
0.000615631
-0.00025955
-0.00063999
0.000655065
-0.000272243
-0.000678344
0.000691037
-0.0002825
-0.000713029
0.000723285
-0.000290335
-0.000743779
0.000751613
-0.00029582
-0.000770434
0.00077592
-0.000299073
-0.000792969
0.000796221
-0.000300235
-0.0008115
0.000812663
-0.000299461
-0.000826296
0.000825522
-0.000296905
-0.000837765
0.000835209
-0.00029271
-0.000846452
0.000842257
-0.000287002
-0.000853039
0.000847331
-0.00085844
0.000851337
-0.000279899
-5.22442e-06
2.23614e-06
-1.77876e-05
-1.92908e-05
-3.56287e-05
-5.74796e-05
-5.72796e-05
-0.000105468
-8.16328e-05
-0.000158531
-0.000107803
-0.000213675
-0.000135038
-0.000269146
-0.000162672
-0.000324001
-0.000190107
-0.000377761
-0.000216802
-0.000430151
-0.000242285
-0.000480928
-0.00026615
-0.000529797
-0.000288069
-0.000576387
-0.000307792
-0.000620268
-0.000325144
-0.000660991
-0.000340031
-0.000698142
-0.000352427
-0.000731383
-0.000362371
-0.00076049
-0.000369955
-0.000785385
-0.000375311
-0.000806145
-0.000378593
-0.000823013
-0.000379971
-0.000836388
-0.000379609
-0.000846814
-0.000377659
-0.000854989
-0.000861837
-0.000374261
-5.76377e-06
7.99992e-06
-1.96578e-05
-5.3967e-06
-3.94248e-05
-3.77127e-05
-6.34511e-05
-8.14412e-05
-9.05218e-05
-0.00013146
-0.000119676
-0.00018452
-0.000150116
-0.000238706
-0.000181147
-0.00029297
-0.000212156
-0.000346753
-0.000242592
-0.000399715
-0.000271968
-0.000451551
-0.000299862
-0.000501903
-0.000325915
-0.000550335
-0.000349835
-0.000596347
-0.000371403
-0.000639423
-0.00039047
-0.000679075
-0.00040696
-0.000714893
-0.000420865
-0.000746584
-0.000432244
-0.000774006
-0.000441209
-0.000797181
-0.000447911
-0.000816311
-0.00045253
-0.000831768
-0.000455257
-0.000844087
-0.000456275
-0.000853972
-0.000862357
-0.000455755
-6.15399e-06
1.41539e-05
-2.10439e-05
9.49319e-06
-4.22812e-05
-1.64754e-05
-6.81465e-05
-5.55759e-05
-9.73435e-05
-0.000102263
-0.000128856
-0.000153008
-0.000161853
-0.00020571
-0.000195625
-0.000259197
-0.000229553
-0.000312825
-0.000263083
-0.000366184
-0.000295724
-0.00041891
-0.000327033
-0.000470594
-0.000356622
-0.000520745
-0.000384157
-0.000568812
-0.000409363
-0.000614217
-0.00043203
-0.000656409
-0.000452019
-0.000694905
-0.000469264
-0.000729339
-0.000483776
-0.000759494
-0.000495636
-0.000785321
-0.000504985
-0.000806962
-0.00051201
-0.000824743
-0.000516929
-0.000839169
-0.00051996
-0.00085094
-0.000860994
-0.000521323
-6.36725e-06
2.05211e-05
-2.1859e-05
2.49849e-05
-4.4034e-05
5.69967e-06
-7.11151e-05
-2.84948e-05
-0.000101755
-7.16232e-05
-0.000134901
-0.000119861
-0.000169705
-0.000170906
-0.000205453
-0.000223449
-0.000241529
-0.000276749
-0.000277386
-0.000330327
-0.000312528
-0.000383769
-0.0003465
-0.000436621
-0.000378888
-0.000488358
-0.000409311
-0.000538388
-0.000437439
-0.00058609
-0.000462991
-0.000630856
-0.000485757
-0.00067214
-0.000505599
-0.000709497
-0.000522467
-0.000742625
-0.000536398
-0.00077139
-0.000547509
-0.00079585
-0.00055599
-0.000816261
-0.000562083
-0.000833076
-0.000566053
-0.00084697
-0.000858865
-0.000568182
-6.38363e-06
2.69048e-05
-2.20393e-05
4.06406e-05
-4.45619e-05
2.82223e-05
-7.21691e-05
-8.87648e-07
-0.000103495
-4.02973e-05
-0.000137473
-8.58828e-05
-0.000173248
-0.000135131
-0.000210113
-0.000186585
-0.000247462
-0.000239401
-0.000284758
-0.000293031
-0.000321512
-0.000347015
-0.000357261
-0.000400872
-0.000391566
-0.000454053
-0.000424009
-0.000505945
-0.000454201
-0.000555898
-0.000481793
-0.000603264
-0.000506493
-0.00064744
-0.000528083
-0.000687907
-0.000546437
-0.000724271
-0.000561533
-0.000756295
-0.000573451
-0.000783932
-0.000582374
-0.000807338
-0.000588566
-0.000826885
-0.000592347
-0.000843189
-0.000857127
-0.000594085
-6.19301e-06
3.30978e-05
-2.15508e-05
5.59984e-05
-4.37966e-05
5.04681e-05
-7.11988e-05
2.65146e-05
-0.000102407
-9.08931e-06
-0.000136359
-5.1931e-05
-0.000172206
-9.92841e-05
-0.000209253
-0.000149537
-0.000246912
-0.000201742
-0.000284662
-0.00025528
-0.000322024
-0.000309653
-0.000358537
-0.00036436
-0.000393747
-0.000418843
-0.000427205
-0.000472487
-0.000458472
-0.000524631
-0.000487132
-0.000574604
-0.000512814
-0.000621758
-0.000535214
-0.000665507
-0.000554121
-0.000705364
-0.000569435
-0.000740981
-0.000581187
-0.00077218
-0.000589538
-0.000798987
-0.000594771
-0.000821652
-0.000597272
-0.000840688
-0.000856886
-0.000597513
-5.79655e-06
3.88943e-05
-2.03922e-05
7.05941e-05
-4.17295e-05
7.18053e-05
-6.81824e-05
5.29675e-05
-9.84485e-05
2.11768e-05
-0.000131489
-1.88903e-05
-0.000166473
-6.43007e-05
-0.000202721
-0.000113289
-0.000239667
-0.000164796
-0.000276811
-0.000218136
-0.00031369
-0.000272775
-0.000349851
-0.000328198
-0.00038484
-0.000383855
-0.000418187
-0.000439139
-0.000449419
-0.000493399
-0.000478066
-0.000545957
-0.000503686
-0.000596138
-0.000525889
-0.000643303
-0.000544374
-0.000686879
-0.000558955
-0.000726399
-0.000569597
-0.000761539
-0.000576424
-0.00079216
-0.00057973
-0.000818345
-0.000579969
-0.000840449
-0.000859114
-0.000577741
-5.20712e-06
4.41014e-05
-1.85976e-05
8.39846e-05
-3.84155e-05
9.16231e-05
-6.31921e-05
7.77441e-05
-9.17043e-05
4.96891e-05
-0.000122954
1.23597e-05
-0.000156135
-3.11198e-05
-0.000190591
-7.88328e-05
-0.000225776
-0.000129611
-0.000261213
-0.000182699
-0.000296462
-0.000237525
-0.000331089
-0.000293571
-0.000364648
-0.000350297
-0.000396668
-0.000407118
-0.000426661
-0.000463407
-0.000454121
-0.000518497
-0.000478552
-0.000571707
-0.000499495
-0.000622361
-0.00051656
-0.000669814
-0.000529474
-0.000713485
-0.000538119
-0.000752894
-0.00054257
-0.00078771
-0.000543115
-0.000817801
-0.00054027
-0.000843294
-0.00086461
-0.000534775
-4.44894e-06
4.85504e-05
-1.62352e-05
9.57709e-05
-3.39727e-05
0.000109361
-5.63948e-05
0.000100166
-8.23864e-05
7.56807e-05
-0.000111006
4.09793e-05
-0.000141479
-6.46815e-07
-0.000173173
-4.71388e-05
-0.000205564
-9.72202e-05
-0.0002382
-0.000150063
-0.000270665
-0.000205061
-0.00030255
-0.000261686
-0.000333432
-0.000319415
-0.000362858
-0.000377692
-0.000390343
-0.000435922
-0.000415375
-0.000493465
-0.00043743
-0.000549652
-0.000455999
-0.000603792
-0.000470625
-0.000655188
-0.000480952
-0.000703159
-0.000486773
-0.000747072
-0.000488095
-0.000786387
-0.000485181
-0.000820715
-0.000478591
-0.000849884
-0.000873995
-0.000469205
-3.55626e-06
5.21066e-05
-1.34044e-05
0.000105619
-2.85773e-05
0.000124533
-4.80463e-05
0.000119635
-7.08281e-05
9.84626e-05
-9.60522e-05
6.62034e-05
-0.000122983
2.62837e-05
-0.000151012
-1.91094e-05
-0.000179638
-6.85947e-05
-0.00020843
-0.000121271
-0.000236999
-0.000176491
-0.000264967
-0.000233718
-0.000291942
-0.000292439
-0.000317505
-0.00035213
-0.000341197
-0.000412229
-0.000362527
-0.000472135
-0.000380975
-0.000531204
-0.000396016
-0.00058875
-0.000407154
-0.00064405
-0.000413965
-0.000696348
-0.000416163
-0.000744874
-0.000413672
-0.000788879
-0.0004067
-0.000827686
-0.000395824
-0.000860761
-0.000887775
-0.000382044
-2.57104e-06
5.46777e-05
-1.02296e-05
0.000113278
-2.2454e-05
0.000136758
-3.84778e-05
0.000135659
-5.74689e-05
0.000117454
-7.86398e-05
8.73743e-05
-0.0001013
4.89437e-05
-0.000124868
4.45852e-06
-0.00014886
-4.46021e-05
-0.000172869
-9.7263e-05
-0.000196528
-0.000152832
-0.000219491
-0.000210755
-0.000241404
-0.000270526
-0.000261892
-0.000331642
-0.000280544
-0.000393577
-0.000296912
-0.000455768
-0.000310513
-0.000517603
-0.000320843
-0.00057842
-0.000327403
-0.00063749
-0.000329736
-0.000694015
-0.000327492
-0.000747119
-0.000320509
-0.000795862
-0.000308918
-0.000839277
-0.000293264
-0.000876414
-0.000906406
-0.000274633
-1.54005e-06
5.62177e-05
-6.85237e-06
0.00011859
-1.58622e-05
0.000145768
-2.8077e-05
0.000147874
-4.28287e-05
0.000132205
-5.94235e-05
0.000103969
-7.72217e-05
6.6742e-05
-9.56703e-05
2.29071e-05
-0.000114304
-2.59679e-05
-0.000132732
-7.88355e-05
-0.00015061
-0.000134954
-0.000167621
-0.000193743
-0.000183451
-0.000254696
-0.000197773
-0.000317321
-0.000210233
-0.000381118
-0.000220446
-0.000445554
-0.000227995
-0.000510054
-0.000232432
-0.000573983
-0.000233294
-0.000636628
-0.000230132
-0.000697176
-0.000222564
-0.000754687
-0.000210357
-0.00080807
-0.000193545
-0.000856088
-0.000172601
-0.000897358
-0.000930374
-0.000148633
-5.114e-07
5.67291e-05
-3.42132e-06
0.0001215
-9.07912e-06
0.000151425
-1.72633e-05
0.000156058
-2.74762e-05
0.000142418
-3.91254e-05
0.000115618
-5.1628e-05
7.92445e-05
-6.44615e-05
3.57406e-05
-7.71789e-05
-1.32505e-05
-8.94024e-05
-6.6612e-05
-0.000100806
-0.00012355
-0.000111098
-0.000183452
-0.000119999
-0.000245795
-0.000127228
-0.000310091
-0.000132495
-0.00037585
-0.000135488
-0.000442562
-0.000135868
-0.000509674
-0.000133273
-0.000576579
-0.000127313
-0.000642587
-0.000117594
-0.000706896
-0.000103742
-0.000768538
-8.54836e-05
-0.000826328
-6.27621e-05
-0.00087881
-3.59357e-05
-0.000924185
-0.000960237
-6.07265e-06
4.68935e-07
5.62602e-05
-8.20124e-08
0.000122051
-2.38027e-06
0.000153724
-6.45937e-06
0.000160137
-1.19905e-05
0.00014795
-1.84866e-05
0.000122114
-2.54264e-05
8.61843e-05
-3.23211e-05
4.26353e-05
-3.87417e-05
-6.82986e-06
-4.43221e-05
-6.10316e-05
-4.87494e-05
-0.000119123
-5.17494e-05
-0.000180452
-5.30723e-05
-0.000244472
-5.24804e-05
-0.000310683
-4.97388e-05
-0.000378592
-4.46084e-05
-0.000447692
-3.68399e-05
-0.000517442
-2.61687e-05
-0.00058725
-1.23101e-05
-0.000656446
5.04042e-06
-0.000724247
2.6194e-05
-0.000789692
5.14211e-05
-0.000851555
8.0845e-05
-0.000908234
0.000114236
-0.000957575
-0.00099663
0.000150629
1.36039e-06
5.48998e-05
3.03343e-06
0.000120378
3.97906e-06
0.000152778
3.93778e-06
0.000160178
3.07915e-06
0.000148808
1.78518e-06
0.000123408
5.12577e-07
8.74569e-05
-2.86166e-07
4.3434e-05
-2.0073e-07
-6.9153e-06
1.12509e-06
-6.23574e-05
3.99587e-06
-0.000121993
8.67321e-06
-0.000185129
1.53857e-05
-0.000251185
2.43374e-05
-0.000319635
3.57139e-05
-0.000389969
4.96873e-05
-0.000461665
6.64205e-05
-0.000534175
8.60731e-05
-0.000606902
0.00010881
-0.000679183
0.000134814
-0.000750251
0.00016429
-0.000819167
0.000197448
-0.000884714
0.000234432
-0.000945218
0.000275128
-0.000998271
-0.00104022
0.00031872
2.13051e-06
5.27693e-05
5.81529e-06
0.000116693
9.78186e-06
0.000148811
1.35849e-05
0.000156375
1.72524e-05
0.000145141
2.10669e-05
0.000119594
2.54207e-05
8.31031e-05
3.07287e-05
3.8126e-05
3.73824e-05
-1.35689e-05
4.57294e-05
-7.07044e-05
5.60696e-05
-0.000132334
6.86576e-05
-0.000197717
8.37075e-05
-0.000266235
0.000101397
-0.000337325
0.000121872
-0.000410443
0.000145242
-0.000485036
0.000171591
-0.000560524
0.000200973
-0.000636284
0.000233427
-0.000711637
0.000268993
-0.000785817
0.000307733
-0.000857907
0.000349746
-0.000926726
0.000395132
-0.000990605
0.000443852
-0.00104699
-0.00109163
0.000495261
2.75692e-06
5.00124e-05
8.18341e-06
0.000111266
1.4864e-05
0.000142131
2.22163e-05
0.000149023
3.01524e-05
0.000137205
3.88662e-05
0.00011088
4.86899e-05
7.32794e-05
6.00025e-05
2.68134e-05
7.31772e-05
-2.67436e-05
8.85549e-05
-8.60822e-05
0.000106434
-0.000150212
0.000127064
-0.000218348
0.000150651
-0.000289822
0.000177351
-0.000364024
0.000207271
-0.000440363
0.000240466
-0.000518231
0.000276939
-0.000596997
0.000316642
-0.000675987
0.000359484
-0.000754479
0.00040535
-0.000831683
0.000454136
-0.000906693
0.000505781
-0.000978371
0.000560284
-0.00104511
0.000617617
-0.00110432
-0.00115131
0.000677296
3.22843e-06
4.6784e-05
1.00919e-05
0.000104403
1.91247e-05
0.000133098
2.96625e-05
0.000138485
4.15325e-05
0.000125335
5.48577e-05
9.75549e-05
6.99189e-05
5.82181e-05
8.70636e-05
9.66869e-06
0.00010665
-4.63297e-05
0.000129013
-0.000108446
0.000154452
-0.000175651
0.000183215
-0.000247111
0.000215496
-0.000322103
0.000251429
-0.000399957
0.00029108
-0.000480014
0.000334444
-0.000561595
0.00038144
-0.000643993
0.000431909
-0.000726456
0.000485625
-0.000808195
0.000542312
-0.00088837
0.000601681
-0.000966062
0.000663483
-0.00104017
0.000727562
-0.00110919
0.000793835
-0.0011706
-0.00121942
0.000861946
3.5453e-06
4.32387e-05
1.15313e-05
9.6417e-05
2.25328e-05
0.000122097
3.58606e-05
0.000125157
5.12938e-05
0.000109901
6.89067e-05
7.9942e-05
8.89424e-05
3.81824e-05
0.000111725
-1.31136e-05
0.000137601
-7.22057e-05
0.000166904
-0.000137749
0.000199931
-0.000208678
0.000236925
-0.000284105
0.000278064
-0.000363241
0.000323448
-0.000445341
0.000373092
-0.000529657
0.000426914
-0.000615417
0.000484732
-0.000701811
0.000546263
-0.000787988
0.000611134
-0.000873066
0.000678894
-0.000956131
0.000749064
-0.00103623
0.000821189
-0.0011123
0.000894924
-0.00118292
0.000970078
-0.00124575
-0.00129572
0.00104637
3.71873e-06
3.95199e-05
1.2528e-05
8.76078e-05
2.51265e-05
0.000109498
4.08574e-05
0.000109427
5.94905e-05
9.12682e-05
8.10777e-05
5.83547e-05
0.000105842
1.34185e-05
0.000134093
-4.13651e-05
0.000166173
-0.000104286
0.000202414
-0.000173989
0.000243105
-0.000249369
0.000288474
-0.000329475
0.00033867
-0.000413436
0.000393738
-0.00050041
0.000453617
-0.000589536
0.000518122
-0.000679922
0.000586944
-0.000770633
0.000659651
-0.000860695
0.000735701
-0.000949115
0.000814463
-0.00103489
0.00089526
-0.00111703
0.000977431
-0.00119447
0.00106043
-0.00126592
0.00114393
-0.00132924
-0.00137944
0.00122765
3.76967e-06
3.57503e-05
1.31411e-05
7.82363e-05
2.70096e-05
9.56297e-05
4.48033e-05
9.16329e-05
6.63225e-05
6.9749e-05
9.1625e-05
3.30521e-05
0.000120932
-1.58883e-05
0.000154552
-7.49853e-05
0.000192825
-0.000142559
0.000236076
-0.00021724
0.000284578
-0.000297871
0.000338525
-0.000383422
0.000398008
-0.000472919
0.000462989
-0.000565391
0.000533292
-0.00065984
0.000608594
-0.000755224
0.000688421
-0.00085046
0.000772163
-0.000944437
0.00085909
-0.00103604
0.000948381
-0.00112418
0.00103917
-0.00120782
0.00113061
-0.00128591
0.00122197
-0.00135728
0.00131275
-0.00142002
-0.00146931
0.00140262
3.72701e-06
3.20233e-05
1.34574e-05
6.8506e-05
2.83412e-05
8.07459e-05
4.79382e-05
7.20358e-05
7.21163e-05
4.5571e-05
0.000100967
4.20149e-06
0.000134728
-4.96494e-05
0.000173716
-0.000113973
0.000218266
-0.00018711
0.000268688
-0.000267661
0.000325217
-0.0003544
0.000387983
-0.000446188
0.000456979
-0.000541915
0.000532042
-0.000640454
0.000612835
-0.000740633
0.000698851
-0.000841239
0.000789416
-0.000941025
0.000883711
-0.00103873
0.000980802
-0.00113313
0.00107968
-0.00122306
0.0011793
-0.00130743
0.00127866
-0.00138527
0.00137693
-0.00145555
0.00147345
-0.00151655
-0.0015637
0.00156784
3.62529e-06
2.8398e-05
1.35837e-05
5.85475e-05
2.93218e-05
6.50078e-05
5.05693e-05
5.07883e-05
7.72934e-05
1.88469e-05
0.000109643
-2.81485e-05
0.000147888
-8.78944e-05
0.000192355
-0.00015844
0.000243368
-0.000238123
0.000301197
-0.00032549
0.000366007
-0.00041921
0.000437821
-0.000518002
0.000516487
-0.000620581
0.000601658
-0.000725624
0.000692787
-0.000831763
0.00078914
-0.000937592
0.000889811
-0.00104169
0.000993759
-0.00114268
0.00109985
-0.00123923
0.00120691
-0.00133011
0.00131374
-0.00141426
0.00141922
-0.00149076
0.00152239
-0.00155872
0.00162257
-0.00161672
-0.00166077
0.00171963
3.50203e-06
2.48959e-05
1.36383e-05
4.84113e-05
3.01764e-05
4.84696e-05
5.30431e-05
2.79217e-05
8.23293e-05
-1.04394e-05
0.00011826
-6.40788e-05
0.000161141
-0.000130776
0.000211305
-0.000208603
0.000269045
-0.000295862
0.000334556
-0.000391001
0.000407888
-0.000492542
0.000488899
-0.000599013
0.00057723
-0.000708912
0.000672293
-0.000820687
0.000773282
-0.000932751
0.000879194
-0.0010435
0.000988877
-0.00115138
0.00110108
-0.00125489
0.00121452
-0.00135267
0.00132793
-0.00144353
0.00144013
-0.00152646
0.00154999
-0.00160062
0.0016564
-0.00166513
0.0017578
-0.00171812
-0.00175527
0.0018523
3.39447e-06
2.15015e-05
1.37406e-05
3.80651e-05
3.1134e-05
3.10762e-05
5.57134e-05
3.34225e-06
8.77084e-05
-4.24344e-05
0.000127426
-0.000103796
0.000175207
-0.000178557
0.000231368
-0.000264765
0.000296137
-0.000360631
0.000369589
-0.000464454
0.000451597
-0.00057455
0.000541789
-0.000689205
0.000639533
-0.000806656
0.000743943
-0.000925097
0.000853904
-0.00104271
0.000968123
-0.00115772
0.0010852
-0.00126845
0.00120368
-0.00137337
0.00132219
-0.00147118
0.00143947
-0.00156081
0.0015545
-0.00164148
0.00166658
-0.0017127
0.00177557
-0.00177412
0.00188292
-0.00182546
-0.0018651
0.00199275
3.33786e-06
1.81636e-05
1.40032e-05
2.73999e-05
3.24096e-05
1.26698e-05
5.89101e-05
-2.31583e-05
9.38751e-05
-7.73993e-05
0.000137688
-0.00014761
0.000190708
-0.000231576
0.000253202
-0.000327259
0.000325284
-0.000432714
0.00040685
-0.00054602
0.000497524
-0.000665224
0.000596637
-0.000788318
0.000703224
-0.000913242
0.000816048
-0.00103792
0.000933662
-0.00116033
0.00105447
-0.00127854
0.00117684
-0.00139082
0.00129916
-0.00149569
0.00141994
-0.00159196
0.00153791
-0.00167878
0.00165208
-0.00175565
0.00176177
-0.00182239
0.00186676
-0.00187911
0.00196746
-0.00192616
-0.00196216
0.00206452
3.36106e-06
1.48025e-05
1.45205e-05
1.62404e-05
3.41847e-05
-6.99448e-06
6.29099e-05
-5.18835e-05
0.000101195
-0.000115685
0.000149483
-0.000195897
0.000208112
-0.000290206
0.000277258
-0.000396405
0.000356859
-0.000512314
0.000446556
-0.000635717
0.000545659
-0.000764327
0.000653134
-0.000895794
0.000767635
-0.00102774
0.000887553
-0.00115784
0.00101111
-0.00128388
0.00113643
-0.00140386
0.0012617
-0.00151609
0.00138521
-0.00161919
0.00150546
-0.00171221
0.00162122
-0.00179455
0.00173158
-0.00186601
0.00183595
-0.00192676
0.00193404
-0.0019772
0.00202576
-0.00201789
-0.00204782
0.00211142
3.48596e-06
1.13166e-05
1.53645e-05
4.36196e-06
3.65963e-05
-2.82264e-05
6.79158e-05
-8.32029e-05
0.000109926
-0.000157695
0.00016309
-0.000249061
0.000227684
-0.0003548
0.000303725
-0.000472446
0.000390904
-0.000599493
0.000488539
-0.000733351
0.000595554
-0.000871342
0.000710505
-0.00101075
0.000831637
-0.00114887
0.000956976
-0.00128318
0.00108444
-0.00141135
0.00121197
-0.00153139
0.00133764
-0.00164175
0.00145972
-0.00174128
0.00157682
-0.00182931
0.00168787
-0.00190559
0.00179214
-0.00197028
0.00188924
-0.00202385
0.00197905
-0.00206702
0.00206172
-0.00210055
-0.0021241
0.00213799
3.72616e-06
7.59042e-06
1.65804e-05
-8.49231e-06
3.97286e-05
-5.13745e-05
7.40454e-05
-0.00011752
0.000120197
-0.000203846
0.00017862
-0.000307484
0.000249463
-0.000425642
0.000332513
-0.000555496
0.00042714
-0.00069412
0.000532265
-0.000838476
0.000646378
-0.000985455
0.000767595
-0.00113196
0.000893761
-0.00127504
0.00102258
-0.001412
0.00115174
-0.00154051
0.00127909
-0.00165874
0.00140269
-0.00176535
0.00152096
-0.00185955
0.00163269
-0.00194103
0.00173706
-0.00200996
0.00183363
-0.00206685
0.0019223
-0.00211252
0.00200323
-0.00214795
0.00207683
-0.00217415
-0.00219127
0.002144
4.08698e-06
3.50344e-06
1.81869e-05
-2.25922e-05
4.36125e-05
-7.68002e-05
8.133e-05
-0.000155237
0.000132015
-0.000254531
0.000196014
-0.000371484
0.000273274
-0.000502903
0.000363276
-0.000645498
0.000464993
-0.000795837
0.000576893
-0.000950377
0.000696998
-0.00110556
0.00082299
-0.00125795
0.000952354
-0.0014044
0.00108254
-0.00154219
0.00121114
-0.00166911
0.00133599
-0.00178359
0.0014553
-0.00188466
0.00156771
-0.00197196
0.00167231
-0.00204563
0.00176861
-0.00210626
0.00185651
-0.00215476
0.00193623
-0.00219224
0.00200822
-0.00221995
0.00207316
-0.00223909
-0.0022502
0.0021321
4.56652e-06
-1.06308e-06
2.01781e-05
-3.82037e-05
4.82306e-05
-0.000104853
8.97221e-05
-0.000196729
0.000145273
-0.000310082
0.000215063
-0.000441274
0.00029876
-0.000586599
0.000395458
-0.000742195
0.000503667
-0.000904047
0.000621365
-0.00106807
0.000746101
-0.0012303
0.00087516
-0.00138701
0.00100574
-0.00153499
0.00113517
-0.00167161
0.00126101
-0.00179495
0.00138127
-0.00190384
0.0014944
-0.00199779
0.00159936
-0.00207692
0.00169561
-0.00214188
0.00178302
-0.00219367
0.00186184
-0.00223358
0.00193258
-0.00226299
0.00199597
-0.00228334
0.00205286
-0.00229597
-0.0023017
0.00210435
5.1573e-06
-6.22038e-06
2.2529e-05
-5.55754e-05
5.35258e-05
-0.00013585
9.91095e-05
-0.000242312
0.000159769
-0.000370742
0.000235438
-0.000516943
0.000325418
-0.000676579
0.000428344
-0.000845121
0.000542216
-0.00101792
0.000664502
-0.00119036
0.000792311
-0.00135811
0.0009226
-0.0015173
0.0010524
-0.00166479
0.001179
-0.00179821
0.00130013
-0.00191609
0.00141403
-0.00201775
0.00151952
-0.00210328
0.00161594
-0.00217334
0.00170313
-0.00222907
0.00178135
-0.00227189
0.00185114
-0.00230337
0.00191328
-0.00232513
0.00196868
-0.00233874
0.00201832
-0.0023456
-0.0023467
0.00206331
5.84817e-06
-1.20686e-05
2.52008e-05
-7.4928e-05
5.9412e-05
-0.000170061
0.000109332
-0.000292232
0.000175236
-0.000436646
0.000256724
-0.000598431
0.00035265
-0.000772505
0.000461128
-0.0009536
0.000579619
-0.00113641
0.000705101
-0.00131584
0.0008343
-0.0014873
0.000963951
-0.00164695
0.00109103
-0.00179187
0.00121296
-0.00192014
0.00132771
-0.00203084
0.00143391
-0.00212394
0.00153076
-0.00220012
0.00161802
-0.00226061
0.00169594
-0.00230699
0.00176508
-0.00234103
0.00182626
-0.00236455
0.00188044
-0.00237931
0.00192865
-0.00238694
0.0019719
-0.00238886
-0.00238608
0.00201129
6.62608e-06
-1.86946e-05
2.81462e-05
-9.64481e-05
6.57841e-05
-0.000207699
0.000120198
-0.000346646
0.000191361
-0.00050781
0.000278451
-0.000685521
0.000379803
-0.000873858
0.000492966
-0.00106676
0.000614859
-0.0012583
0.000742018
-0.001443
0.000870882
-0.00161617
0.000998084
-0.00177415
0.00112069
-0.00191447
0.00123637
-0.00203582
0.00134347
-0.00213794
0.00144103
-0.0022215
0.00152869
-0.00228779
0.00160664
-0.00233856
0.00167545
-0.0023758
0.00173596
-0.00240154
0.00178919
-0.00241778
0.0018362
-0.00242633
0.00187808
-0.00242881
0.00191582
-0.00242661
-0.00242071
0.00195045
7.47738e-06
-2.6172e-05
3.13137e-05
-0.000120284
7.2526e-05
-0.000248911
0.000131495
-0.000405615
0.000207804
-0.000584118
0.000300123
-0.00077784
0.000406209
-0.000979943
0.000523023
-0.00118358
0.000646974
-0.00138225
0.000774235
-0.00157026
0.000901076
-0.00174301
0.00102417
-0.00189725
0.0011408
-0.00203111
0.001249
-0.00214402
0.00134756
-0.0022365
0.00143597
-0.0023099
0.00151431
-0.00236613
0.00158313
-0.00240738
0.00164329
-0.00243596
0.00169584
-0.00245409
0.00174191
-0.00246384
0.0017826
-0.00246703
0.00181899
-0.0024652
0.00185204
-0.00245965
-0.0024513
0.00188263
8.38862e-06
-3.45606e-05
3.46503e-05
-0.000146546
7.95165e-05
-0.000293777
0.000143003
-0.000469102
0.000224213
-0.000665328
0.000321237
-0.000874864
0.00043121
-0.00108992
0.000550514
-0.00130288
0.000675108
-0.00150685
0.000800909
-0.00169606
0.000924154
-0.00186626
0.00104169
-0.00201478
0.00115115
-0.00214057
0.001251
-0.00224387
0.00134051
-0.00232601
0.00141963
-0.00238902
0.00148883
-0.00243533
0.00154899
-0.00246753
0.00160116
-0.00248813
0.00164653
-0.00249946
0.00168627
-0.00250358
0.00172148
-0.00250224
0.00175317
-0.00249689
0.00178222
-0.00248869
-0.00247848
0.00180939
9.34675e-06
-4.39074e-05
3.81023e-05
-0.000175302
8.66319e-05
-0.000342307
0.000154498
-0.000536968
0.000240239
-0.000751068
0.000341305
-0.00097593
0.000454191
-0.0012028
0.000574738
-0.00142343
0.000698545
-0.00163066
0.000821403
-0.00181892
0.000939656
-0.00198451
0.00105045
-0.00212558
0.00115186
-0.00224198
0.00124284
-0.00233485
0.00132315
-0.00240631
0.00139314
-0.00245902
0.00145366
-0.00249585
0.00150578
-0.00251965
0.00155072
-0.00253308
0.00158972
-0.00253846
0.00162394
-0.0025378
0.00165442
-0.00253273
0.00168209
-0.00252456
0.00170772
-0.00251432
-0.00250271
0.00173195
1.0339e-05
-5.42464e-05
4.16164e-05
-0.000206579
9.37478e-05
-0.000394438
0.000165755
-0.000608976
0.000255537
-0.00084085
0.000359861
-0.00108025
0.000474592
-0.00131753
0.000595098
-0.00154393
0.000716735
-0.00175229
0.000835302
-0.00193749
0.000947387
-0.00209659
0.00105055
-0.00222875
0.00114335
-0.00233478
0.00122526
-0.00241676
0.00129648
-0.00247753
0.00135776
-0.0025203
0.00141018
-0.00254827
0.001455
-0.00256447
0.0014935
-0.00257157
0.00152691
-0.00257187
0.00155634
-0.00256723
0.00158275
-0.00255914
0.00160696
-0.00254877
0.00162962
-0.00253699
-0.00252438
0.00165129
1.13526e-05
-6.5599e-05
4.51383e-05
-0.000240365
0.000100739
-0.000450039
0.000176554
-0.000684791
0.00026978
-0.000934075
0.000376481
-0.00118696
0.000491934
-0.00143299
0.000611126
-0.00166313
0.0007293
-0.00187047
0.000842409
-0.0020506
0.0009474
-0.00220159
0.00104232
-0.00232367
0.00112625
-0.00241871
0.00119915
-0.00248966
0.00126164
-0.00254002
0.00131476
-0.00257341
0.00135978
-0.00259329
0.00139804
-0.00260273
0.00143085
-0.00260438
0.00145938
-0.0026004
0.00148465
-0.0025925
0.00150753
-0.00258202
0.00152872
-0.00256996
0.00154878
-0.00255704
-0.00254374
0.00156814
1.23742e-05
-7.79732e-05
4.86134e-05
-0.000276604
0.000107483
-0.000508909
0.000186683
-0.00076399
0.000282661
-0.00103005
0.000390791
-0.00129509
0.000505823
-0.00154802
0.000622484
-0.00177979
0.000736044
-0.00198403
0.000842736
-0.00215729
0.000939959
-0.00229881
0.00102629
-0.00241
0.00110134
-0.00249375
0.00116551
-0.00255383
0.00121976
-0.00259427
0.00126536
-0.00261901
0.00130369
-0.00263163
0.00133614
-0.00263518
0.00136394
-0.00263219
0.0013882
-0.00262466
0.00140985
-0.00261415
0.00142963
-0.0026018
0.00144814
-0.00258847
0.00146584
-0.00257474
-0.00256097
0.00148307
1.33902e-05
-9.13635e-05
5.1986e-05
-0.0003152
0.000113856
-0.000570779
0.000195938
-0.000846072
0.000293907
-0.00112802
0.000402477
-0.00140366
0.000515968
-0.00166151
0.000628977
-0.0018928
0.000736936
-0.00209199
0.00083647
-0.00225682
0.000925497
-0.00238784
0.00100314
-0.00248764
0.00106949
-0.00256011
0.00112536
-0.0026097
0.00117196
-0.00264087
0.00121071
-0.00265777
0.00124306
-0.00266397
0.00127034
-0.00266246
0.00129374
-0.00265558
0.00131426
-0.00264518
0.0013327
-0.00263259
0.0013497
-0.00261881
0.00136578
-0.00260454
0.00138128
-0.00259025
-0.00257618
0.00139649
1.43861e-05
-0.00010575
5.52006e-05
-0.000356014
0.000119742
-0.00063532
0.000204133
-0.000930463
0.000303279
-0.00122717
0.000411292
-0.00151167
0.000522178
-0.0017724
0.000630539
-0.00200116
0.000732096
-0.00219354
0.000823949
-0.00234867
0.00090457
-0.00246846
0.000973611
-0.00255668
0.00103161
-0.00261811
0.0010797
-0.00265778
0.00111927
-0.00268045
0.00115185
-0.00269034
0.00117885
-0.00269097
0.00120155
-0.00268517
0.00122106
-0.00267509
0.00123823
-0.00266235
0.00125379
-0.00264815
0.00126826
-0.00263328
0.00128206
-0.00261834
0.00129548
-0.00260367
-0.00258943
0.00130874
1.5347e-05
-0.000121097
5.82021e-05
-0.000398869
0.000125028
-0.000702146
0.000211102
-0.00101654
0.000310582
-0.00132665
0.000417064
-0.00161815
0.000524366
-0.0018797
0.000627229
-0.00210402
0.000721769
-0.00228808
0.000805621
-0.00243252
0.000877816
-0.00254065
0.000938501
-0.00261736
0.000988594
-0.0026682
0.00102946
-0.00269864
0.00106264
-0.00271363
0.00108965
-0.00271735
0.00111187
-0.0027132
0.00113051
-0.0027038
0.00114652
-0.0026911
0.00116068
-0.00267652
0.00117359
-0.00266106
0.0011857
-0.00264539
0.00119733
-0.00262997
0.00120872
-0.00261506
-0.00260075
0.00122004
1.62577e-05
-0.000137354
6.09371e-05
-0.000443549
0.000129612
-0.000770821
0.000216704
-0.00110363
0.000315668
-0.00142561
0.000419694
-0.00172218
0.00052254
-0.00198254
0.000619211
-0.00220069
0.000706301
-0.00237517
0.000782011
-0.00250823
0.000845912
-0.00260455
0.000898592
-0.00267004
0.000941278
-0.00271089
0.000975506
-0.00273287
0.00100288
-0.002741
0.00102488
-0.00273936
0.00104283
-0.00273115
0.00105779
-0.00271876
0.00107064
-0.00270394
0.00108203
-0.00268791
0.00109247
-0.00267149
0.00110231
-0.00265524
0.00111184
-0.00263949
0.00112123
-0.00262445
-0.00261013
0.0011306
1.71032e-05
-0.000154457
6.33558e-05
-0.000489801
0.000133405
-0.000840871
0.000220825
-0.00119105
0.000318442
-0.00152323
0.000419153
-0.00182289
0.000516793
-0.00208018
0.000606736
-0.00229063
0.000686111
-0.00245455
0.000753689
-0.00257581
0.000809543
-0.00266041
0.00085464
-0.00271514
0.000890443
-0.00274669
0.000918595
-0.00276102
0.000940699
-0.0027631
0.000958188
-0.00275685
0.000972265
-0.00274523
0.000983896
-0.00273039
0.000993827
-0.00271387
0.00100262
-0.0026967
0.00101069
-0.00267956
0.00101834
-0.00266289
0.00102579
-0.00264694
0.00103317
-0.00263183
-0.00261754
0.00104058
1.7869e-05
-0.000172326
6.54126e-05
-0.000537345
0.000136332
-0.00091179
0.000223383
-0.0012781
0.000318855
-0.0016187
0.000415481
-0.00191951
0.000507293
-0.002172
0.00059012
-0.00237346
0.000661661
-0.00252609
0.000721237
-0.00263539
0.000769375
-0.00270854
0.000807349
-0.00275311
0.000836788
-0.00277613
0.000859386
-0.00278362
0.000876707
-0.00278042
0.000890094
-0.00277023
0.000900639
-0.00275577
0.000909191
-0.00273895
0.000916389
-0.00272107
0.000922707
-0.00270302
0.000928487
-0.00268534
0.000933972
-0.00266837
0.000939333
-0.0026523
0.000944683
-0.00263718
-0.00262295
0.000950097
1.85414e-05
-0.000190868
6.70678e-05
-0.000585871
0.000138331
-0.000983053
0.000224326
-0.00136409
0.000316908
-0.00171128
0.000408774
-0.00201138
0.000494265
-0.00225749
0.000569727
-0.00244892
0.000633437
-0.0025898
0.000685235
-0.00268719
0.000726037
-0.00274935
0.000757357
-0.00278443
0.000780929
-0.0027997
0.000798446
-0.00280114
0.000811401
-0.00279338
0.000821033
-0.00277987
0.000828313
-0.00276305