/*--------------------------------*- C++ -*----------------------------------*\
  =========                 |
  \\      /  F ield         | OpenFOAM: The Open Source CFD Toolbox
   \\    /   O peration     | Website:  https://openfoam.org
    \\  /    A nd           | Version:  6.0
     \\/     M anipulation  |
\*---------------------------------------------------------------------------*/
FoamFile
{
    version     2.0;
    format      ascii;
    class       volScalarField;
    location    "66";
    object      p;
}
// * * * * * * * * * * * * * * * * * * * * * * * * * * * * * * * * * * * * * //

dimensions      [0 2 -2 0 0 0 0];

internalField   nonuniform List<scalar> 
8000
(
-0.338098
-0.339
-0.339545
-0.339884
-0.34012
-0.340274
-0.340366
-0.340412
-0.340424
-0.340412
-0.340384
-0.340353
-0.340329
-0.340325
-0.340356
-0.340443
-0.340599
-0.340776
-0.340944
-0.341749
-0.338284
-0.339031
-0.339478
-0.339747
-0.33992
-0.34002
-0.340066
-0.340074
-0.340058
-0.340029
-0.339999
-0.339979
-0.339982
-0.340024
-0.340119
-0.340291
-0.340556
-0.340862
-0.341174
-0.342202
-0.338547
-0.33915
-0.339504
-0.3397
-0.339807
-0.339845
-0.339835
-0.339794
-0.339737
-0.339676
-0.339625
-0.339597
-0.339606
-0.339668
-0.339801
-0.340031
-0.340375
-0.34078
-0.341202
-0.342419
-0.338862
-0.339337
-0.339603
-0.339726
-0.339761
-0.33973
-0.339653
-0.33955
-0.339437
-0.339328
-0.339236
-0.339178
-0.339168
-0.339223
-0.339365
-0.33962
-0.340011
-0.340481
-0.340976
-0.342343
-0.339209
-0.339576
-0.33976
-0.339809
-0.339768
-0.339661
-0.339507
-0.339329
-0.339143
-0.338966
-0.338813
-0.338699
-0.338643
-0.338663
-0.33878
-0.339026
-0.339427
-0.339924
-0.340453
-0.341928
-0.339579
-0.339857
-0.339966
-0.339941
-0.339821
-0.339629
-0.339388
-0.339121
-0.338847
-0.338583
-0.338345
-0.338152
-0.338021
-0.337972
-0.338029
-0.338227
-0.338596
-0.339079
-0.339599
-0.341139
-0.339969
-0.340176
-0.340218
-0.340119
-0.339915
-0.339632
-0.339294
-0.338925
-0.338548
-0.338178
-0.337835
-0.337536
-0.337299
-0.337148
-0.337107
-0.337214
-0.337508
-0.33793
-0.338394
-0.339954
-0.340382
-0.340538
-0.340519
-0.340346
-0.340056
-0.339674
-0.339231
-0.33875
-0.338254
-0.337763
-0.337294
-0.336864
-0.336494
-0.336205
-0.336025
-0.335997
-0.336165
-0.336473
-0.33683
-0.338362
-0.34083
-0.340951
-0.340877
-0.34063
-0.340249
-0.339765
-0.339208
-0.338607
-0.337983
-0.337357
-0.336745
-0.336163
-0.335632
-0.335172
-0.334813
-0.334601
-0.334588
-0.334722
-0.334908
-0.336359
-0.34133
-0.341431
-0.341305
-0.340983
-0.340509
-0.339918
-0.339243
-0.338514
-0.337756
-0.336985
-0.336219
-0.335471
-0.334756
-0.334095
-0.333517
-0.333071
-0.332815
-0.332702
-0.332639
-0.333944
-0.341907
-0.341996
-0.341821
-0.341422
-0.340852
-0.34015
-0.339354
-0.338496
-0.337599
-0.336682
-0.335756
-0.334832
-0.33392
-0.333035
-0.332202
-0.33147
-0.330903
-0.330458
-0.330045
-0.331116
-0.342589
-0.342671
-0.342447
-0.341967
-0.341297
-0.340482
-0.339563
-0.338575
-0.337543
-0.336481
-0.335398
-0.334298
-0.333183
-0.33206
-0.330944
-0.329879
-0.328928
-0.32805
-0.327154
-0.327868
-0.343408
-0.343485
-0.343206
-0.342641
-0.341866
-0.340934
-0.339891
-0.338776
-0.337612
-0.336413
-0.335182
-0.333914
-0.332602
-0.331237
-0.329821
-0.328383
-0.326978
-0.325554
-0.324008
-0.324192
-0.344402
-0.344468
-0.344127
-0.343468
-0.342581
-0.341527
-0.34036
-0.339119
-0.33783
-0.336503
-0.335137
-0.333716
-0.332219
-0.330621
-0.3289
-0.327061
-0.32514
-0.323055
-0.320661
-0.32008
-0.345611
-0.345654
-0.34524
-0.344475
-0.343466
-0.342284
-0.340988
-0.339622
-0.338212
-0.336766
-0.335277
-0.333718
-0.332055
-0.330239
-0.32822
-0.325967
-0.323482
-0.320633
-0.317188
-0.315541
-0.347076
-0.347079
-0.346574
-0.345689
-0.344546
-0.343225
-0.341793
-0.340298
-0.338768
-0.337208
-0.335603
-0.33392
-0.332105
-0.330088
-0.327785
-0.325122
-0.32205
-0.318371
-0.313702
-0.310646
-0.348844
-0.348781
-0.348164
-0.34714
-0.345845
-0.344372
-0.342793
-0.341162
-0.339506
-0.337828
-0.336109
-0.334305
-0.332348
-0.330144
-0.327575
-0.324518
-0.320869
-0.316359
-0.310396
-0.305592
-0.350962
-0.3508
-0.350045
-0.348858
-0.347391
-0.345748
-0.344009
-0.342228
-0.340435
-0.338631
-0.336792
-0.334864
-0.332766
-0.330384
-0.327568
-0.324145
-0.319946
-0.314635
-0.30738
-0.300485
-0.353478
-0.353178
-0.352251
-0.350875
-0.349214
-0.347382
-0.345464
-0.343518
-0.341575
-0.339633
-0.337664
-0.335611
-0.333385
-0.330858
-0.32786
-0.324171
-0.319539
-0.313498
-0.304867
-0.295413
-0.356442
-0.355956
-0.354822
-0.353227
-0.351346
-0.349302
-0.347187
-0.34506
-0.342952
-0.340861
-0.338758
-0.336591
-0.334275
-0.331701
-0.328725
-0.325165
-0.320787
-0.315054
-0.306496
-0.296197
-0.359906
-0.359178
-0.357795
-0.355949
-0.35382
-0.351543
-0.349212
-0.346888
-0.344601
-0.342349
-0.340109
-0.337835
-0.335466
-0.332938
-0.330195
-0.327217
-0.324067
-0.320897
-0.318458
-0.322354
-0.363917
-0.362885
-0.361208
-0.359078
-0.356674
-0.35414
-0.351575
-0.349039
-0.346559
-0.344134
-0.341744
-0.339351
-0.336919
-0.334416
-0.331844
-0.329264
-0.326838
-0.324868
-0.324023
-0.327646
-0.368523
-0.367121
-0.365103
-0.362651
-0.359944
-0.357132
-0.354315
-0.35155
-0.348862
-0.346246
-0.343683
-0.341144
-0.338604
-0.336056
-0.333527
-0.3311
-0.328932
-0.327264
-0.326453
-0.327983
-0.37377
-0.371925
-0.369516
-0.366709
-0.363671
-0.360558
-0.357471
-0.354459
-0.35154
-0.348705
-0.345931
-0.34319
-0.340465
-0.337754
-0.335089
-0.332538
-0.330212
-0.328245
-0.326817
-0.326399
-0.379697
-0.377337
-0.374488
-0.37129
-0.367894
-0.364459
-0.36108
-0.357796
-0.354614
-0.351514
-0.348468
-0.345443
-0.342422
-0.339403
-0.336409
-0.333489
-0.330707
-0.328124
-0.325835
-0.323791
-0.386343
-0.383393
-0.380057
-0.376436
-0.372655
-0.368874
-0.365176
-0.361585
-0.358091
-0.35466
-0.351253
-0.347834
-0.344384
-0.340899
-0.337398
-0.333916
-0.330492
-0.32716
-0.323982
-0.320735
-0.393739
-0.390127
-0.386259
-0.382185
-0.377994
-0.373839
-0.369786
-0.365837
-0.361958
-0.358103
-0.354221
-0.350276
-0.346249
-0.342143
-0.337982
-0.333799
-0.329631
-0.32551
-0.321484
-0.317323
-0.40191
-0.397567
-0.393127
-0.388575
-0.383947
-0.379383
-0.374924
-0.370543
-0.366183
-0.361782
-0.357286
-0.352665
-0.347912
-0.343045
-0.3381
-0.333124
-0.328163
-0.323258
-0.318454
-0.313578
-0.410867
-0.405732
-0.400688
-0.395635
-0.39054
-0.385521
-0.380584
-0.375671
-0.370702
-0.365607
-0.36034
-0.354888
-0.349266
-0.343519
-0.337702
-0.33188
-0.32611
-0.320443
-0.31492
-0.309434
-0.42061
-0.414628
-0.408955
-0.403378
-0.397781
-0.392241
-0.386729
-0.381153
-0.375418
-0.369461
-0.363258
-0.356825
-0.350213
-0.343494
-0.336749
-0.330056
-0.323482
-0.317083
-0.31089
-0.304845
-0.431117
-0.424245
-0.417924
-0.411801
-0.405649
-0.399502
-0.393287
-0.386885
-0.380206
-0.373207
-0.365905
-0.358359
-0.350661
-0.342912
-0.335212
-0.327649
-0.320291
-0.313189
-0.306364
-0.299783
-0.442338
-0.434547
-0.427565
-0.420867
-0.414093
-0.407222
-0.400143
-0.392728
-0.384909
-0.376691
-0.368144
-0.35938
-0.350531
-0.341724
-0.33307
-0.324656
-0.316543
-0.308773
-0.301347
-0.294246
-0.454194
-0.445469
-0.437818
-0.430506
-0.423018
-0.415274
-0.407141
-0.398507
-0.389351
-0.37975
-0.36984
-0.359788
-0.349758
-0.339894
-0.330306
-0.321074
-0.312243
-0.303841
-0.295846
-0.288244
-0.466569
-0.456911
-0.448584
-0.440604
-0.432283
-0.423488
-0.414088
-0.40402
-0.393345
-0.382224
-0.370868
-0.359491
-0.348281
-0.337385
-0.326903
-0.316895
-0.307391
-0.298395
-0.289864
-0.281791
-0.479306
-0.468734
-0.459724
-0.451002
-0.441697
-0.431646
-0.420755
-0.409048
-0.396695
-0.383956
-0.37111
-0.358408
-0.346047
-0.334163
-0.322837
-0.312106
-0.301976
-0.292431
-0.2834
-0.274892
-0.492207
-0.480757
-0.471052
-0.461491
-0.451026
-0.439496
-0.426891
-0.413363
-0.399213
-0.384798
-0.370458
-0.356462
-0.343001
-0.330189
-0.31808
-0.306682
-0.295978
-0.285931
-0.276443
-0.267544
-0.505031
-0.492756
-0.482334
-0.471815
-0.459993
-0.446755
-0.432232
-0.416738
-0.400714
-0.384613
-0.36881
-0.353579
-0.339088
-0.325419
-0.312593
-0.300591
-0.28937
-0.278871
-0.268971
-0.259734
-0.517498
-0.504463
-0.493295
-0.481676
-0.468286
-0.453123
-0.436509
-0.418951
-0.40103
-0.383271
-0.366072
-0.349687
-0.334249
-0.319803
-0.306334
-0.293792
-0.282114
-0.271218
-0.260956
-0.251439
-0.52929
-0.515573
-0.503616
-0.490741
-0.475574
-0.458292
-0.439462
-0.419794
-0.4
-0.380655
-0.362153
-0.344712
-0.328422
-0.313285
-0.299251
-0.28624
-0.274169
-0.262935
-0.252365
-0.242628
-0.540058
-0.525747
-0.512949
-0.498653
-0.481512
-0.46196
-0.440842
-0.419077
-0.397481
-0.376655
-0.356964
-0.338581
-0.321543
-0.305809
-0.291291
-0.277885
-0.265489
-0.253979
-0.24316
-0.233268
-0.549435
-0.534619
-0.520921
-0.505041
-0.485761
-0.463837
-0.440421
-0.416624
-0.393342
-0.371169
-0.350424
-0.331222
-0.313547
-0.297313
-0.282399
-0.268678
-0.256029
-0.244308
-0.233302
-0.223324
-0.557033
-0.541808
-0.527146
-0.509535
-0.48799
-0.463656
-0.437993
-0.412283
-0.387465
-0.364103
-0.342453
-0.322566
-0.304371
-0.28774
-0.272523
-0.258569
-0.245744
-0.233882
-0.222755
-0.21276
-0.562469
-0.54693
-0.531241
-0.511778
-0.487898
-0.461177
-0.43338
-0.405921
-0.379749
-0.355373
-0.332978
-0.312547
-0.293956
-0.277037
-0.261612
-0.247514
-0.234594
-0.222663
-0.211486
-0.201546
-0.565364
-0.549605
-0.532839
-0.511437
-0.485212
-0.456196
-0.42643
-0.397424
-0.370104
-0.344906
-0.321935
-0.301106
-0.282247
-0.265154
-0.249624
-0.235474
-0.222543
-0.21062
-0.199466
-0.189657
-0.565362
-0.549476
-0.531594
-0.508215
-0.4797
-0.44854
-0.41702
-0.386701
-0.358457
-0.332638
-0.309267
-0.288194
-0.2692
-0.25205
-0.236521
-0.222416
-0.209562
-0.197729
-0.186676
-0.177074
-0.562136
-0.546212
-0.527201
-0.501859
-0.47117
-0.438077
-0.405057
-0.373683
-0.344753
-0.318522
-0.29493
-0.273769
-0.254777
-0.237692
-0.222275
-0.208317
-0.195632
-0.183974
-0.173103
-0.163787
-0.555398
-0.539527
-0.519399
-0.492163
-0.45948
-0.424711
-0.390476
-0.358322
-0.328952
-0.302522
-0.278893
-0.257802
-0.238952
-0.222059
-0.206867
-0.19316
-0.180741
-0.169345
-0.158742
-0.14979
-0.544913
-0.529183
-0.507983
-0.478977
-0.444533
-0.408384
-0.373242
-0.340593
-0.311033
-0.284618
-0.261136
-0.240276
-0.221711
-0.205138
-0.190289
-0.17694
-0.164885
-0.153843
-0.143598
-0.135088
-0.530496
-0.514997
-0.492805
-0.462204
-0.426279
-0.389078
-0.353351
-0.320496
-0.290995
-0.264807
-0.241656
-0.221188
-0.203051
-0.186928
-0.172541
-0.15966
-0.148073
-0.137481
-0.127684
-0.119695
-0.512027
-0.49685
-0.473779
-0.441807
-0.404717
-0.366811
-0.330826
-0.298053
-0.268855
-0.243104
-0.220463
-0.200545
-0.18298
-0.167437
-0.153633
-0.141334
-0.130319
-0.120277
-0.111026
-0.10364
-0.489448
-0.474688
-0.450882
-0.417802
-0.379891
-0.341636
-0.30572
-0.27331
-0.244653
-0.219538
-0.197583
-0.17837
-0.161517
-0.146683
-0.133583
-0.121981
-0.111647
-0.102262
-0.0936615
-0.0869671
-0.462768
-0.44852
-0.424155
-0.390262
-0.351891
-0.313644
-0.278115
-0.246337
-0.218446
-0.194161
-0.173056
-0.154697
-0.13869
-0.124691
-0.112414
-0.101622
-0.09208
-0.0834632
-0.0756279
-0.0697219
-0.432062
-0.418425
-0.393699
-0.359311
-0.320846
-0.282959
-0.248122
-0.21723
-0.190316
-0.167037
-0.146937
-0.12957
-0.114535
-0.101492
-0.0901524
-0.080281
-0.0716408
-0.0639083
-0.0569587
-0.0519275
-0.397469
-0.384542
-0.359675
-0.325122
-0.286929
-0.24974
-0.215881
-0.18611
-0.160365
-0.138253
-0.119298
-0.103045
-0.0890975
-0.0771171
-0.0668219
-0.057978
-0.0503499
-0.0436226
-0.0376768
-0.0335698
-0.359188
-0.347073
-0.322296
-0.287915
-0.250349
-0.214176
-0.18156
-0.153122
-0.128718
-0.107915
-0.0902238
-0.0751908
-0.0624261
-0.0516009
-0.0424425
-0.0347243
-0.0282182
-0.0226206
-0.0177908
-0.0146467
-0.317478
-0.306274
-0.281826
-0.247949
-0.211351
-0.176491
-0.145357
-0.11844
-0.0955266
-0.0761523
-0.0598224
-0.0460916
-0.0345823
-0.0249812
-0.0170319
-0.0105211
-0.00523408
-0.000884918
0.00268953
0.00469583
-0.272647
-0.262452
-0.238574
-0.205525
-0.170212
-0.136934
-0.107495
-0.0822644
-0.0609666
-0.0431166
-0.0282218
-0.0158498
-0.00564206
0.00269076
0.00938057
0.0146238
0.0186179
0.021589
0.0236293
0.0240211
-0.225052
-0.215957
-0.192885
-0.160972
-0.127239
-0.0957852
-0.0682275
-0.044823
-0.0252418
-0.0089858
0.0044311
0.0154234
0.0243235
0.0313857
0.0368057
0.040758
0.0433968
0.0447601
0.0446947
0.0428736
-0.175086
-0.167178
-0.145139
-0.11465
-0.0827633
-0.0533492
-0.0278359
-0.00637477
0.0114097
0.0260266
0.0379559
0.0475967
0.0552562
0.0611523
0.0654423
0.0682685
0.0696633
0.0692439
0.0664873
0.062438
-0.123175
-0.116532
-0.0957393
-0.0669381
-0.0371372
-0.00995213
0.0133748
0.0327897
0.0487079
0.061649
0.0720921
0.080433
0.0869755
0.0919358
0.0954852
0.0977847
0.0987322
0.0974278
0.0931213
0.0887639
-0.0697681
-0.0644581
-0.0451084
-0.0182322
0.00927382
0.0340661
0.0550833
0.0723591
0.0863417
0.0975574
0.106485
0.113524
0.118991
0.123142
0.126238
0.128568
0.1301
0.129797
0.127391
0.131534
-0.0153245
-0.0114075
0.00632293
0.031066
0.0560983
0.0783602
0.0969634
0.112019
0.123999
0.13343
0.140782
0.146448
0.150743
0.153934
0.156297
0.158107
0.159345
0.159518
0.159564
0.165931
0.0396811
0.0421577
0.0581164
0.0805511
0.102964
0.122586
0.138693
0.151463
0.161383
0.168976
0.174699
0.178934
0.181991
0.184134
0.185625
0.186694
0.187319
0.187192
0.187263
0.19245
0.094773
0.095775
0.109836
0.129822
0.149505
0.166408
0.17996
0.190396
0.198211
0.203917
0.207954
0.210686
0.212409
0.213374
0.213821
0.213957
0.213773
0.213035
0.212522
0.216131
0.149479
0.148986
0.161052
0.178486
0.195365
0.209501
0.220466
0.228543
0.234229
0.238019
0.240334
0.241515
0.241839
0.241536
0.24082
0.239867
0.238656
0.236982
0.235559
0.237705
0.203336
0.201341
0.211345
0.226162
0.240198
0.251553
0.259929
0.265646
0.269201
0.271067
0.271643
0.271248
0.270137
0.268519
0.266585
0.26448
0.26217
0.259471
0.257063
0.257808
0.255891
0.252405
0.26031
0.272482
0.283676
0.292267
0.298079
0.301464
0.302909
0.302867
0.301714
0.299744
0.297191
0.294243
0.291067
0.287785
0.284351
0.280612
0.277216
0.276641
0.30671
0.301757
0.307558
0.317095
0.325483
0.331362
0.334665
0.335769
0.33515
0.333241
0.330391
0.326873
0.322899
0.318637
0.314235
0.309791
0.305256
0.300504
0.296147
0.294318
0.355378
0.348996
0.352719
0.359668
0.365321
0.368571
0.369447
0.368347
0.365735
0.362021
0.357529
0.352511
0.347159
0.341623
0.336031
0.330465
0.324875
0.319159
0.313883
0.310866
0.4015
0.393745
0.395444
0.399888
0.402911
0.403643
0.402201
0.398998
0.394484
0.389047
0.382988
0.376538
0.36987
0.363118
0.356393
0.349762
0.343176
0.336555
0.33041
0.326272
0.444706
0.435648
0.435407
0.437462
0.43799
0.436343
0.432716
0.427531
0.421227
0.414167
0.406633
0.398836
0.39093
0.383035
0.375247
0.367619
0.360107
0.352647
0.345687
0.3405
0.484655
0.474377
0.472306
0.472117
0.470316
0.466453
0.460795
0.453771
0.445805
0.43724
0.428338
0.41929
0.410238
0.401285
0.392513
0.383966
0.375604
0.367376
0.359663
0.353502
0.521031
0.50963
0.505865
0.503605
0.499664
0.493772
0.486257
0.477554
0.46807
0.458131
0.44798
0.437792
0.427694
0.417777
0.408111
0.39873
0.3896
0.380679
0.372277
0.365226
0.553548
0.541135
0.535832
0.531701
0.525833
0.518119
0.508939
0.498729
0.487886
0.476717
0.465447
0.45424
0.443207
0.432428
0.421963
0.411839
0.402027
0.392491
0.383471
0.37562
0.581955
0.56865
0.561987
0.556205
0.548643
0.539331
0.528692
0.517164
0.505131
0.492885
0.480638
0.468538
0.456689
0.445158
0.433997
0.423225
0.41282
0.402749
0.393188
0.384634
0.606031
0.591964
0.584137
0.576944
0.567939
0.557267
0.545388
0.53274
0.519697
0.506538
0.493461
0.480605
0.468063
0.455896
0.444144
0.432825
0.421919
0.411397
0.401376
0.392223
0.62559
0.6109
0.602117
0.593771
0.583587
0.571807
0.558917
0.545358
0.531493
0.51759
0.503839
0.490368
0.477263
0.464578
0.452348
0.440585
0.429274
0.418386
0.407989
0.398348
0.640481
0.625314
0.615798
0.606566
0.59548
0.582852
0.56919
0.554935
0.540443
0.525973
0.511707
0.497767
0.484233
0.471155
0.458559
0.446459
0.43484
0.423674
0.412991
0.402977
0.65059
0.635097
0.625078
0.61524
0.603536
0.590329
0.57614
0.56141
0.546489
0.531633
0.517016
0.502757
0.488932
0.475585
0.462742
0.450413
0.438585
0.427231
0.416353
0.406086
0.655838
0.640174
0.62989
0.619731
0.6077
0.594187
0.57972
0.564739
0.549593
0.534534
0.519733
0.505307
0.491329
0.477843
0.464871
0.452422
0.440487
0.429034
0.418055
0.407658
0.656187
0.640508
0.630197
0.620006
0.607943
0.594399
0.579906
0.564901
0.549735
0.534657
0.519841
0.505401
0.49141
0.477913
0.464932
0.452474
0.440532
0.429073
0.418088
0.407685
0.651632
0.636095
0.625998
0.616064
0.604262
0.590965
0.576695
0.561894
0.546912
0.532001
0.517337
0.503036
0.489174
0.475795
0.462924
0.450569
0.43872
0.427346
0.416451
0.406166
0.642208
0.626968
0.617324
0.607932
0.596683
0.583905
0.57011
0.555738
0.541142
0.526582
0.512237
0.498228
0.484634
0.471501
0.458859
0.446716
0.435061
0.423863
0.413152
0.403108
0.627987
0.613196
0.604235
0.595667
0.585257
0.573268
0.560192
0.54647
0.532461
0.518433
0.504572
0.491005
0.477815
0.465056
0.45276
0.440939
0.429577
0.418645
0.408208
0.398527
0.609078
0.594883
0.586829
0.579354
0.570061
0.559123
0.547006
0.53415
0.520925
0.507605
0.494389
0.48141
0.468759
0.456497
0.444662
0.433269
0.422299
0.41172
0.401649
0.392445
0.585626
0.572167
0.565231
0.559109
0.551199
0.541565
0.530638
0.518858
0.506604
0.494165
0.481748
0.4695
0.457519
0.445874
0.434611
0.423751
0.413268
0.403129
0.393508
0.384894
0.557811
0.545219
0.5396
0.535072
0.528798
0.520709
0.511193
0.500689
0.489588
0.478193
0.466726
0.455344
0.444159
0.433247
0.422664
0.412437
0.402534
0.392919
0.38383
0.37591
0.525847
0.514245
0.510122
0.507413
0.503012
0.496693
0.488797
0.479758
0.469981
0.459786
0.44941
0.439025
0.428754
0.418686
0.408886
0.399387
0.390155
0.381146
0.372665
0.365538
0.489983
0.479481
0.477016
0.476328
0.474016
0.469677
0.463594
0.456197
0.447904
0.439053
0.429901
0.420634
0.411389
0.402267
0.393347
0.38467
0.376195
0.367869
0.360069
0.353826
0.450496
0.441194
0.440525
0.442037
0.442007
0.439838
0.435745
0.430151
0.423489
0.416116
0.408308
0.40027
0.392155
0.384075
0.376125
0.368355
0.360719
0.353153
0.3461
0.340825
0.407696
0.39968
0.400922
0.404784
0.407204
0.407373
0.405428
0.401782
0.396881
0.391105
0.384751
0.378042
0.371148
0.364197
0.357298
0.350514
0.343795
0.337059
0.330816
0.326586
0.361921
0.355263
0.358503
0.364835
0.369847
0.372496
0.372835
0.371262
0.368237
0.364162
0.359355
0.354061
0.348467
0.34272
0.336943
0.331215
0.325484
0.319646
0.314267
0.311156
0.313534
0.308291
0.313589
0.322481
0.330194
0.33544
0.338175
0.338779
0.337725
0.335435
0.332252
0.328443
0.324215
0.31973
0.315133
0.31052
0.305837
0.300957
0.296494
0.294569
0.262924
0.259138
0.266526
0.278029
0.288521
0.296451
0.30167
0.304532
0.30552
0.305081
0.30358
0.301307
0.298489
0.295309
0.291931
0.288472
0.284884
0.281013
0.277507
0.276836
0.210501
0.208199
0.217677
0.231809
0.245122
0.255793
0.263554
0.26873
0.271812
0.273267
0.273483
0.272775
0.271391
0.269534
0.267391
0.265104
0.262635
0.2598
0.25728
0.257931
0.156696
0.155889
0.167426
0.184167
0.200308
0.213743
0.224078
0.231599
0.236801
0.240169
0.242115
0.242976
0.24302
0.242473
0.241545
0.240406
0.239033
0.23722
0.235683
0.237736
0.101954
0.10264
0.116175
0.135466
0.154404
0.170597
0.183507
0.193378
0.200701
0.205978
0.209642
0.21205
0.21349
0.214208
0.21444
0.214388
0.21404
0.21316
0.212529
0.216049
0.0467347
0.0488951
0.0643375
0.086084
0.107753
0.126661
0.142122
0.154322
0.163747
0.170908
0.176258
0.180167
0.182941
0.184837
0.186113
0.186995
0.187455
0.187185
0.187138
0.192239
-0.0084935
-0.0048902
0.0123398
0.0364097
0.0607061
0.0822582
0.100218
0.114706
0.126191
0.135193
0.142174
0.147517
0.151532
0.15448
0.156631
0.158257
0.159334
0.159364
0.159288
0.165564
-0.0632588
-0.0582577
-0.0393861
-0.0131595
0.013628
0.0377223
0.0581042
0.0748198
0.0883147
0.0991083
0.107671
0.114394
0.119588
0.123503
0.126392
0.128542
0.129913
0.129465
0.126929
0.130974
-0.117089
-0.110748
-0.0904056
-0.0622215
-0.0331128
-0.00660572
0.0161019
0.0349701
0.050413
0.0629437
0.073033
0.0810691
0.0873487
0.0920818
0.0954342
0.0975603
0.0983515
0.0969093
0.0924986
0.088038
-0.16953
-0.161915
-0.140291
-0.110377
-0.0791474
-0.0503828
-0.0254653
-0.00453075
0.0127967
0.0270203
0.0386123
0.0479643
0.0553771
0.0610631
0.0651749
0.0678499
0.0691154
0.0685924
0.0657757
0.0616899
-0.220132
-0.211319
-0.188622
-0.157234
-0.124113
-0.0932708
-0.0662776
-0.0433725
-0.0242238
-0.0083384
0.00476283
0.0154875
0.0241618
0.0310352
0.0362994
0.040125
0.042662
0.0439492
0.0438434
0.0420195
-0.26847
-0.258545
-0.234996
-0.202415
-0.167659
-0.134945
-0.106031
-0.0812659
-0.0603698
-0.0428621
-0.0282565
-0.016127
-0.00612101
0.00204612
0.00860233
0.0137405
0.0176546
0.020569
0.0225763
0.0229582
-0.314151
-0.303205
-0.279037
-0.245561
-0.209455
-0.175103
-0.144446
-0.117953
-0.095404
-0.0763381
-0.0602661
-0.0467486
-0.0354135
-0.0259524
-0.0181126
-0.0116846
-0.00645648
-0.00214455
0.0014099
0.00340156
-0.356818
-0.344948
-0.320397
-0.286342
-0.249195
-0.213466
-0.18127
-0.153206
-0.129123
-0.108589
-0.0911189
-0.0762655
-0.0636435
-0.0529288
-0.0438526
-0.0361917
-0.0297211
-0.0241384
-0.0193081
-0.0161645
-0.39616
-0.383465
-0.358767
-0.324461
-0.286604
-0.249783
-0.21628
-0.186825
-0.161351
-0.139462
-0.120687
-0.104575
-0.0907344
-0.0788314
-0.0685875
-0.0597724
-0.0521532
-0.045416
-0.0394461
-0.0353158
-0.431914
-0.418496
-0.393882
-0.359655
-0.321435
-0.283833
-0.249277
-0.218638
-0.191936
-0.168829
-0.148862
-0.131592
-0.116625
-0.103622
-0.0923001
-0.082426
-0.0737654
-0.0659961
-0.0589981
-0.0539193
-0.463876
-0.449835
-0.425523
-0.391702
-0.353478
-0.315424
-0.280094
-0.248496
-0.220754
-0.196582
-0.175558
-0.157249
-0.141265
-0.127267
-0.11497
-0.104141
-0.0945465
-0.0858637
-0.077954
-0.0719767
-0.491898
-0.477334
-0.453526
-0.420426
-0.38256
-0.344398
-0.308591
-0.27628
-0.247701
-0.222637
-0.200704
-0.18149
-0.164611
-0.149733
-0.136572
-0.124895
-0.114474
-0.104991
-0.0962872
-0.0894954
-0.515898
-0.500908
-0.477781
-0.445699
-0.408547
-0.370627
-0.334654
-0.301894
-0.272696
-0.246925
-0.224244
-0.204267
-0.186624
-0.170988
-0.157078
-0.144663
-0.133523
-0.123348
-0.113961
-0.106447
-0.535857
-0.520536
-0.498241
-0.467441
-0.431345
-0.39402
-0.3582
-0.325264
-0.295679
-0.269396
-0.246136
-0.225546
-0.207275
-0.191006
-0.176464
-0.163422
-0.151668
-0.140903
-0.130934
-0.122783
-0.55182
-0.53626
-0.514917
-0.485628
-0.450905
-0.414519
-0.379174
-0.346344
-0.31661
-0.290018
-0.266355
-0.245305
-0.226544
-0.209768
-0.194711
-0.181151
-0.168884
-0.157626
-0.147168
-0.138457
-0.563895
-0.548187
-0.527881
-0.500289
-0.467222
-0.4321
-0.397549
-0.365109
-0.33547
-0.308777
-0.284887
-0.263534
-0.244421
-0.227264
-0.211807
-0.197835
-0.185153
-0.173495
-0.162635
-0.153439
-0.57225
-0.556484
-0.537269
-0.511506
-0.480337
-0.446777
-0.413327
-0.381558
-0.352258
-0.325673
-0.301736
-0.280236
-0.260909
-0.243494
-0.22775
-0.21347
-0.200468
-0.188496
-0.177319
-0.167713
-0.577107
-0.561372
-0.543271
-0.519419
-0.490335
-0.458601
-0.426537
-0.395712
-0.366994
-0.340725
-0.31692
-0.295427
-0.276022
-0.258471
-0.242549
-0.22806
-0.214829
-0.202627
-0.191215
-0.181272
-0.578737
-0.563123
-0.54613
-0.524217
-0.49735
-0.46766
-0.437239
-0.407615
-0.379715
-0.353967
-0.330471
-0.309136
-0.289786
-0.272215
-0.256221
-0.241619
-0.228247
-0.215896
-0.204325
-0.194119
-0.577451
-0.562049
-0.546136
-0.526139
-0.501559
-0.474076
-0.44552
-0.417334
-0.390475
-0.365447
-0.342431
-0.321403
-0.302236
-0.28476
-0.268795
-0.254173
-0.240743
-0.228317
-0.21666
-0.206263
-0.573589
-0.558492
-0.543613
-0.525465
-0.50318
-0.478011
-0.451496
-0.424956
-0.399344
-0.375227
-0.352857
-0.33228
-0.313421
-0.296148
-0.280308
-0.265753
-0.252344
-0.239916
-0.228241
-0.217722
-0.567514
-0.552815
-0.538917
-0.52251
-0.502469
-0.479658
-0.45531
-0.430588
-0.40641
-0.38338
-0.361816
-0.341827
-0.323394
-0.306428
-0.290807
-0.2764
-0.263088
-0.250723
-0.239095
-0.228519
-0.559599
-0.545389
-0.532412
-0.517613
-0.499714
-0.479242
-0.457131
-0.434357
-0.411773
-0.389991
-0.36938
-0.350111
-0.332219
-0.315659
-0.300342
-0.286162
-0.273016
-0.260778
-0.249256
-0.238687
-0.550216
-0.536585
-0.524472
-0.511131
-0.495226
-0.477017
-0.457153
-0.436412
-0.415545
-0.395151
-0.375631
-0.357205
-0.339962
-0.323902
-0.308971
-0.295091
-0.282177
-0.270124
-0.258762
-0.24826
-0.539727
-0.526758
-0.515458
-0.503419
-0.489332
-0.473257
-0.455594
-0.436916
-0.417855
-0.398964
-0.380654
-0.363186
-0.346694
-0.331223
-0.316756
-0.303243
-0.290621
-0.278807
-0.267655
-0.257277
-0.528471
-0.516241
-0.50571
-0.494823
-0.48236
-0.46825
-0.452688
-0.436054
-0.418842
-0.401538
-0.384541
-0.368132
-0.352486
-0.337687
-0.323757
-0.310675
-0.298401
-0.286876
-0.275978
-0.265775
-0.516762
-0.505335
-0.495541
-0.485667
-0.474631
-0.462288
-0.448683
-0.434023
-0.418659
-0.402992
-0.387384
-0.372123
-0.357409
-0.34336
-0.330035
-0.317443
-0.305569
-0.294377
-0.283773
-0.273791
-0.504879
-0.494306
-0.485225
-0.476245
-0.466445
-0.455662
-0.443834
-0.431032
-0.417471
-0.403451
-0.389284
-0.37524
-0.361532
-0.348305
-0.335647
-0.3236
-0.312173
-0.301354
-0.291077
-0.281356
-0.493065
-0.483381
-0.474995
-0.466809
-0.458074
-0.448641
-0.438394
-0.427297
-0.41545
-0.403051
-0.390342
-0.377562
-0.364921
-0.352578
-0.340646
-0.329194
-0.318257
-0.307846
-0.297925
-0.288494
-0.481521
-0.472743
-0.46504
-0.45757
-0.449751
-0.441475
-0.432604
-0.423037
-0.412779
-0.401934
-0.390667
-0.379174
-0.367642
-0.356235
-0.34508
-0.334269
-0.323861
-0.313889
-0.304343
-0.295225
-0.47041
-0.462538
-0.455506
-0.448691
-0.441667
-0.434375
-0.426684
-0.418461
-0.409642
-0.40025
-0.390377
-0.380162
-0.369761
-0.359326
-0.348991
-0.338862
-0.329016
-0.319509
-0.310355
-0.301561
-0.459857
-0.452873
-0.446498
-0.440293
-0.433969
-0.427516
-0.420829
-0.413765
-0.406221
-0.398155
-0.389594
-0.380619
-0.371345
-0.361902
-0.352417
-0.343002
-0.333749
-0.32473
-0.315981
-0.307511
-0.449952
-0.443821
-0.438085
-0.432457
-0.42676
-0.42103
-0.415195
-0.409121
-0.402684
-0.395801
-0.388446
-0.380643
-0.372465
-0.364011
-0.355391
-0.346716
-0.338083
-0.329573
-0.32124
-0.31309
-0.440751
-0.435425
-0.430306
-0.425228
-0.420106
-0.415012
-0.409905
-0.404671
-0.399184
-0.393336
-0.387061
-0.380339
-0.373199
-0.365706
-0.357949
-0.350027
-0.342033
-0.334055
-0.326156
-0.318327
-0.432282
-0.427699
-0.423171
-0.418622
-0.414037
-0.409515
-0.405042
-0.400526
-0.395849
-0.390892
-0.385564
-0.379811
-0.373627
-0.367043
-0.360124
-0.352951
-0.345612
-0.33819
-0.330756
-0.323274
-0.424545
-0.420637
-0.416669
-0.412631
-0.408558
-0.404563
-0.400655
-0.396762
-0.392776
-0.388579
-0.384066
-0.379162
-0.373831
-0.368079
-0.361946
-0.3555
-0.348819
-0.34198
-0.335059
-0.327999
-0.417514
-0.414209
-0.410769
-0.407225
-0.403646
-0.40015
-0.396758
-0.393417
-0.390029
-0.38648
-0.382661
-0.378483
-0.37389
-0.368869
-0.363444
-0.357674
-0.351632
-0.345399
-0.339057
-0.332589
-0.411139
-0.408368
-0.405421
-0.402357
-0.399258
-0.396243
-0.393337
-0.390497
-0.387636
-0.384645
-0.381414
-0.377845
-0.373871
-0.369464
-0.364638
-0.359452
-0.353993
-0.348359
-0.342656
-0.337035
-0.405349
-0.403048
-0.400564
-0.397963
-0.395335
-0.392786
-0.390345
-0.387972
-0.385588
-0.383087
-0.380358
-0.377296
-0.373825
-0.369904
-0.365542
-0.360802
-0.3558
-0.350689
-0.345646
-0.341279
-0.400059
-0.398174
-0.396122
-0.393968
-0.391797
-0.389704
-0.387712
-0.385783
-0.383839
-0.381778
-0.379485
-0.376849
-0.37378
-0.37022
-0.366166
-0.361682
-0.356914
-0.352092
-0.347559
-0.344769
-0.395171
-0.393662
-0.392014
-0.390286
-0.388557
-0.386906
-0.385347
-0.38384
-0.38231
-0.380651
-0.378748
-0.376478
-0.373733
-0.370429
-0.366531
-0.362076
-0.357204
-0.352184
-0.347651
-0.346673
-0.390587
-0.389426
-0.388156
-0.386831
-0.385521
-0.384289
-0.383141
-0.382035
-0.380891
-0.379606
-0.378058
-0.376116
-0.373648
-0.370534
-0.366684
-0.362062
-0.356717
-0.350779
-0.344943
-0.344214
-0.386216
-0.385388
-0.384471
-0.383519
-0.382598
-0.381755
-0.380987
-0.380248
-0.37946
-0.378518
-0.377297
-0.375657
-0.373444
-0.370497
-0.366645
-0.361711
-0.355489
-0.34753
-0.336675
-0.324238
-0.381982
-0.381481
-0.380892
-0.38028
-0.379709
-0.379213
-0.378782
-0.378369
-0.377896
-0.377259
-0.376336
-0.374983
-0.373042
-0.370334
-0.366662
-0.361817
-0.355583
-0.347593
-0.337033
-0.325648
-0.377829
-0.377654
-0.377369
-0.377059
-0.376791
-0.376592
-0.376446
-0.376305
-0.376094
-0.375715
-0.375048
-0.373959
-0.372295
-0.369887
-0.366556
-0.362125
-0.356438
-0.34924
-0.340034
-0.330785
-0.373729
-0.373879
-0.373872
-0.373821
-0.373808
-0.373849
-0.373928
-0.373997
-0.373986
-0.373803
-0.373336
-0.372461
-0.371037
-0.368912
-0.365928
-0.361941
-0.356827
-0.350364
-0.34225
-0.334563
-0.369677
-0.370149
-0.370392
-0.370558
-0.370746
-0.37097
-0.371212
-0.371427
-0.37155
-0.371495
-0.371162
-0.370436
-0.369192
-0.367294
-0.364608
-0.361018
-0.35643
-0.350659
-0.34357
-0.337142
-0.365695
-0.366477
-0.36694
-0.367282
-0.367622
-0.367973
-0.368319
-0.368619
-0.368813
-0.368825
-0.368562
-0.367923
-0.366798
-0.365071
-0.362633
-0.359397
-0.355298
-0.350202
-0.344098
-0.338712
-0.361823
-0.362894
-0.363546
-0.364024
-0.364471
-0.364902
-0.365301
-0.365635
-0.365849
-0.365874
-0.365631
-0.365031
-0.36398
-0.362384
-0.360156
-0.357239
-0.353594
-0.349136
-0.343934
-0.339399
-0.358113
-0.359442
-0.360251
-0.36083
-0.361347
-0.361818
-0.362233
-0.362562
-0.362759
-0.362764
-0.362509
-0.361919
-0.360916
-0.359428
-0.357391
-0.354772
-0.351553
-0.347689
-0.343286
-0.339444
-0.354623
-0.35617
-0.357103
-0.357753
-0.35831
-0.358793
-0.359197
-0.359498
-0.359657
-0.359626
-0.359345
-0.358755
-0.357795
-0.356411
-0.354561
-0.352228
-0.349412
-0.346092
-0.342382
-0.33911
-0.351408
-0.353126
-0.354151
-0.354846
-0.355422
-0.355899
-0.356276
-0.356538
-0.356654
-0.356583
-0.356279
-0.355695
-0.354785
-0.353512
-0.35185
-0.349796
-0.347358
-0.34453
-0.34141
-0.338619
-0.348516
-0.350353
-0.351438
-0.352158
-0.352736
-0.353196
-0.353542
-0.353765
-0.353841
-0.353739
-0.353423
-0.352857
-0.352011
-0.350859
-0.349389
-0.347605
-0.345518
-0.343127
-0.340508
-0.338133
-0.345982
-0.347883
-0.349
-0.349728