/*--------------------------------*- C++ -*----------------------------------*\
  =========                 |
  \\      /  F ield         | OpenFOAM: The Open Source CFD Toolbox
   \\    /   O peration     | Website:  https://openfoam.org
    \\  /    A nd           | Version:  6.0
     \\/     M anipulation  |
\*---------------------------------------------------------------------------*/
FoamFile
{
    version     2.0;
    format      ascii;
    class       surfaceScalarField;
    location    "66";
    object      phi;
}
// * * * * * * * * * * * * * * * * * * * * * * * * * * * * * * * * * * * * * //

dimensions      [0 3 -1 0 0 0 0];

internalField   nonuniform List<scalar> 
15760
(
-2.51361e-06
2.45055e-05
-2.19919e-05
-8.89352e-06
6.76e-05
-6.12201e-05
-1.80949e-05
0.000104949
-9.57473e-05
-2.91899e-05
0.000136597
-0.000125502
-4.13731e-05
0.000162929
-0.000150746
-5.39539e-05
0.000184606
-0.000172025
-6.635e-05
0.00020241
-0.000190014
-7.80823e-05
0.000217142
-0.00020541
-8.87725e-05
0.000229556
-0.000218865
-9.81407e-05
0.000240319
-0.00023095
-0.000106004
0.000250005
-0.000242141
-0.000112277
0.000259098
-0.000252826
-0.000116962
0.000268005
-0.000263319
-0.000120154
0.000277071
-0.000273879
-0.000122027
0.0002866
-0.000284727
-0.000122831
0.000296866
-0.000296062
-0.000122888
0.000308119
-0.000308062
-0.000122582
0.00032059
-0.000320897
-0.000122359
0.00033452
-0.000334743
0.000350206
-0.000349829
-0.000122735
-2.03887e-06
2.65444e-05
-7.28892e-06
7.285e-05
-1.48991e-05
0.000112559
-2.4077e-05
0.000145775
-3.41127e-05
0.000172965
-4.43816e-05
0.000194875
-5.43452e-05
0.000212374
-6.3551e-05
0.000226348
-7.16334e-05
0.000237638
-7.83137e-05
0.000246999
-8.34009e-05
0.000255092
-8.6791e-05
0.000262488
-8.84659e-05
0.000269679
-8.84916e-05
0.000277096
-8.70151e-05
0.000285124
-8.42628e-05
0.000294114
-8.05388e-05
0.000304395
-7.62253e-05
0.000316277
-7.17862e-05
0.000330081
0.000346203
-6.77839e-05
-1.61803e-06
2.81624e-05
-5.84613e-06
7.70782e-05
-1.19973e-05
0.00011871
-1.93976e-05
0.000153175
-2.74227e-05
0.00018099
-3.55083e-05
0.00020296
-4.31545e-05
0.00022002
-4.99305e-05
0.000233124
-5.54765e-05
0.000243184
-5.9507e-05
0.000251029
-6.18125e-05
0.000257398
-6.22615e-05
0.000262937
-6.0802e-05
0.00026822
-5.74628e-05
0.000273757
-5.23553e-05
0.000280016
-4.56765e-05
0.000287435
-3.77135e-05
0.000296432
-2.88505e-05
0.000307414
-1.95798e-05
0.00032081
0.00033715
-1.05269e-05
-1.26086e-06
2.94233e-05
-4.59855e-06
8.04159e-05
-9.4556e-06
0.000123567
-1.52561e-05
0.000158976
-2.14497e-05
0.000187184
-2.75244e-05
0.000209035
-3.30145e-05
0.00022551
-3.75053e-05
0.000237615
-4.06378e-05
0.000246317
-4.21125e-05
0.000252504
-4.1693e-05
0.000256978
-3.92105e-05
0.000260455
-3.45686e-05
0.000263578
-2.77488e-05
0.000266937
-1.88179e-05
0.000271085
-7.93732e-06
0.000276554
4.62511e-06
0.00028387
1.84799e-05
0.000293559
3.30955e-05
0.000306195
0.000322482
4.77638e-05
-9.73655e-07
3.03969e-05
-3.56799e-06
8.30102e-05
-7.31797e-06
0.000127317
-1.17236e-05
0.000163381
-1.62949e-05
0.000191755
-2.05648e-05
0.000213305
-2.40966e-05
0.000229042
-2.64884e-05
0.000240007
-2.73778e-05
0.000247206
-2.64459e-05
0.000251572
-2.34229e-05
0.000253955
-1.80943e-05
0.000255126
-1.03089e-05
0.000255793
9.80696e-09
0.000256619
1.28506e-05
0.000258245
2.80967e-05
0.000261308
4.55049e-05
0.000266462
6.46792e-05
0.000274385
8.50385e-05
0.000285835
0.000301751
0.00010577
-7.59187e-07
3.11561e-05
-2.76499e-06
8.5016e-05
-5.60665e-06
0.000130159
-8.83679e-06
0.000166611
-1.20124e-05
0.000194931
-1.47039e-05
0.000215997
-1.64996e-05
0.000230837
-1.70085e-05
0.000240516
-1.5863e-05
0.00024606
-1.27224e-05
0.000248432
-7.27903e-06
0.000248512
7.3442e-07
0.000247113
1.1533e-05
0.000244994
2.52635e-05
0.000242888
4.19839e-05
0.000241524
6.16354e-05
0.000241657
8.40095e-05
0.000244088
0.000108707
0.000249688
0.000135088
0.000259454
0.00027463
0.000162209
-6.17114e-07
3.17732e-05
-2.18917e-06
8.65881e-05
-4.32183e-06
0.000132291
-6.59729e-06
0.000168887
-8.60598e-06
0.000196939
-9.94915e-06
0.00021734
-1.02379e-05
0.000231126
-9.09225e-06
0.00023937
-6.14038e-06
0.000243108
-1.02079e-06
0.000243312
6.61343e-06
0.000240878
1.70861e-05
0.00023664
3.06844e-05
0.000231396
4.76378e-05
0.000225935
6.80898e-05
0.000221072
9.20587e-05
0.000217688
0.000119388
0.000216758
0.000149685
0.00021939
0.000182248
0.000226892
0.000240908
0.00021597
-5.43892e-07
3.23171e-05
-1.82924e-06
8.78734e-05
-3.44153e-06
0.000133904
-4.96994e-06
0.000170415
-6.02541e-06
0.000197995
-6.234e-06
0.000217548
-5.22879e-06
0.000230121
-2.64301e-06
0.000236784
1.89471e-06
0.000238571
8.76222e-06
0.000236445
1.8342e-05
0.000231298
3.10142e-05
0.000223968
4.71425e-05
0.000215268
6.70506e-05
0.000206027
9.09856e-05
0.000197137
0.000119067
0.000189606
0.000151218
0.000184608
0.000187073
0.000183535
0.000225872
0.000188093
0.000200462
0.000266318
-5.33054e-07
3.28502e-05
-1.66354e-06
8.90039e-05
-2.92203e-06
0.000135162
-3.88266e-06
0.000171376
-4.16414e-06
0.000198276
-3.41167e-06
0.000216796
-1.2801e-06
0.000227989
2.57983e-06
0.000232924
8.53192e-06
0.000232619
1.69614e-05
0.000228015
2.82773e-05
0.000219982
4.29096e-05
0.000209336
6.1297e-05
0.00019688
8.38635e-05
0.00018346
0.000110978
0.000170023
0.000142888
0.000157696
0.000179634
0.000147862
0.000220916
0.000142253
0.000265931
0.000143077
0.000153226
0.000313167
-5.7552e-07
3.34257e-05
-1.6609e-06
9.00893e-05
-2.69898e-06
0.0001362
-3.22735e-06
0.000171904
-2.85917e-06
0.000197908
-1.2523e-06
0.000215189
1.91729e-06
0.00022482
6.9769e-06
0.000227865
1.42739e-05
0.000225322
2.41885e-05
0.000218101
3.71419e-05
0.000207028
5.35993e-05
0.000192878
7.40636e-05
0.000176416
9.90564e-05
0.000158467
0.000129077
0.000140002
0.000164531
0.000122241
0.000205617
0.000106777
0.000252156
9.57148e-05
0.000303348
9.18847e-05
9.91249e-05
0.000357449
-6.59994e-07
3.40857e-05
-1.78171e-06
9.1211e-05
-2.68949e-06
0.000137108
-2.86259e-06
0.000172077
-1.89386e-06
0.000196939
5.54976e-07
0.00021274
4.79005e-06
0.000220585
1.11144e-05
0.00022154
1.98512e-05
0.000216585
3.1362e-05
0.00020659
4.60615e-05
0.000192329
6.44281e-05
0.000174512
8.70062e-05
0.000153838
0.000114397
0.000131077
0.000147224
0.000107175
0.000186066
8.3399e-05
0.000231324
6.15189e-05
0.000283008
4.40312e-05
0.000340397
3.44953e-05
3.79856e-05
0.000401536
-7.73439e-07
3.48592e-05
-1.97948e-06
9.24171e-05
-2.79493e-06
0.000137924
-2.6182e-06
0.000171901
-1.00437e-06
0.000195326
2.39383e-06
0.000209342
7.8729e-06
0.000215106
1.57147e-05
0.000213698
2.62149e-05
0.000206085
3.9706e-05
0.000193099
5.65776e-05
0.000175457
7.72936e-05
0.000153796
0.000102405
0.000128726
0.000132556
0.000100926
0.000168463
7.12673e-05
0.000210865
4.0997e-05
0.00026039
1.19936e-05
0.000317311
-1.28898e-05
0.000381098
-2.92919e-05
-3.05742e-05
0.000449658
-9.01558e-07
3.57607e-05
-2.20239e-06
9.37179e-05
-2.90421e-06
0.000138625
-2.30089e-06
0.000171297
1.11243e-07
0.000192914
4.70702e-06
0.000204746
1.17889e-05
0.000208024
2.16292e-05
0.000203858
3.45021e-05
0.000193212
5.07089e-05
0.000176892
7.06009e-05
0.000155565
9.46009e-05
0.000129796
0.000123225
0.000100102
0.000157101
6.705e-05
0.000196978
3.13904e-05
0.000243698
-5.72282e-06
0.000298096
-4.24048e-05
0.000360756
-7.55492e-05
0.000431474
-0.00010001
-0.000107278
0.000508177
-1.02917e-06
3.67899e-05
-2.39455e-06
9.50833e-05
-2.89672e-06
0.000139128
-1.70001e-06
0.0001701
1.78299e-06
0.000189431
7.9796e-06
0.00019855
1.72226e-05
0.000198781
2.97974e-05
0.000191283
4.59749e-05
0.000177034
6.60367e-05
0.00015683
9.02954e-05
0.000131307
0.000119115
0.000100976
0.000152936
6.62811e-05
0.000192304
2.76819e-05
0.000237902
-1.4207e-05
0.000290565
-5.83861e-05
0.000351243
-0.000103083
0.000420806
-0.000145112
0.000499501
-0.000178705
-0.000193319
0.000585542
-1.14035e-06
3.79302e-05
-2.49669e-06
9.64396e-05
-2.64416e-06
0.000139275
-5.91603e-07
0.000168048
4.36059e-06
0.000184478
1.27232e-05
0.000190187
2.48923e-05
0.000186612
4.11997e-05
0.000174976
6.19452e-05
0.000156289
8.74175e-05
0.000131358
0.000117907
0.000100817
0.00015372
6.51633e-05
0.000195193
2.48076e-05
0.000242726
-1.98507e-05
0.000296822
-6.83035e-05
0.000358153
-0.000119717
0.000427595
-0.000172525
0.000506162
-0.000223679
0.000594586
-0.000267128
-0.000290447
0.000691713
-1.21828e-06
3.91485e-05
-2.44601e-06
9.76674e-05
-2.01081e-06
0.00013884
1.26002e-06
0.000164777
8.20903e-06
0.000177529
1.94659e-05
0.00017893
3.55291e-05
0.000170548
5.68185e-05
0.000153687
8.37049e-05
0.000129402
0.000116524
9.85391e-05
0.000155577
6.1764e-05
0.000201131
1.96093e-05
0.000253417
-2.7479e-05
0.000312646
-7.90792e-05
0.000379043
-0.000134701
0.000452934
-0.000193608
0.000534863
-0.000254453
0.000625685
-0.000314501
0.000726446
-0.000367889
-0.000400933
0.000836933
-1.24495e-06
4.03935e-05
-2.17545e-06
9.85979e-05
-8.52485e-07
0.000137517
4.10318e-06
0.000159821
1.37085e-05
0.000167924
2.8749e-05
0.00016389
4.98667e-05
0.000149431
7.76136e-05
0.00012594
0.000112477
9.45394e-05
0.000154882
5.61342e-05
0.000205182
1.14637e-05
0.000263637
-3.88464e-05
0.000330392
-9.42333e-05
0.000405456
-0.000154143
0.000488719
-0.000217964
0.000580019
-0.000284908
0.000679291
-0.000353726
0.000786807
-0.000422017
0.000903414
-0.000484496
-0.000527392
0.00102987
-1.2008e-06
4.15943e-05
-1.61302e-06
9.90101e-05
9.84372e-07
0.000134919
8.20015e-06
0.000152606
2.12555e-05
0.000154869
4.11268e-05
0.000144019
6.86376e-05
0.00012192
0.000104511
9.00668e-05
0.000149386
4.9664e-05
0.000203815
1.70534e-06
0.000268233
-5.2955e-05
0.000342924
-0.000113537
0.000427965
-0.000179275
0.000523187
-0.000249365
0.000628133
-0.000322911
0.000742081
-0.000398856
0.000864168
-0.000475813
0.000993678
-0.000551526
0.0011305
-0.00062132
-0.000672843
0.00127595
-1.06475e-06
4.2659e-05
-6.82172e-07
9.86275e-05
3.66181e-06
0.000130575
1.38252e-05
0.000142442
3.12596e-05
0.000137434
5.71607e-05
0.000118117
9.25619e-05
8.65188e-05
0.00013838
4.42488e-05
0.000195425
-7.38094e-06
0.000264383
-6.72525e-05
0.000345778
-0.00013435
0.000439921
-0.00020768
0.000546849
-0.000286203
0.000666255
-0.000368771
0.000797412
-0.000454068
0.000939109
-0.000540553
0.00108965
-0.000626349
0.00124699
-0.000708876
0.00140931
-0.000783632
-0.000840935
0.0015774
-8.14787e-07
4.34738e-05
6.96077e-07
9.71166e-05
7.34575e-06
0.000123926
2.12565e-05
0.000128531
4.41293e-05
0.000114562
7.73969e-05
8.48497e-05
0.000122312
4.16039e-05
0.000179981
-1.34204e-05
0.000251364
-7.87637e-05
0.000337242
-0.000153131
0.000438179
-0.000235287
0.000554469
-0.00032397
0.000686094
-0.000417828
0.000832689
-0.000515365
0.000993505
-0.000614885
0.00116738
-0.000714424
0.00135262
-0.000811591
0.00154662
-0.000902882
0.00174398
-0.000980986
-0.00102561
0.00192865
-4.29856e-07
4.39036e-05
2.59798e-06
9.40888e-05
1.2196e-05
0.000114328
3.07591e-05
0.000109968
6.02456e-05
8.5075e-05
0.000102325
4.27705e-05
0.000158449
-1.45202e-05
0.00022987
-8.48412e-05
0.000317616
-0.00016651
0.000422452
-0.000257967
0.000544827
-0.000357662
0.000684843
-0.000463986
0.000842249
-0.000575234
0.00101648
-0.000689596
0.00120678
-0.000805182
0.00141242
-0.000920068
0.00163318
-0.00103235
0.00187042
-0.00114011
0.00213074
-0.00124131
-0.00132722
0.00243234
1.11199e-07
4.37924e-05
5.09593e-06
8.9104e-05
1.83594e-05
0.000101064
4.25677e-05
8.576e-05
7.99294e-05
4.77134e-05
0.000132323
-9.62322e-06
0.000201344
-8.3541e-05
0.000288289
-0.000171787
0.00039411
-0.000272331
0.000519349
-0.000383206
0.000664087
-0.000502399
0.000827916
-0.000627816
0.00100996
-0.00075728
0.00120895
-0.000888582
0.00142333
-0.00101956
0.00165149
-0.00114823
0.00189202
-0.00127288
0.00214417
-0.00139226
0.00240853
-0.00150567
-0.00160495
0.00268626
8.24382e-07
4.29681e-05
8.24711e-06
8.16813e-05
2.59508e-05
8.33606e-05
5.68584e-05
5.48524e-05
0.000103398
1.17358e-06
0.000167598
-7.38233e-05
0.000251092
-0.000167034
0.000355064
-0.000275759
0.000480174
-0.000397441
0.000626477
-0.000529508
0.000793377
-0.000669299
0.000979626
-0.000814066
0.00118338
-0.000961037
0.00140232
-0.00110752
0.00163379
-0.00125103
0.00187497
-0.00138941
0.00212304
-0.00152095
0.00237531
-0.00164453
0.00262918
-0.00175954
-0.00185927
0.0028835
1.7224e-06
4.12457e-05
1.20941e-05
7.13096e-05
3.50489e-05
6.04058e-05
7.37333e-05
1.6168e-05
0.000130736
-5.58289e-05
0.000208131
-0.000151218
0.00030743
-0.000266334
0.000429489
-0.000397818
0.000574403
-0.000542355
0.000741434
-0.00069654
0.000929003
-0.000856868
0.00113475
-0.00101981
0.00135565
-0.00118194
0.00158824
-0.00134011
0.00182878
-0.00149157
0.00207351
-0.00163413
0.00231876
-0.0017662
0.00256107
-0.00188684
0.00279726
-0.00199573
-0.00208849
0.00302648
2.81397e-06
3.84317e-05
1.66626e-05
5.74609e-05
4.56896e-05
3.13789e-05
9.3207e-05
-3.13494e-05
0.000161866
-0.000124488
0.000253634
-0.000242986
0.000369682
-0.000382383
0.000510261
-0.000538397
0.00067459
-0.000706684
0.000860835
-0.000882785
0.00106618
-0.00106221
0.00128698
-0.00124061
0.00151904
-0.001414
0.00175787
-0.00157894
0.00199901
-0.00173271
0.00223822
-0.00187334
0.00247171
-0.0019997
0.00269624
-0.00211137
0.00290913
-0.00220862
-0.00228925
0.00310989
4.10451e-06
3.43272e-05
2.19617e-05
3.96037e-05
5.78639e-05
-4.52337e-06
0.000115199
-8.86845e-05
0.000196538
-0.000205827
0.000303529
-0.000349976
0.000436729
-0.000515583
0.000595463
-0.00069713
0.000777761
-0.000888982
0.000980435
-0.00108546
0.00119929
-0.00128106
0.00142943
-0.00147075
0.00166566
-0.00165024
0.00190288
-0.00181616
0.00213636
-0.00196619
0.00236207
-0.00209905
0.00257677
-0.0022144
0.00277807
-0.00231267
0.00296442
-0.00239497
-0.00246093
0.00313609
5.59706e-06
2.87301e-05
2.79851e-05
1.72157e-05
7.15179e-05
-4.80561e-05
0.00013953
-0.000156697
0.000234316
-0.000300614
0.000356937
-0.000472597
0.000507012
-0.000665658
0.000682611
-0.00087273
0.000880305
-0.00108668
0.00109541
-0.00130056
0.00132237
-0.00150803
0.0015553
-0.00170367
0.0017884
-0.00188334
0.00201647
-0.00204423
0.00223518
-0.0021849
0.00244124
-0.00230511
0.00263247
-0.00240562
0.0028077
-0.00248789
0.00296666
-0.00255394
-0.00260473
0.00311047
7.29262e-06
2.14375e-05
3.47108e-05
-1.02025e-05
8.65493e-05
-9.98947e-05
0.000165914
-0.000236061
0.000274573
-0.000409272
0.000412678
-0.000610702
0.000578568
-0.000831549
0.000768764
-0.00106292
0.000978209
-0.00129612
0.00120075
-0.0015231
0.00142974
-0.00173702
0.00165869
-0.00193263
0.00188181
-0.00210646
0.00209439
-0.00225682
0.00229303
-0.00238353
0.00247562
-0.0024877
0.00264128
-0.00257128
0.00279015
-0.00263676
0.00292312
-0.00268691
-0.00272366
0.00304205
9.18956e-06
1.22479e-05
4.20984e-05
-4.31114e-05
0.000102802
-0.000160599
0.000193952
-0.000327211
0.000316482
-0.000531803
0.000469288
-0.000763508
0.000649103
-0.00101136
0.000850692
-0.00126451
0.00106738
-0.0015128
0.00129177
-0.00174749
0.00151657
-0.00196183
0.00173531
-0.00215136
0.00194276
-0.00231392
0.00213527
-0.00244932
0.00231072
-0.00255899
0.0024684
-0.00264538
0.00260871
-0.00271159
0.0027329
-0.00276095
0.00284272
-0.00279673
-0.00282142
0.00294048
1.12821e-05
9.65857e-07
5.00846e-05
-8.1914e-05
0.000120058
-0.000230572
0.00022312
-0.000430273
0.000359028
-0.00066771
0.000525067
-0.000929548
0.000716113
-0.00120241
0.000925125
-0.00147353
0.001144
-0.00173168
0.00136457
-0.00196806
0.00157948
-0.00217674
0.00178286
-0.00235474
0.00197062
-0.00250168
0.00214049
-0.00261919
0.00229179
-0.00271028
0.00242512
-0.00277871
0.00254198
-0.00282845
0.00264437
-0.00286334
0.00273453
-0.00288689
-0.00290183
0.00281494
1.35579e-05
-1.25921e-05
5.85771e-05
-0.000126933
0.000138029
-0.000310024
0.000252773
-0.000545017
0.000401024
-0.000815961
0.000578155
-0.00110668
0.000777055
-0.00140131
0.000989023
-0.00168549
0.00120495
-0.00194761
0.00141645
-0.00217957
0.00161677
-0.00237705
0.00180116
-0.00253913
0.00196701
-0.00266752
0.00211354
-0.00276573
0.00224145
-0.00283819
0.0023524
-0.00288966
0.00244863
-0.00292467
0.00253254
-0.00294726
0.00260654
-0.00296089
-0.00296828
0.00267298
1.59966e-05
-2.85887e-05
6.74499e-05
-0.000178386
0.000156353
-0.000398928
0.00028215
-0.000670814
0.000441166
-0.000974977
0.000626648
-0.00129216
0.000829553
-0.00160421
0.00103986
-0.0018958
0.00124801
-0.00215576
0.00144608
-0.00237763
0.00162842
-0.00255939
0.00179179
-0.00270251
0.00193517
-0.0028109
0.00205918
-0.00288974
0.00216562
-0.00294463
0.00225689
-0.00298093
0.00233559
-0.00300337
0.00240426
-0.00301593
0.00246517
-0.0030218
-0.00302352
0.00252042
1.85673e-05
-4.71559e-05
7.65421e-05
-0.000236361
0.000174602
-0.000496987
0.000310406
-0.000806618
0.000478101
-0.00114267
0.000668743
-0.0014828
0.000871595
-0.00180706
0.00107584
-0.00210004
0.00127211
-0.00235203
0.0014535
-0.00255903
0.00161588
-0.00272176
0.00175767
-0.00284429
0.0018793
-0.00293253
0.00198259
-0.00299303
0.00207007
-0.00303212
0.00214454
-0.0030554
0.00220869
-0.00306752
0.00226491
-0.00307215
0.00231523
-0.00307213
-0.00306968
0.00236139
2.1229e-05
-6.83849e-05
8.56595e-05
-0.000300792
0.000192291
-0.000603618
0.000336654
-0.000950982
0.000510526
-0.00131654
0.000702876
-0.00167515
0.000901702
-0.00200589
0.001096
-0.00229434
0.00127722
-0.00253326
0.00143992
-0.00272172
0.00158165
-0.00286349
0.00170241
-0.00296506
0.00180391
-0.00303403
0.00188876
-0.00307788
0.00195993
-0.00310329
0.00202031
-0.00311578
0.00207245
-0.00311966
0.00211848
-0.00311819
0.00216012
-0.00311376
-0.00310828
0.00219873
2.39307e-05
-9.23156e-05
9.45806e-05
-0.000371442
0.000208906
-0.000717944
0.00036002
-0.0011021
0.000537277
-0.0014938
0.000727846
-0.00186572
0.000919018
-0.00219706
0.00110024
-0.00247556
0.00126427
-0.00269729
0.00140737
-0.00286482
0.00152878
-0.0029849
0.00162988
-0.00306616
0.00171328
-0.00311743
0.00178211
-0.00314671
0.00183946
-0.00316063
0.00188808
-0.0031644
0.00193027
-0.00316185
0.00196783
-0.00315575
0.00200215
-0.00314808
-0.0031404
0.00203426
2.66129e-05
-0.000118929
0.000103067
-0.000447895
0.000223931
-0.000838808
0.000379701
-0.00125787
0.000557417
-0.00167152
0.00074289
-0.0020512
0.000923325
-0.0023775
0.00108918
-0.00264142
0.00123486
-0.00284297
0.00135839
-0.00298836
0.00146054
-0.00308705
0.00154375
-0.00314937
0.00161124
-0.00318492
0.00166632
-0.00320178
0.00171198
-0.0032063
0.00175074
-0.00320315
0.00178455
-0.00319566
0.00181489
-0.00318609
0.00184284
-0.00317603
-0.00316673
0.00186918
2.92106e-05
-0.000148139
0.000110873
-0.000529558
0.000236876
-0.00096481
0.000395019
-0.00141601
0.000570293
-0.00184679
0.000747706
-0.00222861
0.000914978
-0.00254477
0.00106402
-0.00279046
0.00119103
-0.00296998
0.00129571
-0.00309304
0.00138008
-0.00317142
0.00144733
-0.00321662
0.00150098
-0.00323856
0.0015443
-0.0032451
0.00158005
-0.00324205
0.0016104
-0.00323351
0.00163698
-0.00322224
0.00166096
-0.00321007
0.00168318
-0.00319825
-0.00318774
0.00170418
3.16551e-05
-0.000179794
0.000117762
-0.000615665
0.00024731
-0.00109436
0.000405461
-0.00157416
0.000575566
-0.00201689
0.000742424
-0.00239547
0.0008948
-0.00269714
0.00102632
-0.00292198
0.001135
-0.00307866
0.00122199
-0.00318003
0.00129025
-0.00323968
0.00134343
-0.0032698
0.00138508
-0.00328022
0.00141829
-0.00327831
0.0014455
-0.00326926
0.00146853
-0.00325653
0.00148869
-0.0032424
0.0015069
-0.00322828
0.00152378
-0.00321513
-0.0032037
0.00153974
3.38782e-05
-0.000213672
0.000123517
-0.000705304
0.000254884
-0.00122573
0.000410705
-0.00172998
0.000573199
-0.00217939
0.000727539
-0.00254981
0.000863939
-0.00283354
0.000977869
-0.00303591
0.001069
-0.00316979
0.00113968
-0.00325071
0.00119352
-0.00329352
0.00123433
-0.00331061
0.00126556
-0.00331145
0.00128998
-0.00330273
0.00130968
-0.00328895
0.00132615
-0.00327301
0.00134044
-0.00325669
0.00135326
-0.0032411
0.00136506
-0.00322693
-0.00321478
0.00137614
3.58146e-05
-0.000249487
0.000127949
-0.000797438
0.000259347
-0.00135712
0.000410625
-0.00188126
0.000563431
-0.00233219
0.000703826
-0.0026902
0.000823737
-0.00295346
0.000920457
-0.00313263
0.00099511
-0.00324444
0.00105094
-0.00330654
0.00109192
-0.0033345
0.00112186
-0.00334055
0.00114393
-0.00333352
0.00116057
-0.00331937
0.00117352
-0.0033019
0.00118398
-0.00328347
0.00119277
-0.00326548
0.00120042
-0.00324875
0.00120728
-0.0032338
-0.00322105
0.00121356
3.74093e-05
-0.000286896
0.00013092
-0.000890949
0.000260567
-0.00148677
0.000405293
-0.00202599
0.000546735
-0.00247364
0.00067226
-0.00281573
0.000775632
-0.00305683
0.000855844
-0.00321284
0.000915218
-0.00330382
0.000957615
-0.00334894
0.000987145
-0.00336403
0.00100744
-0.00336084
0.00102136
-0.00334743
0.00103097
-0.00332898
0.00103771
-0.00330864
0.00104252
-0.00328829
0.00104603
-0.00326899
0.00104866
-0.00325137
0.00105065
-0.00323579
-0.00322256
0.00105217
3.86048e-05
-0.000325501
0.000132312
-0.000984656
0.000258487
-0.00161294
0.000394899
-0.0021624
0.000523703
-0.00260244
0.000633861
-0.00292589
0.000720991
-0.00314396
0.000785592
-0.00327745
0.000830911
-0.00334914
0.000861176
-0.0033792
0.000880455
-0.00338331
0.000892108
-0.0033725
0.000898638
-0.00335396
0.000901778
-0.00333212
0.000902677
-0.00330954
0.000902074
-0.00328768
0.000900452
-0.00326737
0.000898127
-0.00324905
0.000895297
-0.00323296
-0.00321933
0.000892061
3.93643e-05
-0.000364865
0.000132077
-0.00107737
0.000253176
-0.00173404
0.0003798
-0.00228902
0.000495069
-0.00271771
0.000589727
-0.00302054
0.000661155
-0.00321539
0.000711132
-0.00332742
0.000743572
-0.00338158
0.000762858
-0.00339849
0.000772885
-0.00339334
0.000776684
-0.00337629
0.000776401
-0.00335368
0.000773462
-0.00332918
0.000768773
-0.00330485
0.000762906
-0.00328182
0.000756232
-0.00326069
0.000748996
-0.00324181
0.000741349
-0.00322532
-0.00321134
0.000733367
3.96591e-05
-0.000404524
0.000130204
-0.00116791
0.000244781
-0.00184862
0.000360431
-0.00240467
0.000461607
-0.00281889
0.000540906
-0.00309984
0.000597328
-0.00327181
0.000633687
-0.00336378
0.000654329
-0.00340222
0.000663626
-0.00340779
0.000665211
-0.00339492
0.000661762
-0.00337285
0.00065509
-0.00334701
0.000646346
-0.00332043
0.000636235
-0.00329474
0.000625197
-0.00327078
0.000613516
-0.00324901
0.000601385
-0.00322968
0.000588924
-0.00321285
-0.00319861
0.00057619
3.94723e-05
-0.000443997
0.000126727
-0.00125517
0.000233516
-0.00195541
0.000337287
-0.00250844
0.000424098
-0.0029057
0.000488384
-0.00316413
0.000530577
-0.003314
0.000554286
-0.00338749
0.000564093
-0.00341203
0.000564232
-0.00340792
0.000558019
-0.00338871
0.000547782
-0.00336261
0.000535026
-0.00333425
0.000520664
-0.00330607
0.00050524
-0.00327932
0.000489086
-0.00325462
0.000472422
-0.00323235
0.000455401
-0.00321266
0.000438121
-0.00319557
-0.00318112
0.000420631
3.87992e-05
-0.000482796
0.000121715
-0.00133808
0.000219642
-0.00205334
0.00031089
-0.00259969
0.000383295
-0.0029781
0.000433055
-0.00321389
0.000461823
-0.00334277
0.000473786
-0.00339945
0.000473595
-0.00341184
0.000465257
-0.00339959
0.00045175
-0.0033752
0.000435068
-0.00334593
0.000416442
-0.00331563
0.00039659
-0.00328622
0.000375922
-0.00325865
0.000354685
-0.00323339
0.000333048
-0.00321071
0.000311135
-0.00319075
0.000289034
-0.00317347
-0.00315887
0.000266787
3.76459e-05
-0.000520442
0.000115268
-0.00141571
0.000203455
-0.00214152
0.000281764
-0.002678
0.000339905
-0.00303624
0.000375714
-0.0032497
0.000391851
-0.0033589
0.000392885
-0.00340049
0.000383411
-0.00340236
0.000367149
-0.00338333
0.000346735
-0.00335479
0.000323856
-0.00332305
0.000299511
-0.00329128
0.000274253
-0.00326096
0.000248385
-0.00323278
0.000222083
-0.00320709
0.000195478
-0.0031841
0.000168672
-0.00316394
0.000141745
-0.00314655
-0.00313187
0.000114743
3.60283e-05
-0.00055647
0.00010751
-0.00148719
0.000185266
-0.00221928
0.000250419
-0.00274315
0.000294577
-0.0030804
0.000317055
-0.00327218
0.000321318
-0.00336317
0.000312152
-0.00339132
0.000293993
-0.0033842
0.000270248
-0.00335958
0.00024322
-0.00332776
0.000214324
-0.00329415
0.000184361
-0.00326132
0.000153751
-0.00323035
0.000122708
-0.00320174
9.13538e-05
-0.00317573
5.97823e-05
-0.00315253
2.80806e-05
-0.00313224
-3.67216e-06
-0.00311479
-0.00310012
-3.54241e-05
3.39714e-05
-0.000590442
9.85794e-05
-0.0015518
0.000165393
-0.00228609
0.000217339
-0.0027951
0.000247893
-0.00311095
0.000257678
-0.00328196
0.000250774
-0.00335626
0.000232044
-0.00337259
0.0002057
-0.00335786
0.000174818
-0.0033287
0.000141393
-0.00329434
0.000106605
-0.00325937
7.10885e-05
-0.0032258
3.51574e-05
-0.00319442
-1.04511e-06
-0.00316553
-3.74458e-05
-0.00313933
-7.39822e-05
-0.003116
-0.00011058
-0.00309564
-0.000147157
-0.00307822
-0.00306363
-0.000183648
3.15069e-05
-0.000621949
8.86268e-05
-0.00160892
0.000144147
-0.00234161
0.00018297
-0.00283392
0.000200369
-0.00312835
0.000198094
-0.00327969
0.000180673
-0.00333884
0.000152933
-0.00334485
0.000118814
-0.00332374
8.10655e-05
-0.00329095
4.14033e-05
-0.00325467
8.02183e-07
-0.00321876
-4.02329e-05
-0.00318477
-8.14719e-05
-0.00315318
-0.000122829
-0.00312418
-0.000164274
-0.00309789
-0.000205776
-0.0030745
-0.000247272
-0.00305415
-0.000288668
-0.00303682
-0.00302241
-0.000329885
2.86725e-05
-0.000650621
7.7807e-05
-0.00165805
0.000121827
-0.00238563
0.000147723
-0.00285982
0.000152459
-0.00313309
0.000138741
-0.00326597
0.000111393
-0.00331149
7.51206e-05
-0.00330858
3.35653e-05
-0.00328218
-1.0839e-05
-0.00324654
-5.66285e-05
-0.00320888
-0.000102997
-0.0031724
-0.000149542
-0.00313822
-0.000196095
-0.00310663
-0.000242615
-0.00307766
-0.000289112
-0.00305139
-0.000335586
-0.00302802
-0.000381988
-0.00300774
-0.00042821
-0.0029906
-0.00297648
-0.000474146
2.55102e-05
-0.000676131
6.62759e-05
-0.00169882
9.87167e-05
-0.00241807
0.00011197
-0.00287307
0.000104562
-0.00312568
7.99922e-05
-0.0032414
4.32518e-05
-0.00327475
-1.13753e-06
-0.00326419
-4.98494e-05
-0.00323347
-0.000100747
-0.00319565
-0.00015259
-0.00315704
-0.00020471
-0.00312028
-0.00025678
-0.00308615
-0.000308675
-0.00305474
-0.000360386
-0.00302595
-0.000411958
-0.00299982
-0.000463429
-0.00297655
-0.000514768
-0.00295641
-0.000565851
-0.00293952
-0.00292579
-0.000616532
2.20651e-05
-0.000698196
5.41874e-05
-0.00173094
7.50825e-05
-0.00243897
7.60428e-05
-0.00287403
5.70265e-05
-0.00310666
2.21682e-05
-0.00320654
-2.34766e-05
-0.00322911
-7.56204e-05
-0.00321205
-0.000131253
-0.00317784
-0.000188517
-0.00313838
-0.000246365
-0.00309919
-0.000304245
-0.0030624
-0.000361882
-0.00302851
-0.000419174
-0.00299744
-0.000476129
-0.00296899
-0.000532824
-0.00294312
-0.00058934
-0.00292003
-0.000645679
-0.00290007
-0.000701702
-0.00288349
-0.00287029
-0.000757202
1.83847e-05
-0.000716581
4.16911e-05
-0.00175424
5.11702e-05
-0.00244845
4.02434e-05
-0.00286311
1.01588e-05
-0.00307658
-3.44501e-05
-0.00316193
-8.85519e-05
-0.00317501
-0.000148125
-0.00315247
-0.000210474
-0.00311549
-0.000273996
-0.00307486
-0.00033782
-0.00303537
-0.000401486
-0.00299873
-0.000464758
-0.00296524
-0.000527534
-0.00293467
-0.00058982
-0.0029067
-0.000651715
-0.00288123
-0.000713349
-0.0028584
-0.000774774
-0.00283864
-0.000835847
-0.00282242
-0.00280988
-0.000896259
1.45172e-05
-0.000731098
2.89306e-05
-0.00176866
2.72067e-05
-0.00244673
4.84042e-06
-0.00284074
-3.57698e-05
-0.00303597
-8.96143e-05
-0.00310809
-0.000151755
-0.00311287
-0.000218458
-0.00308577
-0.00028733
-0.00304662
-0.000357011
-0.00300518
-0.000426784
-0.0029656
-0.000496275
-0.00292924
-0.000565272
-0.00289624
-0.00063366
-0.00286628
-0.000701418
-0.00283895
-0.000768638
-0.00281401
-0.000835492
-0.00279155
-0.000902099
-0.00277204
-0.000968329
-0.00275619
-0.00274449
-0.00103373
1.05115e-05
-0.00074161
1.60418e-05
-0.00177419
3.39948e-06
-0.00243408
-2.99255e-05
-0.00280742
-8.05188e-05
-0.00298538
-0.000143101
-0.00304551
-0.000212881
-0.00304309
-0.000286423
-0.00301223
-0.000361626
-0.00297142
-0.000437353
-0.00292945
-0.000513035
-0.00288991
-0.000588381
-0.00285389
-0.000663207
-0.00282142
-0.000737379
-0.00279211
-0.000810825
-0.0027655
-0.000883591
-0.00274124
-0.000955858
-0.00271928
-0.00102783
-0.00270007
-0.00109939
-0.00268462
-0.00267388
-0.00117
6.41548e-06
-0.000748025
3.15203e-06
-0.00177092
-2.00638e-05
-0.00241087
-6.38406e-05
-0.00276364
-0.000123875
-0.00292534
-0.000194708
-0.00297467
-0.000271736
-0.00296606
-0.000351822
-0.00293214
-0.000433144
-0.00289009
-0.000514774
-0.00284782
-0.000596288
-0.0028084
-0.000677485
-0.0027727
-0.00075823
-0.00274067
-0.000838384
-0.00271195
-0.000917821
-0.00268606
-0.000996507
-0.00266255
-0.0010746
-0.00264118
-0.0011524
-0.00262227
-0.00122987
-0.00260715
-0.00259709
-0.00130666
2.27565e-06
-0.000750301
-9.62135e-06
-0.00175903
-4.30151e-05
-0.00237747
-9.6717e-05
-0.00270994
-0.000165651
-0.00285641
-0.000244253
-0.00289607
-0.000328133
-0.00288218
-0.000414451
-0.00284582
-0.000501645
-0.0028029
-0.000588986
-0.00276048
-0.000676193
-0.00272119
-0.000763174
-0.00268571
-0.000849877
-0.00265397
-0.000936206
-0.00262563
-0.00102201
-0.00260025
-0.00110719
-0.00257738
-0.00119185
-0.00255652
-0.00127641
-0.00253772
-0.00136108
-0.00252249
-0.00251169
-0.00144648
-1.86428e-06
-0.000748437
-2.21728e-05
-0.00173872
-6.53083e-05
-0.00233434
-0.000128394
-0.00264685
-0.000205686
-0.00277912
-0.000291576
-0.00281018
-0.0003819
-0.00279185
-0.000474105
-0.00275362
-0.000566869
-0.00271014
-0.000659646
-0.0026677
-0.0007523
-0.00262854
-0.000844873
-0.00259314
-0.000937454
-0.00256139
-0.00103009
-0.00253299
-0.00112272
-0.00250762
-0.00121524
-0.00248485
-0.00130768
-0.00246408
-0.00140041
-0.00244499
-0.00149403
-0.00242887
-0.00241443
-0.00159129
-5.96423e-06
-0.000742472
-3.441e-05
-0.00171027
-8.68199e-05
-0.00228193
-0.000158741
-0.00257493
-0.000243854
-0.002694
-0.000336548
-0.00271749
-0.000432894
-0.00269551
-0.000530599
-0.00265591
-0.000628554
-0.00261218
-0.000726368
-0.00256989
-0.000824028
-0.00253088
-0.000921713
-0.00249546
-0.00101969
-0.00246341
-0.00111828
-0.00243441
-0.00121777
-0.00240814
-0.00131836
-0.00238425
-0.00142019
-0.00236225
-0.00152386
-0.00234132
-0.00163174
-0.00232099
-0.00231331
-0.00173285
-9.97611e-06
-0.000732496
-4.62348e-05
-0.00167401
-0.000107428
-0.00222074
-0.000187634
-0.00249472
-0.00028004
-0.0026016
-0.000379065
-0.00261846
-0.000481007
-0.00259357
-0.000583803
-0.00255312
-0.00068652
-0.00250946
-0.00078887