/*--------------------------------*- C++ -*----------------------------------*\
  =========                 |
  \\      /  F ield         | OpenFOAM: The Open Source CFD Toolbox
   \\    /   O peration     | Website:  https://openfoam.org
    \\  /    A nd           | Version:  6.0
     \\/     M anipulation  |
\*---------------------------------------------------------------------------*/
FoamFile
{
    version     2.0;
    format      ascii;
    class       volVectorField;
    location    "66";
    object      U;
}
// * * * * * * * * * * * * * * * * * * * * * * * * * * * * * * * * * * * * * //

dimensions      [0 1 -1 0 0 0 0];

internalField   nonuniform List<vector> 
8000
(
(-0.000607629 0.00933481 -4.45854e-21)
(-0.00284989 0.0258253 2.38283e-20)
(-0.00667049 0.0401726 -2.8954e-20)
(-0.0111812 0.0523949 2.20341e-20)
(-0.0158874 0.0626369 1.07127e-20)
(-0.0204872 0.0711489 -3.21599e-20)
(-0.0247538 0.0782298 -2.83866e-21)
(-0.0285297 0.0841842 -1.00401e-21)
(-0.0317172 0.0892966 -1.66351e-20)
(-0.0342664 0.0938168 -9.00166e-21)
(-0.0361664 0.0979561 6.72488e-21)
(-0.037439 0.101889 2.55232e-20)
(-0.0381322 0.105759 -1.92646e-21)
(-0.0383149 0.109688 2.71882e-21)
(-0.0380732 0.113777 -2.56561e-20)
(-0.0375146 0.118119 1.58018e-20)
(-0.0367597 0.122797 -2.26324e-20)
(-0.0358487 0.12789 3.42489e-20)
(-0.0346986 0.13348 -3.83872e-23)
(-0.0340251 0.139652 7.34744e-21)
(-0.000942988 0.010214 1.48071e-20)
(-0.00356587 0.0280335 -7.56382e-20)
(-0.00739282 0.043289 -5.21562e-20)
(-0.0116886 0.0560591 -3.53701e-20)
(-0.0160364 0.0665439 -4.54352e-20)
(-0.0201801 0.0750428 1.00619e-20)
(-0.0239288 0.081901 -5.23711e-20)
(-0.0271511 0.0874662 -1.17297e-20)
(-0.0297674 0.0920637 3.75341e-21)
(-0.0317396 0.0959823 3.9121e-20)
(-0.0330637 0.099471 -4.2587e-20)
(-0.0337642 0.10274 5.9197e-20)
(-0.0338892 0.105967 -4.42935e-20)
(-0.0335058 0.109305 -5.24975e-20)
(-0.0326979 0.112886 -7.23308e-20)
(-0.031572 0.116828 4.61971e-20)
(-0.0302511 0.12124 -1.49378e-20)
(-0.0287729 0.126226 -5.44234e-20)
(-0.0270324 0.131902 5.14727e-20)
(-0.0258094 0.138356 -3.78984e-20)
(-0.00134163 0.0108995 1.4482e-19)
(-0.0044647 0.0297859 7.48105e-20)
(-0.00841279 0.0457847 8.4057e-20)
(-0.012588 0.0590031 6.97089e-21)
(-0.0166473 0.0696764 4.6383e-20)
(-0.0203806 0.0781394 5.78802e-20)
(-0.023634 0.0847722 -1.04933e-19)
(-0.026304 0.0899573 -5.55274e-20)
(-0.0283303 0.0940539 -7.21159e-20)
(-0.0296876 0.0973846 7.71417e-20)
(-0.0303793 0.100232 -5.88436e-20)
(-0.0304329 0.102838 -7.55288e-20)
(-0.0298972 0.105413 -2.74272e-20)
(-0.0288384 0.10814 2.61102e-20)
(-0.0273394 0.111181 -7.27497e-21)
(-0.0255079 0.114685 1.04904e-20)
(-0.0234728 0.118787 1.21323e-19)
(-0.0212749 0.123625 -1.69683e-20)
(-0.0187905 0.129359 -1.23508e-19)
(-0.016867 0.136086 1.61269e-19)
(-0.00178673 0.0114117 5.02988e-20)
(-0.00551007 0.0311197 -7.10783e-20)
(-0.00968798 0.0476978 -1.77085e-20)
(-0.0138387 0.0612587 3.32043e-20)
(-0.0176858 0.0720572 9.41494e-20)
(-0.0210636 0.0804512 2.05869e-19)
(-0.0238552 0.0868456 2.00895e-19)
(-0.0259855 0.0916489 1.65566e-20)
(-0.0274145 0.0952472 1.22929e-19)
(-0.0281304 0.0979909 1.88003e-19)
(-0.0281442 0.10019 -1.50216e-19)
(-0.0274871 0.102118 2.22177e-19)
(-0.0262087 0.104013 -5.00876e-20)
(-0.0243749 0.106088 1.27349e-20)
(-0.0220689 0.108538 5.25086e-20)
(-0.0194018 0.111542 6.9772e-20)
(-0.0165123 0.11527 -1.09692e-19)
(-0.0134501 0.119901 -9.16511e-20)
(-0.0100782 0.125652 -1.62584e-19)
(-0.00731551 0.132641 2.34203e-19)
(-0.00226494 0.011775 -2.63538e-20)
(-0.00667073 0.0320812 -2.6857e-19)
(-0.0111784 0.0490791 -7.91699e-20)
(-0.0153982 0.0628725 -1.92779e-19)
(-0.0191107 0.0737246 7.28558e-20)
(-0.0221924 0.0820064 -1.14647e-19)
(-0.0245621 0.0881387 3.92058e-20)
(-0.0261731 0.0925476 -2.42274e-19)
(-0.0270064 0.0956391 1.27601e-19)
(-0.0270639 0.0977845 -1.52203e-19)
(-0.0263648 0.0993174 -1.3529e-19)
(-0.0249439 0.100535 -1.51162e-19)
(-0.0228516 0.101703 1.37288e-19)
(-0.0201539 0.103066 -1.23035e-19)
(-0.016935 0.10485 1.71501e-19)
(-0.0133115 0.107271 4.96399e-20)
(-0.00943557 0.110539 1.22871e-19)
(-0.00537225 0.114884 5.41777e-20)
(-0.000979039 0.120597 -2.1403e-19)
(0.00274742 0.127829 3.45369e-19)
(-0.00276675 0.0120166 1.1575e-19)
(-0.00792159 0.0327233 9.08612e-21)
(-0.0128482 0.0499888 4.74781e-20)
(-0.0172235 0.0639022 1.65469e-19)
(-0.0208756 0.0747291 -2.54091e-20)
(-0.0237194 0.0828465 2.67843e-19)
(-0.0257082 0.0886833 1.1846e-19)
(-0.0268238 0.0926761 9.89945e-21)
(-0.0270682 0.0952428 3.04231e-19)
(-0.0264572 0.0967691 9.94356e-20)
(-0.0250184 0.0976055 4.7057e-20)
(-0.0227899 0.0980691 1.49752e-19)
(-0.0198228 0.0984505 1.37167e-19)
(-0.0161826 0.0990217 2.50334e-19)
(-0.0119552 0.100044 -2.23736e-19)
(-0.00726349 0.101775 3.16536e-19)
(-0.00227666 0.104473 4.2784e-21)
(0.00291772 0.108431 -4.05463e-19)
(0.00845776 0.114033 5.26176e-19)
(0.0132585 0.121482 2.16629e-19)
(-0.00328665 0.012164 -6.83607e-20)
(-0.00924405 0.0331013 -1.23307e-19)
(-0.0146658 0.0504916 -2.55923e-19)
(-0.0192718 0.0644124 -7.43369e-21)
(-0.0229284 0.0751302 4.32638e-20)
(-0.0255855 0.0830239 -3.25592e-19)
(-0.0272299 0.0885251 -2.41118e-19)
(-0.0278712 0.0920735 -3.4546e-20)
(-0.0275328 0.0940918 -3.0431e-19)
(-0.0262452 0.0949729 -2.10286e-19)
(-0.0240437 0.0950771 -6.12528e-20)
(-0.02097 0.0947357 -1.97066e-19)
(-0.0170746 0.0942591 -3.17692e-21)
(-0.012422 0.0939459 -2.61361e-19)
(-0.00709866 0.0940935 1.10201e-19)
(-0.00123436 0.0950048 -1.25648e-19)
(0.00498216 0.0969956 9.63954e-20)
(0.0114337 0.100439 -1.22234e-19)
(0.0182415 0.105836 -3.50639e-19)
(0.0242151 0.113463 -1.05421e-19)
(-0.0038228 0.012244 -2.47981e-20)
(-0.0106255 0.03327 -2.68555e-20)
(-0.0166038 0.0506531 2.14326e-19)
(-0.0214999 0.0644704 -3.47947e-19)
(-0.0252105 0.0749924 5.11816e-20)
(-0.0277183 0.0825992 -2.0003e-19)
(-0.0290422 0.0877206 9.47584e-20)
(-0.0292201 0.0907941 4.2408e-19)
(-0.028297 0.09224 -2.73832e-20)
(-0.0263184 0.0924504 -3.15505e-19)
(-0.0233282 0.091788 5.77887e-20)
(-0.0193707 0.0905911 1.10817e-20)
(-0.0144951 0.0891832 -6.43333e-20)
(-0.00876306 0.087886 6.78122e-21)
(-0.00225987 0.0870319 5.67581e-19)
(0.0048786 0.0869737 -8.10808e-20)
(0.0124428 0.0880952 -1.57572e-19)
(0.0202794 0.0908665 -2.83142e-19)
(0.0284779 0.0959349 2.88992e-19)
(0.0357172 0.103687 1.23732e-19)
(-0.0043765 0.012281 1.26151e-19)
(-0.0120585 0.0332805 -1.64518e-19)
(-0.0186375 0.0505359 2.32467e-19)
(-0.0238625 0.0641419 2.33179e-19)
(-0.0276549 0.0743811 2.14839e-19)
(-0.0300286 0.0816363 4.34749e-19)
(-0.0310348 0.0863339 2.80444e-19)
(-0.0307396 0.0889043 -6.01476e-19)
(-0.0292109 0.0897591 3.07049e-19)
(-0.0265101 0.0892821 2.40358e-19)
(-0.0226901 0.0878297 -3.09153e-21)
(-0.0177978 0.085738 2.6831e-19)
(-0.0118803 0.0833358 2.09009e-19)
(-0.00499428 0.0809606 -1.14041e-19)
(0.00277869 0.0789759 3.84433e-19)
(0.0112992 0.0777865 -4.76794e-19)
(0.020337 0.0778528 1.90701e-19)
(0.0296978 0.0797628 2.45837e-19)
(0.0394238 0.0843481 -5.80378e-20)
(0.0480263 0.0921493 4.90057e-19)
(-0.00495146 0.012296 2.52733e-19)
(-0.0135386 0.0331768 1.26581e-20)
(-0.0207429 0.0501949 -9.05863e-20)
(-0.0263097 0.0634863 -9.55989e-20)
(-0.0301825 0.0733573 -4.40155e-19)
(-0.0324066 0.0801977 6.21527e-20)
(-0.0330656 0.084431 1.75929e-19)
(-0.0322552 0.0864774 -8.41607e-20)
(-0.0300673 0.0867346 6.93169e-20)
(-0.0265805 0.0855706 -1.88201e-20)
(-0.0218581 0.0833267 -9.06648e-20)
(-0.0159502 0.0803269 8.5442e-20)
(-0.00890135 0.0768941 -3.7302e-19)
(-0.000761811 0.0733709 3.57002e-19)
(0.00839378 0.0701439 -3.09255e-19)
(0.0184261 0.0676657 9.57356e-20)
(0.0290864 0.0664794 2.17044e-19)
(0.0401367 0.0673116 -4.57037e-20)
(0.0515575 0.0712233 -1.51116e-19)
(0.0616432 0.0789694 -1.01407e-19)
(-0.00555279 0.0123053 -3.13692e-19)
(-0.0150632 0.0329938 -2.01749e-20)
(-0.022894 0.0496748 6.58407e-20)
(-0.0287841 0.0625533 1.68541e-19)
(-0.0326991 0.0719733 -2.38252e-19)
(-0.0347172 0.0783395 -2.07291e-19)
(-0.0349555 0.0820742 4.82724e-19)
(-0.0335406 0.083587 -2.66728e-19)
(-0.0305899 0.0832577 -1.71574e-19)
(-0.0262013 0.0814328 -2.45442e-19)
(-0.0204502 0.0784298 1.62305e-19)
(-0.0133917 0.0745503 -4.97018e-21)
(-0.00506892 0.0700981 -3.02673e-19)
(0.00447489 0.0654066 -4.94235e-19)
(0.0151742 0.0608706 3.76287e-19)
(0.0268938 0.0569796 -3.04332e-19)
(0.0393703 0.0543565 4.31896e-19)
(0.0523225 0.0538823 -1.21296e-19)
(0.0656595 0.0568996 2.5532e-19)
(0.0773966 0.0644561 -8.54251e-19)
(-0.00618598 0.0123198 -6.32869e-19)
(-0.0166281 0.0327556 4.14387e-19)
(-0.0250599 0.0490074 5.65305e-20)
(-0.0312171 0.0613789 1.07911e-20)
(-0.0350911 0.0702689 -2.53972e-19)
(-0.0367953 0.0761058 3.73162e-19)
(-0.0364821 0.0793159 4.08386e-20)
(-0.0343102 0.0802989 -7.64417e-20)
(-0.030424 0.0794158 -2.43503e-19)
(-0.0249425 0.0769876 2.63438e-19)
(-0.0179559 0.0733021 6.66184e-19)
(-0.00952744 0.0686283 -1.47507e-19)
(0.000298374 0.0632381 3.31372e-19)
(0.011483 0.057438 -3.91331e-19)
(0.02397 0.0516101 -3.74387e-19)
(0.0376306 0.0462589 2.25818e-19)
(0.0521908 0.0420707 3.72642e-19)
(0.0673302 0.0400847 -1.20533e-18)
(0.0828867 0.0419759 1.42197e-19)
(0.0965265 0.0491821 1.89875e-19)
(-0.00685572 0.0123451 4.68161e-19)
(-0.0182258 0.0324743 1.5253e-19)
(-0.0272014 0.0482096 7.97925e-19)
(-0.0335254 0.0599838 4.06354e-20)
(-0.0372213 0.0682683 -8.84606e-20)
(-0.0384413 0.0735256 -4.19982e-19)
(-0.037375 0.0761929 3.57515e-19)
(-0.0342136 0.0766638 6.38371e-19)
(-0.0291295 0.0752818 4.24841e-19)
(-0.0222643 0.072342 3.05121e-19)
(-0.0137258 0.0680996 2.62172e-19)
(-0.00358993 0.0627851 -4.72902e-19)
(0.00809196 0.0566274 -1.4834e-19)
(0.02128 0.0498885 -1.08149e-19)
(0.0359219 0.0429127 1.1634e-18)
(0.051894 0.0361868 -4.7454e-21)
(0.0689133 0.0304257 -2.88968e-19)
(0.0866257 0.0268055 -9.02993e-20)
(0.104814 0.027371 8.28562e-19)
(0.12073 0.0340591 1.04983e-19)
(-0.00756478 0.0123809 -2.38628e-20)
(-0.0198424 0.0321497 -4.41173e-19)
(-0.0292672 0.0472836 -6.54626e-19)
(-0.0356064 0.0583731 -1.81354e-19)
(-0.0389247 0.0659795 9.98916e-20)
(-0.0394172 0.0706116 2.18374e-20)
(-0.0373118 0.0727248 5.69242e-19)
(-0.0328323 0.0727127 -7.06021e-19)
(-0.0261787 0.0709059 -2.68157e-19)
(-0.0175161 0.0675772 -5.38973e-19)
(-0.00697275 0.0629511 -4.58477e-19)
(0.0053578 0.0572192 -4.04407e-19)
(0.0194086 0.0505623 1.0099e-19)
(0.0351275 0.0431855 -1.30582e-19)
(0.0524549 0.0353708 5.59722e-19)
(0.071263 0.0275482 -3.08079e-19)
(0.0912552 0.0204057 -9.59953e-19)
(0.112047 0.0152 -1.92097e-19)
(0.133403 0.0143475 4.71273e-19)
(0.152133 0.0203864 -4.05683e-19)
(-0.00831276 0.0124216 -7.47167e-20)
(-0.0214543 0.0317701 5.36667e-19)
(-0.0311898 0.0462173 -6.83821e-19)
(-0.0373338 0.056537 1.58479e-19)
(-0.0400034 0.0633964 -3.24206e-19)
(-0.0394413 0.0673617 7.20727e-19)
(-0.0359144 0.0689154 -5.1438e-19)
(-0.0296781 0.0684582 5.87697e-19)
(-0.0209583 0.0663149 -5.55757e-19)
(-0.00994359 0.0627432 2.36869e-19)
(0.00321516 0.0579443 -1.15104e-19)
(0.0184001 0.0520777 -2.87292e-19)
(0.0355177 0.0452801 -3.54057e-19)
(0.0544873 0.0376974 3.53181e-19)
(0.0752214 0.0295344 -2.9514e-19)
(0.0975686 0.0211285 -6.43614e-19)
(0.121203 0.0130736 6.69697e-19)
(0.145705 0.00660893 -8.50675e-19)
(0.170874 0.00446269 3.82384e-19)
(0.19314 0.00983891 1.23416e-20)
(-0.00909491 0.0124564 -6.70189e-19)
(-0.0230257 0.0313131 -7.22753e-19)
(-0.0328815 0.0449869 8.35492e-20)
(-0.0385525 0.0544546 -6.94266e-19)
(-0.0402216 0.0605031 -6.06998e-20)
(-0.0381841 0.0637659 -5.09463e-19)
(-0.032746 0.0647607 -1.16484e-19)
(-0.0241925 0.0639031 -3.39576e-19)
(-0.0127734 0.0615206 4.03594e-21)
(0.00129975 0.0578656 -1.47785e-19)
(0.0178507 0.0531278 1.06084e-20)
(0.0367299 0.0474475 -4.25864e-19)
(0.0578032 0.0409317 4.69224e-19)
(0.08094 0.0336782 -6.63879e-19)
(0.105996 0.0258177 2.3499e-19)
(0.132765 0.0175767 8.40981e-21)
(0.160861 0.0093956 -3.71513e-19)
(0.1898 0.00236842 9.20179e-19)
(0.219482 -0.00060818 -2.1855e-19)
(0.246173 0.00432936 -1.40459e-19)
(-0.0099008 0.0124703 7.50668e-19)
(-0.024505 0.0307476 4.05174e-19)
(-0.0342291 0.043559 3.76335e-19)
(-0.039073 0.0520979 5.62488e-20)
(-0.0392999 0.0572804 5.07806e-19)
(-0.0352627 0.0598149 7.30311e-19)
(-0.0273074 0.0602611 5.95864e-19)
(-0.015747 0.0590568 5.35947e-20)
(-0.000854186 0.0565403 4.35043e-19)
(0.0171361 0.0529691 6.70837e-19)
(0.0380173 0.0485348 -1.73119e-19)
(0.061598 0.0433758 2.91411e-19)
(0.0876864 0.03759 2.35155e-19)
(0.116076 0.0312515 2.39544e-19)
(0.146529 0.0244395 1.40726e-18)
(0.178742 0.0172818 -5.27273e-19)
(0.212227 0.010039 -3.1468e-20)
(0.246384 0.00353472 6.05345e-19)
(0.281226 0.000613547 -3.41679e-19)
(0.313312 0.00572775 1.67742e-19)
(-0.010713 0.0124444 -6.05553e-19)
(-0.0258214 0.0300352 3.8156e-20)
(-0.0350905 0.0418946 -4.83014e-19)
(-0.0386668 0.0494374 -6.25644e-20)
(-0.0369103 0.0537135 3.52565e-19)
(-0.0302373 0.0555114 -1.04917e-18)
(-0.0190352 0.0554372 -5.9421e-22)
(-0.0036455 0.0539561 4.87103e-19)
(0.0156347 0.0514239 4.55845e-19)
(0.0385422 0.048112 -2.01391e-19)
(0.064831 0.0442257 6.58568e-20)
(0.0942524 0.0399181 1.52826e-19)
(0.126535 0.0353006 -7.28059e-20)
(0.161364 0.0304547 -8.09114e-19)
(0.198368 0.0254487 2.04869e-19)
(0.237089 0.020358 5.60605e-19)
(0.276881 0.0152947 -7.97598e-19)
(0.316945 0.0107486 3.88116e-19)
(0.357353 0.00929426 1.03358e-19)
(0.395618 0.0159122 5.13824e-19)
(-0.0115055 0.0123564 -8.8669e-20)
(-0.0268822 0.0291329 -4.23218e-19)
(-0.0352901 0.0399525 1.94786e-19)
(-0.0370623 0.046447 9.36519e-22)
(-0.032673 0.0497997 -8.45797e-19)
(-0.0226094 0.0508805 1.32336e-19)
(-0.00730484 0.0503439 -2.48148e-20)
(0.0128659 0.0486847 1.69716e-19)
(0.0375737 0.0462798 -7.76042e-19)
(0.0665148 0.0434193 -5.39079e-20)
(0.0993867 0.0403288 -1.81325e-19)
(0.135862 0.0371861 1.61642e-19)
(0.175563 0.0341338 5.43958e-19)
(0.218037 0.0312909 -8.42285e-20)
(0.26274 0.0287646 3.26309e-20)
(0.309001 0.0266578 2.12346e-19)
(0.355922 0.0250492 -5.29112e-20)
(0.402369 0.0242152 4.24188e-19)
(0.4482 0.0264984 -2.49685e-19)
(0.492312 0.0373852 -3.81192e-19)
(-0.0122431 0.0121823 8.26918e-20)
(-0.0275707 0.0279956 2.05167e-20)
(-0.0346169 0.0376935 1.69455e-19)
(-0.0339436 0.0431099 4.14493e-19)
(-0.0261579 0.0455551 2.32233e-19)
(-0.0118282 0.0459785 2.39696e-20)
(0.00855633 0.0450813 -2.76081e-19)
(0.0345745 0.043387 7.10298e-20)
(0.0658464 0.0412921 3.71151e-19)
(0.102003 0.0391027 -6.28245e-19)
(0.142657 0.0370611 4.73286e-19)
(0.187371 0.0353655 -3.56188e-19)
(0.235638 0.0341875 3.01412e-19)
(0.28686 0.0336893 -6.4921e-19)
(0.34033 0.0340441 7.12509e-19)
(0.395209 0.0354514 -7.61131e-19)
(0.450415 0.0381238 -1.96831e-19)
(0.504504 0.0425047 6.13605e-19)
(0.55654 0.0511929 -2.09149e-19)
(0.604259 0.0695236 8.99694e-20)
(-0.01288 0.0118969 -6.2366e-20)
(-0.0277448 0.0265791 5.88851e-19)
(-0.0328244 0.0350845 -2.62307e-21)
(-0.0289527 0.0394228 -3.65284e-19)
(-0.0168907 0.0410197 -2.44937e-19)
(0.00269627 0.0408982 4.48949e-19)
(0.0292439 0.0398012 -1.77729e-19)
(0.0622578 0.0382752 -2.23605e-20)
(0.101271 0.0367284 3.68738e-19)
(0.145805 0.0354712 -4.58089e-19)
(0.195334 0.0347441 4.97851e-20)
(0.249262 0.0347392 -5.93236e-19)
(0.306907 0.0356199 3.11428e-19)
(0.367509 0.0375416 -8.89394e-19)
(0.430242 0.0406793 1.41209e-18)
(0.494247 0.0452632 -2.59445e-19)
(0.558667 0.0516448 2.64842e-19)
(0.62284 0.0606932 -6.89133e-19)
(0.686906 0.0752342 9.13633e-21)
(0.742369 0.0948193 7.43036e-19)
(-0.0133601 0.0114758 -1.88667e-19)
(-0.0272373 0.0248442 1.6287e-19)
(-0.0296331 0.0321033 -6.00437e-19)
(-0.0216957 0.0354018 8.87795e-19)
(-0.00436555 0.0362631 -6.40543e-19)
(0.0215706 0.0357739 3.30125e-20)
(0.0554396 0.03471 -6.89176e-19)
(0.0966273 0.0336302 4.92422e-19)
(0.14452 0.0329403 -7.05288e-20)
(0.198456 0.032934 -4.33284e-19)
(0.25769 0.0338209 -2.5195e-19)
(0.32138 0.0357464 2.66555e-19)
(0.38859 0.0388082 1.75376e-19)
(0.458315 0.0430714 -7.73865e-19)
(0.529527 0.0485841 2.80116e-19)
(0.601231 0.0553894 -4.0907e-19)
(0.672541 0.0635358 4.93101e-20)
(0.742833 0.0731826 -3.40315e-19)
(0.812332 0.0852177 1.29924e-19)
(0.875246 0.0985721 -4.94265e-19)
(-0.0136172 0.0108975 5.37307e-19)
(-0.0258585 0.0227615 -3.25605e-19)
(-0.0247349 0.0287452 2.68195e-19)
(-0.0117525 0.0310888 -3.38351e-19)
(0.0119373 0.0313896 5.66847e-19)
(0.0453882 0.0307845 -9.92614e-21)
(0.0877649 0.0300677 -6.88146e-20)
(0.138263 0.0297941 -5.10038e-20)
(0.196034 0.0303456 3.13772e-19)
(0.260133 0.0319719 5.32389e-19)
(0.329494 0.0348174 -3.14504e-19)
(0.402927 0.0389406 3.0481e-19)
(0.479155 0.0443302 5.54452e-19)
(0.556856 0.0509196 -3.89021e-19)
(0.634731 0.0585985 -7.81948e-19)
(0.711579 0.0672206 1.42367e-18)
(0.786355 0.0765996 -2.54845e-19)
(0.858254 0.0865227 -8.1092e-20)
(0.926986 0.0970446 8.50475e-19)
(0.989434 0.109134 -1.86392e-19)
(-0.013576 0.0101459 -8.74189e-19)
(-0.0233987 0.0203171 -5.81911e-19)
(-0.0178007 0.0250303 -2.23296e-19)
(0.00131011 0.0265591 4.308e-19)
(0.0325286 0.0265455 -9.72482e-19)
(0.074693 0.0261566 5.03317e-19)
(0.126728 0.0261845 6.37139e-20)
(0.18754 0.0271553 6.41159e-20)
(0.255932 0.0293965 -6.57912e-19)
(0.33056 0.0330776 -2.32176e-19)
(0.409924 0.0382379 -4.0801e-19)
(0.492407 0.0448096 3.93082e-19)
(0.576332 0.0526388 1.10168e-19)
(0.660052 0.0615067 2.02006e-20)
(0.742025 0.0711477 5.02098e-19)
(0.820901 0.0812636 -5.11011e-19)
(0.895572 0.091529 -2.03804e-20)
(0.965221 0.101613 1.59496e-20)
(1.02936 0.111203 7.21467e-20)
(1.08701 0.12265 3.7117e-19)
(-0.0131538 0.00921255 2.78271e-19)
(-0.0196338 0.0175184 7.16585e-19)
(-0.00848915 0.021011 5.74973e-19)
(0.0179221 0.0219302 -1.98213e-19)
(0.0578841 0.0219257 6.89277e-19)
(0.109939 0.0221677 -5.80188e-20)
(0.172666 0.0234161 -8.17821e-20)
(0.244556 0.0261315 4.86359e-20)
(0.323931 0.030545 6.65e-19)
(0.408925 0.0366998 3.90065e-19)
(0.497518 0.0444851 1.13808e-19)
(0.58762 0.0536696 7.45827e-21)
(0.677175 0.0639344 -7.47765e-19)
(0.764281 0.0749069 6.49464e-19)
(0.847281 0.0861909 1.09436e-19)
(0.924842 0.0973912 -1.82331e-19)
(0.995988 0.10813 -7.72909e-19)
(1.06012 0.118084 -6.13506e-20)
(1.1169 0.126817 2.98521e-19)
(1.16693 0.137356 -5.79727e-20)
(-0.012262 0.0080989 -7.05606e-19)
(-0.0143299 0.0143993 2.95215e-19)
(0.00354254 0.0167801 -1.44168e-18)
(0.0384917 0.0173697 5.90603e-19)
(0.088414 0.0177801 -4.71031e-19)
(0.151448 0.0191474 3.47341e-19)
(0.22569 0.0221553 -5.39395e-19)
(0.309067 0.0271488 4.95847e-20)
(0.399284 0.0342068 -2.76398e-20)
(0.493853 0.0431921 1.44401e-19)
(0.590194 0.0537991 2.07768e-19)
(0.685777 0.0656044 -3.92547e-19)
(0.778276 0.0781191 2.07974e-19)
(0.865699 0.0908376 1.89418e-19)
(0.946484 0.103279 8.07062e-19)
(1.01954 0.115016 -3.53006e-19)
(1.08426 0.125695 -2.28183e-19)
(1.14045 0.135071 3.8088e-19)
(1.1882 0.142771 1.95354e-19)
(1.22894 0.151882 -3.78694e-19)
(-0.0108076 0.0068177 6.17729e-19)
(-0.00724962 0.0110253 5.95564e-19)
(0.0186258 0.0124765 1.71965e-19)
(0.0633836 0.0131006 7.24362e-19)
(0.124429 0.0144157 3.56065e-19)
(0.199358 0.0174717 -6.41773e-19)
(0.285624 0.0228165 9.71983e-19)
(0.380432 0.0306127 -4.78206e-19)
(0.480753 0.040721 4.76677e-19)
(0.583431 0.0527676 6.15231e-19)
(0.685367 0.0662163 -3.51197e-19)
(0.783724 0.0804439 6.68853e-20)
(0.876106 0.094813 3.68672e-19)
(0.960678 0.108733 2.57933e-19)
(1.03622 0.121703 5.87445e-19)
(1.10213 0.133338 -2.38184e-19)
(1.15832 0.143376 -3.18973e-20)
(1.20515 0.151693 3.58451e-19)
(1.24325 0.158083 -7.85353e-20)
(1.27447 0.165348 -5.29366e-22)
(-0.00869479 0.0053943 -3.18809e-19)
(0.00184 0.00749588 -1.17169e-18)
(0.0370657 0.00828851 2.76054e-19)
(0.092893 0.00940258 -2.10197e-19)
(0.166105 0.0121912 -4.85589e-19)
(0.253586 0.0175489 -3.46835e-19)
(0.351968 0.0258092 -2.14132e-19)
(0.457598 0.0368713 5.19973e-19)
(0.566645 0.0503078 -3.08616e-19)
(0.675324 0.0654622 -3.15837e-19)
(0.780168 0.081555 -3.97314e-19)
(0.878263 0.0977867 -6.55843e-20)
(0.967422 0.113426 -4.59257e-20)
(1.04625 0.127869 -9.04352e-19)
(1.11411 0.140676 4.32672e-19)
(1.17103 0.151576 -5.69967e-19)
(1.21758 0.160452 1.73654e-19)
(1.25468 0.167326 -1.32479e-18)
(1.28345 0.1722 4.00498e-19)
(1.30585 0.177428 4.93964e-19)
(-0.00582724 0.00386739 -8.0134e-20)
(0.0131594 0.00394628 5.71087e-19)
(0.059123 0.00445367 3.66458e-20)
(0.127218 0.00660659 8.82069e-20)
(0.213444 0.0115041 -1.79411e-19)
(0.313781 0.0197952 -3.00298e-21)
(0.423873 0.0315025 -4.51028e-21)
(0.539112 0.0461745 -1.07991e-19)
(0.654892 0.0630337 3.83592e-19)
(0.766954 0.0811201 1.47858e-19)
(0.871714 0.0994345 6.67925e-19)
(0.966499 0.117062 -1.81867e-19)
(1.04963 0.133261 1.25682e-19)
(1.12041 0.147506 -1.52204e-20)
(1.17895 0.159495 3.4493e-19)
(1.226 0.169126 2.08257e-19)
(1.26275 0.176458 4.94641e-19)
(1.29059 0.181667 -7.94883e-19)
(1.31101 0.184937 9.91178e-19)
(1.32594 0.188168 -3.12778e-19)
(-0.00211041 0.00228937 -7.43549e-19)
(0.0269057 0.000546667 -2.3247e-19)
(0.0849944 0.00125408 1.81443e-19)
(0.166429 0.00508344 1.14488e-19)
(0.266238 0.0127688 1.17658e-19)
(0.379302 0.0246023 1.19089e-19)
(0.500145 0.0401874 -2.98388e-19)
(0.623194 0.058639 -1.22699e-19)
(0.743212 0.0787941 3.85195e-20)
(0.855736 0.0994082 -3.63056e-19)
(0.957414 0.119329 -1.62859e-19)
(1.04615 0.137622 9.8332e-19)
(1.12105 0.153636 -2.54046e-19)
(1.18228 0.167011 -3.45563e-19)
(1.23076 0.177644 -1.608e-19)
(1.26792 0.185634 1.13024e-19)
(1.29546 0.191217 1.33735e-19)
(1.3151 0.194702 -6.39444e-19)
(1.3285 0.196411 9.17241e-19)
(1.33749 0.197845 -7.91894e-19)
(0.00254486 0.000726485 -8.37863e-20)
(0.0432408 -0.00250006 2.39405e-20)
(0.114791 -0.000991542 -3.08678e-20)
(0.210444 0.00522681 4.49639e-19)
(0.32405 0.0163898 2.49816e-20)
(0.44922 0.0323028 1.65186e-19)
(0.579297 0.0520418 -3.43461e-19)
(0.707857 0.0742288 -1.23317e-20)
(0.8293 0.0973221 4.75336e-19)
(0.939334 0.11986 6.55706e-20)
(1.03521 0.140644 -4.11087e-19)
(1.11571 0.158835 -3.59945e-20)
(1.18093 0.173972 -3.32326e-19)
(1.23194 0.185929 3.32487e-19)
(1.27043 0.194834 4.55238e-19)
(1.29836 0.200987 -4.99469e-20)
(1.31777 0.204776 -5.94994e-20)
(1.33055 0.206608 1.8142e-19)
(1.33836 0.206889 -5.7623e-19)
(1.34288 0.206806 5.09209e-19)
(0.00821804 -0.000741393 8.46096e-20)
(0.0622785 -0.00496238 -5.44471e-19)
(0.14852 -0.00193928 1.45597e-19)
(0.259002 0.00743231 -4.52931e-19)
(0.386204 0.0227313 1.55862e-19)
(0.522342 0.0431383 -5.78514e-19)
(0.659637 0.0671096 2.33221e-19)
(0.791059 0.0927579 -7.43385e-20)
(0.911035 0.118223 -3.06678e-21)
(1.01586 0.141942 7.5102e-20)
(1.10373 0.162799 -2.73066e-19)
(1.17454 0.180167 -3.8729e-19)
(1.22942 0.193856 -7.82409e-20)
(1.27029 0.204008 -3.50823e-20)
(1.29945 0.210983 -8.8741e-20)
(1.31924 0.215255 -2.85833e-20)
(1.33184 0.217325 -8.54427e-20)
(1.33912 0.217656 -7.36713e-20)
(1.34267 0.21669 -2.15964e-19)
(1.34395 0.215379 3.40053e-19)
(0.0149738 -0.00202146 2.02526e-19)
(0.0840707 -0.00658604 -2.25059e-19)
(0.186062 -0.00123415 4.84801e-19)
(0.311657 0.0120745 -2.09579e-19)
(0.451796 0.03209 5.60217e-19)
(0.597277 0.0572365 8.33885e-21)
(0.739388 0.0852967 2.81e-19)
(0.870878 0.113915 -7.54939e-20)
(0.986652 0.141028 3.12284e-19)
(1.08399 0.165119 2.18028e-20)
(1.16232 0.185292 7.36256e-19)
(1.22271 0.201226 -5.06706e-19)
(1.26727 0.213047 6.89126e-20)
(1.29865 0.221169 1.30081e-19)
(1.31954 0.226158 6.67992e-19)
(1.33247 0.228617 -2.39545e-19)
(1.33958 0.229114 -4.69965e-20)
(1.34264 0.228128 -2.452e-19)
(1.34305 0.226108 -2.46173e-20)
(1.34206 0.223827 1.21737e-19)
(0.0228567 -0.00300943 -9.67447e-20)
(0.108596 -0.00710175 2.80211e-19)
(0.227167 0.00147392 -2.87872e-19)
(0.36778 0.0194838 1.13324e-19)
(0.519735 0.0446723 -1.36218e-19)
(0.672518 0.074602 4.98933e-19)
(0.816821 0.106385 -6.97891e-20)
(0.945647 0.137302 1.69928e-19)
(1.05485 0.165248 -1.00477e-19)
(1.14302 0.188911 -2.78048e-21)
(1.21094 0.207734 1.12877e-19)
(1.26084 0.221765 -8.70333e-20)
(1.29567 0.231454 2.25032e-19)
(1.31855 0.237463 -1.12291e-19)
(1.33241 0.240515 -4.87125e-19)
(1.33975 0.241295 4.82426e-19)
(1.3426 0.240394 -2.15268e-19)
(1.34251 0.238276 1.71551e-19)
(1.34068 0.235376 2.94413e-19)
(1.33814 0.232332 1.20397e-19)
(0.0318856 -0.00359182 2.40967e-19)
(0.135749 -0.00623477 -4.96812e-19)
(0.271444 0.00651291 9.49357e-20)
(0.426574 0.0299261 -6.90925e-20)
(0.588799 0.0605801 -2.79267e-19)
(0.746542 0.0951199 -2.18854e-19)
(0.890369 0.13006 -4.31842e-20)
(1.01406 0.162481 -3.88495e-19)
(1.11483 0.190424 -2.35453e-20)
(1.19278 0.212928 -7.17685e-20)
(1.25006 0.229863 -1.93817e-19)
(1.28992 0.241668 -4.32372e-20)
(1.31593 0.249098 -1.47115e-19)
(1.3315 0.253014 -2.431e-19)
(1.33957 0.254243 2.4732e-19)
(1.34251 0.253506 3.2926e-20)
(1.34213 0.251381 6.55193e-20)
(1.33975 0.248295 -2.80556e-19)
(1.33637 0.244661 -7.68792e-21)
(1.33279 0.241005 -4.26957e-19)
(0.0420495 -0.00364917 2.63245e-19)
(0.165337 -0.00371601 1.75864e-19)
(0.318371 0.0141714 -2.84378e-19)
(0.487105 0.043586 4.43958e-19)
(0.657697 0.0798057 -4.81101e-20)
(0.817907 0.118571 1.65704e-19)
(0.958726 0.155946 5.73138e-20)
(1.07522 0.189017 2.02112e-19)
(1.16624 0.216156 -1.58249e-19)
(1.23353 0.236879 5.23282e-20)
(1.28045 0.251525 -5.0128e-20)
(1.31108 0.260916 -2.15899e-20)
(1.32938 0.266065 4.14759e-20)
(1.33884 0.267975 -7.58123e-20)
(1.34229 0.267528 -2.28922e-20)
(1.34185 0.265438 -7.03165e-20)
(1.33909 0.262243 -1.13673e-19)
(1.33509 0.25832 7.36191e-20)
(1.33065 0.254064 -9.93484e-20)
(1.3264 0.249898 4.29818e-19)
(0.0533035 -0.00306019 -1.31107e-19)
(0.197073 0.000705762 -3.72373e-19)
(0.367303 0.0246826 -4.96021e-20)
(0.548348 0.0605553 -1.37744e-20)
(0.725149 0.102236 -1.67079e-19)
(0.885328 0.144657 -2.74138e-19)
(1.02089 0.183639 8.93976e-20)
(1.12859 0.216502 -1.22788e-19)
(1.20915 0.242119 -1.36873e-19)
(1.26582 0.260563 7.5917e-20)
(1.30305 0.272652 -5.71837e-20)
(1.32547 0.27955 -1.1488e-19)
(1.33723 0.28247 -3.2961e-21)
(1.34173 0.2825 7.76642e-20)
(1.34156 0.280527 -7.82165e-20)
(1.33859 0.277231 1.08607e-19)
(1.33411 0.273091 2.94811e-20)
(1.329 0.268432 7.29821e-20)
(1.32385 0.263633 1.40552e-19)
(1.31918 0.259016 -1.20079e-19)
(0.0655672 -0.00170651 1.25069e-19)
(0.230588 0.00725147 -1.06833e-20)
(0.4175 0.0382105 5.65183e-20)
(0.609235 0.0808287 -7.64284e-20)
(0.789948 0.127666 6.54713e-21)
(0.947739 0.173021 2.64921e-19)
(1.07617 0.212733 -1.73703e-19)
(1.17403 0.244578 7.33252e-20)
(1.24388 0.268062 6.44692e-20)
(1.29039 0.283856 -1.80354e-19)
(1.31883 0.293233 1.68892e-19)
(1.33415 0.297642 1.50637e-21)
(1.3405 0.298429 -1.17799e-19)
(1.34106 0.296715 1.41697e-19)
(1.33813 0.293358 -5.58913e-20)
(1.33331 0.288978 4.25912e-20)
(1.32762 0.283989 -4.77431e-20)
(1.32176 0.278664 -1.92608e-20)
(1.31617 0.273374 -1.64189e-19)
(1.31124 0.268335 5.02704e-20)
(0.0787238 0.000522132 -4.19163e-20)
(0.265432 0.0160998 1.13054e-19)
(0.468152 0.0548399 1.77258e-20)
(0.668703 0.104305 7.40339e-20)
(0.851014 0.155811 3.53594e-20)
(1.00431 0.203279 1.65889e-20)
(1.12419 0.242841 9.35379e-20)
(1.21161 0.272938 -1.13315e-20)
(1.27095 0.293795 4.09886e-20)
(1.30804 0.306686 6.56147e-20)
(1.32872 0.313289 3.14845e-20)
(1.33805 0.315266 2.25145e-20)
(1.34003 0.31404 9.10558e-20)
(1.33753 0.310717 -8.80993e-20)
(1.33256 0.306096 1.88223e-20)
(1.32641 0.300727 -1.7488e-20)
(1.3199 0.294958 2.71296e-20)
(1.31355 0.289014 2.26574e-20)
(1.30771 0.283263 4.68721e-20)
(1.30264 0.277807 1.87776e-21)
(0.0926222 0.00372257 2.48683e-20)
(0.301089 0.0273768 2.2713e-20)
(0.518413 0.0745704 -3.14953e-20)
(0.725739 0.130794 1.96833e-20)
(0.907432 0.186329 1.11022e-20)
(1.05446 0.23503 -3.45796e-20)
(1.1648 0.273608 1.13586e-20)
(1.24164 0.301324 2.09322e-21)
(1.29099 0.31918 1.94893e-20)
(1.31957 0.329016 -5.21951e-20)
(1.33356 0.332849 -1.29232e-22)
(1.33796 0.332488 1.43405e-20)
(1.33648 0.329374 -1.1433e-20)
(1.33167 0.324561 1.15468e-20)
(1.32521 0.318776 2.99332e-20)
(1.31814 0.312489 -1.69657e-20)
(1.31109 0.305984 4.76893e-21)
(1.30447 0.299448 1.8451e-20)
(1.2985 0.29325 -3.0277e-20)
(1.29338 0.287371 1.4577e-20)
(0.10708 0.00797328 6.89093e-20)
(0.337001 0.041148 -3.75946e-20)
(0.567434 0.0973153 4.43366e-20)
(0.779422 0.160028 -3.29963e-20)
(0.958467 0.218836 -1.4774e-20)
(1.09783 0.267881 4.50258e-21)
(1.19807 0.304706 -1.44542e-20)
(1.26454 0.329521 5.18738e-20)
(1.30463 0.344108 -4.31105e-20)
(1.32572 0.35082 1.01157e-20)
(1.33408 0.351938 -7.53198e-21)
(1.33451 0.349349 -4.87491e-20)
(1.33036 0.344467 4.72012e-20)
(1.32384 0.338269 1.78905e-20)
(1.31634 0.331395 -1.77604e-20)
(1.30866 0.32424 4.15729e-20)
(1.3013 0.317027 -6.62286e-22)
(1.29455 0.309915 -4.0051e-20)
(1.28855 0.303273 2.95478e-20)
(1.28347 0.296952 9.26142e-21)
(0.121889 0.0133301 -2.41643e-20)
(0.372576 0.0574128 6.99693e-20)
(0.614396 0.122905 8.09766e-20)
(0.828948 0.191671 -3.82468e-20)
(1.00357 0.252923 6.64571e-20)
(1.13424 0.301446 1.05029e-19)
(1.2242 0.335843 -5.82668e-21)
(1.2808 0.357346 -1.79694e-20)
(1.31252 0.368492 8.86228e-20)
(1.32714 0.372076 4.31438e-20)
(1.33087 0.370564 -7.76958e-21)
(1.32817 0.365865 6.40938e-20)
(1.32203 0.359324 -6.84255e-20)
(1.3143 0.351826 1.06579e-19)
(1.3061 0.34392 -1.77198e-20)
(1.29807 0.33593 5.0618e-20)
(1.29057 0.328025 9.04187e-21)
(1.28381 0.320343 3.59189e-20)
(1.27787 0.313253 -3.4165e-20)
(1.27287 0.306472 8.303e-21)
(0.136817 0.0198223 -3.76066e-20)
(0.407215 0.0761021 8.85319e-20)
(0.658531 0.151091 6.59099e-20)
(0.873642 0.225339 -1.00018e-20)
(1.04236 0.288166 1.02775e-19)
(1.16369 0.335355 -7.70519e-20)
(1.24352 0.366748 -5.89919e-21)
(1.29093 0.384633 6.76314e-20)
(1.31525 0.392248 2.14344e-20)
(1.32442 0.392749 2.99896e-20)
(1.32442 0.388714 -4.42235e-20)
(1.31933 0.382019 1.15221e-19)
(1.31175 0.373918 2.13976e-20)
(1.30322 0.365189 -1.01628e-19)
(1.29462 0.356295 1.48263e-19)
(1.28643 0.347492 -1.74499e-19)
(1.27892 0.338902 -7.977e-20)
(1.27224 0.330652 1.34355e-20)
(1.26642 0.323107 7.70801e-20)
(1.26158 0.315846 -1.45458e-19)
(0.151621 0.0274498 -8.39055e-20)
(0.44033 0.0970785 -1.98357e-19)
(0.699152 0.181558 -1.71976e-19)
(0.912972 0.260605 -2.33716e-19)
(1.07462 0.324138 -1.32722e-19)
(1.1863 0.369256 -2.74812e-19)
(1.25639 0.397176 3.49469e-20)
(1.29544 0.411233 -1.45657e-19)
(1.31335 0.415295 -1.60141e-20)
(1.31803 0.412793 2.39409e-20)
(1.31512 0.406351 -5.25417e-20)
(1.30828 0.39777 6.57347e-20)
(1.29973 0.388193 1.1679e-19)