/*--------------------------------*- C++ -*----------------------------------*\
  =========                 |
  \\      /  F ield         | OpenFOAM: The Open Source CFD Toolbox
   \\    /   O peration     | Website:  https://openfoam.org
    \\  /    A nd           | Version:  6.0
     \\/     M anipulation  |
\*---------------------------------------------------------------------------*/
FoamFile
{
    version     2.0;
    format      ascii;
    class       surfaceScalarField;
    location    "37";
    object      phi;
}
// * * * * * * * * * * * * * * * * * * * * * * * * * * * * * * * * * * * * * //

dimensions      [0 3 -1 0 0 0 0];

internalField   nonuniform List<scalar> 
24700
(
-1.28036e-06
6.89403e-07
5.90961e-07
-4.6566e-06
2.00078e-06
1.37545e-06
-9.73093e-06
3.21277e-06
1.86156e-06
-1.61559e-05
4.30196e-06
2.12299e-06
-2.36329e-05
5.25807e-06
2.21897e-06
-3.19101e-05
6.08049e-06
2.19667e-06
-4.07787e-05
6.77554e-06
2.09313e-06
-5.00702e-05
7.3545e-06
1.93699e-06
-5.96522e-05
7.83205e-06
1.74993e-06
-6.94253e-05
8.22502e-06
1.54805e-06
-7.93197e-05
8.55148e-06
1.34293e-06
-8.92922e-05
8.82994e-06
1.14261e-06
-9.93234e-05
9.07876e-06
9.52362e-07
-0.000109414
9.3156e-06
7.75336e-07
-0.000119584
9.55708e-06
6.13057e-07
-0.000129869
9.81838e-06
4.65817e-07
-0.000140315
1.0113e-05
3.32976e-07
-0.000150981
1.04527e-05
2.13178e-07
-0.000161932
1.08472e-05
1.04516e-07
-0.000173241
1.13041e-05
4.64977e-09
-0.000184981
1.18291e-05
-8.91086e-08
-0.000197227
1.24259e-05
-1.7973e-07
-0.000210053
1.30962e-05
-2.70416e-07
-0.000223529
1.38406e-05
-3.64542e-07
1.46604e-05
-4.65559e-07
-0.000237724
-1.28022e-06
1.96962e-06
-4.65431e-06
5.37488e-06
-9.72283e-06
8.28129e-06
-1.61368e-05
1.07159e-05
-2.35964e-05
1.27177e-05
-3.18485e-05
1.43326e-05
-4.06833e-05
1.56103e-05
-4.99308e-05
1.6602e-05
-5.94574e-05
1.73587e-05
-6.91623e-05
1.79299e-05
-7.89742e-05
1.83634e-05
-8.88484e-05
1.87042e-05
-9.87638e-05
1.89942e-05
-0.00010872
1.92719e-05
-0.000118736
1.95724e-05
-0.000128844
1.99265e-05
-0.000139091
2.03608e-05
-0.000149536
2.08978e-05
-0.000160245
2.15553e-05
-0.000171287
2.23469e-05
-0.00018274
2.32814e-05
-0.000194677
2.43637e-05
-0.000207175
2.55942e-05
-0.000220305
2.69708e-05
2.84928e-05
-0.000234138
-1.27953e-06
3.24915e-06
-4.64891e-06
8.74425e-06
-9.70587e-06
1.33383e-05
-1.60989e-05
1.71089e-05
-2.35257e-05
2.01445e-05
-3.1731e-05
2.25378e-05
-4.05025e-05
2.43819e-05
-4.9668e-05
2.57675e-05
-5.90911e-05
2.67818e-05
-6.86682e-05
2.7507e-05
-7.83248e-05
2.80201e-05
-8.80133e-05
2.83926e-05
-9.77092e-05
2.86901e-05
-0.00010741
2.89722e-05
-0.00011713
2.92925e-05
-0.000126901
2.96979e-05
-0.000136769
3.02291e-05
-0.000146791
3.09198e-05
-0.000157033
3.1797e-05
-0.000167567
3.28806e-05
-0.000178469
3.4184e-05
-0.000189819
3.57135e-05
-0.000201694
3.74691e-05
-0.00021417
3.94466e-05
4.16432e-05
-0.00022732
-1.27858e-06
4.52773e-06
-4.64117e-06
1.21068e-05
-9.68151e-06
1.83786e-05
-1.60444e-05
2.34718e-05
-2.34244e-05
2.75245e-05
-3.15627e-05
3.06761e-05
-4.02439e-05
3.30631e-05
-4.92921e-05
3.48157e-05
-5.85671e-05
3.60568e-05
-6.7961e-05
3.69008e-05
-7.73948e-05
3.74539e-05
-8.68159e-05
3.78137e-05
-9.61954e-05
3.80696e-05
-0.000105526
3.83024e-05
-0.000114818
3.85847e-05
-0.000124101
3.89806e-05
-0.000133417
3.95452e-05
-0.000142822
4.03251e-05
-0.000152382
4.13574e-05
-0.000162172
4.26702e-05
-0.00017227
4.42823e-05
-0.00018276
4.62032e-05
-0.000193724
4.84331e-05
-0.000205244
5.09665e-05
5.37992e-05
-0.0002174
-1.27767e-06
5.8054e-06
-4.63198e-06
1.54612e-05
-9.65143e-06
2.3398e-05
-1.59762e-05
2.97966e-05
-2.32965e-05
3.48448e-05
-3.13497e-05
3.87293e-05
-3.99161e-05
4.16296e-05
-4.88154e-05
4.3715e-05
-5.79023e-05
4.51437e-05
-6.70634e-05
4.60618e-05
-7.62137e-05
4.66042e-05
-8.52943e-05
4.68944e-05
-9.42699e-05
4.70452e-05
-0.000103126
4.7159e-05
-0.00011187
4.7328e-05
-0.000120523
4.76341e-05
-0.000129127
4.81485e-05
-0.000137733
4.89319e-05
-0.00014641
5.00336e-05
-0.000155231
5.14917e-05
-0.000164281
5.33324e-05
-0.000173648
5.55702e-05
-0.000183423
5.82075e-05
-0.000193695
6.12385e-05
6.4658e-05
-0.000204554
-1.27709e-06
7.08249e-06
-4.62212e-06
1.88062e-05
-9.617e-06
2.83929e-05
-1.58963e-05
3.60759e-05
-2.31455e-05
4.2094e-05
-3.10973e-05
4.66811e-05
-3.95272e-05
5.00595e-05
-4.82497e-05
5.24375e-05
-5.71137e-05
5.40076e-05
-6.5999e-05
5.49471e-05
-7.48135e-05
5.54187e-05
-8.34904e-05
5.55712e-05
-9.1986e-05
5.55409e-05
-0.000100279
5.54515e-05
-0.000108366
5.54155e-05
-0.000116265
5.55334e-05
-0.000124011
5.58942e-05
-0.000131653
5.65744e-05
-0.000139258
5.76381e-05
-0.000146902
5.91357e-05
-0.000154673
6.11039e-05
-0.000162668
6.35648e-05
-0.000170986
6.65252e-05
-0.000179728
6.99813e-05
7.39281e-05
-0.000188999
-1.27704e-06
8.35952e-06
-4.61201e-06
2.21412e-05
-9.57885e-06
3.33598e-05
-1.58058e-05
4.23029e-05
-2.29731e-05
4.92612e-05
-3.08083e-05
5.45163e-05
-3.90822e-05
5.83334e-05
-4.76035e-05
6.09588e-05
-5.62145e-05
6.26187e-05
-6.47879e-05
6.35205e-05
-7.3223e-05
6.38537e-05
-8.14436e-05
6.37919e-05
-8.93964e-05
6.34937e-05
-9.70494e-05
6.31045e-05
-0.000104391
6.27569e-05
-0.000111429
6.25714e-05
-0.000118191
6.2656e-05
-0.000124722
6.31057e-05
-0.000131085
6.40016e-05
-0.00013736
6.54104e-05
-0.000143639
6.73827e-05
-0.000150026
6.99516e-05
-0.000156633
7.31324e-05
-0.000163578
7.69262e-05
8.13303e-05
-0.00017098
-1.27753e-06
9.63706e-06
-4.60139e-06
2.5465e-05
-9.53623e-06
3.82946e-05
-1.57034e-05
4.847e-05
-2.27774e-05
5.63353e-05
-3.04812e-05
6.22201e-05
-3.85803e-05
6.64326e-05
-4.68779e-05
6.92564e-05
-5.52098e-05
7.09506e-05
-6.34407e-05
7.17513e-05
-7.14606e-05
7.18737e-05
-7.9183e-05
7.15143e-05
-8.65431e-05
7.08538e-05
-9.34967e-05
7.0058e-05
-0.00010002
6.92802e-05
-0.00010611
6.86611e-05
-0.000111783
6.83293e-05
-0.000117078
6.84006e-05
-0.000122053
6.8977e-05
-0.000126788
7.01448e-05
-0.000131378
7.19734e-05
-0.000135939
7.45125e-05
-0.000140597
7.77903e-05
-0.000145489
8.18177e-05
8.65981e-05
-0.000150757
-1.27833e-06
1.09154e-05
-4.58914e-06
2.87758e-05
-9.48653e-06
4.3192e-05
-1.55845e-05
5.45679e-05
-2.2552e-05
6.33028e-05
-3.01075e-05
6.97756e-05
-3.8012e-05
7.4337e-05
-4.60633e-05
7.73077e-05
-5.4091e-05
7.89783e-05
-6.19519e-05
7.96122e-05
-6.95265e-05
7.94484e-05
-7.67172e-05
7.8705e-05
-8.34462e-05
7.75827e-05
-8.96553e-05
7.62671e-05
-9.53061e-05
7.4931e-05
-0.000100381
7.37359e-05
-0.000104884
7.28321e-05
-0.000108842
7.23584e-05
-0.000112306
7.24411e-05
-0.000115352
7.31912e-05
-0.000118081
7.47027e-05
-0.000120617
7.70482e-05
-0.000123103
8.02762e-05
-0.000125699
8.44141e-05
8.94772e-05
-0.000128578
-1.27885e-06
1.21942e-05
-4.57297e-06
3.207e-05
-9.42473e-06
4.80437e-05
-1.54405e-05
6.05837e-05
-2.22843e-05
7.01466e-05
-2.96702e-05
7.71616e-05
-3.73558e-05
8.20226e-05
-4.51345e-05
8.50864e-05
-5.28304e-05
8.66742e-05
-6.0293e-05
8.70747e-05
-6.73937e-05
8.65491e-05
-7.40233e-05
8.53346e-05
-8.00904e-05
8.36499e-05
-8.55213e-05
8.16981e-05
-9.02608e-05
7.96705e-05
-9.42735e-05
7.77486e-05
-9.75461e-05
7.61047e-05
-0.000100091
7.49029e-05
-0.000101946
7.42968e-05
-0.000103183
7.44277e-05
-0.000103901
7.54208e-05
-0.000104233
7.73803e-05
-0.000104341
8.03844e-05
-0.000104414
8.4487e-05
8.97246e-05
-0.000104661
-1.27815e-06
1.34724e-05
-4.54929e-06
3.53411e-05
-9.34314e-06
5.28376e-05
-1.52584e-05
6.6499e-05
-2.19543e-05
7.68425e-05
-2.9142e-05
8.43493e-05
-3.65763e-05
8.94568e-05
-4.40477e-05
9.25578e-05
-5.13761e-05
9.40026e-05
-5.84051e-05
9.41038e-05
-6.49979e-05
9.31419e-05
-7.10345e-05
9.13712e-05
-7.64099e-05
8.90252e-05
-8.1034e-05
8.63222e-05
-8.48328e-05
8.34693e-05
-8.77503e-05
8.06661e-05
-8.97522e-05
7.81066e-05
-9.083e-05
7.59807e-05
-9.10056e-05
7.44724e-05
-9.03364e-05
7.37584e-05
-8.89187e-05
7.40032e-05
-8.68911e-05
7.53527e-05
-8.44337e-05
7.7927e-05
-8.17678e-05
8.18211e-05
8.71063e-05
-7.91495e-05
-1.2749e-06
1.47473e-05
-4.51322e-06
3.85794e-05
-9.23123e-06
5.75556e-05
-1.502e-05
7.22877e-05
-2.15345e-05
8.3357e-05
-2.84839e-05
9.12987e-05
-3.56217e-05
9.65946e-05
-4.2737e-05
9.96732e-05
-4.96474e-05
0.000100913
-5.61926e-05
0.000100649
-6.22293e-05
9.91786e-05
-6.76284e-05
9.67703e-05
-7.22724e-05
9.36692e-05
-7.60553e-05
9.01051e-05
-7.88834e-05
8.62974e-05
-8.06779e-05
8.24607e-05
-8.13798e-05
7.88085e-05
-8.09546e-05
7.55555e-05
-7.94004e-05
7.29181e-05
-7.67544e-05
7.11125e-05
-7.31018e-05
7.03505e-05
-6.85809e-05
7.08318e-05
-6.33883e-05
7.27345e-05
-5.77803e-05
7.6213e-05
8.13955e-05
-5.20695e-05
-1.26743e-06
1.60147e-05
-4.45866e-06
4.17706e-05
-9.07587e-06
6.21728e-05
-1.47024e-05
7.79142e-05
-2.09896e-05
8.96442e-05
-2.76454e-05
9.79545e-05
-3.44233e-05
0.000103373
-4.1113e-05
0.000106363
-4.75319e-05
0.000107332
-5.35179e-05
0.000106635
-5.89245e-05
0.000104585
-6.36157e-05
0.000101462
-6.74644e-05
9.75179e-05
-7.03502e-05
9.29909e-05
-7.21608e-05
8.8108e-05
-7.27942e-05
8.30941e-05
-7.21637e-05
7.8178e-05
-7.02045e-05
7.35963e-05
-6.68831e-05
6.95967e-05
-6.22083e-05
6.64376e-05
-5.62432e-05
6.43854e-05
-4.91174e-05
6.37061e-05
-4.10374e-05
6.46545e-05
-3.22947e-05
6.74704e-05
7.23688e-05
-2.32681e-05
-1.25383e-06
1.72686e-05
-4.3786e-06
4.48954e-05
-8.86178e-06
6.6656e-05
-1.42788e-05
8.33312e-05
-2.02775e-05
9.56429e-05
-2.65651e-05
0.000104242
-3.28964e-05
0.000109704
-3.90631e-05
0.00011253
-4.48844e-05
0.000113153
-5.01996e-05
0.00011195
-5.48618e-05
0.000109247
-5.87324e-05
0.000105332
-6.16781e-05
0.000100464
-6.35683e-05
9.48811e-05
-6.42753e-05
8.88149e-05
-6.36756e-05
8.24945e-05
-6.16549e-05
7.61573e-05
-5.8115e-05
7.00564e-05
-5.29846e-05
6.44664e-05
-4.62341e-05
5.96871e-05
-3.78925e-05
5.60437e-05
-2.8067e-05
5.38806e-05
-1.69627e-05
5.35502e-05
-4.90158e-06
5.54093e-05
5.98031e-05
7.66409e-06
-1.23206e-06
1.85006e-05
-4.2655e-06
4.79289e-05
-8.57236e-06
7.09628e-05
-1.37195e-05
8.84783e-05
-1.93508e-05
0.000101274
-2.5173e-05
0.000110064
-3.09423e-05
0.000115473
-3.64536e-05
0.000118041
-4.15296e-05
0.000118229
-4.60137e-05
0.000116434
-4.97618e-05
0.000112995
-5.26372e-05
0.000108208
-5.45058e-05
0.000102332
-5.52325e-05
9.56079e-05
-5.46801e-05
8.82625e-05
-5.27091e-05
8.05236e-05
-4.91813e-05
7.26295e-05
-4.39658e-05
6.48409e-05
-3.69507e-05
5.74512e-05
-2.80593e-05
5.07957e-05
-1.72729e-05
4.52574e-05
-4.65899e-06
4.12667e-05
9.59708e-06
3.92941e-05
2.51553e-05
3.9851e-05
4.3471e-05
4.14874e-05
-1.20016e-06
1.97008e-05
-4.11189e-06
5.08406e-05
-8.19072e-06
7.50417e-05
-1.29937e-05
9.32813e-05
-1.81596e-05
0.00010644
-2.33935e-05
0.000115298
-2.84528e-05
0.000120533
-3.31352e-05
0.000122723
-3.72681e-05
0.000122362
-4.07001e-05
0.000119866
-4.32934e-05
0.000115589
-4.49171e-05
0.000109831
-4.54424e-05
0.000102857
-4.47371e-05
9.49026e-05
-4.26633e-05
8.61887e-05
-3.90749e-05
7.69352e-05
-3.38187e-05
6.73732e-05
-2.67382e-05
5.77604e-05
-1.76834e-05
4.83964e-05
-6.52733e-06
3.96396e-05
6.80796e-06
3.19221e-05
2.23149e-05
2.57597e-05
3.9853e-05
2.1756e-05
5.90883e-05
2.06157e-05
2.31352e-05
7.94242e-05
-1.15644e-06
2.08572e-05
-3.91091e-06
5.35951e-05
-7.70085e-06
7.88316e-05
-1.20714e-05
9.76518e-05
-1.66539e-05
0.000111023
-2.11498e-05
0.000119794
-2.53156e-05
0.000124698
-2.89503e-05
0.000126358
-3.18851e-05
0.000125297
-3.39741e-05
0.000121955
-3.50868e-05
0.000116701
-3.51019e-05
0.000109846
-3.39007e-05
0.000101656
-3.13623e-05
9.23642e-05
-2.73585e-05
8.21849e-05
-2.17499e-05
7.13265e-05
-1.43831e-05
6.00064e-05
-5.09129e-06
4.84686e-05
6.30112e-06
3.7004e-05
1.99652e-05
2.59756e-05
3.60421e-05
1.58452e-05
5.46015e-05
7.20033e-06
7.55791e-05
7.78381e-07
9.86852e-05
-2.4904e-06
-1.45995e-06
0.00012328
-1.09959e-06
2.19568e-05
-3.65688e-06
5.61524e-05
-7.08874e-06
8.22635e-05
-1.09252e-05
0.000101488
-1.47869e-05
0.000114884
-1.83681e-05
0.000123375
-2.14207e-05
0.000127751
-2.37418e-05
0.000128679
-2.51632e-05
0.000126718
-2.55421e-05
0.000122334
-2.47547e-05
0.000115914
-2.26893e-05
0.000107781
-1.92412e-05
9.8208e-05
-1.4307e-05
8.743e-05
-7.77916e-06
7.56571e-05
4.59862e-07
6.30875e-05
1.05431e-05
4.99232e-05
2.26242e-05
3.63875e-05
3.68787e-05
2.27494e-05
5.35e-05
9.35434e-06
7.26804e-05
-3.33524e-06
9.45725e-05
-1.46918e-05
0.000119218
-2.38674e-05
0.000146426
-2.96976e-05
-3.06006e-05
0.000175566
-1.02888e-06
2.29857e-05
-3.34568e-06
5.84692e-05
-6.34313e-06
8.52609e-05
-9.53194e-06
0.000104677
-1.25175e-05
0.00011787
-1.49817e-05
0.000125839
-1.66667e-05
0.000129436
-1.73623e-05
0.000129375
-1.68951e-05
0.000126251
-1.51206e-05
0.00012056
-1.19166e-05
0.00011271
-7.17855e-06
0.000103043
-8.14695e-07
9.18442e-05
7.25801e-06
7.93573e-05
1.71188e-05
6.57963e-05
2.88488e-05
5.13575e-05
4.25389e-05
3.62331e-05
5.82982e-05
2.06282e-05
7.6264e-05
4.78363e-06
9.66088e-05
-1.09905e-05
0.000119538
-2.62647e-05
0.000145267
-4.04208e-05
0.000173958
-5.25578e-05
0.000205576
-6.1316e-05
-6.46263e-05
0.000239602
-9.44109e-07
2.39298e-05
-2.97477e-06
6.04998e-05
-5.45574e-06
8.77419e-05
-7.87315e-06
0.000107094
-9.81131e-06
0.000119808
-1.09335e-05
0.000126962
-1.09653e-05
0.000129468
-9.68146e-06
0.000128091
-6.8957e-06
0.000123465
-2.45319e-06
0.000116117
3.77447e-06
0.000106482
1.18928e-05
9.49247e-05
2.19866e-05
8.17503e-05
3.41223e-05
6.72217e-05
4.83495e-05
5.15691e-05
6.47052e-05
3.50018e-05
8.32196e-05
1.77187e-05
0.000103926
-7.81848e-08
0.000126876
-1.81659e-05
0.000152157
-3.62717e-05
0.000179915
-5.40229e-05
0.000210361
-7.08671e-05
0.000243748
-8.59445e-05
0.000280249
-9.78167e-05
-0.000103968
0.00031959
-8.45562e-07
2.47754e-05
-2.54296e-06
6.21972e-05
-4.42087e-06
8.96198e-05
-5.93452e-06
0.000108608
-6.64044e-06
0.000120514
-6.17602e-06
0.000126497
-4.24213e-06
0.000127534
-5.89532e-07
0.000124438
4.99106e-06
0.000117885
1.26756e-05
0.000108433
2.26106e-05
9.65474e-05
3.49147e-05
8.26206e-05
4.96783e-05
6.69867e-05
6.69624e-05
4.99376e-05
8.67963e-05
3.17352e-05
0.000109177
1.26216e-05
0.000134067
-7.17188e-06
0.000161405
-2.74157e-05
0.000191111
-4.78721e-05
0.000223116
-6.8277e-05
0.000257399
-8.83059e-05
0.000294036
-0.000107505
0.000333255
-0.000125163
0.000375419
-0.00013998
-0.000149192
0.000420643
-7.33731e-07
2.55091e-05
-2.04968e-06
6.35132e-05
-3.23405e-06
9.08042e-05
-3.70412e-06
0.000109078
-2.98133e-06
0.000119791
-6.69245e-07
0.000124185
3.5648e-06
0.0001233
1.00038e-05
0.000117999
1.88911e-05
0.000108997
3.04362e-05
9.68875e-05
4.48175e-05
8.21661e-05
6.21824e-05
6.52557e-05
8.26443e-05
4.65247e-05
0.000106278
2.63037e-05
0.000133113
4.89995e-06
0.000163126
-1.73909e-05
0.00019623
-4.02756e-05
0.00023227
-6.3456e-05
0.000271022
-8.66241e-05
0.000312203
-0.000109458
0.000355508
-0.000131611
0.000400686
-0.000152683
0.000447679
-0.000172156
0.000496823
-0.000189124
-0.000201114
0.000548745
-6.08998e-07
2.61181e-05
-1.49396e-06
6.43981e-05
-1.89016e-06
9.12004e-05
-1.16939e-06
0.000108357
1.18959e-06
0.000117432
5.62504e-06
0.00011975
1.25119e-05
0.000116413
2.21767e-05
0.000108334
3.49074e-05
9.62667e-05
5.09589e-05
8.08359e-05
7.05556e-05
6.25693e-05
9.38898e-05
4.19216e-05
0.000121117
1.92971e-05
0.000152351
-4.92993e-06
0.00018765
-3.03986e-05
0.000227005
-5.67459e-05
0.000270322
-8.35932e-05
0.000317401
-0.000110535
0.000367907
-0.00013713
0.00042135
-0.000162901
0.000477076
-0.000187337
0.000534306
-0.000209913
0.000592287
-0.000230137
0.000650727
-0.000247563
-0.00026147
0.000711082
-4.71207e-07
2.65893e-05
-8.73141e-07
6.48001e-05
-3.81012e-07
9.07082e-05
1.68661e-06
0.00010629
5.9011e-06
0.000113218
1.27501e-05
0.000112901
2.2659e-05
0.000106504
3.60058e-05
9.49875e-05
5.31321e-05
7.91405e-05
7.43478e-05
5.96202e-05
9.99337e-05
3.69834e-05
0.000130139
1.17157e-05
0.00016518
-1.57433e-05
0.000205228
-4.49778e-05
0.000250404
-7.55746e-05
0.000300762
-0.000107104
0.00035627
-0.000139101
0.000416775
-0.00017104
0.00048196
-0.000202316
0.00055127
-0.000232211
0.000623816
-0.000259882
0.000698263
-0.00028436
0.000772764
-0.000304638
0.00084536
-0.000320159
-0.000334522
0.000918412
-3.19256e-07
2.69085e-05
-1.81678e-07
6.46625e-05
1.30698e-06
8.92196e-05
4.88894e-06
0.000102708
1.11926e-05
0.000106914
2.07619e-05
0.000103331
3.40786e-05
9.31875e-05
5.15785e-05
7.74876e-05
7.36617e-05
5.70573e-05
0.000100698
3.25843e-05
0.000133027
4.6542e-06
0.00017096
-2.62178e-05
0.000214777
-5.956e-05
0.00026472
-9.49206e-05
0.000320992
-0.000131847
0.000383752
-0.000169864
0.000453108
-0.000208457
0.000529107
-0.000247039
0.000611713
-0.000284921
0.000700754
-0.000321252
0.000795811
-0.000354939
0.000895966
-0.000384515
0.0009991
-0.000407772
0.00110002
-0.000421075
-0.00042047
0.00118596
-1.51257e-07
2.70598e-05
5.89067e-07
6.39222e-05
3.19372e-06
8.66149e-05
8.47269e-06
9.74289e-05
1.71176e-05
9.82692e-05
2.97335e-05
9.07153e-05
4.6863e-05
7.6058e-05
6.90017e-05
5.53489e-05
9.6608e-05
2.9451e-05
0.000130107
-9.15074e-07
0.000169893
-3.51317e-05
0.000216327
-7.26511e-05
0.000269734
-0.000112968
0.000330411
-0.000155597
0.000398621
-0.000200057
0.000474612
-0.000245855
0.000558632
-0.000292478
0.000650974
-0.000339381
0.000752037
-0.000385985
0.000862458
-0.000431673
0.000983318
-0.000475799
0.0011165
-0.000517696
0.00126552
-0.00055679
0.00143799
-0.000593545
-0.000633543
0.00165106
3.74493e-08
2.70224e-05
1.45439e-06
6.25052e-05
5.31005e-06
8.27593e-05
1.24882e-05
9.02507e-05
2.37485e-05
8.7009e-05
3.97607e-05
7.47031e-05
6.11288e-05
5.46899e-05
8.84062e-05
2.80715e-05
0.000122103
-4.24546e-06
0.000162687
-4.14991e-05
0.000210584
-8.30295e-05
0.000266177
-0.000128244
0.0003298
-0.00017659
0.000401741
-0.000227538
0.000482251
-0.000280567
0.000571556
-0.000335159
0.00066988
-0.000390802
0.000777493
-0.000446994
0.000894774
-0.000503266
0.00102231
-0.000559209
0.00116104
-0.000614528
0.00131244
-0.000669097
0.00147873
-0.00072308
0.00166242
-0.000777234
-0.000831572
0.00186045
2.5162e-07
2.67707e-05
2.43153e-06
6.03253e-05
7.69168e-06
7.74991e-05
1.69943e-05
8.09482e-05
3.11699e-05
7.28333e-05
5.09536e-05
5.49194e-05
7.70083e-05
2.86352e-05
0.000109936
-4.85672e-06
0.000150285
-4.45939e-05
0.000198542
-8.97565e-05
0.000255134
-0.000139622
0.000320418
-0.000193527
0.000394676
-0.000250849
0.000478117
-0.00031098
0.000570879
-0.000373329
0.000673036
-0.000437317
0.000784623
-0.000502389
0.000905658
-0.000568029
0.00103618
-0.000633786
0.00117628
-0.000699309
0.00132614
-0.000764394
0.00148607
-0.000829017
0.00165632
-0.000893339
0.00183661
-0.000957514
-0.00101864
0.00202367
4.97687e-07
2.6273e-05
3.54193e-06
5.72811e-05
1.03812e-05
7.06598e-05
2.20587e-05
6.92707e-05
3.94764e-05
5.54156e-05
6.34319e-05
3.09639e-05
9.46384e-05
-2.57135e-06
0.000133733
-4.39518e-05
0.000181277
-9.21375e-05
0.000237744
-0.000146224
0.000303516
-0.000205393
0.000378867
-0.000268878
0.000463959
-0.000335941
0.000558837
-0.000405857
0.000663428
-0.000477919
0.000777551
-0.00055144
0.000900929
-0.000625767
0.0010332
-0.000700303
0.00117395
-0.000774535
0.0013227
-0.000848055
0.0014789
-0.000920595
0.00164192
-0.000992037
0.00181093
-0.00106235
0.0019847
-0.00113128
-0.00119489
0.00216095
7.8284e-07
2.54902e-05
4.80902e-06
5.32549e-05
1.34242e-05
6.20446e-05
2.7752e-05
5.49429e-05
4.87631e-05
3.44045e-05
7.73097e-05
2.41733e-06
0.000114141
-3.9403e-05
0.000159907
-8.97173e-05
0.000215146
-0.000147377
0.000280276
-0.000211354
0.000355576
-0.000280693
0.000441173
-0.000354475
0.00053703
-0.000431798
0.000642946
-0.000511773
0.000758555
-0.000593529
0.00088334
-0.000676224
0.00101664
-0.000759069
0.00115768
-0.000841343
0.00130557
-0.000922427
0.00145934
-0.00100182
0.00161788
-0.00107914
0.00177999
-0.00115415
0.00194433
-0.00122669
0.00210936
-0.00129631
-0.00135908
0.00227356
1.11449e-06
2.43757e-05
6.25636e-06
4.8113e-05
1.68651e-05
5.14358e-05
3.41408e-05
3.76673e-05
5.91149e-05
9.43043e-06
9.26803e-05
-3.11481e-05
0.0001356
-8.23231e-05
0.000188502
-0.000142619
0.000251862
-0.000210736
0.000325981
-0.000285473
0.00041097
-0.000365683
0.000506735
-0.00045024
0.000612965
-0.000538027
0.000729137
-0.000627945
0.000854527
-0.00071892
0.000988232
-0.00080993
0.00112919
-0.000900029
0.00127622
-0.000988373
0.00142804
-0.00107424
0.00158328
-0.00115705
0.00174052
-0.00123638
0.00189828
-0.00131192
0.00205505
-0.00138346
0.00220934
-0.00145061
-0.00150995
0.00236021
1.4997e-06
2.2876e-05
7.90571e-06
4.1707e-05
2.07434e-05
3.85981e-05
4.12802e-05
1.71305e-05
7.05947e-05
-1.98841e-05
0.000109599
-7.01524e-05
0.000159038
-0.000131762
0.000219472
-0.000203054
0.000291257
-0.00028252
0.000374513
-0.000368729
0.00046911
-0.00046028
0.000574654
-0.000555783
0.000690488
-0.000653862
0.000815711
-0.000753168
0.000949201
-0.00085241
0.00108966
-0.000950385
0.00123564
-0.00104601
0.00138562
-0.00113836
0.00153804
-0.00122665
0.0016913
-0.00131031
0.00184385
-0.00138893
0.00199419
-0.00146226
0.00214089
-0.00153016
0.0022827
-0.00159241
-0.00164636
0.00241911
1.94467e-06
2.09313e-05
9.77523e-06
3.38765e-05
2.50896e-05
2.32837e-05
4.92077e-05
-6.98758e-06
8.32338e-05
-5.39102e-05
0.000128068
-0.000114987
0.000184393
-0.000188087
0.00025265
-0.00027131
0.000333002
-0.000362873
0.000425317
-0.000461044
0.000529144
-0.000564108
0.000643721
-0.00067036
0.000767987
-0.000778128
0.000900627
-0.000885808
0.00104012
-0.000991899
0.00118479
-0.00109506
0.00133289
-0.00119411
0.00148266
-0.00128813
0.00163238
-0.00137637
0.00178042
-0.00145836
0.00192529
-0.0015338
0.00206564
-0.00160261
0.00220032
-0.00166484
0.00232843
-0.00172052
-0.00176781
0.00244988
2.45431e-06
1.8477e-05
1.1878e-05
2.44528e-05
2.9922e-05
5.23964e-06
5.79368e-05
-3.50024e-05
9.70226e-05
-9.2996e-05
0.000148026
-0.00016599
0.000211512
-0.000251574
0.000287733
-0.000347531
0.00037659
-0.00045173
0.000477614
-0.000562068
0.000589964
-0.000676458
0.00071245
-0.000792846
0.000843578
-0.000909256
0.000981613
-0.00102384
0.00112467
-0.00113495
0.00127077
-0.00124116
0.00141798
-0.00134132
0.00156443
-0.00143458
0.00170841
-0.00152036
0.00184842
-0.00159837
0.00198318
-0.00166856
0.00211165
-0.00173109
0.00223307
-0.00178626
0.00234695
-0.00183439
-0.00187443
0.00245357
3.03196e-06
1.54451e-05
1.42207e-05
1.3264e-05
3.52444e-05
-1.5784e-05
6.74537e-05
-6.72117e-05
0.000111905
-0.000137447
0.000169338
-0.000223422
0.000240135
-0.000322371
0.000324283
-0.000431679
0.000421339
-0.000548786
0.000530424
-0.000671153
0.000650247
-0.000796281
0.000779157
-0.000921755
0.000915222
-0.00104532
0.00105633
-0.00116495
0.00120031
-0.00127893
0.001345
-0.00138585
0.0014884
-0.00148472
0.00162869
-0.00157487
0.00176435
-0.00165601
0.00189412
-0.00172814
0.00201707
-0.00179151
0.00213256
-0.00184658
0.00224025
-0.00189395
0.00234007
-0.00193421
-0.00196698
0.00243262
3.67928e-06
1.17658e-05
1.68035e-05
1.39832e-07
4.10444e-05
-4.00249e-05
7.77144e-05
-0.000103882
0.000127775
-0.000187508
0.000191795
-0.000287443
0.0002699
-0.000400476
0.000361728
-0.000523507
0.000466413
-0.000653471
0.000582605
-0.000787345
0.000708523
-0.000922199
0.000842054
-0.00105529
0.000980873
-0.00118414
0.00112257
-0.00130665
0.00126479
-0.00142115
0.00140535
-0.00152641
0.00154233
-0.00162169
0.00167411
-0.00170666
0.00179947
-0.00178137
0.00191752
-0.00184619
0.00202775
-0.00190173
0.00212993
-0.00194876
0.00222413
-0.00198815
0.00231067
-0.00202075
-0.00204669
0.00239038
4.39611e-06
7.36968e-06
1.9619e-05
-1.50831e-05
4.7293e-05
-6.76989e-05
8.86436e-05
-0.000145232
0.000144477
-0.000243341
0.000215116
-0.000358083
0.000300347
-0.000485707
0.000399378
-0.000622538
0.000510853
-0.000764945
0.000632904
-0.000909396
0.000763259
-0.00105255
0.000899381
-0.00119141
0.00103863
-0.00132339
0.00117841
-0.00144644
0.00131635
-0.00155909
0.00145037
-0.00166043
0.00157877
-0.00175009
0.00170029
-0.00182818
0.00181408
-0.00189516
0.00191969
-0.0019518
0.00201702
-0.00199906
0.00210624
-0.00203799
0.00218778
-0.00206969
0.00226222
-0.00209519
-0.00211504
0.00233057
5.18055e-06
2.18914e-06
2.26528e-05
-3.25553e-05
5.39441e-05
-9.89903e-05
0.000100135
-0.000191423
0.000161805
-0.000305011
0.000238951
-0.000435229
0.000330933
-0.000577689
0.000436457
-0.000728062
0.000553623
-0.000882112
0.000680036
-0.00103581
0.000812962
-0.00118548
0.00094952
-0.00132797
0.00108687
-0.00146074
0.00122239
-0.00158196
0.00135382
-0.00169052
0.00147934
-0.00178595
0.00159761
-0.00186836
0.00170777
-0.00193834
0.00180943
-0.00199681
0.00190254
-0.00204492
0.0019874
-0.00208392
0.00206452
-0.00211511
0.00213458
-0.00213974
0.00219835
-0.00215897
-0.00217358
0.0022569
6.02885e-06
-3.83971e-06
2.58828e-05
-5.24093e-05
6.09346e-05
-0.000134042
0.000112052
-0.000242541
0.000179509
-0.000372467
0.000262891
-0.000518611
0.00036105
-0.000675848
0.000472129
-0.000839141
0.000593664
-0.00100365
0.000722753
-0.0011649
0.000856274
-0.001319
0.000991114
-0.00146281
0.00112438
-0.001594
0.00125358
-0.00171116
0.0013767
-0.00181364
0.0014923
-0.00190155
0.00159948
-0.00197554
0.00169784
-0.0020367
0.0017874
-0.00208637
0.00186852
-0.00212603
0.00194179
-0.00215719
0.00200798
-0.0021813
0.00206792
-0.00219968
0.00212249
-0.00221354
-0.00222382
0.00217273
6.93549e-06
-1.07752e-05
2.92799e-05
-7.47537e-05
6.81855e-05
-0.000172948
0.000124232
-0.000298587
0.0001973
-0.000445536
0.00028648
-0.000607791
0.000390048
-0.000779416
0.000505547
-0.000954639
0.000629954
-0.00112805
0.000759924
-0.00129487
0.000892055
-0.00145113
0.00102315
-0.0015939
0.00115041
-0.00172127
0.0012716
-0.00183235
0.00138512
-0.00192715
0.00148995
-0.00200638
0.00158567
-0.00207126
0.00167232
-0.00212335
0.00175031
-0.00216436
0.0018203
-0.00219603
0.00188312
-0.00222002
0.00193968
-0.00223786
0.00199089
-0.00225089
0.00203764
-0.00226029
-0.00226706
0.00208089
7.89308e-06
-1.86683e-05
3.28079e-05
-9.96686e-05
7.56024e-05
-0.000215742
0.000136485
-0.000359469
0.000214859
-0.00052391
0.000309237
-0.000702169
0.000417268
-0.000887447
0.000535887
-0.00107326
0.000661561
-0.00125373
0.000790598
-0.00142391
0.000919454
-0.00157999
0.00104499
-0.00171944
0.00116467
-0.00184095
0.00127665
-0.00194433
0.00137976
-0.00203026
0.00147349
-0.00210011
0.00155787
-0.00215564
0.00163332
-0.0021988
0.00170058
-0.00223161
0.00176053
-0.00225597
0.00181413
-0.00227362
0.00186236
-0.00228609
0.00190613
-0.00229466
0.00194629
-0.00230045
-0.00230444
0.00198367
8.89237e-06
-2.75606e-05
3.64238e-05
-0.0001272
8.30775e-05
-0.000262396
0.000148604
-0.000424996
0.000231844
-0.00060715
0.000330667
-0.000800992
0.000442067
-0.000998847
0.000562398
-0.00119359
0.000687698
-0.00137903
0.000814057
-0.00155026
0.00093794
-0.00170387
0.00105643
-0.00183792
0.00116735
-0.00195187
0.00126934
-0.00204631
0.00136172
-0.00212264
0.00144445
-0.00218285
0.00151798
-0.00222916
0.00158304
-0.00226387
0.00164059
-0.00228917
0.00169166
-0.00230704
0.00173726
-0.00231923
0.00177836
-0.00232718
0.00181582
-0.00233212
0.0018504
-0.00233503
-0.00233685
0.00188281
9.92226e-06
-3.74829e-05
4.00782e-05
-0.000157356
9.04917e-05
-0.000312809
0.000160368
-0.000494873
0.000247906
-0.000694688
0.000350286
-0.000903372
0.000463852
-0.00111241
0.000584434
-0.00131417
0.000707758
-0.00150235
0.000829843
-0.00167235
0.000947315
-0.00182134
0.0010576
-0.00194821
0.001159
-0.00205328
0.00125065
-0.00213795
0.00133237
-0.00220437
0.00140455
-0.00225503
0.00146796
-0.00229257
0.00152359
-0.0023195
0.00157252
-0.0023381
0.00161583
-0.00235035
0.00165454
-0.00235793
0.00168954
-0.00236219
0.00172163
-0.00236421
0.00175147
-0.00236487
-0.002365
0.00177962
1.09699e-05
-4.84528e-05
4.37167e-05
-0.000190103
9.77173e-05
-0.00036681
0.000171547
-0.000568702
0.000262699
-0.00078584
0.000367643
-0.00100832
0.000482104
-0.00122687
0.000601487
-0.00143355
0.000721341
-0.00162221
0.000837765
-0.00178877
0.000947686
-0.00193126
0.00104898
-0.00204951
0.00114047
-0.00214476
0.00122179
-0.00221927
0.00129323
-0.0022758
0.00135553
-0.00231733
0.0014097
-0.00234675
0.0014569
-0.00236669
0.00149825
-0.00237945
0.00153484
-0.00238694
0.00156761
-0.00239071
0.0015974
-0.00239198
0.00162487
-0.00239169
0.00165059
-0.00239059
-0.00238941
0.00167501
1.20208e-05
-6.04736e-05
4.72803e-05
-0.000225362
0.000104622
-0.000424151
0.000181914
-0.000645994
0.000275897
-0.000879823
0.000382336
-0.00111476
0.000496406
-0.00134094
0.000613206
-0.00155035
0.000728257
-0.00173726
0.000837884
-0.0018984
0.000939427
-0.00203281
0.00103128
-0.00214136
0.00111279
-0.00222628
0.00118408
-0.00229056
0.00124583
-0.00233755
0.00129904
-0.00237055
0.00134491
-0.00239262
0.00138464
-0.00240642
0.00141938
-0.00241418
0.00145013
-0.0024177
0.00147778
-0.00241836
0.00150304
-0.00241723
0.00152648
-0.00241513
0.00154857
-0.00241268
-0.00241048
0.00156964
1.30592e-05
-7.35328e-05
5.07076e-05
-0.000263011
0.000111072
-0.000484516
0.000191249
-0.000726171
0.000287204
-0.000975778
0.000394032
-0.00122158
0.000506455
-0.00145337
0.000619404
-0.0016633
0.000728519
-0.00184637
0.000830479
-0.00200036
0.000923121
-0.00212545
0.00100538
-0.00222362
0.00107712
-0.00229801
0.00113887
-0.00235232
0.00119164
-0.00239031
0.00123661
-0.00241552
0.00127507
-0.00243108
0.00130823
-0.00243958
0.00133719
-0.00244314
0.00136286
-0.00244337
0.00138602
-0.00244152
0.00140729
-0.0024385
0.00142715
-0.00243498
0.00144595
-0.00243148
-0.00242849
0.00146395
1.40683e-05
-8.76011e-05
5.3936e-05
-0.000302878
0.000116938
-0.000547518
0.000199351
-0.000808585
0.000296368
-0.00107279
0.000402477
-0.00132769
0.000512069
-0.00156296
0.000620051
-0.00177128
0.000722321
-0.00194864
0.00081601
-0.00209405
0.000899497
-0.00220893
0.000972258
-0.00229638
0.00103461
-0.00236037
0.00108746
-0.00240516
0.001132
-0.00243485
0.00116957
-0.00245309
0.00120146
-0.00246297
0.00122883
-0.00246696
0.0012527
-0.00246701
0.0012739
-0.00246457
0.00129309
-0.00246071
0.00131078
-0.00245619
0.00132736
-0.00245156
0.00134312
-0.00244724
-0.00244362
0.00135825
1.50309e-05
-0.000102632
5.6904e-05
-0.000344751
0.000122099
-0.000612713
0.000206043
-0.000892529
0.000303186
-0.00116994
0.000407504
-0.00143201
0.000513187
-0.00166864
0.000615263
-0.00187336
0.000710005
-0.00204339
0.000795064
-0.00217911
0.000869375
-0.00228325
0.000932918
-0.00235992
0.000986414
-0.00241387
0.00103103
-0.00244978
0.00106812
-0.00247194
0.00109906
-0.00248403
0.00112511
-0.00248902
0.00114736
-0.00248921
0.00116673
-0.00248637
0.00118393
-0.00248177
0.00119952
-0.0024763
0.00121393
-0.0024706
0.00122747