/*--------------------------------*- C++ -*----------------------------------*\
  =========                 |
  \\      /  F ield         | OpenFOAM: The Open Source CFD Toolbox
   \\    /   O peration     | Website:  https://openfoam.org
    \\  /    A nd           | Version:  6.0
     \\/     M anipulation  |
\*---------------------------------------------------------------------------*/
FoamFile
{
    version     2.0;
    format      ascii;
    class       volVectorField;
    location    "37";
    object      U;
}
// * * * * * * * * * * * * * * * * * * * * * * * * * * * * * * * * * * * * * //

dimensions      [0 1 -1 0 0 0 0];

internalField   nonuniform List<vector> 
12500
(
(-0.000256377 2.05973e-05 -5.36007e-22)
(-0.00151875 0.000132645 7.38414e-21)
(-0.00396984 0.000275905 -1.06937e-20)
(-0.00710916 0.000433931 4.90335e-21)
(-0.0106624 0.000593633 2.93935e-22)
(-0.0144577 0.000745742 -6.03376e-22)
(-0.0183579 0.000884727 -8.88933e-21)
(-0.0222609 0.00100785 4.87441e-21)
(-0.0260954 0.00111449 3.21797e-21)
(-0.0298145 0.00120555 3.26429e-21)
(-0.0333907 0.00128311 -5.517e-21)
(-0.0368115 0.00134999 3.20514e-21)
(-0.0400765 0.00140945 -1.50712e-21)
(-0.0431945 0.001465 2.55181e-21)
(-0.046181 0.00152015 -6.49979e-21)
(-0.049057 0.00157829 9.38032e-21)
(-0.0518465 0.00164257 -1.78682e-21)
(-0.0545758 0.00171582 -6.61454e-21)
(-0.0572716 0.00180051 3.38244e-21)
(-0.059961 0.00189871 -3.22338e-21)
(-0.0626733 0.00201202 2.88114e-21)
(-0.0654378 0.00214164 3.80345e-21)
(-0.0682441 0.00228892 3.84809e-22)
(-0.0710287 0.00245586 -1.08556e-20)
(-0.0740613 0.00263943 5.72408e-21)
(-0.000287185 0.000652133 9.76786e-21)
(-0.00160138 0.00177116 -2.52032e-20)
(-0.00409365 0.00268514 7.42389e-21)
(-0.00726372 0.00341855 4.95361e-21)
(-0.0108377 0.00399144 -3.94395e-21)
(-0.0146442 0.00442325 -2.23767e-20)
(-0.0185467 0.00473443 6.64467e-21)
(-0.0224437 0.00494542 -1.25286e-20)
(-0.0262647 0.00507597 1.49695e-20)
(-0.0299632 0.00514494 -1.99566e-20)
(-0.0335121 0.00517007 1.06401e-20)
(-0.0368996 0.00516781 3.43166e-21)
(-0.0401254 0.00515328 -8.6367e-21)
(-0.0431987 0.0051401 -3.81112e-21)
(-0.0461356 0.00514037 2.78514e-20)
(-0.0489572 0.00516458 -2.46032e-20)
(-0.0516881 0.00522159 5.87598e-21)
(-0.0543551 0.0053186 1.01499e-20)
(-0.0569853 0.00546115 -2.316e-21)
(-0.0596064 0.00565317 1.63096e-20)
(-0.0622484 0.00589686 2.96026e-21)
(-0.0649411 0.00619284 -1.05913e-21)
(-0.0676748 0.00654207 -2.0498e-20)
(-0.0703854 0.00694717 1.8836e-20)
(-0.0733438 0.00739546 -3.58993e-20)
(-0.000357878 0.00128089 3.13182e-20)
(-0.00178753 0.00340125 1.04046e-20)
(-0.00436931 0.0050802 -1.36191e-20)
(-0.00760489 0.00638322 5.84138e-21)
(-0.0112222 0.00736359 5.46616e-21)
(-0.0150516 0.00806941 2.07133e-20)
(-0.0189587 0.00854711 -2.62736e-20)
(-0.0228433 0.00884019 -4.2627e-21)
(-0.0266366 0.0089887 -1.75432e-20)
(-0.0302934 0.00902933 -1.46269e-20)
(-0.0337876 0.0089954 1.88662e-20)
(-0.0371083 0.00891699 -6.30473e-20)
(-0.0402562 0.00882104 -1.96269e-21)
(-0.0432411 0.00873135 -3.77245e-20)
(-0.04608 0.00866871 -4.4325e-21)
(-0.0487946 0.00865087 5.34617e-21)
(-0.0514106 0.0086926 -2.9155e-20)
(-0.0539556 0.00880568 -1.82124e-20)
(-0.056458 0.00899899 -2.15352e-20)
(-0.0589464 0.00927854 3.37014e-20)
(-0.0614524 0.00964732 1.23007e-20)
(-0.0640073 0.0101056 -5.46046e-20)
(-0.0666022 0.010654 -2.62638e-20)
(-0.0691725 0.0112959 -2.93108e-20)
(-0.0719914 0.012009 7.90202e-20)
(-0.000468331 0.00190478 -9.83439e-22)
(-0.00207679 0.00501686 -2.40547e-20)
(-0.00479618 0.00745127 -1.15252e-20)
(-0.00813177 0.00931455 7.1383e-21)
(-0.0118147 0.0106932 4.44446e-20)
(-0.0156788 0.011664 -2.00295e-20)
(-0.0195924 0.0122993 4.26456e-20)
(-0.0234584 0.0126653 4.05609e-20)
(-0.0272101 0.0128224 2.46624e-20)
(-0.0308045 0.0128247 -3.72997e-22)
(-0.0342171 0.0127211 4.95868e-20)
(-0.0374384 0.0125552 8.57086e-21)
(-0.0404704 0.0123657 3.77346e-20)
(-0.043324 0.0121868 8.6616e-20)
(-0.0460172 0.0120481 -1.00352e-19)
(-0.0485731 0.0119749 1.50682e-19)
(-0.0510184 0.0119882 3.27277e-20)
(-0.0533825 0.0121047 -7.21251e-20)
(-0.0556952 0.0123372 -1.02198e-20)
(-0.0579872 0.0126942 2.61671e-20)
(-0.0602919 0.0131797 -1.30865e-20)
(-0.0626431 0.013794 -7.81043e-21)
(-0.0650336 0.0145378 -7.61013e-21)
(-0.0673978 0.0154156 -3.06346e-20)
(-0.0700128 0.0163949 1.07355e-19)
(-0.000618349 0.00252186 1.63028e-20)
(-0.0024685 0.00661223 -7.57219e-20)
(-0.00537311 0.00978892 9.17668e-20)
(-0.00884269 0.0121996 -3.65076e-20)
(-0.0126133 0.0139642 4.36571e-20)
(-0.0165232 0.0151879 3.55828e-20)
(-0.0204452 0.0159687 1.34961e-20)
(-0.0242862 0.0163955 6.4976e-22)
(-0.0279826 0.0165484 7.5822e-20)
(-0.0314942 0.0164991 5.2416e-20)
(-0.034799 0.0163115 -2.10036e-20)
(-0.0378891 0.0160427 -1.35042e-20)
(-0.0407682 0.0157433 5.68992e-20)
(-0.0434486 0.0154576 1.07075e-20)
(-0.0459496 0.0152246 2.90028e-20)
(-0.0482959 0.0150773 6.93851e-20)
(-0.050516 0.0150437 -5.98893e-20)
(-0.0526409 0.0151459 4.82988e-20)
(-0.0547029 0.0154012 -1.03965e-19)
(-0.056735 0.0158211 8.72692e-20)
(-0.0587735 0.0164116 5.57594e-22)
(-0.0608555 0.0171733 -6.94112e-20)
(-0.0629763 0.0181073 2.79333e-20)
(-0.0650693 0.0192199 6.33367e-20)
(-0.067417 0.0204683 -9.31757e-20)
(-0.000807677 0.00313033 8.42987e-20)
(-0.0029617 0.0081819 -8.94935e-20)
(-0.00609832 0.0120841 -1.44041e-20)
(-0.00973497 0.0150261 1.81373e-20)
(-0.0136142 0.0171611 -3.91662e-20)
(-0.0175804 0.0186228 -6.10367e-20)
(-0.0215122 0.0195345 -5.07096e-20)
(-0.0253213 0.0200073 -1.2218e-20)
(-0.0289487 0.0201408 -8.71686e-20)
(-0.0323577 0.0200236 6.93461e-20)
(-0.0355289 0.0197345 -1.07659e-19)
(-0.0384569 0.0193439 5.43727e-20)
(-0.0411471 0.0189138 -1.80454e-20)
(-0.0436137 0.0184994 4.17423e-20)
(-0.0458774 0.0181487 -1.04878e-19)
(-0.0479647 0.0179035 5.07659e-20)
(-0.0499059 0.0177988 3.77089e-21)
(-0.0517344 0.0178633 2.24968e-20)
(-0.0534852 0.0181195 1.35744e-19)
(-0.0551945 0.018583 3.00214e-20)
(-0.0569023 0.0192627 -2.75537e-21)
(-0.0586497 0.02016 8.56069e-21)
(-0.0604357 0.0212773 5.63955e-20)
(-0.0621929 0.0226236 1.60448e-20)
(-0.0642115 0.0241451 5.26196e-20)
(-0.001036 0.00372855 -5.2527e-20)
(-0.00355508 0.00972067 7.45668e-20)
(-0.00696923 0.0143283 4.66852e-21)
(-0.0108046 0.0177824 -9.09659e-20)
(-0.014812 0.0202695 1.91162e-19)
(-0.0188437 0.0219519 -6.17878e-20)
(-0.0227854 0.0229776 9.01384e-20)
(-0.0265553 0.0234798 8.24433e-20)
(-0.0300996 0.0235765 -6.81891e-20)
(-0.0333859 0.023373 -9.91925e-20)
(-0.0363982 0.0229624 2.71367e-20)
(-0.0391339 0.0224279 -2.85981e-20)
(-0.0416005 0.0218432 -1.26434e-19)
(-0.0438138 0.0212739 1.53493e-19)
(-0.0457964 0.0207776 -7.35688e-20)
(-0.0475765 0.020405 -5.07009e-20)
(-0.0491866 0.0201994 4.55739e-22)
(-0.0506625 0.0201968 4.13514e-20)
(-0.0520426 0.020426 1.7041e-20)
(-0.0533666 0.0209082 -6.67323e-20)
(-0.054679 0.021656 7.6094e-20)
(-0.0560266 0.0226732 -1.32168e-19)
(-0.0574127 0.0239644 8.06545e-20)
(-0.0587698 0.0255424 -6.17171e-20)
(-0.0603985 0.0273424 1.61971e-20)
(-0.00130293 0.00431495 7.63844e-20)
(-0.00424686 0.0112235 -5.87459e-20)
(-0.00798221 0.016513 -3.73732e-20)
(-0.0120459 0.020457 -6.59598e-20)
(-0.0161989 0.0232758 -1.2057e-19)
(-0.0203031 0.0251596 -8.90688e-20)
(-0.0242532 0.0262811 5.54842e-20)
(-0.0279749 0.0267944 -8.40153e-20)
(-0.0314209 0.026836 1.06607e-19)
(-0.0345638 0.0265264 -1.73447e-19)
(-0.0373919 0.0259729 7.70155e-20)
(-0.0399054 0.0252706 1.626e-19)
(-0.0421141 0.0245046 -2.28368e-19)
(-0.0440359 0.0237508 3.25918e-20)
(-0.0456949 0.0230767 4.23797e-20)
(-0.047121 0.0225424 4.09627e-20)
(-0.0483489 0.0222002 -4.40206e-20)
(-0.0494172 0.0220946 -1.08324e-20)
(-0.0503675 0.0222623 -3.22653e-20)
(-0.051244 0.0227315 -2.69075e-20)
(-0.0520967 0.0235203 -1.47503e-19)
(-0.0529787 0.0246368 -9.94148e-21)
(-0.0538993 0.026089 1.60027e-21)
(-0.0547923 0.0278953 -6.65905e-20)
(-0.0559715 0.0299797 6.84552e-20)
(-0.00160798 0.00488794 2.2035e-21)
(-0.00503467 0.0126851 2.40328e-20)
(-0.00913229 0.0186299 2.50112e-20)
(-0.0134509 0.023039 1.45221e-20)
(-0.0177638 0.0261669 1.22688e-19)
(-0.0219447 0.0282315 1.15195e-19)
(-0.0258987 0.0294296 -9.36199e-20)
(-0.0295607 0.0299358 -2.84738e-20)
(-0.0328911 0.0299035 -2.52865e-20)
(-0.0358686 0.0294682 1.30438e-19)
(-0.038486 0.0287499 4.67947e-20)
(-0.0407469 0.0278553 -6.81328e-20)
(-0.0426637 0.02688 -5.76273e-20)
(-0.0442561 0.02591 1.38819e-19)
(-0.0455498 0.0250227 -3.42214e-20)
(-0.0465762 0.0242879 -4.14587e-20)
(-0.047372 0.0237679 -5.78301e-20)
(-0.0479783 0.0235169 -4.49901e-20)
(-0.0484404 0.0235812 -5.73874e-20)
(-0.0488073 0.0239981 -3.75023e-20)
(-0.0491352 0.0247937 1.55789e-19)
(-0.0494851 0.025982 -7.66735e-20)
(-0.0498739 0.0275774 5.16051e-20)
(-0.0502378 0.0296062 -1.37131e-19)
(-0.0509088 0.0319813 5.52956e-20)
(-0.00195047 0.00544574 -6.85719e-20)
(-0.00591531 0.0141 -1.7858e-20)
(-0.0104128 0.0206702 -1.39506e-19)
(-0.0150089 0.0255173 -6.68285e-20)
(-0.0194918 0.02893 -1.31908e-19)
(-0.0237491 0.0311541 -1.37527e-20)
(-0.0276985 0.0324099 7.06629e-20)
(-0.0312857 0.0328911 -4.30236e-20)
(-0.0344798 0.0327675 9.27096e-20)
(-0.0372667 0.0321881 -2.25198e-19)
(-0.0396444 0.0312846 -6.5132e-21)
(-0.0416207 0.0301742 3.98876e-20)
(-0.0432104 0.0289621 -5.05876e-20)
(-0.044435 0.0277437 4.60014e-20)
(-0.0453216 0.0266061 -3.51614e-20)
(-0.0459029 0.0256291 -7.52973e-20)
(-0.0462169 0.0248853 1.37294e-19)
(-0.0463074 0.0244404 8.50998e-20)
(-0.046223 0.024352 -1.76446e-20)
(-0.0460177 0.0246689 5.609e-20)
(-0.0457548 0.0254279 -1.10649e-19)
(-0.0455047 0.0266526 1.59372e-19)
(-0.0452933 0.0283666 -2.17601e-19)
(-0.045062 0.030608 4.4797e-20)
(-0.0451662 0.0332791 -8.4791e-20)
(-0.00232945 0.00598633 3.72058e-21)
(-0.00688455 0.0154622 -6.09792e-20)
(-0.0118149 0.0226244 9.03509e-20)
(-0.0167058 0.02788 1.85222e-19)
(-0.0213632 0.0315522 -3.03935e-21)
(-0.025691 0.0339145 2.09665e-20)
(-0.0296214 0.0352096 -7.91984e-20)
(-0.0331129 0.0356499 3.70859e-20)
(-0.0361447 0.0354201 2.55479e-19)
(-0.038711 0.0346813 -5.79603e-20)
(-0.040816 0.0335756 -6.84112e-20)
(-0.0424717 0.0322291 2.58501e-19)
(-0.043696 0.0307555 8.4363e-20)
(-0.0445121 0.0292586 4.01396e-20)
(-0.0449483 0.0278345 4.10703e-20)
(-0.0450379 0.0265725 1.11896e-19)
(-0.0448201 0.0255564 -4.29791e-20)
(-0.0443402 0.024864 1.13565e-19)
(-0.0436502 0.0245663 1.5361e-19)
(-0.042809 0.0247266 -1.30971e-19)
(-0.0418876 0.025396 1.94501e-19)
(-0.040967 0.0266114 6.93211e-20)
(-0.0400844 0.0284107 -2.63066e-19)
(-0.039189 0.0308487 3.80278e-19)
(-0.0386673 0.0338191 -3.07723e-19)
(-0.00274361 0.00650721 -1.74501e-19)
(-0.00793676 0.0167644 9.51397e-20)
(-0.0133272 0.0244821 -6.38275e-20)
(-0.0185235 0.0301145 -6.06261e-20)
(-0.0233528 0.0340201 -6.54108e-20)
(-0.0277376 0.0364995 -7.09604e-20)
(-0.0316272 0.0378175 1.94771e-20)
(-0.0349943 0.0382038 1.84942e-19)
(-0.0378302 0.0378567 -3.96234e-20)
(-0.0401384 0.0369481 -1.03127e-19)
(-0.0419304 0.0356287 -6.29517e-20)
(-0.0432231 0.0340319 -2.57517e-20)
(-0.0440379 0.0322781 7.61094e-20)
(-0.0443999 0.0304781 -4.86211e-20)
(-0.044338 0.0287354 -1.58591e-19)
(-0.0438861 0.0271484 -1.74909e-19)
(-0.0430835 0.0258116 6.97202e-20)
(-0.0419766 0.0248155 -1.2971e-19)
(-0.0406198 0.0242467 1.12551e-19)
(-0.0390767 0.0241854 -3.17828e-19)
(-0.0374261 0.0247015 2.44064e-19)
(-0.0357608 0.0258504 -3.22615e-19)
(-0.0341317 0.0276905 -5.9911e-21)
(-0.0324991 0.0303006 -1.08461e-19)
(-0.0312905 0.033569 3.18327e-19)
(-0.0031911 0.00700533 2.67745e-19)
(-0.00906467 0.0179984 3.92448e-20)
(-0.0149352 0.0262313 -2.57787e-20)
(-0.0204396 0.0322067 -1.08815e-20)
(-0.0254292 0.0363188 2.02366e-19)
(-0.029848 0.0388951 6.58041e-20)
(-0.0336647 0.0402219 5.96509e-20)
(-0.0368685 0.0405451 -4.79517e-20)
(-0.0394643 0.0400751 1.84874e-19)
(-0.0414664 0.0389932 -9.08837e-20)
(-0.0428944 0.0374566 5.8647e-20)
(-0.0437716 0.0356042 1.49086e-19)
(-0.0441231 0.0335612 -8.45275e-20)
(-0.0439762 0.031443 9.14905e-20)
(-0.0433608 0.0293587 8.63774e-20)
(-0.0423105 0.0274141 2.95569e-20)
(-0.0408644 0.0257133 -7.27599e-20)
(-0.0390689 0.0243597 2.01217e-19)
(-0.0369797 0.023456 -1.87159e-20)
(-0.0346643 0.0231024 -2.15226e-20)
(-0.0322092 0.0233916 2.40644e-19)
(-0.0297199 0.0244042 -1.71071e-19)
(-0.027263 0.0262269 2.88076e-19)
(-0.0248138 0.028973 -2.38721e-19)
(-0.0228537 0.032531 3.0692e-19)
(-0.00366939 0.00747698 -1.29309e-19)
(-0.010259 0.0191544 2.86664e-20)
(-0.0166212 0.0278582 -2.98652e-20)
(-0.0224264 0.0341405 -1.41406e-19)
(-0.0275538 0.0384315 8.20163e-21)
(-0.0319721 0.0410857 8.04708e-20)
(-0.0356715 0.04241 -3.27289e-19)
(-0.0386598 0.0426656 2.44254e-19)
(-0.0409573 0.0420739 -2.37742e-19)
(-0.0425905 0.0408235 -1.49904e-19)
(-0.0435889 0.0390767 1.34394e-19)
(-0.0439828 0.0369758 -2.90728e-19)
(-0.0438022 0.0346481 2.44811e-19)
(-0.0430774 0.0322112 -7.78425e-20)
(-0.0418395 0.0297773 -2.22199e-19)
(-0.0401219 0.0274567 5.48717e-20)
(-0.0379628 0.0253612 -5.15129e-20)
(-0.0354079 0.0236052 1.93838e-20)
(-0.0325127 0.0223076 -6.9378e-20)
(-0.0293475 0.0215902 -2.29993e-19)
(-0.0260056 0.0215726 5.15241e-20)
(-0.0226057 0.0223671 -8.45032e-23)
(-0.0192313 0.0240994 -2.36704e-19)
(-0.0158775 0.026931 1.66271e-19)
(-0.0130954 0.0307597 -1.43654e-19)
(-0.00417521 0.00791779 5.23372e-20)
(-0.0115083 0.0202213 9.63804e-20)
(-0.0183636 0.029347 1.34863e-19)
(-0.0244508 0.0358975 6.93569e-20)
(-0.0296811 0.040339 -6.80062e-20)
(-0.0340503 0.0430531 1.62215e-19)
(-0.0375727 0.0443666 1.20021e-19)
(-0.0402768 0.0445552 -4.36906e-20)
(-0.0421998 0.0438502 1.55965e-19)
(-0.0433824 0.0424461 -1.60406e-19)
(-0.0438653 0.0405088 -4.70303e-20)
(-0.0436872 0.0381815 4.77258e-20)
(-0.0428845 0.0355915 9.45115e-20)
(-0.0414916 0.0328557 1.13486e-21)
(-0.0395415 0.030086 5.97645e-20)
(-0.0370682 0.0273938 1.10278e-19)
(-0.0341091 0.0248945 -1.87712e-19)
(-0.0307081 0.0227107 2.33261e-19)
(-0.0269201 0.0209753 7.86387e-20)
(-0.022816 0.0198311 2.769e-20)
(-0.0184945 0.0194275 -2.82612e-19)
(-0.014087 0.0199149 4.00046e-20)
(-0.00969519 0.0214696 6.19896e-20)
(-0.00533671 0.0243193 -1.48404e-20)
(-0.00165293 0.0283854 7.05747e-20)
(-0.00470437 0.0083228 4.10629e-21)
(-0.0127986 0.0211865 -2.48276e-19)
(-0.0201369 0.0306801 -6.18686e-21)
(-0.0264743 0.0374568 -6.25955e-20)
(-0.0317577 0.0420192 -4.11318e-19)
(-0.0360129 0.0447757 3.55086e-19)
(-0.0392806 0.0460729 -2.5262e-19)
(-0.0416117 0.0462002 -1.27107e-20)
(-0.0430622 0.0453978 -1.19282e-19)
(-0.0436886 0.0438655 2.06191e-19)
(-0.0435441 0.041771 -2.21878e-19)
(-0.0426777 0.0392572 -1.03849e-19)
(-0.0411339 0.0364488 2.18956e-21)
(-0.0389527 0.0334594 -2.24506e-19)
(-0.036171 0.0303967 3.0624e-19)
(-0.0328247 0.0273691 -3.54649e-19)
(-0.0289511 0.0244907 7.14019e-22)
(-0.0245932 0.021887 5.43144e-20)
(-0.019804 0.0196996 -1.35812e-19)
(-0.0146538 0.0180894 1.31672e-19)
(-0.00924464 0.0172347 -1.86795e-19)
(-0.00371917 0.0173282 -1.23332e-19)
(0.00180377 0.0186089 2.29728e-19)
(0.00728211 0.021393 -2.50541e-19)
(0.0119607 0.0256453 -4.80031e-21)
(-0.00525178 0.00868659 -2.10144e-19)
(-0.0141136 0.0220363 2.4109e-19)
(-0.0219116 0.0318382 -7.43883e-20)
(-0.0284527 0.0387953 1.43193e-19)
(-0.0337228 0.043447 1.54391e-19)
(-0.0377806 0.0462284 -1.35973e-19)
(-0.0406949 0.0475056 -9.01284e-20)
(-0.0425408 0.0475815 -1.07879e-19)
(-0.0433947 0.0467048 9.87491e-20)
(-0.04333 0.04508 -6.58638e-21)
(-0.0424143 0.0428759 1.43866e-19)
(-0.0407086 0.0402338 1.41755e-19)
(-0.0382671 0.0372748 -1.69256e-19)
(-0.035138 0.0341065 3.32284e-19)
(-0.0313646 0.0308294 -2.20267e-19)
(-0.0269871 0.0275441 -3.77461e-20)
(-0.0220454 0.0243578 4.28746e-19)
(-0.0165831 0.0213913 -1.98495e-19)
(-0.0106521 0.0187873 1.26393e-19)
(-0.00432131 0.0167168 2.46784e-19)
(0.00230564 0.0153815 -1.60097e-19)
(0.00907774 0.0150154 1.68785e-20)
(0.0158617 0.015929 -1.09867e-20)
(0.0225938 0.0185522 -6.55223e-20)
(0.028379 0.0229204 1.23456e-19)
(-0.00581144 0.00900354 4.80208e-20)
(-0.0154343 0.0227563 -1.52835e-19)
(-0.0236543 0.0328005 8.35268e-20)
(-0.0303361 0.039888 -1.02416e-21)
(-0.0355082 0.0445945 6.28613e-20)
(-0.0392641 0.0473823 -1.08147e-19)
(-0.0417027 0.0486367 6.18629e-20)
(-0.0429247 0.0486741 1.68416e-19)
(-0.0430278 0.0477518 -5.10788e-21)
(-0.0421034 0.0460789 -8.59687e-20)
(-0.0402348 0.0438256 8.64069e-20)
(-0.0374965 0.0411316 -2.01011e-21)
(-0.0339547 0.0381136 -2.73475e-19)
(-0.0296685 0.0348723 1.01392e-19)
(-0.0246908 0.0314989 2.23983e-20)
(-0.01907 0.0280825 -3.93761e-20)
(-0.0128526 0.0247174 -7.0194e-20)
(-0.00608684 0.021512 2.69079e-19)
(0.00117329 0.018599 6.55735e-20)
(0.00885874 0.0161469 -1.40505e-19)
(0.0168655 0.0143679 -1.68651e-20)
(0.0250369 0.0135277 1.933e-19)
(0.0332308 0.0140089 -9.02645e-20)
(0.0413717 0.0163791 3.87436e-20)
(0.0484004 0.0207769 2.6174e-20)
(-0.00637658 0.00926807 -9.61841e-20)
(-0.0167395 0.0233321 9.56018e-20)
(-0.0253278 0.0335459 -5.3888e-20)
(-0.0320692 0.0407086 -1.72964e-19)
(-0.0370382 0.045432 -1.59202e-19)
(-0.0403648 0.0482054 -7.04666e-20)
(-0.0421795 0.0494337 -5.83266e-20)
(-0.0426092 0.0494468 -1.72503e-19)
(-0.0417736 0.0485112 -6.96538e-20)
(-0.039783 0.0468411 6.34675e-20)
(-0.0367368 0.044609 -9.06118e-20)
(-0.0327244 0.0419543 -9.56496e-20)
(-0.0278261 0.0389901 -8.97029e-20)
(-0.0221144 0.0358109 1.62805e-19)
(-0.0156556 0.0324986 -3.41902e-19)
(-0.00851149 0.0291292 1.95121e-19)
(-0.00074119 0.0257802 -3.33652e-19)
(0.00759597 0.02254 -5.13923e-20)
(0.0164371 0.01952 -1.83084e-19)
(0.0257078 0.0168697 -4.27358e-20)
(0.0353014 0.0147906 -5.21297e-20)
(0.0450567 0.0135576 -1.74038e-19)
(0.0548305 0.0136104 -1.90441e-20)
(0.0645563 0.0156688 1.06445e-19)
(0.0729979 0.020008 -2.76926e-19)
(-0.0069397 0.009475 8.25092e-20)
(-0.0180058 0.0237497 1.07929e-19)
(-0.0268911 0.0340536 3.78038e-19)
(-0.0335914 0.0412309 -6.63694e-20)
(-0.0382299 0.045929 1.57916e-19)
(-0.0409749 0.0486644 3.76099e-19)
(-0.0419891 0.0498615 -1.02477e-19)
(-0.0414261 0.0498642 1.38658e-19)
(-0.0394278 0.0489485 8.08602e-20)
(-0.036123 0.0473353 1.46475e-19)
(-0.0316279 0.045201 -2.93279e-20)
(-0.0260473 0.0426865 1.98132e-20)
(-0.0194767 0.0399042 -5.12013e-20)
(-0.0120046 0.0369451 2.77061e-19)
(-0.00371448 0.0338843 3.54568e-20)
(0.00531305 0.0307866 2.56702e-19)
(0.0149987 0.0277129 -6.56051e-20)
(0.0252624 0.024728 2.34552e-19)
(0.0360215 0.0219131 3.28771e-20)
(0.0471856 0.0193816 1.19102e-19)
(0.0586362 0.017298 -5.13779e-20)
(0.0702034 0.0159089 -9.1106e-21)
(0.0817497 0.0156723 2.82876e-19)
(0.0932535 0.01745 1.73899e-19)
(0.103314 0.021675 -7.25453e-20)
(-0.0074928 0.00961979 -2.00025e-19)
(-0.0192076 0.0239966 -2.02783e-19)
(-0.0282992 0.0343044 -2.11934e-19)
(-0.0348362 0.0414302 7.76415e-20)
(-0.0389928 0.0460565 -1.55908e-19)
(-0.0409768 0.0487268 -2.32229e-20)
(-0.0409837 0.0498851 -6.12142e-20)
(-0.0391937 0.0498893 -2.53761e-19)
(-0.0357703 0.049026 -3.95822e-20)
(-0.0308605 0.0475238 6.50343e-20)
(-0.0245964 0.0455652 -2.03916e-19)
(-0.0170983 0.0432953 2.82557e-19)
(-0.0084774 0.0408299 -3.83451e-19)
(0.00116022 0.038261 9.22551e-20)
(0.0117108 0.0356626 -2.3451e-19)
(0.02307 0.0330941 -1.90155e-19)
(0.0351305 0.0306054 -1.08027e-20)
(0.0477803 0.0282418 -2.86852e-20)
(0.0609022 0.0260531 2.26561e-20)
(0.0743713 0.0241069 -1.08315e-19)
(0.0880392 0.0225056 -7.49411e-20)
(0.101712 0.0214208 9.20751e-20)
(0.115252 0.021259 -2.54612e-19)
(0.128735 0.0229687 8.27615e-20)
(0.140661 0.0271204 5.88097e-20)
(-0.00802744 0.00969879 -3.55013e-20)
(-0.0203174 0.0240619 -5.89295e-20)
(-0.0295035 0.0342813 2.28806e-19)
(-0.0357313 0.0412848 8.50901e-20)
(-0.0392283 0.0457891 1.12583e-19)
(-0.0402428 0.0483643 -1.50336e-19)
(-0.0390034 0.0494736 2.51704e-22)
(-0.0357163 0.0494892 -1.21541e-19)
(-0.030566 0.0487084 2.24602e-19)
(-0.0237165 0.0473691 7.32637e-20)
(-0.0153148 0.0456614 8.21085e-20)
(-0.00549569 0.0437381 -3.26566e-19)
(0.00561419 0.0417221 4.02526e-19)
(0.017891 0.0397125 -1.20889e-19)
(0.0312093 0.0377895 -8.64432e-20)
(0.0454377 0.0360171 2.58712e-19)
(0.0604348 0.0344459 1.1536e-19)
(0.0760464 0.0331148 -2.9193e-19)
(0.0921045 0.0320541 -1.21801e-19)
(0.108427 0.0312922 3.67525e-19)
(0.124806 0.0308611 -2.80761e-19)
(0.140988 0.0308155 1.68796e-19)
(0.156809 0.0314131 9.43612e-20)
(0.172484 0.0335636 -1.21356e-19)
(0.186574 0.0378847 -1.1711e-19)
(-0.00853478 0.00970931 -1.30617e-19)
(-0.0213054 0.0239371 2.02913e-19)
(-0.0304506 0.0339714 8.64118e-20)
(-0.036197 0.0407782 -1.24781e-19)
(-0.038828 0.0451078 -1.99747e-20)
(-0.0386332 0.0475563 -1.30801e-19)
(-0.0358743 0.0486055 -5.21017e-20)
(-0.0307833 0.048641 5.84305e-20)
(-0.0235642 0.0479715 -1.4605e-20)
(-0.014397 0.046844 1.10197e-19)
(-0.00344265 0.0454581 -9.5673e-20)
(0.00915115 0.0439761 2.64651e-19)
(0.0232434 0.0425317 -3.27899e-19)
(0.0386936 0.0412362 2.04446e-19)
(0.0553552 0.040184 2.53879e-19)
(0.0730695 0.039455 -3.66841e-19)
(0.0916591 0.0391165 -1.11609e-19)
(0.110922 0.0392229 1.88027e-19)
(0.130626 0.0398138 -1.16068e-19)
(0.150508 0.0409113 1.12051e-19)
(0.170263 0.042506 -2.71603e-19)
(0.189518 0.0445341 4.52155e-20)
(0.208002 0.0470199 1.77084e-19)
(0.226078 0.0506698 -2.84963e-19)
(0.242671 0.0559589 7.71419e-20)
(-0.0090055 0.00964961 -1.20865e-19)
(-0.0221391 0.0236164 3.78717e-19)
(-0.0310817 0.033366 7.26935e-20)
(-0.0361457 0.0399007 -1.96377e-19)
(-0.0376727 0.044003 1.40619e-19)
(-0.0359948 0.0462944 7.13472e-20)
(-0.0314071 0.0472738 1.13942e-19)
(-0.0241668 0.0473398 -7.47773e-21)
(-0.0144971 0.046811 -1.18406e-20)
(-0.00259323 0.0459438 -2.47878e-20)
(0.0113711 0.0449469 -1.08304e-19)
(0.0272359 0.0439928 -3.64109e-21)
(0.0448471 0.0432271 2.52958e-19)
(0.0640493 0.0427765 -4.14674e-19)
(0.084678 0.0427544 2.95001e-19)
(0.106551 0.0432657 5.96841e-20)
(0.129461 0.0444105 1.05512e-19)
(0.153161 0.0462852 -5.43748e-20)
(0.177358 0.0489827 4.8247e-19)
(0.201694 0.0525875 -2.9893e-19)
(0.225719 0.0571487 2.39112e-19)
(0.248841 0.0626091 5.63603e-20)
(0.270485 0.0688836 -1.75325e-19)
(0.290959 0.076542 1.48591e-19)
(0.309928 0.0854689 2.30588e-19)
(-0.00942951 0.00951877 -3.51769e-20)
(-0.0227826 0.0230965 -1.33567e-19)
(-0.0313315 0.0324616 -2.28224e-19)
(-0.0354797 0.0386504 -1.30046e-19)
(-0.03563 0.0424766 -1.81888e-20)
(-0.0321586 0.0445853 -5.13246e-20)
(-0.0253945 0.0454915 -2.37631e-19)
(-0.0156205 0.0456047 3.93492e-20)
(-0.00307939 0.0452522 -2.66754e-19)
(0.0120182 0.044698 -2.0674e-20)
(0.0294848 0.0441581 -2.55615e-19)
(0.0491473 0.0438132 -9.1002e-20)
(0.0708386 0.0438191 5.22006e-20)
(0.0943897 0.0443151 -2.48456e-19)
(0.119622 0.045432 2.25545e-21)
(0.14634 0.0472999 -2.13917e-19)
(0.174322 0.0500554 8.25737e-20)
(0.203311 0.0538511 -2.987e-19)
(0.233 0.0588672 -5.12179e-20)
(0.263005 0.0653233 -7.19188e-21)
(0.292814 0.0734746 -5.05988e-20)
(0.321678 0.0835748 -5.19547e-20)
(0.348628 0.0960301 -2.60947e-20)
(0.373089 0.111983 -1.04449e-19)
(0.393801 0.129815 -2.24377e-19)
(-0.00979569 0.0093165 6.41049e-20)
(-0.0231961 0.0223769 1.69372e-19)
(-0.031127 0.0312603 2.03528e-19)
(-0.0340901 0.037035 -1.62623e-19)
(-0.032553 0.040544 3.01542e-19)
(-0.0269382 0.0424547 -1.63683e-19)
(-0.0176101 0.0432956 8.88371e-20)
(-0.0048787 0.0434854 1.38399e-19)
(0.0109918 0.0433574 1.25882e-19)
(0.029772 0.0431803 6.1176e-20)
(0.0512573 0.043174 9.88476e-20)
(0.0752571 0.0435225 5.74547e-20)
(0.101586 0.0443851 3.88108e-19)
(0.130059 0.0459051 -2.81984e-19)
(0.160481 0.0482187 3.21883e-19)
(0.192647 0.0514638 -1.33767e-19)
(0.226342 0.0557905 2.88706e-19)
(0.261337 0.0613758 -1.37143e-20)
(0.297394 0.0684451 -5.97928e-20)
(0.334278 0.0773033 -1.11103e-20)
(0.371763 0.0883753 2.27681e-19)
(0.409689 0.102312 -2.23854e-19)
(0.44829 0.120408 1.56604e-19)
(0.488291 0.144392 1.75197e-19)
(0.526537 0.1679 3.66996e-20)
(-0.0100911 0.00904268 4.43701e-20)
(-0.0233339 0.0214589 -2.42467e-19)
(-0.0303858 0.0297698 -8.79883e-20)
(-0.0318551 0.035072 8.02621e-20)
(-0.028279 0.0382356 -2.47332e-19)
(-0.0201292 0.0399483 -4.87973e-20)
(-0.00780857 0.0407498 3.37975e-20)
(0.00834222 0.041065 1.33404e-19)
(0.0280326 0.0412303 -3.37727e-19)
(0.0510082 0.0415148 2.56512e-20)
(0.0770386 0.042137 -9.86598e-20)
(0.105905 0.0432777 -2.99606e-19)
(0.137394 0.0450899 2.04084e-19)
(0.171286 0.0477076 8.7108e-21)
(0.207358 0.0512531 -6.09067e-21)
(0.245379 0.0558445 2.05522e-19)
(0.285119 0.0616025 -3.63496e-19)
(0.326352 0.06866 2.87868e-19)
(0.368876 0.0771718 -5.31795e-20)
(0.412536 0.0873261 1.68517e-19)
(0.457258 0.099349 -2.77346e-19)
(0.503115 0.113535 1.59738e-19)
(0.550607 0.13045 -2.87669e-19)
(0.600668 0.150553 2.99035e-19)
(0.648513 0.167403 -9.26982e-20)
(-0.0103006 0.00869722 2.98897e-19)
(-0.0231442 0.0203464 -4.87819e-20)
(-0.0290155 0.0280035 3.58704e-19)
(-0.0286396 0.032789 1.6592e-19)
(-0.0226293 0.0355972 1.32533e-20)
(-0.0115102 0.0371332 7.2363e-20)
(0.00427161 0.0379454 1.74432e-20)
(0.0243384 0.0384612 2.94438e-19)
(0.0483648 0.039016 9.47592e-20)
(0.0760603 0.0398749 -1.26937e-20)
(0.107154 0.0412488 2.54678e-20)
(0.141384 0.0433066 9.79293e-20)
(0.178483 0.046185 8.16622e-20)
(0.21818 0.0499953 1.74586e-19)
(0.260193 0.0548294 -1.98911e-19)
(0.304234 0.0607641 6.00651e-20)
(0.350017 0.0678652 1.81908e-20)
(0.397268 0.07619 8.89384e-20)
(0.44574 0.0857883 2.41392e-19)
(0.495238 0.0966995 -1.57265e-19)
(0.54564 0.108939 1.36663e-20)
(0.596921 0.122487 -2.24342e-19)
(0.649283 0.137403 2.13197e-19)
(0.703178 0.153872 -2.08121e-19)
(0.75374 0.167737 1.9105e-20)
(-0.0104059 0.00828004 -2.49402e-19)
(-0.0225676 0.0190448 1.9057e-19)
(-0.0269125 0.0259805 -3.10061e-19)
(-0.0242951 0.0302241 2.67481e-20)
(-0.0154111 0.0326896 2.17912e-19)
(-0.000846193 0.0340972 -3.62822e-19)
(0.0189022 0.0349997 2.8758e-19)
(0.0434095 0.0358231 -4.55989e-19)
(0.0723022 0.0368972 9.08406e-20)
(0.105237 0.0384768 1.9382e-20)
(0.141883 0.0407578 1.52879e-19)
(0.181907 0.0438887 -5.079e-19)
(0.224967 0.0479791 8.76862e-20)
(0.270706 0.0531055 9.28198e-20)
(0.318752 0.0593159 -5.56484e-20)
(0.368725 0.066633 -3.4511e-19)
(0.420244 0.0750558 1.62466e-19)
(0.472941 0.0845598 3.04343e-19)
(0.526474 0.0950948 -3.21546e-19)
(0.580544 0.106579 2.33539e-19)
(0.634908 0.118887 -3.03849e-19)
(0.689375 0.131829 2.21135e-19)
(0.743853 0.145241 -6.21738e-20)
(0.798416 0.159304 3.5581e-19)
(0.848907 0.171811 -4.09398e-19)
(-0.0103858 0.00779105 3.57515e-20)
(-0.021537 0.0175623 2.81584e-20)
(-0.0239628 0.0237258 6.89982e-20)
(-0.0186611 0.0274252 2.45856e-19)
(-0.0064199 0.0295889 -7.66342e-21)
(0.0121057 0.0309475 5.49026e-20)
(0.0363561 0.0320538 2.44036e-19)
(0.0658447 0.0333273 9.8395e-20)
(0.100131 0.0350858 -3.23725e-20)
(0.138796 0.0375666 2.75616e-19)
(0.181421 0.0409418 -3.1362e-19)
(0.227575 0.0453292 4.8101e-19)
(0.276805 0.0508 -1.90772e-19)
(0.328638 0.0573843 3.46129e-19)
(0.382579 0.0650756 -1.16851e-19)
(0.438126 0.0738335 4.26187e-20)
(0.494776 0.0835864 5.16499e-20)
(0.552044 0.0942315 -1.0003e-19)
(0.609475 0.105635 8.36867e-20)
(0.666654 0.117628 5.38804e-20)
(0.723221 0.130001 7.46519e-20)
(0.778858 0.142494 1.59341e-19)
(0.833299 0.15485 -1.2989e-20)
(0.886426 0.167241 -7.30835e-20)
(0.935139 0.178962 2.24378e-19)
(-0.0102149 0.00723041 -2.09022e-19)
(-0.0199772 0.0159093 2.20839e-20)
(-0.0200425 0.0212708 -3.96829e-19)
(-0.0115679 0.024451 -9.4744e-20)
(0.0045547 0.0263852 -1.77163e-19)
(0.0275882 0.0278089 -3.80077e-20)
(0.0568946 0.029269 -1.89492e-19)
(0.091905 0.0311715 -1.13112e-19)
(0.132087 0.0338141 1.49725e-19)
(0.176916 0.0374071 -2.49789e-19)
(0.225852 0.0420878 -6.93483e-20)
(0.278332 0.0479312 2.69826e-21)
(0.333761 0.0549578 -4.68271e-19)
(0.391515 0.0631397 1.99046e-19)
(0.450954 0.0724063 -2.90619e-19)
(0.511433 0.0826485 -9.08975e-21)
(0.572319 0.0937237 5.75018e-20)
(0.63301 0.105459 -9.31619e-20)
(0.692948 0.117654 -8.17671e-20)
(0.751633 0.130084 4.11805e-20)
(0.808633 0.142499 4.63137e-20)
(0.863573 0.154621 -2.99779e-19)
(0.916129 0.166178 1.71169e-19)
(0.966127 0.177307 8.76058e-20)
(1.01152 0.18837 2.53211e-20)
(-0.00986464 0.00659899 2.14007e-19)
(-0.0178057 0.0141002 -2.28284e-19)
(-0.0150196 0.0186539 3.19874e-19)
(-0.0028399 0.0213705 4.96138e-20)
(0.0177231 0.0231822 -1.52323e-20)
(0.0458335 0.0248222 -1.07328e-19)
(0.0807531 0.0268232 1.61378e-20)
(0.121804 0.0295683 1.62868e-19)
(0.168328 0.0333246 -2.24555e-19)
(0.219661 0.0382629 2.35653e-19)
(0.275107 0.0444721 -2.48518e-20)
(0.333931 0.0519704 1.09666e-20)
(0.395365 0.0607141 3.06185e-19)
(0.458614 0.0706056 4.10314e-19)
(0.522876 0.0815019 -1.60505e-19)
(0.587363 0.0932221 2.8556e-19)
(0.651324 0.105556 1.45515e-19)
(0.714063 0.11827 -8.87904e-20)
(0.774961 0.131117 2.82801e-19)
(0.833488 0.143841 -1.02015e-20)
(0.889204 0.156181 -2.73297e-19)
(0.941761 0.167878 2.89775e-19)
(0.990878 0.178681 4.26767e-20)
(1.03643 0.188696 -1.8152e-19)
(1.07728 0.198983 5.69188e-20)
(-0.00930261 0.00589897 -2.98039e-19)
(-0.0149336 0.0121542 3.11268e-19)
(-0.00875693 0.0159219 -1.97472e-19)
(0.00769915 0.0182643 -6.16835e-20)
(0.0332878 0.0200974 -1.37696e-19)
(0.0670519 0.0221422 2.43317e-19)
(0.108125 0.0249066 -1.41163e-19)
(0.155685 0.0287385 -6.46133e-20)
(0.208913 0.0338598 -1.8489e-19)
(0.266961 0.0403865 4.79451e-21)
(0.328938 0.0483428 -7.2245e-20)
(0.393909 0.0576741 3.51624e-20)
(0.460906 0.0682584 -3.70048e-19)
(0.528953 0.079918 1.05414e-19)
(0.59709 0.0924316 -1.27372e-19)
(0.664406 0.105547 -1.02883e-19)
(0.730064 0.118994 3.17681e-20)
(0.793329 0.132493 -1.50686e-19)
(0.85358 0.14577 -6.53431e-20)
(0.910324 0.15856 1.87246e-19)
(0.963193 0.17062 8.01821e-20)
(1.01194 0.181726 -3.40305e-19)
(1.05641 0.191681 2.51543e-19)
(1.09659 0.200582 -4.7763e-20)
(1.13207 0.209864 -9.96418e-20)
(-0.00849355 0.00513455 -1.08839e-19)
(-0.0112674 0.0100965 -5.81908e-20)
(-0.00111513 0.0131312 -1.16724e-20)
(0.0202206 0.015225 8.48452e-20)
(0.0514341 0.0172614 9.22833e-20)
(0.091419 0.0199364 8.0331e-20)
(0.139145 0.0237184 9.97692e-20)
(0.193606 0.028904 1.52206e-19)
(0.253776 0.0356523 2.32415e-19)
(0.318584 0.0440054 2.29785e-19)
(0.386907 0.0539042 1.21231e-19)
(0.457584 0.0652043 -3.25241e-20)
(0.52944 0.0776925 8.17507e-21)
(0.601323 0.0911032 -1.11851e-20)
(0.672145 0.105136 9.59493e-20)
(0.740912 0.119475 -2.58989e-20)
(0.806762 0.133801 2.85812e-19)