/*--------------------------------*- C++ -*----------------------------------*\
  =========                 |
  \\      /  F ield         | OpenFOAM: The Open Source CFD Toolbox
   \\    /   O peration     | Website:  https://openfoam.org
    \\  /    A nd           | Version:  6.0
     \\/     M anipulation  |
\*---------------------------------------------------------------------------*/
FoamFile
{
    version     2.0;
    format      ascii;
    class       volScalarField;
    location    "55";
    object      p;
}
// * * * * * * * * * * * * * * * * * * * * * * * * * * * * * * * * * * * * * //

dimensions      [0 2 -2 0 0 0 0];

internalField   nonuniform List<scalar> 
8000
(
-0.252397
-0.253269
-0.253842
-0.254256
-0.254597
-0.254878
-0.25511
-0.255306
-0.255474
-0.255619
-0.255747
-0.255863
-0.255972
-0.256076
-0.256182
-0.256296
-0.256422
-0.256515
-0.25655
-0.256997
-0.252065
-0.252952
-0.253531
-0.253945
-0.254282
-0.254554
-0.254775
-0.254955
-0.255103
-0.255226
-0.255328
-0.255415
-0.25549
-0.255558
-0.255624
-0.255695
-0.255775
-0.255818
-0.255799
-0.25619
-0.251832
-0.252735
-0.253319
-0.25373
-0.254057
-0.254317
-0.254519
-0.254677
-0.2548
-0.254892
-0.254961
-0.255011
-0.255046
-0.25507
-0.255089
-0.255111
-0.255138
-0.255125
-0.255047
-0.255379
-0.251705
-0.252625
-0.253211
-0.253614
-0.253929
-0.254169
-0.254348
-0.254478
-0.254567
-0.254623
-0.254651
-0.254657
-0.254643
-0.254617
-0.254581
-0.254546
-0.254515
-0.254441
-0.254298
-0.25457
-0.251691
-0.252627
-0.253213
-0.253606
-0.253902
-0.254118
-0.254267
-0.254362
-0.254412
-0.254424
-0.254404
-0.254356
-0.254287
-0.2542
-0.254102
-0.254003
-0.253906
-0.253767
-0.253552
-0.253764
-0.2518
-0.252749
-0.253332
-0.25371
-0.253984
-0.25417
-0.254283
-0.254336
-0.254339
-0.254299
-0.254222
-0.254114
-0.253979
-0.253824
-0.253654
-0.253481
-0.253311
-0.253098
-0.252806
-0.252957
-0.25204
-0.253001
-0.253577
-0.253935
-0.25418
-0.25433
-0.2544
-0.254405
-0.254354
-0.254255
-0.254112
-0.253934
-0.253724
-0.253489
-0.253236
-0.252979
-0.252726
-0.252429
-0.252052
-0.252141
-0.252423
-0.253391
-0.253955
-0.254288
-0.254499
-0.254606
-0.254627
-0.254577
-0.254464
-0.254297
-0.254081
-0.253822
-0.253525
-0.253199
-0.25285
-0.252496
-0.252145
-0.251753
-0.25128
-0.251304
-0.252959
-0.253928
-0.254475
-0.254777
-0.254947
-0.255005
-0.254971
-0.254858
-0.254678
-0.254435
-0.254136
-0.253786
-0.253392
-0.252959
-0.2525
-0.252031
-0.251566
-0.25106
-0.250475
-0.250431
-0.253662
-0.254624
-0.255145
-0.255409
-0.255531
-0.255534
-0.255438
-0.255258
-0.255003
-0.254678
-0.254289
-0.253839
-0.253334
-0.252781
-0.252192
-0.251588
-0.250987
-0.250343
-0.249622
-0.249499
-0.254543
-0.255486
-0.255974
-0.256191
-0.256258
-0.2562
-0.256037
-0.255784
-0.255449
-0.255038
-0.254551
-0.253993
-0.253366
-0.252678
-0.251941
-0.251177
-0.250409
-0.249596
-0.248704
-0.248484
-0.255616
-0.256526
-0.256967
-0.257129
-0.257132
-0.257006
-0.256771
-0.256441
-0.256025
-0.255523
-0.254936
-0.254263
-0.253506
-0.252669
-0.251762
-0.250811
-0.249843
-0.248815
-0.247701
-0.247352
-0.256892
-0.257751
-0.258133
-0.258228
-0.258159
-0.257957
-0.257644
-0.257235
-0.256733
-0.256141
-0.255452
-0.254663
-0.25377
-0.252773
-0.251679
-0.250512
-0.249302
-0.248004
-0.246596
-0.246063
-0.25838
-0.259168
-0.259475
-0.25949
-0.259338
-0.259052
-0.258655
-0.258161
-0.257575
-0.256891
-0.256102
-0.255199
-0.254169
-0.253007
-0.251711
-0.250301
-0.248806
-0.247172
-0.245373
-0.24457
-0.26009
-0.260783
-0.260999
-0.260918
-0.260669
-0.260287
-0.259797
-0.259214
-0.258539
-0.257765
-0.256879
-0.255863
-0.254701
-0.253373
-0.251869
-0.250196
-0.248376
-0.246335
-0.244022
-0.242817
-0.262028
-0.262603
-0.262706
-0.262512
-0.262147
-0.261654
-0.26106
-0.260378
-0.259609
-0.258742
-0.257759
-0.256637
-0.255348
-0.253861
-0.252149
-0.250205
-0.24803
-0.24552
-0.242558
-0.240764
-0.264203
-0.264635
-0.2646
-0.264271
-0.26377
-0.263147
-0.26243
-0.261635
-0.26076
-0.259793
-0.258711
-0.257484
-0.256075
-0.254441
-0.252537
-0.25033
-0.247801
-0.244799
-0.241082
-0.238455
-0.266623
-0.266885
-0.266689
-0.266197
-0.265535
-0.264756
-0.263894
-0.262965
-0.261968
-0.260888
-0.2597
-0.258368
-0.256848
-0.255084
-0.253011
-0.250569
-0.247706
-0.244216
-0.239638
-0.235783
-0.269303
-0.269367
-0.26898
-0.268297
-0.267443
-0.26648
-0.265446
-0.264358
-0.263218
-0.262009
-0.260707
-0.259275
-0.257664
-0.255813
-0.25364
-0.251045
-0.247914
-0.243894
-0.238119
-0.232242
-0.272261
-0.272099
-0.27149
-0.270584
-0.269505
-0.268326
-0.267089
-0.265816
-0.26451
-0.263159
-0.261743
-0.260234
-0.258598
-0.256796
-0.254776
-0.252475
-0.249782
-0.246237
-0.240614
-0.234125
-0.275526
-0.275106
-0.274242
-0.273078
-0.271741
-0.270312
-0.268844
-0.267359
-0.265868
-0.264364
-0.262838
-0.261283
-0.259701
-0.258115
-0.256592
-0.255283
-0.254467
-0.254592
-0.25729
-0.269543
-0.279136
-0.27842
-0.277265
-0.275809
-0.27418
-0.272472
-0.270744
-0.269027
-0.267333
-0.265667
-0.264032
-0.262441
-0.260927
-0.259564
-0.258483
-0.257922
-0.258268
-0.260091
-0.264636
-0.276622
-0.283135
-0.282084
-0.2806
-0.278818
-0.276866
-0.274852
-0.272842
-0.270875
-0.268968
-0.267135
-0.265391
-0.263766
-0.262316
-0.261141
-0.260397
-0.260327
-0.261278
-0.263691
-0.268194
-0.277419
-0.287578
-0.286143
-0.284292
-0.282151
-0.279848
-0.277506
-0.2752
-0.272971
-0.270844
-0.268839
-0.26698
-0.265307
-0.263886
-0.26282
-0.262255
-0.262393
-0.263479
-0.265782
-0.269571
-0.276059
-0.292523
-0.29065
-0.288392
-0.285862
-0.283186
-0.280499
-0.277883
-0.275383
-0.273029
-0.270841
-0.268847
-0.267087
-0.265624
-0.264547
-0.26397
-0.264029
-0.264868
-0.266605
-0.269334
-0.273328
-0.298028
-0.295658
-0.292953
-0.290007
-0.286938
-0.283892
-0.280956
-0.278176
-0.275579
-0.273183
-0.271012
-0.2691
-0.267495
-0.266262
-0.265476
-0.265213
-0.265538
-0.266474
-0.268041
-0.27002
-0.304149
-0.301217
-0.298026
-0.294641
-0.291162
-0.287745
-0.284477
-0.281399
-0.27853
-0.275883
-0.27347
-0.271312
-0.26944
-0.267894
-0.266715
-0.265937
-0.265574
-0.265608
-0.266029
-0.266438
-0.310935
-0.307374
-0.30366
-0.299815
-0.295912
-0.29211
-0.288491
-0.285084
-0.281897
-0.278928
-0.276179
-0.273657
-0.271376
-0.269359
-0.267625
-0.266186
-0.265035
-0.264145
-0.2635
-0.262709
-0.318421
-0.314166
-0.309895
-0.305573
-0.301231
-0.297025
-0.293023
-0.289237
-0.285659
-0.282273
-0.279069
-0.276043
-0.273205
-0.270567
-0.268142
-0.265936
-0.263943
-0.262147
-0.260529
-0.258787
-0.326628
-0.321616
-0.316761
-0.311945
-0.307147
-0.302506
-0.298072
-0.293834
-0.289764
-0.285837
-0.282035
-0.278357
-0.274814
-0.271421
-0.268197
-0.265155
-0.2623
-0.259628
-0.257122
-0.254584
-0.335556
-0.329734
-0.324271
-0.318948
-0.313668
-0.308547
-0.303607
-0.298813
-0.294122
-0.289505
-0.284951
-0.28047
-0.276086
-0.271829
-0.26773
-0.263813
-0.260094
-0.256582
-0.253258
-0.250007
-0.345183
-0.338506
-0.332419
-0.326574
-0.320775
-0.315106
-0.309559
-0.304075
-0.298607
-0.293136
-0.287672
-0.282247
-0.276909
-0.271707
-0.266687
-0.261882
-0.257316
-0.253002
-0.248916
-0.245001
-0.355457
-0.347896
-0.341175
-0.334785
-0.328415
-0.322105
-0.315816
-0.309481
-0.303062
-0.296569
-0.290045
-0.283558
-0.277182
-0.270987
-0.265027
-0.259344
-0.253958
-0.248883
-0.244084
-0.239539
-0.366296
-0.357835
-0.350475
-0.343511
-0.336494
-0.329418
-0.322226
-0.314856
-0.307305
-0.299628
-0.291919
-0.284281
-0.276817
-0.269609
-0.262719
-0.256182
-0.250016
-0.244225
-0.238757
-0.233619
-0.377581
-0.368223
-0.360221
-0.352639
-0.344875
-0.33688
-0.328597
-0.319999
-0.31114
-0.302141
-0.293149
-0.284307
-0.275736
-0.267526
-0.259733
-0.252384
-0.245485
-0.239024
-0.232936
-0.227244
-0.389153
-0.37892
-0.370274
-0.362013
-0.353373
-0.344279
-0.334705
-0.324687
-0.314366
-0.303937
-0.293603
-0.283538
-0.273873
-0.264694
-0.256043
-0.247933
-0.240353
-0.233276
-0.226615
-0.220419
-0.400817
-0.389747
-0.380451
-0.371429
-0.361758
-0.351369
-0.340299
-0.32869
-0.316784
-0.304857
-0.29316
-0.281887
-0.271167
-0.261069
-0.251619
-0.242806
-0.234603
-0.226967
-0.219785
-0.21314
-0.412334
-0.400483
-0.390523
-0.380637
-0.369763
-0.357872
-0.345119
-0.331777
-0.318204
-0.304753
-0.291711
-0.279275
-0.267558
-0.256609
-0.246425
-0.236975
-0.228212
-0.220074
-0.212428
-0.205394
-0.423429
-0.410866
-0.400222
-0.38935
-0.377085
-0.363495
-0.348897
-0.333723
-0.318449
-0.303492
-0.289155
-0.275625
-0.26299
-0.251265
-0.240422
-0.230404
-0.221148
-0.212571
-0.204518
-0.19716
-0.433793
-0.420599
-0.40924
-0.397245
-0.383402
-0.367938
-0.351376
-0.334321
-0.317359
-0.300951
-0.285401
-0.270867
-0.257402
-0.244988
-0.233565
-0.223054
-0.213375
-0.204424
-0.196026
-0.188412
-0.443088
-0.429354
-0.41724
-0.403977
-0.388383
-0.370906
-0.35231
-0.333378
-0.314787
-0.297021
-0.280362
-0.26493
-0.250736
-0.237726
-0.225809
-0.214884
-0.204853
-0.195596
-0.186919
-0.179118
-0.450957
-0.436778
-0.423863
-0.409191
-0.391698
-0.372118
-0.351476
-0.330723
-0.310605
-0.291602
-0.273959
-0.257748
-0.242935
-0.229427
-0.217105
-0.205848
-0.195544
-0.186052
-0.177162
-0.169246
-0.457032
-0.442508
-0.428741
-0.412533
-0.393033
-0.371315
-0.348674
-0.326207
-0.304699
-0.284605
-0.26612
-0.24926
-0.233943
-0.220041
-0.207409
-0.195908
-0.18541
-0.175756
-0.166725
-0.158767
-0.460948
-0.446177
-0.431513
-0.413665
-0.3921
-0.368269
-0.343731
-0.319701
-0.296972
-0.275954
-0.256779
-0.239406
-0.223708
-0.209522
-0.19668
-0.185024
-0.174417
-0.164678
-0.15558
-0.147655
-0.462348
-0.44743
-0.431829
-0.412274
-0.388641
-0.362785
-0.336505
-0.3111
-0.287342
-0.265582
-0.24588
-0.228138
-0.212186
-0.19783
-0.18488
-0.173165
-0.162536
-0.152792
-0.143705
-0.135889
-0.4609
-0.44593
-0.42937
-0.408082
-0.38244
-0.354704
-0.326883
-0.30032
-0.275747
-0.253435
-0.233375
-0.215414
-0.19934
-0.184932
-0.171981
-0.160306
-0.149746
-0.140081
-0.131084
-0.123456
-0.456303
-0.441376
-0.423854
-0.400857
-0.373323
-0.343904
-0.31478
-0.287303
-0.262137
-0.239473
-0.21923
-0.201202
-0.185141
-0.170803
-0.157963
-0.14643
-0.136032
-0.126534
-0.117711
-0.110347
-0.448299
-0.433507
-0.415047
-0.390415
-0.361161
-0.330303
-0.300143
-0.27201
-0.246484
-0.223671
-0.203422
-0.185481
-0.169572
-0.155428
-0.142813
-0.131526
-0.121389
-0.112147
-0.103586
-0.096565
-0.436678
-0.422113
-0.402768
-0.376627
-0.345876
-0.313858
-0.28295
-0.254427
-0.228778
-0.20602
-0.18594
-0.168244
-0.152625
-0.138802
-0.126528
-0.115597
-0.10582
-0.0969283
-0.0887192
-0.0821185
-0.421287
-0.407041
-0.386895
-0.359417
-0.327435
-0.294562
-0.263206
-0.234565
-0.209027
-0.186525
-0.166791
-0.149493
-0.134304
-0.12093
-0.109116
-0.0986502
-0.0893366
-0.0808944
-0.073132
-0.0670316
-0.402037
-0.3882
-0.367368
-0.338769
-0.305852
-0.272448
-0.240949
-0.212458
-0.18726
-0.165211
-0.145993
-0.129245
-0.114623
-0.101825
-0.0905886
-0.0807012
-0.0719583
-0.0640691
-0.0568556
-0.0513425
-0.378897
-0.365564
-0.344189
-0.314718
-0.281188
-0.247583
-0.216244
-0.188164
-0.163526
-0.142118
-0.12358
-0.107527
-0.0936056
-0.0815063
-0.0709661
-0.0617691
-0.0537056
-0.0464786
-0.0399251
-0.0350937
-0.351906
-0.33917
-0.317421
-0.287356
-0.253548
-0.220071
-0.189186
-0.161764
-0.137895
-0.117305
-0.0995988
-0.0843784
-0.0712833
-0.0600016
-0.0502706
-0.0418739
-0.0345988
-0.0281479
-0.0223724
-0.0183095
-0.321165
-0.30912
-0.287186
-0.256824
-0.223076
-0.190052
-0.159899
-0.133368
-0.11046
-0.0908479
-0.0741138
-0.05985
-0.0476952
-0.0373398
-0.0285243
-0.0210339
-0.0146567
-0.00910119
-0.00422144
-0.000983059
-0.286837
-0.275578
-0.253665
-0.223312
-0.18996
-0.157696
-0.128536
-0.103109
-0.0813346
-0.0628445
-0.0472039
-0.0340034
-0.0228863
-0.0135505
-0.00574405
0.000741434
0.00611173
0.0106484
0.0145182
0.0168864
-0.249143
-0.238763
-0.217087
-0.187052
-0.154421
-0.123208
-0.0952798
-0.0711479
-0.0506596
-0.0334142
-0.0189685
-0.00691693
0.00308695
0.0113319
0.0180553
0.0234536
0.0277205
0.0311209
0.0338435
0.035178
-0.20836
-0.198949
-0.17773
-0.148318
-0.116716
-0.0868219
-0.0603411
-0.0376722
-0.0186003
-0.00270053
0.0104722
0.0213134
0.0301533
0.0372595
0.0428472
0.0470968
0.050186
0.0523253
0.0536415
0.0535085
-0.164812
-0.156456
-0.135912
-0.107417
-0.0771334
-0.0488005
-0.0239584
-0.0028977
0.0146506
0.0291287
0.0409785
0.0505812
0.0582437
0.064202
0.0686376
0.0717098
0.0735562
0.0742167
0.0735942
0.0714321
-0.118862
-0.111642
-0.0919885
-0.0646879
-0.0359864
-0.00943347
0.0136015
0.0329295
0.0488671
0.0618707
0.0723792
0.0807609
0.0873008
0.0922012
0.0956068
0.0976454
0.0983427
0.0973504
0.0942196
0.0899546
-0.0709104
-0.0649008
-0.0463394
-0.0204913
0.00638841
0.0309674
0.0520468
0.0695325
0.0837828
0.0952678
0.104428
0.11163
0.117156
0.121209
0.123943
0.125505
0.125798
0.12399
0.11939
0.114744
-0.0213845
-0.0166485
0.000632374
0.0247941
0.04964
0.0720751
0.0910686
0.106612
0.1191
0.129011
0.136788
0.142803
0.147351
0.150672
0.153006
0.154624
0.155501
0.154676
0.151888
0.15528
0.029278
0.0326837
0.0485126
0.0707804
0.093409
0.113556
0.130352
0.143866
0.154518
0.162791
0.169123
0.173877
0.177351
0.179795
0.181466
0.182622
0.183253
0.182897
0.18243
0.187951
0.0806197
0.08265
0.0968774
0.117074
0.137334
0.155075
0.169584
0.180996
0.18975
0.196327
0.201155
0.204589
0.206922
0.2084
0.209271
0.209751
0.209826
0.209209
0.20879
0.21322
0.13218
0.132802
0.145303
0.163285
0.181057
0.196305
0.20846
0.217715
0.224521
0.22935
0.232614
0.234655
0.23575
0.236137
0.236042
0.235658
0.234983
0.233799
0.23284
0.235798
0.183498
0.182693
0.193369
0.209026
0.224228
0.236926
0.246688
0.253754
0.258581
0.261628
0.263289
0.263886
0.263679
0.262886
0.261708
0.260312
0.258681
0.256623
0.254814
0.256398
0.234122
0.231882
0.240663
0.253923
0.266509
0.276632
0.283988
0.288858
0.291698
0.29295
0.292988
0.292114
0.290566
0.288545
0.286228
0.283755
0.281095
0.278077
0.275345
0.275611
0.283607
0.279942
0.286786
0.297614
0.307571
0.315129
0.320096
0.322788
0.323656
0.323124
0.321544
0.319195
0.316298
0.31303
0.30955
0.305974
0.30226
0.298265
0.294604
0.293624
0.331524
0.326456
0.331354
0.33975
0.347105
0.352136
0.354761
0.355319
0.354255
0.351972
0.348801
0.345
0.340769
0.336268
0.331637
0.326969
0.322221
0.317274
0.312707
0.310542
0.377463
0.371031
0.374001
0.380001
0.384813
0.38739
0.387744
0.386237
0.383303
0.379325
0.374613
0.369403
0.363877
0.358178
0.352428
0.346705
0.340964
0.335108
0.329675
0.326386
0.421034
0.413289
0.414379
0.418055
0.420417
0.42064
0.418822
0.415342
0.410621
0.405025
0.398839
0.392282
0.385518
0.378675
0.371859
0.365133
0.358453
0.351744
0.34549
0.34114
0.461869
0.452879
0.452164
0.453619
0.453655
0.451652
0.447784
0.442444
0.43604
0.428918
0.421344
0.413519
0.40559
0.397671
0.389852
0.382187
0.374634
0.367134
0.36011
0.354765
0.499627
0.489473
0.487054
0.486423
0.484284
0.480207
0.474434
0.467366
0.4594
0.450862
0.442001
0.432999
0.42399
0.415074
0.406328
0.397796
0.389442
0.381218
0.373482
0.367213
0.533996
0.522771
0.518774
0.516217
0.512081
0.506105
0.498591
0.489945
0.480553
0.470723
0.460687
0.450612
0.440619
0.430795
0.421207
0.411889
0.402809
0.393931
0.385545
0.378432
0.564692
0.552501
0.547073
0.542778
0.536844
0.529165
0.52009
0.510031
0.499363
0.488377
0.47729
0.466256
0.455383
0.444748
0.434408
0.42439
0.414668
0.405209
0.39624
0.388368
0.591461
0.578422
0.571732
0.565904
0.558395
0.549223
0.538784
0.527491
0.515707
0.503712
0.491708
0.479836
0.468196
0.456855
0.44586
0.435232
0.424952
0.41499
0.405511
0.396973
0.614086
0.600325
0.592556
0.585424
0.576575
0.566139
0.554544
0.542206
0.529479
0.51663
0.503849
0.49127
0.478981
0.467043
0.455495
0.444354
0.433604
0.423218
0.413305
0.404201
0.632381
0.618032
0.609383
0.601191
0.591255
0.579793
0.567262
0.554078
0.540587
0.527046
0.513638
0.500485
0.487672
0.475251
0.463255
0.451699
0.44057
0.429842
0.419577
0.410013
0.646196
0.631401
0.622084
0.613086
0.602326
0.590088
0.576848
0.563024
0.548956
0.534892
0.521009
0.507423
0.494213
0.481428
0.469094
0.457225
0.44581
0.434824
0.424292
0.414378
0.655419
0.640324
0.630558
0.62102
0.609708
0.59695
0.583236
0.568984
0.554529
0.540116
0.525914
0.512039
0.498564
0.485534
0.472975
0.460896
0.44929
0.438131
0.42742
0.417272
0.659973
0.644729
0.634739
0.624933
0.613346
0.60033
0.586381
0.571916
0.557268
0.542681
0.528322
0.514302
0.500695
0.487544
0.474872
0.46269
0.450989
0.439744
0.428943
0.418678
0.659821
0.644578
0.634594
0.624794
0.613214
0.600204
0.586259
0.571798
0.557154
0.542571
0.528214
0.514198
0.500593
0.487444
0.474774
0.462594
0.450895
0.439651
0.428851
0.418589
0.654962
0.639873
0.630122
0.620604
0.60931
0.59657
0.582871
0.568631
0.554188
0.539784
0.525592
0.511725
0.498257
0.485234
0.472681
0.460608
0.449007
0.437853
0.427145
0.417005
0.645434
0.630648
0.621357
0.612391
0.601663
0.589453
0.576238
0.562436
0.548386
0.53434
0.520471
0.506899
0.493702
0.480927
0.468604
0.456744
0.445338
0.434359
0.423834
0.413933
0.631311
0.616976
0.608364
0.600217
0.590325
0.578903
0.566407
0.553253
0.539789
0.526272
0.512884
0.499751
0.486955
0.47455
0.462568
0.451026
0.439909
0.429191
0.418937
0.40939
0.612707
0.598963
0.591241
0.584168
0.575377
0.564992
0.553442
0.541144
0.528452
0.515633
0.50288
0.490325
0.478058
0.46614
0.45461
0.443487
0.432752
0.42238
0.41248
0.4034
0.58977
0.576753
0.570119
0.564364
0.556925
0.547817
0.537433
0.526189
0.514448
0.502491
0.49052
0.478679
0.467066
0.45575
0.444778
0.434172
0.423911
0.413965
0.404502
0.395993
0.562685
0.55052
0.545161
0.540951
0.535101
0.527497
0.518489
0.508488
0.497871
0.48693
0.475883
0.464885
0.454045
0.44344
0.433127
0.423135
0.413436
0.403997
0.395047
0.387209
0.53167
0.520475
0.516557
0.5141
0.510062
0.504174
0.496737
0.488159
0.478826
0.469049
0.459059
0.449026
0.439071
0.429282
0.419726
0.410438
0.401386
0.392531
0.384167
0.377093
0.496978
0.486857
0.484529
0.484012
0.481985
0.478008
0.472324
0.465334
0.457436
0.448958
0.44015
0.431196
0.422231
0.413355
0.404647
0.396149
0.387826
0.379628
0.371918
0.365693
0.458891
0.449939
0.449326
0.450911
0.451072
0.449183
0.445416
0.440162
0.433836
0.426782
0.419269
0.411498
0.403619
0.395745
0.387968
0.380341
0.372824
0.365354
0.35836
0.353063
0.417723
0.410021
0.411224
0.415044
0.417547
0.417897
0.416191
0.412809
0.408174
0.402654
0.396536
0.39004
0.383332
0.37654
0.36977
0.363088
0.356448
0.349773
0.343551
0.339255
0.373814
0.367429
0.370524
0.376683
0.381652
0.38437
0.384848
0.383449
0.38061
0.376717
0.37208
0.366938
0.361473
0.355831
0.350133
0.344459
0.338762
0.332944
0.327547
0.324318
0.327532
0.322515
0.327551
0.336121
0.343647
0.348834
0.351595
0.352272
0.351313
0.349123
0.346035
0.342309
0.338146
0.333707
0.329133
0.32452
0.319821
0.314915
0.310389
0.308288
0.279266
0.275656
0.28265
0.293668
0.303813
0.31154
0.316656
0.319479
0.320462
0.320032
0.318542
0.316275
0.313451
0.310252
0.306835
0.303317
0.299658
0.29571
0.292092
0.291182
0.229428
0.227248
0.23619
0.249656
0.262445
0.272753
0.280271
0.285283
0.288248
0.28961
0.289747
0.288961
0.287494
0.285546
0.283298
0.280889
0.278288
0.275322
0.272637
0.272979
0.178447
0.177705
0.188554
0.204433
0.219855
0.232753
0.24269
0.249909
0.254871
0.258037
0.259804
0.260497
0.260377
0.259663
0.258559
0.257231
0.255665
0.253663
0.251905
0.253572
0.126767
0.127457
0.140142
0.158361
0.17637
0.191833
0.204177
0.213597
0.220548
0.225504
0.228883
0.231026
0.232214
0.232685
0.232668
0.232358
0.231753
0.230628
0.229724
0.232772
0.0748419
0.0769439
0.091367
0.111817
0.13233
0.150302
0.165013
0.176602
0.185511
0.192225
0.197174
0.200717
0.203147
0.204715
0.205669
0.206227
0.206373
0.205817
0.205455
0.209983
0.0231333
0.0266143
0.0426497
0.0651864
0.088085
0.108477
0.12549
0.139193
0.15001
0.158428
0.164888
0.169758
0.173335
0.175872
0.177628
0.178864
0.179569
0.179274
0.178863
0.184489
-0.027897
-0.0230823
-0.00558487
0.018861
0.0439935
0.0666901
0.0859137
0.101658
0.114321
0.124386
0.132299
0.138434
0.14309
0.146508
0.14893
0.150628
0.15158
0.150814
0.148063
0.151541
-0.0777902
-0.0716988
-0.0529115
-0.0267646
0.000418175
0.0252744
0.046598
0.0642962
0.078732
0.0903794
0.0996825
0.107011
0.11265
0.116801
0.119623
0.121262
0.121623
0.119865
0.11529
0.110654
-0.126107
-0.118803
-0.0989147
-0.0713012
-0.0422806
-0.0154346
0.00785864
0.0274115
0.0435449
0.0567198
0.0673786
0.0758927
0.0825492
0.0875518
0.0910462
0.0931616
0.0939242
0.0929835
0.0898831
0.0856245
-0.172417
-0.163975
-0.14319
-0.114369
-0.0837503
-0.0551087
-0.0299942
-0.00869618
0.0090586
0.0237172
0.0357252
0.045467
0.053252
0.0593179
0.0638474
0.0670012
0.0689186
0.0696405
0.0690651
0.0669234
-0.216321
-0.206821
-0.185354
-0.155605
-0.123654
-0.093435
-0.0666674
-0.0437486
-0.0244591
-0.00836931
0.00497014
0.0159582
0.0249276
0.0321482
0.0378368
0.0421753
0.0453431
0.0475536
0.0489312
0.0488349
-0.25745
-0.24698
-0.225052
-0.19467
-0.161675
-0.130123
-0.101893
-0.0774985
-0.0567814
-0.039336
-0.0247146
-0.0125081
-0.00236697
0.00599974
0.0128314
0.0183259
0.0226791
0.0261589
0.0289528
0.0303363
-0.295479
-0.28413
-0.261962
-0.231253
-0.197524
-0.164907
-0.135431
-0.109729
-0.0877145
-0.0690143
-0.053189
-0.0398252
-0.028563
-0.0190979
-0.0111759
-0.00458688
0.000877026
0.00550048
0.00944924
0.0118748
-0.330129
-0.317994
-0.295805
-0.26508
-0.230944
-0.197552
-0.16707
-0.140252
-0.117092
-0.0972602
-0.0803322
-0.0658967
-0.053589
-0.0430969
-0.0341586
-0.0265578
-0.02008
-0.0144309
-0.0094653
-0.00616294
-0.361176
-0.34835
-0.326347
-0.295916
-0.26171
-0.227854
-0.196627
-0.168905
-0.144774
-0.123953
-0.106045
-0.0906443
-0.0773887
-0.065963
-0.0561024
-0.0475885
-0.0402065
-0.0336558
-0.0277881
-0.0236548
-0.388454
-0.375031
-0.353406
-0.323568
-0.289634
-0.255638
-0.223946
-0.195554
-0.170644
-0.148996
-0.130246
-0.114006
-0.0999168
-0.0876667
-0.0769904
-0.06767
-0.0594938
-0.0521615
-0.0455102
-0.0406021
-0.411859
-0.397933
-0.376857
-0.347893
-0.314568
-0.280765
-0.248902
-0.220089
-0.194608
-0.172312
-0.152874
-0.13593
-0.121134
-0.108179
-0.0968006
-0.0867843
-0.0779234
-0.069924
-0.0626078
-0.0570122
-0.43135
-0.417016
-0.396634
-0.368798
-0.336406
-0.303129
-0.2714
-0.242428
-0.216598
-0.19384
-0.173879
-0.156379
-0.141009
-0.127472
-0.115511
-0.104911
-0.0954751
-0.0869185
-0.0790493
-0.0728613
-0.446955
-0.432302
-0.412732
-0.386243
-0.355086
-0.32266
-0.291373
-0.262511
-0.236562
-0.21354
-0.193227
-0.175322
-0.159518
-0.145527
-0.133101
-0.122032
-0.112128
-0.103119
-0.0947993
-0.0881065
-0.458762
-0.443883
-0.425209
-0.400243
-0.37059
-0.339325
-0.308781
-0.280302
-0.254471
-0.231388
-0.210899
-0.192746
-0.176646
-0.16233
-0.149559
-0.138131
-0.127863
-0.1185
-0.109826
-0.102709
-0.466921
-0.451907
-0.434185
-0.41087
-0.382949
-0.353127
-0.323619
-0.295792
-0.270315
-0.247376
-0.22689
-0.208644
-0.192389
-0.177875
-0.164876
-0.153198
-0.142668
-0.133047
-0.124109
-0.116646
-0.471641
-0.456584
-0.439839
-0.418253
-0.39224
-0.364109
-0.335906
-0.308993
-0.284105
-0.261514
-0.241208
-0.223026
-0.206755
-0.192169
-0.179056
-0.167234
-0.15654
-0.14675
-0.137636
-0.129906
-0.473179
-0.458173
-0.442402
-0.422572
-0.398588
-0.372351
-0.345696
-0.319941
-0.295869
-0.273827
-0.253876
-0.235912
-0.21976
-0.205224
-0.192111
-0.180248
-0.169483
-0.159614
-0.150408
-0.142489
-0.471835
-0.456976
-0.442157
-0.424059
-0.402167
-0.377972
-0.35307
-0.328695
-0.305652
-0.284354
-0.264928
-0.247332
-0.231434
-0.217067
-0.204061
-0.192256
-0.181512
-0.171647
-0.162431
-0.154401
-0.467943
-0.453328
-0.439422
-0.422989
-0.40319
-0.38113
-0.35814
-0.335337
-0.31352
-0.293147
-0.274412
-0.257328
-0.241811
-0.227729
-0.214934
-0.203283
-0.192649
-0.182869
-0.173721
-0.165657
-0.461858
-0.447587
-0.434546
-0.419676
-0.401914
-0.382019
-0.361047
-0.339971
-0.319551
-0.300273
-0.282383
-0.265951
-0.250939
-0.237251
-0.224767
-0.213362
-0.202922
-0.193305
-0.184298
-0.176276
-0.453951
-0.440121
-0.427894
-0.414459
-0.398626
-0.380865
-0.361963
-0.342724
-0.323843
-0.305809
-0.288907
-0.273256
-0.258866
-0.245679
-0.233601
-0.222529
-0.212365
-0.202984
-0.194192
-0.186285
-0.444588
-0.431296
-0.419834
-0.407691
-0.393642
-0.377926
-0.361084
-0.343745
-0.326507
-0.309841
-0.294055
-0.279307
-0.26565
-0.253062
-0.241481
-0.230827
-0.221015
-0.211943
-0.203433
-0.195714
-0.434131
-0.421468
-0.410729
-0.399731
-0.38729
-0.373482
-0.358636
-0.343202
-0.327671
-0.312469
-0.297907
-0.28417
-0.271347
-0.259453
-0.248456
-0.238298
-0.228913
-0.220218
-0.212055
-0.204594
-0.422921
-0.410967
-0.40092
-0.390926
-0.379905
-0.367829
-0.35486
-0.341287
-0.32748
-0.313802
-0.300547
-0.287913
-0.276017
-0.264903
-0.25457
-0.244984
-0.236097
-0.227844
-0.220091
-0.212957
-0.411269
-0.400096
-0.390717
-0.381602
-0.371811
-0.361268
-0.350017
-0.338208
-0.326094
-0.31396
-0.302066
-0.290608
-0.279717
-0.269463
-0.25987
-0.250926
-0.242604
-0.234857
-0.227572
-0.220831
-0.399456
-0.38912
-0.380394
-0.372053
-0.363312
-0.354095
-0.344372
-0.334187
-0.323687
-0.313076
-0.302564
-0.29233
-0.282506
-0.27318
-0.264395
-0.25616
-0.248465
-0.241283
-0.234524
-0.228236
-0.387723
-0.378263
-0.370184
-0.36253
-0.354683
-0.346589
-0.338189
-0.329455
-0.320449
-0.311296
-0.302149
-0.293156
-0.284442
-0.276098
-0.268179
-0.260714
-0.253706
-0.247146
-0.240965
-0.235186
-0.37627
-0.367709
-0.360273
-0.353243
-0.346156
-0.339002
-0.331719
-0.324244
-0.316577
-0.308777
-0.300939
-0.293174
-0.285585
-0.278258
-0.271254
-0.26461
-0.258344
-0.252459
-0.246906
-0.241685
-0.365258
-0.3576
-0.350805
-0.344352
-0.337921
-0.331547
-0.32519
-0.318778
-0.312274
-0.305688
-0.299067
-0.292478
-0.286
-0.279703
-0.273645
-0.267866
-0.26239
-0.257229
-0.25235
-0.24773
-0.35481
-0.348042
-0.341882
-0.335974
-0.330119
-0.324397
-0.318798
-0.313262
-0.307738
-0.302205
-0.296674
-0.291177
-0.285763
-0.280482
-0.275381
-0.270495
-0.265849
-0.261457
-0.257298
-0.253315
-0.345011
-0.339105
-0.333569
-0.328184
-0.322848
-0.31768
-0.312701
-0.307873
-0.303151
-0.298502
-0.293913
-0.289392
-0.284961
-0.28065
-0.276492
-0.272511
-0.268725
-0.265144
-0.261752
-0.258441
-0.335917
-0.330828
-0.3259
-0.32102
-0.316164
-0.311478
-0.307012
-0.302755
-0.298675
-0.294743
-0.290937
-0.287252
-0.283694
-0.280278
-0.27702
-0.273933
-0.271025
-0.268292
-0.265724
-0.263129
-0.327555
-0.323227
-0.318885
-0.314493
-0.310091
-0.305838
-0.301807
-0.298012
-0.29444
-0.291073
-0.287894
-0.284894
-0.282076
-0.279446
-0.277015
-0.274788
-0.272758
-0.270911
-0.269232
-0.267433
-0.319927
-0.316299
-0.312511
-0.308592
-0.304623
-0.30077
-0.297122
-0.293711
-0.290543
-0.287613
-0.284916
-0.28245
-0.280224
-0.27825
-0.276542
-0.275106
-0.273936
-0.273004
-0.272299
-0.271437
-0.313017
-0.31002
-0.306752
-0.303288
-0.299736
-0.296263
-0.292964
-0.289884
-0.287044
-0.284451
-0.282112
-0.28004
-0.278256
-0.276788
-0.275668
-0.274923
-0.274561
-0.274561
-0.274918
-0.275232
-0.306793
-0.304357
-0.301572
-0.29854
-0.29539
-0.292282
-0.289311
-0.286531
-0.283968
-0.28164
-0.279563
-0.277764
-0.276278
-0.275157
-0.274465
-0.274265
-0.274612
-0.275525
-0.277023
-0.278868
-0.30121
-0.299267
-0.296923
-0.2943
-0.291536
-0.288781
-0.286126
-0.283626
-0.28131
-0.2792
-0.277317
-0.275692
-0.274377
-0.273446
-0.272997
-0.273152
-0.274039
-0.275765
-0.27842
-0.28223
-0.296214
-0.294699
-0.292754
-0.290514
-0.288118
-0.285703
-0.283355
-0.281125
-0.279041
-0.277122
-0.275388
-0.27387
-0.272622
-0.271732
-0.27133
-0.271596
-0.272758
-0.275067
-0.278779
-0.28503
-0.291744
-0.290598
-0.289013
-0.287126
-0.285076
-0.282986
-0.280935
-0.278968
-0.277108
-0.275368
-0.273761
-0.272308
-0.271053
-0.270081
-0.269531
-0.269623
-0.270679
-0.273118
-0.277535
-0.286474
-0.287739
-0.286911
-0.285645
-0.28408
-0.282352
-0.280568
-0.2788
-0.277086
-0.275444
-0.273879
-0.272391
-0.270985
-0.269685
-0.268548
-0.267687
-0.267315
-0.267791
-0.269656
-0.274088
-0.285732
-0.284139
-0.283583
-0.2826
-0.281324
-0.279888
-0.278387
-0.276883
-0.275408
-0.273975
-0.272579
-0.27121
-0.269852
-0.268496
-0.267154
-0.265871
-0.264774
-0.264112
-0.264295
-0.266848
-0.278709
-0.280889
-0.280568
-0.27983
-0.278812
-0.277638
-0.276391
-0.275126
-0.27387
-0.27263
-0.271396
-0.270144
-0.26884
-0.267442
-0.265896
-0.264135
-0.262075
-0.25958
-0.256169
-0.250555
-0.243971
-0.277941
-0.277822
-0.277298
-0.276504
-0.275559
-0.274537
-0.273483
-0.272422
-0.271357
-0.270273
-0.269142
-0.267921
-0.266554
-0.264967
-0.263059
-0.260715
-0.257795
-0.253928
-0.248198
-0.242332
-0.275256
-0.275311
-0.274971
-0.27437
-0.273624
-0.272795
-0.271924
-0.271032
-0.27012
-0.269173
-0.268162
-0.267048
-0.265776
-0.264282
-0.262487
-0.260315
-0.257703
-0.254431
-0.250006
-0.24635
-0.272803
-0.273006
-0.272823
-0.272387
-0.27181
-0.271147
-0.270432
-0.269685
-0.268905
-0.26808
-0.267183
-0.26618
-0.265028
-0.263675
-0.262066
-0.260163
-0.257941
-0.255248
-0.251821
-0.249587
-0.270557
-0.270886
-0.270835
-0.27054
-0.270107
-0.269585
-0.269004
-0.268381
-0.267717
-0.267
-0.266211
-0.265322
-0.264299
-0.263108
-0.261717
-0.260113
-0.258306
-0.256193
-0.253646
-0.252403
-0.268499
-0.268933
-0.268993
-0.268817
-0.268507
-0.268106
-0.267641
-0.267127
-0.266568
-0.265954
-0.26527
-0.264498
-0.263615
-0.262601
-0.261443
-0.260151
-0.258753
-0.257187
-0.25539
-0.254848
-0.266613
-0.267132
-0.267286
-0.26721
-0.267006
-0.26671
-0.266348
-0.265934
-0.265473
-0.264959
-0.264383
-0.263733
-0.262997
-0.262167
-0.261243
-0.26025
-0.259225
-0.258126
-0.256914
-0.256848
-0.264885
-0.265473
-0.265704
-0.265714
-0.265602
-0.265399
-0.26513
-0.264809
-0.264441
-0.264027
-0.26356
-0.263035
-0.262449
-0.261802
-0.261102
-0.260381
-0.259677
-0.258955
-0.25818
-0.258424
-0.263303
-0.263944
-0.264239
-0.264322
-0.26429
-0.264171
-0.263987
-0.263753
-0.263477
-0.26316
-0.262802
-0.262403
-0.261962
-0.261487
-0.260992
-0.260506
-0.260068
-0.259639
-0.259182
-0.259624
-0.261854
-0.262536
-0.262883
-0.263029
-0.263067
-0.263023
-0.262918
-0.262766
-0.262577
-0.262354
-0.262101
-0.26182
-0.261515
-0.261196
-0.260878
-0.260589
-0.26036
-0.260153
-0.259923
-0.26049
-0.260527
-0.26124
-0.26163
-0.26183
-0.261929
-0.261952
-0.261918
-0.261842
-0.261733
-0.261599
-0.261442
-0.261269
-0.261085
-0.2609
-0.260729
-0.260597
-0.260531
-0.260486
-0.260415
-0.261057
-0.259311
-0.260047
-0.260473
-0.260718
-0.260871
-0.260953
-0.260982
-0.260974
-0.260938