/*--------------------------------*- C++ -*----------------------------------*\
  =========                 |
  \\      /  F ield         | OpenFOAM: The Open Source CFD Toolbox
   \\    /   O peration     | Website:  https://openfoam.org
    \\  /    A nd           | Version:  6.0
     \\/     M anipulation  |
\*---------------------------------------------------------------------------*/
FoamFile
{
    version     2.0;
    format      ascii;
    class       volVectorField;
    location    "55";
    object      U;
}
// * * * * * * * * * * * * * * * * * * * * * * * * * * * * * * * * * * * * * //

dimensions      [0 1 -1 0 0 0 0];

internalField   nonuniform List<vector> 
8000
(
(-0.000353759 -0.00212626 -3.33156e-21)
(-0.00211407 -0.00501561 1.78001e-20)
(-0.00546306 -0.00696196 -2.1645e-20)
(-0.00960067 -0.0082285 1.64792e-20)
(-0.0140991 -0.0090181 8.02268e-21)
(-0.0187104 -0.009487 -2.40826e-20)
(-0.0232569 -0.00975201 -2.12945e-21)
(-0.0276235 -0.00989829 -7.57853e-22)
(-0.0317472 -0.009986 -1.2487e-20)
(-0.0356033 -0.0100558 -6.76372e-21)
(-0.0391956 -0.0101333 5.04733e-21)
(-0.0425485 -0.0102333 1.91917e-20)
(-0.0457007 -0.0103623 -1.44381e-21)
(-0.0486998 -0.0105209 2.04647e-21)
(-0.0515988 -0.010706 -1.93069e-20)
(-0.0544591 -0.0109116 1.18909e-20)
(-0.0573425 -0.0111299 -1.70359e-20)
(-0.0602431 -0.0113502 2.5765e-20)
(-0.0630659 -0.0115591 -2.84659e-23)
(-0.0662883 -0.0117528 5.54617e-21)
(-0.000337517 -0.00118017 1.10478e-20)
(-0.00211109 -0.00264791 -5.63987e-20)
(-0.00551194 -0.00359734 -3.89403e-20)
(-0.00971361 -0.00420332 -2.64522e-20)
(-0.0142749 -0.00459663 -3.40058e-20)
(-0.018941 -0.00487242 7.52373e-21)
(-0.0235298 -0.00509395 -3.92468e-20)
(-0.0279242 -0.00530031 -8.81019e-21)
(-0.0320599 -0.00551242 2.79921e-21)
(-0.0359121 -0.00573772 2.93603e-20)
(-0.0394845 -0.00597406 -3.19827e-20)
(-0.0428022 -0.00621295 4.44694e-20)
(-0.0459045 -0.00644223 -3.32806e-20)
(-0.04884 -0.00664809 -3.94505e-20)
(-0.051663 -0.00681671 -5.43495e-20)
(-0.0544358 -0.00693563 3.47193e-20)
(-0.0572219 -0.00699424 -1.1183e-20)
(-0.060017 -0.00698018 -4.08168e-20)
(-0.0627262 -0.00687735 3.86088e-20)
(-0.0658275 -0.00670255 -2.85717e-20)
(-0.000399492 -0.000214117 1.07718e-19)
(-0.00230538 -0.000241698 5.57993e-20)
(-0.00584371 -0.000190678 6.2736e-20)
(-0.0101651 -0.00014158 5.21114e-21)
(-0.0148189 -0.000149405 3.46655e-20)
(-0.0195465 -0.000246104 4.33448e-20)
(-0.0241651 -0.000440235 -7.8547e-20)
(-0.0285573 -0.000724224 -4.16306e-20)
(-0.0326601 -0.00107954 -5.41184e-20)
(-0.0364495 -0.00148029 5.78896e-20)
(-0.0399309 -0.00189632 -4.41719e-20)
(-0.0431307 -0.00229579 -5.67221e-20)
(-0.0460903 -0.00264747 -2.05843e-20)
(-0.0488605 -0.00292248 1.96139e-20)
(-0.0514981 -0.00309578 -5.44292e-21)
(-0.0540688 -0.00314775 7.90408e-21)
(-0.0566398 -0.0030645 9.09397e-20)
(-0.0592099 -0.00283146 -1.27586e-20)
(-0.0616849 -0.00242937 -9.2326e-20)
(-0.0645472 -0.00189589 1.21449e-19)
(-0.000542278 0.000768668 3.73447e-20)
(-0.00270161 0.0021925 -5.29662e-20)
(-0.00646277 0.00323988 -1.32817e-20)
(-0.0109582 0.00393117 2.47138e-20)
(-0.0157322 0.00429084 7.03246e-20)
(-0.0205268 0.00435205 1.54043e-19)
(-0.0251613 0.0041618 1.50465e-19)
(-0.0295212 0.00377458 1.24338e-20)
(-0.0335463 0.00324835 9.2217e-20)
(-0.0372153 0.00264224 1.41091e-19)
(-0.040536 0.00201456 -1.12767e-19)
(-0.0435375 0.00142088 1.66814e-19)
(-0.046264 0.000912248 -3.75854e-20)
(-0.0487695 0.000533721 9.5663e-21)
(-0.0511152 0.000322852 3.93528e-20)
(-0.0533714 0.000307834 5.22132e-20)
(-0.0556114 0.000507189 -8.21606e-20)
(-0.0578397 0.000938859 -6.84594e-20)
(-0.0599629 0.00162657 -1.21157e-19)
(-0.0624721 0.00251125 1.7606e-19)
(-0.000768387 0.00176455 -1.95299e-20)
(-0.00330361 0.00464317 -1.99807e-19)
(-0.00737152 0.00667533 -5.90854e-20)
(-0.0120926 0.00798914 -1.43999e-19)
(-0.0170114 0.00869214 5.43602e-20)
(-0.0218756 0.00888425 -8.58283e-20)
(-0.0265102 0.00866851 2.93832e-20)
(-0.0308066 0.0081461 -1.81648e-19)
(-0.0347093 0.00741396 9.57197e-20)
(-0.0382012 0.00656412 -1.14237e-19)
(-0.0412935 0.00568299 -1.01576e-19)
(-0.0440186 0.00485031 -1.13543e-19)
(-0.0464242 0.00413801 1.03086e-19)
(-0.0485686 0.00360888 -9.23478e-20)
(-0.0505181 0.00331509 1.28692e-19)
(-0.0523497 0.00329573 3.71377e-20)
(-0.0541449 0.00357623 9.18127e-20)
(-0.0559161 0.00418011 4.03089e-20)
(-0.0575723 0.00513784 -1.59303e-19)
(-0.0596186 0.00636861 2.5902e-19)
(-0.00108007 0.00276936 8.5788e-20)
(-0.00411378 0.00709759 6.71707e-21)
(-0.00856923 0.0100955 3.53595e-20)
(-0.0135628 0.0120061 1.23482e-19)
(-0.0186463 0.0130235 -1.90166e-20)
(-0.023578 0.0133155 2.0042e-19)
(-0.0281933 0.0130412 8.88138e-20)
(-0.0323925 0.0123476 7.4458e-21)
(-0.0361269 0.0113698 2.28426e-19)
(-0.0393852 0.0102317 7.47675e-20)
(-0.0421827 0.00904749 3.54113e-20)
(-0.0445554 0.00792134 1.12566e-19)
(-0.0465549 0.0069472 1.03079e-19)
(-0.0482442 0.00620763 1.87995e-19)
(-0.0496954 0.00577223 -1.68012e-19)
(-0.0509939 0.00569437 2.37083e-19)
(-0.0522316 0.00600993 2.81545e-21)
(-0.0534314 0.00675164 -3.02629e-19)
(-0.0545069 0.00796043 3.91751e-19)
(-0.0559839 0.00953395 1.62058e-19)
(-0.00147908 0.00377803 -5.05735e-20)
(-0.00513229 0.00954114 -9.16252e-20)
(-0.0100506 0.0134785 -1.90899e-19)
(-0.0153565 0.0159551 -5.6557e-21)
(-0.0206168 0.0172547 3.24573e-20)
(-0.0256069 0.0176139 -2.43771e-19)
(-0.0301773 0.017247 -1.808e-19)
(-0.0342405 0.0163457 -2.5894e-20)
(-0.0377576 0.015081 -2.28567e-19)
(-0.0407239 0.0136074 -1.58125e-19)
(-0.0431597 0.0120658 -4.60799e-20)
(-0.0451049 0.0105846 -1.48248e-19)
(-0.0466146 0.00928068 -2.44198e-21)
(-0.0477563 0.00825866 -1.96559e-19)
(-0.0486087 0.007609 8.26358e-20)
(-0.0492662 0.0074039 -9.42825e-20)
(-0.0498333 0.00769482 7.19258e-20)
(-0.0503466 0.00852925 -9.1813e-20)
(-0.0507272 0.00996454 -2.61446e-19)
(-0.0515309 0.0118781 -7.94033e-20)
(-0.00196627 0.00478422 -1.84684e-20)
(-0.00635604 0.0119565 -2.00738e-20)
(-0.0118041 0.0167995 1.59917e-19)
(-0.0174516 0.0198073 -2.60041e-19)
(-0.0228898 0.0213558 3.81709e-20)
(-0.0279183 0.0217505 -1.50082e-19)
(-0.0324081 0.0212597 7.10429e-20)
(-0.0362882 0.0201172 3.1884e-19)
(-0.0395318 0.0185276 -2.0501e-20)
(-0.0421424 0.0166735 -2.37599e-19)
(-0.0441462 0.0147202 4.33298e-20)
(-0.0455865 0.0128196 8.38941e-21)
(-0.0465216 0.0111117 -4.85067e-20)
(-0.047023 0.00972512 5.15475e-21)
(-0.0471753 0.00877505 4.26999e-19)
(-0.0470824 0.0083581 -6.10001e-20)
(-0.0468637 0.00854832 -1.18268e-19)
(-0.0465719 0.00941612 -2.11673e-19)
(-0.0461403 0.0110444 2.16086e-19)
(-0.046167 0.0132937 9.31614e-20)
(-0.00254109 0.0057798 9.3744e-20)
(-0.0077774 0.0143228 -1.22505e-19)
(-0.0138099 0.0200303 1.73253e-19)
(-0.0198139 0.0235312 1.74367e-19)
(-0.0254158 0.025296 1.60802e-19)
(-0.0304472 0.0256984 3.26096e-19)
(-0.0348058 0.0250586 2.10791e-19)
(-0.0384414 0.0236496 -4.52763e-19)
(-0.0413424 0.0217061 2.31423e-19)
(-0.0435228 0.0194349 1.81429e-19)
(-0.0450149 0.0170228 -2.48527e-21)
(-0.0458657 0.0146425 2.02734e-19)
(-0.0461359 0.0124564 1.57839e-19)
(-0.0458995 0.0106179 -8.60341e-20)
(-0.0452461 0.0092706 2.89772e-19)
(-0.0442888 0.0085417 -3.59211e-19)
(-0.0431629 0.00853669 1.43445e-19)
(-0.0419405 0.00936039 1.84286e-19)
(-0.0405719 0.011135 -4.30072e-20)
(-0.039714 0.0137111 3.69757e-19)
(-0.00320104 0.00675436 1.87846e-19)
(-0.00938286 0.0166147 9.71327e-21)
(-0.0160382 0.0231372 -6.75015e-20)
(-0.0223945 0.027091 -7.13952e-20)
(-0.0281253 0.0290418 -3.30234e-19)
(-0.0331027 0.0294307 4.66827e-20)
(-0.0372577 0.0286273 1.32434e-19)
(-0.0405658 0.0269399 -6.35839e-20)
(-0.0430344 0.024629 5.24391e-20)
(-0.0446901 0.021921 -1.40309e-20)
(-0.0455729 0.0190193 -6.85105e-20)
(-0.0457339 0.0161134 6.48961e-20)
(-0.0452351 0.0133849 -2.82111e-19)
(-0.0441518 0.0110113 2.70308e-19)
(-0.0425765 0.00916639 -2.33757e-19)
(-0.0406306 0.00801398 7.23115e-20)
(-0.0384651 0.00770107 1.63752e-19)
(-0.0361737 0.00838191 -3.43742e-20)
(-0.0337293 0.010238 -1.13315e-19)
(-0.0318705 0.0131224 -7.6971e-20)
(-0.00394097 0.00769497 -2.33755e-19)
(-0.0111518 0.0188014 -1.54679e-20)
(-0.0184474 0.0260808 4.92395e-20)
(-0.0251278 0.0304449 1.26717e-19)
(-0.0309263 0.032555 -1.7893e-19)
(-0.0357644 0.0329181 -1.56128e-19)
(-0.0396133 0.0319502 3.64299e-19)
(-0.0424797 0.029991 -2.01296e-19)
(-0.044394 0.0273221 -1.29775e-19)
(-0.0453988 0.0241837 -1.86012e-19)
(-0.0455441 0.0207899 1.23059e-19)
(-0.0448858 0.0173407 -3.54449e-21)
(-0.0434876 0.0140311 -2.2962e-19)
(-0.0414247 0.0110588 -3.74854e-19)
(-0.0387905 0.00862671 2.85465e-19)
(-0.0357122 0.0069386 -2.30647e-19)
(-0.0323557 0.00619274 3.26933e-19)
(-0.0288369 0.00661074 -9.17801e-20)
(-0.025156 0.00846093 1.91331e-19)
(-0.0221622 0.0116203 -6.52292e-19)
(-0.00475258 0.00858607 -4.72827e-19)
(-0.0130551 0.0208469 3.10251e-19)
(-0.0209828 0.0288146 4.2242e-20)
(-0.0279296 0.0335438 8.15406e-21)
(-0.0337019 0.03579 -1.91509e-19)
(-0.0382791 0.0361249 2.8162e-19)
(-0.0416798 0.0350077 3.07579e-20)
(-0.0439474 0.0328062 -5.77402e-20)
(-0.04514 0.0298179 -1.85083e-19)
(-0.0453203 0.0262914 2.0007e-19)
(-0.0445512 0.0224446 5.06675e-19)
(-0.0428967 0.0184797 -1.12002e-19)
(-0.0404234 0.014597 2.52472e-19)
(-0.0372067 0.0110055 -2.97861e-19)
(-0.0333393 0.00793143 -2.85057e-19)
(-0.0289516 0.0056167 1.71564e-19)
(-0.0242222 0.00431662 2.82455e-19)
(-0.0192877 0.0043384 -9.14409e-19)
(-0.0141762 0.00607266 1.07845e-19)
(-0.00988497 0.0094529 1.46137e-19)
(-0.00562403 0.00940986 3.5001e-19)
(-0.0150552 0.0227103 1.15058e-19)
(-0.0235759 0.0312856 6.00556e-19)
(-0.030697 0.0363299 3.0916e-20)
(-0.0363097 0.0386918 -6.6819e-20)
(-0.0404602 0.0390051 -3.18171e-19)
(-0.0432205 0.0377706 2.70607e-19)
(-0.0446763 0.0353808 4.85188e-19)
(-0.0449181 0.0321457 3.23098e-19)
(-0.0440332 0.0283173 2.33013e-19)
(-0.0421029 0.0241105 2.00624e-19)
(-0.0392032 0.0197217 -3.60413e-19)
(-0.0354081 0.0153451 -1.12747e-19)
(-0.0307958 0.0111889 -8.28147e-20)
(-0.0254595 0.00748916 8.87597e-19)
(-0.0195315 0.00451558 -3.47908e-21)
(-0.0132004 0.00257701 -2.20402e-19)
(-0.00661851 0.00207859 -6.86447e-20)
(0.000163272 0.00357357 6.31378e-19)
(0.00595837 0.00709768 8.29609e-20)
(-0.00653984 0.0101471 -1.72932e-20)
(-0.017105 0.0243468 -3.31358e-19)
(-0.026145 0.0334345 -4.93206e-19)
(-0.0333081 0.0387374 -1.37293e-19)
(-0.0385824 0.0411941 7.57823e-20)
(-0.0420876 0.0414996 1.63514e-20)
(-0.0439548 0.040194 4.32767e-19)
(-0.0443163 0.0376933 -5.36755e-19)
(-0.0432998 0.0343182 -2.04125e-19)
(-0.041022 0.0303215 -4.1105e-19)
(-0.037588 0.0259109 -3.49814e-19)
(-0.033093 0.0212695 -3.0934e-19)
(-0.0276258 0.0165749 7.73204e-20)
(-0.021275 0.0120191 -1.00192e-19)
(-0.0141396 0.00782838 4.28621e-19)
(-0.00635664 0.0042782 -2.35286e-19)
(0.0018754 0.0017114 -7.34572e-19)
(0.0103946 0.000626996 -1.47169e-19)
(0.0191456 0.00177645 3.6136e-19)
(0.026714 0.00535343 -3.15374e-19)
(-0.00748124 0.0107783 -5.58624e-20)
(-0.0191493 0.0257102 4.05173e-19)
(-0.0285952 0.0351981 -5.16998e-19)
(-0.0356236 0.0406933 1.19504e-19)
(-0.0403291 0.0432204 -2.46277e-19)
(-0.0429105 0.043534 5.48555e-19)
(-0.0435617 0.0422131 -3.91995e-19)
(-0.0424651 0.0396973 4.48337e-19)
(-0.0397884 0.0363186 -4.25004e-19)
(-0.0356823 0.0323313 1.81146e-19)
(-0.030282 0.0279358 -8.80022e-20)
(-0.0237101 0.0232996 -2.20459e-19)
(-0.0160812 0.0185766 -2.71944e-19)
(-0.00750704 0.0139291 2.70821e-19)
(0.00189405 0.00955133 -2.26476e-19)
(0.0119691 0.00569239 -4.94044e-19)
(0.0225024 0.00268876 5.13923e-19)
(0.0333256 0.00109895 -6.54234e-19)
(0.0444137 0.00188396 2.93681e-19)
(0.0541085 0.00544529 7.47979e-21)
(-0.0084268 0.0112853 -5.06217e-19)
(-0.0211254 0.0267555 -5.47066e-19)
(-0.03082 0.036513 6.30377e-20)
(-0.0374876 0.0421214 -5.28041e-19)
(-0.041337 0.0446868 -4.70741e-20)
(-0.0426496 0.0450217 -3.88472e-19)
(-0.0416842 0.0437442 -8.91118e-20)
(-0.0386743 0.0413186 -2.60357e-19)
(-0.0338292 0.0380919 2.29682e-21)
(-0.0273364 0.0343243 -1.13838e-19)
(-0.0193663 0.0302142 7.92964e-21)
(-0.0100777 0.0259179 -3.27446e-19)
(0.000375643 0.0215677 3.60304e-19)
(0.0118408 0.0172916 -5.10888e-19)
(0.0241579 0.0132363 1.80579e-19)
(0.0371342 0.00959127 6.57591e-21)
(0.0505133 0.00663003 -2.86798e-19)
(0.0641083 0.00489436 7.09785e-19)
(0.0779736 0.00550982 -1.69534e-19)
(0.0902514 0.0090934 -1.1013e-19)
(-0.00935332 0.0116525 5.68465e-19)
(-0.022964 0.0274418 3.07159e-19)
(-0.0327019 0.0373195 2.85845e-19)
(-0.0387284 0.0429475 4.27031e-20)
(-0.0413721 0.0455088 3.86727e-19)
(-0.040999 0.0458713 5.57442e-19)
(-0.0379328 0.044692 4.56465e-19)
(-0.0324571 0.0424624 4.07331e-20)
(-0.0248223 0.0395489 3.3399e-19)
(-0.0152532 0.0362252 5.15837e-19)
(-0.0039585 0.0326978 -1.33692e-19)
(0.00885957 0.0291245 2.2433e-19)
(0.0229958 0.0256295 1.8115e-19)
(0.0382355 0.0223178 1.84141e-19)
(0.0543481 0.0192921 1.08513e-18)
(0.0710642 0.0166673 -4.06533e-19)
(0.0880412 0.0146004 -2.47191e-20)
(0.105024 0.0135017 4.69288e-19)
(0.122186 0.01453 -2.65755e-19)
(0.137632 0.0184416 1.3193e-19)
(-0.0102367 0.0118684 -4.59945e-19)
(-0.0245903 0.0277362 2.96085e-20)
(-0.0341119 0.0375668 -3.68744e-19)
(-0.0391569 0.0431077 -4.80457e-20)
(-0.0401777 0.0456116 2.70021e-19)
(-0.037625 0.0459996 -8.03693e-19)
(-0.0318861 0.0449662 -4.54757e-22)
(-0.0232925 0.0430315 3.73882e-19)
(-0.0121334 0.0405858 3.51154e-19)
(0.00133066 0.0379243 -1.54617e-19)
(0.0168521 0.0352741 5.08458e-20)
(0.0341815 0.0328122 1.18027e-19)
(0.0530525 0.030679 -5.59879e-20)
(0.0731702 0.0289872 -6.24974e-19)
(0.094202 0.0278299 1.58287e-19)
(0.115753 0.0272772 4.33881e-19)
(0.137321 0.0273647 -6.17742e-19)
(0.158476 0.0282752 3.01166e-19)
(0.179488 0.0310275 8.06445e-20)
(0.19878 0.0363316 4.0949e-19)
(-0.0110521 0.011926 -6.81246e-20)
(-0.0259233 0.0276154 -3.22698e-19)
(-0.034908 0.0372189 1.48471e-19)
(-0.0385638 0.0425563 6.21612e-22)
(-0.0374698 0.0449434 -6.47608e-19)
(-0.0321613 0.0453499 1.01034e-19)
(-0.0230873 0.0445052 -1.91712e-20)
(-0.0106249 0.0429572 1.30692e-19)
(0.00490068 0.0411218 -5.98032e-19)
(0.0231952 0.039321 -4.16977e-20)
(0.043974 0.0378119 -1.40071e-19)
(0.0669411 0.036808 1.24917e-19)
(0.0917682 0.0364935 4.20412e-19)
(0.118073 0.037035 -6.50632e-20)
(0.145397 0.0385877 2.50793e-20)
(0.173165 0.0412825 1.64903e-19)
(0.2006 0.0451723 -4.06897e-20)
(0.226863 0.0503596 3.31208e-19)
(0.252031 0.0578487 -1.92806e-19)
(0.275221 0.0679423 -3.04499e-19)
(-0.0117742 0.0118226 6.30573e-20)
(-0.0268746 0.0270677 1.52731e-20)
(-0.0349319 0.0362585 1.2947e-19)
(-0.0367142 0.0412751 3.17197e-19)
(-0.0329307 0.0434886 1.77998e-19)
(-0.0242018 0.0439117 1.85863e-20)
(-0.0110381 0.0433035 -2.12545e-19)
(0.0061384 0.0422355 5.45021e-20)
(0.0269659 0.041146 2.86289e-19)
(0.0511164 0.0403809 -4.8498e-19)
(0.0782699 0.0402268 3.65703e-19)
(0.108092 0.0409357 -2.75325e-19)
(0.140211 0.0427469 2.33279e-19)
(0.174196 0.0459094 -5.02657e-19)
(0.209527 0.0507054 5.52189e-19)
(0.245532 0.0574626 -5.9029e-19)
(0.281246 0.0665431 -1.53171e-19)
(0.315355 0.0785831 4.80605e-19)
(0.346785 0.0954718 -1.62401e-19)
(0.372824 0.116673 7.28139e-20)
(-0.0123757 0.0115596 -4.78175e-20)
(-0.0273454 0.0260933 4.51106e-19)
(-0.0340042 0.0346906 -1.89036e-21)
(-0.0333416 0.0392803 -2.80044e-19)
(-0.0262021 0.0412802 -1.88449e-19)
(-0.0132944 0.0417389 3.45138e-19)
(0.00480572 0.0414377 -1.36717e-19)
(0.0276245 0.0409634 -1.72324e-20)
(0.0547543 0.0407662 2.84569e-19)
(0.0858212 0.0412029 -3.5357e-19)
(0.120459 0.0425695 3.85947e-20)
(0.15829 0.0451292 -4.58791e-19)
(0.198913 0.0491374 2.41249e-19)
(0.241902 0.0548717 -6.89855e-19)
(0.286816 0.0626713 1.09797e-18)
(0.333211 0.0729887 -2.01008e-19)
(0.380678 0.0865145 2.09853e-19)
(0.42916 0.104735 -5.45165e-19)
(0.479194 0.130584 2.53385e-21)
(0.523346 0.159062 6.27786e-19)
(-0.0128255 0.0111404 -1.45033e-19)
(-0.0272227 0.0247032 1.25382e-19)
(-0.0319195 0.0325438 -4.61218e-19)
(-0.0281427 0.0366271 6.82137e-19)
(-0.0168805 0.0384079 -4.92479e-19)
(0.00106195 0.0389626 2.53687e-20)
(0.0250315 0.0390849 -5.30848e-19)
(0.0544841 0.0393653 3.79455e-19)
(0.0889395 0.0402504 -5.42713e-20)
(0.127943 0.0420849 -3.34469e-19)
(0.171039 0.0451425 -1.94851e-19)
(0.217753 0.0496483 2.06012e-19)
(0.267596 0.0557983 1.35993e-19)
(0.320071 0.0637765 -6.01642e-19)
(0.374707 0.0737715 2.17289e-19)
(0.431104 0.0859873 -3.20107e-19)
(0.488999 0.100667 3.85284e-20)
(0.54851 0.118306 -2.72902e-19)
(0.610567 0.140036 1.14238e-19)
(0.667976 0.161205 -4.12886e-19)
(-0.0130859 0.0105695 4.12813e-19)
(-0.0263747 0.0229183 -2.49845e-19)
(-0.0284426 0.0298708 2.05899e-19)
(-0.0207749 0.0334115 -2.59963e-19)
(-0.00451814 0.0350214 4.35938e-19)
(0.01941 0.0357947 -7.7168e-21)
(0.0502547 0.0365264 -5.30424e-20)
(0.0873661 0.037796 -3.92998e-20)
(0.130143 0.0400276 2.41905e-19)
(0.17799 0.0435293 4.10951e-19)
(0.230287 0.0485195 -2.42714e-19)
(0.286381 0.055146 2.35685e-19)
(0.345593 0.0634986 4.30046e-19)
(0.407238 0.0736183 -3.01627e-19)
(0.470661 0.0855003 -6.12255e-19)
(0.535282 0.0990879 1.11963e-18)
(0.600633 0.114253 -1.99945e-19)
(0.666456 0.130849 -6.52611e-20)
(0.733048 0.149216 7.05892e-19)
(0.795 0.167916 -1.47997e-19)
(-0.0131108 0.00985177 -6.72625e-19)
(-0.0246485 0.0207689 -4.47775e-19)
(-0.0233071 0.0267474 -1.71914e-19)
(-0.0108601 0.0297692 3.31574e-19)
(0.0113662 0.031327 -7.4833e-19)
(0.0423128 0.0325214 3.87378e-19)
(0.081082 0.0341337 4.90693e-20)
(0.126862 0.036714 4.95374e-20)
(0.178858 0.04064 -5.06824e-19)
(0.236249 0.0461539 -1.78876e-19)
(0.29816 0.0533861 -3.1499e-19)
(0.363662 0.0623723 3.04022e-19)
(0.431794 0.0730659 8.61164e-20)
(0.501596 0.0853468 1.66573e-20)
(0.572148 0.0990264 3.95874e-19)
(0.642616 0.113846 -4.00901e-19)
(0.712284 0.129462 -1.67572e-20)
(0.780577 0.145469 9.73631e-21)
(0.847245 0.16175 5.43317e-20)
(0.9091 0.179468 3.14834e-19)
(-0.0128434 0.00899246 2.14259e-19)
(-0.021868 0.0182942 5.51885e-19)
(-0.0162188 0.023272 4.42917e-19)
(0.00200588 0.0258728 -1.52602e-19)
(0.031266 0.0275821 5.305e-19)
(0.0703161 0.0294907 -4.46789e-20)
(0.118052 0.0323456 -6.29287e-20)
(0.173419 0.0366412 3.74873e-20)
(0.235334 0.0426773 5.12057e-19)
(0.302647 0.0505936 3.00639e-19)
(0.374127 0.0603946 8.77468e-20)
(0.448487 0.0719698 5.44954e-21)
(0.524422 0.085112 -5.81281e-19)
(0.600665 0.0995345 5.04944e-19)
(0.67604 0.114886 8.6697e-20)
(0.749509 0.130762 -1.42559e-19)
(0.820199 0.14671 -6.19769e-19)
(0.887424 0.162259 -5.28682e-20)
(0.950684 0.176977 2.45654e-19)
(1.0089 0.193766 -5.07179e-20)
(-0.0122153 0.007998 -5.44343e-19)
(-0.017836 0.0155445 2.27736e-19)
(-0.00686247 0.0195658 -1.1113e-18)
(0.0182359 0.0219298 4.54901e-19)
(0.055656 0.0240878 -3.62709e-19)
(0.103898 0.0270969 2.67351e-19)
(0.161563 0.0316399 -4.15033e-19)
(0.227245 0.0381186 3.81629e-20)
(0.299457 0.0467116 -2.13202e-20)
(0.376613 0.0574109 1.11354e-19)
(0.457041 0.0700525 1.60699e-19)
(0.539044 0.0843468 -3.03762e-19)
(0.620969 0.09991 1.60757e-19)
(0.701289 0.116295 1.47604e-19)
(0.778663 0.133019 6.37916e-19)
(0.85199 0.14959 -2.76929e-19)
(0.920423 0.165526 -1.84559e-19)
(0.983385 0.180396 3.1062e-19)
(1.04045 0.193644 1.66706e-19)
(1.09197 0.209021 -3.1232e-19)
(-0.0111473 0.00687819 4.77237e-19)
(-0.0123376 0.0125841 4.6016e-19)
(0.00508683 0.0157754 1.32557e-19)
(0.0382294 0.018181 5.58468e-19)
(0.0849542 0.0211808 2.74128e-19)
(0.143414 0.0257633 -4.94027e-19)
(0.211795 0.0325042 7.47833e-19)
(0.288212 0.0416612 -3.67895e-19)
(0.370655 0.0532367 3.66911e-19)
(0.457005 0.0670223 4.74372e-19)
(0.545106 0.0826433 -2.70999e-19)
(0.63286 0.099607 5.14745e-20)
(0.718344 0.117352 2.86779e-19)
(0.799898 0.135297 2.02018e-19)
(0.876192 0.152876 4.65492e-19)
(0.946263 0.169577 -1.86037e-19)
(1.0095 0.184956 -2.27373e-20)
(1.06564 0.198683 2.94549e-19)
(1.11459 0.210266 -6.32068e-20)
(1.15756 0.223612 3.52777e-22)
(-0.00955088 0.00564873 -2.4646e-19)
(-0.00514778 0.00949587 -9.05716e-19)
(0.019948 0.0120749 2.13172e-19)
(0.0623447 0.0148993 -1.62236e-19)
(0.11948 0.0192261 -3.742e-19)
(0.189034 0.0259255 -2.66812e-19)
(0.26864 0.035406 -1.64706e-19)
(0.355792 0.0477156 4.00149e-19)
(0.447849 0.0626158 -2.37546e-19)
(0.542113 0.0796448 -2.43032e-19)
(0.635961 0.0981856 -3.0722e-19)
(0.726997 0.117539 -5.07302e-20)
(0.813188 0.136992 -3.43807e-20)
(0.892949 0.155879 -7.09673e-19)
(0.965185 0.173623 3.44151e-19)
(1.02929 0.189762 -4.5256e-19)
(1.08507 0.203966 1.42417e-19)
(1.13273 0.216046 -1.08424e-18)
(1.17264 0.225706 3.26697e-19)
(1.20644 0.236548 4.14646e-19)
(-0.00733144 0.00433406 -6.18258e-20)
(0.00395893 0.00638592 4.42352e-19)
(0.0380157 0.00866953 2.83252e-20)
(0.09087 0.0123883 6.81688e-20)
(0.159412 0.0186078 -1.38554e-19)
(0.2407 0.0280112 -2.22579e-21)
(0.331654 0.0407625 -3.43924e-21)
(0.429024 0.0566212 -8.32581e-20)
(0.529476 0.075042 2.955e-19)
(0.629752 0.0952685 1.14239e-19)
(0.726883 0.116434 5.17881e-19)
(0.818365 0.137661 -1.4131e-19)
(0.902293 0.158144 9.85418e-20)
(0.977404 0.177211 -1.28166e-20)
(1.04307 0.194355 2.72792e-19)
(1.0992 0.209245 1.67e-19)
(1.14618 0.221718 4.02726e-19)
(1.1847 0.231755 -6.5068e-19)
(1.21561 0.239308 8.19148e-19)
(1.2407 0.247458 -2.59762e-19)
(-0.00439173 0.00296984 -5.77341e-19)
(0.0151974 0.0033875 -1.79925e-19)
(0.0595402 0.00579766 1.40815e-19)
(0.123993 0.0109792 8.87251e-20)
(0.204751 0.0197177 9.06368e-20)
(0.298078 0.0324195 9.19273e-20)
(0.400034 0.0489105 -2.29891e-19)
(0.506538 0.0685788 -9.49177e-20)
(0.613573 0.0905171 2.95369e-20)
(0.717451 0.11366 -2.8095e-19)
(0.815069 0.136921 -1.26908e-19)
(0.904085 0.15931 7.67394e-19)
(0.982996 0.180019 -1.97917e-19)
(1.05111 0.198464 -2.72798e-19)
(1.10842 0.214292 -1.29486e-19)
(1.15549 0.227364 8.96568e-20)
(1.19324 0.237716 1.09381e-19)
(1.22284 0.245507 -5.24436e-19)
(1.24552 0.250918 7.59019e-19)
(1.26308 0.256466 -6.58117e-19)
(-0.000636492 0.00160493 -6.55767e-20)
(0.0287586 0.000663522 1.88178e-20)
(0.0847052 0.00372983 -2.3779e-20)
(0.16177 0.0110238 3.48403e-19)
(0.255285 0.0229391 1.90262e-20)
(0.360546 0.0394961 1.27719e-19)
(0.472632 0.0600791 -2.65106e-19)
(0.586623 0.08363 -9.6167e-21)
(0.697939 0.108852 3.67714e-19)
(0.802691 0.134397 5.11425e-20)
(0.897942 0.159032 -3.19977e-19)
(0.981816 0.181757 -2.80098e-20)
(1.05347 0.201866 -2.62546e-19)
(1.11296 0.218957 2.61503e-19)
(1.16099 0.232899 3.63054e-19)
(1.19876 0.243775 -4.00197e-20)
(1.22767 0.251824 -4.87886e-20)
(1.24923 0.25736 1.48615e-19)
(1.26488 0.26074 -4.77992e-19)
(1.27637 0.263972 4.20813e-19)
(0.00402283 0.000302345 6.5561e-20)
(0.0447965 -0.00159342 -4.23717e-19)
(0.113608 0.00276467 1.13469e-19)
(0.204105 0.0128825 -3.51128e-19)
(0.310575 0.0286277 1.20658e-19)
(0.427194 0.0495089 -4.47792e-19)
(0.548012 0.0743686 1.80444e-19)
(0.667359 0.101653 -5.73627e-20)
(0.780331 0.129693 -2.29406e-21)
(0.883161 0.156932 5.85808e-20)
(0.973415 0.182103 -2.13604e-19)
(1.04997 0.204318 -3.04619e-19)
(1.11284 0.223078 -6.23703e-20)
(1.16289 0.238238 -2.79907e-20)
(1.20152 0.249919 -7.10586e-20)
(1.23046 0.258429 -2.31328e-20)
(1.25146 0.264182 -6.92654e-20)
(1.26619 0.267607 -6.00661e-20)
(1.27619 0.269171 -1.78618e-19)
(1.28305 0.270464 2.83226e-19)
(0.00966302 -0.000860635 1.58269e-19)
(0.063414 -0.00316373 -1.75656e-19)
(0.146238 0.00322047 3.77777e-19)
(0.250726 0.0169089 -1.62849e-19)
(0.369949 0.0370884 4.35088e-19)
(0.496862 0.0626257 6.07753e-21)
(0.624532 0.0917408 2.1814e-19)
(0.746764 0.122379 -5.82347e-20)
(0.858664 0.152567 2.43257e-19)
(0.956964 0.180666 1.75229e-20)
(1.04006 0.205509 5.78229e-19)
(1.10778 0.22644 -3.99058e-19)
(1.16109 0.243254 5.38351e-20)
(1.20162 0.256095 1.02572e-19)
(1.23138 0.265342 5.36072e-19)
(1.25243 0.271495 -1.92547e-19)
(1.26672 0.275096 -3.81651e-20)
(1.27595 0.276644 -2.01769e-19)
(1.28159 0.276656 -2.11208e-20)
(1.28507 0.276393 1.00892e-19)
(0.016344 -0.00179347 -7.61894e-20)
(0.08465 -0.00380633 2.19706e-19)
(0.182463 0.0054228 -2.24418e-19)
(0.301182 0.0234296 8.88202e-20)
(0.43252 0.0485539 -1.05694e-19)
(0.568196 0.0788997 3.88266e-19)
(0.700472 0.112024 -5.39046e-20)
(0.822962 0.145424 1.33003e-19)
(0.931192 0.176948 -7.82159e-20)
(1.02276 0.205025 -1.93285e-21)
(1.09713 0.228733 8.92376e-20)
(1.15523 0.247745 -6.89954e-20)
(1.19888 0.262195 1.78949e-19)
(1.2304 0.272523 -8.9183e-20)
(1.25221 0.279329 -3.91925e-19)
(1.26656 0.283261 3.89457e-19)
(1.27541 0.284933 -1.75293e-19)
(1.28038 0.284867 1.39892e-19)
(1.28279 0.283593 2.42314e-19)
(1.28389 0.282113 9.93327e-20)
(0.0241037 -0.0023943 1.89477e-19)
(0.108469 -0.00326679 -3.90302e-19)
(0.222018 0.00968923 7.47175e-20)
(0.354842 0.0327246 -5.41186e-20)
(0.49722 0.0631658 -2.17757e-19)
(0.639736 0.0982647 -1.70719e-19)
(0.774152 0.134933 -3.35104e-20)
(0.894323 0.170335 -3.03879e-19)
(0.996614 0.202309 -1.8362e-20)
(1.07979 0.229517 -5.63373e-20)
(1.14455 0.251401 -1.52836e-19)
(1.19284 0.268028 -3.3985e-20)
(1.2273 0.279879 -1.16806e-19)
(1.25071 0.287657 -1.94556e-19)
(1.26571 0.292136 1.98988e-19)
(1.27458 0.294052 2.72398e-20)
(1.27917 0.294044 5.42464e-20)
(1.28095 0.29262 -2.28601e-19)
(1.28105 0.290295 -5.86476e-21)
(1.2805 0.28787 -3.51479e-19)
(0.0329533 -0.00255289 2.08114e-19)
(0.134751 -0.00128763 1.38667e-19)
(0.264505 0.0163121 -2.23168e-19)
(0.410919 0.0450073 3.48432e-19)
(0.562859 0.0809636 -3.748e-20)
(0.71001 0.120543 1.29864e-19)
(0.844056 0.160099 4.4901e-20)
(0.959563 0.196638 1.58883e-19)
(1.05411 0.228176 -1.24379e-19)
(1.12785 0.25376 4.13274e-20)
(1.18269 0.273285 -3.96942e-20)
(1.22155 0.28723 -1.74091e-20)
(1.24763 0.2964 3.30988e-20)
(1.26402 0.301709 -6.08681e-20)
(1.2734 0.304042 -1.86121e-20)
(1.27793 0.304172 -5.6996e-20)
(1.2793 0.302725 -9.25828e-20)
(1.27875 0.300164 5.98282e-20)
(1.27723 0.296982 -8.17203e-20)
(1.27558 0.293812 3.53049e-19)
(0.0428734 -0.00215439 -1.04052e-19)
(0.163289 0.00237984 -2.94332e-19)
(0.309396 0.0255416 -3.91238e-20)
(0.468498 0.0604094 -1.05659e-20)
(0.628189 0.101882 -1.31508e-19)
(0.777624 0.145464 -2.15629e-19)
(0.908912 0.18711 7.0481e-20)
(1.01779 0.223878 -9.68102e-20)
(1.10334 0.254154 -1.08332e-19)
(1.16715 0.277492 6.0229e-20)
(1.21229 0.29428 -4.54837e-20)
(1.24243 0.305398 -9.17872e-20)
(1.26117 0.31192 -2.94019e-21)
(1.27168 0.31491 6.21078e-20)
(1.27655 0.315307 -6.30383e-20)
(1.27776 0.313876 8.75403e-20)
(1.27674 0.311196 2.36074e-20)
(1.27454 0.307678 5.91835e-20)
(1.27191 0.303787 1.14925e-19)
(1.26953 0.300009 -9.83351e-20)
(0.0538108 -0.00108378 9.94404e-20)
(0.193787 0.00796304 -8.92104e-21)
(0.35605 0.0375698 4.44492e-20)
(0.526578 0.0789717 -6.03902e-20)
(0.691971 0.125758 4.92984e-21)
(0.84134 0.172687 2.08977e-19)
(0.967748 0.215536 -1.37253e-19)
(1.06848 0.251646 5.79659e-20)
(1.1443 0.279938 5.10126e-20)
(1.1982 0.300551 -1.43387e-19)
(1.23424 0.314373 1.34513e-19)
(1.25661 0.322637 1.16779e-21)
(1.26911 0.326621 -9.4372e-20)
(1.27484 0.327477 1.13669e-19)
(1.27619 0.326147 -4.49588e-20)
(1.2749 0.323353 3.43469e-20)
(1.27216 0.31961 -3.8471e-20)
(1.26881 0.31527 -1.53902e-20)
(1.26544 0.310775 -1.337e-19)
(1.26258 0.306475 4.08467e-20)
(0.0656773 0.000769115 -3.36067e-20)
(0.225866 0.0156556 8.99969e-20)
(0.403733 0.0525179 1.40015e-20)
(0.584121 0.10064 5.87356e-20)
(0.753045 0.15234 2.79556e-20)
(0.900132 0.201829 1.31007e-20)
(1.0199 0.244964 7.4199e-20)
(1.11147 0.279594 -9.03507e-21)
(1.17732 0.305307 3.25917e-20)
(1.22172 0.32286 5.23028e-20)
(1.24948 0.333609 2.51594e-20)
(1.26514 0.339077 1.80162e-20)
(1.27247 0.340678 7.29714e-20)
(1.27441 0.339591 -7.05955e-20)
(1.27308 0.336722 1.51233e-20)
(1.26995 0.332728 -1.40558e-20)
(1.266 0.328051 2.18616e-20)
(1.26188 0.322987 1.82734e-20)
(1.25804 0.317959 3.79728e-20)
(1.25488 0.313186 1.61524e-21)
(0.0783496 0.00350442 1.99212e-20)
(0.259074 0.0256062 1.81853e-20)
(0.451651 0.0704275 -2.51429e-20)
(0.6401 0.125269 1.57024e-20)
(0.810375 0.181314 8.84407e-21)
(0.953206 0.232487 -2.75155e-20)
(1.06499 0.275011 9.05911e-21)
(1.14685 0.307438 1.63114e-21)
(1.20289 0.330109 1.55747e-20)
(1.23847 0.344393 -4.16835e-20)
(1.25894 0.352059 -1.07063e-22)
(1.26893 0.354843 1.14793e-20)
(1.27209 0.354233 -9.1461e-21)
(1.27109 0.351384 9.25071e-21)
(1.26777 0.347138 2.40064e-20)
(1.26334 0.342071 -1.36057e-20)
(1.25856 0.336554 3.8184e-21)
(1.25395 0.330832 1.48302e-20)
(1.24982 0.325314 -2.44075e-20)
(1.24649 0.32009 1.17211e-20)
(0.0916717 0.00720712 5.56255e-20)
(0.2929 0.0379086 -3.02088e-20)
(0.498982 0.0912564 3.55287e-20)
(0.693545 0.15263 -2.64148e-20)
(0.863089 0.21231 -1.18153e-20)
(1.00001 0.264256 3.57756e-21)
(1.10289 0.30533 -1.15655e-20)
(1.17489 0.334949 4.15342e-20)
(1.22161 0.354241 -3.4507e-20)
(1.24923 0.365155 8.08758e-21)
(1.26342 0.369795 -6.02788e-21)
(1.26875 0.370042 -3.89834e-20)
(1.26864 0.36739 3.77328e-20)
(1.26542 0.36294 1.42883e-20)
(1.26066 0.357446 -1.42098e-20)
(1.25532 0.351404 3.32274e-20)
(1.25001 0.345111 -5.27848e-22)
(1.24511 0.338773 -3.20376e-20)
(1.24083 0.33279 2.36733e-20)
(1.23743 0.327118 7.385e-21)
(0.105458 0.0119424 -1.94936e-20)
(0.326788 0.0525954 5.65048e-20)
(0.544905 0.114879 6.52041e-20)
(0.743577 0.182424 -3.07103e-20)
(0.910491 0.24493 5.34204e-20)
(1.04019 0.296743 8.43297e-20)
(1.13366 0.335617 -4.63185e-21)
(1.19601 0.36194 -1.43677e-20)
(1.23411 0.377635 7.1061e-20)
(1.25473 0.385161 3.45514e-20)
(1.26365 0.38688 -6.19871e-21)
(1.26524 0.384745 5.12188e-20)
(1.2626 0.380212 -5.46177e-20)
(1.25776 0.374295 8.49505e-20)
(1.252 0.367656 -1.41371e-20)
(1.24608 0.360708 4.02029e-20)
(1.24046 0.353683 7.13402e-21)
(1.23541 0.346755 2.85447e-20)
(1.2311 0.340318 -2.71881e-20)
(1.2277 0.334191 6.47283e-21)
(0.119497 0.0177513 -3.03162e-20)
(0.360161 0.0696326 7.21111e-20)
(0.58863 0.141089 5.34943e-20)
(0.78943 0.214291 -8.07458e-21)
(0.952066 0.278758 8.29844e-20)
(1.07362 0.329573 -6.18051e-20)
(1.15752 0.365598 -4.68585e-21)
(1.21069 0.388259 5.44276e-20)
(1.24101 0.400235 1.7279e-20)
(1.25562 0.404419 2.40332e-20)
(1.26021 0.403351 -3.53906e-20)
(1.25888 0.39899 9.18088e-20)
(1.25437 0.39272 1.69651e-20)
(1.24839 0.385449 -8.08552e-20)
(1.24198 0.377743 1.17396e-19)
(1.23571 0.369937 -1.38077e-19)
(1.22995 0.362208 -6.28984e-20)
(1.22489 0.354705 1.0557e-20)
(1.22062 0.347815 6.08571e-20)
(1.2173 0.341223 -1.14082e-19)
(0.133559 0.0246475 -6.84217e-20)
(0.392437 0.0889189 -1.61242e-19)