1.22 	3.45254e-18 	-6.98323e-18 	-0.0873545 	0.138612 	-5.63224e-22
1.66 	3.45254e-18 	-6.96118e-18 	-0.187787 	0.386736 	-3.01556e-23
2.1 	3.45254e-18 	-6.93894e-18 	0.139837 	0.110191 	-1.61466e-21
2.54 	3.45254e-18 	-8.30431e-18 	0.329099 	-0.376224 	-6.71859e-23
2.98 	3.45254e-18 	-8.28171e-18 	0.240561 	-0.649589 	9.91419e-22
3.42 	3.45254e-18 	-6.87115e-18 	0.20527 	-0.518088 	7.82297e-22
3.86 	3.45254e-18 	-6.84819e-18 	0.554124 	-0.00883607 	2.08716e-22
4.3 	3.45254e-18 	-6.82504e-18 	0.714814 	0.354494 	1.04667e-21
4.74 	3.45254e-18 	-5.41391e-18 	0.669536 	0.585399 	-5.58807e-22
5.18 	3.45254e-18 	-2.61482e-18 	0.55647 	0.61901 	-2.52589e-22
5.62 	3.45254e-18 	-1.2033e-18 	0.623756 	0.345077 	1.34626e-22
6.06 	3.45254e-18 	-1.17937e-18 	0.754606 	-0.0433525 	5.21097e-22
6.5 	3.45254e-18 	-1.15524e-18 	0.845048 	-0.323772 	-3.37216e-22
