/*--------------------------------*- C++ -*----------------------------------*\
  =========                 |
  \\      /  F ield         | OpenFOAM: The Open Source CFD Toolbox
   \\    /   O peration     | Website:  https://openfoam.org
    \\  /    A nd           | Version:  6.0
     \\/     M anipulation  |
\*---------------------------------------------------------------------------*/
FoamFile
{
    version     2.0;
    format      ascii;
    class       volScalarField;
    location    "51";
    object      p;
}
// * * * * * * * * * * * * * * * * * * * * * * * * * * * * * * * * * * * * * //

dimensions      [0 2 -2 0 0 0 0];

internalField   nonuniform List<scalar> 
12500
(
-0.282088
-0.282761
-0.283226
-0.283577
-0.283872
-0.284117
-0.28432
-0.284491
-0.284635
-0.28476
-0.284868
-0.284964
-0.285052
-0.285134
-0.285214
-0.285296
-0.285381
-0.285473
-0.285574
-0.285688
-0.285819
-0.28597
-0.286107
-0.286208
-0.286627
-0.282062
-0.282706
-0.283149
-0.283482
-0.283759
-0.283986
-0.284171
-0.284323
-0.284449
-0.284554
-0.284643
-0.284719
-0.284787
-0.28485
-0.284911
-0.284973
-0.28504
-0.285114
-0.285199
-0.285297
-0.285414
-0.285552
-0.28568
-0.285774
-0.286177
-0.282087
-0.282703
-0.283126
-0.283439
-0.283697
-0.283904
-0.284069
-0.284199
-0.284302
-0.284384
-0.284449
-0.284501
-0.284544
-0.284582
-0.284618
-0.284655
-0.284698
-0.284749
-0.284811
-0.284888
-0.284986
-0.285106
-0.28522
-0.285303
-0.285689
-0.28216
-0.282752
-0.283154
-0.283449
-0.283686
-0.283871
-0.284012
-0.284117
-0.284193
-0.284247
-0.284283
-0.284306
-0.284319
-0.284326
-0.284332
-0.284339
-0.284351
-0.284373
-0.284406
-0.284457
-0.284529
-0.284628
-0.284722
-0.28479
-0.285156
-0.282281
-0.282851
-0.283234
-0.283509
-0.283724
-0.283885
-0.283999
-0.284076
-0.284122
-0.284144
-0.284146
-0.284134
-0.284112
-0.284083
-0.284051
-0.284022
-0.283998
-0.283983
-0.283982
-0.283999
-0.28404
-0.28411
-0.284181
-0.284227
-0.28457
-0.282447
-0.283
-0.283366
-0.283621
-0.283812
-0.283946
-0.284031
-0.284076
-0.284087
-0.284073
-0.284037
-0.283985
-0.283921
-0.28385
-0.283775
-0.283702
-0.283634
-0.283576
-0.283533
-0.28351
-0.283513
-0.283548
-0.283588
-0.283607
-0.283926
-0.282661
-0.2832
-0.283549
-0.283784
-0.283951
-0.284056
-0.284109
-0.284118
-0.284091
-0.284035
-0.283956
-0.283859
-0.283748
-0.283628
-0.283503
-0.283379
-0.283259
-0.283151
-0.283057
-0.282985
-0.282943
-0.282936
-0.282938
-0.282924
-0.283215
-0.282924
-0.283453
-0.283787
-0.284001
-0.284142
-0.284217
-0.284234
-0.284204
-0.284135
-0.284033
-0.283906
-0.283758
-0.283593
-0.283418
-0.283236
-0.283053
-0.282874
-0.282705
-0.282552
-0.282423
-0.282326
-0.282268
-0.282225
-0.28217
-0.282432
-0.28324
-0.283762
-0.284083
-0.284275
-0.284389
-0.28443
-0.284409
-0.284337
-0.284221
-0.28407
-0.28389
-0.283685
-0.283462
-0.283224
-0.282977
-0.282727
-0.282479
-0.282241
-0.282019
-0.281822
-0.28166
-0.281542
-0.281444
-0.281341
-0.28157
-0.283613
-0.284132
-0.284439
-0.28461
-0.284694
-0.2847
-0.284638
-0.28452
-0.284355
-0.284151
-0.283913
-0.283647
-0.283358
-0.283052
-0.282733
-0.282407
-0.282081
-0.281763
-0.281461
-0.281184
-0.280945
-0.280755
-0.280591
-0.280431
-0.280625
-0.284051
-0.284569
-0.284862
-0.285009
-0.285062
-0.28503
-0.284926
-0.284759
-0.284542
-0.28428
-0.283981
-0.283649
-0.283291
-0.282909
-0.282511
-0.282102
-0.281689
-0.28128
-0.280884
-0.280514
-0.280184
-0.279908
-0.279664
-0.279435
-0.27959
-0.28456
-0.285078
-0.285357
-0.285479
-0.285499
-0.285427
-0.285276
-0.285059
-0.284786
-0.284465
-0.284102
-0.283701
-0.283269
-0.282808
-0.282325
-0.281824
-0.281313
-0.280802
-0.2803
-0.279822
-0.279385
-0.279005
-0.278664
-0.278351
-0.278461
-0.285151
-0.285668
-0.285931
-0.286026
-0.28601
-0.285895
-0.285696
-0.285427
-0.285096
-0.284714
-0.284284
-0.283813
-0.283304
-0.282761
-0.282187
-0.281588
-0.280972
-0.280347
-0.279725
-0.279121
-0.278557
-0.278053
-0.277593
-0.277174
-0.277229
-0.285832
-0.286346
-0.286591
-0.286655
-0.2866
-0.286441
-0.286191
-0.285867
-0.285478
-0.285033
-0.284538
-0.283995
-0.283409
-0.282781
-0.282114
-0.281413
-0.280684
-0.279935
-0.279178
-0.278431
-0.277718
-0.277063
-0.276454
-0.2759
-0.275885
-0.286615
-0.287122
-0.287344
-0.287374
-0.287277
-0.287069
-0.286767
-0.286386
-0.285939
-0.285432
-0.28487
-0.284258
-0.283595
-0.282883
-0.282124
-0.281318
-0.28047
-0.279589
-0.278684
-0.277774
-0.276886
-0.27605
-0.275255
-0.274524
-0.274414
-0.287511
-0.288004
-0.288199
-0.28819
-0.288046
-0.287786
-0.287429
-0.28699
-0.286483
-0.285914
-0.285289
-0.284609
-0.283873
-0.28308
-0.28223
-0.28132
-0.280353
-0.279333
-0.278268
-0.277177
-0.276087
-0.275032
-0.274005
-0.273039
-0.272794
-0.28853
-0.289003
-0.289163
-0.28911
-0.288914
-0.288598
-0.288181
-0.287683
-0.287115
-0.286485
-0.285798
-0.285053
-0.284248
-0.28338
-0.282443
-0.281434
-0.280348
-0.279187
-0.277954
-0.276664
-0.275344
-0.27403
-0.272712
-0.271436
-0.270994
-0.289684
-0.290126
-0.290244
-0.290139
-0.289885
-0.289507
-0.289028
-0.288466
-0.287836
-0.287146
-0.286398
-0.285592
-0.284723
-0.283784
-0.282768
-0.281665
-0.280466
-0.279165
-0.27776
-0.276257
-0.27468
-0.273062
-0.271388
-0.269705
-0.268978
-0.290984
-0.291384
-0.291451
-0.291286
-0.290966
-0.290519
-0.28997
-0.289342
-0.288647
-0.287894
-0.287086
-0.28622
-0.285291
-0.284288
-0.283199
-0.282009
-0.280704
-0.279268
-0.27769
-0.275965
-0.274109
-0.272146
-0.270044
-0.267836
-0.266701
-0.29244
-0.292787
-0.292791
-0.292556
-0.292161
-0.291636
-0.291011
-0.290309
-0.289544
-0.288725
-0.287855
-0.28693
-0.285941
-0.284877
-0.283721
-0.282452
-0.281048
-0.279485
-0.277739
-0.27579
-0.273638
-0.271293
-0.268692
-0.265826
-0.264119
-0.294065
-0.294344
-0.294274
-0.293958
-0.293475
-0.292863
-0.292152
-0.291367
-0.290525
-0.289634
-0.288697
-0.287709
-0.28666
-0.285536
-0.284315
-0.282973
-0.281479
-0.279798
-0.277893
-0.275726
-0.273274
-0.270525
-0.26737
-0.263711
-0.26123
-0.295869
-0.296066
-0.295908
-0.295498
-0.294915
-0.294203
-0.293394
-0.292516
-0.291586
-0.290614
-0.289603
-0.288546
-0.287432
-0.286246
-0.284962
-0.283551
-0.281975
-0.280191
-0.278147
-0.275784
-0.273052
-0.26991
-0.266191
-0.261651
-0.258155
-0.297866
-0.297964
-0.297704
-0.297185
-0.296489
-0.295662
-0.294742
-0.293758
-0.292729
-0.291665
-0.290568
-0.289433
-0.288249
-0.286997
-0.28565
-0.284177
-0.282534
-0.280671
-0.278522
-0.276006
-0.273042
-0.269548
-0.265287
-0.25977
-0.254874
-0.300071
-0.300053
-0.299674
-0.29903
-0.298204
-0.297247
-0.296201
-0.295097
-0.293955
-0.292787
-0.291594
-0.290373
-0.289111
-0.28779
-0.286386
-0.284866
-0.283188
-0.281297
-0.279122
-0.276562
-0.273494
-0.269758
-0.264942
-0.258093
-0.250962
-0.302499
-0.302346
-0.301831
-0.301045
-0.300072
-0.29897
-0.297782
-0.296543
-0.295275
-0.293989
-0.292689
-0.291373
-0.290029
-0.288642
-0.287193
-0.285657
-0.284003
-0.282196
-0.280187
-0.277908
-0.275267
-0.272097
-0.267821
-0.261039
-0.25305
-0.305169
-0.304861
-0.304191
-0.303245
-0.302108
-0.300843
-0.299498
-0.29811
-0.296701
-0.295287
-0.293871
-0.292452
-0.291023
-0.289575
-0.288096
-0.286577
-0.285011
-0.283403
-0.281775
-0.280184
-0.278757
-0.277718
-0.277397
-0.279284
-0.289705
-0.308104
-0.307617
-0.306772
-0.305648
-0.304328
-0.302883
-0.301366
-0.299815
-0.298255
-0.296702
-0.295161
-0.293634
-0.292119
-0.290612
-0.289111
-0.287623
-0.286164
-0.284771
-0.283512
-0.28251
-0.281971
-0.282216
-0.283689
-0.28765
-0.298652
-0.311325
-0.310635
-0.309593
-0.308272
-0.306752
-0.305112
-0.303408
-0.301682
-0.29996
-0.29826
-0.296588
-0.29495
-0.293346
-0.29178
-0.290259
-0.288801
-0.28744
-0.286233
-0.28527
-0.284693
-0.284707
-0.285602
-0.287711
-0.291704
-0.300565
-0.314859
-0.313938
-0.312677
-0.311139
-0.309402
-0.307551
-0.305649
-0.303737
-0.301845
-0.29999
-0.298183
-0.296429
-0.294732
-0.293102
-0.291551
-0.290106
-0.288808
-0.287721
-0.286937
-0.286583
-0.286827
-0.287874
-0.289926
-0.293259
-0.299838
-0.318731
-0.31755
-0.316047
-0.314272
-0.312301
-0.310226
-0.308114
-0.306008
-0.303938
-0.301923
-0.299974
-0.298097
-0.296299
-0.294591
-0.292988
-0.29152
-0.290227
-0.289169
-0.288424
-0.288088
-0.288277
-0.289113
-0.290687
-0.29305
-0.297448
-0.32297
-0.321495
-0.319725
-0.317696
-0.315476
-0.313164
-0.310832
-0.308523
-0.306269
-0.304087
-0.301987
-0.299976
-0.29806
-0.296249
-0.29456
-0.293016
-0.291655
-0.290522
-0.289675
-0.28918
-0.2891
-0.289495
-0.290386
-0.291716
-0.294232
-0.3276
-0.325797
-0.323737
-0.321435
-0.318951
-0.316392
-0.31383
-0.311311
-0.308864
-0.306505
-0.304242
-0.302079
-0.30002
-0.298071
-0.296246
-0.294563
-0.293049
-0.291736
-0.290661
-0.289861
-0.289366
-0.289193
-0.289326
-0.289666
-0.290635
-0.332646
-0.33048
-0.328106
-0.325514
-0.322753
-0.319935
-0.317136
-0.314398
-0.311748
-0.309198
-0.306752
-0.30441
-0.302171
-0.300038
-0.298017
-0.296121
-0.294366
-0.292773
-0.291363
-0.290152
-0.28915
-0.28835
-0.287727
-0.287174
-0.28692
-0.33813
-0.335565
-0.332853
-0.329956
-0.326906
-0.32382
-0.320774
-0.317807
-0.314939
-0.312177
-0.30952
-0.306962
-0.304496
-0.30212
-0.299835
-0.297646
-0.295565
-0.293602
-0.291769
-0.290072
-0.288511
-0.287074
-0.285735
-0.284399
-0.283193
-0.34407
-0.341068
-0.337997
-0.334781
-0.331431
-0.328068
-0.324764
-0.321553
-0.318447
-0.315445
-0.312539
-0.309715
-0.306964
-0.304277
-0.301652
-0.299091
-0.296601
-0.294191
-0.291867
-0.289635
-0.287493
-0.285432
-0.283434
-0.281417
-0.27947
-0.350478
-0.347005
-0.343554
-0.340007
-0.336347
-0.332696
-0.329121
-0.325645
-0.322272
-0.318992
-0.315787
-0.312639
-0.309533
-0.306459
-0.303415
-0.300403
-0.297431
-0.294509
-0.291646
-0.288851
-0.286124
-0.283464
-0.280862
-0.278252
-0.27571
-0.35736
-0.353382
-0.349535
-0.345646
-0.341666
-0.337715
-0.33385
-0.330083
-0.326405
-0.322796
-0.31923
-0.315687
-0.312149
-0.308608
-0.305066
-0.301529
-0.298012
-0.294528
-0.291093
-0.28772
-0.284416
-0.281187
-0.278031
-0.274895
-0.271856
-0.364713
-0.360202
-0.355943
-0.351703
-0.347395
-0.343128
-0.338948
-0.334853
-0.330819
-0.326818
-0.32282
-0.318801
-0.314747
-0.310659
-0.306543
-0.302417
-0.298302
-0.294221
-0.290195
-0.286242
-0.282376
-0.278607
-0.274938
-0.271326
-0.267851
-0.372527
-0.367455
-0.362774
-0.358177
-0.353528
-0.348924
-0.344397
-0.339926
-0.335475
-0.331008
-0.326493
-0.321911
-0.317257
-0.312542
-0.307786
-0.303017
-0.298266
-0.293564
-0.288939
-0.284413
-0.280003
-0.275722
-0.271576
-0.267526
-0.263651
-0.380777
-0.375125
-0.370014
-0.365054
-0.360049
-0.355083
-0.350165
-0.345258
-0.340315
-0.335295
-0.330173
-0.324938
-0.319602
-0.314189
-0.308735
-0.303281
-0.297869
-0.292536
-0.287314
-0.282228
-0.277297
-0.272531
-0.267935
-0.263475
-0.259226
-0.38943
-0.383183
-0.377639
-0.372308
-0.36693
-0.361566
-0.356203
-0.350787
-0.345265
-0.339598
-0.333773
-0.327798
-0.321702
-0.31553
-0.309334
-0.303168
-0.297082
-0.291118
-0.28531
-0.279683
-0.274253
-0.269028
-0.264009
-0.259161
-0.254557
-0.398436
-0.391587
-0.385608
-0.379901
-0.374125
-0.368317
-0.362443
-0.356434
-0.350236
-0.343823
-0.337201
-0.330401
-0.323479
-0.316499
-0.30953
-0.302638
-0.295877
-0.289292
-0.282917
-0.276771
-0.270866
-0.265207
-0.25979
-0.254575
-0.249635
-0.407731
-0.40028
-0.39387
-0.387775
-0.381572
-0.375264
-0.368799
-0.362101
-0.355124
-0.347865
-0.340355
-0.332658
-0.324856
-0.317034
-0.309277
-0.301656
-0.294231
-0.287043
-0.280122
-0.273482
-0.267129
-0.261062
-0.255271
-0.249709
-0.244452
-0.417235
-0.409191
-0.402355
-0.39586
-0.389188
-0.382313
-0.375168
-0.367678
-0.359817
-0.351612
-0.343134
-0.33448
-0.325759
-0.317077
-0.308528
-0.30019
-0.292119
-0.284352
-0.276912
-0.269806
-0.263033
-0.256584
-0.250442
-0.244555
-0.239003
-0.426851
-0.418231
-0.410975
-0.404062
-0.396873
-0.389354
-0.38143
-0.373039
-0.36419
-0.354952
-0.345438
-0.335782
-0.32612
-0.316574
-0.307245
-0.298209
-0.289518
-0.281202
-0.273272
-0.26573
-0.258563
-0.251759
-0.245293
-0.239102
-0.233279
-0.436467
-0.427295
-0.419627
-0.412272
-0.404508
-0.396258
-0.387449
-0.378051
-0.368117
-0.357769
-0.347167
-0.336482
-0.325873
-0.315474
-0.305386
-0.295682
-0.286403
-0.27757
-0.269184
-0.261235
-0.253706
-0.246575
-0.239809
-0.233338
-0.227272
-0.445954
-0.436263
-0.42819
-0.420363
-0.411958
-0.402882
-0.393082
-0.382573
-0.371469
-0.35995
-0.348228
-0.336505
-0.324959
-0.31373
-0.302915
-0.292578
-0.282748
-0.273433
-0.264626
-0.256304
-0.248442
-0.241012
-0.233975
-0.227248
-0.220966
-0.455167
-0.444996
-0.436525
-0.42819
-0.41907
-0.409069
-0.398174
-0.386462
-0.374117
-0.361388
-0.34853
-0.335778
-0.32332
-0.311296
-0.299795
-0.288865
-0.278525
-0.268768
-0.259574
-0.250913
-0.24275
-0.235052
-0.227771
-0.220814
-0.214348
-0.463947
-0.453343
-0.444478
-0.435593
-0.425679
-0.414656
-0.402569
-0.389574
-0.375939
-0.361977
-0.347991
-0.334235
-0.320904
-0.30813
-0.295988
-0.284513
-0.273706
-0.263548
-0.254006
-0.24504
-0.236609
-0.228674
-0.221178
-0.214019
-0.207399
-0.472125
-0.46114
-0.451884
-0.442401
-0.431613
-0.419473
-0.406109
-0.391771
-0.376817
-0.361624
-0.346533
-0.331814
-0.31766
-0.304188
-0.291459
-0.279488
-0.268261
-0.257744
-0.247893
-0.23866
-0.229996
-0.221855
-0.214175
-0.206842
-0.200101
-0.479522
-0.468211
-0.458565
-0.448434
-0.436691
-0.42335
-0.408639
-0.39292
-0.376639
-0.360238
-0.344085
-0.328459
-0.313541
-0.299432
-0.286173
-0.273759
-0.26216
-0.251329
-0.241211
-0.231748
-0.222886
-0.214575
-0.206741
-0.199264
-0.192436
-0.48595
-0.474373
-0.464335
-0.453505
-0.440732
-0.426117
-0.410011
-0.392895
-0.375306
-0.357738
-0.340584
-0.324117
-0.308504
-0.293824
-0.280095
-0.267295
-0.255375
-0.244277
-0.233934
-0.224281
-0.215258
-0.206811
-0.198856
-0.191267
-0.184384
-0.491221
-0.47944
-0.469007
-0.457427
-0.443558
-0.427614
-0.410087
-0.391583
-0.372726
-0.354054
-0.335971
-0.318741
-0.302507
-0.287326
-0.273193
-0.260065
-0.247878
-0.23656
-0.226037
-0.216236
-0.20709
-0.198543
-0.190502
-0.182831
-0.175929
-0.495146
-0.483223
-0.472393
-0.460016
-0.444997
-0.427689
-0.40874
-0.388881
-0.368817
-0.34912
-0.330195
-0.312287
-0.295514
-0.279907
-0.265437
-0.252041
-0.239642
-0.228155
-0.217498
-0.207591
-0.198364
-0.189755
-0.181661
-0.173943
-0.167056
-0.497539
-0.485538
-0.474308
-0.461094
-0.444886
-0.426202
-0.405854
-0.384699
-0.36351
-0.342882
-0.323211
-0.304717
-0.287492
-0.271537
-0.256799
-0.243199
-0.230644
-0.219041
-0.208298
-0.19833
-0.189062
-0.18043
-0.17232
-0.164588
-0.157753
-0.498222
-0.486207
-0.474575
-0.460494
-0.443077
-0.423028
-0.401331
-0.37896
-0.356745
-0.335293
-0.314981
-0.296001
-0.278412
-0.262188
-0.247255
-0.233516
-0.220865
-0.209199
-0.19842
-0.188436
-0.179172
-0.170556
-0.162468
-0.154758
-0.148011
-0.497028
-0.48506
-0.473029
-0.458063
-0.439437
-0.41806
-0.395087
-0.371601
-0.348475
-0.326315
-0.305474
-0.28611
-0.26825
-0.251841
-0.236786
-0.222974
-0.210287
-0.198614
-0.18785
-0.177899
-0.168682
-0.160125
-0.152096
-0.144446
-0.137823
-0.493804
-0.481943
-0.46952
-0.453664
-0.433851
-0.411207
-0.387054
-0.362571
-0.338662
-0.315919
-0.294666
-0.275024
-0.256988
-0.240477
-0.225377
-0.21156
-0.198899
-0.187276
-0.17658
-0.166711
-0.157587
-0.149132
-0.141202
-0.13365
-0.127188
-0.488414
-0.476719
-0.463915
-0.447181
-0.426225
-0.402398
-0.377182
-0.351836
-0.32728
-0.304087
-0.282542
-0.26273
-0.244612
-0.228086
-0.213016
-0.199264
-0.186693
-0.175178
-0.164604
-0.154868
-0.145885
-0.137576
-0.129786
-0.122371
-0.116106
-0.48074
-0.469268
-0.456103
-0.438518
-0.416485
-0.39158
-0.365435
-0.339372
-0.314315
-0.290807
-0.269093
-0.249219
-0.231117
-0.214661
-0.199699
-0.186082
-0.173666
-0.162318
-0.151922
-0.14237
-0.133577
-0.125459
-0.117853
-0.110615
-0.104585
-0.470688
-0.459494
-0.445995
-0.427603
-0.40458
-0.378723
-0.351797
-0.325172
-0.299764
-0.276079
-0.254318
-0.234491
-0.216502
-0.200201
-0.185426
-0.172015
-0.159818
-0.148699
-0.138537
-0.129223
-0.120669
-0.11279
-0.105411
-0.0983924
-0.0926353
-0.458186
-0.447323
-0.433526
-0.414388
-0.39048
-0.363812
-0.336265
-0.309242
-0.283635
-0.25991
-0.238225
-0.218554
-0.200772
-0.184713
-0.170202
-0.157068
-0.145156
-0.134328
-0.124457
-0.115435
-0.107172
-0.0995791
-0.0924735
-0.0857185
-0.080271
-0.443188
-0.432707
-0.418655
-0.398848
-0.374177
-0.346855
-0.318856
-0.291599
-0.265947
-0.242319
-0.22083
-0.20142
-0.18394
-0.168208
-0.154037
-0.141251
-0.129691
-0.119214
-0.109693
-0.101018
-0.093099
-0.0858424
-0.0790578
-0.0726121
-0.067512
-0.425672
-0.415623
-0.401368
-0.380984
-0.355688
-0.327876
-0.299599
-0.272275
-0.24673
-0.223333
-0.202157
-0.183112
-0.166025
-0.150702
-0.136946
-0.124578
-0.113435
-0.103372
-0.0942601
-0.0859882
-0.0784663
-0.071598
-0.0651845
-0.0590963
-0.0543813
-0.405645
-0.396075
-0.381678
-0.360821
-0.335049
-0.306919
-0.27854
-0.251316
-0.226025
-0.202989
-0.18224
-0.163657
-0.147052
-0.132217
-0.118951
-0.107069
-0.096407
-0.0868186
-0.0781746
-0.0703629
-0.0632934
-0.0568671
-0.050878
-0.0451981
-0.040906
-0.383136
-0.374092
-0.35962
-0.338407
-0.312315
-0.284046
-0.255741
-0.228777
-0.203884
-0.181333
-0.161118
-0.143093
-0.127053
-0.112782
-0.100075
-0.0887448
-0.078626
-0.0695725
-0.0614547
-0.0541607
-0.0476005
-0.0416726
-0.036165
-0.0309487
-0.0271202
-0.358205
-0.34973
-0.335257
-0.313812
-0.287565
-0.259334
-0.231276
-0.20473
-0.180371
-0.158422
-0.138842
-0.121462
-0.106066
-0.0924299
-0.0803469
-0.0696298
-0.0601134
-0.0516525
-0.0441182
-0.0373995
-0.0314067
-0.026037
-0.0210732
-0.0163835
-0.0130666
-0.330932
-0.32307
-0.308674
-0.287129
-0.260894
-0.232878
-0.205234
-0.179255
-0.155559
-0.134322
-0.115471
-0.0988173
-0.0841353
-0.0711987
-0.059799
-0.0497508
-0.040891
-0.0330765
-0.0261805
-0.0200936
-0.0147275
-0.00997834
-0.00562782
-0.00153909
0.00120859
-0.301425
-0.294214
-0.27998
-0.258471
-0.232414
-0.204786
-0.177717
-0.152446
-0.129534
-0.109109
-0.0910718
-0.0752178
-0.0613138
-0.0491326
-0.0384675
-0.0291363
-0.02098
-0.0138594
-0.00765161
-0.00225043
0.00243069
0.00649353
0.0101526
0.0135534
0.0156768
-0.269811
-0.263289
-0.249304
-0.227968
-0.202255
-0.175182
-0.148841
-0.12441
-0.10239
-0.0828706
-0.0657236
-0.0507329
-0.0376612
-0.0262822
-0.016393
-0.00781657
-0.000400082
0.00598934
0.0114683
0.0161374
0.020079
0.0233886
0.0262707
0.0288905
0.0303504
-0.23624
-0.230443
-0.216793
-0.195769
-0.170561
-0.144202
-0.118732
-0.0952625
-0.0742369
-0.055704
-0.0395145
-0.0254421
-0.0132474
-0.00270698
0.00637663
0.0141732
0.0208277
0.026464
0.0311891
0.0350943
0.0382536
0.0407516
0.0427748
0.0445169
0.0452473
-0.200881
-0.19584
-0.182613
-0.162037
-0.137489
-0.111995
-0.0875293
-0.0651321
-0.045191
-0.0277181
-0.0125443
0.000564029
0.0118466
0.0215229
0.0297835
0.0367895
0.0426758
0.0475544
0.0515185
0.0546443
0.0569941
0.0586369
0.0597205
0.0604263
0.060186
-0.163918
-0.159662
-0.146946
-0.126949
-0.10321
-0.0787201
-0.0553805
-0.0341567
-0.0153815
0.000967146
0.0150752
0.0271823
0.0375273
0.0463251
0.053759
0.0599807
0.0651131
0.0692525
0.0724703
0.0748185
0.0763413
0.0770781
0.0770606
0.0763232
0.0745811
-0.12555
-0.122106
-0.109983
-0.0906931
-0.0679011
-0.044546
-0.0224434
-0.00248389
0.015053
0.0302207
0.04322
0.0542954
0.0636852
0.0716003
0.0782187
0.083685
0.0881119
0.0915799
0.094134
0.0957944
0.096577
0.0964408
0.0951154
0.0922895
0.0885345
-0.085991
-0.0833802
-0.0719309
-0.0534671
-0.0317508
-0.00964844
0.0111172
0.0297312
0.0459653
0.0599015
0.0717536
0.0817704
0.0901898
0.0972213
0.103042
0.107795
0.111595
0.114522
0.116617
0.117903
0.118409
0.118001
0.115964
0.111591
0.106942
-0.0454632
-0.0437029
-0.033002
-0.0154755
0.00504783
0.0257913
0.045131
0.0623279
0.0772019
0.0898611
0.10053
0.109461
0.116891
0.123029
0.128053
0.132113
0.135331
0.137807
0.139618
0.140861
0.141685
0.142046
0.141058
0.13819
0.140561
-0.00418935
-0.00329508
0.00658708
0.0230736
0.0422981
0.0615886
0.0794248
0.0951421
0.108606
0.119948
0.1294
0.137217
0.143633
0.148857
0.153064
0.156406
0.159012
0.160987
0.16243
0.163465
0.164254
0.16478
0.164547
0.163979
0.16862
0.037595
0.0376122
0.0466124
0.0619675
0.0798003
0.0975569
0.113824
0.128009
0.140021
0.15001
0.158216
0.16489
0.170267
0.17455
0.177914
0.180509
0.182464
0.183891
0.184894
0.185597
0.186143
0.186507
0.186338
0.186128
0.190257
0.079653
0.0787867
0.0868492
0.100993
0.117355
0.13351
0.148154
0.160766
0.171292
0.179899
0.186832
0.19234
0.196652
0.199966
0.202452
0.204257
0.205507
0.206312
0.206774
0.207011
0.207149
0.207171
0.206779
0.20637
0.209544
0.121747
0.119995
0.127073
0.139937
0.154764
0.169265
0.182245
0.193252
0.202267
0.209473
0.215113
0.219434
0.222658
0.224978
0.226556
0.227533
0.228029
0.228147
0.227984
0.227643
0.227231
0.226723
0.225844
0.224967
0.227227
0.163641
0.161006
0.16706
0.17859
0.191831
0.20464
0.215929
0.225312
0.232802
0.238592
0.242928
0.246049
0.248171
0.249477
0.250122
0.250241
0.249945
0.24933
0.248482
0.247494
0.246456
0.245327
0.243857
0.242414
0.24379
0.205101
0.201589
0.206591
0.216746
0.228366
0.239458
0.249042
0.256793
0.262755
0.267128
0.270156
0.272073
0.273084
0.273366
0.273065
0.272306
0.271192
0.269813
0.268244
0.266567
0.264856
0.263064
0.260962
0.258925
0.259455
0.245897
0.241519
0.245449
0.254202
0.264181
0.273547
0.281427
0.287551
0.291991
0.294955
0.296682
0.297398
0.297301
0.296558
0.295306
0.293661
0.29172
0.289562
0.287255
0.284872
0.282473
0.280006
0.277268
0.274639
0.274357
0.285804
0.280576
0.283425
0.290762
0.299097
0.306743
0.31293
0.317446
0.320382
0.321953
0.322395
0.321925
0.320731
0.318971
0.316774
0.314248
0.31148
0.308543
0.305497
0.302407
0.299322
0.296188
0.292829
0.289619
0.288559
0.324606
0.318548
0.320316
0.326238
0.332938
0.338885
0.343406
0.346341
0.347804
0.348011
0.347192
0.345559
0.343289
0.34053
0.337403
0.334009
0.330427
0.326721
0.322948
0.319162
0.315405
0.311624
0.307665
0.303894
0.302088
0.362091
0.355229
0.355926
0.360446
0.365537
0.369819
0.372714
0.374109
0.374137
0.373017
0.370974
0.368209
0.364891
0.36116
0.357128
0.352888
0.348512
0.344058
0.339576
0.335115
0.330709
0.326307
0.321776
0.317466
0.314944
0.398058
0.39042
0.390068
0.393214
0.396735
0.399399
0.400719
0.400627
0.39927
0.39687
0.393646
0.389789
0.38546
0.380791
0.375885
0.370828
0.365686
0.360512
0.355348
0.350238
0.345212
0.340218
0.335146
0.330322
0.327114
0.432316
0.423936
0.422564
0.424376
0.42638
0.427486
0.427295
0.425777
0.423095
0.419471
0.415115
0.410214
0.404919
0.399353
0.393612
0.387774
0.381901
0.376038
0.370224
0.364498
0.358882
0.35333
0.347749
0.342439
0.338578
0.464682
0.455598
0.453245
0.453775
0.454328
0.45395
0.45232
0.449448
0.44551
0.440724
0.435298
0.429407
0.423196
0.416779
0.410247
0.403671
0.397105
0.390591
0.384165
0.377857
0.371687
0.365613
0.359557
0.353787
0.349308
0.494985
0.48524
0.481954
0.481266
0.480445
0.478666
0.475682
0.471537
0.466418
0.460542
0.45411
0.447291
0.440221
0.433006
0.425732
0.418463
0.411248
0.404126
0.397126
0.390275
0.383589
0.37703
0.370534
0.364334
0.359274
0.523067
0.512707
0.508544
0.506713
0.504606
0.50152
0.497275
0.491947
0.48573
0.478842
0.471476
0.463795
0.455927
0.447973
0.44001
0.432098
0.424283
0.416597
0.409067
0.401714
0.394551
0.387546
0.380646
0.374049
0.368446
0.548781
0.537854
0.53288
0.52999
0.526696
0.522405
0.517002
0.510587
0.503363
0.495545
0.487324
0.478852
0.470253
0.461621
0.453027
0.444528
0.436162
0.427961
0.419945
0.412135
0.404537
0.397126
0.389859
0.382897
0.376795
0.571993
0.560553
0.554837
0.550983
0.546609
0.541227
0.534773
0.527374
0.51924
0.510583
0.501587
0.492402
0.483142
0.473897
0.464734
0.455704
0.446842
0.438176
0.429723
0.4215
0.413512
0.405737
0.398139
0.390848
0.384293
0.592581
0.580686
0.574306
0.569588
0.564252
0.557896
0.550509
0.542235
0.533292
0.523889
0.514207
0.504387
0.494541
0.484753
0.475085
0.465584
0.456282
0.447204
0.438364
0.429776
0.421442
0.413345
0.405457
0.397873
0.390914
0.610441
0.598149
0.591188
0.585716
0.57954
0.572337
0.564137
0.555104
0.545458
0.535408
0.525129
0.514759
0.504405
0.494145
0.484039
0.474129
0.464446
0.455011
0.445836
0.436931
0.428298
0.419923
0.411784
0.403945
0.396634
0.625478
0.612851
0.605399
0.599288
0.592401
0.584482
0.575597
0.565923
0.555684
0.545089
0.534307
0.523474
0.512691
0.502034
0.491559
0.481305
0.471302
0.461566
0.452109
0.442938
0.434054
0.425445
0.417095
0.409042
0.401433
0.637616
0.624719
0.616867
0.610237
0.602774
0.594276
0.584837
0.574644
0.563927
0.55289
0.541703
0.530495
0.519366
0.508388
0.497615
0.487084
0.476821
0.466843
0.457158
0.447773
0.438686
0.42989
0.42137
0.413143
0.405293
0.646793
0.63369
0.625534
0.61851
0.61061
0.601673
0.591813
0.581229
0.570149
0.558778
0.547283
0.535792
0.524401
0.51318
0.502182
0.491441
0.480983
0.470821
0.460965
0.451417
0.442177
0.433239
0.424592
0.416233
0.4082
0.65296
0.639718
0.631358
0.624068
0.615873
0.60664
0.596496
0.585647
0.574322
0.562727
0.551025
0.539343
0.527775
0.516391
0.505241
0.494359
0.483769
0.473484
0.463512
0.453856
0.444513
0.43548
0.426746
0.418299
0.410143
0.656086
0.642774
0.634308
0.626882
0.618536
0.609151
0.598863
0.587879
0.576429
0.564719
0.552911
0.541132
0.529474
0.518007
0.50678
0.495826
0.485169
0.474821
0.464791
0.455079
0.445684
0.436603
0.427825
0.419334
0.411115
0.656155
0.642841
0.634371
0.62694
0.618588
0.609198
0.598904
0.587914
0.57646
0.564746
0.552934
0.541151
0.529491
0.518021
0.506791
0.495835
0.485176
0.474827
0.464795
0.455082
0.445686
0.436603
0.427825
0.419332
0.411112
0.653166
0.639918
0.631546
0.624241
0.616028
0.606777
0.596617
0.585753
0.574414
0.562807
0.551094
0.539401
0.527825
0.516433
0.505275
0.494387
0.483791
0.473501
0.463524
0.453864
0.444517
0.435481
0.426744
0.418294
0.410135
0.647135
0.63402
0.625846
0.618797
0.610868
0.601902
0.592014
0.581404
0.570301
0.55891
0.547397
0.535889
0.524483
0.513249
0.502238
0.491487
0.481019
0.470848
0.460984
0.45143
0.442184
0.43324
0.424588
0.416224
0.408187
0.638092
0.625178
0.6173
0.610634
0.603131
0.594593
0.585115
0.574888
0.564138
0.553073
0.54186
0.530629
0.519479
0.508482
0.497692
0.487147
0.47687
0.46688
0.457185
0.447789
0.438694
0.42989
0.421364
0.41313
0.405274
0.626083
0.613435
0.60595
0.599793
0.592855
0.584885
0.575951
0.566232
0.555953
0.54532
0.534506
0.523643
0.512833
0.502152
0.491656
0.481383
0.471362
0.461611
0.45214
0.442957
0.434062
0.425444
0.417085
0.409024
0.401407
0.61117
0.598853
0.591853
0.586326
0.580087
0.572822
0.564563
0.555476
0.54578
0.535685
0.525366
0.514961
0.504574
0.494285
0.484153
0.474221
0.464517
0.455063
0.445871
0.436952
0.428305
0.419918
0.411769
0.403921
0.396601
0.593429
0.581505
0.575078
0.570297
0.564888
0.558459
0.551003
0.542666
0.533664
0.524209
0.51448
0.504619
0.494735
0.484913
0.475215
0.465687
0.456361
0.447261
0.438402
0.429796
0.421447
0.413336
0.405436
0.397841
0.390872
0.572952
0.56148
0.555711
0.551784
0.547328
0.541863
0.535331
0.527859
0.519658
0.510942
0.501893
0.49266
0.483357
0.474074
0.464877
0.455816
0.446926
0.438235
0.429761
0.421518
0.413512
0.405721
0.39811
0.390806
0.38424
0.549845
0.538882
0.533848
0.530878
0.527492
0.523109
0.517618
0.511121
0.503823
0.495939
0.487658
0.479133
0.470486
0.461811
0.453179
0.444645
0.436249
0.42802
0.41998
0.412147
0.404531
0.397102
0.389819
0.382844
0.37673
0.524226
0.513825
0.509598
0.507679
0.505472
0.502284
0.497943
0.492525
0.486227
0.479265
0.471834
0.464095
0.456174
0.448173
0.440168
0.432218
0.424369
0.416653
0.409096
0.401719
0.394535
0.387511
0.380594
0.373982
0.368366
0.496229
0.48644
0.483085
0.482302
0.481372
0.479483
0.476395
0.472153
0.466945
0.46099
0.454487
0.447604
0.440477
0.433212
0.425892
0.418581
0.41133
0.404176
0.397146
0.39027
0.38356
0.376981
0.370467
0.364252
0.359177
0.466
0.456869
0.454442
0.454871
0.455308
0.454813
0.45307
0.450094
0.446061
0.44119
0.435688
0.429729
0.423457
0.416985
0.410404
0.403784
0.397179
0.390631
0.384173
0.377838
0.371643
0.365547
0.359472
0.353686
0.349192
0.433696
0.425266
0.423816
0.425522
0.427403
0.428386
0.428074
0.426446
0.423664
0.419949
0.415513
0.410539
0.405179
0.399554
0.393762
0.387878
0.381963
0.376063
0.370217
0.364462
0.35882
0.353245
0.347644
0.342316
0.338441
0.399487
0.391796
0.391364
0.394398
0.397792
0.400325
0.401519
0.40131
0.399848
0.397353
0.394043
0.39011
0.385713
0.380983
0.376023
0.370917
0.365732
0.360519
0.355321
0.350181
0.345128
0.34011
0.335017
0.330176
0.326953
0.363555
0.356637
0.357252
0.361657
0.366615
0.370761
0.373525
0.374799
0.374717
0.373497
0.371365
0.36852
0.365131
0.361337
0.357249
0.352958
0.348536
0.344043
0.339526
0.335033
0.3306
0.326173
0.32162
0.317293
0.314756
0.326089
0.319974
0.321657
0.327462
0.334026
0.339832
0.344218
0.347027
0.348376
0.348479
0.347569
0.345853
0.34351
0.340685
0.337501
0.334054
0.330426
0.326679
0.322869
0.319051
0.315267
0.31146
0.307479
0.30369
0.30187
0.287292
0.282004
0.284767
0.291986
0.300181
0.307684
0.313732
0.318118
0.320937
0.322403
0.32275
0.322195
0.320926
0.319099
0.316842
0.314263
0.311448
0.308469
0.305386
0.302263
0.29915
0.295991
0.29261
0.289381
0.288308
0.247372
0.242932
0.246776
0.25541
0.265249
0.27447
0.282207
0.2882
0.29252
0.295376
0.297006
0.297636
0.297463
0.296651
0.295338
0.29364
0.291652
0.289451
0.287107
0.284691
0.282264
0.279771
0.277012
0.274364
0.27407
0.206545
0.20297
0.207886
0.217923
0.229403
0.240348
0.249789
0.257407
0.263247
0.267511
0.270441
0.272271
0.273205
0.273418
0.273056
0.272243
0.271082
0.26966
0.268053
0.266344
0.264605
0.262788
0.260664
0.25861
0.259128
0.165036
0.162336
0.168306
0.17972
0.192822
0.205484
0.21663
0.225879
0.233247
0.238927
0.243165
0.246199
0.248243
0.24948
0.250065
0.25013
0.249786
0.24913
0.248245
0.247225
0.246159
0.245006
0.243514
0.242054
0.24342
0.123074
0.121256
0.128252
0.141003
0.155693
0.170049
0.182887
0.19376
0.202654
0.209749
0.215292
0.219526
0.222674
0.224925
0.226443
0.227367
0.227816
0.227894
0.227695
0.227323
0.226884
0.226352
0.225453
0.224559
0.226811
0.0808909
0.0799585
0.0879418
0.101976
0.118205
0.134219
0.148723
0.161202
0.171608
0.180107
0.186943
0.192366
0.196602
0.199849
0.202277
0.20403
0.205235
0.206001
0.206428
0.206636
0.206748
0.206747
0.206335
0.20591
0.209077
0.0387235
0.0386741
0.0475987
0.0628502
0.0805553
0.0981742
0.114304
0.128361
0.140255
0.150138
0.158249
0.16484
0.170144
0.174362
0.177669
0.180214
0.182126
0.183516
0.184486