/*--------------------------------*- C++ -*----------------------------------*\
  =========                 |
  \\      /  F ield         | OpenFOAM: The Open Source CFD Toolbox
   \\    /   O peration     | Website:  https://openfoam.org
    \\  /    A nd           | Version:  6.0
     \\/     M anipulation  |
\*---------------------------------------------------------------------------*/
FoamFile
{
    version     2.0;
    format      ascii;
    class       surfaceScalarField;
    location    "32";
    object      phi;
}
// * * * * * * * * * * * * * * * * * * * * * * * * * * * * * * * * * * * * * //

dimensions      [0 3 -1 0 0 0 0];

internalField   nonuniform List<scalar> 
24700
(
-1.28804e-06
9.04966e-07
3.83073e-07
-4.68358e-06
2.2357e-06
1.15983e-06
-9.78556e-06
3.17252e-06
1.92946e-06
-1.62436e-05
3.7856e-06
2.67246e-06
-2.37568e-05
4.13799e-06
3.3752e-06
-3.20712e-05
4.2843e-06
4.03007e-06
-4.09767e-05
4.27143e-06
4.63404e-06
-5.03035e-05
4.13951e-06
5.18736e-06
-5.99189e-05
3.92282e-06
5.69259e-06
-6.97234e-05
3.65077e-06
6.15371e-06
-7.96476e-05
3.34872e-06
6.57548e-06
-8.96492e-05
3.03867e-06
6.96288e-06
-9.97098e-05
2.73981e-06
7.32083e-06
-0.000109832
2.46878e-06
7.65389e-06
-0.000120039
2.23994e-06
7.96622e-06
-0.000130366
2.06544e-06
8.26149e-06
-0.000140864
1.95523e-06
8.54293e-06
-0.000151594
1.91702e-06
8.81336e-06
-0.000162626
1.95626e-06
9.07528e-06
-0.000174033
2.07613e-06
9.33093e-06
-0.000185893
2.27753e-06
9.58234e-06
-0.000198283
2.5591e-06
9.83148e-06
-0.000211281
2.91726e-06
1.00802e-05
-0.000224958
3.34747e-06
1.033e-05
3.84584e-06
1.05826e-05
-0.000239386
-1.29447e-06
2.19944e-06
-4.70501e-06
5.64624e-06
-9.82698e-06
8.29449e-06
-1.6307e-05
1.02656e-05
-2.38414e-05
1.16725e-05
-3.21742e-05
1.26171e-05
-4.10931e-05
1.31903e-05
-5.04265e-05
1.34729e-05
-6.00395e-05
1.35359e-05
-6.9831e-05
1.34422e-05
-7.97296e-05
1.32474e-05
-8.96914e-05
1.30004e-05
-9.96964e-05
1.27448e-05
-0.000109746
1.25186e-05
-0.000119861
1.23549e-05
-0.000130078
1.22821e-05
-0.000140446
1.23237e-05
-0.000151028
1.24985e-05
-0.000161892
1.28204e-05
-0.000173114
1.32983e-05
-0.000184773
1.39367e-05
-0.000196949
1.47352e-05
-0.000209721
1.56886e-05
-0.000223163
1.67897e-05
1.80324e-05
-0.000237349
-1.30015e-06
3.49959e-06
-4.72254e-06
9.06863e-06
-9.85786e-06
1.34298e-05
-1.63486e-05
1.67564e-05
-2.38877e-05
1.92116e-05
-3.22156e-05
2.09449e-05
-4.11169e-05
2.20916e-05
-5.04166e-05
2.27726e-05
-5.99768e-05
2.30961e-05
-6.96927e-05
2.31581e-05
-7.94897e-05
2.30443e-05
-8.93202e-05
2.28309e-05
-9.9161e-05
2.25856e-05
-0.000109011
2.23683e-05
-0.000118887
2.22315e-05
-0.000128825
2.22202e-05
-0.000138874
2.23723e-05
-0.000149094
2.27187e-05
-0.000159556
2.32825e-05
-0.000170338
2.40797e-05
-0.00018152
2.5119e-05
-0.000193187
2.64018e-05
-0.00020542
2.79222e-05
-0.000218301
2.96704e-05
3.16384e-05
-0.000231907
-1.30514e-06
4.80473e-06
-4.73625e-06
1.24997e-05
-9.87832e-06
1.85719e-05
-1.63689e-05
2.32469e-05
-2.38962e-05
2.67389e-05
-3.21965e-05
2.92452e-05
-4.10502e-05
3.09453e-05
-5.02781e-05
3.20005e-05
-5.97374e-05
3.25554e-05
-6.93186e-05
3.27393e-05
-7.8942e-05
3.26676e-05
-8.85548e-05
3.24437e-05
-9.81288e-05
3.21597e-05
-0.000107658
3.18975e-05
-0.000117156
3.17295e-05
-0.000126654
3.17185e-05
-0.0001362
3.19181e-05
-0.000145854
3.23721e-05
-0.000155686
3.31147e-05
-0.000165776
3.41704e-05
-0.000176211
3.55536e-05
-0.000187078
3.72688e-05
-0.000198466
3.93106e-05
-0.000210464
4.16675e-05
4.43298e-05
-0.000223155
-1.30956e-06
6.1143e-06
-4.74636e-06
1.59365e-05
-9.88866e-06
2.37142e-05
-1.63681e-05
2.97263e-05
-2.38678e-05
3.42386e-05
-3.21189e-05
3.74964e-05
-4.0897e-05
3.97234e-05
-5.00173e-05
4.11209e-05
-5.93316e-05
4.18697e-05
-6.87239e-05
4.21317e-05
-7.8108e-05
4.20517e-05
-8.74242e-05
4.17599e-05
-9.66375e-05
4.13729e-05
-0.000105735
4.09951e-05
-0.000114725
4.07193e-05
-0.000123634
4.06272e-05
-0.000132505
4.07893e-05
-0.000141397
4.12643e-05
-0.000150382
4.20997e-05
-0.000159542
4.33302e-05
-0.000168967
4.49784e-05
-0.000178752
4.70541e-05
-0.000188995
4.95539e-05
-0.000199794
5.2466e-05
5.57797e-05
-0.000211244
-1.31352e-06
7.42782e-06
-4.753e-06
1.9376e-05
-9.88897e-06
2.88501e-05
-1.63466e-05
3.61839e-05
-2.38031e-05
4.16951e-05
-3.19845e-05
4.56778e-05
-4.06605e-05
4.83994e-05
-4.96407e-05
5.01011e-05
-5.87701e-05
5.0999e-05
-6.79253e-05
5.12869e-05
-7.70121e-05
5.11385e-05
-8.59624e-05
5.07102e-05
-9.47321e-05
5.01427e-05
-0.0001033
4.95631e-05
-0.000111666
4.90853e-05
-0.00011985
4.8811e-05
-0.00012789
4.88292e-05
-0.000135841
4.92161e-05
-0.000143776
5.00343e-05
-0.000151778
5.13324e-05
-0.000159944
5.31438e-05
-0.000168376
5.54865e-05
-0.000177184
5.83618e-05
-0.000186478
6.17601e-05
6.56704e-05
-0.000196369
-1.31703e-06
8.74485e-06
-4.75597e-06
2.28149e-05
-9.87863e-06
3.39728e-05
-1.63031e-05
4.26084e-05
-2.3701e-05
4.90929e-05
-3.17923e-05
5.37692e-05
-4.03414e-05
5.69485e-05
-4.91514e-05
5.89111e-05
-5.80602e-05
5.99077e-05
-6.69362e-05
6.01629e-05
-7.56759e-05
5.98783e-05
-8.42012e-05
5.92354e-05
-9.24573e-05
5.83988e-05
-0.000100412
5.75179e-05
-0.000108055
5.67283e-05
-0.000115397
5.61525e-05
-0.000122467
5.59e-05
-0.000129318
5.60667e-05
-0.000136018
5.6734e-05
-0.000142653
5.79674e-05
-0.000149325
5.98156e-05
-0.000156147
6.23086e-05
-0.000163241
6.54565e-05
-0.000170736
6.92547e-05
7.3695e-05
-0.00017876
-1.31994e-06
1.00648e-05
-4.75445e-06
2.62495e-05
-9.85573e-06
3.90741e-05
-1.62347e-05
4.89874e-05
-2.35569e-05
5.64152e-05
-3.15373e-05
6.17496e-05
-3.99346e-05
6.53458e-05
-4.85457e-05
6.75222e-05
-5.72011e-05
6.85631e-05
-6.57608e-05
6.87226e-05
-7.41111e-05
6.82286e-05
-8.21625e-05
6.72867e-05
-8.98478e-05
6.60841e-05
-9.71218e-05
6.47919e-05
-0.000103961
6.35674e-05
-0.000110363
6.25547e-05
-0.000116348
6.18855e-05
-0.00012196
6.1678e-05
-0.000127262
6.20359e-05
-0.000132341
6.30464e-05
-0.000137303
6.47783e-05
-0.000142274
6.72793e-05
-0.000147391
7.05736e-05
-0.000152804
7.4667e-05
7.95577e-05
-0.000158666
-1.32185e-06
1.13866e-05
-4.74674e-06
2.96743e-05
-9.81656e-06
4.41439e-05
-1.6135e-05
5.53058e-05
-2.3362e-05
6.36422e-05
-3.12079e-05
6.95954e-05
-3.94264e-05
7.35643e-05
-4.78088e-05
7.59046e-05
-5.61788e-05
7.69331e-05
-6.43876e-05
7.69315e-05
-7.23113e-05
7.61523e-05
-7.98479e-05
7.48234e-05
-8.69166e-05
7.31528e-05
-9.34569e-05
7.13322e-05
-9.94293e-05
6.95397e-05
-0.000104816
6.79416e-05
-0.000109624
6.66928e-05
-0.000113882
6.59364e-05
-0.000117648
6.58023e-05
-0.000121006
6.64045e-05
-0.000124067
6.78384e-05
-0.000126964
7.01766e-05
-0.000129855
7.3465e-05
-0.000132916
7.77273e-05
8.29743e-05
-0.000136332
-1.32203e-06
1.27087e-05
-4.7301e-06
3.30824e-05
-9.75516e-06
4.9169e-05
-1.59939e-05
6.15445e-05
-2.31014e-05
7.07498e-05
-3.07841e-05
7.72781e-05
-3.87918e-05
8.1572e-05
-4.69113e-05
8.40242e-05
-5.49602e-05
8.4982e-05
-6.27821e-05
8.47533e-05
-7.02426e-05
8.36128e-05
-7.72277e-05
8.18084e-05
-8.36415e-05
7.95666e-05
-8.94066e-05
7.70974e-05
-9.44653e-05
7.45984e-05
-9.87808e-05
7.22571e-05
-0.00010234
7.02524e-05
-0.000105158
6.87543e-05
-0.000107279
6.79225e-05
-0.000108778
6.79037e-05
-0.000109767
6.88273e-05
-0.00011039
7.08001e-05
-0.000110825
7.38999e-05
-0.000111277
7.81792e-05
8.36714e-05
-0.000111974
-1.31943e-06
1.40281e-05
-4.70056e-06
3.64635e-05
-9.66307e-06
5.41315e-05
-1.57969e-05
6.76784e-05
-2.27533e-05
7.77061e-05
-3.02358e-05
8.47606e-05
-3.79918e-05
8.9328e-05
-4.58051e-05
9.18374e-05
-5.34886e-05
9.26655e-05
-6.08795e-05
9.21442e-05
-6.78346e-05
9.0568e-05
-7.4228e-05
8.82018e-05
-7.9949e-05
8.52876e-05
-8.49026e-05
8.2051e-05
-8.90104e-05
7.87062e-05
-9.22135e-05
7.54603e-05
-9.44761e-05
7.2515e-05
-9.57901e-05
7.00683e-05
-9.61807e-05
6.83131e-05
-9.5711e-05
6.7434e-05
-9.4487e-05
6.76034e-05
-9.266e-05
6.8973e-05
-9.04265e-05
7.16665e-05
-8.80273e-05
7.578e-05
8.13852e-05
-8.57411e-05
-1.31265e-06
1.53408e-05
-4.65298e-06
3.98039e-05
-9.52924e-06
5.90077e-05
-1.55252e-05
7.36744e-05
-2.22888e-05
8.44698e-05
-2.95223e-05
9.1994e-05
-3.69721e-05
9.67779e-05
-4.44207e-05
9.9286e-05
-5.16786e-05
9.99234e-05
-5.85787e-05
9.90442e-05
-6.49709e-05
9.69602e-05
-7.07191e-05
9.395e-05
-7.56991e-05
9.02677e-05
-7.97986e-05
8.61504e-05
-8.29177e-05
8.18254e-05
-8.4973e-05
7.75155e-05
-8.59013e-05
7.34433e-05
-8.56668e-05
6.98338e-05
-8.4268e-05
6.69143e-05
-8.17467e-05
6.49128e-05
-7.81959e-05
6.40526e-05
-7.37669e-05
6.4544e-05
-6.86736e-05
6.65732e-05
-6.31947e-05
7.0301e-05
7.58601e-05
-5.76696e-05
-1.29999e-06
1.66407e-05
-4.58121e-06
4.30851e-05
-9.34036e-06
6.37669e-05
-1.51554e-05
7.94894e-05
-2.16719e-05
9.09863e-05
-2.85918e-05
9.89139e-05
-3.56622e-05
0.000103848
-4.26662e-05
0.00010629
-4.94143e-05
0.000106672
-5.57377e-05
0.000105368
-6.14822e-05
0.000102705
-6.65047e-05
9.89725e-05
-7.06702e-05
9.44331e-05
-7.38507e-05
8.93309e-05
-7.59262e-05
8.39009e-05
-7.67878e-05
7.83771e-05
-7.63426e-05
7.29981e-05
-7.45212e-05
6.80125e-05
-7.12883e-05
6.36814e-05
-6.66541e-05
6.02785e-05
-6.06878e-05
5.80863e-05
-5.35306e-05
5.73868e-05
-4.54071e-05
5.84496e-05
-3.66336e-05
6.15276e-05
6.68475e-05
-2.7621e-05
-1.27958e-06
1.79203e-05
-4.47834e-06
4.62838e-05
-9.08139e-06
6.83699e-05
-1.4661e-05
8.5069e-05
-2.08607e-05
9.71861e-05
-2.73829e-05
0.000105436
-3.39767e-05
0.000110442
-4.04277e-05
0.000112741
-4.65486e-05
0.000112792
-5.21717e-05
0.000110991
-5.71426e-05
0.000107676
-6.1315e-05
0.000103145
-6.45471e-05
9.76652e-05
-6.66998e-05
9.14835e-05
-6.76362e-05
8.48373e-05
-6.72239e-05
7.79649e-05
-6.53401e-05
7.11142e-05
-6.1879e-05
6.45514e-05
-5.67644e-05
5.85668e-05
-4.99645e-05
5.34786e-05
-4.15111e-05
4.9633e-05
-3.15211e-05
4.73968e-05
-2.02168e-05
4.71454e-05
-7.9475e-06
4.92583e-05
5.41033e-05
4.79674e-06
-1.24952e-06
1.91698e-05
-4.33728e-06
4.93716e-05
-8.73649e-06
7.27691e-05
-1.40133e-05
9.03458e-05
-1.98091e-05
0.000102982
-2.58269e-05
0.000111454
-3.18184e-05
0.000116434
-3.75725e-05
0.000118495
-4.29063e-05
0.000118126
-4.7656e-05
0.00011574
-5.16704e-05
0.00011169
-5.48049e-05
0.000106279
-5.69166e-05
9.97769e-05
-5.78612e-05
9.24281e-05
-5.74914e-05
8.44675e-05
-5.56573e-05
7.61308e-05
-5.22099e-05
6.76668e-05
-4.70081e-05
5.93497e-05
-3.99312e-05
5.14899e-05
-3.08967e-05
4.4444e-05
-1.98845e-05
3.86208e-05
-6.96789e-06
3.44802e-05
7.65198e-06
3.25255e-05
2.36069e-05
3.33034e-05
3.73855e-05
4.03246e-05
-1.20806e-06
2.03779e-05
-4.15126e-06
5.23148e-05
-8.29012e-06
7.6908e-05
-1.31836e-05
9.52392e-05
-1.84698e-05
0.000108268
-2.38515e-05
0.000116836
-2.90822e-05
0.000121664
-3.39547e-05
0.000123368
-3.82909e-05
0.000122462
-4.19329e-05
0.000119382
-4.47359e-05
0.000114493
-4.65614e-05
0.000108105
-4.72717e-05
0.000100487
-4.67253e-05
9.18818e-05
-4.47737e-05
8.25159e-05
-4.12594e-05
7.26165e-05
-3.60169e-05
6.24243e-05
-2.88772e-05
5.221e-05
-1.96783e-05
4.2291e-05
-8.28306e-06
3.30488e-05
5.39261e-06
2.49451e-05
2.134e-05
1.85328e-05
3.94067e-05
1.44588e-05
5.92306e-05
1.34794e-05
1.64506e-05
8.01656e-05
-1.15382e-06
2.15317e-05
-3.91446e-06
5.50755e-05
-7.72826e-06
8.07218e-05
-1.21449e-05
9.96558e-05
-1.67969e-05
0.00011292
-2.13847e-05
0.000121423
-2.56618e-05
0.000125941
-2.94232e-05
0.000127129
-3.24947e-05
0.000125534
-3.47247e-05
0.000121612
-3.5976e-05
0.000115744
-3.61198e-05
0.000108249
-3.50293e-05
9.93966e-05
-3.25742e-05
8.94267e-05
-2.8616e-05
7.85577e-05
-2.30036e-05
6.70041e-05
-1.55708e-05
5.49915e-05
-6.13666e-06
4.27758e-05
5.48896e-06
3.06654e-05
1.9491e-05
1.90467e-05
3.60216e-05
8.41443e-06
5.51552e-05
-6.00829e-07
7.68206e-05
-7.20653e-06
0.000100703
-1.04025e-05
-8.95438e-06
0.000126107
-1.08592e-06
2.26176e-05
-3.62253e-06
5.76121e-05
-7.03944e-06
8.41387e-05
-1.08737e-05
0.00010349
-1.47492e-05
0.000116796
-1.83599e-05
0.000125034
-2.14559e-05
0.000129037
-2.38307e-05
0.000129504
-2.53113e-05
0.000127015
-2.57497e-05
0.000122051
-2.50157e-05
0.00011501
-2.29908e-05
0.000106224
-1.95624e-05
9.59683e-05
-1.46185e-05
8.44828e-05
-8.04189e-06
7.19811e-05
2.96178e-07
5.8666e-05
1.05415e-05
4.47462e-05
2.28618e-05
3.04555e-05
3.74487e-05
1.60785e-05
5.45118e-05
1.98367e-06
7.42588e-05
-1.13326e-05
9.68528e-05
-2.31948e-05
0.000122335
-3.26891e-05
0.000150494
-3.85608e-05
-3.91042e-05
0.000180643
-1.0041e-06
2.36217e-05
-3.27291e-06
5.98809e-05
-6.21544e-06
8.70813e-05
-9.35183e-06
0.000106626
-1.22921e-05
0.000119736
-1.4719e-05
0.000127461
-1.63737e-05
0.000130692
-1.70429e-05
0.000130173
-1.65488e-05
0.00012652
-1.47419e-05
0.000120244
-1.14942e-05
0.000111763
-6.69464e-06
0.000101424
-2.44386e-07
8.9518e-05
7.9475e-06
7.62909e-05
1.7969e-05
6.19595e-05
2.99116e-05
4.67235e-05
4.38775e-05
3.07803e-05
5.99894e-05
1.43436e-05
7.84001e-05
-2.33228e-06
9.92995e-05
-1.89157e-05
0.000122911
-3.49439e-05
0.000149464
-4.97484e-05
0.000179129
-6.23533e-05
0.000211857
-7.12887e-05
-7.43201e-05
0.000247073
-9.08703e-07
2.45304e-05
-2.86479e-06
6.1837e-05
-5.25138e-06
8.94678e-05
-7.56598e-06
0.000108941
-9.39878e-06
0.000121569
-1.04151e-05
0.000128477
-1.03398e-05
0.000130617
-8.94509e-06
0.000128778
-6.04069e-06
0.000123616
-1.46697e-06
0.00011567
4.90999e-06
0.000105386
1.32017e-05
9.31324e-05
2.34997e-05
7.92201e-05
3.58771e-05
6.39135e-05
5.03915e-05
4.74451e-05
6.70887e-05
3.00263e-05
8.6009e-05
1.18601e-05
0.000107197
-6.84472e-06
0.000130719
-2.58539e-05
0.000156679
-4.48754e-05
0.00018524
-6.35056e-05
0.000216633
-8.11411e-05
0.000251121
-9.68413e-05
0.000288872
-0.00010904
-0.000115012
0.000329564
-8.0054e-07
2.5331e-05
-2.39872e-06
6.34351e-05
-4.14494e-06
9.12141e-05
-5.50735e-06
0.000110304
-6.04942e-06
0.000122111
-5.41126e-06
0.000127839
-3.29355e-06
0.000128499
5.55214e-07
0.000124929
6.34799e-06
0.000117823
1.42653e-05
0.000107753
2.4459e-05
9.51921e-05
3.70532e-05
8.05382e-05
5.21444e-05
6.41289e-05
6.97997e-05
4.62582e-05
9.00553e-05
2.71895e-05
0.000112915
7.16671e-06
0.000138351
-1.35759e-05
0.00016631
-3.48035e-05
0.000196725
-5.6269e-05
0.000229541
-7.76921e-05
0.000264755
-9.87195e-05
0.000302462
-0.000118848
0.000342904
-0.000137283
0.000386445
-0.000152581
-0.000161728
0.000433162
-6.80589e-07
2.60115e-05
-1.8757e-06
6.46303e-05
-2.89481e-06
9.22332e-05
-3.16912e-06
0.000110578
-2.22777e-06
0.000121169
3.2239e-07
0.000125289
4.81386e-06
0.000124008
1.15316e-05
0.000118212
2.07224e-05
0.000108633
3.25999e-05
9.58753e-05
4.73476e-05
8.04444e-05
6.5118e-05
6.27679e-05
8.60297e-05
4.32172e-05
0.000110163
2.21249e-05
0.000137553
-2.00277e-07
0.000168181
-2.34612e-05
0.000201967
-4.73624e-05
0.000238766
-7.16018e-05
0.000278361
-9.58641e-05
0.000320483
-0.000119814
0.000364843
-0.00014308
0.00041121
-0.000165215
0.000459544
-0.000185617
0.000510184
-0.000203222
-0.00021527
0.000563727
-5.4961e-07
2.65612e-05
-1.29602e-06
6.53767e-05
-1.49839e-06
9.24355e-05
-5.42913e-07
0.000109622
2.08352e-06
0.000118543
6.81552e-06
0.000120557
1.40276e-05
0.000116796
2.40477e-05
0.000108191
3.71671e-05
9.55132e-05
5.36445e-05
7.93978e-05
7.37087e-05
6.03803e-05
9.75562e-05
3.89204e-05
0.000125347
1.5426e-05
0.000157199
-9.72648e-06
0.000193173
-3.61746e-05
0.000233265
-6.35536e-05
0.000277386
-9.14832e-05
0.000325339
-0.000119555
0.000376798
-0.000147323
0.000431283
-0.000174299
0.000488157
-0.000199954
0.000546667
-0.000223725
0.000606088
-0.000245037
0.00066614
-0.000263274
-0.000277367
0.000728237
-4.07678e-07
2.69688e-05
-6.57822e-07
6.56268e-05
5.08507e-08
9.17269e-05
2.38543e-06
0.000107288
6.90904e-06
0.000114019
1.41055e-05
0.000113361
2.43992e-05
0.000106502
3.81698e-05
9.44209e-05
5.57611e-05
7.79219e-05
7.74866e-05
5.76724e-05
0.00010363
3.42366e-05
0.000134445
8.1055e-06
0.000170149
-2.02775e-05
0.000210916
-5.04934e-05
0.000256868
-8.21267e-05
0.00030806
-0.000114746
0.000364459
-0.000147883
0.000425915
-0.000181011
0.000492113
-0.000213521
0.000562506
-0.000244692
0.000636221
-0.00027367
0.000711956
-0.00029946
0.000787912
-0.000320993
0.000862185
-0.000337547
-0.000352254
0.000937072
-2.53734e-07
2.72226e-05
4.42377e-08
6.53288e-05
1.76597e-06
9.00051e-05
5.63993e-06
0.000103414
1.22865e-05
0.000107373
2.22456e-05
0.000103401
3.59979e-05
9.27494e-05
5.39803e-05
7.64386e-05
7.65945e-05
5.53077e-05
0.000104212
3.00545e-05
0.000137177
1.27219e-06
0.0001758
-3.05179e-05
0.000220362
-6.4839e-05
0.000271103
-0.000101235
0.000328226
-0.000139249
0.000391883
-0.000178403
0.000462177
-0.000218177
0.000539149
-0.000257982
0.000622755
-0.000297127
0.000712821
-0.000334758
0.000808933
-0.000369782
0.000910198
-0.000400725
0.00101455
-0.000425349
0.00111691
-0.0004399
-0.000440081
0.00120473
-8.57411e-08
2.73083e-05
8.19197e-07
6.44239e-05
3.66753e-06
8.71568e-05
9.25655e-06
9.78248e-05
1.82703e-05
9.83591e-05
3.131e-05
9.03617e-05
4.8917e-05
7.51425e-05
7.15871e-05
5.37685e-05
9.97798e-05
2.71149e-05
0.000133922
-4.08745e-06
0.000174407
-3.92128e-05
0.000221595
-7.7706e-05
0.00027581
-0.000119055
0.000337343
-0.000162768
0.00040645
-0.000208356
0.000483367
-0.00025532
0.000568329
-0.000303139
0.000661608
-0.000351261
0.000763582
-0.000399101
0.000874859
-0.000446034
0.000996485
-0.000491407
0.0011303
-0.000534542
0.00127978
-0.00057483
0.0014525
-0.00061262
-0.000653108
0.00166553
1.01305e-07
2.7207e-05
1.68336e-06
6.28419e-05
5.78816e-06
8.3052e-05
1.32883e-05
9.03246e-05
2.49367e-05
8.67107e-05
4.13992e-05
7.38992e-05
6.32785e-05
5.32632e-05
9.11275e-05
2.59195e-05
0.000125456
-7.21357e-06
0.000166732
-4.53635e-05
0.00021538
-8.78607e-05
0.000271777
-0.000134103
0.000336253
-0.00018353
0.000409086
-0.000235601
0.000490514
-0.000289784
0.000580744
-0.00034555
0.000679981
-0.000402376
0.000788467
-0.000459747
0.000906547
-0.000517181
0.00103477
-0.000574257
0.00117403
-0.000630663
0.00132574
-0.000686256
0.00149208
-0.00074117
0.00167555
-0.000796093
-0.000850806
0.00187325
3.1264e-07
2.68944e-05
2.6554e-06
6.04991e-05
8.1663e-06
7.75411e-05
1.77981e-05
8.06928e-05
3.23756e-05
7.21333e-05
5.26305e-05
5.36443e-05
7.92235e-05
2.66702e-05
0.000112756
-7.61341e-06
0.000153774
-4.82315e-05
0.000202763
-9.43526e-05
0.000260145
-0.000145242
0.000326268
-0.000200227
0.000401407
-0.000258668
0.000485754
-0.000319948
0.000579428
-0.000383458
0.000682484
-0.000448606
0.000794926
-0.000514818
0.000916742
-0.000581563
0.00104793
-0.000648373
0.00118855
-0.000714878
0.00133875
-0.000780857
0.00149876
-0.000846266
0.00166883
-0.000911244
0.00184865
-0.00097591
-0.00103723
0.00203508
5.55269e-07
2.63391e-05
3.75851e-06
5.72959e-05
1.08478e-05
7.04518e-05
2.28588e-05
6.86818e-05
4.06887e-05
5.43033e-05
6.51319e-05
2.92011e-05
9.68996e-05
-5.09747e-06
0.000136627
-4.73406e-05
0.00018487
-9.64749e-05
0.0002421
-0.000151582
0.000308689
-0.000211831
0.0003849
-0.000276438
0.00047088
-0.000344649
0.000566654
-0.000415722
0.000672126
-0.00048893
0.000787087
-0.000563567
0.000911229
-0.00063896
0.00104416
-0.000714494
0.00118542
-0.000789634
0.0013345
-0.000863957
0.00149082
-0.000937177
0.00165371
-0.00100916
0.00182233
-0.00107986
0.00199542
-0.001149
-0.00121261
0.0021708
8.3697e-07
2.55021e-05
5.01792e-06
5.31149e-05
1.38815e-05
6.15882e-05
2.8546e-05
5.40174e-05
4.9978e-05
3.28713e-05
7.90267e-05
1.52361e-07
0.000116439
-4.25097e-05
0.00016286
-9.37612e-05
0.000218823
-0.000152438
0.000284737
-0.000217497
0.000360869
-0.000287963
0.000447329
-0.000362898
0.00054406
-0.00044138
0.000650835
-0.000522497
0.000767262
-0.000605356
0.000892789
-0.000689094
0.00102673
-0.000772897
0.00116826
-0.000856028
0.00131647
-0.000937847
0.00147035
-0.00101784
0.00162878
-0.00109561
0.00179054
-0.00117091
0.00195426
-0.00124358
0.00211842
-0.00131317
-0.00137574
0.00228155
1.16569e-06
2.43364e-05
6.45884e-06
4.78218e-05
1.73151e-05
5.0732e-05
3.49308e-05
3.64017e-05
6.03343e-05
7.46778e-06
9.44154e-05
-3.39288e-05
0.000137933
-8.60276e-05
0.000191509
-0.000147337
0.000255609
-0.000216538
0.000330523
-0.000292411
0.000416344
-0.000373784
0.000512955
-0.000459509
0.000620019
-0.000548444
0.000736983
-0.000639462
0.000863092
-0.000731465
0.000997407
-0.000823409
0.00113884
-0.000914326
0.00128616
-0.00100335
0.00143808
-0.00108976
0.0015932
-0.00117295
0.00175009
-0.0012525
0.00190726
-0.00132809
0.00206321
-0.00139953
0.00221646
-0.00146642
-0.0015254
0.00236612
1.5489e-06
2.27875e-05
8.10431e-06
4.12664e-05
2.11903e-05
3.7646e-05
4.20719e-05
1.552e-05
7.18252e-05
-2.22855e-05
0.000111358
-7.34618e-05
0.00016141
-0.000136079
0.000222532
-0.000208459
0.000295066
-0.000289072
0.000379114
-0.000376459
0.000474524
-0.000469194
0.000580873
-0.000565858
0.000697473
-0.000665044
0.000823388
-0.000765377
0.000957463
-0.00086554
0.00109836
-0.000964308
0.00124462
-0.00106058
0.00139468
-0.00115341
0.00154695
-0.00124203
0.00169985
-0.00132585
0.00185182
-0.00140447
0.00200136
-0.00147763
0.00214707
-0.00154524
0.00228772
-0.00160707
-0.00166052
0.00242284
1.99308e-06
2.07945e-05
9.97331e-06
3.32861e-05
2.5539e-05
2.20803e-05
5.00088e-05
-8.94971e-06
8.4484e-05
-5.67607e-05
0.000129859
-0.000118837
0.000186809
-0.000193029
0.00025576
-0.00027741
0.000336859
-0.000370171
0.000429947
-0.000469548
0.000534547
-0.000573794
0.000649861
-0.000681171
0.000774795
-0.000789977
0.000907995
-0.000898577
0.0010479
-0.00100545
0.00119282
-0.00110923
0.00134098
-0.00120874
0.00149059
-0.00130303
0.00163994
-0.00139138
0.0017874
-0.00147331
0.00193149
-0.00154855
0.00207088
-0.00161703
0.00220445
-0.00167881
0.00233133
-0.00173395
-0.00178066
0.00245147
2.50321e-06
1.82912e-05
1.20791e-05
2.37102e-05
3.03801e-05
3.77927e-06
5.87553e-05
-3.73249e-05
9.8301e-05
-9.63064e-05
0.000149856
-0.000170392
0.000213974
-0.000257147
0.000290887
-0.000354323
0.000380473
-0.000459757
0.000482233
-0.000571308
0.000595292
-0.000686852
0.00071842
-0.0008043
0.000850087
-0.000921644
0.000988523
-0.00103701
0.00113181
-0.00114873
0.00127795
-0.00125537
0.00142499
-0.00135578
0.00157107
-0.0014491
0.00171447
-0.00153479
0.00185371
-0.00161256
0.00198754
-0.00168238
0.00211495
-0.00174444
0.0022352
-0.00179906
0.00234784
-0.00184659
-0.00188602
0.0024532
3.08259e-06
1.52087e-05
1.44284e-05
1.23644e-05
3.57168e-05
-1.75091e-05
6.82965e-05
-6.99046e-05
0.000113218
-0.000141228
0.00017121
-0.000228384
0.000242638
-0.000328575
0.000327465
-0.00043915
0.000425217
-0.000557508
0.000534979
-0.00068107
0.000655422
-0.000807295
0.000784853
-0.000933732
0.000921307
-0.0010581
0.00106264
-0.00117835
0.00120665
-0.00129274
0.00135117
-0.0013999
0.00149419
-0.0014988
0.00163392
-0.00158883
0.00176883
-0.00166969
0.0018977
-0.00174142
0.00201962
-0.0018043
0.002134
-0.00185882
0.00224053
-0.00190559
0.00233917
-0.00194523
-0.0019774
0.00243055
3.73267e-06
1.1476e-05
1.70205e-05
-9.23483e-07
4.15354e-05
-4.2024e-05
7.8586e-05
-0.000106955
0.000129125
-0.000191767
0.000193707
-0.000292965
0.000272433
-0.000407301
0.000364911
-0.000531629
0.000470241
-0.000662838
0.00058703
-0.000797859
0.000713457
-0.000933722
0.00084737
-0.00106764
0.000986408
-0.00119714
0.00112814
-0.00132008
0.0012702
-0.0014348
0.0014104
-0.00154009
0.00154682
-0.00163522
0.00167788
-0.00171989
0.00180237
-0.00179418
0.00191944
-0.0018585
0.00202861
-0.00191347
0.0021297
-0.0019599
0.0022228
-0.00199868
0.00230824
-0.00203067
-0.00205605
0.0023869
4.45303e-06
7.02296e-06
1.98473e-05
-1.63178e-05
4.78051e-05
-6.99818e-05
8.95455e-05
-0.000148696
0.000145862
-0.000248083
0.000217058
-0.000364161
0.000302889
-0.000493132
0.000402528
-0.000631268
0.000514578
-0.000774888
0.000637127
-0.000920409
0.000767862
-0.00106446
0.00090421
-0.00120399
0.0010435
-0.00133643
0.00118314
-0.00145972
0.00132074
-0.0015724
0.00145423
-0.00167358
0.00158194
-0.00176293
0.00170263
-0.00184058
0.00181549
-0.00190704
0.0019201
-0.00196311
0.00201639
-0.00200976
0.00210457
-0.00204809
0.00218509
-0.0020792
0.00225856
-0.00210414
-0.00212348
0.00232599
5.24144e-06
1.78152e-06
2.28932e-05
-3.39695e-05
5.44776e-05
-0.000101566
0.000101065
-0.000195283
0.000163217
-0.000310235
0.000240906
-0.00044185
0.000333455
-0.000585681
0.000439529
-0.000737342
0.000557184
-0.000892543
0.00068398
-0.0010472
0.000817146
-0.00119762
0.00095377
-0.00134062
0.001091
-0.00147366
0.00122621
-0.00159493
0.00135714
-0.00170333
0.00148201
-0.00179844
0.00159949
-0.00188042
0.00170877
-0.00194987
0.00180948
-0.00200775
0.00190162
-0.00205525
0.00198551
-0.00209365
0.00206168
-0.00212426
0.00213083
-0.00214834
0.00219375
-0.00216707
-0.00218124
0.00225151
6.09387e-06
-4.31235e-06
2.61352e-05
-5.40108e-05
6.14879e-05
-0.000136919
0.000113005
-0.0002468
0.000180937
-0.000378167
0.000264838
-0.00052575
0.000363518
-0.000684361
0.000475075
-0.0008489
0.000596999
-0.00101447
0.000726345
-0.00117655
0.00085996
-0.00133124
0.000994711
-0.00147537
0.0011277
-0.00160665
0.00125645
-0.00172367
0.00137896
-0.00182585
0.00149382
-0.00191331
0.00160017
-0.00198676
0.00169764
-0.00204733
0.00178628
-0.00209639
0.00186648
-0.00213545
0.00193887
-0.00216603
0.00200421
-0.0021896
0.00206336
-0.00220749
0.0021172
-0.00222091
-0.0022308
0.00216676
7.00451e-06
-1.13169e-05
2.95433e-05
-7.65496e-05
6.8755e-05
-0.000176131
0.000125199
-0.000303244
0.000198729
-0.000451697
0.000288393
-0.000615415
0.000392424
-0.000788393
0.000508316
-0.000964791
0.000633002
-0.00113915
0.000763099
-0.00130665
0.000895182
-0.00146332
0.00102604
-0.00160623
0.0011529
-0.00173351
0.00127353
-0.00184431
0.00138636
-0.00193867
0.00149041
-0.00201736
0.00158529
-0.00208165
0.00167107
-0.00213312
0.0017482
-0.00217352
0.00181735
-0.00220461
0.00187939
-0.00222806
0.00193521
-0.00224542
0.00198574
-0.00225802
0.00203187
-0.00226704
-0.00227348
0.00207455
7.96572e-06
-1.92826e-05
3.30803e-05
-0.000101664
7.61829e-05
-0.000219233
0.000137456
-0.000364518
0.000216268
-0.000530509
0.000311087
-0.000710234
0.000419513
-0.000896818
0.000538431
-0.00108371
0.000664268
-0.00126499
0.000793304
-0.00143568
0.000921981
-0.001592
0.00104717
-0.00173142
0.00116634
-0.00185268
0.00127768
-0.00195564
0.00138005
-0.00204105
0.001473
-0.0021103
0.00155656
-0.00216521
0.0016312
-0.00220776
0.00169767
-0.00223999
0.00175688
-0.00226381
0.00180979
-0.00228098
0.00185738
-0.00229301
0.00190058
-0.00230121
0.00194021
-0.00230668
-0.00231038
0.0019771
8.96808e-06
-2.82507e-05
3.67027e-05
-0.000129399
8.36627e-05
-0.000266193
0.000149567
-0.000430422
0.000233213
-0.000614155
0.000332424
-0.000809444
0.000444141
-0.00100854
0.000564672
-0.00120424
0.000690021
-0.00139034
0.000816259
-0.00156192
0.000939849
-0.00171559
0.00105789
-0.00184945
0.00116823
-0.00196302
0.00126953
-0.00205694
0.00136117
-0.00213269
0.00144314
-0.00219227
0.00151589
-0.00223796
0.00158021
-0.00227208
0.00163706
-0.00229684
0.00168748
-0.00231423
0.00173248
-0.00232598
0.00177303
-0.00233357
0.00181
-0.00233818
0.00184414
-0.00234081
-0.00234238
0.00187614
1.00003e-05
-3.8251e-05
4.03605e-05
-0.000159759
9.10741e-05
-0.000316907
0.000161308
-0.000500656
0.000249214
-0.000702061
0.000351921
-0.000912151
0.00046572
-0.00112233
0.000586402
-0.00132492
0.000709667
-0.0015136
0.000831523
-0.00168378
0.000948607
-0.00183267
0.00105837
-0.00195922
0.00115915
-0.0020638
0.0012501
-0.00214789
0.00133109
-0.00221368
0.00140255
-0.00226372
0.00146525
-0.00230067
0.00152021
-0.00232704
0.00156852
-0.00234514
0.00161126
-0.00235697
0.00164946
-0.00236417
0.001684
-0.00236811
0.00171566
-0.00236985
0.00174512
-0.00237026
-0.00237017
0.00177291
1.10494e-05
-4.93004e-05
4.3999e-05
-0.000192709
9.82891e-05
-0.000371197
0.000172451
-0.000574818
0.000263925
-0.000793536
0.000369129
-0.00101735
0.000483738
-0.00123694
0.000603124
-0.00144431
0.000722818
-0.0016333
0.000838923
-0.00179988
0.000948384
-0.00194213
0.00104911
-0.00205994
0.00113995
-0.00215464
0.00122059
-0.00222853
0.00129134
-0.00228443
0.00135296
-0.00232535
0.0014065
-0.0023542
0.0014531
-0.00237364
0.00149391
-0.00238596
0.00153001
-0.00239306
0.00156234
-0.00239651
0.00159172
-0.00239749
0.00161883
-0.00239696
0.00164422
-0.00239565
-0.00239428
0.00166832
1.21009e-05
-6.14013e-05
4.7559e-05
-0.000228167
0.000105175
-0.000428813
0.000182767
-0.00065241
0.000277022
-0.000887791
0.00038365
-0.00112398
0.000497784
-0.00135108
0.000614495
-0.00156102
0.0007293
-0.0017481
0.000838535
-0.00190912
0.000939568
-0.00204317
0.00103083
-0.0021512
0.0011117
-0.00223551
0.00118233
-0.00229916
0.00124343
-0.00234553
0.00129603
-0.00237795
0.00134133
-0.0023995
0.00138054
-0.00241285
0.00141481
-0.00242022
0.00144514
-0.00242339
0.0014724
-0.00242377
0.00149731
-0.0024224
0.00152043
-0.00242008
0.00154222
-0.00241744
-0.00241507
0.00156302
1.31389e-05
-7.45403e-05
5.09789e-05
-0.000266007
0.000111598
-0.000489432
0.000192039
-0.000732851
0.000288211
-0.000983963
0.000395156
-0.00123093
0.000507561
-0.00146348
0.00062034
-0.0016738
0.000729137
-0.0018569
0.000830652
-0.00201063
0.000922754
-0.00213527
0.00100442
-0.00223286
0.00107553
-0.00230663
0.00113667
-0.0023603
0.00118884
-0.0023977
0.00123326
-0.00242238
0.00127122
-0.00243746
0.00130392
-0.00244556
0.00133247
-0.00244876
0.00135777
-0.0024487
0.0013806
-0.0024466
0.00140156
-0.00244336
0.00142113
-0.00243965
0.00143966
-0.00243598
-0.00243283
0.00145742
1.41467e-05
-8.86869e-05
5.41962e-05
-0.000306056
0.00011743
-0.000552666
0.000200067
-0.000815488
0.000297242
-0.00108114
0.000403399
-0.00133708
0.000512897
-0.00157298
0.000620638
-0.00178154
0.000722534
-0.00195879
0.000815743
-0.00210384
0.000898678
-0.0022182
0.000970851
-0.00230504
0.00103262
-0.00236839
0.00108489
-0.00241257
0.0011289
-0.00244171
0.00116597
-0.00245945
0.00119741
-0.0024689
0.00122439
-0.00247253
0.0012479
-0.00247227
0.00126877
-0.00246957
0.00128766
-0.00246548
0.00130507
-0.00246077
0.0013214
-0.00245598
0.00133692
-0.0024515
-0.00244772
0.00135182
1.51068e-05
-0.000103794
5.71495e-05
-0.000348099
0.000122549
-0.000618066
0.000206675
-0.000899614
0.000303919
-0.00117838
0.000408216
-0.00144138
0.000513738
-0.0016785
0.000615516
-0.00188332
0.000709842
-0.00205312
0.0007944
-0.0021884
0.000868162
-0.00229196
0.000931141
-0.00236802
0.000984083
-0.00242134
0.00102817
-0.00245667
0.00106478
-0.00247831
0.00109528
-0.00248995
0.00112094
-0.00249456
0.00114284
-0.00249443
0.00116189
-0.00249132
0.0011788
-0.00248648
0.00119412
-0.00248081
0.00120828
-0.00247493
0.00122159
-0.00246928
0.00123426
-0.00246417
-0.0024599