/*--------------------------------*- C++ -*----------------------------------*\
  =========                 |
  \\      /  F ield         | OpenFOAM: The Open Source CFD Toolbox
   \\    /   O peration     | Website:  https://openfoam.org
    \\  /    A nd           | Version:  6.0
     \\/     M anipulation  |
\*---------------------------------------------------------------------------*/
FoamFile
{
    version     2.0;
    format      ascii;
    class       surfaceScalarField;
    location    "3";
    object      phi;
}
// * * * * * * * * * * * * * * * * * * * * * * * * * * * * * * * * * * * * * //

dimensions      [0 3 -1 0 0 0 0];

internalField   nonuniform List<scalar> 
24700
(
-1.18831e-05
1.19938e-05
-1.10657e-07
-4.02387e-05
2.86314e-05
-2.75857e-07
-8.00635e-05
4.0223e-05
-3.98203e-07
-0.00012774
4.81635e-05
-4.87214e-07
-0.000180616
5.34275e-05
-5.51018e-07
-0.000236758
5.67386e-05
-5.96475e-07
-0.000294755
5.86252e-05
-6.29004e-07
-0.000353568
5.94657e-05
-6.52577e-07
-0.000412425
5.95272e-05
-6.69883e-07
-0.000470739
5.89967e-05
-6.82585e-07
-0.000528052
5.80048e-05
-6.91583e-07
-0.000584
5.6645e-05
-6.9726e-07
-0.000638288
5.49874e-05
-6.99678e-07
-0.000690676
5.30871e-05
-6.98704e-07
-0.000740972
5.09902e-05
-6.9411e-07
-0.000789023
4.87366e-05
-6.85638e-07
-0.000834711
4.63611e-05
-6.73037e-07
-0.000877949
4.38933e-05
-6.5607e-07
-0.000918671
4.13571e-05
-6.3452e-07
-0.000956833
3.87698e-05
-6.08202e-07
-0.000992397
3.61409e-05
-5.76992e-07
-0.00102533
3.34728e-05
-5.40819e-07
-0.00105559
3.0763e-05
-4.99614e-07
-0.00108314
2.8e-05
-4.5322e-07
2.51706e-05
-4.01671e-07
-0.00110791
-1.1527e-05
2.35208e-05
-3.91233e-05
5.62276e-05
-7.79728e-05
7.90725e-05
-0.000124569
9.476e-05
-0.000176324
0.000105182
-0.000231334
0.000111749
-0.000288199
0.00011549
-0.000345882
0.000117149
-0.000403605
0.00011725
-0.000460771
0.000116163
-0.000516913
0.000114146
-0.000571652
0.000111385
-0.000624681
0.000108016
-0.000675744
0.00010415
-0.000724633
9.98784e-05
-0.000771176
9.52795e-05
-0.000815238
9.04237e-05
-0.000856717
8.53718e-05
-0.000895534
8.01745e-05
-0.000931635
7.48707e-05
-0.000964979
6.94847e-05
-0.000995533
6.40265e-05
-0.00102327
5.84972e-05
-0.00104815
5.28803e-05
4.71504e-05
-0.00107013
-1.08332e-05
3.43541e-05
-3.69442e-05
8.23386e-05
-7.38796e-05
0.000116008
-0.000118351
0.000139231
-0.000167893
0.000154724
-0.000220664
0.00016452
-0.000275289
0.000170115
-0.000330734
0.000172593
-0.000386211
0.000172727
-0.000441107
0.000171059
-0.000494934
0.000167974
-0.000547293
0.000163743
-0.000597849
0.000158573
-0.000646321
0.000152622
-0.000692468
0.000146025
-0.000736087
0.000138899
-0.000777013
0.000131349
-0.000815111
0.00012347
-0.000850279
0.000115343
-0.000882444
0.000107035
-0.000911556
9.85961e-05
-0.000937582
9.00529e-05
-0.000960506
8.14213e-05
-0.000980319
7.26933e-05
6.38366e-05
-0.000997005
-9.83396e-06
4.4188e-05
-3.3792e-05
0.000106297
-6.7938e-05
0.000150154
-0.000109297
0.00018059
-0.000155585
0.000201013
-0.000205055
0.00021399
-0.00025637
0.00022143
-0.000308503
0.000224726
-0.000360656
0.00022488
-0.000412197
0.0002226
-0.000462612
0.000218389
-0.000511474
0.000212605
-0.000558416
0.000205515
-0.000603122
0.000197327
-0.000645312
0.000188215
-0.000684744
0.000178331
-0.00072121
0.000167815
-0.000754535
0.000156795
-0.000784582
0.00014539
-0.000811249
0.000133702
-0.000834471
0.000121818
-0.000854214
0.000109796
-0.000870476
9.7683e-05
-0.000883281
8.54985e-05
7.32173e-05
-0.000892662
-8.57564e-06
5.27637e-05
-2.97985e-05
0.00012752
-6.0374e-05
0.000180729
-9.7723e-05
0.000217939
-0.000139795
0.000243084
-0.000184967
0.000259162
-0.000231959
0.000268422
-0.00027976
0.000272527
-0.000327564
0.000272684
-0.000374719
0.000269755
-0.000420687
0.000264356
-0.000465009
0.000256928
-0.000507288
0.000247794
-0.000547171
0.00023721
-0.000584338
0.000225383
-0.000618506
0.000212499
-0.000649421
0.00019873
-0.000676864
0.000184238
-0.000700654
0.00016918
-0.000720656
0.000153704
-0.00073678
0.000137942
-0.000748986
0.000122002
-0.000757281
0.000105978
-0.000761727
8.99447e-05
7.39096e-05
-0.000762419
-7.11644e-06
5.98801e-05
-2.51311e-05
0.000145534
-5.14785e-05
0.000207077
-8.40378e-05
0.000250499
-0.000121037
0.000280084
-0.000161008
0.000299133
-0.000202748
0.000310162
-0.000245272
0.000315051
-0.000287773
0.000315185
-0.000329585
0.000311567
-0.000370146
0.000304918
-0.000408974
0.000295756
-0.000445643
0.000284463
-0.000479769
0.000271335
-0.000511001
0.000256615
-0.000539017
0.000240516
-0.000563524
0.000223237
-0.000584261
0.000204975
-0.000601004
0.000185923
-0.000613576
0.000166277
-0.000621859
0.000146224
-0.000625794
0.000125937
-0.000625393
0.000105577
-0.000620751
8.53028e-05
6.51928e-05
-0.000612034
-5.52322e-06
6.54033e-05
-1.99856e-05
0.000159997
-4.15971e-05
0.000228688
-6.87357e-05
0.000277637
-9.99421e-05
0.00031129
-0.000133932
0.000333123
-0.000169599
0.000345828
-0.000205999
0.000351451
-0.000242337
0.000351523
-0.000277939
0.000347169
-0.00031223
0.000339208
-0.000344708
0.000328234
-0.000374929
0.000314684
-0.000402489
0.000298896
-0.000427017
0.000281143
-0.000448165
0.000261664
-0.000465612
0.000240685
-0.000479065
0.000218427
-0.000488262
0.00019512
-0.000492989
0.000171004
-0.00049309
0.000146326
-0.000488484
0.000121331
-0.000479174
9.62666e-05
-0.000465274
7.14034e-05
4.6941e-05
-0.000447023
-3.86786e-06
6.92712e-05
-1.45777e-05
0.000170706
-3.11174e-05
0.000245228
-5.23797e-05
0.000298899
-7.72404e-05
0.000336151
-0.000104622
0.000360505
-0.000133534
0.000374741
-0.000163095
0.000381012
-0.000192531
0.00038096
-0.000221175
0.000375813
-0.000248445
0.000366479
-0.000273834
0.000353623
-0.000296889
0.000337739
-0.0003172
0.000319206
-0.000334388
0.000298331
-0.000348098
0.000275375
-0.000357998
0.000250584
-0.000363775
0.000224204
-0.000365146
0.000196491
-0.000361866
0.000167724
-0.000353744
0.000138204
-0.000340667
0.000108253
-0.000322617
7.82171e-05
-0.000299715
4.85011e-05
1.948e-05
-0.000272254
-2.22327e-06
7.14945e-05
-9.13174e-06
0.000177615
-2.04519e-05
0.000256548
-3.55815e-05
0.000314029
-5.37392e-05
0.000354308
-7.40703e-05
0.000380836
-9.57216e-05
0.000396392
-0.000117889
0.000403179
-0.00013984
0.000402911
-0.000160925
0.000396898
-0.000180571
0.000386125
-0.000198274
0.000371325
-0.000213585
0.000353051
-0.000226102
0.000331723
-0.000235454
0.000307682
-0.000241294
0.000281215
-0.000243295
0.000252586
-0.000241147
0.000222056
-0.000234559
0.000189903
-0.000223268
0.000156433
-0.000207058
0.000121994
-0.00018578
8.69755e-05
-0.000159389
5.18258e-05
-0.00012799
1.71025e-05
-1.65948e-05
-9.19156e-05
-6.59223e-07
7.21537e-05
-3.86928e-06
0.000180825
-1.00187e-05
0.000262698
-1.8975e-05
0.000322985
-3.0292e-05
0.000365625
-4.3346e-05
0.00039389
-5.74362e-05
0.000410482
-7.18544e-05
0.000417597
-8.59272e-05
0.000416983
-9.90385e-05
0.000410009
-0.000110637
0.000397723
-0.000120235
0.000380924
-0.000127401
0.000360217
-0.000131749
0.000336071
-0.000132929
0.000308862
-0.000130617
0.000278903
-0.000124508
0.000246477
-0.000114309
0.000211857
-9.97391e-05
0.000175333
-8.05324e-05
0.000137226
-5.64547e-05
9.79159e-05
-2.73291e-05
5.78499e-05
6.92597e-06
1.75708e-05
4.62308e-05
-2.22023e-05
-6.05994e-05
9.02354e-05
7.61601e-07
7.13921e-05
1.00305e-06
0.000180584
-2.18969e-07
0.00026392
-3.18468e-06
0.000325951
-7.75943e-06
0.0003702
-1.35482e-05
0.000399679
-2.00132e-05
0.000416947
-2.65582e-05
0.000424142
-3.25856e-05
0.000423011
-3.75303e-05
0.000414954
-4.08773e-05
0.000401071
-4.21679e-05
0.000382214
-4.0997e-05
0.000359046
-3.70067e-05
0.000332081
-2.98772e-05
0.000301732
-1.93165e-05
0.000268342
-5.05047e-06
0.000232211
1.31851e-05
0.000193622
3.56508e-05
0.000152867
6.26032e-05
0.000110274
9.42851e-05
6.6234e-05
0.000130899
2.12357e-05
0.000172564
-2.40939e-05
0.000219233
-6.88716e-05
-0.000111911
0.000270545
1.98699e-06
6.94051e-05
5.30514e-06
0.000177265
8.5851e-06
0.00026064
1.12091e-05
0.000323327
1.30384e-05
0.000368371
1.4252e-05
0.000398465
1.52218e-05
0.000415977
1.64196e-05
0.000422944
1.83518e-05
0.000421079
2.15162e-05
0.00041179
2.63766e-05
0.00039621
3.33503e-05
0.00037524
4.28057e-05
0.00034959
5.50652e-05
0.000319821
7.04136e-05
0.000286384
8.91074e-05
0.000249648
0.000111386
0.000209932
0.000137482
0.000167525
0.000167633
0.000122717
0.000202082
7.58243e-05
0.000241078
2.72378e-05
0.000284849
-2.25346e-05
0.000333551
-7.2796e-05
0.000387175
-0.000122496
-0.000170073
0.000445336
2.97772e-06
6.64274e-05
8.89333e-06
0.00017135
1.6092e-05
0.000253441
2.37056e-05
0.000315713
3.13726e-05
0.000360704
3.90788e-05
0.000390759
4.70351e-05
0.000408021
5.55829e-05
0.000414396
6.51252e-05
0.000411537
7.60783e-05
0.000400836
8.88417e-05
0.000383447
0.00010378
0.000360302
0.000121217
0.000332154
0.000141434
0.000299604
0.000164681
0.000263138
0.000191179
0.00022315
0.000221137
0.000179974
0.000254762
0.0001339
0.000292273
8.52058e-05
0.000333907
3.41908e-05
0.000379919
-1.8775e-05
0.000430567
-7.31825e-05
0.000486051
-0.00012828
0.000546398
-0.000182842
-0.000234849
0.000611174
3.70915e-06
6.27182e-05
1.1668e-05
0.000163391
2.20789e-05
0.00024303
3.39171e-05
0.000303875
4.66563e-05
0.000347965
6.01219e-05
0.000377293
7.43771e-05
0.000393766
8.96338e-05
0.000399139
0.000106185
0.000394985
0.000124357
0.000382664
0.000144475
0.000363329
0.000166842
0.000337935
0.000191733
0.000307263
0.000219389
0.000271948
0.000250025
0.000232502
0.000283836
0.000189339
0.00032101
0.0001428
0.000361741
9.31689e-05
0.00040624
4.07072e-05
0.000454747
-1.43157e-05
0.000507533
-7.15619e-05
0.000564888
-0.000130537
0.000627057
-0.000190449
0.000694098
-0.000249883
-0.000306249
0.000765498
4.17167e-06
5.85466e-05
1.35781e-05
0.000153985
2.64154e-05
0.000230193
4.15955e-05
0.000288695
5.84903e-05
0.00033107
7.68037e-05
0.00035898
9.64732e-05
0.000374096
0.00011759
0.000378022
0.000140341
0.000372235
0.000164956
0.000358049
0.000191685
0.000336601
0.000220768
0.000308852
0.00025243
0.000275601
0.000286878
0.0002375
0.0003243
0.000195079
0.000364878
0.000148762
0.000408792
9.88849e-05
0.000456238
4.57233e-05
0.000507433
-1.04874e-05
0.000562628
-6.95111e-05
0.000622114
-0.000131048
0.000686205
-0.000194628
0.000755179
-0.000259423
0.000829113
-0.000323817
-0.000384512
0.000907376
4.37045e-06
5.41761e-05
1.4623e-05
0.000143732
2.90716e-05
0.000215744
4.66519e-05
0.000271115
6.66976e-05
0.000311024
8.88351e-05
0.000336842
0.000112905
0.000350027
0.000138896
0.000352031
0.000166897
0.000344234
0.000197053
0.000327893
0.00022954
0.000304114
0.000264543
0.000273848
0.000302248
0.000237896
0.000342835
0.000196913
0.000386482
0.000151432
0.000433373
0.000101871
0.000483697
4.85609e-05
0.000537663
-8.2427e-06
0.000595503
-6.83276e-05
0.00065748
-0.000131488
0.000723887
-0.000197455
0.000795037
-0.000265778
0.000871207
-0.000335592
0.000952456
-0.000405067
-0.00047006
0.001038
4.32448e-06
4.98516e-05
1.48518e-05
0.000133205
3.01195e-05
0.000200476
4.91655e-05
0.000252069
7.13449e-05
0.000288845
9.62528e-05
0.000311935
0.000123667
0.000322612
0.000153501
0.000322197
0.000185767
0.000311969
0.00022054
0.00029312
0.00025794
0.000266713
0.000298112
0.000233676
0.000341219
0.000194789
0.000387434
0.000150698
0.000436944
0.000101922
0.000489946
4.8869e-05
0.000546654
-8.14696e-06
0.000607294
-6.88832e-05
0.000672108
-0.000133141
0.000741347
-0.000200727
0.000815273
-0.000271381
0.000894142
-0.000344647
0.00097816
-0.000419611
0.00106731
-0.000494217
-0.00056339
0.00116064
4.06533e-06
4.57863e-05
1.43597e-05
0.00012291
2.973e-05
0.000185106
4.93821e-05
0.000232417
7.27469e-05
0.00026548
9.94339e-05
0.000285247
0.000129198
0.000292848
0.00016191
0.000289484
0.000197535
0.000276344
0.000236108
0.000254547
0.000277716
0.000225105
0.00032249
0.000188902
0.000370591
0.000146688
0.000422209
9.90806e-05
0.000477552
4.6579e-05
0.000536847
-1.04255e-05
0.000600327
-7.16271e-05
0.000668226
-0.000136783
0.000740767
-0.000205681
0.000818144
-0.000278105
0.000900524
-0.00035376
0.000988025
-0.000432149
0.00108069
-0.000512278
0.00117835
-0.000591874
-0.000664904
0.00127986
3.63555e-06
4.21507e-05
1.32831e-05
0.000113263
2.81631e-05
0.000170226
4.77009e-05
0.000212879
7.14508e-05
0.00024173
9.90812e-05
0.000257617
0.000130365
0.000261565
0.000165171
0.000254678
0.000203454
0.000238062
0.00024524
0.000212761
0.000290621
0.000179724
0.000339739
0.000139784
0.000392781
9.36456e-05
0.000449966
4.1896e-05
0.000511534
-1.49887e-05
0.000577732
-7.66235e-05
0.000648796
-0.000142692
0.000724931
-0.000212918
0.000806286
-0.000287036
0.000892932
-0.000364751
0.000984852
-0.000445681
0.00108194
-0.000529232
0.00118397
-0.000614308
0.00129053
-0.000698437
-0.000774694
0.00140032
3.08675e-06
3.9064e-05
1.17923e-05
0.000104557
2.5752e-05
0.000156266
4.46495e-05
0.000193981
6.82019e-05
0.000218178
9.61772e-05
0.000229642
0.000128409
0.000229332
0.000164806
0.000218281
0.000205352
0.000197515
0.000250106
0.000168007
0.000299192
0.000130638
0.000352793
8.61831e-05
0.000411134
3.53045e-05
0.000474469
-2.14388e-05
0.000543057
-8.35767e-05
0.000617139
-0.000150705
0.000696906
-0.000222459
0.000782471
-0.000298483
0.000873834
-0.000378399
0.000970857
-0.000461774
0.00107325
-0.000548075
0.00118059
-0.000636568
0.00129231
-0.000726032
0.00140772
-0.000813843
-0.000892327
0.00152535
2.4769e-06
3.65871e-05
1.00804e-05
9.69538e-05
2.28813e-05
0.000143465
4.08461e-05
0.000176017
6.38865e-05
0.000195137
9.1907e-05
0.000201621
0.000124842
0.000196398
0.000162679
0.000180444
0.000205471
0.000154723
0.000253341
0.000120137
0.000306472
7.75067e-05
0.0003651
2.75554e-05
0.000429488
-2.90836e-05
0.000499905
-9.18561e-05
0.000576593
-0.000160265
0.000659731
-0.000233843
0.000749394
-0.000312123
0.00084552
-0.000394609
0.000947875
-0.000480753
0.00105603
-0.000569925
0.00116934
-0.000661391
0.00128701
-0.000754238
0.00140811
-0.000847127
0.00153162
-0.000937353
-0.00101668
0.00165597
1.86673e-06
3.47204e-05
8.35092e-06
9.04696e-05
1.99581e-05
0.000131858
3.69507e-05
0.000159024
5.94576e-05
0.00017263
8.75504e-05
0.000173529
0.000121297
0.000162651
0.0001608
0.000140942
0.00020621
0.000109313
0.000257733
6.86139e-05
0.000315623
1.96173e-05
0.000380157
-3.69787e-05
0.000451612
-0.000100539
0.000530228
-0.000170472
0.000616165
-0.000246202
0.000709461
-0.000327139
0.000809992
-0.000412653
0.000917432
-0.000502049
0.00103123
-0.000594552
0.0011506
-0.000689295
0.00127453
-0.000785316
0.00140181
-0.000881521
0.00153116
-0.000976476
0.00166128
-0.00106747
-0.00114589
0.00179049
1.31514e-06
3.34052e-05
6.80116e-06
8.49836e-05
1.73788e-05
0.000121281
3.36074e-05
0.000142795
5.58471e-05
0.000150391
8.43575e-05
0.000145018
0.000119365
0.000127643
0.000161107
9.92006e-05
0.000209845
6.0575e-05
0.000265872
1.25865e-05
0.000329494
-4.40044e-05
0.000400999
-0.000108484
0.000480626
-0.000180166
0.000568513
-0.000258359
0.000664658
-0.000342347
0.000768872
-0.000431353
0.000880743
-0.000524523
0.000999609
-0.000620915
0.00112455
-0.000719493
0.00125439
-0.000819137
0.00138774
-0.00091866
0.00152303
-0.00101681
0.00165868
-0.00111213
0.0017932
-0.001202
-0.00127755
0.00192486
8.74122e-07
3.25311e-05
5.60556e-06
8.02521e-05
1.54942e-05
0.000111392
3.1386e-05
0.000126904
5.3876e-05
0.000127901
8.34217e-05
0.000115473
0.000120418
9.06466e-05
0.000165239
5.43798e-05
0.000218252
7.56126e-06
0.000279814
-4.89752e-05
0.000350241
-0.000114431
0.000429776
-0.000188019
0.000518541
-0.000268931
0.000616492
-0.000356311
0.000723378
-0.000449232
0.0008387
-0.000546674
0.000961695
-0.000647519
0.00109133
-0.000750549
0.0012263
-0.000854468
0.00136508
-0.000957915
0.00150592
-0.0010595
0.00164695
-0.00115784
0.00178631
-0.00125149
0.00192239
-0.00133807
-0.00140898
0.00205382
5.83928e-07
3.19472e-05
4.90028e-06
7.59358e-05
1.45786e-05
0.000101714
3.07309e-05
0.000110751
5.41787e-05
0.000104453
8.55734e-05
8.40778e-05
0.00012547
5.07495e-05
0.000174366
5.48448e-06
0.000232702
-5.07746e-05
0.000300849
-0.000117123
0.000379074
-0.000192657
0.000467494
-0.000276439
0.000566032
-0.000367468
0.000674372
-0.000464651
0.000791933
-0.000566793
0.000917849
-0.000672591
0.00105098
-0.000780648
0.00118992
-0.000889493
0.00133307
-0.000997613
0.00147864
-0.00110349
0.00162475
-0.00120562
0.00176945
-0.00130253
0.00191058
-0.00139262
0.00204545
-0.00147294
-0.00153421
0.00217067
4.69054e-07
3.14781e-05
4.77154e-06
7.16333e-05
1.4808e-05
9.16773e-05
3.19257e-05
9.36336e-05
5.71523e-05
7.92263e-05
9.1314e-05
4.99161e-05
0.000135101
6.96248e-06
0.000189094
-4.85084e-05
0.000253757
-0.000115438
0.000329411
-0.000192776
0.00041619
-0.000279436
0.000514001
-0.000374249
0.000622476
-0.000475943
0.000740951
-0.000583126
0.000868453
-0.000694295
0.00100371
-0.000807852
0.00114521
-0.000922141
0.00129121
-0.00103549
0.00143987
-0.00114627
0.00158933
-0.00125295
0.00173783
-0.00135411
0.00188384
-0.00144855
0.00202637
-0.00153515
0.00216611
-0.00161268
-0.00167638
0.00230828
5.39018e-07
3.09391e-05
5.25529e-06
6.6917e-05
1.62568e-05
8.06758e-05
3.50867e-05
7.48037e-05
6.29472e-05
5.13658e-05
0.000100805
1.20587e-05
0.000149442
-4.16745e-05
0.000209468
-0.000108535
0.000281302
-0.000187272
0.000365133
-0.000276608
0.000460879
-0.000375182
0.000568145
-0.000481516
0.000686199
-0.000593997
0.000813965
-0.000710892
0.000950042
-0.000830372
0.00109275
-0.00095056
0.0012402
-0.00106959
0.00139037
-0.00118567
0.00154124
-0.00129715
0.00169087
-0.00140257
0.00183749
-0.00150074
0.00197969
-0.00159074
0.00211649
-0.00167196
0.00224769
-0.00174387
-0.00180285
0.00237417
7.86577e-07
3.01525e-05
6.33607e-06
6.13675e-05
1.88999e-05
6.81119e-05
4.01717e-05
5.35319e-05
7.14853e-05
2.00522e-05
0.0001139
-3.03562e-05
0.000168234
-9.60085e-05
0.000235058
-0.000175359
0.000314665
-0.000266878
0.000407027
-0.00036897
0.000511759
-0.000479914
0.00062809
-0.000597846
0.000754859
-0.000720767
0.000890546
-0.000846579
0.00103331
-0.000973141
0.0011811
-0.00109835
0.00133171
-0.0012202
0.00148293
-0.00133688
0.00163262
-0.00144684
0.00177887
-0.00154881
0.00192001
-0.00164188
0.00205474
-0.00172548
0.00218214
-0.00179935
0.00230166
-0.0018634
-0.00191496
0.00241377
1.19343e-06
2.89591e-05
7.96136e-06
5.45996e-05
2.26383e-05
5.34349e-05
4.70183e-05
2.9152e-05
8.25162e-05
-1.54457e-05
0.000130227
-7.80671e-05
0.000190937
-0.000156718
0.000265099
-0.000249521
0.000352796
-0.000354576
0.0004537
-0.000469874
0.000567043
-0.000593257
0.000691616
-0.000722419
0.000825795
-0.000854947
0.000967608
-0.000988391
0.00111482
-0.00112035
0.00126505
-0.00124858
0.00141589
-0.00137104
0.00156504
-0.00148604
0.00171041
-0.00159221
0.00185022
-0.00168862
0.00198303
-0.00177469
0.00210781
-0.00185026
0.00222391
-0.00191545
0.00233105
-0.00197054
-0.0020139
0.00242999
1.73454e-06
2.72246e-05
1.00554e-05
4.62787e-05
2.73259e-05
3.61645e-05
5.53881e-05
1.08976e-06
9.56817e-05
-5.57394e-05
0.000149272
-0.000131658
0.000216838
-0.000224284
0.000298633
-0.000331316
0.000394446
-0.000450388
0.000503565
-0.000578993
0.000624777
-0.000714468
0.000756392
-0.000854034
0.000896317
-0.000994872
0.00104216
-0.00113423
0.00119135
-0.00126954
0.00134129
-0.00139852
0.00148951
-0.00151926
0.00163375
-0.00163027
0.0017721
-0.00173057
0.00190306
-0.00181958
0.00202554
-0.00189718
0.0021389
-0.00196361
0.00224286
-0.00201941
0.00233753
-0.00206521
-0.00210023
0.00242386
2.38327e-06
2.48413e-05
1.25347e-05
3.61273e-05
3.27983e-05
1.59009e-05
6.50122e-05
-3.11241e-05
0.00011058
-0.000101307
0.000170466
-0.000191544
0.000245163
-0.000298981
0.00033464
-0.000420793
0.000438307
-0.000554055
0.000554999
-0.000695686
0.000683009
-0.000842478
0.000820154
-0.000991179
0.000963895
-0.00113861
0.00111148
-0.00128182
0.00126013
-0.00141819
0.00140715
-0.00154554
0.00155013
-0.00166224
0.00168703
-0.00176717
0.00181624
-0.00185978
0.00193665
-0.00193999
0.00204761
-0.00200813
0.00214889
-0.00206489
0.00224064
-0.00211116
0.00232333
-0.0021479
-0.00217498
0.00239808
3.11558e-06
2.17257e-05
1.53204e-05
2.39224e-05
3.88973e-05
-7.67596e-06
7.56271e-05
-6.7854e-05
0.000126813
-0.000152493
0.000193246
-0.000257977
0.000275145
-0.00038088
0.000372112
-0.00051776
0.0004831
-0.000665043
0.000606437
-0.000819023
0.000739895
-0.000975936
0.000880815
-0.0011321
0.00102627
-0.00128407
0.00117327
-0.00142882
0.00131892
-0.00156383
0.00146061
-0.00168723
0.00159613
-0.00179776
0.00172379
-0.00189483
0.00184239
-0.00197838
0.00195126
-0.00204886
0.00205021
-0.00210709
0.00213945
-0.00215412
0.00221947
-0.00219119
0.00229105
-0.00221948
-0.00223934
0.00235541
3.91263e-06
1.78131e-05
1.83466e-05
9.48841e-06
4.54844e-05
-3.48137e-05
8.69961e-05
-0.000109366
0.000144018
-0.000209515
0.000217084
-0.000331043
0.00030606
-0.000469856
0.000410093
-0.000621793
0.000527618
-0.000782568
0.000656416
-0.000947821
0.000793745
-0.00111326
0.000936521
-0.00127487
0.00108153
-0.00142909
0.00122566
-0.00157295
0.00136608
-0.00170425
0.00150038
-0.00182153
0.00162672
-0.0019241
0.00174381
-0.00201192
0.00185096
-0.00208553
0.00194796
-0.00214586
0.00203504
-0.00219417
0.00211278
-0.00223185
0.00218196
-0.00226037
0.00224357
-0.00228108
-0.00229463
0.00229885
4.76153e-06
1.30515e-05
2.15627e-05
-7.31273e-06
5.24464e-05
-6.56975e-05
9.89157e-05
-0.000155835
0.000161867
-0.000272466
0.000241498
-0.000410674
0.000337232
-0.00056559
0.00044769
-0.000732252
0.000570736
-0.000905614
0.000703597
-0.00108068
0.000843057
-0.00125272
0.000985696
-0.00141751
0.00112814
-0.00157153
0.00126731
-0.00171211
0.00140057
-0.00183751
0.00152588
-0.00194684
0.00164183
-0.00204006
0.00174765
-0.00211774
0.0018431
-0.00218098
0.00192842
-0.00223119
0.00200423
-0.00226998
0.00207137
-0.002299
0.00213084
-0.00231985
0.00218372
-0.00233396
-0.00234214
0.00223123
5.65455e-06
7.39699e-06
2.49317e-05
-2.65898e-05
5.9692e-05
-0.000100458
0.00011121
-0.000207353
0.000180068
-0.000341324
0.00026604
-0.000496646
0.000368026
-0.000667576
0.00048406
-0.000848285
0.00061141
-0.00103296
0.000746772
-0.00121604
0.000886535
-0.00139249
0.00102706
-0.00155804
0.00116498
-0.00170944
0.00129737
-0.00184451
0.00142196
-0.0019621
0.00153716
-0.00206204
0.00164207
-0.00214497
0.00173641
-0.00221207
0.0018204
-0.00226497
0.00189467
-0.00230546
0.00196011
-0.00233542
0.00201777
-0.00235665
0.00206874
-0.00237082
0.00211413
-0.00237935
-0.0023831
0.00215509
6.5874e-06
8.09589e-07
2.84255e-05
-4.84279e-05
6.71434e-05
-0.000139176
0.000123721
-0.000263931
0.000198344
-0.000415947
0.00029028
-0.000588582
0.000397833
-0.000775129
0.000518408
-0.000968859
0.000648683
-0.00116324
0.000784888
-0.00135225
0.000923123
-0.00153072
0.00105968
-0.0016946
0.00119134
-0.0018411
0.0013155
-0.00196867
0.00143035
-0.00207694
0.00153481
-0.00216651
0.0016285
-0.00223866
0.00171161
-0.00229518
0.00178476
-0.00233812
0.00184887
-0.00236957
0.00190503
-0.00239157
0.00195438
-0.002406
0.00199804
-0.00241449
0.00203709
-0.00241839
-0.00241857
0.00207256
7.55717e-06
-6.74758e-06
3.20196e-05
-7.28904e-05
7.47272e-05
-0.000181883
0.000136292
-0.000325496
0.000216421
-0.000496076
0.000313793
-0.000685955
0.000426062
-0.000887398
0.000549988
-0.00109278
0.000681703
-0.00129495
0.000817063
-0.00148761
0.000952022
-0.00166568
0.00108296
-0.00182554
0.00120694
-0.00196507
0.00132182
-0.00208355
0.0014263
-0.00218142
0.00151983
-0.00226004
0.00160254
-0.00232136
0.001675
-0.00236765
0.00173817
-0.00240129
0.00179316
-0.00242456
0.00184116
-0.00243958
0.00188335
-0.00244818
0.0019208
-0.00245194
0.00195451
-0.0024521
-0.00244944
0.00198538
8.56052e-06
-1.53081e-05
3.56878e-05
-0.000100018
8.23657e-05
-0.000228561
0.000148761
-0.000391891
0.000234016
-0.000581331
0.000336156
-0.000788095
0.000452145
-0.00100339
0.00057812
-0.00121876
0.000709741
-0.00142658
0.00084262
-0.00162049
0.000972717
-0.00179578
0.00109665
-0.00194948
0.0012119
-0.00208032
0.00131684
-0.00218849
0.00141072
-0.0022753
0.00149351
-0.00234284
0.00156576
-0.00239361
0.0016284
-0.00243029
0.00168257
-0.00245546
0.00172951
-0.0024715
0.00177045
-0.00248051
0.00180651
-0.00248425
0.00183872
-0.00248415
0.00186793
-0.00248132
-0.00247643
0.00189492
9.59244e-06
-2.49005e-05
3.93987e-05
-0.000129824
8.99725e-05
-0.000279135
0.000160952
-0.00046287
0.000250839
-0.000671219
0.000356948
-0.000894204
0.00047555
-0.00112199
0.000602206
-0.00134542
0.00073222
-0.00155659
0.000861101
-0.00174937
0.000984971
-0.00191965
0.00110082
-0.00206533
0.00120663
-0.00218613
0.00130135
-0.00228321
0.00138475
-0.0023587
0.00145727
-0.00241536
0.00151981
-0.00245615
0.00157354
-0.00248401
0.00161973
-0.00250165
0.00165967
-0.00251144
0.00169454
-0.00251538
0.0017254
-0.00251511
0.00175315
-0.0025119
0.00177855
-0.00250671
-0.0025001
0.00180222
1.06455e-05
-3.55461e-05
4.31145e-05
-0.000162293
9.745e-05
-0.000333471
0.000172679
-0.000538099
0.000266595
-0.000765134
0.000375767
-0.00100338
0.000495797
-0.00124202
0.00062176
-0.00147138
0.000748729
-0.00168356
0.000872273
-0.00187291
0.000988815
-0.00203619
0.00109582
-0.00217234
0.00119184
-0.00228215
0.00127637
-0.00236773
0.00134968
-0.00243201
0.00141259
-0.00247827
0.00146628
-0.00250984
0.00151205
-0.00252979
0.00155124
-0.00254084
0.00158512
-0.00254531
0.00161479
-0.00254505
0.0016412
-0.00254152
0.00166514
-0.00253585
0.00168725
-0.00252882
-0.00252088
0.00170803
1.171e-05
-4.7256e-05
4.67907e-05
-0.000197374
0.000104691
-0.000391371
0.000183749
-0.000617157
0.000280992
-0.000862378
0.000392241
-0.00111462
0.000512482
-0.00136226
0.000636415
-0.00159531
0.000759038
-0.00180618
0.000876122
-0.00199
0.000984514
-0.00214458
0.00108223
-0.00227006
0.00116839
-0.00236831
0.00124301
-0.00244236
0.0013068
-0.0024958
0.00136089
-0.00253236
0.00140661
-0.00255556
0.00144535
-0.00256853
0.00147845
-0.00257394
0.00150709
-0.00257395
0.00153228
-0.00257024
0.00155486
-0.00256411
0.0015755
-0.00255649
0.00159472
-0.00254804
-0.00253908
0.00161292
1.27737e-05
-6.00297e-05
5.03774e-05
-0.000234977
0.000111582
-0.000452576
0.000193966
-0.00069954
0.000293755
-0.000962167
0.000406043
-0.00122691
0.000525286
-0.0014815
0.000645946
-0.00171597
0.00076309
-0.00192332
0.00087283
-0.00209974
0.000972525
-0.00224428
0.00106077
-0.00235831
0.00113725
-0.00244478
0.00120245
-0.00250755
0.00125741
-0.00255076
0.00130348
-0.00257843
0.00134211
-0.00259418
0.00137468
-0.00260111
0.00140247
-0.00260174
0.00142657
-0.00259805
0.00144787
-0.00259154
0.0014671
-0.00258333
0.00148481
-0.0025742
0.00150143
-0.00256465
-0.00255492
0.00151726
1.38229e-05
-7.38526e-05
5.38207e-05
-0.000274975
0.000118008
-0.000516763
0.000203142
-0.000784674
0.000304638
-0.00106366
0.00041691
-0.00133918
0.000533995
-0.00159859
0.00065026
-0.00183224
0.00076099
-0.00203405
0.000862743
-0.00220149
0.000953449
-0.00233498
0.00103229
-0.00243714
0.00109944
-0.00251194
0.00115581
-0.00256392
0.00120269
-0.00259764
0.00124156
-0.0026173
0.00127389
-0.00262651
0.00130105
-0.00262826
0.0013242
-0.00262489
0.00134433
-0.00261817
0.00136221
-0.00260943
0.00137845
-0.00259958
0.00139351
-0.00258926
0.00140773
-0.00257887
-0.00256854
0.00142135
1.48426e-05
-8.86952e-05
5.70656e-05
-0.000317198
0.000123854
-0.000583551
0.000211104
-0.000871924
0.00031343
-0.00116599
0.000424645
-0.0014504
0.000538495
-0.00171244
0.000649398
-0.00194314
0.000752983
-0.00213764
0.000846336
-0.00229485
0.000927979
-0.00241662
0.000997646
-0.00250681
0.00105597
-0.00257027
0.00110416
-0.00261211
0.0011437
-0.00263718
0.00117613
-0.00264973
0.0012029
-0.00265328
0.00122529
-0.00265065
0.00124436
-0.00264396
0.00126097
-0.00263478
0.00127578
-0.00262424
0.00128931
-0.0026131
0.00130192
-0.00260187
0.00131388
-0.00259082
-0.00258004
0.00132537
1.58173e-05
-0.000104512
6.00571e-05
-0.000361438
0.000129014
-0.000652508
0.000217701
-0.000960611
0.000319968
-0.00126826
0.000429127
-0.00155956
0.000538773
-0.00182208
0.000643514
-0.00204788
0.000739425
-0.00223355
0.000824171
-0.00237959
0.000896859
-0.00248931
0.000957729
-0.00256768
0.00100779
-0.00262033
0.00104849
-0.0026528
0.0010814
-0.00267009
0.00110808
-0.00267641
0.00112991
-0.00267512
0.00114807
-0.00266881
0.0011635
-0.00265939
0.00117695
-0.00264823
0.00118896
-0.00263626
0.00119996
-0.00262411
0.00121025
-0.00261216
0.00122004
-0.00260061
-0.00258947
0.00122947
1.67315e-05
-0.000121244
6.27429e-05
-0.000407449
0.000133392
-0.000723157
0.000222807
-0.00105003
0.000324137
-0.00136959
0.000430311
-0.00166573
0.000534911
-0.00192668
0.00063286
-0.00214583
0.000720758
-0.00232145
0.000796865
-0.0024557
0.000860845
-0.00255329
0.00091338
-0.00262022
0.00095578
-0.00266273
0.00098964
-0.00268666
0.00101659
-0.00269704
0.00103813
-0.00269795
0.00105556
-0.00269254
0.00106993
-0.00268318
0.00108207
-0.00267153
0.00109261
-0.00265877
0.00110202
-0.00264567
0.00111063
-0.00263272
0.00111868
-0.00262021
0.00112635
-0.00260828
-0.00259687
0.00113375
1.75698e-05
-0.000138814
6.50749e-05
-0.000454955
0.000136907
-0.000794989
0.000226329
-0.00113945
0.000325876
-0.00146913
0.00042822
-0.00176808
0.000527069
-0.00202553
0.000617763
-0.00223652
0.000697473
-0.00240116
0.000765053
-0.00252328
0.000820673
-0.00260891
0.000865387
-0.00266493
0.000900725
-0.00269807
0.000928371
-0.00271431
0.000949943
-0.00271861
0.000966868
-0.00271487
0.00098033
-0.00270601
0.000991263
-0.00269411
0.00100038
-0.00268065
0.00100821
-0.0026666
0.00101515
-0.0026526
0.00102146
-0.00263903
0.00102734
-0.00262609
0.00103291
-0.00261385
-0.00260223
0.00103827
1.8318e-05
-0.000157132
6.70102e-05
-0.000503647
0.000139491
-0.000867469
0.000228205
-0.00122816
0.000325171
-0.0015661
0.000422943
-0.00186585
0.000515474
-0.00211806
0.000598602
-0.00231965
0.000670095
-0.00247265
0.000729369
-0.00258255
0.000777042
-0.00265658
0.000814465
-0.00270235
0.000843318
-0.00272692
0.000865317
-0.00273631
0.000882028
-0.00273532
0.000894777
-0.00272762
0.000904628
-0.00271586
0.000912398
-0.00270188
0.000918696
-0.00268695
0.000923963
-0.00267187
0.000928515
-0.00265715
0.000932576
-0.00264309
0.000936298
-0.00262981
0.000939785
-0.00261734
-0.00260556
0.00094311
1.89628e-05
-0.000176095
6.8513e-05
-0.000553197
0.000141096
-0.000940053
0.000228404
-0.00131547
0.000322058
-0.00165975
0.000414621
-0.00195841
0.000500401
-0.00220384
0.00057579
-0.00239504
0.00063915
-0.00253601