/*--------------------------------*- C++ -*----------------------------------*\
  =========                 |
  \\      /  F ield         | OpenFOAM: The Open Source CFD Toolbox
   \\    /   O peration     | Website:  https://openfoam.org
    \\  /    A nd           | Version:  6.0
     \\/     M anipulation  |
\*---------------------------------------------------------------------------*/
FoamFile
{
    version     2.0;
    format      ascii;
    class       surfaceScalarField;
    location    "15.4";
    object      phi;
}
// * * * * * * * * * * * * * * * * * * * * * * * * * * * * * * * * * * * * * //

dimensions      [0 3 -1 0 0 0 0];

internalField   nonuniform List<scalar> 
15760
(
-3.20817e-06
3.07617e-06
1.32005e-07
-1.12883e-05
7.74093e-06
3.39211e-07
-2.30594e-05
1.12683e-05
5.02753e-07
-3.75833e-05
1.3893e-05
6.30912e-07
-5.41241e-05
1.58101e-05
7.3064e-07
-7.21187e-05
1.71865e-05
8.08085e-07
-9.11521e-05
1.81649e-05
8.6858e-07
-0.000110936
1.88673e-05
9.16639e-07
-0.000131291
1.93985e-05
9.55989e-07
-0.000152128
1.98477e-05
9.8962e-07
-0.000173439
2.02913e-05
1.01986e-06
-0.000195281
2.07932e-05
1.04844e-06
-0.000217763
2.1406e-05
1.07664e-06
-0.00024104
2.21709e-05
1.10529e-06
-0.000265293
2.31185e-05
1.13492e-06
-0.000290727
2.42683e-05
1.16574e-06
-0.000317554
2.56293e-05
1.19776e-06
-0.000345985
2.71999e-05
1.23075e-06
-0.000376221
2.89717e-05
1.26438e-06
3.09382e-05
1.2983e-06
-0.000408457
-3.1799e-06
6.25607e-06
-1.11904e-05
1.57514e-05
-2.28554e-05
2.29333e-05
-3.7237e-05
2.82746e-05
-5.35964e-05
3.21695e-05
-7.13657e-05
3.49558e-05
-9.01232e-05
3.69224e-05
-0.000109572
3.83167e-05
-0.000129524
3.93504e-05
-0.000149882
4.02052e-05
-0.000170626
4.10358e-05
-0.000191806
4.19727e-05
-0.000213524
4.31236e-05
-0.000235927
4.45743e-05
-0.000259197
4.63885e-05
-0.000283537
4.86087e-05
-0.000309163
5.12553e-05
-0.000336291
5.43274e-05
-0.000365128
5.78093e-05
6.16878e-05
-0.000395878
-3.12373e-06
9.37979e-06
-1.09953e-05
2.36231e-05
-2.24488e-05
3.43867e-05
-3.6547e-05
4.23729e-05
-5.25464e-05
4.8169e-05
-6.987e-05
5.22794e-05
-8.80834e-05
5.51358e-05
-0.000106875
5.71078e-05
-0.000126036
5.85123e-05
-0.000145453
5.96216e-05
-0.000165086
6.0669e-05
-0.000184966
6.18529e-05
-0.000205181
6.3339e-05
-0.000225868
6.52613e-05
-0.000247202
6.77224e-05
-0.000269387
7.07929e-05
-0.000292642
7.4511e-05
-0.000317196
7.88815e-05
-0.000343273
8.38855e-05
8.95034e-05
-0.000371088
-3.04422e-06
1.2424e-05
-1.07172e-05
3.1296e-05
-2.18666e-05
4.55362e-05
-3.5557e-05
5.60633e-05
-5.10385e-05
6.36505e-05
-6.77217e-05
6.89625e-05
-8.51543e-05
7.25684e-05
-0.000103002
7.49555e-05
-0.000121032
7.65421e-05
-0.000139099
7.7689e-05
-0.000157138
7.87074e-05
-0.00017515
7.9865e-05
-0.0001932
8.1389e-05
-0.000211406
8.34676e-05
-0.000229933
8.62496e-05
-0.000248983
8.98432e-05
-0.000268786
9.43138e-05
-0.000289586
9.96816e-05
-0.000311632
0.000105931
0.00011304
-0.000335168
-2.94744e-06
1.53715e-05
-1.03745e-05
3.87231e-05
-2.11448e-05
5.63065e-05
-3.43249e-05
6.92433e-05
-4.9158e-05
7.84836e-05
-6.50402e-05
8.48447e-05
-8.1498e-05
8.90263e-05
-9.81695e-05
9.16269e-05
-0.000114789
9.31614e-05
-0.000131175
9.40748e-05
-0.000147222
9.47546e-05
-0.000162895
9.55381e-05
-0.000178224
9.67178e-05
-0.000193299
9.85432e-05
-0.000208269
0.000101219
-0.000223331
0.000104905
-0.000238724
0.000109706
-0.000254717
0.000115675
-0.000271596
0.00012281
0.000131094
-0.00028965
-2.84005e-06
1.82115e-05
-9.98782e-06
4.58708e-05
-2.03227e-05
6.66414e-05
-3.29138e-05
8.18345e-05
-4.69981e-05
9.25679e-05
-6.19569e-05
9.98035e-05
-7.72939e-05
0.000104363
-9.26166e-05
0.00010695
-0.000107621
0.000108166
-0.000122083
0.000108536
-0.000135848
0.00010852
-0.000148832
0.000108522
-0.000161019
0.000108905
-0.00017246
0.000109984
-0.000183275
0.000112034
-0.00019365
0.00011528
-0.000203834
0.000119891
-0.000214127
0.000125967
-0.000224867
0.00013355
0.000142637
-0.00023641
-2.72836e-06
2.09399e-05
-9.57614e-06
5.27186e-05
-1.94365e-05
7.65018e-05
-3.1382e-05
9.378e-05
-4.46447e-05
0.000105831
-5.8593e-05
0.000113752
-7.27091e-05
0.000118479
-8.65695e-05
0.00012081
-9.98305e-05
0.000121427
-0.000112218
0.000120924
-0.000123524
0.000119825
-0.000133603
0.000118601
-0.000142379
0.000117681
-0.00014985
0.000117455
-0.000156092
0.000118277
-0.00016127
0.000120458
-0.000165634
0.000124254
-0.000169518
0.000129852
-0.00017333
0.000137362
0.000146829
-0.000177522
-2.61729e-06
2.35572e-05
-9.15399e-06
5.92553e-05
-1.85133e-05
8.5861e-05
-2.97716e-05
0.000105038
-4.21591e-05
0.000118218
-5.50354e-05
0.000126628
-6.7865e-05
0.000131309
-8.01969e-05
0.000133142
-9.16488e-05
0.000132879
-0.000101897
0.000131172
-0.000110673
0.000128601
-0.000117762
0.000125691
-0.000123015
0.000122934
-0.000126357
0.000120797
-0.000127804
0.000119723
-0.000127476
0.00012013
-0.000125614
0.000122393
-0.000122585
0.000126823
-0.000118876
0.000133653
0.000143028
-0.000115075
-2.50959e-06
2.60668e-05
-8.72854e-06
6.54743e-05
-1.75647e-05
9.46972e-05
-2.80989e-05
0.000115572
-3.95632e-05
0.000129682
-5.13138e-05
0.000138379
-6.28044e-05
0.0001428
-7.35637e-05
0.000143901
-8.31768e-05
0.000142492
-9.12743e-05
0.00013927
-9.75269e-05
0.000134853
-0.000101647
0.000129811
-0.000103401
0.000124688
-0.000102623
0.000120019
-9.92412e-05
0.000116342
-9.33089e-05
0.000114198
-8.50306e-05
0.000114114
-7.47908e-05
0.000116583
-6.31682e-05
0.000122031
0.000130783
-5.09231e-05
-2.40526e-06
2.8472e-05
-8.29789e-06
7.13669e-05
-1.65837e-05
0.000102983
-2.63474e-05
0.000125336
-3.68266e-05
0.000140162
-4.73808e-05
0.000148933
-5.74619e-05
0.000152881
-6.65881e-05
0.000153027
-7.43232e-05
0.000150227
-8.02618e-05
0.000145209
-8.40218e-05
0.000138613
-8.52447e-05
0.000131034
-8.36059e-05
0.000123049
-7.88357e-05
0.000115248
-7.07515e-05
0.000108258
-5.93021e-05
0.000102748
-4.46201e-05
9.94324e-05
-2.70775e-05
9.90402e-05
-7.33736e-06
0.000102291
0.00010982
1.36255e-05
-2.3015e-06
3.07735e-05
-7.85062e-06
7.6916e-05
-1.55428e-05
0.000110675
-2.44646e-05
0.000134258
-3.38612e-05
0.000149558
-4.31015e-05
0.000158173
-5.16446e-05
0.000161424
-5.90106e-05
0.000160393
-6.47564e-05
0.000155973
-6.84568e-05
0.000148909
-6.96925e-05
0.000139849
-6.80468e-05
0.000129388
-6.31118e-05
0.000118114
-5.45085e-05
0.000106645
-4.19243e-05
9.56736e-05
-2.51697e-05
8.59939e-05
-4.25638e-06
7.85191e-05
2.05066e-05
7.42772e-05
4.84019e-05
7.43952e-05
8.00113e-05
7.82106e-05
-2.19317e-06
3.29667e-05
-7.36698e-06
8.20898e-05
-1.43961e-05
0.000117704
-2.2364e-05
0.000142226
-3.05226e-05
0.000157717
-3.82531e-05
0.000165904
-4.50288e-05
0.000168199
-5.0383e-05
0.000165748
-5.38812e-05
0.000159471
-5.50984e-05
0.000150126
-5.36023e-05
0.000138353
-4.89429e-05
0.000124729
-4.06516e-05
0.000109823
-2.8255e-05
9.42485e-05
-1.13088e-05
7.87273e-05
1.0539e-05
6.41461e-05
3.74477e-05
5.16103e-05
6.92415e-05
4.24835e-05
0.000105213
3.84235e-05
4.13256e-05
0.000143899
-2.07368e-06
3.50404e-05
-6.82152e-06
8.68377e-05
-1.30844e-05
0.000123967
-1.99335e-05
0.000149075
-2.66217e-05
0.000164405
-3.25399e-05
0.000171822
-3.71772e-05
0.000172837
-4.00862e-05
0.000168657
-4.08535e-05
0.000160238
-3.90742e-05
0.000148347
-3.43308e-05
0.00013361
-2.61758e-05
0.000116574
-1.41212e-05
9.7768e-05
2.36041e-06
7.77668e-05
2.38148e-05
5.72729e-05
5.07503e-05
3.72106e-05
8.35295e-05
1.88312e-05
0.000122187
3.8264e-06
0.00016613
-5.52005e-06
-6.25062e-06
0.000213706
-1.93617e-06
3.69765e-05
-6.18672e-06
9.10882e-05
-1.15422e-05
0.000129323
-1.70469e-05
0.00015458
-2.19425e-05
0.000169301
-2.56197e-05
0.000175499
-2.75757e-05
0.000174793
-2.73797e-05
0.000168461
-2.46426e-05
0.000157501
-1.89922e-05
0.000142696
-1.00502e-05
0.000124668
2.58857e-06
0.000103935
1.93762e-05
8.09804e-05
4.08253e-05
5.63177e-05
6.75101e-05
3.05881e-05
0.000100036
4.68475e-06
0.000138949
-2.00823e-05
0.000184546
-4.17702e-05
0.000236485
-5.74589e-05
-6.28377e-05
0.000293072
-1.77471e-06
3.87512e-05
-5.43659e-06
9.47501e-05
-9.70507e-06
0.000133591
-1.35776e-05
0.000158452
-1.62651e-05
0.000171988
-1.71387e-05
0.000176373
-1.56861e-05
0.00017334
-1.14768e-05
0.000164251
-4.13544e-06
0.00015016
6.68018e-06
0.000131881
2.12977e-05
0.00011005
4.00498e-05
8.51831e-05
6.32959e-05
5.77344e-05
9.14469e-05
2.81666e-05
0.00012499
-2.95512e-06
0.000164498
-3.48232e-05
0.000210591
-6.61748e-05
0.000263792
-9.49711e-05
0.00032413
-0.000117797
-0.000128842
0.000390134
-1.58496e-06
4.03362e-05
-4.54908e-06
9.77142e-05
-7.51527e-06
0.000136557
-9.40891e-06
0.000160346
-9.38387e-06
0.000171963
-6.76434e-06
0.000173753
-9.99163e-07
0.000167575
8.3711e-06
0.000154881
2.17363e-05
0.000136795
3.94311e-05
0.000114186
6.17448e-05
8.77363e-05
8.89309e-05
5.79971e-05
0.00012122
2.54453e-05
0.000158843
-9.45607e-06
0.000202065
-4.61775e-05
0.000251235
-8.3993e-05
0.000306817
-0.000121756
0.000369364
-0.000157519
0.000439267
-0.0001877
-0.000205165
0.00051559
-1.36418e-06
4.17004e-05
-3.50609e-06
9.98561e-05
-4.92264e-06
0.000137974
-4.43781e-06
0.000159861
-1.11742e-06
0.000168643
5.79542e-06
0.00016684
1.6928e-05
0.000156443
3.28092e-05
0.000139
5.38856e-05
0.000115718
8.05269e-05
8.75446e-05
0.000113023
5.52403e-05
0.000151576
1.9444e-05
0.000196295
-1.92734e-05
0.000247195
-6.03562e-05
0.00030422
-0.000103203
0.000367295
-0.000147068
0.000436407
-0.000190869
0.000511718
-0.000232829
0.000593608
-0.00026959
-0.000293482
0.000681925
-1.11013e-06
4.28105e-05
-2.29069e-06
0.000101037
-1.87994e-06
0.000137563
1.43104e-06
0.00015655
8.69786e-06
0.000161376
2.07952e-05
0.000154743
3.84669e-05
0.000138771
6.23557e-05
0.000115111
9.30141e-05
8.50598e-05
0.000130901
4.96582e-05
0.000176363
9.77765e-06
0.000229614
-3.38071e-05
0.000290697
-8.03565e-05
0.000359453
-0.000129112
0.000435494
-0.000179244
0.000518207
-0.000229781
0.000606816
-0.000279478
0.000700523
-0.000326536
0.000798816
-0.000367884
-0.000397106
0.00090244
-8.192e-07
4.36297e-05
-8.81775e-07
0.000101099
1.66692e-06
0.000135014
8.30023e-06
0.000149917
2.02279e-05
0.000149448
3.84771e-05
0.000136494
6.39451e-05
0.000113303
9.7428e-05
8.16282e-05
0.000139627
4.28612e-05
0.000191137
-1.85233e-06
0.000252427
-5.15118e-05
0.000323796
-0.000105177
0.000405333
-0.000161893
0.000496843
-0.000220622
0.000597768
-0.000280169
0.000707087
-0.000339099
0.000823215
-0.000395606
0.000943927
-0.000447249
0.00106658
-0.000490532
-0.000522536
0.00119201
-4.84242e-07
4.4114e-05
7.5229e-07
9.98627e-05
5.79073e-06
0.000129976
1.62984e-05
0.000139409
3.36682e-05
0.000132078
5.91073e-05
0.000111055
9.36921e-05
7.8718e-05
0.000138393
3.69273e-05
0.000194078
-1.28234e-05
0.000261498
-6.92728e-05
0.000341269
-0.000131282
0.000433838
-0.000197747
0.000539463
-0.000267517
0.000658169
-0.000339328
0.00078971
-0.00041171
0.000933474
-0.000482863
0.00108827
-0.000550404
0.00125159
-0.000610561
0.00141677
-0.000655717
-0.000668948
0.00156318
-9.34158e-08
4.42074e-05
2.65777e-06
9.71115e-05
1.05916e-05
0.000122042
2.55946e-05
0.000124406
4.92647e-05
0.000108408
8.30048e-05
7.73145e-05
0.000128075
3.36481e-05
0.000185608
-2.06062e-05
0.000256609
-8.3824e-05
0.000341932
-0.000154596
0.000442266
-0.000231617
0.000558126
-0.000313607
0.000689871
-0.000399262
0.000837764
-0.000487221
0.00100212
-0.000576065
0.00118359
-0.00066433
0.00138369
-0.000750508
0.0016061
-0.000832972
0.00186055
-0.00091017
-0.000977493
0.0021691
3.73339e-07
4.3834e-05
4.902e-06
9.25829e-05
1.6205e-05
0.000110739
3.64071e-05
0.000104204
6.73228e-05
7.74927e-05
0.000110549
3.40886e-05
0.000167504
-2.33068e-05
0.000239431
-9.25333e-05
0.000327375
-0.000171768
0.000432151
-0.000259372
0.000554317
-0.000353783
0.000694169
-0.000453458
0.000851756
-0.000556849
0.00102695
-0.000662419
0.00121958
-0.000768695
0.00142961
-0.000874353
0.00165743
-0.000978336
0.00190444
-0.00107998
0.00217329
-0.00117902
-0.00126763
0.00246343
9.39672e-07
4.28944e-05
7.56435e-06
8.59582e-05
2.27886e-05
9.55149e-05
4.89845e-05
7.80081e-05
8.81795e-05
3.82978e-05
0.000142138
-1.98697e-05
0.000212378
-9.35474e-05
0.00030015
-0.000180305
0.000406385
-0.000278003
0.000531646
-0.000384633
0.00067609
-0.000498227
0.000839457
-0.000616825
0.00102109
-0.000738483
0.00122
-0.000861328
0.00143494
-0.00098364
0.00166454
-0.00110395
0.00190735
-0.00122114
0.00216192
-0.00133455
0.00242668
-0.00144378
-0.00154064
0.00269969
1.6335e-06
4.12609e-05
1.07336e-05
7.68581e-05
3.05117e-05
7.57369e-05
6.35812e-05
4.49386e-05
0.000112158
-1.02787e-05
0.000178115
-8.58267e-05
0.000262967
-0.0001784
0.000367814
-0.000285152
0.000493261
-0.00040345
0.000639357
-0.000530729
0.000805558
-0.000664429
0.000990738
-0.000802005
0.00119323
-0.000940978
0.00141094
-0.00107903
0.0016414
-0.00121411
0.00188196
-0.0013445
0.00212976
-0.00146894
0.00238182
-0.00158662
0.0026351
-0.00169706
-0.00179367
0.00288812
2.48321e-06
3.87777e-05
1.44967e-05
6.48446e-05
3.95316e-05
5.07019e-05
8.04162e-05
4.05405e-06
0.000139498
-6.93607e-05
0.00021866
-0.000164988
0.000319255
-0.000278996
0.000442016
-0.000407913
0.000586957
-0.000548391
0.000753321
-0.000697093
0.000939575
-0.000850683
0.00114348
-0.00100591
0.00136219
-0.00115969
0.00159246
-0.0013093
0.00183076
-0.00145241
0.00207349
-0.00158723
0.00231706
-0.00171251
0.00255797
-0.00182753
0.002793
-0.00193208
-0.00202165
0.00302098
3.51451e-06
3.52632e-05
1.89278e-05
4.94313e-05
4.99709e-05
1.96588e-05
9.9631e-05
-4.5606e-05
0.000170292
-0.000140021
0.00026369
-0.000258386
0.000380804
-0.000396109
0.000521725
-0.000548835
0.000685581
-0.000712246
0.000870513
-0.000882025
0.00107377
-0.00105394
0.00129186
-0.001224
0.0015208
-0.00138863
0.00175635
-0.00154485
0.00199428
-0.00169034
0.00223057
-0.00182353
0.00246159
-0.00194353
0.00268416
-0.0020501
0.00289566
-0.00214358
-0.00222153
0.00309554
4.74774e-06
3.05154e-05
2.40787e-05
3.01003e-05
6.1896e-05
-1.81585e-05
0.000121253
-0.000104963
0.000204422
-0.000223191
0.000312785
-0.000366749
0.000446666
-0.00052999
0.000605211
-0.00070738
0.000786356
-0.000893391
0.000986912
-0.00108258
0.00120279
-0.00126982
0.0014293
-0.00145051
0.00166152
-0.00162085
0.00189462
-0.00177795
0.00212419
-0.0019199
0.00234639
-0.00204573
0.00255817
-0.0021553
0.00275722
-0.00224915
0.00294202
-0.00232839
-0.0023923
0.0031128
6.19613e-06
2.43193e-05
2.99725e-05
6.32399e-06
7.53027e-05
-6.34887e-05
0.000145168
-0.000174828
0.000241531
-0.000319554
0.000365142
-0.00049036
0.000515359
-0.000680207
0.000690067
-0.000882088
0.000885761
-0.00108908
0.00109781
-0.00129463
0.00132084
-0.00149285
0.00154923
-0.00167889
0.00177752
-0.00184914
0.00200084
-0.00200127
0.00221515
-0.00213421
0.0024174
-0.00224798
0.00260554
-0.00234344
0.00277848
-0.0024221
0.00293596
-0.00248586
-0.00253539
0.00307905
7.86494e-06
1.64543e-05
3.65991e-05
-2.24102e-05
9.01069e-05
-0.000116996
0.00017111
-0.000255831
0.000281
-0.000429444
0.000419583
-0.000628943
0.000584915
-0.000845539
0.00077335
-0.00107052
0.000979812
-0.00129555
0.00119828
-0.0015131
0.00142238
-0.00171695
0.00164598
-0.00190249
0.00186366
-0.00206682
0.00207108
-0.00220869
0.0022651
-0.00232823
0.00244383
-0.00242671
0.00260648
-0.00250609
0.00275321
-0.00256882
0.00288485
-0.00261751
-0.00265378
0.00300323
9.75113e-06
6.7032e-06
4.39138e-05
-5.65728e-05
0.000106141
-0.000179223
0.000198654
-0.000348345
0.000321966
-0.000552756
0.000474591
-0.000781568
0.000652989
-0.00102394
0.00085181
-0.00126934
0.00106444
-0.00150818
0.00128375
-0.0017324
0.00150281
-0.00193601
0.00171554
-0.00211523
0.00191717
-0.00226845
0.00210436
-0.00239588
0.00227524
-0.00249912
0.00242924
-0.0025807
0.0025668
-0.00264365
0.00268912
-0.00269114
0.00279786
-0.00272625
-0.00275121
0.0028953
1.18433e-05
-5.14008e-06
5.18361e-05
-9.65656e-05
0.000123153
-0.00025054
0.000227225
-0.000452417
0.000363341
-0.000688871
0.000528396
-0.000946623
0.00071703
-0.00121257
0.000922182
-0.0014745
0.00113595
-0.00172194
0.00135051
-0.00194697
0.00155899
-0.00214449
0.00175598
-0.00231221
0.00193778
-0.00245025
0.00210243
-0.00256052
0.00224942
-0.00264611
0.00237942
-0.0027107
0.00249389
-0.00275812
0.00259474
-0.002792
0.0026841
-0.0028156
-0.00283146
0.00276435
1.41213e-05
-1.92614e-05
6.02502e-05
-0.000142695
0.000140811
-0.000331101
0.000256114
-0.00056772
0.000403871
-0.000836628
0.000579083
-0.00112183
0.00077449
-0.00140798
0.000981499
-0.00168151
0.00119134
-0.00193178
0.0013961
-0.00215174
0.00158955
-0.00233794
0.00176742
-0.00249008
0.00192744
-0.00261027
0.00206907
-0.00270215
0.00219308
-0.00277012
0.00230114
-0.00281876
0.00239537
-0.00285236
0.00247808
-0.00287471
0.0025515
-0.00288902
-0.00289786
0.0026179
1.65562e-05
-3.58175e-05
6.90055e-05
-0.000195144
0.000158711
-0.000420807
0.000284507
-0.000693516
0.000442204
-0.000994325
0.00062474
-0.00130437
0.000823047
-0.00160629
0.00102737
-0.00188583
0.00122864
-0.00213305
0.00141948
-0.00234258
0.00159478
-0.00251324
0.00175176
-0.00264705
0.00188963
-0.00274815
0.00200919
-0.00282171
0.00211222
-0.00287315
0.00220105
-0.00290758
0.00227814
-0.00292945
0.00234586
-0.00294244
0.00240636
-0.00294952
-0.00295309
0.00246159
1.91096e-05
-5.49272e-05
7.7919e-05
-0.000253953
0.000176389
-0.000519277
0.000311523
-0.000828651
0.000476976
-0.00115978
0.000663602
-0.001491
0.000860804
-0.00180349
0.0010582
-0.00208322
0.00124701
-0.00232186
0.00142095
-0.00251652
0.00157638
-0.00266867
0.00171209
-0.00278276
0.00182869
-0.00286476
0.00192804
-0.00292106
0.0020126
-0.00295772
0.00208503
-0.00298002
0.00214787
-0.00299228
0.00220333
-0.0029979
0.00225331
-0.0029995
-0.00299921
0.00229943
2.17344e-05
-7.66616e-05
8.67797e-05
-0.000318999
0.000193338
-0.000625835
0.000336264
-0.000971577
0.000506909
-0.00133042
0.000694192
-0.00167828
0.000886435
-0.00199573
0.00107322
-0.00227001
0.00124666
-0.00249531
0.00140192
-0.00267177
0.00153699
-0.00280375
0.00165214
-0.00289791
0.00174914
-0.00296175
0.00183056
-0.00300248
0.00189926
-0.00302641
0.00195793
-0.00303869
0.00200897
-0.00304331
0.00205434
-0.00304328
0.00209563
-0.00304078
-0.00303767
0.00213409
2.43749e-05
-0.000101037
9.53558e-05
-0.00038998
0.000209037
-0.000739516
0.00035787
-0.00112041
0.000530899
-0.00150345
0.000715429
-0.00186281
0.000899258
-0.00217956
0.00107253
-0.00244328
0.00122871
-0.00265148
0.00136459
-0.00280766
0.00147977
-0.00291893
0.00157578
-0.00299392
0.00165521
-0.00304119
0.00172108
-0.00306835
0.00177631
-0.00308163
0.00182346
-0.00308584
0.00186467
-0.00308452
0.00190158
-0.0030802
0.00193548
-0.00307468
-0.0030695
0.00196731
2.69689e-05
-0.000128005
0.000103404
-0.000466415
0.000222976
-0.000859088
0.000375576
-0.00127301
0.000548097
-0.00167597
0.000726688
-0.0020414
0.000899221
-0.00235209
0.00105692
-0.00260098
0.00119488
-0.00278943
0.00131156
-0.00292435
0.00140799
-0.00301535
0.00148664
-0.00307257
0.00155064
-0.00310519
0.00160315
-0.00312085
0.00164696
-0.00312544
0.00168439
-0.00312328
0.00171725
-0.00311738
0.0017469
-0.00310984
0.0017743
-0.00310209
-0.00309537
0.00180017
2.94496e-05
-0.000157455
0.000110682
-0.000547647
0.000234684
-0.00098309
0.000388759
-0.00142709
0.00055795
-0.00184516
0.000727799
-0.00221125
0.000886821
-0.00251112
0.00102771
-0.00274187
0.00114728
-0.002909
0.00124558
-0.00302265
0.00132475
-0.00309452
0.00138794
-0.00313576
0.00143851
-0.00315576
0.00147955
-0.00316189
0.00151361
-0.00315951
0.0015427
-0.00315237
0.00156831
-0.00314298
0.00159149
-0.00313302
0.001613
-0.0031236
-0.00311571
0.00163334
3.17484e-05
-0.000189203
0.000116959
-0.000632857
0.00024376
-0.00110989
0.000396974
-0.0015803
0.00056022
-0.00200841
0.000719013
-0.00237004
0.000862987
-0.00265509
0.000986529
-0.00286542
0.00108815
-0.00301062
0.00116926
-0.00310375
0.00123282
-0.00315809
0.00128237
-0.00318531
0.00132128
-0.00319467
0.00135241
-0.00319302
0.00137803
-0.00318512
0.00139979
-0.00317413
0.00141889
-0.00316208
0.00143616
-0.00315029
0.00145216
-0.0031396
-0.00313079
0.00146725
3.37983e-05
-0.000223002
0.000122029
-0.000721088
0.000249892
-0.00123775
0.000399969
-0.00173038
0.000554966
-0.00216341
0.000700919
-0.002516
0.000828934
-0.0027831
0.000935171
-0.00297165
0.0010197
-0.00309515
0.00108499
-0.00316904
0.00113458
-0.00320768
0.00117212
-0.00322285
0.00120084
-0.00322339
0.00122331
-0.00321549
0.00124144
-0.00320325
0.0012566
-0.00318928
0.00126971
-0.0031752
0.00128143
-0.003162
0.00129216
-0.00315034
-0.00314078
0.00130215
3.55403e-05
-0.000258542
0.00012573
-0.000811278
0.000252882
-0.00136491
0.000397698
-0.00187519
0.00054252
-0.00230823
0.000674373
-0.00264785
0.000786054
-0.00289479
0.00087545
-0.00306105
0.000943962
-0.00316366
0.000994861
-0.00321994
0.00103199
-0.00324481
0.00105893
-0.0032498
0.00107866
-0.00324312
0.0010934
-0.00323024
0.00110476
-0.0032146
0.0011138
-0.00319833
0.00112128
-0.00318267
0.00112766
-0.00316838
0.00113325
-0.00315594
-0.00314577
0.00113824
3.69125e-05
-0.000295455
0.000127918
-0.000902283
0.000252609
-0.0014896
0.000390255
-0.00201284
0.000523372
-0.00244134
0.000640339
-0.00276482
0.000735735
-0.00299018
0.000809034
-0.00313435
0.00086272
-0.00321735
0.000900594
-0.00325781
0.000926583
-0.0032708
0.00094409
-0.00326731
0.000955759
-0.00325479
0.000963486
-0.00323796
0.000968562
-0.00321968
0.000971842
-0.00320161
0.000973888
-0.00318471
0.00097507
-0.00316957
0.00097562
-0.00315648
-0.0031458
0.000975652
3.78721e-05
-0.000333327
0.000128516
-0.000992927
0.000249085
-0.00161017
0.000377919
-0.00214167
0.000498195
-0.00256162
0.000599899
-0.00286652
0.000679374
-0.00306966
0.000737484
-0.00319246
0.000777536
-0.0032574
0.000803627
-0.0032839
0.00081961
-0.00328678
0.000828613
-0.00327631
0.000832937
-0.00325911
0.000834156
-0.00323918
0.000833304
-0.00321883
0.000831041
-0.00319935
0.0008278
-0.00318147
0.000823864
-0.00316563
0.000819409
-0.00315203
-0.0031409
0.000814515
3.83837e-05
-0.00037171
0.00012749
-0.00108203
0.000242405
-0.00172508
0.00036107
-0.00226034
0.000467734
-0.00266828
0.000554129
-0.00295291
0.000618262
-0.00313379
0.00066216
-0.00323635
0.000689708
-0.00328495
0.000705107
-0.0032993
0.000712019
-0.00329369
0.000713249
-0.00327754
0.00071076
-0.00325662
0.000705838
-0.00323426
0.000699293
-0.00321228
0.000691634
-0.00319169
0.00068319
-0.00317303
0.000674182
-0.00315662
0.000664745
-0.00314259
-0.0031311
0.00065494
3.84242e-05
-0.000410135
0.000124847
-0.00116846
0.000232744
-0.00183298
0.00034017
-0.00236776
0.000432766
-0.00276088
0.000504058
-0.00302421
0.000553559
-0.00318329
0.000584223
-0.00326702
0.000600298
-0.00330102
0.000605935
-0.00330494
0.000604531
-0.00329229
0.00059855
-0.00327156
0.00058964
-0.00324771
0.000578834
-0.00322345
0.000566756
-0.00320021
0.000553793
-0.00317872
0.000540199
-0.00315944
0.000526144
-0.00314257
0.000511741
-0.00312819
-0.00311639
0.000497034
3.79824e-05
-0.000448117
0.000120638
-0.00125111
0.000220338
-0.00193268
0.000315726
-0.00246315
0.000394066
-0.00283922
0.000450643
-0.00308078
0.000486286
-0.00321893
0.000504652
-0.00328538
0.000510163
-0.00330653
0.000506815
-0.00330159
0.000497691
-0.00328316
0.000484925
-0.00325879
0.000469877
-0.00323267
0.000453363
-0.00320694
0.000435859
-0.0031827
0.000417654
-0.00316052
0.00039894
-0.00314072
0.000379855
-0.00312348
0.000360493
-0.00310883
-0.00309679
0.000340896
3.70588e-05
-0.000485176
0.000114946
-0.001329
0.000205465
-0.0020232
0.000288263
-0.00254595
0.000352374
-0.00290333
0.000394746
-0.00312316
0.000417321
-0.00324151
0.00042425
-0.00329231
0.000419987
-0.00330227
0.000408289
-0.00328989
0.000391911
-0.00326678
0.000372674
-0.00323956
0.000351689
-0.00321168
0.000329589
-0.00318484
0.00030673
-0.00315984
0.000283321
-0.00313711
0.000259508
-0.00311691
0.000235404
-0.00309938
0.000211093
-0.00308452
-0.00307232
0.000186616
3.56645e-05
-0.00052084
0.000107883
-0.00140122
0.000188429
-0.00210374
0.000258305
-0.00261583
0.000308378
-0.0029534
0.000337129
-0.00315191
0.000347406
-0.00325179
0.000343678
-0.00328859
0.000330308
-0.0032889
0.000310772
-0.00327036
0.000287496
-0.00324351
0.00026202
-0.00321408
0.000235237
-0.0031849
0.000207634
-0.00315724
0.000179467
-0.00313168
0.000150882
-0.00310852
0.000121984
-0.00308801
9.28691e-05
-0.00307026
6.36166e-05
-0.00305526
-0.00304298
3.4275e-05
3.38203e-05
-0.00055466
9.95817e-05
-0.00146698
0.000169547
-0.00217371
0.000226353
-0.00267263
0.000262704
-0.00298976
0.000278454
-0.00316766
0.000277166
-0.0032505
0.000263469
-0.00327489
0.000241553
-0.00326698
0.000214585
-0.00324339
0.000184682
-0.0032136
0.000153129
-0.00318253
0.000120642
-0.00315241
8.75889e-05
-0.00312419
5.41448e-05
-0.00309823
2.04019e-05
-0.00307478
-1.35677e-05
-0.00305404
-4.76858e-05
-0.00303615
-8.18686e-05
-0.00302108
-0.00300879
-0.000116057
3.15549e-05
-0.000586215
9.01877e-05
-0.00152561
0.000149135
-0.00223266
0.000192879
-0.00271638
0.000215912
-0.00301279
0.000219293
-0.00317104
0.000207118
-0.00323832
0.000184055
-0.00325183
0.000154059
-0.00323699
0.00011998
-0.00320931
8.36471e-05
-0.00317727
4.61288e-05
-0.00314501
7.99642e-06
-0.00311428
-3.04774e-05
-0.00308571
-6.91809e-05
-0.00305953
-0.000108069
-0.00303589
-0.000147102
-0.00301501
-0.000186215
-0.00299703
-0.000225317
-0.00298198
-0.00296977
-0.00026433
2.89038e-05
-0.000615119
7.98551e-05
-0.00157656
0.000127504
-0.00228031
0.000158319
-0.00274719
0.000168499
-0.00302297
0.000160133
-0.00316267
0.000137696
-0.00321589
0.000105789
-0.00321992
6.80982e-05
-0.0031993
2.71589e-05
-0.00316837
-1.54608e-05
-0.00313465
-5.88746e-05
-0.0031016
-0.000102626
-0.00307053
-0.000146513
-0.00304182
-0.000190473
-0.00301557
-0.000234504
-0.00299186
-0.000278599
-0.00297091
-0.000322707
-0.00295292
-0.000366725
-0.00293796
-0.00292595
-0.000410549
2.59076e-05
-0.000641027
6.87415e-05
-0.0016194
0.00010495
-0.00231651
0.00012307
-0.00276531
0.000120901
-0.0030208
0.000101393
-0.00314316
6.92612e-05
-0.00318375
2.89672e-05
-0.00317963
-1.6101e-05
-0.00315423
-6.37059e-05
-0.00312076
-0.000112513
-0.00308585
-0.000161787
-0.00305232
-0.000211158
-0.00302116
-0.000260474
-0.00299251
-0.000309709
-0.00296633
-0.000358897
-0.00294268
-0.000408068
-0.00292174
-0.000457192
-0.0029038
-0.00050615
-0.002889
-0.0028773
-0.0005548
2.26108e-05
-0.000663638
5.70043e-05
-0.00165379
8.17505e-05
-0.00234126
8.74938e-05
-0.00277105
7.35016e-05
-0.00300681
4.34322e-05
-0.00311309
2.12412e-06
-0.00314245
-4.61598e-05
-0.00313134
-9.83374e-05
-0.00310205
-0.000152454
-0.00306665
-0.00020738
-0.00303092
-0.000262508
-0.0029972
-0.000317529
-0.00296614
-0.000372318
-0.00293772
-0.000426871
-0.00291178
-0.000481254
-0.00288829
-0.000535541
-0.00286746
-0.000589733
-0.00284961
-0.000643699
-0.00283504
-0.00282376
-0.000697236
1.90607e-05
-0.000682698
4.47974e-05
-0.00167953
5.81667e-05
-0.00235463
5.19124e-05
-0.0027648
2.6637e-05
-0.00298153
-1.34377e-05
-0.00307302
-6.34461e-05
-0.00309244
-0.000119366
-0.00307542
-0.000178421
-0.00304299
-0.000238921
-0.00300615
-0.000299922
-0.00296992
-0.000360918
-0.0029362
-0.000421645
-0.00290541
-0.000481986
-0.00287738
-0.000541936
-0.00285183
-0.000601583
-0.00282865
-0.000661048
-0.00280799
-0.000720383
-0.00279027
-0.000779454
-0.00277597
-0.00276525
-0.000837964
1.53059e-05
-0.000698004
3.22695e-05
-0.00169649
3.44386e-05
-0.0023568
1.66164e-05
-0.00274698
-1.93961e-05
-0.00294552
-6.89423e-05
-0.00302347
-0.000127208
-0.00303417
-0.000190438
-0.00301219
-0.000256159
-0.00297727
-0.000322927
-0.00293938
-0.000389965
-0.00290288
-0.000456857
-0.00286931
-0.000523372
-0.00283889
-0.000589383
-0.00281137
-0.000654862
-0.00278635
-0.00071989
-0.00276362
-0.000784629
-0.00274325
-0.000849198
-0.0027257
-0.000913474
-0.00271169
-0.00270171
-0.00097702
1.13959e-05
-0.0007094
1.95622e-05
-0.00170466
1.07863e-05
-0.00234802
-1.81345e-05
-0.00271806
-6.43352e-05
-0.00289932
-0.000122837
-0.00296497
-0.000188938
-0.00296807
-0.000259167
-0.00294196
-0.000331345
-0.0029051
-0.000404258
-0.00286647
-0.000477283
-0.00282986
-0.000550096
-0.00279649
-0.000622496
-0.00276649
-0.000694342
-0.00273952
-0.000765557
-0.00271514
-0.000836178
-0.002693
-0.000906378
-0.00267305
-0.000976348
-0.00265573
-0.001046
-0.00264204
-0.00263292
-0.00111479
7.3797e-06
-0.00071678
6.80842e-06
-0.00170409
-1.25907e-05
-0.00232862
-5.21102e-05
-0.00267854
-0.000107949
-0.00284348
-0.000174903
-0.00289802
-0.000248429
-0.00289454
-0.000325347
-0.00286505
-0.000403757
-0.00282669
-0.000482664
-0.00278756
-0.000561594
-0.00275092
-0.000640319
-0.00271777
-0.000718689
-0.00268812
-0.000796561
-0.00266165
-0.000873804
-0.00263789
-0.000950381
-0.00261642
-0.00102644
-0.00259699
-0.00110226
-0.00257991
-0.00117783
-0.00256646
-0.00255795
-0.0012528
3.30474e-06
-0.000720085
-5.86927e-06
-0.00169491
-3.55138e-05
-0.00229898
-8.51085e-05
-0.00262894
-0.000150035
-0.00277855
-0.000224944
-0.00282311
-0.000305484
-0.00281401
-0.000388765
-0.00278176
-0.000473153
-0.0027423
-0.000557856
-0.00270286
-0.00064255
-0.00266623
-0.000727118
-0.0026332
-0.000811494
-0.00260375
-0.000895577
-0.00257757
-0.000979218
-0.00255425
-0.00106231
-0.00253333
-0.00114494
-0.00251436
-0.00122751
-0.00249734
-0.00131023
-0.00248374
-0.00247449
-0.0013937
-7.83952e-07
-0.000719301
-1.836e-05
-0.00167734
-5.7827e-05
-0.00225951
-0.000116956
-0.00256981
-0.00019042
-0.00270509
-0.000272789
-0.00274074
-0.000359922
-0.00272687
-0.000449212
-0.00269247
-0.000539269
-0.00265224
-0.000629492
-0.00261263
-0.000719706
-0.00257602
-0.000809928
-0.00254298
-0.000900232
-0.00251344
-0.000990651
-0.00248715
-0.00108113
-0.00246377
-0.00117156
-0.0024429
-0.00126195
-0.00242397
-0.00135265
-0.00240664
-0.00144424
-0.00239215
-0.00237929
-0.00153944
-4.845e-06
-0.000714456
-3.05665e-05
-0.00165161
-7.93983e-05
-0.00221068
-0.000147512
-0.0025017
-0.000228966
-0.00262364
-0.000318301
-0.0026514
-0.000411594
-0.00263358
-0.000506499
-0.00259757
-0.000601845
-0.00255689
-0.000697191
-0.00251729
-0.00079249
-0.00248072
-0.000887898
-0.00244757
-0.000983669
-0.00241767
-0.0010801
-0.00239072
-0.00117746
-0.00236641
-0.00127596
-0.0023444
-0.00137572
-0.00232421
-0.0014773
-0.00230506
-0.00158299
-0.00228647
-0.00227995
-0.00168232
-8.82933e-06
-0.000705626
-4.23865e-05
-0.00161806
-0.000100098
-0.00215297
-0.000176643
-0.00242515
-0.00026555
-0.00253473
-0.000361366
-0.00255559
-0.000460384