/*--------------------------------*- C++ -*----------------------------------*\
  =========                 |
  \\      /  F ield         | OpenFOAM: The Open Source CFD Toolbox
   \\    /   O peration     | Website:  https://openfoam.org
    \\  /    A nd           | Version:  6.0
     \\/     M anipulation  |
\*---------------------------------------------------------------------------*/
FoamFile
{
    version     2.0;
    format      ascii;
    class       volVectorField;
    location    "48";
    object      U;
}
// * * * * * * * * * * * * * * * * * * * * * * * * * * * * * * * * * * * * * //

dimensions      [0 1 -1 0 0 0 0];

internalField   nonuniform List<vector> 
4000
(
(-0.000394531 -0.000391981 -3.20233e-21)
(-0.00223037 -0.00102081 1.71154e-20)
(-0.00566769 -0.0015673 -2.08146e-20)
(-0.00990352 -0.00204999 1.5849e-20)
(-0.0145117 -0.00248398 7.71713e-21)
(-0.0192466 -0.00288208 -2.31724e-20)
(-0.0239323 -0.00325369 -2.04813e-21)
(-0.0284546 -0.00360527 -7.26946e-22)
(-0.0327508 -0.00394077 -1.20243e-20)
(-0.0367957 -0.00426186 -6.51368e-21)
(-0.0405922 -0.00456832 4.85867e-21)
(-0.0441632 -0.00485841 1.84688e-20)
(-0.0475457 -0.00512941 -1.38486e-21)
(-0.0507847 -0.00537803 1.97648e-21)
(-0.0539311 -0.00560082 -1.85956e-20)
(-0.057044 -0.00579469 1.14565e-20)
(-0.0601831 -0.00595716 -1.64122e-20)
(-0.0633353 -0.00608506 2.48329e-20)
(-0.0663932 -0.00617336 -2.77138e-23)
(-0.0698695 -0.00622859 5.35345e-21)
(-0.000442054 0.000563034 1.06314e-20)
(-0.00236303 0.00137287 -5.4316e-20)
(-0.00587994 0.00184239 -3.7511e-20)
(-0.0101817 0.00204182 -2.54752e-20)
(-0.0148395 0.00202793 -3.27676e-20)
(-0.0196076 0.00184851 7.21876e-21)
(-0.0243104 0.00154719 -3.78236e-20)
(-0.0288344 0.00116304 -8.4937e-21)
(-0.0331177 0.000730822 2.68765e-21)
(-0.0371362 0.000281551 2.82725e-20)
(-0.0408936 -0.000157158 -3.08311e-20)
(-0.0444139 -0.000560977 4.28821e-20)
(-0.0477351 -0.000908934 -3.21072e-20)
(-0.0509039 -0.00118356 -3.80695e-20)
(-0.0539725 -0.00137114 -5.24547e-20)
(-0.057002 -0.00146228 3.35034e-20)
(-0.0600544 -0.00145178 -1.08247e-20)
(-0.0631177 -0.00133442 -3.94275e-20)
(-0.0660838 -0.00110179 3.72831e-20)
(-0.0694712 -0.00078211 -2.76378e-20)
(-0.000566877 0.00152482 1.03861e-19)
(-0.00268997 0.00377748 5.37886e-20)
(-0.00636907 0.00526033 6.04885e-20)
(-0.0107893 0.00613514 5.03135e-21)
(-0.0155233 0.00653202 3.34308e-20)
(-0.0203287 0.00656017 4.17402e-20)
(-0.0250332 0.00631658 -7.58106e-20)
(-0.0295268 0.00588598 -4.01514e-20)
(-0.0337501 0.00534184 -5.22713e-20)
(-0.0376816 0.00474793 5.58202e-20)
(-0.0413272 0.00415947 -4.26261e-20)
(-0.0447131 0.00362378 -5.48208e-20)
(-0.0478796 0.00318063 -1.99497e-20)
(-0.0508761 0.0028624 1.89611e-20)
(-0.0537579 0.00269393 -5.2669e-21)
(-0.0565896 0.00269179 7.60917e-21)
(-0.0594376 0.00286459 8.79463e-20)
(-0.0622932 0.00322033 -1.2361e-20)
(-0.0650471 0.00377161 -8.93714e-20)
(-0.0682266 0.00446811 1.17674e-19)
(-0.00077009 0.00248901 3.60998e-20)
(-0.00321269 0.00617997 -5.10504e-20)
(-0.00713564 0.00866521 -1.28056e-20)
(-0.0117252 0.0102009 2.3912e-20)
(-0.0165601 0.0109918 6.79359e-20)
(-0.0214053 0.0112093 1.48758e-19)
(-0.0260951 0.0110035 1.45347e-19)
(-0.0305253 0.0105047 1.20621e-20)
(-0.0346415 0.00982479 8.9118e-20)
(-0.038426 0.0090602 1.36393e-19)
(-0.041888 0.00829388 -1.08984e-19)
(-0.0450569 0.00759669 1.61278e-19)
(-0.0479764 0.00702812 -3.6481e-20)
(-0.0506997 0.00663671 9.22078e-21)
(-0.0532864 0.0064599 3.81137e-20)
(-0.0558065 0.00652301 5.06305e-20)
(-0.0583329 0.00683952 -7.96852e-20)
(-0.0608621 0.00742155 -6.64753e-20)
(-0.0632843 0.0082875 -1.17621e-19)
(-0.0661387 0.00936449 1.71089e-19)
(-0.00105257 0.00345106 -1.88647e-20)
(-0.00393173 0.00856683 -1.93098e-19)
(-0.00817815 0.0120353 -5.71188e-20)
(-0.0129853 0.01421 -1.39199e-19)
(-0.0179429 0.0153718 5.26004e-20)
(-0.0228277 0.0157542 -8.29854e-20)
(-0.0274845 0.0155604 2.85129e-20)
(-0.0318175 0.0149653 -1.75736e-19)
(-0.0357792 0.0141185 9.26892e-20)
(-0.0393571 0.0131488 -1.10549e-19)
(-0.042565 0.0121669 -9.83076e-20)
(-0.045436 0.0112677 -1.10036e-19)
(-0.0480179 0.0105315 9.98815e-20)
(-0.0503684 0.0100249 -8.96391e-20)
(-0.0525528 0.00979998 1.24834e-19)
(-0.0546481 0.00989333 3.60657e-20)
(-0.0567358 0.0103256 8.92475e-20)
(-0.0588204 0.0111154 3.91507e-20)
(-0.0607919 0.0122895 -1.55025e-19)
(-0.0632061 0.0137523 2.52379e-19)
(-0.00141488 0.00440624 8.30764e-20)
(-0.00484614 0.0109239 6.41951e-21)
(-0.00949214 0.0153484 3.42377e-20)
(-0.0145606 0.0181337 1.19501e-19)
(-0.0196583 0.0196379 -1.83202e-20)
(-0.0245787 0.0201565 1.94055e-19)
(-0.0291809 0.0199447 8.61057e-20)
(-0.0333807 0.0192208 7.23568e-21)
(-0.0371396 0.0181711 2.21423e-19)
(-0.0404516 0.0169556 7.25366e-20)
(-0.0433358 0.0157123 3.44e-20)
(-0.0458294 0.0145607 1.09208e-19)
(-0.0479848 0.0136032 1.0008e-19)
(-0.0498646 0.0129265 1.82666e-19)
(-0.0515406 0.0126003 -1.63266e-19)
(-0.0530982 0.0126758 2.30699e-19)
(-0.05463 0.0131846 2.96325e-21)
(-0.0561509 0.0141552 -2.94746e-19)
(-0.0575528 0.015627 3.81965e-19)
(-0.059414 0.0174819 1.58434e-19)
(-0.00185707 0.00534936 -4.89575e-20)
(-0.00595289 0.0132362 -8.8846e-20)
(-0.011069 0.0185815 -1.84988e-19)
(-0.0164358 0.0219431 -5.48866e-21)
(-0.0216842 0.0237575 3.15497e-20)
(-0.0266299 0.0243811 -2.36261e-19)
(-0.0311507 0.0241197 -1.75276e-19)
(-0.0351773 0.0232333 -2.50795e-20)
(-0.0386822 0.0219425 -2.21685e-19)
(-0.0416677 0.0204371 -1.53463e-19)
(-0.0441582 0.0188814 -4.47239e-20)
(-0.0461959 0.0174195 -1.43982e-19)
(-0.0478369 0.0161769 -2.35324e-21)
(-0.0491491 0.0152624 -1.91145e-19)
(-0.0502111 0.0147674 8.03914e-20)
(-0.0511179 0.0147621 -9.17201e-20)
(-0.0519753 0.0152939 7.02007e-20)
(-0.0528117 0.0164071 -8.94203e-20)
(-0.0535237 0.0181599 -2.55236e-19)
(-0.0547202 0.0204131 -7.75828e-20)
(-0.00237842 0.00627447 -1.79865e-20)
(-0.00724603 0.0154868 -1.95463e-20)
(-0.0128944 0.02171 1.5507e-19)
(-0.0185871 0.0256091 -2.52328e-19)
(-0.023987 0.027699 3.70172e-20)
(-0.0289381 0.0283965 -1.4576e-19)
(-0.0333421 0.0280556 6.89011e-20)
(-0.037148 0.0269751 3.09623e-19)
(-0.040342 0.0254073 -1.98716e-20)
(-0.0429358 0.0235689 -2.30933e-19)
(-0.0449602 0.0216491 4.19842e-20)
(-0.0464615 0.0198149 8.14119e-21)
(-0.0474998 0.0182159 -4.73617e-20)
(-0.0481473 0.0169852 4.83619e-21)
(-0.048489 0.0162393 4.16233e-19)
(-0.04863 0.0160734 -5.92994e-20)
(-0.0486917 0.0165578 -1.15555e-19)
(-0.048719 0.0177604 -2.0719e-19)
(-0.0486171 0.0197676 2.11375e-19)
(-0.0490368 0.022423 9.12939e-20)
(-0.00297709 0.0071745 9.09453e-20)
(-0.00871566 0.0176567 -1.18965e-19)
(-0.0149469 0.024707 1.68222e-19)
(-0.0209797 0.0291006 1.69383e-19)
(-0.026518 0.0314313 1.56167e-19)
(-0.031441 0.0321742 3.16712e-19)
(-0.0356794 0.0317289 2.04802e-19)
(-0.0392049 0.0304294 -4.40071e-19)
(-0.04202 0.0285561 2.25042e-19)
(-0.0441476 0.026349 1.76561e-19)
(-0.0456257 0.0240183 -2.49762e-21)
(-0.0465046 0.0217526 1.97573e-19)
(-0.0468474 0.0197241 1.53986e-19)
(-0.0467294 0.0180916 -8.37938e-20)
(-0.046241 0.0170006 2.82972e-19)
(-0.0454974 0.0165774 -3.50777e-19)
(-0.0446364 0.0169239 1.40345e-19)
(-0.0437231 0.0181433 1.80427e-19)
(-0.0426762 0.0203642 -4.20609e-20)
(-0.042204 0.0234201 3.63149e-19)
(-0.00364961 0.00804077 1.82607e-19)
(-0.0103469 0.0197235 9.4905e-21)
(-0.017196 0.0275421 -6.55776e-20)
(-0.0235657 0.0323842 -6.93063e-20)
(-0.0292105 0.0349219 -3.20966e-19)
(-0.0340525 0.0356869 4.54436e-20)
(-0.0380571 0.0351211 1.2878e-19)
(-0.0412232 0.0335896 -6.19336e-20)
(-0.0435731 0.031396 5.10867e-20)
(-0.0451431 0.028799 -1.3562e-20)
(-0.0459792 0.0260254 -6.67219e-20)
(-0.0461365 0.0232807 6.33323e-20)
(-0.0456797 0.0207572 -2.75274e-19)
(-0.044686 0.0186389 2.63879e-19)
(-0.0432494 0.0171023 -2.28486e-19)
(-0.0414936 0.0163109 7.05964e-20)
(-0.0395738 0.0164088 1.60501e-19)
(-0.0375774 0.0175491 -3.34579e-20)
(-0.0354423 0.019923 -1.1102e-19)
(-0.0339557 0.0233667 -7.56427e-20)
(-0.00439041 0.00886273 -2.27459e-19)
(-0.0121187 0.0216613 -1.50363e-20)
(-0.019601 0.0301806 4.79229e-20)
(-0.0262819 0.0354221 1.23303e-19)
(-0.0319772 0.0381354 -1.74067e-19)
(-0.0366591 0.0389065 -1.51919e-19)
(-0.0403344 0.0382161 3.54586e-19)
(-0.0430338 0.0364561 -1.9594e-19)
(-0.0448034 0.0339483 -1.26385e-19)
(-0.0456959 0.0309643 -1.81308e-19)
(-0.0457675 0.0277411 1.20006e-19)
(-0.0450786 0.0244953 -3.28407e-21)
(-0.0436959 0.0214336 -2.24061e-19)
(-0.0416968 0.0187612 -3.6636e-19)
(-0.0391766 0.0166853 2.7909e-19)
(-0.0362656 0.0154106 -2.26005e-19)
(-0.0331351 0.0151329 3.20408e-19)
(-0.0298961 0.0160737 -8.9821e-20)
(-0.026511 0.0185146 1.8845e-19)
(-0.0238738 0.0223163 -6.41491e-19)
(-0.00519138 0.0096279 -4.60635e-19)
(-0.0140031 0.0234398 3.02184e-19)
(-0.0221095 0.0325824 4.10992e-20)
(-0.0290483 0.0381707 7.95586e-21)
(-0.0347072 0.0410305 -1.8649e-19)
(-0.0391165 0.0418001 2.74254e-19)
(-0.0423302 0.0409956 2.99208e-20)
(-0.0444162 0.0390316 -5.62272e-20)
(-0.0454485 0.0362432 -1.80498e-19)
(-0.0455003 0.0329084 1.95086e-19)
(-0.0446413 0.0292678 4.94472e-19)
(-0.0429394 0.0255408 -1.09243e-19)
(-0.0404646 0.0219402 2.46736e-19)
(-0.0372945 0.0186842 -2.91347e-19)
(-0.0335239 0.0160049 -2.79237e-19)
(-0.029287 0.0141469 1.67931e-19)
(-0.0247687 0.0133648 2.77238e-19)
(-0.0201029 0.013967 -8.98091e-19)
(-0.0152787 0.0163615 1.05571e-19)
(-0.0113323 0.0204675 1.43601e-19)
(-0.00604152 0.010322 3.41099e-19)
(-0.0159644 0.0250249 1.12323e-19)
(-0.0246569 0.0347021 5.85205e-19)
(-0.0317674 0.0405799 3.01504e-20)
(-0.037266 0.0435586 -6.50967e-20)
(-0.0412479 0.044327 -3.10068e-19)
(-0.0438205 0.043434 2.63679e-19)
(-0.0450938 0.0413136 4.731e-19)
(-0.0451745 0.03831 3.15115e-19)
(-0.0441604 0.0347028 2.27499e-19)
(-0.0421395 0.0307288 1.96064e-19)
(-0.0391919 0.0266015 -3.51993e-19)
(-0.0353945 0.0225287 -1.10193e-19)
(-0.0308276 0.0187293 -8.11262e-20)
(-0.0255862 0.0154474 8.69282e-19)
(-0.0198063 0.012958 -3.09361e-21)
(-0.013684 0.0115718 -2.16445e-19)
(-0.00737169 0.0116979 -6.79603e-20)
(-0.000881085 0.0139122 6.2067e-19)
(0.00456839 0.0182404 8.10678e-20)
(-0.00692692 0.0109298 -1.67517e-20)
(-0.0179592 0.0263796 -3.22947e-19)
(-0.0271662 0.0364894 -4.80684e-19)
(-0.034324 0.0425924 -1.33835e-19)
(-0.0394945 0.0456617 7.39201e-20)
(-0.0428441 0.0464349 1.59163e-20)
(-0.044538 0.0454925 4.2203e-19)
(-0.044733 0.0432858 -5.23392e-19)
(-0.0435727 0.0401659 -1.99083e-19)
(-0.0411847 0.0364108 -4.01113e-19)
(-0.0376807 0.0322488 -3.41527e-19)
(-0.0331596 0.0278799 -3.02321e-19)
(-0.0277127 0.0234955 7.55857e-20)
(-0.0214297 0.0192994 -9.8079e-20)
(-0.014411 0.0155283 4.19991e-19)
(-0.00679665 0.0124662 -2.30303e-19)
(0.00120706 0.0104614 -7.21088e-19)
(0.00943532 0.0100216 -1.45118e-19)
(0.0178693 0.0119287 3.55503e-19)
(0.0250686 0.0163754 -3.10625e-19)
(-0.007831 0.0114356 -5.4421e-20)
(-0.0199368 0.0274657 3.95269e-19)
(-0.0295489 0.0378909 -5.04252e-19)
(-0.0365861 0.0441454 1.16509e-19)
(-0.0412103 0.0472728 -2.40178e-19)
(-0.0436639 0.0480589 5.35096e-19)
(-0.0441736 0.0471149 -3.824e-19)
(-0.0429454 0.0449099 4.37422e-19)
(-0.0401634 0.0418022 -4.14796e-19)
(-0.0359892 0.0380682 1.76873e-19)
(-0.0305643 0.033927 -8.58791e-20)
(-0.0240152 0.0295617 -2.15469e-19)
(-0.016458 0.0251396 -2.66055e-19)
(-0.00800482 0.0208351 2.65027e-19)
(0.00122616 0.0168543 -2.21834e-19)
(0.0110804 0.0134578 -4.84655e-19)
(0.021335 0.0109925 5.04453e-19)
(0.0318163 0.010032 -6.43008e-19)
(0.0425308 0.0115792 2.89142e-19)
(0.0518011 0.0160521 8.22357e-21)
(-0.00873501 0.011825 -4.94173e-19)
(-0.0218398 0.028246 -5.33887e-19)
(-0.0317049 0.0388528 6.1484e-20)
(-0.0384052 0.045173 -5.15226e-19)
(-0.0422086 0.0483186 -4.59739e-20)
(-0.0434367 0.049123 -3.79003e-19)
(-0.0423793 0.0482284 -8.69664e-20)
(-0.0392928 0.0461232 -2.54147e-19)
(-0.034403 0.043176 2.16246e-21)
(-0.0279082 0.0396662 -1.112e-19)
(-0.0199855 0.035808 7.79201e-21)
(-0.0107973 0.0317715 -3.20055e-19)
(-0.000498227 0.0277007 3.52447e-19)
(0.0107595 0.0237347 -4.99983e-19)
(0.0228176 0.0200321 1.76961e-19)
(0.0354839 0.0167951 6.61136e-21)
(0.048497 0.0143117 -2.81509e-19)
(0.061663 0.0131464 6.97625e-19)
(0.0750622 0.0144816 -1.66548e-19)
(0.0868231 0.0189809 -1.08695e-19)
(-0.00961875 0.0120859 5.55059e-19)
(-0.0236049 0.0286871 2.99825e-19)
(-0.0335236 0.0393246 2.78963e-19)
(-0.0396163 0.0456119 4.16463e-20)
(-0.0422622 0.048726 3.77385e-19)
(-0.041863 0.0495473 5.43968e-19)
(-0.0387715 0.0487498 4.45515e-19)
(-0.0332934 0.0468436 3.97413e-20)
(-0.0256954 0.0442126 3.26084e-19)
(-0.0162131 0.0411462 5.03791e-19)
(-0.00506202 0.0378641 -1.30675e-19)
(0.00755233 0.0345352 2.19216e-19)
(0.0214241 0.0312931 1.77025e-19)
(0.0363402 0.0282518 1.8e-19)
(0.052073 0.0255234 1.06298e-18)
(0.0683558 0.0232346 -3.98335e-19)
(0.0848436 0.0215572 -2.42723e-20)
(0.101275 0.020929 4.61184e-19)
(0.117844 0.0225806 -2.61427e-19)
(0.132649 0.0273571 1.30029e-19)
(-0.0104611 0.0122092 -4.49217e-19)
(-0.0251631 0.0287617 2.8966e-20)
(-0.0348826 0.0392643 -3.60015e-19)
(-0.0400366 0.0454077 -4.68706e-20)
(-0.0411193 0.0484311 2.63607e-19)
(-0.0386127 0.0492603 -7.84488e-19)
(-0.0329307 0.0486012 -4.2817e-22)
(-0.0244259 0.0469875 3.64967e-19)
(-0.0134027 0.0448231 3.42919e-19)
(-0.000132399 0.042416 -1.5093e-19)
(0.0151311 0.0400037 4.97117e-20)
(0.0321353 0.0377722 1.15364e-19)
(0.0506141 0.035869 -5.4661e-20)
(0.0702746 0.034413 -6.11717e-19)
(0.0907878 0.0335038 1.54897e-19)
(0.111763 0.033219 4.25554e-19)
(0.132699 0.0336049 -6.06199e-19)
(0.153159 0.0348678 2.95623e-19)
(0.173431 0.038102 7.92838e-20)
(0.191942 0.0441505 4.03808e-19)
(-0.0112403 0.0121896 -6.65662e-20)
(-0.0264389 0.0284512 -3.15143e-19)
(-0.0356456 0.0386423 1.44933e-19)
(-0.0394616 0.0445236 5.53419e-22)
(-0.0384992 0.0473919 -6.32243e-19)
(-0.0333206 0.0482165 9.86188e-20)
(-0.0243986 0.0477329 -1.87109e-20)
(-0.012129 0.0464987 1.27605e-19)
(0.00314862 0.0449403 -5.83981e-19)
(0.0211307 0.0433897 -4.07947e-20)
(0.0415276 0.0421128 -1.36953e-19)
(0.0640416 0.0413303 1.22033e-19)
(0.0883455 0.0412324 4.11226e-19)
(0.11406 0.0419906 -6.36061e-20)
(0.140731 0.0437648 2.45635e-20)
(0.167788 0.0466903 1.61685e-19)
(0.194453 0.0508245 -3.98688e-20)
(0.219882 0.0562817 3.25645e-19)
(0.244168 0.0641235 -1.89123e-19)
(0.266457 0.0747984 -2.99549e-19)
(-0.0119333 0.0120251 6.16015e-20)
(-0.0273485 0.0277464 1.48931e-20)
(-0.0356588 0.0374462 1.26454e-19)
(-0.0376598 0.0429481 3.09748e-19)
(-0.0340858 0.0456016 1.73785e-19)
(-0.0255796 0.0464149 1.81441e-20)
(-0.0126718 0.0461498 -2.07523e-19)
(0.00419906 0.0453842 5.32013e-20)
(0.0246597 0.0445643 2.79583e-19)
(0.0483751 0.0440441 -4.73704e-19)
(0.0750231 0.0441178 3.57323e-19)
(0.10427 0.0450441 -2.69105e-19)
(0.13575 0.0470687 2.2821e-19)
(0.169035 0.0504468 -4.91987e-19)
(0.203613 0.0554671 5.40934e-19)
(0.238816 0.0624644 -5.78498e-19)
(0.273677 0.0718088 -1.50352e-19)
(0.306871 0.0841491 4.7244e-19)
(0.337322 0.101408 -1.59391e-19)
(0.362389 0.123122 7.23579e-20)
(-0.0125147 0.0117168 -4.67319e-20)
(-0.0277966 0.026648 4.40725e-19)
(-0.0347461 0.0356837 -1.88754e-21)
(-0.0343666 0.0407021 -2.73522e-19)
(-0.0275205 0.0430993 -1.84028e-19)
(-0.014934 0.0439174 3.37026e-19)
(0.00280071 0.0439373 -1.33496e-19)
(0.0251973 0.04375 -1.68304e-20)
(0.0518404 0.0438117 2.77912e-19)
(0.0823534 0.0444857 -3.45315e-19)
(0.116372 0.0460749 3.77699e-20)
(0.153526 0.0488494 -4.48459e-19)
(0.193422 0.0530719 2.3602e-19)
(0.23565 0.0590286 -6.75278e-19)
(0.27978 0.0670688 1.07575e-18)
(0.325382 0.077659 -1.96854e-19)
(0.372062 0.0915094 2.06415e-19)
(0.419781 0.110138 -5.35964e-19)
(0.469091 0.136495 1.98963e-21)
(0.512647 0.165429 6.2092e-19)
(-0.0129543 0.0112667 -1.41775e-19)
(-0.0276723 0.0251659 1.22555e-19)
(-0.032704 0.0333837 -4.50635e-19)
(-0.0292793 0.0378429 6.66391e-19)
(-0.0183981 0.039979 -4.81045e-19)
(-0.000878454 0.0408603 2.47635e-20)
(0.0226148 0.0412788 -5.18403e-19)
(0.0515298 0.0418274 3.7055e-19)
(0.0853837 0.0429571 -5.2999e-20)
(0.123725 0.0450181 -3.26759e-19)
(0.166107 0.0482901 -1.90496e-19)
(0.212068 0.0530051 2.013e-19)
(0.261137 0.0593666 1.33071e-19)
(0.312838 0.067567 -5.89161e-19)
(0.366723 0.0778053 2.12648e-19)
(0.422416 0.090298 -3.13984e-19)
(0.479681 0.105305 3.78664e-20)
(0.538666 0.123343 -2.68612e-19)
(0.600339 0.145564 1.13413e-19)
(0.657476 0.167172 -4.07843e-19)
(-0.0132149 0.0106776 4.03518e-19)
(-0.0268447 0.0233182 -2.44136e-19)
(-0.0292975 0.0305966 2.0117e-19)
(-0.0220545 0.0344661 -2.53947e-19)
(-0.0062682 0.036391 4.2588e-19)
(0.0171354 0.037458 -7.57731e-21)
(0.0473951 0.0384593 -5.18173e-20)
(0.0838594 0.0399757 -3.8402e-20)
(0.125931 0.0424347 2.36266e-19)
(0.173025 0.046149 4.01477e-19)
(0.224538 0.0513427 -2.37179e-19)
(0.279838 0.05817 2.30411e-19)
(0.338271 0.0667278 4.20833e-19)
(0.39918 0.0770647 -2.95145e-19)
(0.461937 0.089184 -6.00329e-19)
(0.525992 0.103037 1.09869e-18)
(0.590905 0.118505 -1.96118e-19)
(0.656446 0.135449 -6.42043e-20)
(0.722946 0.154228 6.97258e-19)
(0.784907 0.173308 -1.45412e-19)
(-0.0132498 0.00995181 -6.57616e-19)
(-0.0251603 0.0211308 -4.37757e-19)
(-0.0242598 0.0273943 -1.68047e-19)
(-0.0123124 0.030704 3.24053e-19)
(0.00935359 0.0325399 -7.31206e-19)
(0.0396763 0.0339958 3.78411e-19)
(0.0777578 0.0358504 4.79243e-20)
(0.122792 0.0386545 4.83475e-20)
(0.173997 0.0427887 -4.95124e-19)
(0.230569 0.0484998 -1.74807e-19)
(0.291658 0.0559236 -3.07954e-19)
(0.356366 0.0651022 2.97313e-19)
(0.423761 0.0759958 8.44323e-20)
(0.492914 0.0884909 1.64897e-20)
(0.562936 0.102405 3.88579e-19)
(0.633018 0.117484 -3.93194e-19)
(0.702465 0.133389 -1.65295e-20)
(0.770721 0.149711 9.22798e-21)
(0.837552 0.166349 5.30792e-20)
(0.899675 0.184428 3.1149e-19)
(-0.0130013 0.00909198 2.0951e-19)
(-0.0224421 0.0186378 5.39633e-19)
(-0.0172951 0.0238693 4.33067e-19)
(0.000352952 0.0267236 -1.49164e-19)
(0.0289642 0.0286779 5.18387e-19)
(0.0672959 0.0308174 -4.36297e-20)
(0.114251 0.0338874 -6.14953e-20)
(0.168789 0.0383832 3.6584e-20)
(0.22985 0.0446078 5.00291e-19)
(0.296309 0.0527059 2.93763e-19)
(0.366971 0.0626881 8.57263e-20)
(0.440582 0.0744503 5.24459e-21)
(0.515872 0.0877918 -5.69193e-19)
(0.591605 0.102432 4.94444e-19)
(0.666628 0.118023 8.51427e-20)
(0.739921 0.134162 -1.3975e-19)
(0.810623 0.150396 -6.09664e-19)
(0.878049 0.166249 -5.24483e-20)
(0.941695 0.18129 2.42396e-19)
(1.0004 0.198437 -5.03243e-20)
(-0.0123999 0.008102 -5.32477e-19)
(-0.0184906 0.0158842 2.22762e-19)
(-0.00808608 0.020136 -1.0868e-18)
(0.016357 0.022725 4.44735e-19)
(0.0530419 0.0250982 -3.54569e-19)
(0.100478 0.0283094 2.61371e-19)
(0.157283 0.033041 -4.05628e-19)
(0.222074 0.0396967 3.72622e-20)
(0.293397 0.0484596 -2.0833e-20)
(0.369703 0.0593277 1.08851e-19)
(0.44936 0.0721437 1.57239e-19)
(0.530708 0.0866251 -2.97247e-19)
(0.612127 0.102394 1.57258e-19)
(0.692114 0.119007 1.44599e-19)
(0.769343 0.135983 6.26304e-19)
(0.842718 0.15283 -2.71604e-19)
(0.911385 0.169059 -1.8174e-19)
(0.974754 0.184232 3.06187e-19)
(1.03237 0.197783 1.65192e-19)
(1.08455 0.213523 -3.08224e-19)
(-0.0113652 0.00698937 4.66999e-19)
(-0.0130891 0.0129288 4.5031e-19)
(0.00369416 0.0163334 1.29628e-19)
(0.0361017 0.01894 5.46215e-19)
(0.0820086 0.0221282 2.6805e-19)
(0.139584 0.0268858 -4.82964e-19)
(0.207043 0.0337899 7.31102e-19)
(0.282533 0.0431022 -3.59679e-19)
(0.364088 0.0548317 3.58752e-19)
(0.449633 0.0687773 4.64004e-19)
(0.537054 0.0845721 -2.65087e-19)
(0.624291 0.10173 5.03301e-20)
(0.709445 0.119695 2.80918e-19)
(0.790868 0.137886 1.98099e-19)
(0.867232 0.155736 4.57202e-19)
(0.937558 0.172728 -1.8237e-19)
(1.00122 0.18841 -2.20084e-20)
(1.05792 0.202442 2.90648e-19)
(1.10752 0.214312 -6.22067e-20)
(1.15123 0.228015 4.42602e-22)
(-0.00980755 0.0057679 -2.41209e-19)
(-0.00601086 0.00984957 -8.86436e-19)
(0.0183668 0.0126284 2.08592e-19)
(0.0599482 0.0156326 -1.58728e-19)
(0.116188 0.020123 -3.66024e-19)
(0.184794 0.0269718 -2.60861e-19)
(0.263436 0.036592 -1.61073e-19)
(0.349656 0.0490384 3.91354e-19)
(0.440864 0.0640813 -2.32344e-19)
(0.534409 0.081268 -2.37628e-19)
(0.627711 0.0999895 -3.00727e-19)
(0.718402 0.119552 -4.96723e-20)
(0.804459 0.139245 -3.34885e-20)
(0.884294 0.1584 -6.96148e-19)
(0.956795 0.176435 3.38206e-19)
(1.02132 0.192879 -4.44656e-19)
(1.07766 0.20739 1.40515e-19)
(1.12597 0.219769 -1.06941e-18)
(1.16657 0.229698 3.22099e-19)
(1.2011 0.240876 4.10186e-19)
(-0.00763159 0.00446059 -6.04867e-20)
(0.00297149 0.00674841 4.33156e-19)
(0.0362289 0.00921973 2.77177e-20)
(0.0881887 0.0130982 6.67329e-20)
(0.155766 0.0194576 -1.3564e-19)
(0.236057 0.0289863 -2.12791e-21)
(0.326032 0.0418566 -3.36553e-21)
(0.422499 0.0578383 -8.14884e-20)
(0.522179 0.0763973 2.89125e-19)
(0.621863 0.0967871 1.11858e-19)
(0.718613 0.118148 5.07228e-19)
(0.80994 0.139605 -1.3848e-19)
(0.893929 0.160351 9.66715e-20)
(0.969299 0.179708 -1.26925e-20)
(1.03538 0.197157 2.67892e-19)
(1.09206 0.212357 1.64308e-19)
(1.13967 0.225131 3.97011e-19)
(1.17885 0.235452 -6.41867e-19)
(1.21042 0.24325 8.0904e-19)
(1.23619 0.251699 -2.56708e-19)
(-0.00473961 0.00310206 -5.65633e-19)
(0.0140743 0.00375526 -1.76174e-19)
(0.0575334 0.00634016 1.37951e-19)
(0.121015 0.0116612 8.69063e-20)
(0.20075 0.0205163 8.86539e-20)
(0.293052 0.0333215 9.00269e-20)
(0.394043 0.0499152 -2.24962e-19)
(0.499708 0.0696993 -9.29862e-20)
(0.606086 0.0917793 2.88898e-20)
(0.709528 0.115099 -2.75138e-19)
(0.806947 0.138577 -1.24389e-19)
(0.895995 0.16122 7.52421e-19)
(0.975144 0.182214 -1.93999e-19)
(1.04366 0.200964 -2.67886e-19)
(1.10149 0.217103 -1.27486e-19)
(1.14916 0.230479 8.80971e-20)
(1.18755 0.241115 1.07909e-19)
(1.21779 0.249163 -5.17506e-19)
(1.24107 0.254788 7.49879e-19)
(1.25921 0.260588 -6.50591e-19)
(-0.00103605 0.00174043 -6.43499e-20)
(0.0274901 0.00103048 1.84816e-20)
(0.0824678 0.00425617 -2.32658e-20)
(0.158491 0.0116683 3.41336e-19)
(0.250939 0.0236777 1.857e-20)
(0.355171 0.0403193 1.25118e-19)
(0.466339 0.0609946 -2.59583e-19)
(0.579589 0.084662 -9.43357e-21)
(0.690391 0.110038 3.60185e-19)
(0.794879 0.135781 5.01461e-20)
(0.890111 0.160657 -3.13679e-19)
(0.974186 0.183659 -2.74401e-20)
(1.04622 0.204069 -2.57862e-19)
(1.10621 0.221471 2.56697e-19)
(1.15482 0.235717 3.57024e-19)
(1.19319 0.246879 -3.93832e-20)
(1.2227 0.255185 -4.81414e-20)
(1.24483 0.260945 1.46664e-19)
(1.261 0.264506 -4.72435e-19)
(1.27297 0.267941 4.15809e-19)
(0.00356787 0.00043821 6.42187e-20)
(0.0433747 -0.00123516 -4.15371e-19)
(0.111133 0.00326358 1.11255e-19)
(0.200527 0.0134769 -3.4406e-19)
(0.305905 0.0292949 1.18196e-19)
(0.421518 0.0502465 -4.3875e-19)
(0.541494 0.0751954 1.76788e-19)
(0.660227 0.102606 -5.61681e-20)
(0.772845 0.130818 -2.2303e-21)
(0.875584 0.15828 5.74464e-20)
(0.965984 0.183717 -2.09584e-19)
(1.04288 0.206226 -2.99067e-19)
(1.10622 0.225295 -6.13329e-20)
(1.15681 0.240759 -2.7526e-20)
(1.19603 0.252728 -6.99233e-20)
(1.22554 0.261498 -2.27967e-20)
(1.24707 0.267475 -6.82632e-20)
(1.2623 0.271088 -5.92381e-20)
(1.27273 0.2728 -1.76493e-19)
(1.27998 0.274251 2.8017e-19)
(0.00914925 -0.000727753 1.55255e-19)
(0.0618331 -0.00282332 -1.72293e-19)
(0.143524 0.003679 3.70506e-19)
(0.246861 0.0174391 -1.59651e-19)
(0.364988 0.0376727 4.26548e-19)
(0.490945 0.0632721 5.88014e-21)
(0.617878 0.0924812 2.13868e-19)
(0.739641 0.123262 -5.70223e-20)
(0.851353 0.153648 2.38578e-19)
(0.949722 0.181995 1.72545e-20)
(1.03309 0.207123 5.67662e-19)
(1.10125 0.228358 -3.91912e-19)
(1.15508 0.245477 5.28183e-20)
(1.19616 0.258608 1.00748e-19)
(1.22647 0.268117 5.27723e-19)
(1.24803 0.274499 -1.89595e-19)
(1.26279 0.27829 -3.76245e-20)
(1.27244 0.279991 -1.99291e-19)
(1.27843 0.280121 -2.09839e-20)
(1.28223 0.279979 9.97644e-20)
(0.0157685 -0.00166727 -7.48366e-20)
(0.082907 -0.00349376 2.1567e-19)
(0.179514 0.00582735 -2.20129e-19)
(0.297049 0.0238819 8.72066e-20)
(0.42731 0.0490452 -1.03613e-19)
(0.562108 0.0794516 3.8083e-19)
(0.693771 0.112683 -5.28036e-20)
(0.815946 0.146248 1.30562e-19)
(0.924144 0.177997 -7.67124e-20)
(1.01592 0.206344 -1.8523e-21)
(1.09067 0.23035 8.77026e-20)
(1.14924 0.249666 -6.78199e-20)
(1.19343 0.264409 1.75983e-19)
(1.22548 0.275004 -8.76747e-20)
(1.24779 0.282044 -3.85998e-19)
(1.26259 0.286171 3.83741e-19)
(1.27183 0.288001 -1.72916e-19)
(1.27714 0.288059 1.38031e-19)
(1.27985 0.286877 2.39387e-19)
(1.2812 0.285489 9.82035e-20)
(0.0234642 -0.00227879 1.86071e-19)
(0.106564 -0.00299251 -3.8326e-19)
(0.218845 0.0100263 7.34028e-20)
(0.35047 0.0330865 -5.31287e-20)
(0.491815 0.0635567 -2.13651e-19)
(0.633551 0.0987218 -1.67519e-19)
(0.767492 0.135516 -3.28554e-20)
(0.887497 0.17111 -2.98276e-19)
(0.989894 0.203334 -1.80054e-20)
(1.07338 0.230828 -5.53153e-20)
(1.13858 0.253015 -1.50151e-19)
(1.18737 0.269938 -3.33732e-20)
(1.22234 0.282062 -1.14852e-19)
(1.24624 0.290082 -1.91502e-19)
(1.26168 0.294763 1.96006e-19)
(1.27093 0.296843 2.69391e-20)
(1.27586 0.296966 5.36576e-20)
(1.27792 0.295641 -2.25574e-19)
(1.27826 0.293389 -5.72178e-21)
(1.27792 0.291033 -3.47442e-19)
(0.0322487 -0.00245236 2.04535e-19)
(0.132687 -0.00106221 1.36246e-19)
(0.261125 0.016569 -2.19155e-19)
(0.406345 0.0452684 3.42193e-19)
(0.557316 0.0812495 -3.67689e-20)
(0.7038 0.120908 1.27523e-19)
(0.837512 0.160614 4.40871e-20)
(0.952992 0.197372 1.56064e-19)
(1.04776 0.22918 -1.22168e-19)
(1.12188 0.255061 4.06116e-20)
(1.17719 0.274885 -3.9023e-20)
(1.21654 0.289111 -1.71611e-20)
(1.2431 0.298531 3.25687e-20)
(1.25992 0.304053 -5.99498e-20)
(1.26967 0.306559 -1.83639e-20)
(1.27453 0.306828 -5.62203e-20)
(1.27618 0.305486 -9.13743e-20)
(1.27587 0.303005 5.90267e-20)
(1.27454 0.299882 -8.07811e-20)
(1.27307 0.296766 3.48992e-19)
(0.0421037 -0.00207329 -1.02319e-19)
(0.161074 0.00254607 -2.89309e-19)
(0.30583 0.0257069 -3.84579e-20)
(0.463763 0.0605619 -1.03425e-20)
(0.622568 0.102061 -1.29219e-19)
(0.771459 0.14574 -2.11853e-19)
(0.902548 0.187563 6.92643e-20)
(1.01151 0.224574 -9.51378e-20)
(1.09736 0.255137 -1.06508e-19)
(1.1616 0.278774 5.92298e-20)
(1.20721 0.295851 -4.47457e-20)
(1.23782 0.307231 -9.03545e-20)
(1.25699 0.313977 -2.93959e-21)
(1.26788 0.317153 6.114e-20)
(1.27307 0.317699 -6.21411e-20)
(1.27455 0.316383 8.6283e-20)
(1.27377 0.313791 2.32447e-20)
(1.27176 0.310338 5.83891e-20)
(1.2693 0.306496 1.13536e-19)
(1.26707 0.302761 -9.71901e-20)
(0.0529773 -0.00102663 9.78118e-20)
(0.191432 0.00806031 -8.82782e-21)
(0.352324 0.0376339 4.36674e-20)
(0.521728 0.0790103 -5.93683e-20)
(0.686331 0.125831 4.81412e-21)
(0.835282 0.17288 2.05398e-19)
(0.961612 0.215932 -1.34931e-19)
(1.06253 0.252307 5.69821e-20)
(1.13871 0.280895 5.01493e-20)
(1.19305 0.301804 -1.41055e-19)
(1.22954 0.3159 1.32354e-19)
(1.25234 0.324403 1.1399e-21)
(1.26522 0.328588 -9.29436e-20)
(1.27128 0.329605 1.11967e-19)
(1.2729 0.328401 -4.4316e-20)
(1.27183 0.325704 3.38669e-20)
(1.26929 0.322035 -3.79222e-20)
(1.26612 0.317751 -1.51564e-20)
(1.2629 0.313297 -1.3205e-19)
(1.26018 0.309035 4.03495e-20)
(0.0647827 0.000797878 -3.30919e-20)
(0.223386 0.0156752 8.85466e-20)
(0.39988 0.0524734 1.37629e-20)
(0.579203 0.100563 5.77742e-20)
(0.747442 0.152311 2.7486e-20)
(0.89423 0.201945 1.28786e-20)
(1.01402 0.245308 7.29795e-20)
(1.10586 0.280218 -8.89312e-21)
(1.17209 0.30623 3.20632e-20)
(1.21692 0.32407 5.1473e-20)
(1.24511 0.335076 2.47703e-20)
(1.26115 0.340761 1.77423e-20)
(1.26882 0.342539 7.18805e-20)
(1.27104 0.341593 -6.95467e-20)
(1.26994 0.338833 1.49043e-20)
(1.26701 0.334922 -1.38634e-20)
(1.26323 0.330309 2.15559e-20)
(1.25926 0.325293 1.80237e-20)
(1.25555 0.320302 3.74913e-20)
(1.25252 0.315563 1.60362e-21)
(0.077398 0.00350063 1.96127e-20)
(0.256486 0.0255406 1.79058e-20)
(0.447705 0.0702695 -2.47498e-20)
(0.635161 0.125076 1.54561e-20)
(0.804858 0.181186 8.70386e-21)
(0.947499 0.23253 -2.70754e-20)
(1.05939 0.275303 8.91643e-21)
(1.14156 0.308022 1.60018e-21)
(1.198 0.330989 1.53337e-20)
(1.234 0.345548 -4.1035e-20)
(1.25485 0.353451 -1.0656e-22)
(1.26519 0.356432 1.13083e-20)
(1.26864 0.355979 -9.00959e-21)
(1.26788 0.353253 9.11245e-21)
(1.26476 0.349101 2.36615e-20)
(1.26049 0.344108 -1.3415e-20)
(1.25587 0.338648 3.76137e-21)
(1.25138 0.332969 1.46326e-20)
(1.24738 0.327487 -2.40938e-20)
(1.24416 0.322294 1.15681e-20)
(0.0772442 -0.00350974 5.3018e-20)
(0.256261 -0.0255874 -2.91124e-20)
(0.447567 -0.0703946 3.43271e-20)
(0.635204 -0.125305 -2.55468e-20)
(0.805118 -0.181529 -1.15416e-20)
(0.947971 -0.232981 3.56787e-21)
(1.06005 -0.275848 -1.14113e-20)
(1.14236 -0.308641 4.12235e-20)
(1.1989 -0.331661 -3.44712e-20)
(1.23497 -0.346258 7.87654e-21)
(1.25588 -0.354185 -6.0792e-21)
(1.26625 -0.35718 -3.97927e-20)
(1.26972 -0.356733 3.87288e-20)
(1.26898 -0.354009 1.49892e-20)
(1.26588 -0.349856 -1.44252e-20)
(1.26162 -0.344858 3.4637e-20)
(1.25701 -0.339391 -4.24546e-22)
(1.25254 -0.333704 -3.37127e-20)
(1.24855 -0.328211 2.47179e-20)
(1.24535 -0.323008 8.22988e-21)
(0.0646136 -0.00081269 -1.90332e-20)
(0.223111 -0.0157281 5.12944e-20)
(0.39966 -0.0525971 5.99419e-20)
(0.579141 -0.100781 -2.899e-20)
(0.747588 -0.152637 5.00465e-20)
(0.894591 -0.202377 8.11761e-20)
(1.01458 -0.245836 -4.60107e-21)
(1.10658 -0.280825 -1.45727e-20)
(1.17293 -0.306898 7.20665e-20)
(1.21786 -0.324781 3.56032e-20)
(1.24611 -0.335817 -6.65975e-21)
(1.2622 -0.34152 5.41487e-20)
(1.26989 -0.343309 -5.80337e-20)
(1.27214 -0.342366 9.28949e-20)
(1.27106 -0.339606 -1.51606e-20)
(1.26815 -0.335692 4.61897e-20)
(1.26439 -0.331073 9.03674e-21)
(1.26043 -0.326049 3.29601e-20)
(1.25674 -0.321048 -3.09491e-20)
(1.25372 -0.316298 8.6028e-21)
(0.0527957 0.00100515 -2.81192e-20)
(0.191113 -0.00812265 6.13097e-20)
(0.352028 -0.037761 4.56354e-20)
(0.521563 -0.0792233 -7.26943e-21)
(0.68636 -0.126143 7.62547e-20)
(0.835525 -0.173296 -6.03151e-20)
(0.96206 -0.216444 -6.28294e-21)
(1.06316 -0.252902 5.42274e-20)
(1.13948 -0.281557 1.80427e-20)
(1.19393 -0.302517 2.52233e-20)
(1.2305 -0.316649 -3.71644e-20)
(1.25336 -0.325176 1.03567e-19)
(1.26628 -0.329375 2.00882e-20)
(1.27237 -0.3304 -9.1265e-20)
(1.27402 -0.329198 1.40398e-19)
(1.27298 -0.326499 -1.6612e-19)
(1.27046 -0.322825 -7.89628e-20)
(1.2673 -0.318533 1.35266e-20)
(1.2641 -0.31407 7.60576e-20)
(1.2614 -0.309797 -1.43889e-19)
(0.0419125 0.00204443 -5.88833e-20)
(0.160717 -0.00262056 -1.3807e-19)
(0.305464 -0.025842 -1.21676e-19)