/*--------------------------------*- C++ -*----------------------------------*\
  =========                 |
  \\      /  F ield         | OpenFOAM: The Open Source CFD Toolbox
   \\    /   O peration     | Website:  https://openfoam.org
    \\  /    A nd           | Version:  6.0
     \\/     M anipulation  |
\*---------------------------------------------------------------------------*/
FoamFile
{
    version     2.0;
    format      ascii;
    class       surfaceScalarField;
    location    "11.4";
    object      phi;
}
// * * * * * * * * * * * * * * * * * * * * * * * * * * * * * * * * * * * * * //

dimensions      [0 3 -1 0 0 0 0];

internalField   nonuniform List<scalar> 
15760
(
-3.84746e-06
3.94919e-06
-1.01736e-07
-1.34513e-05
9.8621e-06
-2.58213e-07
-2.74104e-05
1.43373e-05
-3.78222e-07
-4.46537e-05
1.77121e-05
-4.68796e-07
-6.43634e-05
2.02458e-05
-5.36048e-07
-8.59289e-05
2.21509e-05
-5.85432e-07
-0.000108911
2.36033e-05
-6.21667e-07
-0.000133012
2.47499e-05
-6.48702e-07
-0.000158056
2.57139e-05
-6.69724e-07
-0.000183968
2.65994e-05
-6.87213e-07
-0.000210759
2.74939e-05
-7.03015e-07
-0.000238511
2.84701e-05
-7.18433e-07
-0.000267363
2.95868e-05
-7.34305e-07
-0.000297502
3.08898e-05
-7.51107e-07
-0.000329144
3.24115e-05
-7.69037e-07
-0.000362528
3.41718e-05
-7.88066e-07
-0.000397897
3.61774e-05
-8.07968e-07
-0.00043549
3.84206e-05
-8.28385e-07
-0.000475525
4.08843e-05
-8.48872e-07
4.35645e-05
-8.69063e-07
-0.000518221
-3.78128e-06
7.73048e-06
-1.32299e-05
1.93107e-05
-2.69642e-05
2.80715e-05
-4.39211e-05
3.4669e-05
-6.32839e-05
3.96086e-05
-8.44382e-05
4.33052e-05
-0.000106938
4.61027e-05
-0.000130476
4.82881e-05
-0.000154865
5.01032e-05
-0.000180019
5.17529e-05
-0.000205934
5.34099e-05
-0.000232683
5.52191e-05
-0.000260396
5.72992e-05
-0.000289249
5.97434e-05
-0.000319458
6.26201e-05
-0.000351258
6.59722e-05
-0.000384898
6.98174e-05
-0.000420622
7.41441e-05
-0.000458659
7.8921e-05
8.41404e-05
-0.000499235
-3.65527e-06
1.13857e-05
-1.2807e-05
2.84625e-05
-2.61101e-05
4.13746e-05
-4.25162e-05
5.10751e-05
-6.12106e-05
5.83029e-05
-8.15718e-05
6.36665e-05
-0.00010314
6.76708e-05
-0.00012559
7.07384e-05
-0.000148713
7.32263e-05
-0.000172398
7.54376e-05
-0.000196619
7.76303e-05
-0.000221422
8.00227e-05
-0.000246919
8.27962e-05
-0.000273273
8.60968e-05
-0.000300687
9.00346e-05
-0.000329398
9.46835e-05
-0.000359661
0.00010008
-0.000391732
0.000106216
-0.000425863
0.000113051
0.000120576
-0.000462298
-3.47895e-06
1.48647e-05
-1.22123e-05
3.71959e-05
-2.49051e-05
5.40673e-05
-4.05292e-05
6.66993e-05
-5.8273e-05
7.60467e-05
-7.75055e-05
8.2899e-05
-9.77478e-05
8.79131e-05
-0.000118649
9.16397e-05
-0.000139968
9.45454e-05
-0.000161559
9.70284e-05
-0.000183359
9.94304e-05
-0.000205381
0.000102044
-0.000227703
0.000105119
-0.000250464
0.000108858
-0.000273855
0.000113425
-0.000298107
0.000118935
-0.000323484
0.000125457
-0.000350267
0.000132999
-0.000378739
0.000141523
0.000151021
-0.000409183
-3.26527e-06
1.813e-05
-1.14862e-05
4.54169e-05
-2.34266e-05
6.60077e-05
-3.80832e-05
8.13559e-05
-5.46483e-05
9.26118e-05
-7.24802e-05
0.000100731
-9.10772e-05
0.00010651
-0.000110057
0.000110619
-0.000129138
0.000113626
-0.000148129
0.00011602
-0.00016692
0.000118222
-0.000185476
0.0001206
-0.000203831
0.000123474
-0.000222088
0.000127116
-0.000240415
0.000131751
-0.000259035
0.000137555
-0.000278223
0.000144645
-0.000298291
0.000153067
-0.000319573
0.000162805
0.000173858
-0.00034241
-3.02924e-06
2.11592e-05
-1.06755e-05
5.30632e-05
-2.17648e-05
7.7097e-05
-3.5321e-05
9.49121e-05
-5.0542e-05
0.000107833
-6.67758e-05
0.000116965
-8.34968e-05
0.000123231
-0.000100287
0.000127409
-0.00011682
0.00013016
-0.000132852
0.000132052
-0.000148214
0.000133584
-0.00016281
0.000135195
-0.000176616
0.00013728
-0.000189686
0.000140186
-0.00020215
0.000144215
-0.000214217
0.000149621
-0.000226169
0.000156598
-0.00023836
0.000165258
-0.000251189
0.000175634
0.000187759
-0.00026509
-2.78622e-06
2.39454e-05
-9.82823e-06
6.01052e-05
-2.00117e-05
8.72805e-05
-3.23886e-05
0.000107289
-4.61646e-05
0.000121609
-6.06793e-05
0.000131479
-7.53851e-05
0.000137937
-8.98288e-05
0.000141853
-0.000103637
0.000143968
-0.000116508
0.000144923
-0.000128206
0.000145281
-0.000138561
0.000145551
-0.000147479
0.000146198
-0.000154943
0.00014765
-0.000161031
0.000150303
-0.000165918
0.000154509
-0.000169892
0.000160571
-0.000173345
0.000168711
-0.000176768
0.000179056
0.000191713
-0.000180722
-2.55024e-06
2.64957e-05
-8.98797e-06
6.65429e-05
-1.8251e-05
9.65435e-05
-2.94181e-05
0.000118456
-4.17053e-05
0.000133896
-5.44484e-05
0.000144222
-6.70824e-05
0.000150571
-7.91234e-05
0.000153894
-9.01537e-05
0.000154999
-9.98129e-05
0.000154582
-0.000107794
0.000153262
-0.000113846
0.000151603
-0.000117785
0.000150137
-0.000119508
0.000149373
-0.000119014
0.000149809
-0.000116426
0.000151921
-0.000112011
0.000156157
-0.000106201
0.000162901
-9.95919e-05
0.000172447
0.000185042
-9.29212e-05
-2.33245e-06
2.88281e-05
-8.18917e-06
7.23996e-05
-1.65476e-05
0.000104902
-2.65105e-05
0.000128419
-3.7307e-05
0.000144693
-4.82747e-05
0.00015519
-5.88394e-05
0.000161136
-6.84951e-05
0.00016355
-7.67877e-05
0.000163291
-8.3304e-05
0.000161098
-8.76678e-05
0.000157626
-8.95428e-05
0.000153478
-8.86449e-05
0.000149239
-8.47631e-05
0.000145492
-7.77904e-05
0.000142836
-6.77619e-05
0.000141892
-5.48979e-05
0.000143293
-3.9647e-05
0.00014765
-2.2717e-05
0.000155517
0.000167399
-5.07391e-06
-2.13991e-06
3.0968e-05
-7.45293e-06
7.77127e-05
-1.49397e-05
0.000112389
-2.37219e-05
0.000137201
-3.30435e-05
0.000154014
-4.22509e-05
0.000164397
-5.07706e-05
0.000169655
-5.80867e-05
0.000170866
-6.37219e-05
0.000168926
-6.72234e-05
0.0001646
-6.81558e-05
0.000158558
-6.61019e-05
0.000151424
-6.06739e-05
0.000143811
-5.15381e-05
0.000136356
-3.84534e-05
0.000129751
-2.13271e-05
0.000124766
-2.84654e-07
0.00012225
2.4248e-05
0.000123118
5.14625e-05
0.000128302
0.000138745
8.01169e-05
-1.9749e-06
3.29429e-05
-6.78467e-06
8.25224e-05
-1.34333e-05
0.000119037
-2.10539e-05
0.000144822
-2.89049e-05
0.000161865
-3.63471e-05
0.00017184
-4.2818e-05
0.000176126
-4.78058e-05
0.000175854
-5.08273e-05
0.000171948
-5.14093e-05
0.000165182
-4.90768e-05
0.000156226
-4.33482e-05
0.000145696
-3.37421e-05
0.000134205
-1.97995e-05
0.000122413
-1.12588e-06
0.000111078
2.25393e-05
0.000101101
5.12234e-05
9.35663e-05
8.45875e-05
8.97538e-05
0.000121766
9.11242e-05
9.93031e-05
0.000161207
-1.83496e-06
3.47779e-05
-6.1738e-06
8.68613e-05
-1.20013e-05
0.000124865
-1.84508e-05
0.000151271
-2.47914e-05
0.000168206
-3.04006e-05
0.000177449
-3.47338e-05
0.000180459
-3.72962e-05
0.000178416
-3.76163e-05
0.000172268
-3.52236e-05
0.000162789
-2.96309e-05
0.000150633
-2.03221e-05
0.000136387
-6.7503e-06
0.000120633
1.16495e-05
0.000104013
3.54229e-05
8.73042e-05
6.50231e-05
7.15003e-05
0.000100687
5.79021e-05
0.000142249
4.81922e-05
0.000188868
4.45052e-05
4.94783e-05
0.000238693
-1.71348e-06
3.64914e-05
-5.59545e-06
9.07433e-05
-1.05866e-05
0.000129856
-1.58047e-05
0.000156489
-2.05205e-05
0.000172922
-2.41238e-05
0.000181052
-2.60892e-05
0.000182425
-2.59449e-05
0.000178272
-2.32443e-05
0.000169567
-1.75411e-05
0.000157086
-8.36639e-06
0.000141458
4.79023e-06
0.00012323
2.24942e-05
0.000102929
4.53676e-05
8.11399e-05
7.40688e-05
5.8603e-05
0.000109231
3.63382e-05
0.000151333
1.58004e-05
0.000200467
-9.42178e-07
0.000255949
-1.09768e-05
-1.02765e-05
0.000315704
-1.60084e-06
3.80922e-05
-5.01389e-06
9.41563e-05
-9.10834e-06
0.00013395
-1.29661e-05
0.000160347
-1.58435e-05
0.000175799
-1.71298e-05
0.000182339
-1.63098e-05
0.000181605
-1.29301e-05
0.000174892
-6.57142e-06
0.000163209
3.17664e-06
0.000147338
1.67393e-05
0.000127896
3.45797e-05
0.00010539
5.7221e-05
8.02877e-05
8.52653e-05
5.30956e-05
0.000119398
2.44705e-05
0.000160357
-4.6212e-06
0.000208833
-3.26754e-05
0.000265228
-5.73375e-05
0.00032917
-7.49185e-05
-7.9656e-05
0.00039855
-1.48583e-06
3.9578e-05
-4.38684e-06
9.70573e-05
-7.47134e-06
0.000137035
-9.75992e-06
0.000162636
-1.0471e-05
0.00017651
-8.97137e-06
0.000180839
-4.73433e-06
0.000177368
2.69344e-06
0.000167464
1.37178e-05
0.000152184
2.87185e-05
0.000132337
4.80681e-05
0.000108546
7.21523e-05
8.13058e-05
0.000101394
5.10464e-05
0.00013628
1.82091e-05
0.000177396
-1.6645e-05
0.000225435
-5.26608e-05
0.000281166
-8.84057e-05
0.000345251
-0.000121423
0.000417758
-0.000147426
-0.000158763
0.000496865
-1.3568e-06
4.09348e-05
-3.66937e-06
9.93699e-05
-5.57398e-06
0.000138939
-6.00037e-06
0.000163062
-4.09912e-06
0.000174609
8.16898e-07
0.000175923
9.3182e-06
0.000168867
2.18913e-05
0.000154891
3.89604e-05
0.000135115
6.09006e-05
0.000110397
8.80474e-05
8.13992e-05
0.000120705
4.8648e-05
0.00015916
1.25912e-05
0.000203706
-2.63367e-05
0.000254683
-6.76213e-05
0.000312532
-0.000110511
0.000377846
-0.000153719
0.000451321
-0.000194898
0.000533446
-0.000229551
-0.000248381
0.000623064
-1.2024e-06
4.21372e-05
-2.81636e-06
0.000100984
-3.31399e-06
0.000139437
-1.50194e-06
0.00016125
3.57138e-06
0.000169535
1.26844e-05
0.00016681
2.64921e-05
0.000155059
4.55578e-05
0.000135825
7.03688e-05
0.000110304
0.000101341
7.9425e-05
0.000138812
4.39278e-05
0.000183035
4.42492e-06
0.000234168
-3.85412e-05
0.000292273
-8.44419e-05
0.000357344
-0.000132693
0.000429368
-0.000182534
0.000508425
-0.000232776
0.000594807
-0.00028128
0.000689029
-0.000323773
-0.000350238
0.000790886
-1.01149e-06
4.31487e-05
-1.78267e-06
0.000101755
-5.89506e-07
0.000138244
3.91736e-06
0.000156743
1.28274e-05
0.000160625
2.70496e-05
0.000152588
4.7366e-05
0.000134742
7.44626e-05
0.000108729
0.000108939
7.58278e-05
0.000151302
3.70615e-05
0.000201949
-6.71911e-06
0.000261135
-5.47613e-05
0.000328941
-0.000106347
0.000405235
-0.000160735
0.00048965
-0.000217108
0.000581604
-0.000274488
0.000680385
-0.000331558
0.000785338
-0.000386233
0.000896149
-0.000434584
-0.000467698
0.00101361
-7.7229e-07
4.3921e-05
-5.21174e-07
0.000101504
2.70419e-06
0.000135019
1.04406e-05
0.000149007
2.39491e-05
0.000147117
4.43052e-05
0.000132232
7.24554e-05
0.000106592
0.000109246
7.19386e-05
0.000155426
2.9647e-05
0.000211639
-1.91509e-05
0.000278386
-7.34664e-05
0.000355993
-0.000132368
0.000444552
-0.000194906
0.000543858
-0.000260042
0.000653332
-0.000326582
0.000771931
-0.000393087
0.000898103
-0.00045773
0.0010298
-0.000517926
0.00116474
-0.000569532
-0.000606855
0.0013039
-4.7127e-07
4.43923e-05
1.02039e-06
0.000100012
6.68032e-06
0.000129359
1.82605e-05
0.000137427
3.72223e-05
0.000128155
6.48347e-05
0.000104619
0.000102232
6.91953e-05
0.000150436
2.37342e-05
0.000210359
-3.02757e-05
0.00028278
-9.1572e-05
0.00036832
-0.000159006
0.000467406
-0.000231454
0.000580237
-0.000307737
0.000706751
-0.000386556
0.000846578
-0.000466409
0.000998972
-0.00054548
0.00116264
-0.000621399
0.00133512
-0.000690405
0.00151021
-0.000744622
-0.000765525
0.00166888
-9.27703e-08
4.44851e-05
2.90101e-06
9.70185e-05
1.14641e-05
0.000120795
2.75858e-05
0.000121305
5.29475e-05
0.000102793
8.90242e-05
6.85425e-05
0.000137137
2.10827e-05
0.000198466
-3.75952e-05
0.000274041
-0.000105851
0.000364712
-0.000182243
0.000471124
-0.000265419
0.000593701
-0.000354031
0.000732653
-0.000446689
0.000888033
-0.000541935
0.00105987
-0.000638244
0.00124843
-0.000734046
0.00145477
-0.000827735
0.00168195
-0.000917584
0.00193913
-0.0010018
-0.00107418
0.00224778
3.84125e-07
4.41009e-05
5.19157e-06
9.22111e-05
1.71984e-05
0.000108789
3.86455e-05
9.98579e-05
7.14414e-05
6.99974e-05
0.00011726
2.27242e-05
0.000177576
-3.92339e-05
0.000253664
-0.000113683
0.000346562
-0.000198748
0.000457032
-0.000292713
0.000585525
-0.000393912
0.000732167
-0.000500672
0.000896773
-0.000611296
0.00107892
-0.00072408
0.00127805
-0.000837379
0.0014937
-0.000949692
0.00172575
-0.00105978
0.00197498
-0.00116682
0.00224356
-0.00127038
-0.00136224
0.00253162
9.81102e-07
4.31198e-05
7.96604e-06
8.52261e-05
2.40305e-05
9.27241e-05
5.16698e-05
7.22187e-05
9.30098e-05
2.86573e-05
0.000149888
-3.41539e-05
0.000223864
-0.00011321
0.000316186
-0.000206005
0.000427731
-0.000310293
0.000558947
-0.000423929
0.000709809
-0.000544774
0.000879807
-0.00067067
0.00106798
-0.000799465
0.00127297
-0.000929072
0.00149315
-0.00105756
0.00172673
-0.00118327
0.00197186
-0.00130492
0.00222672
-0.00142168
0.00248943
-0.00153308
-0.0016312
0.00275839
1.72196e-06
4.13979e-05
1.13009e-05
7.56472e-05
3.21054e-05
7.19197e-05
6.68721e-05
3.7452e-05
0.00011791
-2.23807e-05
0.000187151
-0.000103394
0.000276119
-0.000202178
0.000385864
-0.00031575
0.000516874
-0.000441303
0.000669004
-0.000576059
0.000841449
-0.000717219
0.00103276
-0.000861979
0.0012409
-0.00100761
0.0014634
-0.00115157
0.00169743
-0.00129159
0.00193998
-0.00142583
0.00218796
-0.00155289
0.00243818
-0.0016719
0.00268752
-0.00178242
-0.00187838
0.0029347
2.62985e-06
3.8768e-05
1.52666e-05
6.30104e-05
4.15479e-05
4.56384e-05
8.44162e-05
-5.41639e-06
0.000146297
-8.42615e-05
0.0002291
-0.000186197
0.000334142
-0.00030722
0.00046204
-0.000443648
0.000612611
-0.000591875
0.000784822
-0.00074827
0.0009768
-0.000909197
0.00118592
-0.0010711
0.00140898
-0.00123066
0.00164234
-0.00138493
0.0018822
-0.00153145
0.00212474
-0.00166836
0.00236626
-0.00179441
0.00260329
-0.00190893
0.00283269
-0.00201182
-0.00209919
0.0030535
3.72522e-06
3.50428e-05
1.99204e-05
4.68152e-05
5.24457e-05
1.31132e-05
0.000104384
-5.73551e-05
0.000178169
-0.000158046
0.000275517
-0.000283546
0.000397305
-0.000429008
0.000543431
-0.000589774
0.000712735
-0.000761179
0.000903007
-0.000938542
0.0011111
-0.00111729
0.00133312
-0.00129313
0.00156474
-0.00146228
0.00180143
-0.00162162
0.00203879
-0.00176881
0.00227275
-0.00190232
0.00249973
-0.0020214
0.00271674
-0.00212595
0.00292144
-0.00221652
-0.00229124
0.00311349
5.02402e-06
3.00188e-05
2.52992e-05
2.654e-05
6.48339e-05
-2.64215e-05
0.000126749
-0.00011927
0.000213323
-0.00024462
0.000325855
-0.000396078
0.000464489
-0.000567642
0.000628087
-0.000753372
0.000814217
-0.000947309
0.00101928
-0.0011436
0.00123877
-0.00133677
0.00146763
-0.00152199
0.00170068
-0.00169532
0.00193293
-0.00185387
0.00215994
-0.00199582
0.00237801
-0.00212039
0.00258427
-0.00222766
0.00277674
-0.00231841
0.00295424
-0.00239402
-0.00245426
0.00311725
6.53645e-06
2.34823e-05
3.14143e-05
1.66217e-06
7.86824e-05
-7.36895e-05
0.00015135
-0.000191937
0.000251326
-0.000344597
0.000379205
-0.000523956
0.000534071
-0.000722508
0.000713438
-0.00093274
0.000913373
-0.00114724
0.00112881
-0.00135904
0.00135399
-0.00156196
0.00158303
-0.00175103
0.00181032
-0.00192262
0.002031
-0.00207455
0.00224117
-0.002206
0.00243802
-0.00231724
0.00261983
-0.00240946
0.00278585
-0.00248444
0.00293617
-0.00254434
-0.0025902
0.00307211
8.26599e-06
1.52164e-05
3.82477e-05
-2.83195e-05
9.38874e-05
-0.000129329
0.000177883
-0.000275933
0.000291502
-0.000458215
0.000434302
-0.000666757
0.000603979
-0.000892185
0.000796442
-0.0011252
0.00100616
-0.00135696
0.0012267
-0.00157958
0.0014514
-0.00178667
0.00167399
-0.00197362
0.00188908
-0.0021377
0.00209246
-0.00227794
0.00228129
-0.00239483
0.002454
-0.00248994
0.00261014
-0.00256561
0.0027502
-0.0026245
0.00287532
-0.00266945
-0.00270236
0.00298748
1.02087e-05
5.00762e-06
4.5749e-05
-6.38598e-05
0.000110266
-0.000193846
0.000205894
-0.000371561
0.000332937
-0.000585258
0.00048957
-0.00082339
0.000671808
-0.00107442
0.00087382
-0.00132721
0.00108855
-0.00157169
0.00130855
-0.00179957
0.00152672
-0.00200484
0.00173703
-0.00218392
0.00193484
-0.00233551
0.00211711
-0.00246021
0.00228232
-0.00256003
0.00243023
-0.00263785
0.00256161
-0.00269699
0.00267791
-0.00274081
0.002781
-0.00277254
-0.00279459
0.00287323
1.23527e-05
-7.34509e-06
5.38333e-05
-0.00010534
0.000127554
-0.000267567
0.000234783
-0.000478791
0.000374509
-0.000724984
0.000543199
-0.00099208
0.000734994
-0.00126622
0.000942353
-0.00153457
0.001157
-0.00178634
0.00137093
-0.0020135
0.00157725
-0.00221116
0.00177072
-0.00237739
0.00194794
-0.00251273
0.00210728
-0.00261956
0.00224861
-0.00270136
0.00237288
-0.00276212
0.0024818
-0.00280591
0.00257747
-0.00283648
0.0026621
-0.00285717
-0.00287058
0.00273809
1.46772e-05
-2.20223e-05
6.23806e-05
-0.000153044
0.000145408
-0.000350594
0.000263822
-0.000597205
0.000414942
-0.000876104
0.00059327
-0.00117041
0.000791025
-0.00146397
0.000999187
-0.00174273
0.00120872
-0.00199588
0.0014117
-0.00221648
0.00160201
-0.00240147
0.00177568
-0.00255105
0.00193078
-0.00266784
0.00206714
-0.00275592
0.00218584
-0.00282005
0.00228877
-0.00286505
0.00237823
-0.00289537
0.0024566
-0.00291485
0.00252614
-0.00292671
-0.00293352
0.00258908
1.71522e-05
-3.91745e-05
7.12356e-05
-0.000207127
0.000163413
-0.000442771
0.000292182
-0.000725974
0.000452876
-0.0010368
0.000637889
-0.00135542
0.000837658
-0.00166374
0.0010421
-0.00194717
0.00124202
-0.0021958
0.00143017
-0.00240463
0.00160169
-0.002573
0.00175415
-0.00270351
0.00188714
-0.00280083
0.00200175
-0.00287053
0.00210002
-0.00291831
0.00218441
-0.00294945
0.00225748
-0.00296844
0.00232163
-0.002979
0.00237896
-0.00298404
-0.00298593
0.00243137
1.97381e-05
-5.89126e-05
8.02103e-05
-0.000267599
0.000181096
-0.000543656
0.000318974
-0.000863852
0.000486956
-0.00120478
0.000675342
-0.00154381
0.000873113
-0.00186151
0.00106968
-0.00214374
0.0012563
-0.00238243
0.00142693
-0.00257525
0.00157826
-0.00272433
0.00170945
-0.0028347
0.00182144
-0.00291282
0.00191633
-0.00296541
0.00199675
-0.00299873
0.00206543
-0.00301813
0.00212493
-0.00302794
0.00217745
-0.00303152
0.00222483
-0.00303141
-0.0030297
0.0022686
2.23861e-05
-8.12987e-05
8.90894e-05
-0.000334303
0.000197946
-0.000652513
0.000343304
-0.00100921
0.000515933
-0.00137741
0.000704232
-0.00173211
0.000896203
-0.00205348
0.00108137
-0.0023289
0.00125201
-0.00255307
0.00140361
-0.00272685
0.00153453
-0.00285525
0.00164537
-0.00294554
0.00173818
-0.00300562
0.00181569
-0.00304293
0.00188085
-0.00306389
0.00193638
-0.00307366
0.00198465
-0.00307621
0.00202758
-0.00307445
0.00206668
-0.00307052
-0.00306617
0.00210315
2.50391e-05
-0.000106338
9.76376e-05
-0.000406901
0.00021344
-0.000768316
0.000364327
-0.0011601
0.000538752
-0.00155183
0.000723571
-0.00191693
0.000906391
-0.0022363
0.00107743
-0.00249994
0.00123043
-0.00270607
0.00136254
-0.00285896
0.00147371
-0.00296643
0.00156576
-0.00303759
0.00164148
-0.00308134
0.00170397
-0.00310543
0.00175621
-0.00311612
0.00180073
-0.00311818
0.00183961
-0.00311509
0.00187446
-0.0031093
0.00190649
-0.00310255
-0.00309626
0.00193659
2.76338e-05
-0.000133972
0.000105611
-0.000484878
0.000227074
-0.000889779
0.000381301
-0.00131432
0.000554619
-0.00172515
0.000732832
-0.00209514
0.000903754
-0.00240723
0.00105881
-0.00265499
0.00119339
-0.00284066
0.00130637
-0.00297194
0.00139906
-0.00305911
0.00147415
-0.00311269
0.00153492
-0.0031421
0.00158454
-0.00315505
0.00162582
-0.0031574
0.00166102
-0.00315339
0.00169191
-0.00314598
0.00171977
-0.00313716
0.00174554
-0.00312831
-0.00312059
0.00176986
3.01026e-05
-0.000164074
0.000112767
-0.000567543
0.000238387
-0.0010154
0.000393635
-0.00146957
0.000563048
-0.00189457
0.000731943
-0.00226403
0.000888899
-0.00256418
0.00102688
-0.00279298
0.00114307
-0.00295684
0.00123785
-0.00306672
0.00131361
-0.00313487
0.00137366
-0.00317274
0.00142143
-0.00318987
0.00146
-0.00319362
0.00149191
-0.0031893
0.00151908
-0.00318057
0.00154297
-0.00316986
0.00156458
-0.00315877
0.00158462
-0.00314836
-0.00313953
0.00160356
3.2377e-05
-0.000196451
0.00011888
-0.000654045
0.000246994
-0.00114351
0.000400923
-0.0016235
0.000563866
-0.00205751
0.000721234
-0.0024214
0.000862829
-0.00270578
0.000983364
-0.00291352
0.0010817
-0.00305518
0.00115954
-0.00314455
0.00122005
-0.00319538
0.00126685
-0.00321954
0.00130333
-0.00322636
0.00133235
-0.00322264
0.00135609
-0.00321305
0.00137618
-0.00320066
0.00139376
-0.00318744
0.00140961
-0.00317463
0.00142427
-0.00316302
-0.00315332
0.00143807
3.43903e-05
-0.000230842
0.000123749
-0.000743404
0.000252602
-0.00127237
0.000402952
-0.00177385
0.000557188
-0.00221174
0.000701356
-0.00256557
0.000826807
-0.00283123
0.000930046
-0.00301675
0.00101146
-0.0031366
0.00107377
-0.00320686
0.00112065
-0.00324225
0.00115579
-0.00325468
0.00118241
-0.00325298
0.00120303
-0.00324326
0.00121952
-0.00322954
0.00123319
-0.00321433
0.00124493
-0.00319918
0.00125534
-0.00318504
0.00126483
-0.0031725
-0.00316211
0.00127361
3.60848e-05
-0.000266926
0.000127217
-0.000834536
0.000255033
-0.00140018
0.000399713
-0.00191853
0.000543395
-0.00235543
0.000673208
-0.00269538
0.000782246
-0.00294027
0.000868733
-0.00310324
0.000934355
-0.00320222
0.000982564
-0.00325507
0.00101728
-0.00327697
0.00104212
-0.00327952
0.00106001
-0.00327086
0.00107313
-0.00325638
0.00108302
-0.00323942
0.00109071
-0.00322203
0.00109692
-0.00320538
0.00110209
-0.00319021
0.00110652
-0.00317694
-0.00316596
0.00111037
3.73999e-05
-0.000304326
0.000129152
-0.000926288
0.000254187
-0.00152522
0.000391334
-0.00205568
0.00052301
-0.0024871
0.000637776
-0.00281015
0.000730531
-0.00303302
0.000801063
-0.00317377
0.000852093
-0.00325325
0.000887553
-0.00329053
0.000911413
-0.00330083
0.000927063
-0.00329517
0.0009371
-0.0032809
0.000943369
-0.00326265
0.000947114
-0.00324317
0.000949153
-0.00322406
0.00095002
-0.00320625
0.000950067
-0.00319026
0.000949515
-0.00317638
-0.00316491
0.000948472
3.82948e-05
-0.000342621
0.000129484
-0.00101748
0.000250094
-0.00164583
0.000378118
-0.0021837
0.000496729
-0.00260571
0.00059615
-0.00290957
0.000673045
-0.00310992
0.000728561
-0.00322929
0.00076619
-0.00329088
0.000790117
-0.00331445
0.000804207
-0.00331492
0.000811555
-0.00330252
0.000814414
-0.00328376
0.000814308
-0.00326254
0.000812229
-0.00324109
0.00080881
-0.00322064
0.00080446
-0.0032019
0.000799451
-0.00318525
0.000793949
-0.00317088
-0.003159
0.000788033
3.87361e-05
-0.000381357
0.000128186
-0.00110693
0.000242867
-0.00176051
0.000360466
-0.0023013
0.000465309
-0.00271056
0.0005494
-0.00299366
0.000611055
-0.00317157
0.000652541
-0.00327078
0.000677887
-0.00331622
0.000691343
-0.00332791
0.000696559
-0.00332014
0.0006963
-0.00330226
0.000692478
-0.00327994
0.000686335
-0.0032564
0.000678647
-0.0032334
0.000669899
-0.0032119
0.000660405
-0.00319241
0.000650377
-0.00317522
0.000639943
-0.00316045
-0.00314822
0.000629164
3.8703e-05
-0.00042006
0.000125275
-0.0011935
0.000232693
-0.00186793
0.00033885
-0.00240746
0.000429529
-0.00280124
0.000498544
-0.00306268
0.000545691
-0.00321872
0.000574128
-0.00329921
0.0005882
-0.0033303
0.000592085
-0.00333179
0.000589148
-0.0033172
0.000581811
-0.00329492
0.000571674
-0.0032698
0.000559729
-0.00324445
0.000546575
-0.00322025
0.000532581
-0.0031979
0.000517987
-0.00317781
0.000502959
-0.0031602
0.000487604
-0.00314509
-0.00313258
0.000471969
3.81862e-05
-0.000458246
0.000120809
-0.00127612
0.000219819
-0.00196694
0.000313783
-0.00250142
0.000390159
-0.00287761
0.000444518
-0.00311703
0.000477944
-0.00325215
0.000494257
-0.00331552
0.000497946
-0.00333399
0.000493006
-0.00332685
0.000482485
-0.00330668
0.000468469
-0.00328091
0.000452278
-0.00325361
0.000434693
-0.00322687
0.000416169
-0.00320172
0.000396981
-0.00317871
0.000377312
-0.00315815
0.000357298
-0.00314018
0.000337027
-0.00312482
-0.0031121
0.000316543
3.71881e-05
-0.000495434
0.000114875
-0.00135381
0.000204527
-0.00205659
0.000285792
-0.00258269
0.000347928
-0.00293975
0.000388164
-0.00315727
0.000408662
-0.00327264
0.0004137
-0.00332056
0.000407771
-0.00332806
0.000394616
-0.0033137
0.000376951
-0.00328902
0.000356553
-0.00326051
0.000334492
-0.00323155
0.000311378
-0.00320376
0.000287547
-0.00317789
0.000263199
-0.00315436
0.000238473
-0.00313342
0.000213478
-0.00311519
0.000188298
-0.00309964
-0.00308677
0.000162975
3.57216e-05
-0.000531156
0.00010759
-0.00142568
0.000187125
-0.00213612
0.000255396
-0.00265096
0.000303514
-0.00298787
0.000330223
-0.00318398
0.00033856
-0.00328098
0.000333088
-0.00331509
0.000318187
-0.00331316
0.000297308
-0.00329282
0.000272836
-0.00326454
0.000246268
-0.00323394
0.000218467
-0.00320375
0.000189897
-0.00317519
0.000160801
-0.0031488
0.000131315
-0.00312488
0.000101542
-0.00310365
7.15739e-05
-0.00308522
4.14902e-05
-0.00306956
-0.00305662
1.13404e-05
3.38087e-05
-0.000564965
9.90877e-05
-0.00149095
0.000167929
-0.00220497
0.000223091
-0.00270612
0.000257529
-0.0030223
0.000271338
-0.00319779
0.000268238
-0.00327788
0.000252928
-0.00329978
0.000229597
-0.00328983
0.000201381
-0.00326461
0.000170356
-0.00323352
0.00013777
-0.00320136
0.000104314
-0.00317029
7.03353e-05
-0.00314121
3.59998e-05
-0.00311446
1.39268e-06
-0.00309027
-3.34172e-05
-0.00306884
-6.83531e-05
-0.00305028
-0.000103331
-0.00303458
-0.00302166
-0.000138291
3.14794e-05
-0.000596444
8.95168e-05
-0.00154899
0.000147257
-0.00226271
0.000189341
-0.0027482
0.000210517
-0.00304348
0.000212059
-0.00319933
0.000198194
-0.00326402
0.000173632
-0.00327522
0.00014232
-0.00325851
0.000107073
-0.00322936
6.96793e-05
-0.00319612
3.1178e-05
-0.00316285
-7.88267e-06
-0.00313123
-4.72445e-05
-0.00310185
-8.68047e-05
-0.0030749
-0.000126523
-0.00305055
-0.000166364
-0.003029
-0.000206261
-0.00301038
-0.000246124
-0.00299472
-0.00298191
-0.000285875
2.87697e-05
-0.000625214
7.90312e-05
-0.00159925
0.000125413
-0.00230909
0.000154575
-0.00277736
0.000162963
-0.00305187
0.000152859
-0.00318923
0.000128841
-0.00324
9.55376e-05
-0.00324192
5.66145e-05
-0.00321959
1.45728e-05
-0.00318732
-2.9055e-05
-0.0031525
-7.34096e-05
-0.0031185
-0.000118053
-0.00308659
-0.000162794
-0.0030571
-0.000207579
-0.00303012
-0.000252409
-0.00300572
-0.00029728
-0.00298413
-0.000342141
-0.00296552
-0.000386888
-0.00294997
-0.00293739
-0.000431417
2.57209e-05
-0.000650935
6.7788e-05
-0.00164132
0.00010269
-0.00234399
0.00011918
-0.00279385
0.00011529
-0.00304798
9.41406e-05
-0.00316808
6.05275e-05
-0.00320638
1.8925e-05
-0.00320031
-2.73029e-05
-0.00317336
-7.59539e-05
-0.00313866
-0.000125724
-0.00310273
-0.000175903
-0.00306832
-0.000226134
-0.00303636
-0.000276275
-0.00300696
-0.000326304
-0.00298009
-0.000376262
-0.00295577
-0.00042618
-0.00293421
-0.000476029
-0.00291567
-0.000525686
-0.00290031
-0.00288806
-0.000575011
2.23776e-05
-0.000673312
5.59435e-05
-0.00167489
7.93633e-05
-0.00236741
8.35088e-05
-0.002798
6.78698e-05
-0.00303234
3.62504e-05
-0.00313646
-6.44901e-06
-0.00316368
-5.59639e-05
-0.0031508
-0.000109239
-0.00312009
-0.000164354
-0.00308355
-0.000220206
-0.00304687
-0.000276206
-0.00301232
-0.000332058
-0.0029805
-0.000387644
-0.00295138
-0.000442965
-0.00292477
-0.000498091
-0.00290064
-0.000553098
-0.0028792
-0.000607987
-0.00286078
-0.000662626
-0.00284568
-0.00283388
-0.000716811
1.87871e-05
-0.000692099
4.36502e-05
-0.00169975
5.56872e-05
-0.00237945
4.78769e-05
-0.00279019
2.10289e-05
-0.00300549
-2.05102e-05
-0.00309492
-7.18291e-05
-0.00311237
-0.000128912
-0.00309372
-0.000189011
-0.00305999
-0.000250468
-0.00302209
-0.000312361
-0.00298498
-0.000374201
-0.00295048
-0.000435734
-0.00291897
-0.000496846
-0.00289026
-0.00055754
-0.00286407
-0.000617904
-0.00284028
-0.000678065
-0.00281904
-0.000738074
-0.00280078
-0.000797794
-0.00278595
-0.00277474
-0.000856926
1.49981e-05
-0.000707097
3.10551e-05
-0.00171581
3.18979e-05
-0.00238029
1.25675e-05
-0.00277086
-2.49445e-05
-0.00296798
-7.58756e-05
-0.00304399
-0.000135379
-0.00305286
-0.000199712
-0.00302938
-0.000266429
-0.00299327
-0.000334117
-0.00295441
-0.000402018
-0.00291708
-0.000469729
-0.00288277
-0.000537027
-0.00285167
-0.000603788
-0.0028235
-0.000669987
-0.00279787
-0.00073571
-0.00277455
-0.000801122
-0.00275363
-0.000866341
-0.00273556
-0.000931244
-0.00272105
-0.0027106
-0.000995389
1.10597e-05
-0.000718157
1.82978e-05
-0.00172304
8.2113e-06
-0.0023702
-2.21663e-05
-0.00274048
-6.97956e-05
-0.00292035
-0.000129609
-0.00298417
-0.000196882
-0.00298559
-0.00026816
-0.0029581
-0.000341292
-0.00292014
-0.000415092
-0.00288061
-0.000488953
-0.00284322
-0.000562563
-0.00280916
-0.000635725
-0.00277851
-0.000708302
-0.00275093
-0.000780217
-0.00272596
-0.000851512
-0.00270326
-0.000922363
-0.00268278
-0.000992964
-0.00266496
-0.00106322
-0.00265079
-0.00264123
-0.00113259
7.02049e-06
-0.000725178
5.50928e-06
-0.00172153
-1.51771e-05
-0.00234952
-5.60998e-05
-0.00269956
-0.000113299
-0.00286315
-0.000181496
-0.00291598
-0.000256134
-0.00291095
-0.000334053
-0.00288019
-0.00041338
-0.00284081
-0.000493142
-0.00280084
-0.000572884
-0.00276348
-0.000652384
-0.00272966
-0.000731498
-0.0026994
-0.000810083
-0.00267234
-0.000888012
-0.00264803
-0.000965247
-0.00262602
-0.00104194
-0.00260608
-0.00111838
-0.00258852
-0.00119454
-0.00257463
-0.00256569
-0.00127008
2.92768e-06
-0.000728105
-7.1896e-06
-0.00171142
-3.80924e-05
-0.00231862
-8.90357e-05
-0.00264862
-0.000155257
-0.00279693
-0.000231346
-0.00283989
-0.000312944
-0.00282935
-0.000397181
-0.00279595
-0.000482451
-0.00275554
-0.000567981
-0.00271531
-0.000653461
-0.002678
-0.000738785
-0.00264434
-0.000823888
-0.00261429
-0.00090867
-0.00258756
-0.000992985
-0.00256371
-0.00107672
-0.00254229
-0.00115998
-0.00252283
-0.00124316
-0.00250534
-0.00132648
-0.0024913
-0.00248164
-0.00141054
-1.17421e-06
-0.000726931
-1.96899e-05
-0.0016929
-6.03819e-05
-0.00227792
-0.000120805
-0.00258819
-0.000195502
-0.00272223
-0.000278992
-0.0027564
-0.000367133
-0.00274121
-0.000457338
-0.00270574
-0.000548243
-0.00266464
-0.000639265
-0.00262429
-0.00073024
-0.00258702
-0.000821196
-0.00255338
-0.00091221
-0.00252328
-0.00100332
-0.00249645
-0.00109446
-0.00247257
-0.00118554
-0.00245121
-0.00127656
-0.00243181
-0.00136787
-0.00241402
-0.00146007
-0.00239911
-0.00238582
-0.00155589
-5.24428e-06
-0.000721687
-3.18959e-05
-0.00166625
-8.19166e-05
-0.0022279
-0.00015127
-0.00251884
-0.000233898
-0.0026396
-0.000324299
-0.002666
-0.000418553
-0.00264696
-0.000514335
-0.00260996
-0.000610496
-0.00256848
-0.000706611
-0.00252818
-0.000802646
-0.00249099
-0.000898763
-0.00245726
-0.000995223
-0.00242682
-0.00109232
-0.00239935
-0.00119034
-0.00237455
-0.00128949
-0.00235207
-0.00138988
-0.00233142
-0.00149209
-0.00231181
-0.00159842
-0.00229277
-0.00228595
-0.00169829
-9.23384e-06
-0.000712453
-4.37069e-05
-0.00163178
-0.000102569
-0.00216904
-0.000180302
-0.00244111
-0.000270327
-0.00254958
-0.000367157