/*--------------------------------*- C++ -*----------------------------------*\
  =========                 |
  \\      /  F ield         | OpenFOAM: The Open Source CFD Toolbox
   \\    /   O peration     | Website:  https://openfoam.org
    \\  /    A nd           | Version:  6.0
     \\/     M anipulation  |
\*---------------------------------------------------------------------------*/
FoamFile
{
    version     2.0;
    format      ascii;
    class       volVectorField;
    location    "3.8";
    object      U;
}
// * * * * * * * * * * * * * * * * * * * * * * * * * * * * * * * * * * * * * //

dimensions      [0 1 -1 0 0 0 0];

internalField   nonuniform List<vector> 
8000
(
(-0.0030852 0.00330569 -4.74827e-21)
(-0.0151654 0.00748982 2.54186e-20)
(-0.0359264 0.0100331 -3.11235e-20)
(-0.0600743 0.0115085 2.37918e-20)
(-0.0852004 0.0122667 1.17166e-20)
(-0.110175 0.0125419 -3.52172e-20)
(-0.134271 0.0124947 -3.16187e-21)
(-0.157062 0.0122322 -1.18688e-21)
(-0.178328 0.0118244 -1.88129e-20)
(-0.19797 0.0113162 -1.03162e-20)
(-0.215959 0.0107365 7.5816e-21)
(-0.232307 0.010104 2.93795e-20)
(-0.247049 0.00943132 -2.07493e-21)
(-0.260239 0.00872742 3.26494e-21)
(-0.271926 0.00799889 -3.0015e-20)
(-0.282146 0.00725079 1.85484e-20)
(-0.290972 0.0064861 -2.66375e-20)
(-0.298702 0.00570381 4.03468e-20)
(-0.305583 0.00490315 -4.69895e-23)
(-0.310085 0.00410962 8.93649e-21)
(-0.00345835 0.00974272 1.57636e-20)
(-0.0157197 0.0220957 -8.09244e-20)
(-0.036157 0.0296143 -5.63403e-20)
(-0.0597666 0.0339706 -3.85325e-20)
(-0.0842609 0.0361925 -4.99677e-20)
(-0.108558 0.0369703 1.06787e-20)
(-0.131955 0.0367795 -5.8338e-20)
(-0.154032 0.0359396 -1.34314e-20)
(-0.174569 0.0346608 3.82575e-21)
(-0.193462 0.0330798 4.41343e-20)
(-0.210675 0.0312849 -4.88223e-20)
(-0.226213 0.0293347 6.83268e-20)
(-0.240107 0.0272689 -5.15295e-20)
(-0.252403 0.0251163 -6.15049e-20)
(-0.26315 0.0228987 -8.51721e-20)
(-0.27238 0.020633 5.42518e-20)
(-0.280166 0.0183297 -1.77906e-20)
(-0.286806 0.0159871 -6.43706e-20)
(-0.292574 0.013603 6.07144e-20)
(-0.295942 0.0112546 -4.66081e-20)
(-0.00417123 0.0157393 1.54721e-19)
(-0.016782 0.0358419 8.09002e-20)
(-0.0365945 0.0481962 9.1281e-20)
(-0.0591593 0.0554303 7.70563e-21)
(-0.0824215 0.0591741 5.07825e-20)
(-0.105394 0.0605331 6.36981e-20)
(-0.127421 0.0602756 -1.16684e-19)
(-0.148099 0.058923 -6.24658e-20)
(-0.167209 0.0568215 -8.26683e-20)
(-0.184638 0.0541983 8.7721e-20)
(-0.200341 0.0512022 -6.75746e-20)
(-0.21431 0.0479329 -8.82737e-20)
(-0.226565 0.0444593 -3.25322e-20)
(-0.237145 0.0408328 3.07804e-20)
(-0.246092 0.0370938 -8.76999e-21)
(-0.253436 0.0332755 1.21081e-20)
(-0.259246 0.0294011 1.43875e-19)
(-0.263822 0.0254722 -2.03433e-20)
(-0.267484 0.0214881 -1.46239e-19)
(-0.268725 0.0175812 1.97166e-19)
(-0.00516086 0.0210388 5.48022e-20)
(-0.0182649 0.048214 -7.63025e-20)
(-0.037194 0.0651664 -1.95759e-20)
(-0.0582676 0.07526 3.6532e-20)
(-0.079758 0.0806096 1.04017e-19)
(-0.100816 0.0826713 2.29119e-19)
(-0.120855 0.0824708 2.25604e-19)
(-0.139502 0.080713 1.95025e-20)
(-0.156542 0.077873 1.40543e-19)
(-0.171856 0.0742665 2.16637e-19)
(-0.185386 0.0701031 -1.74487e-19)
(-0.197113 0.0655252 2.58557e-19)
(-0.207043 0.0606337 -6.05795e-20)
(-0.215203 0.0555057 1.43338e-20)
(-0.221631 0.0502047 6.26187e-20)
(-0.226353 0.0447864 8.38343e-20)
(-0.22943 0.0392936 -1.31813e-19)
(-0.231164 0.0337393 -1.10504e-19)
(-0.231937 0.0281283 -1.94729e-19)
(-0.230298 0.0226543 2.88359e-19)
(-0.00634165 0.0254359 -2.83334e-20)
(-0.0200478 0.0587804 -2.93669e-19)
(-0.0378943 0.0799894 -8.7598e-20)
(-0.0571157 0.0928907 -2.13924e-19)
(-0.0763819 0.099937 8.09764e-20)
(-0.0950168 0.102851 -1.28868e-19)
(-0.112528 0.102869 4.52794e-20)
(-0.128587 0.100854 -2.7674e-19)
(-0.142992 0.0973986 1.47062e-19)
(-0.155622 0.0929032 -1.76125e-19)
(-0.166411 0.0876382 -1.57814e-19)
(-0.175329 0.0817897 -1.79085e-19)
(-0.182371 0.0754926 1.63092e-19)
(-0.187556 0.0688525 -1.4828e-19)
(-0.190913 0.0619601 2.06185e-19)
(-0.192469 0.0548987 5.99889e-20)
(-0.192275 0.0477395 1.49211e-19)
(-0.190627 0.0405169 6.50494e-20)
(-0.187978 0.0332478 -2.59355e-19)
(-0.182995 0.0261938 4.24383e-19)
(-0.0076148 0.0287905 1.27886e-19)
(-0.0219899 0.0672185 8.83754e-21)
(-0.0386247 0.092234 5.28704e-20)
(-0.0557381 0.107836 1.8447e-19)
(-0.0724372 0.116652 -2.78797e-20)
(-0.0882455 0.120576 3.0266e-19)
(-0.102787 0.120996 1.36226e-19)
(-0.115795 0.118904 1.15079e-20)
(-0.127091 0.114994 3.54245e-19)
(-0.136564 0.109744 1.18017e-19)
(-0.144147 0.103485 5.65235e-20)
(-0.149804 0.096446 1.78438e-19)
(-0.153526 0.088797 1.65083e-19)
(-0.155324 0.0806731 3.04028e-19)
(-0.155226 0.0721937 -2.71998e-19)
(-0.153256 0.0634737 3.87881e-19)
(-0.149462 0.05462 6.63214e-21)
(-0.14412 0.0456993 -4.97075e-19)
(-0.137758 0.0367508 6.46028e-19)
(-0.129232 0.0281076 2.67006e-19)
(-0.00887903 0.0310355 -7.50512e-20)
(-0.0239433 0.0733328 -1.38497e-19)
(-0.0393136 0.101596 -2.877e-19)
(-0.05418 0.119714 -8.78343e-21)
(-0.0680949 0.130325 5.04227e-20)
(-0.0807963 0.135396 -3.70658e-19)
(-0.0920426 0.136405 -2.77021e-19)
(-0.101643 0.134433 -3.92247e-20)
(-0.109463 0.130258 -3.55162e-19)
(-0.115411 0.124428 -2.48838e-19)
(-0.11943 0.117327 -7.28315e-20)
(-0.121487 0.109228 -2.36419e-19)
(-0.121575 0.100334 -3.32253e-21)
(-0.119705 0.0908103 -3.18659e-19)
(-0.115904 0.0808035 1.35007e-19)
(-0.110203 0.0704601 -1.53937e-19)
(-0.102643 0.0599267 1.19622e-19)
(-0.093476 0.0493142 -1.51165e-19)
(-0.0832887 0.0386954 -4.3503e-19)
(-0.0712158 0.0284746 -1.31863e-19)
(-0.0100416 0.0321789 -2.9118e-20)
(-0.0257694 0.0770648 -3.14355e-20)
(-0.0398971 0.107917 2.42247e-19)
(-0.0524987 0.128268 -3.96403e-19)
(-0.0635473 0.140626 5.78929e-20)
(-0.0729969 0.146931 -2.31391e-19)
(-0.080752 0.148688 1.08975e-19)
(-0.0867155 0.14703 4.96764e-19)
(-0.0908091 0.142793 -3.04269e-20)
(-0.0929766 0.136581 -3.76227e-19)
(-0.0931822 0.128828 6.73781e-20)
(-0.0914092 0.119846 1.27924e-20)
(-0.0876576 0.109871 -8.11556e-20)
(-0.0819446 0.0990922 5.65544e-21)
(-0.0743033 0.0876819 7.0438e-19)
(-0.0647705 0.0758147 -9.9089e-20)
(-0.0533879 0.0636766 -1.97957e-19)
(-0.0403743 0.0514321 -3.57313e-19)
(-0.0263527 0.0392033 3.63865e-19)
(-0.0108189 0.0274596 1.54982e-19)
(-0.0110283 0.0322981 1.423e-19)
(-0.0273534 0.0784928 -1.87727e-19)
(-0.0403277 0.11119 2.64916e-19)
(-0.0507619 0.133386 2.67372e-19)
(-0.0589968 0.147341 2.46302e-19)
(-0.0651907 0.154888 5.01822e-19)
(-0.0693983 0.157498 3.27136e-19)
(-0.0716279 0.156314 -7.07371e-19)
(-0.0718728 0.152205 3.64517e-19)
(-0.0701255 0.145817 2.89328e-19)
(-0.0663848 0.137622 -4.10725e-21)
(-0.0606581 0.127967 3.29678e-19)
(-0.0529623 0.117115 2.60584e-19)
(-0.0433252 0.105278 -1.40016e-19)
(-0.0317868 0.0926457 4.82619e-19)
(-0.0183917 0.0794156 -5.9849e-19)
(-0.00318415 0.0658084 2.41524e-19)
(0.0136534 0.0520483 3.11343e-19)
(0.0314952 0.0383284 -7.20335e-20)
(0.050414 0.0251778 6.16475e-19)
(-0.0117907 0.0315296 2.90649e-19)
(-0.0286164 0.0778208 1.53821e-20)
(-0.0405817 0.111563 -1.03775e-19)
(-0.0490452 0.135111 -1.09024e-19)
(-0.0546419 0.150398 -5.09485e-19)
(-0.057711 0.159091 7.20798e-20)
(-0.0584531 0.162574 2.06539e-19)
(-0.0569888 0.161964 -9.98276e-20)
(-0.053394 0.158134 8.28841e-20)
(-0.0477225 0.151754 -2.09448e-20)
(-0.0400178 0.143322 -1.09639e-19)
(-0.03032 0.133212 1.04818e-19)
(-0.0186684 0.121708 -4.63946e-19)
(-0.00510379 0.109038 4.44789e-19)
(0.0103278 0.0954029 -3.90025e-19)
(0.0275776 0.081013 1.20013e-19)
(0.0465999 0.0661156 2.774e-19)
(0.0672508 0.0509971 -5.67881e-20)
(0.0889387 0.0359502 -1.92333e-19)
(0.111255 0.0215738 -1.28442e-19)
(-0.0123112 0.0300533 -3.64121e-19)
(-0.0295243 0.0753571 -2.32039e-20)
(-0.0406619 0.109324 7.65945e-20)
(-0.0474249 0.13364 1.96268e-19)
(-0.0506574 0.149881 -2.76876e-19)
(-0.0508468 0.159507 -2.42491e-19)
(-0.0483282 0.16378 5.69634e-19)
(-0.0433342 0.163757 -3.1412e-19)
(-0.0360301 0.160293 -2.04471e-19)
(-0.0265386 0.154058 -2.96924e-19)
(-0.0149554 0.145564 1.97914e-19)
(-0.00135805 0.1352 -3.15015e-21)
(0.0141899 0.123264 -3.73129e-19)
(0.0316352 0.10999 -6.20236e-19)
(0.0509305 0.095584 4.73417e-19)
(0.0720301 0.0802566 -3.88493e-19)
(0.0948915 0.0642689 5.51818e-19)
(0.11941 0.0479663 -1.54245e-19)
(0.145064 0.0317773 3.28866e-19)
(0.170933 0.0164118 -1.08618e-18)
(-0.0126037 0.0280747 -7.42047e-19)
(-0.0300896 0.0714847 4.84431e-19)
(-0.0405968 0.104878 6.55738e-20)
(-0.0459678 0.129319 1.2753e-20)
(-0.0471696 0.146035 -2.97417e-19)
(-0.0448013 0.156267 4.37616e-19)
(-0.039314 0.161137 4.85206e-20)
(-0.0310455 0.161618 -9.06065e-20)
(-0.0202499 0.158523 -2.92359e-19)
(-0.00712072 0.152504 3.17186e-19)
(0.00819251 0.144073 8.12938e-19)
(0.0255751 0.133621 -1.79487e-19)
(0.0449414 0.121449 4.10991e-19)
(0.0662304 0.107789 -4.91191e-19)
(0.0894 0.0928413 -4.75302e-19)
(0.114416 0.0768056 2.85989e-19)
(0.141244 0.0599407 4.79097e-19)
(0.169812 0.0426393 -1.55219e-18)
(0.199697 0.0255035 1.82036e-19)
(0.229453 0.00943678 2.42549e-19)
(-0.0127107 0.0258056 5.50314e-19)
(-0.0303673 0.0666257 1.81029e-19)
(-0.0404323 0.0987108 9.34589e-19)
(-0.0447154 0.122613 4.78549e-20)
(-0.0442284 0.139257 -1.03947e-19)
(-0.0396462 0.149677 -4.9499e-19)
(-0.0315119 0.154853 4.20556e-19)
(-0.0202553 0.15566 7.57756e-19)
(-0.00621036 0.152853 5.09404e-19)
(0.0103643 0.147052 3.68719e-19)
(0.0292714 0.13875 3.20237e-19)
(0.0503651 0.128333 -5.79691e-19)
(0.0735445 0.116091 -1.85605e-19)
(0.0987474 0.102249 -1.35781e-19)
(0.125942 0.0869896 1.46896e-18)
(0.155108 0.0704927 -2.68098e-21)
(0.186216 0.0529963 -3.70979e-19)
(0.219207 0.0349207 -1.20249e-19)
(0.25377 0.0170742 1.07083e-18)
(0.287941 0.000673327 1.37408e-19)
(-0.0126963 0.0234457 -2.71768e-20)
(-0.0304425 0.061203 -5.17757e-19)
(-0.0402168 0.0913479 -7.67407e-19)
(-0.0436631 0.114072 -2.12742e-19)
(-0.0417771 0.130073 1.17416e-19)
(-0.0352756 0.140211 2.50119e-20)
(-0.0247688 0.145331 6.72952e-19)
(-0.0107571 0.146214 -8.3559e-19)
(0.00636185 0.143545 -3.1842e-19)
(0.0262791 0.137901 -6.46722e-19)
(0.0487624 0.129749 -5.55752e-19)
(0.0736464 0.119453 -4.94953e-19)
(0.100823 0.107291 1.23625e-19)
(0.130232 0.0934687 -1.61796e-19)
(0.161849 0.07815 7.04222e-19)
(0.195657 0.0614863 -3.86586e-19)
(0.231606 0.0436813 -1.22583e-18)
(0.269606 0.025155 -2.51384e-19)
(0.309447 0.00694202 6.08144e-19)
(0.348713 -0.0092798 -5.14425e-19)
(-0.0126365 0.0211665 -8.76597e-20)
(-0.0304113 0.0556037 6.32763e-19)
(-0.039979 0.0833073 -8.04352e-19)
(-0.0427366 0.104286 1.86129e-19)
(-0.0396226 0.119099 -3.81159e-19)
(-0.0313693 0.128477 8.48141e-19)
(-0.0186261 0.133158 -6.06968e-19)
(-0.00193887 0.13383 6.96622e-19)
(0.0182546 0.131114 -6.60064e-19)
(0.0416156 0.125536 2.84934e-19)
(0.067894 0.117528 -1.37225e-19)
(0.0969156 0.10743 -3.48107e-19)
(0.128569 0.0954983 -4.34478e-19)
(0.162786 0.0819236 4.3682e-19)
(0.199528 0.0668473 -3.68204e-19)
(0.238746 0.050394 -8.14198e-19)
(0.280321 0.0327258 8.51443e-19)
(0.324053 0.014233 -1.08952e-18)
(0.369789 -0.00382835 4.93925e-19)
(0.414839 -0.0191364 1.30576e-20)
(-0.0126061 0.0190983 -7.94218e-19)
(-0.0303571 0.0501483 -8.52886e-19)
(-0.0397027 0.0750575 9.84049e-20)
(-0.0417677 0.0938329 -8.16192e-19)
(-0.0374148 0.106987 -7.12083e-20)
(-0.0273711 0.115177 -5.99079e-19)
(-0.0122995 0.11906 -1.37199e-19)
(0.00723627 0.119252 -4.0129e-19)
(0.030784 0.11631 5.26837e-21)
(0.057996 0.110714 -1.75469e-19)
(0.0886168 0.102856 1.4929e-20)
(0.122465 0.0930505 -5.13664e-19)
(0.15941 0.0815349 5.74834e-19)
(0.19935 0.0684831 -8.1347e-19)
(0.242178 0.0540217 2.93653e-19)
(0.287747 0.0382556 1.30705e-20)
(0.335799 0.0213079 -4.67933e-19)
(0.385925 0.00350989 1.17567e-18)
(0.437945 -0.0137039 -2.77777e-19)
(0.489242 -0.0271215 -1.75833e-19)
(-0.0126651 0.0173218 8.89245e-19)
(-0.0303252 0.0450669 4.7833e-19)
(-0.039303 0.0669802 4.43137e-19)
(-0.0404786 0.0832306 6.59297e-20)
(-0.0346402 0.094372 5.9668e-19)
(-0.0224978 0.101041 8.58158e-19)
(-0.00470599 0.103846 7.00526e-19)
(0.0181779 0.10335 6.42646e-20)
(0.045707 0.10006 5.15284e-19)
(0.0775354 0.0944083 7.97308e-19)
(0.113399 0.0867558 -2.06451e-19)
(0.153087 0.0773893 3.49173e-19)
(0.196413 0.0665293 2.81794e-19)
(0.243174 0.0543385 2.90042e-19)
(0.293121 0.0409358 1.73564e-18)
(0.345924 0.0264156 -6.52512e-19)
(0.401097 0.0108708 -3.86014e-20)
(0.457942 -0.0054548 7.68443e-19)
(0.51613 -0.0210469 -4.36601e-19)
(0.573628 -0.0314425 2.09572e-19)
(-0.0128466 0.0158644 -7.17018e-19)
(-0.0303022 0.0404875 4.4926e-20)
(-0.0386105 0.0593446 -5.68148e-19)
(-0.0384788 0.0728982 -7.3007e-20)
(-0.0306407 0.0818165 4.13857e-19)
(-0.0157856 0.0867609 -1.23154e-18)
(0.00545251 0.0883247 -1.59671e-21)
(0.032535 0.0870383 5.73034e-19)
(0.0650239 0.0833672 5.3792e-19)
(0.102563 0.0777086 -2.37598e-19)
(0.14485 0.0703916 7.91701e-20)
(0.191591 0.0616804 1.82298e-19)
(0.24247 0.0517804 -8.6593e-20)
(0.297096 0.040847 -9.82944e-19)
(0.354982 0.0289963 2.48167e-19)
(0.415516 0.0163195 6.95615e-19)
(0.477916 0.00288693 -9.95723e-19)
(0.541155 -0.0111713 4.84154e-19)
(0.604662 -0.0244021 1.30705e-19)
(0.667495 -0.0306344 6.44426e-19)
(-0.0131478 0.0147031 -1.04303e-19)
(-0.0302034 0.0364348 -4.9907e-19)
(-0.0373686 0.0522957 2.29142e-19)
(-0.0352822 0.063127 7.9383e-22)
(-0.0246583 0.0697636 -9.9289e-19)
(-0.00617462 0.0729286 1.55361e-19)
(0.0195527 0.0732266 -2.92237e-20)
(0.0519943 0.071172 1.99522e-19)
(0.0906976 0.0672023 -9.14068e-19)
(0.135254 0.0616844 -6.54246e-20)
(0.185254 0.0549193 -2.1739e-19)
(0.240243 0.047149 1.90899e-19)
(0.299675 0.0385642 6.54012e-19)
(0.362875 0.0293133 -1.00791e-19)
(0.429026 0.0195128 4.06875e-20)
(0.497154 0.00925734 2.58972e-19)
(0.56612 -0.0013946 -6.6093e-20)
(0.634556 -0.0124119 5.34376e-19)
(0.701637 -0.0224565 -3.0838e-19)
(0.767479 -0.0235381 -4.74302e-19)
(-0.0135265 0.0137732 9.77567e-20)
(-0.0298723 0.0328427 2.44272e-20)
(-0.0352463 0.0458573 1.99661e-19)
(-0.030342 0.0540698 4.8724e-19)
(-0.0159019 0.0585098 2.72526e-19)
(0.00738289 0.059987 2.80387e-20)
(0.0388879 0.0591354 -3.23813e-19)
(0.0780548 0.0564662 8.30754e-20)
(0.124359 0.0523964 4.36975e-19)
(0.17726 0.0472648 -7.41141e-19)
(0.236149 0.0413427 5.60436e-19)
(0.300302 0.0348444 -4.23587e-19)
(0.368849 0.0279377 3.61146e-19)
(0.440755 0.0207559 -7.81922e-19)
(0.514826 0.0134114 8.6473e-19)
(0.589732 0.00600664 -9.26415e-19)
(0.664008 -0.00138245 -2.42304e-19)
(0.736013 -0.00869225 7.57842e-19)
(0.804656 -0.0145025 -2.5634e-19)
(0.869061 -0.0109576 1.10564e-19)
(-0.0139045 0.0129822 -7.35789e-20)
(-0.0290909 0.0295773 6.93674e-19)
(-0.0318617 0.0399517 -3.57291e-21)
(-0.0230936 0.0457507 -4.29364e-19)
(-0.00361782 0.0482022 -2.87199e-19)
(0.0258166 0.0482138 5.26534e-19)
(0.0645225 0.046458 -2.08359e-19)
(0.11184 0.0434479 -2.6231e-20)
(0.16708 0.0395812 4.33854e-19)
(0.229461 0.0351642 -5.39151e-19)
(0.298059 0.0304284 5.97473e-20)
(0.371773 0.0255442 -7.03979e-19)
(0.449327 0.0206345 3.71861e-19)
(0.529284 0.01579 -1.06496e-18)
(0.6101 0.0110873 1.69815e-18)
(0.690191 0.00660906 -3.13752e-19)
(0.768002 0.00246549 3.20615e-19)
(0.842136 -0.00107062 -8.3081e-19)
(0.911977 -0.00257163 1.21809e-20)
(0.971068 -0.00170266 8.5643e-19)
(-0.0141761 0.0122267 -2.22435e-19)
(-0.0275979 0.026468 1.91614e-19)
(-0.0268107 0.0344331 -7.06134e-19)
(-0.0129964 0.0380962 1.04324e-18)
(0.0128529 0.0388644 -7.52093e-19)
(0.0498628 0.0377414 3.86561e-20)
(0.097199 0.0354366 -8.08881e-19)
(0.153995 0.0324622 5.78058e-19)
(0.219274 0.029189 -8.27649e-20)
(0.291886 0.0258781 -5.1119e-19)
(0.370468 0.0227016 -2.99002e-19)
(0.453452 0.0197603 3.15747e-19)
(0.539102 0.0171002 2.09035e-19)
(0.625579 0.0147296 -9.22489e-19)
(0.711039 0.0126377 3.33546e-19)
(0.793736 0.0108117 -4.89216e-19)
(0.872115 0.00925207 6.16711e-20)
(0.944932 0.00801758 -4.01232e-19)
(1.01162 0.00756057 1.41867e-19)
(1.06919 0.00794718 -5.69775e-19)
(-0.0142194 0.0114096 6.33466e-19)
(-0.0251101 0.0233415 -3.83469e-19)
(-0.019692 0.029131 3.15505e-19)
(0.000438136 0.030983 -3.97502e-19)
(0.0340438 0.0304472 6.65883e-19)
(0.0800344 0.0286083 -1.20518e-20)
(0.137315 0.026201 -8.10972e-20)
(0.204678 0.0237231 -6.03373e-20)
(0.280719 0.0215011 3.69162e-19)
(0.363784 0.0197276 6.28045e-19)
(0.451971 0.0184881 -3.71344e-19)
(0.543187 0.0177828 3.61145e-19)
(0.635239 0.0175503 6.58435e-19)
(0.725954 0.0176897 -4.61214e-19)
(0.813308 0.0180834 -9.26143e-19)
(0.895536 0.018616 1.68535e-18)
(0.971228 0.0191872 -3.00748e-19)
(1.03939 0.0197256 -9.30843e-20)
(1.09958 0.0202914 9.7189e-19)
(1.15092 0.0217866 -2.22191e-19)
(-0.0139084 0.0104537 -1.03049e-18)
(-0.021341 0.0200539 -6.85415e-19)
(-0.0101245 0.0238948 -2.62775e-19)
(0.0176341 0.0242937 5.0673e-19)
(0.060359 0.0228922 -1.14323e-18)
(0.116629 0.0208295 5.9132e-19)
(0.184948 0.0188416 7.48501e-20)
(0.263616 0.0173862 7.51264e-20)
(0.350652 0.0167152 -7.75178e-19)
(0.44378 0.0169191 -2.74044e-19)
(0.540497 0.0179608 -4.82203e-19)
(0.638189 0.019708 4.65004e-19)
(0.734292 0.0219673 1.30189e-19)
(0.826445 0.0245165 2.45852e-20)
(0.912635 0.0271345 5.89846e-19)
(0.991295 0.0296241 -6.02361e-19)
(1.06136 0.031826 -2.31881e-20)
(1.12227 0.0336312 2.17785e-20)
(1.17395 0.0349826 8.68645e-20)
(1.21687 0.0371485 4.14348e-19)
(-0.0131218 0.00931048 3.28093e-19)
(-0.0160144 0.0165146 8.4414e-19)
(0.00224353 0.0186327 6.76957e-19)
(0.0389508 0.0179684 -2.33224e-19)
(0.092084 0.0161937 8.10683e-19)
(0.159754 0.0144635 -6.7893e-20)
(0.239902 0.0134775 -9.63947e-20)
(0.330173 0.0136121 5.68482e-20)
(0.427871 0.0150007 7.83875e-19)
(0.530023 0.0175867 4.60301e-19)
(0.633523 0.0211714 1.34538e-19)
(0.73533 0.0254627 9.09155e-21)
(0.832675 0.0301248 -8.81328e-19)
(0.923235 0.0348227 7.66453e-19)
(1.00525 0.0392582 1.27258e-19)
(1.0776 0.0431947 -2.14437e-19)
(1.13973 0.046468 -8.92383e-19)
(1.19167 0.0489925 -6.762e-20)
(1.23387 0.0507153 3.3789e-19)
(1.26765 0.0529805 -6.33924e-20)
(-0.0117473 0.00796278 -8.31684e-19)
(-0.00887225 0.0126994 3.47798e-19)
(0.0177303 0.013338 -1.69778e-18)
(0.0646846 0.0120416 6.9534e-19)
(0.129395 0.0104421 -5.5466e-19)
(0.209343 0.00965757 4.09524e-19)
(0.301734 0.0102972 -6.35815e-19)
(0.403395 0.0125979 5.81736e-20)
(0.510818 0.0165167 -3.26272e-20)
(0.620316 0.0217999 1.70475e-19)
(0.728273 0.028053 2.44994e-19)
(0.831407 0.0348125 -4.62511e-19)
(0.926995 0.0416121 2.45883e-19)
(1.01303 0.0480371 2.22659e-19)
(1.08825 0.0537602 9.38118e-19)
(1.15217 0.0585596 -4.12723e-19)
(1.20492 0.0623197 -2.5993e-19)
(1.24713 0.0650217 4.3238e-19)
(1.27979 0.0666918 2.13847e-19)
(1.30461 0.0685309 -4.29986e-19)
(-0.00968254 0.00642259 7.28123e-19)
(0.00032217 0.00865393 7.01679e-19)
(0.0366164 0.00810032 2.02457e-19)
(0.095064 0.00665879 8.53384e-19)
(0.172352 0.00584131 4.19933e-19)
(0.265153 0.00666 -7.5642e-19)
(0.369754 0.00956017 1.14675e-18)
(0.482036 0.0145653 -5.64387e-19)
(0.597637 0.0213905 5.6266e-19)
(0.712241 0.0295398 7.25676e-19)
(0.821914 0.0384065 -4.14164e-19)
(0.923409 0.0473698 7.90689e-20)
(1.01435 0.0558736 4.32319e-19)
(1.09332 0.06348 3.00868e-19)
(1.15979 0.0698946 6.79118e-19)
(1.214 0.0749669 -2.78678e-19)
(1.25678 0.0786736 -3.97564e-20)
(1.28936 0.0810898 4.02712e-19)
(1.31314 0.0823404 -8.98538e-20)
(1.33 0.0834179 -1.29292e-21)
(-0.00683405 0.00472659 -3.75819e-19)
(0.0117811 0.00448783 -1.38047e-18)
(0.0591362 0.00310123 3.25284e-19)
(0.130235 0.00207161 -2.47652e-19)
(0.22088 0.0026983 -5.72656e-19)
(0.326739 0.00579947 -4.09243e-19)
(0.443017 0.0115646 -2.52893e-19)
(0.564574 0.0197193 6.13884e-19)
(0.686253 0.0296754 -3.64308e-19)
(0.803301 0.0406688 -3.7307e-19)
(0.911765 0.0518946 -4.67362e-19)
(1.00876 0.0626215 -7.7034e-20)
(1.09257 0.0722704 -5.54496e-20)
(1.16257 0.0804522 -1.0518e-18)
(1.21911 0.0869687 4.97885e-19)
(1.26317 0.091788 -6.56429e-19)
(1.29621 0.0950058 1.94646e-19)
(1.3199 0.096801 -1.49034e-18)
(1.33593 0.097391 4.51505e-19)
(1.34615 0.097557 5.47263e-19)
(-0.00311518 0.00293104 -9.45006e-20)
(0.0256883 0.000365138 6.72674e-19)
(0.0854643 -0.00139972 4.31604e-20)
(0.170236 -0.0013832 1.03993e-19)
(0.274731 0.00139202 -2.1166e-19)
(0.393423 0.0074419 -3.48678e-21)
(0.520313 0.0165946 -5.33476e-21)
(0.649258 0.028195 -1.27317e-19)
(0.774483 0.0413104 4.52598e-19)
(0.891103 0.054917 1.73966e-19)
(0.995507 0.0680623 7.83527e-19)
(1.08551 0.0799819 -2.12717e-19)
(1.16031 0.0901572 1.45989e-19)
(1.22023 0.0983202 -1.65455e-20)
(1.26645 0.104421 3.98352e-19)
(1.30065 0.108573 2.37624e-19)
(1.32476 0.110998 5.57179e-19)
(1.34072 0.11197 -8.91918e-19)
(1.35033 0.111774 1.10331e-18)
(1.35533 0.111023 -3.48749e-19)
(0.00155399 0.0011075 -8.75406e-19)
(0.0421922 -0.00350743 -2.73869e-19)
(0.115697 -0.00508519 2.13579e-19)
(0.21497 -0.00331458 1.34864e-19)
(0.333463 0.00233059 1.38829e-19)
(0.464286 0.0119383 1.40565e-19)
(0.600199 0.024867 -3.52323e-19)
(0.734195 0.0400161 -1.44279e-19)
(0.860182 0.0561036 4.57247e-20)
(0.973535 0.0718968 -4.26559e-19)
(1.07136 0.0863823 -1.90123e-19)
(1.15247 0.0988591 1.14637e-18)
(1.21711 0.108953 -2.96667e-19)
(1.26657 0.116575 -3.98858e-19)
(1.30277 0.121854 -1.8246e-19)
(1.32793 0.125055 1.29879e-19)
(1.34426 0.126513 1.49799e-19)
(1.35381 0.126576 -7.15515e-19)
(1.35835 0.125567 1.01831e-18)
(1.35943 0.123979 -8.80461e-19)
(0.00724486 -0.000659855 -9.83182e-20)
(0.0613961 -0.00689121 2.80264e-20)
(0.149835 -0.00760153 -3.64411e-20)
(0.26418 -0.00331055 5.29893e-19)
(0.396415 0.00590743 2.9616e-20)
(0.53818 0.0195769 1.94772e-19)
(0.681066 0.0364911 -4.05205e-19)
(0.817477 0.0550758 -1.43518e-20)
(0.941412 0.073743 5.58961e-19)
(1.04893 0.0911437 7.64348e-20)
(1.13818 0.106315 -4.80345e-19)
(1.20917 0.118716 -4.20815e-20)
(1.26321 0.128188 -3.83171e-19)
(1.30246 0.134857 3.84781e-19)
(1.32945 0.139034 5.20669e-19)
(1.34671 0.141123 -5.68577e-20)
(1.35656 0.141546 -6.65694e-20)
(1.36101 0.140694 2.02828e-19)
(1.36168 0.138907 -6.37892e-19)
(1.35994 0.136601 5.67821e-19)
(0.0140166 -0.00227597 9.97366e-20)
(0.0833468 -0.00952516 -6.40378e-19)
(0.187763 -0.00857918 1.71114e-19)
(0.317437 -0.000969742 -5.33678e-19)
(0.462723 0.0124631 1.83778e-19)
(0.613778 0.0305483 -6.81781e-19)
(0.76124 0.0514504 2.747e-19)
(0.89732 0.073145 -8.7684e-20)
(1.01657 0.0938307 -3.6777e-21)
(1.11613 0.112167 8.75559e-20)
(1.19545 0.127359 -3.17682e-19)
(1.25576 0.139113 -4.4819e-19)
(1.29938 0.147526 -8.94677e-20)
(1.32917 0.152949 -4.01035e-20)
(1.34804 0.155862 -1.01109e-19)
(1.35865 0.156775 -3.22685e-20)
(1.3633 0.156168 -9.6376e-20)
(1.36382 0.154447 -8.27145e-20)
(1.36166 0.15195 -2.39545e-19)
(1.35794 0.149045 3.76346e-19)
(0.021911 -0.00363612 2.3774e-19)
(0.108023 -0.0111345 -2.64288e-19)
(0.22924 -0.00765145 5.698e-19)
(0.374137 0.00407142 -2.46677e-19)
(0.531344 0.0222564 6.59423e-19)
(0.68965 0.044927 1.02212e-20)
(0.839094 0.0696056 3.30258e-19)
(0.972184 0.0938987 -8.90126e-20)
(1.08449 0.115927 3.65064e-19)
(1.17454 0.1345 2.46746e-20)
(1.2432 0.149093 8.53436e-19)
(1.29287 0.159719 -5.85859e-19)
(1.32672 0.166752 8.02294e-20)
(1.34808 0.17075 1.50161e-19)
(1.36004 0.17233 7.59507e-19)
(1.36526 0.172073 -2.7196e-19)
(1.36585 0.170485 -5.29124e-20)
(1.36344 0.167963 -2.72911e-19)
(1.35924 0.164833 -2.63887e-20)
(1.3542 0.161431 1.35166e-19)
(0.0309474 -0.00462746 -1.13006e-19)
(0.135328 -0.0114395 3.28176e-19)
(0.273897 -0.00447174 -3.38262e-19)
(0.433521 0.0121165 1.32726e-19)
(0.601113 0.0354468 -1.60355e-19)
(0.764352 0.0626688 5.86028e-19)
(0.913157 0.0907128 -8.23189e-20)
(1.04086 0.116953 1.98079e-19)
(1.14445 0.139594 -1.1762e-19)
(1.22403 0.157727 -3.45244e-21)
(1.28187 0.171184 1.30169e-19)
(1.32141 0.180315 -1.00036e-19)
(1.34642 0.185755 2.57959e-19)
(1.36052 0.18824 -1.28834e-19)
(1.3668 0.188484 -5.52582e-19)
(1.36775 0.187105 5.45652e-19)
(1.36527 0.184605 -2.41692e-19)
(1.36072 0.181352 1.92348e-19)
(1.35512 0.17766 3.27516e-19)
(1.3492 0.173838 1.34039e-19)
(0.0411176 -0.0051314 2.81743e-19)
(0.16508 -0.0101653 -5.81104e-19)
(0.321237 0.00127036 1.10878e-19)
(0.4947 0.023392 -8.0953e-20)
(0.670798 0.0520863 -3.27831e-19)
(0.836512 0.0836213 -2.56447e-19)
(0.982194 0.114453 -5.07888e-20)
(1.1025 0.1419 -4.53274e-19)
(1.19614 0.164422 -2.73831e-20)
(1.26485 0.181507 -8.33072e-20)
(1.31219 0.193393 -2.24007e-19)
(1.34242 0.200766 -5.01098e-20)
(1.3597 0.204494 -1.68907e-19)
(1.36773 0.205447 -2.77064e-19)
(1.36944 0.204395 2.80528e-19)
(1.3671 0.201961 3.64203e-20)
(1.36234 0.198617 7.24272e-20)
(1.35629 0.194697 -3.14698e-19)
(1.34973 0.190502 -9.11316e-21)
(1.34327 0.186306 -4.75944e-19)
(0.0523823 -0.00502691 3.06623e-19)
(0.197013 -0.00705211 2.05151e-19)
(0.370649 0.00983414 -3.32691e-19)
(0.556693 0.0380361 5.19168e-19)
(0.739176 0.0721213 -5.65625e-20)
(0.904903 0.107542 1.93527e-19)
(1.04525 0.140459 6.68736e-20)
(1.15661 0.16834 2.34785e-19)
(1.23959 0.190055 -1.83823e-19)
(1.29752 0.205572 6.0403e-20)
(1.33502 0.215557 -5.77556e-20)
(1.35695 0.221005 -2.44669e-20)
(1.36766 0.222974 4.7404e-20)
(1.37071 0.222421 -8.61602e-20)
(1.36885 0.220133 -2.57053e-20)
(1.36403 0.216712 -7.91929e-20)
(1.35762 0.212588 -1.27494e-19)
(1.35052 0.208049 8.27373e-20)
(1.34336 0.203392 -1.10437e-19)
(1.33656 0.198845 4.79654e-19)
(0.0646687 -0.00419462 -1.52257e-19)
(0.230779 -0.00186685 -4.33555e-19)
(0.421429 0.0214147 -5.77468e-20)
(0.618478 0.0560921 -1.63887e-20)
(0.805083 0.0954008 -1.94747e-19)
(0.96849 0.134122 -3.19271e-19)
(1.10165 0.168345 1.03735e-19)
(1.20301 0.195898 -1.42427e-19)
(1.27511 0.216189 -1.58052e-19)
(1.3227 0.229721 8.73773e-20)
(1.35126 0.237572 -6.56475e-20)
(1.36599 0.241006 -1.31233e-19)
(1.37122 0.241219 -3.32319e-21)
(1.37031 0.239212 8.86107e-20)
(1.3657 0.235756 -8.85265e-20)
(1.35906 0.23141 1.22932e-19)
(1.35149 0.226553 3.3562e-20)
(1.3437 0.22143 8.21377e-20)
(1.33615 0.216337 1.56977e-19)
(1.32918 0.211441 -1.34246e-19)
(0.07787 -0.00252154 1.45018e-19)
(0.265955 0.00558595 -1.19142e-20)
(0.472805 0.0361327 6.60136e-20)
(0.67903 0.0775084 -8.88964e-20)
(0.867471 0.12169 7.94463e-21)
(1.02646 0.163005 3.07738e-19)
(1.151 0.197727 -2.01386e-19)
(1.24177 0.224235 8.47817e-20)
(1.30316 0.242578 7.43887e-20)
(1.34113 0.253803 -2.07252e-19)
(1.36177 0.259372 1.93619e-19)
(1.37038 0.260764 1.74385e-21)
(1.37116 0.259258 -1.34146e-19)
(1.36716 0.255859 1.61139e-19)
(1.36049 0.251297 -6.33496e-20)
(1.35253 0.246077 4.81613e-20)
(1.34417 0.240521 -5.40364e-20)
(1.33595 0.234834 -2.19425e-20)
(1.3282 0.229317 -1.83902e-19)
(1.32116 0.22406 5.64991e-20)
(0.0918462 9.40207e-05 -4.82656e-20)
(0.302054 0.0154539 1.30892e-19)
(0.523963 0.0540275 2.06487e-20)
(0.737366 0.102143 8.57929e-20)
(0.925439 0.150687 4.10166e-20)
(1.07823 0.19381 1.92568e-20)
(1.19314 0.228233 1.08033e-19)
(1.27315 0.253052 -1.30502e-20)
(1.32431 0.269017 4.71219e-20)
(1.35356 0.277707 7.52249e-20)
(1.36733 0.280916 3.59691e-20)
(1.37087 0.280278 2.56643e-20)
(1.3681 0.277108 1.0363e-19)
(1.36173 0.272381 -1.00254e-19)
(1.35355 0.266767 2.13574e-20)
(1.34469 0.26071 -1.97927e-20)
(1.33582 0.254475 3.06864e-20)
(1.32735 0.248234 2.55908e-20)
(1.31953 0.242294 5.26851e-20)
(1.31251 0.236654 2.01854e-21)
(0.106427 0.00373766 2.86662e-20)
(0.338541 0.0278286 2.61638e-20)
(0.574085 0.0750545 -3.6339e-20)
(0.792583 0.129772 2.2712e-20)
(0.97825 0.182038 1.27909e-20)
(1.1234 0.226144 -3.98906e-20)
(1.22809 0.259512 1.30532e-20)
(1.29751 0.282085 2.45212e-21)
(1.33916 0.295338 2.23187e-20)
(1.36067 0.301346 -5.97519e-20)
(1.36862 0.302169 -1.30217e-22)
(1.36804 0.299541 1.63419e-20)
(1.3625 0.29477 -1.30347e-20)
(1.35437 0.288773 1.3146e-20)
(1.34513 0.282151 3.39862e-20)
(1.33567 0.275282 -1.92404e-20)
(1.32651 0.268377 5.4273e-21)
(1.31794 0.261583 2.08566e-20)
(1.31014 0.255215 -3.41306e-20)
(1.3032 0.249164 1.64979e-20)
(0.121415 0.00847456 7.88685e-20)
(0.374852 0.0427391 -4.31661e-20)
(0.622368 0.0990863 5.0981e-20)
(0.843878 0.1601 -3.79471e-20)
(1.02534 0.215352 -1.69673e-20)
(1.16179 0.259615 5.21073e-21)
(1.25602 0.291238 -1.65646e-20)
(1.3153 0.311101 5.93632e-20)
(1.3483 0.321397 -4.9294e-20)
(1.36309 0.32464 1.15734e-20)
(1.3662 0.323094 -8.6084e-21)
(1.36234 0.318533 -5.55924e-20)
(1.35471 0.312225 5.37994e-20)
(1.34532 0.305009 2.03678e-20)
(1.33538 0.297411 -2.01907e-20)
(1.32556 0.289744 4.72412e-20)
(1.31628 0.282172 -7.70158e-22)
(1.30773 0.274821 -4.54034e-20)
(1.30001 0.268014 3.34345e-20)
(1.29321 0.261523 1.05071e-20)
(0.136595 0.014346 -2.76861e-20)
(0.410407 0.0601499 7.99565e-20)
(0.66806 0.125918 9.26883e-20)
(0.890573 0.192774 -4.38433e-20)
(1.0663 0.250216 7.60672e-20)
(1.19335 0.293839 1.20153e-19)
(1.27721 0.323107 -6.7222e-21)
(1.32699 0.33989 -2.05561e-20)
(1.35228 0.347063 1.01169e-19)
(1.36137 0.347515 4.92436e-20)
(1.36054 0.343642 -8.85733e-21)
(1.35415 0.337216 7.31241e-20)
(1.34499 0.329431 -7.79876e-20)
(1.33475 0.321038 1.21556e-19)
(1.32438 0.312488 -2.01802e-20)
(1.31441 0.304032 5.77151e-20)
(1.30513 0.29579 1.03159e-20)
(1.29669 0.287876 4.08515e-20)
(1.28913 0.280619 -3.8825e-20)
(1.28252 0.273659 9.56807e-21)
(0.15173 0.021366 -4.30529e-20)
(0.444632 0.0799585 1.00412e-19)
(0.710472 0.155271 7.49052e-20)
(0.932112 0.227394 -1.13899e-20)
(1.10089 0.286204 1.1704e-19)
(1.21814 0.328442 -8.81992e-20)
(1.29198 0.354834 -6.69322e-21)
(1.33306 0.368257 7.70405e-20)
(1.35163 0.372213 2.43574e-20)
(1.35595 0.369888 3.41975e-20)
(1.35201 0.363753 -5.04386e-20)
(1.34373 0.355531 1.31588e-19)
(1.33352 0.346324 2.44505e-20)
(1.32276 0.336792 -1.15997e-19)
(1.31219 0.327307 1.69509e-19)
(1.30222 0.318065 -1.99429e-19)
(1.29307 0.30915 -9.12142e-20)
(1.28482 0.300667 1.54488e-20)
(1.27747 0.292946 8.79779e-20)
(1.2711 0.285493 -1.66836e-19)
(0.166579 0.0295198 -9.51169e-20)
(0.476975 0.101999 -2.25304e-19)
(0.748997 0.186809 -1.95916e-19)
(0.968073 0.263526 -2.6572e-19)
(1.12897 0.322886 -1.51165e-19)
(1.23634 0.363063 -3.12775e-19)
(1.30069 0.386153 3.98076e-20)
(1.33397 0.396019 -1.65919e-19)
(1.34677 0.396722 -1.83099e-20)
(1.34723 0.391669 2.73006e-20)
(1.3409 0.383347 -5.9985e-20)
(1.33129 0.373401 7.53054e-20)
(1.32043 0.362825 1.33795e-19)
(1.30942 0.352184 -1.87809e-19)
(1.29886 0.341778 3.05707e-20)
(1.28902 0.331753 8.7164e-20)
(1.28009 0.322161 1.45654e-19)
(1.2721 0.313104 -1.25624e-19)
(1.26502 0.304909 -5.96013e-21)
(1.25894 0.296944 1.47451e-19)