/*--------------------------------*- C++ -*----------------------------------*\
  =========                 |
  \\      /  F ield         | OpenFOAM: The Open Source CFD Toolbox
   \\    /   O peration     | Website:  https://openfoam.org
    \\  /    A nd           | Version:  6.0
     \\/     M anipulation  |
\*---------------------------------------------------------------------------*/
FoamFile
{
    version     2.0;
    format      ascii;
    class       surfaceScalarField;
    location    "64";
    object      phi;
}
// * * * * * * * * * * * * * * * * * * * * * * * * * * * * * * * * * * * * * //

dimensions      [0 3 -1 0 0 0 0];

internalField   nonuniform List<scalar> 
7840
(
3.67114e-05
-0.000285241
0.000128592
-0.000881107
0.000256289
-0.00146687
0.000399358
-0.00199687
0.000539844
-0.00243778
0.00066523
-0.00277602
0.00076917
-0.0030157
0.000850432
-0.00317196
0.000911102
-0.00326406
0.000954858
-0.00331064
0.000985698
-0.00332716
0.0010072
-0.00332521
0.00102221
-0.00331281
0.00103283
-0.00329516
0.0010405
-0.00327545
0.0010462
-0.00325559
0.00105058
-0.00323671
0.00105407
-0.00321947
0.00105695
-0.00320426
-0.00319146
0.00105935
3.79166e-05
-0.000323157
0.000130097
-0.000973287
0.000254554
-0.00159132
0.000389641
-0.00213196
0.000517837
-0.00256598
0.000628144
-0.00288633
0.000716019
-0.00310358
0.000781735
-0.00323767
0.000828326
-0.00331065
0.00085987
-0.00334218
0.000880357
-0.00334765
0.000893116
-0.00333797
0.000900656
-0.00332035
0.000904734
-0.00329923
0.000906521
-0.00327723
0.00090678
-0.00325585
0.000906011
-0.00323594
0.000904541
-0.003218
0.000902576
-0.0032023
-0.0031891
0.000900219
3.86957e-05
-0.000361853
0.000130003
-0.00106459
0.000249626
-0.00171095
0.000375236
-0.00225757
0.000490201
-0.00268095
0.000585232
-0.00298136
0.000657528
-0.00317587
0.000708643
-0.00328879
0.00074231
-0.00334432
0.000762793
-0.00336267
0.000773935
-0.00335879
0.000778756
-0.0033428
0.000779418
-0.00332102
0.000777369
-0.00329718
0.000773536
-0.0032734
0.000768511
-0.00325082
0.000762676
-0.00323011
0.000756285
-0.00321161
0.000749495
-0.00319551
-0.00318199
0.00074238
3.9019e-05
-0.000400872
0.000128294
-0.00115387
0.000241636
-0.00182429
0.000356561
-0.00237249
0.000457688
-0.00278207
0.000537534
-0.0030612
0.000594899
-0.00323324
0.000632391
-0.00332628
0.000654204
-0.00336613
0.000664621
-0.00337308
0.000667244
-0.00336141
0.000664752
-0.0033403
0.000658976
-0.00331524
0.000651088
-0.0032893
0.000641813
-0.00326412
0.000631602
-0.00324061
0.000620751
-0.00321925
0.000609456
-0.00320031
0.00059784
-0.00318389
-0.00317011
0.000585961
3.88687e-05
-0.000439741
0.000124997
-0.00124
0.000230786
-0.00193008
0.000334089
-0.00247579
0.000421062
-0.00286905
0.000486023
-0.00312616
0.000529201
-0.00327642
0.000554022
-0.0033511
0.000564942
-0.00337705
0.000566131
-0.00337427
0.000560891
-0.00335617
0.000551561
-0.00333097
0.000539663
-0.00330334
0.000526134
-0.00327577
0.00051153
-0.00324952
0.000496194
-0.00322528
0.00048035
-0.00320341
0.000464156
-0.00318412
0.00044771
-0.00316745
-0.00315346
0.00043106
3.82385e-05
-0.000477979
0.000120177
-0.00132194
0.000217325
-0.00202723
0.000308331
-0.0025668
0.000381069
-0.00294178
0.000431595
-0.00317669
0.000461366
-0.00330619
0.000474409
-0.00336414
0.000475274
-0.00337792
0.000467927
-0.00336693
0.000455341
-0.00334359
0.000439526
-0.00331516
0.000421733
-0.00328555
0.000402697
-0.00325673
0.000382838
-0.00322966
0.000362411
-0.00320485
0.000341586
-0.00318259
0.000320491
-0.00316302
0.000299211
-0.00314617
-0.00313203
0.000277787
3.71332e-05
-0.000515113
0.000113927
-0.00139873
0.00020154
-0.00211484
0.000279802
-0.00264506
0.000338412
-0.00300039
0.000375048
-0.00321333
0.000392189
-0.00332333
0.000394266
-0.00336622
0.000385795
-0.00336945
0.000370472
-0.0033516
0.000350938
-0.00332405
0.000328898
-0.00329312
0.000305366
-0.00326202
0.000280912
-0.00323228
0.000255844
-0.00320459
0.000230346
-0.00317935
0.000204547
-0.00315679
0.000178548
-0.00313703
0.00015243
-0.00312005
-0.00310584
0.000126234
3.55674e-05
-0.00055068
0.000106365
-0.00146953
0.000183736
-0.00219221
0.000249006
-0.00271033
0.000293738
-0.00304512
0.000317082
-0.00323667
0.000322338
-0.00332859
0.000314176
-0.00335806
0.000296974
-0.00335225
0.000274125
-0.00332875
0.000247945
-0.00329787
0.000219865
-0.00326504
0.000190701
-0.00323286
0.000160885
-0.00320246
0.000130637
-0.00317435
0.00010008
-0.00314879
6.9308e-05
-0.00312601
3.84051e-05
-0.00310612
7.44831e-06
-0.00308909
-0.00307487
-2.35144e-05
3.35643e-05
-0.000584244
9.7628e-05
-0.00153359
0.000164223
-0.0022588
0.000216424
-0.00276253
0.00024763
-0.00307633
0.000258303
-0.00324734
0.000252374
-0.00332266
0.00023461
-0.00334029
0.000209182
-0.00332682
0.000179161
-0.00329873
0.000146558
-0.00326527
0.000112567
-0.00323105
7.78389e-05
-0.00319813
4.26951e-05
-0.00316732
7.28267e-06
-0.00313893
-2.83251e-05
-0.00311319
-6.40683e-05
-0.00309027
-9.98761e-05
-0.00307032
-0.000135669
-0.0030533
-0.00303916
-0.000171387
3.11544e-05
-0.000615399
8.78611e-05
-0.0015903
0.000143309
-0.00231425
0.000182501
-0.00280173
0.00020061
-0.00309444
0.000199233
-0.00324597
0.000182763
-0.00330619
0.000155953
-0.00331348
0.000122713
-0.00329358
8.57973e-05
-0.00326182
4.69348e-05
-0.00322641
7.11685e-06
-0.00319123
-3.31395e-05
-0.00315787
-7.35975e-05
-0.00312686
-0.000114169
-0.00309836
-0.000154826
-0.00307253
-0.000195539
-0.00304956
-0.000236252
-0.0030296
-0.000276875
-0.00301267
-0.0029987
-0.000317334
2.83744e-05
-0.000643773
7.72168e-05
-0.00163914
0.000121293
-0.00235833
0.000147649
-0.00282808
0.000153137
-0.00309993
0.000140315
-0.00323315
0.000113893
-0.00327977
7.85169e-05
-0.00327811
3.78093e-05
-0.00325287
-5.78826e-06
-0.00321822
-5.07964e-05
-0.0031814
-9.63945e-05
-0.00314563
-0.000142169
-0.0031121
-0.000187947
-0.00308108
-0.000233687
-0.00305262
-0.000279398
-0.00302682
-0.000325088
-0.00300387
-0.000370712
-0.00298398
-0.000416169
-0.00296722
-0.00295351
-0.00046136
2.5265e-05
-0.000669038
6.58492e-05
-0.00167972
9.84564e-05
-0.00239094
0.000112241
-0.00284187
0.000105613
-0.0030933
8.19315e-05
-0.00320946
4.60914e-05
-0.00324393
2.56658e-06
-0.00323458
-4.5326e-05
-0.00320498
-9.54399e-05
-0.00316811
-0.000146518
-0.00313032
-0.00019788
-0.00309427
-0.00024919
-0.00306079
-0.000300317
-0.00302995
-0.000351252
-0.00300169
-0.000402042
-0.00297603
-0.00045273
-0.00295318
-0.000503293
-0.00293342
-0.000553615
-0.00291689
-0.00290356
-0.000603557
2.18708e-05
-0.000690909
5.39112e-05
-0.00171176
7.50658e-05
-0.00241209
7.66145e-05
-0.00284342
5.83935e-05
-0.00307508
2.44114e-05
-0.00317548
-2.03599e-05
-0.00319915
-7.16684e-05
-0.00318328
-0.000126508
-0.00315014
-0.000183009
-0.00311161
-0.000240109
-0.00307322
-0.000297244
-0.00303713
-0.000354133
-0.0030039
-0.000410666
-0.00297342
-0.000466851
-0.0029455
-0.000522767
-0.00292011
-0.0005785
-0.00289745
-0.000634061
-0.00287785
-0.000689322
-0.00286163
-0.0028488
-0.000744085
1.82385e-05
-0.000709147
4.15516e-05
-0.00173508
5.13683e-05
-0.00242191
4.10727e-05
-0.00283312
1.17911e-05
-0.0030458
-3.19577e-05
-0.00313173
-8.52123e-05
-0.0031459
-0.000143978
-0.00312451
-0.000205558
-0.00308856
-0.000268338
-0.00304883
-0.000331432
-0.00301012
-0.00039437
-0.0029742
-0.000456907
-0.00294136
-0.000518936
-0.00291139
-0.000580463
-0.00288398
-0.000641585
-0.00285899
-0.000702436
-0.00283659
-0.00076308
-0.00281721
-0.000823386
-0.00280133
-0.00278913
-0.000883059
1.44161e-05
-0.000723563
2.8914e-05
-0.00174958
2.75922e-05
-0.00242059
5.88882e-06
-0.00281142
-3.39175e-05
-0.00300599
-8.69202e-05
-0.00307873
-0.00014824
-0.00308458
-0.000214162
-0.00305859
-0.000282288
-0.00302043
-0.000351248
-0.00297987
-0.000420311
-0.00294106
-0.000489092
-0.00290541
-0.000557373
-0.00287308
-0.000625033
-0.00284373
-0.000692046
-0.00281696
-0.000758504
-0.00279253
-0.000824582
-0.00277052
-0.000890408
-0.00275139
-0.000955867
-0.00273587
-0.00272448
-0.00102052
1.04519e-05
-0.000734015
1.61347e-05
-0.00175526
3.94718e-06
-0.0024084
-2.86926e-05
-0.00277878
-7.84862e-05
-0.0029562
-0.000140246
-0.00301697
-0.000209231
-0.0030156
-0.000282017
-0.0029858
-0.000356497
-0.00294595
-0.000431525
-0.00290484
-0.000506519
-0.00286607
-0.000581178
-0.00283076
-0.000655312
-0.00279894
-0.00072878
-0.00277026
-0.000801505
-0.00274424
-0.000873528
-0.00272051
-0.000945032
-0.00269901
-0.00101622
-0.0026802
-0.00108702
-0.00266507
-0.00265463
-0.00115687
6.39383e-06
-0.000740409
3.34177e-06
-0.00175221
-1.93768e-05
-0.00238568
-6.24535e-05
-0.0027357
-0.000121696
-0.00289695
-0.000191727
-0.00294694
-0.000267984
-0.00293934
-0.000347338
-0.00290645
-0.000427961
-0.00286533
-0.000508915
-0.00282389
-0.000589764
-0.00278522
-0.000670301
-0.00275022
-0.000750382
-0.00271886
-0.000829864
-0.00269078
-0.000908612
-0.00266549
-0.000986584
-0.00264254
-0.00106393
-0.00262166
-0.00114096
-0.00260317
-0.00121764
-0.00258839
-0.0025786
-0.00129366
2.28844e-06
-0.000742698
-9.34669e-06
-0.00174057
-4.22093e-05
-0.00235282
-9.52019e-05
-0.00268271
-0.000163354
-0.0028288
-0.000241175
-0.00286912
-0.000324308
-0.00285621
-0.000409918
-0.00282084
-0.000496436
-0.00277881
-0.000583124
-0.0027372
-0.000669691
-0.00269865
-0.000756041
-0.00266387
-0.000842114
-0.00263279
-0.000927808
-0.00260509
-0.00101297
-0.00258033
-0.00109747
-0.00255803
-0.00118142
-0.00253772
-0.00126521
-0.00251938
-0.00134907
-0.00250453
-0.00249401
-0.00143366
-1.82045e-06
-0.000740877
-2.18239e-05
-0.00172057
-6.44013e-05
-0.00231024
-0.000126773
-0.00262034
-0.000203296
-0.00275228
-0.000288424
-0.00278399
-0.000378024
-0.00276661
-0.000469543
-0.00272932
-0.000561654
-0.0026867
-0.000653801
-0.00264505
-0.000745843
-0.00260661
-0.000837817
-0.0025719
-0.000929806
-0.0025408
-0.00102185
-0.00251304
-0.00111389
-0.00248829
-0.0012058
-0.00246612
-0.00129758
-0.00244594
-0.00138959
-0.00242737
-0.00148241
-0.00241171
-0.00239758
-0.00157884
-5.89254e-06
-0.000734985
-3.39964e-05
-0.00169246
-8.5827e-05
-0.00225841
-0.000157033
-0.00254913
-0.000241388
-0.00266792
-0.000333341
-0.00269204
-0.000428983
-0.00267096
-0.000526023
-0.00263228
-0.000623347
-0.00258938
-0.000720554
-0.00254784
-0.00081763
-0.00250953
-0.000914748
-0.00247478
-0.00101218
-0.00244337
-0.00111023
-0.00241499
-0.0012092
-0.00238933
-0.00130927
-0.00236605
-0.00141057
-0.00234463
-0.00151368
-0.00232427
-0.00162092
-0.00230447
-0.0022973
-0.0017212
-9.87956e-06
-0.000725105
-4.57649e-05
-0.00165658
-0.000106362
-0.00219781
-0.000185853
-0.00246964
-0.000277514
-0.00257626
-0.000375816
-0.00259374
-0.000477072
-0.00256971
-0.000579224
-0.00253013
-0.000681329
-0.00248727
-0.000783093
-0.00244608
-0.000884561
-0.00240807
-0.000985954
-0.00237338
-0.00108761
-0.00234171
-0.00119002
-0.00231259
-0.00129382
-0.00228553
-0.00139986
-0.00226
-0.00150905
-0.00223545
-0.00162174
-0.00221158
-0.00173888
-0.00218733
-0.00215537
-0.00188081
-1.37729e-05
-0.000711332
-5.71029e-05
-0.00161325
-0.000125973
-0.00212894
-0.000213212
-0.0023824
-0.000311665
-0.00247781
-0.000415854
-0.00248955
-0.000522307
-0.00246326
-0.00062917
-0.00242326
-0.000735642
-0.0023808
-0.000841495
-0.00234022
-0.000946773
-0.00230279
-0.00105163
-0.00226853
-0.00115626
-0.00223707
-0.0012609
-0.00220795
-0.00136578
-0.00218065
-0.00147112
-0.00215466
-0.00157697
-0.0021296
-0.00168358
-0.00210497
-0.00179167
-0.00207924
-0.00204877
-0.00189827
-1.75349e-05
-0.000693797
-6.7941e-05
-0.00156284
-0.000144585
-0.0020523
-0.000239043
-0.00228794
-0.000343795
-0.00237306
-0.000453434
-0.00237991
-0.000564689
-0.002352
-0.000675896
-0.00231206
-0.000786372
-0.00227032
-0.00089595
-0.00223065
-0.00100469
-0.00219405
-0.00111273
-0.00216049
-0.00122023
-0.00212958
-0.00132732
-0.00210086
-0.00143408
-0.00207388
-0.00154055
-0.0020482
-0.00164669
-0.00202346
-0.00175245
-0.00199921
-0.0018571
-0.00197458
-0.00194872
-0.00195715
-2.11453e-05
-0.000672652
-7.82422e-05
-0.00150574
-0.000162161
-0.00196838
-0.000263327
-0.00218677
-0.000373911
-0.00226247
-0.000488588
-0.00226523
-0.000604281
-0.00223631
-0.000719489
-0.00219685
-0.000833631
-0.00215618
-0.00094658
-0.0021177
-0.00105839
-0.00208224
-0.00116918
-0.0020497
-0.00127904
-0.00201972
-0.00138804
-0.00199186
-0.00149619
-0.00196573
-0.00160341
-0.00194098
-0.00170954
-0.00191732
-0.00181433
-0.00189443
-0.00191707
-0.00187184
-0.00184911
-0.00201668
-2.45879e-05
-0.000648064
-8.79803e-05
-0.00144235
-0.000178682
-0.00187768
-0.000286066
-0.00207939
-0.00040204
-0.0021465
-0.000521373
-0.0021459
-0.000641172
-0.00211651
-0.000760086
-0.00207793
-0.000877626
-0.00203864
-0.000993704
-0.00200162
-0.00110838
-0.00196756
-0.00122175
-0.00193633
-0.0013339
-0.00190757
-0.00144484
-0.00188091
-0.00155457
-0.001856
-0.00166301
-0.00183254
-0.00177002
-0.00181031
-0.00187534
-0.00178911
-0.00197857
-0.00176861
-0.00174859
-0.00207909
-2.78499e-05
-0.000620214
-9.71378e-05
-0.00137306
-0.000194141
-0.00178068
-0.000307272
-0.00196626
-0.00042822
-0.00202555
-0.000551854
-0.00202226
-0.000675454
-0.00199291
-0.000797807
-0.00195558
-0.000918507
-0.00191794
-0.0010375
-0.00188262
-0.00115487
-0.00185019
-0.0012707
-0.0018205
-0.00138507
-0.00179321
-0.00149801
-0.00176798
-0.0016095
-0.00174451
-0.00171948
-0.00172256
-0.00182785
-0.00170194
-0.00193447
-0.00168249
-0.00203911
-0.00166397
-0.00164619
-0.00214151
-3.0922e-05
-0.000589292
-0.000105704
-0.00129828
-0.000208538
-0.00167784
-0.000326967
-0.00184783
-0.000452495
-0.00190002
-0.000580098
-0.00189466
-0.000707217
-0.00186579
-0.000832769
-0.00183003
-0.000956422
-0.00179429
-0.00107816
-0.00176088
-0.00119809
-0.00173027
-0.0013163
-0.00170229
-0.00143287
-0.00167663
-0.00154785
-0.001653
-0.00166125
-0.00163111
-0.00177305
-0.00161076
-0.00188319
-0.00159179
-0.00199162
-0.00157407
-0.00209824
-0.00155735
-0.00154154
-0.00220289
-3.37968e-05
-0.000555495
-0.000113671
-0.00121841
-0.000221879
-0.00156963
-0.000345174
-0.00172453
-0.000474909
-0.00177029
-0.000606167
-0.0017634
-0.000736543
-0.00173541
-0.000865069
-0.0017015
-0.000991486
-0.00166787
-0.00111582
-0.00163655
-0.00123818
-0.0016079
-0.00135869
-0.00158178
-0.00147744
-0.00155788
-0.0015945
-0.00153594
-0.0017099
-0.0015157
-0.00182367
-0.00149699
-0.0019358
-0.00147967
-0.00204629
-0.00146358
-0.00215511
-0.00144853
-0.00143445
-0.00226219
-3.64686e-05
-0.000519027
-0.000121037
-0.00113384
-0.000234171
-0.0014565
-0.000361916
-0.00159679
-0.000495501
-0.0016367
-0.000630116
-0.00162879
-0.000763496
-0.00160203
-0.000894784
-0.00157022
-0.00102378
-0.00153887
-0.00115055
-0.00150978
-0.00127523
-0.00148323
-0.00139796
-0.00145905
-0.00151884
-0.001437
-0.00163797
-0.00141681
-0.00175541
-0.00139826
-0.00187122
-0.00138119
-0.00198542
-0.00136546
-0.00209806
-0.00135094
-0.00220916
-0.00133743
-0.00132492
-0.00231869
-3.89329e-05
-0.000480094
-0.000127798
-0.00104498
-0.000245422
-0.00133888
-0.000377214
-0.001465
-0.000514305
-0.00149961
-0.000651987
-0.0014911
-0.000788128
-0.00146589
-0.000921967
-0.00143638
-0.00105337
-0.00140748
-0.00118242
-0.00138072
-0.00130929
-0.00135636
-0.00143413
-0.00133422
-0.00155707
-0.00131406
-0.00167822
-0.00129565
-0.00179768
-0.0012788
-0.00191551
-0.00126336
-0.00203179
-0.00124919
-0.00214657
-0.00123616
-0.00225991
-0.00122409
-0.001213
-0.00237183
-4.11858e-05
-0.000438908
-0.000133953
-0.000952208
-0.000255638
-0.00121719
-0.000391086
-0.00132955
-0.000531348
-0.00135935
-0.000671815
-0.00135064
-0.000810475
-0.00132723
-0.000946655
-0.0013002
-0.00108027
-0.00127386
-0.00121145
-0.00124954
-0.00134036
-0.00122744
-0.00146719
-0.00120738
-0.00159209
-0.00118916
-0.00171518
-0.00117256
-0.00183657
-0.00115741
-0.00195637
-0.00114356
-0.00207464
-0.00113091
-0.00219149
-0.00111931
-0.00230698
-0.0011086
-0.00109884
-0.00242114
-4.32237e-05
-0.000395684
-0.0001395
-0.000855931
-0.000264825
-0.00109187
-0.000403546
-0.00119083
-0.000546651
-0.00121624
-0.000689625
-0.00120766
-0.000830563
-0.00118629
-0.000968869
-0.00116189
-0.00110451
-0.00113822
-0.00123763
-0.00111642
-0.00136844
-0.00109663
-0.00149712
-0.0010787
-0.00162384
-0.00106244
-0.00174875
-0.00104766
-0.00187197
-0.00103419
-0.0019936
-0.00102192
-0.00211377
-0.00101074
-0.00223256
-0.00100052
-0.00235005
-0.000991117
-0.00098259
-0.0024663
-4.50436e-05
-0.000350641
-0.000144437
-0.000756537
-0.000272986
-0.000963318
-0.000414604
-0.00104921
-0.000560229
-0.00107062
-0.000705432
-0.00106246
-0.000848405
-0.00104332
-0.00098862
-0.00102168
-0.00112608
-0.00100076
-0.00126097
-0.000981533
-0.0013935
-0.000964101
-0.00152387
-0.000948332
-0.00165226
-0.000934048
-0.00177884
-0.000921084
-0.00190373
-0.0009093
-0.00202707
-0.000898584
-0.00214897
-0.000888841
-0.00226954
-0.000879957
-0.00238885
-0.0008718
-0.000864445
-0.002507
-4.66422e-05
-0.000303999
-0.000148762
-0.000654418
-0.000280122
-0.000831957
-0.000424265
-0.000905068
-0.000572092
-0.000922792
-0.000719247
-0.000915306
-0.000864008
-0.000898561
-0.00100591
-0.000879776
-0.00114498
-0.000861685
-0.00128144
-0.000845078
-0.0014155
-0.00083004
-0.00154738
-0.000816451
-0.00167727
-0.000804155
-0.00180535
-0.00079301
-0.00193175
-0.000782896
-0.00205662
-0.000773715
-0.00218008
-0.000765383
-0.00230224
-0.000757798
-0.00242319
-0.000750848
-0.000744611
-0.00254302
-4.80169e-05
-0.000255982
-0.000152471
-0.000549963
-0.000286235
-0.000698194
-0.000432535
-0.000758768
-0.000582244
-0.000773084
-0.000731073
-0.000766476
-0.000877374
-0.00075226
-0.00102073
-0.000736422
-0.0011612
-0.00072121
-0.00129902
-0.000707263
-0.00143441
-0.000694645
-0.00156761
-0.000683251
-0.00169882
-0.000672951
-0.0018282
-0.000663624
-0.00195593
-0.000655171
-0.00208214
-0.000647507
-0.00220696
-0.000640562
-0.00233051
-0.000634249
-0.00245288
-0.000628473
-0.000623309
-0.00257418
-4.9165e-05
-0.000206817
-0.000155563
-0.000443566
-0.000291323
-0.000562434
-0.000439414
-0.000610677
-0.000590688
-0.00062181
-0.000740913
-0.000616251
-0.000888501
-0.000604673
-0.00103307
-0.00059185
-0.00117472
-0.000579559
-0.00131368
-0.000568303
-0.0014502
-0.000558124
-0.00158452
-0.000548938
-0.00171683
-0.000540637
-0.00184733
-0.000533127
-0.00197617
-0.000526325
-0.00210351
-0.000520165
-0.00222949
-0.000514588
-0.00235421
-0.000509524
-0.00247779
-0.000504895
-0.000500771
-0.00260033
-5.00841e-05
-0.000156733
-0.000158033
-0.000335617
-0.000295384
-0.000425082
-0.000444903
-0.000461158
-0.000597425
-0.000469289
-0.000748765
-0.00046491
-0.000897383
-0.000456056
-0.00104293
-0.000446299
-0.00118553
-0.000436965
-0.00132541
-0.000428421
-0.00146284
-0.000420696
-0.00159805
-0.000413725
-0.00173126
-0.000407428
-0.00186266
-0.000401731
-0.00199241
-0.000396575
-0.00212067
-0.000391906
-0.00224757
-0.000387682
-0.00237325
-0.000383848
-0.0024978
-0.000380347
-0.000377233
-0.00262134
-5.07724e-05
-0.00010596
-0.00015988
-0.000226509
-0.000298418
-0.000286544
-0.000449001
-0.000310575
-0.000602454
-0.000315836
-0.000754628
-0.000312736
-0.000904016
-0.000306667
-0.0010503
-0.000300016
-0.0011936
-0.000293661
-0.00133418
-0.000287844
-0.00147229
-0.000282583
-0.00160818
-0.000277834
-0.00174207
-0.000273541
-0.00187414
-0.000269657
-0.00200458
-0.000266139
-0.00213353
-0.000262954
-0.00226114
-0.000260072
-0.00238754
-0.000257454
-0.00251282
-0.000255065
-0.000252941
-0.00263711
-5.12281e-05
-5.47321e-05
-0.000161101
-0.000116636
-0.000300422
-0.000147223
-0.000451707
-0.000159291
-0.000605773
-0.00016177
-0.000758497
-0.000160012
-0.000908395
-0.000156769
-0.00105516
-0.000153247
-0.00119894
-0.000149887
-0.00133998
-0.000146808
-0.00147854
-0.000144017
-0.00161488
-0.000141492
-0.00174922
-0.000139205
-0.00188175
-0.00013713
-0.00201264
-0.000135248
-0.00214205
-0.00013354
-0.00227013
-0.000131991
-0.00239701
-0.000130581
-0.00252278
-0.000129292
-0.000128142
-0.00264758
-5.14502e-05
-3.28187e-06
-0.000161695
-6.3916e-06
-0.000301395
-7.52254e-06
-0.000453019
-7.66701e-06
-0.000607382
-7.40648e-06
-0.000760372
-7.02231e-06
-0.000910517
-6.62379e-06
-0.00105752
-6.24269e-06
-0.00120152
-5.88407e-06
-0.00134278
-5.54671e-06
-0.00148157
-5.22893e-06
-0.00161813
-4.92948e-06
-0.00175269
-4.64741e-06
-0.00188544
-4.38184e-06
-0.00201656
-4.13202e-06
-0.0021462
-3.89728e-06
-0.00227451
-3.67699e-06
-0.00240162
-3.47007e-06
-0.00252764
-3.2747e-06
-3.09149e-06
-0.00265269
-5.14385e-05
4.81566e-05
-0.000161661
0.000103831
-0.000301337
0.000132154
-0.000452938
0.000143933
-0.00060728
0.000146936
-0.000760251
0.000145949
-0.000910379
0.000143504
-0.00105737
0.000140746
-0.00120136
0.000138104
-0.0013426
0.0001357
-0.00148138
0.000133546
-0.00161793
0.000131621
-0.00175247
0.000129899
-0.00188521
0.000128357
-0.00201632
0.000126974
-0.00214595
0.000125737
-0.00227426
0.000124629
-0.00240136
0.000123634
-0.00252737
0.000122736
0.000121954
-0.00265242
-5.11928e-05
9.93494e-05
-0.000161
0.000213638
-0.000300248
0.000271402
-0.000451463
0.000295149
-0.000605467
0.00030094
-0.000758135
0.000298616
-0.000907982
0.000293351
-0.0010547
0.000287467
-0.00119843
0.000281834
-0.00133943
0.000276696
-0.00147796
0.000272074
-0.00161426
0.000267927
-0.00174857
0.000264202
-0.00188106
0.000260852
-0.00201192
0.000257838
-0.00214131
0.000255125
-0.00226937
0.000252686
-0.00239622
0.000250486
-0.00252198
0.00024849
0.000246736
-0.00264676
-5.07135e-05
0.000150063
-0.000159711
0.000322636
-0.000298128
0.000409818
-0.000448595
0.000445616
-0.000601943
0.000454288
-0.000754022
0.000450696
-0.000903325
0.000442654
-0.00104953
0.000433671
-0.00119276
0.000425064
-0.00133327
0.000417203
-0.00147131
0.000410122
-0.00160714
0.000403758
-0.00174098
0.000398033
-0.001873
0.000392875
-0.00200339
0.000388225
-0.00213229
0.000384034
-0.00225987
0.000380258
-0.00238622
0.000376844
-0.00251148
0.000373741
0.000371001
-0.00263574
-5.00018e-05
0.000200065
-0.000157796
0.00043043
-0.000294977
0.000546999
-0.000444333
0.000594972
-0.000596707
0.000606662
-0.000747916
0.000601904
-0.000896412
0.00059115
-0.00104185
0.00057911
-0.00118434
0.000567554
-0.00132413
0.000556988
-0.00146147
0.00054746
-0.00159659
0.000538886
-0.00172972
0.000531164
-0.00186105
0.000524199
-0.00199073
0.00051791
-0.00211893
0.000512232
-0.00224578
0.000507109
-0.00237141
0.00050247
-0.00249591
0.000498245
0.0004945
-0.00261941
-4.90591e-05
0.000249124
-0.000155258
0.000536629
-0.000290797
0.000682538
-0.000438679
0.000742853
-0.000589762
0.000757746
-0.000739817
0.000751959
-0.000887248
0.000738581
-0.00103168
0.000723538
-0.00117319
0.00070907
-0.00131203
0.000695823
-0.00144843
0.000683863
-0.00158263
0.00067309
-0.00171485
0.000663376
-0.00184525
0.000654602
-0.00197401
0.000646669
-0.00210127
0.000639495
-0.00222717
0.000633011
-0.00235183
0.000627131
-0.00247535
0.000621765
0.000616989
-0.00259784
-4.78876e-05
0.000297011
-0.000152098
0.00064084
-0.000285591
0.00081603
-0.000431632
0.000888895
-0.000581107
0.00090722
-0.000729726
0.000900578
-0.000875835
0.00088469
-0.00101901
0.000866714
-0.00115932
0.00084938
-0.00129698
0.000833483
-0.00143223
0.000819114
-0.0015653
0.000806156
-0.00169638
0.000794455
-0.00182565
0.000783873
-0.00195327
0.000774288
-0.00207938
0.000765606
-0.00220411
0.000757743
-0.00232758
0.000750601
-0.00244989
0.00074407
0.000738229
-0.00257113
-4.64895e-05
0.000343501
-0.00014832
0.00074267
-0.000279358
0.000947068
-0.000423193
0.00103273
-0.000570741
0.00105477
-0.000717645
0.00104748
-0.000862178
0.00102922
-0.00100387
0.0010084
-0.00114275
0.00098826
-0.00127902
0.000969754
-0.00141291
0.000953003
-0.00154463
0.000937877
-0.00167437
0.0009242
-0.00180231
0.000911808
-0.00192858
0.000900565
-0.00205334
0.000890359
-0.00217669
0.000881096
-0.00229875
0.000872665
-0.00241962
0.000864938
0.00085799
-0.00253938
-4.48675e-05
0.000388368
-0.000143926
0.000841729
-0.0002721
0.00107524
-0.00041336
0.00117399
-0.000558661
0.00120007
-0.000703572
0.00119239
-0.000846279
0.00117193
-0.000986249
0.00114837
-0.00112348
0.00112549
-0.00125815
0.00110443
-0.00139048
0.00108533
-0.00152067
0.00106806
-0.00164888
0.00105242
-0.0017753
0.00103822
-0.00190004
0.00102531
-0.00202325
0.00101356
-0.00214503
0.00100287
-0.00226548
0.000993121
-0.0023847
0.000984157
0.00097605
-0.00250276
-4.30246e-05
0.000431393
-0.00013892
0.000937625
-0.000263817
0.00120014
-0.000402128
0.0013123
-0.000544862
0.0013428
-0.000687502
0.00133503
-0.000828135
0.00131256
-0.000966161
0.0012864
-0.00110154
0.00126087
-0.00123442
0.00123731
-0.00136499
0.00121591
-0.00149346
0.00119653
-0.00161998
0.00117894
-0.0017447
0.00116294
-0.00186775
0.00114836
-0.00198923
0.00113505
-0.00210926
0.0011229
-0.00222792
0.00111178
-0.00234529
0.00110153
0.0010922
-0.00246144
-4.09639e-05
0.000472357
-0.000133304
0.00102996
-0.000254506
0.00132134
-0.000389491
0.00144729
-0.000529334
0.00148265
-0.000669424
0.00147512
-0.00080774
0.00145088
-0.000943602
0.00142226
-0.00107692
0.00139419
-0.00120782
0.0013682
-0.00133648
0.00134457
-0.00146306
0.00132311
-0.00158773
0.00130361
-0.00171061
0.00128582
-0.00183181
0.00126956
-0.00195142
0.00125466
-0.00206954
0.00124102
-0.00218625
0.00122849
-0.0023016
0.00121689
0.00120625
-0.00241566
-3.86887e-05
0.000511046
-0.00012708
0.00111836
-0.000244166
0.00143843
-0.00037544
0.00157856
-0.000512062
0.00161927
-0.000649322
0.00161238
-0.000785079
0.00158664
-0.000918563
0.00155574
-0.00104963
0.00152525
-0.00117837
0.00149695
-0.00130495
0.00147114
-0.00142952
0.00144768
-0.0015522
0.00142629
-0.00167311
0.00140674
-0.00179235
0.00138879
-0.00190998
0.00137229
-0.00202607
0.00135711
-0.00214069
0.00134311
-0.00225389
0.00133008
0.00131804
-0.00236568
-3.62027e-05
0.000547248
-0.00012025
0.0012024
-0.00023279
0.00155097
-0.00035996
0.00170573
-0.000493025
0.00175233
-0.000627171
0.00174653
-0.000760126
0.00171959
-0.00089102
0.00168664
-0.00101965
0.00165388
-0.00114608
0.00162337
-0.00127043
0.0015955
-0.00139285
0.0015701
-0.00151344
0.00154689
-0.0016323
0.0015256
-0.0017495
0.00150599
-0.00186508
0.00148787
-0.00197907
0.00147111
-0.00209153
0.00145556
-0.00220246
0.00144102
0.00142744
-0.00231186
-3.351e-05
0.000580758
-0.000112817
0.00128171
-0.000220372
0.00165852
-0.000343035
0.00182839
-0.000472196
0.00188149
-0.000602939
0.00187727
-0.000732846
0.0018495
-0.000860939
0.00181473
-0.00098695
0.00177989
-0.0011109
0.00174732
-0.0012329
0.0017175
-0.00135307
0.00169026
-0.0014715
0.00166532
-0.00158826
0.00164236
-0.00170338
0.00162111
-0.00181689
0.00160138
-0.00192879
0.001583
-0.00203906
0.00156583
-0.0021477
0.00154965
0.00153437
-0.00225463
-3.06154e-05
0.000611374
-0.000104783
0.00135588
-0.000206906
0.00176065
-0.000324644
0.00194613
-0.000449543
0.00200639
-0.000576581
0.00200431
-0.000703187
0.0019761
-0.000828265
0.00193981
-0.000951473
0.0019031
-0.0010728
0.00186865
-0.00119232
0.00183702
-0.00131015
0.00180809
-0.00142637
0.00178153
-0.00154101
0.001757
-0.0016541
0.0017342
-0.0017656
0.00171289
-0.00187548
0.00169288
-0.00198367
0.00167402
-0.00209008
0.00165606
0.00163885
-0.00219456
-2.75249e-05
0.000638899
-9.61523e-05
0.0014245
-0.000192385
0.00185688
-0.000304764
0.00205851
-0.000425026
0.00212665
-0.000548044
0.00212733
-0.000671084
0.00209915
-0.000792922
0.00206165
-0.000913137
0.00202332
-0.00103167
0.00198718
-0.00114861
0.00195395
-0.00126402
0.00192351
-0.001378
0.00189551
-0.00149056
0.00186956
-0.00160169
0.00184534
-0.00171134
0.00182254
-0.00181941
0.00180095
-0.00192575
0.00178036
-0.00203015
0.00176047
0.00174104
-0.00213235
-2.4246e-05
0.000663145
-8.69331e-05
0.00148719
-0.000176805
0.00194675
-0.000283373
0.00216508
-0.000398601
0.00224188
-0.000517266
0.00224599
-0.00063646
0.00221834
-0.000754815
0.00218
-0.00087183
0.00214033
-0.000987409
0.00210276
-0.00110161
0.00206815
-0.00121453
0.00203643
-0.00132623
0.00200721
-0.00143676
0.00198009
-0.00154609
0.00195467
-0.00165415
0.0019306
-0.0017608
0.0019076
-0.0018658
0.00188536
-0.00196874
0.00186341
0.00184133
-0.00206903
-2.07886e-05
0.000683933
-7.71366e-05
0.00154354
-0.000160165
0.00202978
-0.00026045
0.00226537
-0.000370227
0.00235166
-0.000484182
0.00235995
-0.000599222
0.00233338
-0.000713828
0.00229461
-0.000827405
0.00225391
-0.000939815
0.00221517
-0.00105111
0.00217945
-0.0011614
0.00214671
-0.00127078
0.00211659
-0.00137931
0.00208862
-0.00148701
0.00206236
-0.00159379
0.00203738
-0.00169952
0.00201333
-0.00180391
0.00198975
-0.00190631
0.0019658
0.00194065
-0.00200563
-1.71656e-05
0.000701099
-6.67811e-05
0.00159315
-0.000142474
0.00210547
-0.000235985
0.00235888
-0.000339867
0.00245554
-0.000448727
0.00246881
-0.000559281
0.00244393
-0.000669842
0.00240517
-0.000779713
0.00236378
-0.000888713
0.00232417
-0.000996895
0.00228763
-0.00110439
0.00225421
-0.00121136
0.00222355
-0.00131793
0.00219519
-0.00142418
0.00216862
-0.00153014
0.00214335
-0.00163579
0.00211897
-0.00174106
0.00209503
-0.00184526
0.00207
0.00204035
-0.00194497
-1.33937e-05
0.000714492
-5.58938e-05
0.00163565
-0.000123753
0.00217333
-0.000209976
0.0024451
-0.000307494
0.00255306
-0.000410847
0.00257216
-0.000516549
0.00254963
-0.000622724
0.00251135
-0.000728551
0.00246961
-0.00083379
0.00242941
-0.000938474
0.00239232
-0.00104275
0.00235849
-0.00114682
0.00232762
-0.00125089
0.00229927
-0.00135522
0.00227295
-0.00146001
0.00224813
-0.00156531
0.00222428
-0.00167137
0.00220109
-0.00177888
0.00217751
0.00214641
-0.00188494
-9.49351e-06
0.000723986
-4.45126e-05
0.00167067
-0.000104038
0.00223286
-0.000182444
0.00252351
-0.000273103
0.00264372
-0.000370509
0.00266957
-0.000470965
0.00265009
-0.000572386
0.00261277
-0.000673809
0.00257103
-0.000774925
0.00253053
-0.000875765
0.00249316
-0.000976542
0.00245927
-0.00107759
0.00242867
-0.00117937
0.00240105
-0.00128253
0.0023761
-0.00138788
0.00235348
-0.00149631
0.00233271
-0.0016082
0.00231297
-0.0017245
0.00229382
0.0022869
-0.00186498
-5.50285e-06
0.000729489
-3.27077e-05
0.00169788
-8.34076e-05
0.00228356
-0.000153457
0.00259356
-0.00023674
0.002727
-0.000327735
0.00276056
-0.000422526
0.00274488
-0.000518794
0.00270903
-0.000615402
0.00266764
-0.000711931
0.00262706
-0.000808351
0.00258958
-0.000904828
0.00255574
-0.00100162
0.00252546
-0.00109904
0.00249846
-0.00119735
0.00247442
-0.00129677