1.275 	2.15223e-18 	-2.76991e-20 	-0.317161
1.825 	2.15223e-18 	-1.39322e-20 	-0.380382
2.375 	2.15223e-18 	1.38775e-18 	-0.336171
2.925 	2.15223e-18 	2.78958e-18 	-0.230298
3.475 	2.15223e-18 	4.53849e-18 	-0.127303
4.025 	2.15223e-18 	6.28755e-18 	-0.0420801
4.575 	2.15223e-18 	6.30203e-18 	-0.000552746
5.125 	2.15223e-18 	6.31666e-18 	0.0323054
5.675 	2.15223e-18 	6.33144e-18 	0.0359048
6.225 	2.15223e-18 	4.61166e-18 	0.036896
