/*--------------------------------*- C++ -*----------------------------------*\
  =========                 |
  \\      /  F ield         | OpenFOAM: The Open Source CFD Toolbox
   \\    /   O peration     | Website:  https://openfoam.org
    \\  /    A nd           | Version:  6.0
     \\/     M anipulation  |
\*---------------------------------------------------------------------------*/
FoamFile
{
    version     2.0;
    format      ascii;
    class       surfaceScalarField;
    location    "16.4";
    object      phi;
}
// * * * * * * * * * * * * * * * * * * * * * * * * * * * * * * * * * * * * * //

dimensions      [0 3 -1 0 0 0 0];

internalField   nonuniform List<scalar> 
15760
(
-3.12922e-06
3.09155e-06
3.767e-08
-1.10204e-05
7.76946e-06
1.21663e-07
-2.25187e-05
1.12883e-05
2.10041e-07
-3.67016e-05
1.38844e-05
2.98433e-07
-5.2841e-05
1.57557e-05
3.8379e-07
-7.03775e-05
1.7072e-05
4.64487e-07
-8.88957e-05
1.79782e-05
5.39969e-07
-0.000108104
1.85981e-05
6.10416e-07
-0.000127818
1.90374e-05
6.7645e-07
-0.000147943
1.93859e-05
7.38912e-07
-0.000168462
1.97203e-05
7.9869e-07
-0.000189423
2.01045e-05
8.56612e-07
-0.000210928
2.05912e-05
9.13375e-07
-0.000233119
2.12221e-05
9.69503e-07
-0.000256173
2.20281e-05
1.02534e-06
-0.000280283
2.30295e-05
1.08107e-06
-0.000305656
2.42364e-05
1.13667e-06
-0.000332497
2.56488e-05
1.192e-06
-0.000361004
2.72598e-05
1.24679e-06
2.90633e-05
1.30072e-06
-0.000391368
-3.10475e-06
6.19631e-06
-1.0935e-05
1.55997e-05
-2.234e-05
2.26933e-05
-3.63966e-05
2.7941e-05
-5.23744e-05
3.17334e-05
-6.97089e-05
3.44064e-05
-8.79786e-05
3.62479e-05
-0.000106885
3.75041e-05
-0.000126233
3.83859e-05
-0.000145921
3.90737e-05
-0.000165922
3.97213e-05
-0.000186276
4.04586e-05
-0.000207077
4.13928e-05
-0.000228465
4.26098e-05
-0.000250611
4.41739e-05
-0.00027371
4.6129e-05
-0.000297971
4.84975e-05
-0.000323604
5.12814e-05
-0.000350813
5.44684e-05
5.80463e-05
-0.000379796
-3.05613e-06
9.25244e-06
-1.07648e-05
2.33085e-05
-2.19831e-05
3.39116e-05
-3.57877e-05
4.17457e-05
-5.14434e-05
4.73891e-05
-6.83771e-05
5.13401e-05
-8.61552e-05
5.4026e-05
-0.000104464
5.58129e-05
-0.000123093
5.70149e-05
-0.000141921
5.79016e-05
-0.000160904
5.8704e-05
-0.000180064
5.96189e-05
-0.000199482
6.08108e-05
-0.000219285
6.24133e-05
-0.000239641
6.45294e-05
-0.000260743
6.72313e-05
-0.000282805
7.05597e-05
-0.000306048
7.45238e-05
-0.000330689
7.91093e-05
8.42986e-05
-0.000356941
-2.98726e-06
1.22397e-05
-1.05218e-05
3.0843e-05
-2.1471e-05
4.48608e-05
-3.49121e-05
5.51868e-05
-5.01033e-05
6.25803e-05
-6.64596e-05
6.76964e-05
-8.35307e-05
7.10971e-05
-0.000100982
7.32641e-05
-0.000118578
7.46113e-05
-0.000136172
7.54951e-05
-0.000153691
7.62233e-05
-0.000171133
7.70606e-05
-0.000188554
7.82319e-05
-0.000206065
7.99243e-05
-0.000223822
8.22863e-05
-0.000242018
8.54274e-05
-0.000260874
8.94155e-05
-0.000280625
9.42754e-05
-0.000301514
9.99981e-05
0.000106563
-0.000323779
-2.90329e-06
1.5143e-05
-1.02215e-05
3.81612e-05
-2.08341e-05
5.54734e-05
-3.38187e-05
6.81714e-05
-4.84264e-05
7.7188e-05
-6.40585e-05
8.33284e-05
-8.02446e-05
8.72832e-05
-9.66241e-05
8.96437e-05
-0.000112931
9.09185e-05
-0.000128984
9.15473e-05
-0.000144673
9.19125e-05
-0.000159959
9.23472e-05
-0.000174868
9.31403e-05
-0.000189482
9.45386e-05
-0.000203941
9.67458e-05
-0.000218434
9.99203e-05
-0.00023319
0.000104171
-0.000248466
0.000109552
-0.00026454
0.000116072
0.000123714
-0.000281691
-2.80984e-06
1.79528e-05
-9.88123e-06
4.52326e-05
-2.01051e-05
6.56973e-05
-3.25602e-05
8.06265e-05
-4.64909e-05
9.11187e-05
-6.12844e-05
9.8122e-05
-7.64491e-05
0.000102448
-9.15958e-05
0.00010479
-0.000106423
0.000105746
-0.000120707
0.000105831
-0.000134294
0.0001055
-0.000147098
0.000105151
-0.0001591
0.000105142
-0.000170346
0.000105784
-0.000180948
0.000107348
-0.000191083
0.000110056
-0.000200989
0.000114077
-0.000210952
0.000119515
-0.000221296
0.000126416
0.000134782
-0.000232364
-2.71209e-06
2.06649e-05
-9.51634e-06
5.20369e-05
-1.93134e-05
7.54944e-05
-3.11835e-05
9.24966e-05
-4.43661e-05
0.000104301
-5.82363e-05
0.000111992
-7.22822e-05
0.000116494
-8.60859e-05
0.000118594
-9.93083e-05
0.000118968
-0.00011168
0.000118203
-0.000122994
0.000116814
-0.000133109
0.000115266
-0.000141947
0.00011398
-0.000149504
0.000113341
-0.000155851
0.000113695
-0.000161144
0.000115349
-0.00016562
0.000118553
-0.000169598
0.000123493
-0.000173465
0.000130283
0.00013897
-0.000177653
-2.61393e-06
2.32789e-05
-9.13797e-06
5.85609e-05
-1.84791e-05
8.48355e-05
-2.97201e-05
0.000103738
-4.2098e-05
0.000116679
-5.49797e-05
0.000124874
-6.7837e-05
0.000129351
-8.02264e-05
0.000130983
-9.17728e-05
0.000130515
-0.00010216
0.000128589
-0.000111124
0.000125778
-0.000118458
0.0001226
-0.000124016
0.000119538
-0.000127723
0.000117048
-0.000129594
0.000115565
-0.000129741
0.000115496
-0.000128393
0.000117205
-0.000125896
0.000120997
-0.000122715
0.000127102
0.000135661
-0.000119405
-2.51718e-06
2.5796e-05
-8.75038e-06
6.47941e-05
-1.76084e-05
9.36935e-05
-2.81769e-05
0.000114306
-3.96946e-05
0.000128197
-5.15253e-05
0.000136705
-6.31314e-05
0.000140957
-7.40501e-05
0.000141902
-8.38765e-05
0.000140341
-9.22509e-05
0.000136964
-9.88538e-05
0.000132381
-0.000103408
0.000127154
-0.000105686
0.000121817
-0.00010553
0.000116892
-0.000102871
0.000112906
-9.77563e-05
0.000110381
-9.0381e-05
0.000109829
-8.1108e-05
0.000111724
-7.04843e-05
0.000116478
0.000124405
-5.92281e-05
-2.42121e-06
2.82172e-05
-8.34952e-06
7.07224e-05
-1.66897e-05
0.000102034
-2.65305e-05
0.000124147
-3.71155e-05
0.000138782
-4.78121e-05
0.000147401
-5.80812e-05
0.000151226
-6.74513e-05
0.000151272
-7.54974e-05
0.000148387
-8.18263e-05
0.000143293
-8.60692e-05
0.000136624
-8.78812e-05
0.000128966
-8.69511e-05
0.000120886
-8.30207e-05
0.000112962
-7.5916e-05
0.000105801
-6.55881e-05
0.000100054
-5.21622e-05
9.64035e-05
-3.59894e-05
9.55509e-05
-1.76948e-05
9.81834e-05
0.000104906
1.80364e-06
-2.32286e-06
3.05401e-05
-7.92281e-06
7.63224e-05
-1.56934e-05
0.000109804
-2.47244e-05
0.000133178
-3.42668e-05
0.000148324
-4.36971e-05
0.000156831
-5.24837e-05
0.000160013
-6.01574e-05
0.000158946
-6.62874e-05
0.000154517
-7.04624e-05
0.000147468
-7.2279e-05
0.000138441
-7.13375e-05
0.000128025
-6.7248e-05
0.000116797
-5.96496e-05
0.000105364
-4.82453e-05
9.4397e-05
-3.28557e-05
8.46639e-05
-1.34922e-05
7.704e-05
9.5535e-06
7.25052e-05
3.56063e-05
7.21305e-05
7.6991e-05
6.35214e-05
-2.21698e-06
3.27571e-05
-7.45035e-06
8.15557e-05
-1.45732e-05
0.000116927
-2.26718e-05
0.000141276
-3.10037e-05
0.000156656
-3.89572e-05
0.000164785
-4.60148e-05
0.00016707
-5.17203e-05
0.000164652
-5.56518e-05
0.000158449
-5.73993e-05
0.000149215
-5.65474e-05
0.000137589
-5.26656e-05
0.000124143
-4.53073e-05
0.000109439
-3.40224e-05
9.40788e-05
-1.83899e-05
7.87645e-05
1.92278e-06
6.43513e-05
2.70654e-05
5.18973e-05
5.6872e-05
4.26987e-05
9.0678e-05
3.83245e-05
4.05577e-05
0.000127111
-2.09727e-06
3.48544e-05
-6.90759e-06
8.6366e-05
-1.32715e-05
0.000123291
-2.02632e-05
0.000148268
-2.7141e-05
0.000163534
-3.33027e-05
0.000170947
-3.82458e-05
0.000172014
-4.15332e-05
0.000167939
-4.27637e-05
0.000159679
-4.1547e-05
0.000147998
-3.74829e-05
0.000133525
-3.01442e-05
0.000116804
-1.9067e-05
9.83614e-05
-3.7509e-06
7.87627e-05
1.63204e-05
5.86931e-05
4.16269e-05
3.90448e-05
7.25101e-05
2.10142e-05
0.000109002
6.20646e-06
0.00015055
-3.22274e-06
-4.49801e-06
0.000195605
-1.95744e-06
3.68118e-05
-6.26872e-06
9.06773e-05
-1.17262e-05
0.000128749
-1.73781e-05
0.00015392
-2.24713e-05
0.000168627
-2.64033e-05
0.000174879
-2.86794e-05
0.00017429
-2.88783e-05
0.000168138
-2.66225e-05
0.000157423
-2.15535e-05
0.000142929
-1.33095e-05
0.000125281
-1.50497e-06
0.000105
1.42884e-05
8.2568e-05
3.45553e-05
5.84959e-05
5.98374e-05
3.3411e-05
9.07054e-05
8.17679e-06
0.000127674
-1.59544e-05
0.000171023
-3.71425e-05
0.000220437
-5.26366e-05
-5.83987e-05
0.000274337
-1.79227e-06
3.86041e-05
-5.51007e-06
9.43951e-05
-9.87741e-06
0.000133116
-1.3897e-05
0.00015794
-1.67854e-05
0.000171516
-1.79207e-05
0.000176014
-1.67985e-05
0.000173167
-1.29975e-05
0.000164337
-6.15297e-06
0.000150579
4.06437e-06
0.000132712
1.79673e-05
0.000111378
3.58705e-05
8.70964e-05
5.81124e-05
6.03262e-05
8.5078e-05
3.15302e-05
0.000117224
1.26537e-06
0.000155085
-2.9685e-05
0.000199245
-6.0114e-05
0.000250197
-8.80945e-05
0.000307978
-0.000110418
-0.000121649
0.000371229
-1.59827e-06
4.02023e-05
-4.61218e-06
9.7409e-05
-7.6725e-06
0.000136176
-9.71152e-06
0.000159979
-9.88992e-06
0.000171694
-7.53921e-06
0.000173663
-2.11641e-06
0.000167745
6.82866e-06
0.000155392
1.96754e-05
0.000137732
3.67467e-05
0.000115641
5.83184e-05
8.98061e-05
8.4629e-05
6.07859e-05
0.000115892
2.90635e-05
0.000152316
-4.89451e-06
0.000194144
-4.0562e-05
0.00024169
-7.72309e-05
0.00029538
-0.000113804
0.000355731
-0.000148446
0.00042312
-0.000177806
-0.00019523
0.0004967
-1.37346e-06
4.15758e-05
-3.55952e-06
9.95951e-05
-5.06634e-06
0.000137683
-4.72685e-06
0.000159639
-1.61508e-06
0.000168582
5.0175e-06
0.000167031
1.57893e-05
0.000156973
3.12194e-05
0.000139962
5.17439e-05
0.000117207
7.77217e-05
8.96631e-05
0.000109431
5.8097e-05
0.000147062
2.31551e-05
0.00019071
-1.45848e-05
0.000240378
-5.45625e-05
0.000295992
-9.61765e-05
0.000357454
-0.000138693
0.00042472
-0.000181071
0.000497909
-0.000221634
0.000577367
-0.000257265
-0.000280856
0.000662994
-1.11633e-06
4.26921e-05
-2.33747e-06
0.000100816
-2.01619e-06
0.000137362
1.14524e-06
0.000156478
8.19253e-06
0.000161535
1.99906e-05
0.000155233
3.72733e-05
0.00013969
6.06733e-05
0.000116562
9.07325e-05
8.71483e-05
0.000127899
5.24963e-05
0.000172513
1.34837e-05
0.000224776
-2.91087e-05
0.000284728
-7.45361e-05
0.000352201
-0.000122036
0.000426803
-0.000170778
0.000507909
-0.000219799
0.000594718
-0.00026788
0.000686388
-0.000313304
0.000782349
-0.000353225
-0.000381851
0.000883344
-8.23836e-07
4.3516e-05
-9.26769e-07
0.000100919
1.5284e-06
0.000134907
8.00163e-06
0.000150005
1.96909e-05
0.000149846
3.76121e-05
0.000137311
6.26518e-05
0.00011465
9.55953e-05
8.36183e-05
0.000137134
4.56097e-05
0.000187856
1.7745e-06
0.000248222
-4.68828e-05
0.000318532
-9.9419e-05
0.000398874
-0.000154878
0.000489059
-0.000212221
0.000588534
-0.000270254
0.000696282
-0.000327547
0.000810706
-0.000382304
0.000929533
-0.000432131
0.00105001
-0.000473699
-0.000504757
0.00117291
-4.89197e-07
4.40052e-05
7.02953e-07
9.9727e-05
5.63775e-06
0.000129972
1.59671e-05
0.000139675
3.30703e-05
0.000132743
5.81422e-05
0.000112239
9.22475e-05
8.05451e-05
0.000136347
3.95189e-05
0.0001913
-9.34378e-06
0.000257856
-6.47811e-05
0.000336629
-0.000125656
0.000428075
-0.000190865
0.000532464
-0.000259267
0.000649845
-0.000329601
0.000779996
-0.000400405
0.000922336
-0.000469886
0.00107569
-0.000535661
0.00123753
-0.000593964
0.00140106
-0.000637238
-0.000648899
0.00154521
-1.00753e-07
4.41059e-05
2.59733e-06
9.70289e-05
1.04107e-05
0.000122158
2.52087e-05
0.000124877
4.85743e-05
0.000109377
8.18974e-05
7.89165e-05
0.000126426
3.60162e-05
0.000183287
-1.73417e-05
0.000253479
-7.95359e-05
0.00033786
-0.000149163
0.000437131
-0.000224926
0.000551825
-0.000305559
0.000682332
-0.000389774
0.000828961
-0.00047623
0.000992084
-0.000563529
0.00117243
-0.000650231
0.00137162
-0.00073485
0.00159344
-0.000815787
0.00184775
-0.000891548
-0.000957827
0.00215668
3.61579e-07
4.37443e-05
4.82372e-06
9.25668e-05
1.59828e-05
0.000110999
3.59452e-05
0.000104915
6.65095e-05
7.88126e-05
0.000109259
3.61667e-05
0.000165604
-2.03283e-05
0.000236782
-8.85195e-05
0.00032384
-0.000166594
0.000427606
-0.000252928
0.000548659
-0.000345979
0.000687328
-0.000444229
0.000843712
-0.000546158
0.00101775
-0.000650263
0.00120932
-0.000755107
0.0014185
-0.000859404
0.00164578
-0.000962136
0.00189267
-0.00106267
0.00216193
-0.00116081
-0.00124875
0.00245285
9.21645e-07
4.28227e-05
7.4621e-06
8.60263e-05
2.2513e-05
9.59485e-05
4.84273e-05
7.90004e-05
8.72168e-05
4.00231e-05
0.000140634
-1.72505e-05
0.000210191
-8.98858e-05
0.00029714
-0.000175468
0.000402421
-0.000271876
0.000526623
-0.000377129
0.000669936
-0.000489293
0.000832148
-0.000606441
0.00101266
-0.000726674
0.00121056
-0.000848161
0.00142468
-0.000969226
0.00165372
-0.00108844
0.00189631
-0.00120473
0.0021511
-0.00131746
0.00241655
-0.00142626
-0.00152287
0.00269067
1.60769e-06
4.1215e-05
1.06023e-05
7.70317e-05
3.01727e-05
7.63781e-05
6.29137e-05
4.62595e-05
0.000111026
-8.08946e-06
0.000176375
-8.25995e-05
0.000260476
-0.000173986
0.000364435
-0.000279427
0.000488883
-0.000396324
0.000633904
-0.000522151
0.000799005
-0.000654394
0.00098312
-0.000790556
0.00118466
-0.000928209
0.00140158
-0.00106508
0.00163151
-0.00119916
0.00187185
-0.00132878
0.00211981
-0.00145269
0.00237244
-0.00157009
0.00262672
-0.00168053
-0.00177728
0.00288113
2.44852e-06
3.87665e-05
1.43327e-05
6.51474e-05
3.91225e-05
5.15884e-05
7.96287e-05
5.75321e-06
0.000138188
-6.66484e-05
0.000216678
-0.00016109
0.000316462
-0.00027377
0.000438294
-0.000401259
0.000582224
-0.000540254
0.000747546
-0.000687473
0.000932792
-0.000839639
0.00113579
-0.000993552
0.00135378
-0.0011462
0.00158356
-0.00129487
0.00182169
-0.00143729
0.0020646
-0.00157168
0.00230871
-0.0016968
0.00255054
-0.00181192
0.00278683
-0.00191682
-0.00200684
0.00301639
3.47023e-06
3.52962e-05
1.87289e-05
4.98888e-05
4.94878e-05
2.08294e-05
9.87199e-05
-4.34789e-05
0.000168802
-0.000136731
0.000261476
-0.000253764
0.000377739
-0.000390033
0.00051772
-0.00054124
0.000680596
-0.00070313
0.000864577
-0.000871454
0.00106698
-0.00104205
0.0012844
-0.00121097
0.00151291
-0.00137471
0.00174833
-0.00153029
0.00198646
-0.00167543
0.00222331
-0.00180853
0.00245522
-0.00192871
0.00267899
-0.00203569
0.00289193
-0.00212976
-0.00220837
0.00309346
4.69353e-06
3.06027e-05
2.3844e-05
3.07383e-05
6.13386e-05
-1.66652e-05
0.000120221
-0.000102361
0.000202764
-0.000219275
0.000310365
-0.000361365
0.000443382
-0.00052305
0.000601014
-0.000698871
0.000781262
-0.000883378
0.000981016
-0.00107121
0.00119626
-0.00125729
0.00142239
-0.00143709
0.00165451
-0.00160683
0.00188784
-0.00176362
0.00211797
-0.00190555
0.00234105
-0.00203161
0.00255397
-0.00214163
0.00275438
-0.0022361
0.00294069
-0.00231608
-0.00238075
0.00311307
6.13193e-06
2.44708e-05
2.97025e-05
7.16775e-06
7.46737e-05
-6.16364e-05
0.000144024
-0.000171711
0.000239725
-0.000314976
0.000362559
-0.000484198
0.000511932
-0.000672423
0.000685796
-0.000872736
0.000880727
-0.00107831
0.00109217
-0.00128265
0.00131484
-0.00147996
0.00154315
-0.0016654
0.00177167
-0.00183536
0.00199555
-0.0019875
0.00221071
-0.00212071
0.00241405
-0.00223495
0.00260347
-0.00233105
0.00277781
-0.00241044
0.00293673
-0.002475
-0.00252529
0.00308127
7.79092e-06
1.66799e-05
3.62953e-05
-2.13366e-05
8.94118e-05
-0.000114753
0.000169868
-0.000252167
0.000279078
-0.000424186
0.000416892
-0.000622013
0.000581436
-0.000836966
0.000769141
-0.00106044
0.000975017
-0.00128419
0.00119312
-0.00150076
0.00141714
-0.00170397
0.00164096
-0.00188922
0.00185916
-0.00205357
0.00206739
-0.00219572
0.00226244
-0.00231576
0.00244237
-0.00241488
0.00260632
-0.002495
0.00275438
-0.0025585
0.00288733
-0.00260795
-0.00264492
0.00300695
9.66764e-06
7.01221e-06
4.35786e-05
-5.52476e-05
0.000105388
-0.000176562
0.000197333
-0.000344112
0.000319965
-0.000546818
0.000471861
-0.000773909
0.000649561
-0.00101467
0.000847803
-0.00125868
0.00106006
-0.00149644
0.00127926
-0.00171995
0.0014985
-0.00192322
0.00171172
-0.00210244
0.00191409
-0.00225594
0.00210224
-0.00238387
0.00227424
-0.00248776
0.00242944
-0.00257008
0.00256822
-0.00263378
0.00269173
-0.00268201
0.00280159
-0.00271781
-0.00274338
0.00290005
1.17508e-05
-4.73863e-06
5.14731e-05
-9.49699e-05
0.000122353
-0.000247442
0.000225851
-0.00044761
0.000361309
-0.000682276
0.000525701
-0.000938302
0.00071376
-0.00120272
0.000918512
-0.00146344
0.00113212
-0.00171005
0.00134682
-0.00193465
0.00155572
-0.00213212
0.00175339
-0.0023001
0.00193608
-0.00243863
0.00210175
-0.00254955
0.00224985
-0.00263586
0.00238097
-0.0027012
0.00249653
-0.00274934
0.0025984
-0.00278388
0.00268868
-0.00280809
-0.00282446
0.00276975
1.40207e-05
-1.87593e-05
5.98639e-05
-0.000140813
0.000139977
-0.000327555
0.000254715
-0.000562348
0.000401859
-0.000829421
0.000576502
-0.00111295
0.000771481
-0.0013977
0.000978282
-0.00167024
0.00118818
-0.00191995
0.00139329
-0.00213976
0.00158734
-0.00232616
0.00176601
-0.00247877
0.00192698
-0.0025996
0.00206962
-0.00269219
0.00219467
-0.00276091
0.00230372
-0.00281025
0.00239888
-0.0028445
0.00248243
-0.00286743
0.0025566
-0.00288225
-0.00289152
0.00262366
1.64484e-05
-3.52077e-05
6.86016e-05
-0.000192966
0.000157859
-0.000416812
0.000283114
-0.000687604
0.000440265
-0.000986571
0.000622348
-0.00129503
0.000820388
-0.00159574
0.0010247
-0.00187455
0.00122622
-0.00212147
0.00141757
-0.00233111
0.00159359
-0.00250218
0.00175142
-0.00263661
0.00189023
-0.00273841
0.00201074
-0.0028127
0.00211469
-0.00286486
0.00220437
-0.00289993
0.00228224
-0.00292236
0.00235065
-0.00293585
0.00241174
-0.00294335
-0.00294728
0.00246751
1.8996e-05
-5.42036e-05
7.75041e-05
-0.000251474
0.000175535
-0.000514843
0.00031017
-0.000822239
0.000475162
-0.00115156
0.000661464
-0.00148133
0.000858563
-0.00179284
0.00105611
-0.00207209
0.00124533
-0.0023107
0.00141989
-0.00250567
0.0015761
-0.00265839
0.00171267
-0.00277317
0.00183016
-0.0028559
0.00193036
-0.0029129
0.00201571
-0.00295021
0.00208886
-0.00297308
0.00215233
-0.00298583
0.00220835
-0.00299187
0.00225882
-0.00299381
-0.00299382
0.00230537
2.16165e-05
-7.58202e-05
8.63614e-05
-0.000316219
0.000192502
-0.000620984
0.000334985
-0.000964721
0.000505266
-0.00132184
0.000692362
-0.00166843
0.000884656
-0.00198513
0.00107174
-0.00225918
0.00124571
-0.00248466
0.00140165
-0.00266162
0.00153751
-0.00279425
0.00165347
-0.00288914
0.00175127
-0.00295369
0.00183344
-0.00299508
0.0019028
-0.00301958
0.00196207
-0.00303235
0.00201363
-0.00303739
0.00205946
-0.0030377
0.00210115
-0.0030355
-0.00303265
0.00213997
2.42548e-05
-0.000100075
9.49422e-05
-0.000386907
0.000208238
-0.000734279
0.000356695
-0.00111318
0.000529468
-0.00149462
0.000713944
-0.0018529
0.000897959
-0.00216915
0.00107165
-0.00243286
0.00122841
-0.00264143
0.001365
-0.00279821
0.00148094
-0.00291019
0.0015777
-0.00298589
0.00165784
-0.00303383
0.00172434
-0.00306158
0.00178013
-0.00307537
0.00182778
-0.00308
0.00186942
-0.00307902
0.00190671
-0.00307499
0.00194095
-0.00306973
-0.00306478
0.00197308
2.68486e-05
-0.000126923
0.000103004
-0.000463062
0.000222231
-0.000853506
0.000374533
-0.00126548
0.000546906
-0.00166699
0.000725565
-0.00203156
0.000898395
-0.00234198
0.00105659
-0.00259106
0.00119517
-0.00278001
0.00131255
-0.00291559
0.00140968
-0.00300732
0.001489
-0.00306521
0.00155362
-0.00309844
0.00160666
-0.00311463
0.00165095
-0.00311965
0.00168879
-0.00311784
0.00172202
-0.00311225
0.00175198
-0.00310496
0.00177967
-0.00309743
-0.00309091
0.00180581
2.93313e-05
-0.000156255
0.000110303
-0.000544034
0.00023401
-0.000977213
0.00038787
-0.00141934
0.000557017
-0.00183614
0.000727041
-0.00220159
0.000886443
-0.00250138
0.00102787
-0.00273249
0.00114807
-0.00290021
0.00124703
-0.00301455
0.00132684
-0.00308713
0.00139062
-0.00312899
0.00144172
-0.00314954
0.00148321
-0.00315612
0.00151768
-0.00315412
0.00154712
-0.00314729
0.00157303
-0.00313816
0.00159649
-0.00312842
0.00161826
-0.0031192
-0.00311149
0.00163884
3.16344e-05
-0.000187889
0.000116609
-0.000629009
0.00024317
-0.00110377
0.000396252
-0.00157242
0.000559551
-0.00199944
0.000718605
-0.00236064
0.000863017
-0.00264579
0.000987116
-0.00285659
0.00108935
-0.00300244
0.00117106
-0.00309626
0.0012352
-0.00315126
0.00128527
-0.00317906
0.00132463
-0.0031889
0.00135615
-0.00318765
0.00138211
-0.00318007
0.00140417
-0.00316935
0.00142354
-0.00315753
0.00144106
-0.00314594
0.0014573
-0.00313543
-0.00312679
0.0014726
3.36908e-05
-0.00022158
0.000121716
-0.000717034
0.000249397
-0.00123145
0.000399422
-0.00172245
0.000554556
-0.00215457
0.000700836
-0.00250692
0.000829324
-0.00277428
0.000936116
-0.00296338
0.00102122
-0.00308754
0.00108706
-0.00316211
0.00113716
-0.00320136
0.00117516
-0.00321705
0.00120427
-0.00321801
0.00122707
-0.00321046
0.0012455
-0.0031985
0.00126092
-0.00318477
0.00127428
-0.00317089
0.00128622
-0.00315788
0.00129717
-0.00314637
-0.00313698
0.00130736
3.54413e-05
-0.000257021
0.000125458
-0.000807051
0.000252488
-0.00135848
0.000397326
-0.00186729
0.000542356
-0.0022996
0.000674582
-0.00263915
0.000786751
-0.00288645
0.000876686
-0.00305331
0.000945735
-0.00315659
0.000997134
-0.00321351
0.00103471
-0.00323893
0.00106204
-0.00324439
0.00108211
-0.00323808
0.00109715
-0.0032255
0.00110877
-0.00321012
0.00111806
-0.00319406
0.00112575
-0.00317858
0.00113234
-0.00316447
0.00113813
-0.00315217
-0.00314216
0.00114331
3.68237e-05
-0.000293845
0.000127692
-0.00089792
0.000252319
-0.00148311
0.000390054
-0.00200502
0.000523433
-0.00243298
0.000640804
-0.00275652
0.000736687
-0.00298233
0.000810498
-0.00312712
0.000864677
-0.00321077
0.000902999
-0.00325183
0.000929382
-0.00326532
0.000947232
-0.00326224
0.0009592
-0.00325005
0.000967191
-0.00323349
0.000972505
-0.00321543
0.000976005
-0.00319756
0.000978257
-0.00318083
0.000979635
-0.00316584
0.000980373
-0.00315291
-0.00314237
0.000980586
3.77949e-05
-0.00033164
0.000128339
-0.000988463
0.000248898
-0.00160367
0.000377878
-0.002134
0.000498458
-0.00255356
0.000600581
-0.00285864
0.000680532
-0.00306228
0.000739122
-0.00318571
0.000779623
-0.00325127
0.000806115
-0.00327832
0.000822447
-0.00328165
0.000831754
-0.00327154
0.000836344
-0.00325464
0.000837803
-0.00323495
0.000837169
-0.0032148
0.000835111
-0.0031955
0.000832063
-0.00317779
0.000828312
-0.00316209
0.000824035
-0.00314863
-0.00313765
0.000819314
3.83192e-05
-0.000369959
0.000127361
-0.00107751
0.000242317
-0.00171863
0.000361176
-0.00225286
0.000468172
-0.00266056
0.00055499
-0.00294546
0.00061958
-0.00312688
0.000663924
-0.00323006
0.000691879
-0.00327923
0.000707638
-0.00329408
0.000714861
-0.00328887
0.000716364
-0.00327305
0.000714117
-0.00325239
0.000709415
-0.00323025
0.000703073
-0.00320846
0.000695606
-0.00318803
0.000687346
-0.00316953
0.000678514
-0.00315326
0.000669248
-0.00313937
-0.00312801
0.000659607
3.8373e-05
-0.000408332
0.000124767
-0.0011639
0.00023275
-0.00182661
0.000340406
-0.00236052
0.000433353
-0.0027535
0.000505064
-0.00301717
0.000554999
-0.00317681
0.000586075
-0.00326113
0.000602519
-0.00329567
0.00060848
-0.00330004
0.000607356
-0.00328775
0.000601623
-0.00326731
0.000592935
-0.0032437
0.000582333
-0.00321964
0.000570446
-0.00319657
0.000557666
-0.00317525
0.000544246
-0.00315611
0.000530361
-0.00313938
0.000516121
-0.00312513
-0.00311346
0.000501573
3.79447e-05
-0.000446277
0.000120604
-0.00124656
0.000220429
-0.00192643
0.000316076
-0.00245616
0.000394776
-0.0028322
0.000451761
-0.00307415
0.000487813
-0.00321286
0.000506557
-0.00327988
0.000512405
-0.00330152
0.00050935
-0.00329699
0.000500482
-0.00327888
0.000487943
-0.00325477
0.000473102
-0.00322886
0.00045678
-0.00320332
0.000439458
-0.00317925
0.000421426
-0.00315722
0.00040288
-0.00313756
0.000383958
-0.00312045
0.000364753
-0.00310592
-0.00309402
0.000345308
3.70346e-05
-0.000483311
0.000114957
-0.00132448
0.000205632
-0.00201711
0.000288711
-0.00253924
0.000353183
-0.00289668
0.000395949
-0.00311692
0.000418906
-0.00323582
0.000426185
-0.00328716
0.000422228
-0.00329756
0.000410797
-0.00328556
0.000394655
-0.00326274
0.00037563
-0.00323575
0.000354839
-0.00320807
0.000332921
-0.00318141
0.000310236
-0.00315656
0.000286994
-0.00313398
0.000263342
-0.00311391
0.000239394
-0.00309651
0.000215234
-0.00308176
-0.00306969
0.000190904
3.56534e-05
-0.000518965
0.000107935
-0.00139676
0.000188664
-0.00209784
0.000258833
-0.00260941
0.000309265
-0.00294711
0.000338391
-0.00314605
0.000349026
-0.00324645
0.00034562
-0.00328375
0.000332532
-0.00328448
0.000313242
-0.00326627
0.000290185
-0.00323968
0.000264907
-0.00321047
0.000238308
-0.00318147
0.00021088
-0.00315398
0.000182879
-0.00312856
0.000154454
-0.00310555
0.000125712
-0.00308517
9.67474e-05
-0.00306754
6.76411e-05
-0.00305266
-0.00304049
3.84411e-05
3.38217e-05
-0.000552786
9.96699e-05
-0.00146261
0.000169839
-0.00216801
0.000226946
-0.00266652
0.000263649
-0.00298381
0.000279756
-0.00316215
0.000278802
-0.0032455
0.000265402
-0.00327035
0.000243747
-0.00326282
0.000217008
-0.00323953
0.00018731
-0.00320998
0.000155944
-0.00317911
0.000123634
-0.00314916
9.07473e-05
-0.00312109
5.74635e-05
-0.00309528
2.38754e-05
-0.00307196
-9.94432e-06
-0.00305135
-4.39169e-05
-0.00303357
-7.79587e-05
-0.00301862
-0.00300643
-0.000112011
3.15681e-05
-0.000584354
9.03084e-05
-0.00152135
0.000149476
-0.00222718
0.000193523
-0.00271056
0.000216898
-0.00300719
0.000220617
-0.00316587
0.000208755
-0.00323364
0.000185967
-0.00324756
0.000156214
-0.00323307
0.00012235
-0.00320566
8.62105e-05
-0.00317384
4.88713e-05
-0.00314177
1.09074e-05
-0.0031112
-2.74057e-05
-0.00308278
-6.59546e-05
-0.00305673
-0.000104693
-0.00303322
-0.000143581
-0.00301246
-0.000182554
-0.0029946
-0.00022152
-0.00297965
-0.00296755
-0.000260402
2.89277e-05
-0.000613282
8.00041e-05
-0.00157243
0.000127885
-0.00227506
0.000159002
-0.00274168
0.000169512
-0.0030177
0.000161466
-0.00315783
0.000139321
-0.00321149
0.000107672
-0.00321591
7.02077e-05
-0.0031956
2.94708e-05
-0.00316493
-1.29644e-05
-0.00313141
-5.62064e-05
-0.00309852
-9.97953e-05
-0.00306761
-0.000143527
-0.00303905
-0.000187338
-0.00301292
-0.000231224
-0.00298934
-0.000275179
-0.0029685
-0.000319151
-0.00295062
-0.000363037
-0.00293576
-0.00292386
-0.000406735
2.59412e-05
-0.000639223
6.89145e-05
-0.0016154
0.000105362
-0.0023115
0.000123782
-0.0027601
0.000121929
-0.00301584
0.000102724
-0.00313862
7.08655e-05
-0.00317963
3.08129e-05
-0.00317586
-1.40417e-05
-0.00315075
-6.14543e-05
-0.00311751
-0.000110084
-0.00308278
-0.000159193
-0.00304942
-0.000208408
-0.00301839
-0.000257573
-0.00298988
-0.000306663
-0.00296383
-0.000355711
-0.00294029
-0.000404746
-0.00291947
-0.000453739
-0.00290163
-0.00050257
-0.00288693
-0.00287533
-0.000551098
2.2653e-05
-0.000661876
5.71973e-05
-0.00164994
8.21865e-05
-0.00233649
8.82235e-05
-0.00276614
7.45348e-05
-0.00300215
4.47515e-05
-0.00310884
3.70048e-06
-0.00313858
-4.43562e-05
-0.00312781
-9.63314e-05
-0.00309877
-0.000150264
-0.00306358
-0.000205021
-0.00302802
-0.000259988
-0.00299445
-0.000314857
-0.00296353
-0.000369501
-0.00293524
-0.000423913
-0.00290942
-0.00047816
-0.00288604
-0.000532315
-0.00286531
-0.000586379
-0.00284757
-0.000640222
-0.00283309
-0.00282191
-0.000693642
1.91103e-05
-0.000680987
4.50066e-05
-0.00167584
5.86204e-05
-0.00235011
5.26524e-05
-0.00276017
2.76672e-05
-0.00297717
-1.21369e-05
-0.00306903
-6.19031e-05
-0.00308882
-0.000117608
-0.0030721
-0.00017647
-0.00303991
-0.000236795
-0.00300326
-0.000297631
-0.00296719
-0.000358472
-0.00293361
-0.000419051
-0.00290295
-0.00047925
-0.00287504
-0.000539064
-0.0028496
-0.000598578
-0.00282653
-0.000657916
-0.00280598
-0.000717127
-0.00278835
-0.000776078
-0.00277414
-0.00276351
-0.000834473
1.5362e-05
-0.000696349
3.24915e-05
-0.00169297
3.49043e-05
-0.00235252
1.73601e-05
-0.00274263
-1.83754e-05
-0.00294143
-6.76655e-05
-0.00301974
-0.000125702
-0.00303078
-0.000188728
-0.00300908
-0.000254265
-0.00297437
-0.000320863
-0.00293666
-0.000387742
-0.00290031
-0.000454483
-0.00286687
-0.000520854
-0.00283658
-0.000586727
-0.00280916
-0.000652073
-0.00278426
-0.000716973
-0.00276163
-0.000781588
-0.00274136
-0.000846036
-0.00272391
-0.000910195
-0.00270998
-0.00270008
-0.000973631
1.14573e-05
-0.000707806
1.97939e-05
-0.00170131
1.12591e-05
-0.00234398
-1.73928e-05
-0.00271398
-6.33293e-05
-0.0028955
-0.000121588
-0.00296148
-0.000187472
-0.00296489
-0.000257507
-0.00293904
-0.000329508
-0.00290237
-0.000402257
-0.00286391
-0.000475128
-0.00282744
-0.000547794
-0.0027942
-0.000620053
-0.00276432
-0.000691764
-0.00273745
-0.000762849
-0.00271317
-0.000833345
-0.00269113
-0.000903424
-0.00267128
-0.000973277
-0.00265405
-0.00104282
-0.00264044
-0.0026314
-0.0011115
7.44544e-06
-0.000715251
7.04689e-06
-0.00170091
-1.21149e-05
-0.00232482
-5.13751e-05
-0.00267471
-0.000106962
-0.00283991
-0.000173686
-0.00289476
-0.000247005
-0.00289158
-0.000323737
-0.00286231
-0.000401978
-0.00282413
-0.000480726
-0.00278516
-0.000559506
-0.00274866
-0.000638088
-0.00271562
-0.00071632
-0.00268608
-0.000794059
-0.00265971
-0.000871176
-0.00263606
-0.00094763
-0.00261468
-0.00102357
-0.00259534
-0.00109928
-0.00257835
-0.00117474
-0.00256498
-0.00255654
-0.00124959
3.37391e-06
-0.000718625
-5.62642e-06
-0.00169191
-3.50386e-05
-0.00229541
-8.43837e-05
-0.00262537
-0.00014907
-0.00277522
-0.00022376
-0.00282007
-0.000304103
-0.00281123
-0.000387207
-0.0027792
-0.000471431
-0.00273991
-0.000555981
-0.00270061
-0.000640529
-0.00266411
-0.000724957
-0.00263119
-0.000809198
-0.00260184
-0.000893151
-0.00257576
-0.000976666
-0.00255254
-0.00105963
-0.00253171
-0.00114215
-0.00251283
-0.0012246
-0.00249589
-0.00130722
-0.00248236
-0.00247319
-0.00139057
-7.12193e-07
-0.000717913
-1.81149e-05
-0.00167451
-5.73553e-05
-0.00225617
-0.000116245
-0.00256648
-0.00018948
-0.00270199
-0.00027164
-0.00273791
-0.000358586
-0.00272429
-0.000447705
-0.00269009
-0.000537606
-0.00265001
-0.00062768
-0.00261053
-0.000717752
-0.00257404
-0.000807838
-0.00254111
-0.00089801
-0.00251167
-0.000988301
-0.00248547
-0.00107866
-0.00246218
-0.00116897
-0.0024414
-0.00125924
-0.00242256
-0.00134982
-0.00240531
-0.00144129
-0.00239089
-0.0023781
-0.00153638
-4.77141e-06
-0.000713142
-3.0321e-05
-0.00164896
-7.89326e-05
-0.00220756
-0.000146816
-0.0024986
-0.000228052
-0.00262075
-0.000317188
-0.00264877
-0.000410302
-0.00263117
-0.000505044
-0.00259534
-0.000600239
-0.00255481
-0.000695441
-0.00251533
-0.000790604
-0.00247887
-0.000885879
-0.00244583
-0.000981522
-0.00241603
-0.00107782
-0.00238917
-0.00117506
-0.00236494
-0.00127345
-0.00234302
-0.00137309
-0.00232292
-0.00147455
-0.00230384
-0.00158011
-0.00228534
-0.00227887
-0.00167934
-8.75463e-06
-0.000704387
-4.21422e-05
-0.00161557
-9.96402e-05
-0.00215006
-0.000175965