1.22 	3.45254e-18 	-6.98323e-18 	0.0529119 	-0.213764 	-1.49181e-21
1.66 	3.45254e-18 	-6.96118e-18 	0.392614 	0.306344 	-1.24304e-22
2.1 	3.45254e-18 	-6.93894e-18 	0.529356 	0.690895 	-2.7105e-21
2.54 	3.45254e-18 	-8.30431e-18 	0.27634 	0.66053 	1.041e-22
2.98 	3.45254e-18 	-8.28171e-18 	0.681034 	0.077261 	1.39701e-21
3.42 	3.45254e-18 	-6.87115e-18 	0.906506 	-0.349005 	1.83226e-21
3.86 	3.45254e-18 	-6.84819e-18 	0.922335 	-0.580217 	3.51815e-22
4.3 	3.45254e-18 	-6.82504e-18 	0.833704 	-0.664167 	1.02224e-21
4.74 	3.45254e-18 	-5.41391e-18 	0.869429 	-0.391132 	-6.60508e-22
5.18 	3.45254e-18 	-2.61482e-18 	0.989287 	-0.0755274 	-5.93564e-22
5.62 	3.45254e-18 	-1.2033e-18 	1.04547 	0.23988 	3.34091e-22
6.06 	3.45254e-18 	-1.17937e-18 	1.02045 	0.463034 	9.21013e-22
6.5 	3.45254e-18 	-1.15524e-18 	0.956532 	0.510953 	-3.81762e-22
