/*--------------------------------*- C++ -*----------------------------------*\
  =========                 |
  \\      /  F ield         | OpenFOAM: The Open Source CFD Toolbox
   \\    /   O peration     | Website:  https://openfoam.org
    \\  /    A nd           | Version:  6.0
     \\/     M anipulation  |
\*---------------------------------------------------------------------------*/
FoamFile
{
    version     2.0;
    format      ascii;
    class       surfaceScalarField;
    location    "69";
    object      phi;
}
// * * * * * * * * * * * * * * * * * * * * * * * * * * * * * * * * * * * * * //

dimensions      [0 3 -1 0 0 0 0];

internalField   nonuniform List<scalar> 
24700
(
-5.12554e-06
3.53603e-05
-3.02347e-05
-1.74801e-05
6.34096e-05
-5.1055e-05
-3.49992e-05
6.16691e-05
-4.41501e-05
-5.61993e-05
3.97201e-05
-1.85199e-05
-7.9985e-05
4.67714e-06
1.91085e-05
-0.000105521
-3.83968e-05
6.39327e-05
-0.000132139
-8.60384e-05
0.000112657
-0.000159276
-0.000135969
0.000163105
-0.000186435
-0.000186731
0.000213891
-0.000213169
-0.000237399
0.000264134
-0.000239074
-0.000287354
0.000313259
-0.000263786
-0.000336136
0.000360847
-0.000286981
-0.000383363
0.000406558
-0.000308383
-0.000428691
0.000450094
-0.000327764
-0.000471808
0.000491189
-0.000344943
-0.000512448
0.000529627
-0.000359789
-0.000550415
0.000565261
-0.000372223
-0.000585602
0.000598036
-0.000382215
-0.000618018
0.000628009
-0.000389781
-0.000647799
0.000655366
-0.000394985
-0.000675226
0.00068043
-0.000397933
-0.000700717
0.000703665
-0.000398774
-0.000724839
0.000725681
-0.000397701
-0.000748387
0.000747314
-0.000772417
0.000769692
-0.000394976
-5.3401e-06
4.07004e-05
-1.83144e-05
7.6384e-05
-3.6832e-05
8.01866e-05
-5.93707e-05
6.22588e-05
-8.47903e-05
3.00968e-05
-0.000112213
-1.09744e-05
-0.000140933
-5.73185e-05
-0.000170356
-0.000106545
-0.000199962
-0.000157125
-0.000229282
-0.00020808
-0.000257885
-0.00025875
-0.000285379
-0.000308642
-0.000311407
-0.000357335
-0.000335649
-0.000404449
-0.000357828
-0.000449629
-0.00037771
-0.000492566
-0.000395112
-0.000533012
-0.000409908
-0.000570806
-0.000422031
-0.000605895
-0.000431475
-0.000638355
-0.000438299
-0.000668402
-0.000442625
-0.000696391
-0.000444638
-0.000722827
-0.000444581
-0.000748444
-0.000774209
-0.000442789
-5.40421e-06
4.61046e-05
-1.86631e-05
8.96428e-05
-3.77254e-05
9.92489e-05
-6.107e-05
8.56034e-05
-8.7535e-05
5.65618e-05
-0.000116214
1.77044e-05
-0.000146374
-2.71587e-05
-0.000177397
-7.55217e-05
-0.000208744
-0.000125778
-0.000239926
-0.000176898
-0.000270495
-0.000228182
-0.000300031
-0.000279105
-0.000328144
-0.000329223
-0.00035447
-0.000378123
-0.00037868
-0.00042542
-0.000400483
-0.000470763
-0.00041964
-0.000513855
-0.000435969
-0.000554477
-0.000449358
-0.000592506
-0.000459774
-0.00062794
-0.000467267
-0.000660909
-0.000471976
-0.000691683
-0.000474122
-0.00072068
-0.000474019
-0.000748547
-0.00077614
-0.000472088
-5.30137e-06
5.14059e-05
-1.84704e-05
0.000102812
-3.75704e-05
0.000118349
-6.11249e-05
0.000109158
-8.79774e-05
8.34143e-05
-0.000117209
4.69358e-05
-0.000148069
3.70154e-06
-0.000179925
-4.36656e-05
-0.000212223
-9.34803e-05
-0.000244463
-0.000144658
-0.00027618
-0.000196465
-0.000306934
-0.000248352
-0.000336303
-0.000299853
-0.000363886
-0.00035054
-0.000389303
-0.000400003
-0.000412207
-0.000447858
-0.0004323
-0.000493763
-0.00044934
-0.000537436
-0.000463167
-0.000578679
-0.000473713
-0.000617394
-0.000481015
-0.000653607
-0.000485224
-0.000687473
-0.000486609
-0.000719296
-0.00048556
-0.000749597
-0.000779092
-0.000482607
-5.02304e-06
5.6429e-05
-1.77061e-05
0.000115495
-3.63034e-05
0.000136946
-5.94304e-05
0.000132285
-8.59649e-05
0.000109949
-0.000114993
7.59638e-05
-0.000145758
3.44668e-05
-0.000177619
-1.18046e-05
-0.000210015
-6.10844e-05
-0.000242439
-0.000112234
-0.000274416
-0.000164487
-0.000305494
-0.000217274
-0.000335228
-0.000270119
-0.000363185
-0.000322583
-0.000388943
-0.000374244
-0.000412107
-0.000424694
-0.000432319
-0.000473551
-0.000449284
-0.000520472
-0.000462786
-0.000565176
-0.000472719
-0.000607461
-0.000479102
-0.000647224
-0.000482096
-0.000684479
-0.000482014
-0.000719378
-0.000479333
-0.000752278
-0.000783717
-0.000474708
-4.5704e-06
6.09994e-05
-1.63679e-05
0.000127292
-3.39123e-05
0.000154491
-5.59582e-05
0.000154331
-8.1447e-05
0.000135438
-0.000109488
0.000104005
-0.000139331
6.43094e-05
-0.000170333
1.91972e-05
-0.000201932
-2.94855e-05
-0.00023362
-8.05458e-05
-0.000264923
-0.000133184
-0.00029538
-0.000186817
-0.000324538
-0.000240961
-0.000351943
-0.000295178
-0.000377147
-0.000349041
-0.000399714
-0.000402127
-0.000419241
-0.000454023
-0.000435381
-0.000504332
-0.00044787
-0.000552688
-0.000456555
-0.000598776
-0.000461432
-0.000642347
-0.000462664
-0.000683247
-0.000460603
-0.00072144
-0.000455814
-0.000757067
-0.000790445
-0.000449086
-3.9544e-06
6.49538e-05
-1.44838e-05
0.000137822
-3.04406e-05
0.000170447
-5.07624e-05
0.000174652
-7.44836e-05
0.000159159
-0.000100756
0.000130277
-0.000128844
9.23977e-05
-0.000158113
4.84663e-05
-0.000188005
4.06976e-07
-0.000218019
-5.05322e-05
-0.000247685
-0.000103518
-0.000276549
-0.000157952
-0.00030416
-0.000213351
-0.000330059
-0.000269279
-0.000353788
-0.000325312
-0.000374889
-0.000381025
-0.000392931
-0.000435981
-0.000407525
-0.000489738
-0.000418363
-0.000541851
-0.000425248
-0.00059189
-0.000428143
-0.000639452
-0.000427199
-0.00068419
-0.000422795
-0.000725844
-0.000415574
-0.000764289
-0.00079956
-0.000406458
-3.19592e-06
6.81497e-05
-1.21119e-05
0.000146738
-2.59873e-05
0.000184323
-4.39809e-05
0.000192646
-6.52473e-05
0.000180425
-8.89974e-05
0.000154027
-0.000114525
0.000117925
-0.000141208
7.51497e-05
-0.000168501
2.76993e-05
-0.000195911
-2.3122e-05
-0.000222983
-7.64458e-05
-0.00024928
-0.000131656
-0.000274363
-0.000188268
-0.000297788
-0.000245853
-0.000319105
-0.000303996
-0.000337856
-0.000362274
-0.000353599
-0.000420238
-0.000365924
-0.000477413
-0.000374487
-0.000533288
-0.000379051
-0.000587325
-0.000379536
-0.000638967
-0.000376066
-0.00068766
-0.000369022
-0.000732888
-0.000359102
-0.000774209
-0.000811311
-0.00034735
-2.32462e-06
7.04743e-05
-9.33813e-06
0.000153751
-2.07036e-05
0.000195688
-3.58315e-05
0.000207774
-5.40197e-05
0.000198613
-7.45559e-05
0.000174563
-9.67729e-05
0.000140142
-0.000120071
9.84478e-05
-0.000143918
5.15466e-05
-0.00016784
7.99419e-07
-0.000191399
-5.28865e-05
-0.000214181
-0.000108874
-0.000235775
-0.000166674
-0.000255767
-0.000225861
-0.000273729
-0.000286034
-0.000289229
-0.000346774
-0.000301834
-0.000407633
-0.000311133
-0.000468114
-0.000316765
-0.000527657
-0.000318456
-0.000585634
-0.000316078
-0.000641345
-0.000309709
-0.000694029
-0.000299702
-0.000742894
-0.000286773
-0.000787138
-0.000826022
-0.000272063
-1.37717e-06
7.18515e-05
-6.27149e-06
0.000158646
-1.47863e-05
0.000204203
-2.66029e-05
0.000219591
-4.11813e-05
0.000213192
-5.79011e-05
0.000191283
-7.61454e-05
0.000158387
-9.53432e-05
0.000117646
-0.000114983
7.11862e-05
-0.000134608
2.0425e-05
-0.000153807
-3.36879e-05
-0.000172192
-9.04892e-05
-0.000189388
-0.000149477
-0.00020502
-0.00021023
-0.000218702
-0.000272351
-0.000230042
-0.000335434
-0.00023864
-0.000399035
-0.000244105
-0.000462649
-0.000246075
-0.000525687
-0.000244256
-0.000587454
-0.00023847
-0.000647131
-0.000228732
-0.000703768
-0.000215333
-0.000756293
-0.000198963
-0.000803509
-0.000844167
-0.000180817
-3.94867e-07
7.22463e-05
-3.03771e-06
0.000161289
-8.46614e-06
0.000209632
-1.66396e-05
0.000227764
-2.71926e-05
0.000223745
-3.96096e-05
0.0002037
-5.33342e-05
0.000172111
-6.78312e-05
0.000132143
-8.26136e-05
8.59686e-05
-9.72474e-05
3.50588e-05
-0.000111344
-1.95909e-05
-0.000124549
-7.72844e-05
-0.000136525
-0.000137502
-0.00014694
-0.000199815
-0.000155462
-0.00026383
-0.000161749
-0.000329147
-0.000165452
-0.000395331
-0.000166221
-0.00046188
-0.000163715
-0.000528193
-0.000157633
-0.000593536
-0.000147758
-0.000657005
-0.000134034
-0.000717492
-0.000116662
-0.000773665
-9.62541e-05
-0.000823916
-0.000866405
-7.40165e-05
5.79131e-07
7.16672e-05
2.2876e-07
0.000161639
-1.99464e-06
0.000211855
-6.32258e-06
0.000232092
-1.25697e-05
0.000229992
-2.03341e-05
0.000211465
-2.91293e-05
0.000180907
-3.84631e-05
0.000141476
-4.78769e-05
9.53824e-05
-5.69606e-05
4.41424e-05
-6.53505e-05
-1.12009e-05
-7.2721e-05
-6.9914e-05
-7.87719e-05
-0.000131451
-8.32179e-05
-0.000195369
-8.57781e-05
-0.000261269
-8.61698e-05
-0.000328755
-8.41039e-05
-0.000397397
-7.92841e-05
-0.0004667
-7.14121e-05
-0.000536065
-6.02025e-05
-0.000604746
-4.54177e-05
-0.00067179
-2.69322e-05
-0.000735977
-4.84285e-06
-0.000795754
2.03535e-05
-0.000849113
-0.000893547
4.74951e-05
1.50281e-06
7.01644e-05
3.39354e-06
0.000159748
4.37207e-06
0.000210876
3.95402e-06
0.00023251
2.14755e-06
0.000231799
-7.64502e-07
0.000214377
-4.37272e-06
0.000184515
-8.23381e-06
0.000145337
-1.19219e-05
9.90705e-05
-1.50512e-05
4.72718e-05
-1.72815e-05
-8.97064e-06
-1.83131e-05
-6.88824e-05
-1.7878e-05
-0.000131886
-1.57305e-05
-0.000197516
-1.16383e-05
-0.000265362
-5.37494e-06
-0.000335019
3.28641e-06
-0.000406059
1.45782e-05
-0.000477992
2.87412e-05
-0.000550228
4.60218e-05
-0.000622026
6.66532e-05
-0.000692421
9.08063e-05
-0.000760131
0.000118487
-0.000823435
0.000149337
-0.000879963
-0.000926494
0.000182284
2.33814e-06
6.78263e-05
6.33137e-06
0.000155755
1.03901e-05
0.000206818
1.38088e-05
0.000229091
1.64295e-05
0.000229178
1.84161e-05
0.00021239
2.00966e-05
0.000182834
2.18604e-05
0.000143574
2.40979e-05
9.6833e-05
2.71696e-05
4.42e-05
3.13955e-05
-1.31965e-05
3.70545e-05
-7.45414e-05
4.43898e-05
-0.000139221
5.36161e-05
-0.000206743
6.49263e-05
-0.000276672
7.84979e-05
-0.00034859
9.44996e-05
-0.00042206
0.000113098
-0.00049659
0.000134465
-0.000571595
0.000158785
-0.000646347
0.000186257
-0.000719893
0.000217061
-0.000790935
0.000251278
-0.000857652
0.000288693
-0.000917377
-0.000966154
0.000328353
3.05359e-06
6.47727e-05
8.93445e-06
0.000149874
1.58442e-05
0.000199908
2.28987e-05
0.000222037
2.97931e-05
0.000222283
3.65784e-05
0.000205605
4.35008e-05
0.000175912
5.08933e-05
0.000136181
5.91089e-05
8.86174e-05
6.84838e-05
3.48251e-05
7.93208e-05
-2.40335e-05
9.18841e-05
-8.71047e-05
0.000106401
-0.000153738
0.000123065
-0.000223406
0.000142039
-0.000295647
0.000163464
-0.000370015
0.000187455
-0.000446052
0.000214116
-0.00052325
0.000243542
-0.000601021
0.00027584
-0.000678645
0.000311136
-0.000755189
0.000349577
-0.000829375
0.000391274
-0.000899348
0.000436124
-0.000962228
-0.00101335
0.000483316
3.62609e-06
6.11466e-05
1.11196e-05
0.000142381
2.05625e-05
0.000190465
3.0943e-05
0.000211656
4.18364e-05
0.00021139
5.31931e-05
0.000194248
6.51815e-05
0.000163923
7.80793e-05
0.000123283
9.22028e-05
7.44939e-05
0.000107866
1.9162e-05
0.000125358
-4.15258e-05
0.000144935
-0.000106682
0.000166816
-0.000175619
0.000191182
-0.000247772
0.000218178
-0.000322642
0.000247911
-0.000399748
0.000280452
-0.000478594
0.000315843
-0.000558641
0.000354097
-0.000639276
0.000395225
-0.000719772
0.000439251
-0.000799215
0.000486237
-0.000876362
0.000536266
-0.000949377
0.000589303
-0.00101526
-0.00106871
0.000644671
4.04231e-06
5.71043e-05
1.28334e-05
0.00013359
2.44281e-05
0.00017887
3.77435e-05
0.000198341
5.22685e-05
0.000196865
6.78711e-05
0.000178645
8.4652e-05
0.000147142
0.000102838
0.000105097
0.000122714
5.46185e-05
0.000144574
-2.69771e-06
0.000168699
-6.56507e-05
0.000195341
-0.000133325
0.000224719
-0.000204996
0.000257005
-0.000280059
0.000292329
-0.000357967
0.000330772
-0.00043819
0.000372358
-0.00052018
0.00041706
-0.000603344
0.000464806
-0.000687022
0.000515489
-0.000770456
0.000569005
-0.00085273
0.000625286
-0.000932642
0.000684322
-0.00100841
0.000746084
-0.00107703
-0.00113265
0.000810014
4.29928e-06
5.2805e-05
1.40557e-05
0.000123833
2.73875e-05
0.000165539
4.31994e-05
0.000182529
6.09324e-05
0.000179132
8.03965e-05
0.000159181
0.000101639
0.0001259
0.000124848
8.18885e-05
0.000150279
2.91868e-05
0.000178217
-3.06349e-05
0.000208936
-9.63706e-05
0.000242692
-0.00016708
0.0002797
-0.000242003
0.000320127
-0.000320486
0.000364084
-0.000401924
0.000411616
-0.000485722
0.000462693
-0.000571257
0.000517209
-0.00065786
0.000574985
-0.000744797
0.000635782
-0.000831253
0.000699339
-0.000916287
0.000765419
-0.000998722
0.000833866
-0.00107686
0.000904592
-0.00114775
-0.00120518
0.00097713
4.40432e-06
4.84006e-05
1.48003e-05
0.000113437
2.94537e-05
0.000150885
4.73151e-05
0.000164668
6.7819e-05
0.000158628
9.0746e-05
0.000136254
0.000116111
0.000100535
0.000144074
5.3925e-05
0.000174878
-1.61694e-06
0.000208798
-6.45547e-05
0.000246111
-0.000133684
0.000287071
-0.00020804
0.000331889
-0.000286822
0.000380718
-0.000369314
0.000433635
-0.000454841
0.000490631
-0.000542718
0.0005516
-0.000632225
0.000616332
-0.000722591
0.000684517
-0.000812983
0.000755763
-0.000902499
0.000829628
-0.000990151
0.000905679
-0.00107477
0.000983576
-0.00115476
0.00106312
-0.00122729
-0.00128597
0.0011439
4.3744e-06
4.40262e-05
1.5114e-05
0.000102697
3.07057e-05
0.000135294
5.02011e-05
0.000145172
7.30699e-05
0.000135759
9.90953e-05
0.000110229
0.000128283
7.13471e-05
0.000160784
2.14235e-05
0.000196837
-3.76694e-05
0.000236716
-0.000104434
0.000280699
-0.000177667
0.000329034
-0.000256376
0.000381916
-0.000339703
0.00043946
-0.000426858
0.000501685
-0.000517067
0.000568499
-0.000609531
0.00063968
-0.000703407
0.000714883
-0.000797794
0.000793638
-0.000891737
0.000875369
-0.00098423
0.000959437
-0.00107422
0.0010452
-0.00116054
0.00113213
-0.00124168
0.00121986
-0.00131503
-0.00137415
0.00130805
4.23497e-06
3.97913e-05
1.50731e-05
9.18593e-05
3.12829e-05
0.000119084
5.2066e-05
0.000124389
7.69679e-05
0.000110858
0.000105807
8.13896e-05
0.000138605
3.85489e-05
0.000175523
-1.54943e-05
0.000216804
-7.895e-05
0.000262725
-0.000150355
0.000313559
-0.0002285
0.000369532
-0.000312349
0.000430797
-0.000400969
0.000497403
-0.000493464
0.00056927
-0.000588934
0.000646175
-0.000686436
0.000727741
-0.000784973
0.000813442
-0.000883495
0.000902613
-0.000980908
0.000994478
-0.0010761
0.00108819
-0.00116793
0.00118291
-0.00125526
0.00127791
-0.00133668
0.0013727
-0.00140982
-0.00146838
0.00146694
4.01826e-06
3.5773e-05
1.47781e-05
8.10995e-05
3.13749e-05
0.000102487
5.32014e-05
0.000102563
7.99156e-05
8.41434e-05
0.000111402
4.99028e-05
0.000147724
2.22751e-06
0.000189065
-5.68354e-05
0.000235681
-0.000125566
0.000287849
-0.000202523
0.000345817
-0.000286469
0.000409767
-0.000376299
0.000479771
-0.000470972
0.000555762
-0.000569456
0.000637511
-0.000670683
0.000724613
-0.000773538
0.000816485
-0.000876845
0.000912378
-0.000979388
0.0010114
-0.00107993
0.00111257
-0.00117726
0.00121485
-0.00127021
0.00131721
-0.00135763
0.00141879
-0.00143826
0.00151897
-0.00151
-0.00156682
0.00161741
3.76111e-06
3.20119e-05
1.43464e-05
7.05143e-05
3.12071e-05
8.56263e-05
5.39582e-05
7.98115e-05
8.24014e-05
5.57002e-05
0.000116514
1.57898e-05
0.000156419
-3.7677e-05
0.000202335
-0.000102751
0.000254527
-0.000177759
0.000313256
-0.000261251
0.00037872
-0.000351932
0.000451011
-0.00044859
0.000530071
-0.000550033
0.000615663
-0.000655047
0.000707346
-0.000762367
0.000804478
-0.000870669
0.00090622
-0.000978588
0.00101157
-0.00108474
0.0011194
-0.00118777
0.00122851
-0.00128637
0.00133769
-0.00137939
0.0014458
-0.00146573
0.0015519
-0.00154436
0.00165533
-0.00161344
-0.00166725
0.00175576
3.50243e-06
2.85095e-05
1.39036e-05
6.01131e-05
3.10228e-05
6.85071e-05
5.4718e-05
5.61162e-05
8.49569e-05
2.54613e-05
0.00012183
-2.10829e-05
0.000165528
-8.13759e-05
0.000216307
-0.00015353
0.000274429
-0.000235881
0.000340106
-0.000326929
0.000413446
-0.000425272
0.000494396
-0.00052954
0.000582707
-0.000638344
0.000677904
-0.000750244
0.000779278
-0.000863741
0.000885899
-0.000977291
0.000996645
-0.00108933
0.00111024
-0.00119834
0.00122534
-0.00130286
0.00134053
-0.00140157
0.00145447
-0.00149333
0.00156593
-0.00157719
0.00167392
-0.00165235
0.00177789
-0.0017174
-0.00176717
0.00187781
3.28027e-06
2.52292e-05
1.35739e-05
4.98195e-05
3.10637e-05
5.10172e-05
5.586e-05
3.132e-05
8.81086e-05
-6.78727e-06
0.00012802
-6.09947e-05
0.000175858
-0.000129214
0.000231898
-0.000209569
0.000296369
-0.000300351
0.000369395
-0.000399955
0.000450933
-0.00050681
0.000540723
-0.00061933
0.000638254
-0.000735875
0.000742753
-0.000854742
0.000853191
-0.000974179
0.000968321
-0.00109242
0.00108673
-0.00120774
0.00120689
-0.0013185
0.00132727
-0.00142324
0.00144637
-0.00152066
0.00156278
-0.00160973
0.00167524
-0.00168965
0.00178257
-0.00175968
0.00188349
-0.00181832
-0.00186155
0.00197787
3.12863e-06
2.21006e-05
1.34695e-05
3.94786e-05
3.15499e-05
3.29368e-05
5.77284e-05
5.14149e-06
9.23295e-05
-4.13883e-05
0.000135681
-0.000104346
0.000188101
-0.000181635
0.000249858
-0.000271326
0.000321105
-0.000371598
0.000401818
-0.000480668
0.000491737
-0.000596728
0.000590321
-0.000717914
0.000696734
-0.000842288
0.000809849
-0.000967858
0.000928287
-0.00109262
0.00105047
-0.00121461
0.00117473
-0.00133199
0.00129933
-0.0014431
0.00142263
-0.00154654
0.00154314
-0.00164117
0.00165958
-0.00172618
0.00177099
-0.00180106
0.00187681
-0.0018655
0.00197774
-0.00191926
-0.00196045
0.00207664
3.07613e-06
1.90244e-05
1.36845e-05
2.88703e-05
3.26635e-05
1.39579e-05
6.06042e-05
-2.27993e-05
9.79969e-05
-7.8781e-05
0.000145267
-0.000151616
0.000202759
-0.000239127
0.000270687
-0.000339254
0.000349071
-0.000449982
0.000437668
-0.000569265
0.000535927
-0.000694988
0.000642962
-0.000824949
0.000757552
-0.000956879
0.000878187
-0.00108849
0.00100313
-0.00121756
0.0011305
-0.00134198
0.00125839
-0.00145988
0.00138496
-0.00156967
0.00150853
-0.00167011
0.00162766
-0.0017603
0.00174122
-0.00183975
0.00184845
-0.00190829
0.00194902
-0.00196607
0.0020432
-0.00201343
-0.00204906
0.00213181
3.14228e-06
1.58822e-05
1.42852e-05
1.77273e-05
3.45341e-05
-6.29097e-06
6.46844e-05
-5.29496e-05
0.000105365
-0.000119461
0.000157065
-0.000203316
0.000220109
-0.00030217
0.000294597
-0.000413743
0.000380344
-0.000535729
0.000476816
-0.000665737
0.0005831
-0.000801271
0.000697902
-0.000939751
0.000819589
-0.00107857
0.000946258
-0.00121516
0.00107584
-0.00134714
0.00120621
-0.00147235
0.00133532
-0.00158899
0.0014613
-0.00169565
0.00158253
-0.00179133
0.00169772
-0.00187549
0.00180595
-0.00194798
0.00190666
-0.002009
0.00199965
-0.00205906
0.00208498
-0.00209876
-0.00212737
0.00216329
3.33808e-06
1.25441e-05
1.53101e-05
5.75527e-06
3.7235e-05
-2.82158e-05
7.0073e-05
-8.57876e-05
0.000114551
-0.00016394
0.000171173
-0.000259939
0.000240182
-0.000371179
0.000321496
-0.000495056
0.000414643
-0.000628877
0.000518726
-0.000769819
0.000632407
-0.000914953
0.000753952
-0.0010613
0.000881304
-0.00120592
0.0010122
-0.00134606
0.0011443
-0.00147924
0.00127533
-0.00160339
0.00140321
-0.00171687
0.00152613
-0.00181857
0.00164267
-0.00190787
0.00175179
-0.00198461
0.00185284
-0.00204904
0.00194558
-0.00210174
0.00203006
-0.00214354
0.00210662
-0.00217533
-0.00219701
0.00217627
3.66587e-06
8.87822e-06
1.67692e-05
-7.34804e-06
4.07831e-05
-5.22297e-05
7.67827e-05
-0.000121787
0.00012554
-0.000212697
0.000187512
-0.00032191
0.000262786
-0.000446453
0.000351017
-0.000583287
0.000451373
-0.000729233
0.000562524
-0.00088097
0.000682668
-0.0010351
0.000809616
-0.00118824
0.000940919
-0.00133722
0.00107402
-0.00147915
0.0012064
-0.00161162
0.00133574
-0.00173273
0.00146006
-0.00184119
0.00157776
-0.00193627
0.00168767
-0.00201778
0.0017891
-0.00208604
0.00188175
-0.00214169
0.0019657
-0.00218569
0.0020413
-0.00221914
0.00210917
-0.0022432
-0.00225823
0.00217039
4.12073e-06
4.75748e-06
1.86482e-05
-2.18755e-05
4.51462e-05
-7.87278e-05
8.47461e-05
-0.000161387
0.000138201
-0.000266151
0.000205845
-0.000389555
0.000287533
-0.000528141
0.000382572
-0.000678327
0.000489699
-0.00083636
0.000607099
-0.00099837
0.000732487
-0.00116048
0.000863246
-0.001319
0.000996593
-0.00147057
0.00112977
-0.00161233
0.0012602
-0.00174206
0.00138568
-0.00185821
0.0015044
-0.00195991
0.00161509
-0.00204695
0.00171694
-0.00211964
0.00180963
-0.00217873
0.00189323
-0.00222529
0.00196815
-0.0022606
0.00203503
-0.00228602
0.0020947
-0.00230287
-0.00231189
0.00214836
4.69248e-06
6.50042e-08
2.09141e-05
-3.80971e-05
5.02539e-05
-0.000108068
9.38329e-05
-0.000204966
0.000152311
-0.000324629
0.000225821
-0.000463064
0.000313894
-0.000616214
0.000415415
-0.000779848
0.000528627
-0.000949572
0.000651202
-0.00112095
0.000780387
-0.00128967
0.000913188
-0.0014518
0.00104659
-0.00160396
0.00117774
-0.00174348
0.00130416
-0.00186848
0.00142385
-0.00197789
0.00153534
-0.0020714
0.00163771
-0.00214933
0.00173059
-0.00221251
0.00181402
-0.00226216
0.00188843
-0.0022997
0.00195452
-0.00232669
0.00201314
-0.00234465
0.0020653
-0.00235503
-0.00235876
0.00211217
5.36782e-06
-5.30282e-06
2.35221e-05
-5.62513e-05
5.60095e-05
-0.000140555
0.000103869
-0.000252825
0.000167586
-0.000388347
0.000247004
-0.000542482
0.000341248
-0.000710458
0.000448706
-0.000887306
0.000567087
-0.00106795
0.000693551
-0.00124741
0.000824918
-0.00142104
0.00095791
-0.0015848
0.00108939
-0.00173544
0.00121657
-0.00187067
0.00133718
-0.00198909
0.00144955
-0.00209026
0.0015526
-0.00217445
0.00164585
-0.00224258
0.00172932
-0.00229599
0.00180345
-0.00233628
0.00186894
-0.0023652
0.00192672
-0.00238447
0.00197781
-0.00239574
0.00202328
-0.00240049
-0.00239976
0.00206427
6.13236e-06
-1.14352e-05
2.64209e-05
-7.65399e-05
6.23015e-05
-0.000176436
0.000114653
-0.000305177
0.000183703
-0.000457396
0.000268912
-0.000627692
0.000368921
-0.000810467
0.000481566
-0.000999951
0.000604001
-0.00119039
0.000732907
-0.00137632
0.000864756
-0.00155289
0.000996099
-0.00171614
0.00112382
-0.00186316
0.00124532
-0.00199217
0.00135866
-0.00210244
0.00146258
-0.00219417
0.00155645
-0.00226832
0.00164023
-0.00232636
0.00171432
-0.00237008
0.00177946
-0.00240142
0.0018366
-0.00242234
0.00188682
-0.00243469
0.0019312
-0.00244013
0.00197083
-0.00244012
-0.00243572
0.0020068
6.97194e-06
-1.84071e-05
2.95576e-05
-9.91255e-05
6.90117e-05
-0.00021589
0.000125973
-0.000362138
0.000200317
-0.00053174
0.000291041
-0.000718416
0.000396227
-0.000915652
0.000513123
-0.00111685
0.000638343
-0.00131561
0.000768148
-0.00150612
0.000898771
-0.00168351
0.00102673
-0.00184409
0.00114905
-0.00198549
0.00126348
-0.0021066
0.00136848
-0.00220744
0.00146326
-0.00228895
0.00154764
-0.00235271
0.001622
-0.00240071
0.00168706
-0.00243514
0.0017438
-0.00245817
0.00179335
-0.00247189
0.00183683
-0.00247817
0.00187537
-0.00247867
0.00191
-0.00247475
-0.00246742
0.00194171
7.87337e-06
-2.62805e-05
3.28798e-05
-0.000124132
7.60201e-05
-0.00025903
0.000137607
-0.000423726
0.000217079
-0.000611212
0.000312883
-0.000814219
0.000422489
-0.00102526
0.000542549
-0.00123691
0.000669177
-0.00144224
0.000798311
-0.00163525
0.000926072
-0.00181127
0.00104908
-0.0019671
0.00116467
-0.00210108
0.00127098
-0.0022129
0.00136696
-0.00230342
0.00145229
-0.00237428
0.00152725
-0.00242766
0.00159254
-0.002466
0.00164916
-0.00249176
0.00169826
-0.00250727
0.00174104
-0.00251466
0.00177865
-0.00251578
0.00181216
-0.00251218
0.00184254
-0.00250513
-0.00249553
0.00187065
8.82448e-06
-3.5105e-05
3.63365e-05
-0.000151644
8.32073e-05
-0.000305901
0.000149338
-0.000489856
0.000233639
-0.000695514
0.00033394
-0.00091452
0.000447066
-0.00113838
0.000569089
-0.00135893
0.000695702
-0.00156885
0.000822634
-0.00176219
0.00094604
-0.00193468
0.00106278
-0.00208384
0.00117059
-0.00220888
0.00126809
-0.00231041
0.00135474
-0.00239007
0.00143067
-0.00245021
0.00149654
-0.00249354
0.00155335
-0.00252281
0.00160227
-0.00254068
0.00164455
-0.00254955
0.0016814
-0.00255151
0.00171394
-0.00254832
0.00174316
-0.0025414
0.00176992
-0.00253189
-0.00252057
0.00179496
9.81377e-06
-4.49188e-05
3.98777e-05
-0.000181708
9.04543e-05
-0.000356478
0.000160946
-0.000560348
0.000249655
-0.000784223
0.000353737
-0.0010186
0.000469366
-0.00125401
0.000592086
-0.00148165
0.000717268
-0.00169403
0.000840572
-0.00188549
0.000958326
-0.00205243
0.00106775
-0.00219327
0.00116707
-0.0023082
0.00125541
-0.00239875
0.00133273
-0.00246739
0.00139957
-0.00251706
0.00145691
-0.00255087
0.00150594
-0.00257184
0.00154796
-0.00258269
0.00158423
-0.00258582
0.00161593
-0.00258322
0.00164411
-0.0025765
0.00166966
-0.00256695
0.00169333
-0.00255556
-0.00254296
0.00171572
1.08299e-05
-5.57486e-05
4.3453e-05
-0.000214331
9.76421e-05
-0.000410667
0.000172215
-0.00063492
0.000264796
-0.000876804
0.000371832
-0.00112564
0.000488867
-0.00137105
0.000610997
-0.00160378
0.000733397
-0.00181643
0.000851803
-0.0020039
0.000962842
-0.00216347
0.0010642
-0.00229463
0.00115461
-0.00239861
0.00123375
-0.00247788
0.00130199
-0.00253563
0.00136025
-0.00257531
0.00140972
-0.00260035
0.00145174
-0.00261386
0.00148764
-0.0026186
0.00151867
-0.00261685
0.00154592
-0.00261047
0.00157035
-0.00260093
0.00159273
-0.00258933
0.0016137
-0.00257652
-0.00256302
0.00163376
1.1861e-05
-6.76096e-05
4.70115e-05
-0.000249482
0.000104651
-0.000468306
0.000182933
-0.000713203
0.000278747
-0.000972618
0.000387824
-0.00123472
0.000505126
-0.00148835
0.000625409
-0.00172406
0.000743791
-0.00193481
0.000856218
-0.00211632
0.000959732
-0.00226698
0.00105254
-0.00238744
0.00113392
-0.00247999
0.00120403
-0.00254799
0.00126364
-0.00259524
0.00131393
-0.00262561
0.00135627
-0.00264268
0.00139204
-0.00264963
0.00142257
-0.00264912
0.00144903
-0.0026433
0.00147242
-0.00263386
0.00149358
-0.00262209
0.00151318
-0.00260894
0.00153175
-0.00259509
-0.00258096
0.00154968
1.28946e-05
-8.05042e-05
5.05003e-05
-0.000287087
0.000111362
-0.000529168
0.000192897
-0.000794738
0.00029122
-0.00107094
0.000401365
-0.00134486
0.000517794
-0.00160478
0.000635044
-0.00184131
0.000748321
-0.00204809
0.000853905
-0.00222191
0.000949335
-0.00236241
0.00103337
-0.00247147
0.00110582
-0.00255244
0.00116726
-0.00260943
0.0012188
-0.00264678
0.00126181
-0.00266862
0.00129774
-0.00267861
0.00132798
-0.00267988
0.00135379
-0.00267493
0.00137626
-0.00266577
0.00139627
-0.00265388
0.00141455
-0.00264037
0.00143166
-0.00262605
0.00144803
-0.00261146
-0.00259691
0.00146398
1.39173e-05
-9.44216e-05
5.38656e-05
-0.000327035
0.000117656
-0.000592959
0.000201911
-0.000878992
0.000301956
-0.00117099
0.00041217
-0.00145507
0.000526619
-0.00171923
0.000639762
-0.00195446
0.000747021
-0.00215535
0.000845118
-0.00232
0.000932139
-0.00244943
0.0010074
-0.00254674
0.00107119
-0.00261623
0.00112446
-0.0026627
0.00116856
-0.00269088
0.00120497
-0.00270503
0.00123518
-0.00270882
0.00126053
-0.00270522
0.00128219
-0.00269659
0.00130113
-0.00268471
0.00131814
-0.00267088
0.00133382
-0.00265605
0.00134864
-0.00264087
0.00136296
-0.00262577
-0.00261096
0.00137701
1.49149e-05
-0.000109337
5.7053e-05
-0.000369173
0.000123421
-0.000659326
0.000209799
-0.000965371
0.000310735
-0.00127192
0.000420023
-0.00156436
0.000531455
-0.00183066
0.000639548
-0.00206255
0.000740066
-0.00225587
0.000830243
-0.00241018
0.000908736
-0.00252793
0.000975393
-0.00261339
0.00103093
-0.00267176
0.00107659
-0.00270836
0.00111388
-0.00272817
0.00114436
-0.00273551
0.00116947
-0.00273393
0.00119048
-0.00272624
0.00120846
-0.00271457
0.00122425
-0.00270051
0.00123854
-0.00268517
0.00125183
-0.00266934
0.0012645
-0.00265354
0.00127684
-0.00263811
-0.00262315
0.00128903
1.58725e-05
-0.000125209
6.00085e-05
-0.000413309
0.000128548
-0.000727865
0.000216405
-0.00105323
0.000317379
-0.0013729
0.000424779
-0.00167176
0.000532251
-0.00193813
0.000634505
-0.0021648
0.000727743
-0.00234911
0.000809761
-0.0024922
0.000879783
-0.00259795
0.00093814
-0.00267175
0.000985901
-0.00271952
0.00102454
-0.002747
0.00105566
-0.00275929
0.0010808
-0.00276066
0.00110136
-0.00275449
0.0011185
-0.00274338
0.00113317
-0.00272924
0.00114611
-0.00271345
0.00115789
-0.00269695
0.00116892
-0.00268038
0.00117952
-0.00266415
0.00118992
-0.0026485
-0.00263348
0.00120024
1.67751e-05
-0.000141984
6.26803e-05
-0.000459215
0.00013294
-0.000798125
0.000221598
-0.00114189
0.000321763
-0.00147306
0.000426367
-0.00177637
0.000529051
-0.00204082
0.000624833
-0.00226058
0.00071043
-0.0024347
0.000784219
-0.00256599
0.000845961
-0.00265969
0.000896413
-0.0027222
0.000936929
-0.00276004
0.000969129
-0.0027792
0.000994653
-0.00278482
0.001015
-0.00278101
0.00103148
-0.00277096
0.00104513
-0.00275702
0.00105678
-0.00274089
0.00106707
-0.00272374
0.00107648
-0.00270635
0.00108535
-0.00268924
0.00109392
-0.00267272
0.00110238
-0.00265695
-0.00264193
0.00111083
1.76079e-05
-0.000159592
6.50201e-05
-0.000506627
0.000136512
-0.000869617
0.000225275
-0.00123065
0.000323805
-0.00157159
0.000424786
-0.00187735
0.000521977
-0.00213801
0.000610811
-0.00234942
0.000688564
-0.00251246
0.000754192
-0.00263162
0.000807947
-0.00271345
0.000850945
-0.0027652
0.000884751
-0.00279384
0.000911069
-0.00280552
0.000931525
-0.00280527
0.000947546
-0.00279703
0.000960317
-0.00278373
0.000970773
-0.00276748
0.000979634
-0.00274975
0.000987433
-0.00273154
0.000994563
-0.00271348
0.00100131
-0.00269599
0.00100786
-0.00267928
0.00101437
-0.00266346
-0.00264847
0.00102091
1.83567e-05
-0.000177949
6.69843e-05
-0.000555254
0.000139194
-0.000941827
0.000227364
-0.00131882
0.000323478
-0.0016677
0.000420095
-0.00197396
0.00051122
-0.00222913
0.000592775
-0.00243097
0.00066262
-0.0025823
0.000720263
-0.00268926
0.000766393
-0.00275958
0.000802411
-0.00280122
0.000830028
-0.00282146
0.000850975
-0.00282647
0.000866825
-0.00282112
0.000878907
-0.00280911
0.000888286
-0.00279311
0.000895783
-0.00277498
0.000902011
-0.00275598
0.000907418
-0.00273695
0.000912326
-0.00271839
0.000916965
-0.00270063
0.000921495
-0.00268381
0.000926021
-0.00266798
-0.00265307
0.000930615
1.90081e-05
-0.000196957
6.85353e-05
-0.000604782
0.000140933
-0.00101422
0.000227826
-0.00140571
0.000320797
-0.00176068
0.000412411
-0.00206558
0.000497023
-0.00231375
0.000571099
-0.00250505
0.000633086
-0.00264429
0.000683002
-0.00273917
0.000721907
-0.00279848
0.000751422
-0.00283073
0.000773339
-0.00284338
0.000789372
-0.0028425
0.000801012
-0.00283276
0.000809476
-0.00281758
0.000815709
-0.00279934
0.000820421
-0.00277969
0.00082413
-0.00275969
0.000827208
-0.00274002
0.00082992
-0.0027211
0.000832452
-0.00270316