/*--------------------------------*- C++ -*----------------------------------*\
  =========                 |
  \\      /  F ield         | OpenFOAM: The Open Source CFD Toolbox
   \\    /   O peration     | Website:  https://openfoam.org
    \\  /    A nd           | Version:  6.0
     \\/     M anipulation  |
\*---------------------------------------------------------------------------*/
FoamFile
{
    version     2.0;
    format      ascii;
    class       volVectorField;
    location    "69";
    object      U;
}
// * * * * * * * * * * * * * * * * * * * * * * * * * * * * * * * * * * * * * //

dimensions      [0 1 -1 0 0 0 0];

internalField   nonuniform List<vector> 
12500
(
(-0.00137777 0.0163464 -1.31992e-21)
(-0.00637348 0.0284281 2.0305e-20)
(-0.0150264 0.0260794 -2.97611e-20)
(-0.025383 0.0139773 1.37543e-20)
(-0.036516 -0.00440346 7.77293e-22)
(-0.0479362 -0.0265894 -1.62158e-21)
(-0.0592743 -0.0508857 -2.53862e-20)
(-0.0702545 -0.0761753 1.39653e-20)
(-0.0806704 -0.101745 9.3841e-21)
(-0.0903623 -0.127141 9.46957e-21)
(-0.0992061 -0.152061 -1.61378e-20)
(-0.107108 -0.176287 9.37483e-21)
(-0.114001 -0.199634 -4.43435e-21)
(-0.119844 -0.221941 7.56591e-21)
(-0.124619 -0.243062 -1.92455e-20)
(-0.128327 -0.262878 2.75411e-20)
(-0.130988 -0.281301 -5.13071e-21)
(-0.132641 -0.298295 -1.96653e-20)
(-0.133334 -0.313877 1.02076e-20)
(-0.133131 -0.328131 -9.69745e-21)
(-0.132113 -0.34121 8.57092e-21)
(-0.130363 -0.353339 1.10801e-20)
(-0.127888 -0.364815 1.16612e-21)
(-0.124672 -0.376046 -3.19495e-20)
(-0.121369 -0.387601 1.80178e-20)
(-0.00205181 0.018922 2.65732e-20)
(-0.00781912 0.0345625 -7.06947e-20)
(-0.0169864 0.034608 2.07566e-20)
(-0.0276867 0.0240875 1.40932e-20)
(-0.0390643 0.00669982 -1.12392e-20)
(-0.0506808 -0.0149342 -6.47336e-20)
(-0.0621954 -0.039022 1.92275e-20)
(-0.0733477 -0.0643834 -3.6876e-20)
(-0.0839393 -0.0902625 4.40854e-20)
(-0.0938133 -0.116175 -5.89369e-20)
(-0.102845 -0.141795 3.13454e-20)
(-0.110937 -0.166879 1.05646e-20)
(-0.118018 -0.191222 -2.57346e-20)
(-0.124038 -0.214639 -1.11461e-20)
(-0.128967 -0.236961 8.34239e-20)
(-0.132796 -0.258043 -7.40086e-20)
(-0.135535 -0.277775 1.79461e-20)
(-0.137209 -0.296091 3.06883e-20)
(-0.137861 -0.312985 -6.4037e-21)
(-0.137548 -0.328514 4.85066e-20)
(-0.136349 -0.342808 9.00401e-21)
(-0.134343 -0.356067 -3.88267e-21)
(-0.131576 -0.368565 -6.17063e-20)
(-0.128117 -0.38069 5.59926e-20)
(-0.124401 -0.392985 -1.15571e-19)
(-0.0028594 0.0215431 8.66682e-20)
(-0.00950397 0.0408726 2.9495e-20)
(-0.0191279 0.0434537 -3.9749e-20)
(-0.0300261 0.034651 1.74992e-20)
(-0.04145 0.0183775 1.5652e-20)
(-0.0530296 -0.00260132 6.09368e-20)
(-0.0644645 -0.0263942 -7.82296e-20)
(-0.0755178 -0.0517549 -1.34971e-20)
(-0.0860041 -0.0778831 -5.32383e-20)
(-0.095773 -0.104263 -4.44795e-20)
(-0.104702 -0.130544 5.64887e-20)
(-0.112692 -0.156463 -1.92223e-19)
(-0.119667 -0.181795 -6.76443e-21)
(-0.125568 -0.206335 -1.16461e-19)
(-0.130357 -0.229895 -1.38206e-20)
(-0.134012 -0.252306 1.60345e-20)
(-0.13653 -0.273432 -9.10315e-20)
(-0.137925 -0.293178 -5.69788e-20)
(-0.138231 -0.311504 -6.67335e-20)
(-0.137501 -0.328437 1.03961e-19)
(-0.135808 -0.34407 3.72112e-20)
(-0.133235 -0.35857 -1.7061e-19)
(-0.129868 -0.372179 -8.12362e-20)
(-0.12586 -0.385259 -9.10928e-20)
(-0.121437 -0.398305 2.61201e-19)
(-0.00379401 0.0241256 -1.66117e-21)
(-0.0114095 0.0471769 -6.89213e-20)
(-0.0214138 0.0523884 -3.51249e-20)
(-0.0323427 0.0454204 2.21981e-20)
(-0.043591 0.0303785 1.3211e-19)
(-0.0548758 0.010164 -5.90113e-20)
(-0.0659495 -0.0132355 1.28277e-19)
(-0.076607 -0.0385071 1.23691e-19)
(-0.086681 -0.0648048 7.51415e-20)
(-0.0960318 -0.0915808 -6.6677e-22)
(-0.104541 -0.118462 1.53128e-19)
(-0.112112 -0.145166 2.70335e-20)
(-0.118663 -0.171455 1.18036e-19)
(-0.12413 -0.197108 2.73483e-19)
(-0.128465 -0.221919 -3.17842e-19)
(-0.131636 -0.245699 4.79498e-19)
(-0.133626 -0.268285 1.04152e-19)
(-0.134439 -0.289552 -2.32292e-19)
(-0.1341 -0.309421 -3.18549e-20)
(-0.132657 -0.327877 8.25159e-20)
(-0.130182 -0.344969 -4.25075e-20)
(-0.126759 -0.360816 -2.61913e-20)
(-0.12252 -0.375619 -2.47901e-20)
(-0.117702 -0.389703 -9.81958e-20)
(-0.112345 -0.403491 3.65593e-19)
(-0.00484001 0.0265799 4.69541e-20)
(-0.0135023 0.0532829 -2.23801e-19)
(-0.0237957 0.0611673 2.74766e-19)
(-0.0345733 0.0561281 -1.09325e-19)
(-0.0454094 0.0424306 1.33497e-19)
(-0.0561257 0.0230956 1.10988e-19)
(-0.0665403 0.000200591 4.25021e-20)
(-0.0764875 -0.0248765 4.25284e-21)
(-0.0858241 -0.0512436 2.40336e-19)
(-0.0944246 -0.0783216 1.6873e-19)
(-0.102179 -0.105716 -6.53884e-20)
(-0.108992 -0.13313 -4.29296e-20)
(-0.114784 -0.160313 1.85866e-19)
(-0.119485 -0.187035 3.46501e-20)
(-0.123041 -0.213078 9.71792e-20)
(-0.125408 -0.238234 2.28948e-19)
(-0.126562 -0.262316 -1.94417e-19)
(-0.126496 -0.285165 1.55297e-19)
(-0.125227 -0.306663 -3.42158e-19)
(-0.122801 -0.326743 2.86563e-19)
(-0.119286 -0.345397 2.04903e-21)
(-0.114777 -0.362685 -2.29298e-19)
(-0.109446 -0.378752 8.99539e-20)
(-0.103612 -0.39387 2.0546e-19)
(-0.0971734 -0.408368 -3.21781e-19)
(-0.00597303 0.0288162 2.46636e-19)
(-0.0157344 0.0589934 -2.72336e-19)
(-0.0262144 0.0695375 -4.20791e-20)
(-0.0366528 0.0664961 5.72005e-20)
(-0.0468349 0.0542487 -1.21126e-19)
(-0.0567038 0.0359127 -1.88921e-19)
(-0.0661543 0.0136447 -1.59862e-19)
(-0.0750689 -0.0111163 -3.87306e-20)
(-0.0833336 -0.0374336 -2.76136e-19)
(-0.0908412 -0.0646968 2.27976e-19)
(-0.097493 -0.092491 -3.48732e-19)
(-0.103201 -0.120508 1.79876e-19)
(-0.107885 -0.14849 -5.5833e-20)
(-0.111478 -0.176201 1.3753e-19)
(-0.11392 -0.203415 -3.4801e-19)
(-0.115164 -0.22991 1.73746e-19)
(-0.115176 -0.25548 1.51307e-20)
(-0.113944 -0.279932 7.57432e-20)
(-0.111479 -0.303104 4.56595e-19)
(-0.107825 -0.324874 1.03264e-19)
(-0.103053 -0.345166 -8.02948e-21)
(-0.0972645 -0.363967 2.90374e-20)
(-0.0906734 -0.381348 1.88103e-19)
(-0.0836758 -0.397511 5.49062e-20)
(-0.076088 -0.412669 1.85892e-19)
(-0.00716081 0.0307494 -1.5331e-19)
(-0.0180448 0.0641182 2.26797e-19)
(-0.0286028 0.0772502 1.50364e-20)
(-0.0385167 0.0762457 -2.82688e-19)
(-0.0478084 0.065543 6.04762e-19)
(-0.056556 0.0483261 -1.95316e-19)
(-0.064742 0.0268157 2.90532e-19)
(-0.072304 0.00250504 2.66596e-19)
(-0.0791629 -0.0236263 -2.20943e-19)
(-0.085234 -0.0509376 -3.25975e-19)
(-0.0904334 -0.078995 9.0288e-20)
(-0.0946827 -0.10748 -9.65296e-20)
(-0.0979095 -0.136131 -4.25695e-19)
(-0.100048 -0.16471 5.24867e-19)
(-0.101042 -0.192987 -2.52694e-19)
(-0.100841 -0.220735 -1.73376e-19)
(-0.0994109 -0.247728 5.26361e-21)
(-0.0967356 -0.273747 1.46947e-19)
(-0.0928251 -0.298587 5.80075e-20)
(-0.0877224 -0.322065 -2.28744e-19)
(-0.0815033 -0.344032 2.65938e-19)
(-0.0742813 -0.364386 -4.51969e-19)
(-0.0663041 -0.383108 2.78353e-19)
(-0.0580401 -0.400304 -2.0696e-19)
(-0.0492891 -0.416052 6.29672e-20)
(-0.00836486 0.032305 2.32083e-19)
(-0.0203629 0.0684837 -1.8535e-19)
(-0.0308888 0.084071 -1.18162e-19)
(-0.0401039 0.085108 -2.11414e-19)
(-0.0482843 0.0760278 -3.87737e-19)
(-0.0556533 0.0600453 -2.87969e-19)
(-0.0622894 0.0394257 1.83916e-19)
(-0.0681925 0.0157078 -2.80304e-19)
(-0.0733234 -0.0100896 3.57345e-19)
(-0.0776241 -0.0372964 -5.8699e-19)
(-0.0810292 -0.0654598 2.63346e-19)
(-0.0834739 -0.094252 5.59331e-19)
(-0.0848964 -0.123409 -7.92049e-19)
(-0.0852395 -0.152696 1.14349e-19)
(-0.0844517 -0.181883 1.50081e-19)
(-0.0824894 -0.210741 1.42751e-19)
(-0.0793208 -0.239034 -1.52403e-19)
(-0.0749318 -0.266519 -3.54154e-20)
(-0.0693344 -0.292953 -1.17214e-19)
(-0.0625753 -0.318097 -9.33977e-20)
(-0.0547368 -0.341722 -5.20508e-19)
(-0.0459452 -0.363628 -3.51584e-20)
(-0.0364754 -0.383687 6.27046e-21)
(-0.0268598 -0.401885 -2.29792e-19)
(-0.0169534 -0.418145 2.51131e-19)
(-0.0095428 0.0334234 8.34251e-21)
(-0.0226116 0.0719422 7.59232e-20)
(-0.0329984 0.0897915 8.11823e-20)
(-0.0413595 0.0928348 4.47502e-20)
(-0.048233 0.0854312 4.00292e-19)
(-0.0539927 0.0707863 3.82026e-19)
(-0.0588198 0.0511868 -3.11078e-19)
(-0.0627822 0.0282055 -9.87687e-20)
(-0.0658857 0.00289561 -8.65393e-20)
(-0.0681027 -0.0240446 4.48358e-19)
(-0.0693904 -0.0521434 1.6537e-19)
(-0.069701 -0.0810637 -2.36394e-19)
(-0.0689872 -0.11054 -2.04723e-19)
(-0.0672044 -0.14034 4.93656e-19)
(-0.0643125 -0.17024 -1.22882e-19)
(-0.0602781 -0.200013 -1.50991e-19)
(-0.0550784 -0.229418 -2.08797e-19)
(-0.0487069 -0.2582 -1.6418e-19)
(-0.0411821 -0.286084 -2.09736e-19)
(-0.0325575 -0.31278 -1.34584e-19)
(-0.0229248 -0.337983 5.60938e-19)
(-0.0124239 -0.361393 -2.77684e-19)
(-0.00134893 -0.38275 1.86128e-19)
(0.00971513 -0.401899 -4.87337e-19)
(0.0207857 -0.418589 2.09354e-19)
(-0.0106511 0.0340639 -2.13753e-19)
(-0.0247118 0.0743806 -5.94361e-20)
(-0.0348594 0.094239 -4.56223e-19)
(-0.0422369 0.0992088 -2.22533e-19)
(-0.047641 0.093505 -4.39346e-19)
(-0.0515967 0.0802809 -4.65758e-20)
(-0.0543917 0.0618189 2.39588e-19)
(-0.0561667 0.0397118 -1.49981e-19)
(-0.0569767 0.0150409 3.21798e-19)
(-0.0568287 -0.0114693 -7.90602e-19)
(-0.0557054 -0.0393279 -2.51558e-20)
(-0.0535796 -0.068187 1.42358e-19)
(-0.0504216 -0.0977789 -1.81704e-19)
(-0.0462034 -0.127875 1.67178e-19)
(-0.0409005 -0.158257 -1.3062e-19)
(-0.0344944 -0.188706 -2.80195e-19)
(-0.0269763 -0.218984 5.09444e-19)
(-0.0183527 -0.248828 3.15919e-19)
(-0.00865301 -0.277946 -6.77709e-20)
(0.00205897 -0.306006 2.08324e-19)
(0.0136793 -0.33264 -4.11056e-19)
(0.0260533 -0.357444 5.84838e-19)
(0.0388755 -0.380024 -7.96574e-19)
(0.0515226 -0.400053 1.6204e-19)
(0.0638143 -0.417091 -3.14914e-19)
(-0.0116479 0.0342073 1.21882e-20)
(-0.0265875 0.0757263 -2.05523e-19)
(-0.0364053 0.0972857 2.99143e-19)
(-0.0426993 0.104054 6.20029e-19)
(-0.0465107 0.100035 -1.21768e-20)
(-0.0485109 0.0882859 7.16062e-20)
(-0.0490948 0.0710583 -2.75465e-19)
(-0.0484793 0.0499483 1.26405e-19)
(-0.0467722 0.0260574 9.04241e-19)
(-0.0440185 0.00013357 -2.05537e-19)
(-0.0402297 -0.0273131 -2.49068e-19)
(-0.0354018 -0.0559227 9.42198e-19)
(-0.0295254 -0.0854229 3.14456e-19)
(-0.0225914 -0.115587 1.50106e-19)
(-0.0145941 -0.146204 1.56535e-19)
(-0.00553334 -0.177063 4.21355e-19)
(0.00458147 -0.207933 -1.60272e-19)
(0.0157271 -0.238554 4.3469e-19)
(0.0278587 -0.268627 5.8351e-19)
(0.0408989 -0.297795 -4.91841e-19)
(0.0547286 -0.325638 7.2952e-19)
(0.0691764 -0.351667 2.57589e-19)
(0.0839319 -0.37535 -9.74706e-19)
(0.0983491 -0.396165 1.40328e-18)
(0.111986 -0.41347 -1.17945e-18)
(-0.0124964 0.0338569 -5.65707e-19)
(-0.0281701 0.0759519 3.14754e-19)
(-0.0375783 0.0988547 -2.14243e-19)
(-0.0427209 0.107242 -2.02709e-19)
(-0.0448583 0.104848 -2.25221e-19)
(-0.0447985 0.094593 -2.45161e-19)
(-0.0430416 0.0786676 6.54792e-20)
(-0.0398817 0.0586549 6.52409e-19)
(-0.0354826 0.0356664 -1.36809e-19)
(-0.0299302 0.0104694 -3.69711e-19)
(-0.0232672 -0.0164074 -2.30527e-19)
(-0.0155148 -0.0445905 -9.36855e-20)
(-0.0066859 -0.0738004 2.90217e-19)
(0.00320829 -0.10381 -1.81862e-19)
(0.0141534 -0.134413 -5.9945e-19)
(0.0261289 -0.165406 -6.66688e-19)
(0.0391051 -0.19657 2.67989e-19)
(0.0530388 -0.227652 -4.95722e-19)
(0.0678664 -0.258355 4.34444e-19)
(0.0834936 -0.288317 -1.22061e-18)
(0.0997833 -0.317086 9.3227e-19)
(0.116545 -0.344106 -1.22413e-18)
(0.133465 -0.368719 -1.74919e-20)
(0.149893 -0.390199 -3.96228e-19)
(0.165069 -0.407689 1.22712e-18)
(-0.013167 0.0330381 8.72341e-19)
(-0.0294028 0.0750754 1.33643e-19)
(-0.0383325 0.0989244 -8.93075e-20)
(-0.042286 0.108703 -3.64227e-20)
(-0.0427099 0.107825 7.01456e-19)
(-0.0405335 0.0990383 2.32783e-19)
(-0.0363565 0.0844465 2.1477e-19)
(-0.0305498 0.0656002 -1.71573e-19)
(-0.0233346 0.0436104 6.72079e-19)
(-0.0148402 0.0192573 -3.31443e-19)
(-0.00514238 -0.00691332 2.13585e-19)
(0.00571081 -0.0345135 5.59937e-19)
(0.0176838 -0.0632544 -3.17677e-19)
(0.0307443 -0.0929049 3.51515e-19)
(0.0448574 -0.123261 3.34343e-19)
(0.0599815 -0.154125 1.1376e-19)
(0.0760655 -0.185285 -2.81309e-19)
(0.0930442 -0.216504 7.85443e-19)
(0.110833 -0.247494 -7.1503e-20)
(0.129317 -0.277897 -7.84783e-20)
(0.148338 -0.307256 9.33916e-19)
(0.167682 -0.334976 -6.5429e-19)
(0.187033 -0.360292 1.09987e-18)
(0.205752 -0.382278 -8.9458e-19)
(0.22272 -0.399856 1.20127e-18)
(-0.0136396 0.031796 -4.27922e-19)
(-0.0302443 0.0731591 9.97874e-20)
(-0.0386355 0.0975284 -1.05044e-19)
(-0.041389 0.108422 -4.8848e-19)
(-0.040097 0.108902 2.84462e-20)
(-0.0357914 0.101511 2.86657e-19)
(-0.0291624 0.0882413 -1.16886e-18)
(-0.020655 0.0705938 8.83572e-19)
(-0.0105481 0.0496661 -8.66648e-19)
(0.000984762 0.0262446 -5.52101e-19)
(0.0138331 0.000888554 5.03073e-19)
(0.0279215 -0.0259999 -1.10212e-18)
(0.0431912 -0.0541209 9.36722e-19)
(0.059589 -0.0832362 -2.97451e-19)
(0.0770599 -0.11314 -8.61615e-19)
(0.0955415 -0.143636 2.13242e-19)
(0.114961 -0.174521 -1.99646e-19)
(0.135229 -0.205566 7.47317e-20)
(0.156238 -0.236501 -2.72191e-19)
(0.17785 -0.266982 -9.02062e-19)
(0.199881 -0.296563 2.0303e-19)
(0.222089 -0.324642 3.29441e-21)
(0.244151 -0.350381 -9.05794e-19)
(0.265454 -0.372667 6.38845e-19)
(0.2845 -0.390205 -5.58448e-19)
(-0.0139049 0.0301923 1.74858e-19)
(-0.0306706 0.0703041 3.34907e-19)
(-0.0384691 0.0947535 4.68167e-19)
(-0.0400315 0.106448 2.44511e-19)
(-0.0370506 0.108076 -2.40431e-19)
(-0.030639 0.101958 5.79147e-19)
(-0.0215655 0.0899539 4.34418e-19)
(-0.0103442 0.0734962 -1.55287e-19)
(0.00269018 0.0536574 5.76199e-19)
(0.0173197 0.0312216 -5.96272e-19)
(0.0333989 0.00675683 -1.76185e-19)
(0.0508246 -0.0193224 1.80179e-19)
(0.0695151 -0.0467041 3.65662e-19)
(0.0893967 -0.075141 3.43e-21)
(0.110394 -0.104421 2.36191e-19)
(0.132425 -0.134347 4.35201e-19)
(0.155392 -0.164716 -7.43435e-19)
(0.179183 -0.19531 9.26715e-19)
(0.203661 -0.225868 3.13218e-19)
(0.228662 -0.256072 1.06967e-19)
(0.253973 -0.285497 -1.1176e-18)
(0.279315 -0.313561 1.6138e-19)
(0.304353 -0.339394 2.42242e-19)
(0.328514 -0.361721 -5.25003e-20)
(0.349921 -0.379048 2.72351e-19)
(-0.0139646 0.0283006 1.53669e-20)
(-0.0306764 0.0666436 -8.63666e-19)
(-0.0378296 0.0907331 -1.90974e-20)
(-0.0382198 0.102882 -2.20107e-19)
(-0.0335948 0.105408 -1.46136e-18)
(-0.0251235 0.100393 1.27404e-18)
(-0.0136398 0.0895491 -9.14406e-19)
(0.000281415 0.0742292 -4.48706e-20)
(0.0162528 0.0554674 -4.42881e-19)
(0.0340136 0.0340362 7.74324e-19)
(0.053384 0.0105067 -8.41681e-19)
(0.0742334 -0.014697 -3.98877e-19)
(0.096457 -0.0412518 9.63087e-21)
(0.11996 -0.0688993 -8.81358e-19)
(0.144648 -0.0974189 1.20856e-18)
(0.170414 -0.126606 -1.40891e-18)
(0.197136 -0.156258 2.49239e-21)
(0.224674 -0.186156 2.17952e-19)
(0.252858 -0.216052 -5.42325e-19)
(0.281491 -0.245643 5.22474e-19)
(0.310323 -0.274542 -7.44546e-19)
(0.339036 -0.3022 -4.83459e-19)
(0.367268 -0.32776 8.9189e-19)
(0.394499 -0.349819 -9.63204e-19)
(0.41851 -0.366709 -1.62203e-20)
(-0.0138313 0.026201 -7.11005e-19)
(-0.0302735 0.0623331 8.4247e-19)
(-0.0367251 0.0856381 -2.60545e-19)
(-0.0359607 0.0978794 5.06361e-19)
(-0.0297394 0.101015 5.49924e-19)
(-0.0192621 0.096889 -4.88181e-19)
(-0.00541136 0.0870586 -3.30665e-19)
(0.0111864 0.0727832 -3.98349e-19)
(0.030097 0.0550486 3.66209e-19)
(0.0510197 0.0346069 -2.40857e-20)
(0.0737422 0.0120258 5.4634e-19)
(0.0981064 -0.0122648 5.44281e-19)
(0.123984 -0.0379321 -6.58951e-19)
(0.151258 -0.0647063 1.30347e-18)
(0.17981 -0.0923559 -8.70752e-19)
(0.209507 -0.120667 -1.51888e-19)
(0.240198 -0.149428 1.71415e-18)
(0.271703 -0.178419 -7.96043e-19)
(0.303814 -0.207395 5.05436e-19)
(0.336291 -0.23607 9.83824e-19)
(0.36884 -0.264086 -6.38636e-19)
(0.401096 -0.290949 6.87708e-20)
(0.432657 -0.315843 -4.08583e-20)
(0.463069 -0.337281 -2.47183e-19)
(0.48984 -0.353448 4.81734e-19)
(-0.0135263 0.0239753 1.64029e-19)
(-0.0294887 0.0575401 -5.37256e-19)
(-0.0351721 0.0796664 2.96633e-19)
(-0.0332566 0.0916327 -3.17405e-21)
(-0.0254733 0.0950674 2.25189e-19)
(-0.0130314 0.0915838 -3.91399e-19)
(0.00315458 0.082582 2.25181e-19)
(0.022418 0.0692215 6.19929e-19)
(0.0442852 0.0524307 -2.05609e-20)
(0.0684198 0.0329335 -3.25734e-19)
(0.0945784 0.0112879 3.3049e-19)
(0.122576 -0.012075 -5.93359e-21)
(0.152258 -0.0368143 -1.06558e-18)
(0.183483 -0.0626496 3.96563e-19)
(0.2161 -0.0893369 8.80807e-20)
(0.249944 -0.11665 -1.56988e-19)
(0.284822 -0.144367 -2.81164e-19)
(0.320508 -0.17226 1.07853e-18)
(0.356742 -0.200082 2.61056e-19)
(0.393228 -0.227558 -5.62907e-19)
(0.42962 -0.254358 -6.60991e-20)
(0.465495 -0.280045 7.59154e-19)
(0.500405 -0.303872 -3.56353e-19)
(0.533964 -0.324312 1.47025e-19)
(0.563523 -0.33942 1.01412e-19)
(-0.0130777 0.0217015 -3.28432e-19)
(-0.0283594 0.0524336 3.36335e-19)
(-0.0331909 0.0730294 -1.90762e-19)
(-0.0301001 0.0843648 -6.16811e-19)
(-0.0207573 0.087778 -5.71464e-19)
(-0.00635912 0.084669 -2.56765e-19)
(0.0121646 0.0762844 -2.13871e-19)
(0.0341193 0.0636813 -6.37984e-19)
(0.059 0.0477249 -2.60777e-19)
(0.0864392 0.0291045 2.39618e-19)
(0.116164 0.00836256 -3.44589e-19)
(0.147961 -0.0140721 -3.66862e-19)
(0.181646 -0.0378536 -3.48432e-19)
(0.217041 -0.0626914 6.41101e-19)
(0.253958 -0.088329 -1.34961e-18)
(0.292184 -0.114527 7.76937e-19)
(0.33147 -0.14105 -1.33128e-18)
(0.371529 -0.167659 -2.04931e-19)
(0.412033 -0.194104 -7.31174e-19)
(0.452617 -0.220116 -1.68218e-19)
(0.492871 -0.245387 -2.0703e-19)
(0.532313 -0.269536 -6.82378e-19)
(0.570437 -0.291906 -6.8311e-20)
(0.606927 -0.310968 4.04681e-19)
(0.639127 -0.324651 -1.04401e-18)
(-0.0125174 0.0194493 2.83175e-19)
(-0.0269277 0.0471733 3.82807e-19)
(-0.0307988 0.0659398 1.34219e-18)
(-0.0264672 0.0763135 -2.37796e-19)
(-0.0155179 0.0793909 5.67891e-19)
(0.000882075 0.0763819 1.3646e-18)
(0.0218032 0.0683896 -3.74298e-19)
(0.0465349 0.0563704 5.11501e-19)
(0.0745486 0.0411237 3.00725e-19)
(0.10545 0.0232997 5.51246e-19)
(0.138936 0.00342123 -1.11759e-19)
(0.17476 -0.0180892 7.56224e-20)
(0.212699 -0.0408827 -2.02153e-19)
(0.25253 -0.0646603 1.08158e-18)
(0.294007 -0.0891534 1.38301e-19)
(0.336853 -0.114109 1.01623e-18)
(0.380745 -0.13928 -2.60477e-19)
(0.425315 -0.164416 9.34158e-19)
(0.470151 -0.189263 1.2941e-19)
(0.514806 -0.213555 4.70286e-19)
(0.558797 -0.237006 -1.99346e-19)
(0.601581 -0.259287 -2.83618e-20)
(0.642595 -0.279839 1.09468e-18)
(0.681587 -0.297171 6.54803e-19)
(0.716069 -0.309071 -2.72493e-19)
(-0.0118773 0.0172765 -6.84446e-19)
(-0.025234 0.041901 -7.15968e-19)
(-0.0280035 0.0585989 -7.52176e-19)
(-0.0223112 0.0677189 2.77856e-19)
(-0.00964289 0.0701675 -5.61411e-19)
(0.00887777 0.0669932 -8.43044e-20)
(0.0323338 0.0591703 -2.2359e-19)
(0.0600088 0.04756 -9.37999e-19)
(0.0913567 0.0328963 -1.4965e-19)
(0.125957 0.0157881 2.44739e-19)
(0.163475 -0.00326418 -7.76208e-19)
(0.20362 -0.0238471 1.08309e-18)
(0.246116 -0.0456112 -1.4826e-18)
(0.290674 -0.0682509 3.59785e-19)
(0.336974 -0.0914876 -9.18193e-19)
(0.384649 -0.115057 -7.49138e-19)
(0.43328 -0.138702 -4.27573e-20)
(0.482398 -0.162166 -1.12366e-19)
(0.531493 -0.185192 9.05487e-20)
(0.580027 -0.207522 -4.25565e-19)
(0.62744 -0.228891 -2.91609e-19)
(0.673136 -0.249017 3.54288e-19)
(0.716504 -0.267447 -9.75984e-19)
(0.757345 -0.282761 3.1397e-19)
(0.793513 -0.292567 2.07608e-19)
(-0.0111859 0.0152262 -1.21037e-19)
(-0.0233102 0.0367332 -2.07413e-19)
(-0.0247958 0.0511864 8.13597e-19)
(-0.0175582 0.0588098 3.04096e-19)
(-0.00297837 0.0603729 4.05491e-19)
(0.0178703 0.0567935 -5.45135e-19)
(0.0440923 0.0489352 8.36763e-22)
(0.0749721 0.0375726 -4.49277e-19)
(0.109948 0.0233775 8.34801e-19)
(0.148572 0.00691803 2.76129e-19)
(0.190464 -0.0113297 3.14781e-19)
(0.235276 -0.0309634 -1.24638e-18)
(0.28266 -0.0516356 1.55158e-18)
(0.332237 -0.0730373 -4.66191e-19)
(0.383582 -0.0948833 -3.35404e-19)
(0.436215 -0.116903 1.01202e-18)
(0.489599 -0.138834 4.52335e-19)
(0.543147 -0.160419 -1.1447e-18)
(0.596241 -0.181408 -4.73116e-19)
(0.648249 -0.201555 1.43338e-18)
(0.698546 -0.220622 -1.08323e-18)
(0.746497 -0.238375 6.51212e-19)
(0.79147 -0.254466 3.54123e-19)
(0.833309 -0.26758 -4.56093e-19)
(0.870354 -0.275063 -4.20075e-19)
(-0.0104649 0.0133256 -4.45559e-19)
(-0.0211729 0.0317568 7.18625e-19)
(-0.0211442 0.0438522 3.07204e-19)
(-0.0121028 0.0497933 -4.46092e-19)
(0.00466984 0.0502624 -7.15149e-20)
(0.0281523 0.0460783 -4.73024e-19)
(0.0574736 0.0380132 -1.89761e-19)
(0.09192 0.0267663 2.1566e-19)
(0.130911 0.0129528 -5.32499e-20)
(0.173959 -0.00289871 4.13592e-19)
(0.220625 -0.0203366 -3.6175e-19)
(0.27048 -0.0389716 1.00781e-18)
(0.323074 -0.0584619 -1.25852e-18)
(0.377909 -0.0784991 7.88403e-19)
(0.434428 -0.0987974 9.84782e-19)
(0.492011 -0.119086 -1.4265e-18)
(0.549984 -0.139107 -4.31573e-19)
(0.607634 -0.158612 7.32154e-19)
(0.664232 -0.177365 -4.47734e-19)
(0.719065 -0.195145 4.29332e-19)
(0.771457 -0.211748 -1.03598e-18)
(0.820768 -0.226993 1.7595e-19)
(0.866387 -0.240641 6.61887e-19)
(0.908231 -0.251478 -1.05419e-18)
(0.945172 -0.256516 2.91501e-19)
(-0.00972599 0.0115855 -4.10904e-19)
(-0.0188185 0.0270268 1.33686e-18)
(-0.0169901 0.0367112 2.57339e-19)
(-0.0058083 0.0408459 -7.00591e-19)
(0.0135315 0.0400702 5.05104e-19)
(0.0400541 0.0351339 2.591e-19)
(0.0729096 0.0267375 4.16061e-19)
(0.111379 0.0155171 -2.55252e-20)
(0.154853 0.00203761 -4.32325e-20)
(0.202783 -0.013209 -9.34061e-20)
(0.254648 -0.0297958 -4.09429e-19)
(0.309905 -0.0473495 -1.516e-20)
(0.367971 -0.065538 9.64418e-19)
(0.428197 -0.0840601 -1.59081e-18)
(0.489865 -0.102637 1.13528e-18)
(0.552197 -0.121009 2.32046e-19)
(0.614372 -0.13893 4.0971e-19)
(0.675549 -0.156173 -2.06179e-19)
(0.734906 -0.172528 1.847e-18)
(0.791668 -0.187806 -1.13591e-18)
(0.845137 -0.201844 9.01852e-19)
(0.89469 -0.214522 2.07517e-19)
(0.939786 -0.225689 -6.496e-19)
(0.980471 -0.234174 5.47651e-19)
(1.01597 -0.236888 8.22729e-19)
(-0.00896905 0.0100019 -1.18651e-19)
(-0.0162197 0.0225673 -4.71059e-19)
(-0.0122468 0.0298417 -8.08721e-19)
(0.00149116 0.0321085 -4.62821e-19)
(0.0238632 0.0300006 -6.48482e-20)
(0.0539272 0.0242253 -1.84581e-19)
(0.090842 0.0154299 -8.65063e-19)
(0.133869 0.00419951 1.44288e-19)
(0.182345 -0.00894453 -9.87348e-19)
(0.235637 -0.0235442 -7.79408e-20)
(0.293103 -0.0391984 -9.59642e-19)
(0.354055 -0.0555534 -3.43501e-19)
(0.417738 -0.0722935 1.98419e-19)
(0.483322 -0.0891334 -9.45279e-19)
(0.549908 -0.105813 8.81229e-21)
(0.61655 -0.122092 -8.16891e-19)
(0.682284 -0.137753 3.15685e-19)
(0.746167 -0.1526 -1.13355e-18)
(0.807311 -0.166456 -1.91208e-19)
(0.864924 -0.17917 -1.94018e-20)
(0.918329 -0.19062 -1.85607e-19)
(0.966954 -0.200734 -1.87608e-19)
(1.01037 -0.209353 -9.19672e-20)
(1.04864 -0.215361 -3.6457e-19)
(1.08042 -0.21693 -7.73433e-19)
(-0.00818101 0.00855831 2.19026e-19)
(-0.0133244 0.0183748 5.95462e-19)
(-0.00680079 0.023287 7.19019e-19)
(0.00998464 0.0236851 -5.77654e-19)
(0.0359358 0.0202225 1.07999e-18)
(0.0701229 0.0135865 -5.8929e-19)
(0.111692 0.0043873 3.22351e-19)
(0.159858 -0.00683065 5.07362e-19)
(0.213872 -0.0195837 4.64632e-19)
(0.27298 -0.0334464 2.27965e-19)
(0.336379 -0.048046 3.69423e-19)
(0.403193 -0.0630541 2.16671e-19)
(0.472465 -0.0781804 1.46694e-18)
(0.543159 -0.0931669 -1.06651e-18)
(0.614185 -0.107784 1.22206e-18)
(0.684437 -0.121827 -5.03268e-19)
(0.752833 -0.135118 1.09034e-18)
(0.818362 -0.147503 -5.16884e-20)
(0.880129 -0.158852 -2.24892e-19)
(0.937385 -0.169057 -3.18107e-20)
(0.989553 -0.178033 8.18216e-19)
(1.03623 -0.185708 -7.67143e-19)
(1.07729 -0.191841 5.51933e-19)
(1.11269 -0.195875 5.75874e-19)
(1.13799 -0.200362 1.0569e-19)
(-0.00733622 0.00722862 1.51244e-19)
(-0.0100569 0.014424 -8.48782e-19)
(-0.000515448 0.0170598 -3.10229e-19)
(0.019876 0.0156445 2.86151e-19)
(0.0500205 0.0108688 -8.83642e-19)
(0.0889711 0.00341636 -1.74986e-19)
(0.135829 -0.00612692 1.22594e-19)
(0.189726 -0.0172492 4.88903e-19)
(0.249787 -0.029501 -1.24152e-18)
(0.315088 -0.0424903 9.55378e-20)
(0.384623 -0.0558774 -3.67304e-19)
(0.457292 -0.0693679 -1.12185e-18)
(0.531906 -0.082708 7.65441e-19)
(0.607214 -0.0956799 3.51399e-20)
(0.681943 -0.108098 -2.53527e-20)
(0.754853 -0.119808 7.73414e-19)
(0.824783 -0.130683 -1.35526e-18)
(0.890713 -0.140623 1.06738e-18)
(0.951794 -0.149552 -2.021e-19)
(1.00738 -0.157416 5.89024e-19)
(1.05706 -0.164183 -9.79152e-19)
(1.1006 -0.16983 5.39803e-19)
(1.13808 -0.174245 -9.32704e-19)
(1.1697 -0.177291 9.19057e-19)
(1.19225 -0.181268 -3.15523e-19)
(-0.00639781 0.0059815 1.00728e-18)
(-0.00632174 0.0106748 -1.68918e-19)
(0.00676247 0.0111504 1.26103e-18)
(0.0313741 0.00802691 5.87835e-19)
(0.0663741 0.00203932 4.83152e-20)
(0.11076 -0.00612152 2.59694e-19)
(0.163547 -0.0158863 6.32429e-20)
(0.223736 -0.0267711 1.07295e-18)
(0.290274 -0.0383602 3.48225e-19)
(0.36202 -0.0502991 -4.71742e-20)
(0.437722 -0.0622889 9.47561e-20)
(0.516021 -0.0740801 3.65015e-19)
(0.595488 -0.0854687 3.04922e-19)
(0.674661 -0.0962907 6.52089e-19)
(0.752114 -0.106418 -7.46783e-19)
(0.826516 -0.115757 2.21936e-19)
(0.896693 -0.124239 7.32794e-20)
(0.961677 -0.131823 3.26308e-19)
(1.02074 -0.138487 8.57754e-19)
(1.07339 -0.144228 -5.72908e-19)
(1.1194 -0.149058 3.76725e-20)
(1.15877 -0.152998 -7.4055e-19)
(1.19173 -0.156022 6.76707e-19)
(1.21861 -0.158113 -6.14002e-19)
(1.2372 -0.161072 8.66364e-20)
(-0.00532022 0.00478442 -8.38686e-19)
(-0.00200849 0.00708107 6.64982e-19)
(0.0151957 0.00553572 -1.0884e-18)
(0.0446832 0.000852702 9.42981e-20)
(0.0852268 -0.00619115 7.76072e-19)
(0.135723 -0.0148937 -1.30064e-18)
(0.195046 -0.0246991 1.03922e-18)
(0.262013 -0.0351516 -1.65863e-18)
(0.335339 -0.0458728 3.3188e-19)
(0.413614 -0.0565532 7.17111e-20)
(0.495301 -0.0669458 5.65466e-19)
(0.578771 -0.0768596 -1.88593e-18)
(0.662353 -0.0861538 3.2786e-19)
(0.744409 -0.0947315 3.4541e-19)
(0.823406 -0.102533 -2.05195e-19)
(0.897993 -0.10953 -1.26308e-18)
(0.967054 -0.115718 6.00162e-19)
(1.02975 -0.121109 1.08993e-18)
(1.08553 -0.125729 -1.1285e-18)
(1.13414 -0.129613 8.06172e-19)
(1.17556 -0.132802 -1.0067e-18)
(1.21003 -0.135338 7.23406e-19)
(1.23796 -0.13722 -1.81302e-19)
(1.25983 -0.138457 1.03592e-18)
(1.27424 -0.140531 -1.15027e-18)
(-0.00405213 0.00360742 1.19059e-19)
(0.00300211 0.00359821 9.80961e-20)
(0.0249488 0.000189346 2.39856e-19)
(0.0599941 -0.00586695 8.65521e-19)
(0.106772 -0.0137631 -2.78366e-20)
(0.164022 -0.0227879 1.95338e-19)
(0.230423 -0.0324016 8.78709e-19)
(0.304542 -0.0421818 3.56925e-19)
(0.384805 -0.0517959 -1.18672e-19)
(0.469491 -0.0609911 1.01131e-18)
(0.556756 -0.0695861 -1.15533e-18)
(0.644695 -0.077463 1.77708e-18)
(0.73143 -0.0845578 -7.05994e-19)
(0.815194 -0.0908511 1.27438e-18)
(0.894424 -0.0963577 -4.31801e-19)
(0.967827 -0.101116 1.56076e-19)
(1.03443 -0.105179 1.87885e-19)
(1.0936 -0.108606 -3.47577e-19)
(1.14503 -0.111457 2.95535e-19)
(1.18872 -0.113788 1.87688e-19)
(1.22491 -0.115653 2.47995e-19)
(1.25405 -0.117093 4.97579e-19)
(1.27677 -0.11811 -5.55425e-20)
(1.29368 -0.118724 -2.23229e-19)
(1.30399 -0.120159 6.05408e-19)
(-0.00253949 0.00242639 -6.95911e-19)
(0.00883229 0.000191059 7.61472e-20)
(0.0361811 -0.00490811 -1.38168e-18)
(0.0774761 -0.0121185 -3.31737e-19)
(0.131158 -0.0206201 -6.27195e-19)
(0.195751 -0.0297016 -1.34753e-19)
(0.269667 -0.0388482 -6.80468e-19)
(0.351166 -0.0476812 -4.09963e-19)
(0.438329 -0.0559274 5.44316e-19)
(0.52909 -0.0634062 -9.13158e-19)
(0.62129 -0.0700183 -2.54745e-19)
(0.712777 -0.0757333 9.38664e-21)
(0.801514 -0.0805753 -1.71713e-18)
(0.885684 -0.0846084 7.28461e-19)
(0.963779 -0.0879216 -1.05517e-18)
(1.03466 -0.0906147 -3.04612e-20)
(1.09758 -0.0927878 1.98152e-19)
(1.15217 -0.0945323 -3.30596e-19)
(1.19841 -0.095926 -2.85484e-19)
(1.23659 -0.0970306 1.31296e-19)
(1.26721 -0.0978923 1.41325e-19)
(1.29092 -0.0985415 -9.27504e-19)
(1.30852 -0.0989623 5.24918e-19)
(1.32075 -0.0991789 2.4106e-19)
(1.32724 -0.100231 4.28614e-20)
(-0.000728276 0.00122529 7.09207e-19)
(0.0156016 -0.00316047 -7.83723e-19)
(0.0490402 -0.00976043 1.10961e-18)
(0.097272 -0.0178754 1.75879e-19)
(0.158486 -0.0266981 -5.38345e-20)
(0.230925 -0.0355316 -3.80174e-19)
(0.312669 -0.0439014 5.76842e-20)
(0.401601 -0.0514893 5.87067e-19)
(0.495419 -0.0580997 -8.14066e-19)
(0.591694 -0.0636427 8.58767e-19)
(0.68797 -0.0681179 -9.12667e-20)
(0.781896 -0.071595 4.43601e-20)
(0.871353 -0.0741931 1.11537e-18)
(0.95457 -0.0760593 1.48219e-18)
(1.03019 -0.07735 -5.83298e-19)
(1.09732 -0.0782142 1.0086e-18)
(1.15551 -0.0787828 4.94428e-19)
(1.20471 -0.0791612 -3.10622e-19)
(1.24521 -0.079427 9.40049e-19)
(1.27759 -0.0796308 -5.18568e-20)
(1.30257 -0.0798003 -8.71543e-19)
(1.32101 -0.079942 8.91424e-19)
(1.33381 -0.0800181 1.1178e-19)
(1.34179 -0.0800524 -5.19444e-19)
(1.34489 -0.0809341 1.67395e-19)
(0.00143328 -2.55626e-06 -9.82452e-19)
(0.0234225 -0.0064573 1.06736e-18)
(0.0636573 -0.0143493 -6.81512e-19)
(0.119493 -0.0230903 -2.12713e-19)
(0.188807 -0.0319158 -4.8422e-19)
(0.269489 -0.040165 8.62748e-19)
(0.359217 -0.0474248 -5.03205e-19)
(0.455447 -0.0534604 -2.31991e-19)
(0.555462 -0.0581757 -6.65858e-19)
(0.656476 -0.061592 1.81683e-20)
(0.755778 -0.063823 -2.63091e-19)
(0.850896 -0.0650472 1.25179e-19)
(0.939729 -0.0654785 -1.33549e-18)
(1.02065 -0.0653399 3.82247e-19)
(1.09257 -0.0648407 -4.52707e-19)
(1.1549 -0.0641611 -3.56002e-19)
(1.20755 -0.0634426 1.0744e-19)
(1.25082 -0.0627852 -5.06597e-19)
(1.28532 -0.062249 -2.03338e-19)
(1.31186 -0.0618602 6.08207e-19)
(1.3314 -0.0616179 2.41499e-19)
(1.3449 -0.061499 -1.03768e-18)
(1.35337 -0.0614409 7.41802e-19)
(1.35765 -0.061464 -1.38467e-19)
(1.35786 -0.0623333 -2.7648e-19)
(0.00399309 -0.00125411 -3.54804e-19)
(0.0323963 -0.00967924 -1.97027e-19)
(0.0801422 -0.0186304 -3.86524e-20)
(0.144214 -0.0276896 2.96226e-19)
(0.222115 -0.03617 3.23247e-19)
(0.31131 -0.0434748 2.82391e-19)
(0.409012 -0.0492801 3.55009e-19)
(0.512204 -0.0534615 5.43861e-19)
(0.617747 -0.0560479 8.35492e-19)
(0.722532 -0.0571911 8.26897e-19)
(0.823665 -0.0571307 4.36493e-19)
(0.918651 -0.0561554 -1.19e-19)
(1.00552 -0.0545666 2.91539e-20)
(1.08291 -0.0526473 -3.19232e-20)
(1.15006 -0.0506398 3.43341e-19)
(1.20678 -0.0487327 -8.08409e-20)
(1.25336 -0.0470568 9.71021e-19)
(1.29044 -0.0456879 -4.42832e-19)
(1.31891 -0.0446545 2.05524e-21)
(1.33983 -0.0439478 2.81047e-19)
(1.35428 -0.0435332 -6.25194e-19)
(1.36334 -0.0433561 1.00295e-18)
(1.36802 -0.0433302 -8.03296e-19)
(1.36917 -0.0434724 1.37171e-19)
(1.36702 -0.0444357 -5.01098e-19)
(0.00699428 -0.00251705 7.60241e-19)
(0.0426104 -0.0127849 5.32905e-19)
(0.0985796 -0.0225325 -3.43334e-19)