/*--------------------------------*- C++ -*----------------------------------*\
  =========                 |
  \\      /  F ield         | OpenFOAM: The Open Source CFD Toolbox
   \\    /   O peration     | Website:  https://openfoam.org
    \\  /    A nd           | Version:  6.0
     \\/     M anipulation  |
\*---------------------------------------------------------------------------*/
FoamFile
{
    version     2.0;
    format      ascii;
    class       surfaceScalarField;
    location    "62";
    object      phi;
}
// * * * * * * * * * * * * * * * * * * * * * * * * * * * * * * * * * * * * * //

dimensions      [0 3 -1 0 0 0 0];

internalField   nonuniform List<scalar> 
7840
(
3.55411e-05
-0.000264596
0.000125475
-0.000825223
0.000251924
-0.00138348
0.000395513
-0.00189567
0.000538652
-0.00232851
0.000668529
-0.00266657
0.000778131
-0.00291124
0.000865504
-0.00307504
0.000932158
-0.00317532
0.000981414
-0.00322955
0.00101712
-0.00325269
0.00104285
-0.00325623
0.00106155
-0.00324834
0.00107541
-0.00323441
0.00108599
-0.00321786
0.00109438
-0.00320076
0.00110127
-0.00318434
0.00110716
-0.00316935
0.00111233
-0.00315623
-0.00314541
0.00111696
3.68721e-05
-0.000301468
0.000127523
-0.000915874
0.00025139
-0.00150734
0.000387718
-0.002032
0.000519132
-0.00245993
0.000634188
-0.00278163
0.000727646
-0.0030047
0.000799115
-0.00314651
0.000851159
-0.00322736
0.000887604
-0.00326599
0.000912371
-0.00327745
0.00092884
-0.0032727
0.000939622
-0.00325912
0.000946586
-0.00324138
0.000951002
-0.00322228
0.000953708
-0.00320347
0.000955256
-0.00318589
0.000956007
-0.0031701
0.000956189
-0.00315641
-0.00314513
0.000955913
3.77905e-05
-0.000339259
0.000127989
-0.00100607
0.000247635
-0.00162699
0.000375093
-0.00215945
0.00049368
-0.00257852
0.000593564
-0.00288151
0.000671252
-0.00308238
0.000727717
-0.00320297
0.00076632
-0.00326597
0.000791166
-0.00329084
0.000806091
-0.00329238
0.000814194
-0.00328081
0.000817748
-0.00326268
0.000818302
-0.00324193
0.000816872
-0.00322085
0.000814106
-0.0032007
0.000810428
-0.00318221
0.000806115
-0.00316579
0.000801339
-0.00315163
-0.00313997
0.000796178
3.82625e-05
-0.000377521
0.000126842
-0.00109465
0.000240758
-0.0017409
0.00035802
-0.00227672
0.000463036
-0.00268353
0.000547718
-0.00296619
0.000610215
-0.00314488
0.00065264
-0.0032454
0.00067891
-0.00329224
0.00069322
-0.00330515
0.000699209
-0.00329837
0.000699654
-0.00328125
0.000696489
-0.00325951
0.000690982
-0.00323642
0.000683926
-0.00321379
0.00067582
-0.0031926
0.000666989
-0.00317338
0.000657648
-0.00315645
0.00064793
-0.00314191
-0.00312993
0.000637891
3.82656e-05
-0.000415787
0.000124093
-0.00118048
0.000230937
-0.00184775
0.000336957
-0.00238274
0.000427967
-0.00277454
0.00049766
-0.00303589
0.000545672
-0.00319289
0.000575019
-0.00327475
0.000589962
-0.00330718
0.000594642
-0.00330983
0.000592425
-0.00329615
0.000585751
-0.00327458
0.000576242
-0.00325
0.000564913
-0.0032251
0.000552378
-0.00320126
0.000539016
-0.00317923
0.000525075
-0.00315944
0.000510723
-0.00314209
0.000496068
-0.00312726
-0.00311502
0.000481156
3.77896e-05
-0.000453576
0.000119793
-0.00126248
0.000218407
-0.00194636
0.000312407
-0.00247674
0.000389235
-0.00285137
0.000444331
-0.00309098
0.000478621
-0.00322718
0.000495807
-0.00329193
0.000500315
-0.00331169
0.000496118
-0.00330563
0.000486273
-0.00328631
0.000472888
-0.00326119
0.000457302
-0.00323442
0.000440318
-0.00320811
0.000422401
-0.00318334
0.000403834
-0.00316067
0.000384807
-0.00314041
0.000365455
-0.00312274
0.000345868
-0.00310767
-0.00309524
0.000326086
3.68355e-05
-0.000490412
0.000114026
-0.00133967
0.000203443
-0.00203578
0.000284888
-0.00255818
0.000347569
-0.00291405
0.000388574
-0.00313199
0.000409922
-0.00324853
0.000415794
-0.0032978
0.000410633
-0.00330653
0.000398177
-0.00329318
0.000381152
-0.00326928
0.000361358
-0.0032414
0.000339885
-0.00321294
0.000317358
-0.00318558
0.000294122
-0.00316011
0.000270384
-0.00313693
0.000246286
-0.00311631
0.000221937
-0.00309839
0.000197421
-0.00308316
-0.0030706
0.000172777
3.54148e-05
-0.000525827
0.000106905
-0.00141116
0.000186348
-0.00211522
0.000254917
-0.00262675
0.000303646
-0.00296278
0.000331138
-0.00315948
0.000340302
-0.0032577
0.000335621
-0.00329312
0.000321445
-0.00329235
0.000301225
-0.00327296
0.000277365
-0.00324542
0.00025138
-0.00321541
0.000224151
-0.00318572
0.000196156
-0.00315759
0.000167643
-0.00313159
0.000138755
-0.00310804
0.000109595
-0.00308715
8.02549e-05
-0.00306905
5.0814e-05
-0.00305372
-0.0030411
2.13192e-05
3.35485e-05
-0.000559375
9.85607e-05
-0.00147618
0.000167435
-0.0021841
0.000222987
-0.0026823
0.000258081
-0.00299787
0.000272673
-0.00317407
0.000270372
-0.0032554
0.000255812
-0.00327856
0.000233168
-0.00326971
0.000205579
-0.00324537
0.00017514
-0.00321498
0.00014312
-0.00318339
0.000110222
-0.00315282
7.6806e-05
-0.00312417
4.30417e-05
-0.00309783
9.01792e-06
-0.00307402
-2.51956e-05
-0.00305294
-5.95223e-05
-0.00303473
-9.38804e-05
-0.00301936
-0.00300677
-0.000128211
3.12652e-05
-0.00059064
8.91374e-05
-0.00153405
0.000147016
-0.00224197
0.000189564
-0.00272485
0.000211424
-0.00301973
0.000213739
-0.00317639
0.00020064
-0.0032423
0.000176792
-0.00325472
0.000146131
-0.00323905
0.000111483
-0.00321072
7.46565e-05
-0.00317816
3.67055e-05
-0.00314544
-1.80899e-06
-0.0031143
-4.0621e-05
-0.00308536
-7.96233e-05
-0.00305883
-0.000118774
-0.00303487
-0.000158035
-0.00301368
-0.000197344
-0.00299542
-0.00023661
-0.00298009
-0.00296762
-0.000275759
2.86001e-05
-0.00061924
7.87881e-05
-0.00158424
0.000125397
-0.00228858
0.000155077
-0.00275453
0.000164163
-0.00302882
0.000154816
-0.00316704
0.000131532
-0.00321901
9.89074e-05
-0.00322209
6.06047e-05
-0.00320074
1.9139e-05
-0.00316926
-2.39396e-05
-0.00313508
-6.77576e-05
-0.00310162
-0.000111867
-0.00307019
-0.000156071
-0.00304116
-0.000200312
-0.00301459
-0.000244589
-0.00299059
-0.000288899
-0.00296937
-0.000333193
-0.00295112
-0.000377367
-0.00293592
-0.00292367
-0.00042132
2.55938e-05
-0.000644834
6.76686e-05
-0.00162631
0.000102871
-0.00232379
0.000119919
-0.00277158
0.000116729
-0.00302563
9.63147e-05
-0.00314662
6.34043e-05
-0.0031861
2.24482e-05
-0.00318114
-2.31864e-05
-0.00315511
-7.1282e-05
-0.00312116
-0.000120519
-0.00308584
-0.000170173
-0.00305197
-0.000219882
-0.00302048
-0.000269498
-0.00299154
-0.000318998
-0.00296509
-0.000368419
-0.00294117
-0.000417795
-0.00291999
-0.000467095
-0.00290182
-0.000516203
-0.00288681
-0.0028749
-0.000564977
2.22902e-05
-0.000667124
5.59345e-05
-0.00165996
7.97129e-05
-0.00234757
8.44422e-05
-0.00277631
6.94987e-05
-0.00301069
3.859e-05
-0.00311571
-3.43793e-06
-0.00314408
-5.23361e-05
-0.00313224
-0.000105042
-0.0031024
-0.00015962
-0.00306658
-0.000214953
-0.00303051
-0.000270441
-0.00299648
-0.000325782
-0.00296514
-0.000380857
-0.00293647
-0.000435662
-0.00291028
-0.000490267
-0.00288656
-0.000544748
-0.00286551
-0.000599109
-0.00284746
-0.000653218
-0.0028327
-0.00282124
-0.000706876
1.87362e-05
-0.000685861
4.37381e-05
-0.00168496
5.6179e-05
-0.00236001
4.89677e-05
-0.00276909
2.28041e-05
-0.00298452
-1.80505e-05
-0.00307486
-6.8728e-05
-0.0030934
-0.000125221
-0.00307574
-0.000184773
-0.00304285
-0.00024571
-0.00300565
-0.000307098
-0.00296912
-0.000368438
-0.00293514
-0.000429472
-0.00290411
-0.000490085
-0.00287585
-0.000550277
-0.00285009
-0.000610137
-0.0028267
-0.000669789
-0.00280586
-0.000729287
-0.00278796
-0.000788497
-0.00277349
-0.00276261
-0.000847123
1.49802e-05
-0.000700841
3.12266e-05
-0.0017012
3.25072e-05
-0.00236129
1.3782e-05
-0.00275037
-2.30615e-05
-0.00294768
-7.33351e-05
-0.00302459
-0.000132226
-0.00303451
-0.000195995
-0.00301198
-0.000262186
-0.00297666
-0.000329371
-0.00293846
-0.000396779
-0.00290171
-0.000464003
-0.00286792
-0.000530814
-0.0028373
-0.000597089
-0.00280958
-0.0006628
-0.00278438
-0.000728034
-0.00276147
-0.000792955
-0.00274094
-0.000857682
-0.00272324
-0.000922095
-0.00270908
-0.00269895
-0.000985757
1.10712e-05
-0.000711912
1.85401e-05
-0.00170867
8.91508e-06
-0.00235166
-2.08583e-05
-0.0027206
-6.78384e-05
-0.0029007
-0.000127022
-0.0029654
-0.00019371
-0.00296782
-0.000264449
-0.00294124
-0.000337074
-0.00290403
-0.000410386
-0.00286515
-0.00048377
-0.00282833
-0.000556905
-0.00279478
-0.000629593
-0.00276461
-0.000701696
-0.00273748
-0.000773137
-0.00271294
-0.000843959
-0.00269065
-0.000914335
-0.00267056
-0.000984462
-0.00265311
-0.00105425
-0.00263929
-0.00263005
-0.00112315
7.05764e-06
-0.00071897
5.81016e-06
-0.00170742
-1.43996e-05
-0.00233145
-5.47251e-05
-0.00268027
-0.000111297
-0.00284413
-0.000178892
-0.00289781
-0.000252972
-0.00289374
-0.000330375
-0.00286383
-0.000409214
-0.00282519
-0.000488506
-0.00278586
-0.000567784
-0.00274905
-0.000646824
-0.00271574
-0.000725477
-0.00268596
-0.0008036
-0.00265935
-0.000881067
-0.00263547
-0.000957841
-0.00261388
-0.00103407
-0.00259433
-0.00111004
-0.00257714
-0.00118575
-0.00256359
-0.00255497
-0.00126082
2.98677e-06
-0.000721956
-6.84154e-06
-0.0016976
-3.72601e-05
-0.00230103
-8.76179e-05
-0.00262991
-0.000153236
-0.00277851
-0.00022875
-0.00282229
-0.000309817
-0.00281267
-0.00039356
-0.00278009
-0.000478362
-0.00274039
-0.000563438
-0.00270078
-0.000648471
-0.00266402
-0.000733349
-0.00263086
-0.000818005
-0.0026013
-0.000902339
-0.00257502
-0.000986203
-0.00255161
-0.00106949
-0.00253059
-0.00115229
-0.00251153
-0.001235
-0.00249442
-0.00131785
-0.00248074
-0.00247139
-0.00140143
-1.09678e-06
-0.00072086
-1.93051e-05
-0.00167939
-5.95115e-05
-0.00226083
-0.000119365
-0.00257006
-0.000193483
-0.00270439
-0.000276426
-0.00273935
-0.000364062
-0.00272504
-0.000453795
-0.00269036
-0.000544252
-0.00264994
-0.000634838
-0.0026102
-0.000725384
-0.00257347
-0.000815913
-0.00254034
-0.000906497
-0.00251072
-0.000997171
-0.00248434
-0.00108788
-0.0024609
-0.00117851
-0.00243996
-0.00126907
-0.00242097
-0.00135992
-0.00240357
-0.00145163
-0.00238903
-0.00237608
-0.00154694
-5.15192e-06
-0.000715708
-3.14841e-05
-0.00165306
-8.10229e-05
-0.00221129
-0.000149825
-0.00250126
-0.000231901
-0.00262232
-0.000321782
-0.00264947
-0.000415556
-0.00263126
-0.000510889
-0.00259502
-0.000606623
-0.0025542
-0.000702323
-0.0025145
-0.000797948
-0.00247785
-0.000893659
-0.00244463
-0.000989711
-0.00241466
-0.0010864
-0.00238766
-0.001184
-0.00236329
-0.00128273
-0.00234124
-0.00138268
-0.00232101
-0.00148444
-0.00230181
-0.00159028
-0.00228319
-0.00227666
-0.00168971
-9.12985e-06
-0.000706578
-4.32767e-05
-0.00161891
-0.000101665
-0.0021529
-0.000178867
-0.00242406
-0.000268366
-0.00253282
-0.000364705
-0.00255313
-0.000464184
-0.00253178
-0.000564706
-0.0024945
-0.000665287
-0.00245362
-0.000765603
-0.00241418
-0.000865679
-0.00237777
-0.00096572
-0.00234458
-0.00106606
-0.00231433
-0.00116716
-0.00228656
-0.00126964
-0.00226081
-0.00137435
-0.00223653
-0.00148215
-0.00221321
-0.00159344
-0.00219053
-0.00170916
-0.00216746
-0.00213692
-0.0018489
-1.30206e-05
-0.000693557
-5.46532e-05
-0.00157728
-0.000121402
-0.00208615
-0.000206462
-0.002339
-0.000302866
-0.00243641
-0.000405195
-0.0024508
-0.000509959
-0.00242702
-0.000615267
-0.00238919
-0.000720282
-0.00234861
-0.00082475
-0.00230971
-0.000928698
-0.00227382
-0.00103227
-0.00224101
-0.00113566
-0.00221094
-0.00123909
-0.00218313
-0.0013428
-0.0021571
-0.00144699
-0.00213234
-0.00155173
-0.00210847
-0.00165725
-0.00208501
-0.00176426
-0.00206046
-0.00203131
-0.00186986
-1.6786e-05
-0.000676771
-6.55421e-05
-0.00152852
-0.000140153
-0.00201154
-0.000232539
-0.00224661
-0.000335352
-0.0023336
-0.000443227
-0.00234293
-0.000552879
-0.00231737
-0.000662604
-0.00227947
-0.00077169
-0.00223952
-0.000879947
-0.00220145
-0.00098742
-0.00216635
-0.00109424
-0.00213419
-0.00120056
-0.00210462
-0.00130651
-0.00207718
-0.00141217
-0.00205143
-0.00151757
-0.00202694
-0.00162267
-0.00200336
-0.00172744
-0.00198024
-0.00183116
-0.00195674
-0.00193202
-0.00193045
-2.04049e-05
-0.000656366
-7.59042e-05
-0.00147302
-0.000157878
-0.00192957
-0.000257078
-0.00214741
-0.000365826
-0.00222485
-0.000478832
-0.00222992
-0.000593003
-0.0022032
-0.000706802
-0.00216567
-0.000819622
-0.0021267
-0.000931315
-0.00208976
-0.00104193
-0.00205573
-0.00115157
-0.00202455
-0.00126033
-0.00199586
-0.00136827
-0.00196924
-0.00147541
-0.0019443
-0.00158166
-0.00192069
-0.00168688
-0.00189814
-0.00179081
-0.00187632
-0.00189276
-0.00185478
-0.00183311
-0.00199168
-2.38602e-05
-0.000632506
-8.57111e-05
-0.00141117
-0.000174556
-0.00184072
-0.000280075
-0.00204189
-0.000394311
-0.00211062
-0.000512063
-0.00211217
-0.000630417
-0.00208484
-0.000747993
-0.00204809
-0.000864276
-0.00201042
-0.000979163
-0.00197487
-0.00109271
-0.00194219
-0.001205
-0.00191226
-0.0013161
-0.00188475
-0.00142607
-0.00185928
-0.00153486
-0.0018355
-0.00164242
-0.00181314
-0.0017486
-0.00179196
-0.00185315
-0.00177177
-0.00195567
-0.00175226
-0.0017332
-0.00205557
-2.71386e-05
-0.000605368
-9.49434e-05
-0.00134337
-0.000190177
-0.00174549
-0.000301541
-0.00193053
-0.000420844
-0.00199131
-0.000542981
-0.00199003
-0.00066521
-0.00196261
-0.000786293
-0.00192701
-0.0009058
-0.00189091
-0.00102367
-0.00185701
-0.00113996
-0.0018259
-0.00125478
-0.00179745
-0.00136818
-0.00177135
-0.0014802
-0.00174726
-0.00159082
-0.00172488
-0.00169999
-0.00170397
-0.0018076
-0.00168435
-0.00191351
-0.00166586
-0.00201752
-0.00164825
-0.00163138
-0.00211934
-3.02299e-05
-0.000575138
-0.000103588
-0.00127001
-0.000204739
-0.00164434
-0.000321493
-0.00181377
-0.000445466
-0.00186734
-0.000571651
-0.00186385
-0.000697471
-0.00183679
-0.000821817
-0.00180266
-0.000944339
-0.00176839
-0.00106501
-0.00173633
-0.00118392
-0.00170698
-0.00130117
-0.0016802
-0.00141683
-0.00165569
-0.00153096
-0.00163313
-0.00164355
-0.00161228
-0.00175459
-0.00159292
-0.00186404
-0.0015749
-0.00197182
-0.00155808
-0.00207784
-0.00154223
-0.00152726
-0.00218196
-3.3126e-05
-0.000542012
-0.000111638
-0.0011915
-0.000218245
-0.00153773
-0.000339954
-0.00169206
-0.000468217
-0.00173908
-0.000598133
-0.00173393
-0.000727277
-0.00170765
-0.00085466
-0.00167528
-0.000980004
-0.00164305
-0.00110332
-0.00161301
-0.00122473
-0.00158558
-0.00134433
-0.0015606
-0.00146223
-0.00153779
-0.00157848
-0.00151688
-0.00169314
-0.00149763
-0.0018062
-0.00147986
-0.00191768
-0.00146343
-0.00202756
-0.0014482
-0.00213582
-0.00143396
-0.00142067
-0.00224241
-3.58208e-05
-0.000506191
-0.000119087
-0.00110823
-0.000230701
-0.00142612
-0.000356943
-0.00156582
-0.000489136
-0.00160688
-0.00062248
-0.00160059
-0.000754693
-0.00157544
-0.000884895
-0.00154508
-0.00101288
-0.00151507
-0.00113869
-0.0014872
-0.00126246
-0.00146181
-0.00138433
-0.00143873
-0.00150441
-0.00141771
-0.00162279
-0.0013985
-0.00173953
-0.00138089
-0.00185467
-0.00136471
-0.00196826
-0.00134984
-0.00208034
-0.00133612
-0.00219092
-0.00132338
-0.00131161
-0.00229998
-3.83091e-05
-0.000467882
-0.000125932
-0.00102061
-0.000242112
-0.00130993
-0.000372483
-0.00143545
-0.000508256
-0.00147111
-0.000644734
-0.00146411
-0.000779768
-0.0014404
-0.000912577
-0.00141227
-0.00104301
-0.00138463
-0.00117116
-0.00135905
-0.00129717
-0.00133579
-0.0014212
-0.0013147
-0.00154339
-0.00129553
-0.00166383
-0.00127806
-0.00178262
-0.0012621
-0.00189983
-0.0012475
-0.00201554
-0.00123413
-0.00212979
-0.00122187
-0.00224264
-0.00121053
-0.00120014
-0.00235411
-4.05865e-05
-0.000427295
-0.00013217
-0.000929023
-0.000252486
-0.00118962
-0.000386587
-0.00130135
-0.000525602
-0.0013321
-0.000664928
-0.00132478
-0.000802538
-0.00130279
-0.000937741
-0.00127707
-0.00107044
-0.00125193
-0.00120076
-0.00122874
-0.00132886
-0.00120768
-0.00145493
-0.00118863
-0.00157911
-0.00117135
-0.00170153
-0.00115564
-0.0018223
-0.00114134
-0.00194151
-0.00112829
-0.00205924
-0.0011164
-0.00217559
-0.00110552
-0.00229062
-0.00109551
-0.0010864
-0.00240436
-4.26493e-05
-0.000384646
-0.000137798
-0.000833874
-0.000261824
-0.00106559
-0.000399271
-0.0011639
-0.000541195
-0.00119017
-0.000683087
-0.00118289
-0.000823028
-0.00116285
-0.000960407
-0.00113969
-0.00109518
-0.00111716
-0.00122748
-0.00109643
-0.00135752
-0.00107764
-0.00148548
-0.00106067
-0.00161153
-0.0010453
-0.0017358
-0.00103137
-0.00185843
-0.00101871
-0.00197951
-0.0010072
-0.00209917
-0.000996743
-0.00221748
-0.000987209
-0.00233454
-0.000978455
-0.000970548
-0.00245039
-4.44939e-05
-0.000340152
-0.000142815
-0.000735553
-0.000270132
-0.000938276
-0.000410542
-0.00102349
-0.000555048
-0.00104566
-0.000699225
-0.00103872
-0.000841251
-0.00102082
-0.000980586
-0.00100035
-0.00111722
-0.000980528
-0.00125133
-0.000962317
-0.00138313
-0.000945844
-0.00151282
-0.000930979
-0.00164057
-0.00091755
-0.00176655
-0.000905395
-0.00189088
-0.000894377
-0.0020137
-0.000884385
-0.00213512
-0.000875326
-0.00225524
-0.000867091
-0.00237414
-0.000859551
-0.000852781
-0.00249191
-4.61169e-05
-0.000294035
-0.000147216
-0.000634454
-0.000277408
-0.000808084
-0.000420407
-0.000880495
-0.000567172
-0.0008989
-0.000713353
-0.000892534
-0.000857215
-0.000876962
-0.000998278
-0.00085929
-0.00113657
-0.000842235
-0.00127229
-0.000826599
-0.00140566
-0.000812474
-0.00153689
-0.000799746
-0.00166618
-0.000788265
-0.00179368
-0.00077789
-0.00191956
-0.000768503
-0.00204393
-0.000760009
-0.00216693
-0.000752326
-0.00228867
-0.000745356
-0.00240923
-0.00073899
-0.000733306
-0.0025287
-4.75153e-05
-0.00024652
-0.000151
-0.00053097
-0.000283654
-0.000675429
-0.000428869
-0.00073528
-0.00057757
-0.000750199
-0.000725475
-0.000744629
-0.000870921
-0.000731516
-0.00101348
-0.000716732
-0.00115321
-0.000702506
-0.00129032
-0.000689484
-0.00142506
-0.000677736
-0.00155765
-0.000667163
-0.00168827
-0.000657637
-0.00181712
-0.000649043
-0.00194434
-0.00064128
-0.00207008
-0.000634269
-0.00219447
-0.00062794
-0.00231762
-0.000622209
-0.00243962
-0.000616986
-0.000612345
-0.00256058
-4.86864e-05
-0.000197834
-0.000154161
-0.000425495
-0.000288869
-0.000540722
-0.00043593
-0.000588219
-0.000586247
-0.000599882
-0.000735593
-0.000595283
-0.000882367
-0.000584742
-0.00102618
-0.000572917
-0.00116712
-0.000561565
-0.00130542
-0.00055119
-0.00144131
-0.00054184
-0.00157504
-0.000533435
-0.00170681
-0.000525872
-0.00183679
-0.000519058
-0.00196516
-0.000512913
-0.00209206
-0.000507372
-0.00221762
-0.00050238
-0.00234196
-0.000497867
-0.00246518
-0.000493762
-0.000490131
-0.0025874
-4.96276e-05
-0.000148206
-0.000156699
-0.000318423
-0.00029305
-0.000404371
-0.00044159
-0.000439679
-0.000593202
-0.000448269
-0.000743706
-0.000444778
-0.00089155
-0.000436898
-0.00103638
-0.000428088
-0.0011783
-0.000419646
-0.00131755
-0.000411941
-0.00145438
-0.000405006
-0.00158904
-0.000398779
-0.00172172
-0.000393183
-0.00185263
-0.000388149
-0.00198193
-0.000383616
-0.00210977
-0.000379536
-0.00223628
-0.000375867
-0.00236159
-0.000372555
-0.0024858
-0.00036955
-0.000366903
-0.00260903
-5.03368e-05
-9.78692e-05
-0.000158609
-0.000210151
-0.000296196
-0.000266784
-0.000445848
-0.000290027
-0.000598435
-0.000295682
-0.000749812
-0.000293401
-0.000898463
-0.000288248
-0.00104406
-0.000282492
-0.00118672
-0.000276986
-0.00132669
-0.000271969
-0.00146424
-0.00026746
-0.0015996
-0.000263418
-0.00173299
-0.000259794
-0.0018646
-0.000256539
-0.0019946
-0.000253614
-0.00212315
-0.000250987
-0.00225038
-0.000248631
-0.00237643
-0.000246509
-0.00250139
-0.000244589
-0.000242907
-0.00262539
-5.08125e-05
-4.70567e-05
-0.00015989
-0.000101074
-0.000298305
-0.000128369
-0.000448703
-0.000139629
-0.000601945
-0.00014244
-0.000753909
-0.000141437
-0.000903104
-0.000139053
-0.00104922
-0.00013638
-0.00119238
-0.000133827
-0.00133284
-0.000131508
-0.00147086
-0.000129434
-0.0016067
-0.000127583
-0.00174056
-0.000125931
-0.00187265
-0.000124455
-0.00200312
-0.000123135
-0.00213215
-0.000121958
-0.00225988
-0.000120907
-0.00238642
-0.000119968
-0.00251188
-0.000119123
-0.000118393
-0.0026364
-5.10535e-05
3.99678e-06
-0.000160539
8.41152e-06
-0.000299376
1.04681e-05
-0.000450155
1.11495e-05
-0.000603731
1.11366e-05
-0.000755996
1.08275e-05
-0.000905469
1.042e-05
-0.00105185
9.99735e-06
-0.00119526
9.58882e-06
-0.00133597
9.20222e-06
-0.00147424
8.83836e-06
-0.00161032
8.49615e-06
-0.00174443
8.1742e-06
-0.00187675
7.87115e-06
-0.00200747
7.58576e-06
-0.00213675
7.31698e-06
-0.00226472
7.06382e-06
-0.00239151
6.82499e-06
-0.00251723
6.59877e-06
6.38536e-06
-0.00264201
-5.10594e-05
5.50562e-05
-0.000160558
0.00011791
-0.00029941
0.00014932
-0.000450203
0.000161943
-0.000603794
0.000164727
-0.000756071
0.000163105
-0.000905556
0.000159905
-0.00105195
0.000156386
-0.00119537
0.000153015
-0.00133609
0.000149923
-0.00147437
0.00014712
-0.00161046
0.000144584
-0.00174457
0.000142288
-0.00187691
0.000140205
-0.00200764
0.000138314
-0.00213692
0.000136598
-0.0022649
0.000135041
-0.00239169
0.000133623
-0.00251742
0.000132326
0.000131168
-0.0026422
-5.08302e-05
0.000105886
-0.000159945
0.000227024
-0.000298405
0.00028778
-0.000448848
0.000312386
-0.000602132
0.000318012
-0.000754136
0.000315109
-0.000903367
0.000309136
-0.00104951
0.000302533
-0.00119271
0.000296207
-0.0013332
0.000290414
-0.00147125
0.000285175
-0.00160712
0.000280447
-0.001741
0.000276176
-0.00187311
0.000272313
-0.00200361
0.000268815
-0.00213266
0.000265649
-0.0022604
0.000262783
-0.00238696
0.000260182
-0.00251244
0.000257807
0.000255695
-0.00263697
-5.03662e-05
0.000156253
-0.0001587
0.000335359
-0.000296362
0.000425442
-0.000446089
0.000462113
-0.000598747
0.00047067
-0.00075019
0.000466552
-0.000898902
0.000457849
-0.00104456
0.000448186
-0.00118727
0.000438921
-0.00132729
0.000430437
-0.00146489
0.000422769
-0.00160029
0.000415853
-0.00173373
0.000409608
-0.00186538
0.000403963
-0.00199542
0.000398854
-0.002124
0.000394232
-0.00225127
0.00039005
-0.00237734
0.000386256
-0.00250233
0.000382793
0.000379714
-0.00262634
-4.96686e-05
0.000205921
-0.000156827
0.000442517
-0.000293282
0.000561897
-0.000441928
0.000610758
-0.00059364
0.000622382
-0.000744236
0.000617148
-0.000892166
0.000605778
-0.00103708
0.000593096
-0.00117907
0.000580916
-0.00131839
0.000569758
-0.00145529
0.000559671
-0.00159001
0.000550573
-0.00172276
0.000542357
-0.00185373
0.000534928
-0.00198308
0.000528203
-0.00211096
0.000522116
-0.00223752
0.000516608
-0.00236287
0.000511608
-0.00248712
0.000507041
0.000502973
-0.00261038
-4.87389e-05
0.00025466
-0.000154326
0.000548104
-0.000289168
0.000696739
-0.000436365
0.000757955
-0.000586811
0.000772827
-0.000736276
0.000766614
-0.000883161
0.000752663
-0.00102708
0.000737015
-0.00116812
0.000721955
-0.00130651
0.000708146
-0.00144249
0.000695655
-0.0015763
0.000684383
-0.00170814
0.0006742
-0.0018382
0.000664985
-0.00196664
0.000656638
-0.0020936
0.000649075
-0.00221921
0.000642226
-0.00234361
0.000636002
-0.00246688
0.000630312
0.000625228
-0.00258914
-4.75791e-05
0.000302239
-0.0001512
0.000651725
-0.00028402
0.000829559
-0.000429402
0.000903337
-0.000578261
0.000921686
-0.000726312
0.000914665
-0.000871895
0.000898246
-0.00101458
0.0008797
-0.00115443
0.000861806
-0.00129166
0.000845375
-0.00142651
0.000830502
-0.00155919
0.000817069
-0.00168992
0.000804923
-0.00181885
0.000793922
-0.00194616
0.000783944
-0.00207198
0.000774892
-0.00219643
0.000766682
-0.00231964
0.000759214
-0.00244171
0.000752374
0.00074624
-0.00256272
-4.61917e-05
0.000348431
-0.000147453
0.000752985
-0.00027784
0.000959947
-0.000421037
0.00104653
-0.000567989
0.00106864
-0.000714345
0.00106102
-0.000858369
0.00104227
-0.000999584
0.00102092
-0.00113802
0.00100024
-0.00127387
0.000981229
-0.00140737
0.000964
-0.00153873
0.000948424
-0.00166813
0.000934323
-0.00179574
0.000921535
-0.00192171
0.000909918
-0.00204618
0.000899361
-0.00216927
0.000889768
-0.00229108
0.000881026
-0.00241171
0.000873005
0.000865777
-0.00253125
-4.45793e-05
0.00039301
-0.000143086
0.000851492
-0.00027063
0.00108749
-0.00041127
0.00118717
-0.000555994
0.00121336
-0.000700373
0.0012054
-0.000842587
0.00118448
-0.000982098
0.00116043
-0.0011189
0.00113705
-0.00125317
0.0011155
-0.00138512
0.00109595
-0.00151495
0.00107825
-0.00164284
0.00106221
-0.00176894
0.00104763
-0.00189339
0.00103437
-0.00201632
0.00102229
-0.00213783
0.00101128
-0.00225804
0.00100124
-0.00237703
0.000991992
0.000983617
-0.00249487
-4.2745e-05
0.000435755
-0.000138104
0.000946852
-0.000262388
0.00121177
-0.000400097
0.00132488
-0.000542269
0.00135554
-0.000684392
0.00134752
-0.000824548
0.00132464
-0.000962129
0.00129801
-0.00109709
0.001272
-0.00122958
0.00124799
-0.00135979
0.00122616
-0.00148791
0.00120637
-0.00161411
0.00118841
-0.00173853
0.00117205
-0.00186129
0.00115713
-0.0019825
0.0011435
-0.00210227
0.00113105
-0.00222069
0.00111966
-0.00233783
0.00110914
0.00109955
-0.00245377
-4.06919e-05
0.000476447
-0.000132509
0.00103867
-0.000253114
0.00133238
-0.000387511
0.00145928
-0.000526806
0.00149483
-0.000666392
0.00148711
-0.000804244
0.00146249
-0.000939674
0.00143344
-0.00107259
0.00140492
-0.00120311
0.00137851
-0.00133141
0.00135446
-0.00145766
0.00133263
-0.00158202
0.00131276
-0.0017046
0.00129463
-0.00182552
0.00127805
-0.00194487
0.00126285
-0.00206274
0.00124892
-0.00217921
0.00123612
-0.00229434
0.00122427
0.00121339
-0.00240818
-3.84234e-05
0.00051487
-0.000126304
0.00112655
-0.000242804
0.00144888
-0.000373503
0.00158998
-0.000509589
0.00163092
-0.000646357
0.00162388
-0.000781661
0.0015978
-0.000914724
0.0015665
-0.0010454
0.00153559
-0.00117377
0.00150688
-0.0013
0.00148069
-0.00142424
0.00145687
-0.00154662
0.00143514
-0.00166725
0.00141526
-0.00178621
0.00139701
-0.00190359
0.00138023
-0.00201944
0.00136477
-0.00213383
0.00135051
-0.0022468
0.00133725
0.00132497
-0.00235838
-3.59432e-05
0.000550814
-0.00011949
0.0012101
-0.000231455
0.00156084
-0.00035806
0.00171658
-0.000490598
0.00176345
-0.000624262
0.00175754
-0.000756774
0.00173031
-0.000887257
0.00169698
-0.0010155
0.00166384
-0.00114157
0.00163295
-0.00126559
0.00160471
-0.00138769
0.00157897
-0.00150798
0.00155544
-0.00162657
0.00153384
-0.0017435
0.00151394
-0.00185883
0.00149555
-0.00197258
0.00147853
-0.00208481
0.00146274
-0.00219553
0.00144796
0.00143416
-0.00230472
-3.32555e-05
0.000584069
-0.000112069
0.00128891
-0.000219059
0.00166783
-0.000341164
0.00183869
-0.000469807
0.0018921
-0.000600075
0.00188781
-0.000729547
0.00185978
-0.000857238
0.00182467
-0.000982874
0.00178948
-0.00110647
0.00175655
-0.00122814
0.00172638
-0.001348
0.00169883
-0.00146614
0.00167358
-0.00158263
0.00165033
-0.0016975
0.00162881
-0.00181076
0.00160882
-0.00192243
0.0015902
-0.00203248
0.00157279
-0.00214091
0.00155639
0.00154088
-0.00224763
-3.03651e-05
0.000614434
-0.000104046
0.00136259
-0.00020561
0.0017694
-0.000322796
0.00195588
-0.000447182
0.00201648
-0.000573751
0.00201438
-0.000699929
0.00198596
-0.000824611
0.00194936
-0.000947452
0.00191232
-0.00106843
0.00187753
-0.00118763
0.00184559
-0.00130516
0.00181636
-0.0014211
0.00178951
-0.00153548
0.00176471
-0.00164831
0.00174165
-0.00175958
0.00172009
-0.00186924
0.00169985
-0.00197721
0.00168077
-0.00208341
0.00166259
0.00164516
-0.00218769
-2.72782e-05
0.000641712
-9.54243e-05
0.00143074
-0.000191101
0.00186507
-0.000302932
0.00206771
-0.000422684
0.00213624
-0.000545238
0.00213693
-0.000667855
0.00210857
-0.000789303
0.0020708
-0.000909157
0.00203217
-0.00102736
0.00199573
-0.00114397
0.0019622
-0.0012591
0.00193148
-0.00137279
0.00190321
-0.0014851
0.00187701
-0.00159599
0.00185254
-0.00170541
0.00182951
-0.00181326
0.0018077
-0.00191939
0.0017869
-0.0020236
0.00176679
0.00174715
-0.00212559
-2.40023e-05
0.000665715
-8.62115e-05
0.00149295
-0.000175529
0.00195439
-0.00028155
0.00217373
-0.000396271
0.00225096
-0.000514474
0.00225514
-0.000633247
0.00222735
-0.000751217
0.00218877
-0.000867876
0.00214883
-0.000983123
0.00211098
-0.00109701
0.00207609
-0.00120964
0.0020441
-0.00132108
0.00201464
-0.00143135
0.00198729
-0.00154045
0.00196164
-0.00164829
0.00193736
-0.00175474
0.00191415
-0.00185954
0.0018917
-0.00196229
0.00186954
0.00184725
-0.00206239
-2.05475e-05
0.000686262
-7.64196e-05
0.00154882
-0.000158894
0.00203687
-0.000258631
0.00227346
-0.0003679
0.00236023
-0.000481393
0.00236863
-0.000596014
0.00234197
-0.000710237
0.002303
-0.00082346
0.00226205
-0.000935542
0.00222306
-0.00104653
0.00218708
-0.00115654
0.00215411
-0.00126565
0.00212376
-0.00137394
0.00209558
-0.00148142
0.00206911
-0.00158799
0.00204393
-0.00169352
0.00201968
-0.00179774
0.00199591
-0.00189995
0.00197176
0.00194639
-0.0019991
-1.69268e-05
0.000703189
-6.60674e-05
0.00159796
-0.000141205
0.002112
-0.000234164
0.00236642
-0.000337535
0.0024636
-0.000445931
0.00247703
-0.000556066
0.0024521
-0.000666244
0.00241317
-0.000775762
0.00237157
-0.000884436
0.00233173
-0.000992315
0.00229496
-0.00109953
0.00226133
-0.00120624
0.00223047
-0.00131258
0.00220191
-0.00141862
0.00217515
-0.00152438
0.0021497
-0.00162985
0.00212515
-0.00173497
0.00210103
-0.00183902
0.00207581
0.00204593
-0.00193857
-1.31571e-05
0.000716346
-5.51824e-05
0.00163998
-0.000122483
0.0021793
-0.000208149
0.00245209
-0.00030515
0.0025606
-0.000408035
0.00257991
-0.000513314
0.00255738
-0.000619105
0.00251897
-0.000724579
0.00247704
-0.00082949
0.00243664
-0.000933871
0.00239935
-0.00103787
0.00236533
-0.00114168
0.00233427
-0.00124552
0.00230575
-0.00134963
0.00227927
-0.00145422
0.00225429
-0.00155935
0.00223028
-0.00166525
0.00220693
-0.00177265
0.00218321
0.00215189
-0.00187861
-9.25921e-06
0.000725605
-4.3803e-05
0.00167453
-0.000102765
0.00223826
-0.000180607
0.00252993
-0.00027074
0.00265073
-0.000367672
0.00267684
-0.0004677
0.00265741
-0.000568732
0.00262
-0.000669798
0.00257811
-0.000770584
0.00253743
-0.000871118
0.00249988
-0.000971612
0.00246582
-0.0010724
0.00243506
-0.00117395
0.0024073
-0.0012769
0.00238222
-0.0013821
0.00235949
-0.00149043
0.0023386
-0.00160226
0.00231876
-0.00171855
0.0022995
0.00229262
-0.00185928
-5.27119e-06
0.000730877
-3.20001e-05
0.00170126
-8.21306e-05
0.00228839
-0.000151606
0.00259941
-0.000234354
0.00273348
-0.000324866
0.00276735
-0.000419221
0.00275176
-0.000515093
0.00271587
-0.000611338
0.00267435
-0.00070753
0.00263362
-0.000803638
0.00259599
-0.000899826
0.00256201
-0.000996356
0.00253159
-0.00109353
0.00250447
-0.00119163
0.00248032
-0.00129086
0.00245872