1.275 	2.15223e-18 	-2.76991e-20 	-0.0969123 	0.0216697 	-3.4154e-22
1.825 	2.15223e-18 	-1.39322e-20 	-0.210854 	-0.317767 	4.42705e-21
2.375 	2.15223e-18 	1.38775e-18 	-0.144603 	-0.383474 	-1.79627e-21
2.925 	2.15223e-18 	2.78958e-18 	0.292684 	0.0546053 	1.38765e-22
3.475 	2.15223e-18 	4.53849e-18 	0.456219 	0.466594 	-1.24165e-21
4.025 	2.15223e-18 	6.28755e-18 	0.135674 	0.621054 	-1.53503e-23
4.575 	2.15223e-18 	6.30203e-18 	0.454993 	0.300476 	1.52584e-21
5.125 	2.15223e-18 	6.31666e-18 	0.724023 	-0.181778 	-2.16105e-21
5.675 	2.15223e-18 	6.33144e-18 	0.762758 	-0.492055 	-3.74583e-22
6.225 	2.15223e-18 	4.61166e-18 	0.609954 	-0.586729 	-5.2008e-22
