/*--------------------------------*- C++ -*----------------------------------*\
  =========                 |
  \\      /  F ield         | OpenFOAM: The Open Source CFD Toolbox
   \\    /   O peration     | Website:  https://openfoam.org
    \\  /    A nd           | Version:  6.0
     \\/     M anipulation  |
\*---------------------------------------------------------------------------*/
FoamFile
{
    version     2.0;
    format      ascii;
    class       surfaceScalarField;
    location    "4";
    object      phi;
}
// * * * * * * * * * * * * * * * * * * * * * * * * * * * * * * * * * * * * * //

dimensions      [0 3 -1 0 0 0 0];

internalField   nonuniform List<scalar> 
7840
(
-1.56987e-05
1.56927e-05
6.08288e-09
-5.20912e-05
3.64096e-05
-1.70883e-08
-0.000102398
5.03722e-05
-6.58492e-08
-0.000161995
5.97299e-05
-1.32163e-07
-0.000227653
6.58675e-05
-2.10075e-07
-0.000297113
6.97552e-05
-2.95131e-07
-0.000368794
7.20647e-05
-3.83682e-07
-0.000441573
7.32518e-05
-4.72513e-07
-0.000514635
7.36206e-05
-5.58719e-07
-0.000587365
7.33701e-05
-6.39728e-07
-0.000659281
7.26295e-05
-7.13345e-07
-0.000729987
7.14834e-05
-7.77792e-07
-0.000799144
6.99888e-05
-8.31726e-07
-0.000866457
6.8187e-05
-8.74272e-07
-0.000931661
6.61096e-05
-9.05021e-07
-0.000994519
6.37816e-05
-9.23935e-07
-0.00105481
6.12244e-05
-9.31328e-07
-0.00111235
5.84636e-05
-9.27921e-07
-0.00116696
5.55252e-05
-9.14458e-07
5.24616e-05
-8.92309e-07
-0.00121853
-1.50367e-05
3.07294e-05
-5.00631e-05
7.1436e-05
-9.86291e-05
9.89382e-05
-0.000156286
0.000117386
-0.000219884
0.000129465
-0.000287194
0.000137066
-0.000356634
0.000141504
-0.000427061
0.000143679
-0.000497633
0.000144193
-0.000567708
0.000143445
-0.000636772
0.000141694
-0.000704403
0.000139114
-0.000770237
0.000135822
-0.000833955
0.000131905
-0.000895277
0.000127431
-0.000953951
0.000122455
-0.00100975
0.000117026
-0.00106249
0.000111198
-0.00111199
0.000105029
9.86138e-05
-0.00115814
-1.37611e-05
4.44905e-05
-4.61404e-05
0.000103815
-9.13197e-05
0.000144117
-0.000145187
0.000171253
-0.000204757
0.000189035
-0.000267861
0.000200171
-0.000332917
0.00020656
-0.000398752
0.000209513
-0.000464477
0.000209918
-0.000529399
0.000208366
-0.000592952
0.000205248
-0.000654664
0.000200826
-0.000714123
0.000195282
-0.000770973
0.000188755
-0.000824898
0.000181357
-0.000875625
0.000173183
-0.000922916
0.000164317
-0.000966572
0.000154854
-0.00100644
0.000144897
0.000134572
-0.0010424
-1.19626e-05
5.64531e-05
-4.05745e-05
0.000132427
-8.08997e-05
0.000184443
-0.000129305
0.000219659
-0.000183049
0.00024278
-0.000240062
0.000257184
-0.000298773
0.000265271
-0.000357979
0.000268719
-0.000416736
0.000268675
-0.000474287
0.000265917
-0.000530004
0.000260965
-0.00058335
0.000254172
-0.00063386
0.000245792
-0.000681124
0.000236019
-0.000724786
0.000225018
-0.00076454
0.000212936
-0.00080013
0.000199907
-0.000831354
0.000186078
-0.000858073
0.000171616
0.000156683
-0.000880184
-9.76737e-06
6.62205e-05
-3.37199e-05
0.00015638
-6.79815e-05
0.000218704
-0.000109511
0.000261188
-0.000155882
0.000289151
-0.000205165
0.000306467
-0.000255828
0.000315934
-0.000306647
0.000319537
-0.000356629
0.000318658
-0.00040496
0.000314247
-0.000450946
0.000306951
-0.000493991
0.000297218
-0.000533573
0.000285373
-0.000569229
0.000271675
-0.00060056
0.000256349
-0.000627226
0.000239602
-0.000648952
0.000221633
-0.00066553
0.000202656
-0.000676841
0.000182927
0.000162669
-0.000682828
-7.32595e-06
7.35464e-05
-2.60079e-05
0.000175062
-5.33209e-05
0.000246017
-8.68901e-05
0.000294758
-0.000124662
0.000326923
-0.000164895
0.000346699
-0.000206126
0.000357166
-0.000247138
0.000360549
-0.000286911
0.000358431
-0.000324583
0.00035192
-0.000359416
0.000341784
-0.000390765
0.000328567
-0.000418061
0.00031267
-0.000440802
0.000294416
-0.000458548
0.000274095
-0.00047093
0.000251984
-0.000477653
0.000228356
-0.000478507
0.00020351
-0.000473397
0.000177817
0.000151609
-0.000462337
-4.80052e-06
7.8347e-05
-1.79142e-05
0.000188175
-3.77679e-05
0.000265871
-6.26804e-05
0.00031967
-9.10125e-05
0.000355255
-0.00012125
0.000376937
-0.000152043
0.000387959
-0.000182213
0.000390719
-0.000210743
0.000386961
-0.000236753
0.00037793
-0.000259482
0.000364512
-0.000278259
0.000347344
-0.000292491
0.000326902
-0.000301649
0.000303575
-0.00030527
0.000277715
-0.000302958
0.000249672
-0.000294402
0.000219801
-0.000279393
0.000188501
-0.000257861
0.000156285
0.000123664
-0.000229916
-2.35153e-06
8.06985e-05
-9.92447e-06
0.000195748
-2.22102e-05
0.000278157
-3.82001e-05
0.00033566
-5.66849e-05
0.00037374
-7.64123e-05
0.000396664
-9.6183e-05
0.000407729
-0.000114898
0.000409435
-0.000131579
0.000403641
-0.000145363
0.000391714
-0.000155494
0.000374643
-0.000161303
0.000353152
-0.000162194
0.000327793
-0.000157635
0.000299016
-0.000147149
0.000267229
-0.000130323
0.000232846
-0.000106829
0.000196307
-7.64529e-05
0.000158124
-3.91527e-05
0.000118985
7.96677e-05
4.8436e-06
-1.25141e-07
8.08236e-05
-2.4975e-06
0.000198121
-7.51026e-06
0.00028317
-1.476e-05
0.00034291
-2.34541e-05
0.000382434
-3.26211e-05
0.000405831
-4.12452e-05
0.000416354
-4.83465e-05
0.000416536
-5.30217e-05
0.000408317
-5.44598e-05
0.000393152
-5.19406e-05
0.000372124
-4.48238e-05
0.000346036
-3.25348e-05
0.000315504
-1.45504e-05
0.000281031
9.60854e-06
0.00024307
4.03715e-05
0.000202083
7.80931e-05
0.000158586
0.000123009
0.000113209
0.00017514
6.68535e-05
2.06931e-05
0.000234115
1.75758e-06
7.90661e-05
3.969e-06
0.000195909
5.55829e-06
0.00028158
6.43186e-06
0.000342036
7.00672e-06
0.000381859
7.97446e-06
0.000404864
1.01456e-05
0.000414182
1.43505e-05
0.000412331
2.13824e-05
0.000401285
3.19698e-05
0.000382565
4.6769e-05
0.000357324
6.63704e-05
0.000326434
9.13125e-05
0.000290562
0.000122098
0.000250246
0.000159207
0.000205961
0.000203096
0.000158195
0.000254167
0.000107514
0.000312709
5.46669e-05
0.000378751
8.11617e-07
-5.22979e-05
0.000451742
3.20867e-06
7.58574e-05
9.16821e-06
0.00018995
1.63726e-05
0.000274376
2.43687e-05
0.00033404
3.32646e-05
0.000372963
4.34936e-05
0.000394634
5.56561e-05
0.00040202
7.0414e-05
0.000397573
8.84275e-05
0.000383271
0.000110319
0.000360673
0.000136664
0.00033098
0.000167989
0.000295109
0.000204789
0.000253762
0.000247548
0.000207487
0.000296752
0.000156757
0.000352899
0.000102048
0.00041647
4.3943e-05
0.00048785
-1.67129e-05
0.000567117
-7.84562e-05
-0.000138694
0.000653513
4.17829e-06
7.16791e-05
1.29073e-05
0.000181221
2.45139e-05
0.000262769
3.83388e-05
0.000320215
5.42678e-05
0.000357034
7.25182e-05
0.000376384
9.34944e-05
0.000381044
0.00011769
0.000373378
0.000145624
0.000355337
0.000177808
0.000328489
0.000214729
0.000294059
0.000256854
0.000252984
0.000304641
0.000205975
0.00035856
0.000153568
0.000419118
9.61997e-05
0.000486865
3.43003e-05
0.000562379
-3.15714e-05
0.000646169
-0.000100502
0.000738403
-0.00017069
-0.000238379
0.000838088
4.65695e-06
6.70222e-05
1.51222e-05
0.000170755
2.98077e-05
0.000248084
4.80044e-05
0.000302018
6.94749e-05
0.000335564
9.42808e-05
0.000351578
0.000122667
0.000352658
0.000154979
0.000341065
0.000191614
0.000318702
0.000232985
0.000287118
0.000279511
0.000247533
0.000331616
0.00020088
0.00038974
0.000147851
0.000454359
8.89489e-05
0.000526002
2.45559e-05
0.000605269
-4.49666e-05
0.000692809
-0.000119111
0.000789227
-0.00019692
0.000894773
-0.000276236
-0.000351809
0.0010082
4.67542e-06
6.23467e-05
1.5884e-05
0.000159547
3.23473e-05
0.00023162
5.34546e-05
0.000280911
7.89501e-05
0.000310068
0.000108816
0.000321712
0.000143195
0.000318279
0.000182334
0.000301926
0.000226549
0.000274488
0.000276195
0.000237471
0.000331665
0.000192063
0.000393376
0.000139168
0.000461783
7.94445e-05
0.000537377
1.33547e-05
0.0006207
-5.87674e-05
0.000712347
-0.000136614
0.000812951
-0.000219714
0.000923097
-0.000307066
0.00104301
-0.000396149
-0.000479972
0.00117117
4.30258e-06
5.80442e-05
1.53957e-05
0.000148454
3.24959e-05
0.00021452
5.52223e-05
0.000258185
8.34058e-05
0.000281885
0.000117038
0.00028808
0.000156237
0.000279079
0.000201224
0.000256939
0.000252299
0.000223413
0.000309828
0.000179942
0.000374228
0.000127663
0.000445959
6.74374e-05
0.000525508
-1.0473e-07
0.000613377
-7.45143e-05
0.000710065
-0.000155455
0.000816053
-0.000242602
0.000931789
-0.00033545
0.00105762
-0.000432896
0.00119354
-0.000532069
-0.000624142
0.00133771
3.64108e-06
5.44031e-05
1.39786e-05
0.000138116
3.08628e-05
0.000197636
5.42535e-05
0.000234794
8.41699e-05
0.000251968
0.000120709
0.000251541
0.000164059
0.00023573
0.0002145
0.000206498
0.000272402
0.000165511
0.00033821
0.000114135
0.000412422
5.34513e-05
0.000495561
-1.57024e-05
0.000588141
-9.26842e-05
0.000690613
-0.000176986
0.000803323
-0.000268165
0.000926467
-0.000365746
0.00106007
-0.000469052
0.00120396
-0.000576786
0.00135763
-0.000685743
-0.000785356
0.00151885
2.81973e-06
5.15834e-05
1.20454e-05
0.000128891
2.82504e-05
0.000181431
5.18231e-05
0.000211221
8.30645e-05
0.000220727
0.000122274
0.000212331
0.000169806
0.000188199
0.000226091
0.000150212
0.000291645
9.99576e-05
0.00036704
3.87394e-05
0.000452874
-3.2383e-05
0.000549712
-0.00011254
0.000658013
-0.000200986
0.000778056
-0.00029703
0.000909858
-0.000399967
0.00105311
-0.000509
0.00120717
-0.000623112
0.00137109
-0.000740702
0.0015436
-0.000858255
-0.000963663
0.00172191
1.98184e-06
4.96015e-05
1.00597e-05
0.000120813
2.55701e-05
0.000165921
4.93937e-05
0.000187398
8.21931e-05
0.000187927
0.000124557
0.000169967
0.000177089
0.000135667
0.00024044
8.6861e-05
0.000315308
2.50897e-05
0.000402398
-4.83508e-05
0.000502358
-0.000132343
0.000615691
-0.000225872
0.000742653
-0.000327948
0.000883153
-0.00043753
0.00103665
-0.000553469
0.00120212
-0.000674464
0.00137801
-0.000799006
0.00156245
-0.000925137
0.00175332
-0.00104913
-0.00115751
0.00194717
1.26953e-06
4.8332e-05
8.48341e-06
0.000113599
2.37344e-05
0.000150669
4.84328e-05
0.000162699
8.36606e-05
0.0001527
0.000130359
0.000123269
0.000189428
7.65976e-05
0.000261761
1.45284e-05
0.000348216
-6.13659e-05
0.000449557
-0.000149691
0.000566351
-0.000249137
0.000698862
-0.000358383
0.000846933
-0.000476019
0.00100988
-0.00060048
0.00118642
-0.000730009
0.0013746
-0.000862644
0.00157184
-0.000996239
0.00177511
-0.00112841
0.00198149
-0.00125551
-0.00136348
0.00218745
8.06078e-07
4.75259e-05
7.71954e-06
0.000106685
2.3541e-05
0.000134848
5.02178e-05
0.000136023
8.9278e-05
0.00011364
0.000142036
7.05108e-05
0.000209686
8.94725e-06
0.000293313
-6.90987e-05
0.000393837
-0.000161889
0.000511916
-0.00026777
0.00064783
-0.000385052
0.00080137
-0.000511923
0.000971737
-0.000646386
0.00115749
-0.000786234
0.00135653
-0.00092905
0.00156612
-0.00107223
0.0017829
-0.00121302
0.00200279
-0.0013483
0.00222041
-0.00147313
-0.00157037
0.0024273
6.79508e-07
4.68464e-05
8.06229e-06
9.93027e-05
2.5574e-05
0.000117336
5.56739e-05
0.000105923
0.000100322
6.89914e-05
0.000161174
9.6587e-06
0.000239648
-6.95264e-05
0.000336894
-0.000166345
0.000453708
-0.000278703
0.000590405
-0.000404467
0.000746707
-0.000541354
0.000921654
-0.00068687
0.00111357
-0.000838301
0.0013201
-0.000992762
0.00153832
-0.00114727
0.00176497
-0.00129888
0.00199673
-0.00144477
0.00223075
-0.00158232
0.00246668
-0.00170906
-0.00181699
0.0027133
9.36477e-07
4.591e-05
9.67361e-06
9.05656e-05
3.01543e-05
9.68556e-05
6.52909e-05
7.07862e-05
0.000117415
1.68671e-05
0.000188435
-6.13607e-05
0.000279849
-0.000160941
0.000392678
-0.000279174
0.000527337
-0.000413362
0.000683511
-0.000560641
0.000860064
-0.000717907
0.00105501
-0.000881819
0.00126558
-0.00104887
0.00148835
-0.00121553
0.00171947
-0.00137839
0.00195491
-0.00153433
0.00219083
-0.00168069
0.00242391
-0.00181539
0.00265193
-0.00193709
-0.00204079
0.00287574
1.57857e-06
4.43314e-05
1.25774e-05
7.95667e-05
3.7334e-05
7.2099e-05
7.91228e-05
2.89975e-05
0.000140541
-4.45513e-05
0.0002236
-0.00014442
0.00032968
-0.000267021
0.000459411
-0.000408905
0.000612534
-0.000566484
0.000787801
-0.000735908
0.00098295
-0.000913056
0.00119478
-0.00109365
0.00141934
-0.00127343
0.00165216
-0.00144836
0.00188861
-0.00161484
0.00212416
-0.00176989
0.00235473
-0.00191126
0.00257685
-0.00203751
0.00278777
-0.00214801
-0.00224005
0.00298702
2.57502e-06
4.17564e-05
1.66923e-05
6.54494e-05
4.69553e-05
4.18361e-05
9.68807e-05
-2.09279e-05
0.000169182
-0.000116853
0.000265775
-0.000241013
0.000387665
-0.000388911
0.000534794
-0.000556034
0.000705923
-0.000737614
0.000898598
-0.000928582
0.00110924
-0.0011237
0.00133338
-0.00131779
0.00156596
-0.00150601
0.00180173
-0.00168413
0.00203564
-0.00184874
0.00226313
-0.00199737
0.00248042
-0.00212855
0.00268463
-0.00224172
0.00287379
-0.00233717
-0.00241432
0.00304806
3.8772e-06
3.78792e-05
2.18742e-05
4.74524e-05
5.87304e-05
4.97978e-06
0.00011806
-8.02571e-05
0.000202502
-0.000201296
0.000313633
-0.000352143
0.000451785
-0.000527063
0.0006159
-0.000720149
0.000803468
-0.000925182
0.00101063
-0.00113574
0.00123243
-0.0013455
0.00146323
-0.00154859
0.00169717
-0.00173995
0.00192865
-0.0019156
0.00215269
-0.00207278
0.00236526
-0.00220995
0.00256345
-0.00232673
0.00274542
-0.00242369
0.00291039
-0.00250214
-0.00256309
0.00305916
5.43431e-06
3.24449e-05
2.79607e-05
2.4926e-05
7.2323e-05
-3.93825e-05
0.000142061
-0.000149995
0.000239515
-0.000298749
0.00036563
-0.000478258
0.000519747
-0.00068118
0.000699495
-0.000899897
0.000900868
-0.00112655
0.00111852
-0.00135339
0.00134623
-0.00157321
0.0015775
-0.00177986
0.00180611
-0.00196857
0.00202664
-0.00213613
0.00223477
-0.0022809
0.00242747
-0.00240266
0.00260303
-0.00250229
0.0027609
-0.00258156
0.00290154
-0.00264278
-0.00268804
0.00302648
7.20446e-06
2.52404e-05
3.48033e-05
-2.67282e-06
8.74038e-05
-9.1983e-05
0.000168273
-0.000230864
0.000279183
-0.00040966
0.00042013
-0.000619205
0.000589132
-0.000850182
0.000782242
-0.00109301
0.00099384
-0.00133815
0.00121718
-0.00157673
0.00144508
-0.00180111
0.00167064
-0.00200542
0.00188787
-0.00218579
0.00209206
-0.00234032
0.00228001
-0.00246886
0.00245002
-0.00257266
0.00260169
-0.00265396
0.00273571
-0.00271559
0.00285354
-0.00276061
-0.0027918
0.00295731
9.15899e-06
1.60814e-05
4.22793e-05
-3.57931e-05
0.000103671
-0.000153375
0.000196095
-0.000323289
0.000320452
-0.000534016
0.000475445
-0.000774199
0.00065747
-0.00103221
0.000860834
-0.00129637
0.00107835
-0.00155567
0.00130214
-0.00180052
0.00152454
-0.00202351
0.00173884
-0.00221972
0.00193981
-0.00238677
0.00212395
-0.00252446
0.00228944
-0.00263435
0.00243597
-0.00271919
0.00256439
-0.00278238
0.00267637
-0.00282757
0.00277406
-0.00285829
-0.00287764
0.00285991
1.12802e-05
4.80118e-06
5.02864e-05
-7.47993e-05
0.000120839
-0.000223927
0.000224923
-0.000427372
0.000362229
-0.000671323
0.000529837
-0.000941807
0.000722289
-0.00122466
0.000932127
-0.00150621
0.00115082
-0.00177436
0.00136984
-0.00201954
0.00158161
-0.00223527
0.00178018
-0.00241829
0.00196156
-0.00256815
0.00212371
-0.00268661
0.00226628
-0.00277692
0.00239021
-0.00284312
0.00249733
-0.0028895
0.00258996
-0.0029202
0.00267058
-0.00293892
-0.00294877
0.00274171
1.35554e-05
-8.75418e-06
5.87272e-05
-0.000119971
0.000138614
-0.000303814
0.000254114
-0.000542872
0.000403363
-0.000820572
0.00058153
-0.00111997
0.000781198
-0.00142432
0.000993304
-0.00171832
0.0012084
-0.00198946
0.00141787
-0.00222901
0.00161483
-0.00243223
0.00179458
-0.00259804
0.00195465
-0.00272822
0.00209451
-0.00282647
0.00221513
-0.00289753
0.00231843
-0.00294643
0.0024069
-0.00297797
0.00248316
-0.00299646
0.00254974
-0.0030055
-0.00300803
0.002609
1.59695e-05
-2.47237e-05
6.74908e-05
-0.000171492
0.000156665
-0.000392989
0.000282966
-0.000669172
0.000442644
-0.00098025
0.000628762
-0.00130609
0.000832006
-0.00162757
0.00104206
-0.00192837
0.00124911
-0.00219651
0.00144508
-0.00242497
0.00162427
-0.00261142
0.00178355
-0.00275732
0.00192202
-0.0028667
0.00204054
-0.002945
0.00214111
-0.0029981
0.00222633
-0.00303164
0.00229897
-0.00305062
0.0023617
-0.00305918
0.00241689
-0.00306068
-0.00305774
0.00246659
1.85002e-05
-4.32239e-05
7.644e-05
-0.000229432
0.00017461
-0.000491159
0.000310711
-0.000805273
0.000478833
-0.00114837
0.000669875
-0.00149713
0.00087287
-0.00183056
0.00107675
-0.00213226
0.00127198
-0.00239174
0.00145152
-0.00260452
0.00161125
-0.00277116
0.00174968
-0.00289575
0.00186738
-0.0029844
0.00196633
-0.00304394
0.00204923
-0.003081
0.00211901
-0.00310143
0.00217848
-0.00311009
0.00223014
-0.00311084
0.00227607
-0.00310661
-0.00309965
0.00231799
2.11144e-05
-6.43383e-05
8.54065e-05
-0.000293724
0.000192015
-0.000597767
0.000336541
-0.000949799
0.000510733
-0.00132256
0.00070343
-0.00168983
0.000902428
-0.00202956
0.00109651
-0.00232634
0.00127698
-0.0025722
0.00143828
-0.00276583
0.001578
-0.00291088
0.00169621
-0.00301395
0.00179471
-0.0030829
0.00187626
-0.00312549
0.00194394
-0.00314868
0.00200076
-0.00315824
0.00204935
-0.00315869
0.00209192
-0.00315342
0.00213023
-0.00314492
-0.00313505
0.00216563
2.37684e-05
-8.81067e-05
9.4193e-05
-0.000364149
0.000208414
-0.000711988
0.000359654
-0.00110104
0.000537266
-0.00150018
0.000728306
-0.00188087
0.000919872
-0.00222113
0.00110121
-0.00250768
0.00126493
-0.00273591
0.0014072
-0.0029081
0.00152728
-0.00303095
0.00162658
-0.00311326
0.00170783
-0.00316414
0.00177424
-0.0031919
0.001829
-0.00320345
0.00187498
-0.00320421
0.00191453
-0.00319824
0.00194952
-0.00318841
0.00198138
-0.00317678
-0.00316483
0.00201116
2.64091e-05
-0.000114516
0.000102582
-0.000440322
0.00022333
-0.000832736
0.0003793
-0.00125701
0.000557549
-0.00167842
0.000743772
-0.0020671
0.00092497
-0.00240233
0.00109139
-0.0026741
0.00123727
-0.0028818
0.00136056
-0.00303139
0.00146201
-0.0031324
0.0015441
-0.00319535
0.00161014
-0.00323018
0.00166353
-0.00324529
0.00170737
-0.00324728
0.00174423
-0.00324108
0.00177615
-0.00323016
0.00180467
-0.00321693
0.0018309
-0.00320301
-0.00318956
0.00185563
2.89768e-05
-0.000143493
0.000110348
-0.000521693
0.000236306
-0.000958695
0.000394838
-0.00141554
0.000570953
-0.00185454
0.000749514
-0.00224566
0.000918009
-0.00257082
0.00106811
-0.0028242
0.00119584
-0.00300953
0.00130083
-0.00313637
0.00138505
-0.00321662
0.00145176
-0.00326207
0.00150455
-0.00328297
0.00154679
-0.00328752
0.00158133
-0.00328182
0.00161042
-0.00327017
0.00163575
-0.00325549
0.00165855
-0.00323973
0.00167967
-0.00322413
-0.00320961
0.00169972
3.14082e-05
-0.000174901
0.000117267
-0.000607552
0.000246932
-0.00108836
0.000405771
-0.00157438
0.000577127
-0.0020259
0.00074561
-0.00241414
0.000899706
-0.00272492
0.00103278
-0.00295728
0.00114267
-0.00311942
0.00123042
-0.00322413
0.00129901
-0.00328521
0.00135212
-0.00331518
0.00139342
-0.00332427
0.00142606
-0.00332017
0.00145258
-0.00330834
0.00147489
-0.00329247
0.00149436
-0.00327496
0.00151194
-0.00325731
0.0015283
-0.00324049
-0.00322517
0.00154387
3.36401e-05
-0.000208541
0.000123136
-0.000697048
0.000254871
-0.00122009
0.000411773
-0.00173128
0.000576002
-0.00219012
0.000732477
-0.00257061
0.000871087
-0.00286353
0.000987022
-0.00307321
0.00107977
-0.00321217
0.00115161
-0.00329597
0.00120616
-0.00333976
0.00124731
-0.00335633
0.0012786
-0.00335555
0.00130288
-0.00334446
0.00132236
-0.00332782
0.0013386
-0.00330871
0.0013527
-0.00328905
0.00136539
-0.00327
0.00137717
-0.00325227
-0.00323636
0.00138835
3.56101e-05
-0.000244151
0.000127769
-0.000789207
0.000259868
-0.00135219
0.000412693
-0.00188411
0.000567758
-0.00234519
0.000710799
-0.00271366
0.000833377
-0.0029861
0.000932497
-0.00317233
0.00100912
-0.00328879
0.00106643
-0.00335328
0.00110845
-0.00338177
0.00113905
-0.00338694
0.00116154
-0.00337803
0.00117844
-0.00336135
0.00119158
-0.00334096
0.00120224
-0.00331937
0.00121127
-0.00329808
0.00121925
-0.00327798
0.00122655
-0.00325957
-0.0032432
0.0012334
3.72589e-05
0.000131018
0.000261764
0.000408548
0.000552782
0.000681435
0.000787877
0.000870818
0.000932438
0.000976577
0.00100741
0.00102867
0.00104332
0.00105355
0.00106086
0.00106626
0.00107042
0.00107379
0.00107664
0.00107913
3.72608e-05
0.000244244
0.000131019
0.000789446
0.000261757
0.00135253
0.000408524
0.00188449
0.000552733
0.00234558
0.000681357
0.00271402
0.000787769
0.00298643
0.000870683
0.00317261
0.000932279
0.00328902
0.000976399
0.00335347
0.00100722
0.00338193
0.00102846
0.00338707
0.00104311
0.00337815
0.00105332
0.00336145
0.00106063
0.00334105
0.00106603
0.00331945
0.00107019
0.00329815
0.00107355
0.00327804
0.00107639
0.00325962
0.00324324
0.00107889
3.56127e-05
0.000208632
0.000127774
0.000697286
0.000259868
0.00122044
0.000412678
0.00173168
0.000567718
0.00219054
0.000710729
0.00257101
0.000833275
0.00286388
0.000932363
0.00307352
0.00100895
0.00321242
0.00106624
0.00329619
0.00110824
0.00333994
0.00113883
0.00335648
0.00116131
0.00335567
0.0011782
0.00334456
0.00119133
0.00332791
0.00120199
0.00330879
0.00121101
0.00328912
0.00121899
0.00327006
0.00122629
0.00325232
0.0032364
0.00123313
3.36434e-05
0.000174988
0.000123142
0.000607787
0.000254876
0.00108871
0.000411766
0.00157479
0.000575972
0.00202634
0.000732416
0.00241457
0.000870991
0.00272531
0.000986892
0.00295762
0.00107961
0.00311971
0.00115142
0.00322437
0.00120595
0.00328541
0.00124708
0.00331535
0.00127835
0.00332441
0.00130263
0.00332028
0.0013221
0.00330844
0.00133833
0.00329256
0.00135242
0.00327503
0.0013651
0.00325737
0.00137688
0.00324055
0.00322521
0.00138806
3.1412e-05
0.000143576
0.000117276
0.000521922
0.000246941
0.000959041
0.000405771
0.00141596
0.000577108
0.001855
0.000745561
0.00224611
0.000899622
0.00257125
0.00103266
0.00282458
0.00114251
0.00300986
0.00123023
0.00313665
0.0012988
0.00321685
0.00135189
0.00326226
0.00139316
0.00328313
0.00142579
0.00328766
0.0014523
0.00328193
0.0014746
0.00327026
0.00149406
0.00325557
0.00151164
0.0032398
0.001528
0.00322419
0.00320965
0.00154356
2.89811e-05
0.000114595
0.000110359
0.000440545
0.00023632
0.000833079
0.000394847
0.00125744
0.000570945
0.0016789
0.00074948
0.00206758
0.000917939
0.00240279
0.001068
0.00267452
0.0011957
0.00288216
0.00130064
0.0030317
0.00138484
0.00313266
0.00145152
0.00319557
0.00150429
0.00323036
0.00154651
0.00324544
0.00158104
0.00324741
0.00161012
0.00324118
0.00163544
0.00323025
0.00165823
0.003217
0.00167935
0.00320307
0.00318961
0.00169939
2.64138e-05
8.81813e-05
0.000102595
0.000364363
0.00022335
0.000712325
0.000379319
0.00110147
0.000557556
0.00150066
0.000743755
0.00188138
0.000924919
0.00222162
0.0010913
0.00250814
0.00123714
0.00273632
0.00136039
0.00290845
0.0014618
0.00303125
0.00154387
0.00311351
0.00160988
0.00316435
0.00166325
0.00319207
0.00170707
0.00320359
0.00174392
0.00320433
0.00177583
0.00319834
0.00180434
0.0031885
0.00183056
0.00317685
0.00316489
0.00185528
2.37735e-05
6.44079e-05
9.42082e-05
0.000293928
0.000208439
0.000598094
0.000359682
0.000950226
0.000537287
0.00132306
0.000728308
0.00169036
0.000919843
0.00203009
0.00110114
0.00232684
0.00126482
0.00257265
0.00140705
0.00276622
0.00152708
0.00291121
0.00162635
0.00301424
0.00170756
0.00308313
0.00177395
0.00312569
0.00182869
0.00314884
0.00187465
0.00315837
0.00191419
0.0031588
0.00194917
0.00315351
0.00198102
0.003145
0.00313511
0.00201079
2.11197e-05
4.32882e-05
8.54233e-05
0.000229625
0.000192045
0.000491472
0.000336579
0.000805692
0.00051077
0.00114887
0.000703453
0.00149768
0.000902424
0.00183112
0.00109647
0.00213279
0.00127689
0.00239223
0.00143815
0.00260496
0.00157782
0.00277154
0.00169599
0.00289607
0.00179445
0.00298467
0.00187597
0.00304417
0.00194363
0.00308119
0.00200042
0.00310158
0.002049
0.00311022
0.00209156
0.00311095
0.00212985
0.0031067
0.00309972
0.00216525
1.85057e-05
2.47825e-05
7.64582e-05
0.000171672
0.000174643
0.000393287
0.000310758
0.000669577
0.000478885
0.000980741
0.00066992
0.00130664
0.000872894
0.00162814
0.00107674
0.00192894
0.00127192
0.00219705
0.00145142
0.00242546
0.0016111
0.00261186
0.00174948
0.00275769
0.00186714
0.00286701
0.00196604
0.00294526
0.00204891
0.00299832
0.00211866
0.00303183
0.00217812
0.00305077
0.00222976
0.00305931
0.00227568
0.00306079
0.00305782
0.00231758
1.59751e-05
8.80731e-06
6.75101e-05
0.000120137
0.000156703
0.000304095
0.000283021
0.000543259
0.00044271
0.000821052
0.000628828
0.00112052
0.000832057
0.00142491
0.00104208
0.00171891
0.00124909
0.00199004
0.00144501
0.00222955
0.00162415
0.00243272
0.00178337
0.00259847
0.00192179
0.00272859
0.00204027
0.00282679
0.00214079
0.00289779
0.00222598
0.00294664
0.0022986
0.00297815
0.0023613
0.0029966
0.00241647
0.00300562
0.00300813
0.00246616
1.35611e-05
-4.75375e-06
5.87474e-05
7.49508e-05
0.000138655
0.000224187
0.000254176
0.000427739
0.000403442
0.000671786
0.000581617
0.000942349
0.000781278
0.00122525
0.000993363
0.00150683
0.00120842
0.00177498
0.00141785
0.00202012
0.00161475
0.00223582
0.00179444
0.00241878
0.00195445
0.00256858
0.00209426
0.00268698
0.00221483
0.00277723
0.00231809
0.00284338
0.00240652
0.00288972
0.00248275
0.00292037
0.00254931
0.00293906
0.00294889
0.00260855
1.1286e-05
-1.60398e-05
5.03074e-05
3.59294e-05
0.000120882
0.000153613
0.00022499
0.000323631
0.000362319
0.000534457
0.000529943
0.000774725
0.000722397
0.0010328
0.000932223
0.001297
0.00115089
0.00155631
0.00136987
0.00180115
0.00158158
0.00202411
0.00178008
0.00222027
0.0019614
0.00238726
0.0021235
0.00252489
0.002266
0.00263472
0.00238988
0.0027195
0.00249696
0.00278264
0.00258955
0.00282778
0.00267014
0.00285847
0.00287779
0.00274124
9.16491e-06
-2.52047e-05
4.23011e-05
2.79322e-06
0.000103716
9.21978e-05
0.000196168
0.000231179
0.000320552
0.000410073
0.000475568
0.000619709
0.000657604
0.000850761
0.000860966
0.00109364
0.00107846
0.00133882
0.00130222
0.00157739
0.00152457
0.00180176
0.0017388
0.00200603
0.00193971
0.00218635
0.00212378
0.00234082
0.0022892
0.00246929
0.00243567
0.00257303
0.00256404
0.00265428
0.00267597
0.00271585
0.00277361
0.00276082
0.00279198
0.00285943
7.21061e-06
-3.24153e-05
3.48261e-05
-2.48223e-05
8.74513e-05
3.95725e-05
0.000168351
0.00015028
0.000279293
0.000299131
0.000420268
0.000478734
0.00058929
0.000681739
0.000782407
0.000900523
0.000993997
0.00112723
0.00121731
0.00135408
0.00144516
0.0015739
0.00167067
0.00178053
0.00188783
0.00196919
0.00209195
0.0021367
0.00227983
0.00228141
0.00244976
0.0024031
0.00260136
0.00250268
0.00273533
0.00258189
0.0028531
0.00264305
0.00268826
0.00295682
5.44079e-06
-3.78561e-05
2.79846e-05
-4.73661e-05
7.2373e-05
-4.81583e-06
0.000142143
8.05094e-05
0.000239632
0.000201642
0.00036578
0.000352585
0.000519925
0.000527594
0.000699691
0.000720758
0.000901066
0.00092585
0.0011187
0.00113645
0.00134638
0.00134622
0.0015776
0.00154931
0.00180615
0.00174064
0.0020266
0.00191625
0.00223464
0.00207337
0.00242727
0.00221048
0.00260274
0.0023272
0.00276055
0.00242409
0.00290111
0.00250248
0.00256337
0.003026
3.88412e-06
-4.17402e-05
2.18993e-05
-6.53812e-05
5.87827e-05
-4.16992e-05
0.000118145
2.11466e-05
0.000202626
0.000117162
0.000313794
0.000241417
0.00045198
0.000389408
0.000616122
0.000556617
0.000803703
0.000738268
0.00101086
0.000929292
0.00123264
0.00112444
0.0014634
0.00131854
0.00169729
0.00150675
0.00192869
0.00168485
0.00215265
0.00184941
0.00236514
0.00199799
0.00256323
0.0021291
0.00274512
0.0022422
0.00291001
0.00233759
0.00241467
0.0030587
2.58238e-06
-4.43226e-05
1.67186e-05
-7.95174e-05
4.70094e-05
-7.199e-05
9.69694e-05
-2.88134e-05
0.00016931
4.48217e-05
0.000265944
0.000144783
0.000387872
0.000267479
0.000535035
0.000409454
0.000706188
0.000567116
0.000898872
0.000736608
0.00110951
0.000913807
0.00133362
0.00109443
0.00156615
0.00127422
0.00180187
0.00144914
0.00203569
0.00161559
0.00226309
0.00177059
0.00248029
0.00191191
0.0026844
0.00203809
0.00287346
0.00214852
0.00224049
0.00304764
1.58629e-06
-4.59089e-05
1.26044e-05
-9.05355e-05
3.7389e-05
-9.67746e-05
7.92125e-05
-7.06369e-05
0.000140671
-1.66363e-05
0.000223772
6.16817e-05
0.000329894
0.000161357
0.000459664
0.000279684
0.000612818
0.000413961
0.000788106
0.00056132
0.000983261
0.000718653
0.00119508
0.000882613
0.00141961
0.00104969
0.00165238
0.00121636
0.00188876
0.00137921
0.00212423
0.00153512
0.0023547
0.00168144
0.00257671
0.00181608
0.00278752
0.00193771
0.00204135
0.00298667
9.44327e-07
-4.68532e-05
9.70048e-06
-9.92916e-05
3.02085e-05
-0.000117283
6.53789e-05
-0.000105807
0.000117542
-6.87993e-05
0.000188603
-9.3795e-06
0.000280061
6.9899e-05
0.000392931
0.000166813
0.000527628
0.000279265
0.000683831
0.000405117
0.000860402
0.000542082
0.00105535
0.000687661
0.00126591
0.00083914
0.00148864
0.000993629
0.0017197
0.00114815
0.00195507
0.00129975
0.0021909
0.00144561
0.00242388
0.0015831
0.00265179
0.0017098
0.00181766
0.00287547
6.87168e-07
-4.75404e-05
8.08805e-06
-0.000106692
2.56254e-05
-0.00013482
5.57567e-05
-0.000135939
0.00010044
-0.000113483
0.000161332
-7.02707e-05
0.000239846
-8.61586e-06
0.000337134
6.95253e-05
0.000453988
0.000162412
0.00059072
0.000268385
0.000747049
0.000385753
0.000922011
0.000512699
0.00111393
0.000647225
0.00132044
0.000787119
0.00153862
0.000929962
0.00176522
0.00107315
0.0019969
0.00121393
0.00223083
0.00134918
0.00246665
0.00147397
0.00157117
0.00271314
8.13191e-07
-4.83536e-05
7.74305e-06
-0.000113622
2.35873e-05
-0.000150664
5.02914e-05
-0.000162643
8.93825e-05
-0.000152574
0.000142174
-0.000123062
0.000209861
-7.63024e-05
0.000293526
-1.41395e-05
0.000394087
6.18503e-05
0.000512202
0.00015027
0.000648148
0.000249806
0.000801711
0.000359136
0.000972092
0.000476844
0.00115785
0.000601365
0.00135687
0.000730938
0.00156642
0.000863599
0.00178315
0.000997201
0.00200297
0.00112936
0.00222051
0.00125643
0.00136436
0.00242732
1.27578e-06
-4.96293e-05
8.5036e-06
-0.00012085
2.37734e-05
-0.000165934
4.84936e-05
-0.000187363
8.37456e-05
-0.000187826
0.00013047
-0.000169787
0.000189568
-0.0001354
0.00026193
-8.6502e-05
0.000348417
-2.46367e-05
0.000449789
4.88978e-05
0.000566614
0.000132982
0.000699152
0.000226598
0.000847244
0.000328752
0.00101021
0.000438403
0.00118675
0.000554399
0.00137491
0.000675434
0.00157211
0.000799998
0.00177534
0.000926132
0.00198166
0.00105011
0.00115846
0.00218756
1.98698e-06
-5.16163e-05
1.00758e-05
-0.000128939
2.56002e-05
-0.000181458
4.94391e-05
-0.000211202
8.22545e-05
-0.000220642
0.000124635
-0.000212168
0.000177185
-0.000187949
0.000240554
-0.000149872
0.000315443