/*--------------------------------*- C++ -*----------------------------------*\
  =========                 |
  \\      /  F ield         | OpenFOAM: The Open Source CFD Toolbox
   \\    /   O peration     | Website:  https://openfoam.org
    \\  /    A nd           | Version:  6.0
     \\/     M anipulation  |
\*---------------------------------------------------------------------------*/
FoamFile
{
    version     2.0;
    format      ascii;
    class       volScalarField;
    location    "67";
    object      p;
}
// * * * * * * * * * * * * * * * * * * * * * * * * * * * * * * * * * * * * * //

dimensions      [0 2 -2 0 0 0 0];

internalField   nonuniform List<scalar> 
8000
(
-0.345956
-0.347185
-0.347895
-0.348319
-0.348602
-0.348772
-0.348845
-0.348836
-0.348752
-0.348601
-0.348387
-0.348119
-0.347803
-0.347451
-0.347074
-0.346685
-0.346298
-0.345912
-0.345538
-0.345287
-0.342745
-0.343923
-0.344585
-0.344952
-0.345162
-0.345238
-0.345199
-0.345057
-0.344825
-0.344509
-0.344119
-0.343664
-0.343155
-0.342607
-0.342035
-0.341456
-0.340886
-0.340322
-0.339767
-0.339432
-0.339731
-0.34086
-0.341474
-0.341782
-0.341917
-0.341898
-0.341744
-0.341469
-0.341085
-0.340603
-0.340033
-0.339389
-0.338686
-0.33794
-0.337169
-0.336398
-0.335646
-0.334903
-0.33417
-0.333754
-0.336915
-0.338003
-0.33857
-0.33882
-0.338878
-0.338762
-0.33849
-0.338079
-0.337541
-0.336888
-0.336136
-0.335299
-0.334396
-0.333447
-0.332475
-0.331508
-0.33057
-0.32965
-0.328743
-0.328246
-0.334304
-0.335361
-0.335886
-0.336077
-0.336056
-0.335841
-0.335449
-0.334897
-0.3342
-0.333373
-0.332432
-0.331397
-0.330287
-0.329128
-0.327947
-0.326777
-0.32565
-0.32455
-0.323471
-0.322892
-0.331907
-0.332946
-0.333434
-0.333566
-0.333465
-0.333148
-0.332632
-0.331935
-0.331075
-0.330068
-0.328932
-0.327689
-0.326364
-0.324984
-0.323583
-0.3222
-0.320872
-0.319586
-0.318335
-0.317672
-0.329739
-0.330773
-0.331228
-0.331303
-0.33112
-0.330698
-0.330055
-0.329211
-0.328183
-0.326989
-0.325651
-0.324191
-0.322638
-0.321024
-0.319386
-0.317772
-0.316227
-0.314741
-0.313309
-0.312559
-0.327821
-0.328863
-0.329289
-0.329306
-0.329041
-0.328512
-0.327741
-0.326746
-0.325547
-0.324162
-0.322615
-0.320929
-0.319135
-0.317268
-0.315372
-0.313501
-0.311712
-0.31
-0.308369
-0.30752
-0.32618
-0.327237
-0.327637
-0.327596
-0.327247
-0.326613
-0.325712
-0.324567
-0.323197
-0.321621
-0.31986
-0.31794
-0.315891
-0.313752
-0.31157
-0.309409
-0.307336
-0.305356
-0.303489
-0.302519
-0.324845
-0.325922
-0.326296
-0.326196
-0.325764
-0.325024
-0.323997
-0.322706
-0.32117
-0.319406
-0.317434
-0.315276
-0.312962
-0.310531
-0.308032
-0.305537
-0.303124
-0.300812
-0.298643
-0.297508
-0.323851
-0.324944
-0.325289
-0.325129
-0.324614
-0.323772
-0.322625
-0.321197
-0.319505
-0.317564
-0.315389
-0.312998
-0.310415
-0.307676
-0.304828
-0.301948
-0.299125
-0.296388
-0.293812
-0.292434
-0.323231
-0.324331
-0.32464
-0.324417
-0.32382
-0.32288
-0.321624
-0.320071
-0.31824
-0.316139
-0.313779
-0.311169
-0.308325
-0.30527
-0.302046
-0.298727
-0.295407
-0.292123
-0.288983
-0.287232
-0.323019
-0.324107
-0.32437
-0.324079
-0.3234
-0.322369
-0.321012
-0.319353
-0.317402
-0.315167
-0.312648
-0.309844
-0.306756
-0.30339
-0.299774
-0.295966
-0.292057
-0.288078
-0.284156
-0.28183
-0.323244
-0.324294
-0.324497
-0.32413
-0.323367
-0.322249
-0.320803
-0.319052
-0.317006
-0.314663
-0.312017
-0.30905
-0.305747
-0.30209
-0.298078
-0.293745
-0.289161
-0.284324
-0.279352
-0.276163
-0.323927
-0.324909
-0.325032
-0.324578
-0.323726
-0.32252
-0.320993
-0.319164
-0.31704
-0.314616
-0.311871
-0.308775
-0.30529
-0.30137
-0.296976
-0.2921
-0.286773
-0.280932
-0.274615
-0.270189
-0.325088
-0.325962
-0.325981
-0.325424
-0.324472
-0.323175
-0.321565
-0.319664
-0.317475
-0.314984
-0.312162
-0.308962
-0.305324
-0.30117
-0.296417
-0.291006
-0.284906
-0.277965
-0.270054
-0.263958
-0.326734
-0.327459
-0.327345
-0.326663
-0.325595
-0.324193
-0.322494
-0.320517
-0.318261
-0.315706
-0.312813
-0.30952
-0.305745
-0.30138
-0.296299
-0.290381
-0.283532
-0.275494
-0.265879
-0.257687
-0.328872
-0.329403
-0.329121
-0.328288
-0.327078
-0.325552
-0.323746
-0.321677
-0.319341
-0.316712
-0.31374
-0.310352
-0.306445
-0.301886
-0.296508
-0.29013
-0.282585
-0.273523
-0.262219
-0.251506
-0.331503
-0.331793
-0.331306
-0.330288
-0.328907
-0.327229
-0.32529
-0.323106
-0.320668
-0.317945
-0.314882
-0.311394
-0.30737
-0.302661
-0.297072
-0.29037
-0.282291
-0.272329
-0.259298
-0.245528
-0.33463
-0.334631
-0.333898
-0.332657
-0.331069
-0.329205
-0.327102
-0.324774
-0.322209
-0.319373
-0.316207
-0.312633
-0.308546
-0.303817
-0.298283
-0.291751
-0.28397
-0.274349
-0.261336
-0.246426
-0.338259
-0.337921
-0.336898
-0.335394
-0.333561
-0.331474
-0.329174
-0.326672
-0.323953
-0.320983
-0.317709
-0.314063
-0.309972
-0.305363
-0.300184
-0.294432
-0.288203
-0.2817
-0.275883
-0.276857
-0.342402
-0.341675
-0.340316
-0.338506
-0.336387
-0.334042
-0.331512
-0.328807
-0.325909
-0.322785
-0.319389
-0.31567
-0.311582
-0.307105
-0.302259
-0.297145
-0.291987
-0.287178
-0.283582
-0.284924
-0.34708
-0.34591
-0.344169
-0.342012
-0.339569
-0.336931
-0.33414
-0.331204
-0.328103
-0.324804
-0.321267
-0.317455
-0.313347
-0.308955
-0.304342
-0.299641
-0.295084
-0.291
-0.287867
-0.287446
-0.35232
-0.350654
-0.348484
-0.34594
-0.343137
-0.340174
-0.337095
-0.333902
-0.330572
-0.32707
-0.323359
-0.31941
-0.315219
-0.310812
-0.306263
-0.301697
-0.297291
-0.293257
-0.289838
-0.287704
-0.358159
-0.35594
-0.353297
-0.350328
-0.347134
-0.343819
-0.340424
-0.336945
-0.333352
-0.329606
-0.325666
-0.32151
-0.317137
-0.31258
-0.307906
-0.303217
-0.298635
-0.294282
-0.290288
-0.286745
-0.364635
-0.361805
-0.358647
-0.355223
-0.35161
-0.347916
-0.344177
-0.340377
-0.336475
-0.332422
-0.328176
-0.323712
-0.319033
-0.314174
-0.309195
-0.304177
-0.29921
-0.294368
-0.289737
-0.285186
-0.371789
-0.368289
-0.364579
-0.360673
-0.356616
-0.352517
-0.3484
-0.344231
-0.339953
-0.335508
-0.330848
-0.325953
-0.320829
-0.315515
-0.310071
-0.304573
-0.299093
-0.293695
-0.288445
-0.283169
-0.379658
-0.375429
-0.371133
-0.366723
-0.362201
-0.357665
-0.353123
-0.348517
-0.343773
-0.338823
-0.333621
-0.328153
-0.322438
-0.316527
-0.310488
-0.304401
-0.29834
-0.292368
-0.286543
-0.280731
-0.388268
-0.383254
-0.378344
-0.373412
-0.368399
-0.363387
-0.358354
-0.353219
-0.347891
-0.342298
-0.336405
-0.330215
-0.323769
-0.317137
-0.310404
-0.303658
-0.296979
-0.290435
-0.284075
-0.277818
-0.397627
-0.391779
-0.386233
-0.380763
-0.375228
-0.36968
-0.364068
-0.358283
-0.352225
-0.345832
-0.339089
-0.332031
-0.32473
-0.31728
-0.309783
-0.302338
-0.295027
-0.287918
-0.281051
-0.274387
-0.407724
-0.400998
-0.394802
-0.388774
-0.382674
-0.376513
-0.370204
-0.363618
-0.356662
-0.349297
-0.341549
-0.333492
-0.325235
-0.316898
-0.308598
-0.300436
-0.292493
-0.284831
-0.277475
-0.270409
-0.418517
-0.410884
-0.404027
-0.397418
-0.390691
-0.383809
-0.376654
-0.369093
-0.361054
-0.352547
-0.343651
-0.33449
-0.325207
-0.315944
-0.306824
-0.297948
-0.289384
-0.281184
-0.273353
-0.265886
-0.429932
-0.421377
-0.413852
-0.406627
-0.399189
-0.39145
-0.383272
-0.374539
-0.365231
-0.355425
-0.345264
-0.334922
-0.324574
-0.314374
-0.304443
-0.294868
-0.285705
-0.276986
-0.268695
-0.26083
-0.44186
-0.432381
-0.424183
-0.416294
-0.408035
-0.399271
-0.38987
-0.379763
-0.369009
-0.357771
-0.34626
-0.334696
-0.323274
-0.31215
-0.301432
-0.291188
-0.281453
-0.27224
-0.263507
-0.255258
-0.454149
-0.443764
-0.434887
-0.426266
-0.417046
-0.407064
-0.396225
-0.384548
-0.372197
-0.359427
-0.346518
-0.333724
-0.321248
-0.309232
-0.297765
-0.28689
-0.276619
-0.266941
-0.257791
-0.249182
-0.466606
-0.45535
-0.445784
-0.43634
-0.425993
-0.414582
-0.402093
-0.38867
-0.374602
-0.360242
-0.345926
-0.331926
-0.318436
-0.305578
-0.293411
-0.28195
-0.271183
-0.261076
-0.251539
-0.242604
-0.478997
-0.466921
-0.456648
-0.44627
-0.434607
-0.421548
-0.407213
-0.391902
-0.376043
-0.360077
-0.344379
-0.329223
-0.314781
-0.301141
-0.288331
-0.276335
-0.265118
-0.254624
-0.244735
-0.235516
-0.491048
-0.478217
-0.46721
-0.455764
-0.442585
-0.427669
-0.41132
-0.394024
-0.376345
-0.358799
-0.341778
-0.325539
-0.310219
-0.295869
-0.282479
-0.270006
-0.258389
-0.247553
-0.237354
-0.227901
-0.502448
-0.488938
-0.47716
-0.464497
-0.449601
-0.43264
-0.414153
-0.394826
-0.375348
-0.356286
-0.338028
-0.320797
-0.304687
-0.289704
-0.275805
-0.262915
-0.250956
-0.239829
-0.229367
-0.219734
-0.512856
-0.498754
-0.486156
-0.472118
-0.455316
-0.436162
-0.415466
-0.394115
-0.372905
-0.352426
-0.33304
-0.314922
-0.298118
-0.282589
-0.268255
-0.255017
-0.242776
-0.231413
-0.22074
-0.210986
-0.521908
-0.507306
-0.493833
-0.478265
-0.459395
-0.437947
-0.415029
-0.391717
-0.368883
-0.347114
-0.326727
-0.307841
-0.290446
-0.274462
-0.259774
-0.24626
-0.233804
-0.222265
-0.211438
-0.201625
-0.529227
-0.51422
-0.499813
-0.482571
-0.461511
-0.437729
-0.412637
-0.387476
-0.363163
-0.340255
-0.319009
-0.299482
-0.281608
-0.265266
-0.250311
-0.236598
-0.223998
-0.212347
-0.201427
-0.19162
-0.534432
-0.519116
-0.503717
-0.484684
-0.461364
-0.43527
-0.408109
-0.381256
-0.35564
-0.331763
-0.309813
-0.289778
-0.271544
-0.254947
-0.239816
-0.225988
-0.213319
-0.201625
-0.190678
-0.180945
-0.537152
-0.521622
-0.505182
-0.484275
-0.458683
-0.430363
-0.401294
-0.372945
-0.346223
-0.321562
-0.299071
-0.278672
-0.260199
-0.243456
-0.228246
-0.214391
-0.201733
-0.190069
-0.179165
-0.169577
-0.537035
-0.521383
-0.503869
-0.481049
-0.453235
-0.422836
-0.392065
-0.362447
-0.334839
-0.30959
-0.286728
-0.266112
-0.247529
-0.230753
-0.215566
-0.201776
-0.189214
-0.177657
-0.16687
-0.157501
-0.533755
-0.518075
-0.499472
-0.474752
-0.444831
-0.412554
-0.38033
-0.349694
-0.321431
-0.295797
-0.272739
-0.252057
-0.233497
-0.216806
-0.201748
-0.188121
-0.175743
-0.164375
-0.153783
-0.144707
-0.527031
-0.511413
-0.491735
-0.465181
-0.433324
-0.399422
-0.366021
-0.334636
-0.305958
-0.280147
-0.257072
-0.236478
-0.218078
-0.201593
-0.186775
-0.173411
-0.16131
-0.150215
-0.139901
-0.131195
-0.516627
-0.501159
-0.480451
-0.452183
-0.418618
-0.383379
-0.349103
-0.317248
-0.2884
-0.262621
-0.239708
-0.219359
-0.201256
-0.185103
-0.170638
-0.157642
-0.145914
-0.13518
-0.12523
-0.116969
-0.50236
-0.487133
-0.465473
-0.435662
-0.400662
-0.364405
-0.32957
-0.297527
-0.268753
-0.243214
-0.220643
-0.200696
-0.183031
-0.167335
-0.153339
-0.140818
-0.129563
-0.119284
-0.109786
-0.102047
-0.48411
-0.469216
-0.446714
-0.415579
-0.379453
-0.342517
-0.307443
-0.275496
-0.247036
-0.221942
-0.199889
-0.180499
-0.16341
-0.1483
-0.134891
-0.122954
-0.112274
-0.102548
-0.0935972
-0.0864573
-0.46182
-0.447353
-0.424151
-0.391948
-0.355032
-0.317768
-0.282776
-0.2512
-0.223287
-0.198835
-0.177471
-0.158789
-0.142414
-0.128015
-0.115311
-0.104071
-0.0940712
-0.0850016
-0.0767
-0.0702462
-0.435497
-0.421551
-0.397822
-0.364839
-0.327487
-0.290246
-0.255649
-0.224709
-0.197564
-0.173943
-0.15343
-0.135602
-0.120073
-0.106507
-0.0946243
-0.0841917
-0.074981
-0.0666765
-0.0591353
-0.0534614
-0.405214
-0.391888
-0.367826
-0.334375
-0.296946
-0.260074
-0.226172
-0.196118
-0.169949
-0.147332
-0.127822
-0.110982
-0.0964229
-0.0838085
-0.0728586
-0.0633419
-0.0550275
-0.0476013
-0.0409381
-0.0361278
-0.371107
-0.358501
-0.334321
-0.300725
-0.26358
-0.227408
-0.194483
-0.165546
-0.140542
-0.119088
-0.100718
-0.0849886
-0.0715107
-0.0599536
-0.050041
-0.0415442
-0.0342338
-0.0278041
-0.022134
-0.018235
-0.333376
-0.321589
-0.297517
-0.264107
-0.227595
-0.192438
-0.160749
-0.133139
-0.10947
-0.0893182
-0.0722056
-0.0576894
-0.0453873
-0.0349778
-0.0261936
-0.018813
-0.0126143
-0.00730296
-0.0027355
0.000215378
-0.292274
-0.281404
-0.257675
-0.224779
-0.189233
-0.155382
-0.125167
-0.0990698
-0.0768819
-0.0581506
-0.042392
-0.0291701
-0.0181154
-0.00892117
-0.00133637
0.00484764
0.00983943
0.0139159
0.0172446
0.0190773
-0.248108
-0.238251
-0.215101
-0.183035
-0.14877
-0.116491
-0.087959
-0.0635367
-0.0429542
-0.0257379
-0.0114056
0.000466047
0.0102279
0.0181632
0.0244992
0.0294279
0.0331404
0.0358556
0.0376734
0.0379226
-0.20123
-0.192476
-0.170137
-0.139205
-0.10651
-0.0760414
-0.0493767
-0.0267668
-0.00788939
0.00774311
0.0206065
0.0311066
0.0395688
0.0462423
0.0513188
0.0549691
0.0573414
0.0584707
0.0582189
0.0563005
-0.152031
-0.144465
-0.12316
-0.0936443
-0.0627811
-0.0343353
-0.00969832
0.0109831
0.0280764
0.0420804
0.0534646
0.0626198
0.0698469
0.0753589
0.0793102
0.0818397
0.0829763
0.0823435
0.0794446
0.0753445
-0.100932
-0.0946312
-0.0745691
-0.0467294
-0.0179334
0.00830351
0.0307732
0.049425
0.064666
0.0770052
0.0869115
0.0947725
0.100885
0.10546
0.108665
0.110656
0.111329
0.109802
0.105361
0.100946
-0.0483808
-0.0434111
-0.024784
0.0011472
0.0276705
0.0515377
0.071719
0.0882503
0.101571
0.112198
0.120598
0.127163
0.132203
0.135968
0.138711
0.140713
0.141941
0.141383
0.138794
0.142628
0.00516768
0.00874816
0.0257673
0.0495862
0.0736616
0.0950245
0.112816
0.127147
0.138483
0.147339
0.154176
0.159376
0.16325
0.166058
0.168069
0.16955
0.170482
0.170388
0.170197
0.17619
0.0592417
0.0613871
0.0766494
0.098185
0.11967
0.138422
0.153743
0.165812
0.175107
0.182141
0.187362
0.191143
0.193787
0.195552
0.196694
0.197435
0.197756
0.19736
0.197189
0.202023
0.113368
0.114046
0.127429
0.146545
0.165332
0.181397
0.194191
0.203951
0.211163
0.216328
0.219879
0.22217
0.223491
0.224088
0.224195
0.224011
0.223528
0.222526
0.221774
0.225051
0.167078
0.166269
0.177679
0.194275
0.210293
0.223625
0.233864
0.241291
0.246398
0.249668
0.251513
0.25227
0.252206
0.251547
0.250503
0.249242
0.247744
0.245817
0.244166
0.245998
0.219909
0.217609
0.226981
0.240995
0.25421
0.264797
0.272479
0.277576
0.280576
0.281945
0.282072
0.28127
0.279787
0.277828
0.275579
0.27318
0.270597
0.267658
0.265033
0.265482
0.271413
0.267631
0.274933
0.28634
0.296753
0.304615
0.309769
0.312564
0.313481
0.312967
0.311386
0.309028
0.306121
0.302848
0.299373
0.295812
0.292121
0.288155
0.284554
0.283698
0.321155
0.315918
0.321146
0.32996
0.33761
0.342801
0.345482
0.346028
0.344911
0.342554
0.3393
0.335414
0.331105
0.326537
0.321851
0.317144
0.312368
0.307404
0.302853
0.300758
0.368722
0.362071
0.365253
0.371522
0.376484
0.379087
0.379379
0.377756
0.374675
0.370539
0.365667
0.360304
0.354637
0.348812
0.342954
0.337142
0.331325
0.325411
0.319953
0.316685
0.41372
0.405711
0.406905
0.410715
0.413094
0.413223
0.411237
0.407546
0.402594
0.396763
0.390348
0.383576
0.376613
0.369592
0.362619
0.355757
0.348961
0.342156
0.335839
0.331467
0.455783
0.446486
0.445777
0.447245
0.447179
0.444975
0.440844
0.435208
0.428498
0.421073
0.413209
0.405111
0.396932
0.388787
0.380768
0.372927
0.365221
0.357591
0.350471
0.345066
0.494567
0.484067
0.481567
0.480842
0.478496
0.474124
0.468004
0.460566
0.452227
0.443326
0.43412
0.424796
0.415492
0.406309
0.397325
0.388582
0.380041
0.371657
0.363796
0.357434
0.529758
0.518154
0.513999
0.511256
0.506823
0.50047
0.492537
0.483457
0.473634
0.463389
0.452961
0.442521
0.432194
0.422067
0.412207
0.402647
0.393355
0.384291
0.375753
0.368519
0.561072
0.548474
0.542824
0.538263
0.531957
0.523832
0.514277
0.50373
0.492582
0.481138
0.469619
0.458184
0.446944
0.435976
0.425336
0.415051
0.405092
0.395427
0.386285
0.378269
0.588256
0.574785
0.56782
0.561663
0.553719
0.544046
0.533077
0.521252
0.508949
0.49646
0.483991
0.47169
0.459656
0.447957
0.43664
0.425725
0.415189
0.405003
0.395333
0.386633
0.61109
0.596878
0.588793
0.581283
0.571952
0.560972
0.548809
0.535905
0.522628
0.509257
0.495987
0.482955
0.470252
0.457937
0.44605
0.434606
0.423586
0.412963
0.402845
0.393567
0.629388
0.614574
0.605582
0.596976
0.586524
0.574488
0.561362
0.547588
0.533526
0.519444
0.505529
0.491908
0.478666
0.465856
0.453509
0.44164
0.430232
0.419257
0.408778
0.399033
0.643
0.62773
0.618053
0.608622
0.597327
0.584498
0.570648
0.55622
0.541568
0.526952
0.512552
0.498489
0.484843
0.47166
0.45897
0.446781
0.435082
0.423845
0.413094
0.402997
0.65181
0.636237
0.626106
0.616131
0.604279
0.590926
0.576598
0.561738
0.546696
0.531727
0.517007
0.502653
0.488739
0.475311
0.462394
0.449995
0.438106
0.426695
0.415763
0.405436
0.655741
0.64002
0.629674
0.619441
0.607324
0.593722
0.579166
0.564099
0.548871
0.533734
0.518861
0.504368
0.490327
0.476782
0.463757
0.451259
0.439278
0.427785
0.416768
0.406334
0.654752
0.63904
0.62872
0.618519
0.606433
0.592859
0.578327
0.563282
0.548074
0.532954
0.518097
0.503618
0.489591
0.476059
0.463046
0.450559
0.438589
0.427105
0.416098
0.405682
0.64884
0.633294
0.623242
0.613363
0.601604
0.588335
0.57408
0.559285
0.544301
0.529384
0.514712
0.500401
0.486529
0.473139
0.460259
0.447895
0.436038
0.424655
0.413753
0.403479
0.638039
0.622814
0.613269
0.604001
0.592861
0.580172
0.566445
0.552125
0.53757
0.523041
0.508721
0.494733
0.481155
0.468037
0.455408
0.443278
0.431633
0.420443
0.409742
0.399733
0.62242
0.607669
0.598863
0.590487
0.580255
0.568416
0.555463
0.541842
0.527917
0.513958
0.500156
0.48664
0.473495
0.460776
0.448516
0.436729
0.425398
0.41449
0.404081
0.39446
0.602092
0.587961
0.58012
0.572908
0.563862
0.553138
0.5412
0.528495
0.515396
0.502186
0.489063
0.476167
0.46359
0.451394
0.439619
0.428283
0.417363
0.406827
0.3968
0.387681
0.577199
0.56383
0.557165
0.551377
0.543786
0.53443
0.52374
0.512161
0.50008
0.487789
0.475503
0.46337
0.451492
0.43994
0.428763
0.417982
0.40757
0.397492
0.387933
0.379429
0.547921
0.535445
0.530156
0.526036
0.520154
0.512409
0.503189
0.492939
0.482056
0.470851
0.459551
0.448318
0.437266
0.426475
0.416003
0.405879
0.396069
0.386533
0.377524
0.36974
0.514472
0.503012
0.49928
0.497054
0.493119
0.487213
0.479673
0.470941
0.461429
0.451466
0.441295
0.431094
0.420987
0.411068
0.401405
0.392034
0.382917
0.374006
0.365624
0.358658
0.4771
0.466767
0.464753
0.464625
0.462855
0.458998
0.453333
0.446298
0.438319
0.429744
0.420836
0.411787
0.402739
0.393795
0.38504
0.376515
0.368178
0.359972
0.352289
0.346233
0.436084
0.426977
0.42682
0.42897
0.42956
0.427944
0.424333
0.419157
0.412858
0.405805
0.398281
0.390498
0.382611
0.374741
0.366983
0.359392
0.351918
0.344492
0.337576
0.332514
0.391732
0.383937
0.385753
0.390332
0.393452
0.394247
0.392848
0.389676
0.385191
0.37978
0.373751
0.367333
0.360702
0.353991
0.347313
0.340735
0.334203
0.32763
0.321542
0.317552
0.344383
0.337972
0.341849
0.348979
0.354771
0.35812
0.359071
0.358031
0.355473
0.351809
0.347369
0.342404
0.337108
0.331632
0.326106
0.320612
0.315093
0.309441
0.304238
0.301393
0.294402
0.289431
0.295429
0.305199
0.313774
0.319796
0.323211
0.324407
0.323872
0.322041
0.319267
0.315826
0.31193
0.30775
0.303434
0.299082
0.294639
0.289969
0.285702
0.284071
0.242177
0.238688
0.246839
0.259302
0.270739
0.279522
0.285488
0.289003
0.290565
0.290632
0.289583
0.287716
0.285266
0.282423
0.279357
0.276189
0.272869
0.269231
0.265944
0.265596
0.188122
0.186142
0.196443
0.211618
0.22596
0.237561
0.246139
0.25203
0.255739
0.257748
0.25846
0.258197
0.257216
0.255729
0.253928
0.251961
0.249788
0.247213
0.244933
0.245937
0.132667
0.132207
0.144629
0.162494
0.179748
0.194193
0.205415
0.213712
0.219595
0.223565
0.22605
0.227394
0.227877
0.227732
0.227175
0.226384
0.225335
0.223806
0.222533
0.224972
0.0762637
0.0773181
0.0917977
0.112295
0.132432
0.149713
0.163581
0.17429
0.182349
0.188276
0.192521
0.19545
0.197362
0.198512
0.199145
0.199467
0.199468
0.198897
0.198553
0.202491
0.0193732
0.0219237
0.0383679
0.0614009
0.0843539
0.10443
0.12092
0.134021
0.144236
0.152096
0.158067
0.162535
0.165812
0.168169
0.169869
0.171148
0.171976
0.172027
0.172278
0.17784
-0.0375318
-0.0335186
-0.0152316
0.0102039
0.0358698
0.0586703
0.0777301
0.0931807
0.105511
0.115258
0.122901
0.128837
0.133385
0.136817
0.139412
0.141452
0.142911
0.14327
0.143492
0.150266
-0.0939743
-0.0885452
-0.0685646
-0.0408951
-0.0126538
0.0127692
0.0343235
0.0520644
0.0664581
0.0780439
0.0873091
0.0946587
0.100414
0.104835
0.108185
0.110761
0.112525
0.112395
0.110083
0.114547
-0.149477
-0.142692
-0.121191
-0.0914901
-0.0608441
-0.032928
-0.00897572
0.0109809
0.0273772
0.040747
0.0515786
0.0602743
0.0671414
0.0723978
0.0762162
0.0787593
0.0799183
0.0787638
0.0745193
0.0701591
-0.203577
-0.195504
-0.172679
-0.141177
-0.108328
-0.0780738
-0.0518391
-0.0297522
-0.0114161
0.00369409
0.0160688
0.0261141
0.0341416
0.0403712
0.0449613
0.0480556
0.0496858
0.0494601
0.0468356
0.0428281
-0.255819
-0.246537
-0.2226
-0.189557
-0.154736
-0.122326
-0.093942
-0.0698198
-0.0496061
-0.0327849
-0.0188579
-0.00740222
0.00192014
0.00936746
0.0151383
0.0194103
0.022342
0.0239748
0.0241409
0.0224626
-0.30577
-0.295367
-0.270545
-0.236247
-0.199715
-0.165354
-0.134975
-0.108928
-0.0869086
-0.0684138
-0.0529364
-0.0400342
-0.0293412
-0.0205626
-0.0134623
-0.00783982
-0.00349117
-0.000181706
0.00216677
0.00277438
-0.353027
-0.341596
-0.31613
-0.280883
-0.242927
-0.20685
-0.174655
-0.146814
-0.123082
-0.102976
-0.0859846
-0.0716501
-0.0595865
-0.049474
-0.0410507
-0.0340992
-0.028397
-0.023648
-0.0197027
-0.017425
-0.397224
-0.384865
-0.358999
-0.323125
-0.28406
-0.246531
-0.212725
-0.183246
-0.157921
-0.136293
-0.117854
-0.102138
-0.0887451
-0.0773384
-0.0676393
-0.0594162
-0.0524332
-0.0463749
-0.0411141
-0.0376434
-0.438039
-0.424855
-0.398833
-0.36267
-0.322833
-0.28414
-0.248956
-0.21802
-0.191244
-0.168208
-0.148414
-0.131395
-0.11674
-0.104105
-0.0931989
-0.0837836
-0.075615
-0.0683658
-0.0619288
-0.0574369
-0.475199
-0.461293
-0.435356
-0.399245
-0.358992
-0.319451
-0.283146
-0.250961
-0.2229
-0.198591
-0.177557
-0.159335
-0.143511
-0.129736
-0.117713
-0.107203
-0.0979574
-0.0896417
-0.0821415
-0.0766663
-0.508489
-0.493964
-0.46834
-0.432622
-0.39232
-0.352267
-0.315124
-0.281918
-0.252758
-0.227333
-0.205195
-0.185889
-0.169008
-0.154198
-0.141164
-0.129663
-0.119451
-0.11019
-0.101745
-0.0953368
-0.53775
-0.522708
-0.49761
-0.462613
-0.422637
-0.382424
-0.344743
-0.310766
-0.280715
-0.254347
-0.231254
-0.211
-0.193185
-0.177459
-0.163527
-0.151145
-0.140075
-0.129984
-0.120716
-0.11346
-0.56289
-0.54743
-0.523046
-0.48908
-0.449801
-0.409788
-0.371888
-0.337407
-0.306685
-0.279564
-0.255679
-0.234622
-0.216006
-0.199488
-0.184774
-0.171623
-0.159805
-0.148996
-0.139018
-0.131009
-0.583878
-0.568096
-0.544587
-0.511936
-0.47371
-0.434262
-0.39647
-0.361764
-0.330607
-0.30293
-0.278426
-0.256719
-0.23744
-0.220257
-0.204881
-0.191075
-0.178616
-0.167193
-0.156608
-0.147935
-0.60075
-0.584739
-0.562234
-0.531143
-0.494306
-0.45578
-0.418429
-0.383787
-0.352439
-0.324412
-0.299467
-0.277267
-0.257467
-0.239747
-0.223829
-0.209479
-0.196484
-0.184546
-0.17345
-0.164191
-0.613607
-0.597456
-0.57605
-0.546721
-0.511575
-0.474313
-0.437734
-0.403448
-0.372157
-0.343994
-0.31879
-0.296256
-0.276076
-0.257949
-0.241606
-0.226821
-0.213389
-0.20103
-0.189514
-0.179746
-0.622608
-0.606405
-0.58616
-0.558743
-0.52555
-0.489869
-0.45438
-0.420741
-0.389761
-0.361675
-0.336395
-0.313687
-0.293269
-0.274861
-0.258209
-0.243096
-0.229325
-0.216635
-0.204784
-0.194584
-0.62797
-0.611803
-0.592746
-0.567339
-0.536306
-0.502489
-0.468393
-0.435685
-0.405265
-0.377471
-0.3523
-0.329576
-0.309059
-0.290495
-0.273647
-0.258307
-0.244291
-0.231356
-0.219255
-0.208699
-0.629959
-0.613916
-0.596045
-0.572689
-0.543969
-0.512254
-0.479826
-0.448321
-0.418706
-0.391416
-0.366534
-0.343951
-0.323471
-0.304873
-0.287937
-0.27247
-0.258298
-0.245201
-0.232928
-0.222093
-0.628887
-0.613055
-0.596343
-0.575025
-0.548706
-0.519281
-0.488761
-0.45871
-0.430134
-0.403555
-0.379141
-0.356852
-0.336543
-0.318026
-0.301108
-0.285609
-0.271368
-0.258186
-0.245817
-0.234775
-0.625094
-0.609565
-0.593964
-0.574622
-0.55073
-0.523721
-0.495308
-0.466934
-0.439619
-0.413949
-0.390176
-0.36833
-0.34832
-0.329998
-0.313197
-0.297756
-0.283529
-0.270336
-0.257942
-0.246764
-0.618949
-0.603813
-0.589263
-0.571794
-0.550291
-0.525763
-0.499603
-0.473098
-0.447243
-0.42267
-0.399704
-0.378444
-0.358858
-0.340839
-0.324251
-0.308954
-0.294818
-0.281683
-0.26933
-0.258086
-0.61083
-0.596177
-0.582613
-0.566881
-0.547674
-0.525625
-0.501809
-0.477324
-0.453102
-0.4298
-0.407799
-0.387264
-0.36822
-0.350607
-0.334323
-0.319252
-0.305279
-0.292269
-0.280018
-0.268774
-0.601119
-0.587038
-0.574395
-0.560244
-0.543188
-0.523557
-0.502114
-0.479753
-0.457309
-0.435431
-0.41454
-0.394861
-0.376474
-0.359366
-0.343473
-0.328703
-0.314962
-0.302138
-0.290047
-0.278865
-0.59019
-0.576764
-0.564982
-0.552246
-0.537163
-0.519829
-0.500731
-0.480545
-0.459984
-0.43966
-0.420014
-0.401314
-0.383692
-0.367184
-0.351762
-0.337366
-0.323922
-0.311339
-0.299462
-0.2884
-0.578396
-0.565703
-0.55473
-0.543245
-0.529934
-0.51473
-0.49789
-0.479877
-0.461263
-0.442595
-0.424307
-0.406699
-0.389946
-0.374128
-0.359256
-0.345301
-0.332214
-0.319926
-0.308308
-0.297422
-0.566065
-0.554173
-0.543968
-0.533582
-0.52183
-0.508557
-0.493837
-0.477941
-0.461292
-0.444347
-0.427513
-0.411098
-0.395309
-0.380266
-0.366018
-0.352568
-0.339893
-0.327948
-0.316634
-0.305973
-0.553494
-0.542457
-0.532989
-0.523564
-0.513166
-0.501604
-0.488826
-0.474943
-0.460229
-0.445038
-0.429724
-0.414586
-0.399849
-0.385661
-0.372108
-0.359225
-0.347015
-0.335457
-0.324482
-0.314089
-0.540939
-0.530797
-0.522043
-0.513466
-0.50423
-0.494153
-0.483113
-0.471095
-0.458241
-0.444795
-0.431039
-0.417244
-0.403633
-0.390376
-0.377585
-0.365326
-0.353628
-0.342497
-0.331893
-0.321803
-0.528617
-0.519394
-0.511337
-0.503514
-0.495271
-0.486466
-0.476946
-0.466616
-0.455506
-0.443753
-0.43156
-0.419147
-0.406724
-0.394464
-0.382498
-0.370918
-0.359779
-0.349111
-0.338902
-0.329142
-0.516707
-0.508409
-0.501034
-0.493892
-0.486499
-0.47877
-0.470556
-0.461718
-0.452203
-0.442056
-0.431394
-0.420379
-0.409185
-0.397977
-0.386894
-0.376045
-0.365507
-0.355334
-0.345542
-0.336126
-0.505348
-0.497963
-0.491254
-0.484736
-0.478078
-0.471256
-0.464149
-0.456603
-0.448516
-0.439854
-0.430658
-0.421023
-0.411078
-0.400963
-0.390812
-0.380742
-0.370847
-0.361199
-0.351839
-0.342773
-0.494643
-0.488142
-0.48208
-0.476142
-0.470129
-0.464074
-0.457897
-0.451455
-0.444617
-0.437299
-0.429474
-0.421172
-0.412469
-0.40347
-0.39429
-0.385043
-0.375829
-0.366736
-0.357823
-0.349103
-0.484666
-0.479003
-0.473563
-0.468168
-0.462731
-0.457334
-0.45194
-0.44643
-0.440669
-0.434541
-0.427969
-0.420926
-0.413432
-0.40555
-0.397364
-0.388975
-0.38048
-0.371972
-0.363525
-0.355148
-0.475461
-0.470576
-0.465727
-0.460845
-0.455931
-0.451109
-0.44638
-0.441657
-0.436815
-0.431725
-0.426274
-0.420391
-0.414047
-0.407258
-0.400073
-0.392567
-0.384827
-0.376939
-0.368988
-0.360965
-0.467053
-0.462872
-0.458576
-0.454179
-0.449749
-0.44544
-0.441287
-0.437235
-0.433175
-0.428978
-0.424514
-0.419679
-0.414402
-0.408656
-0.402456
-0.395844
-0.388888
-0.381663
-0.374254
-0.366629
-0.459439
-0.455882
-0.452096
-0.448158
-0.444184
-0.440345
-0.436704
-0.433232
-0.429842
-0.426412
-0.422805
-0.418896
-0.414586
-0.409813
-0.404554
-0.398826
-0.392673
-0.386155
-0.379357
-0.372258
-0.452598
-0.449578
-0.44626
-0.442757
-0.439216
-0.435819
-0.432647
-0.429691
-0.426884
-0.424114
-0.421246
-0.418145
-0.414691
-0.410796
-0.406409
-0.401523
-0.396166
-0.390389
-0.38428
-0.37791
-0.446487
-0.443917
-0.441023
-0.437934
-0.434812
-0.43184
-0.429109
-0.426627
-0.424338
-0.422144
-0.419915
-0.417511
-0.414801
-0.411674
-0.40806
-0.403934
-0.399317
-0.394275
-0.388918
-0.383641
-0.441038
-0.438836
-0.436327
-0.433634
-0.430921
-0.428366
-0.426062
-0.424025
-0.422211
-0.420531
-0.41886
-0.417058
-0.414984
-0.412511
-0.409547
-0.406051
-0.402045
-0.39762
-0.392968
-0.389128
-0.436163
-0.43426
-0.432098
-0.429785
-0.427474
-0.425332
-0.423448
-0.421842
-0.420475
-0.419265
-0.418092
-0.416816
-0.415285
-0.413358
-0.410913
-0.407879
-0.404256
-0.400136
-0.395862
-0.393785
-0.431758
-0.430097
-0.428251
-0.426303
-0.424388
-0.422655
-0.421188
-0.420003
-0.419065
-0.418294
-0.417576
-0.416769
-0.415715
-0.414248
-0.412213
-0.40948
-0.405973
-0.401657
-0.396836
-0.395562
-0.427707
-0.426247
-0.424692
-0.423095
-0.421565
-0.420235
-0.419178
-0.418404
-0.417879
-0.417525
-0.41723
-0.416854
-0.41623
-0.415174
-0.413477
-0.410916
-0.407238
-0.401992
-0.394039
-0.384479
-0.423889
-0.422609
-0.421325
-0.420061
-0.418902
-0.417962
-0.417301
-0.416924
-0.416793
-0.416832
-0.416934
-0.416963
-0.416756
-0.416123
-0.41485
-0.412694
-0.409404
-0.404623
-0.397495
-0.38928
-0.420192
-0.419084
-0.418056
-0.417104
-0.416295
-0.415723
-0.415435
-0.415429
-0.415664
-0.416067
-0.416536
-0.416944
-0.417137
-0.416944
-0.416169
-0.414605
-0.41206
-0.408267
-0.402609
-0.396628
-0.416514
-0.415585
-0.414799
-0.414138
-0.41365
-0.413414
-0.413464
-0.413792
-0.414354
-0.415079
-0.415871
-0.416614
-0.417168
-0.417379
-0.417075
-0.416085
-0.414253
-0.411338
-0.406883
-0.402644
-0.412773
-0.412038
-0.411483
-0.411085
-0.410884
-0.410944
-0.411287
-0.4119
-0.412738
-0.413732
-0.414792
-0.415811
-0.416664
-0.417214
-0.417314
-0.416819
-0.415606
-0.413469
-0.41011
-0.407274
-0.408912
-0.408389
-0.408053
-0.407889
-0.407936
-0.408244
-0.408829
-0.40967
-0.410724
-0.411924
-0.413187
-0.414415
-0.415498
-0.416315
-0.41674
-0.416658
-0.415974
-0.414526
-0.412159
-0.410416
-0.404897
-0.404602
-0.404472
-0.404512
-0.404765
-0.405271
-0.406039
-0.407049
-0.408255
-0.409595
-0.410994
-0.412362
-0.413603
-0.414612
-0.415285
-0.415532
-0.415281
-0.414418
-0.412895
-0.411956
-0.400717
-0.400661
-0.400723
-0.400935
-0.401351
-0.402005
-0.402901
-0.404018
-0.405314
-0.406731
-0.4082
-0.409642
-0.410972
-0.412104
-0.412953
-0.413448
-0.41354
-0.413158
-0.412322
-0.411944
-0.396383
-0.396569
-0.396805
-0.397159
-0.397697
-0.39845
-0.399422
-0.400592
-0.40192
-0.403355
-0.404835
-0.406292
-0.407653
-0.408847
-0.409807
-0.410481
-0.410834
-0.410832
-0.410534
-0.410527
-0.391921
-0.392344
-0.392735
-0.393199
-0.393822
-0.394633
-0.395635
-0.396808
-0.39812
-0.399523
-0.400965
-0.402386
-0.403729
-0.404934
-0.40595
-0.406739
-0.407279
-0.407564
-0.407667
-0.407888
-0.387372
-0.388016
-0.38854
-0.389087
-0.389762
-0.390593
-0.391585
-0.392724
-0.393978
-0.39531
-0.396674
-0.398022
-0.399305
-0.400478
-0.401503
-0.402352
-0.40301
-0.403493
-0.403873
-0.404214
-0.38278
-0.383621
-0.384255
-0.38486
-0.385559