/*--------------------------------*- C++ -*----------------------------------*\
  =========                 |
  \\      /  F ield         | OpenFOAM: The Open Source CFD Toolbox
   \\    /   O peration     | Website:  https://openfoam.org
    \\  /    A nd           | Version:  6.0
     \\/     M anipulation  |
\*---------------------------------------------------------------------------*/
FoamFile
{
    version     2.0;
    format      ascii;
    class       surfaceScalarField;
    location    "67";
    object      phi;
}
// * * * * * * * * * * * * * * * * * * * * * * * * * * * * * * * * * * * * * //

dimensions      [0 3 -1 0 0 0 0];

internalField   nonuniform List<scalar> 
15760
(
-3.61648e-06
-2.60697e-05
2.96862e-05
-1.24763e-05
-5.24487e-05
6.13084e-05
-2.49986e-05
-6.14854e-05
7.40077e-05
-3.99113e-05
-5.91591e-05
7.40718e-05
-5.62021e-05
-4.97626e-05
6.60534e-05
-7.30713e-05
-3.62332e-05
5.31024e-05
-8.98906e-05
-2.04744e-05
3.72937e-05
-0.000106171
-3.63202e-06
1.99124e-05
-0.00012154
1.36817e-05
1.68722e-06
-0.000135727
3.12106e-05
-1.70236e-05
-0.000148556
4.89226e-05
-3.60939e-05
-0.00015994
6.69151e-05
-5.5531e-05
-0.000169881
8.53509e-05
-7.54099e-05
-0.000178466
0.000104418
-9.58323e-05
-0.000185867
0.000124303
-0.000116903
-0.000192329
0.000145178
-0.000138716
-0.000198169
0.000167184
-0.000161344
-0.000203759
0.000190428
-0.000184838
-0.00020951
0.000215013
-0.000209262
0.000241062
-0.000234709
-0.000215863
-3.48691e-06
-2.25828e-05
-1.19831e-05
-4.39525e-05
-2.39065e-05
-4.9562e-05
-3.79808e-05
-4.50848e-05
-5.31914e-05
-3.4552e-05
-6.87367e-05
-2.06879e-05
-8.39856e-05
-5.2255e-06
-9.84449e-05
1.08273e-05
-0.000111736
2.69726e-05
-0.00012358
4.30546e-05
-0.000133791
5.91337e-05
-0.000142272
7.53967e-05
-0.000149017
9.20954e-05
-0.000154105
0.000109506
-0.000157705
0.000127903
-0.000160068
0.000147541
-0.000161527
0.000168642
-0.000162479
0.00019138
-0.000163381
0.000215914
0.000242408
-0.000164727
-3.3703e-06
-1.92125e-05
-1.15278e-05
-3.57949e-05
-2.2884e-05
-3.82059e-05
-3.61554e-05
-3.18134e-05
-5.03224e-05
-2.0385e-05
-6.45782e-05
-6.43208e-06
-7.82845e-05
8.48081e-06
-9.09374e-05
2.34802e-05
-0.000102144
3.81788e-05
-0.000111606
5.25173e-05
-0.000119118
6.66453e-05
-0.000124559
8.08374e-05
-0.000127898
9.54347e-05
-0.000129197
0.000110805
-0.000128612
0.000127318
-0.000126395
0.000145324
-0.000122891
0.000165138
-0.000118534
0.000187024
-0.000113837
0.000211217
0.000237946
-0.000109375
-3.28407e-06
-1.59284e-05
-1.1167e-05
-2.7912e-05
-2.2041e-05
-2.73319e-05
-3.46095e-05
-1.92449e-05
-4.78438e-05
-7.15067e-06
-6.09285e-05
6.65262e-06
-7.32139e-05
2.07662e-05
-8.41799e-05
3.44462e-05
-9.34113e-05
4.74102e-05
-0.000100583
5.96888e-05
-0.000105453
7.15159e-05
-0.000107866
8.32503e-05
-0.000107754
9.53221e-05
-0.000105144
0.000108196
-0.000100169
0.000122343
-9.30723e-05
0.000138227
-8.42118e-05
0.000156277
-7.40629e-05
0.000176875
-6.321e-05
0.000200364
0.00022707
-5.23343e-05
-3.24166e-06
-1.26867e-05
-1.09434e-05
-2.02103e-05
-2.1461e-05
-1.68142e-05
-3.34765e-05
-7.22949e-06
-4.59477e-05
5.32058e-06
-5.80479e-05
1.87528e-05
-6.91131e-05
3.18315e-05
-7.86035e-05
4.39365e-05
-8.60755e-05
5.48823e-05
-9.11675e-05
6.47807e-05
-9.35934e-05
7.39417e-05
-9.31454e-05
8.28024e-05
-8.97028e-05
9.18795e-05
-8.32439e-05
0.000101737
-7.38619e-05
0.000112961
-6.17792e-05
0.000126145
-4.73619e-05
0.00014186
-3.11295e-05
0.000160643
-1.3755e-05
0.00018299
0.000209369
3.94581e-06
-3.25115e-06
-9.43557e-06
-1.08829e-05
-1.25785e-05
-2.11948e-05
-6.5023e-06
-3.28379e-05
4.41361e-06
-4.47532e-05
1.7236e-05
-5.61015e-05
3.0101e-05
-6.62043e-05
4.19343e-05
-7.45005e-05
5.22327e-05
-8.05156e-05
6.08974e-05
-8.38451e-05
6.81102e-05
-8.41484e-05
7.4245e-05
-8.11533e-05
7.98073e-05
-7.46687e-05
8.53948e-05
-6.46033e-05
9.16714e-05
-5.09907e-05
9.93487e-05
-3.40153e-05
0.000109169
-1.40393e-05
0.000121884
8.37407e-06
0.000138229
3.24483e-05
0.000158916
0.000184619
5.71983e-05
-3.31478e-06
-6.12079e-06
-1.09921e-05
-4.9012e-06
-2.12543e-05
3.75992e-06
-3.27135e-05
1.58729e-05
-4.42915e-05
2.88139e-05
-5.51374e-05
4.09469e-05
-6.4561e-05
5.13579e-05
-7.19823e-05
5.9654e-05
-7.6897e-05
6.5812e-05
-7.88556e-05
7.00689e-05
-7.74571e-05
7.28465e-05
-7.23532e-05
7.47034e-05
-6.3265e-05
7.63066e-05
-5.00092e-05
7.84155e-05
-3.25333e-05
8.18728e-05
-1.09577e-05
8.75935e-05
1.43799e-05
9.65466e-05
4.28807e-05
0.000109728
7.36525e-05
0.000128144
0.000152771
0.000105501
-3.42804e-06
-2.69275e-06
-1.12554e-05
2.92617e-06
-2.16087e-05
1.41132e-05
-3.30539e-05
2.73181e-05
-4.44928e-05
4.02528e-05
-5.50664e-05
5.15206e-05
-6.40784e-05
6.03699e-05
-7.09367e-05
6.65123e-05
-7.51129e-05
6.99881e-05
-7.61167e-05
7.10727e-05
-7.34858e-05
7.02157e-05
-6.67897e-05
6.80073e-05
-5.56471e-05
6.5164e-05
-3.97591e-05
6.25275e-05
-1.8956e-05
6.10697e-05
6.74157e-06
6.18958e-05
3.70537e-05
6.62345e-05
7.13675e-05
7.54145e-05
0.00010867
9.08416e-05
0.000113929
0.000147512
-3.57964e-06
8.86897e-07
-1.16354e-05
1.0982e-05
-2.21829e-05
2.46607e-05
-3.37368e-05
3.8872e-05
-4.51796e-05
5.16956e-05
-5.56492e-05
6.19901e-05
-6.44509e-05
6.91717e-05
-7.09913e-05
7.30526e-05
-7.4729e-05
7.37259e-05
-7.51439e-05
7.14876e-05
-7.17207e-05
6.67925e-05
-6.39481e-05
6.02347e-05
-5.13355e-05
5.25514e-05
-3.34492e-05
4.46412e-05
-9.96996e-06
3.75905e-05
1.92259e-05
3.26999e-05
5.39649e-05
3.14954e-05
9.36597e-05
3.57197e-05
0.000137188
4.73138e-05
6.83165e-05
0.0001828
-3.75199e-06
4.63889e-06
-1.20739e-05
1.93039e-05
-2.28599e-05
3.54467e-05
-3.45699e-05
5.05821e-05
-4.60678e-05
6.31935e-05
-5.64932e-05
7.24155e-05
-6.51622e-05
7.78407e-05
-7.1492e-05
7.93824e-05
-7.49446e-05
7.71784e-05
-7.49877e-05
7.15307e-05
-7.10706e-05
6.28754e-05
-6.26161e-05
5.17802e-05
-4.90307e-05
3.89661e-05
-2.97386e-05
2.5349e-05
-4.24497e-06
1.20968e-05
2.77644e-05
6.90589e-07
6.62853e-05
-7.02548e-06
0.000110821
-8.81599e-06
0.000160177
-2.04202e-06
1.62249e-05
0.000212269
-3.92232e-06
8.56121e-06
-1.24954e-05
2.7877e-05
-2.34872e-05
4.64385e-05
-3.53e-05
6.23949e-05
-4.67784e-05
7.46719e-05
-5.70662e-05
8.27033e-05
-6.54967e-05
8.62713e-05
-7.15093e-05
8.53951e-05
-7.45865e-05
8.02556e-05
-7.42067e-05
7.11509e-05
-6.98114e-05
5.84801e-05
-6.07866e-05
4.27555e-05
-4.6462e-05
2.46414e-05
-2.61344e-05
5.02146e-06
8.72261e-07
-1.49099e-05
3.50985e-05
-3.35357e-05
7.67779e-05
-4.87049e-05
0.000125595
-5.76334e-05
0.000180363
-5.68099e-05
-4.20665e-05
0.000238655
-4.06464e-06
1.26259e-05
-1.28134e-05
3.66258e-05
-2.38884e-05
5.75135e-05
-3.5631e-05
7.41374e-05
-4.68624e-05
8.59032e-05
-5.67277e-05
9.25686e-05
-6.45781e-05
9.41217e-05
-6.98814e-05
9.06984e-05
-7.21538e-05
8.2528e-05
-7.09073e-05
6.99044e-05
-6.5609e-05
5.31818e-05
-5.5651e-05
3.27975e-05
-4.03348e-05
9.32528e-06
-1.88766e-05
-1.64368e-05
9.551e-06
-4.33375e-05
4.5718e-05
-6.97027e-05
9.01491e-05
-9.3136e-05
0.000142819
-0.000110303
0.000202679
-0.00011667
-0.000106404
0.000267016
-4.15234e-06
1.67782e-05
-1.29382e-05
4.54116e-05
-2.38784e-05
6.84536e-05
-3.52483e-05
8.55074e-05
-4.58366e-05
9.64916e-05
-5.47795e-05
0.000101511
-6.14369e-05
0.000100779
-6.53007e-05
9.45622e-05
-6.59247e-05
8.3152e-05
-6.28699e-05
6.68496e-05
-5.56598e-05
4.59716e-05
-4.37422e-05
2.08799e-05
-2.64587e-05
-7.95824e-06
-3.02626e-06
-3.98692e-05
2.74525e-05
-7.38163e-05
6.59221e-05
-0.000108172
0.000113203
-0.000140417
0.000169653
-0.000166753
0.000234552
-0.000181569
-0.000176915
0.000305063
-4.16096e-06
2.09392e-05
-1.27854e-05
5.4036e-05
-2.32801e-05
7.89484e-05
-3.38474e-05
9.60747e-05
-4.3228e-05
0.000105872
-5.05294e-05
0.000108813
-5.51004e-05
0.00010535
-5.64387e-05
9.59006e-05
-5.41241e-05
8.08374e-05
-4.77665e-05
6.0492e-05
-3.69638e-05
3.5169e-05
-2.12626e-05
5.17879e-06
-1.18913e-07
-2.91019e-05
2.71413e-05
-6.71294e-05
6.13513e-05
-0.000108026
0.000103495
-0.000150316
0.000154601
-0.000191522
0.00021544
-0.000227592
0.000285825
-0.000251954
-0.000254214
0.000363124
-4.07092e-06
2.50101e-05
-1.22844e-05
6.22495e-05
-2.19417e-05
8.86058e-05
-3.11616e-05
0.000105295
-3.86161e-05
0.000113327
-4.33568e-05
0.000113554
-4.46895e-05
0.000106683
-4.2086e-05
9.32971e-05
-3.51227e-05
7.38741e-05
-2.34381e-05
4.88074e-05
-6.69974e-06
1.84306e-05
1.5426e-05
-1.6947e-05
4.33098e-05
-5.69857e-05
7.74073e-05
-0.000101227
0.000118321
-0.00014894
0.000166862
-0.000198857
0.000224055
-0.000248715
0.000290967
-0.000294505
0.000368093
-0.00032908
-0.000339609
0.000453488
-3.86935e-06
2.88794e-05
-1.13842e-05
6.97643e-05
-1.97475e-05
9.69691e-05
-2.69821e-05
0.000112529
-3.1667e-05
0.000118011
-3.27648e-05
0.000114651
-2.94995e-05
0.000103418
-2.12745e-05
8.50721e-05
-7.62028e-06
6.02198e-05
1.1836e-05
2.93511e-05
3.73873e-05
-7.12065e-06
6.9259e-05
-4.88187e-05
0.000107627
-9.53541e-05
0.000152655
-0.000146255
0.000204564
-0.000200849
0.000263745
-0.000258039
0.000330891
-0.00031586
0.000407042
-0.000370656
0.000493297
-0.000415335
-0.000435235
0.000588923
-3.55076e-06
3.24302e-05
-1.00555e-05
7.62691e-05
-1.66233e-05
0.000103537
-2.11675e-05
0.000117073
-2.21484e-05
0.000118992
-1.84054e-05
0.000110908
-9.0409e-06
9.40531e-05
6.65514e-06
6.93761e-05
2.92459e-05
3.7629e-05
5.91642e-05
-5.67137e-07
9.67107e-05
-4.46672e-05
0.000142044
-9.41522e-05
0.000195171
-0.000148481
0.000255954
-0.000207037
0.000324152
-0.000269047
0.000399545
-0.000333431
0.000482135
-0.00039845
0.000572416
-0.000460937
0.000671568
-0.000514488
-0.000544068
0.000780401
-3.11627e-06
3.55465e-05
-8.28895e-06
8.14418e-05
-1.25332e-05
0.000107781
-1.36385e-05
0.000118179
-9.92271e-06
0.000115277
-7.20695e-08
0.000101058
1.69681e-05
7.7013e-05
4.20586e-05
4.42856e-05
7.58961e-05
3.79153e-06
0.000119016
-4.36868e-05
0.000171773
-9.74244e-05
0.000234312
-0.000156691
0.000306528
-0.000220697
0.000388034
-0.000288544
0.000478158
-0.000359171
0.000576001
-0.000431274
0.000680637
-0.000503086
0.000791478
-0.000571778
0.000908856
-0.000631866
-0.000670234
0.00103502
-2.57157e-06
3.8118e-05
-6.08914e-06
8.49594e-05
-7.46845e-06
0.00010916
-4.36128e-06
0.000115072
5.07642e-06
0.000105839
2.23346e-05
8.37996e-05
4.86473e-05
5.07002e-05
8.50473e-05
7.88565e-06
0.000132384
-4.35447e-05
0.000191313
-0.000102616
0.00026227
-0.000168381
0.000345426
-0.000239848
0.000440638
-0.000315909
0.000547389
-0.000395295
0.000664729
-0.000476512
0.000791239
-0.000557783
0.000925068
-0.000636915
0.00106416
-0.000710872
0.00120694
-0.000774649
-0.000819361
0.00135607
-1.92413e-06
4.00422e-05
-3.46687e-06
8.65021e-05
-1.43353e-06
0.000107127
6.67462e-06
0.000106963
2.28771e-05
8.96364e-05
4.88505e-05
5.78262e-05
8.60124e-05
1.35383e-05
0.000135561
-4.16627e-05
0.000198479
-0.000106463
0.000275517
-0.000179654
0.000367165
-0.000260029
0.000473612
-0.000346295
0.000594726
-0.000437023
0.000730027
-0.000530596
0.000878674
-0.000625159
0.00103943
-0.000718544
0.0012106
-0.000808082
0.00138955
-0.000889818
0.00157068
-0.000955779
-0.000986841
0.00173816
-1.18084e-06
4.1223e-05
-4.3166e-07
8.5753e-05
5.56823e-06
0.000101127
1.94784e-05
9.30532e-05
4.34987e-05
6.56161e-05
7.94866e-05
2.18383e-05
0.00012902
-3.59953e-05
0.000193417
-0.000106059
0.00027372
-0.000186766
0.000370671
-0.000276605
0.000484677
-0.000374035
0.000615802
-0.000477419
0.000763778
-0.000584999
0.000928076
-0.000694894
0.00110806
-0.000805144
0.00130327
-0.000913755
0.00151395
-0.00101876
0.00174228
-0.00111815
0.00199648
-0.00120998
-0.00128813
0.00229777
-3.43022e-07
4.1566e-05
3.01909e-06
8.23909e-05
1.35505e-05
9.05958e-05
3.40778e-05
7.25259e-05
6.69741e-05
3.27198e-05
0.00011425
-2.54381e-05
0.000177589
-9.93342e-05
0.000258333
-0.000186803
0.000357446
-0.000285879
0.000475468
-0.000394627
0.000612483
-0.00051105
0.000768111
-0.000633047
0.000941548
-0.000758436
0.00113166
-0.000885004
0.00133712
-0.00101061
0.00155666
-0.00113329
0.00178934
-0.00125144
0.00203511
-0.00136392
0.00229537
-0.00147024
-0.00156356
0.0025708
5.91867e-07
4.09742e-05
6.89907e-06
7.60837e-05
2.25445e-05
7.49504e-05
5.05198e-05
4.45506e-05
9.33475e-05
-1.01079e-05
0.000153137
-8.5228e-05
0.000231579
-0.000177776
0.000329894
-0.000285117
0.000448765
-0.00040475
0.000588281
-0.000534143
0.000747902
-0.000670671
0.000926478
-0.000811623
0.00112231
-0.00095427
0.00133329
-0.00109598
0.00155701
-0.00123433
0.001791
-0.00136728
0.00203281
-0.00149325
0.00228016
-0.00161127
0.00253081
-0.00172089
-0.00181602
0.00278327
1.63325e-06
3.93409e-05
1.12377e-05
6.64792e-05
3.26024e-05
5.35857e-05
6.8868e-05
8.28489e-06
0.00012266
-6.38994e-05
0.000196094
-0.000158662
0.000290723
-0.000272405
0.000407442
-0.000401837
0.000546402
-0.000543709
0.000706945
-0.000694687
0.00088761
-0.000851336
0.0010862
-0.00101021
0.00129989
-0.00116797
0.00152547
-0.00132155
0.00175946
-0.00146833
0.00199838
-0.0016062
0.00223884
-0.00173371
0.0024776
-0.00185003
0.00271164
-0.00195494
-0.00204427
0.00293989
2.79613e-06
3.65448e-05
1.6076e-05
5.31994e-05
4.37873e-05
2.58744e-05
8.91828e-05
-3.71106e-05
0.000154909
-0.000129625
0.000242953
-0.000246706
0.000354527
-0.00038398
0.000489946
-0.000537256
0.000648527
-0.00070229
0.000828573
-0.000874733
0.00102744
-0.00105021
0.00124172
-0.00122448
0.00146743
-0.00139368
0.00170034
-0.00155446
0.00193621
-0.0017042
0.00217105
-0.00184103
0.00240122
-0.00196388
0.00262357
-0.00207238
0.00283547
-0.00216683
-0.00224509
0.0030363
4.09936e-06
3.24454e-05
2.14606e-05
3.58381e-05
5.61591e-05
-8.82408e-06
0.000111492
-9.24436e-05
0.000190004
-0.000208138
0.000293361
-0.000350062
0.000422178
-0.000512797
0.000575884
-0.000690961
0.000752659
-0.000879065
0.000949508
-0.00107158
0.00116246
-0.00126316
0.00138686
-0.00144889
0.00161777
-0.00162458
0.00185028
-0.00178697
0.00207987
-0.00193379
0.00230262
-0.00206378
0.00251536
-0.00217662
0.00271571
-0.00227273
0.00290207
-0.0023532
-0.00241761
0.00307459
5.5629e-06
2.68825e-05
2.74339e-05
1.39671e-05
6.97538e-05
-5.11439e-05
0.000135757
-0.000158447
0.00022771
-0.000300091
0.000346706
-0.000469059
0.000492459
-0.000658551
0.00066319
-0.000861692
0.000855672
-0.00107155
0.00106545
-0.00128136
0.00128725
-0.00148495
0.00151538
-0.00167702
0.00174429
-0.00185349
0.00196892
-0.00201161
0.00218504
-0.00214992
0.00238942
-0.00226816
0.00257984
-0.00236704
0.00275508
-0.00244798
0.00291478
-0.0025129
-0.00256276
0.00305993
7.20459e-06
1.9678e-05
3.40239e-05
-1.28522e-05
8.45619e-05
-0.000101682
0.000161834
-0.000235718
0.000267596
-0.000405853
0.000402066
-0.000603529
0.000563722
-0.000820207
0.000749285
-0.00104726
0.000953946
-0.00127621
0.00117181
-0.00149923
0.00139648
-0.00170962
0.00162167
-0.00190221
0.00184174
-0.00207356
0.00205207
-0.00222193
0.00224926
-0.00234711
0.0024312
-0.00245009
0.00259691
-0.00253275
0.00274644
-0.00259751
0.00288057
-0.00264703
-0.00268324
0.00300105
9.03677e-06
1.06412e-05
4.12328e-05
-4.50482e-05
0.000100508
-0.000160957
0.000189446
-0.000324657
0.000309005
-0.000525412
0.000458189
-0.000752714
0.00063392
-0.000995938
0.000831211
-0.00124455
0.00104365
-0.00148865
0.00126411
-0.00171969
0.00148552
-0.00193102
0.00170152
-0.00211821
0.00190698
-0.00227903
0.00209825
-0.0024132
0.00227316
-0.00252202
0.00243092
-0.00260785
0.00257184
-0.00267367
0.00269704
-0.00272271
0.00280819
-0.00275819
-0.00278257
0.00290753
1.10633e-05
-4.22129e-07
4.90286e-05
-8.30134e-05
0.000117432
-0.00022936
0.000218163
-0.000425387
0.000351045
-0.000658294
0.000513527
-0.000915196
0.000700721
-0.00118313
0.000905863
-0.00144969
0.00112113
-0.00170391
0.00133856
-0.00193712
0.00155097
-0.00214343
0.00175256
-0.00231979
0.00193922
-0.00246569
0.00210863
-0.00258262
0.00226003
-0.00267342
0.00239392
-0.00274173
0.00251166
-0.00279141
0.00261521
-0.00282625
0.00270671
-0.00284969
-0.00286446
0.00278861
1.32776e-05
-1.36997e-05
5.73384e-05
-0.000127074
0.000135087
-0.000307108
0.0002474
-0.000537701
0.000392614
-0.000803509
0.000566318
-0.0010889
0.000761679
-0.00137849
0.000970283
-0.00165829
0.00118326
-0.00191689
0.00139242
-0.00214628
0.00159106
-0.00234207
0.00177444
-0.00250318
0.00193988
-0.00263113
0.00208652
-0.00272925
0.00221493
-0.00280183
0.00232667
-0.00285347
0.00242389
-0.00288864
0.00250897
-0.00291133
0.00258423
-0.00292496
-0.00293226
0.00265202
1.56611e-05
-2.93608e-05
6.60467e-05
-0.00017746
0.000153132
-0.000394194
0.000276433
-0.000661002
0.000432455
-0.000959531
0.000614711
-0.00127116
0.000814457
-0.00157824
0.00102195
-0.00186579
0.00122783
-0.00212278
0.00142427
-0.00234272
0.00160563
-0.00252342
0.0017686
-0.00266615
0.00191206
-0.00277459
0.00203652
-0.00285371
0.00214366
-0.00290897
0.00223581
-0.00294562
0.00231551
-0.00296834
0.00238527
-0.00298108
0.00244734
-0.00298703
-0.00298872
0.0025038
1.81834e-05
-4.75441e-05
7.49964e-05
-0.000234273
0.00017115
-0.000490347
0.000304436
-0.000794288
0.000469239
-0.00112433
0.000656918
-0.00145883
0.000857043
-0.00177836
0.00105903
-0.00206778
0.00125366
-0.0023174
0.00143404
-0.0025231
0.00159599
-0.00268536
0.00173781
-0.00280798
0.00185983
-0.00289661
0.00196374
-0.00295763
0.002052
-0.00299724
0.00212735
-0.00302097
0.00219243
-0.00303343
0.00224965
-0.00303829
0.00230102
-0.0030384
-0.00303598
0.00234828
2.08028e-05
-6.8347e-05
8.39943e-05
-0.000297464
0.000188662
-0.000595015
0.000330532
-0.000936157
0.000501668
-0.00129547
0.00069137
-0.00164854
0.000887921
-0.00197491
0.0010805
-0.00226036
0.00126063
-0.00249753
0.00142281
-0.00268528
0.0015645
-0.00282706
0.00168558
-0.00292906
0.00178763
-0.00299866
0.00187318
-0.00304317
0.00194513
-0.00306919
0.00200633
-0.00308217
0.00205933
-0.00308643
0.00210627
-0.00308523
0.00214885
-0.00308098
-0.00307559
0.00218846
2.34679e-05
-9.18148e-05
9.28194e-05
-0.000366816
0.000205157
-0.000707352
0.000353846
-0.00108485
0.000528574
-0.0014702
0.000716842
-0.0018368
0.000906187
-0.00216426
0.00108617
-0.00244034
0.00124956
-0.00266092
0.00139252
-0.00282824
0.00151416
-0.0029487
0.00161574
-0.00303064
0.00169976
-0.00308268
0.00176929
-0.0031127
0.00182737
-0.00312727
0.00187674
-0.00313154
0.00191971
-0.0031294
0.00195809
-0.0031236
0.00199327
-0.00311616
-0.00310863
0.00202631
2.61188e-05
-0.000117934
0.000101233
-0.00044193
0.000220117
-0.000826236
0.000373575
-0.00123831
0.000549005
-0.00164563
0.000732535
-0.00202034
0.000911561
-0.00234328
0.0010766
-0.00260538
0.00122199
-0.0028063
0.00134564
-0.00295189
0.00144818
-0.00305124
0.00153194
-0.0031144
0.00160006
-0.0031508
0.0016558
-0.00316844
0.00170214
-0.00317361
0.00174158
-0.00317099
0.0017761
-0.00316391
0.00180718
-0.00315469
0.00183593
-0.00314491
-0.00313581
0.00186312
2.86904e-05
-0.000146624
0.00010899
-0.00052223
0.000233052
-0.000950297
0.00038903
-0.00139428
0.000562286
-0.00181888
0.000738107
-0.00219616
0.000904345
-0.00250952
0.0010529
-0.00275393
0.00117988
-0.00293329
0.00128485
-0.00305686
0.0013697
-0.00313609
0.00143752
-0.00318222
0.00149177
-0.00320505
0.00153569
-0.00321236
0.00157205
-0.00320996
0.00160302
-0.00320196
0.00163025
-0.00319114
0.00165492
-0.00317936
0.00167788
-0.00316786
-0.00315762
0.00169968
3.11144e-05
-0.000177738
0.000115855
-0.00060697
0.000243529
-0.00107797
0.00039969
-0.00155044
0.000568051
-0.00198724
0.000733645
-0.00236175
0.000885307
-0.00266119
0.00101661
-0.00288524
0.00112544
-0.00304211
0.00121281
-0.00314423
0.00128158
-0.00320485
0.0013353
-0.00323595
0.00137752
-0.00324726
0.00141128
-0.00324612
0.00143903
-0.00323772
0.00146263
-0.00322556
0.00148339
-0.0032119
0.00150224
-0.00319821
0.00151982
-0.00318544
-0.00317432
0.00153652
3.33228e-05
-0.000211061
0.000121607
-0.000695255
0.000251193
-0.00120756
0.000405218
-0.00170447
0.000566238
-0.00214826
0.000719608
-0.00251512
0.000855556
-0.00279713
0.000969461
-0.00299914
0.00106086
-0.00313351
0.00113197
-0.00321534
0.0011863
-0.00325918
0.00122763
-0.00327727
0.00125936
-0.00327899
0.00128428
-0.00327104
0.00130448
-0.00325792
0.00132148
-0.00324256
0.00133633
-0.00322675
0.00134974
-0.00321163
0.00136219
-0.00319788
-0.00318608
0.00137396
3.52503e-05
-0.000246312
0.00012606
-0.000786064
0.000255788
-0.00133729
0.000405471
-0.00185415
0.000557058
-0.00229985
0.000696738
-0.0026548
0.000816404
-0.0029168
0.000913235
-0.00309597
0.000988221
-0.0032085
0.00104449
-0.00327161
0.00108595
-0.00330064
0.00111635
-0.00330768
0.00113888
-0.00330152
0.00115597
-0.00328813
0.00116938
-0.00327133
0.00118033
-0.0032535
0.00118963
-0.00323606
0.00119785
-0.00321984
0.00120531
-0.00320535
-0.003193
0.00121223
3.68421e-05
-0.000283154
0.000129072
-0.000878294
0.000257174
-0.00146539
0.000400505
-0.00199748
0.000540963
-0.00244031
0.000665984
-0.00277982
0.000769269
-0.00302008
0.000849684
-0.00317639
0.00090942
-0.00326823
0.000952244
-0.00331444
0.000982212
-0.00333061
0.00100293
-0.0033284
0.00101726
-0.00331585
0.00102728
-0.00329815
0.00103444
-0.0032785
0.00103971
-0.00325877
0.00104371
-0.00324006
0.00104685
-0.00322299
0.00104942
-0.00320791
-0.00319512
0.00105153
3.80402e-05
-0.000321194
0.000130522
-0.000970776
0.000255286
-0.00159015
0.000390497
-0.0021327
0.000518522
-0.00256833
0.000628352
-0.00288965
0.00071551
-0.00310724
0.000780368
-0.00324125
0.000826057
-0.00331392
0.000856725
-0.00334511
0.000876403
-0.00335029
0.000888438
-0.00334043
0.00089534
-0.00332275
0.000898856
-0.00330167
0.000900146
-0.00327979
0.000899964
-0.00325858
0.000898796
-0.00323889
0.000896961
-0.00322115
0.000894654
-0.0032056
-0.00319244
0.000891976
3.88077e-05
-0.000360002
0.000130361
-0.00106233
0.000250186
-0.00170998
0.00037579
-0.0022583
0.000490459
-0.002683
0.000584925
-0.00298411
0.000656463
-0.00317878
0.000706726
-0.00329151
0.000739527
-0.00334672
0.000759187
-0.00336477
0.000769575
-0.00336067
0.000773719
-0.00334458
0.000773774
-0.00332281
0.00077118
-0.00329907
0.000766854
-0.00327546
0.000761378
-0.00325311
0.000755127
-0.00323264
0.000748346
-0.00321437
0.000741185
-0.00319844
-0.00318497
0.000733717
3.91151e-05
-0.000399117
0.000128573
-0.00115179
0.000242013
-0.00182342
0.000356809
-0.00237309
0.000457536
-0.00278373
0.000536749
-0.00306333
0.000593335
-0.00323537
0.000629991
-0.00332817
0.000650977
-0.00336771
0.000660617
-0.00337441
0.000662528
-0.00336259
0.000659391
-0.00334144
0.000653028
-0.00331644
0.0006446
-0.00329065
0.000634826
-0.00326569
0.00062415
-0.00324243
0.000612861
-0.00322135
0.000601151
-0.00320266
0.000589136
-0.00318643
-0.00317271
0.000576875
3.89452e-05
-0.000438062
0.00012519
-0.00123803
0.000230973
-0.0019292
0.000334039
-0.00247616
0.000420525
-0.00287022
0.000484807
-0.00312761
0.000527198
-0.00327776
0.000551203
-0.00335217
0.000561332
-0.00337784
0.000561784
-0.00337486
0.000555867
-0.00335667
0.000545914
-0.00333149
0.000533439
-0.00330397
0.00051937
-0.00327658
0.000504257
-0.00325057
0.000488437
-0.00322661
0.000472133
-0.00320504
0.000455497
-0.00318603
0.000438627
-0.00316956
-0.00315565
0.000421569
3.82923e-05
-0.000476354
0.000120278
-0.00132002
0.000217324
-0.00202625
0.000307997
-0.00256683
0.000380179
-0.0029424
0.000429994
-0.00317742
0.00045898
-0.00330674
0.00047123
-0.00336442
0.000471339
-0.00337795
0.000463287
-0.00336681
0.000450049
-0.00334343
0.000433625
-0.00331506
0.000415259
-0.0032856
0.000395676
-0.00325699
0.000375294
-0.00323019
0.000354363
-0.00320568
0.000333055
-0.00318374
0.000311494
-0.00316447
0.000289764
-0.00314783
-0.0031338
0.000267909
3.71619e-05
-0.000513516
0.000113934
-0.00139679
0.000201355
-0.00211367
0.000279202
-0.00264468
0.000337204
-0.0030004
0.00037311
-0.00321333
0.000389474
-0.00332311
0.000390784
-0.00336573
0.000381586
-0.00336875
0.000365586
-0.00335081
0.000345418
-0.00332326
0.000322778
-0.00329242
0.000298672
-0.00326149
0.000273661
-0.00323198
0.000248053
-0.00320458
0.00022203
-0.00317966
0.000195723
-0.00315743
0.000169234
-0.00313798
0.000142642
-0.00312124
-0.00310715
0.000115992
3.55695e-05
-0.000549086
0.000106279
-0.0014675
0.000183376
-0.00219076
0.000248165
-0.00270947
0.000292249
-0.00304448
0.000314853
-0.00323593
0.000319346
-0.0033276
0.000310441
-0.00335683
0.000292539
-0.00335085
0.000269034
-0.0033273
0.000242233
-0.00329646
0.000213558
-0.00326375
0.000183816
-0.00323175
0.000153433
-0.0032016
0.000122627
-0.00317378
9.15235e-05
-0.00314856
6.0219e-05
-0.00312612
2.88007e-05
-0.00310656
-2.65286e-06
-0.00308978
-0.00307571
-3.40911e-05
3.35391e-05
-0.000582625
9.74515e-05
-0.00153141
0.000163702
-0.00225701
0.000215365
-0.00276113
0.000245897
-0.00307502
0.000255829
-0.00324587
0.000249152
-0.00332092
0.000230669
-0.00333834
0.000204564
-0.00332474
0.000173905
-0.00329664
0.000140692
-0.00326325
0.00010611
-0.00322917
7.0798e-05
-0.00319644
3.50749e-05
-0.00316588
-9.13043e-07
-0.00313779
-3.70894e-05
-0.00311238
-7.33891e-05
-0.00308982
-0.000109737
-0.00307021
-0.000146049
-0.00305347
-0.00303949
-0.000182264
3.11021e-05
-0.000613727
8.75988e-05
-0.00158791
0.000142641
-0.00231206
0.000181252
-0.00279974
0.000198669
-0.00309243
0.000196555
-0.00324375
0.000179355
-0.00330372
0.000151848
-0.00331084
0.000117953
-0.00329085
8.04142e-05
-0.0032591
4.09514e-05
-0.00322379
5.43946e-07
-0.00318876
-4.02998e-05
-0.0031556
-8.13476e-05
-0.00312483
-0.000122511
-0.00309663
-0.000163758
-0.00307113
-0.000205052
-0.00304853
-0.000246329
-0.00302893
-0.000287496
-0.0030123
-0.00299852
-0.000328473
2.82957e-05
-0.000642023
7.68752e-05
-0.00163649
0.000120493
-0.00235568
0.000146236
-0.00282549
0.000151021
-0.00309722
0.000137472
-0.0032302
0.000110338
-0.00327659
7.42875e-05
-0.00327479
3.29431e-05
-0.0032495
-1.12624e-05
-0.0032149
-5.68616e-05
-0.00317819
-0.000103045
-0.00314258
-0.000149409
-0.00310923
-0.000195785
-0.00307845
-0.00024213
-0.00305028
-0.000288452
-0.00302481
-0.000334746
-0.00300223
-0.000380961
-0.00298272
-0.000426986
-0.00296628
-0.00295278
-0.000472717
2.51613e-05
-0.000667184
6.54356e-05
-0.00167676
9.75422e-05
-0.00238778
0.00011069
-0.00283863
0.000103355
-0.00308988
7.89577e-05
-0.0032058
4.24258e-05
-0.00324006
-1.7528e-06
-0.00323061
-5.02637e-05
-0.00320099
-0.000100971
-0.00316419
-0.000152629
-0.00312653
-0.00020457
-0.00309063
-0.000256467
-0.00305734
-0.000308195
-0.00302672
-0.000359746
-0.00299873
-0.000411163
-0.0029734
-0.000462479
-0.00295092
-0.000513659
-0.00293154
-0.000564576
-0.00291536
-0.00290228
-0.000615084
2.17439e-05
-0.000688928
5.34334e-05
-0.00170845
7.40531e-05
-0.0024084
7.4948e-05
-0.00283953
5.60228e-05
-0.00307096
2.13383e-05
-0.00317112
-2.41049e-05
-0.00319462
-7.60468e-05
-0.00317866
-0.000131486
-0.00314555
-0.000188564
-0.00310711
-0.000246232
-0.00306886
-0.000303935
-0.00303293
-0.000361403
-0.00299987
-0.000418533
-0.00296959
-0.000475338
-0.00294193
-0.000531893
-0.00291684
-0.000588276
-0.00289454
-0.000644481
-0.00287533
-0.000700365
-0.00285948
-0.00284692
-0.000755721
1.80904e-05
-0.000707018
4.10179e-05
-0.00173138
5.02726e-05
-0.00241766
3.93129e-05
-0.00282857
9.33247e-06
-0.00304098
-3.51032e-05
-0.00312668
-8.90098e-05
-0.00314071
-0.000148389
-0.00311929
-0.000210549
-0.00308339
-0.000273889
-0.00304377
-0.000337533
-0.00300522
-0.000401023
-0.00296944
-0.000464123
-0.00293677
-0.000526738
-0.00290698
-0.000588879
-0.00287979
-0.000650643
-0.00285508
-0.000712159
-0.00283302
-0.000773469
-0.00281402
-0.000834427
-0.00279852
-0.00278663
-0.000894721
1.4249e-05
-0.000721267
2.8332e-05
-0.00174546
2.64276e-05
-0.00241575
4.05467e-06
-0.0028062
-3.64424e-05
-0.00300048
-9.01156e-05
-0.00307301
-0.000152067
-0.00307876
-0.000218582
-0.00305277
-0.00028727
-0.0030147
-0.00035677
-0.00297427
-0.000426362
-0.00293562
-0.000495673
-0.00290013
-0.000564493
-0.00286795
-0.000632714
-0.00283876
-0.000700322
-0.00281218
-0.000767412
-0.00278799
-0.000834156
-0.00276628
-0.000900664
-0.00274752
-0.000966797
-0.00273239
-0.00272133
-0.0010321
1.02681e-05
-0.000731535
1.55116e-05
-0.00175071
2.72595e-06
-0.00240297
-3.05851e-05
-0.00277289
-8.10598e-05
-0.00295001
-0.000143474
-0.0030106
-0.000213071
-0.00300916
-0.00028643
-0.00297941
-0.000361452
-0.00293968
-0.000436998
-0.00289873
-0.000512497
-0.00286012
-0.000587657
-0.00282497
-0.000662298
-0.00279331
-0.000736291
-0.00276477
-0.000809574
-0.0027389
-0.000882199
-0.00271536
-0.000954352
-0.00269412
-0.00102622
-0.00267564
-0.00109771
-0.00266091
-0.0026508
-0.00116823
6.19543e-06
-0.000737731
2.68395e-06
-0.00174719
-2.06443e-05
-0.00237964
-6.43917e-05
-0.00272914
-0.000124305
-0.00289009
-0.000194974
-0.00293993
-0.000271825
-0.00293231
-0.000351734
-0.0028995
-0.000432877
-0.00285854
-0.000514326
-0.00281728
-0.000595654
-0.0027788
-0.000676659
-0.00274397
-0.000757207
-0.00271276
-0.000837165
-0.00268481
-0.000916416
-0.00265964
-0.000994938
-0.00263684
-0.0010729
-0.00261617
-0.00115058
-0.00259796
-0.00122796
-0.00258352
-0.0025741
-0.00130467
2.07729e-06
-0.000739808
-1.0034e-05
-0.00173508
-4.3515e-05
-0.00234616
-9.71765e-05
-0.00267548
-0.00016599
-0.00282128
-0.000244434
-0.00286148
-0.000328144
-0.0028486
-0.000414289
-0.00281336
-0.000501308
-0.00277152
-0.000588469
-0.00273012
-0.000675486
-0.00269178
-0.000762269
-0.00265718
-0.000848762
-0.00262627
-0.000934874
-0.0025987
-0.00102047
-0.00257405
-0.00110544
-0.00255186
-0.00118992
-0.00253169
-0.00127432
-0.00251355
-0.00135886
-0.00249898
-0.00248884
-0.00144412
-2.04278e-06
-0.000737765
-2.25367e-05
-0.00171459
-6.57395e-05
-0.00230295
-0.000128778
-0.00261244
-0.000205953
-0.00274411
-0.000291692
-0.00277574
-0.000381855
-0.00275844
-0.000473893
-0.00272132
-0.000566487
-0.00267893
-0.000659085
-0.00263752
-0.000751549
-0.00259931
-0.000843919
-0.00256481
-0.000936279
-0.0025339
-0.00102867
-0.0025063
-0.00112105
-0.00248168
-0.00121331
-0.0024596
-0.00130549
-0.00243951
-0.00139799
-0.00242106
-0.0014914
-0.00240558
-0.00239182
-0.00158842
-6.12488e-06
-0.00073164
-3.47318e-05
-0.00168598
-8.71943e-05
-0.00225049
-0.000159065
-0.00254057
-0.000244066
-0.0026591
-0.00033662
-0.00268319
-0.000432814
-0.00266224
-0.000530362
-0.00262377
-0.000628153
-0.00258114
-0.000725794
-0.00253988
-0.000823269
-0.00250184
-0.000920753
-0.00246733
-0.00101851
-0.00243614
-0.00111685
-0.00240796
-0.00121605
-0.00238247
-0.00131633
-0.00235933
-0.0014178
-0.00233803
-0.00152108
-0.00231779
-0.00162852
-0.00229814
-0.00229079
-0.00172954
-1.01212e-05
-0.000721519
-4.65215e-05