/*--------------------------------*- C++ -*----------------------------------*\
  =========                 |
  \\      /  F ield         | OpenFOAM: The Open Source CFD Toolbox
   \\    /   O peration     | Website:  https://openfoam.org
    \\  /    A nd           | Version:  6.0
     \\/     M anipulation  |
\*---------------------------------------------------------------------------*/
FoamFile
{
    version     2.0;
    format      ascii;
    class       volScalarField;
    location    "32";
    object      p;
}
// * * * * * * * * * * * * * * * * * * * * * * * * * * * * * * * * * * * * * //

dimensions      [0 2 -2 0 0 0 0];

internalField   nonuniform List<scalar> 
12500
(
-0.247418
-0.248185
-0.248715
-0.249119
-0.249463
-0.249756
-0.250007
-0.250224
-0.250415
-0.250586
-0.250739
-0.25088
-0.25101
-0.251132
-0.251249
-0.251363
-0.251476
-0.251591
-0.251709
-0.251834
-0.25197
-0.252118
-0.252246
-0.252336
-0.252724
-0.247493
-0.248261
-0.248791
-0.249194
-0.249537
-0.249829
-0.250077
-0.250292
-0.250481
-0.250649
-0.2508
-0.250938
-0.251065
-0.251184
-0.251298
-0.251409
-0.251519
-0.25163
-0.251746
-0.251868
-0.252001
-0.252147
-0.252273
-0.252361
-0.252748
-0.247635
-0.248403
-0.248932
-0.249332
-0.249672
-0.249959
-0.250203
-0.250413
-0.250596
-0.250758
-0.250903
-0.251034
-0.251154
-0.251266
-0.251373
-0.251477
-0.25158
-0.251684
-0.251793
-0.251908
-0.252035
-0.252176
-0.252297
-0.252378
-0.252764
-0.247843
-0.248611
-0.249137
-0.249533
-0.249868
-0.250148
-0.250384
-0.250586
-0.25076
-0.250912
-0.251047
-0.251167
-0.251277
-0.251378
-0.251473
-0.251565
-0.251656
-0.251749
-0.251847
-0.251951
-0.252068
-0.2522
-0.252313
-0.252385
-0.252768
-0.248119
-0.248886
-0.249408
-0.249798
-0.250125
-0.250396
-0.250621
-0.250811
-0.250972
-0.251111
-0.251232
-0.251338
-0.251432
-0.251517
-0.251596
-0.251672
-0.251747
-0.251823
-0.251905
-0.251994
-0.252097
-0.252216
-0.252317
-0.252376
-0.252755
-0.248464
-0.249228
-0.249745
-0.250128
-0.250444
-0.250703
-0.250914
-0.251088
-0.251233
-0.251355
-0.251457
-0.251544
-0.251618
-0.251683
-0.25174
-0.251794
-0.251847
-0.251902
-0.251962
-0.25203
-0.252115
-0.252217
-0.252302
-0.252344
-0.252717
-0.248879
-0.24964
-0.25015
-0.250522
-0.250826
-0.251069
-0.251263
-0.251419
-0.251543
-0.251643
-0.251722
-0.251785
-0.251834
-0.251873
-0.251904
-0.25193
-0.251955
-0.251982
-0.252014
-0.252056
-0.252115
-0.252195
-0.25226
-0.25228
-0.252646
-0.249365
-0.250122
-0.250624
-0.250984
-0.251272
-0.251497
-0.25167
-0.251803
-0.251903
-0.251976
-0.252028
-0.252061
-0.25208
-0.252086
-0.252084
-0.252076
-0.252066
-0.252058
-0.252056
-0.252064
-0.252091
-0.252143
-0.252181
-0.252175
-0.252532
-0.249925
-0.250677
-0.251169
-0.251514
-0.251783
-0.251986
-0.252135
-0.252241
-0.252312
-0.252355
-0.252374
-0.252373
-0.252355
-0.252323
-0.252281
-0.252232
-0.252179
-0.252128
-0.252082
-0.252048
-0.252036
-0.252051
-0.252057
-0.252017
-0.252363
-0.250563
-0.251307
-0.251786
-0.252114
-0.252361
-0.252539
-0.252659
-0.252734
-0.252772
-0.25278
-0.252761
-0.252721
-0.252661
-0.252584
-0.252495
-0.252397
-0.252293
-0.252189
-0.252091
-0.252005
-0.251943
-0.251912
-0.251876
-0.251795
-0.252128
-0.25128
-0.252015
-0.252479
-0.252786
-0.253008
-0.253156
-0.253245
-0.253285
-0.253286
-0.253254
-0.253193
-0.253107
-0.252999
-0.252872
-0.252728
-0.252572
-0.252408
-0.252241
-0.252079
-0.25193
-0.251806
-0.251718
-0.251629
-0.251497
-0.251813
-0.252082
-0.252804
-0.25325
-0.253532
-0.253725
-0.253841
-0.253893
-0.253894
-0.253854
-0.253778
-0.253671
-0.253535
-0.253374
-0.253189
-0.252984
-0.252761
-0.252527
-0.252287
-0.252049
-0.251822
-0.251622
-0.251463
-0.251305
-0.25111
-0.251403
-0.252973
-0.253678
-0.254101
-0.254355
-0.254515
-0.254594
-0.254606
-0.254565
-0.25448
-0.254356
-0.254199
-0.254009
-0.253789
-0.253542
-0.253268
-0.252972
-0.252657
-0.252332
-0.252003
-0.251683
-0.251391
-0.251141
-0.250898
-0.250621
-0.250883
-0.253958
-0.254641
-0.255037
-0.255258
-0.25538
-0.255417
-0.255386
-0.255299
-0.255165
-0.254991
-0.25478
-0.254533
-0.254252
-0.253936
-0.253589
-0.253211
-0.252807
-0.252384
-0.251951
-0.25152
-0.251114
-0.250753
-0.250399
-0.250017
-0.250236
-0.255041
-0.255696
-0.256059
-0.256243
-0.256322
-0.256314
-0.256234
-0.256097
-0.255912
-0.255685
-0.255418
-0.255111
-0.254766
-0.25438
-0.253954
-0.253489
-0.252988
-0.252456
-0.251903
-0.251343
-0.2508
-0.2503
-0.249805
-0.249284
-0.249442
-0.256229
-0.256848
-0.257172
-0.257312
-0.257343
-0.257284
-0.257152
-0.256961
-0.256722
-0.256439
-0.256114
-0.255747
-0.255336
-0.254879
-0.254373
-0.253817
-0.253212
-0.252562
-0.251876
-0.251166
-0.250461
-0.249789
-0.249115
-0.248411
-0.248476
-0.257525
-0.2581
-0.258378
-0.258468
-0.258444
-0.258329
-0.258139
-0.257891
-0.257594
-0.257254
-0.25687
-0.256442
-0.255966
-0.255437
-0.25485
-0.254202
-0.25349
-0.252716
-0.251884
-0.251007
-0.250113
-0.249233
-0.248332
-0.247386
-0.247313
-0.258936
-0.259458
-0.259682
-0.259714
-0.259628
-0.259449
-0.259196
-0.258885
-0.258527
-0.258126
-0.257682
-0.257193
-0.256652
-0.256054
-0.255389
-0.25465
-0.253832
-0.252929
-0.251943
-0.250883
-0.249773
-0.248647
-0.247464
-0.246199
-0.24592
-0.260466
-0.260926
-0.261087
-0.261052
-0.260896
-0.260645
-0.260322
-0.259942
-0.259518
-0.259052
-0.258546
-0.257995
-0.257391
-0.256724
-0.255984
-0.255159
-0.254237
-0.253207
-0.252065
-0.25081
-0.249462
-0.248052
-0.246525
-0.244847
-0.244265
-0.262123
-0.262509
-0.262597
-0.262486
-0.26225
-0.261918
-0.261515
-0.261059
-0.260561
-0.260026
-0.259454
-0.258838
-0.25817
-0.257438
-0.256626
-0.255719
-0.254699
-0.253549
-0.252252
-0.250799
-0.249199
-0.247471
-0.245539
-0.243333
-0.242312
-0.263911
-0.264213
-0.264218
-0.264019
-0.263692
-0.263268
-0.262775
-0.262232
-0.261653
-0.261041
-0.260396
-0.259712
-0.258979
-0.258181
-0.257301
-0.256318
-0.255208
-0.253947
-0.252507
-0.250864
-0.249008
-0.246944
-0.244556
-0.241704
-0.240065
-0.26584
-0.266046
-0.265956
-0.265658
-0.265226
-0.264697
-0.264102
-0.263461
-0.262789
-0.26209
-0.261365
-0.260607
-0.259803
-0.258938
-0.257992
-0.256941
-0.255755
-0.254401
-0.25284
-0.251032
-0.248946
-0.246559
-0.24371
-0.240124
-0.237644
-0.267919
-0.268018
-0.26782
-0.267408
-0.266858
-0.26621
-0.265498
-0.264746
-0.263968
-0.263172
-0.262356
-0.261514
-0.260635
-0.259702
-0.258694
-0.257584
-0.25634
-0.254923
-0.253283
-0.251362
-0.249099
-0.246441
-0.243161
-0.238749
-0.23504
-0.270161
-0.27014
-0.26982
-0.269281
-0.268597
-0.267814
-0.26697
-0.266092
-0.265195
-0.264287
-0.26337
-0.262437
-0.261478
-0.260477
-0.259414
-0.258265
-0.256999
-0.255575
-0.253939
-0.252014
-0.249702
-0.246878
-0.243146
-0.237537
-0.231732
-0.272582
-0.272427
-0.27197
-0.271288
-0.270454
-0.26952
-0.268529
-0.267508
-0.266478
-0.265447
-0.264417
-0.263386
-0.262343
-0.261279
-0.260178
-0.259025
-0.257802
-0.256488
-0.255053
-0.253452
-0.251618
-0.249413
-0.246273
-0.240809
-0.234279
-0.275201
-0.274896
-0.274287
-0.273444
-0.272443
-0.271342
-0.270187
-0.269011
-0.267834
-0.266668
-0.265517
-0.264381
-0.263255
-0.262133
-0.261014
-0.259895
-0.258786
-0.257708
-0.256705
-0.255866
-0.255359
-0.255456
-0.256568
-0.260427
-0.273462
-0.27804
-0.277568
-0.276789
-0.275769
-0.274584
-0.2733
-0.271967
-0.270621
-0.269286
-0.267976
-0.266697
-0.265452
-0.264242
-0.26307
-0.261942
-0.260876
-0.259902
-0.259077
-0.258493
-0.258303
-0.258756
-0.260222
-0.263212
-0.269175
-0.282807
-0.281127
-0.280467
-0.279498
-0.278284
-0.276898
-0.275416
-0.273892
-0.272365
-0.270862
-0.2694
-0.267988
-0.266633
-0.265341
-0.264122
-0.262992
-0.261982
-0.26114
-0.260542
-0.260303
-0.260591
-0.261649
-0.263808
-0.267447
-0.27335
-0.284692
-0.284489
-0.283617
-0.28244
-0.281013
-0.279411
-0.277716
-0.275989
-0.274272
-0.272595
-0.270977
-0.269429
-0.267963
-0.266589
-0.265322
-0.264186
-0.263221
-0.262482
-0.262052
-0.262044
-0.26261
-0.263948
-0.266297
-0.269887
-0.275063
-0.283976
-0.288158
-0.287047
-0.285639
-0.283982
-0.282148
-0.280229
-0.278289
-0.276376
-0.274519
-0.272741
-0.271055
-0.269476
-0.268016
-0.266693
-0.265537
-0.264587
-0.2639
-0.26355
-0.263634
-0.264271
-0.265595
-0.267753
-0.270851
-0.274969
-0.281514
-0.292164
-0.290783
-0.289123
-0.287219
-0.28514
-0.282984
-0.280825
-0.278708
-0.276668
-0.274726
-0.272899
-0.271201
-0.269644
-0.26825
-0.267044
-0.266064
-0.265358
-0.264987
-0.265023
-0.265543
-0.266627
-0.268345
-0.270721
-0.273701
-0.278147
-0.296537
-0.294854
-0.292919
-0.29075
-0.288413
-0.286013
-0.283626
-0.281301
-0.279073
-0.276964
-0.274988
-0.273158
-0.271488
-0.269993
-0.268696
-0.267627
-0.266822
-0.266325
-0.26618
-0.266431
-0.267113
-0.268245
-0.269806
-0.271681
-0.274361
-0.301306
-0.299286
-0.297052
-0.294604
-0.291996
-0.289342
-0.286722
-0.284185
-0.281763
-0.279477
-0.277339
-0.27536
-0.273547
-0.271912
-0.270471
-0.269243
-0.268254
-0.267527
-0.267088
-0.266953
-0.267129
-0.267604
-0.26834
-0.269208
-0.270465
-0.306497
-0.304103
-0.301547
-0.298804
-0.295915
-0.293001
-0.290141
-0.287384
-0.28476
-0.282283
-0.279964
-0.277804
-0.275809
-0.273983
-0.272334
-0.270873
-0.269612
-0.268562
-0.267734
-0.267129
-0.266737
-0.266536
-0.266486
-0.266463
-0.266601
-0.312131
-0.309325
-0.306425
-0.303374
-0.300194
-0.297011
-0.293905
-0.290919
-0.288077
-0.285389
-0.282858
-0.28048
-0.278252
-0.276173
-0.274244
-0.272469
-0.270852
-0.269398
-0.268106
-0.266973
-0.265984
-0.265117
-0.264339
-0.263543
-0.262807
-0.318222
-0.314968
-0.311704
-0.308332
-0.304853
-0.301394
-0.298031
-0.294802
-0.291721
-0.288792
-0.286007
-0.283359
-0.280836
-0.278435
-0.276149
-0.273981
-0.271931
-0.270001
-0.268189
-0.266492
-0.264898
-0.26339
-0.261947
-0.260478
-0.259049
-0.32478
-0.321043
-0.317396
-0.313693
-0.309906
-0.306161
-0.302529
-0.299035
-0.295685
-0.292473
-0.289383
-0.286401
-0.283513
-0.280711
-0.277991
-0.275353
-0.272801
-0.270338
-0.267966
-0.265685
-0.263491
-0.261374
-0.259323
-0.257263
-0.255264
-0.331805
-0.327553
-0.323507
-0.319465
-0.315362
-0.311319
-0.307398
-0.30361
-0.29995
-0.296401
-0.292942
-0.289553
-0.286221
-0.282938
-0.279706
-0.276529
-0.273416
-0.270376
-0.267418
-0.264548
-0.261766
-0.259073
-0.256462
-0.253874
-0.251385
-0.339289
-0.334493
-0.330037
-0.325648
-0.321219
-0.316863
-0.312625
-0.308505
-0.304482
-0.300531
-0.296626
-0.292749
-0.288889
-0.285046
-0.28123
-0.277453
-0.273733
-0.270087
-0.266529
-0.263071
-0.25972
-0.256481
-0.253351
-0.250281
-0.247352
-0.347212
-0.341851
-0.336974
-0.332233
-0.327467
-0.322775
-0.318186
-0.313681
-0.309229
-0.304799
-0.300364
-0.295911
-0.29144
-0.286962
-0.282498
-0.278073
-0.273712
-0.269442
-0.265281
-0.261247
-0.257348
-0.253591
-0.249977
-0.246459
-0.243124
-0.355544
-0.3496
-0.344299
-0.3392
-0.334081
-0.329024
-0.324037
-0.319085
-0.314126
-0.309128
-0.304071
-0.298955
-0.293793
-0.288613
-0.283449
-0.278339
-0.273318
-0.268418
-0.263661
-0.259066
-0.254642
-0.250397
-0.246327
-0.242389
-0.238671
-0.36424
-0.357704
-0.351976
-0.346514
-0.341023
-0.335562
-0.330119
-0.324643
-0.319089
-0.313428
-0.307656
-0.301791
-0.295866
-0.289927
-0.284025
-0.278209
-0.27252
-0.266993
-0.261654
-0.256519
-0.251596
-0.246888
-0.24239
-0.238057
-0.233976
-0.373243
-0.366112
-0.35996
-0.354126
-0.348237
-0.342324
-0.336355
-0.330268
-0.32402
-0.317598
-0.31102
-0.304327
-0.297579
-0.290839
-0.284174
-0.277641
-0.271288
-0.265149
-0.259247
-0.253596
-0.2482
-0.243057
-0.238158
-0.233451
-0.229028
-0.382479
-0.374759
-0.368187
-0.361971
-0.35565
-0.349225
-0.342648
-0.335852
-0.328809
-0.321529
-0.31406
-0.306473
-0.298853
-0.291285
-0.283847
-0.276601
-0.269596
-0.262865
-0.256426
-0.250287
-0.244445
-0.238894
-0.233619
-0.228561
-0.223819
-0.391858
-0.383562
-0.376577
-0.369965
-0.36317
-0.356163
-0.348885
-0.341279
-0.333337
-0.325106
-0.316672
-0.308139
-0.299617
-0.291208
-0.282999
-0.275054
-0.26742
-0.260123
-0.253175
-0.246576
-0.240318
-0.234388
-0.228762
-0.223378
-0.218341
-0.401274
-0.392425
-0.385035
-0.378007
-0.370685
-0.363017
-0.35494
-0.346416
-0.337477
-0.328215
-0.318756
-0.30924
-0.2998
-0.290553
-0.281588
-0.272968
-0.264733
-0.256901
-0.249476
-0.24245
-0.235805
-0.229523
-0.223575
-0.217887
-0.212584
-0.410605
-0.401232
-0.393446
-0.385977
-0.378069
-0.36965
-0.36067
-0.351127
-0.341102
-0.33074
-0.320214
-0.309696
-0.29934
-0.289271
-0.279575
-0.270312
-0.26151
-0.253178
-0.24531
-0.237887
-0.230887
-0.224284
-0.218041
-0.212076
-0.206534
-0.419714
-0.409855
-0.40168
-0.393738
-0.385176
-0.375913
-0.365928
-0.355269
-0.344082
-0.33257
-0.320953
-0.309433
-0.298177
-0.287313
-0.276923
-0.267054
-0.257724
-0.248929
-0.240654
-0.232869
-0.225546
-0.218652
-0.212143
-0.205927
-0.200178
-0.428448
-0.418147
-0.40959
-0.401138
-0.391848
-0.381645
-0.370557
-0.3587
-0.346292
-0.3336
-0.320887
-0.30838
-0.296256
-0.284636
-0.273594
-0.263162
-0.253346
-0.244129
-0.235484
-0.227373
-0.219759
-0.212606
-0.205861
-0.199423
-0.193498
-0.436644
-0.425951
-0.417017
-0.408012
-0.397916
-0.386682
-0.374402
-0.361278
-0.347611
-0.333729
-0.319936
-0.306475
-0.293525
-0.281198
-0.269552
-0.258606
-0.248348
-0.238751
-0.229775
-0.221375
-0.213506
-0.206126
-0.199175
-0.192543
-0.186475
-0.444129
-0.433098
-0.42379
-0.414185
-0.403206
-0.390852
-0.377307
-0.362869
-0.347926
-0.332866
-0.318026
-0.303659
-0.289936
-0.276957
-0.264762
-0.253353
-0.242702
-0.232769
-0.223503
-0.214852
-0.206763
-0.199191
-0.192066
-0.18527
-0.179092
-0.450719
-0.43941
-0.429729
-0.419474
-0.407537
-0.39399
-0.379122
-0.363346
-0.347133
-0.330928
-0.31509
-0.299876
-0.285445
-0.271876
-0.259191
-0.247373
-0.236379
-0.226156
-0.216643
-0.207779
-0.199508
-0.191778
-0.184512
-0.177584
-0.17133
-0.456229
-0.444703
-0.434648
-0.423695
-0.410733
-0.395931
-0.379707
-0.36259
-0.345136
-0.327838
-0.311069
-0.295079
-0.280009
-0.265918
-0.252806
-0.240636
-0.229352
-0.218886
-0.20917
-0.200135
-0.19172
-0.18387
-0.176496
-0.169467
-0.163172
-0.460473
-0.448792
-0.438362
-0.426665
-0.412621
-0.396523
-0.378931
-0.360496
-0.341852
-0.32353
-0.305908
-0.289222
-0.273592
-0.259051
-0.245577
-0.233115
-0.221594
-0.210936
-0.201063
-0.1919
-0.183381
-0.175447
-0.168001
-0.160904
-0.154603
-0.463266
-0.451495
-0.440687
-0.428207
-0.413038
-0.395622
-0.376676
-0.356968
-0.337207
-0.317946
-0.299561
-0.282269
-0.26616
-0.251244
-0.237477
-0.224785
-0.213083
-0.202284
-0.192302
-0.183055
-0.174473
-0.166494
-0.159011
-0.151882
-0.14561
-0.464432
-0.452633
-0.441448
-0.428151
-0.411831
-0.3931
-0.372838
-0.351927
-0.331137
-0.311037
-0.291989
-0.274184
-0.257684
-0.242472
-0.228481
-0.215623
-0.203799
-0.192912
-0.182869
-0.173584
-0.164983
-0.156999
-0.149517
-0.14239
-0.136184
-0.463801
-0.452037
-0.440476
-0.426341
-0.408863
-0.388844
-0.367328
-0.345305
-0.323592
-0.302763
-0.283159
-0.26494
-0.248139
-0.232711
-0.21857
-0.205611
-0.193725
-0.182805
-0.172753
-0.163476
-0.1549
-0.146953
-0.139509
-0.132421
-0.126317
-0.461218
-0.449551
-0.437621
-0.422639
-0.404017
-0.38276
-0.360074
-0.337048
-0.314532
-0.293093
-0.273046
-0.254516
-0.237505
-0.221945
-0.207728
-0.194736
-0.182848
-0.171952
-0.161942
-0.152723
-0.144217
-0.136349
-0.128984
-0.121973
-0.116007
-0.456544
-0.445033
-0.432744
-0.416922
-0.397191
-0.37477
-0.351021
-0.327117
-0.303928
-0.282006
-0.261631
-0.242896
-0.22577
-0.210161
-0.195944
-0.182987
-0.17116
-0.160346
-0.150432
-0.141321
-0.132931
-0.125187
-0.117941
-0.111046
-0.105255
-0.449658
-0.43836
-0.425731
-0.40909
-0.388307
-0.364817
-0.340129
-0.315484
-0.291762
-0.269487
-0.248906
-0.230071
-0.212926
-0.197352
-0.183211
-0.170358
-0.158658
-0.147983
-0.138221
-0.129269
-0.121045
-0.113469
-0.106384
-0.0996455
-0.0940658
-0.44046
-0.429432
-0.416487
-0.399064
-0.377307
-0.352863
-0.327376
-0.30214
-0.278028
-0.255535
-0.234866
-0.21604
-0.19897
-0.183518
-0.169529
-0.156851
-0.14534
-0.134866
-0.125311
-0.116571
-0.108562
-0.101201
-0.0943209
-0.0877809
-0.0824498
-0.428875
-0.41817
-0.404941
-0.386791
-0.364155
-0.33889
-0.312757
-0.287084
-0.262732
-0.240156
-0.21952
-0.200808
-0.183907
-0.168661
-0.154902
-0.14247
-0.131214
-0.121001
-0.11171
-0.103236
-0.0954925
-0.0883938
-0.0817647
-0.0754662
-0.0704211
-0.414849
-0.404518
-0.391046
-0.37224
-0.348839
-0.3229
-0.29628
-0.270332
-0.245889
-0.223364
-0.20288
-0.184388
-0.167749
-0.152793
-0.13934
-0.127223
-0.116288
-0.106397
-0.0974282
-0.0892743
-0.0818489
-0.0750625
-0.0687315
-0.0627198
-0.0579981
-0.398355
-0.388449
-0.374782
-0.355403
-0.331367
-0.304911
-0.277974
-0.251913
-0.227527
-0.205186
-0.18497
-0.166799
-0.150514
-0.135928
-0.122857
-0.111124
-0.100574
-0.0910675
-0.0824793
-0.0747015
-0.0676473
-0.0612244
-0.0552412
-0.0495641
-0.0452032
-0.379392
-0.369959
-0.356153
-0.336301
-0.31177
-0.284963
-0.25788
-0.231867
-0.207685
-0.185655
-0.165819
-0.148068
-0.132224
-0.118089
-0.105471
-0.0941912
-0.0840908
-0.0750286
-0.0668793
-0.0595342
-0.0529061
-0.0469001
-0.0413173
-0.0360252
-0.0320629
-0.357985
-0.349071
-0.33519
-0.314973
-0.290099
-0.263112
-0.236053
-0.210249
-0.186413
-0.164817
-0.145468
-0.12823
-0.112911
-0.0993022
-0.087207
-0.0764449
-0.0668557
-0.0582979
-0.0506458
-0.0437905
-0.0376449
-0.0321119
-0.0269862
-0.0221337
-0.0186104
-0.334185
-0.325833
-0.311949
-0.291486
-0.266425
-0.239432
-0.212567
-0.187125
-0.163769
-0.142725
-0.123964
-0.107328
-0.0926105
-0.0795987
-0.0680917
-0.0579088
-0.0488898
-0.0408939
-0.0337959
-0.0274878
-0.0218826
-0.0168815
-0.0122747
-0.00792416
-0.00488756
-0.308068
-0.30032
-0.286507
-0.265924
-0.240838
-0.214011
-0.187505
-0.162574
-0.139827
-0.119444
-0.101364
-0.0854103
-0.0713668
-0.0590161
-0.0481567
-0.0386088
-0.0302142
-0.022834
-0.0163448
-0.0106402
-0.00563402
-0.0012271
0.00279217
0.0065674
0.00906046
-0.279732
-0.272628
-0.258967
-0.238394
-0.213446
-0.186954
-0.160967
-0.136687
-0.114668
-0.095047
-0.0777339
-0.0625362
-0.0492304
-0.0375974
-0.0274371
-0.0185727
-0.0108497
-0.00413279
0.00169763
0.00674513
0.0110939
0.0148416
0.0181961
0.0213102
0.0232051
-0.249301
-0.242878
-0.229451
-0.209023
-0.184374
-0.158382
-0.133065
-0.109566
-0.0883862
-0.0696193
-0.0531501
-0.038773
-0.0262599
-0.015392
-0.00597273
0.00216982
0.0091844
0.0152003
0.020331
0.0246748
0.0283117
0.0313336
0.0339385
0.0362993
0.0375562
-0.216917
-0.211211
-0.198103
-0.177953
-0.153761
-0.128427
-0.103921
-0.0813266
-0.0610861
-0.0432564
-0.0276991
-0.0141984
-0.00252345
0.00754197
0.0161895
0.0235843
0.0298674
0.0351594
0.0395648
0.0431724
0.0460545
0.0482919
0.0500658
0.0515769
0.0521286
-0.182744
-0.177785
-0.165081
-0.145343
-0.121761
-0.0972329
-0.0736715
-0.0520925
-0.0328835
-0.0160649
-0.00147877
0.0110989
0.0218995
0.0311358
0.038993
0.045628
0.0511722
0.0557348
0.0594065
0.0622619
0.0643613
0.0657708
0.0666338
0.0671384
0.066747
-0.14696
-0.142778
-0.130563
-0.111366
-0.0885388
-0.0649569
-0.0424619
-0.0219998
-0.00390438
0.0118376
0.0254015
0.0370176
0.0469171
0.0553084
0.0623701
0.0682501
0.073068
0.0769179
0.0798695
0.0819735
0.0832728
0.0838044
0.0835984
0.0826989
0.0808478
-0.109761
-0.106381
-0.094736
-0.0762039
-0.0542703
-0.0317637
-0.0104467
0.00880664
0.0257149
0.0403224
0.0528198
0.0634427
0.0724218
0.0799625
0.0862381
0.0913896
0.0955272
0.0987292
0.10104
0.102479
0.103061
0.102746
0.101269
0.0983344
0.0945257
-0.0713541
-0.0687978
-0.0578009
-0.040052
-0.0191393
0.00217356
0.0222117
0.0401742
0.0558295
0.0692507
0.080642
0.0902433
0.0982857
0.104973
0.110478
0.114941
0.118474
0.121154
0.123022
0.1241
0.124416
0.123839
0.121671
0.117227
0.11254
-0.031958
-0.0302423
-0.0199672
-0.00311128
0.0166636
0.0366762
0.0553457
0.0719443
0.0862883
0.0984766
0.108725
0.117276
0.124361
0.130185
0.13492
0.138712
0.141682
0.143927
0.145523
0.146563
0.147193
0.147372
0.146237
0.143275
0.14544
0.00820843
0.00906813
0.0185522
0.0344135
0.0529447
0.0715622
0.0887841
0.103955
0.116937
0.12785
0.13692
0.144392
0.150496
0.155433
0.159376
0.162474
0.164851
0.166612
0.167853
0.168694
0.169295
0.16964
0.169246
0.168527
0.17291
0.048913
0.0489059
0.0575365
0.072312
0.0895064
0.106647
0.122354
0.136044
0.147619
0.157222
0.165083
0.171447
0.176542
0.180566
0.183691
0.186064
0.18781
0.189039
0.189854
0.190376
0.190743
0.190934
0.190607
0.190241
0.194127
0.089922
0.0890416
0.0967639
0.110374
0.126151
0.141747
0.155885
0.16805
0.178184
0.186445
0.19307
0.1983
0.20236
0.205442
0.207714
0.209319
0.21038
0.211006
0.211296
0.211365
0.211336
0.211195
0.210651
0.210093
0.213049
0.131001
0.129245
0.136012
0.148388
0.162683
0.176679
0.189205
0.199813
0.208479
0.215378
0.220745
0.224821
0.227823
0.229938
0.231326
0.232125
0.232453
0.23241
0.232091
0.231598
0.231035
0.230378
0.22936
0.228346
0.230411
0.171915
0.169286
0.175059
0.186146
0.198908
0.211263
0.222149
0.231179
0.238362
0.243884
0.247981
0.250889
0.252816
0.253944
0.254424
0.254387
0.253943
0.253185
0.2522
0.251076
0.249903
0.248641
0.247047
0.245481
0.246682
0.212433
0.208938
0.213687
0.223444
0.234635
0.245325
0.254554
0.261997
0.267692
0.271833
0.274656
0.27639
0.277235
0.277364
0.276921
0.276028
0.274787
0.273285
0.271596
0.2698
0.267972
0.266062
0.263851
0.261706
0.262081
0.252327
0.247976
0.251683
0.26008
0.26968
0.278694
0.286264
0.292123
0.296335
0.299102
0.300656
0.301218
0.300983
0.300111
0.298741
0.296984
0.294935
0.292673
0.290264
0.287779
0.285279
0.282711
0.279879
0.277155
0.276737
0.291373
0.286183
0.288837
0.29586
0.303862
0.311204
0.317126
0.321416
0.324163
0.325571
0.325871
0.325275
0.323969
0.322105
0.319812
0.317194
0.314338
0.311315
0.308185
0.30501
0.30184
0.298621
0.295181
0.29189
0.290711
0.329356
0.323346
0.324946
0.330594
0.337008
0.342695
0.346994
0.349743
0.351051
0.351127
0.350197
0.348465
0.346107
0.343268
0.340067
0.336601
0.332949
0.329176
0.325334
0.32148
0.317654
0.313802
0.309777
0.305937
0.304027
0.366066
0.35926
0.359818
0.364103
0.368951
0.373016
0.375729
0.376976
0.376883
0.375663
0.373535
0.370698
0.367316
0.363526
0.35944
0.355148
0.35072
0.346216
0.341682
0.337167
0.332707
0.328248
0.323664
0.319298
0.316687
0.401303
0.39373
0.393264
0.396212
0.399532
0.40202
0.403196
0.40299
0.401544
0.399073
0.395791
0.391886
0.387516
0.38281
0.377869
0.372778
0.367602
0.362393
0.357192
0.352044
0.346976
0.34194
0.336826
0.331958
0.328675
0.434874
0.426569
0.425107
0.426757
0.428598
0.429567
0.429268
0.427669
0.424929
0.421261
0.416873
0.411948
0.406633
0.401048
0.395291
0.389437
0.383545
0.377662
0.371827
0.366075
0.360431
0.354849
0.349238
0.343892
0.339971
0.466599
0.457599
0.455179
0.455581
0.456008
0.455528
0.453825
0.450903
0.446934
0.44213
0.436696
0.430802
0.424591
0.418175
0.411644
0.405067
0.398498
0.391979
0.385543
0.379223
0.373037
0.366944
0.360868
0.355073
0.350546
0.496308
0.486654
0.483324
0.482539
0.481626
0.479779
0.476754
0.472588
0.467464
0.461594
0.455176
0.448374
0.441323
0.434127
0.426869
0.419614
0.412411
0.405296
0.3983
0.391448
0.384757
0.378189
0.371683
0.365468
0.36037
0.523842
0.51358
0.509394
0.507495
0.505328
0.502206
0.497949
0.492626
0.486429
0.479569
0.472238
0.464593
0.456761
0.448841
0.44091
0.433027
0.425235
0.417569
0.410054
0.402711
0.395554
0.38855
0.381648
0.375044
0.369415
0.549054
0.538233
0.533254
0.530324
0.527
0.522702
0.517312
0.510928
0.503746
0.495978
0.487809
0.479391
0.470844
0.462261
0.453713
0.445254
0.436925
0.428754
0.420764
0.412973
0.405391
0.39799
0.390729
0.383767
0.377649
0.571811
0.560484
0.554781
0.550911
0.546535
0.541171
0.534756
0.52741
0.519339
0.51075
0.501824
0.492708
0.483515
0.474332
0.465227
0.45625
0.447435
0.438809
0.430392
0.422197
0.414232
0.406475
0.398891
0.391608
0.385045
0.591992
0.580216
0.573865
0.569154
0.563839
0.557526
0.5502
0.542
0.533138
0.52382
0.514223
0.504487
0.494721
0.485007
0.475409
0.46597
0.456725
0.447697
0.438901
0.430349
0.422046
0.413974
0.406106
0.398536
0.391577
0.609492
0.597324
0.590408
0.584962
0.57883
0.571691
0.563572
0.554631
0.545083
0.535133
0.524953
0.51468
0.504416
0.494242
0.484215
0.474378
0.46476
0.455383
0.446259
0.437398
0.428802
0.420458
0.412345
0.404526
0.397221
0.624218
0.611721
0.604324
0.598258
0.591434
0.583599
0.574812
0.565246
0.55512
0.544638
0.533968
0.523242
0.51256
0.501998
0.491611
0.481438
0.471507
0.461836
0.452437
0.443316
0.434475
0.425903
0.417583
0.409554
0.401958
0.636093
0.623329
0.615544
0.608974
0.601591
0.593193
0.583867
0.573797
0.563204
0.552293
0.541227
0.530136
0.519118
0.508243
0.497565
0.487122
0.476938
0.467031
0.45741
0.448079
0.43904
0.430285
0.4218
0.413601
0.405768
0.645054
0.632089
0.62401
0.617059
0.609253
0.600429
0.590695
0.580245
0.5693
0.558065
0.546701
0.535335
0.524061
0.512951
0.502054
0.491406
0.481032
0.470946
0.461158
0.45167
0.442482
0.433588
0.424979
0.416651
0.408639
0.651055
0.637955
0.629679
0.622472
0.614382
0.605273
0.595266
0.58456
0.573381
0.561928
0.550364
0.538813
0.52737
0.516101
0.505058
0.494273
0.483772
0.473567
0.463666
0.454072
0.444785
0.435799
0.427106
0.418692
0.41056
0.654065
0.640898
0.632522
0.625187
0.616954
0.607702
0.597558
0.586725
0.575427
0.563865
0.552201
0.540558
0.529029
0.517681
0.506564
0.495711
0.485146
0.474881
0.464924
0.455277
0.44594
0.436907
0.428173
0.419716
0.411524
0.654068
0.6409
0.632524
0.625189
0.616957
0.607704
0.597561
0.586727
0.575429
0.563868
0.552204
0.540561
0.529031
0.517684
0.506567
0.495714
0.485148
0.474883
0.464927
0.45528
0.445942
0.43691
0.428175
0.419719
0.411526
0.651063
0.637963
0.629686
0.62248
0.61439
0.605281
0.595274
0.584568
0.573389
0.561936
0.550372
0.538822
0.527378
0.516109
0.505066
0.494282
0.48378
0.473575
0.463674
0.45408
0.444793
0.435807
0.427113
0.4187
0.410568
0.645067
0.632102
0.624023
0.617072
0.609266
0.600442
0.590709
0.580258
0.569314
0.558078
0.546714
0.535348
0.524075
0.512964
0.502068
0.49142
0.481046
0.47096
0.461171
0.451683
0.442495
0.433601
0.424992
0.416664
0.408652
0.63611
0.623347
0.615562
0.608993
0.601609
0.593211
0.583885
0.573815
0.563223
0.552312
0.541247
0.530156
0.519137
0.508262
0.497585
0.487141
0.476957
0.46705
0.457428
0.448098
0.439059
0.430304
0.421819
0.41362
0.405786
0.624241
0.611744
0.604348
0.598281
0.591457
0.583622
0.574836
0.56527
0.555144
0.544662
0.533992
0.523266
0.512585
0.502023
0.491636
0.481463
0.471531
0.46186
0.452461
0.44334
0.434499
0.425926
0.417607
0.409578
0.401981
0.60952
0.597353
0.590436
0.584991
0.578859
0.57172
0.563602
0.554661
0.545113
0.535163
0.524984
0.51471
0.504447
0.494273
0.484246
0.474408
0.46479
0.455413
0.446289
0.437428
0.428832
0.420488
0.412374
0.404555
0.39725
0.592026
0.58025
0.573899
0.569188
0.563874
0.557561
0.550235
0.542036
0.533174
0.523856
0.514259
0.504523
0.494757
0.485044
0.475445
0.466006
0.456761
0.447733
0.438936
0.430384
0.422081
0.414009
0.406141
0.39857
0.39161
0.571851
0.560524
0.554821
0.550951
0.546575
0.541212
0.534797
0.527452
0.51938
0.510792
0.501866
0.49275
0.483557
0.474374
0.465269
0.456291
0.447476
0.438851
0.430433
0.422238
0.414273
0.406515
0.398931
0.391647
0.385084
0.5491
0.538279
0.5333
0.53037
0.527046
0.522749
0.517359
0.510975
0.503794
0.496026
0.487857
0.479439
0.470892
0.462308
0.45376
0.445301
0.436972
0.428801
0.420811
0.413019
0.405436
0.398035
0.390774
0.383812
0.377693
0.523894
0.513632
0.509446
0.507547
0.505381
0.502259
0.498002
0.49268
0.486483
0.479623
0.472292
0.464647
0.456815
0.448895
0.440964
0.43308
0.425288
0.417622
0.410106
0.402763
0.395605
0.388601
0.381699
0.375094
0.369464
0.496367
0.486713
0.483383
0.482598
0.481685
0.479839
0.476813
0.472648
0.467524
0.461654
0.455236
0.448434
0.441383
0.434186
0.426929
0.419674
0.41247
0.405355
0.398358
0.391506
0.384814
0.378246
0.371739
0.365524
0.360425
0.466664
0.457664
0.455245
0.455646
0.456073
0.455594
0.453891
0.45097
0.447
0.442197
0.436762
0.430868
0.424657
0.418241
0.41171
0.405132
0.398563
0.392043
0.385607
0.379286
0.3731
0.367006
0.36093
0.355134
0.350605
0.434946
0.426642
0.42518
0.426829
0.428671
0.42964
0.429341
0.427742
0.425002
0.421334
0.416946
0.41202
0.406705
0.401121
0.395363
0.389508
0.383616
0.377733
0.371897
0.366144
0.360499
0.354917
0.349305
0.343959
0.340036
0.401383
0.393811
0.393344
0.396292
0.399612
0.4021
0.403276
0.40307
0.401624
0.399153
0.395871
0.391966
0.387596
0.382889
0.377948
0.372856
0.367679
0.362469
0.357268
0.352119
0.34705
0.342013
0.336899
0.332029
0.328746
0.366154
0.359349
0.359906
0.364191
0.369039
0.373104
0.375816
0.377063
0.37697
0.37575
0.373622
0.370784
0.367402
0.363612
0.359525
0.355232
0.350804
0.346298
0.341764
0.337249
0.332787
0.328328
0.323743
0.319375
0.316763
0.329453
0.323443
0.325044
0.330691
0.337104
0.342791
0.34709
0.349838
0.351146
0.351222
0.350291
0.348559
0.3462
0.34336
0.340158
0.336692
0.333039
0.329265
0.325422
0.321567
0.31774
0.313887
0.309861
0.30602
0.304109
0.291479
0.286289
0.288943
0.295965
0.303967
0.311308
0.317229
0.321519
0.324265
0.325673
0.325972
0.325376
0.324069
0.322204
0.31991
0.317291
0.314435
0.311411
0.308279
0.305103
0.301932
0.298712
0.295271
0.291979
0.290798
0.252442
0.248092
0.251799
0.260194
0.269794
0.278807
0.286376
0.292234
0.296446
0.299211
0.300765
0.301327
0.30109
0.300218
0.298846
0.297088
0.295039
0.292775
0.290365
0.287879
0.285377
0.282808
0.279975
0.27725
0.276829
0.212559
0.209064
0.213813
0.223568
0.234759
0.245447
0.254675
0.262117
0.267811
0.271951
0.274774
0.276506
0.27735
0.277478
0.277034
0.27614
0.274898
0.273394
0.271703
0.269906
0.268076
0.266166
0.263953
0.261807
0.262179
0.172052
0.169424
0.175196
0.186281
0.199041
0.211395
0.222279
0.231308
0.23849
0.24401
0.248107
0.251013
0.252939
0.254066
0.254544
0.254506
0.25406
0.253301
0.252314
0.251189
0.250014
0.248751
0.247154
0.245587
0.246786
0.131149
0.129394
0.13616
0.148534
0.162827
0.176821
0.189345
0.199951
0.208617
0.215513
0.22088
0.224954
0.227954
0.230067
0.231454
0.232251
0.232577
0.232533
0.232212
0.231717
0.231153
0.230494
0.229474
0.228459
0.23052
0.0900828
0.0892034
0.0969241
0.110531
0.126307
0.141899
0.156035
0.168198
0.17833
0.18659
0.193213
0.198442
0.202499
0.20558
0.20785
0.209453
0.210513
0.211136
0.211424
0.211491
0.211461
0.211317
0.210771
0.210212
0.213165
0.049087
0.0490808
0.0577097
0.0724822
0.0896736
0.106811
0.122516
0.136204
0.147777
0.157377
0.165235
0.171598
0.17669
0.180713
0.183835
0.186206
0.18795
0.189177
0.18999