/*--------------------------------*- C++ -*----------------------------------*\
  =========                 |
  \\      /  F ield         | OpenFOAM: The Open Source CFD Toolbox
   \\    /   O peration     | Website:  https://openfoam.org
    \\  /    A nd           | Version:  6.0
     \\/     M anipulation  |
\*---------------------------------------------------------------------------*/
FoamFile
{
    version     2.0;
    format      ascii;
    class       volVectorField;
    location    "32";
    object      U;
}
// * * * * * * * * * * * * * * * * * * * * * * * * * * * * * * * * * * * * * //

dimensions      [0 1 -1 0 0 0 0];

internalField   nonuniform List<vector> 
12500
(
(-0.000261395 0.000256379 -5.44126e-22)
(-0.00153392 0.000627577 7.50553e-21)
(-0.00399791 0.00087321 -1.08699e-20)
(-0.00715077 0.00101966 4.98408e-21)
(-0.0107171 0.00108796 2.98406e-22)
(-0.0145246 0.00109543 -6.12751e-22)
(-0.0184356 0.00105686 -9.03522e-21)
(-0.0223478 0.000984761 4.95421e-21)
(-0.02619 0.000889577 3.27132e-21)
(-0.0299156 0.000780059 3.31785e-21)
(-0.0334971 0.000663534 -5.60782e-21)
(-0.0369227 0.000546147 3.25769e-21)
(-0.0401924 0.000433041 -1.53189e-21)
(-0.0433156 0.0003285 2.59395e-21)
(-0.0463087 0.000236045 -6.60675e-21)
(-0.0491932 0.000158496 9.53299e-21)
(-0.051994 9.80198e-05 -1.81502e-21)
(-0.0547381 5.61515e-05 -6.72343e-21)
(-0.057453 3.38232e-05 3.43912e-21)
(-0.0601664 3.13783e-05 -3.27737e-21)
(-0.0629084 4.85455e-05 2.92875e-21)
(-0.0657086 8.44899e-05 3.86485e-21)
(-0.0685574 0.000138444 3.91758e-22)
(-0.0713922 0.000210209 -1.10337e-20)
(-0.0744807 0.000294573 5.81846e-21)
(-0.000300219 0.000891351 9.93354e-21)
(-0.0016353 0.00227481 -2.56265e-20)
(-0.00414867 0.00329487 7.54682e-21)
(-0.0073385 0.00401908 5.03638e-21)
(-0.0109304 0.00450184 -4.0096e-21)
(-0.0147532 0.00478938 -2.27515e-20)
(-0.0186702 0.00492272 6.75532e-21)
(-0.02258 0.00493774 -1.27392e-20)
(-0.0264121 0.00486552 1.52201e-20)
(-0.0301206 0.00473296 -2.029e-20)
(-0.0336786 0.00456326 1.08165e-20)
(-0.0370746 0.00437643 3.4909e-21)
(-0.0403092 0.00418964 -8.78059e-21)
(-0.0433921 0.00401748 -3.87337e-21)
(-0.0463402 0.00387223 2.83154e-20)
(-0.0491753 0.00376395 -2.50145e-20)
(-0.051923 0.00370064 5.97537e-21)
(-0.0546108 0.00368826 1.03198e-20)
(-0.0572669 0.0037309 -2.35158e-21)
(-0.0599195 0.00383076 1.65788e-20)
(-0.0625995 0.00398811 3.01189e-21)
(-0.0653376 0.00420151 -1.07998e-21)
(-0.0681244 0.00446966 -2.08427e-20)
(-0.070897 0.00479286 1.91516e-20)
(-0.0739247 0.00515618 -3.65104e-20)
(-0.000379216 0.00152442 3.18587e-20)
(-0.00184087 0.0039161 1.05807e-20)
(-0.0044521 0.00570627 -1.38548e-20)
(-0.00771364 0.00700372 5.94415e-21)
(-0.0113536 0.00789628 5.55746e-21)
(-0.0152031 0.00845906 2.10659e-20)
(-0.0191278 0.00875929 -2.67235e-20)
(-0.0230282 0.00885613 -4.33976e-21)
(-0.0268354 0.00880121 -1.78456e-20)
(-0.0305048 0.00863949 -1.48783e-20)
(-0.0340108 0.00841002 1.91844e-20)
(-0.0373428 0.00814667 -6.4125e-20)
(-0.0405022 0.00787865 -2.0004e-21)
(-0.0434995 0.007631 -3.83739e-20)
(-0.0463524 0.00742487 -4.51005e-21)
(-0.0490837 0.0072778 5.43487e-21)
(-0.0517198 0.00720383 -2.96621e-20)
(-0.0542893 0.00721367 -1.85306e-20)
(-0.0568217 0.0073148 -2.19086e-20)
(-0.0593465 0.00751157 3.42823e-20)
(-0.0618961 0.00780506 1.25119e-20)
(-0.0645028 0.00819335 -5.55671e-20)
(-0.0671585 0.00867476 -2.67269e-20)
(-0.0697993 0.00925031 -2.98377e-20)
(-0.0726977 0.00989517 8.04206e-20)
(-0.000498326 0.00215338 -9.94698e-22)
(-0.00215035 0.00554514 -2.44678e-20)
(-0.00490764 0.00809724 -1.17324e-20)
(-0.00827526 0.00995976 7.26948e-21)
(-0.0119854 0.011254 4.52152e-20)
(-0.0158728 0.0120838 -2.0371e-20)
(-0.0198066 0.0125425 4.33833e-20)
(-0.0236904 0.0127125 4.12672e-20)
(-0.027458 0.0126656 2.5089e-20)
(-0.0310666 0.0124648 -3.76912e-22)
(-0.0344925 0.0121649 5.04478e-20)
(-0.0377265 0.0118134 8.72197e-21)
(-0.0407713 0.0114518 3.83935e-20)
(-0.0436384 0.0111156 8.81402e-20)
(-0.0463466 0.0108351 -1.02121e-19)
(-0.0489201 0.0106356 1.5335e-19)
(-0.0513865 0.0105377 3.33116e-20)
(-0.0537762 0.0105572 -7.34199e-20)
(-0.0561203 0.0107055 -1.04008e-20)
(-0.0584505 0.0109897 2.66278e-20)
(-0.0608014 0.0114119 -1.33294e-20)
(-0.0632076 0.0119702 -7.96565e-21)
(-0.0656631 0.0126627 -7.75785e-21)
(-0.0681029 0.0134916 -3.12104e-20)
(-0.070804 0.0144218 1.09341e-19)
(-0.000657401 0.00277613 1.65948e-20)
(-0.00256315 0.00715578 -7.70601e-20)
(-0.00551416 0.0104578 9.33949e-20)
(-0.0090216 0.0128737 -3.71493e-20)
(-0.0128232 0.014558 4.4435e-20)
(-0.0167592 0.0156436 3.62237e-20)
(-0.0207033 0.0162495 1.37394e-20)
(-0.0245633 0.0164807 6.72897e-22)
(-0.0282763 0.0164295 7.71827e-20)
(-0.0318028 0.0161762 5.33652e-20)
(-0.035121 0.0157913 -2.13714e-20)
(-0.0382238 0.0153359 -1.37447e-20)
(-0.0411152 0.0148636 5.79322e-20)
(-0.0438084 0.0144208 1.08996e-20)
(-0.0463235 0.014047 2.95408e-20)
(-0.0486861 0.0137759 7.06579e-20)
(-0.0509257 0.013635 -6.09712e-20)
(-0.0530747 0.0136461 4.91672e-20)
(-0.0551665 0.0138252 -1.05881e-19)
(-0.0572354 0.0141824 8.88851e-20)
(-0.0593193 0.0147222 5.72702e-22)
(-0.0614561 0.0154427 -7.07272e-20)
(-0.0636425 0.0163426 2.84437e-20)
(-0.0658124 0.0174257 6.45323e-20)
(-0.0682491 0.0186463 -9.49473e-20)
(-0.000856211 0.00339068 8.58304e-20)
(-0.00307834 0.00874206 -9.11194e-20)
(-0.00626982 0.0127783 -1.4654e-20)
(-0.0099498 0.0157324 1.8472e-20)
(-0.0138634 0.0177923 -3.98712e-20)
(-0.0178575 0.0191195 -6.21279e-20)
(-0.0218123 0.0198584 -5.16246e-20)
(-0.0256407 0.0201367 -1.24377e-20)
(-0.0292844 0.0200659 -8.87317e-20)
(-0.0327075 0.0197439 7.06261e-20)
(-0.035891 0.0192561 -1.09612e-19)
(-0.03883 0.0186774 5.5374e-20)
(-0.0415305 0.0180733 -1.83583e-20)
(-0.0440072 0.0175008 4.25064e-20)
(-0.0462819 0.0170096 -1.06808e-19)
(-0.0483818 0.016642 5.17283e-20)
(-0.0503384 0.0164331 3.8549e-21)
(-0.0521866 0.0164116 2.29158e-20)
(-0.0539627 0.016599 1.38305e-19)
(-0.0557042 0.0170099 3.06148e-20)
(-0.0574529 0.0176513 -2.78916e-21)
(-0.0592513 0.018523 8.72905e-21)
(-0.0610997 0.0196244 5.74829e-20)
(-0.0629314 0.0209621 1.63699e-20)
(-0.065038 0.0224795 5.36715e-20)
(-0.00109443 0.00399514 -5.34795e-20)
(-0.00369454 0.0102982 7.59207e-20)
(-0.00717188 0.0150493 4.75704e-21)
(-0.0110556 0.0185232 -9.26221e-20)
(-0.0151 0.0209414 1.94677e-19)
(-0.0191605 0.0224937 -6.29143e-20)
(-0.0231251 0.0233495 9.18011e-20)
(-0.0269133 0.0236584 8.39571e-20)
(-0.0304723 0.023551 -6.94383e-20)
(-0.0337705 0.0231418 -1.01022e-19)
(-0.0367926 0.0225309 2.76409e-20)
(-0.039536 0.0218063 -2.91337e-20)
(-0.042009 0.0210454 -1.28795e-19)
(-0.044228 0.0203163 1.56395e-19)
(-0.0462163 0.0196785 -7.49661e-20)
(-0.0480031 0.0191836 -5.16631e-20)
(-0.0496219 0.0188757 4.81002e-22)
(-0.0511102 0.0187909 4.21675e-20)
(-0.0525077 0.0189577 1.73709e-20)
(-0.053856 0.0193965 -6.80203e-20)
(-0.0552014 0.0201184 7.76167e-20)
(-0.0565924 0.0211256 -1.34771e-19)
(-0.0580339 0.0224199 8.22674e-20)
(-0.0594592 0.0240117 -6.29486e-20)
(-0.061171 0.025833 1.65128e-20)
(-0.00137162 0.00458763 7.78194e-20)
(-0.00440983 0.0118183 -5.98486e-20)
(-0.00821644 0.0172613 -3.80698e-20)
(-0.0123328 0.0212337 -6.7196e-20)
(-0.0165245 0.0239905 -1.22821e-19)
(-0.0206576 0.0257494 -9.07267e-20)
(-0.0246292 0.0267045 5.65342e-20)
(-0.0283669 0.0270265 -8.56028e-20)
(-0.0318247 0.0268645 1.08618e-19)
(-0.0349761 0.0263484 -1.76732e-19)
(-0.0378097 0.0255927 7.84811e-20)
(-0.0403261 0.0246978 1.65701e-19)
(-0.0425357 0.0237526 -2.32746e-19)
(-0.0444567 0.022836 3.32217e-20)
(-0.0461141 0.0220179 4.32093e-20)
(-0.0475386 0.0213599 4.17581e-20)
(-0.048766 0.0209155 -4.48579e-20)
(-0.0498365 0.0207299 -1.10209e-20)
(-0.0507933 0.02084 -3.29119e-20)
(-0.0516827 0.0212736 -2.74318e-20)
(-0.0525566 0.022048 -1.50483e-19)
(-0.0534706 0.0231696 -1.01546e-20)
(-0.0544358 0.0246441 1.64227e-21)
(-0.0553864 0.0264877 -6.79532e-20)
(-0.05664 0.0286208 6.98927e-20)
(-0.00168719 0.00516624 2.25336e-21)
(-0.00522158 0.0132966 2.44836e-20)
(-0.0093981 0.0194051 2.54889e-20)
(-0.0137729 0.0238518 1.4785e-20)
(-0.0181254 0.0269254 1.2501e-19)
(-0.0223338 0.0288712 1.17391e-19)
(-0.0263067 0.0299073 -9.53964e-20)
(-0.0299813 0.0302248 -2.90321e-20)
(-0.0333191 0.0299898 -2.57725e-20)
(-0.0363 0.0293474 1.32942e-19)
(-0.0389171 0.0284249 4.77117e-20)
(-0.0411745 0.0273345 -6.94413e-20)
(-0.0430849 0.0261762 -5.87568e-20)
(-0.0446683 0.0250393 1.41536e-19)
(-0.0459509 0.024004 -3.48932e-20)
(-0.0469652 0.0231422 -4.22858e-20)
(-0.0477487 0.0225179 -5.89839e-20)
(-0.0483442 0.0221868 -4.58998e-20)
(-0.0487988 0.0221961 -5.8565e-20)
(-0.0491637 0.0225834 -3.82753e-20)
(-0.0494975 0.0233742 1.59003e-19)
(-0.0498641 0.0245818 -7.82751e-20)
(-0.0502824 0.0262184 5.26882e-20)
(-0.0506896 0.0283085 -1.40062e-19)
(-0.0514223 0.0307613 5.64627e-20)
(-0.00204033 0.00572885 -6.98896e-20)
(-0.00612622 0.0147265 -1.82104e-20)
(-0.0107096 0.0214706 -1.42192e-19)
(-0.0153646 0.0263649 -6.8127e-20)
(-0.0198867 0.0297319 -1.34451e-19)
(-0.024169 0.0318443 -1.40181e-20)
(-0.0281333 0.0329433 7.2028e-20)
(-0.0317279 0.0332392 -4.38716e-20)
(-0.0349236 0.0329145 9.45153e-20)
(-0.0377073 0.0321279 -2.29608e-19)
(-0.0400775 0.0310183 -6.65114e-21)
(-0.0420421 0.0297087 4.06739e-20)
(-0.0436164 0.028309 -5.15875e-20)
(-0.0448218 0.0269184 4.69229e-20)
(-0.0456861 0.0256271 -3.58746e-20)
(-0.0462425 0.0245177 -7.68377e-20)
(-0.0465301 0.0236652 1.40111e-19)
(-0.0465941 0.0231374 8.68654e-20)
(-0.0464851 0.0229936 -1.80086e-20)
(-0.0462595 0.0232839 5.72841e-20)
(-0.0459835 0.0240456 -1.13e-19)
(-0.0457307 0.0253018 1.6279e-19)
(-0.04553 0.027075 -2.2228e-19)
(-0.0453234 0.0294017 4.575e-20)
(-0.045473 0.0321807 -8.66852e-20)
(-0.00242989 0.00627307 3.79547e-21)
(-0.00711903 0.0161012 -6.21974e-20)
(-0.0121415 0.0234473 9.21117e-20)
(-0.0170928 0.02876 1.88842e-19)
(-0.0217877 0.0323958 -3.11033e-21)
(-0.0261366 0.0346544 2.13787e-20)
(-0.0300764 0.0357991 -8.07652e-20)
(-0.0335687 0.0360587 3.78032e-20)
(-0.0365947 0.0356302 2.60553e-19)
(-0.0391495 0.0346846 -5.91081e-20)
(-0.0412379 0.0333712 -6.97908e-20)
(-0.0428722 0.0318222 2.63701e-19)
(-0.0440703 0.030156 8.60942e-20)
(-0.0448554 0.0284805 4.0967e-20)
(-0.045256 0.0268954 4.19314e-20)
(-0.0453059 0.0254934 1.1421e-19)
(-0.0450451 0.0243614 -4.38704e-20)
(-0.0445205 0.0235801 1.15974e-19)
(-0.0437858 0.0232234 1.5688e-19)
(-0.0429029 0.0233567 -1.33757e-19)
(-0.0419457 0.0240327 1.98687e-19)
(-0.0409993 0.025289 7.0864e-20)
(-0.0401043 0.0271634 -2.68862e-19)
(-0.0392111 0.0297101 3.88737e-19)
(-0.0387148 0.0328192 -3.14664e-19)
(-0.00285431 0.00679602 -1.7798e-19)
(-0.0081938 0.0174126 9.7007e-20)
(-0.0136814 0.0253235 -6.50889e-20)
(-0.0189385 0.0310232 -6.18106e-20)
(-0.0238021 0.0349023 -6.67163e-20)
(-0.0282026 0.0372869 -7.23666e-20)
(-0.0320944 0.0384622 1.98546e-20)
(-0.035454 0.0386735 1.88632e-19)
(-0.0382749 0.0381315 -4.03961e-20)
(-0.0405616 0.0370175 -1.05192e-19)
(-0.0423263 0.0354896 -6.42318e-20)
(-0.0435861 0.0336872 -2.62686e-20)
(-0.0443622 0.0317356 7.77094e-20)
(-0.0446794 0.0297499 -4.96173e-20)
(-0.0445667 0.0278376 -1.61879e-19)
(-0.0440582 0.026101 -1.7858e-19)
(-0.043194 0.0246383 7.11943e-20)
(-0.0420216 0.0235441 -1.32463e-19)
(-0.0405974 0.0229085 1.15007e-19)
(-0.0389879 0.0228155 -3.24718e-19)
(-0.0372754 0.0233378 2.49416e-19)
(-0.0355573 0.0245331 -3.29752e-19)
(-0.0338889 0.026461 -6.14815e-21)
(-0.0322321 0.0292014 -1.1093e-19)
(-0.0310258 0.0326394 3.25622e-19)
(-0.00331143 0.0072943 2.73112e-19)
(-0.00934255 0.0186516 4.00385e-20)
(-0.015314 0.0270859 -2.63058e-20)
(-0.0208779 0.0331387 -1.10932e-20)
(-0.0258972 0.0372348 2.06434e-19)
(-0.0303247 0.0397265 6.71403e-20)
(-0.0341349 0.0409194 6.08752e-20)
(-0.0373211 0.0410748 -4.89256e-20)
(-0.0398907 0.0404151 1.88656e-19)
(-0.0418595 0.0391305 -9.27316e-20)
(-0.0432476 0.0373858 5.98352e-20)
(-0.0440784 0.0353256 1.52187e-19)
(-0.0443766 0.0330799 -8.62766e-20)
(-0.0441692 0.0307687 9.34274e-20)
(-0.0434859 0.0285053 8.82171e-20)
(-0.0423602 0.0263998 3.01809e-20)
(-0.0408315 0.0245607 -7.43272e-20)
(-0.0389475 0.0230962 2.05573e-19)
(-0.0367656 0.0221139 -1.91197e-20)
(-0.0343562 0.0217189 -2.20076e-20)
(-0.0318097 0.0220088 2.45994e-19)
(-0.0292372 0.023068 -1.74925e-19)
(-0.0267102 0.0249868 2.94618e-19)
(-0.0242068 0.0278819 -2.44215e-19)
(-0.022223 0.0316395 3.14035e-19)
(-0.00379843 0.00776387 -1.31944e-19)
(-0.0105553 0.0198076 2.92618e-20)
(-0.0170205 0.0287198 -3.04872e-20)
(-0.0228824 0.0350893 -1.44262e-19)
(-0.0280334 0.0393753 8.36838e-21)
(-0.0324515 0.041956 8.21254e-20)
(-0.0361338 0.0431567 -3.33976e-19)
(-0.0390925 0.0432532 2.49273e-19)
(-0.0413508 0.0424785 -2.42632e-19)
(-0.0429367 0.04103 -1.52992e-19)
(-0.0438805 0.039077 1.37202e-19)
(-0.0442122 0.0367673 -2.96844e-19)
(-0.0439618 0.0342331 2.49994e-19)
(-0.0431587 0.0315965 -7.94782e-20)
(-0.0418336 0.0289738 -2.26945e-19)
(-0.0400196 0.0264801 5.60456e-20)
(-0.037755 0.0242318 -5.26061e-20)
(-0.0350861 0.022349 1.98131e-20)
(-0.0320704 0.0209567 -7.08787e-20)
(-0.0287809 0.0201831 -2.35126e-19)
(-0.025315 0.0201546 5.26629e-20)
(-0.0217979 0.0209898 -6.74944e-23)
(-0.0183194 0.0228207 -2.422e-19)
(-0.0148781 0.0258154 1.7014e-19)
(-0.012044 0.0298714 -1.47026e-19)
(-0.00431165 0.00820008 5.34147e-20)
(-0.0118197 0.0208687 9.83743e-20)
(-0.0187784 0.0302083 1.37632e-19)
(-0.0249179 0.0368552 7.07939e-20)
(-0.0301637 0.041303 -6.94047e-20)
(-0.0345222 0.0439555 1.65564e-19)
(-0.038015 0.0451569 1.22508e-19)
(-0.0406755 0.0451969 -4.4574e-20)
(-0.0425441 0.0443175 1.59223e-19)
(-0.0436633 0.0427218 -1.6376e-19)
(-0.0440744 0.0405821 -4.80108e-20)
(-0.0438161 0.0380471 4.87275e-20)
(-0.0429245 0.0352485 9.65524e-20)
(-0.041433 0.0323075 1.15003e-21)
(-0.039374 0.0293401 6.10824e-20)
(-0.0367809 0.0264624 1.12699e-19)
(-0.0336909 0.0237949 -1.91853e-19)
(-0.0301484 0.0214663 2.38447e-19)
(-0.0262095 0.0196164 8.04437e-20)
(-0.0219481 0.0183963 2.83584e-20)
(-0.0174674 0.0179639 -2.89078e-19)
(-0.0129058 0.0184788 4.09227e-20)
(-0.00837249 0.0201273 6.34203e-20)
(-0.00389056 0.0231483 -1.51993e-20)
(-0.000125084 0.0274656 7.2237e-20)
(-0.00484657 0.00859778 4.2061e-21)
(-0.0131211 0.0218218 -2.53425e-19)
(-0.0205611 0.0315328 -6.29553e-21)
(-0.0269446 0.0384144 -6.3892e-20)
(-0.0322339 0.0429944 -4.19856e-19)
(-0.0364661 0.0457018 3.62478e-19)
(-0.0396898 0.0468996 -2.57892e-19)
(-0.0419612 0.0468902 -1.29583e-20)
(-0.0433399 0.045924 -1.21801e-19)
(-0.0438842 0.0442087 2.10575e-19)
(-0.0436482 0.041918 -2.26621e-19)
(-0.0426809 0.0391998 -1.06088e-19)
(-0.0410262 0.0361831 2.25717e-21)
(-0.0387233 0.0329851 -2.29441e-19)
(-0.0358083 0.0297177 3.12995e-19)
(-0.032316 0.0264935 -3.62537e-19)
(-0.0282835 0.0234318 7.13947e-22)
(-0.0237539 0.0206643 5.55384e-20)
(-0.0187811 0.0183403 -1.38908e-19)
(-0.0134381 0.0166302 1.34698e-19)
(-0.00783192 0.015723 -1.91094e-19)
(-0.00211267 0.0158236 -1.26216e-19)
(0.0035917 0.0171849 2.35152e-19)
(0.00923183 0.0201407 -2.56491e-19)
(0.0140223 0.024663 -4.93913e-21)
(-0.00539775 0.00895144 -2.14549e-19)
(-0.0144424 0.022653 2.46121e-19)
(-0.0223385 0.0326735 -7.59298e-20)
(-0.0289175 0.0397428 1.46178e-19)
(-0.0341823 0.044423 1.57607e-19)
(-0.038203 0.0471682 -1.3881e-19)
(-0.0410571 0.0483596 -9.20479e-20)
(-0.0428252 0.048312 -1.10166e-19)
(-0.0435876 0.0472838 1.0084e-19)
(-0.0434197 0.0454866 -6.71141e-21)
(-0.0423899 0.0430949 1.46957e-19)
(-0.0405595 0.0402546 1.44823e-19)
(-0.0379821 0.0370903 -1.72959e-19)
(-0.034705 0.0337131 3.39611e-19)
(-0.0307705 0.030227 -2.25154e-19)
(-0.0262178 0.0267366 -3.8632e-20)
(-0.0210861 0.0233537 4.38435e-19)
(-0.0154189 0.0202055 -2.02981e-19)
(-0.0092689 0.0174424 1.29301e-19)
(-0.00270753 0.0152457 2.52503e-19)
(0.00415685 0.0138294 -1.63815e-19)
(0.0111647 0.013443 1.72619e-20)
(0.0181723 0.0144157 -1.12465e-20)
(0.0251063 0.0172022 -6.71131e-20)
(0.0310335 0.0218523 1.26383e-19)
(-0.00595894 0.00925545 4.90398e-20)
(-0.0157642 0.0233477 -1.56062e-19)
(-0.0240763 0.0336092 8.52975e-20)
(-0.0307863 0.0408146 -1.04029e-21)
(-0.0359402 0.0455598 6.41867e-20)
(-0.0396435 0.0483241 -1.10439e-19)
(-0.0420039 0.0495066 6.31734e-20)
(-0.0431281 0.0494349 1.71996e-19)
(-0.0431176 0.0483747 -5.21868e-21)
(-0.0420663 0.046542 -8.78355e-20)
(-0.0400583 0.044112 8.83057e-20)
(-0.0371683 0.0412285 -2.03934e-21)
(-0.0334623 0.0380114 -2.79524e-19)
(-0.0289982 0.0345643 1.03643e-19)
(-0.023828 0.0309814 2.29059e-20)
(-0.0179991 0.027355 -4.02923e-20)
(-0.0115572 0.0237837 -7.18077e-20)
(-0.0045502 0.0203815 2.75252e-19)
(0.00296724 0.0172886 6.71171e-20)
(0.0109239 0.0146842 -1.43766e-19)
(0.0192108 0.0127937 -1.72598e-20)
(0.0276621 0.0119008 1.97875e-19)
(0.0361236 0.0124117 -9.23981e-20)
(0.0445077 0.0149277 3.96756e-20)
(0.0517082 0.0196115 2.67932e-20)
(-0.00652315 0.00950438 -9.82315e-20)
(-0.0170648 0.0238916 9.76179e-20)
(-0.0257372 0.0343187 -5.50277e-20)
(-0.0324954 0.0416031 -1.76625e-19)
(-0.0374319 0.0463741 -1.62571e-19)
(-0.0406889 0.0491361 -7.19838e-20)
(-0.042406 0.0503065 -5.957e-20)
(-0.042716 0.0502251 -1.76212e-19)
(-0.0417429 0.0491662 -7.1154e-20)
(-0.0395991 0.0473502 6.48323e-20)
(-0.0363855 0.0449543 -9.2582e-20)
(-0.0321916 0.0421212 -9.77577e-20)
(-0.0270972 0.038967 -9.16971e-20)
(-0.0211742 0.0355886 1.66473e-19)
(-0.0144879 0.0320702 -3.4961e-19)
(-0.00709902 0.0284904 1.99573e-19)
(0.000934061 0.0249302 -3.41307e-19)
(0.00955233 0.0214829 -5.25888e-20)
(0.0186923 0.0182666 -1.87352e-19)
(0.0282775 0.0154408 -4.37498e-20)
(0.0381963 0.0132209 -5.33566e-20)
(0.0482776 0.011901 -1.7817e-19)
(0.0583645 0.0119488 -1.95126e-20)
(0.0683762 0.0141274 1.0901e-19)
(0.0770188 0.0187486 -2.83562e-19)
(-0.00708279 0.00969335 8.42782e-20)
(-0.0183206 0.0242714 1.10236e-19)
(-0.0272798 0.0347815 3.86074e-19)
(-0.0339842 0.0420821 -6.77877e-20)
(-0.0385747 0.0468349 1.61278e-19)
(-0.0412321 0.0495698 3.84131e-19)
(-0.0421279 0.0507222 -1.04668e-19)
(-0.0414219 0.0506448 1.41639e-19)
(-0.0392603 0.0496207 8.26125e-20)
(-0.0357743 0.0478763 1.49664e-19)
(-0.0310813 0.0455921 -2.99837e-20)
(-0.0252865 0.0429121 2.02396e-20)
(-0.0184851 0.0399513 -5.23752e-20)
(-0.010765 0.0368026 2.83283e-19)
(-0.00220896 0.0335428 3.62458e-20)
(0.00710346 0.0302388 2.62586e-19)
(0.0170936 0.026954 -6.71301e-20)
(0.0276815 0.0237574 2.40009e-19)
(0.0387841 0.0207356 3.36578e-20)
(0.0503085 0.0180112 1.21916e-19)
(0.0621315 0.0157619 -5.26044e-20)
(0.0740727 0.0142539 -9.34394e-21)
(0.0859788 0.0139761 2.89631e-19)
(0.0978123 0.0158432 1.78089e-19)
(0.108104 0.0203398 -7.42767e-20)
(-0.00762989 0.00981823 -2.04315e-19)
(-0.0195062 0.0244751 -2.0711e-19)
(-0.0286597 0.0349791 -2.16449e-19)
(-0.0351867 0.042227 7.92979e-20)
(-0.0392789 0.0469131 -1.59238e-19)
(-0.0411563 0.0495921 -2.37199e-20)
(-0.0410232 0.0507175 -6.25284e-20)
(-0.0390658 0.0506551 -2.59257e-19)
(-0.035452 0.0496977 -4.04569e-20)
(-0.0303313 0.0480789 6.64637e-20)
(-0.0238371 0.0459847 -2.08447e-19)
(-0.01609 0.0435633 2.88848e-19)
(-0.00720139 0.0409323 -3.92072e-19)
(0.00272325 0.0381854 9.43537e-20)
(0.0135808 0.0353978 -2.39864e-19)
(0.0252675 0.0326306 -1.94544e-19)
(0.0376766 0.0299356 -1.10607e-20)
(0.0506962 0.027361 -2.93672e-20)
(0.064208 0.0249612 2.31809e-20)
(0.0780852 0.0228114 -1.10878e-19)
(0.0921743 0.0210261 -7.6722e-20)
(0.10627 0.0197959 9.42718e-20)
(0.120218 0.0195595 -2.60696e-19)
(0.134076 0.0213266 8.47424e-20)
(0.146266 0.0257362 6.02437e-20)
(-0.00815618 0.00987592 -3.62622e-20)
(-0.0205943 0.024493 -6.01883e-20)
(-0.0298285 0.0348957 2.33694e-19)
(-0.0360311 0.0420173 8.69086e-20)
(-0.0394467 0.0465838 1.14997e-19)
(-0.040335 0.0491746 -1.53564e-19)
(-0.0389332 0.0502609 2.51672e-22)
(-0.0354538 0.0502217 -1.24188e-19)
(-0.0300851 0.04936 2.29498e-19)
(-0.022994 0.0479177 7.48818e-20)
(-0.0143288 0.0460884 8.39568e-20)
(-0.00422486 0.0440273 -3.33857e-19)
(0.00719095 0.041859 4.11608e-19)
(0.0197951 0.0396839 -1.23622e-19)
(0.0334624 0.0375832 -8.84314e-20)
(0.0480618 0.0356219 2.64693e-19)
(0.0634522 0.033852 1.18061e-19)
(0.0794791 0.0323144 -2.98773e-19)
(0.0959735 0.031043 -1.24688e-19)
(0.112751 0.0300725 3.76225e-19)
(0.1296 0.0294455 -2.87429e-19)
(0.146254 0.0292343 1.72811e-19)
(0.162531 0.029729 9.6607e-20)
(0.178627 0.0319077 -1.24245e-19)
(0.193021 0.0364744 -1.19867e-19)
(-0.00865311 0.00986433 -1.33422e-19)
(-0.0215557 0.0243178 2.07268e-19)
(-0.0307337 0.0345196 8.8261e-20)
(-0.0364389 0.0414378 -1.27448e-19)
(-0.0389706 0.0458291 -2.03986e-20)
(-0.0386296 0.0482974 -1.33605e-19)
(-0.0356857 0.049331 -5.32262e-20)
(-0.0303768 0.0493216 5.97014e-20)
(-0.022911 0.0485823 -1.49105e-20)
(-0.0134711 0.0473641 1.12638e-19)
(-0.00221946 0.0458693 -9.78073e-20)
(0.0106953 0.0442624 2.70569e-19)
(0.0251318 0.0426784 -3.35314e-19)
(0.0409492 0.0412298 2.09075e-19)
(0.0580011 0.0400115 2.59713e-19)
(0.0761286 0.0391041 -3.75331e-19)
(0.0951539 0.0385757 -1.14223e-19)
(0.114874 0.0384817 1.92437e-19)
(0.135057 0.0388645 -1.18802e-19)
(0.155437 0.0397508 1.14706e-19)
(0.175704 0.0411404 -2.78033e-19)
(0.195475 0.0429858 4.62897e-20)
(0.214461 0.0453435 1.81271e-19)
(0.233005 0.0489954 -2.91691e-19)
(0.249949 0.0545237 7.89151e-20)
(-0.00911173 0.00978238 -1.23453e-19)
(-0.0223588 0.023945 3.86825e-19)
(-0.0313173 0.0338439 7.42432e-20)
(-0.0363231 0.0404802 -2.00572e-19)
(-0.0377325 0.044641 1.43628e-19)
(-0.0358879 0.0469535 7.2886e-20)
(-0.0310922 0.0479223 1.16409e-19)
(-0.0236083 0.0479507 -7.62351e-21)
(-0.0136635 0.0473612 -1.20883e-20)
(-0.00145571 0.0464136 -2.53297e-20)
(0.0128395 0.0453188 -1.1072e-19)
(0.0290609 0.0442512 -3.75064e-21)
(0.0470535 0.0433577 2.58656e-19)
(0.0666613 0.0427655 -4.24143e-19)
(0.0877188 0.0425884 3.0175e-19)
(0.110043 0.0429315 6.10551e-20)
(0.133425 0.0438948 1.07958e-19)
(0.157619 0.0455752 -5.56639e-20)
(0.182328 0.0480663 4.93825e-19)
(0.207193 0.0514557 -3.05972e-19)
(0.231761 0.055799 2.44752e-19)
(0.255432 0.061053 5.7684e-20)
(0.277617 0.0671634 -1.79451e-19)
(0.298605 0.0747823 1.5208e-19)
(0.317978 0.0839342 2.35907e-19)
(-0.00952243 0.00962977 -3.59228e-20)
(-0.0229683 0.0233727 -1.36422e-19)
(-0.0315149 0.0328669 -2.3309e-19)
(-0.0355869 0.0391451 -1.32815e-19)
(-0.0356005 0.0430237 -1.85731e-20)
(-0.0319414 0.0451522 -5.24183e-20)
(-0.0249459 0.0460499 -2.42755e-19)
(-0.0149023 0.0461304 4.01954e-20)
(-0.0020575 0.0457241 -2.7259e-19)
(0.013375 0.0450977 -2.1138e-20)
(0.0312054 0.0444693 -2.61284e-19)
(0.051259 0.044021 -9.30463e-20)
(0.073367 0.0439095 5.33868e-20)
(0.0973588 0.0442745 -2.54101e-19)
(0.123054 0.0452469 2.30167e-21)
(0.150254 0.0469561 -2.18858e-19)
(0.178737 0.0495382 8.44993e-20)
(0.208243 0.0531449 -3.05669e-19)
(0.238461 0.0579549 -5.24202e-20)
(0.269007 0.0641879 -7.3411e-21)
(0.299366 0.0721001 -5.17726e-20)
(0.328786 0.0819512 -5.31435e-20)
(0.356292 0.0941669 -2.66678e-20)
(0.381299 0.109968 -1.06776e-19)
(0.402479 0.127924 -2.29265e-19)
(-0.00987451 0.00940676 6.54877e-20)
(-0.0233452 0.0226018 1.7298e-19)
(-0.0312543 0.0315927 2.07853e-19)
(-0.034122 0.0374425 -1.66074e-19)
(-0.0324281 0.0409953 3.07974e-19)
(-0.0266036 0.0429219 -1.67175e-19)
(-0.01702 0.0437542 9.07405e-20)
(-0.00399251 0.0439139 1.41398e-19)
(0.0122105 0.043737 1.28626e-19)
(0.0313565 0.0434943 6.25231e-20)
(0.0532379 0.0434073 1.01028e-19)
(0.0776617 0.0436613 5.87269e-20)
(0.10444 0.0444161 3.96847e-19)
(0.133385 0.0458153 -2.88371e-19)
(0.164297 0.0479946 3.29235e-19)
(0.19697 0.0510911 -1.36837e-19)
(0.231181 0.0552535 2.95391e-19)
(0.266698 0.0606567 -1.4012e-20)
(0.303278 0.0675232 -6.11826e-20)
(0.340681 0.0761544 -1.13371e-20)
(0.378673 0.0869707 2.32897e-19)
(0.417085 0.100618 -2.28797e-19)
(0.456135 0.11839 1.60156e-19)
(0.496532 0.142072 1.78847e-19)
(0.535016 0.165462 3.73612e-20)
(-0.0101555 0.00911369 4.53249e-20)
(-0.0234447 0.0216347 -2.47592e-19)
(-0.0304536 0.0300307 -8.98508e-20)
(-0.0318068 0.035392 8.19797e-20)
(-0.0280523 0.0385891 -2.52581e-19)
(-0.0196696 0.0403119 -4.98312e-20)
(-0.00706813 0.0411028 3.45227e-20)
(0.0094062 0.0413887 1.363e-19)
(0.0294585 0.0415083 -3.45039e-19)
(0.0528308 0.0417325 2.62193e-20)
(0.0792889 0.0422811 -1.00818e-19)
(0.108611 0.0433355 -3.06266e-19)
(0.140578 0.0450493 2.08638e-19)
(0.174968 0.0475563 8.91811e-21)
(0.211551 0.0509784 -6.24246e-21)
(0.250092 0.0554325 2.10248e-19)
(0.290352 0.061038 -3.71845e-19)
(0.332098 0.0679254 2.94506e-19)
(0.37512 0.0762469 -5.4415e-20)
(0.419254 0.0861871 1.72318e-19)
(0.464415 0.0979683 -2.83619e-19)
(0.510661 0.111881 1.63232e-19)
(0.558475 0.128486 -2.93724e-19)
(0.608772 0.148282 3.0491e-19)
(0.656727 0.164972 -9.46278e-20)
(-0.0103505 0.00875074 3.052e-19)
(-0.0232152 0.0204762 -4.97917e-20)
(-0.0290206 0.0281959 3.66252e-19)
(-0.028506 0.0330239 1.69424e-19)
(-0.0222938 0.0358539 1.35483e-20)
(-0.0109167 0.037393 7.38959e-20)
(0.00517299 0.0381911 1.78157e-20)
(0.0255922 0.0386775 3.00756e-19)
(0.0500108 0.0391891 9.68113e-20)
(0.0781339 0.0399923 -1.29792e-20)
(0.109686 0.0412989 2.60085e-20)
(0.1444 0.0432785 1.00062e-19)
(0.182003 0.0460679 8.34745e-20)
(0.222217 0.049778 1.78536e-19)
(0.264754 0.0544999 -2.03401e-19)
(0.309317 0.0603096 6.14342e-20)
(0.355611 0.0672713 1.86152e-20)
(0.40335 0.0754406 9.09729e-20)
(0.45228 0.0848653 2.46867e-19)
(0.502193 0.0955826 -1.60876e-19)
(0.552956 0.107606 1.39318e-20)
(0.604531 0.120914 -2.29174e-19)
(0.657103 0.135565 2.17614e-19)
(0.711113 0.151763 -2.12131e-19)
(0.761696 0.165469 1.96409e-20)
(-0.0104415 0.00831798 -2.5464e-19)
(-0.0225977 0.0191324 1.94574e-19)
(-0.0268517 0.0261089 -3.16566e-19)
(-0.0240706 0.0303781 2.73059e-20)
(-0.0149587 0.0328537 2.22508e-19)
(-0.000108262 0.0342566 -3.7049e-19)
(0.0199772 0.0351411 2.93701e-19)
(0.0448674 0.0359344 -4.65739e-19)
(0.0741836 0.0369673 9.27839e-20)
(0.107577 0.0384957 1.98117e-20)
(0.14471 0.040716 1.56249e-19)
(0.185243 0.0437768 -5.19081e-19)
(0.228827 0.0477875 8.96185e-20)
(0.275095 0.052824 9.48943e-20)
(0.323667 0.0589335 -5.68985e-20)
(0.374151 0.0661374 -3.52923e-19)
(0.426156 0.0744334 1.66144e-19)
(0.479302 0.0837955 3.11218e-19)
(0.533237 0.0941725 -3.28752e-19)
(0.58765 0.105481 2.38729e-19)
(0.642286 0.117596 -3.10425e-19)
(0.696946 0.130327 2.25872e-19)
(0.751527 0.143511 -6.3376e-20)
(0.806096 0.157335 3.62619e-19)
(0.856523 0.169688 -4.16742e-19)
(-0.0104071 0.00781532 3.64863e-20)
(-0.0215249 0.0176118 2.87452e-20)
(-0.0238326 0.0237955 7.04133e-20)
(-0.0183395 0.0275046 2.50975e-19)
(-0.00584135 0.0296667 -7.83266e-21)
(0.0130002 0.0310131 5.60412e-20)
(0.0376191 0.0320976 2.49185e-19)
(0.0675229 0.0333406 1.00488e-19)
(0.102265 0.0350603 -3.3075e-20)
(0.141418 0.0374946 2.81561e-19)
(0.184557 0.0408157 -3.20458e-19)
(0.23124 0.045141 4.91549e-19)
(0.281006 0.0505411 -1.94988e-19)
(0.333369 0.0570452 3.53827e-19)
(0.387825 0.0646455 -1.19459e-19)
(0.443857 0.0733003 4.35739e-20)
(0.500952 0.0829365 5.28073e-20)
(0.558612 0.0934504 -1.02255e-19)
(0.61637 0.104707 8.55568e-20)
(0.673805 0.116538 5.50836e-20)
(0.730546 0.128734 7.6271e-20)
(0.786271 0.141036 1.62637e-19)
(0.840706 0.15319 -1.33478e-20)
(0.893734 0.165367 -7.45651e-20)
(0.942292 0.176933 2.28274e-19)
(-0.0102222 0.00724278 -2.13321e-19)
(-0.0199214 0.0159249 2.25384e-20)
(-0.0198387 0.0212879 -4.05011e-19)
(-0.0111417 0.024463 -9.66938e-20)
(0.00526992 0.026385 -1.80849e-19)
(0.0286526 0.02779 -3.87898e-20)
(0.0583615 0.0292254 -1.93466e-19)
(0.0938206 0.0310976 -1.15516e-19)
(0.13449 0.0337044 1.52914e-19)
(0.179834 0.037256 -2.55132e-19)
(0.229306 0.0418892 -7.08415e-20)
(0.282328 0.0476782 2.77829e-21)
(0.338294 0.0546422 -4.78559e-19)
(0.396567 0.0627521 2.0344e-19)
(0.456493 0.0719352 -2.97062e-19)
(0.517414 0.0820812 -9.29234e-21)
(0.578686 0.093046 5.87731e-20)
(0.639694 0.104656 -9.52253e-20)
(0.699872 0.11671 -8.35778e-20)
(0.758714 0.128985 4.20519e-20)
(0.815783 0.14123 4.72602e-20)
(0.870703 0.153173 -3.05941e-19)
(0.92315 0.164543 1.74657e-19)
(0.972954 0.175475 8.92148e-20)
(1.01811 0.186379 2.56123e-20)
(-0.00985761 0.006601 2.18367e-19)
(-0.0177041 0.014086 -2.32922e-19)
(-0.0147372 0.0186246 3.26418e-19)
(-0.00230093 0.0213234 5.06622e-20)
(0.0185865 0.023114 -1.55474e-20)
(0.0470821 0.0247301 -1.09539e-19)
(0.0824399 0.0267047 1.64697e-20)
(0.123973 0.0294208 1.66295e-19)
(0.171015 0.033145 -2.29305e-19)
(0.222887 0.0380472 2.4069e-19)
(0.278881 0.0442153 -2.53975e-20)
(0.338251 0.0516659 1.11901e-20)
(0.40021 0.0603534 3.12837e-19)
(0.463951 0.0701782 4.19326e-19)
(0.528656 0.0809953 -1.64034e-19)
(0.593525 0.0926219 2.9185e-19)
(0.657794 0.104847 1.48692e-19)
(0.720761 0.117436 -9.07378e-20)
(0.781801 0.130143 2.88899e-19)
(0.84038 0.142712 -1.04872e-20)
(0.896061 0.154886 -2.79042e-19)
(0.948497 0.166406 2.95711e-19)
(0.997414 0.17703 4.34448e-20)
(1.04269 0.18686 -1.85013e-19)
(1.08324 0.196981 5.80126e-20)
(-0.00928071 0.00589192 -3.04047e-19)
(-0.0147834 0.0121139 3.17576e-19)
(-0.00839001 0.0158525 -2.0147e-19)
(0.00835998 0.0181666 -6.29136e-20)
(0.0343113 0.0199718 -1.4052e-19)
(0.0684988 0.0219895 2.48337e-19)
(0.110046 0.0247274 -1.44087e-19)
(0.158122 0.0285325 -6.59692e-20)
(0.211893 0.0336259 -1.88782e-19)
(0.270497 0.0401218 4.88808e-21)
(0.333028 0.0480426 -7.37886e-20)
(0.398533 0.0573312 3.59269e-20)
(0.466029 0.0678629 -3.78074e-19)
(0.534523 0.0794576 1.07703e-19)
(0.603042 0.0918919 -1.30159e-19)
(0.670662 0.104912 -1.0512e-19)
(0.736541 0.118246 3.24456e-20)
(0.799935 0.131616 -1.53945e-19)
(0.860225 0.144748 -6.67107e-20)
(0.916918 0.15738 1.91215e-19)
(0.969654 0.169271 8.18045e-20)
(1.01819 0.180204 -3.47239e-19)
(1.06239 0.189983 2.56544e-19)
(1.10225 0.198707 -4.86932e-20)
(1.13738 0.207818 -1.01486e-19)
(-0.00845581 0.00511948 -1.10987e-19)
(-0.011065 0.0100335 -5.93432e-20)
(-0.000657208 0.0130278 -1.18908e-20)
(0.0210128 0.0150853 8.65798e-20)
(0.0526297 0.0170894 9.41618e-20)
(0.0930773 0.019736 8.19641e-20)
(0.141314 0.0234929 1.01829e-19)
(0.196319 0.028655 1.55357e-19)
(0.257052 0.03538 2.37272e-19)
(0.322424 0.043707 2.3462e-19)
(0.391293 0.0535742 1.23812e-19)
(0.46248 0.0648339 -3.32239e-20)
(0.534792 0.0772698 8.333e-21)
(0.607062 0.0906135 -1.14303e-20)
(0.678189 0.104563 9.80173e-20)
(0.747171 0.118799 -2.64446e-20)