1.275 	2.15223e-18 	-2.76991e-20 	-0.36374 	0.00927943 	-3.68087e-22
1.825 	2.15223e-18 	-1.39322e-20 	-0.52487 	-0.00243423 	4.84676e-21
2.375 	2.15223e-18 	-2.66896e-23 	-0.247182 	-0.0077464 	-1.6094e-21
