1.22 	3.45254e-18 	-6.98323e-18 	-0.141081 	0.00202887 	-8.36292e-22
1.66 	3.45254e-18 	-6.96118e-18 	-0.266442 	-0.00222789 	-3.79381e-23
2.1 	3.45254e-18 	-6.93894e-18 	-0.317855 	-0.000298124 	-2.43922e-21
2.54 	3.45254e-18 	-8.30431e-18 	-0.470939 	0.00849762 	-2.42048e-23
2.98 	3.45254e-18 	-8.28171e-18 	-0.462048 	0.0156376 	2.67862e-21
3.42 	3.45254e-18 	-6.87115e-18 	-0.4373 	0.012414 	2.47213e-21
3.86 	3.45254e-18 	-6.84819e-18 	-0.278213 	0.00314519 	4.06427e-22
4.3 	3.45254e-18 	-6.82504e-18 	-0.200326 	-0.00646301 	1.15774e-21
4.74 	3.45254e-18 	-5.41391e-18 	-0.0599894 	-0.0142378 	-4.57351e-22
5.18 	3.45254e-18 	-2.61482e-18 	0.0333009 	-0.0166479 	-9.1281e-23
5.62 	3.45254e-18 	-1.2033e-18 	0.144014 	-0.0156917 	4.09903e-24
6.06 	3.45254e-18 	-1.17937e-18 	0.226527 	-0.0119064 	-1.11319e-22
6.5 	3.45254e-18 	-1.15524e-18 	0.309096 	-0.00743735 	1.09526e-22
