/*--------------------------------*- C++ -*----------------------------------*\
  =========                 |
  \\      /  F ield         | OpenFOAM: The Open Source CFD Toolbox
   \\    /   O peration     | Website:  https://openfoam.org
    \\  /    A nd           | Version:  6.0
     \\/     M anipulation  |
\*---------------------------------------------------------------------------*/
FoamFile
{
    version     2.0;
    format      ascii;
    class       volVectorField;
    location    "70";
    object      U;
}
// * * * * * * * * * * * * * * * * * * * * * * * * * * * * * * * * * * * * * //

dimensions      [0 1 -1 0 0 0 0];

internalField   nonuniform List<vector> 
8000
(
(-0.00124981 0.0191135 -4.97355e-21)
(-0.00532371 0.0392874 2.66757e-20)
(-0.0120524 0.0470749 -3.24312e-20)
(-0.0198641 0.0465881 2.4703e-20)
(-0.027983 0.0408136 1.20144e-20)
(-0.0359977 0.0318276 -3.62036e-20)
(-0.0436116 0.0210075 -3.17251e-21)
(-0.0506202 0.00921831 -1.07338e-21)
(-0.0568898 -0.00303277 -1.88492e-20)
(-0.0623377 -0.0154736 -1.01904e-20)
(-0.0669212 -0.0279767 7.59114e-21)
(-0.0706314 -0.0404981 2.8573e-20)
(-0.0734906 -0.0530386 -2.10689e-21)
(-0.0755499 -0.0656236 3.13639e-21)
(-0.0768867 -0.0782941 -2.88664e-20)
(-0.0775994 -0.0911035 1.78044e-20)
(-0.0778017 -0.104115 -2.53578e-20)
(-0.077649 -0.117406 3.85122e-20)
(-0.0773729 -0.131105 -4.82618e-23)
(-0.0769641 -0.145396 8.28245e-21)
(-0.00212822 0.0210579 1.67309e-20)
(-0.00724222 0.0439301 -8.62228e-20)
(-0.0145971 0.0534796 -5.96098e-20)
(-0.0227835 0.0540669 -4.0285e-20)
(-0.0311389 0.048849 -5.20694e-20)
(-0.0393257 0.0400237 1.0934e-20)
(-0.0470902 0.0290591 -6.00899e-20)
(-0.0542497 0.0168867 -1.34862e-20)
(-0.0606791 0.00406545 4.14888e-21)
(-0.0662956 -0.0090895 4.43247e-20)
(-0.0710516 -0.0224112 -4.88349e-20)
(-0.0749309 -0.0358164 6.80655e-20)
(-0.0779479 -0.0492657 -5.11083e-20)
(-0.0801463 -0.0627429 -6.05611e-20)
(-0.0815971 -0.0762463 -8.31398e-20)
(-0.0823909 -0.0897873 5.32071e-20)
(-0.0826356 -0.103389 -1.74711e-20)
(-0.0825122 -0.117096 -6.24026e-20)
(-0.0823127 -0.131013 5.87636e-20)
(-0.0818208 -0.145277 -4.40478e-20)
(-0.00313838 0.0229774 1.67088e-19)
(-0.00942625 0.0485681 8.62213e-20)
(-0.0174139 0.0599466 9.71134e-20)
(-0.0259083 0.0617003 8.18849e-21)
(-0.0343859 0.0571387 5.37283e-20)
(-0.0425962 0.0485716 6.57709e-20)
(-0.0503373 0.037552 -1.22767e-19)
(-0.0574541 0.0250757 -6.428e-20)
(-0.0638336 0.0117517 -8.50084e-20)
(-0.069395 -0.00206272 8.88771e-20)
(-0.0740864 -0.0161619 -6.83921e-20)
(-0.0778844 -0.0304239 -8.93523e-20)
(-0.0807947 -0.0447693 -3.35515e-20)
(-0.0828523 -0.0591391 3.09041e-20)
(-0.0841213 -0.0734871 -8.34024e-21)
(-0.0846844 -0.0877787 1.19153e-20)
(-0.0846452 -0.101992 1.4155e-19)
(-0.0842128 -0.116138 -2.0664e-20)
(-0.0837402 -0.130295 -1.44011e-19)
(-0.0828285 -0.144535 1.89597e-19)
(-0.00426731 0.0248089 5.97112e-20)
(-0.0118394 0.0530666 -8.17015e-20)
(-0.0204365 0.0663101 -2.04967e-20)
(-0.0291395 0.0693112 3.99864e-20)
(-0.03759 0.0655059 1.11361e-19)
(-0.0456384 0.0573014 2.42562e-19)
(-0.0531438 0.0463275 2.37622e-19)
(-0.0599853 0.0336396 2.06678e-20)
(-0.0660654 0.0198939 1.46112e-19)
(-0.071308 0.00548754 2.24152e-19)
(-0.0756582 -0.00933722 -1.77872e-19)
(-0.0790856 -0.0244221 2.64637e-19)
(-0.0815862 -0.0396486 -6.199e-20)
(-0.0831857 -0.0549154 1.47496e-20)
(-0.0839395 -0.0701294 6.27254e-20)
(-0.0839229 -0.0852055 8.38456e-20)
(-0.0832364 -0.100072 -1.33075e-19)
(-0.0821166 -0.114695 -1.11464e-19)
(-0.0809782 -0.129122 -1.95042e-19)
(-0.079281 -0.14334 2.84032e-19)
(-0.00549308 0.0264823 -3.09736e-20)
(-0.0144295 0.0572762 -3.18552e-19)
(-0.023584 0.0723813 -9.44284e-20)
(-0.0323672 0.0766952 -2.29915e-19)
(-0.0406114 0.0737448 8.7926e-20)
(-0.0482803 0.0660145 -1.3727e-19)
(-0.0553034 0.0551993 4.92059e-20)
(-0.0616 0.0424079 -2.92375e-19)
(-0.0670934 0.0283394 1.55877e-19)
(-0.0717145 0.0134271 -1.84195e-19)
(-0.0754077 -0.00205396 -1.63638e-19)
(-0.0781361 -0.0179127 -1.85631e-19)
(-0.0798862 -0.0339951 1.67521e-19)
(-0.0806732 -0.0501586 -1.52968e-19)
(-0.0805432 -0.0662624 2.10922e-19)
(-0.079564 -0.0821664 6.09581e-20)
(-0.0778339 -0.0977388 1.51649e-19)
(-0.0756139 -0.112893 6.50441e-20)
(-0.0733803 -0.12763 -2.6372e-19)
(-0.0705112 -0.14183 4.26571e-19)
(-0.00678459 0.027924 1.40222e-19)
(-0.0171287 0.0610367 9.26834e-21)
(-0.0267625 0.077956 5.76773e-20)
(-0.0354752 0.0836282 2.00022e-19)
(-0.0433107 0.0816267 -2.90155e-20)
(-0.0503568 0.0744874 3.26503e-19)
(-0.056622 0.063956 1.47104e-19)
(-0.0620724 0.0511856 1.276e-20)
(-0.0666565 0.036913 3.77117e-19)
(-0.0703167 0.0216029 1.24548e-19)
(-0.0729991 0.00555795 5.99863e-20)
(-0.0746622 -0.0110032 1.87065e-19)
(-0.0752839 -0.0278961 1.72326e-19)
(-0.0748691 -0.0449411 3.15597e-19)
(-0.0734541 -0.0619506 -2.82254e-19)
(-0.0710993 -0.0787261 4.00252e-19)
(-0.0679016 -0.095067 7.11827e-21)
(-0.0641406 -0.110818 -5.1082e-19)
(-0.0603532 -0.125912 6.64647e-19)
(-0.0559127 -0.140108 2.74008e-19)
(-0.00810238 0.0290639 -8.23291e-20)
(-0.0198556 0.0641907 -1.52087e-19)
(-0.029869 0.082827 -3.14261e-19)
(-0.0383457 0.0898764 -9.45668e-21)
(-0.0455556 0.0889064 5.54984e-20)
(-0.0517186 0.0824745 -4.02094e-19)
(-0.056929 0.0723595 -2.9927e-19)
(-0.0612064 0.0597487 -4.23675e-20)
(-0.0645296 0.0454099 -3.80387e-19)
(-0.0668569 0.0298337 -2.65105e-19)
(-0.06814 0.0133449 -7.72642e-20)
(-0.068336 -0.00381737 -2.50205e-19)
(-0.0674166 -0.0214453 -4.14976e-21)
(-0.0653776 -0.039329 -3.35093e-19)
(-0.0622461 -0.0572385 1.39821e-19)
(-0.0580766 -0.0749165 -1.59899e-19)
(-0.0529644 -0.0920868 1.24173e-19)
(-0.0472006 -0.108507 -1.57599e-19)
(-0.0413789 -0.124016 -4.51889e-19)
(-0.0349599 -0.13823 -1.36662e-19)
(-0.00940084 0.0298405 -3.22646e-20)
(-0.0225193 0.0665934 -3.4963e-20)
(-0.0327966 0.0867948 2.65411e-19)
(-0.040866 0.0952055 -4.35091e-19)
(-0.0472291 0.0953295 6.34096e-20)
(-0.0522416 0.0897127 -2.54136e-19)
(-0.0560891 0.0801469 1.1822e-19)
(-0.0588501 0.0678421 5.39805e-19)
(-0.0605395 0.0535899 -3.39357e-20)
(-0.0611364 0.0379012 -4.06745e-19)
(-0.0606029 0.0211169 7.09465e-20)
(-0.0588993 0.00348939 1.43666e-20)
(-0.0559949 -0.0147593 -8.67666e-20)
(-0.0518797 -0.0333986 6.12591e-21)
(-0.0465736 -0.052165 7.46686e-19)
(-0.0401269 -0.0707478 -1.03885e-19)
(-0.0326347 -0.088792 -2.09958e-19)
(-0.0243908 -0.105951 -3.78185e-19)
(-0.0160386 -0.121938 3.83979e-19)
(-0.00723044 -0.136205 1.63908e-19)
(-0.0106315 0.0302076 1.56515e-19)
(-0.0250255 0.0681248 -2.06918e-19)
(-0.0354413 0.0896816 2.92077e-19)
(-0.0429351 0.0993934 2.955e-19)
(-0.0482363 0.100643 2.7178e-19)
(-0.0518352 0.0959285 5.52119e-19)
(-0.0540118 0.0870343 3.59082e-19)
(-0.0549082 0.0751802 -7.75775e-19)
(-0.0545807 0.0611738 3.99199e-19)
(-0.0530344 0.0455413 3.16138e-19)
(-0.0502476 0.0286342 -6.45309e-21)
(-0.0461891 0.0107111 3.58823e-19)
(-0.0408314 -0.00800096 2.81499e-19)
(-0.0341632 -0.0272627 -1.50788e-19)
(-0.0262011 -0.0467905 5.18373e-19)
(-0.0169945 -0.0662321 -6.41499e-19)
(-0.00664128 -0.0851591 2.59184e-19)
(0.00457062 -0.103108 3.31911e-19)
(0.0159602 -0.119633 -7.46202e-20)
(0.0275718 -0.133994 6.63436e-19)
(-0.0117471 0.0301396 3.21299e-19)
(-0.0272833 0.0687011 1.7518e-20)
(-0.0377082 0.0913439 -1.1456e-19)
(-0.0444698 0.102244 -1.19983e-19)
(-0.0485097 0.104606 -5.63859e-19)
(-0.0504473 0.100849 8.10308e-20)
(-0.0506572 0.0927248 2.28101e-19)
(-0.0493487 0.0814511 -1.11937e-19)
(-0.046624 0.0678439 9.26938e-20)
(-0.0425197 0.0524399 -2.21947e-20)
(-0.0370358 0.0355968 -1.20592e-19)
(-0.0301558 0.0175745 1.17695e-19)
(-0.0218617 -0.00140378 -5.0617e-19)
(-0.0121468 -0.021102 4.8839e-19)
(-0.00102982 -0.0412327 -4.24879e-19)
(0.0114353 -0.0614211 1.30004e-19)
(0.0251438 -0.0811809 3.02474e-19)
(0.0398183 -0.0999299 -5.98123e-20)
(0.054759 -0.117029 -2.05885e-19)
(0.0695954 -0.131523 -1.40327e-19)
(-0.0127064 0.0296351 -4.04215e-19)
(-0.0292124 0.0682828 -2.62511e-20)
(-0.0395182 0.091685 8.53093e-20)
(-0.045408 0.103599 2.19106e-19)
(-0.0480104 0.107007 -3.08509e-19)
(-0.0480634 0.104215 -2.70491e-19)
(-0.0460341 0.0969219 6.35093e-19)
(-0.0422004 0.086329 -3.50933e-19)
(-0.0367142 0.0732535 -2.283e-19)
(-0.0296485 0.0582382 -3.31437e-19)
(-0.0210305 0.0416452 2.20678e-19)
(-0.0108641 0.0237318 -2.482e-21)
(0.000852798 0.00471262 -4.14828e-19)
(0.014115 -0.0151902 -6.86558e-19)
(0.0288952 -0.0357015 5.24552e-19)
(0.0451286 -0.0564472 -4.29736e-19)
(0.0626956 -0.0769094 6.07994e-19)
(0.0813302 -0.0964006 -1.68951e-19)
(0.100339 -0.114063 3.57886e-19)
(0.118835 -0.128698 -1.20423e-18)
(-0.0134784 0.0287183 -8.28315e-19)
(-0.0307507 0.0668806 5.41564e-19)
(-0.0408121 0.0906643 7.28904e-20)
(-0.0457092 0.103356 1.44914e-20)
(-0.0467238 0.10768 -3.34159e-19)
(-0.0446979 0.105802 4.92039e-19)
(-0.040186 0.0993495 5.35227e-20)
(-0.0335345 0.0894946 -1.01309e-19)
(-0.024948 0.0770474 -3.31657e-19)
(-0.0145393 0.0625535 3.58181e-19)
(-0.0023672 0.0463777 9.18345e-19)
(0.0115383 0.0287749 -2.01525e-19)
(0.0271573 0.00994893 4.65542e-19)
(0.0444658 -0.00989745 -5.5286e-19)
(0.06342 -0.0305141 -5.35262e-19)
(0.0839365 -0.0515502 3.19185e-19)
(0.105871 -0.0724896 5.31307e-19)
(0.12896 -0.0925697 -1.72758e-18)
(0.152549 -0.110703 2.01761e-19)
(0.175162 -0.125425 2.72135e-19)
(-0.0140462 0.0274381 6.15328e-19)
(-0.0318584 0.064556 2.05276e-19)
(-0.0415528 0.0883032 1.05186e-18)
(-0.0453508 0.101475 5.46633e-20)
(-0.0446486 0.106516 -1.17289e-19)
(-0.0403754 0.105437 -5.60977e-19)
(-0.0331651 0.0997768 4.75928e-19)
(-0.0234308 0.0906641 8.63969e-19)
(-0.0114301 0.0788954 5.79274e-19)
(0.00268103 0.0650151 4.24144e-19)
(0.018809 0.0493905 3.70296e-19)
(0.0368932 0.0322758 -6.59717e-19)
(0.0568862 0.0138662 -2.07756e-19)
(0.0787372 -0.00565484 -1.56806e-19)
(0.102377 -0.0260678 1.66899e-18)
(0.127694 -0.0470621 -2.87336e-21)
(0.154505 -0.0681563 -4.20018e-19)
(0.182534 -0.0885577 -1.33226e-19)
(0.211195 -0.106957 1.20458e-18)
(0.238407 -0.121599 1.58545e-19)
(-0.0144091 0.0258638 -2.88357e-20)
(-0.032521 0.0614171 -5.81755e-19)
(-0.0417218 0.0846852 -8.65196e-19)
(-0.0443177 0.0979855 -2.41411e-19)
(-0.0417789 0.103485 1.33946e-19)
(-0.0351025 0.103025 2.77759e-20)
(-0.0249923 0.0980467 7.69213e-19)
(-0.0119237 0.0896251 -9.54105e-19)
(0.00379322 0.0785349 -3.64384e-19)
(0.0219589 0.0653156 -7.41873e-19)
(0.0424419 0.0503368 -6.37013e-19)
(0.065147 0.0338548 -5.71139e-19)
(0.0899926 0.0160614 1.43238e-19)
(0.116892 -0.00287369 -1.88454e-19)
(0.145739 -0.0227594 8.11791e-19)
(0.17638 -0.0433314 -4.42259e-19)
(0.208573 -0.0641694 -1.4023e-18)
(0.242004 -0.0845019 -2.83696e-19)
(0.276182 -0.102826 6.93661e-19)
(0.30848 -0.117062 -5.87754e-19)
(-0.0145822 0.0240792 -9.78821e-20)
(-0.0327464 0.0576092 7.16805e-19)
(-0.041313 0.0799509 -9.12268e-19)
(-0.0425887 0.0929922 2.10158e-19)
(-0.0380794 0.0986384 -4.35361e-19)
(-0.0288319 0.0985643 9.72409e-19)
(-0.0156078 0.094104 -6.97685e-19)
(0.00106165 0.0862734 8.02269e-19)
(0.0208168 0.0758183 -7.64339e-19)
(0.0434145 0.0632694 3.29621e-19)
(0.0686828 0.048998 -1.58606e-19)
(0.0964868 0.0332658 -4.06419e-19)
(0.126701 0.0162677 -5.07843e-19)
(0.159191 -0.00183153 5.07537e-19)
(0.193793 -0.0208601 -4.27867e-19)
(0.230289 -0.0405951 -9.42341e-19)
(0.268358 -0.0606899 9.82481e-19)
(0.307602 -0.0804437 -1.25499e-18)
(0.347633 -0.0982051 5.63464e-19)
(0.385468 -0.111511 9.25379e-21)
(-0.0145943 0.0221736 -9.01842e-19)
(-0.032559 0.0533007 -9.69414e-19)
(-0.0403198 0.074286 1.11348e-19)
(-0.0401161 0.0866658 -9.33618e-19)
(-0.0334575 0.0921172 -8.40537e-20)
(-0.0214225 0.0921583 -6.88815e-19)
(-0.00481805 0.0880173 -1.58847e-19)
(0.0157771 0.080646 -4.67049e-19)
(0.039958 0.0707566 3.06013e-21)
(0.0674377 0.0588678 -2.06519e-19)
(0.0979995 0.0453522 1.66768e-20)
(0.131459 0.0304795 -6.0272e-19)
(0.167632 0.0144534 6.71795e-19)
(0.206311 -0.00255659 -9.55213e-19)
(0.247249 -0.0203858 3.42442e-19)
(0.290131 -0.0388406 1.42431e-20)
(0.334522 -0.057645 -5.46328e-19)
(0.37989 -0.0762095 1.35987e-18)
(0.425915 -0.0928 -3.24103e-19)
(0.46959 -0.104441 -2.02308e-19)
(-0.0144821 0.0202329 1.01276e-18)
(-0.0319881 0.0486666 5.44611e-19)
(-0.03872 0.0679052 5.05816e-19)
(-0.0368055 0.0792336 7.50573e-20)
(-0.0277349 0.0841459 6.83335e-19)
(-0.0126037 0.0840225 9.87808e-19)
(0.00774861 0.0799924 8.12105e-19)
(0.0327044 0.0729429 7.40708e-20)
(0.0618164 0.0635507 6.01509e-19)
(0.0947507 0.0523204 9.34298e-19)
(0.131235 0.0396248 -2.44179e-19)
(0.171017 0.025743 4.1057e-19)
(0.213825 0.0108918 3.31782e-19)
(0.259346 -0.00474799 3.40955e-19)
(0.307203 -0.0210088 2.04012e-18)
(0.35694 -0.037713 -7.66432e-19)
(0.40797 -0.0546439 -4.56832e-20)
(0.459571 -0.0713527 8.93293e-19)
(0.511421 -0.0861125 -5.05978e-19)
(0.56094 -0.0951821 2.42321e-19)
(-0.0142829 0.0183303 -8.19215e-19)
(-0.0310537 0.0438706 5.21641e-20)
(-0.036457 0.0610333 -6.5169e-19)
(-0.0324945 0.0709613 -8.46842e-20)
(-0.0206252 0.0750191 4.77592e-19)
(-0.00195061 0.074475 -1.42429e-18)
(0.0226671 0.0703704 -3.20931e-21)
(0.0525767 0.0635324 6.66962e-19)
(0.0872865 0.0546023 6.30961e-19)
(0.126404 0.0440691 -2.77308e-19)
(0.169577 0.032305 9.34942e-20)
(0.216452 0.0195975 2.15146e-19)
(0.266625 0.00617683 -1.01905e-19)
(0.319622 -0.00776284 -1.15961e-18)
(0.374881 -0.0220465 2.93242e-19)
(0.431744 -0.0365043 8.15436e-19)
(0.489426 -0.0509673 -1.16507e-18)
(0.546987 -0.0651468 5.66007e-19)
(0.604023 -0.0774189 1.51801e-19)
(0.658829 -0.082905 7.44824e-19)
(-0.0140259 0.0165187 -1.20071e-19)
(-0.0297501 0.0390499 -5.71068e-19)
(-0.0334238 0.0538849 2.62545e-19)
(-0.0269383 0.0621322 1.55432e-21)
(-0.0117227 0.0650815 -1.14406e-18)
(0.0111197 0.0639184 1.78213e-19)
(0.0407073 0.0596119 -3.46283e-20)
(0.076352 0.0529357 2.33252e-19)
(0.117503 0.0444975 -1.07111e-18)
(0.16368 0.0347693 -7.81676e-20)
(0.214412 0.0241186 -2.57018e-19)
(0.269184 0.0128369 2.24776e-19)
(0.327402 0.00116263 7.71782e-19)
(0.388363 -0.0107011 -1.19206e-19)
(0.451253 -0.0225731 4.81447e-20)
(0.515152 -0.0342861 3.03216e-19)
(0.579018 -0.0457058 -7.78915e-20)
(0.641665 -0.056678 6.20296e-19)
(0.70256 -0.0656828 -3.60463e-19)
(0.760882 -0.0665904 -5.5304e-19)
(-0.0137235 0.0148261 1.12001e-19)
(-0.0280319 0.0343028 2.77176e-20)
(-0.0294501 0.0466472 2.28733e-19)
(-0.0198047 0.0530254 5.59605e-19)
(-0.000509224 0.0547025 3.14378e-19)
(0.0273242 0.052811 3.31013e-20)
(0.0627854 0.0482644 -3.76743e-19)
(0.105129 0.0417904 9.59961e-20)
(0.15371 0.0339636 5.12229e-19)
(0.207907 0.0252344 -8.70067e-19)
(0.267063 0.0159567 6.59069e-19)
(0.33043 0.00641235 -4.98984e-19)
(0.397145 -0.00316794 4.25041e-19)
(0.466219 -0.0125882 -9.19981e-19)
(0.536548 -0.0216726 1.01558e-18)
(0.606938 -0.0302585 -1.08641e-18)
(0.676104 -0.0382173 -2.82709e-19)
(0.74265 -0.0453933 8.7965e-19)
(0.805831 -0.0501955 -2.9851e-19)
(0.863854 -0.0469324 1.24742e-19)
(-0.0133642 0.013254 -8.4347e-20)
(-0.0258034 0.0296839 7.9525e-19)
(-0.024298 0.0394678 -3.46013e-21)
(-0.0106808 0.0438955 -4.93329e-19)
(0.0136201 0.0442486 -3.31768e-19)
(0.0474618 0.0416328 6.08273e-19)
(0.0898758 0.0369204 -2.40973e-19)
(0.140014 0.0307984 -3.02844e-20)
(0.19707 0.0238052 5.07637e-19)
(0.260203 0.0163583 -6.30016e-19)
(0.328474 0.00877954 7.0252e-20)
(0.400812 0.00131581 -8.25621e-19)
(0.476009 -0.00584167 4.36039e-19)
(0.552742 -0.0125406 -1.24735e-18)
(0.629622 -0.0186509 1.98561e-18)
(0.705256 -0.024048 -3.68118e-19)
(0.778308 -0.0285945 3.71711e-19)
(0.847641 -0.031974 -9.63256e-19)
(0.912885 -0.0327319 1.45374e-20)
(0.966899 -0.0320829 9.84987e-19)
(-0.0129081 0.0117804 -2.54683e-19)
(-0.0229147 0.0252046 2.19108e-19)
(-0.0176673 0.0324493 -8.09649e-19)
(0.000905346 0.0349603 1.19773e-18)
(0.031313 0.0340618 -8.65073e-19)
(0.0723385 0.0308525 4.49986e-20)
(0.122897 0.0261732 -9.36594e-19)
(0.181958 0.0206692 6.70735e-19)
(0.248459 0.0148324 -9.51134e-20)
(0.321224 0.00902798 -5.9521e-19)
(0.398926 0.00351694 -3.49249e-19)
(0.480075 -0.0015241 3.70653e-19)
(0.563056 -0.0059848 2.44425e-19)
(0.646191 -0.00980397 -1.07458e-18)
(0.727825 -0.0129532 3.89198e-19)
(0.806414 -0.0154227 -5.68376e-19)
(0.88062 -0.0172079 7.24158e-20)
(0.949408 -0.0182554 -4.62155e-19)
(1.01245 -0.0181021 1.6122e-19)
(1.06593 -0.0179859 -6.55499e-19)
(-0.0122873 0.0103658 7.25056e-19)
(-0.0191652 0.0208427 -4.39525e-19)
(-0.0092087 0.0256537 3.61784e-19)
(0.015455 0.0263957 -4.56599e-19)
(0.0532066 0.024445 7.6454e-19)
(0.102684 0.0209028 -1.29649e-20)
(0.162593 0.0165788 -9.36124e-20)
(0.231608 0.012067 -6.95777e-20)
(0.308281 0.00779233 4.2842e-19)
(0.390976 0.00403769 7.3124e-19)
(0.47787 0.000967031 -4.30605e-19)
(0.566988 -0.00135283 4.20829e-19)
(0.656295 -0.0029301 7.65818e-19)
(0.743797 -0.00382579 -5.35291e-19)
(0.827665 -0.00413276 -1.0712e-18)
(0.906326 -0.00395818 1.94797e-18)
(0.97855 -0.00341153 -3.47037e-19)
(1.04349 -0.00259133 -1.0634e-19)
(1.10086 -0.00142334 1.11042e-18)
(1.14914 1.76771e-05 -2.57053e-19)
(-0.0114094 0.00896306 -1.17716e-18)
(-0.0143139 0.0165568 -7.82605e-19)
(0.00145531 0.0191151 -3.00172e-19)
(0.0334633 0.0183437 5.79693e-19)
(0.0798729 0.0156616 -1.31021e-18)
(0.139073 0.0121692 6.80051e-19)
(0.209433 0.00863332 8.64505e-20)
(0.289189 0.00557394 8.83759e-20)
(0.376359 0.00331625 -8.95174e-19)
(0.468729 0.00202094 -3.15668e-19)
(0.563904 0.00171253 -5.56737e-19)
(0.659419 0.00230969 5.38482e-19)
(0.752881 0.00365738 1.49913e-19)
(0.842113 0.00555899 2.94625e-20)
(0.925281 0.00780521 6.78195e-19)
(1.00098 0.0101967 -6.94107e-19)
(1.06828 0.0125582 -2.64417e-20)
(1.12672 0.0147501 2.58453e-20)
(1.17631 0.0167295 9.99405e-20)
(1.21701 0.0190345 4.70771e-19)
(-0.0101642 0.00752653 3.74326e-19)
(-0.00809438 0.0123051 9.62401e-19)
(0.014708 0.012859 7.71582e-19)
(0.0553862 0.0109289 -2.66385e-19)
(0.111772 0.00794739 9.28594e-19)
(0.181868 0.00499498 -7.83468e-20)
(0.263549 0.00276765 -1.10431e-19)
(0.354444 0.00167349 6.60924e-20)
(0.451901 0.00189202 9.02967e-19)
(0.553038 0.00341359 5.31725e-19)
(0.654884 0.00608082 1.56246e-19)
(0.75456 0.0096349 1.12713e-20)
(0.849474 0.0137632 -1.01318e-18)
(0.937474 0.0181436 8.82723e-19)
(1.01696 0.0224801 1.45372e-19)
(1.08691 0.0265274 -2.46207e-19)
(1.14689 0.0301033 -1.01819e-18)
(1.19697 0.0330945 -7.65573e-20)
(1.23761 0.0354515 3.83642e-19)
(1.2698 0.0380105 -7.18767e-20)
(-0.00843188 0.00602187 -9.45009e-19)
(-0.000230268 0.00806413 3.95148e-19)
(0.0309157 0.00692592 -1.93192e-18)
(0.081611 0.00428249 7.92922e-19)
(0.149216 0.00153158 -6.32935e-19)
(0.231181 -0.000303992 4.66866e-19)
(0.3247 -0.000645452 -7.27273e-19)
(0.426632 0.000748472 6.69951e-20)
(0.533544 0.00385459 -3.78126e-20)
(0.641872 0.0084428 1.96286e-19)
(0.748151 0.0141403 2.80729e-19)
(0.849268 0.0205004 -5.29523e-19)
(0.942672 0.0270674 2.8302e-19)
(1.0265 0.0334297 2.55298e-19)
(1.09964 0.0392557 1.07015e-18)
(1.16165 0.0443121 -4.71682e-19)
(1.21273 0.0484659 -2.94545e-19)
(1.25351 0.0516765 4.90384e-19)
(1.28499 0.0539678 2.40514e-19)
(1.30863 0.0561875 -4.8788e-19)
(-0.00609037 0.00443277 8.24753e-19)
(0.00954843 0.00384504 7.94358e-19)
(0.0504083 0.00139307 2.30517e-19)
(0.112433 -0.00143376 9.69743e-19)
(0.192348 -0.00334083 4.77816e-19)
(0.286854 -0.00342188 -8.62594e-19)
(0.392276 -0.00128209 1.30764e-18)
(0.504564 0.00308301 -6.43519e-19)
(0.619464 0.00938542 6.42255e-19)
(0.732806 0.0171327 8.27936e-19)
(0.840824 0.0257235 -4.73204e-19)
(0.94044 0.0345412 9.04656e-20)
(1.02944 0.0430308 4.92742e-19)
(1.10652 0.0507512 3.4232e-19)
(1.17126 0.0573998 7.71142e-19)
(1.22394 0.0628143 -3.17592e-19)
(1.2654 0.0669561 -4.59116e-20)
(1.29685 0.0698841 4.54509e-19)
(1.31968 0.0717172 -1.01926e-19)
(1.3356 0.0732098 -1.57501e-21)
(-0.00302196 0.00276512 -4.25132e-19)
(0.0214917 -0.000294842 -1.56129e-18)
(0.0734607 -0.00360894 3.68356e-19)
(0.148036 -0.00600955 -2.8074e-19)
(0.241119 -0.00639404 -6.49887e-19)
(0.348452 -0.0040544 -4.66119e-19)
(0.465318 0.00113407 -2.87549e-19)
(0.58668 0.00885976 6.97642e-19)
(0.707521 0.0185138 -4.1393e-19)
(0.823253 0.0293209 -4.25944e-19)
(0.930103 0.0404696 -5.30803e-19)
(1.02535 0.0512242 -8.71176e-20)
(1.10743 0.0610007 -6.35039e-20)
(1.17581 0.069403 -1.19326e-18)
(1.23089 0.0762234 5.63843e-19)
(1.27368 0.081419 -7.4294e-19)
(1.30564 0.0850738 2.18971e-19)
(1.32839 0.0873561 -1.6805e-18)
(1.3436 0.088477 5.09177e-19)
(1.35303 0.0890566 6.14737e-19)
(0.000882405 0.00104817 -1.07164e-19)
(0.0358175 -0.004247 7.57785e-19)
(0.100276 -0.0078884 4.88843e-20)
(0.188473 -0.00917929 1.17322e-19)
(0.295277 -0.00731968 -2.38595e-19)
(0.41527 -0.00190429 -4.70659e-21)
(0.542564 0.00682084 -6.12137e-21)
(0.671153 0.0181509 -1.43993e-19)
(0.795431 0.031121 5.12932e-19)
(0.910702 0.0446864 1.96245e-19)
(1.01354 0.0578817 8.86954e-19)
(1.10192 0.069933 -2.39497e-19)
(1.17516 0.0803135 1.64817e-19)
(1.23366 0.0887467 -1.83537e-20)
(1.27862 0.0951732 4.50736e-19)
(1.31173 0.0996984 2.67974e-19)
(1.3349 0.102536 6.26766e-19)
(1.35003 0.103953 -1.0033e-18)
(1.35891 0.10423 1.23929e-18)
(1.36322 0.103872 -3.91617e-19)
(0.00571988 -0.000666508 -9.82213e-19)
(0.0527008 -0.00785266 -3.08633e-19)
(0.130969 -0.0111943 2.398e-19)
(0.233647 -0.0106282 1.5155e-19)
(0.354356 -0.00578996 1.57572e-19)
(0.486341 0.00329905 1.57865e-19)
(0.622505 0.0159176 -3.98249e-19)
(0.756008 0.0309087 -1.62072e-19)
(0.88096 0.0469521 5.16182e-20)
(0.99294 0.0627902 -4.81618e-19)
(1.08925 0.0773939 -2.14912e-19)
(1.16883 0.0900507 1.29235e-18)
(1.23205 0.100377 -3.34943e-19)
(1.28022 0.108278 -4.49076e-19)
(1.31531 0.113872 -2.04863e-19)
(1.3395 0.117419 1.46157e-19)
(1.35499 0.11925 1.67953e-19)
(1.36379 0.119709 -8.03525e-19)
(1.36765 0.119115 1.14181e-18)
(1.36811 0.117892 -9.86832e-19)
(0.011573 -0.00230741 -1.09031e-19)
(0.0722633 -0.0109086 3.08995e-20)
(0.165551 -0.013227 -4.12583e-20)
(0.283297 -0.0100099 5.94069e-19)
(0.417673 -0.00148258 3.40663e-20)
(0.560477 0.0117719 2.18256e-19)
(0.703474 0.028465 -4.55799e-19)
(0.83927 0.0469643 -1.60544e-20)
(0.962092 0.0656425 6.28397e-19)
(1.06821 0.0831264 8.5994e-20)
(1.15599 0.0984376 -5.39803e-19)
(1.22553 0.111026 -4.79014e-20)
(1.27825 0.120724 -4.30683e-19)
(1.31634 0.127651 4.32283e-19)
(1.34231 0.132113 5.84489e-19)
(1.35868 0.134509 -6.36711e-20)
(1.36776 0.135259 -7.48038e-20)
(1.37151 0.134753 2.27148e-19)
(1.37155 0.133328 -7.14429e-19)
(1.36925 0.131357 6.35896e-19)
(0.018507 -0.00378608 1.1202e-19)
(0.0945633 -0.0131764 -7.15365e-19)
(0.203912 -0.0136547 1.90949e-19)
(0.336987 -0.00697144 -5.97526e-19)
(0.484342 0.00588876 2.06166e-19)
(0.636316 0.023649 -7.63129e-19)
(0.783753 0.044393 3.07719e-19)
(0.919103 0.0660405 -9.86653e-20)
(1.03717 0.0867551 -4.33718e-21)
(1.13532 0.105176 9.82818e-20)
(1.21319 0.120497 -3.55201e-19)
(1.27212 0.132415 -5.01951e-19)
(1.31451 0.141024 -1.00352e-19)
(1.34322 0.14667 -4.5069e-20)
(1.36115 0.149827 -1.13233e-19)
(1.37095 0.151004 -3.60919e-20)
(1.37487 0.150679 -1.08012e-19)
(1.37474 0.149257 -9.27e-20)
(1.37198 0.147075 -2.68166e-19)
(1.36777 0.144477 4.20853e-19)
(0.0265663 -0.00500037 2.64374e-19)
(0.119586 -0.0143934 -2.94093e-19)
(0.245815 -0.012134 6.34181e-19)
(0.394107 -0.00118115 -2.75176e-19)
(0.553304 0.0165453 7.35315e-19)
(0.712403 0.0389648 1.23244e-20)
(0.861683 0.0635233 3.68149e-19)
(0.993931 0.0877784 -1.00154e-19)
(1.10499 0.109824 4.07469e-19)
(1.19362 0.128455 2.73596e-20)
(1.26086 0.143142 9.52966e-19)
(1.30921 0.153895 -6.53869e-19)
(1.34189 0.161082 8.94203e-20)
(1.36224 0.165259 1.67598e-19)
(1.37334 0.167039 8.48903e-19)
(1.37779 0.167004 -3.03867e-19)
(1.37771 0.165656 -5.92089e-20)
(1.37469 0.16339 -3.05167e-19)
(1.36995 0.160534 -2.94755e-20)
(1.36446 0.157413 1.51123e-19)
(0.0357707 -0.00583774 -1.24566e-19)
(0.147237 -0.0142854 3.63214e-19)
(0.29089 -0.00833096 -3.76051e-19)
(0.45389 0.00764469 1.46562e-19)
(0.623378 0.0306213 -1.7883e-19)
(0.787271 0.0576474 6.51126e-19)
(0.935771 0.0855852 -9.22542e-20)
(1.06252 0.111771 2.19573e-19)
(1.1648 0.134394 -1.31077e-19)
(1.24296 0.152541 -4.45012e-21)
(1.29941 0.166045 1.44449e-19)
(1.33769 0.175254 -1.11545e-19)
(1.36161 0.180802 2.87247e-19)
(1.37476 0.183423 -1.4388e-19)
(1.38023 0.183826 -6.16731e-19)
(1.38048 0.182629 6.09187e-19)
(1.37736 0.180329 -2.70071e-19)
(1.37225 0.177294 2.14886e-19)
(1.36615 0.17384 3.66061e-19)
(1.35983 0.170272 1.49833e-19)
(0.0461117 -0.00617891 3.11023e-19)
(0.177335 -0.0125787 -6.41676e-19)
(0.338637 -0.00194166 1.22005e-19)
(0.515439 0.0197203 -8.94776e-20)
(0.693319 0.0481512 -3.63528e-19)
(0.859533 0.0795245 -2.842e-19)
(1.00476 0.11024 -5.65457e-20)
(1.12401 0.137597 -5.02468e-19)
(1.21629 0.16005 -3.08205e-20)
(1.28358 0.177094 -9.25781e-20)
(1.32958 0.188974 -2.4887e-19)
(1.3586 0.196375 -5.56388e-20)
(1.37486 0.200166 -1.87796e-19)
(1.38201 0.201213 -3.08507e-19)
(1.38297 0.200281 3.12639e-19)
(1.37997 0.197992 4.07005e-20)
(1.37462 0.194814 8.09762e-20)
(1.36804 0.191076 -3.51308e-19)
(1.36104 0.187087 -1.01302e-20)
(1.35422 0.18312 -5.32013e-19)
(0.0575491 -0.00590189 3.3678e-19)
(0.209612 -0.00901357 2.25657e-19)
(0.388439 0.00728958 -3.66948e-19)
(0.577763 0.0351748 5.72218e-19)
(0.761889 0.0690685 -6.27449e-20)
(0.927949 0.10434 2.13486e-19)
(1.06769 0.137111 7.3893e-20)
(1.1779 0.164849 2.59429e-19)
(1.25949 0.186434 -2.03215e-19)
(1.31601 0.201852 6.70148e-20)
(1.35222 0.211776 -6.39289e-20)
(1.37302 0.217206 -2.69495e-20)
(1.38276 0.219195 5.26921e-20)
(1.38501 0.218699 -9.57665e-20)
(1.38244 0.216497 -2.8697e-20)
(1.37702 0.213188 -8.82344e-20)
(1.37006 0.209196 -1.4228e-19)
(1.36248 0.204807 9.22859e-20)
(1.3549 0.200326 -1.23452e-19)
(1.3478 0.195981 5.36298e-19)
(0.070009 -0.0048864 -1.66673e-19)
(0.243716 -0.00335629 -4.7561e-19)
(0.439584 0.019555 -6.32502e-20)
(0.639826 0.0540445 -1.84059e-20)
(0.827914 0.093212 -2.13929e-19)
(0.991478 0.131773 -3.51107e-19)
(1.12389 0.165804 1.14119e-19)
(1.22402 0.19315 -1.5676e-19)
(1.29471 0.213248 -1.74027e-19)
(1.34092 0.226621 9.64282e-20)
(1.36825 0.234361 -7.24275e-20)
(1.38192 0.237734 -1.45122e-19)
(1.38626 0.237931 -3.84948e-21)
(1.3846 0.235947 9.82407e-20)
(1.37934 0.232545 -9.84035e-20)
(1.37213 0.22828 1.3675e-19)
(1.36405 0.223525 3.72734e-20)
(1.35582 0.218521 9.15514e-20)
(1.3479 0.213574 1.75402e-19)
(1.34066 0.208854 -1.50134e-19)
(0.0833828 -0.00301878 1.58454e-19)
(0.279216 0.00458859 -1.2519e-20)
(0.491289 0.034972 7.26018e-20)
(0.700592 0.0762708 -9.73617e-20)
(0.890337 0.120339 8.98597e-21)
(1.0493 0.161462 3.37771e-19)
(1.17297 0.195932 -2.20889e-19)
(1.26245 0.222164 9.33393e-20)
(1.32242 0.24025 8.21227e-20)
(1.35906 0.251262 -2.28288e-19)
(1.37854 0.256676 2.13704e-19)
(1.38617 0.257969 2.102e-21)
(1.38612 0.256415 -1.48586e-19)
(1.38142 0.253008 1.78693e-19)
(1.37415 0.248472 -7.03364e-20)
(1.36567 0.243304 5.35565e-20)
(1.35684 0.23782 -6.00822e-20)
(1.3482 0.232222 -2.43522e-20)
(1.34011 0.226824 -2.05494e-19)
(1.33284 0.221714 6.32088e-20)
(0.0975285 -0.000196894 -5.24103e-20)
(0.315621 0.014968 1.42751e-19)
(0.54273 0.0535759 2.26347e-20)
(0.75907 0.101705 9.36531e-20)
(0.948252 0.150139 4.49118e-20)
(1.10084 0.193023 2.11013e-20)
(1.21476 0.227123 1.18286e-19)
(1.29343 0.251597 -1.41916e-20)
(1.34321 0.267244 5.18036e-20)
(1.37118 0.275674 8.27339e-20)
(1.38386 0.278689 3.96746e-20)
(1.38649 0.27792 2.83835e-20)
(1.38296 0.274673 1.14734e-19)
(1.37595 0.269912 -1.10947e-19)
(1.36722 0.264297 2.36992e-20)
(1.35787 0.258263 -2.203e-20)
(1.34856 0.252071 3.41251e-20)
(1.33971 0.245889 2.85e-20)
(1.33158 0.240043 5.88729e-20)
(1.32435 0.234521 2.26291e-21)
(0.112273 0.00366495 3.11647e-20)
(0.352388 0.0278717 2.84069e-20)
(0.593078 0.0753172 -3.95025e-20)
(0.814346 0.130116 2.46953e-20)
(1.00092 0.182255 1.39395e-20)
(1.14571 0.22606 -4.34998e-20)
(1.24931 0.259031 1.4254e-20)
(1.31737 0.281191 2.714e-21)
(1.35767 0.294072 2.44342e-20)
(1.37798 0.299777 -6.55935e-20)
(1.38491 0.300375 -1.78678e-22)
(1.38349 0.297589 1.80159e-20)
(1.37726 0.292716 -1.43665e-20)
(1.36854 0.286659 1.45344e-20)
(1.35878 0.28001 3.77097e-20)
(1.34886 0.273137 -2.13957e-20)
(1.33929 0.266247 6.0053e-21)
(1.33037 0.259484 2.32886e-20)
(1.32228 0.253183 -3.81786e-20)
(1.31516 0.24722 1.84542e-20)
(0.127417 0.00863168 8.52536e-20)
(0.388943 0.0433264 -4.67488e-20)
(0.641522 0.100063 5.52704e-20)
(0.865614 0.161203 -4.11603e-20)
(1.04778 0.216291 -1.84415e-20)
(1.18371 0.260181 5.67527e-21)
(1.27679 0.291332 -1.80482e-20)
(1.33471 0.310719 6.47456e-20)
(1.36641 0.320596 -5.38905e-20)
(1.38008 0.323503 1.26929e-20)
(1.38224 0.321703 -9.41909e-21)
(1.37762 0.316962 -6.12274e-20)
(1.36935 0.310529 5.93596e-20)
(1.35942 0.303229 2.25648e-20)
(1.34899 0.295579 -2.23975e-20)
(1.33874 0.287881 5.25354e-20)
(1.32907 0.280296 -8.12131e-22)
(1.3202 0.272949 -5.07281e-20)
(1.31222 0.266184 3.74342e-20)
(1.30526 0.25975 1.18429e-20)
(0.14274 0.0147439 -2.99546e-20)
(0.424699 0.0612928 8.62899e-20)
(0.6873 0.127602 1.00156e-19)
(0.912193 0.194607 -4.74741e-20)
(1.08843 0.251833 8.2314e-20)
(1.21483 0.295006 1.30337e-19)
(1.29749 0.323728 -7.35409e-21)
(1.34594 0.339979 -2.25031e-20)
(1.36999 0.346694 1.10379e-19)
(1.37803 0.34678 5.38722e-20)
(1.37634 0.342633 -9.79127e-21)
(1.36924 0.336005 8.04002e-20)
(1.3595 0.328074 -8.6208e-20)
(1.34875 0.319576 1.34359e-19)
(1.33793 0.310948 -2.23707e-20)
(1.32755 0.302434 6.4247e-20)
(1.31791 0.294152 1.1599e-20)
(1.30917 0.286216 4.5766e-20)
(1.30137 0.278975 -4.34887e-20)
(1.29461 0.272042 1.07618e-20)
(0.158003 0.0220145 -4.65122e-20)
(0.459074 0.0816641 1.07863e-19)
(0.729719 0.157651 8.05423e-20)
(0.953529 0.229923 -1.22887e-20)
(1.12263 0.288453 1.264e-19)
(1.23912 0.33016 -9.58038e-20)
(1.31173 0.35594 -7.46772e-21)
(1.35153 0.368781 8.36137e-20)
(1.36893 0.372246 2.63238e-20)
(1.37228 0.369534 3.73801e-20)
(1.36755 0.363105 -5.53391e-20)
(1.35863 0.354664 1.44635e-19)
(1.34788 0.345291 2.71081e-20)
(1.33665 0.335631 -1.28277e-19)
(1.32566 0.326044 1.88146e-19)
(1.3153 0.316719 -2.21951e-19)
(1.30581 0.307736 -1.02057e-19)
(1.29727 0.299205 1.70973e-20)
(1.2897 0.291478 9.87568e-20)
(1.2832 0.284021 -1.8792e-19)
(0.172961 0.0304272 -1.02193e-19)
(0.49151 0.104269 -2.42231e-19)
(0.768169 0.189865 -2.10992e-19)
(0.989201 0.266714 -2.8613e-19)
(1.15025 0.325721 -1.6325e-19)
(1.25678 0.365289 -3.38197e-19)
(1.31991 0.387704 4.30756e-20)