/*--------------------------------*- C++ -*----------------------------------*\
  =========                 |
  \\      /  F ield         | OpenFOAM: The Open Source CFD Toolbox
   \\    /   O peration     | Website:  https://openfoam.org
    \\  /    A nd           | Version:  6.0
     \\/     M anipulation  |
\*---------------------------------------------------------------------------*/
FoamFile
{
    version     2.0;
    format      ascii;
    class       surfaceScalarField;
    location    "10.4";
    object      phi;
}
// * * * * * * * * * * * * * * * * * * * * * * * * * * * * * * * * * * * * * //

dimensions      [0 3 -1 0 0 0 0];

internalField   nonuniform List<scalar> 
15760
(
-4.23396e-06
4.33276e-06
-9.88014e-08
-1.4763e-05
1.07615e-05
-2.32391e-07
-3.00495e-05
1.56046e-05
-3.18169e-07
-4.89337e-05
1.92523e-05
-3.68026e-07
-7.05362e-05
2.19941e-05
-3.91715e-07
-9.42016e-05
2.40626e-05
-3.97136e-07
-0.000119457
2.56462e-05
-3.90486e-07
-0.000145981
2.69001e-05
-3.76474e-07
-0.000173575
2.7953e-05
-3.58547e-07
-0.000202149
2.89129e-05
-3.3913e-07
-0.0002317
2.98701e-05
-3.19838e-07
-0.000262298
3.08998e-05
-3.01668e-07
-0.000294076
3.20632e-05
-2.85168e-07
-0.000327214
3.34083e-05
-2.7057e-07
-0.000361926
3.497e-05
-2.57889e-07
-0.000398449
3.67704e-05
-2.46978e-07
-0.00043703
3.88182e-05
-2.37575e-07
-0.000477907
4.11064e-05
-2.29362e-07
-0.000521303
4.36179e-05
-2.21945e-07
4.6353e-05
-2.1495e-07
-0.000567441
-4.14819e-06
8.48095e-06
-1.44784e-05
2.10916e-05
-2.94808e-05
3.06071e-05
-4.80088e-05
3.77803e-05
-6.9187e-05
4.31723e-05
-9.23584e-05
4.72339e-05
-0.000117044
5.03321e-05
-0.000142913
5.2769e-05
-0.000169757
5.4797e-05
-0.000197472
5.66279e-05
-0.000226042
5.84405e-05
-0.000255527
6.03847e-05
-0.000286048
6.25838e-05
-0.000317775
6.51359e-05
-0.000350919
6.81138e-05
-0.000385714
7.15657e-05
-0.000422409
7.55131e-05
-0.000461249
7.99465e-05
-0.000502466
8.48346e-05
9.01788e-05
-0.000546292
-3.98341e-06
1.24644e-05
-1.39299e-05
3.10382e-05
-2.83831e-05
4.50602e-05
-4.62207e-05
5.5618e-05
-6.65756e-05
6.35272e-05
-8.87873e-05
6.94457e-05
-0.000112366
7.39106e-05
-0.000136962
7.73656e-05
-0.000162347
8.01819e-05
-0.000188392
8.26729e-05
-0.000215057
8.51047e-05
-0.000242374
8.77025e-05
-0.000270445
9.06546e-05
-0.000299423
9.41135e-05
-0.000329505
9.81964e-05
-0.000360924
0.000102985
-0.000393932
0.000108521
-0.000428788
0.000114802
-0.000465743
0.00012179
0.000129486
-0.000505051
-3.75158e-06
1.62159e-05
-1.3155e-05
4.04416e-05
-2.68272e-05
5.87324e-05
-4.36806e-05
7.24714e-05
-6.28597e-05
8.27063e-05
-8.37e-05
9.02859e-05
-0.000105695
9.59061e-05
-0.000128473
0.000100143
-0.000151772
0.000103481
-0.000175429
0.00010633
-0.000199365
0.000109041
-0.000223579
0.000111916
-0.000248135
0.000115211
-0.000273161
0.000119139
-0.000298836
0.000123871
-0.000325385
0.000129534
-0.000353067
0.000136204
-0.000382163
0.000143898
-0.000412956
0.000152583
0.000162268
-0.000445737
-3.46916e-06
1.96851e-05
-1.22047e-05
4.91772e-05
-2.49111e-05
7.14387e-05
-4.05425e-05
8.81029e-05
-5.82583e-05
0.000100422
-7.73899e-05
0.000109417
-9.74128e-05
0.000115929
-0.000117924
0.000120655
-0.000138625
0.000124182
-0.000159308
0.000127012
-0.000179844
0.000129578
-0.000200184
0.000132255
-0.000220345
0.000135372
-0.000240415
0.00013921
-0.000260548
0.000144004
-0.000280956
0.000149942
-0.000301907
0.000157154
-0.000323709
0.0001657
-0.000346696
0.000175569
0.000186791
-0.000371219
-3.15548e-06
2.28406e-05
-1.11396e-05
5.71613e-05
-2.27503e-05
8.30494e-05
-3.69881e-05
0.000102341
-5.303e-05
0.000116464
-7.02045e-05
0.000126592
-8.79684e-05
0.000133693
-0.000105887
0.000138573
-0.000123618
0.000141913
-0.000140901
0.000144295
-0.00015755
0.000146227
-0.000173453
0.000148158
-0.000188569
0.000150488
-0.000202933
0.000153574
-0.000216658
0.000157729
-0.000229936
0.00016322
-0.00024304
0.000170258
-0.000256315
0.000178975
-0.000270164
0.000189418
0.000201658
-0.000285031
-2.83084e-06
2.56714e-05
-1.00231e-05
6.43536e-05
-2.04666e-05
9.34928e-05
-3.3209e-05
0.000115083
-4.74476e-05
0.000130703
-6.25108e-05
0.000141655
-7.78387e-05
0.000149021
-9.29653e-05
0.0001537
-0.000107504
0.000156452
-0.000121139
0.00015793
-0.000133619
0.000158707
-0.000144759
0.000159298
-0.000154445
0.000160174
-0.000162642
0.00016177
-0.000169405
0.000164492
-0.000174892
0.000168707
-0.000179373
0.000174739
-0.000183232
0.000182835
-0.000186961
0.000193146
0.000205834
-0.000191136
-2.51449e-06
2.81859e-05
-8.91575e-06
7.07548e-05
-1.81755e-05
0.000102753
-2.93869e-05
0.000126295
-4.17692e-05
0.000143085
-5.46551e-05
0.000154541
-6.74731e-05
0.000161839
-7.97309e-05
0.000165958
-9.10012e-05
0.000167722
-0.000100913
0.000167841
-0.000109146
0.00016694
-0.000115436
0.000165588
-0.000119581
0.000164319
-0.000121459
0.000163648
-0.000121045
0.000164078
-0.000118439
0.000166102
-0.00011389
0.00017019
-0.000107816
0.00017676
-0.000100811
0.000186142
0.000198658
-9.36354e-05
-2.2228e-06
3.04087e-05
-7.86861e-06
7.64006e-05
-1.59746e-05
0.000110859
-2.56738e-05
0.000135994
-3.62089e-05
0.00015362
-4.69223e-05
0.000165254
-5.72385e-05
0.000172155
-6.66478e-05
0.000175367
-7.46904e-05
0.000175765
-8.09466e-05
0.000174098
-8.50317e-05
0.000171026
-8.65984e-05
0.000167155
-8.53486e-05
0.000163069
-8.10528e-05
0.000159352
-7.35817e-05
0.000156607
-6.2945e-05
0.000155465
-4.93383e-05
0.000156583
-3.31926e-05
0.000160614
-1.52137e-05
0.000168163
0.000179838
3.60601e-06
-1.96766e-06
3.23764e-05
-6.91862e-06
8.13516e-05
-1.39329e-05
0.000117873
-2.21749e-05
0.000144236
-3.09106e-05
0.000162356
-3.94973e-05
0.000173841
-4.73653e-05
0.000180023
-5.39993e-05
0.000182001
-5.89208e-05
0.000180686
-6.16748e-05
0.000176851
-6.18221e-05
0.000171173
-5.89397e-05
0.000164273
-5.26304e-05
0.00015676
-4.25459e-05
0.000149268
-2.84249e-05
0.000142486
-1.01487e-05
0.000137189
1.21856e-05
0.000134249
3.81756e-05
0.000134624
6.70188e-05
0.000139319
0.000149415
9.74427e-05
-1.75551e-06
3.41319e-05
-6.08479e-06
8.56809e-05
-1.20835e-05
0.000123872
-1.89353e-05
0.000151087
-2.59268e-05
0.000169347
-3.24341e-05
0.000180348
-3.79027e-05
0.000185492
-4.18251e-05
0.000185923
-4.37208e-05
0.000182582
-4.31186e-05
0.000176249
-3.95447e-05
0.000167599
-3.25172e-05
0.000157245
-2.15515e-05
0.000145794
-6.1795e-06
0.000133896
1.40091e-05
0.000122297
3.92993e-05
0.000111898
6.97494e-05
0.000103799
0.00010505
9.93235e-05
0.000144349
0.000100021
0.000107701
0.000186062
-1.58689e-06
3.57188e-05
-5.36664e-06
8.94606e-05
-1.04198e-05
0.000128925
-1.59332e-05
0.000156601
-2.12074e-05
0.000174621
-2.5638e-05
0.000184779
-2.86914e-05
0.000188545
-2.98794e-05
0.000187111
-2.87364e-05
0.000181439
-2.4797e-05
0.00017231
-1.75795e-05
0.000160381
-6.57245e-06
0.000146238
8.76858e-06
0.000130453
2.90105e-05
0.000113654
5.4709e-05
9.65989e-05
8.63373e-05
8.02699e-05
0.000124164
6.59724e-05
0.000168058
5.54298e-05
0.000217201
5.08776e-05
5.51876e-05
0.000269714
-1.45672e-06
3.71755e-05
-4.74469e-06
9.27486e-05
-8.89587e-06
0.000133076
-1.30803e-05
0.000160785
-1.66003e-05
0.000178141
-1.88648e-05
0.000187044
-1.93606e-05
0.000189041
-1.76239e-05
0.000185375
-1.32154e-05
0.00017703
-5.69529e-06
0.00016479
5.3978e-06
0.000149288
2.05667e-05
0.000131069
4.03699e-05
0.00011065
6.54258e-05
8.8598e-05
9.63956e-05
6.56292e-05
0.000133926
4.27396e-05
0.000178523
2.13749e-05
0.000230319
3.63372e-06
0.000288663
-7.46551e-06
-7.60971e-06
0.00035146
-1.35517e-06
3.85307e-05
-4.18297e-06
9.55764e-05
-7.43176e-06
0.000136325
-1.023e-05
0.000163583
-1.1863e-05
0.000179775
-1.17388e-05
0.000186919
-9.35356e-06
0.000186656
-4.26216e-06
0.000180283
3.94839e-06
0.00016882
1.56827e-05
0.000153056
3.13597e-05
0.000133611
5.14354e-05
0.000110994
7.64255e-05
8.56599e-05
0.000106925
5.80982e-05
0.000143617
2.89375e-05
0.000187245
-8.88809e-07
0.00023852
-2.98995e-05
0.000297879
-5.57255e-05
0.000364991
-7.45776e-05
-8.03655e-05
0.000437747
-1.26884e-06
3.97995e-05
-3.63272e-06
9.79403e-05
-5.92061e-06
0.000138613
-7.19033e-06
0.000164853
-6.68469e-06
0.000179269
-3.78632e-06
0.000184021
2.02144e-06
0.000180848
1.11858e-05
0.000171119
2.4109e-05
0.000155896
4.11685e-05
0.000135996
6.27351e-05
0.000112045
8.91922e-05
8.45365e-05
0.000120959
5.38931e-05
0.000158519
2.05382e-05
0.000202452
-1.49951e-05
0.000253451
-5.18884e-05
0.000312293
-8.87417e-05
0.000379666
-0.000123098
0.000455678
-0.000150589
-0.000163213
0.000538525
-1.18203e-06
4.09815e-05
-3.03661e-06
9.97949e-05
-4.23756e-06
0.000139814
-3.73981e-06
0.000164355
-7.1164e-07
0.000176241
5.5224e-06
0.000177787
1.55261e-05
0.000170844
2.97832e-05
0.000156862
4.87188e-05
0.000136961
7.27115e-05
0.000112003
0.000102102
8.26541e-05
0.000137201
4.94375e-05
0.0001783
1.27938e-05
0.000225696
-2.68576e-05
0.000279728
-6.90273e-05
0.000340837
-0.000112997
0.000409613
-0.000157517
0.000486761
-0.000200246
0.000572791
-0.00023662
-0.000257003
0.000666582
-1.07783e-06
4.20594e-05
-2.33219e-06
0.000101049
-2.24729e-06
0.000139729
3.58867e-07
0.000161749
6.42854e-06
0.000170171
1.67341e-05
0.000167481
3.19285e-05
0.00015565
5.25771e-05
0.000136213
7.91734e-05
0.000110364
0.000112143
7.90337e-05
0.000151838
4.29594e-05
0.000198525
2.75035e-06
0.000252377
-4.10588e-05
0.000313473
-8.79527e-05
0.000381813
-0.000137367
0.000457387
-0.000188571
0.000540275
-0.000240405
0.000630762
-0.000290734
0.000729361
-0.000335219
-0.000363526
0.000835884
-9.38629e-07
4.2998e-05
-1.45419e-06
0.000101565
1.9089e-07
0.000138084
5.34928e-06
0.000156591
1.51108e-05
0.00016041
3.03853e-05
0.000152207
5.19588e-05
0.000134076
8.05245e-05
0.000107648
0.000116694
7.41954e-05
0.000160989
3.47383e-05
0.000213825
-9.87708e-06
0.000275479
-5.89036e-05
0.000346052
-0.000111631
0.000425432
-0.000167333
0.000513269
-0.000225205
0.000608991
-0.000284293
0.000711895
-0.000343309
0.000821327
-0.000400167
0.000936964
-0.000450855
-0.000486095
0.00105953
-7.46237e-07
4.37442e-05
-3.35204e-07
0.000101154
3.22105e-06
0.000134527
1.14772e-05
0.000148335
2.57052e-05
0.000146182
4.69895e-05
0.000130923
7.62867e-05
0.000104779
0.000114456
6.94786e-05
0.000162262
2.63891e-05
0.000220364
-2.3364e-05
0.000289284
-7.87968e-05
0.000369363
-0.000138983
0.000460711
-0.00020298
0.000563137
-0.000269758
0.00067607
-0.000338137
0.000798476
-0.0004067
0.000928814
-0.000473647
0.00106506
-0.000536413
0.00120499
-0.00059078
-0.000630474
0.00134937
-4.81638e-07
4.42259e-05
1.09444e-06
9.95777e-05
6.9904e-06
0.000128631
1.89898e-05
0.000136335
3.85754e-05
0.000126596
6.70336e-05
0.000102464
0.000105514
6.62981e-05
0.000155058
1.99355e-05
0.00021659
-3.5143e-05
0.000290905
-9.76788e-05
0.000378632
-0.000166525
0.000480204
-0.000240554
0.000595813
-0.000318589
0.000725383
-0.000399328
0.00086852
-0.000481275
0.00102445
-0.000562626
0.00119184
-0.000641041
0.00136824
-0.000712812
0.00154752
-0.000770064
-0.00079382
0.00171087
-1.25511e-07
4.43514e-05
2.9057e-06
9.65465e-05
1.16478e-05
0.000119889
2.81334e-05
0.00011985
5.40749e-05
0.000100654
9.09723e-05
6.5567e-05
0.000140167
1.7103e-05
0.000202858
-4.27553e-05
0.000280085
-0.00011237
0.000372703
-0.000190296
0.000481349
-0.000275171
0.000606425
-0.000365631
0.000748104
-0.000460267
0.000906376
-0.000557601
0.00108119
-0.000656085
0.00127269
-0.00075413
0.00148176
-0.000850116
0.00171126
-0.000942307
0.00197006
-0.00102886
-0.00110297
0.00227921
3.44407e-07
4.4007e-05
5.17432e-06
9.17165e-05
1.73459e-05
0.000107718
3.91523e-05
9.80433e-05
7.2541e-05
6.72657e-05
0.000119215
1.88926e-05
0.000180673
-4.43551e-05
0.000258202
-0.000120284
0.00035284
-0.000207009
0.00046534
-0.000302796
0.00059612
-0.000405951
0.000745257
-0.000514767
0.000912495
-0.000627505
0.00109731
-0.000742419
0.00129904
-0.000857816
0.00151707
-0.000972151
0.0017511
-0.00108415
0.0020017
-0.00119291
0.00227084
-0.001298
-0.00139098
0.00255885
9.48827e-07
4.30581e-05
7.97201e-06
8.46934e-05
2.42282e-05
9.14616e-05
5.22702e-05
7.00012e-05
9.42671e-05
2.52688e-05
0.000152087
-3.89275e-05
0.000227309
-0.000119577
0.000321184
-0.000214158
0.000434574
-0.0003204
0.000567894
-0.000436115
0.000721058
-0.000559116
0.00089348
-0.000687189
0.00108409
-0.000818119
0.00129143
-0.000949759
0.00151374
-0.00108012
0.00174909
-0.0012075
0.00199549
-0.00133055
0.00225099
-0.00144841
0.0025136
-0.00156061
-0.00165922
0.00278184
1.7087e-06
4.13494e-05
1.13671e-05
7.5035e-05
3.24241e-05
7.04046e-05
6.7675e-05
3.47503e-05
0.000119472
-2.6528e-05
0.000189772
-0.000109228
0.000280111
-0.000209915
0.000391523
-0.00032557
0.000524458
-0.000453335
0.000678712
-0.000590368
0.00085339
-0.000733794
0.00104694
-0.000880735
0.0012572
-0.00102839
0.00148158
-0.00117413
0.00171713
-0.00131567
0.00196073
-0.0014511
0.00220918
-0.001579
0.00245926
-0.00169849
0.0027078
-0.00180914
-0.00190499
0.00295357
2.64329e-06
3.87062e-05
1.54184e-05
6.22599e-05
4.20363e-05
4.37867e-05
8.54945e-05
-8.70794e-06
0.000148256
-8.92892e-05
0.000232246
-0.000193218
0.000338775
-0.000316444
0.000468422
-0.000455217
0.00062094
-0.000605854
0.000795203
-0.000764631
0.000989226
-0.000927817
0.00120026
-0.00109177
0.00142497
-0.00125309
0.00165961
-0.00140878
0.00190027
-0.00155634
0.00214307
-0.00169389
0.00238427
-0.0018202
0.0026204
-0.00193462
0.00284835
-0.0020371
-0.00212389
0.00306725
3.76904e-06
3.49371e-05
2.01709e-05
4.5858e-05
5.31287e-05
1.0829e-05
0.000105772
-6.13517e-05
0.000180561
-0.000164077
0.000279212
-0.000291869
0.000402569
-0.000439801
0.000550468
-0.000603116
0.000721654
-0.000777039
0.000913796
-0.000956773
0.00112361
-0.00113763
0.00134709
-0.00131525
0.00157977
-0.00148577
0.00181705
-0.00164605
0.00205446
-0.00179375
0.00228792
-0.00192735
0.00251387
-0.00204615
0.00272938
-0.00215013
0.00293217
-0.00223989
-0.00231372
0.003122
5.09857e-06
2.98385e-05
2.56508e-05
2.53057e-05
6.57151e-05
-2.92353e-05
0.000128446
-0.000124083
0.000216134
-0.000251765
0.000330052
-0.000405788
0.000470287
-0.000580036
0.000635606
-0.000768435
0.000823453
-0.000964886
0.00103009
-0.00116341
0.00125088
-0.00135842
0.00148065
-0.00154502
0.00171411
-0.00171924
0.00194626
-0.0018782
0.00217263
-0.00202012
0.00238955
-0.00214428
0.00259425
-0.00225085
0.00278481
-0.00234069
0.00296019
-0.00241526
-0.00247446
0.00312093
6.63983e-06
2.31987e-05
3.18618e-05
8.36888e-08
7.97499e-05
-7.71234e-05
0.000153331
-0.000197664
0.000254503
-0.000352936
0.000383808
-0.000535093
0.000540241
-0.000736469
0.000721192
-0.000949386
0.000922583
-0.00116628
0.0011392
-0.00138003
0.00136518
-0.0015844
0.00159453
-0.00177436
0.00182161
-0.00194632
0.00204156
-0.00209815
0.00225054
-0.00222909
0.0024458
-0.00233954
0.00262573
-0.00243078
0.0027897
-0.00250466
0.00293788
-0.00256345
-0.00260827
0.00307168
8.3952e-06
1.48035e-05
3.87812e-05
-3.03024e-05
9.51191e-05
-0.000133461
0.000180104
-0.000282649
0.000294965
-0.000467797
0.000439179
-0.000679307
0.000610318
-0.000907608
0.000804146
-0.00114321
0.00101498
-0.00137711
0.00123625
-0.00160131
0.00146122
-0.00180937
0.00168355
-0.0019967
0.00189788
-0.00216065
0.00210006
-0.00230033
0.00228732
-0.00241636
0.0024582
-0.00251042
0.00261238
-0.00258495
0.00275042
-0.00264271
0.00287356
-0.00268658
-0.00271854
0.00298383
1.03605e-05
4.44298e-06
4.63567e-05
-6.62985e-05
0.000111634
-0.000198739
0.0002083
-0.000379316
0.000336591
-0.000596087
0.000494567
-0.000837283
0.000678095
-0.00109114
0.000881184
-0.0013463
0.00109664
-0.00159256
0.0013169
-0.00182156
0.00153483
-0.0020273
0.00174439
-0.00220626
0.00194103
-0.00235728
0.00212179
-0.00248109
0.00228525
-0.00257982
0.00243129
-0.00265646
0.00256077
-0.00271443
0.00267523
-0.00275717
0.00277659
-0.00278793
-0.00280916
0.00286721
1.2524e-05
-8.08104e-06
5.45026e-05
-0.000108277
0.000129027
-0.000273263
0.000237314
-0.000487602
0.000378248
-0.000737022
0.000548155
-0.00100719
0.000741008
-0.00128399
0.000949108
-0.0015544
0.00116406
-0.00180752
0.0013778
-0.0020353
0.00158345
-0.00223294
0.00177581
-0.00239863
0.0019516
-0.00253307
0.00210928
-0.00263878
0.00224884
-0.00271937
0.00237133
-0.00277896
0.00247854
-0.00282164
0.0025726
-0.00285124
0.00265576
-0.00287109
-0.00288382
0.00273041
1.48652e-05
-2.29463e-05
6.30985e-05
-0.00015651
0.000146954
-0.000357119
0.000266411
-0.00060706
0.000418657
-0.000889268
0.000598024
-0.00118656
0.000796561
-0.00148253
0.00100511
-0.00176295
0.00121455
-0.00201696
0.00141696
-0.00223771
0.00160626
-0.00242225
0.00177859
-0.00257096
0.00193214
-0.00268662
0.00206684
-0.00277347
0.00218386
-0.0028364
0.00228519
-0.00288028
0.00237315
-0.00290961
0.00245016
-0.00292824
0.00251847
-0.0029394
-0.00294565
0.0025803
1.73541e-05
-4.03004e-05
7.19887e-05
-0.000211145
0.000164997
-0.000450127
0.000294762
-0.000736825
0.000456457
-0.00105096
0.000642292
-0.00137239
0.000842543
-0.00168278
0.00104702
-0.00196742
0.0012465
-0.00221644
0.00143377
-0.00242498
0.00160408
-0.00259255
0.00175509
-0.00272197
0.00188652
-0.00281805
0.00199956
-0.00288651
0.00209632
-0.00293316
0.00217931
-0.00296328
0.00225112
-0.00298141
0.00231412
-0.00299125
0.00237043
-0.00299571
-0.00299713
0.00242191
1.9951e-05
-6.02514e-05
8.09842e-05
-0.000272178
0.000182682
-0.000551824
0.000321478
-0.000875621
0.0004903
-0.00121979
0.000679266
-0.00156136
0.000877216
-0.00188073
0.0010735
-0.00216371
0.0012594
-0.00240235
0.00142894
-0.00259452
0.00157895
-0.00274256
0.00170868
-0.0028517
0.0018192
-0.00292856
0.00191266
-0.00297998
0.00199176
-0.00301225
0.00205925
-0.00303076
0.00211768
-0.00303984
0.00216925
-0.00304282
0.00221576
-0.00304223
-0.00304011
0.00225874
2.26067e-05
-8.28581e-05
8.98688e-05
-0.00033944
0.000199497
-0.000661452
0.000345666
-0.00102179
0.00051895
-0.00139307
0.000707576
-0.00174998
0.000899445
-0.0020726
0.00108406
-0.00234832
0.00125378
-0.00257207
0.00140418
-0.00274492
0.00153375
-0.00287213
0.0016432
-0.00296115
0.00173466
-0.00302002
0.00181092
-0.00305624
0.00187494
-0.00307627
0.00192946
-0.00308528
0.00197682
-0.00308721
0.00201894
-0.00308494
0.00205731
-0.0030806
-0.0030759
0.0020931
2.52637e-05
-0.000108122
9.84065e-05
-0.000412583
0.000214919
-0.000777965
0.000366487
-0.00117336
0.000541366
-0.00156795
0.000726267
-0.00193489
0.000908739
-0.00225507
0.00107903
-0.00251862
0.00123097
-0.00272401
0.00136185
-0.00287579
0.00147171
-0.002982
0.00156248
-0.00305192
0.00163699
-0.00309453
0.0016984
-0.00311765
0.00174966
-0.00312753
0.00179332
-0.00312894
0.00183144
-0.00312532
0.0018656
-0.0031191
0.00189698
-0.00311198
-0.00310539
0.00192647
2.78582e-05
-0.00013598
0.000106353
-0.000491078
0.000228446
-0.000900058
0.000383207
-0.00132812
0.000556778
-0.00174152
0.000734849
-0.00211296
0.000905222
-0.00242544
0.00105939
-0.00267278
0.00119286
-0.00285748
0.00130462
-0.00298755
0.00139608
-0.00307345
0.00147002
-0.00312585
0.00152973
-0.00315424
0.00157841
-0.00316633
0.00161886
-0.00316798
0.00165333
-0.00316341
0.00168355
-0.00315554
0.0017108
-0.00314635
0.00173599
-0.00313718
-0.00312916
0.00175977
3.03225e-05
-0.000166302
0.000113466
-0.000574221
0.000239622
-0.00102621
0.00039525
-0.00148375
0.000564721
-0.00191099
0.000733281
-0.00228152
0.000889536
-0.0025817
0.00102655
-0.0028098
0.00114162
-0.00297255
0.00123523
-0.00308117
0.00130988
-0.0031481
0.0013689
-0.00318488
0.00141575
-0.00320109
0.00145352
-0.00320409
0.0014847
-0.00319917
0.00151124
-0.00318995
0.00153454
-0.00317884
0.0015556
-0.00316741
0.00157512
-0.0031567
-0.0031476
0.00159356
3.25881e-05
-0.000198891
0.000119521
-0.000661154
0.000248067
-0.00115476
0.000402219
-0.0016379
0.000565043
-0.00207381
0.000721919
-0.00243839
0.000862711
-0.00272249
0.000982242
-0.00292933
0.00107949
-0.0030698
0.00115625
-0.00315793
0.00121575
-0.0032076
0.00126165
-0.00323077
0.00129734
-0.00323678
0.00132565
-0.0032324
0.00134876
-0.00322229
0.00136829
-0.00320947
0.00138534
-0.00319589
0.00140069
-0.00318276
0.00141487
-0.00317088
-0.00316092
0.00142819
3.45884e-05
-0.000233479
0.00012432
-0.000750885
0.000253494
-0.00128393
0.000403917
-0.00178832
0.000557881
-0.00222778
0.000701438
-0.00258195
0.000826025
-0.00284708
0.000928263
-0.00303157
0.00100865
-0.00315019
0.00106997
-0.00321925
0.00111595
-0.00325358
0.0011503
-0.00326512
0.00117622
-0.0032627
0.00119622
-0.00325241
0.00121216
-0.00323822
0.00122531
-0.00322262
0.00123657
-0.00320715
0.00124652
-0.00319272
0.00125556
-0.00317991
-0.00316925
0.0012639
3.62662e-05
-0.000269745
0.000127708
-0.000842327
0.000255732
-0.00141196
0.000400349
-0.00193294
0.000543631
-0.00237106
0.000672749
-0.00271107
0.000780897
-0.00295523
0.000866413
-0.00311708
0.000931075
-0.00321485
0.000978392
-0.00326657
0.00101232
-0.0032875
0.00103646
-0.00328926
0.00105373
-0.00327997
0.00106629
-0.00326498
0.00107568
-0.0032476
0.00108291
-0.00322985
0.00108867
-0.00321291
0.00109341
-0.00319746
0.00109742
-0.00318392
-0.00317269
0.00110085
3.75613e-05
-0.000307306
0.000129555
-0.00093432
0.000254689
-0.00153709
0.000391651
-0.0020699
0.000522828
-0.00250224
0.000636846
-0.00282509
0.000728713
-0.00304709
0.000798321
-0.00318669
0.000848468
-0.003265
0.000883125
-0.00330122
0.000906277
-0.00331065
0.000921305
-0.00330429
0.000930792
-0.00328946
0.000936565
-0.00327075
0.000939851
-0.00325089
0.000941455
-0.00323146
0.000941905
-0.00321335
0.000941545
-0.0031971
0.000940592
-0.00318297
-0.00317125
0.000939152
3.84336e-05
-0.00034574
0.000129795
-0.00102568
0.000250402
-0.0016577
0.000378137
-0.00219764
0.000496175
-0.00262027
0.000594822
-0.00292373
0.00067085
-0.00312312
0.000725498
-0.00324134
0.00076232
-0.00330182
0.000785525
-0.00332443
0.000798983
-0.00332411
0.000805776
-0.00331108
0.000808137
-0.00329182
0.000807577
-0.00327019
0.000805073
-0.00324839
0.000801247
-0.00322763
0.000796504
-0.00320861
0.000791109
-0.0031917
0.000785227
-0.00317709
-0.00316495
0.000778935
3.88507e-05
-0.000384591
0.000128404
-0.00111523
0.000242989
-0.00177229
0.000360213
-0.00231486
0.000464432
-0.00272449
0.000547743
-0.00300704
0.000608565
-0.00318394
0.000649246
-0.00328202
0.000673856
-0.00332643
0.000686662
-0.00333724
0.00069131
-0.00332876
0.000690548
-0.00331032
0.000686272
-0.00328754
0.000679708
-0.00326363
0.000671622
-0.0032403
0.000662491
-0.0032185
0.000652625
-0.00319874
0.00064223
-0.00318131
0.000631436
-0.00316629
-0.00315382
0.0006203
3.87921e-05
-0.000423383
0.000125402
-0.00120184
0.000232642
-0.00187953
0.000338356
-0.00242057
0.00042838
-0.00281452
0.000496624
-0.00307529
0.000542982
-0.0032303
0.000570673
-0.00330971
0.000584076
-0.00333983
0.000587373
-0.00334053
0.000583921
-0.00332531
0.000576125
-0.00330252
0.000565567
-0.00327699
0.000553229
-0.00325129
0.0005397
-0.00322677
0.000525343
-0.00320414
0.000510395
-0.0031838
0.000495019
-0.00316593
0.000479321
-0.00315059
-0.00313785
0.000463348
3.82494e-05
-0.000461632
0.000120847
-0.00128444
0.000219609
-0.00197829
0.00031308
-0.00251405
0.000388786
-0.00289022
0.000442396
-0.0031289
0.000475078
-0.00326298
0.000490703
-0.00332534
0.000493782
-0.00334291
0.000488308
-0.00333506
0.000477315
-0.00331431
0.000462875
-0.00328808
0.000446292
-0.0032604
0.000428337
-0.00323333
0.000409458
-0.00320789
0.000389924
-0.00318461
0.000369918
-0.00316379
0.000349572
-0.00314559
0.000328976
-0.00313
-0.00311704
0.000308171
3.72259e-05
-0.000498858
0.000114832
-0.00136205
0.000204176
-0.00206763
0.000284913
-0.00259478
0.000346378
-0.00295169
0.000385893
-0.00316841
0.000405693
-0.00328278
0.000410098
-0.00332974
0.00040361
-0.00333642
0.000389966
-0.00332142
0.000371866
-0.00329621
0.000351072
-0.00326729
0.000328643
-0.00323797
0.000305178
-0.00320987
0.000281009
-0.00318372
0.000256331
-0.00315993
0.000231283
-0.00313874
0.000205973
-0.00312028
0.000180483
-0.00310451
-0.00309141
0.000154856
3.57347e-05
-0.000534593
0.000107471
-0.00143378
0.000186652
-0.00214681
0.000254372
-0.0026625
0.000301827
-0.00299914
0.000327848
-0.00319443
0.000335533
-0.00329047
0.000329476
-0.00332368
0.000314062
-0.00332101
0.00029273
-0.00330008
0.000267854
-0.00327134
0.000240914
-0.00324035
0.000212764
-0.00320982
0.000183861
-0.00318097
0.000154442
-0.0031543
0.000124642
-0.00313013
9.45625e-05
-0.00310866
6.42934e-05
-0.00309001
3.39153e-05
-0.00307413
-0.00306098
3.47776e-06
3.37986e-05
-0.000568391
9.89022e-05
-0.00149889
0.000167353
-0.00221526
0.000221951
-0.0027171
0.00025574
-0.00303293
0.000268896
-0.00320759
0.000265189
-0.00328676
0.000249337
-0.00330783
0.000225532
-0.0032972
0.000196896
-0.00327145
0.00016549
-0.00323993
0.000132553
-0.00320741
9.87649e-05
-0.00317604
6.44685e-05
-0.00314667
2.98248e-05
-0.00311966
-5.08235e-06
-0.00309523
-4.01853e-05
-0.00307356
-7.54074e-05
-0.00305478
-0.000110665
-0.00303887
-0.00302574
-0.000145898
3.14476e-05
-0.000599839
8.92723e-05
-0.00155671
0.000146594
-0.00227258
0.000188112
-0.00275862
0.00020866
-0.00305348
0.000209583
-0.00320851
0.000195151
-0.00327233
0.000170087
-0.00328277
0.000138334
-0.00326545
0.000102692
-0.00323581
6.49405e-05
-0.00320218
2.61052e-05
-0.00316858
-1.32723e-05
-0.00313666
-5.29386e-05
-0.003107
-9.27936e-05
-0.00307981
-0.000132799
-0.00305522
-0.000172919
-0.00303344
-0.000213089
-0.00301461
-0.000253218
-0.00299874
-0.00298574
-0.000293227
2.87183e-05
-0.000628557
7.8736e-05
-0.00160673
0.000124681
-0.00231853
0.000153279
-0.00278722
0.000161063
-0.00306126
0.000150375
-0.00319783
0.000125827
-0.00324778
9.20563e-05
-0.003249
5.272e-05
-0.00322611
1.03074e-05
-0.00319339
-3.36608e-05
-0.00315821
-7.83343e-05
-0.0031239
-0.000123281
-0.00309171
-0.000168314
-0.00306197
-0.000213382
-0.00303474
-0.000258486
-0.00301012
-0.000303624
-0.0029883
-0.000348746
-0.00296949
-0.000393745
-0.00295374
-0.00294096
-0.000438518
2.56519e-05
-0.000654209
6.74504e-05
-0.00164853
0.000101904
-0.00235298
0.00011784
-0.00280315
0.00011337
-0.00305679
9.167e-05
-0.00317613
5.75612e-05
-0.00321367
1.5521e-05
-0.00320696
-3.10956e-05
-0.0031795
-8.00979e-05
-0.00314439
-0.000130193
-0.00310812
-0.000180677
-0.00307342
-0.0002312
-0.00304119
-0.000281621
-0.00301155
-0.000331921
-0.00298444
-0.000382142
-0.0029599
-0.000432315
-0.00293813
-0.000482412
-0.0029194
-0.00053231
-0.00290385
-0.00289141
-0.000581866
2.22932e-05
-0.000676502
5.55711e-05
-0.00168181
7.85369e-05
-0.00237595
8.21412e-05
-0.00280676
6.59482e-05
-0.0030406
3.38098e-05
-0.00314399
-9.3546e-06
-0.00317051
-5.92808e-05
-0.00315703
-0.000112923
-0.00312585
-0.000168372
-0.00308894
-0.000224536
-0.00305195
-0.00028083
-0.00301713
-0.000336962
-0.00298506
-0.000392818
-0.00295569
-0.000448399
-0.00292886
-0.000503776
-0.00290452
-0.000559028
-0.00288288
-0.000614155
-0.00286427
-0.000669023
-0.00284898
-0.002837
-0.000723428
1.86896e-05
-0.000695192
4.32503e-05
-0.00170637
5.48329e-05
-0.00238753
4.64969e-05
-0.00279842
1.9121e-05
-0.00301322
-2.29077e-05
-0.00310196
-7.46638e-05
-0.00311875
-0.000132134
-0.00309956
-0.000192582
-0.00306541
-0.000254359
-0.00302717
-0.000316551
-0.00298976
-0.000378675
-0.002955
-0.000440477
-0.00292325
-0.00050185
-0.00289432
-0.000562793
-0.00286791
-0.000623399
-0.00284391
-0.000683795
-0.00282248
-0.000744031
-0.00280403
-0.00080397
-0.00278904
-0.00277766
-0.000863312
1.48895e-05
-0.000710081
3.06343e-05
-0.00172211
3.10263e-05
-0.00238792
1.11877e-05
-0.00277858
-2.68267e-05
-0.00297521
-7.82198e-05
-0.00305057
-0.000138135
-0.00305884
-0.000202835
-0.00303486
-0.000269885
-0.00299836
-0.00033788
-0.00295917
-0.000406068
-0.00292157
-0.000474054
-0.00288702
-0.000541613
-0.0028557
-0.000608625
-0.00282731
-0.000675065
-0.00280147
-0.00074102
-0.00277796
-0.000806657
-0.00275684
-0.000872094
-0.0027386
-0.000937207
-0.00272393
-0.00271331
-0.00100155
1.09421e-05
-0.000721024
1.7862e-05
-0.00172903
7.3315e-06
-0.00237739
-2.35357e-05
-0.00274771
-7.16423e-05
-0.0029271
-0.000131892
-0.00299032
-0.000199554
-0.00299117
-0.000271182
-0.00296323
-0.000344631
-0.00292491
-0.000418725
-0.00288508
-0.000492865
-0.00284743
-0.000566739
-0.00281314
-0.000640155
-0.00278228
-0.000712975
-0.00275449
-0.000785123
-0.00272932
-0.000856642
-0.00270644
-0.000927709
-0.00268578
-0.00099852
-0.00266779
-0.00106898
-0.00265346
-0.00264375
-0.00113854
6.89577e-06
-0.000727919
5.06378e-06
-0.0017272
-1.60573e-05
-0.00235627
-5.74503e-05
-0.00270632
-0.000115103
-0.00286945
-0.000183713
-0.00292171
-0.00025872
-0.00291617
-0.00033697
-0.00288498
-0.000416601
-0.00284528
-0.000496647
-0.00280503
-0.000576657
-0.00276742
-0.000656415
-0.00273339
-0.000735775
-0.00270292
-0.000814596
-0.00267567
-0.000892751
-0.00265117
-0.000970203
-0.00262899
-0.00104711
-0.00260888
-0.00112375
-0.00259115
-0.00120011
-0.0025771
-0.00256803
-0.00127583
2.7976e-06
-0.000730717
-7.64027e-06
-0.00171676
-3.89666e-05
-0.00232495
-9.03607e-05
-0.00265493
-0.000157013
-0.0028028
-0.000233492
-0.00284523
-0.00031544
-0.00283422
-0.000399994
-0.00280043
-0.000485554
-0.00275971
-0.000571357
-0.00271923
-0.000657098
-0.00268168
-0.00074267
-0.00264781
-0.000828013
-0.00261758
-0.000913026
-0.00259066
-0.000997562
-0.00256663
-0.00108151
-0.00254504
-0.00116497
-0.00252541
-0.00124835
-0.00250777
-0.00133187
-0.00249359
-0.00248378
-0.00141612
-1.30807e-06
-0.000729409
-2.01417e-05
-0.00169793
-6.12448e-05
-0.00228384
-0.000122099
-0.00259407
-0.000197205
-0.00272769
-0.000281065
-0.00276137
-0.000369539
-0.00274575
-0.000460045
-0.00270992
-0.00055123
-0.00266853
-0.000642514
-0.00262794
-0.00073374
-0.00259046
-0.000824937
-0.00255662
-0.000916184
-0.00252633
-0.00100752
-0.00249932
-0.00109888
-0.00247527
-0.00119017
-0.00245375
-0.00128139
-0.00243419
-0.0013729
-0.00241625
-0.0014653
-0.00240119
-0.00238776
-0.00156132
-5.38049e-06
-0.000724028
-3.23457e-05
-0.00167096
-8.27638e-05
-0.00223342
-0.00015253
-0.00252431
-0.000235546
-0.00264468
-0.000326298
-0.00267062
-0.000420868
-0.00265117
-0.000516938
-0.00261385
-0.000613366
-0.0025721
-0.000709734
-0.00253158
-0.00080601
-0.00249418
-0.000902359
-0.00246027
-0.000999043
-0.00242965
-0.00109636
-0.00240201
-0.00119459
-0.00237704
-0.00129395
-0.0023544
-0.00139454
-0.0023336
-0.00149696
-0.00231383
-0.0016035
-0.00229465
-0.00228772
-0.00170354
-9.37113e-06
-0.000714657
-4.41518e-05
-0.00163618
-0.000103397
-0.00217418
-0.000181523
-0.00244618
-0.000271917
-0.00255428
-0.000369081
-0.00257345