/*--------------------------------*- C++ -*----------------------------------*\
  =========                 |
  \\      /  F ield         | OpenFOAM: The Open Source CFD Toolbox
   \\    /   O peration     | Website:  https://openfoam.org
    \\  /    A nd           | Version:  6.0
     \\/     M anipulation  |
\*---------------------------------------------------------------------------*/
FoamFile
{
    version     2.0;
    format      ascii;
    class       surfaceScalarField;
    location    "98";
    object      phi;
}
// * * * * * * * * * * * * * * * * * * * * * * * * * * * * * * * * * * * * * //

dimensions      [0 3 -1 0 0 0 0];

internalField   nonuniform List<scalar> 
24700
(
1.21916e-06
0.000110363
-0.000111583
2.75648e-06
0.000281421
-0.000282958
3.3164e-06
0.000411225
-0.000411785
2.25496e-06
0.000506082
-0.000505021
-5.83953e-07
0.000572022
-0.000569183
-5.02129e-06
0.000614726
-0.000610288
-1.06741e-05
0.000639271
-0.000633618
-1.70569e-05
0.000649961
-0.000643578
-2.36529e-05
0.000650266
-0.00064367
-2.99609e-05
0.000642857
-0.000636549
-3.55222e-05
0.000629682
-0.000624121
-3.99361e-05
0.000612092
-0.000607679
-4.28661e-05
0.000590964
-0.000588034
-4.40426e-05
0.000566827
-0.000565651
-4.3263e-05
0.000539975
-0.000540755
-4.03905e-05
0.000510563
-0.000513435
-3.53522e-05
0.000478684
-0.000483722
-2.81363e-05
0.000444429
-0.000451645
-1.87875e-05
0.000407926
-0.000417275
-7.40292e-06
0.000369368
-0.000380752
5.8738e-06
0.000329016
-0.000342292
2.08583e-05
0.000287193
-0.000302178
3.73296e-05
0.000244271
-0.000260742
5.50213e-05
0.000200622
-0.000218313
0.000156538
-0.000175137
7.36195e-05
1.91771e-06
0.000108446
5.18653e-06
0.000278152
8.21191e-06
0.0004082
1.00996e-05
0.000504195
1.04932e-05
0.000571628
9.42101e-06
0.000615798
7.15988e-06
0.000641532
4.12678e-06
0.000652994
7.98713e-07
0.000653594
-2.34177e-06
0.000645997
-4.84097e-06
0.000632181
-6.2939e-06
0.000613545
-6.35439e-06
0.000591025
-4.73901e-06
0.000565212
-1.22736e-06
0.000536463
4.33999e-06
0.000504996
1.2065e-05
0.000470959
2.19965e-05
0.000434497
3.4135e-05
0.000395788
4.84367e-05
0.000355066
6.4816e-05
0.000312636
8.31452e-05
0.000268864
0.000103251
0.000224165
0.000124895
0.000178978
0.000133682
0.000147751
2.57351e-06
0.000105872
7.50593e-06
0.000273219
1.29447e-05
0.000402761
1.77698e-05
0.000499369
2.14362e-05
0.000567962
2.38236e-05
0.000613411
2.51005e-05
0.000640255
2.56099e-05
0.000652484
2.57832e-05
0.000653421
2.60783e-05
0.000645702
2.69392e-05
0.000631321
2.87703e-05
0.000611714
3.19238e-05
0.000587871
3.66933e-05
0.000560442
4.33138e-05
0.000529843
5.1964e-05
0.000496345
6.27713e-05
0.000460152
7.58177e-05
0.000421451
9.11449e-05
0.00038046
0.000108758
0.000337453
0.000128625
0.000292769
0.000150672
0.000246817
0.000174771
0.000200066
0.00020071
0.000153039
0.000106243
0.000228149
3.17836e-06
0.000102694
9.6857e-06
0.000266712
1.74577e-05
0.000394989
2.5178e-05
0.000491649
3.2128e-05
0.000561012
3.80444e-05
0.000607494
4.29856e-05
0.000635314
4.72159e-05
0.000648254
5.11145e-05
0.000649522
5.51083e-05
0.000641708
5.96247e-05
0.000626804
6.50624e-05
0.000606277
7.17744e-05
0.000581159
8.006e-05
0.000552157
9.01641e-05
0.000519739
0.00010228
0.000484229
0.000116555
0.000445876
0.000133099
0.000404907
0.000151988
0.000361572
0.000173268
0.000316173
0.000196957
0.000269081
0.000223028
0.000220746
0.000251398
0.000171695
0.000281882
0.000122555
7.39934e-05
0.000314132
3.72306e-06
9.89709e-05
1.16928e-05
0.000258742
2.16837e-05
0.000384998
3.22171e-05
0.000481116
4.24201e-05
0.000550809
5.18948e-05
0.00059802
6.05901e-05
0.000626619
6.86876e-05
0.000640156
7.65081e-05
0.000641702
8.44398e-05
0.000633776
9.2887e-05
0.000618357
0.000102236
0.000596928
0.000112835
0.000570561
0.000124983
0.000540008
0.00013893
0.000505792
0.000154879
0.000468281
0.00017299
0.000427765
0.000193392
0.000384505
0.000216189
0.000338775
0.00024146
0.000290901
0.000269262
0.00024128
0.000299613
0.000190395
0.000332472
0.000138836
0.000367684
8.7343e-05
3.67824e-05
0.000404895
4.19756e-06
9.47733e-05
1.34906e-05
0.000249449
2.55467e-05
0.000372942
3.87628e-05
0.000467899
5.21359e-05
0.000537436
6.51451e-05
0.00058501
7.76329e-05
0.000614131
8.96955e-05
0.000628094
0.000101589
0.000629808
0.000113657
0.000621709
0.000126271
0.000605742
0.0001398
0.000583399
0.000154579
0.000555782
0.000170903
0.000523684
0.00018902
0.000487674
0.000209135
0.000448166
0.000231418
0.000405483
0.000256008
0.000359915
0.000283026
0.000311757
0.000312578
0.00026135
0.00034475
0.000209107
0.0003796
0.000155545
0.000417125
0.000101311
0.000457204
4.72647e-05
-5.49506e-06
0.000499481
4.59215e-06
9.01812e-05
1.50422e-05
0.000238999
2.89674e-05
0.000359017
4.46825e-05
0.000452184
6.10817e-05
0.000521036
7.75363e-05
0.000568556
9.37886e-05
0.000597879
0.000109849
0.000612034
0.000125903
0.000613753
0.000142243
0.00060537
0.000159201
0.000588784
0.00017712
0.000565481
0.000196316
0.000536585
0.000217073
0.000502928
0.000239632
0.000465116
0.000264195
0.000423602
0.000290933
0.000378745
0.00031999
0.000330857
0.000351498
0.00028025
0.000385578
0.00022727
0.000422342
0.000172343
0.000461881
0.000116006
0.000504227
5.89642e-05
0.000549293
2.19917e-06
-5.29273e-05
0.000596725
4.89764e-06
8.52835e-05
1.63113e-05
0.000227585
3.18663e-05
0.000343462
4.9839e-05
0.000434212
6.90518e-05
0.000501824
8.87874e-05
0.00054882
0.000108697
0.00057797
0.000128705
0.000592026
0.000148926
0.000593532
0.000169592
0.000584704
0.000190991
0.000567384
0.000213429
0.000543042
0.0002372
0.000512814
0.000262568
0.00047756
0.000289763
0.000437921
0.000318978
0.000394387
0.00035038
0.000347343
0.000384115
0.000297123
0.000420318
0.000244046
0.000459123
0.000188465
0.000500661
0.000130804
0.000545051
7.16162e-05
0.000592364
1.16519e-05
0.000642541
-4.79787e-05
-0.000105615
0.000695229
5.106e-06
8.01775e-05
1.72651e-05
0.000215426
3.41682e-05
0.000326559
5.4099e-05
0.000414281
7.58413e-05
0.000480081
9.86112e-05
0.00052605
0.00012198
0.000554601
0.000145792
0.000568213
0.000170089
0.000569235
0.000195037
0.000559756
0.000220874
0.000541548
0.000247863
0.000516053
0.000276266
0.000484411
0.000306325
0.000447501
0.000338251
0.000405995
0.000372228
0.00036041
0.000408413
0.000311158
0.000446951
0.000258585
0.000487981
0.000203017
0.000531645
0.0001448
0.000578095
8.43538e-05
0.000627479
2.22327e-05
0.000679903
-4.07719e-05
0.000735342
-0.000103418
-0.000163698
0.000793425
5.21095e-06
7.49666e-05
1.78761e-05
0.000202761
3.58078e-05
0.000308627
5.73424e-05
0.000392746
8.12597e-05
0.000456164
0.000106733
0.000500576
0.00013327
0.000528064
0.000160642
0.000540842
0.000188816
0.000541061
0.000217893
0.000530679
0.000248053
0.000511388
0.000279512
0.000484594
0.000312496
0.000451428
0.000347215
0.000412781
0.000383862
0.000369348
0.000422606
0.000321667
0.000463598
0.000270166
0.000506979
0.000215203
0.000552895
0.000157101
0.000601501
9.61948e-05
0.000652969
3.28858e-05
0.000707479
-3.22774e-05
0.000765178
-9.84714e-05
0.000826075
-0.000164315
-0.000227381
0.000889759
5.20846e-06
6.97581e-05
1.81247e-05
0.000189845
3.67354e-05
0.000290016
5.94725e-05
0.000370009
8.5147e-05
0.00043049
0.000112916
0.000472807
0.000142239
0.000498741
0.000172824
0.000510257
0.00020457
0.000509315
0.000237512
0.000497738
0.000271768
0.000477132
0.000307505
0.000448857
0.000344905
0.000414027
0.000384151
0.000373536
0.00042541
0.000328088
0.000468839
0.000278237
0.000514584
0.000224421
0.00056279
0.000166998
0.000613609
0.000106282
0.000667216
4.25879e-05
0.00072381
-2.37077e-05
0.000783606
-9.20735e-05
0.000846794
-0.00016166
0.000913414
-0.000230935
-0.00029696
0.000982993
5.09727e-06
6.46608e-05
1.80016e-05
0.00017694
3.6922e-05
0.000271096
6.04265e-05
0.000346505
8.73905e-05
0.000403526
0.000116981
0.000443217
0.000148629
0.000467093
0.000181993
0.000476893
0.000216911
0.000474398
0.000253352
0.000461297
0.000291378
0.000439106
0.000331103
0.000409132
0.000372669
0.000372461
0.000416226
0.000329979
0.000461923
0.000282391
0.000509907
0.000230253
0.000560325
0.000174003
0.000613329
0.000113993
0.000669089
5.05212e-05
0.000727802
-1.61248e-05
0.000789695
-8.56008e-05
0.00085502
-0.000157399
0.000924007
-0.000230647
0.000996718
-0.000303646
-0.000372832
0.00107259
4.87938e-06
5.97815e-05
1.75098e-05
0.00016431
3.63653e-05
0.00025224
6.01857e-05
0.000322684
8.79417e-05
0.00037577
0.000118836
0.000412323
0.000152294
0.000433635
0.000187937
0.000441249
0.000225553
0.000436781
0.000265058
0.000421792
0.000306458
0.000397706
0.000349821
0.000365768
0.000395253
0.00032703
0.000442878
0.000282354
0.000492832
0.000232436
0.000545261
0.000177824
0.00060032
0.000118945
0.000658177
5.61363e-05
0.000719024
-1.03257e-05
0.00078308
-8.0181e-05
0.000850597
-0.000153118
0.00092185
-0.000228652
0.00099709
-0.000305887
0.00107638
-0.00038294
-0.000455502
0.00115905
4.56054e-06
5.52209e-05
1.66667e-05
0.000152204
3.50941e-05
0.000233813
5.87847e-05
0.000298994
8.68323e-05
0.000347722
0.000118501
0.000380654
0.000153229
0.000398907
0.000190622
0.000403856
0.000230435
0.000396969
0.000272538
0.000379688
0.000316898
0.000353346
0.000363546
0.00031912
0.000412561
0.000278015
0.000464054
0.000230861
0.00051816
0.000178331
0.000575032
0.000120951
0.000634844
5.91333e-05
0.000697787
-6.80636e-06
0.000764072
-7.66112e-05
0.000833934
-0.000150043
0.000907629
-0.000226812
0.000985422
-0.000306444
0.00106755
-0.000388012
0.00115404
-0.000469431
-0.00054554
0.00124408
4.15086e-06
5.107e-05
1.55064e-05
0.000140848
3.31731e-05
0.000216146
5.63199e-05
0.000275847
8.41878e-05
0.000319854
0.000116124
0.000348718
0.000151606
0.000363426
0.000190242
0.000365219
0.000231772
0.000355439
0.000276044
0.000335417
0.000322997
0.000306392
0.000372647
0.000269471
0.000425061
0.000225601
0.000480353
0.000175569
0.000538671
0.000120013
0.000600189
5.9433e-05
0.000665105
-5.78232e-06
0.00073363
-7.53315e-05
0.000805986
-0.000148968
0.000882398
-0.000226455
0.000963084
-0.000307499
0.00104825
-0.000391609
0.00113804
-0.000477806
0.00123241
-0.000563801
-0.00064351
0.00133038
3.66532e-06
4.74047e-05
1.40808e-05
0.000130433
3.07058e-05
0.000199521
5.29555e-05
0.000253597
8.02377e-05
0.000292572
0.000112006
0.00031695
0.000147795
0.000327636
0.000187246
0.000325769
0.000230103
0.000312582
0.000276217
0.000289303
0.000325526
0.000257083
0.000378047
0.000216949
0.000433863
0.000169785
0.000493105
0.000116327
0.000555948
5.717e-05
0.000622594
-7.21302e-06
0.000693261
-7.64497e-05
0.000768169
-0.000150239
0.00084752
-0.000228319
0.000931485
-0.00031042
0.00102019
-0.000396202
0.0011137
-0.000485118
0.001212
-0.000576105
0.00131487
-0.000666676
-0.000749825
0.00142119
3.12423e-06
4.42805e-05
1.24609e-05
0.000121096
2.78367e-05
0.000184146
4.89257e-05
0.000232508
7.53192e-05
0.000266178
0.000106596
0.000285673
0.000142376
0.000291857
0.000182351
0.000285793
0.000226306
0.000268627
0.000274116
0.000241493
0.000325747
0.000205452
0.000381246
0.000161451
0.000440724
0.000110307
0.000504352
5.26997e-05
0.000572333
-1.08116e-05
0.000644894
-7.97736e-05
0.000722254
-0.00015381
0.000804608
-0.000232593
0.00089209
-0.000315801
0.000984754
-0.000403084
0.00108255
-0.000494002
0.00118533
-0.000587899
0.00129283
-0.000683602
0.0014046
-0.000778444
-0.000864583
0.00151936
2.55333e-06
4.17272e-05
1.07364e-05
0.000112913
2.47487e-05
0.000170133
4.45312e-05
0.000212726
6.98713e-05
0.000240838
0.000100493
0.000255052
0.000136121
0.000256228
0.000176533
0.000245382
0.000221575
0.000223585
0.000271181
0.000191887
0.000325369
0.000151263
0.000384237
0.000102584
0.000447943
4.66003e-05
0.000516695
-1.60517e-05
0.000590719
-8.48364e-05
0.00067024
-0.000159294
0.000755439
-0.00023901
0.000846428
-0.000323581
0.000943207
-0.00041258
0.00104564
-0.000505515
0.00115342
-0.000601787
0.00126611
-0.000700584
0.00138311
-0.000800604
0.0015037
-0.000899039
-0.000987373
0.00162649
1.98318e-06
3.9744e-05
9.01261e-06
0.000105884
2.16575e-05
0.000157488
4.0128e-05
0.000194255
6.4418e-05
0.000216548
9.44126e-05
0.000225057
0.000129968
0.000220672
0.000170968
0.000204382
0.000217353
0.0001772
0.000269138
0.000140101
0.000326416
9.39851e-05
0.000389345
3.96551e-05
0.000458132
-2.2186e-05
0.000533004
-9.09245e-05
0.000614183
-0.000166015
0.000701837
-0.000246949
0.000796051
-0.000333223
0.000896776
-0.000424306
0.0010038
-0.000519602
0.00111671
-0.000618426
0.00123489
-0.000719971
0.00135755
-0.000823238
0.00148373
-0.000926787
0.00161244
-0.00102774
-0.00111713
0.0017422
1.44778e-06
3.82962e-05
7.40567e-06
9.99258e-05
1.87999e-05
0.000146094
3.61077e-05
0.000176947
5.95362e-05
0.00019312
8.91471e-05
0.000195446
0.000124947
0.000184872
0.00016695
0.00016238
0.000215211
0.000128939
0.000269845
8.54673e-05
0.000331024
3.28063e-05
0.000398962
-2.82835e-05
0.000473892
-9.7116e-05
0.000556027
-0.000173059
0.000645519
-0.000255507
0.000742418
-0.000343847
0.000846622
-0.000437428
0.000957843
-0.000535527
0.00107557
-0.000637331
0.00119906
-0.000741919
0.00132735
-0.000848253
0.00145925
-0.000955141
0.0015935
-0.00106104
0.00172884
-0.00116308
-0.00125209
0.0018638
9.82148e-07
3.7314e-05
6.03412e-06
9.48738e-05
1.64172e-05
0.000135711
3.28683e-05
0.000160496
5.58117e-05
0.000170176
8.54966e-05
0.000165762
0.000122095
0.000148274
0.000165765
0.000118709
0.000216689
7.80156e-05
0.00027508
2.70761e-05
0.00034118
-3.32934e-05
0.000415232
-0.000102336
0.000497447
-0.000179331
0.000587961
-0.000263572
0.000686782
-0.000354328
0.000793749
-0.000450815
0.000908493
-0.000552171
0.0010304
-0.000657433
0.0011586
-0.000765535
0.00129199
-0.000875305
0.00142922
-0.000985483
0.00156879
-0.00109471
0.00170916
-0.00120141
0.00184891
-0.00130283
-0.0013898
0.00198662
6.19209e-07
3.66948e-05
5.00891e-06
9.04841e-05
1.47347e-05
0.000125985
3.07808e-05
0.00014445
5.37875e-05
0.000147169
8.41967e-05
0.000135352
0.000122352
0.000110119
0.000168559
7.25012e-05
0.000223121
2.34545e-05
0.000286332
-3.61352e-05
0.00035847
-0.000105431
0.000439755
-0.000183621
0.00053031
-0.000269887
0.000630109
-0.000363371
0.00073893
-0.000463148
0.000856312
-0.000568197
0.000981533
-0.000677392
0.0011136
-0.000789497
0.00125125
-0.000903183
0.00139299
-0.00101705
0.00153717
-0.00112966
0.00168202
-0.00123957
0.00182584
-0.00134522
0.00196714
-0.00144414
-0.00152729
0.00210463
3.8644e-07
3.63084e-05
4.42287e-06
8.64477e-05
1.39406e-05
0.000116468
3.01539e-05
0.000128237
5.39114e-05
0.000123412
8.58443e-05
0.00010342
0.000126462
6.95006e-05
0.000176208
2.27551e-05
0.000235478
-3.58156e-05
0.000304613
-0.00010527
0.000383867
-0.000184685
0.000473368
-0.000273122
0.000573065
-0.000369585
0.000682683
-0.000472989
0.000801677
-0.000582142
0.000929213
-0.000695733
0.00106416
-0.000812337
0.0012051
-0.00093044
0.00135039
-0.00104847
0.0014982
-0.00116486
0.00164661
-0.00127807
0.00179369
-0.00138666
0.00193771
-0.00148923
0.00207726
-0.00158368
-0.00166129
0.00221125
3.02891e-07
3.60055e-05
4.34151e-06
8.24091e-05
1.41687e-05
0.00010664
3.12052e-05
0.0001112
5.64936e-05
9.81234e-05
9.08404e-05
6.90728e-05
0.000134903
2.54385e-05
0.00018923
-3.15722e-05
0.00025427
-0.000100856
0.000330349
-0.000181348
0.000417626
-0.000271963
0.000516052
-0.000371547
0.000625312
-0.000478845
0.000744794
-0.000592471
0.000873561
-0.000710909
0.00101035
-0.000832521
0.0011536
-0.000955583
0.00130148
-0.00107833
0.00145201
-0.001199
0.00160306
-0.00131592
0.00175254
-0.00142754
0.00189843
-0.00153255
0.00203903
-0.00162983
0.00217315
-0.00171781
-0.00178837
0.00230024
3.77334e-07
3.56281e-05
4.79744e-06
7.7989e-05
1.5487e-05
9.59509e-05
3.40445e-05
9.26428e-05
6.16832e-05
7.04847e-05
9.93594e-05
3.13966e-05
0.000147844
-2.30461e-05
0.000207747
-9.14757e-05
0.00027951
-0.000172618
0.000363365
-0.000265203
0.000459296
-0.000367893
0.000566982
-0.000479234
0.000685765
-0.000597628
0.000814624
-0.000721329
0.000952178
-0.000848463
0.00109672
-0.000977067
0.00124629
-0.00110515
0.0013987
-0.00123074
0.00155172
-0.00135201
0.00170307
-0.00146727
0.0018506
-0.00157507
0.00199229
-0.00167424
0.00212624
-0.00176378
0.00225058
-0.00184215
-0.00190353
0.00236573
6.07413e-07
3.50207e-05
5.78868e-06
7.28077e-05
1.78959e-05
8.38436e-05
3.86714e-05
7.18673e-05
6.94671e-05
3.9689e-05
0.000111352
-1.04887e-05
0.000165164
-7.6858e-05
0.000231514
-0.000157825
0.000310757
-0.000251862
0.000402956
-0.000357402
0.000507823
-0.00047276
0.000624686
-0.000596097
0.000752467
-0.000725409
0.000889689
-0.000858551
0.00103452
-0.00099329
0.00118482
-0.00112737
0.00133829
-0.00125861
0.00149251
-0.00138497
0.00164513
-0.00150463
0.00179391
-0.00161605
0.00193688
-0.00171805
0.00207238
-0.00180974
0.00219913
-0.00189052
0.00231687
-0.00195989
-0.00201529
0.00242864
9.83144e-07
3.40376e-05
7.28607e-06
6.65048e-05
2.13395e-05
6.97902e-05
4.49915e-05
4.82153e-05
7.96931e-05
4.9874e-06
0.000126579
-5.73746e-05
0.000186493
-0.000136772
0.000259974
-0.000231306
0.000347214
-0.000339102
0.000448008
-0.000458197
0.000561716
-0.000586469
0.000687239
-0.00072162
0.000823026
-0.000861197
0.000967128
-0.00100265
0.00111727
-0.00114343
0.00127097
-0.00128107
0.00142565
-0.0014133
0.00157881
-0.00153812
0.00172809
-0.00165391
0.00187146
-0.00175942
0.00200724
-0.00185383
0.00213422
-0.00193671
0.00225171
-0.00200801
0.00235974
-0.00206792
-0.00211486
0.0024593
1.48658e-06
3.2551e-05
9.23654e-06
5.87548e-05
2.5716e-05
5.33107e-05
5.28375e-05
2.10938e-05
9.21046e-05
-3.42797e-05
0.00014466
-0.000109931
0.000211287
-0.000203399
0.000292369
-0.000312387
0.000387844
-0.000434577
0.000497157
-0.00056751
0.000619233
-0.000708546
0.00075249
-0.000854876
0.000894883
-0.00100359
0.001044
-0.00115177
0.00119719
-0.00129662
0.0013517
-0.00143558
0.00150483
-0.00156643
0.0016541
-0.0016874
0.00179734
-0.00179715
0.0019328
-0.00189488
0.00205918
-0.00198021
0.00217569
-0.00205322
0.00228199
-0.00211432
0.0023782
-0.00216412
-0.00220196
0.0024653
2.09745e-06
3.04536e-05
1.15768e-05
4.92754e-05
3.09007e-05
3.39869e-05
6.20026e-05
-1.00081e-05
0.000106386
-7.86631e-05
0.000165138
-0.000168683
0.000238901
-0.000277161
0.000327819
-0.000401305
0.000431487
-0.000538244
0.000548913
-0.000684936
0.000678528
-0.00083816
0.00081823
-0.000994578
0.000965487
-0.00115085
0.00111748
-0.00130376
0.00127126
-0.00145041
0.00142396
-0.00158827
0.00157288
-0.00171536
0.00171574
-0.00183025
0.00185065
-0.00193206
0.00197627
-0.0020205
0.00209176
-0.0020957
0.00219679
-0.00215824
0.00229143
-0.00220896
0.00237616
-0.00224885
-0.00227801
0.00245221
2.7959e-06
2.76577e-05
1.42424e-05
3.78289e-05
3.67633e-05
1.1466e-05
7.22679e-05
-4.55127e-05
0.000122202
-0.000128597
0.000187524
-0.000234005
0.000268654
-0.000358291
0.000365406
-0.000498057
0.000476941
-0.000649779
0.000601763
-0.000809758
0.00073776
-0.000974158
0.000882312
-0.00113913
0.00103244
-0.00130098
0.00118501
-0.00145633
0.00133692
-0.00160231
0.00148529
-0.00173664
0.00162763
-0.0018577
0.00176195
-0.00196457
0.0018868
-0.00205692
0.00200131
-0.002135
0.00210512
-0.00219951
0.00219834
-0.00225146
0.00228146
-0.00229208
0.00235526
-0.00232265
-0.00234379
0.00242104
3.56505e-06
2.40926e-05
1.71753e-05
2.42186e-05
4.31825e-05
-1.45412e-05
8.34238e-05
-8.5754e-05
0.000139224
-0.000184397
0.000211337
-0.000306118
0.000299869
-0.000446823
0.000404212
-0.0006024
0.000523017
-0.000768584
0.000654225
-0.000940966
0.000795169
-0.0011151
0.000942741
-0.0012867
0.0010936
-0.00145184
0.00124443
-0.00160715
0.00139209
-0.00174998
0.00153391
-0.00187845
0.0016677
-0.0019915
0.00179191
-0.00208877
0.00190558
-0.00217059
0.00200834
-0.00223777
0.00210032
-0.00229149
0.00218202
-0.00233317
0.00225427
-0.00236433
0.00231808
-0.00238646
-0.00240051
0.00237479
4.3924e-06
1.97002e-05
2.0328e-05
8.28297e-06
5.0053e-05
-4.42662e-05
9.52809e-05
-0.000130982
0.000157146
-0.000246263
0.000236114
-0.000385086
0.000331886
-0.000542595
0.000443345
-0.000713859
0.000568562
-0.000893802
0.000704888
-0.00107729
0.00084912
-0.00125933
0.000997733
-0.00143532
0.00114715
-0.00160126
0.001294
-0.001754
0.00143532
-0.0018913
0.00156872
-0.00201186
0.0016925
-0.00211527
0.00180558
-0.00220186
0.00190756
-0.00227256
0.00199853
-0.00232874
0.00207904
-0.002372
0.00214994
-0.00240407
0.00221227
-0.00242666
0.00226719
-0.00244138
-0.00244935
0.00231603
5.26987e-06
1.44303e-05
2.36645e-05
-1.01116e-05
5.7287e-05
-7.78886e-05
0.00010767
-0.000181365
0.000175685
-0.000314277
0.000261415
-0.000470816
0.000364068
-0.000645248
0.000481939
-0.00083173
0.000612476
-0.00102434
0.000752438
-0.00121725
0.000898144
-0.00140504
0.00104577
-0.00158294
0.00119164
-0.00174713
0.0013325
-0.00189486
0.00146571
-0.00202451
0.00158933
-0.00213548
0.00170215
-0.00222809
0.00180367
-0.00230338
0.00189396
-0.00236285
0.00197356
-0.00240834
0.00204336
-0.0024418
0.00210445
-0.00246515
0.002158
-0.00248021
0.00220522
-0.0024886
-0.0024915
0.00224738
6.19293e-06
8.2374e-06
2.71572e-05
-3.10759e-05
6.48093e-05
-0.000115541
0.000120438
-0.000236994
0.000194567
-0.000388406
0.00028681
-0.00056306
0.000395792
-0.000754229
0.000519159
-0.000955097
0.000653717
-0.0011589
0.000795677
-0.00135921
0.000940977
-0.00155034
0.00108563
-0.00172759
0.00122604
-0.00188754
0.00135923
-0.00202805
0.00148299
-0.00214827
0.00159593
-0.00224841
0.00169738
-0.00232955
0.00178737
-0.00239337
0.00186642
-0.0024419
0.00193543
-0.00247735
0.00199551
-0.00250189
0.00204791
-0.00251754
0.00209385
-0.00252615
0.00213452
-0.00252927
-0.00252804
0.00217106
7.15901e-06
1.07839e-06
3.07834e-05
-5.47002e-05
7.25506e-05
-0.000157308
0.000133434
-0.000297878
0.000213523
-0.000468495
0.000311871
-0.000661408
0.000426442
-0.000868801
0.000554199
-0.00108285
0.000691324
-0.00129602
0.000833558
-0.00150145
0.000976593
-0.00169337
0.00111645
-0.00186745
0.00124975
-0.00202085
0.00137396
-0.00215226
0.00148739
-0.0022617
0.00158922
-0.00235023
0.00167934
-0.00241967
0.00175823
-0.00247226
0.0018268
-0.00251047
0.00188619
-0.00253674
0.00193767
-0.00255337
0.00198253
-0.0025624
0.00202198
-0.0025656
0.00205713
-0.00256442
-0.00255991
0.00208899
8.1659e-06
-7.08752e-06
3.45204e-05
-8.10547e-05
8.04398e-05
-0.000203227
0.000146503
-0.000363941
0.000232274
-0.000554266
0.000336161
-0.000765294
0.000455412
-0.000988053
0.000586299
-0.00121374
0.000724436
-0.00143416
0.000865216
-0.00164223
0.00100424
-0.0018324
0.00113769
-0.0020009
0.00126259
-0.00214575
0.00137692
-0.00226659
0.00147957
-0.00236436
0.00157029
-0.00244095
0.00164947
-0.00249885
0.00171799
-0.00254078
0.00177701
-0.00256949
0.00182785
-0.00258759
0.00187185
-0.00259736
0.00191025
-0.00260081
0.00194422
-0.00259957
0.00197475
-0.00259495
-0.00258786
0.0020027
9.2103e-06
-1.62978e-05
3.83418e-05
-0.000110186
8.83977e-05
-0.000253283
0.000159477
-0.00043502
0.000250529
-0.000645318
0.00035924
-0.000874005
0.000482116
-0.00111093
0.000614763
-0.00134639
0.000752328
-0.00157172
0.000889996
-0.00177989
0.00102345
-0.00196585
0.00114919
-0.00212664
0.00126476
-0.00226131
0.00136869
-0.00237053
0.00146051
-0.00245617
0.00154045
-0.0025209
0.00160936
-0.00256775
0.00166839
-0.00259981
0.00171889
-0.00262
0.00176226
-0.00263095
0.00179981
-0.00263491
0.00183274
-0.00263374
0.00186209
-0.00262891
0.00188873
-0.00262158
-0.00261251
0.00191338
1.02869e-05
-2.65847e-05
4.2215e-05
-0.000142114
9.63337e-05
-0.000307402
0.000172172
-0.000510858
0.000267981
-0.000741127
0.000380672
-0.000986697
0.000506004
-0.00123626
0.000638989
-0.00147937
0.000774431
-0.00170717
0.000907474
-0.00191294
0.00103404
-0.00209241
0.00115109
-0.0022437
0.00125674
-0.00236696
0.00135015
-0.00246394
0.00143138
-0.0025374
0.00150114
-0.00259066
0.00156059
-0.0026272
0.0016111
-0.00265032
0.00165412
-0.00266301
0.00169102
-0.00266785
0.00172306
-0.00266696
0.00175135
-0.00266202
0.00177678
-0.00265435
0.00180011
-0.00264491
-0.00263433
0.00182193
1.13878e-05
-3.79725e-05
4.61002e-05
-0.000176827
0.000104145
-0.000365447
0.000184393
-0.000591106
0.000284322
-0.000841056
0.000400038
-0.00110241
0.000526586
-0.00136281
0.000658487
-0.00161127
0.000790354
-0.00183903
0.000917454
-0.00204004
0.0010361
-0.00221105
0.0011438
-0.00235141
0.0012393
-0.00246246
0.00132234
-0.00254698
0.00139348
-0.00260854
0.00145381
-0.00265099
0.0015047
-0.00267809
0.00154766
-0.00269328
0.00158414
-0.00269949
0.00161548
-0.00269919
0.00164282
-0.0026943
0.00166714
-0.00268634
0.00168922
-0.00267643
0.00170969
-0.00266538
-0.00265366
0.00172901
1.25027e-05
-5.04751e-05
4.99505e-05
-0.000214275
0.00011172
-0.000427216
0.000195937
-0.000675323
0.000299248
-0.000944367
0.000416952
-0.00122012
0.00054345
-0.00148931
0.000672901
-0.00174072
0.000799889
-0.00196602
0.000919965
-0.00216011
0.00102994
-0.00232103
0.00112795
-0.00244942
0.00121334
-0.00254785
0.0012864
-0.00262004
0.00134811
-0.00267024
0.00139982
-0.0027027
0.00144308
-0.00272135
0.00147941
-0.0027296
0.00151022
-0.00273031
0.00153676
-0.00272572
0.00156005
-0.0027176
0.00158095
-0.00270724
0.00160011
-0.00269559
0.00161804
-0.00268331
-0.00267073
0.00163512
1.3619e-05
-6.40941e-05
5.37137e-05
-0.000254369
0.000118939
-0.000492441
0.000206597
-0.000762982
0.000312472
-0.00105024
0.00043108
-0.00133872
0.000556279
-0.00161451
0.000682015
-0.00186646
0.000803009
-0.00208702
0.000915227
-0.00227233
0.00101607
-0.00242187
0.0011043
-0.00253765
0.00117985
-0.0026234
0.00124349
-0.00268368
0.00129651
-0.00272326
0.00134046
-0.00274665
0.00137695
-0.00275783
0.00140747
-0.00276013
0.00143336
-0.0027562
0.00145574
-0.0027481
0.00147552
-0.00273738
0.00149341
-0.00272513
0.00150997
-0.00271215
0.00152559
-0.00269894
-0.00268573
0.00154059
1.47224e-05
-7.88165e-05
5.73337e-05
-0.000296981
0.00012568
-0.000560787
0.00021618
-0.000853482
0.000323737
-0.0011578
0.000442152
-0.00145714
0.000564861
-0.00173722
0.000685757
-0.00198735
0.000799848
-0.00220111
0.000903624
-0.00237611
0.000995114
-0.00251336
0.00107371
-0.00261625
0.00113987
-0.00268956
0.00119474
-0.00273855
0.00123985
-0.00276837
0.00127686
-0.00278366
0.00130736
-0.00278834
0.0013328
-0.00278557
0.0013544
-0.00277779
0.00137314
-0.00276684
0.00138981
-0.00275404
0.001405
-0.00274033
0.00141918
-0.00272632
0.00143265
-0.00271241
-0.00269874
0.00144566
1.57975e-05
-9.4614e-05
6.07527e-05
-0.000341936
0.000131824
-0.000631859
0.000224502
-0.00094616
0.000332828
-0.00126613
0.000449971
-0.00157428
0.00056909
-0.00185634
0.000684186
-0.00210245
0.00079068
-0.0023076
0.000885661
-0.00247109
0.000967802
-0.0025955
0.00103708
-0.00268553
0.00109439
-0.00274687
0.00114118
-0.00278534
0.00117915
-0.00280634
0.00120997
-0.00281449
0.0012352
-0.00281357
0.00125617
-0.00280654
0.00127398
-0.0027956
0.00128948
-0.00278235
0.00130335
-0.00276791
0.00131607
-0.00275305
0.00132801
-0.00273826
0.00133943
-0.00272383
-0.00270981
0.00135051
1.68279e-05
-0.000111442
6.39135e-05
-0.000389022
0.000137261
-0.000705207
0.000231407
-0.00104031
0.000339576
-0.00137429
0.000454417
-0.00168912
0.000568968
-0.00197089
0.000677477
-0.00221096
0.000775888
-0.00240601
0.000861926
-0.00255713
0.000934891
-0.00266846
0.000995277
-0.00274592
0.00104435
-0.00279594
0.00108378
-0.00282477
0.00111531
-0.00283787
0.00114063
-0.0028398
0.00116118
-0.00283413
0.00117819
-0.00282355
0.00119261
-0.00281002
0.00120518
-0.00279492
0.00121647
-0.00277919
0.00122687
-0.00276345
0.00123668
-0.00274807
0.0012461
-0.00273325
-0.00271899
0.00125527
1.77975e-05
-0.000129239
6.67612e-05
-0.000437985
0.00014189
-0.000780335
0.000236765
-0.00113518
0.000343864
-0.00148139
0.00045545
-0.00180071
0.000564586
-0.00208002
0.000665903
-0.00231228
0.000755935
-0.00249604
0.000833056
-0.00263425
0.000897149
-0.00273256
0.000949154
-0.00279792
0.000990624
-0.00283741
0.00102335
-0.0028575
0.00104912
-0.00286364
0.00106951
-0.0028602
0.00108589
-0.00285051
0.00109934
-0.00283699
0.00111068
-0.00282136
0.00112055
-0.00280479
0.00112941
-0.00278805
0.00113759
-0.00277163
0.00114532
-0.0027558
0.00115277
-0.0027407
-0.00272625
0.00116003
1.86904e-05
-0.00014793
6.9245e-05
-0.00048854
0.000145624
-0.000856714
0.000240478
-0.00123004
0.00034563
-0.00158654
0.0004531
-0.00190818
0.000556122
-0.00218304
0.00064981
-0.00240597
0.000731334
-0.00257757
0.000799699
-0.00270261
0.000855316
-0.00278817
0.00089949
-0.00284209
0.000933975
-0.0028719
0.000960632
-0.00288415
0.0009812
-0.0028842
0.000997181
-0.00287618
0.0010098
-0.00286312
0.00102
-0.00284719
0.0010285
-0.00282987
0.00103583
-0.00281212
0.00104237
-0.00279459
0.00104839
-0.00277764
0.00105406
-0.00276148
0.00105953
-0.00274616
-0.0027316
0.00106487
1.94914e-05
-0.000167421
7.13201e-05
-0.000540369
0.000148393
-0.000933787
0.000242481
-0.00132412
0.000344865
-0.00168893
0.000447464
-0.00201078
0.000543816
-0.0022794
0.000629596
-0.00249175
0.000702622
-0.00265059
0.000762499
-0.00276249
0.000810091
-0.00283576
0.00084699
-0.00287899
0.00087508
-0.00289999
0.000896229
-0.0029053
0.000912101
-0.00290008
0.000924081
-0.00288816
0.000933259
-0.0028723
0.000940462
-0.00285439
0.000946295
-0.0028357
0.000951197
-0.00281702
0.000955479
-0.00279887
0.000959357
-0.00278152
0.000962985
-0.00276511
0.00096646
-0.00274964
-0.00273499
0.000969853
2.01867e-05
-0.000187608
7.29484e-05
-0.00059313
0.000150148
-0.00101099
0.000242743
-0.00141672
0.000341606
-0.00178779
0.000438693
-0.00210786
0.000527957
-0.00236866
0.000605686
-0.00256947
0.000670341
-0.00271525
0.000722069
-0.00281422
0.000762113
-0.00287581
0.00079228
-0.00290916
0.000814518
-0.00292223
0.000830654
-0.00292144
0.000842253
-0.00291168
0.000850572
-0.00289648
0.000856569
-0.0028783
0.000860955
-0.00285878
0.000864239
-0.00283898
0.000866784
-0.00281957
0.000868844
-0.00280093
0.000870596
-0.00278327
0.000872162
-0.00276667
0.000873622
-0.0027511
-0.0027364
0.000875033
2.0764e-05
-0.000208372
7.40993e-05
-0.000646466
0.000150854
-0.00108774
0.000241269
-0.00150713
0.000335934
-0.00188246
0.000426983
-0.00219891
0.00050887
-0.00245055
0.000578523
-0.00263913
0.000635017
-0.00277174
0.000678978
-0.00285818
0.00071196
-0.00290879
0.000735906
-0.00293311
0.000752779
-0.0029391
0.000764331
-0.00293299
0.000772009
-0.00291935
0.000776937
-0.00290141
0.000779951
-0.00288131
0.000781654
-0.00286048
0.000782471
-0.0028398
0.000782702
-0.0028198
0.000782554
-0.00280078
0.000782173
-0.00278289
0.000781658