/*--------------------------------*- C++ -*----------------------------------*\
  =========                 |
  \\      /  F ield         | OpenFOAM: The Open Source CFD Toolbox
   \\    /   O peration     | Website:  https://openfoam.org
    \\  /    A nd           | Version:  6.0
     \\/     M anipulation  |
\*---------------------------------------------------------------------------*/
FoamFile
{
    version     2.0;
    format      ascii;
    class       volVectorField;
    location    "94";
    object      U;
}
// * * * * * * * * * * * * * * * * * * * * * * * * * * * * * * * * * * * * * //

dimensions      [0 1 -1 0 0 0 0];

internalField   nonuniform List<vector> 
4000
(
(-0.000988692 -0.0121747 -5.29901e-21)
(-0.00536887 -0.041817 2.83769e-20)
(-0.0134586 -0.0737645 -3.45158e-20)
(-0.0231435 -0.105663 2.62867e-20)
(-0.0333741 -0.136137 1.27809e-20)
(-0.0435333 -0.164605 -3.84751e-20)
(-0.053115 -0.19095 -3.37744e-21)
(-0.0617249 -0.215266 -1.15694e-21)
(-0.0690814 -0.237683 -2.00012e-20)
(-0.0750082 -0.25827 -1.08205e-20)
(-0.0794282 -0.277011 8.05959e-21)
(-0.0823528 -0.293822 3.0458e-20)
(-0.0838677 -0.308595 -2.25259e-21)
(-0.0841136 -0.321241 3.31673e-21)
(-0.0832713 -0.331731 -3.07619e-20)
(-0.0815587 -0.340118 1.89666e-20)
(-0.0791982 -0.346554 -2.71172e-20)
(-0.0762202 -0.351279 4.10876e-20)
(-0.0724261 -0.354623 -4.73219e-23)
(-0.0691743 -0.357082 8.87e-21)
(-0.000983083 -0.00917517 1.77205e-20)
(-0.0055793 -0.034916 -9.10716e-20)
(-0.0145116 -0.0644349 -6.30301e-20)
(-0.0252812 -0.0949154 -4.26753e-20)
(-0.0366855 -0.124737 -5.50893e-20)
(-0.0480408 -0.153177 1.17079e-20)
(-0.0587919 -0.18002 -6.35673e-20)
(-0.0685125 -0.205277 -1.42617e-20)
(-0.0769027 -0.228989 4.43686e-21)
(-0.0837768 -0.251134 4.70168e-20)
(-0.0890533 -0.271598 -5.16458e-20)
(-0.0927426 -0.290202 7.19167e-20)
(-0.0949324 -0.306744 -5.39183e-20)
(-0.0957697 -0.321055 -6.38515e-20)
(-0.0954463 -0.333041 -8.76946e-20)
(-0.0941966 -0.342711 5.60949e-20)
(-0.092259 -0.350191 -1.81923e-20)
(-0.0896854 -0.355709 -6.56908e-20)
(-0.0863427 -0.359589 6.2029e-20)
(-0.0835921 -0.362383 -4.62643e-20)
(-0.00123612 -0.00559012 1.75301e-19)
(-0.00629085 -0.0267209 9.09619e-20)
(-0.0160682 -0.0534159 1.02446e-19)
(-0.0277905 -0.0822711 8.63101e-21)
(-0.0401579 -0.111351 5.67221e-20)
(-0.0524538 -0.139745 6.96406e-20)
(-0.0640988 -0.167113 -1.29424e-19)
(-0.0746524 -0.193364 -6.78374e-20)
(-0.0838085 -0.218447 -8.9461e-20)
(-0.0913784 -0.242248 9.3846e-20)
(-0.0972783 -0.264559 -7.20504e-20)
(-0.101516 -0.285103 -9.36861e-20)
(-0.104179 -0.303586 -3.48061e-20)
(-0.105414 -0.31975 3.23415e-20)
(-0.105422 -0.333421 -8.66619e-21)
(-0.104451 -0.344548 1.27311e-20)
(-0.102756 -0.353216 1.47754e-19)
(-0.100416 -0.359627 -2.13365e-20)
(-0.0973629 -0.364095 -1.4976e-19)
(-0.0949594 -0.367228 1.98583e-19)
(-0.00178244 -0.00153619 6.22246e-20)
(-0.00753837 -0.0174754 -8.59674e-20)
(-0.0181034 -0.0410018 -2.17606e-20)
(-0.0305672 -0.0680332 4.18887e-20)
(-0.0436044 -0.0962612 1.17143e-19)
(-0.0565054 -0.124552 2.55579e-19)
(-0.0686947 -0.152414 2.50297e-19)
(-0.0797365 -0.179645 2.16349e-20)
(-0.0893301 -0.206105 1.53718e-19)
(-0.0972904 -0.231592 2.35459e-19)
(-0.103533 -0.255812 -1.86484e-19)
(-0.108062 -0.278398 2.77439e-19)
(-0.110958 -0.298961 -6.38415e-20)
(-0.112367 -0.317146 1.56968e-20)
(-0.11249 -0.332689 6.48935e-20)
(-0.111588 -0.345455 8.61427e-20)
(-0.109933 -0.355467 -1.36719e-19)
(-0.107631 -0.362882 -1.13508e-19)
(-0.104678 -0.367996 -1.9879e-19)
(-0.102451 -0.371465 2.92175e-19)
(-0.0026352 0.00283175 -3.22128e-20)
(-0.00931784 -0.00749198 -3.33516e-19)
(-0.0205522 -0.0275642 -9.92417e-20)
(-0.0334724 -0.0525764 -2.41873e-19)
(-0.0468104 -0.0798124 9.23969e-20)
(-0.0599069 -0.107888 -1.44569e-19)
(-0.072219 -0.136144 5.17717e-20)
(-0.0833344 -0.164264 -3.07484e-19)
(-0.0929698 -0.192021 1.63773e-19)
(-0.10095 -0.219139 -1.93376e-19)
(-0.107192 -0.245251 -1.71378e-19)
(-0.111696 -0.269911 -1.93479e-19)
(-0.114533 -0.29264 1.74139e-19)
(-0.11584 -0.312984 -1.57656e-19)
(-0.115817 -0.330569 2.17524e-19)
(-0.114729 -0.345159 6.2166e-20)
(-0.112863 -0.356686 1.53631e-19)
(-0.110355 -0.365234 6.57936e-20)
(-0.107263 -0.371059 -2.64818e-19)
(-0.105002 -0.374861 4.34531e-19)
(-0.00378192 0.00732615 1.45821e-19)
(-0.0115817 0.00285721 9.5495e-21)
(-0.0233109 -0.0135389 6.04851e-20)
(-0.0363403 -0.0363371 2.1023e-19)
(-0.0495467 -0.062405 -3.04263e-20)
(-0.0623643 -0.0900938 3.43932e-19)
(-0.0743107 -0.11857 1.55125e-19)
(-0.0850155 -0.147403 1.36482e-20)
(-0.0942237 -0.176285 3.96501e-19)
(-0.101777 -0.204883 1.30481e-19)
(-0.107598 -0.232774 6.27254e-20)
(-0.111684 -0.259451 1.95134e-19)
(-0.114095 -0.284357 1.78574e-19)
(-0.114954 -0.306938 3.24439e-19)
(-0.114453 -0.326705 -2.89862e-19)
(-0.112856 -0.343296 4.05235e-19)
(-0.110466 -0.356517 3.92837e-21)
(-0.10744 -0.366345 -5.11333e-19)
(-0.103896 -0.372962 6.59214e-19)
(-0.101332 -0.377097 2.74256e-19)
(-0.00518292 0.0117409 -8.5334e-20)
(-0.0142399 0.0131634 -1.59018e-19)
(-0.0262425 0.000593222 -3.3043e-19)
(-0.0389895 -0.0198009 -1.02468e-20)
(-0.051586 -0.0444923 5.88876e-20)
(-0.0635997 -0.0715697 -4.24266e-19)
(-0.074635 -0.100023 -3.15924e-19)
(-0.0843794 -0.129308 -4.48571e-20)
(-0.0926172 -0.159051 -4.00651e-19)
(-0.0992146 -0.188875 -2.78458e-19)
(-0.104107 -0.218324 -8.10627e-20)
(-0.107288 -0.246852 -2.61165e-19)
(-0.108812 -0.273842 -5.09878e-21)
(-0.108786 -0.298654 -3.45723e-19)
(-0.107386 -0.320681 1.42051e-19)
(-0.104875 -0.339417 -1.63021e-19)
(-0.10156 -0.354511 1.22665e-19)
(-0.0976208 -0.365784 -1.59902e-19)
(-0.0932251 -0.373293 -4.453e-19)
(-0.090016 -0.377773 -1.36041e-19)
(-0.00677281 0.0158655 -3.411e-20)
(-0.0171643 0.0230041 -3.71594e-20)
(-0.0291872 0.014327 2.794e-19)
(-0.0412372 -0.00348848 -4.59474e-19)
(-0.0527215 -0.0265744 6.66523e-20)
(-0.0633759 -0.0527734 -2.69954e-19)
(-0.0729133 -0.0809045 1.24893e-19)
(-0.0810939 -0.110315 5.71981e-19)
(-0.087751 -0.140571 -3.65029e-20)
(-0.0927829 -0.171269 -4.29337e-19)
(-0.0961437 -0.201941 7.42385e-20)
(-0.0978353 -0.232028 1.58754e-20)
(-0.0979051 -0.260882 -8.83397e-20)
(-0.0964491 -0.287799 9.17659e-21)
(-0.0936281 -0.312067 7.61057e-19)
(-0.0896957 -0.333029 -1.07734e-19)
(-0.0849639 -0.350149 -2.09184e-19)
(-0.0796221 -0.36304 -3.68211e-19)
(-0.0738798 -0.371561 3.75091e-19)
(-0.0696006 -0.376415 1.61447e-19)
(-0.00846518 0.0195025 1.63787e-19)
(-0.0201982 0.0319715 -2.17633e-19)
(-0.0319734 0.0271599 3.07734e-19)
(-0.0429143 0.0120648 3.13325e-19)
(-0.0527867 -0.00918568 2.88394e-19)
(-0.0615207 -0.0342192 5.86875e-19)
(-0.0689557 -0.0616954 3.8213e-19)
(-0.0749361 -0.0908583 -8.26258e-19)
(-0.0793522 -0.12122 4.24875e-19)
(-0.0821425 -0.15236 3.35465e-19)
(-0.083288 -0.183819 -7.93135e-21)
(-0.0828065 -0.215048 3.76445e-19)
(-0.0807501 -0.245402 2.90641e-19)
(-0.0772097 -0.274149 -1.57368e-19)
(-0.0723343 -0.300498 5.26236e-19)
(-0.0663685 -0.323656 -6.49936e-19)
(-0.0596269 -0.342892 2.57344e-19)
(-0.0523025 -0.357554 3.24442e-19)
(-0.0446276 -0.367224 -7.25085e-20)
(-0.0387702 -0.372503 6.45635e-19)
(-0.0101604 0.022485 3.37876e-19)
(-0.0231684 0.0397013 1.95219e-20)
(-0.034432 0.0386207 -1.20779e-19)
(-0.0438795 0.026333 -1.26712e-19)
(-0.0516704 0.00712349 -6.01111e-19)
(-0.057946 -0.0164652 8.71937e-20)
(-0.0626854 -0.0429514 2.43778e-19)
(-0.0658256 -0.0714812 -1.20873e-19)
(-0.0673207 -0.101515 9.9931e-20)
(-0.0671553 -0.13262 -2.35712e-20)
(-0.0653452 -0.164356 -1.28249e-19)
(-0.0619341 -0.196207 1.26163e-19)
(-0.0569909 -0.22756 -5.26715e-19)
(-0.0506135 -0.257695 5.09478e-19)
(-0.0429486 -0.285788 -4.33465e-19)
(-0.034237 -0.310952 1.33789e-19)
(-0.0247996 -0.332269 2.98754e-19)
(-0.0148295 -0.348799 -6.26951e-20)
(-0.00455742 -0.359745 -2.00135e-19)
(0.00346839 -0.365519 -1.36037e-19)
(-0.0117552 0.0246911 -4.28032e-19)
(-0.0259005 0.0459006 -2.9012e-20)
(-0.0364084 0.0482991 9.08979e-20)
(-0.0440285 0.0388279 2.35285e-19)
(-0.0493244 0.0218122 -3.3048e-19)
(-0.0526559 -9.07936e-05 -2.90922e-19)
(-0.0541497 -0.0252824 6.83851e-19)
(-0.0538415 -0.0528184 -3.78485e-19)
(-0.0517535 -0.0821064 -2.46183e-19)
(-0.0479208 -0.112701 -3.56176e-19)
(-0.0424006 -0.144179 2.36102e-19)
(-0.0352711 -0.176071 -4.42844e-21)
(-0.0266306 -0.207819 -4.4054e-19)
(-0.0165987 -0.238751 -7.13673e-19)
(-0.00533482 -0.268065 5.43767e-19)
(0.00691288 -0.294838 -4.32312e-19)
(0.0198069 -0.318019 6.07607e-19)
(0.0331486 -0.336387 -1.71388e-19)
(0.0467386 -0.348691 3.31631e-19)
(0.0575996 -0.355029 -1.1629e-18)
(-0.0131539 0.0260552 -8.83982e-19)
(-0.0282331 0.0503698 5.79424e-19)
(-0.0377725 0.0558743 7.7503e-20)
(-0.0432973 0.0491301 1.58066e-20)
(-0.0457605 0.0343814 -3.61282e-19)
(-0.0457385 0.0143375 5.32634e-19)
(-0.0435083 -0.00931716 5.71034e-20)
(-0.0392084 -0.0355587 -1.09292e-19)
(-0.0329318 -0.0637406 -3.61266e-19)
(-0.0247673 -0.0933971 3.88538e-19)
(-0.0148169 -0.124119 9.90363e-19)
(-0.00320059 -0.155476 -2.17175e-19)
(0.0099437 -0.186976 4.96251e-19)
(0.0244596 -0.21802 -5.79251e-19)
(0.0401579 -0.247874 -5.50273e-19)
(0.056767 -0.275649 3.28715e-19)
(0.0739165 -0.300247 5.23256e-19)
(0.0913844 -0.320231 -1.69067e-18)
(0.109033 -0.333862 2.05742e-19)
(0.123458 -0.340789 2.64368e-19)
(-0.0142782 0.026572 6.58075e-19)
(-0.0300318 0.0530172 2.23497e-19)
(-0.0384246 0.0611381 1.1361e-18)
(-0.0416572 0.0569184 6.01905e-20)
(-0.0410349 0.0444099 -1.27323e-19)
(-0.037339 0.0263079 -6.11957e-19)
(-0.0309955 0.00434635 5.18544e-19)
(-0.0222476 -0.0203864 9.46541e-19)
(-0.0112616 -0.0471909 6.32072e-19)
(0.00181843 -0.0755734 4.64542e-19)
(0.0168429 -0.105125 4.03713e-19)
(0.0336461 -0.135445 -7.11782e-19)
(0.0520418 -0.166095 -2.18625e-19)
(0.071824 -0.196556 -1.65144e-19)
(0.0927564 -0.226191 1.73502e-18)
(0.114526 -0.254198 -1.21429e-20)
(0.13671 -0.279536 -4.18319e-19)
(0.159035 -0.300667 -1.13249e-19)
(0.181444 -0.315408 1.17069e-18)
(0.20019 -0.322842 1.59465e-19)
(-0.0150751 0.0262949 -2.86981e-20)
(-0.0311983 0.0538634 -6.26588e-19)
(-0.0382961 0.0640089 -9.3642e-19)
(-0.0391026 0.0619955 -2.6345e-19)
(-0.0352204 0.051589 1.46868e-19)
(-0.0276159 0.0354083 2.97766e-20)
(-0.0168585 0.0151973 8.44742e-19)
(-0.0032961 -0.00791084 -1.04719e-18)
(0.0128302 -0.0331696 -4.00469e-19)
(0.0313184 -0.0600517 -8.13729e-19)
(0.0519688 -0.0881354 -6.94839e-19)
(0.0745651 -0.117032 -6.19782e-19)
(0.0988662 -0.146339 1.5551e-19)
(0.124604 -0.175601 -2.01622e-19)
(0.151478 -0.204276 8.48219e-19)
(0.179115 -0.231685 -4.66828e-19)
(0.207022 -0.256917 -1.41624e-18)
(0.234835 -0.278484 -2.62564e-19)
(0.262588 -0.293886 6.75013e-19)
(0.286369 -0.301564 -5.62791e-19)
(-0.015521 0.0253266 -1.04609e-19)
(-0.0316749 0.0530333 7.79771e-19)
(-0.0373443 0.0645357 -9.94037e-19)
(-0.0356321 0.0643037 2.27915e-19)
(-0.028371 0.0557512 -4.78113e-19)
(-0.0166864 0.0413668 1.07136e-18)
(-0.00128064 0.0228662 -7.69837e-19)
(0.0173961 0.00140337 8.8545e-19)
(0.0390258 -0.0222378 -8.45897e-19)
(0.0633449 -0.0474958 3.62457e-19)
(0.090098 -0.0739271 -1.75586e-19)
(0.119011 -0.101137 -4.45448e-19)
(0.149777 -0.128738 -5.49296e-19)
(0.182051 -0.156313 5.44118e-19)
(0.215448 -0.183393 -4.52281e-19)
(0.249515 -0.209416 -9.6936e-19)
(0.283671 -0.233641 9.99286e-19)
(0.317423 -0.254764 -1.24686e-18)
(0.350876 -0.27015 5.42231e-19)
(0.380247 -0.277583 -4.87803e-21)
(-0.0156224 0.0238049 -9.83444e-19)
(-0.0314428 0.0507379 -1.05873e-18)
(-0.0355424 0.0628885 1.20991e-19)
(-0.0312257 0.0639286 -1.02696e-18)
(-0.0204833 0.0568873 -9.52157e-20)
(-0.00456875 0.0440827 -7.60984e-19)
(0.0156974 0.0271681 -1.76304e-19)
(0.0397671 0.00729447 -5.19381e-19)
(0.0672432 -0.0147304 1.56874e-21)
(0.0977939 -0.0383146 -2.30016e-19)
(0.131097 -0.062988 1.62644e-20)
(0.166806 -0.0883394 -6.62855e-19)
(0.20453 -0.113976 7.28006e-19)
(0.243824 -0.139499 -1.03127e-18)
(0.284192 -0.16448 3.60044e-19)
(0.325072 -0.188447 8.56632e-21)
(0.365779 -0.210822 -5.58746e-19)
(0.405662 -0.230567 1.35235e-18)
(0.444838 -0.245119 -3.25636e-19)
(0.480035 -0.251605 -1.92558e-19)
(-0.0154103 0.0218852 1.10828e-18)
(-0.0305137 0.0472474 5.96011e-19)
(-0.0328652 0.0593373 5.55139e-19)
(-0.025821 0.0610904 8.22368e-20)
(-0.0114606 0.0551504 7.52826e-19)
(0.00886766 0.0436421 1.09268e-18)
(0.0342423 0.0281302 9.02776e-19)
(0.0640229 0.00974136 8.14241e-20)
(0.097729 -0.0107073 6.69041e-19)
(0.134948 -0.0326002 1.03839e-18)
(0.175272 -0.0554414 -2.70519e-19)
(0.218255 -0.0787978 4.53987e-19)
(0.263388 -0.102263 3.67429e-19)
(0.310094 -0.125438 3.75587e-19)
(0.357729 -0.147919 2.16877e-18)
(0.40559 -0.169289 -8.10853e-19)
(0.452866 -0.189103 -4.65588e-20)
(0.498732 -0.206611 8.91442e-19)
(0.543241 -0.219498 -4.95609e-19)
(0.584029 -0.224194 2.34609e-19)
(-0.0149326 0.0197228 -8.99856e-19)
(-0.0289147 0.0428599 5.85277e-20)
(-0.0292706 0.0542225 -7.19437e-19)
(-0.0192911 0.0561213 -9.44438e-20)
(-0.0010848 0.0508442 5.29936e-19)
(0.0239359 0.0403169 -1.58209e-18)
(0.0547659 0.0259998 -3.90381e-21)
(0.0906752 0.00897837 7.42988e-19)
(0.13109 -0.00993424 7.03859e-19)
(0.175496 -0.0301079 -3.09552e-19)
(0.223363 -0.0510256 1.03037e-19)
(0.274103 -0.072234 2.37856e-19)
(0.327044 -0.0933129 -1.14649e-19)
(0.381427 -0.11386 -1.253e-18)
(0.436415 -0.133485 3.18219e-19)
(0.491122 -0.151811 8.47058e-19)
(0.544592 -0.168491 -1.19769e-18)
(0.595838 -0.183045 5.79097e-19)
(0.644798 -0.193502 1.50422e-19)
(0.690298 -0.195494 7.10519e-19)
(-0.0142418 0.0174559 -1.33281e-19)
(-0.0266702 0.0378697 -6.29003e-19)
(-0.0246813 0.0479195 2.89391e-19)
(-0.0114273 0.0494349 2.06831e-21)
(0.0109973 0.0443984 -1.26824e-18)
(0.0411403 0.0345471 1.96974e-19)
(0.0779237 0.0212321 -3.89668e-20)
(0.120523 0.00548586 2.60416e-19)
(0.168249 -0.0118942 -1.19543e-18)
(0.220443 -0.0302746 -8.58826e-20)
(0.276405 -0.0491273 -2.8313e-19)
(0.335346 -0.0679881 2.50359e-19)
(0.396369 -0.0864322 8.43561e-19)
(0.458479 -0.104062 -1.31559e-19)
(0.520604 -0.120503 5.12623e-20)
(0.581643 -0.135412 3.18133e-19)
(0.640463 -0.148514 -8.19342e-20)
(0.695931 -0.15952 6.15076e-19)
(0.747863 -0.166735 -3.74024e-19)
(0.796074 -0.165173 -5.45128e-19)
(-0.0133831 0.0151941 1.23496e-19)
(-0.0237815 0.0325398 3.00057e-20)
(-0.0189679 0.0408051 2.52395e-19)
(-0.00193127 0.0414891 6.18995e-19)
(0.0252698 0.0363331 3.48876e-19)
(0.0611544 0.026908 3.72987e-20)
(0.104569 0.014458 -4.20246e-19)
(0.154571 -4.36465e-05 1.06932e-19)
(0.210312 -0.0158277 5.71599e-19)
(0.27093 -0.0322722 -9.69497e-19)
(0.33548 -0.048856 7.31507e-19)
(0.402899 -0.065125 -5.51569e-19)
(0.472006 -0.0806724 4.63488e-19)
(0.54153 -0.0951273 -9.94908e-19)
(0.610164 -0.10815 1.08202e-18)
(0.676618 -0.119436 -1.14923e-18)
(0.739635 -0.128748 -2.90676e-19)
(0.798016 -0.135819 8.84298e-19)
(0.851378 -0.139025 -3.07457e-19)
(0.898626 -0.134463 1.12014e-19)
(-0.0123819 0.0130103 -9.32968e-20)
(-0.020209 0.0270829 8.791e-19)
(-0.0119384 0.0332267 -3.27586e-21)
(0.0095809 0.0327498 -5.4627e-19)
(0.0423228 0.0272176 -3.69092e-19)
(0.0847675 0.018064 6.76403e-19)
(0.135659 0.00643454 -2.68244e-19)
(0.193889 -0.00676226 -3.36456e-20)
(0.258376 -0.0207998 5.66086e-19)
(0.327969 -0.0350893 -7.01969e-19)
(0.401387 -0.0491446 7.62726e-20)
(0.477212 -0.0625559 -9.10361e-19)
(0.553925 -0.0749735 4.74868e-19)
(0.629969 -0.0860965 -1.34751e-18)
(0.703837 -0.0956645 2.11694e-18)
(0.774158 -0.10345 -3.9374e-19)
(0.839779 -0.109242 3.76577e-19)
(0.899908 -0.112653 -9.83755e-19)
(0.954554 -0.11237 2.2415e-20)
(0.998008 -0.110882 9.66988e-19)
(-0.0112351 0.0109403 -2.81887e-19)
(-0.0158604 0.0216515 2.42401e-19)
(-0.00333702 0.025482 -8.96269e-19)
(0.0235607 0.023658 1.32712e-18)
(0.0628062 0.0176281 -9.59867e-19)
(0.112802 0.00871802 5.01789e-20)
(0.172133 -0.00201716 -1.04274e-18)
(0.239439 -0.0137412 7.47181e-19)
(0.313308 -0.0257898 -1.05695e-19)
(0.392186 -0.0376374 -6.59738e-19)
(0.474363 -0.0488699 -3.83657e-19)
(0.557996 -0.0591647 4.10769e-19)
(0.641201 -0.0682749 2.65417e-19)
(0.722151 -0.0760184 -1.15489e-18)
(0.79919 -0.0822678 4.21757e-19)
(0.870941 -0.0869434 -5.98149e-19)
(0.936376 -0.0900027 7.3237e-20)
(0.994914 -0.0913767 -4.70861e-19)
(1.04669 -0.0907457 1.56341e-19)
(1.08851 -0.0908252 -6.55572e-19)
(-0.00990642 0.00898664 8.02049e-19)
(-0.0105867 0.0163391 -4.86215e-19)
(0.00714733 0.017809 4.00406e-19)
(0.0404967 0.0146082 -5.0608e-19)
(0.0873695 0.00811175 8.4761e-19)
(0.146018 -0.000439375 -1.38975e-20)
(0.214769 -0.0100777 -1.03862e-19)
(0.291898 -0.0200536 -7.68912e-20)
(0.375531 -0.0297935 4.76386e-19)
(0.463605 -0.038873 8.10576e-19)
(0.553895 -0.0469941 -4.75193e-19)
(0.644114 -0.0539644 4.62222e-19)
(0.732041 -0.0596774 8.30365e-19)
(0.815662 -0.0640952 -5.80744e-19)
(0.8933 -0.0672325 -1.13509e-18)
(0.963693 -0.0691435 2.04681e-18)
(1.02605 -0.0699144 -3.66443e-19)
(1.08004 -0.0696505 -1.10233e-19)
(1.12591 -0.0683346 1.10859e-18)
(1.16224 -0.0675752 -2.65587e-19)
(-0.00832724 0.00712785 -1.30152e-18)
(-0.00418776 0.0111911 -8.6481e-19)
(0.0198624 0.0103884 -3.31885e-19)
(0.0608756 0.00593726 6.41465e-19)
(0.116596 -0.000837924 -1.45137e-18)
(0.185014 -0.00876972 7.54805e-19)
(0.264064 -0.0169864 9.61072e-20)
(0.35151 -0.0248505 9.90275e-20)
(0.444889 -0.0319177 -9.91897e-19)
(0.541532 -0.0379112 -3.4793e-19)
(0.638676 -0.0426946 -6.1022e-19)
(0.733629 -0.0462435 5.88395e-19)
(0.823949 -0.0486155 1.58746e-19)
(0.907602 -0.0499214 2.77855e-20)
(0.983069 -0.0503017 7.11643e-19)
(1.0494 -0.0499082 -7.34111e-19)
(1.10617 -0.0488944 -2.67857e-20)
(1.15349 -0.0474075 3.05125e-20)
(1.19191 -0.0454767 1.06206e-19)
(1.22122 -0.0440926 4.71156e-19)
(-0.0064017 0.0053302 4.13711e-19)
(0.00357454 0.00622307 1.06291e-18)
(0.0351684 0.00335708 8.51996e-19)
(0.0851416 -0.00207097 -2.94509e-19)
(0.150943 -0.00878902 1.02836e-18)
(0.230149 -0.0157093 -8.72497e-20)
(0.320139 -0.0220795 -1.2211e-19)
(0.41801 -0.0274143 7.42756e-20)
(0.520594 -0.0314479 9.9924e-19)
(0.624578 -0.0341006 5.87232e-19)
(0.726709 -0.0354387 1.72851e-19)
(0.824026 -0.0356293 1.42824e-20)
(0.91406 -0.0348955 -1.09055e-18)
(0.994983 -0.033477 9.49782e-19)
(1.06565 -0.0316001 1.52312e-19)
(1.12561 -0.02946 -2.61599e-19)
(1.17496 -0.0272129 -1.05297e-18)
(1.21431 -0.0249738 -7.38637e-20)
(1.24459 -0.0227543 3.88746e-19)
(1.26652 -0.0211264 -7.02804e-20)
(-0.00401554 0.00355994 -1.04233e-18)
(0.0129587 0.00144232 4.35701e-19)
(0.0534114 -0.00317022 -2.13148e-18)
(0.113661 -0.00916964 8.75888e-19)
(0.190696 -0.0153643 -6.99371e-19)
(0.281499 -0.0207735 5.1523e-19)
(0.382709 -0.0248075 -8.036e-19)
(0.490614 -0.0271873 7.4987e-20)
(0.601278 -0.0278821 -4.16387e-20)
(0.710788 -0.0270557 2.15521e-19)
(0.815546 -0.025003 3.04771e-19)
(0.91254 -0.0220831 -5.74563e-19)
(0.999539 -0.0186601 3.07698e-19)
(1.07516 -0.0150579 2.7361e-19)
(1.13886 -0.0115335 1.12525e-18)
(1.19078 -0.00826636 -4.99799e-19)
(1.23165 -0.00536228 -3.03531e-19)
(1.26257 -0.0028602 5.01202e-19)
(1.28485 -0.000709199 2.37687e-19)
(1.29968 0.000712588 -4.9717e-19)
(-0.00104599 0.00179413 9.08156e-19)
(0.024224 -0.00313022 8.73989e-19)
(0.0748984 -0.00907587 2.54426e-19)
(0.146691 -0.0151259 1.069e-18)
(0.235941 -0.0202243 5.26779e-19)
(0.338831 -0.0235487 -9.52285e-19)
(0.451082 -0.0247353 1.44143e-18)
(0.568076 -0.0237781 -7.08495e-19)
(0.685128 -0.0209369 7.04994e-19)
(0.797866 -0.0166511 9.03851e-19)
(0.902588 -0.0114452 -5.16032e-19)
(0.996524 -0.00584158 9.89999e-20)
(1.07796 -0.000293813 5.29413e-19)
(1.14618 0.00485249 3.64262e-19)
(1.20137 0.0093729 8.09899e-19)
(1.24436 0.0131569 -3.37746e-19)
(1.27646 0.0161875 -5.17297e-20)
(1.29918 0.0185213 4.62364e-19)
(1.31415 0.020275 -1.05069e-19)
(1.32277 0.0211903 -2.52727e-21)
(0.00262881 2.85571e-05 -4.67841e-19)
(0.0376121 -0.00744218 -1.71682e-18)
(0.0998761 -0.0142166 4.05265e-19)
(0.184363 -0.0196985 -3.09055e-19)
(0.28655 -0.0230489 -7.15477e-19)
(0.401612 -0.023681 -5.13684e-19)
(0.52421 -0.0215377 -3.15581e-19)
(0.648795 -0.0169572 7.65723e-19)
(0.77006 -0.010534 -4.53538e-19)
(0.883421 -0.00298905 -4.6717e-19)
(0.985389 0.00495477 -5.7543e-19)
(1.07375 0.012671 -9.42795e-20)
(1.14755 0.0196888 -7.13317e-20)
(1.20691 0.0257115 -1.26747e-18)
(1.2528 0.0306057 5.90508e-19)
(1.28669 0.0343702 -7.79396e-19)
(1.31037 0.0370979 2.23457e-19)
(1.32567 0.0389436 -1.71724e-18)
(1.33435 0.040085 5.21582e-19)
(1.33788 0.0403359 6.20263e-19)
(0.00712227 -0.00171808 -1.18073e-19)
(0.0533309 -0.0113983 8.31227e-19)
(0.128512 -0.018408 5.38192e-20)
(0.226662 -0.0226218 1.28723e-19)
(0.342178 -0.0235264 -2.61512e-19)
(0.469034 -0.0208701 -5.84555e-21)
(0.600758 -0.0149953 -6.18468e-21)
(0.73095 -0.00664787 -1.56562e-19)
(0.85392 0.00322472 5.60333e-19)
(0.965212 0.013649 2.12879e-19)
(1.0619 0.0237693 9.56941e-19)
(1.14261 0.0329379 -2.57637e-19)
(1.20733 0.0407478 1.75339e-19)
(1.25708 0.0470176 -1.80054e-20)
(1.29355 0.051749 4.7482e-19)
(1.31878 0.0550712 2.78876e-19)
(1.33486 0.0571887 6.44351e-19)
(1.34379 0.0583423 -1.02673e-18)
(1.34734 0.0587522 1.25879e-18)
(1.34694 0.0583008 -3.97932e-19)
(0.0125337 -0.00340323 -1.07484e-18)
(0.0715413 -0.0148564 -3.38472e-19)
(0.160878 -0.0214185 2.62427e-19)
(0.273418 -0.023603 1.65898e-19)
(0.402264 -0.0213542 1.73555e-19)
(0.540052 -0.0148741 1.71989e-19)
(0.679189 -0.004996 -4.36327e-19)
(0.812639 0.00708592 -1.75079e-19)
(0.93467 0.0200904 5.69572e-20)
(1.04134 0.0328596 -5.21165e-19)
(1.13062 0.0444986 -2.30256e-19)
(1.20219 0.054433 1.38272e-18)
(1.25706 0.0623961 -3.58766e-19)
(1.2971 0.0683722 -4.74709e-19)
(1.32462 0.0725208 -2.1278e-19)
(1.34202 0.0751031 1.53756e-19)
(1.35158 0.0764221 1.72342e-19)
(1.3553 0.0767817 -8.21809e-19)
(1.35485 0.0764273 1.15994e-18)
(1.35156 0.0753084 -1.00224e-18)
(0.0189445 -0.00496211 -1.18306e-19)
(0.0923454 -0.0176299 3.33687e-20)
(0.196937 -0.0229742 -4.53682e-20)
(0.324299 -0.0223299 6.48764e-19)
(0.466051 -0.016252 3.77801e-20)
(0.613431 -0.00552179 2.37484e-19)
(0.757872 0.00846267 -4.97203e-19)
(0.892026 0.024056 -1.70138e-20)
(1.01054 0.0397066 6.80804e-19)
(1.11038 0.0541755 9.20111e-20)
(1.19066 0.0666379 -5.7959e-19)
(1.25224 0.0766833 -5.12997e-20)
(1.29711 0.0842454 -4.55145e-19)
(1.32787 0.0895012 4.58682e-19)
(1.34727 0.0927703 6.12621e-19)
(1.35792 0.0944302 -6.65516e-20)
(1.36211 0.0948585 -7.65007e-20)
(1.36174 0.0943956 2.33021e-19)
(1.35831 0.0932968 -7.24904e-19)
(1.353 0.0915797 6.48682e-19)
(0.0264149 -0.00631092 1.22648e-19)
(0.115777 -0.0194959 -7.7995e-19)
(0.236535 -0.0227715 2.08074e-19)
(0.378806 -0.01849 -6.51801e-19)
(0.532602 -0.00798262 2.25187e-19)
(0.687814 0.0072732 -8.30247e-19)
(0.835177 0.0252751 3.34251e-19)
(0.967464 0.0439735 -1.07405e-19)
(1.08014 0.0616534 -4.8293e-21)
(1.1714 0.0771198 1.05253e-19)
(1.24169 0.0897277 -3.79552e-19)
(1.29302 0.0993047 -5.33183e-19)
(1.32826 0.10602 -1.05212e-19)
(1.35055 0.110249 -4.7192e-20)
(1.36289 0.112453 -1.18367e-19)
(1.36794 0.1131 -3.74116e-20)
(1.36787 0.112614 -1.11702e-19)
(1.36439 0.111346 -9.54096e-20)
(1.35882 0.109552 -2.72924e-19)
(1.35216 0.107311 4.27234e-19)
(0.0349809 -0.00735078 2.8739e-19)
(0.141795 -0.0202065 -3.19651e-19)
(0.279387 -0.0204962 6.8903e-19)
(0.436284 -0.0117942 -2.99291e-19)
(0.600845 0.00362654 7.98996e-19)
(0.761796 0.0235018 1.43242e-20)
(0.909584 0.0452375 3.98303e-19)
(1.03759 0.0664791 -1.08845e-19)
(1.14251 0.0854884 4.3777e-19)
(1.22401 0.101247 2.83283e-20)
(1.28388 0.113383 1.01442e-18)
(1.32521 0.122013 -6.94262e-19)
(1.35155 0.127551 9.55945e-20)
(1.36638 0.130553 1.77634e-19)
(1.37279 0.131595 8.86359e-19)
(1.37333 0.131204 -3.16871e-19)
(1.36999 0.129822 -6.12183e-20)
(1.36424 0.127789 -3.12142e-19)
(1.35719 0.125358 -2.90555e-20)
(1.34967 0.122655 1.53943e-19)
(0.044652 -0.007972 -1.34366e-19)
(0.170276 -0.0195019 3.9304e-19)
(0.325086 -0.0158437 -4.08135e-19)
(0.495942 -0.00199991 1.58169e-19)
(0.669617 0.0186655 -1.94094e-19)
(0.834004 0.0430583 7.04002e-19)
(0.979764 0.0680658 -1.00276e-19)
(1.10138 0.0911754 2.35015e-19)
(1.1971 0.110783 -1.41005e-19)
(1.26818 0.126169 -5.02812e-21)
(1.31772 0.137306 1.53008e-19)
(1.34967 0.144618 -1.17763e-19)
(1.36807 0.148753 3.02509e-19)
(1.37655 0.150417 -1.51572e-19)
(1.37813 0.150265 -6.42792e-19)
(1.37515 0.148852 6.33119e-19)
(1.36936 0.146611 -2.78664e-19)
(1.362 0.143858 2.21451e-19)
(1.35398 0.140844 3.74395e-19)
(1.34595 0.137722 1.53064e-19)
(0.0554079 -0.0080585 3.35912e-19)
(0.201011 -0.017124 -6.9295e-19)
(0.373104 -0.00853975 1.31274e-19)
(0.556878 0.011068 -9.66635e-20)
(0.737728 0.0371321 -3.92949e-19)
(0.903169 0.0657479 -3.06158e-19)
(1.04463 0.0934193 -6.11733e-20)
(1.15814 0.117656 -5.38493e-19)
(1.24374 0.137145 -3.29404e-20)
(1.30425 0.151566 -9.8696e-20)
(1.34391 0.161278 -2.64186e-19)
(1.36736 0.167005 -5.92082e-20)
(1.37889 0.169601 -1.98079e-19)
(1.3821 0.16988 -3.23085e-19)
(1.37984 0.168543 3.25891e-19)
(1.37418 0.166142 4.14053e-20)
(1.36662 0.163086 8.23052e-20)
(1.35817 0.159655 -3.62254e-19)
(1.34953 0.1561 -1.09717e-20)
(1.34124 0.152581 -5.4423e-19)
(0.0671966 -0.00749245 3.62017e-19)
(0.23371 -0.0128303 2.42776e-19)
(0.422811 0.00164101 -3.95475e-19)
(0.618124 0.0275032 6.15951e-19)
(0.804014 0.0589309 -6.79495e-20)
(0.968183 0.0913016 2.29056e-19)
(1.10338 0.120925 7.91878e-20)
(1.20753 0.145528 2.76729e-19)
(1.28256 0.164233 -2.16755e-19)
(1.33274 0.177189 7.10556e-20)
(1.36328 0.185149 -6.76567e-20)
(1.37923 0.189116 -2.8059e-20)
(1.38496 0.190103 5.53423e-20)
(1.38392 0.188997 -1.0002e-19)
(1.37868 0.186506 -2.96052e-20)
(1.37104 0.183158 -9.13084e-20)
(1.36223 0.179325 -1.46661e-19)
(1.35306 0.175248 9.53212e-20)
(1.34408 0.171183 -1.26137e-19)
(1.33569 0.167271 5.49084e-19)
(0.0799331 -0.00615921 -1.78549e-19)
(0.268004 -0.00640712 -5.10284e-19)
(0.473494 0.01486 -6.76091e-20)
(0.678685 0.0473099 -2.01882e-20)
(0.867399 0.0838794 -2.29132e-19)
(1.02814 0.119394 -3.75531e-19)
(1.15547 0.150197 1.21573e-19)
(1.24946 0.174429 -1.66941e-19)
(1.31388 0.19176 -1.84527e-19)
(1.35431 0.202846 1.01935e-19)
(1.37664 0.208821 -7.63678e-20)
(1.38614 0.210926 -1.52276e-19)
(1.38709 0.210285 -3.52607e-21)
(1.38269 0.207818 1.02989e-19)
(1.3752 0.204212 -1.02269e-19)
(1.36613 0.199957 1.4218e-19)
(1.35648 0.195375 3.89626e-20)
(1.34688 0.190673 9.46478e-20)
(1.33774 0.186116 1.79925e-19)
(1.32936 0.181801 -1.53924e-19)
(0.0934981 -0.00395262 1.69393e-19)
(0.303449 0.00231841 -1.28431e-20)
(0.524376 0.0312042 7.80301e-20)
(0.73757 0.0704036 -1.04113e-19)
(0.926908 0.111723 1.00318e-20)
(1.08232 0.149667 3.60254e-19)
(1.2006 0.180861 -2.35103e-19)
(1.28405 0.204034 9.90932e-20)
(1.33818 0.219488 8.70266e-20)
(1.36964 0.228395 -2.40919e-19)
(1.38475 0.232233 2.25017e-19)
(1.38884 0.232427 2.26092e-21)
(1.38594 0.230173 -1.55366e-19)
(1.37895 0.22638 1.86617e-19)
(1.3698 0.221699 -7.31481e-20)
(1.35974 0.216568 5.55845e-20)
(1.34956 0.211258 -6.24308e-20)
(1.33973 0.205942 -2.54337e-20)
(1.33057 0.2009 -2.11167e-19)
(1.32228 0.196159 6.5034e-20)
(0.10774 -0.000778075 -5.56286e-20)
(0.339551 0.0134748 1.52217e-19)
(0.574667 0.0506896 2.42706e-20)
(0.793869 0.0966249 9.97229e-20)
(0.981753 0.142153 4.78278e-20)
(1.13025 0.181744 2.24864e-20)
(1.23869 0.212553 1.25417e-19)
(1.31159 0.234049 -1.50014e-20)
(1.35602 0.247214 5.46857e-20)
(1.37941 0.253716 8.70891e-20)
(1.38833 0.255329 4.16079e-20)
(1.38796 0.253607 2.9693e-20)
(1.38203 0.249771 1.19829e-19)
(1.37309 0.244695 -1.15805e-19)
(1.36276 0.238974 2.46712e-20)
(1.35206 0.232988 -2.28105e-20)
(1.34158 0.22696 3.54052e-20)
(1.33168 0.221036 2.95061e-20)
(1.32259 0.215508 6.06146e-20)
(1.31445 0.210314 2.25955e-21)
(0.122484 0.0034433 3.31348e-20)
(0.37578 0.0271355 3.01254e-20)
(0.623576 0.0732506 -4.19111e-20)
(0.846741 0.125734 2.61898e-20)
(1.03128 0.174811 1.47428e-20)
(1.17164 0.215236 -4.60717e-20)
(1.26982 0.24493 1.5038e-20)
(1.33248 0.264216 2.91872e-21)
(1.36796 0.274771 2.56833e-20)
(1.38426 0.278718 -6.89235e-20)
(1.38797 0.278068 -1.6341e-22)
(1.38402 0.274453 1.88154e-20)
(1.37577 0.269076 -1.5007e-20)
(1.36541 0.262756 1.51801e-20)
(1.35429 0.256023 3.92132e-20)
(1.3432 0.249197 -2.21931e-20)
(1.3326 0.242454 6.26481e-21)
(1.32275 0.235919 2.40549e-20)
(1.3138 0.229899 -3.93336e-20)
(1.30585 0.224225 1.90592e-20)
(0.0969563 -0.00392283 7.1714e-20)
(0.31696 -0.0285966 -3.95126e-20)
(0.546405 -0.0774145 4.67379e-20)
(0.764013 -0.13485 -3.48331e-20)
(0.952664 -0.190638 -1.573e-20)
(1.10307 -0.23856 4.83618e-21)
(1.21383 -0.275555 -1.54974e-20)
(1.28914 -0.301246 5.592e-20)
(1.33597 -0.316966 -4.66139e-20)
(1.36176 -0.324792 1.06084e-20)
(1.37312 -0.326867 -8.20919e-21)
(1.37524 -0.325036 -5.33651e-20)
(1.37188 -0.320722 5.18295e-20)
(1.36554 -0.314935 1.99514e-20)
(1.35784 -0.308348 -1.92023e-20)
(1.34973 -0.301389 4.58924e-20)
(1.34179 -0.294304 -6.29244e-22)
(1.33436 -0.287257 -4.43364e-20)
(1.32762 -0.280593 3.24119e-20)
(1.3217 -0.274252 1.06624e-20)
(0.0823641 -0.000598462 -2.56408e-20)
(0.279798 -0.0168584 7.00195e-20)
(0.494546 -0.0569928 8.20261e-20)
(0.705962 -0.107635 -3.96611e-20)
(0.896224 -0.159523 6.86341e-20)
(1.05394 -0.2064 1.11059e-19)
(1.17507 -0.244532 -6.17788e-21)
(1.26145 -0.27266 -1.96507e-20)
(1.31842 -0.291341 9.78093e-20)
(1.35262 -0.302107 4.81382e-20)
(1.37041 -0.306795 -8.87291e-21)
(1.37717 -0.307138 7.26979e-20)
(1.37696 -0.304562 -7.73607e-20)
(1.37269 -0.300138 1.2373e-19)
(1.36627 -0.294618 -2.01333e-20)
(1.35893 -0.288503 6.07847e-20)
(1.35142 -0.2821 1.16681e-20)
(1.34419 -0.275605 4.29187e-20)
(1.33753 -0.26936 -4.03261e-20)
(1.33161 -0.263424 1.11218e-20)
(0.0684958 0.0017054 -3.82893e-20)
(0.243309 -0.00764951 8.38999e-20)
(0.441986 -0.0397642 6.27708e-20)
(0.645033 -0.0834843 -1.00486e-20)
(0.834665 -0.130802 1.05097e-19)
(0.998027 -0.175756 -8.23039e-20)
(1.12872 -0.214217 -8.39514e-21)
(1.22621 -0.244195 7.43719e-20)
(1.29401 -0.265497 2.50146e-20)
(1.33763 -0.279071 3.41352e-20)
(1.36297 -0.286381 -4.99866e-20)
(1.3754 -0.288977 1.39095e-19)
(1.37924 -0.28824 2.6578e-20)
(1.37771 -0.285271 -1.21355e-19)
(1.37309 -0.280888 1.85402e-19)
(1.36688 -0.275662 -2.18346e-19)
(1.36005 -0.269967 -1.0271e-19)
(1.3532 -0.264037 1.79186e-20)
(1.34673 -0.258213 9.828e-20)
(1.3409 -0.252659 -1.85707e-19)
(0.0555205 0.00308395 -8.03362e-20)
(0.208049 -0.000857469 -1.8909e-19)
(0.389604 -0.0257553 -1.66889e-19)
(0.582235 -0.0626174 -2.28831e-19)