/*--------------------------------*- C++ -*----------------------------------*\
  =========                 |
  \\      /  F ield         | OpenFOAM: The Open Source CFD Toolbox
   \\    /   O peration     | Website:  https://openfoam.org
    \\  /    A nd           | Version:  6.0
     \\/     M anipulation  |
\*---------------------------------------------------------------------------*/
FoamFile
{
    version     2.0;
    format      ascii;
    class       volVectorField;
    location    "13.9";
    object      U;
}
// * * * * * * * * * * * * * * * * * * * * * * * * * * * * * * * * * * * * * //

dimensions      [0 1 -1 0 0 0 0];

internalField   nonuniform List<vector> 
8000
(
(-0.00058392 0.000618945 -3.78655e-21)
(-0.00314944 0.0015309 2.02407e-20)
(-0.00785961 0.00217555 -2.46222e-20)
(-0.0136344 0.00262155 1.87509e-20)
(-0.0199277 0.00291831 9.1331e-21)
(-0.0264421 0.00310474 -2.74264e-20)
(-0.03297 0.00321327 -2.42504e-21)
(-0.0393816 0.00327086 -8.62102e-22)
(-0.0456096 0.00329986 -1.4247e-20)
(-0.0516318 0.00331882 -7.72232e-21)
(-0.0574577 0.00334301 5.75541e-21)
(-0.0631195 0.00338478 2.19033e-20)
(-0.0686644 0.0034538 -1.63338e-21)
(-0.0741476 0.00355722 2.35433e-21)
(-0.0796295 0.00369977 -2.20905e-20)
(-0.085179 0.00388372 1.36182e-20)
(-0.0908626 0.0041091 -1.95348e-20)
(-0.0966559 0.00437547 2.95685e-20)
(-0.102433 0.0046829 -3.29569e-23)
(-0.108794 0.00501793 6.42979e-21)
(-0.000680179 0.00193669 1.25743e-20)
(-0.00337125 0.00477736 -6.42672e-20)
(-0.00814251 0.00677532 -4.43965e-20)
(-0.0139321 0.00814649 -3.01541e-20)
(-0.0202035 0.00904739 -3.87974e-20)
(-0.0266652 0.00960125 8.53382e-21)
(-0.0331136 0.00991034 -4.47977e-20)
(-0.0394218 0.0100592 -1.00684e-20)
(-0.0455243 0.0101174 3.1719e-21)
(-0.0513999 0.0101427 3.34967e-20)
(-0.0570591 0.0101821 -3.65571e-20)
(-0.0625347 0.0102737 5.08664e-20)
(-0.0678747 0.0104475 -3.81069e-20)
(-0.0731357 0.0107256 -4.52161e-20)
(-0.0783796 0.0111228 -6.23661e-20)
(-0.0836773 0.0116465 3.98015e-20)
(-0.0890982 0.0122972 -1.29145e-20)
(-0.0946199 0.0130738 -4.70049e-20)
(-0.100115 0.0139769 4.44517e-20)
(-0.106187 0.0149655 -3.31706e-20)
(-0.000872344 0.00322372 1.22932e-19)
(-0.00381501 0.00795188 6.36778e-20)
(-0.00871009 0.0112746 7.1617e-20)
(-0.0145314 0.0135488 5.96071e-21)
(-0.0207614 0.0150348 3.95871e-20)
(-0.0271204 0.0159379 4.9415e-20)
(-0.0334132 0.0164288 -8.98083e-20)
(-0.0395183 0.0166482 -4.75737e-20)
(-0.045374 0.0167126 -6.19801e-20)
(-0.0509613 0.0167181 6.61644e-20)
(-0.0562921 0.016744 -5.05505e-20)
(-0.0614008 0.0168548 -6.50704e-20)
(-0.0663369 0.0171015 -2.36979e-20)
(-0.0711593 0.0175225 2.25184e-20)
(-0.075933 0.0181443 -6.29497e-21)
(-0.0807331 0.0189808 9.01567e-21)
(-0.0856345 0.0200345 1.04738e-19)
(-0.0906196 0.0213047 -1.46585e-20)
(-0.0955574 0.0227941 -1.06631e-19)
(-0.101061 0.0244335 1.412e-19)
(-0.00115657 0.00446165 4.27902e-20)
(-0.00447391 0.0110106 -6.0421e-20)
(-0.00955675 0.0156112 -1.51624e-20)
(-0.0154297 0.0187522 2.83471e-20)
(-0.0216034 0.0207922 8.04931e-20)
(-0.0278154 0.0220152 1.7625e-19)
(-0.033883 0.0226574 1.72245e-19)
(-0.0396932 0.022914 1.432e-20)
(-0.0451896 0.0229468 1.05664e-19)
(-0.0503566 0.0228901 1.61767e-19)
(-0.0552081 0.0228553 -1.29317e-19)
(-0.0597804 0.022934 1.91373e-19)
(-0.0641253 0.0231998 -4.33971e-20)
(-0.0683046 0.0237098 1.09149e-20)
(-0.0723877 0.0245046 4.53527e-20)
(-0.076456 0.0256075 6.03278e-20)
(-0.0805932 0.0270253 -9.48595e-20)
(-0.0847892 0.0287604 -7.92564e-20)
(-0.0889092 0.03082 -1.40437e-19)
(-0.0935814 0.0331056 2.05175e-19)
(-0.00152758 0.00563519 -2.23521e-20)
(-0.00533827 0.0139157 -2.28844e-19)
(-0.0106739 0.0197309 -6.7695e-20)
(-0.0166224 0.0236891 -1.64968e-19)
(-0.0227304 0.0262409 6.23591e-20)
(-0.0287582 0.0277441 -9.83615e-20)
(-0.0345399 0.0284968 3.38355e-20)
(-0.0399738 0.0287458 -2.08385e-19)
(-0.0450107 0.0286964 1.09946e-19)
(-0.049639 0.0285197 -1.31138e-19)
(-0.0538755 0.0283592 -1.16658e-19)
(-0.0577581 0.0283345 -1.30668e-19)
(-0.061341 0.0285438 1.18651e-19)
(-0.0646897 0.0290655 -1.06577e-19)
(-0.0678791 0.0299582 1.4844e-19)
(-0.0709985 0.0312589 4.29569e-20)
(-0.0741435 0.0329827 1.06392e-19)
(-0.0773156 0.0351393 4.67679e-20)
(-0.0803775 0.0377445 -1.85095e-19)
(-0.0839779 0.0406704 3.02495e-19)
(-0.00197914 0.00673281 9.85884e-20)
(-0.00639602 0.0166371 7.56939e-21)
(-0.0120497 0.0235884 4.06088e-20)
(-0.0181009 0.0283026 1.41688e-19)
(-0.0241393 0.0313142 -2.16866e-20)
(-0.0299534 0.0330494 2.30108e-19)
(-0.0353982 0.0338634 1.02149e-19)
(-0.0403862 0.0340512 8.58442e-21)
(-0.0448772 0.0338585 2.62731e-19)
(-0.0488649 0.0334914 8.6119e-20)
(-0.0523686 0.0331246 4.08577e-20)
(-0.055428 0.0329063 1.29691e-19)
(-0.0580992 0.0329613 1.18923e-19)
(-0.0604514 0.033393 2.17217e-19)
(-0.0625651 0.0342827 -1.9416e-19)
(-0.0645397 0.0356867 2.74743e-19)
(-0.0664854 0.0376354 3.74109e-21)
(-0.0684201 0.0401515 -3.51523e-19)
(-0.0702079 0.0432666 4.56008e-19)
(-0.0725245 0.0468244 1.89822e-19)
(-0.0025046 0.00774691 -5.80996e-20)
(-0.00763316 0.0191523 -1.05481e-19)
(-0.0136686 0.0271488 -2.19456e-19)
(-0.0198514 0.0325475 -6.50272e-21)
(-0.0258202 0.035959 3.74555e-20)
(-0.0313972 0.0378718 -2.80235e-19)
(-0.0364624 0.0386929 -2.0792e-19)
(-0.0409459 0.0387605 -2.97373e-20)
(-0.0448185 0.0383567 -2.63059e-19)
(-0.0480798 0.03772 -1.82174e-19)
(-0.0507523 0.0370544 -5.30974e-20)
(-0.0528765 0.0365363 -1.71011e-19)
(-0.0545097 0.036319 -2.76221e-21)
(-0.0557235 0.0365341 -2.27224e-19)
(-0.0566045 0.0372918 9.56825e-20)
(-0.0572623 0.0386754 -1.09146e-19)
(-0.0578251 0.040739 8.37499e-20)
(-0.058332 0.0435284 -1.06416e-19)
(-0.0586559 0.0471016 -3.04597e-19)
(-0.0595086 0.051278 -9.26828e-20)
(-0.00309725 0.00867352 -2.14045e-20)
(-0.00903394 0.0214466 -2.32353e-20)
(-0.0155107 0.0303872 1.84009e-19)
(-0.0218522 0.0363907 -2.99446e-19)
(-0.027752 0.0401369 4.39311e-20)
(-0.033071 0.0421697 -1.72972e-19)
(-0.0377189 0.0429421 8.17429e-20)
(-0.0416469 0.0428297 3.67444e-19)
(-0.044839 0.0421463 -2.35543e-20)
(-0.0473024 0.0411581 -2.74171e-19)
(-0.0490624 0.0400953 4.98351e-20)
(-0.0501598 0.0391611 9.64259e-21)
(-0.0506514 0.0385372 -5.63497e-20)
(-0.0506098 0.0383869 5.65061e-21)
(-0.0501261 0.0388548 4.95149e-19)
(-0.0493203 0.040061 -7.04947e-20)
(-0.0483403 0.0420949 -1.37634e-19)
(-0.0472524 0.0450399 -2.47158e-19)
(-0.0459484 0.0489959 2.52116e-19)
(-0.0451902 0.0537682 1.08917e-19)
(-0.00375049 0.0095115 1.07999e-19)
(-0.0105808 0.0235113 -1.41312e-19)
(-0.0175503 0.0332867 1.99769e-19)
(-0.0240713 0.0398098 2.01074e-19)
(-0.0298977 0.0438224 1.85345e-19)
(-0.0349347 0.045918 3.75832e-19)
(-0.0391264 0.0465889 2.43043e-19)
(-0.0424489 0.0462423 -5.22272e-19)
(-0.0449025 0.0452172 2.67114e-19)
(-0.0465035 0.0438016 2.09622e-19)
(-0.0472805 0.042247 -2.95011e-21)
(-0.0472742 0.0407792 2.34698e-19)
(-0.046539 0.0396071 1.83039e-19)
(-0.045146 0.0389266 -9.95654e-20)
(-0.0431882 0.0389222 3.36607e-19)
(-0.0407947 0.03976 -4.17319e-19)
(-0.038134 0.0415801 1.6711e-19)
(-0.0353051 0.0445226 2.15074e-19)
(-0.0322316 0.0487533 -5.02696e-20)
(-0.0297476 0.0540814 4.32552e-19)
(-0.00445786 0.0102614 2.17116e-19)
(-0.0122538 0.0253418 1.12426e-20)
(-0.0197546 0.0358368 -7.79039e-20)
(-0.0264637 0.0427901 -8.22685e-20)
(-0.0322005 0.0470008 -3.80943e-19)
(-0.03692 0.0491059 5.394e-20)
(-0.040606 0.0496312 1.52835e-19)
(-0.0432639 0.0490082 -7.34962e-20)
(-0.0449138 0.0475944 6.06251e-20)
(-0.0455835 0.0456925 -1.60903e-20)
(-0.0453064 0.043568 -7.92162e-20)
(-0.0441225 0.0414632 7.51637e-20)
(-0.0420827 0.0396085 -3.27076e-19)
(-0.0392536 0.038231 3.13486e-19)
(-0.0357269 0.0375572 -2.71655e-19)
(-0.0316376 0.0378078 8.39278e-20)
(-0.0271741 0.0391898 1.9103e-19)
(-0.0224722 0.041925 -3.97824e-20)
(-0.0175031 0.0462784 -1.32352e-19)
(-0.0132059 0.0520948 -8.98926e-20)
(-0.0052127 0.0109244 -2.70451e-19)
(-0.0140298 0.026935 -1.77492e-20)
(-0.0220824 0.0380298 5.69415e-20)
(-0.0289687 0.045322 1.46339e-19)
(-0.0345792 0.0496643 -2.0661e-19)
(-0.0389242 0.051733 -1.80273e-19)
(-0.0420327 0.0520812 4.20756e-19)
(-0.0439439 0.0511589 -2.32493e-19)
(-0.0447019 0.0493344 -1.49967e-19)
(-0.0443496 0.0469171 -2.1517e-19)
(-0.0429275 0.0441776 1.42442e-19)
(-0.0404763 0.0413654 -3.88154e-21)
(-0.0370426 0.038724 -2.66007e-19)
(-0.0326865 0.036504 -4.35189e-19)
(-0.0274944 0.0349711 3.31532e-19)
(-0.0216035 0.0344049 -2.68669e-19)
(-0.015219 0.0350939 3.81025e-19)
(-0.00851586 0.0373702 -1.0676e-19)
(-0.00152882 0.0416428 2.24983e-19)
(0.004651 0.0478412 -7.60847e-19)
(-0.00600771 0.0115008 -5.47749e-19)
(-0.0158819 0.028287 3.59069e-19)
(-0.0244824 0.0398576 4.88332e-20)
(-0.0315078 0.0473961 9.44077e-21)
(-0.0369249 0.051807 -2.21271e-19)
(-0.0408053 0.0538025 3.25373e-19)
(-0.0432276 0.053959 3.5526e-20)
(-0.0442701 0.052739 -6.67228e-20)
(-0.0440056 0.0505155 -2.14068e-19)
(-0.042496 0.0475964 2.31418e-19)
(-0.0397931 0.044248 5.86645e-19)
(-0.0359411 0.0407153 -1.29631e-19)
(-0.0309843 0.0372422 2.92768e-19)
(-0.024976 0.0340899 -3.4586e-19)
(-0.0179949 0.0315526 -3.3157e-19)
(-0.0101759 0.0299641 1.99466e-19)
(-0.00173729 0.0297016 3.29705e-19)
(0.00710805 0.0312348 -1.06813e-18)
(0.0162492 0.0351725 1.25368e-19)
(0.0243801 0.0415993 1.69983e-19)
(-0.00683447 0.0119895 4.05609e-19)
(-0.0177777 0.0293912 1.33354e-19)
(-0.0268922 0.0413094 6.94596e-19)
(-0.0339833 0.049 3.57161e-20)
(-0.0390999 0.0534197 -7.72288e-20)
(-0.0423794 0.055315 -3.67689e-19)
(-0.0439549 0.0552828 3.12703e-19)
(-0.0439481 0.0537947 5.60872e-19)
(-0.0424646 0.0512233 3.73671e-19)
(-0.039591 0.0478689 2.69663e-19)
(-0.035395 0.0439846 2.32398e-19)
(-0.0299304 0.0397997 -4.17519e-19)
(-0.0232438 0.0355432 -1.30827e-19)
(-0.0153855 0.0314684 -9.62131e-20)
(-0.00642745 0.0278777 1.03168e-18)
(0.00349964 0.025142 -3.61499e-21)
(0.0141682 0.023719 -2.57081e-19)
(0.0253319 0.0242325 -8.11404e-20)
(0.0368003 0.0275508 7.37837e-19)
(0.0469763 0.0340065 9.56499e-20)
(-0.00768294 0.0123874 -2.00381e-20)
(-0.0196793 0.0302371 -3.83543e-19)
(-0.0292376 0.0423689 -5.70433e-19)
(-0.0362781 0.0501152 -1.58668e-19)
(-0.0409368 0.0544857 8.7604e-20)
(-0.043421 0.0562618 1.88805e-20)
(-0.0439218 0.0560601 5.00205e-19)
(-0.0426073 0.05436 -6.20379e-19)
(-0.0396202 0.0515318 -2.35958e-19)
(-0.0350758 0.0478653 -4.75447e-19)
(-0.029065 0.0435951 -4.04916e-19)
(-0.0216584 0.0389259 -3.58395e-19)
(-0.0129143 0.0340577 8.95927e-20)
(-0.00288894 0.0292153 -1.16259e-19)
(0.0083448 0.0246818 4.98145e-19)
(0.0206566 0.0208317 -2.73227e-19)
(0.0338093 0.0181735 -8.55778e-19)
(0.0475294 0.0174747 -1.72608e-19)
(0.0615615 0.0199125 4.22199e-19)
(0.0739401 0.0261748 -3.66868e-19)
(-0.00854122 0.0126897 -6.47117e-20)
(-0.0215422 0.0308104 4.68946e-19)
(-0.0314322 0.0430149 -5.97979e-19)
(-0.0382553 0.0507156 1.38241e-19)
(-0.0422398 0.0549784 -2.84591e-19)
(-0.0436652 0.0566208 6.33833e-19)
(-0.0427826 0.0562803 -4.52968e-19)
(-0.0398081 0.0544454 5.18196e-19)
(-0.0349235 0.0514857 -4.91236e-19)
(-0.0282775 0.0476817 2.09582e-19)
(-0.0199899 0.0432501 -1.0173e-19)
(-0.0101582 0.0383684 -2.55255e-19)
(0.00113494 0.0331998 -3.15275e-19)
(0.0138114 0.0279241 3.1417e-19)
(0.027781 0.0227759 -2.63008e-19)
(0.0428993 0.01809 -5.74771e-19)
(0.05891 0.0143682 5.98371e-19)
(0.0755148 0.0124707 -7.62825e-19)
(0.092433 0.0138954 3.43444e-19)
(0.107282 0.019782 9.80419e-21)
(-0.00939548 0.0128903 -5.86367e-19)
(-0.0233153 0.0310935 -6.3294e-19)
(-0.0333773 0.0432213 7.29551e-20)
(-0.0397591 0.0507695 -6.10115e-19)
(-0.0427856 0.0548627 -5.42238e-20)
(-0.0428105 0.0563572 -4.48719e-19)
(-0.0401444 0.055914 -1.02919e-19)
(-0.0350514 0.0540335 -3.00742e-19)
(-0.0277529 0.0510895 2.73504e-21)
(-0.0184329 0.0473594 -1.31543e-19)
(-0.00724601 0.0430486 9.3294e-21)
(0.00567375 0.0383138 -3.79007e-19)
(0.0202034 0.0332848 4.17643e-19)
(0.0362216 0.0280922 -5.9238e-19)
(0.0535943 0.0229039 2.09784e-19)
(0.072135 0.0179739 7.858e-21)
(0.0915416 0.0137235 -3.3361e-19)
(0.111478 0.0110031 8.27159e-19)
(0.131701 0.0115718 -1.97155e-19)
(0.149451 0.0170577 -1.27844e-19)
(-0.0102299 0.0129829 6.5807e-19)
(-0.0249399 0.031068 3.55266e-19)
(-0.0349605 0.0429608 3.30409e-19)
(-0.0406132 0.050243 4.93235e-20)
(-0.0423239 0.0541003 4.46679e-19)
(-0.0405209 0.0554305 6.43746e-19)
(-0.0355729 0.0549201 5.26959e-19)
(-0.02779 0.0530862 4.71818e-20)
(-0.0174318 0.0503129 3.85856e-19)
(-0.00471857 0.0468834 5.9613e-19)
(0.0101565 0.0430043 -1.54581e-19)
(0.0270136 0.0388264 2.59482e-19)
(0.0456741 0.0344624 2.0954e-19)
(0.0659489 0.0300078 2.13184e-19)
(0.0876264 0.0255694 1.2595e-18)
(0.110438 0.0213031 -4.72026e-19)
(0.133988 0.0174859 -2.86706e-20)
(0.157857 0.0148184 5.46141e-19)
(0.1819 0.0151632 -3.09457e-19)
(0.203189 0.0205742 1.52879e-19)
(-0.0110267 0.0129612 -5.32026e-19)
(-0.0263496 0.0307163 3.40119e-20)
(-0.0360545 0.0422086 -4.2565e-19)
(-0.0406193 0.0491067 -5.53825e-20)
(-0.0405751 0.0526592 3.11529e-19)
(-0.0364249 0.0538065 -9.27439e-19)
(-0.0285936 0.053263 -6.90262e-22)
(-0.0174346 0.0515656 4.31577e-19)
(-0.00324397 0.0491148 4.05412e-19)
(0.013722 0.0462088 -1.78527e-19)
(0.0332281 0.0430693 5.88393e-20)
(0.0550415 0.0398609 1.36477e-19)
(0.0789135 0.0367057 -6.4676e-20)
(0.104563 0.033698 -7.24381e-19)
(0.131665 0.0309205 1.83413e-19)
(0.159815 0.0284626 5.0397e-19)
(0.188457 0.0264497 -7.17771e-19)
(0.216993 0.0253208 3.49796e-19)
(0.245383 0.0268425 9.36357e-20)
(0.270999 0.0333346 4.72899e-19)
(-0.0117655 0.0128201 -7.84565e-20)
(-0.0274675 0.030024 -3.72605e-19)
(-0.0365139 0.0409468 1.71471e-19)
(-0.0395527 0.0473434 8.16005e-22)
(-0.0372258 0.0505253 -7.47061e-19)
(-0.0301114 0.0514755 1.166e-19)
(-0.0186896 0.0509365 -2.21347e-20)
(-0.00335567 0.0494658 1.50785e-19)
(0.0155582 0.0474837 -6.90183e-19)
(0.0377583 0.0453095 -4.83583e-20)
(0.0629643 0.0431902 -1.62091e-19)
(0.0908843 0.0413212 1.4424e-19)
(0.121191 0.0398623 4.86692e-19)
(0.153498 0.0389512 -7.52755e-20)
(0.187336 0.0387166 2.9152e-20)
(0.222109 0.039281 1.91206e-19)
(0.256998 0.0407426 -4.73515e-20)
(0.291024 0.0433917 3.84451e-19)
(0.32401 0.0489712 -2.24109e-19)
(0.354133 0.0598233 -3.50869e-19)
(-0.0124227 0.0125556 7.28346e-20)
(-0.0282046 0.0289815 1.78175e-20)
(-0.0361707 0.0391689 1.4938e-19)
(-0.0371568 0.0449562 3.6583e-19)
(-0.0319228 0.0477152 2.05281e-19)
(-0.0211242 0.0484702 2.14107e-20)
(-0.00529839 0.0479888 -2.45025e-19)
(0.015115 0.0468475 6.28156e-20)
(0.0397427 0.0454839 3.30342e-19)
(0.0682465 0.0442369 -5.59767e-19)
(0.100294 0.0433777 4.22369e-19)
(0.135531 0.0431344 -3.1822e-19)
(0.173557 0.0437133 2.69954e-19)
(0.213903 0.0453205 -5.82104e-19)
(0.256005 0.0481863 6.40056e-19)
(0.299149 0.0525838 -6.84371e-19)
(0.342335 0.0588287 -1.77646e-19)
(0.384188 0.0675599 5.56421e-19)
(0.423593 0.0811855 -1.88531e-19)
(0.457232 0.101628 8.28192e-20)
(-0.0129697 0.012164 -5.50833e-20)
(-0.0284558 0.0275847 5.19883e-19)
(-0.0348301 0.0368831 -2.17675e-21)
(-0.0331383 0.0419746 -3.2274e-19)
(-0.0242679 0.0442868 -2.1702e-19)
(-0.00895882 0.0448811 3.97617e-19)
(0.0121873 0.0445454 -1.5749e-19)
(0.0386744 0.0438688 -1.98394e-20)
(0.0700712 0.0432974 3.28241e-19)
(0.105974 0.0431772 -4.07794e-19)
(0.145974 0.0437854 4.46879e-20)
(0.189634 0.0453564 -5.30056e-19)
(0.236476 0.048106 2.79004e-19)
(0.285975 0.0522582 -7.98045e-19)
(0.33757 0.058081 1.27035e-18)
(0.39068 0.0659334 -2.32948e-19)
(0.444733 0.0763704 2.41457e-19)
(0.499432 0.0906695 -6.27414e-19)
(0.555149 0.111919 5.47119e-21)
(0.603613 0.137094 7.01593e-19)
(-0.0133711 0.0116422 -1.66806e-19)
(-0.0280963 0.0258356 1.44076e-19)
(-0.0322664 0.0341146 -5.30842e-19)
(-0.0271636 0.0384592 7.85194e-19)
(-0.0138178 0.0403455 -5.66907e-19)
(0.00693403 0.0408659 2.92715e-20)
(0.0344079 0.0408213 -6.11428e-19)
(0.0680249 0.0408027 4.37179e-19)
(0.10726 0.0412507 -6.24664e-20)
(0.151597 0.0424968 -3.85854e-19)
(0.200495 0.0447935 -2.2512e-19)
(0.253372 0.0483362 2.37926e-19)
(0.309601 0.0532821 1.57209e-19)
(0.368521 0.0597674 -6.95251e-19)
(0.429474 0.0679228 2.51172e-19)
(0.491847 0.0778868 -3.69559e-19)
(0.555139 0.0898226 4.46702e-20)
(0.619166 0.104095 -3.12084e-19)
(0.684592 0.121847 1.25276e-19)
(0.744442 0.139968 -4.63921e-19)
(-0.0135824 0.0109866 4.74896e-19)
(-0.026979 0.0237431 -2.87693e-19)
(-0.028221 0.030907 2.37048e-19)
(-0.0188604 0.0345037 -2.99273e-19)
(-9.00329e-05 0.0360467 5.01588e-19)
(0.0271332 0.0366511 -8.75809e-21)
(0.06201 0.0371201 -6.10901e-20)
(0.103833 0.0380326 -4.53091e-20)
(0.151922 0.0398043 2.78811e-19)
(0.205576 0.0427268 4.74088e-19)
(0.264037 0.0469948 -2.80033e-19)
(0.326488 0.0527246 2.72194e-19)
(0.392053 0.0599689 4.9681e-19)
(0.459833 0.0687277 -3.48386e-19)
(0.528944 0.0789557 -7.05841e-19)
(0.598567 0.0905612 1.28924e-18)
(0.668004 0.103393 -2.30398e-19)
(0.736751 0.11727 -7.44295e-20)
(0.804861 0.132457 7.95056e-19)
(0.867649 0.148595 -1.70211e-19)
(-0.0135489 0.0101942 -7.729e-19)
(-0.0249326 0.0213237 -5.14492e-19)
(-0.0224045 0.0273236 -1.97503e-19)
(-0.00782451 0.0302355 3.81103e-19)
(0.0174213 0.0315941 -8.60522e-19)
(0.0522183 0.0325255 4.45749e-19)
(0.0955993 0.0338195 5.65042e-20)
(0.146658 0.0360232 5.71571e-20)
(0.204474 0.0395017 -5.84073e-19)
(0.268063 0.0444751 -2.06256e-19)
(0.336351 0.0510441 -3.63493e-19)
(0.408187 0.0592083 3.50963e-19)
(0.482366 0.0688825 9.9347e-20)
(0.557681 0.07991 1.91644e-20)
(0.632976 0.0920723 4.55233e-19)
(0.707201 0.105094 -4.61709e-19)
(0.779457 0.11864 -1.89432e-20)
(0.849028 0.132324 1.25808e-20)
(0.915521 0.145946 6.3897e-20)
(0.97657 0.161297 3.51357e-19)
(-0.0132042 0.00926309 2.46049e-19)
(-0.021763 0.0186042 6.3365e-19)
(-0.0145013 0.0234494 5.08482e-19)
(0.00636682 0.0258155 -1.75319e-19)
(0.0392191 0.027236 6.09962e-19)
(0.0827263 0.0288294 -5.13889e-20)
(0.135675 0.0313496 -7.24139e-20)
(0.196863 0.035283 4.31111e-20)
(0.265021 0.0409086 5.89994e-19)
(0.338766 0.0483348 3.46685e-19)
(0.416611 0.0575266 1.01265e-19)
(0.496993 0.0683306 6.33123e-21)
(0.578338 0.0804981 -6.70384e-19)
(0.659134 0.0937089 5.82496e-19)
(0.737998 0.107592 9.94366e-20)
(0.81374 0.121743 -1.64293e-19)
(0.885395 0.135735 -7.08029e-19)
(0.952251 0.149152 -5.87423e-20)
(1.0138 0.161533 2.77809e-19)
(1.06965 0.175989 -5.57455e-20)
(-0.0124712 0.0081948 -6.24026e-19)
(-0.0172561 0.0156252 2.61092e-19)
(-0.00418003 0.0193943 -1.275e-18)
(0.0241351 0.0214394 5.22363e-19)
(0.0657703 0.0232611 -4.16649e-19)
(0.119099 0.0259431 3.07218e-19)
(0.182557 0.0301697 -4.77436e-19)
(0.254521 0.0363248 4.38256e-20)
(0.333245 0.0445539 -2.46272e-20)
(0.416843 0.0548042 1.28443e-19)
(0.503332 0.0668609 1.85351e-19)
(0.590715 0.0803843 -3.50248e-19)
(0.677078 0.0949486 1.85577e-19)
(0.760689 0.11008 1.70087e-19)
(0.840079 0.125292 7.32148e-19)
(0.914092 0.140111 -3.18613e-19)
(0.981906 0.154099 -2.10114e-19)
(1.04304 0.166896 3.52577e-19)
(1.09719 0.177994 1.85976e-19)
(1.14519 0.191016 -3.53019e-19)
(-0.011263 0.00699645 5.46374e-19)
(-0.011184 0.0124454 5.26791e-19)
(0.00889377 0.0152968 1.52092e-19)
(0.0458768 0.0173385 6.40562e-19)
(0.0974666 0.0199945 3.14846e-19)
(0.161629 0.024274 -5.67659e-19)
(0.236311 0.030743 8.59993e-19)
(0.31933 0.0396263 -4.23251e-19)
(0.408337 0.0508764 4.22564e-19)
(0.500858 0.0642246 5.46632e-19)
(0.594396 0.0792349 -3.12371e-19)
(0.686568 0.095362 5.93829e-20)
(0.775239 0.11201 3.30276e-19)
(0.858635 0.128585 2.32329e-19)
(0.935407 0.14454 5.33608e-19)
(1.00466 0.159402 -2.14281e-19)
(1.06592 0.172795 -2.70568e-20)
(1.11912 0.184469 3.3364e-19)
(1.1644 0.194033 -7.21202e-20)
(1.20326 0.205049 6.7057e-23)
(-0.0094852 0.00568356 -2.81995e-19)
(-0.00331287 0.00914699 -1.03644e-18)
(0.0250409 0.011329 2.44141e-19)
(0.0719352 0.0137812 -1.85888e-19)
(0.134583 0.0177928 -4.2932e-19)
(0.210401 0.0242421 -3.06745e-19)
(0.296691 0.0335104 -1.89526e-19)
(0.390566 0.0455922 4.60201e-19)
(0.488977 0.0601795 -2.73316e-19)
(0.588836 0.0767362 -2.80016e-19)
(0.687195 0.0945794 -3.53761e-19)
(0.781432 0.112964 -5.83888e-20)
(0.869402 0.131161 -3.98998e-20)
(0.949524 0.148516 -8.15404e-19)
(1.02081 0.164497 3.93996e-19)
(1.08284 0.17871 -5.18388e-19)
(1.13567 0.190905 1.61524e-19)
(1.17974 0.20098 -1.23018e-18)
(1.21569 0.208758 3.71136e-19)
(1.24533 0.217403 4.66104e-19)
(-0.00703945 0.00428257 -7.08482e-20)
(0.00658635 0.00583994 5.0532e-19)
(0.0445498 0.00769938 3.24192e-20)
(0.102571 0.011072 7.80014e-20)
(0.177238 0.0170359 -1.5861e-19)
(0.26525 0.0262618 -2.65693e-21)
(0.363099 0.0388623 -4.10531e-21)
(0.467072 0.0545189 -9.58106e-20)
(0.573383 0.0725978 3.39877e-19)
(0.678395 0.0922606 1.31305e-19)
(0.778876 0.112581 5.95836e-19)
(0.872203 0.132656 -1.62351e-19)
(0.956492 0.151691 1.13152e-19)
(1.03062 0.16906 -1.44559e-20)
(1.09419 0.184326 3.12756e-19)
(1.14738 0.197246 1.90742e-19)
(1.19085 0.207746 4.57946e-19)
(1.22557 0.215891 -7.38605e-19)
(1.25263 0.221735 9.27251e-19)
(1.27392 0.227921 -2.93417e-19)
(-0.00382688 0.0028329 -6.58217e-19)
(0.0187268 0.00266546 -2.05656e-19)
(0.067656 0.00465461 1.60611e-19)
(0.137934 0.00954768 1.01297e-19)
(0.225358 0.018114 1.03993e-19)
(0.325728 0.0307194 1.05348e-19)
(0.434578 0.0471078 -2.63848e-19)
(0.547303 0.0665642 -1.0901e-19)
(0.659434 0.08808 3.38727e-20)
(0.766965 0.110512 -3.23016e-19)
(0.866643 0.132734 -1.45922e-19)
(0.95615 0.153764 8.81441e-19)
(1.03415 0.17284 -2.27497e-19)
(1.1002 0.189455 -3.12674e-19)
(1.15463 0.20335 -1.47707e-19)
(1.19829 0.214481 1.0266e-19)
(1.2324 0.22297 1.243e-19)
(1.25835 0.229046 -5.95289e-19)
(1.27756 0.232959 8.59678e-19)
(1.29186 0.236837 -7.44282e-19)
(0.000247535 0.0013882 -7.43238e-20)
(0.0332928 -0.000202995 2.12651e-20)
(0.0945204 0.0024767 -2.72712e-20)
(0.17803 0.00956777 3.97784e-19)
(0.278648 0.0214101 2.20283e-20)
(0.391092 0.0379469 1.46179e-19)
(0.509838 0.0584476 -3.03882e-19)
(0.629416 0.0817302 -1.10609e-20)
(0.744848 0.106395 4.22044e-19)
(0.85204 0.131038 5.87361e-20)
(0.948058 0.154419 -3.67272e-19)
(1.03121 0.175586 -3.22809e-20)
(1.10093 0.193917 -3.0079e-19)
(1.15763 0.209112 2.99814e-19)
(1.20237 0.221142 4.15091e-19)
(1.23662 0.230183 -4.57105e-20)
(1.26206 0.236541 -5.53984e-20)
(1.28034 0.240582 1.68969e-19)
(1.29303 0.242693 -5.41484e-19)
(1.30186 0.244562 4.77393e-19)
(0.00527038 1.68999e-05 7.48425e-20)
(0.050426 -0.00256106 -4.82256e-19)
(0.125209 0.00147675 1.29017e-19)
(0.222705 0.0115004 -4.00746e-19)
(0.336577 0.0272769 1.37856e-19)
(0.460319 0.0481957 -5.12001e-19)
(0.587326 0.0729531 2.06575e-19)
(0.711414 0.0998615 -6.58217e-20)
(0.827384 0.127164 -2.70007e-21)
(0.931424 0.153284 6.72166e-20)
(1.02127 0.176994 -2.44639e-19)
(1.09611 0.197493 -3.48902e-19)
(1.15635 0.214395 -7.13373e-20)
(1.20322 0.227667 -3.20183e-20)
(1.23847 0.237531 -8.11696e-20)
(1.26407 0.244371 -2.63801e-20)
(1.28194 0.248644 -7.89297e-20)
(1.29388 0.250807 -6.83402e-20)
(1.30143 0.251327 -2.02643e-19)
(1.30617 0.251541 3.21021e-19)
(0.0113149 -0.00119827 1.79604e-19)
(0.0702127 -0.00417755 -1.99521e-19)
(0.159674 0.00198433 4.2956e-19)
(0.271623 0.0157037 -1.85562e-19)
(0.398383 0.0360124 4.96008e-19)
(0.532149 0.0616138 7.1984e-21)
(0.665329 0.0905586 2.49184e-19)
(0.791305 0.120665 -6.68796e-20)
(0.905045 0.149907 2.78386e-19)
(1.00341 0.176671 1.99896e-20)
(1.08512 0.199879 6.61697e-19)
(1.15044 0.218996 -4.56466e-19)
(1.20072 0.233943 6.16283e-20)
(1.23798 0.244976 1.17357e-19)
(1.2645 0.252556 6.12106e-19)
(1.28254 0.257237 -2.19846e-19)
(1.29414 0.25958 -4.34736e-20)
(1.30105 0.260088 -2.29594e-19)
(1.30473 0.259257 -2.395e-20)
(1.30654 0.258154 1.14683e-19)
(0.0184359 -0.00216159 -8.60304e-20)
(0.0926708 -0.00480111 2.48792e-19)
(0.19774 0.00433336 -2.55106e-19)
(0.324263 0.0225046 1.00609e-19)
(0.463098 0.0478373 -1.20623e-19)
(0.605157 0.0782325 4.42403e-19)
(0.742102 0.11107 -6.17587e-20)
(0.867268 0.143746 1.51643e-19)
(0.976231 0.174106 -8.94296e-20)
(1.06689 0.200658 -2.43147e-21)
(1.13916 0.22261 1.01804e-19)
(1.19442 0.239775 -7.88479e-20)
(1.23492 0.252416 2.04377e-19)
(1.2633 0.261068 -1.01922e-19)
(1.28217 0.26639 -4.47461e-19)
(1.2939 0.269056 4.44531e-19)
(1.3005 0.26968 -1.99885e-19)
(1.30358 0.26877 1.59569e-19)
(1.30442 0.266821 2.76081e-19)
(1.30419 0.264689 1.13367e-19)
(0.0266645 -0.00276659 2.14161e-19)
(0.117739 -0.00416932 -4.41421e-19)
(0.239095 0.00884545 8.44111e-20)
(0.37993 0.0321772 -6.13179e-20)
(0.529585 0.0628769 -2.47651e-19)
(0.677845 0.0979645 -1.94367e-19)
(0.815989 0.134187 -3.82633e-20)
(0.937777 0.168654 -3.4639e-19)
(1.03982 0.199259 -2.11359e-20)
(1.12133 0.224795 -6.43336e-20)
(1.18352 0.244861 -1.74473e-19)
(1.2288 0.259671 -3.87972e-20)
(1.26018 0.269821 -1.3335e-19)
(1.2807 0.276086 -2.22172e-19)
(1.29312 0.279272 2.27251e-19)
(1.29978 0.280118 3.11251e-20)
(1.30252 0.279247 6.20165e-20)
(1.30277 0.277139 -2.61053e-19)
(1.3016 0.274272 -6.63067e-21)
(1.29997 0.271336 -4.01845e-19)
(0.036004 -0.00289924 2.34453e-19)
(0.145271 -0.00201961 1.56479e-19)
(0.283293 0.0158123 -2.52615e-19)
(0.437778 0.0449243 3.94466e-19)
(0.596609 0.081152 -4.26147e-20)
(0.748737 0.120614 1.47434e-19)
(0.885535 0.159535 5.10608e-20)
(1.00168 0.194926 1.80788e-19)
(1.09518 0.224922 -1.41575e-19)
(1.16671 0.248738 4.71503e-20)
(1.21874 0.266441 -4.52276e-20)
(1.25461 0.278649 -1.98164e-20)
(1.27782 0.286257 3.77791e-20)
(1.29164 0.290225 -6.95201e-20)
(1.2988 0.291448 -2.13058e-20)
(1.30149 0.290683 -6.52412e-20)
(1.30135 0.288525 -1.05932e-19)
(1.29955 0.285407 6.84276e-20)
(1.29699 0.281782 -9.3646e-20)
(1.29443 0.278201 4.04789e-19)
(0.0464255 -0.00244186 -1.16958e-19)
(0.17503 0.00189856 -3.31667e-19)
(0.32976 0.0254784 -4.41737e-20)
(0.496844 0.0608627 -1.21177e-20)
(0.662898 0.102578 -1.48752e-19)
(0.81647 0.145898 -2.44317e-19)
(0.949565 0.186703 7.99463e-20)
(1.05823 0.222128 -1.0986e-19)
(1.14211 0.250729 -1.23019e-19)
(1.2034 0.272255 6.85131e-20)
(1.24567 0.287266 -5.17508e-20)
(1.27297 0.296759 -1.04636e-19)
(1.28912 0.301873 -3.46243e-21)
(1.29739 0.303692 7.08664e-20)
(1.30039 0.303143 -7.21917e-20)
(1.30006 0.300961 1.00175e-19)
(1.2978 0.297691 2.69875e-20)
(1.29456 0.29371 6.78276e-20)
(1.29106 0.289448 1.31986e-19)
(1.28789 0.285326 -1.13029e-19)
(0.0578656 -0.00127778 1.11661e-19)
(0.20669 0.007811 -9.74039e-21)
(0.377813 0.038026 5.02487e-20)
(0.556096 0.0800159 -6.81098e-20)
(0.727217 0.126975 5.67383e-21)
(0.879861 0.173469 2.36522e-19)
(1.00721 0.215271 -1.5532e-19)
(1.10705 0.24987 6.58154e-20)
(1.18078 0.276401 5.80392e-20)
(1.232 0.295206 -1.62952e-19)
(1.26524 0.30733 1.53107e-19)
(1.285 0.314099 1.37037e-21)
(1.29521 0.31683 -1.07802e-19)
(1.29902 0.316669 1.29914e-19)
(1.2988 0.314531 -5.15437e-20)
(1.29622 0.311102 3.93975e-20)
(1.29244 0.30686 -4.40665e-20)
(1.28822 0.302124 -1.76616e-20)
(1.2841 0.297308 -1.54011e-19)
(1.28054 0.292708 4.72051e-20)
(0.0702249 0.00070359 -3.75654e-20)
(0.239845 0.0159065 1.01003e-19)
(0.426689 0.0535632 1.57806e-20)
(0.61448 0.102312 6.61188e-20)
(0.788429 0.154079 3.15848e-20)
(0.937956 0.202942 1.48103e-20)
(1.05791 0.244838 8.38883e-20)
(1.14806 0.277826 -1.01641e-20)
(1.21157 0.301733 3.69911e-20)
(1.25328 0.317519 5.94126e-20)
(1.27841 0.326673 2.86652e-20)
(1.29171 0.330782 2.05792e-20)
(1.29705 0.331273 8.34366e-20)
(1.29736 0.329303 -8.07721e-20)
(1.2947 0.32574 1.73307e-20)
(1.29049 0.3212 -1.62376e-20)
(1.28565 0.31609 2.51009e-20)
(1.28078 0.310676 2.10315e-20)
(1.27627 0.305358 4.38961e-20)
(1.27248 0.30031 1.81799e-21)
(0.0833694 0.00360146 2.22757e-20)
(0.274017 0.0263257 2.03483e-20)
(0.475569 0.0721157 -2.81913e-20)
(0.670969 0.127587 1.76196e-20)
(0.845539 0.183563 9.96168e-21)
(0.990037 0.233916 -3.09982e-20)
(1.10139 0.275032 1.02272e-20)
(1.18145 0.305723 1.85583e-21)
(1.23504 0.326582 1.76382e-20)
(1.26802 0.339167 -4.73143e-20)
(1.28608 0.345351 -1.47977e-22)
(1.29398 0.34691 1.31147e-20)
(1.29543 0.345318 -1.04525e-20)
(1.29303 0.341697 1.0573e-20)
(1.28858 0.336845 2.75988e-20)
(1.28322 0.331299 -1.57089e-20)
(1.27767 0.325394 4.37167e-21)
(1.27238 0.319351 1.72122e-20)
(1.26765 0.313563 -2.83614e-20)
(1.26374 0.308077 1.36212e-20)
(0.0971328 0.00749863 6.19628e-20)
(0.308673 0.0391521 -3.374e-20)
(0.523615 0.0936246 3.97604e-20)
(0.724605 0.155598 -2.9594e-20)
(0.897723 0.215053 -1.32811e-20)
(1.03562 0.265992 4.02112e-21)
(1.13759 0.305517 -1.3039e-20)
(1.20757 0.333341 4.6896e-20)
(1.25183 0.350847 -3.90648e-20)
(1.27701 0.360148 9.17145e-21)
(1.28902 0.363423 -6.83245e-21)
(1.29253 0.362564 -4.45487e-20)
(1.29093 0.359041 4.32248e-20)
(1.28652 0.353908 1.64692e-20)
(1.28078 0.347876 -1.63783e-20)
(1.27464 0.3414 3.84704e-20)
(1.26864 0.33475 -5.61988e-22)
(1.26312 0.32811 -3.73357e-20)
(1.25828 0.321867 2.7655e-20)
(1.25433 0.315937 8.73564e-21)
(0.11132 0.0124569 -2.17173e-20)
(0.343244 0.0544058 6.29567e-20)
(0.570005 0.117947 7.2804e-20)
(0.774536 0.186031 -3.43787e-20)
(0.944341 0.248147 5.98028e-20)
(1.07445 0.29878 9.46963e-20)
(1.16664 0.335994 -5.22964e-21)
(1.22685 0.360499 -1.62894e-20)
(1.26256 0.374455 8.03996e-20)
(1.28094 0.380461 3.92247e-20)
(1.28792 0.380928 -7.13084e-21)
(1.28792 0.377795 5.85354e-20)
(1.284 0.372482 -6.28207e-20)
(1.27813 0.365952 9.78597e-20)
(1.27152 0.358823 -1.63257e-20)
(1.26487 0.351473 4.6842e-20)
(1.25863 0.344109 8.46543e-21)
(1.25302 0.336888 3.35389e-20)
(1.24818 0.330195 -3.19139e-20)
(1.24426 0.32381 7.72503e-21)
(0.12571 0.0185131 -3.38028e-20)
(0.377141 0.0720395 7.99994e-20)
(0.613954 0.144861 5.94886e-20)
(0.820028 0.218518 -9.02951e-21)
(0.984929 0.282425 9.28544e-20)
(1.10641 0.331909 -6.94881e-20)
(1.18879 0.366195 -5.47566e-21)
(1.2398 0.387039 6.13193e-20)
(1.26787 0.39734 1.94703e-20)
(1.28044 0.400102 2.73001e-20)
(1.28332 0.397884 -4.03379e-20)
(1.2806 0.392619 1.05316e-19)
(1.27498 0.385641 1.9703e-20)
(1.2681 0.377809 -9.33682e-20)
(1.26093 0.369648 1.36625e-19)
(1.25402 0.36146 -1.61268e-19)
(1.24768 0.353401 -7.41345e-20)
(1.24209 0.34561 1.2286e-20)
(1.23732 0.338464 7.20009e-20)
(1.2335 0.33161 -1.35985e-19)
(0.140069 0.0256756 -7.58536e-20)
(0.409779 0.0919381 -1.79079e-19)
(0.654748 0.174074 -1.55004e-19)
(0.860487 0.252645 -2.11081e-19)
(1.01919 0.317463 -1.19895e-19)
(1.13157 0.365027 -2.48686e-19)
(1.20439 0.395876 3.16047e-20)
(1.24693 0.412825 -1.323e-19)
(1.2683 0.419442 -1.4554e-20)
(1.27603 0.419049 2.17883e-20)