/*--------------------------------*- C++ -*----------------------------------*\
  =========                 |
  \\      /  F ield         | OpenFOAM: The Open Source CFD Toolbox
   \\    /   O peration     | Website:  https://openfoam.org
    \\  /    A nd           | Version:  6.0
     \\/     M anipulation  |
\*---------------------------------------------------------------------------*/
FoamFile
{
    version     2.0;
    format      ascii;
    class       volScalarField;
    location    "21";
    object      p;
}
// * * * * * * * * * * * * * * * * * * * * * * * * * * * * * * * * * * * * * //

dimensions      [0 2 -2 0 0 0 0];

internalField   nonuniform List<scalar> 
4000
(
-0.26795
-0.268998
-0.269679
-0.270169
-0.270577
-0.27092
-0.271214
-0.271472
-0.271703
-0.271914
-0.27211
-0.272297
-0.272479
-0.27266
-0.272845
-0.273042
-0.273254
-0.273456
-0.273634
-0.274088
-0.26807
-0.269111
-0.269787
-0.270272
-0.270674
-0.271011
-0.271298
-0.271548
-0.271772
-0.271975
-0.272163
-0.272342
-0.272515
-0.272687
-0.272863
-0.273051
-0.273255
-0.273448
-0.273618
-0.274066
-0.268318
-0.269347
-0.270013
-0.270487
-0.270878
-0.271202
-0.271475
-0.271711
-0.27192
-0.272107
-0.272279
-0.272441
-0.272596
-0.27275
-0.272908
-0.273079
-0.273266
-0.273444
-0.273596
-0.274036
-0.268692
-0.269705
-0.270355
-0.270813
-0.271186
-0.271491
-0.271744
-0.271958
-0.272144
-0.272307
-0.272454
-0.272589
-0.272717
-0.272844
-0.272974
-0.273118
-0.273279
-0.273432
-0.27356
-0.273985
-0.26919
-0.270182
-0.270813
-0.271249
-0.271598
-0.271877
-0.272101
-0.272286
-0.27244
-0.27257
-0.272683
-0.272781
-0.272872
-0.27296
-0.273051
-0.273157
-0.273282
-0.273401
-0.273494
-0.2739
-0.269812
-0.270778
-0.271384
-0.271794
-0.272112
-0.272357
-0.272546
-0.272692
-0.272806
-0.272893
-0.27296
-0.273012
-0.273053
-0.273089
-0.273129
-0.273184
-0.273261
-0.273334
-0.273381
-0.273763
-0.270556
-0.271493
-0.27207
-0.272447
-0.272727
-0.272931
-0.273076
-0.273175
-0.273238
-0.273272
-0.273283
-0.273274
-0.273253
-0.273224
-0.273198
-0.273186
-0.2732
-0.273213
-0.273203
-0.273554
-0.271423
-0.272327
-0.272869
-0.273207
-0.273443
-0.273598
-0.273689
-0.273732
-0.273736
-0.273706
-0.273648
-0.273567
-0.273468
-0.273359
-0.273249
-0.273153
-0.273086
-0.273022
-0.272938
-0.273251
-0.272414
-0.273281
-0.273783
-0.274075
-0.274259
-0.274357
-0.274388
-0.274366
-0.2743
-0.274196
-0.274059
-0.273891
-0.2737
-0.273493
-0.273279
-0.273079
-0.272909
-0.272745
-0.272568
-0.272834
-0.273532
-0.274357
-0.274813
-0.275052
-0.275176
-0.27521
-0.275172
-0.275077
-0.274933
-0.274746
-0.274519
-0.274253
-0.273955
-0.273631
-0.273294
-0.272964
-0.272663
-0.272371
-0.272073
-0.272279
-0.274783
-0.275559
-0.275962
-0.27614
-0.276196
-0.276158
-0.276044
-0.275869
-0.275641
-0.275363
-0.275037
-0.274663
-0.274244
-0.273787
-0.273303
-0.272816
-0.272353
-0.271895
-0.271438
-0.27156
-0.276172
-0.276892
-0.277232
-0.277341
-0.277321
-0.277202
-0.277005
-0.276745
-0.276427
-0.276054
-0.275624
-0.275135
-0.274585
-0.27398
-0.273328
-0.272655
-0.27199
-0.271319
-0.270646
-0.270649
-0.277708
-0.278361
-0.278629
-0.278658
-0.278552
-0.278345
-0.278058
-0.277707
-0.277297
-0.276827
-0.276291
-0.275683
-0.274998
-0.274233
-0.273394
-0.272505
-0.271596
-0.27065
-0.269685
-0.269508
-0.279401
-0.279974
-0.280157
-0.280094
-0.279892
-0.279586
-0.279202
-0.278755
-0.27825
-0.277682
-0.277041
-0.276317
-0.275495
-0.274567
-0.273529
-0.272397
-0.271198
-0.269907
-0.268542
-0.268089
-0.281261
-0.281739
-0.281822
-0.281654
-0.28134
-0.280924
-0.280434
-0.279885
-0.27928
-0.278614
-0.277872
-0.277035
-0.276083
-0.274992
-0.273749
-0.272354
-0.270825
-0.269112
-0.267212
-0.266334
-0.283301
-0.283667
-0.283634
-0.283341
-0.2829
-0.282359
-0.281748
-0.281087
-0.280377
-0.27961
-0.278768
-0.277824
-0.276748
-0.275503
-0.274058
-0.272393
-0.270502
-0.268297
-0.265711
-0.264201
-0.285537
-0.285772
-0.285601
-0.285164
-0.284575
-0.283888
-0.28314
-0.282352
-0.281525
-0.280651
-0.279705
-0.278657
-0.277465
-0.276079
-0.274447
-0.272521
-0.270266
-0.267539
-0.264143
-0.261733
-0.287987
-0.28807
-0.287739
-0.287133
-0.28637
-0.285514
-0.284607
-0.283672
-0.282712
-0.281717
-0.280661
-0.279507
-0.278208
-0.276698
-0.274902
-0.272741
-0.27014
-0.266886
-0.262556
-0.258832
-0.290678
-0.290584
-0.290065
-0.289262
-0.288298
-0.287246
-0.286154
-0.285048
-0.283934
-0.282803
-0.281629
-0.280375
-0.278987
-0.277395
-0.275504
-0.273194
-0.270317
-0.266509
-0.260922
-0.255095
-0.293642
-0.293341
-0.292606
-0.291576
-0.29038
-0.289101
-0.287796
-0.286495
-0.285208
-0.283928
-0.282635
-0.281301
-0.279886
-0.278341
-0.276602
-0.274583
-0.272149
-0.268822
-0.263369
-0.256866
-0.296918
-0.296378
-0.295393
-0.294104
-0.292644
-0.29111
-0.289566
-0.288046
-0.286567
-0.285127
-0.28372
-0.282333
-0.280961
-0.279617
-0.278348
-0.277277
-0.276646
-0.276855
-0.279387
-0.291111
-0.300554
-0.299737
-0.298466
-0.296884
-0.29513
-0.293314
-0.291506
-0.289749
-0.288064
-0.286458
-0.284934
-0.283501
-0.282185
-0.281041
-0.280183
-0.279817
-0.280291
-0.282132
-0.286473
-0.297887
-0.304605
-0.303464
-0.301869
-0.299963
-0.297886
-0.295764
-0.293675
-0.291667
-0.289767
-0.28799
-0.28635
-0.284871
-0.283598
-0.282614
-0.282054
-0.282132
-0.28316
-0.285543
-0.289848
-0.298549
-0.309131
-0.307613
-0.305654
-0.303391
-0.300968
-0.29852
-0.296137
-0.293869
-0.291749
-0.289795
-0.288031
-0.286487
-0.285218
-0.284309
-0.283885
-0.28412
-0.285234
-0.287464
-0.291056
-0.297087
-0.314191
-0.312237
-0.309873
-0.307225
-0.304432
-0.301644
-0.298956
-0.296422
-0.294072
-0.291931
-0.290018
-0.288367
-0.287027
-0.286068
-0.285586
-0.285696
-0.286519
-0.288156
-0.290692
-0.294313
-0.319845
-0.31739
-0.314579
-0.311518
-0.308338
-0.305198
-0.302195
-0.299383
-0.296789
-0.294431
-0.292325
-0.290496
-0.288979
-0.287823
-0.287086
-0.286831
-0.287105
-0.287925
-0.289312
-0.291004
-0.326147
-0.323122
-0.319823
-0.316326
-0.312742
-0.309237
-0.305907
-0.302797
-0.299927
-0.297304
-0.294934
-0.292829
-0.291006
-0.289493
-0.28832
-0.287509
-0.287069
-0.286978
-0.287233
-0.287426
-0.333141
-0.329476
-0.325651
-0.321697
-0.317694
-0.313809
-0.31013
-0.306689
-0.303491
-0.300528
-0.297795
-0.29529
-0.293017
-0.290988
-0.289217
-0.287709
-0.286459
-0.285438
-0.28464
-0.283683
-0.340859
-0.336487
-0.332102
-0.327672
-0.323233
-0.318946
-0.314884
-0.311058
-0.307453
-0.304049
-0.300827
-0.297778
-0.294903
-0.292209
-0.289707
-0.287402
-0.28529
-0.283357
-0.281594
-0.279714
-0.349317
-0.344175
-0.339201
-0.334278
-0.329385
-0.324663
-0.320164
-0.315871
-0.311752
-0.307775
-0.303917
-0.300172
-0.296547
-0.293057
-0.28972
-0.286552
-0.28356
-0.280745
-0.278097
-0.27543
-0.358512
-0.352546
-0.34696
-0.34153
-0.336153
-0.330947
-0.32593
-0.32106
-0.31629
-0.311585
-0.306932
-0.302339
-0.29783
-0.293438
-0.289194
-0.285128
-0.281257
-0.277595
-0.274127
-0.270747
-0.368417
-0.361584
-0.355369
-0.349414
-0.343515
-0.337751
-0.332106
-0.326518
-0.320934
-0.315333
-0.309724
-0.304143
-0.298641
-0.293269
-0.288078
-0.283104
-0.278373
-0.273901
-0.269667
-0.265616
-0.378975
-0.371246
-0.364394
-0.357892
-0.351412
-0.344988
-0.338575
-0.332099
-0.325521
-0.31885
-0.312137
-0.305453
-0.298878
-0.292484
-0.286332
-0.280463
-0.274902
-0.269661
-0.264707
-0.26002
-0.390099
-0.381463
-0.373968
-0.366885
-0.359743
-0.352529
-0.345177
-0.337622
-0.329864
-0.321964
-0.314021
-0.30615
-0.298456
-0.291027
-0.283926
-0.277191
-0.27084
-0.264875
-0.259248
-0.25396
-0.401664
-0.392127
-0.383986
-0.376275
-0.368365
-0.360199
-0.351713
-0.342881
-0.333766
-0.324498
-0.315234
-0.306125
-0.2973
-0.28885
-0.280833
-0.273276
-0.266183
-0.259544
-0.25329
-0.247442
-0.413509
-0.403092
-0.394303
-0.385898
-0.377085
-0.367779
-0.357952
-0.347649
-0.337023
-0.326283
-0.315643
-0.305285
-0.295346
-0.285912
-0.277027
-0.2687
-0.260921
-0.25366
-0.246828
-0.240472
-0.425428
-0.414174
-0.404728
-0.395543
-0.385664
-0.375015
-0.363639
-0.351693
-0.339436
-0.327161
-0.31513
-0.303544
-0.292534
-0.282171
-0.272478
-0.263442
-0.255035
-0.24721
-0.239853
-0.233044
-0.437177
-0.425143
-0.415026
-0.404952
-0.393828
-0.381625
-0.368511
-0.354782
-0.340817
-0.326987
-0.313588
-0.300823
-0.288806
-0.277583
-0.26715
-0.257472
-0.248501
-0.240172
-0.232347
-0.225147
-0.448475
-0.435731
-0.424919
-0.41383
-0.401267
-0.38731
-0.372298
-0.356692
-0.340991
-0.32563
-0.310919
-0.297049
-0.284104
-0.272101
-0.261004
-0.250755
-0.241288
-0.232516
-0.224283
-0.216757
-0.459004
-0.445634
-0.434094
-0.421846
-0.407655
-0.391769
-0.374742
-0.357215
-0.339798
-0.322967
-0.307031
-0.292149
-0.27837
-0.265673
-0.253994
-0.243251
-0.233357
-0.22421
-0.21563
-0.207848
-0.459288
-0.445916
-0.434374
-0.422121
-0.407925
-0.392033
-0.374999
-0.357465
-0.340042
-0.323204
-0.307262
-0.292374
-0.278591
-0.26589
-0.254207
-0.243459
-0.233563
-0.224412
-0.215829
-0.208044
-0.448758
-0.436012
-0.425198
-0.414105
-0.401538
-0.387576
-0.372557
-0.356945
-0.341238
-0.32587
-0.311154
-0.297278
-0.28433
-0.272322
-0.261221
-0.250969
-0.241498
-0.232723
-0.224486
-0.216958
-0.43746
-0.425422
-0.415303
-0.405227
-0.394099
-0.381891
-0.368771
-0.355036
-0.341066
-0.327231
-0.313827
-0.301057
-0.289036
-0.277809
-0.267372
-0.257691
-0.248717
-0.240384
-0.232556
-0.225353
-0.425708
-0.414451
-0.405003
-0.395816
-0.385935
-0.375281
-0.363901
-0.351949
-0.339687
-0.327407
-0.315372
-0.303781
-0.292768
-0.282401
-0.272704
-0.263665
-0.255255
-0.247427
-0.240068
-0.233256
-0.413787
-0.403368
-0.394576
-0.38617
-0.377353
-0.368044
-0.358213
-0.347906
-0.337276
-0.326531
-0.315887
-0.305526
-0.295584
-0.286146
-0.277258
-0.268928
-0.261146
-0.253883
-0.247048
-0.240689
-0.40194
-0.392399
-0.384257
-0.376544
-0.368632
-0.360463
-0.351974
-0.343139
-0.33402
-0.324748
-0.315481
-0.30637
-0.297541
-0.289088
-0.281068
-0.273509
-0.266414
-0.259772
-0.253516
-0.247666
-0.390371
-0.381733
-0.374236
-0.367151
-0.360008
-0.352792
-0.345437
-0.33788
-0.330119
-0.322216
-0.314271
-0.306397
-0.2987
-0.291269
-0.284166
-0.277429
-0.271076
-0.265109
-0.25948
-0.25419
-0.379244
-0.371513
-0.364659
-0.358155
-0.351674
-0.345248
-0.338834
-0.332356
-0.325775
-0.319103
-0.312389
-0.305703
-0.299126
-0.29273
-0.286577
-0.280706
-0.275143
-0.269901
-0.264946
-0.260257
-0.368683
-0.361847
-0.355631
-0.349675
-0.343774
-0.338008
-0.332363
-0.326773
-0.321188
-0.315586
-0.309976
-0.304395
-0.298891
-0.293519
-0.288327
-0.283352
-0.27862
-0.274147
-0.269912
-0.26586
-0.358775
-0.352807
-0.347219
-0.341787
-0.336409
-0.331202
-0.326184
-0.321314
-0.316543
-0.311839
-0.307186
-0.302593
-0.298084
-0.293692
-0.289448
-0.285382
-0.281511
-0.277848
-0.27438
-0.270998
-0.349577
-0.344433
-0.339457
-0.334533
-0.329638
-0.324916
-0.320415
-0.316123
-0.312004
-0.308027
-0.304171
-0.300427
-0.296803
-0.293315
-0.289979
-0.286812
-0.28382
-0.281005
-0.278357
-0.275689
-0.341116
-0.336742
-0.332356
-0.327924
-0.323483
-0.319196
-0.315134
-0.311307
-0.307703
-0.304301
-0.301081
-0.298034
-0.295162
-0.292471
-0.28997
-0.287667
-0.285556
-0.283625
-0.281862
-0.279982
-0.333396
-0.329729
-0.325903
-0.321947
-0.317942
-0.314056
-0.310377
-0.306937
-0.30374
-0.30078
-0.29805
-0.295547
-0.293278
-0.291253
-0.289485
-0.28798
-0.286732
-0.285713
-0.284917
-0.28396
-0.3264
-0.323373
-0.320073
-0.316574
-0.312988
-0.309482
-0.306152
-0.303043
-0.300174
-0.297554
-0.295189
-0.293087
-0.291269
-0.289761
-0.288592
-0.287786
-0.287349
-0.28726
-0.287518
-0.287712
-0.320097
-0.31764
-0.314827
-0.311764
-0.308582
-0.305441
-0.302438
-0.299627
-0.297035
-0.294681
-0.29258
-0.290756
-0.289245
-0.288094
-0.287364
-0.287114
-0.287393
-0.288216
-0.289606
-0.291299
-0.314442
-0.312486
-0.310119
-0.307469
-0.304675
-0.301886
-0.299198
-0.296665
-0.294319
-0.292181
-0.290274
-0.288629
-0.287295
-0.286344
-0.285869
-0.285985
-0.286815
-0.288456
-0.290996
-0.294618
-0.309382
-0.307861
-0.3059
-0.303635
-0.30121
-0.298761
-0.296378
-0.294113
-0.291995
-0.290047
-0.288288
-0.286752
-0.28549
-0.284589
-0.284174
-0.284417
-0.285538
-0.287774
-0.29137
-0.297402
-0.304857
-0.303712
-0.302115
-0.300206
-0.298128
-0.296005
-0.293917
-0.291912
-0.290015
-0.288243
-0.28661
-0.285138
-0.283874
-0.282899
-0.282349
-0.282437
-0.283474
-0.285864
-0.290174
-0.298876
-0.300806
-0.299984
-0.298711
-0.297127
-0.295372
-0.293555
-0.291749
-0.289995
-0.288314
-0.286713
-0.285197
-0.283773
-0.282466
-0.281332
-0.280484
-0.280129
-0.280614
-0.282464
-0.286811
-0.298227
-0.297169
-0.296625
-0.295637
-0.294346
-0.292885
-0.291352
-0.289809
-0.288293
-0.286819
-0.285386
-0.283986
-0.282608
-0.281247
-0.279914
-0.278656
-0.277597
-0.276978
-0.277198
-0.279738
-0.291466
-0.293892
-0.293587
-0.292849
-0.291817
-0.290621
-0.289343
-0.288041
-0.286744
-0.285462
-0.284189
-0.282905
-0.28158
-0.280176
-0.278643
-0.276916
-0.274911
-0.27249
-0.269178
-0.263738
-0.257248
-0.290927
-0.290827
-0.290306
-0.289502
-0.288538
-0.287487
-0.286399
-0.285298
-0.284191
-0.283067
-0.281902
-0.280658
-0.279282
-0.277702
-0.275823
-0.273526
-0.270664
-0.266869
-0.261294
-0.255482
-0.288233
-0.28831
-0.287976
-0.287369
-0.286608
-0.285754
-0.284851
-0.283921
-0.282969
-0.281982
-0.280936
-0.279793
-0.278505
-0.277007
-0.275224
-0.273076
-0.270489
-0.267249
-0.26293
-0.25922
-0.285777
-0.286007
-0.285834
-0.285397
-0.284809
-0.284125
-0.283382
-0.2826
-0.281781
-0.280915
-0.27998
-0.278942
-0.277762
-0.27639
-0.27477
-0.272857
-0.270616
-0.267903
-0.264516
-0.26212
-0.283535
-0.283896
-0.283861
-0.283569
-0.28313
-0.282592
-0.281986
-0.281331
-0.28063
-0.279872
-0.27904
-0.278107
-0.277043
-0.275812
-0.274379
-0.272727
-0.270849
-0.268658
-0.266081
-0.264585
-0.281487
-0.28196
-0.282042
-0.281874
-0.281563
-0.281151
-0.280666
-0.280123
-0.279527
-0.27887
-0.278139
-0.277314
-0.276373
-0.275295
-0.274065
-0.272683
-0.271167
-0.269466
-0.267576
-0.266712
-0.279617
-0.280186
-0.280368
-0.280306
-0.280106
-0.279804
-0.279426
-0.278986
-0.278489
-0.27793
-0.2773
-0.276587
-0.275778
-0.274862
-0.273836
-0.272717
-0.271531
-0.270253
-0.268897
-0.268458
-0.277912
-0.278562
-0.278829
-0.278859
-0.278757
-0.278553
-0.278272
-0.277928
-0.277526
-0.277065
-0.276539
-0.275943
-0.275269
-0.274516
-0.27369
-0.272813
-0.271916
-0.270983
-0.270027
-0.269865
-0.276363
-0.277081
-0.277421
-0.277531
-0.277514
-0.277399
-0.277208
-0.276954
-0.276645
-0.276281
-0.27586
-0.275381
-0.274843
-0.274249
-0.273609
-0.272948
-0.272295
-0.271636
-0.270973
-0.270991
-0.274959
-0.275735
-0.276137
-0.276317
-0.276376
-0.276342
-0.276233
-0.276064
-0.275844
-0.275575
-0.275258
-0.274894
-0.274486
-0.274039
-0.273567
-0.273092
-0.27264
-0.272194
-0.271746
-0.271883
-0.273693
-0.274518
-0.274975
-0.275215
-0.275342
-0.27538
-0.275347
-0.275258
-0.275121
-0.274942
-0.274723
-0.274467
-0.274178
-0.273865
-0.273538
-0.273219
-0.27293
-0.272649
-0.272361
-0.27258
-0.272559
-0.273427
-0.27393
-0.274223
-0.27441
-0.274511
-0.274547
-0.27453
-0.274471
-0.274375
-0.274245
-0.274086
-0.273904
-0.273706
-0.273503
-0.273312
-0.273152
-0.272999
-0.272831
-0.27311
-0.271552
-0.272457
-0.273
-0.273339
-0.273578
-0.273736
-0.273832
-0.27388
-0.273889
-0.273866
-0.273815
-0.273742
-0.273651
-0.27355
-0.273449
-0.273363
-0.273305
-0.27325
-0.273175
-0.2735
-0.270668
-0.271606
-0.272184
-0.272563
-0.272845
-0.273052
-0.2732
-0.273304
-0.273372
-0.273412
-0.273429
-0.273428
-0.273413
-0.273393
-0.273374
-0.27337
-0.273393
-0.273414
-0.273412
-0.273773
-0.269907
-0.270874
-0.271482
-0.271893
-0.272213
-0.27246
-0.272652
-0.272802
-0.27292
-0.273013
-0.273085
-0.273143
-0.27319
-0.273233
-0.27328
-0.273342
-0.273426
-0.273507
-0.273561
-0.273952
-0.269268
-0.270261
-0.270892
-0.271331
-0.271681
-0.271962
-0.272189
-0.272377
-0.272535
-0.272669
-0.272786
-0.27289
-0.272986
-0.273079
-0.273176
-0.273287
-0.273419
-0.273544
-0.273642
-0.274056
-0.268752
-0.269766
-0.270417
-0.270877
-0.271251
-0.271557
-0.271812
-0.272029
-0.272218
-0.272384
-0.272535
-0.272674
-0.272806
-0.272937
-0.273072
-0.27322
-0.273386
-0.273544
-0.273676
-0.274107
-0.268361
-0.269391
-0.270058
-0.270533
-0.270924
-0.27125
-0.271524
-0.271762
-0.271973
-0.272163
-0.272337
-0.272501
-0.27266
-0.272817
-0.272978
-0.273152
-0.273343
-0.273524
-0.27368
-0.274123
-0.268096
-0.269138
-0.269814
-0.270299
-0.270702
-0.27104
-0.271328
-0.271579
-0.271804
-0.272008
-0.272198
-0.272378
-0.272553
-0.272727
-0.272905
-0.273095
-0.273301
-0.273496
-0.273668
-0.274119
-0.267959
-0.269006
-0.269688
-0.270178
-0.270586
-0.27093
-0.271224
-0.271482
-0.271713
-0.271925
-0.272122
-0.27231
-0.272492
-0.272673
-0.272859
-0.273057
-0.27327
-0.273472
-0.273651
-0.274105
-0.286611
-0.30501
-0.355869
-0.295004
-0.18783
-0.120436
-0.0612434
-0.016377
0.00400462
0.0194399
0.021942
0.0234517
0.0216389
0.0196193
0.0168425
0.014081
0.0109161
0.00840249
0.00495308
0.00263472
-0.286688
-0.305184
-0.356421
-0.295674
-0.188199
-0.120575
-0.0613369
-0.0164179
0.00395238
0.0193797
0.0218824
0.0233973
0.0215958
0.019588
0.0168213
0.014068
0.0109088
0.00839841
0.00495218
0.0026332
-0.286862
-0.305494
-0.357332
-0.296803
-0.18886
-0.120905
-0.0616175
-0.0165793
0.00380688
0.0192517
0.0217759
0.0233079
0.0215284
0.0195387
0.0167859
0.0140439
0.0108919
0.00838701
0.00494638
0.00262779
-0.287109
-0.305905
-0.358536
-0.29834
-0.189804
-0.121423
-0.0620811
-0.0168623
0.00356845
0.0190548
0.0216219
0.0231831
0.0214366
0.0194715
0.0167365
0.0140087
0.0108656
0.00836825
0.00493571
0.00261848
-0.287395
-0.306366
-0.359944
-0.300222
-0.191017
-0.122126
-0.0627217
-0.0172675
0.00323813
0.0187876
0.0214201
0.0230222
0.0213204
0.0193865
0.0166733
0.0139625
0.0108299
0.0083421
0.00492027
0.00260525
-0.287681
-0.306821
-0.361457
-0.302373
-0.19248
-0.123005
-0.0635308
-0.0177948
0.0028176
0.0184488
0.0211695
0.0228243
0.0211797
0.0192837
0.0165964
0.0139053
0.0107849
0.00830851
0.00490016
0.00258811
-0.287928
-0.307211
-0.362971
-0.304716
-0.194178
-0.124055
-0.0644982
-0.0184431
0.0023093
0.018037
0.0208697
0.0225885
0.0210141
0.0191632
0.016506
0.0138373
0.0107308
0.00826748
0.00487553
0.00256709
-0.288097
-0.307478
-0.364387
-0.30718
-0.196092
-0.125265
-0.0656126
-0.0192103
0.00171633
0.0175515
0.0205201
0.0223142
0.0208235
0.0190251
0.0164024
0.0137584
0.0106677
0.00821901
0.00484656
0.00254224
-0.288159
-0.307573
-0.365619
-0.309699
-0.198207
-0.126626
-0.0668612
-0.0200929
0.0010425
0.0169925
0.0201205
0.0220007
0.0206079
0.0188696
0.0162858
0.013669
0.0105958
0.00816313
0.00481345
0.00251364
-0.28809
-0.307454
-0.366595
-0.31222
-0.20051
-0.128128
-0.0682308
-0.0210861
0.00029229
0.0163605
0.0196709
0.0216475
0.0203671
0.0186967
0.0161566
0.013569
0.0105152
0.0080999
0.0047764
0.00248141
-0.28788
-0.307093
-0.367263
-0.314701
-0.202989
-0.129759
-0.0697074
-0.0221839
-0.000529124
0.0156575
0.019172
0.0212549
0.0201014
0.018507
0.0160151
0.0134589
0.0104264
0.00802943
0.00473565
0.00244567
-0.287525
-0.306471
-0.367583
-0.317111
-0.205636
-0.13151
-0.0712773
-0.0233791
-0.00141613
0.0148861
0.0186247
0.0208232
0.019811
0.0183008
0.0158619
0.013339
0.0103295
0.00795185
0.00469142
0.00240661
-0.287034
-0.305579
-0.367533
-0.319431
-0.208447
-0.133376
-0.0729289
-0.0246646
-0.00236319
0.0140498
0.0180306
0.0203532
0.0194964
0.0180787
0.0156975
0.0132095
0.0102249
0.00786735
0.00464394
0.00236441
-0.286421
-0.304418
-0.367096
-0.321648
-0.211424
-0.135352
-0.074652
-0.0260329
-0.00336449
0.0131525
0.0173914
0.0198462
0.0191584
0.0178415
0.0155224
0.0130711
0.0101129
0.00777616
0.00459344
0.00231929
-0.2857
-0.30299
-0.366254
-0.323732
-0.214553
-0.137429
-0.076427
-0.02747
-0.00440998
0.0122006
0.0167099
0.0193035
0.0187975
0.0175896
0.0153373
0.012924
0.00999375
0.00767843
0.00454011
0.00227145
-0.284874
-0.301298
-0.364992
-0.325618
-0.217771
-0.139564
-0.0782119
-0.0289475
-0.00548289
0.0112046
0.0159905
0.0187273
0.0184145
0.0173238
0.0151425
0.0127687
0.00986769
0.00757425
0.00448404
0.00222108
-0.283979
-0.299379
-0.363359
-0.327351
-0.221073
-0.141748
-0.0800126
-0.0304655
-0.00658673
0.0101687
0.0152376
0.018123
0.0180129
0.0170463
0.0149397
0.0126064
0.00973567
0.00746456
0.00442554
0.00216852
-0.283057
-0.297276
-0.361452
-0.329342
-0.224873
-0.14426
-0.0820713
-0.0321657
-0.0078046
0.00906139
0.0144442
0.0174951
0.0175994
0.016763
0.0147331
0.0124414
0.00960093
0.00735249
0.00436598
0.00211449
-0.281542
-0.294721
-0.358825
-0.331663
-0.229712
-0.147514
-0.0846187
-0.0341846
-0.00918542
0.00784462
0.0135877
0.016825
0.0171643
0.0164708
0.014523
0.0122739
0.00946388
0.00723757
0.00430657
0.0020591
-0.277568
-0.291018
-0.353953
-0.33136
-0.233355
-0.150066
-0.0862182
-0.035634
-0.0101539
0.00673666
0.0127089
0.01606
0.0166459
0.0161233
0.0142793
0.0120714
0.00930006
0.00709365
0.004239
0.00199761
-0.242604
-0.263914
-0.315399
-0.310731
-0.238644
-0.154709
-0.085715
-0.0376199
-0.0115606
0.00208724
0.00796116
0.0111786
0.0130767
0.0136769
0.0125908
0.0106059
0.00812123
0.0060119
0.00375699
0.00160056
-0.205875
-0.235608
-0.26159
-0.264313
-0.220056
-0.148702
-0.0839816
-0.0401054
-0.0160547
-0.00525883
-0.00024668
0.00311592
0.00632201
0.00856725
0.0089879
0.00791545
0.00594129
0.00408213
0.00249039
0.000878991
-0.183678
-0.204929
-0.217118
-0.21551
-0.1864
-0.134424
-0.0819941
-0.0438715
-0.0220646
-0.0119785
-0.00705478
-0.00332469
0.000469793
0.00366586
0.00542007
0.00547314
0.00416408
0.0025
0.00140864
0.000658711
-0.151773
-0.172973
-0.178987
-0.17391
-0.154026
-0.119305
-0.0805387
-0.0489675
-0.028716
-0.0178465
-0.0119787
-0.00777412
-0.00392248
-0.000454833
0.00216763
0.00330274
0.00274732
0.00129669
0.000486436
0.000369324
-0.125101
-0.143938
-0.14828
-0.143012
-0.129364
-0.106801
-0.0791649
-0.0535048
-0.0343269
-0.0220947
-0.0150111
-0.0106159
-0.00717073
-0.00394183
-0.000930862
0.00107201
0.00132451
0.000208452
-0.000477729
-0.000218236
-0.103287
-0.119764
-0.124287
-0.120734
-0.111444
-0.0963315
-0.0763351
-0.0553839
-0.0374398
-0.0245305
-0.0168923
-0.0127509
-0.00985017
-0.00695789
-0.00380581
-0.00117089
-7.88101e-05
-0.000687081
-0.00116839
-0.000438252
-0.0865133
-0.100624
-0.105698
-0.104148
-0.0978097
-0.0869794
-0.0718588
-0.0546486
-0.0385906
-0.0262641
-0.0188503
-0.0149887
-0.0122716
-0.00942529
-0.00619397
-0.00317159
-0.00134235
-0.00132613
-0.00154738
-0.00061992
-0.073657
-0.0857504
-0.0911059
-0.0910223
-0.0866057
-0.0783585
-0.0664886
-0.0524558
-0.038885
-0.0280513
-0.0211077
-0.0171023
-0.0140693
-0.0110645
-0.00790304
-0.00481522
-0.00250101
-0.00185661
-0.00181789
-0.000832846
-0.0637654
-0.0741413
-0.0793847
-0.0801274
-0.0770173
-0.0705838
-0.0611594
-0.0499631
-0.0390156
-0.0297847
-0.0230704
-0.0185751
-0.0151377
-0.01211
-0.00920074
-0.00627165
-0.00367302
-0.00243696
-0.00205476
-0.000966622
-0.05603
-0.0649189
-0.0697794
-0.0709446
-0.068821
-0.0638532
-0.0564778
-0.0477371
-0.0389692
-0.0309137
-0.0242667
-0.0194448
-0.0159106
-0.0130238
-0.0103355
-0.0075465
-0.00476344
-0.00299837
-0.00219279
-0.000995126
-0.049851
-0.0574532
-0.0618501
-0.0632698
-0.0619436
-0.0582323
-0.0525949
-0.0457404
-0.0384499
-0.0312281
-0.0248847
-0.0201672
-0.0167435
-0.0139074
-0.0112336
-0.00849304
-0.00564076
-0.00348799
-0.00228893
-0.00100446
-0.0448131
-0.0513384
-0.0553315
-0.0569372
-0.0562624
-0.0536172
-0.0493239
-0.043735
-0.037449
-0.0310748
-0.025364
-0.0209371
-0.0175319
-0.014578
-0.0118204
-0.00913936
-0.00634624
-0.00396632
-0.00242384
-0.00101222
-0.0406279
-0.0463087
-0.0499918
-0.051744
-0.0516126
-0.049791
-0.0464089
-0.0417015
-0.0363175
-0.0308644
-0.0258051
-0.0215623
-0.0180753
-0.0150204
-0.0122402
-0.00964019
-0.0069413
-0.00442715
-0.0025764
-0.00100298
-0.0370937
-0.0421489
-0.0456167
-0.0475124
-0.0478042
-0.0465329
-0.04379
-0.0398655
-0.0353427
-0.0306492
-0.026046
-0.0219251
-0.0184336
-0.0153868
-0.0126163
-0.0100412
-0.00740055
-0.00481471
-0.00272565
-0.00099605
-0.0340279
-0.0386824
-0.0420464
-0.0440781
-0.0446539
-0.0437668
-0.0415793
-0.0383617
-0.0345053
-0.0303248
-0.026074
-0.0221433
-0.0187373
-0.0157211
-0.0129279
-0.0103257
-0.00772298
-0.00512749
-0.00288027
-0.00100392
-0.0313128
-0.0357924
-0.0391604
-0.0413045
-0.0420837
-0.0415271
-0.0398155
-0.0371274
-0.033729
-0.0299366
-0.0260271
-0.022316
-0.0189891
-0.0159771
-0.0131545
-0.0105248
-0.00795351
-0.00538119
-0.00303133
-0.00102011
-0.0288451
-0.0334054
-0.0368673
-0.039117
-0.0400711
-0.0397899
-0.0384242
-0.0361036
-0.0330551
-0.0295931
-0.0259733
-0.0224348
-0.0191588
-0.0161524
-0.0133233
-0.0106761
-0.00811997
-0.0055744
-0.0031614
-0.00103954
-0.0266583
-0.0315127
-0.0351327
-0.0374814
-0.0385749
-0.0384961
-0.0373724
-0.0353229
-0.0325475
-0.0293311
-0.025912
-0.0224955
-0.0192647
-0.0162756
-0.0134509
-0.0107876
-0.0082317
-0.00570893
-0.00326292
-0.00105952
-0.0248712
-0.0301665
-0.0339506
-0.0363613
-0.0375474
-0.0376164
-0.0366697
-0.0348093
-0.032212
-0.0291463
-0.0258538
-0.0225242
-0.0193319
-0.016357
-0.0135348
-0.0108584
-0.00829906
-0.0057939
-0.00333285
-0.0010755
-0.0237555
-0.0294537
-0.0333395
-0.0357672
-0.0369976
-0.0371557
-0.0363134
-0.0345515
-0.0320388
-0.0290453
-0.0258184
-0.0225366
-0.0193649
-0.0163958
-0.0135744
-0.0108918
-0.00833085
-0.00583552
-0.00336852
-0.00108369
-0.165984
-0.175972
-0.186069
-0.196363
-0.206954
-0.217952
-0.229479
-0.241663
-0.254628
-0.268488
-0.283299
-0.299044
-0.315498
-0.332241
-0.348335
-0.362711
-0.373413
-0.379742
-0.379389
-0.377129
-0.106325
-0.109876
-0.113129
-0.116068
-0.118674
-0.120924
-0.122793
-0.124257
-0.125292
-0.125882
-0.126021
-0.125739
-0.125093
-0.124249
-0.123412
-0.123033
-0.123476
-0.125651
-0.129826
-0.138171
-0.0803103
-0.0845948
-0.0889137
-0.0932775
-0.0976973
-0.102185
-0.106753
-0.111415
-0.116181
-0.121064
-0.12607
-0.131199
-0.136436
-0.141749
-0.147066
-0.152289
-0.157235
-0.161736
-0.165482
-0.168311
-0.0661952
-0.0691085
-0.0719823
-0.0748176
-0.077615
-0.0803749
-0.0830976
-0.0857829
-0.0884305
-0.09104
-0.0936117
-0.096147
-0.0986498
-0.101129
-0.103602
-0.106097
-0.108666
-0.111382
-0.114403
-0.117957
-0.0552884
-0.0576286
-0.0599726
-0.0623226
-0.0646812
-0.0670508
-0.069434
-0.0718333
-0.0742511
-0.07669
-0.0791523
-0.0816399
-0.0841542
-0.086695
-0.0892614
-0.0918469
-0.0944484
-0.0970438
-0.0996522
-0.102233
-0.0484748
-0.0503024
-0.0521278
-0.0539516
-0.0557744
-0.0575971
-0.0594202
-0.0612446
-0.0630711
-0.0649006
-0.0667341
-0.0685725
-0.0704174
-0.0722698
-0.0741327
-0.0760071
-0.0779029
-0.079819
-0.0818029
-0.0838579
-0.0429912
-0.0444469
-0.0459038
-0.0473624
-0.0488232
-0.0502869
-0.051754
-0.0532251
-0.0547008
-0.0561819
-0.0576688
-0.0591622
-0.0606627
-0.0621706
-0.063687
-0.0652108
-0.0667466
-0.0682879
-0.0698638
-0.0714554
-0.0388904
-0.0400691
-0.0412481
-0.0424277
-0.0436079
-0.0447891
-0.0459714
-0.0471552
-0.0483407
-0.0495283
-0.0507182
-0.0519108
-0.0531065
-0.0543054
-0.0555085
-0.0567151
-0.0579291
-0.0591459
-0.0603891
-0.0616426
-0.0355841
-0.0365487
-0.0375135
-0.0384785
-0.0394439
-0.0404099
-0.0413765
-0.0423439
-0.0433124
-0.0442821
-0.0452531
-0.0462257
-0.0472
-0.048176
-0.0491542
-0.0501341
-0.051118
-0.0521023
-0.0531042
-0.0541091
-0.0329555
-0.0337524
-0.0345491
-0.0353458
-0.0361425
-0.0369393
-0.0377363
-0.0385335
-0.0393312
-0.0401293
-0.040928
-0.0417273
-0.0425273
-0.043328
-0.0441297
-0.0449319
-0.0457364
-0.0465404
-0.0473567
-0.0481741
-0.0308019
-0.0314613
-0.0321207
-0.0327802
-0.0334399
-0.0340997
-0.0347598
-0.0354202
-0.0360809
-0.0367421
-0.0374037
-0.0380656
-0.0387281
-0.039391
-0.0400544
-0.040718
-0.041383
-0.0420472
-0.0427204
-0.0433943
-0.0290062
-0.0295515
-0.0300974
-0.0306438
-0.0311908
-0.0317384
-0.0322867
-0.0328356
-0.0333852
-0.0339353
-0.0344861
-0.0350373
-0.0355891
-0.0361413
-0.0366939
-0.0372466
-0.0378003
-0.0383533
-0.0389129
-0.0394736
-0.0274092
-0.027858
-0.0283083
-0.0287601
-0.0292133
-0.0296681
-0.0301243
-0.0305818
-0.0310408
-0.0315009
-0.0319623
-0.0324247
-0.0328881
-0.0333523
-0.0338173
-0.0342827
-0.034749
-0.0352152
-0.0356864
-0.0361596
-0.0259217
-0.02629
-0.0266613
-0.0270354
-0.0274122
-0.0277918
-0.028174
-0.0285586
-0.0289456
-0.0293347
-0.0297258
-0.0301186
-0.030513
-0.0309087
-0.0313056
-0.0317032
-0.032102
-0.0325009
-0.0329038
-0.0333094
-0.0243029
-0.0246041
-0.0249106
-0.0252223
-0.0255389
-0.0258602
-0.026186
-0.026516
-0.0268499
-0.0271874
-0.0275282
-0.0278719
-0.0282183
-0.028567
-0.0289176
-0.0292698
-0.0296237
-0.0299784
-0.0303366
-0.0306985
-0.0225209
-0.0227731
-0.0230339
-0.0233029
-0.0235794
-0.023863
-0.0241531
-0.0244493
-0.0247509
-0.0250574
-0.0253683
-0.0256831
-0.0260012
-0.0263222
-0.0266456
-0.0269709
-0.0272978
-0.0276259
-0.0279566
-0.0282912
-0.019924
-0.0201699
-0.0204283
-0.0206981
-0.0209782
-0.0212675
-0.0215651
-0.02187
-0.0221814
-0.0224983
-0.0228199
-0.0231456
-0.0234746
-0.0238063
-0.0241399
-0.0244751
-0.0248112
-0.0251479
-0.025486
-0.0258271
-0.0166016
-0.0169114
-0.0172335
-0.0175663
-0.0179084
-0.0182583
-0.0186148
-0.0189768
-0.0193432
-0.0197131
-0.0200855
-0.0204598
-0.0208351
-0.0212109
-0.0215864
-0.0219613
-0.022335
-0.0227072
-0.0230782
-0.0234498
-0.0115904
-0.0121619
-0.0127273
-0.0132862
-0.0138382
-0.0143832
-0.0149207
-0.0154507
-0.015973
-0.0164874
-0.0169939
-0.0174923
-0.0179827
-0.018465
-0.0189392
-0.0194054
-0.0198635
-0.0203138
-0.0207564
-0.0211933
-0.00611064
-0.00703999
-0.00793507
-0.00879776
-0.00962985
-0.010433
-0.0112088
-0.0119588
-0.0126843
-0.0133867
-0.0140671
-0.0147267
-0.0153666
-0.0159877
-0.0165911
-0.0171775
-0.0177478
-0.0183029
-0.0188433
-0.0193712
-0.00610227
-0.00703268
-0.00792875
-0.00879236
-0.00962529
-0.0104293
-0.0112058
-0.0119565
-0.0126827
-0.0133857
-0.0140666
-0.0147268
-0.0153671
-0.0159887
-0.0165925
-0.0171793
-0.01775
-0.0183053
-0.0188461
-0.0193743
-0.0115908
-0.0121627
-0.0127285
-0.0132878
-0.0138403
-0.0143856
-0.0149235
-0.0154539
-0.0159765
-0.0164912
-0.016998
-0.0174967
-0.0179874
-0.01847
-0.0189444
-0.0194108
-0.0198692
-0.0203197
-0.0207625
-0.0211996
-0.0166136
-0.0169232
-0.0172452
-0.0175779
-0.0179198
-0.0182696
-0.018626
-0.0189879
-0.0193543
-0.0197241
-0.0200966
-0.0204708
-0.0208461
-0.0212218
-0.0215974
-0.0219722
-0.0223459
-0.0227181
-0.0230891
-0.0234607
-0.0199421
-0.0201875