/*--------------------------------*- C++ -*----------------------------------*\
  =========                 |
  \\      /  F ield         | OpenFOAM: The Open Source CFD Toolbox
   \\    /   O peration     | Website:  https://openfoam.org
    \\  /    A nd           | Version:  6.0
     \\/     M anipulation  |
\*---------------------------------------------------------------------------*/
FoamFile
{
    version     2.0;
    format      ascii;
    class       volVectorField;
    location    "21";
    object      U;
}
// * * * * * * * * * * * * * * * * * * * * * * * * * * * * * * * * * * * * * //

dimensions      [0 1 -1 0 0 0 0];

internalField   nonuniform List<vector> 
4000
(
(-0.00050103 0.000539543 -3.5374e-21)
(-0.00273067 0.00135094 1.89083e-20)
(-0.00684231 0.00193078 -2.2998e-20)
(-0.0118841 0.00233202 1.75126e-20)
(-0.0173624 0.00259476 8.52818e-21)
(-0.0230003 0.00275172 -2.56093e-20)
(-0.0286002 0.002831 -2.2636e-21)
(-0.0340353 0.00285645 -8.03436e-22)
(-0.0392356 0.00284823 -1.32936e-20)
(-0.0441725 0.0028233 -7.20228e-21)
(-0.0488478 0.00279585 5.37106e-21)
(-0.0532844 0.00277756 2.04205e-20)
(-0.0575204 0.00277783 -1.52904e-21)
(-0.0616029 0.00280395 2.18803e-21)
(-0.0655849 0.00286116 -2.0569e-20)
(-0.0695249 0.0029527 1.26739e-20)
(-0.0734816 0.00307996 -1.816e-20)
(-0.077469 0.00324339 2.74812e-20)
(-0.0814451 0.00344326 -3.07909e-23)
(-0.085723 0.00367256 5.93613e-21)
(-0.000587695 0.00168055 1.1747e-20)
(-0.00293998 0.00418288 -6.00325e-20)
(-0.00712641 0.00594988 -4.14642e-20)
(-0.0122057 0.00715167 -2.8159e-20)
(-0.0176912 0.0079175 -3.62252e-20)
(-0.0233103 0.00835221 7.97221e-21)
(-0.0288696 0.00854491 -4.18178e-20)
(-0.0342448 0.00857051 -9.39278e-21)
(-0.0393678 0.0084917 2.9678e-21)
(-0.0442117 0.00836082 3.12562e-20)
(-0.0487791 0.00822135 -3.40957e-20)
(-0.0530941 0.00810901 4.74284e-20)
(-0.0571955 0.00805251 -3.55171e-20)
(-0.0611316 0.00807412 -4.21192e-20)
(-0.0649564 0.00819001 -5.80445e-20)
(-0.0687301 0.00841034 3.70687e-20)
(-0.0725133 0.00873969 -1.19899e-20)
(-0.0763215 0.0091798 -4.36595e-20)
(-0.0801125 0.00973194 4.12807e-20)
(-0.0842025 0.0103752 -3.06781e-20)
(-0.000761439 0.00280451 1.14831e-19)
(-0.00335981 0.00697235 5.94702e-20)
(-0.007697 0.00990703 6.68811e-20)
(-0.0128527 0.0118934 5.56516e-21)
(-0.0183537 0.0131483 3.69654e-20)
(-0.0239372 0.0138476 4.61371e-20)
(-0.029417 0.0141404 -8.38417e-20)
(-0.0346746 0.0141519 -4.43998e-20)
(-0.039646 0.0139868 -5.78242e-20)
(-0.0443069 0.0137324 6.17286e-20)
(-0.0486621 0.0134615 -4.71479e-20)
(-0.0527375 0.0132341 -6.06609e-20)
(-0.0565736 0.0130987 -2.20873e-20)
(-0.0602207 0.0130935 2.09839e-20)
(-0.0637353 0.0132465 -5.83443e-21)
(-0.0671807 0.0135759 8.41275e-21)
(-0.0706211 0.0140904 9.73718e-20)
(-0.0740758 0.0147939 -1.36707e-20)
(-0.0775017 0.0156895 -9.89879e-20)
(-0.0812223 0.0167422 1.305e-19)
(-0.00102036 0.00390108 3.99532e-20)
(-0.00398606 0.00969311 -5.6436e-20)
(-0.00854924 0.0137636 -1.41571e-20)
(-0.0138202 0.0165085 2.64668e-20)
(-0.0193459 0.0182298 7.51528e-20)
(-0.0248778 0.0191725 1.64541e-19)
(-0.0302415 0.0195442 1.60779e-19)
(-0.0353267 0.0195188 1.33567e-20)
(-0.0400753 0.019242 9.85938e-20)
(-0.0444674 0.0188356 1.50911e-19)
(-0.0485108 0.0184015 -1.20586e-19)
(-0.0522336 0.0180243 1.78461e-19)
(-0.055679 0.0177734 -4.04087e-20)
(-0.0589001 0.017704 1.01942e-20)
(-0.0619568 0.0178577 4.22021e-20)
(-0.064917 0.0182626 5.60817e-20)
(-0.0678511 0.0189331 -8.82565e-20)
(-0.0707833 0.0198772 -7.36616e-20)
(-0.0736712 0.0211017 -1.30366e-19)
(-0.0768495 0.0225567 1.89768e-19)
(-0.0013618 0.00496114 -2.08739e-20)
(-0.00481268 0.0123213 -2.13674e-19)
(-0.00967547 0.0174842 -6.32016e-20)
(-0.0151 0.020952 -1.54015e-19)
(-0.0206596 0.0231091 5.82171e-20)
(-0.0261256 0.0242671 -9.18169e-20)
(-0.0313386 0.0246895 3.15752e-20)
(-0.0361997 0.0245972 -1.94467e-19)
(-0.0406589 0.0241753 1.0259e-19)
(-0.0447019 0.0235789 -1.22343e-19)
(-0.04834 0.0229386 -1.08802e-19)
(-0.0516045 0.022364 -1.21823e-19)
(-0.0545412 0.0219464 1.10582e-19)
(-0.0572067 0.0217598 -9.92843e-20)
(-0.0596654 0.021862 1.38252e-19)
(-0.0619912 0.0222936 3.99564e-20)
(-0.0642626 0.0230778 9.89039e-20)
(-0.0665115 0.0242293 4.34096e-20)
(-0.0686974 0.0257613 -1.71869e-19)
(-0.0711719 0.0276091 2.7969e-19)
(-0.00178244 0.00597701 9.20194e-20)
(-0.00583163 0.014836 7.07914e-21)
(-0.0110648 0.0210369 3.79072e-20)
(-0.0166793 0.0251835 1.3227e-19)
(-0.0222815 0.0277391 -2.02492e-20)
(-0.0276672 0.0290785 2.14789e-19)
(-0.0326965 0.0295185 9.53313e-20)
(-0.0372849 0.0293242 8.01408e-21)
(-0.0413926 0.0287177 2.45133e-19)
(-0.0450117 0.0278858 8.03212e-20)
(-0.0481583 0.0269869 3.81031e-20)
(-0.0508667 0.0261558 1.20932e-19)
(-0.0531856 0.0255066 1.10847e-19)
(-0.0551751 0.0251344 2.02362e-19)
(-0.0569047 0.0251162 -1.80874e-19)
(-0.0584556 0.025509 2.55672e-19)
(-0.0599166 0.0263492 3.35471e-21)
(-0.0613303 0.0276623 -3.26795e-19)
(-0.0626607 0.0294726 4.2364e-19)
(-0.0642839 0.0317012 1.75498e-19)
(-0.0022785 0.00694237 -5.42292e-20)
(-0.00703283 0.0172188 -9.84365e-20)
(-0.0127022 0.0243936 -2.0484e-19)
(-0.0185393 0.0291675 -6.07081e-21)
(-0.0241897 0.0320788 3.49528e-20)
(-0.0294792 0.0335623 -2.61564e-19)
(-0.0342916 0.0339841 -1.94049e-19)
(-0.0385599 0.0336503 -2.77586e-20)
(-0.0422567 0.0328168 -2.45452e-19)
(-0.0453823 0.0316998 -1.69942e-19)
(-0.0479576 0.0304839 -4.95272e-20)
(-0.05002 0.0293283 -1.59475e-19)
(-0.0516209 0.0283706 -2.59956e-21)
(-0.0528235 0.0277295 -2.1178e-19)
(-0.0537025 0.0275048 8.90856e-20)
(-0.0543474 0.027775 -1.01638e-19)
(-0.0548592 0.0285954 7.78596e-20)
(-0.0552943 0.0300093 -9.90777e-20)
(-0.0556259 0.0320587 -2.83151e-19)
(-0.0562645 0.0346526 -8.6038e-20)
(-0.00284567 0.00785202 -1.99596e-20)
(-0.00840383 0.0194538 -2.16752e-20)
(-0.014568 0.0275294 1.71743e-19)
(-0.0206535 0.0328729 -2.79477e-19)
(-0.0263517 0.0360936 4.10007e-20)
(-0.031524 0.0376823 -1.61436e-19)
(-0.0360824 0.0380506 7.62897e-20)
(-0.0399812 0.0375411 3.42896e-19)
(-0.0432076 0.0364399 -2.19971e-20)
(-0.0457715 0.0349889 -2.55801e-19)
(-0.0476994 0.0333962 4.64802e-20)
(-0.0490317 0.0318437 9.01229e-21)
(-0.0498216 0.0304928 -5.25178e-20)
(-0.0501347 0.0294872 5.31412e-21)
(-0.0500501 0.0289534 4.61395e-19)
(-0.049666 0.0289976 -6.56995e-20)
(-0.0490974 0.0297018 -1.28158e-19)
(-0.0484179 0.0311366 -2.29937e-19)
(-0.0476158 0.0333725 2.34569e-19)
(-0.0471495 0.0363111 1.01123e-19)
(-0.00347912 0.00870136 1.00779e-19)
(-0.00992937 0.0215264 -1.31853e-19)
(-0.0166362 0.0304219 1.86413e-19)
(-0.0229852 0.0362719 1.87654e-19)
(-0.0287206 0.0397537 1.72985e-19)
(-0.0337449 0.0414101 3.50776e-19)
(-0.0380035 0.0416934 2.26832e-19)
(-0.0414755 0.0409781 -4.87425e-19)
(-0.044166 0.0395756 2.49279e-19)
(-0.0460961 0.0377488 1.95609e-19)
(-0.0472988 0.0357253 -2.7778e-21)
(-0.0478173 0.0337068 2.18965e-19)
(-0.0477059 0.0318765 1.70707e-19)
(-0.0470311 0.0304039 -9.28604e-20)
(-0.0458752 0.0294456 3.13775e-19)
(-0.0443443 0.0291416 -3.88962e-19)
(-0.0425685 0.029611 1.55684e-19)
(-0.0406418 0.0309641 2.0021e-19)
(-0.038575 0.0333159 -4.66493e-20)
(-0.0368938 0.0365701 4.02063e-19)
(-0.0041732 0.00948585 2.02522e-19)
(-0.0115907 0.0234222 1.05004e-20)
(-0.0188734 0.0330493 -7.2687e-20)
(-0.0254858 0.0393389 -7.67772e-20)
(-0.0312318 0.0430333 -3.55543e-19)
(-0.0360614 0.0447233 5.03475e-20)
(-0.0399582 0.0448975 1.42647e-19)
(-0.0429307 0.0439571 -6.86112e-20)
(-0.045005 0.0422333 5.65967e-20)
(-0.046216 0.0400045 -1.50071e-20)
(-0.0466045 0.0375119 -7.39287e-20)
(-0.046217 0.034972 7.01905e-20)
(-0.0451079 0.0325862 -3.0516e-19)
(-0.0433433 0.0305477 2.92545e-19)
(-0.0410066 0.0290448 -2.53392e-19)
(-0.0382101 0.0282572 7.82726e-20)
(-0.035099 0.0283513 1.78106e-19)
(-0.0317903 0.0294947 -3.7049e-20)
(-0.028325 0.0318688 -1.23241e-19)
(-0.0253228 0.0353963 -8.37689e-20)
(-0.00492122 0.0102004 -2.52272e-19)
(-0.0133649 0.025126 -1.65964e-20)
(-0.0212379 0.0353889 5.31268e-20)
(-0.0280928 0.0420477 1.3659e-19)
(-0.0338007 0.045907 -1.92836e-19)
(-0.0383649 0.0476023 -1.68274e-19)
(-0.0418128 0.0476541 3.92767e-19)
(-0.044187 0.0464852 -2.17032e-19)
(-0.0455382 0.0444408 -1.40001e-19)
(-0.0459184 0.0418085 -2.00883e-19)
(-0.0453784 0.0388362 1.32984e-19)
(-0.0439693 0.0357481 -3.59579e-21)
(-0.0417461 0.0327569 -2.48342e-19)
(-0.0387729 0.0300745 -4.06249e-19)
(-0.0351321 0.0279185 3.09501e-19)
(-0.0309396 0.0265112 -2.50766e-19)
(-0.0263545 0.026076 3.55533e-19)
(-0.0215175 0.0268571 -9.95958e-20)
(-0.0165075 0.0291332 2.0934e-19)
(-0.012073 0.0328726 -7.10575e-19)
(-0.00571506 0.0108389 -5.1092e-19)
(-0.0152239 0.0266205 3.35007e-19)
(-0.0236779 0.0374161 4.55613e-20)
(-0.030728 0.04437 8.81268e-21)
(-0.0363194 0.0483476 -2.06558e-19)
(-0.0405151 0.0500266 3.03751e-19)
(-0.0433913 0.0499556 3.31565e-20)
(-0.0450292 0.0485746 -6.22867e-20)
(-0.0455087 0.0462374 -1.99925e-19)
(-0.0449025 0.0432344 2.1611e-19)
(-0.0432752 0.0398131 5.47916e-19)
(-0.0406853 0.0361961 -1.21044e-19)
(-0.0371899 0.032598 2.73527e-19)
(-0.0328517 0.0292398 -3.23102e-19)
(-0.0277506 0.0263605 -3.09812e-19)
(-0.0220038 0.0242216 1.86275e-19)
(-0.0157813 0.0231086 3.07757e-19)
(-0.00924636 0.0233612 -9.97271e-19)
(-0.00251934 0.0253937 1.17101e-19)
(0.00347738 0.02926 1.5924e-19)
(-0.00654488 0.0113943 3.78336e-19)
(-0.0171342 0.0278861 1.24449e-19)
(-0.0261317 0.0391024 6.48294e-19)
(-0.0332967 0.0462731 3.33599e-20)
(-0.0386562 0.050323 -7.20996e-20)
(-0.0423378 0.0519703 -3.43333e-19)
(-0.0444717 0.0517894 2.91973e-19)
(-0.0451818 0.0502344 5.23835e-19)
(-0.0445815 0.0476636 3.49007e-19)
(-0.0427688 0.0443651 2.51971e-19)
(-0.0398267 0.0405787 2.17226e-19)
(-0.0358259 0.036517 -3.90076e-19)
(-0.0308301 0.0323848 -1.22189e-19)
(-0.024904 0.0283979 -8.99977e-20)
(-0.0181261 0.0248022 9.6439e-19)
(-0.0106139 0.0218856 -3.30046e-21)
(-0.00254604 0.0199898 -2.40347e-19)
(0.00589644 0.0195616 -7.57879e-20)
(0.0145547 0.0211933 6.89743e-19)
(0.0222808 0.0250781 9.05163e-20)
(-0.00739905 0.0118583 -1.86575e-20)
(-0.0190566 0.0289008 -3.579e-19)
(-0.0285265 0.0404162 -5.3244e-19)
(-0.0356875 0.047719 -1.48154e-19)
(-0.0406545 0.0517937 8.18079e-20)
(-0.0436247 0.0533984 1.76163e-20)
(-0.0447856 0.0531322 4.67188e-19)
(-0.0443077 0.0514617 -5.79422e-19)
(-0.0423413 0.0487481 -2.204e-19)
(-0.0390145 0.0452746 -4.4418e-19)
(-0.0344342 0.0412691 -3.7833e-19)
(-0.0286901 0.0369269 -3.35007e-19)
(-0.0218605 0.0324318 8.37629e-20)
(-0.0140195 0.027979 -1.08767e-19)
(-0.00525099 0.0237999 4.66041e-19)
(0.00432377 0.0201841 -2.55428e-19)
(0.014517 0.0175072 -8.00741e-19)
(0.0251355 0.0163158 -1.61556e-19)
(0.0359987 0.0174154 3.95205e-19)
(0.0456823 0.0212008 -3.44307e-19)
(-0.00826411 0.0122224 -6.03639e-20)
(-0.0209455 0.0296411 4.37727e-19)
(-0.0307787 0.0413225 -5.58263e-19)
(-0.0377717 0.0486651 1.29037e-19)
(-0.0421333 0.0527133 -2.65791e-19)
(-0.0441334 0.0542656 5.9204e-19)
(-0.0440195 0.053946 -4.23141e-19)
(-0.0420103 0.0522343 4.84116e-19)
(-0.038296 0.049496 -4.59018e-19)
(-0.033038 0.0460098 1.9586e-19)
(-0.0263733 0.0419923 -9.50495e-20)
(-0.0184189 0.0376191 -2.38662e-19)
(-0.00927858 0.0330469 -2.94908e-19)
(0.000950447 0.0284368 2.93865e-19)
(0.0121652 0.0239832 -2.46116e-19)
(0.0242279 0.0199439 -5.38165e-19)
(0.0369326 0.0166842 5.60274e-19)
(0.0500765 0.0148118 -7.14794e-19)
(0.0634916 0.0153533 3.21499e-19)
(0.0754488 0.0189574 8.13772e-21)
(-0.00912505 0.0124782 -5.47284e-19)
(-0.0227498 0.0300834 -5.90917e-19)
(-0.0327937 0.0417854 6.80967e-20)
(-0.0394035 0.049066 -5.69856e-19)
(-0.0428869 0.05303 -5.07176e-20)
(-0.0435887 0.0545175 -4.19185e-19)
(-0.0418168 0.0541787 -9.61666e-20)
(-0.0378385 0.0525091 -2.81059e-19)
(-0.0318842 0.0498815 2.49768e-21)
(-0.0241514 0.0465759 -1.22981e-19)
(-0.0148115 0.0428026 8.73525e-21)
(-0.0040174 0.0387232 -3.54409e-19)
(0.00808826 0.0344698 3.90647e-19)
(0.0213666 0.0301662 -5.54287e-19)
(0.0356722 0.025955 1.96405e-19)
(0.0508261 0.0220294 7.4691e-21)
(0.0665788 0.0186866 -3.12853e-19)
(0.0827043 0.0165145 7.75797e-19)
(0.0990971 0.0167115 -1.85329e-19)
(0.113757 0.0201817 -1.20175e-19)
(-0.00996552 0.0126187 6.14342e-19)
(-0.0244122 0.0302059 3.3172e-19)
(-0.0344647 0.0417712 3.08568e-19)
(-0.0404187 0.0488784 4.60661e-20)
(-0.0426842 0.0526933 4.17249e-19)
(-0.0416821 0.0540987 6.0142e-19)
(-0.0377797 0.0537726 4.92427e-19)
(-0.0312914 0.052229 4.40742e-20)
(-0.0224865 0.049854 3.60639e-19)
(-0.0115984 0.0469358 5.57256e-19)
(0.00116411 0.0436896 -1.44562e-19)
(0.0156048 0.0402757 2.4262e-19)
(0.0315294 0.0368159 1.95909e-19)
(0.0487364 0.0334092 1.99315e-19)
(0.0670085 0.0301516 1.17943e-18)
(0.086087 0.0271588 -4.42084e-19)
(0.105633 0.0246075 -2.70202e-20)
(0.125347 0.0229526 5.13124e-19)
(0.145228 0.0234302 -2.91023e-19)
(0.163162 0.0271133 1.43874e-19)
(-0.0107679 0.0126381 -4.96804e-19)
(-0.0258684 0.0299904 3.18269e-20)
(-0.0356717 0.0412518 -3.97692e-19)
(-0.0406316 0.0480668 -5.1767e-20)
(-0.0412652 0.0516625 2.91124e-19)
(-0.0380691 0.0529644 -8.66675e-19)
(-0.0314682 0.0526795 -6.41473e-22)
(-0.0218211 0.051343 4.03345e-19)
(-0.00943333 0.0493588 3.78974e-19)
(0.00542716 0.0470321 -1.66854e-19)
(0.022513 0.0445952 5.50249e-20)
(0.0415805 0.0422251 1.27624e-19)
(0.0623729 0.0400576 -6.04233e-20)
(0.0846066 0.0381978 -6.78016e-19)
(0.107959 0.0367306 1.71653e-19)
(0.132043 0.0357246 4.72721e-19)
(0.156357 0.0352349 -6.73705e-19)
(0.180426 0.0354925 3.28637e-19)
(0.204335 0.0376068 8.83162e-20)
(0.226207 0.0426339 4.47453e-19)
(-0.0115129 0.0125327 -7.33507e-20)
(-0.0270459 0.0294239 -3.48099e-19)
(-0.0362774 0.0402088 1.60183e-19)
(-0.0398314 0.0466112 7.40505e-22)
(-0.038336 0.049918 -6.9813e-19)
(-0.0323638 0.051097 1.08946e-19)
(-0.0223957 0.0508834 -2.06903e-20)
(-0.00883164 0.049834 1.40942e-19)
(0.00798873 0.0483733 -6.4516e-19)
(0.0277644 0.0468288 -4.52366e-20)
(0.0502102 0.0454595 -1.51595e-19)
(0.0750334 0.0444756 1.34843e-19)
(0.101912 0.0440542 4.55322e-19)
(0.130469 0.0443509 -7.03893e-20)
(0.160254 0.0455086 2.72838e-20)
(0.190694 0.0476511 1.79408e-19)
(0.221015 0.0508446 -4.42916e-20)
(0.250341 0.0552379 3.6264e-19)
(0.27857 0.0619479 -2.1003e-19)
(0.304427 0.0717181 -3.32908e-19)
(-0.0121788 0.0123006 6.80401e-20)
(-0.0278608 0.0284996 1.65997e-20)
(-0.0361236 0.0386373 1.39586e-19)
(-0.0377756 0.0445137 3.41882e-19)
(-0.0335619 0.0474731 1.91849e-19)
(-0.0241327 0.0485231 2.00176e-20)
(-0.0100246 0.0484241 -2.29032e-19)
(0.00832038 0.0477522 5.87123e-20)
(0.0305273 0.0469495 3.08798e-19)
(0.0562602 0.0463642 -5.23285e-19)
(0.0851948 0.0462809 3.94888e-19)
(0.116994 0.046945 -2.97566e-19)
(0.151283 0.0485849 2.52589e-19)
(0.187628 0.0514327 -5.44922e-19)
(0.225504 0.0557496 5.99769e-19)
(0.264237 0.0618405 -6.41634e-19)
(0.302864 0.0700509 -1.6701e-19)
(0.340059 0.0810107 5.25082e-19)
(0.374659 0.0967061 -1.77042e-19)
(0.403482 0.117265 7.91566e-20)
(-0.0127395 0.0119405 -5.14928e-20)
(-0.0282146 0.0272171 4.85948e-19)
(-0.0350259 0.0365482 -2.0374e-21)
(-0.0341849 0.0418045 -3.01671e-19)
(-0.0265623 0.0443835 -2.02882e-19)
(-0.0128904 0.0453283 3.71685e-19)
(0.00623331 0.0454193 -1.47218e-19)
(0.030317 0.0452446 -1.8546e-20)
(0.0589389 0.0452557 3.06824e-19)
(0.091713 0.0458079 -3.8117e-19)
(0.128261 0.0471928 4.18075e-20)
(0.168189 0.0496645 -4.95648e-19)
(0.211079 0.0534638 2.61094e-19)
(0.256479 0.0588475 -7.47312e-19)
(0.303917 0.0661258 1.19114e-18)
(0.352907 0.075714 -2.1818e-19)
(0.402992 0.0882494 2.28372e-19)
(0.454028 0.105138 -5.92766e-19)
(0.506491 0.129406 3.28326e-21)
(0.552387 0.156904 6.76645e-19)
(-0.0131627 0.0114515 -1.55996e-19)
(-0.0279902 0.0255822 1.34777e-19)
(-0.0327692 0.0339696 -4.96358e-19)
(-0.0287392 0.0385456 7.3415e-19)
(-0.0169086 0.0407537 -5.3003e-19)
(0.001898 0.0416669 2.73562e-20)
(0.0270079 0.0420775 -5.71547e-19)
(0.0578587 0.0425757 4.08648e-19)
(0.0939519 0.043607 -5.83796e-20)
(0.134813 0.045513 -3.60661e-19)
(0.17996 0.0485608 -2.10506e-19)
(0.22889 0.0529652 2.22417e-19)
(0.281073 0.0589078 1.47167e-19)
(0.335963 0.0665536 -6.51556e-19)
(0.393032 0.0760675 2.35145e-19)
(0.45181 0.0876267 -3.47318e-19)
(0.51195 0.10144 4.21127e-20)
(0.573458 0.117949 -2.95884e-19)
(0.637172 0.138322 1.2211e-19)
(0.695845 0.158609 -4.45208e-19)
(-0.0134075 0.0108318 4.44101e-19)
(-0.027048 0.0236067 -2.68972e-19)
(-0.0291056 0.0309478 2.21632e-19)
(-0.0210779 0.0348319 -2.79807e-19)
(-0.00412912 0.0367386 4.69016e-19)
(0.0208044 0.0377627 -8.20417e-21)
(0.0529474 0.0386982 -5.7098e-20)
(0.0916276 0.0401235 -4.23361e-20)
(0.136217 0.0424599 2.6059e-19)
(0.186088 0.0460101 4.43135e-19)
(0.240577 0.0509844 -2.61767e-19)
(0.298983 0.0575188 2.54537e-19)
(0.360565 0.065689 4.65127e-19)
(0.42457 0.0755192 -3.26127e-19)
(0.490265 0.0869872 -6.6317e-19)
(0.556988 0.100021 1.21331e-18)
(0.624187 0.114479 -2.16586e-19)
(0.691505 0.130196 -7.05138e-20)
(0.75915 0.147495 7.6178e-19)
(0.821927 0.16549 -1.60652e-19)
(-0.0134223 0.0100798 -7.23008e-19)
(-0.0252244 0.0213091 -4.81311e-19)
(-0.0237546 0.0275477 -1.84767e-19)
(-0.0108053 0.0307912 3.56467e-19)
(0.0122766 0.0325411 -8.04756e-19)
(0.044411 0.0339023 4.1676e-19)
(0.0846742 0.0356566 5.28188e-20)
(0.132222 0.0383517 5.34135e-20)
(0.186221 0.0423607 -5.45894e-19)
(0.245797 0.0479175 -1.92784e-19)
(0.310013 0.0551414 -3.39888e-19)
(0.377869 0.0640541 3.28307e-19)
(0.448324 0.0745934 9.32751e-20)
(0.520333 0.0866234 1.83099e-20)
(0.592894 0.0999416 4.2869e-19)
(0.665091 0.11428 -4.34051e-19)
(0.736133 0.129294 -1.80836e-20)
(0.805385 0.14458 1.0842e-20)
(0.87253 0.159981 5.92907e-20)
(0.934677 0.177056 3.38457e-19)
(-0.0131443 0.00919405 2.30206e-19)
(-0.0223319 0.0187168 5.92913e-19)
(-0.0164081 0.0238542 4.75811e-19)
(0.00249636 0.0265836 -1.6401e-19)
(0.0328136 0.0284072 5.70432e-19)
(0.0732691 0.0304239 -4.80614e-20)
(0.122722 0.0333816 -6.76995e-20)
(0.180069 0.0377709 4.03027e-20)
(0.244167 0.0438834 5.51439e-19)
(0.313792 0.0518468 3.24032e-19)
(0.387628 0.06165 9.46259e-20)
(0.464295 0.073165 5.7996e-21)
(0.542396 0.0861669 -6.28275e-19)
(0.620574 0.100353 5.45913e-19)
(0.697574 0.115362 9.37726e-20)
(0.772293 0.130783 -1.54266e-19)
(0.843813 0.14617 -6.70332e-19)
(0.911425 0.161069 -5.69278e-20)
(0.9746 0.175015 2.65197e-19)
(1.03254 0.191148 -5.42381e-20)
(-0.0124991 0.00817576 -5.84178e-19)
(-0.0181618 0.0158689 2.44421e-19)
(-0.00673927 0.0199748 -1.19332e-18)
(0.0192487 0.0224013 4.88735e-19)
(0.0579587 0.0246221 -3.89766e-19)
(0.107848 0.0277046 2.87351e-19)
(0.167463 0.0323319 -4.46404e-19)
(0.235325 0.0388985 4.09793e-20)
(0.309864 0.0475702 -2.30129e-20)
(0.389392 0.0583214 1.20083e-19)
(0.472132 0.0709672 1.73466e-19)
(0.556281 0.0851968 -3.27857e-19)
(0.640089 0.100607 1.73611e-19)
(0.72195 0.116737 1.5954e-19)
(0.800464 0.133096 6.89876e-19)
(0.874497 0.149196 -2.99497e-19)
(0.943192 0.164563 -1.99418e-19)
(1.00599 0.178792 3.35548e-19)
(1.06249 0.19132 1.79509e-19)
(1.11326 0.205995 -3.37099e-19)
(-0.011402 0.00703095 5.11722e-19)
(-0.01249 0.0128209 4.93425e-19)
(0.00558494 0.0160434 1.42349e-19)
(0.0398539 0.0184701 5.99564e-19)
(0.0881228 0.0215053 2.94536e-19)
(0.14848 0.0261479 -5.30964e-19)
(0.219032 0.0329708 8.04205e-19)
(0.297793 0.0422196 -3.95766e-19)
(0.382639 0.0538771 3.95099e-19)
(0.471329 0.0677109 5.11292e-19)
(0.561583 0.0833204 -2.9221e-19)
(0.651199 0.100189 5.54995e-20)
(0.738169 0.117739 3.09679e-19)
(0.820777 0.135376 2.18287e-19)
(0.897673 0.152537 5.03173e-19)
(0.967897 0.168717 -2.01147e-19)
(1.03088 0.183494 -2.46495e-20)
(1.0864 0.196565 3.18182e-19)
(1.13443 0.207454 -6.83416e-20)
(1.17635 0.220063 3.37565e-22)
(-0.00976028 0.00577333 -2.64162e-19)
(-0.00508453 0.00965036 -9.70937e-19)
(0.0208878 0.0122252 2.28643e-19)
(0.0646674 0.0150506 -1.7406e-19)
(0.12361 0.0194062 -4.01794e-19)
(0.195303 0.0261696 -2.86865e-19)
(0.277266 0.0357413 -1.77223e-19)
(0.366863 0.0481493 4.30414e-19)
(0.461311 0.0631282 -2.55622e-19)
(0.55777 0.0801858 -2.6178e-19)
(0.653496 0.0986763 -3.3121e-19)
(0.746003 0.117878 -5.46732e-20)
(0.833201 0.137065 -3.69868e-20)
(0.913491 0.155569 -7.66616e-19)
(0.9858 0.172823 3.71946e-19)
(1.04957 0.188386 -4.89096e-19)
(1.10468 0.201953 1.53901e-19)
(1.15141 0.213366 -1.17156e-18)
(1.19023 0.22236 3.53068e-19)
(1.22285 0.232468 4.47271e-19)
(-0.00747655 0.00442702 -6.63307e-20)
(0.00428433 0.00646106 4.73702e-19)
(0.0394643 0.00872065 3.03679e-20)
(0.093969 0.0124384 7.3076e-20)
(0.164576 0.0186973 -1.4857e-19)
(0.248215 0.0281813 -2.4426e-21)
(0.341658 0.041038 -3.81579e-21)
(0.441492 0.0569979 -8.96525e-20)
(0.544216 0.0754809 3.17976e-19)
(0.646434 0.0956958 1.22958e-19)
(0.745068 0.116748 5.58337e-19)
(0.837558 0.137743 -1.52254e-19)
(0.921985 0.157873 1.06363e-19)
(0.997122 0.176474 -1.38724e-20)
(1.0624 0.19306 2.94736e-19)
(1.11783 0.20733 1.80489e-19)
(1.16387 0.219149 4.35312e-19)
(1.20131 0.228532 -7.03291e-19)
(1.23108 0.235461 8.8545e-19)
(1.25504 0.242924 -2.80613e-19)
(-0.00445219 0.00302869 -6.17497e-19)
(0.0158326 0.00338727 -1.92755e-19)
(0.0615611 0.00576694 1.5066e-19)
(0.127933 0.0109611 9.49843e-20)
(0.210994 0.0197626 9.73185e-20)
(0.30684 0.0325691 9.86687e-20)
(0.411343 0.0491788 -2.46934e-19)
(0.520231 0.0689407 -1.02128e-19)
(0.629319 0.0909066 3.16718e-20)
(0.734789 0.113976 -3.02579e-19)
(0.833469 0.137041 -1.36924e-19)
(0.923006 0.159106 8.2754e-19)
(1.00194 0.179371 -2.1347e-19)
(1.06964 0.197276 -2.945e-19)
(1.12623 0.212498 -1.39926e-19)
(1.17236 0.22493 9.68248e-20)
(1.20905 0.234641 1.18288e-19)
(1.23756 0.241818 -5.67051e-19)
(1.25918 0.246664 8.21021e-19)
(1.27575 0.251604 -7.11763e-19)
(-0.000591665 0.00162909 -6.98995e-20)
(0.02975 0.00059516 2.00263e-20)
(0.0873551 0.00363709 -2.55257e-20)
(0.166599 0.0109703 3.7301e-19)
(0.262621 0.0229816 2.05408e-20)
(0.370507 0.0396692 1.36984e-19)
(0.485113 0.0603767 -2.84592e-19)
(0.601313 0.0839981 -1.03815e-20)
(0.714369 0.109193 3.95413e-19)
(0.8203 0.134585 5.51369e-20)
(0.916149 0.15893 -3.44618e-19)
(1.00008 0.181237 -3.02736e-20)
(1.07136 0.200824 -2.83371e-19)
(1.13012 0.217322 2.82095e-19)
(1.17722 0.230637 3.92104e-19)
(1.21395 0.240886 -4.32338e-20)
(1.2418 0.248333 -5.27641e-20)
(1.26235 0.253317 1.60838e-19)
(1.27708 0.256204 -5.17401e-19)
(1.28775 0.258921 4.55659e-19)
(0.00419296 0.000293633 7.01756e-20)
(0.0461867 -0.00171797 -4.52778e-19)
(0.116933 0.00263417 1.2118e-19)
(0.209849 0.0128284 -3.75853e-19)
(0.318985 0.0287073 1.29235e-19)
(0.438261 0.0497411 -4.79968e-19)
(0.561481 0.0747183 1.93608e-19)
(0.682774 0.102032 -6.16341e-20)
(0.797108 0.129972 -2.50055e-21)
(0.900678 0.156966 6.31063e-20)
(0.991089 0.181752 -2.2989e-19)
(1.06732 0.203467 -3.28319e-19)
(1.1295 0.22165 -6.73703e-20)
(1.17863 0.236193 -3.0246e-20)
(1.21625 0.247256 -7.67591e-20)
(1.24415 0.255177 -2.50203e-20)
(1.26417 0.260388 -7.49066e-20)
(1.27802 0.263333 -6.49679e-20)
(1.28725 0.264479 -1.93431e-19)
(1.29346 0.26535 3.07008e-19)
(0.00997721 -0.000897874 1.68829e-19)
(0.06524 -0.00332732 -1.87495e-19)
(0.150271 0.00308155 4.03507e-19)
(0.257389 0.0168914 -1.74161e-19)
(0.379377 0.0372425 4.65476e-19)
(0.508901 0.0629448 6.62527e-21)
(0.638772 0.0921535 2.33788e-19)
(0.762618 0.12276 -6.26158e-20)
(0.87547 0.152763 2.61354e-19)
(0.974085 0.180522 1.89138e-20)
(1.05695 0.204896 6.22472e-19)
(1.12405 0.225267 -4.29729e-19)
(1.17648 0.241474 5.78881e-20)
(1.21601 0.253704 1.10507e-19)
(1.24475 0.262367 5.7918e-19)
(1.26485 0.267986 -2.08107e-19)
(1.27828 0.271114 -4.12754e-20)
(1.28678 0.272255 -2.18766e-19)
(1.29181 0.27192 -2.30757e-20)
(1.29478 0.271317 1.09501e-19)
(0.0168191 -0.00185245 -8.10575e-20)
(0.0869415 -0.00398682 2.34118e-19)
(0.187221 0.0053094 -2.3967e-19)
(0.30874 0.0234876 9.46747e-20)
(0.442878 0.0488162 -1.13165e-19)
(0.58104 0.0793252 4.15412e-19)
(0.715245 0.112501 -5.78562e-20)
(0.838976 0.145794 1.42583e-19)
(0.947751 0.177041 -8.39534e-20)
(1.03926 0.20469 -2.20215e-21)
(1.11311 0.227862 9.59537e-20)
(1.17037 0.246279 -7.43607e-20)
(1.21306 0.260121 1.92907e-19)
(1.24358 0.269866 -9.61667e-20)
(1.26444 0.276139 -4.2367e-19)
(1.27795 0.2796 4.21285e-19)
(1.28608 0.28087 -1.89887e-19)
(1.29046 0.280464 1.5164e-19)
(1.29239 0.278904 2.63035e-19)
(1.29309 0.277151 1.08071e-19)
(0.0247543 -0.00246604 2.01692e-19)
(0.111246 -0.00343781 -4.15629e-19)
(0.227502 0.00963843 7.9528e-20)
(0.363247 0.0328963 -5.76916e-20)
(0.508392 0.0635651 -2.32689e-19)
(0.653198 0.0988084 -1.8263e-19)
(0.789222 0.135468 -3.58978e-20)
(0.910249 0.170678 -3.2565e-19)
(1.01271 0.202285 -1.98383e-20)
(1.09552 0.228992 -6.0523e-20)
(1.15954 0.250296 -1.64331e-19)
(1.2069 0.266317 -3.65096e-20)
(1.24038 0.27758 -1.25817e-19)
(1.26285 0.28482 -2.10056e-19)
(1.27701 0.288824 2.1516e-19)
(1.28516 0.290334 2.96847e-20)
(1.28916 0.289988 5.91585e-20)
(1.29046 0.288282 -2.48001e-19)
(1.29018 0.285721 -6.19068e-21)
(1.28932 0.283073 -3.82791e-19)
(0.033791 -0.00262654 2.21149e-19)
(0.138024 -0.00141975 1.47498e-19)
(0.270695 0.0163623 -2.37804e-19)
(0.420098 0.0453284 3.71351e-19)
(0.574705 0.0815224 -4.00321e-20)
(0.723894 0.12121 1.38722e-19)
(0.8592 0.160684 4.80322e-20)
(0.975197 0.196942 1.70195e-19)
(1.0696 0.228033 -1.3327e-19)
(1.14273 0.253062 4.44286e-20)
(1.19671 0.271984 -4.26497e-20)
(1.23461 0.285334 -1.87755e-20)
(1.25975 0.293953 3.56929e-20)
(1.27529 0.298775 -6.57836e-20)
(1.28394 0.300693 -2.02252e-20)
(1.28788 0.300478 -6.18832e-20)
(1.28877 0.298745 -1.00611e-19)
(1.28783 0.295949 6.49539e-20)
(1.28601 0.29257 -8.91627e-20)
(1.2841 0.289214 3.85284e-19)
(0.0439065 -0.00221761 -1.10445e-19)
(0.167057 0.00231786 -3.12858e-19)
(0.316254 0.0257305 -4.16487e-20)
(0.478357 0.0609111 -1.13329e-20)
(0.640555 0.102616 -1.4015e-19)
(0.791738 0.146253 -2.3012e-19)
(0.923939 0.187735 7.53354e-20)
(1.03297 0.224137 -1.03521e-19)
(1.11812 0.253901 -1.16023e-19)
(1.18117 0.276648 6.46465e-20)
(1.2254 0.292833 -4.88616e-20)
(1.2546 0.303382 -9.88974e-20)
(1.27248 0.309398 -3.35371e-21)
(1.28224 0.311955 6.69908e-20)
(1.2865 0.311993 -6.83723e-20)
(1.28721 0.310268 9.48804e-20)
(1.2858 0.307347 2.55185e-20)
(1.28328 0.303629 6.434e-20)
(1.2804 0.299568 1.25456e-19)
(1.2778 0.295631 -1.0748e-19)
(0.0550438 -0.00112321 1.055e-19)
(0.198038 0.00800287 -9.33071e-21)
(0.363522 0.0379325 4.73335e-20)
(0.537007 0.0796792 -6.42446e-20)
(0.704701 0.126675 5.28041e-21)
(0.855509 0.173594 2.22952e-19)
(0.9825 0.216194 -1.4647e-19)
(1.08312 0.251862 6.20551e-20)
(1.15834 0.279593 5.47269e-20)
(1.2114 0.2996 -1.5385e-19)
(1.24651 0.312833 1.44605e-19)
(1.26801 0.320565 1.28171e-21)
(1.27974 0.324091 -1.01952e-19)
(1.28483 0.324567 1.22902e-19)
(1.28566 0.322926 -4.87908e-20)
(1.28395 0.319879 3.73163e-20)
(1.28089 0.315928 -4.17332e-20)
(1.27728 0.311415 -1.66885e-20)
(1.2737 0.306771 -1.46212e-19)
(1.27065 0.302329 4.47839e-20)
(0.0671104 0.000767396 -3.55774e-20)
(0.230575 0.0158279 9.547e-20)
(0.41175 0.0530851 1.48839e-20)
(0.595 0.101572 6.2438e-20)
(0.765984 0.153446 2.97935e-20)
(0.914202 0.202849 1.39659e-20)
(1.03426 0.245654 7.91894e-20)
(1.12549 0.279778 -9.61071e-21)
(1.19062 0.304897 3.49293e-20)
(1.23414 0.321844 5.61339e-20)
(1.26102 0.332031 2.70961e-20)
(1.27588 0.337007 1.94572e-20)
(1.28253 0.338198 7.89139e-20)
(1.28392 0.336777 -7.63916e-20)
(1.28216 0.333638 1.64007e-20)
(1.27869 0.329423 -1.5363e-20)
(1.27447 0.324564 2.37699e-20)
(1.27012 0.319345 1.99188e-20)
(1.26609 0.314181 4.16121e-20)
(1.26276 0.309278 1.75148e-21)
(0.0799789 0.00355433 2.10909e-20)
(0.264208 0.0259392 1.92652e-20)
(0.460134 0.0712246 -2.66694e-20)
(0.651306 0.126437 1.6665e-20)
(0.823382 0.182605 9.41625e-21)
(0.96705 0.233614 -2.92924e-20)
(1.07887 0.275733 9.66829e-21)
(1.16022 0.307606 1.74301e-21)
(1.21548 0.329665 1.66793e-20)
(1.25019 0.343357 -4.47279e-20)
(1.26983 0.350492 -1.39637e-22)
(1.27911 0.352828 1.24019e-20)
(1.28169 0.351851 -9.88274e-21)
(1.28022 0.348707 9.99954e-21)
(1.27653 0.344222 2.61034e-20)
(1.2718 0.338961 -1.4855e-20)
(1.26679 0.333279 4.13385e-21)
(1.26198 0.327414 1.62819e-20)
(1.25768 0.321769 -2.68465e-20)
(1.25419 0.31642 1.2886e-20)
(0.0800061 -0.00355484 5.68671e-20)
(0.264287 -0.025943 -3.12599e-20)
(0.460259 -0.0712337 3.69079e-20)
(0.651467 -0.12645 -2.74921e-20)
(0.823564 -0.182618 -1.24497e-20)
(0.96724 -0.233624 3.83214e-21)
(1.07906 -0.275737 -1.23349e-20)
(1.1604 -0.307602 4.46183e-20)
(1.21565 -0.329653 -3.73681e-20)
(1.25034 -0.343337 8.54685e-21)
(1.26997 -0.350466 -6.59395e-21)
(1.27924 -0.352797 -4.33916e-20)
(1.28181 -0.351816 4.22921e-20)
(1.28034 -0.348668 1.64204e-20)
(1.27664 -0.344181 -1.58306e-20)
(1.27191 -0.338917 3.80718e-20)
(1.2669 -0.333233 -4.41525e-22)
(1.26208 -0.327366 -3.71997e-20)
(1.25778 -0.32172 2.73364e-20)
(1.25428 -0.31637 9.12624e-21)
(0.0671351 -0.000767021 -2.03834e-20)
(0.23065 -0.0158292 5.52136e-20)
(0.411871 -0.0530907 6.45855e-20)
(0.595158 -0.101581 -3.12522e-20)
(0.766167 -0.153456 5.40138e-20)
(0.914396 -0.202856 8.7724e-20)
(1.03445 -0.245656 -4.95481e-21)
(1.12568 -0.279774 -1.57966e-20)
(1.1908 -0.304885 7.81609e-20)
(1.2343 -0.321824 3.86691e-20)
(1.26117 -0.332004 -7.2769e-21)
(1.27602 -0.336974 5.89861e-20)
(1.28266 -0.33816 -6.34403e-20)
(1.28405 -0.336735 1.01518e-19)
(1.28228 -0.333593 -1.66083e-20)
(1.2788 -0.329376 5.06733e-20)
(1.27457 -0.324514 9.95334e-21)
(1.27023 -0.319293 3.63193e-20)
(1.26619 -0.314128 -3.41165e-20)
(1.26286 -0.309223 9.45568e-21)
(0.0550658 0.00112429 -3.0234e-20)
(0.198106 -0.00800199 6.61031e-20)
(0.363636 -0.0379349 4.92972e-20)
(0.53716 -0.079685 -7.87348e-21)
(0.704882 -0.126683 8.25474e-20)
(0.855706 -0.1736 -6.51711e-20)
(0.982701 -0.216196 -6.88e-21)
(1.08331 -0.251857 5.88192e-20)
(1.15853 -0.279581 1.96073e-20)
(1.21157 -0.29958 2.74087e-20)
(1.24667 -0.312806 -4.04341e-20)
(1.26816 -0.32053 1.12849e-19)
(1.27987 -0.324052 2.19702e-20)
(1.28495 -0.324523 -9.9735e-20)
(1.28578 -0.322878 1.53622e-19)
(1.28407 -0.319828 -1.82018e-19)
(1.281 -0.315875 -8.66956e-20)
(1.27739 -0.311359 1.47459e-20)
(1.27381 -0.306713 8.36745e-20)
(1.27075 -0.30227 -1.58507e-19)
(0.0439259 0.00221921 -6.34096e-20)
(0.16712 -0.0023152 -1.48908e-19)
(0.316361 -0.0257301 -1.31262e-19)
(0.478504 -0.0609137 -1.79452e-19)
(0.640733 -0.10262 -1.06721e-19)
(0.791936 -0.146257 -2.26813e-19)