/*--------------------------------*- C++ -*----------------------------------*\
  =========                 |
  \\      /  F ield         | OpenFOAM: The Open Source CFD Toolbox
   \\    /   O peration     | Website:  https://openfoam.org
    \\  /    A nd           | Version:  6.0
     \\/     M anipulation  |
\*---------------------------------------------------------------------------*/
FoamFile
{
    version     2.0;
    format      ascii;
    class       volVectorField;
    location    "69";
    object      U;
}
// * * * * * * * * * * * * * * * * * * * * * * * * * * * * * * * * * * * * * //

dimensions      [0 1 -1 0 0 0 0];

internalField   nonuniform List<vector> 
4000
(
(-0.000283597 -0.0152274 -4.73899e-21)
(-0.00235003 -0.0416202 2.53216e-20)
(-0.0066646 -0.0643507 -3.07801e-20)
(-0.012056 -0.083588 2.34281e-20)
(-0.0178677 -0.0996562 1.13927e-20)
(-0.023684 -0.113008 -3.42149e-20)
(-0.0291762 -0.124133 -3.01854e-21)
(-0.0341012 -0.133487 -1.06361e-21)
(-0.0382949 -0.141462 -1.77218e-20)
(-0.0416603 -0.148368 -9.59146e-21)
(-0.0441583 -0.154435 7.15981e-21)
(-0.0457988 -0.159831 2.71704e-20)
(-0.0466325 -0.164678 -2.04358e-21)
(-0.0467416 -0.169073 2.90206e-21)
(-0.0462328 -0.173106 -2.7334e-20)
(-0.0452405 -0.176872 1.68348e-20)
(-0.0439123 -0.180483 -2.41187e-20)
(-0.0422846 -0.184063 3.64792e-20)
(-0.0402355 -0.187762 -4.00574e-23)
(-0.0386987 -0.191796 7.83436e-21)
(6.27319e-05 -0.0136989 1.57265e-20)
(-0.00173335 -0.0378936 -8.03365e-20)
(-0.00632758 -0.0591674 -5.54849e-20)
(-0.0122688 -0.0775307 -3.76578e-20)
(-0.0187675 -0.0931991 -4.84253e-20)
(-0.0253365 -0.106544 1.06522e-20)
(-0.0315947 -0.117984 -5.58574e-20)
(-0.0372624 -0.127912 -1.25226e-20)
(-0.0421514 -0.136658 3.98323e-21)
(-0.04615 -0.144474 4.16703e-20)
(-0.0492112 -0.151532 -4.54307e-20)
(-0.0513432 -0.157943 6.31616e-20)
(-0.0525997 -0.163779 -4.72606e-20)
(-0.0530704 -0.169088 -5.59806e-20)
(-0.0528734 -0.17392 -7.70404e-20)
(-0.0521556 -0.178338 4.92379e-20)
(-0.0510767 -0.182426 -1.58375e-20)
(-0.0496917 -0.186287 -5.77879e-20)
(-0.0479185 -0.190047 5.46696e-20)
(-0.0466406 -0.193935 -4.03694e-20)
(0.000254085 -0.0118169 1.53465e-19)
(-0.00148114 -0.033388 7.95993e-20)
(-0.00647658 -0.0529751 8.95105e-20)
(-0.0130232 -0.0703535 7.45241e-21)
(-0.0202157 -0.0855873 4.94714e-20)
(-0.0275085 -0.0989398 6.1618e-20)
(-0.0344785 -0.110741 -1.12185e-19)
(-0.0408168 -0.12131 -5.92921e-20)
(-0.0463161 -0.13091 -7.72495e-20)
(-0.0508524 -0.139728 8.23198e-20)
(-0.0543716 -0.147876 -6.28574e-20)
(-0.0568798 -0.155407 -8.084e-20)
(-0.0584327 -0.162333 -2.94388e-20)
(-0.0591264 -0.168652 2.79223e-20)
(-0.0590895 -0.174366 -7.65641e-21)
(-0.0584828 -0.179499 1.12399e-20)
(-0.0574801 -0.184106 1.28838e-19)
(-0.0561593 -0.188267 -1.81598e-20)
(-0.0544802 -0.19209 -1.30631e-19)
(-0.0532823 -0.19582 1.71898e-19)
(0.000258883 -0.00960314 5.33514e-20)
(-0.00164435 -0.0281586 -7.54566e-20)
(-0.00714589 -0.0458479 -1.89817e-20)
(-0.0143217 -0.0621386 3.54987e-20)
(-0.0221774 -0.0769016 1.00676e-19)
(-0.0301272 -0.090267 2.20335e-19)
(-0.0377191 -0.102462 2.15274e-19)
(-0.0446243 -0.113724 1.79345e-20)
(-0.050622 -0.124244 1.31901e-19)
(-0.0555786 -0.134145 2.01761e-19)
(-0.0594339 -0.143477 -1.60806e-19)
(-0.0621904 -0.152231 2.38187e-19)
(-0.063904 -0.160359 -5.36978e-20)
(-0.0646752 -0.167801 1.3667e-20)
(-0.0646418 -0.174503 5.5869e-20)
(-0.063978 -0.180443 7.40005e-20)
(-0.0628741 -0.185639 -1.1672e-19)
(-0.0614339 -0.190143 -9.69642e-20)
(-0.0596616 -0.194047 -1.71158e-19)
(-0.0583633 -0.197614 2.49212e-19)
(5.18821e-05 -0.00709731 -2.78298e-20)
(-0.00225786 -0.0222954 -2.85931e-19)
(-0.00834582 -0.0378999 -8.47303e-20)
(-0.0161364 -0.0530054 -2.0652e-19)
(-0.024582 -0.0672538 7.81576e-20)
(-0.0330791 -0.0806204 -1.2315e-19)
(-0.0411625 -0.0932187 4.25766e-20)
(-0.048494 -0.105198 -2.60757e-19)
(-0.0548455 -0.116679 1.37703e-19)
(-0.0600773 -0.12772 -1.63884e-19)
(-0.0641234 -0.138313 -1.45507e-19)
(-0.0669816 -0.148386 -1.62839e-19)
(-0.0687056 -0.157829 1.47432e-19)
(-0.0693973 -0.166517 -1.32156e-19)
(-0.0692012 -0.174334 1.83735e-19)
(-0.0683038 -0.181201 5.27464e-20)
(-0.0669128 -0.187086 1.30187e-19)
(-0.0651608 -0.192005 5.6786e-20)
(-0.0630991 -0.196031 -2.24972e-19)
(-0.0615166 -0.199443 3.66392e-19)
(-0.000382678 -0.00435858 1.22956e-19)
(-0.00333511 -0.0159251 9.27702e-21)
(-0.010058 -0.0292854 5.08864e-20)
(-0.0184061 -0.0431113 1.776e-19)
(-0.027322 -0.0567876 -2.69538e-20)
(-0.0362098 -0.0701194 2.8882e-19)
(-0.0446086 -0.0830981 1.2851e-19)
(-0.0521823 -0.0957837 1.09402e-20)
(-0.0587028 -0.108228 3.29756e-19)
(-0.064028 -0.120433 1.07978e-19)
(-0.0680873 -0.132331 5.13094e-20)
(-0.0708728 -0.143796 1.62151e-19)
(-0.0724332 -0.154655 1.48239e-19)
(-0.0728682 -0.164716 2.6963e-19)
(-0.0723257 -0.173791 -2.409e-19)
(-0.0710022 -0.181729 3.38015e-19)
(-0.0691232 -0.188436 3.18684e-21)
(-0.0668511 -0.193876 -4.29027e-19)
(-0.0642875 -0.198088 5.5351e-19)
(-0.0622277 -0.201369 2.28555e-19)
(-0.00104819 -0.00146397 -7.22938e-20)
(-0.00486407 -0.00920808 -1.32133e-19)
(-0.0122331 -0.0201966 -2.75621e-19)
(-0.021036 -0.0326503 -8.31397e-21)
(-0.030254 -0.0456804 4.74691e-20)
(-0.039326 -0.0589114 -3.52572e-19)
(-0.0478138 -0.0722091 -2.61725e-19)
(-0.0553956 -0.0855453 -3.744e-20)
(-0.0618512 -0.0989085 -3.30883e-19)
(-0.0670407 -0.112248 -2.29029e-19)
(-0.0708909 -0.125452 -6.67165e-20)
(-0.073388 -0.138344 -2.14452e-19)
(-0.0745734 -0.150692 -3.84619e-21)
(-0.0745414 -0.162237 -2.83538e-19)
(-0.073439 -0.172712 1.18083e-19)
(-0.0714696 -0.181884 -1.35034e-19)
(-0.0688749 -0.189575 1.01904e-19)
(-0.0658473 -0.195675 -1.31618e-19)
(-0.0625418 -0.20017 -3.70145e-19)
(-0.0597921 -0.203361 -1.12712e-19)
(-0.00193351 0.00149397 -2.7106e-20)
(-0.00680482 -0.00233432 -2.95466e-20)
(-0.0147902 -0.0108605 2.31451e-19)
(-0.0239001 -0.0218524 -3.77649e-19)
(-0.0332041 -0.0341443 5.52057e-20)
(-0.0422029 -0.0471771 -2.19195e-19)
(-0.0504996 -0.0606903 1.03006e-19)
(-0.0577989 -0.0745711 4.64976e-19)
(-0.0638972 -0.0887508 -2.99428e-20)
(-0.068662 -0.103138 -3.46863e-19)
(-0.0720212 -0.117585 6.21915e-20)
(-0.0739563 -0.131877 1.25457e-20)
(-0.0745008 -0.145737 -7.04898e-20)
(-0.0737406 -0.158839 7.89021e-21)
(-0.0718178 -0.17084 6.16725e-19)
(-0.0689389 -0.181408 -8.81386e-20)
(-0.0653589 -0.190264 -1.69653e-19)
(-0.061298 -0.197195 -3.00753e-19)
(-0.0569671 -0.202101 3.07092e-19)
(-0.0532806 -0.205271 1.32105e-19)
(-0.00301198 0.00441188 1.35417e-19)
(-0.00908937 0.00448475 -1.77909e-19)
(-0.0176202 -0.00153115 2.5182e-19)
(-0.0268469 -0.0109792 2.54644e-19)
(-0.035976 -0.0224268 2.34733e-19)
(-0.0445952 -0.035135 4.76501e-19)
(-0.0523658 -0.0487199 3.0863e-19)
(-0.0590315 -0.0629888 -6.64266e-19)
(-0.0644132 -0.0778229 3.40064e-19)
(-0.068393 -0.0931004 2.67035e-19)
(-0.0709044 -0.108652 -4.66446e-21)
(-0.0719278 -0.124239 2.98184e-19)
(-0.0714904 -0.139554 2.30916e-19)
(-0.0696686 -0.15422 -1.25745e-19)
(-0.0665969 -0.167818 4.20733e-19)
(-0.0624806 -0.17992 -5.20735e-19)
(-0.0575847 -0.190122 2.06643e-19)
(-0.0521527 -0.198076 2.63083e-19)
(-0.0464502 -0.203552 -6.03309e-20)
(-0.0415288 -0.206798 5.24211e-19)
(-0.00424198 0.00718198 2.73616e-19)
(-0.0116242 0.0110267 1.48587e-20)
(-0.0205904 0.00751893 -9.82893e-20)
(-0.0297082 -0.000317599 -1.03804e-19)
(-0.0383635 -0.0108086 -4.84469e-19)
(-0.0462525 -0.0230451 6.92015e-20)
(-0.0531101 -0.0365258 1.94951e-19)
(-0.0587296 -0.0509823 -9.47934e-20)
(-0.0629648 -0.0662524 7.82266e-20)
(-0.0657194 -0.0821928 -2.00083e-20)
(-0.0669391 -0.0986257 -1.01266e-19)
(-0.0666089 -0.115308 9.74982e-20)
(-0.0647538 -0.131919 -4.15275e-19)
(-0.0614434 -0.148052 3.99518e-19)
(-0.0568037 -0.163232 -3.42271e-19)
(-0.0510364 -0.176936 1.05865e-19)
(-0.0444133 -0.188631 2.37186e-19)
(-0.0371938 -0.197798 -5.01426e-20)
(-0.0296939 -0.204024 -1.61809e-19)
(-0.02317 -0.207467 -1.09731e-19)
(-0.00556924 0.00969983 -3.42899e-19)
(-0.0142955 0.017071 -2.31963e-20)
(-0.0235531 0.0160119 7.2534e-20)
(-0.0323097 0.00982902 1.87395e-19)
(-0.0401637 0.000400908 -2.64016e-19)
(-0.046937 -0.0112096 -2.31177e-19)
(-0.05245 -0.0243919 5.40705e-19)
(-0.0565545 -0.038806 -2.99058e-19)
(-0.0591451 -0.0542502 -1.93391e-19)
(-0.0601537 -0.070566 -2.77991e-19)
(-0.0595457 -0.0875779 1.83887e-19)
(-0.0573185 -0.105054 -4.68854e-21)
(-0.0535023 -0.122683 -3.42825e-19)
(-0.0481661 -0.140056 -5.56334e-19)
(-0.0414307 -0.156667 4.2367e-19)
(-0.033495 -0.171925 -3.38837e-19)
(-0.024636 -0.185174 4.78082e-19)
(-0.0151219 -0.195703 -1.34693e-19)
(-0.00530666 -0.202853 2.68967e-19)
(0.00327007 -0.206636 -9.34209e-19)
(-0.00693095 0.0118727 -6.99651e-19)
(-0.0169769 0.0224141 4.59422e-19)
(-0.0263548 0.0236794 6.20895e-20)
(-0.0344816 0.0191542 1.22906e-20)
(-0.0411905 0.0108737 -2.85216e-19)
(-0.0464395 3.28259e-05 4.19898e-19)
(-0.0501438 -0.012658 4.53111e-20)
(-0.0522206 -0.0267912 -8.59555e-20)
(-0.052611 -0.0421264 -2.79728e-19)
(-0.0512817 -0.0584922 3.01438e-19)
(-0.0482251 -0.0757203 7.64966e-19)
(-0.0434596 -0.0936013 -1.68309e-19)
(-0.0370313 -0.111852 3.81955e-19)
(-0.029018 -0.130091 -4.47379e-19)
(-0.0195443 -0.147818 -4.26175e-19)
(-0.00881134 -0.164413 2.5524e-19)
(0.00289521 -0.179128 4.12006e-19)
(0.0153035 -0.191065 -1.33286e-18)
(0.0280429 -0.199263 1.60003e-19)
(0.0392125 -0.203524 2.11484e-19)
(-0.00826121 0.0136278 5.19252e-19)
(-0.0195384 0.0268836 1.7363e-19)
(-0.0288456 0.0302788 8.95744e-19)
(-0.0360684 0.0273643 4.68243e-20)
(-0.0412836 0.020278 -9.99644e-20)
(-0.0445911 0.010321 -4.78354e-19)
(-0.0460057 -0.0017086 4.06137e-19)
(-0.0455151 -0.0153391 7.34524e-19)
(-0.0431113 -0.0302903 4.89155e-19)
(-0.0388009 -0.0463747 3.56542e-19)
(-0.0326102 -0.0634303 3.08479e-19)
(-0.0245877 -0.081273 -5.47275e-19)
(-0.0148064 -0.0996602 -1.6893e-19)
(-0.00336668 -0.118258 -1.26564e-19)
(0.00959015 -0.136612 1.33799e-18)
(0.0238492 -0.154122 -7.38021e-21)
(0.0391065 -0.170006 -3.26415e-19)
(0.0550848 -0.18322 -9.39962e-20)
(0.0714283 -0.192474 9.2284e-19)
(0.0858155 -0.197293 1.25592e-19)
(-0.00949716 0.0149182 -2.40082e-20)
(-0.0218561 0.0303514 -4.93768e-19)
(-0.0308871 0.03561 -7.37035e-19)
(-0.0369334 0.0341978 -2.06432e-19)
(-0.0403118 0.0282995 1.1458e-19)
(-0.0412639 0.0192935 2.40047e-20)
(-0.0399065 0.00805132 6.56008e-19)
(-0.0363006 -0.00489552 -8.13164e-19)
(-0.0304926 -0.0192246 -3.10074e-19)
(-0.0225333 -0.0347267 -6.26906e-19)
(-0.0124887 -0.0512382 -5.33845e-19)
(-0.000445977 -0.0685947 -4.74697e-19)
(0.0134835 -0.0865937 1.18973e-19)
(0.0291614 -0.10496 -1.54438e-19)
(0.0464126 -0.123309 6.52718e-19)
(0.0649919 -0.141111 -3.58077e-19)
(0.0845598 -0.157626 -1.10045e-18)
(0.104821 -0.171738 -2.10707e-19)
(0.125474 -0.181854 5.31469e-19)
(0.143766 -0.18718 -4.53295e-19)
(-0.0105849 0.015727 -8.2681e-20)
(-0.0238201 0.0327432 6.09615e-19)
(-0.0323574 0.0395299 -7.77958e-19)
(-0.0369588 0.0394444 1.78974e-19)
(-0.0381668 0.0346654 -3.72716e-19)
(-0.0363598 0.0266188 8.33195e-19)
(-0.0317566 0.016233 -5.96977e-19)
(-0.0244933 0.00409328 6.8446e-19)
(-0.0146737 -0.00943456 -6.52104e-19)
(-0.0023968 -0.0241121 2.78236e-19)
(0.012226 -0.039764 -1.35019e-19)
(0.0290608 -0.0562322 -3.41149e-19)
(0.0479459 -0.0733426 -4.20865e-19)
(0.0686888 -0.0908725 4.1695e-19)
(0.0910607 -0.108516 -3.47646e-19)
(0.114765 -0.125843 -7.50207e-19)
(0.139403 -0.142222 7.756e-19)
(0.164635 -0.156576 -9.76304e-19)
(0.190249 -0.167084 4.29246e-19)
(0.213145 -0.17263 3.73711e-22)
(-0.0114842 0.0160675 -7.65096e-19)
(-0.02534 0.0340427 -8.26072e-19)
(-0.0331511 0.0419629 9.47045e-20)
(-0.0360384 0.042963 -8.0067e-19)
(-0.0347473 0.0391701 -7.32887e-20)
(-0.0297851 0.0320292 -5.91487e-19)
(-0.0214703 0.0225078 -1.36534e-19)
(-0.0100156 0.0112366 -4.00865e-19)
(0.00441451 -0.00137615 1.45935e-21)
(0.0216679 -0.0150577 -1.76957e-19)
(0.0415811 -0.0296096 1.19569e-20)
(0.0639642 -0.0448656 -5.08382e-19)
(0.088592 -0.060661 5.57641e-19)
(0.115201 -0.0768069 -7.9228e-19)
(0.143485 -0.0930619 2.77348e-19)
(0.173071 -0.109099 7.97347e-21)
(0.203475 -0.124434 -4.35743e-19)
(0.234266 -0.138133 1.0609e-18)
(0.265344 -0.148268 -2.55253e-19)
(0.293468 -0.15342 -1.5611e-19)
(-0.0121705 0.0159794 8.61527e-19)
(-0.0263466 0.0342894 4.64644e-19)
(-0.0331747 0.0429056 4.32944e-19)
(-0.0340643 0.0446942 6.43941e-20)
(-0.029936 0.0416974 5.86982e-19)
(-0.0214149 0.0353534 8.49663e-19)
(-0.00891654 0.0266518 6.99936e-19)
(0.00726863 0.0162581 6.23444e-20)
(0.0269112 0.00461961 5.15641e-19)
(0.0497989 -0.00795414 7.99149e-19)
(0.0757064 -0.021234 -2.0848e-19)
(0.104375 -0.0350321 3.48704e-19)
(0.135499 -0.0491745 2.82076e-19)
(0.168723 -0.0634824 2.87026e-19)
(0.203637 -0.0777522 1.67635e-18)
(0.239764 -0.0917365 -6.27165e-19)
(0.276504 -0.105099 -3.71836e-20)
(0.313281 -0.117124 7.01783e-19)
(0.350078 -0.1259 -3.92479e-19)
(0.383872 -0.129659 1.89268e-19)
(-0.0126349 0.0155228 -6.99041e-19)
(-0.0267886 0.0335711 4.55135e-20)
(-0.0323379 0.0424245 -5.60744e-19)
(-0.0309102 0.044667 -7.35425e-20)
(-0.0235717 0.0422353 4.1247e-19)
(-0.0110546 0.0365418 -1.22973e-18)
(0.00613285 0.0285816 -1.78206e-21)
(0.0276205 0.0190444 5.75245e-19)
(0.0531072 0.00841052 5.43806e-19)
(0.08231 -0.00297485 -2.38653e-19)
(0.114926 -0.0148484 7.92685e-20)
(0.150609 -0.0269918 1.83633e-19)
(0.18895 -0.0392081 -8.75088e-20)
(0.22947 -0.0513068 -9.69353e-19)
(0.271624 -0.0630922 2.46016e-19)
(0.314789 -0.0743578 6.61855e-19)
(0.358217 -0.0848799 -9.37561e-19)
(0.401131 -0.0941828 4.54804e-19)
(0.443531 -0.100444 1.1909e-19)
(0.483068 -0.10133 5.76544e-19)
(-0.0128804 0.0147687 -1.03905e-19)
(-0.0266248 0.0320104 -4.90094e-19)
(-0.030541 0.0406471 2.25587e-19)
(-0.0264123 0.0429962 1.36735e-21)
(-0.0154245 0.0408831 -9.87945e-19)
(0.00159383 0.0356809 1.53568e-19)
(0.0240443 0.0283774 -2.99298e-20)
(0.0514727 0.0196756 2.01748e-19)
(0.0834954 0.0100811 -9.25086e-19)
(0.119741 -3.03842e-05 -6.56694e-20)
(0.159807 -0.0103634 -2.18293e-19)
(0.20323 -0.0206682 1.93887e-19)
(0.249468 -0.0307182 6.52825e-19)
(0.29789 -0.0402964 -1.015e-19)
(0.347775 -0.0491865 3.92652e-20)
(0.398307 -0.0571745 2.50103e-19)
(0.448525 -0.0640759 -6.33559e-20)
(0.497369 -0.069564 4.8778e-19)
(0.544675 -0.0718023 -2.9389e-19)
(0.58897 -0.0676133 -4.3756e-19)
(-0.0129158 0.0137898 9.60013e-20)
(-0.0258135 0.0297496 2.31844e-20)
(-0.0276606 0.0377475 1.96743e-19)
(-0.0203531 0.039873 4.82696e-19)
(-0.00517678 0.0378461 2.71775e-19)
(0.0169504 0.0329943 2.8893e-20)
(0.0453385 0.0262883 -3.26704e-19)
(0.0794385 0.0184337 8.32867e-20)
(0.118763 0.00995086 4.4287e-19)
(0.162824 0.00123558 -7.51097e-19)
(0.211082 -0.00739562 5.6692e-19)
(0.262922 -0.0156731 -4.27261e-19)
(0.317633 -0.0233515 3.60473e-19)
(0.374413 -0.0301929 -7.74865e-19)
(0.432368 -0.0359531 8.45793e-19)
(0.49052 -0.0403766 -9.00398e-19)
(0.547745 -0.0432173 -2.29501e-19)
(0.602744 -0.0440463 7.03914e-19)
(0.654778 -0.0407352 -2.43587e-19)
(0.701187 -0.0299326 9.27677e-20)
(-0.0127483 0.012652 -7.27097e-20)
(-0.0242992 0.0269343 6.85586e-19)
(-0.0235369 0.0339293 -2.50819e-21)
(-0.0124509 0.0355492 -4.26173e-19)
(0.00758229 0.0334227 -2.8787e-19)
(0.0355547 0.0288312 5.27351e-19)
(0.0706736 0.0227209 -2.09088e-19)
(0.112271 0.0157891 -2.63112e-20)
(0.159719 0.00855651 4.39472e-19)
(0.212361 0.00142111 -5.45488e-19)
(0.269466 -0.00530263 5.95354e-20)
(0.330205 -0.0113548 -7.08323e-19)
(0.393653 -0.0165087 3.70761e-19)
(0.458807 -0.0205531 -1.05509e-18)
(0.524626 -0.023273 1.66491e-18)
(0.590077 -0.024429 -3.08107e-19)
(0.654192 -0.0237121 3.021e-19)
(0.716255 -0.0204172 -7.88304e-19)
(0.776282 -0.0124016 1.53497e-20)
(0.826863 -0.0014246 8.06043e-19)
(-0.0123749 0.0114071 -2.20064e-19)
(-0.0220009 0.0237003 1.89663e-19)
(-0.0179652 0.0294084 -7.00109e-19)
(-0.00235882 0.0303176 1.03656e-18)
(0.0233463 0.0279832 -7.49528e-19)
(0.0580378 0.0236431 3.90207e-20)
(0.100793 0.0182125 -8.12769e-19)
(0.150779 0.0123675 5.82016e-19)
(0.207165 0.00661034 -8.26453e-20)
(0.26905 0.00131534 -5.14204e-19)
(0.335427 -0.00323783 -2.99497e-19)
(0.405172 -0.00684019 3.18976e-19)
(0.47707 -0.00933587 2.07904e-19)
(0.549859 -0.0106081 -9.1002e-19)
(0.622294 -0.0105682 3.31137e-19)
(0.693223 -0.00914791 -4.75333e-19)
(0.761663 -0.00629113 5.7698e-20)
(0.826944 -0.00185953 -3.82453e-19)
(0.889147 0.00477575 1.34795e-19)
(0.943252 0.0113444 -5.42615e-19)
(-0.0117761 0.0100904 6.2614e-19)
(-0.0188021 0.0201645 -3.79453e-19)
(-0.0106925 0.0243985 3.12669e-19)
(0.0103268 0.0244928 -3.95239e-19)
(0.0426646 0.021945 6.62277e-19)
(0.0850707 0.0179521 -1.10924e-20)
(0.136439 0.0133901 -8.10666e-20)
(0.195702 0.00889654 -6.00581e-20)
(0.261734 0.00492948 3.71199e-19)
(0.333289 0.00180687 6.31732e-19)
(0.408984 -0.00026534 -3.7142e-19)
(0.48732 -0.00117123 3.61293e-19)
(0.56673 -0.000867126 6.52968e-19)
(0.645661 0.000633599 -4.57165e-19)
(0.72266 0.00327292 -9.04628e-19)
(0.796449 0.00695597 1.63783e-18)
(0.865999 0.0115516 -2.93277e-19)
(0.930591 0.016906 -9.02611e-20)
(0.990041 0.0230931 9.22371e-19)
(1.04164 0.0295202 -2.13703e-19)
(-0.0109108 0.00872064 -1.01748e-18)
(-0.0145477 0.0164221 -6.76527e-19)
(-0.00142256 0.0191019 -2.59735e-19)
(0.0260456 0.0183942 5.01787e-19)
(0.0661004 0.0157473 -1.13472e-18)
(0.117294 0.0123154 5.89528e-19)
(0.178255 0.00892139 7.4981e-20)
(0.247575 0.00613874 7.68728e-20)
(0.323718 0.00434682 -7.74464e-19)
(0.404985 0.00376539 -2.72386e-19)
(0.489524 0.00448232 -4.78858e-19)
(0.575403 0.00647886 4.62087e-19)
(0.660699 0.00965381 1.2692e-19)
(0.743608 0.0138464 2.29989e-20)
(0.822547 0.0188565 5.72656e-19)
(0.896229 0.0244598 -5.87413e-19)
(0.963712 0.0304155 -2.22226e-20)
(1.02442 0.0364754 2.21382e-20)
(1.0782 0.0425227 8.43424e-20)
(1.12408 0.0490565 3.96186e-19)
(-0.00971581 0.00730369 3.23629e-19)
(-0.00904525 0.0125497 8.32188e-19)
(0.0101718 0.0137066 6.67349e-19)
(0.0452446 0.0123353 -2.30511e-19)
(0.0941794 0.00983052 8.04109e-19)
(0.155238 0.00729277 -6.81031e-20)
(0.226668 0.00546742 -9.54913e-20)
(0.30659 0.00482715 5.76739e-20)
(0.39293 0.00562647 7.80805e-19)
(0.483426 0.00793725 4.59086e-19)
(0.57571 0.0116827 1.34817e-19)
(0.667419 0.0166737 1.01611e-20)
(0.756344 0.0226457 -8.65793e-19)
(0.840556 0.0292944 7.53497e-19)
(0.918509 0.0363056 1.23361e-19)
(0.989092 0.0433787 -2.09314e-19)
(1.05164 0.0502403 -8.6037e-19)
(1.10592 0.0566555 -6.3479e-20)
(1.15205 0.0624625 3.23276e-19)
(1.19041 0.0687782 -6.03491e-20)
(-0.00810756 0.00583866 -8.17417e-19)
(-0.00207332 0.00861326 3.41773e-19)
(0.0244304 0.00839058 -1.67083e-18)
(0.0683447 0.00662038 6.85929e-19)
(0.127336 0.00462332 -5.47518e-19)
(0.199251 0.00342147 4.03459e-19)
(0.281808 0.00364357 -6.28733e-19)
(0.372508 0.00561054 5.82953e-20)
(0.468617 0.00939538 -3.26078e-20)
(0.567252 0.0148681 1.69092e-19)
(0.665532 0.021746 2.40947e-19)
(0.760761 0.0296481 -4.54542e-19)
(0.850601 0.0381498 2.42651e-19)
(0.933204 0.0468305 2.18042e-19)
(1.00728 0.0553109 9.10217e-19)
(1.07211 0.0632759 -4.01793e-19)
(1.12748 0.0704867 -2.50085e-19)
(1.17364 0.0767832 4.14869e-19)
(1.21116 0.0820697 2.02706e-19)
(1.24113 0.087638 -4.11277e-19)
(-0.0059871 0.00432507 7.13478e-19)
(0.00660654 0.00468045 6.86964e-19)
(0.0416838 0.00333102 1.99406e-19)
(0.0957056 0.00154816 8.38387e-19)
(0.165867 0.000537599 4.12774e-19)
(0.249437 0.00120003 -7.45643e-19)
(0.343439 0.00399084 1.12922e-18)
(0.444609 0.00901405 -5.55385e-19)
(0.549472 0.0160978 5.53642e-19)
(0.65453 0.0248609 7.12496e-19)
(0.756494 0.0347889 -4.07011e-19)
(0.852518 0.0453125 7.78628e-20)
(0.940377 0.0558783 4.22209e-19)
(1.01855 0.0660026 2.92695e-19)
(1.08624 0.075305 6.57494e-19)
(1.14328 0.0835223 -2.71213e-19)
(1.19006 0.0905059 -3.9596e-20)
(1.22733 0.0962073 3.85337e-19)
(1.25612 0.100646 -8.64511e-20)
(1.27796 0.105062 -1.54965e-21)
(-0.00324665 0.00276985 -3.67823e-19)
(0.0172346 0.000832717 -1.35021e-18)
(0.0622301 -0.00128317 3.18434e-19)
(0.127594 -0.00258023 -2.42693e-19)
(0.209888 -0.00203112 -5.61343e-19)
(0.305618 0.00107903 -4.02467e-19)
(0.410941 0.00695706 -2.47869e-19)
(0.521716 0.0154144 6.01508e-19)
(0.63372 0.0259734 -3.56718e-19)
(0.742939 0.0379685 -3.66959e-19)
(0.845886 0.0506556 -4.56255e-19)
(0.939835 0.0633129 -7.49536e-20)
(1.02295 0.075319 -5.49275e-20)
(1.0943 0.0861998 -1.02103e-18)
(1.15373 0.095646 4.81097e-19)
(1.20178 0.103505 -6.34384e-19)
(1.2394 0.109761 1.86232e-19)
(1.26786 0.114492 -1.42762e-18)
(1.28854 0.117849 4.32865e-19)
(1.30312 0.120904 5.2088e-19)
(0.000223438 0.00119299 -9.26429e-20)
(0.0300373 -0.00282338 6.55411e-19)
(0.0863122 -0.00523976 4.22973e-20)
(0.164156 -0.00545311 1.01338e-19)
(0.259308 -0.00270242 -2.0593e-19)
(0.367316 0.00345403 -4.19075e-21)
(0.483322 0.0128837 -5.108e-21)
(0.602268 0.0250278 -1.23891e-19)
(0.719266 0.0390569 4.41766e-19)
(0.830008 0.0540179 1.68867e-19)
(0.931102 0.0689757 7.621e-19)
(1.02026 0.0831252 -2.05942e-19)
(1.0963 0.0958606 1.41338e-19)
(1.15907 0.106798 -1.55786e-20)
(1.20918 0.115765 3.85316e-19)
(1.24784 0.122763 2.28761e-19)
(1.27653 0.127923 5.34099e-19)
(1.29689 0.131452 -8.5391e-19)
(1.31052 0.133608 1.05337e-18)
(1.31912 0.135282 -3.32146e-19)
(0.00452798 -0.00036878 -8.49965e-19)
(0.0452111 -0.00614857 -2.66755e-19)
(0.114096 -0.00829541 2.07425e-19)
(0.205393 -0.00674426 1.30984e-19)
(0.313811 -0.00111361 1.36068e-19)
(0.433761 0.00865657 1.35984e-19)
(0.559275 0.0219953 -3.43336e-19)
(0.684433 0.0379077 -1.39389e-19)
(0.803895 0.0551965 4.45151e-20)
(0.913371 0.0726582 -4.14233e-19)
(1.00991 0.0892434 -1.84505e-19)
(1.09197 0.104159 1.10987e-18)
(1.15924 0.116908 -2.87573e-19)
(1.21244 0.12727 -3.84982e-19)
(1.25295 0.135255 -1.75167e-19)
(1.28253 0.141035 1.2522e-19)
(1.30307 0.144887 1.43262e-19)
(1.31643 0.147122 -6.84313e-19)
(1.32428 0.148075 9.7126e-19)
(1.32823 0.148476 -8.37141e-19)
(0.00976123 -0.00186046 -9.44988e-20)
(0.0629088 -0.00896792 2.68014e-20)
(0.145653 -0.0101741 -3.55964e-20)
(0.251141 -0.00611614 5.12993e-19)
(0.372855 0.00307093 2.93196e-20)
(0.503915 0.0169415 1.88111e-19)
(0.637252 0.0343921 -3.92801e-19)
(0.76626 0.0539536 -1.37815e-20)
(0.885469 0.0740886 5.40963e-19)
(0.99099 0.0934236 7.3897e-20)
(1.08066 0.110903 -4.64202e-19)
(1.15391 0.125852 -4.10291e-20)
(1.21145 0.137967 -3.69424e-19)
(1.25482 0.147242 3.71143e-19)
(1.28607 0.153891 5.00743e-19)
(1.3074 0.158251 -5.45653e-20)
(1.32092 0.160717 -6.37039e-20)
(1.32852 0.161675 1.93746e-19)
(1.33185 0.1615 -6.07686e-19)
(1.33235 0.160803 5.39861e-19)
(0.0160018 -0.00320917 9.6816e-20)
(0.0832258 -0.0110727 -6.18922e-19)
(0.180941 -0.0105728 1.65306e-19)
(0.301067 -0.00323113 -5.15937e-19)
(0.435674 0.0101437 1.77952e-19)
(0.576529 0.0284725 -6.58062e-19)
(0.715576 0.0500476 2.65188e-19)
(0.845836 0.0729316 -8.49517e-20)
(0.962112 0.0953243 -3.71462e-21)
(1.06131 0.115801 8.45181e-20)
(1.14235 0.133422 -3.05689e-19)
(1.20577 0.147733 -4.31433e-19)
(1.25328 0.158682 -8.60247e-20)
(1.28718 0.166506 -3.85941e-20)
(1.31 0.171612 -9.7025e-20)
(1.32418 0.174478 -3.087e-20)
(1.33189 0.175582 -9.22947e-20)
(1.33497 0.175349 -7.91288e-20)
(1.3349 0.174166 -2.28259e-19)
(1.33297 0.172557 3.57011e-19)
(0.0233082 -0.00432598 2.29091e-19)
(0.106189 -0.0122268 -2.546e-19)
(0.219792 -0.00917312 5.4844e-19)
(0.354658 0.00223078 -2.37697e-19)
(0.501313 0.0203347 6.34868e-19)
(0.650207 0.0433104 1.05328e-20)
(0.792559 0.0688156 3.17489e-19)
(0.921428 0.0945056 -8.61875e-20)
(1.03234 0.118442 3.51028e-19)
(1.12333 0.139289 2.35475e-20)
(1.1946 0.156346 8.2009e-19)
(1.24783 0.169452 -5.62564e-19)
(1.2856 0.178844 7.70802e-20)
(1.31081 0.184994 1.44192e-19)
(1.32627 0.188475 7.27523e-19)
(1.33451 0.189867 -2.60335e-19)
(1.33762 0.189694 -5.06186e-20)
(1.33726 0.188386 -2.59927e-19)
(1.33474 0.186327 -2.47685e-20)
(1.33113 0.183974 1.28181e-19)
(0.0317148 -0.00510885 -1.08161e-19)
(0.131746 -0.0121758 3.14842e-19)
(0.26191 -0.0056578 -3.25187e-19)
(0.411236 0.010551 1.26921e-19)
(0.568665 0.0337932 -1.54293e-19)
(0.723495 0.0614086 5.62126e-19)
(0.866613 0.090447 -7.94536e-20)
(0.991597 0.118275 1.89494e-19)
(1.09511 0.142975 -1.12969e-19)
(1.1766 0.163445 -3.68524e-21)
(1.23757 0.179322 1.24476e-19)
(1.28078 0.190788 -9.59004e-20)
(1.30953 0.198367 2.46936e-19)
(1.32708 0.202739 -1.23624e-19)
(1.33637 0.204603 -5.2836e-19)
(1.33983 0.204599 5.21393e-19)
(1.3394 0.203262 -2.30599e-19)
(1.33652 0.201002 1.8335e-19)
(1.33228 0.198188 3.11529e-19)
(1.32757 0.195225 1.26915e-19)
(0.0412281 -0.00544625 2.69919e-19)
(0.159763 -0.0106591 -5.56517e-19)
(0.306864 0.000270572 1.05813e-19)
(0.46998 0.0219515 -7.74766e-20)
(0.636526 0.0505748 -3.14119e-19)
(0.794968 0.0826179 -2.45441e-19)
(0.936347 0.114616 -4.87701e-20)
(1.05526 0.143815 -4.33711e-19)
(1.14985 0.16849 -2.64581e-20)
(1.2211 0.187907 -7.9816e-20)
(1.2718 0.202105 -2.14448e-19)
(1.3056 0.211625 -4.79928e-20)
(1.32629 0.217253 -1.61589e-19)
(1.33732 0.219833 -2.64787e-19)
(1.34158 0.220146 2.67846e-19)
(1.34132 0.218852 3.45054e-20)
(1.33824 0.216466 6.85722e-20)
(1.33355 0.213362 -2.9961e-19)
(1.32815 0.209896 -8.89393e-21)
(1.32275 0.206417 -4.50395e-19)
(0.0518235 -0.00522148 2.92791e-19)
(0.190016 -0.00742293 1.95904e-19)
(0.354103 0.00887084 -3.17885e-19)
(0.529955 0.0365781 4.95613e-19)
(0.703664 0.0706365 -5.42171e-20)
(0.863309 0.1067 1.84636e-19)
(1.00064 0.140948 6.38558e-20)
(1.11171 0.170706 2.24123e-19)
(1.19639 0.194611 -1.75528e-19)
(1.2572 0.212397 5.77626e-20)
(1.29806 0.224543 -5.51324e-20)
(1.32333 0.231927 -2.31705e-20)
(1.33705 0.235558 4.52871e-20)
(1.3427 0.236393 -8.2117e-20)
(1.34296 0.23525 -2.44441e-20)
(1.33988 0.232775 -7.52475e-20)
(1.33487 0.229444 -1.21153e-19)
(1.32893 0.225587 7.86792e-20)
(1.32277 0.221545 -1.04565e-19)
(1.31695 0.217609 4.53265e-19)
(0.0634433 -0.00431741 -1.45088e-19)
(0.222197 -0.00223336 -4.13181e-19)
(0.402968 0.0203462 -5.48375e-20)
(0.59016 0.0544887 -1.58288e-20)
(0.768882 0.0938403 -1.85369e-19)
(0.927378 0.133349 -3.03989e-19)
(1.05865 0.169049 9.87587e-20)
(1.16059 0.19856 -1.3563e-19)
(1.23487 0.221028 -1.50469e-19)
(1.28547 0.23672 8.32438e-20)
(1.31725 0.246554 -6.24855e-20)
(1.335 0.25171 -1.24855e-19)
(1.34286 0.253363 -3.06856e-21)
(1.34416 0.252533 8.44297e-20)
(1.34134 0.250037 -8.40534e-20)
(1.33616 0.246482 1.16889e-19)
(1.32979 0.242291 3.19641e-20)
(1.32301 0.237747 7.7968e-20)
(1.31639 0.233183 1.48584e-19)
(1.31034 0.22882 -1.26736e-19)
(0.0759941 -0.00262172 1.37999e-19)
(0.255914 0.00511009 -1.11294e-20)
(0.452716 0.0348307 6.29283e-20)
(0.649563 0.0756494 -8.45038e-20)
(0.831064 0.119965 7.70958e-21)
(0.986236 0.16221 2.92633e-19)
(1.10984 0.198528 -1.91401e-19)
(1.20182 0.227032 8.07212e-20)
(1.26566 0.247494 7.09135e-20)
(1.30662 0.260743 -1.97151e-19)
(1.33024 0.268108 1.84251e-19)
(1.34154 0.271015 1.78253e-21)
(1.3446 0.270748 -1.27484e-19)
(1.34247 0.268349 1.53174e-19)
(1.33733 0.264597 -6.00473e-20)
(1.33063 0.260046 4.56616e-20)
(1.32333 0.25506 -5.13096e-20)
(1.31602 0.249874 -2.08181e-20)
(1.30914 0.244823 -1.73802e-19)
(1.30298 0.24004 5.32214e-20)
(0.0893479 -3.11321e-05 -4.57757e-20)
(0.290707 0.0147666 1.24315e-19)
(0.502554 0.052385 1.96538e-20)
(0.707168 0.0999415 8.13787e-20)
(0.889244 0.148722 3.89468e-20)
(1.03919 0.192907 1.82943e-20)
(1.15392 0.229009 1.02547e-19)
(1.23556 0.255822 -1.23417e-20)
(1.28929 0.273814 4.47838e-20)
(1.32139 0.284374 7.14391e-20)
(1.33787 0.289193 3.41473e-20)
(1.34378 0.28988 2.4361e-20)
(1.34298 0.287776 9.83284e-20)
(1.33822 0.283902 -9.50166e-20)
(1.33137 0.27898 2.02483e-20)
(1.32361 0.273499 -1.86584e-20)
(1.31569 0.267761 2.90693e-20)
(1.30809 0.261964 2.42077e-20)
(1.30109 0.256442 4.9697e-20)
(1.29493 0.251231 1.92361e-21)
(0.103348 0.00354398 2.72198e-20)
(0.326064 0.0268437 2.47847e-20)
(0.551667 0.0729883 -3.44116e-20)
(0.762035 0.127162 2.15015e-20)
(0.942607 0.17977 1.2111e-20)
(1.08576 0.225049 -3.77885e-20)
(1.19084 0.260144 1.23655e-20)
(1.26215 0.284671 2.34895e-21)
(1.30635 0.299837 2.11393e-20)
(1.33052 0.307553 -5.66485e-20)
(1.34089 0.30981 -1.23908e-22)
(1.34238 0.30834 1.54525e-20)
(1.33856 0.304491 -1.232e-20)
(1.33183 0.299229 1.24617e-20)
(1.32376 0.293207 3.21238e-20)
(1.3153 0.286844 -1.81436e-20)
(1.30702 0.280382 5.14069e-21)
(1.29928 0.273989 1.96259e-20)
(1.29227 0.268003 -3.21018e-20)
(1.28617 0.262348 1.55014e-20)
(0.095871 -0.00380171 7.0508e-20)
(0.311328 -0.0279294 -3.8841e-20)
(0.535223 -0.0758539 4.59486e-20)
(0.747706 -0.132557 -3.42521e-20)
(0.932598 -0.188071 -1.54853e-20)
(1.0809 -0.236239 4.74624e-21)
(1.19102 -0.273906 -1.52829e-20)
(1.26671 -0.300523 5.52092e-20)
(1.31447 -0.317257 -4.60815e-20)
(1.34139 -0.326062 1.0486e-20)
(1.35386 -0.329012 -8.12154e-21)
(1.35695 -0.327928 -5.30104e-20)
(1.35439 -0.324236 5.15459e-20)
(1.34869 -0.318965 1.99015e-20)
(1.3415 -0.312811 -1.91564e-20)
(1.33381 -0.306223 4.58808e-20)
(1.32623 -0.299463 -5.99727e-22)
(1.31912 -0.292707 -4.44731e-20)
(1.3127 -0.286316 3.2559e-20)
(1.30714 -0.280247 1.07603e-20)
(0.0816222 -0.000499614 -2.51907e-20)
(0.274951 -0.0163376 6.89586e-20)
(0.484248 -0.0556778 8.07755e-20)
(0.690288 -0.105605 -3.90461e-20)
(0.876315 -0.157159 6.76135e-20)
(1.03141 -0.204194 1.09494e-19)
(1.15145 -0.242926 -6.07511e-21)
(1.23793 -0.271953 -1.94316e-20)
(1.29573 -0.29167 9.67713e-20)
(1.33107 -0.303473 4.76956e-20)
(1.35008 -0.309117 -8.84217e-21)
(1.35794 -0.310291 7.22406e-20)
(1.35867 -0.308416 -7.70893e-20)
(1.35515 -0.304574 1.23377e-19)
(1.34934 -0.299541 -2.01e-20)
(1.34249 -0.293838 6.08978e-20)
(1.33539 -0.287792 1.17688e-20)
(1.32852 -0.281613 4.31663e-20)
(1.3222 -0.275659 -4.05515e-20)
(1.31667 -0.270008 1.12111e-20)
(0.0681008 0.0018055 -3.76814e-20)
(0.239308 -0.00722407 8.28053e-20)
(0.432717 -0.038646 6.19808e-20)
(0.630213 -0.0816872 -9.92242e-21)
(0.815151 -0.128628 1.03769e-19)
(0.975313 -0.173652 -8.11424e-20)
(1.1044 -0.212627 -8.38338e-21)
(1.20162 -0.243456 7.35634e-20)
(1.27005 -0.265798 2.47898e-20)
(1.31479 -0.280458 3.38553e-20)
(1.34142 -0.288802 -4.96281e-20)
(1.35509 -0.292321 1.38469e-19)
(1.36001 -0.292375 2.65839e-20)
(1.35939 -0.29007 -1.21126e-19)
(1.35549 -0.286241 1.85562e-19)
(1.34987 -0.281481 -2.18852e-19)
(1.34351 -0.276184 -1.0329e-19)
(1.33707 -0.270602 1.79151e-20)
(1.33097 -0.265092 9.90254e-20)
(1.32554 -0.259844 -1.87355e-19)