/*--------------------------------*- C++ -*----------------------------------*\
  =========                 |
  \\      /  F ield         | OpenFOAM: The Open Source CFD Toolbox
   \\    /   O peration     | Website:  https://openfoam.org
    \\  /    A nd           | Version:  6.0
     \\/     M anipulation  |
\*---------------------------------------------------------------------------*/
FoamFile
{
    version     2.0;
    format      ascii;
    class       volScalarField;
    location    "87";
    object      p;
}
// * * * * * * * * * * * * * * * * * * * * * * * * * * * * * * * * * * * * * //

dimensions      [0 2 -2 0 0 0 0];

internalField   nonuniform List<scalar> 
4000
(
-0.620459
-0.605552
-0.590646
-0.572232
-0.549381
-0.523288
-0.495494
-0.467382
-0.439987
-0.413959
-0.389618
-0.367061
-0.346248
-0.327068
-0.309382
-0.293048
-0.277932
-0.263876
-0.250666
-0.238614
-0.624175
-0.608905
-0.592944
-0.572683
-0.547537
-0.519129
-0.489302
-0.45957
-0.430975
-0.404107
-0.379208
-0.356301
-0.335287
-0.316014
-0.298312
-0.282018
-0.266985
-0.253032
-0.239934
-0.22809
-0.62548
-0.609935
-0.592874
-0.570693
-0.54325
-0.512622
-0.480927
-0.449774
-0.420178
-0.392649
-0.367345
-0.344216
-0.32311
-0.303835
-0.286197
-0.270015
-0.255127
-0.241333
-0.2284
-0.216819
-0.624032
-0.608302
-0.590111
-0.565978
-0.536296
-0.503599
-0.470248
-0.4379
-0.407516
-0.379514
-0.353965
-0.330748
-0.309664
-0.290486
-0.272997
-0.257002
-0.242328
-0.228754
-0.216044
-0.204786
-0.619516
-0.60369
-0.584358
-0.558288
-0.526483
-0.491922
-0.45716
-0.423866
-0.392919
-0.36464
-0.339009
-0.315845
-0.294901
-0.275923
-0.258675
-0.24295
-0.228563
-0.215276
-0.202853
-0.19198
-0.611651
-0.595817
-0.575359
-0.54742
-0.513664
-0.477488
-0.441592
-0.407616
-0.376342
-0.347983
-0.32244
-0.29947
-0.27879
-0.260121
-0.24321
-0.227842
-0.213821
-0.200891
-0.188825
-0.178403
-0.600197
-0.584444
-0.562906
-0.533216
-0.497735
-0.460232
-0.423499
-0.389115
-0.357751
-0.329515
-0.304228
-0.281598
-0.261309
-0.243061
-0.226589
-0.211669
-0.198098
-0.185602
-0.173965
-0.164061
-0.584967
-0.569385
-0.546842
-0.515571
-0.478633
-0.44012
-0.402863
-0.368351
-0.337135
-0.309222
-0.284363
-0.262221
-0.242451
-0.224739
-0.208809
-0.194434
-0.1814
-0.169417
-0.158288
-0.148969
-0.565825
-0.550506
-0.527069
-0.49443
-0.456343
-0.417156
-0.379695
-0.345334
-0.314501
-0.28711
-0.262847
-0.241339
-0.222219
-0.205161
-0.189881
-0.176149
-0.163742
-0.152359
-0.141819
-0.133153
-0.542698
-0.527738
-0.503545
-0.469792
-0.43089
-0.391379
-0.354032
-0.320096
-0.289876
-0.263199
-0.239699
-0.21897
-0.20063
-0.184343
-0.169824
-0.156835
-0.145151
-0.134457
-0.124593
-0.116651
-0.515572
-0.501068
-0.476289
-0.441708
-0.402344
-0.36286
-0.325941
-0.292694
-0.263308
-0.23753
-0.214951
-0.195142
-0.17771
-0.162313
-0.148662
-0.136521
-0.125658
-0.115751
-0.106657
-0.0995165
-0.484497
-0.470551
-0.44538
-0.41028
-0.370814
-0.331705
-0.295515
-0.263208
-0.234862
-0.210159
-0.188653
-0.169898
-0.153496
-0.139102
-0.126428
-0.115239
-0.105298
-0.0962787
-0.0880607
-0.0818077
-0.449585
-0.436299
-0.41095
-0.375656
-0.33645
-0.298051
-0.262875
-0.231742
-0.204629
-0.181161
-0.160866
-0.14329
-0.128031
-0.114749
-0.103157
-0.0930206
-0.0841021
-0.0760789
-0.0688484
-0.0635605
-0.411007
-0.398486
-0.373186
-0.33803
-0.299437
-0.262068
-0.22817
-0.198423
-0.172716
-0.150627
-0.131668
-0.11538
-0.101368
-0.0892945
-0.0788803
-0.0698941
-0.0621006
-0.055187
-0.0490548
-0.0447755
-0.368993
-0.357339
-0.332325
-0.297638
-0.259998
-0.223954
-0.191575
-0.163406
-0.139257
-0.118671
-0.101151
-0.0862441
-0.0735616
-0.0627783
-0.0536252
-0.0458786
-0.0393121
-0.0336253
-0.028697
-0.0254579
-0.323823
-0.313139
-0.28865
-0.254754
-0.218385
-0.183938
-0.153294
-0.126869
-0.104407
-0.0854266
-0.069429
-0.0559708
-0.0446786
-0.0352438
-0.0274142
-0.0209801
-0.0157295
-0.0113811
-0.0077872
-0.00574498
-0.275827
-0.266209
-0.242483
-0.209685
-0.174884
-0.142278
-0.113557
-0.0890181
-0.068349
-0.0510524
-0.0366349
-0.0246687
-0.0148009
-0.00674786
-0.000282281
0.00478836
0.00865684
0.0115439
0.0135367
0.0139325
-0.225374
-0.216915
-0.194179
-0.162771
-0.129806
-0.099256
-0.0726198
-0.0500848
-0.0312905
-0.0157304
-0.00292122
0.00754501
0.0159931
0.0226709
0.0277692
0.0314584
0.0338849
0.0350816
0.0349074
0.0330644
-0.17287
-0.165654
-0.144126
-0.114374
-0.0834852
-0.0551804
-0.0307669
-0.0103313
0.00652755
0.020323
0.0315291
0.0405361
0.0476418
0.0530556
0.0569288
0.0593975
0.0604818
0.0597939
0.0568456
0.0527101
-0.118749
-0.11285
-0.0927302
-0.0648752
-0.0362751
-0.0103776
0.0116955
0.0299505
0.0448235
0.0568349
0.0664554
0.0740701
0.0799712
0.0843643
0.0874118
0.0892636
0.089797
0.0881002
0.0834779
0.078942
-0.0634639
-0.0589457
-0.0404152
-0.0146701
0.0114599
0.0348127
0.0544459
0.0704484
0.0832849
0.0934795
0.101501
0.107737
0.112493
0.116014
0.118549
0.120378
0.121446
0.120699
0.117909
0.121785
-0.0074744
-0.00439153
0.0123896
0.0358419
0.0593506
0.0800473
0.0971595
0.110849
0.1216
0.129934
0.136311
0.14111
0.144634
0.147141
0.148897
0.150166
0.150914
0.150642
0.150322
0.156398
0.0487463
0.0503527
0.0652499
0.0862601
0.107029
0.124986
0.139517
0.150847
0.159472
0.165908
0.170601
0.173918
0.176157
0.177572
0.178415
0.178905
0.179005
0.178411
0.178107
0.182999
0.104727
0.104829
0.117735
0.136189
0.154135
0.169296
0.18121
0.190151
0.196623
0.201126
0.204091
0.205867
0.206737
0.206942
0.206713
0.206243
0.205515
0.204297
0.203394
0.206672
0.160001
0.158587
0.169424
0.185243
0.200317
0.212659
0.221944
0.22849
0.2328
0.235357
0.23657
0.236768
0.236213
0.235127
0.233714
0.232137
0.230368
0.228206
0.226386
0.228173
0.214112
0.211184
0.219904
0.233049
0.245238
0.25477
0.261443
0.26561
0.26777
0.268387
0.267845
0.266451
0.264447
0.262032
0.259386
0.256646
0.253767
0.250574
0.247758
0.248121
0.266619
0.262194
0.26878
0.279248
0.288577
0.295337
0.299443
0.301275
0.301322
0.300028
0.297752
0.294778
0.291325
0.287574
0.283681
0.279758
0.275751
0.271514
0.267702
0.266724
0.317097
0.311207
0.315674
0.323499
0.330026
0.334087
0.335698
0.335263
0.333258
0.330104
0.326138
0.32162
0.31675
0.311687
0.306568
0.301483
0.296376
0.291126
0.286348
0.284101
0.365142
0.357834
0.360225
0.365477
0.369298
0.37076
0.369977
0.367366
0.363391
0.358452
0.352861
0.346857
0.34062
0.334293
0.327992
0.321791
0.315634
0.309424
0.303724
0.300281
0.41037
0.401709
0.402098
0.404881
0.406119
0.405114
0.40206
0.397388
0.391548
0.384917
0.377786
0.370372
0.36284
0.355313
0.347893
0.340638
0.333496
0.326389
0.319822
0.315255
0.452425
0.442488
0.440976
0.441426
0.440238
0.436922
0.431744
0.425147
0.417565
0.409353
0.400782
0.392052
0.383309
0.374662
0.366199
0.357965
0.349912
0.341979
0.334603
0.32899
0.490976
0.479855
0.476568
0.474852
0.471419
0.465972
0.458841
0.450472
0.441287
0.431622
0.421727
0.411786
0.40193
0.392255
0.382834
0.373704
0.364821
0.356137
0.348018
0.341441
0.525721
0.513521
0.508611
0.504919
0.49945
0.492074
0.483176
0.473206
0.462573
0.451594
0.440504
0.429469
0.418608
0.408005
0.397721
0.387785
0.378159
0.368802
0.36001
0.352559
0.556388
0.543224
0.536863
0.531413
0.524137
0.515053
0.504591
0.493206
0.481293
0.469153
0.457005
0.445004
0.433255
0.421832
0.410787
0.40014
0.389861
0.379913
0.370524
0.362293
0.582736
0.568736
0.561116
0.554145
0.54531
0.534754
0.522948
0.510345
0.49733
0.484191
0.471134
0.458301
0.445788
0.433661
0.42196
0.410704
0.399865
0.38941
0.379504
0.370597
0.604556
0.589857
0.581186
0.57295
0.562821
0.551045
0.538123
0.524511
0.510583
0.496615
0.482803
0.469281
0.456135
0.443422
0.431179
0.419417
0.408115
0.397241
0.386902
0.37743
0.621675
0.606421
0.596922
0.58769
0.576545
0.563812
0.550015
0.535611
0.520965
0.506346
0.491942
0.477876
0.464232
0.45106
0.438388
0.426229
0.414562
0.403359
0.392677
0.382754
0.633954
0.618296
0.608201
0.598257
0.586384
0.572966
0.558542
0.543569
0.528408
0.513321
0.498489
0.484033
0.47003
0.456525
0.443545
0.431098
0.419168
0.407726
0.396794
0.38654
0.641289
0.625383
0.614933
0.604568
0.592264
0.578439
0.563641
0.548329
0.532859
0.517491
0.502403
0.48771
0.473489
0.459783
0.446615
0.433993
0.421903
0.410315
0.399227
0.388768
0.643614
0.627619
0.61706
0.60657
0.594137
0.580188
0.565274
0.549854
0.534286
0.518826
0.503653
0.488881
0.474586
0.460811
0.447578
0.434894
0.422748
0.411106
0.39996
0.389423
0.640898
0.624973
0.614556
0.60424
0.591982
0.578193
0.563423
0.548129
0.532673
0.517312
0.502227
0.487534
0.47331
0.459599
0.446423
0.433792
0.421693
0.410094
0.398987
0.388499
0.633147
0.617454
0.607425
0.597583
0.585803
0.572459
0.558091
0.543158
0.528023
0.512953
0.498128
0.483673
0.469664
0.456149
0.443155
0.43069
0.418742
0.407279
0.396311
0.385999
0.620407
0.605102
0.595707
0.586633
0.575632
0.563015
0.549306
0.534963
0.52036
0.505768
0.491377
0.477314
0.463664
0.450478
0.437787
0.425602
0.413909
0.402675
0.391942
0.381933
0.602758
0.587995
0.579472
0.571454
0.561526
0.549913
0.537114
0.523591
0.509725
0.495797
0.482008
0.468492
0.455342
0.442615
0.430347
0.418555
0.407218
0.396306
0.385902
0.376318
0.580316
0.566244
0.558822
0.552139
0.543569
0.533229
0.521586
0.509105
0.496175
0.483094
0.470071
0.457254
0.444741
0.4326
0.420874
0.409583
0.398704
0.388204
0.37822
0.369181
0.553235
0.539995
0.533891
0.528808
0.52187
0.513061
0.502813
0.491587
0.479789
0.467729
0.455633
0.443659
0.431919
0.420487
0.409417
0.398734
0.388411
0.378411
0.368935
0.360554
0.521703
0.509427
0.504842
0.501608
0.496562
0.489532
0.480904
0.471139
0.460657
0.449787
0.438771
0.427782
0.416941
0.406338
0.396034
0.386063
0.376392
0.366979
0.358094
0.350477
0.485942
0.474753
0.47187
0.470715
0.467802
0.462783
0.455988
0.447879
0.43889
0.429369
0.419578
0.409705
0.399888
0.390225
0.380794
0.371634
0.362707
0.353965
0.345749
0.338996
0.446206
0.436214
0.435198
0.436328
0.43577
0.432977
0.428215
0.421941
0.414609
0.406586
0.398156
0.389524
0.380844
0.37223
0.363771
0.355516
0.347423
0.339432
0.331959
0.326161
0.402781
0.394085
0.395075
0.398673
0.400669
0.400296
0.397748
0.393476
0.38795
0.381562
0.374617
0.367341
0.359904
0.352436
0.345041
0.337781
0.330606
0.323445
0.316782
0.312026
0.355983
0.348668
0.351779
0.357999
0.362721
0.364941
0.364769
0.362647
0.359062
0.354431
0.349082
0.343264
0.337166
0.330932
0.324686
0.318501
0.312325
0.306068
0.300279
0.296643
0.306158
0.300293
0.305614
0.314578
0.322171
0.32713
0.329473
0.329629
0.328102
0.325334
0.321679
0.317407
0.312728
0.307806
0.302782
0.297745
0.292642
0.287358
0.282501
0.280058
0.253677
0.249317
0.256906
0.268704
0.27928
0.287098
0.292072
0.294614
0.295241
0.294423
0.29254
0.289886
0.286693
0.283144
0.279402
0.275573
0.271606
0.267358
0.263485
0.262307
0.198936
0.196121
0.206007
0.220691
0.23433
0.245097
0.252791
0.2578
0.260658
0.261856
0.261803
0.260819
0.259158
0.257025
0.254604
0.252026
0.249244
0.246086
0.243242
0.243399
0.142356
0.141109
0.153288
0.170875
0.187619
0.201393
0.211869
0.219404
0.224542
0.227801
0.229614
0.230329
0.230223
0.229525
0.228441
0.227133
0.225561
0.223524
0.221739
0.223303
0.0843763
0.0847052
0.0991414
0.119608
0.139465
0.156271
0.169561
0.179653
0.187097
0.192436
0.196127
0.198543
0.199986
0.200707
0.200939
0.200872
0.200486
0.199554
0.198828
0.201888
0.0254555
0.0273518
0.0439776
0.0672619
0.0902005
0.110031
0.126136
0.138789
0.148542
0.155954
0.161509
0.165603
0.168558
0.170649
0.172139
0.173251
0.173978
0.174061
0.17432
0.178943
-0.0339342
-0.0304937
-0.0117777
0.0142233
0.0401739
0.0629869
0.0818826
0.0970769
0.109117
0.118576
0.125959
0.131682
0.136082
0.139451
0.142073
0.144199
0.145804
0.146552
0.147447
0.153768
-0.09331
-0.0883631
-0.0676865
-0.0391082
-0.0102518
0.0154703
0.0371031
0.054795
0.0690791
0.0805391
0.0896929
0.0969694
0.102715
0.107223
0.110795
0.113733
0.116015
0.117102
0.118
0.125616
-0.152183
-0.145782
-0.123303
-0.0923229
-0.0607026
-0.0321752
-0.00788234
0.0122457
0.0287209
0.0421303
0.0530023
0.0617759
0.0688002
0.0743576
0.0787353
0.0822561
0.084885
0.0854957
0.0837888
0.0890485
-0.210063
-0.202272
-0.178175
-0.145005
-0.110797
-0.0795968
-0.0527424
-0.0302543
-0.0116507
0.00365155
0.016184
0.0263841
0.0345869
0.0410327
0.0459152
0.0494208
0.0514496
0.0510196
0.0472763
0.0433986
-0.266473
-0.257366
-0.231857
-0.196739
-0.160152
-0.126438
-0.09714
-0.0723791
-0.0517117
-0.0345615
-0.0203938
-0.00876633
0.00066089
0.00812897
0.0138142
0.0178812
0.0203766
0.0208761
0.018741
0.0150378
-0.320941
-0.310603
-0.283909
-0.247116
-0.208389
-0.172347
-0.140741
-0.113804
-0.0911361
-0.0721679
-0.0563553
-0.0432377
-0.0324471
-0.0237025
-0.0167875
-0.0115056
-0.00767715
-0.00526346
-0.00450073
-0.00583288
-0.373018
-0.361542
-0.333907
-0.295737
-0.255141
-0.216983
-0.183227
-0.154226
-0.12963
-0.10888
-0.0914229
-0.0767748
-0.0645384
-0.0543934
-0.0460839
-0.0393909
-0.0340879
-0.0299258
-0.0268603
-0.0257422
-0.422281
-0.409768
-0.381446
-0.342225
-0.300059
-0.260028
-0.224304
-0.193372
-0.166942
-0.144475
-0.125407
-0.109241
-0.0955556
-0.0840039
-0.0743024
-0.0662137
-0.0594931
-0.0538259
-0.049081
-0.0461616
-0.468345
-0.454901
-0.426156
-0.386225
-0.34282
-0.301186
-0.263706
-0.231002
-0.20286
-0.178764
-0.158155
-0.140522
-0.125429
-0.112511
-0.101466
-0.092041
-0.0839775
-0.0769418
-0.0708249
-0.0666479
-0.510868
-0.4966
-0.467697
-0.427417
-0.383126
-0.340192
-0.301194
-0.266905
-0.237196
-0.211588
-0.189531
-0.170511
-0.15408
-0.139863
-0.127545
-0.116866
-0.107558
-0.0992748
-0.0919295
-0.0866905
-0.549555
-0.534572
-0.505773
-0.465511
-0.420711
-0.376805
-0.336557
-0.300895
-0.26979
-0.24281
-0.219424
-0.199119
-0.181445
-0.166018
-0.15252
-0.140686
-0.130245
-0.12084
-0.112375
-0.106104
-0.584168
-0.568578
-0.540134
-0.50026
-0.455344
-0.410819
-0.369612
-0.332815
-0.300506
-0.272315
-0.247738
-0.226272
-0.207469
-0.190943
-0.176371
-0.163488
-0.152026
-0.141623
-0.132157
-0.124895
-0.614528
-0.598436
-0.570582
-0.531456
-0.486827
-0.442055
-0.400206
-0.362533
-0.329233
-0.300011
-0.274398
-0.251911
-0.232106
-0.214601
-0.199072
-0.185253
-0.172882
-0.1616
-0.151258
-0.143092
-0.64052
-0.624027
-0.596975
-0.558943
-0.515002
-0.470369
-0.428212
-0.38994
-0.35588
-0.325821
-0.299343
-0.275985
-0.255317
-0.236962
-0.220597
-0.205959
-0.192792
-0.180746
-0.169648
-0.160678
-0.662095
-0.645298
-0.61923
-0.582611
-0.539752
-0.495649
-0.453533
-0.414955
-0.38038
-0.349692
-0.322526
-0.298457
-0.277069
-0.257996
-0.240921
-0.225581
-0.21173
-0.19903
-0.187285
-0.177607
-0.679271
-0.66226
-0.637327
-0.602403
-0.561001
-0.517819
-0.476098
-0.43752
-0.402685
-0.371583
-0.343917
-0.319299
-0.29734
-0.277684
-0.260023
-0.244099
-0.229673
-0.216423
-0.204132
-0.193829
-0.692131
-0.674995
-0.651309
-0.618319
-0.578719
-0.536836
-0.495867
-0.457599
-0.422768
-0.391474
-0.363498
-0.3385
-0.316118
-0.296015
-0.277891
-0.261496
-0.246601
-0.2329
-0.220158
-0.209311
-0.700825
-0.683647
-0.661284
-0.630414
-0.59292
-0.552693
-0.512828
-0.475182
-0.440622
-0.409362
-0.381269
-0.356058
-0.333402
-0.312985
-0.294521
-0.277767
-0.262505
-0.248448
-0.235346
-0.224037
-0.705562
-0.688424
-0.66742
-0.6388
-0.603666
-0.565421
-0.526995
-0.490283
-0.456261
-0.425263
-0.397246
-0.371989
-0.349206
-0.328606
-0.309921
-0.292917
-0.277388
-0.263066
-0.249692
-0.238002
-0.706608
-0.68959
-0.669946
-0.643644
-0.611065
-0.575087
-0.538415
-0.502933
-0.469714
-0.439204
-0.411456
-0.386319
-0.363553
-0.342899
-0.324108
-0.306959
-0.291258
-0.276758
-0.263199
-0.251207
-0.704276
-0.687461
-0.669146
-0.645169
-0.615275
-0.581798
-0.547161
-0.513195
-0.481036
-0.451236
-0.423946
-0.399091
-0.376483
-0.355899
-0.337113
-0.319921
-0.304139
-0.289545
-0.275879
-0.263665
-0.69892
-0.682389
-0.665348
-0.643644
-0.616495
-0.58569
-0.55333
-0.521138
-0.490284
-0.461411
-0.434766
-0.41035
-0.388037
-0.367643
-0.34897
-0.33183
-0.316056
-0.301447
-0.287752
-0.275393
-0.690924
-0.674764
-0.658922
-0.639389
-0.61497
-0.586944
-0.557052
-0.526863
-0.497543
-0.469804
-0.443983
-0.420161
-0.398275
-0.378186
-0.359727
-0.342733
-0.32705
-0.312501
-0.298846
-0.286416
0.0623005
0.0330936
0.0124454
0.00278591
-0.00605537
-0.0180928
-0.0315384
-0.0444338
-0.0564877
-0.0681169
-0.079553
-0.0907506
-0.101597
-0.112029
-0.122033
-0.131608
-0.140754
-0.149465
-0.157742
-0.16559
0.0126221
-0.000781933
-0.0113973
-0.0179758
-0.0232962
-0.0295238
-0.0366137
-0.043642
-0.0501226
-0.0561285
-0.0618644
-0.0674127
-0.0727482
-0.07783
-0.0826439
-0.087196
-0.091497
-0.0955537
-0.09937
-0.102949
0.00794906
0.00277159
-0.000817455
-0.00435094
-0.00810372
-0.0119722
-0.0158814
-0.019754
-0.0235189
-0.0271622
-0.030716
-0.0342113
-0.0376559
-0.0410438
-0.0443697
-0.0476343
-0.0508417
-0.0539963
-0.0571017
-0.0601607
0.0074348
0.00448444
0.00237431
-0.000239428
-0.00330471
-0.0063826
-0.00929589
-0.0120895
-0.0148269
-0.0175202
-0.0201572
-0.0227302
-0.0252394
-0.0276865
-0.0300724
-0.0323973
-0.034662
-0.0368684
-0.0390185
-0.0411144
0.00763443
0.00535556
0.00389755
0.00224657
0.000257351
-0.00179774
-0.00374094
-0.00557409
-0.00735523
-0.00911411
-0.0108496
-0.0125538
-0.0142247
-0.0158652
-0.0174792
-0.0190693
-0.0206379
-0.0221867
-0.0237178
-0.0252333
0.00804722
0.00627324
0.0052425
0.004171
0.00284967
0.00142938
5.18732e-05
-0.0012589
-0.00253551
-0.00380316
-0.0050658
-0.00631833
-0.00755712
-0.00878204
-0.00999439
-0.0111953
-0.0123852
-0.0135645
-0.0147336
-0.0158927
0.00916395
0.00784595
0.0071113
0.00636844
0.00544133
0.00442473
0.00342246
0.00246045
0.00152094
0.000586348
-0.000347747
-0.00127861
-0.00220342
-0.00312149
-0.00403336
-0.00493971
-0.00584098
-0.00673748
-0.00762957
-0.00851752
0.0105552
0.00959486
0.00902326
0.00843834
0.00772743
0.00695319
0.00618369
0.0054376
0.00470514
0.00397539
0.00324521
0.0025161
0.00178996
0.00106751
0.00034867
-0.00036682
-0.00107909
-0.0017882
-0.00249422
-0.00319714
0.0118839
0.0112158
0.0107511
0.010249
0.00966706
0.00905227
0.00844336
0.00784856
0.00726157
0.00667656
0.00609209
0.00550911
0.00492865
0.00435112
0.0037765
0.00320467
0.00263554
0.00206907
0.00150518
0.000943842
0.0129131
0.0124714
0.0120913
0.0116482
0.0111552
0.0106537
0.0101625
0.00968074
0.00920301
0.00872658
0.00825143
0.00777833
0.00730773
0.00683971
0.00637416
0.00591097
0.00545007
0.00499139
0.00453481
0.00408027
0.013612
0.0133326
0.0130293
0.0126488
0.0122361
0.011829
0.0114354
0.011049
0.0106646
0.010281
0.00989886
0.00951894
0.00914139
0.00876605
0.00839273
0.0080213
0.00765166
0.00728369
0.00691725
0.00655224
0.0140485
0.0138832
0.0136524
0.013341
0.013007
0.0126847
0.0123765
0.0120742
0.0117726
0.0114711
0.0111708
0.0108723
0.0105756
0.0102805
0.00998661
0.00969386
0.00940211
0.00911123
0.00882108
0.0085315
0.0143386
0.0142655
0.0141068
0.013867
0.013609
0.0133649
0.0131346
0.0129092
0.0126836
0.0124575
0.0122319
0.0120074
0.0117837
0.0115607
0.0113379
0.0111151
0.0108922
0.0106691
0.0104455
0.0102213
0.0145564
0.0145743
0.0144899
0.0143197
0.0141327
0.0139614
0.0138043
0.0136514
0.0134975
0.0133422
0.0131864
0.0130304
0.0128741
0.012717
0.0125587
0.0123988
0.0122372
0.0120737
0.011908
0.01174
0.0147473
0.0148842
0.0148965
0.0148086
0.0147018
0.0146128
0.0145392
0.0144692
0.0143962
0.0143194
0.0142398
0.0141575
0.0140722
0.0139832
0.0138901
0.0137925
0.0136901
0.0135829
0.0134706
0.0133532
0.0148076
0.0150566
0.0152068
0.015262
0.0152884
0.0153217
0.0153626
0.0154013
0.0154312
0.0154508
0.0154607
0.0154613
0.0154523
0.0154335
0.0154046
0.0153656
0.0153164
0.0152573
0.0151885
0.0151103
0.0152673
0.0156033
0.0159947
0.0163501
0.0166458
0.0168946
0.0171112
0.0173015
0.0174656
0.0176023
0.017712
0.0177958
0.0178552
0.0178917
0.0179064
0.0179006
0.0178755
0.0178323
0.0177723
0.0176967
0.018073
0.0186816
0.0193172
0.0198487
0.0202711
0.020614
0.0208987
0.021133
0.0213196
0.0214604
0.0215586
0.0216176
0.0216411
0.0216322
0.0215939
0.021529
0.02144
0.0213294
0.0211992
0.0210518
0.0296047
0.0333465
0.0347188
0.034205
0.0332718
0.032596
0.0321634
0.031789
0.0313759
0.0309213
0.0304503
0.0299789
0.0295101
0.0290426
0.0285752
0.0281088
0.0276447
0.0271838
0.0267271
0.0262752
0.0414957
0.0536076
0.0573384
0.054868
0.0512467
0.0486714
0.047035
0.0457017
0.044345
0.0429474
0.0415821
0.0402912
0.0390765
0.0379254
0.036828
0.0357801
0.0347797
0.0338249
0.0329135
0.0320428
0.116804
0.117272
0.118217
0.11964
0.121539
0.123937
0.126847
0.130299
0.134302
0.138871
0.143987
0.149607
0.155617
0.161796
0.167724
0.172589
0.174849
0.171305
0.155116
0.110366
0.109754
0.110101
0.110736
0.111687
0.112914
0.114447
0.116217
0.118257
0.120442
0.122801
0.125093
0.127313
0.128996
0.130023
0.129462
0.126877
0.120254
0.108104
0.0853078
0.0456166
0.101261
0.101433
0.101738
0.102183
0.102738
0.103396
0.104088
0.104784
0.105365
0.105764
0.105773
0.105251
0.103842
0.10125
0.0968788
0.0901635
0.0802202
0.066284
0.0477772
0.0245612
0.0919274
0.0919432
0.0919617
0.091978
0.0919728
0.0919142
0.0917477
0.0914084
0.0908033
0.0898263
0.0883339
0.0861578
0.0830924
0.0788932
0.0733306
0.0661479
0.0572679
0.0465429
0.0339339
0.01823
0.0823802
0.0822872
0.0821006
0.0818122
0.0814103
0.0808593
0.0801186
0.0791222
0.0778067
0.0760791
0.0738589
0.0710292
0.0675119
0.0631886
0.0580379
0.0519709
0.0450331
0.0370064
0.0276367
0.015836
0.0731269
0.0729727
0.0726653
0.0721981
0.0715651
0.0707387
0.0696916
0.0683756
0.0667525
0.0647636
0.0623733
0.0595228
0.0561967
0.0523453
0.0479827
0.0430392
0.0375003
0.0311372
0.0237098
0.014444
0.0645054
0.0643256
0.0639664
0.0634235
0.0626945
0.0617627
0.0606125
0.0592147
0.0575498
0.0555863
0.0533113
0.0506962
0.0477399
0.0444111
0.0407133
0.036588
0.0320181
0.0268632
0.0209973
0.0139371
0.0566921
0.0565102
0.0561466
0.0555983
0.054865
0.0539378
0.0528097
0.0514645
0.0498936
0.0480798
0.0460185
0.0436921
0.0411005
0.038222
0.0350611
0.0315879
0.0278145
0.0236839
0.0191618
0.0139767
0.0497404
0.0495699
0.0492289
0.048715
0.0480283
0.0471643
0.0461209
0.0448895
0.0434671
0.0418438
0.0400183
0.0379796
0.0357303
0.0332591
0.0305782
0.0276791
0.0245921
0.0213077
0.0178657
0.0142082
0.0436237
0.0434705
0.0431645
0.0427027
0.0420853
0.0413097
0.0403763
0.0392811
0.0380246
0.0366018
0.0350147
0.0332582
0.0313385
0.0292517
0.027014
0.0246261
0.0221251
0.0195286
0.0169281
0.0144156
0.038272
0.038138
0.0378704
0.037466
0.0369246
0.0362446
0.035428
0.0344735
0.0333845
0.0321596
0.0308045
0.0293182
0.0277104
0.0259807
0.0241464
0.0222111
0.0202134
0.0181838
0.0162388
0.0145427
0.0335988
0.0334832
0.0332527
0.032904
0.0324369
0.0318504
0.0311477
0.0303295
0.0294008
0.0283626
0.0272228
0.0259834
0.0246569
0.0232463
0.0217704
0.0202344
0.0186752
0.0171244
0.0157007
0.0145895
0.0295184
0.0294185
0.0292202
0.0289201
0.0285186
0.0280159
0.0274165
0.0267229
0.0259414
0.0250739
0.0241285
0.0231078
0.022025
0.0208862
0.0197144
0.0185204
0.0173421
0.0162086
0.015228
0.0145818
0.0259582
0.0258694
0.0256941
0.0254295
0.0250767
0.0246378
0.0241197
0.0235277
0.022871
0.0221534
0.0213832
0.020561
0.0196961
0.0187913
0.0178696
0.0169491
0.0160809
0.0153071
0.0147338
0.0145178
0.0228683
0.0227842
0.022619
0.0223704
0.0220405
0.0216329
0.0211576
0.0206237
0.0200463
0.0194355
0.0188068
0.0181638
0.0175147
0.0168503
0.0161778
0.0154986
0.0148683
0.0143573
0.0141248
0.0143635
0.0202273
0.0201406
0.0199709
0.0197157
0.0193777
0.0189599
0.0184743
0.0179311
0.017352
0.0167547
0.0161723
0.015626
0.0151498
0.0147428
0.014407
0.0140916
0.0137946
0.0135344
0.013539
0.0141387
0.0180424
0.0179475
0.0177609
0.0174792
0.0171047
0.0166379
0.0160884
0.0154623
0.0147799
0.0140584
0.0133408
0.0126696
0.0121277
0.0117824
0.0117261
0.0119528
0.0124159
0.0129207
0.0134737
0.0144758
0.0163433
0.0162392
0.0160287
0.0157101
0.0152821
0.0147443
0.014097
0.0133411
0.0124802
0.0115212
0.0104818
0.00939783
0.00834345
0.00745238
0.00694792
0.00713438
0.00832197
0.0106036
0.0135857
0.0164278
0.015174
0.0150621
0.014829
0.0144753
0.0139956
0.0133894
0.0126456
0.011761
0.0107164
0.00950536
0.0080974
0.00648754
0.00464665
0.00262624
0.000530381
-0.00122535
-0.00186199
0.000147195
0.00661025
0.0187847
0.0145791
0.0144602
0.0142135
0.013838
0.0133281
0.0126789
0.0118776
0.0109115
0.00975522
0.00838248
0.00674401
0.00478347
0.0024029
-0.000512298
-0.00412483
-0.00853063
-0.0135442
-0.0177771
-0.0162518
0.00672911
0.12353
0.124029
0.125151
0.126805
0.129133
0.132038
0.135757
0.140152
0.145591
0.15188
0.159589
0.16843
0.179319
0.191802
0.207443
0.225462
0.248745
0.27579
0.312203
0.354729
0.123596
0.124096
0.125219
0.126875
0.129205
0.132113
0.135834
0.140234
0.145677
0.151972
0.159686
0.168534
0.179426
0.191913
0.20755
0.22556
0.248807
0.275791
0.312079
0.354359
0.12363
0.12413
0.125254
0.126911
0.129242
0.132151
0.135873
0.140274
0.145718
0.152013
0.159724
0.168568
0.179446
0.191916
0.207507
0.225457
0.248571
0.275353
0.311269
0.352893
0.123633
0.124133
0.125257
0.126914
0.129244
0.132154
0.135875
0.140274
0.145714
0.152004
0.159704
0.168533
0.179381
0.191812
0.207319
0.225155
0.24804
0.274481
0.309779
0.350342
0.123604
0.124105
0.125227
0.126885
0.129213
0.132121
0.135838
0.140233
0.145665
0.151945
0.159626
0.16843
0.179232
0.1916
0.206985
0.224657
0.247218
0.273183
0.307617
0.34672
0.123543
0.124044
0.125166
0.126822
0.129148
0.132052
0.135764
0.140152
0.145572
0.151836
0.159492
0.16826
0.178999
0.191284
0.20651
0.223967
0.246111
0.271468
0.304793
0.342047
0.123451
0.123953
0.125073
0.126727
0.129049
0.131949
0.135653
0.140031
0.145436
0.151678
0.159301
0.168023
0.178685
0.190864
0.205897
0.223089
0.244726
0.269348
0.301322
0.336349
0.123329
0.123831
0.124949
0.1266
0.128917
0.131811
0.135505
0.13987
0.145257
0.151472
0.159056
0.167721
0.178293
0.190344
0.205151
0.222028
0.243072
0.266837
0.297218
0.329657
0.123175
0.123678
0.124793
0.126442
0.128753
0.131639
0.135322
0.139671
0.145035
0.151219
0.158757
0.167356
0.177824
0.189725
0.204276
0.220791
0.241159
0.263951
0.2925
0.322009
0.122992
0.123494
0.124608
0.126253
0.128556
0.131434
0.135103
0.139435
0.144773
0.150921
0.158406
0.166928
0.177281
0.189011
0.203279
0.219383
0.239001
0.260706
0.287188
0.313444
0.122778
0.123282
0.124392
0.126033
0.128329
0.131197
0.13485
0.139162
0.144471
0.150577
0.158006
0.16644
0.176667
0.188205
0.202166
0.217812
0.23661
0.25712
0.281307
0.304011
0.122535
0.12304
0.124147
0.125783
0.12807
0.130927
0.134564
0.138853
0.144131
0.150191
0.157556
0.165895
0.175986
0.187311
0.200944
0.216085
0.234003
0.253211
0.274884
0.293758
0.122264
0.122769
0.123873
0.125505
0.127782
0.130627
0.134245
0.138509
0.143752
0.149763
0.15706
0.165294
0.17524
0.186332
0.199619
0.21421
0.231195
0.248997
0.267949
0.282741
0.121963
0.12247
0.123572
0.125198
0.127465
0.130297
0.133895
0.138132
0.143338
0.149294
0.15652
0.16464
0.174433
0.185274
0.198199
0.212195
0.228208
0.244497
0.260539
0.271008
0.121635
0.122144
0.123243
0.124864
0.12712
0.129937
0.133514
0.137722
0.142888
0.148787
0.155935
0.163935
0.173567
0.18414
0.196689
0.210049
0.22506
0.239727
0.252697
0.258605
0.121279
0.121791
0.122887
0.124502
0.126747
0.129549
0.133102
0.13728
0.142403
0.14824
0.155306
0.163177
0.172638
0.182927
0.195089
0.207772
0.221762
0.234701
0.244482
0.245567
0.120897
0.121413
0.122506
0.124116
0.126348
0.129135
0.132663
0.136808
0.141885
0.147658
0.154637
0.162373
0.171657
0.181646
0.193409
0.205378
0.218336
0.229432
0.235953
0.231928
0.120489
0.12101
0.122102
0.123708
0.12593
0.128703
0.132209
0.136325
0.141361
0.147073
0.15397
0.161574
0.170686
0.180372
0.19174
0.202962
0.214883
0.223979
0.22714
0.217547
0.120054
0.120583
0.121676
0.123281
0.125497
0.12826
0.13175
0.135844
0.140847
0.146509
0.153335
0.160819
0.16977
0.179158
0.190138
0.200588
0.211465
0.218379
0.218046
0.201575
0.119591
0.120121
0.121208
0.122803
0.124996
0.127733
0.131178
0.135223
0.140145
0.145714
0.152393
0.159696
0.168371
0.177393
0.187836
0.197489
0.20724
0.212154
0.208836
0.184506
0.115865
0.116377
0.117424
0.118937
0.121019
0.12359
0.126836
0.130603
0.135208
0.140341
0.146525
0.153157
0.161053
0.169043
0.178204
0.186251
0.193768
0.196159
0.188658
0.159844
0.116513
0.117024
0.118079
0.119605
0.121716
0.124321
0.127624
0.131454
0.136157
0.141403
0.14776
0.154603
0.162809
0.171214
0.180957
0.189882
0.198589
0.203101
0.198639
0.177807
0.117132
0.117635
0.118689
0.120218
0.122342
0.124964
0.128293
0.13216
0.136914
0.142236
0.148692
0.155697
0.164106
0.172873
0.18307
0.192864
0.202708
0.209499
0.208637
0.19463
0.117726
0.118223
0.119278
0.120814
0.122952
0.125595
0.128957
0.132866
0.137678
0.143083
0.149646
0.15682
0.165439
0.174567
0.185218
0.195844
0.206822
0.21571
0.218381
0.210021
0.118295
0.118788
0.119847
0.121391
0.123546
0.126213
0.129608
0.133563
0.138436
0.143928
0.150601
0.157945
0.166778
0.176258
0.187366
0.198784
0.210898
0.221731
0.227874
0.224739
0.118838
0.119329
0.120391
0.121944
0.124116
0.126806
0.130235
0.134234
0.139165
0.14474
0.15152
0.159026
0.168066
0.177884
0.18944
0.201613
0.214857
0.227521
0.237075
0.238896
0.119355
0.119844
0.120911
0.122473
0.12466
0.127372
0.130832
0.134874
0.139861
0.145515
0.152397
0.160058
0.169298
0.179436
0.191431
0.204317
0.218677
0.233066
0.245919
0.252467
0.119845
0.120332
0.121404
0.122975
0.125178
0.127911
0.131401
0.135483
0.140524
0.146254
0.153233
0.161041
0.170473
0.180913
0.193336
0.206892
0.222343
0.238353
0.254345
0.265413
0.120307
0.120794
0.121871
0.12345
0.125668
0.128422
0.13194
0.136061
0.141152
0.146955
0.154026
0.161973
0.171589
0.182314
0.195149
0.209332
0.225835
0.243364
0.262309
0.277683
0.120741
0.121228
0.12231
0.123898
0.12613
0.128903
0.132449
0.136607
0.141745
0.147616
0.154775
0.162852
0.172644
0.183633
0.196864
0.211627
0.229132
0.248083
0.269774
0.289221
0.121146
0.121633
0.12272
0.124317
0.126563
0.129355
0.132926
0.137118
0.142301
0.148235
0.155477
0.163675
0.173633
0.184865
0.198472
0.21377
0.232218
0.25249
0.276709
0.299972
0.121522
0.12201
0.123102
0.124707
0.126966
0.129775
0.133369
0.137594
0.142819
0.148812
0.156131
0.164439
0.174554
0.186008
0.199967
0.215754
0.235077
0.256567
0.283086
0.309882
0.121868
0.122358
0.123454
0.125067
0.127338
0.130163
0.133779
0.138034
0.143298
0.149344
0.156734
0.165144
0.175403
0.187058
0.201343
0.217572
0.237693
0.260296
0.288881
0.318899
0.122185
0.122675
0.123776
0.125397
0.127678
0.130518