/*--------------------------------*- C++ -*----------------------------------*\
  =========                 |
  \\      /  F ield         | OpenFOAM: The Open Source CFD Toolbox
   \\    /   O peration     | Website:  https://openfoam.org
    \\  /    A nd           | Version:  6.0
     \\/     M anipulation  |
\*---------------------------------------------------------------------------*/
FoamFile
{
    version     2.0;
    format      ascii;
    class       surfaceScalarField;
    location    "87";
    object      phi;
}
// * * * * * * * * * * * * * * * * * * * * * * * * * * * * * * * * * * * * * //

dimensions      [0 3 -1 0 0 0 0];

internalField   nonuniform List<scalar> 
7840
(
3.71371e-05
-0.00033184
0.000127642
-0.000991887
0.0002501
-0.00161611
0.000383276
-0.00216112
0.000509852
-0.0025984
0.00061886
-0.00292096
0.000705705
-0.00313926
0.000770579
-0.00327323
0.000816461
-0.00334498
0.000847401
-0.00337435
0.000867396
-0.00337697
0.000879803
-0.00336397
0.000887171
-0.00334275
0.000891299
-0.00331793
0.000893395
-0.00329223
0.00089425
-0.00326724
0.000894377
-0.00324381
0.000894111
-0.00322245
0.000893655
-0.00320337
-0.00318675
0.00089312
3.79638e-05
-0.000369804
0.000127821
-0.00108174
0.00024587
-0.00173416
0.000370145
-0.00228539
0.000484133
-0.00271239
0.000578507
-0.00301533
0.000650363
-0.00321112
0.000701164
-0.00332403
0.000734585
-0.0033784
0.00075488
-0.00339465
0.00076591
-0.003388
0.000770734
-0.00336879
0.00077156
-0.00334358
0.000769877
-0.00331625
0.000766651
-0.00328901
0.000762496
-0.00326308
0.000757806
-0.00323912
0.000752836
-0.00321748
0.00074774
-0.00319827
-0.0031816
0.000742598
3.83599e-05
-0.000408164
0.000126457
-0.00116984
0.000238686
-0.00184639
0.000352849
-0.00239956
0.000453599
-0.00281314
0.000533349
-0.00309508
0.00059077
-0.00326854
0.000628376
-0.00336163
0.000650319
-0.00340034
0.000660885
-0.00340522
0.00066371
-0.00339082
0.00066152
-0.0033666
0.000656192
-0.00333825
0.000648941
-0.003309
0.000640524
-0.00328059
0.000631415
-0.00325397
0.000621916
-0.00322962
0.000612226
-0.00320779
0.000602462
-0.00318851
-0.00317183
0.000592684
3.83065e-05
-0.000446471
0.000123569
-0.0012551
0.000228724
-0.00195154
0.00033182
-0.00250265
0.000418959
-0.00290028
0.000484309
-0.00316043
0.000527957
-0.00331219
0.000553245
-0.00338692
0.000564607
-0.0034117
0.000566233
-0.00340684
0.000561469
-0.00338606
0.000552705
-0.00335784
0.000541509
-0.00332706
0.000528856
-0.00329634
0.000515332
-0.00326707
0.000501298
-0.00323994
0.000486986
-0.00321531
0.00047255
-0.00319335
0.000458083
-0.00317404
-0.00315738
0.000443634
3.7795e-05
-0.000484266
0.000119206
-0.00133652
0.000216201
-0.00204853
0.000307517
-0.00259397
0.000380901
-0.00297367
0.000432224
-0.00321175
0.000462805
-0.00334277
0.000476604
-0.00340072
0.000478171
-0.00341327
0.000471506
-0.00340018
0.000459635
-0.00337419
0.000444619
-0.00334282
0.000427751
-0.00331019
0.000409801
-0.00327839
0.000391214
-0.00324848
0.00037226
-0.00322098
0.000353118
-0.00319617
0.000333911
-0.00317414
0.000314715
-0.00315485
-0.00313823
0.000295572
3.68265e-05
-0.000521092
0.000113447
-0.00141314
0.000201374
-0.00213646
0.000280418
-0.00267301
0.000340088
-0.00303334
0.000377862
-0.00324953
0.00039609
-0.003361
0.000399163
-0.00340379
0.000391615
-0.00340572
0.000377191
-0.00338575
0.000358588
-0.00335558
0.000337558
-0.00332179
0.000315154
-0.00328778
0.000291973
-0.00325521
0.000268346
-0.00322485
0.000244471
-0.00319711
0.000220483
-0.00317218
0.000196482
-0.00315014
0.000172537
-0.0031309
-0.00311438
0.000148683
3.54118e-05
-0.000556504
0.000106396
-0.00148412
0.00018452
-0.00221458
0.000250994
-0.00273949
0.000297135
-0.00307948
0.000321895
-0.00327429
0.000328464
-0.00336757
0.000321497
-0.00339682
0.00030541
-0.00338963
0.000283655
-0.003364
0.000258601
-0.00333053
0.000231726
-0.00329492
0.000203876
-0.00325993
0.000175503
-0.00322684
0.000146846
-0.0031962
0.000118043
-0.0031683
8.91942e-05
-0.00314333
6.03821e-05
-0.00312133
3.16713e-05
-0.00310219
-0.00308581
3.10041e-06
3.35696e-05
-0.000590073
9.81726e-05
-0.00154872
0.000165927
-0.00228234
0.000219695
-0.00279325
0.000252602
-0.00311238
0.000264913
-0.0032866
0.000260481
-0.00336313
0.00024408
-0.00338042
0.000219936
-0.00336549
0.000191187
-0.00333525
0.000159895
-0.00329924
0.000127292
-0.00326232
9.40506e-05
-0.00322669
6.05074e-05
-0.00319329
2.68232e-05
-0.00316251
-6.9145e-06
-0.00313457
-4.06358e-05
-0.00310961
-7.42713e-05
-0.0030877
-0.000107755
-0.00306871
-0.00305252
-0.000141043
3.13257e-05
-0.000621399
8.89092e-05
-0.00160631
0.000145881
-0.00233931
0.000186948
-0.00283432
0.000206989
-0.00313242
0.000207426
-0.00328703
0.0001926
-0.00334831
0.000167297
-0.00335512
0.000135495
-0.00333369
0.000100014
-0.00329977
6.26373e-05
-0.00326186
2.43833e-05
-0.00322406
-1.42183e-05
-0.00318809
-5.29244e-05
-0.00315459
-9.16381e-05
-0.0031238
-0.000130316
-0.00309589
-0.000168918
-0.00307101
-0.000207384
-0.00304923
-0.000245643
-0.00303045
-0.00301452
-0.00028364
2.87119e-05
-0.000650111
7.87452e-05
-0.00165634
0.000124662
-0.00238523
0.000153144
-0.0028628
0.000160744
-0.00314002
0.00014987
-0.00327616
0.000125209
-0.00332365
9.14624e-05
-0.00332137
5.23299e-05
-0.00329455
1.03231e-05
-0.00325776
-3.30318e-05
-0.00321851
-7.68932e-05
-0.0031802
-0.000120846
-0.00314414
-0.000164719
-0.00311071
-0.00020847
-0.00308005
-0.000252095
-0.00305226
-0.000295583
-0.00302752
-0.000338884
-0.00300593
-0.000381916
-0.00298741
-0.00297183
-0.000424607
2.57643e-05
-0.000675875
6.7823e-05
-0.0016984
0.000102537
-0.00241994
0.000118643
-0.00287891
0.000114258
-0.00313564
9.26209e-05
-0.00325452
5.86331e-05
-0.00328966
1.68409e-05
-0.00327958
-2.93527e-05
-0.00324836
-7.77307e-05
-0.00320938
-0.000126993
-0.00316924
-0.000176445
-0.00313075
-0.00022576
-0.00309482
-0.00027482
-0.00306165
-0.000323624
-0.00303124
-0.000372208
-0.00300368
-0.000420591
-0.00297914
-0.000468737
-0.00295778
-0.000516546
-0.0029396
-0.00292445
-0.000563923
2.25229e-05
-0.000698398
5.62848e-05
-0.00173216
7.97597e-05
-0.00244342
8.37715e-05
-0.00288292
6.78799e-05
-0.00311975
3.60042e-05
-0.00322265
-6.84922e-06
-0.00324681
-5.63411e-05
-0.00323009
-0.000109373
-0.00319533
-0.000164004
-0.00315475
-0.000219132
-0.00311412
-0.000274184
-0.0030757
-0.000328893
-0.00304011
-0.000383179
-0.00300737
-0.000437069
-0.00297735
-0.000490637
-0.00295011
-0.000543939
-0.00292584
-0.000596956
-0.00290477
-0.000649574
-0.00288699
-0.00287237
-0.000701656
1.903e-05
-0.000717428
4.42709e-05
-0.0017574
5.65672e-05
-0.00245571
4.88249e-05
-0.00287518
2.19162e-05
-0.00309284
-1.96966e-05
-0.00318103
-7.09937e-05
-0.00319551
-0.00012788
-0.0031732
-0.000187562
-0.00313565
-0.000248354
-0.00309396
-0.000309329
-0.00305314
-0.000370008
-0.00301502
-0.000430169
-0.00297995
-0.000489745
-0.00294779
-0.00054878
-0.00291832
-0.00060738
-0.00289151
-0.000665647
-0.00286757
-0.000723594
-0.00284682
-0.000781092
-0.00282949
-0.00281552
-0.000837945
1.53298e-05
-0.000732758
3.19173e-05
-0.00177399
3.31808e-05
-0.00245698
1.40708e-05
-0.00285607
-2.33597e-05
-0.00305541
-7.42295e-05
-0.00313016
-0.000133579
-0.00313616
-0.000197585
-0.0031092
-0.000263749
-0.00306948
-0.000330625
-0.00302708
-0.00039744
-0.00298633
-0.000463793
-0.00294866
-0.000529488
-0.00291426
-0.000594452
-0.00288283
-0.000658726
-0.00285405
-0.000722438
-0.0028278
-0.000785741
-0.00280427
-0.0008487
-0.00278386
-0.000911182
-0.00276701
-0.00275381
-0.00097289
1.14674e-05
-0.000744226
1.9355e-05
-0.00178188
9.80511e-06
-0.00244743
-2.02487e-05
-0.00282602
-6.77027e-05
-0.00300795
-0.000127366
-0.0030705
-0.0001944
-0.00306913
-0.000265264
-0.00303833
-0.000337751
-0.002997
-0.000410636
-0.0029542
-0.000483284
-0.00291368
-0.000555369
-0.00287658
-0.000626705
-0.00284292
-0.0006972
-0.00281233
-0.000766863
-0.00278438
-0.000835815
-0.00275885
-0.000904258
-0.00273583
-0.000972326
-0.00271579
-0.0010399
-0.00269944
-0.00268718
-0.00110652
7.48813e-06
-0.000751714
6.70851e-06
-0.0017811
-1.33711e-05
-0.00242735
-5.39144e-05
-0.00278547
-0.000110892
-0.00295098
-0.000178897
-0.0030025
-0.000253257
-0.00299477
-0.000330723
-0.00296087
-0.000409366
-0.00291835
-0.000488166
-0.0028754
-0.000566626
-0.00283522
-0.00064449
-0.00279872
-0.000721591
-0.00276582
-0.000797808
-0.00273611
-0.000873091
-0.0027091
-0.000947513
-0.00268442
-0.00102129
-0.00266205
-0.00109464
-0.00264244
-0.00116748
-0.0026266
-0.00261542
-0.00123923
3.43678e-06
-0.000755151
-5.90487e-06
-0.00177176
-3.61757e-05
-0.00239708
-8.67296e-05
-0.00273492
-0.000152728
-0.00288498
-0.000228629
-0.0029266
-0.000309958
-0.00291344
-0.000393759
-0.00287706
-0.000478365
-0.00283375
-0.000562953
-0.00279081
-0.000647161
-0.00275101
-0.000730815
-0.00271506
-0.00081379
-0.00268285
-0.000895951
-0.00265395
-0.000977179
-0.00262787
-0.00105746
-0.00260414
-0.00113699
-0.00258252
-0.00121608
-0.00256335
-0.00129472
-0.00254796
-0.00253756
-0.00137259
-6.43215e-07
-0.000754507
-1.83767e-05
-0.00175402
-5.84537e-05
-0.002357
-0.00011852
-0.00267485
-0.000193034
-0.00281046
-0.000276385
-0.00284324
-0.000364317
-0.00282551
-0.000454163
-0.00278722
-0.0005445
-0.00274341
-0.000634695
-0.00270062
-0.000724519
-0.00266119
-0.000813907
-0.00262567
-0.000902812
-0.00259394
-0.000991133
-0.00256563
-0.00107872
-0.00254029
-0.00116546
-0.0025174
-0.0012515
-0.00249649
-0.00133726
-0.00247759
-0.00142297
-0.00246224
-0.00245116
-0.00150938
-4.71091e-06
-0.000749796
-3.06089e-05
-0.00172812
-8.00691e-05
-0.00230754
-0.000149134
-0.00260579
-0.000231655
-0.00272794
-0.000322005
-0.00275289
-0.000416159
-0.00273135
-0.000511721
-0.00269166
-0.000607499
-0.00264763
-0.000703031
-0.00260508
-0.00079823
-0.00256599
-0.000893167
-0.00253074
-0.000987935
-0.00249917
-0.00108257
-0.002471
-0.00117701
-0.00244585
-0.00127112
-0.00242328
-0.00136493
-0.00240268
-0.00145884
-0.00238368
-0.00155346
-0.00236762
-0.00235299
-0.00165162
-8.72879e-06
-0.000741068
-4.25156e-05
-0.00169434
-0.000100907
-0.00224915
-0.000178448
-0.00252825
-0.000268469
-0.00263792
-0.000365363
-0.002656
-0.000465334
-0.00263138
-0.00056624
-0.00259075
-0.000667088
-0.00254679
-0.00076756
-0.00250461
-0.000867694
-0.00246585
-0.000967697
-0.00243073
-0.00106786
-0.00239901
-0.00116849
-0.00237037
-0.00126986
-0.00234448
-0.00137217
-0.00232098
-0.0014755
-0.00229934
-0.00158046
-0.00227872
-0.00168949
-0.0022586
-0.00225113
-0.00179135
-1.26512e-05
-0.000728416
-5.40043e-05
-0.00165298
-0.000120851
-0.0021823
-0.000206345
-0.00244275
-0.000303365
-0.0025409
-0.000406352
-0.00255302
-0.000511731
-0.002526
-0.000617583
-0.0024849
-0.000723074
-0.00244129
-0.000827983
-0.0023997
-0.000932401
-0.00236144
-0.00103658
-0.00232655
-0.00114089
-0.0022947
-0.00124583
-0.00226543
-0.00135206
-0.00223825
-0.00146042
-0.00221262
-0.00157177
-0.00218799
-0.00168645
-0.00216404
-0.0018054
-0.00213965
-0.0021075
-0.00194903
-1.64718e-05
-0.000711945
-6.50543e-05
-0.0016044
-0.000139879
-0.00210748
-0.000232808
-0.00234982
-0.000336339
-0.00243737
-0.000444979
-0.00244438
-0.000555366
-0.00241561
-0.000665774
-0.00237449
-0.000775499
-0.00233157
-0.000884377
-0.00229083
-0.000992487
-0.00225333
-0.00110001
-0.00221903
-0.00120717
-0.00218755
-0.0013142
-0.0021584
-0.00142137
-0.00213107
-0.00152891
-0.00210508
-0.00163688
-0.00208002
-0.0017455
-0.00205541
-0.00185546
-0.00202969
-0.00199922
-0.00196374
-2.01553e-05
-0.000691789
-7.56011e-05
-0.00154896
-0.000157917
-0.00202516
-0.000257777
-0.00224996
-0.00036735
-0.0023278
-0.000481225
-0.0023305
-0.000596241
-0.0023006
-0.000710849
-0.00225988
-0.000824455
-0.00221796
-0.000936945
-0.00217833
-0.00104841
-0.00214186
-0.00115902
-0.00210843
-0.00126892
-0.00207764
-0.00137828
-0.00204904
-0.00148719
-0.00202216
-0.00159568
-0.00199659
-0.00170373
-0.00197197
-0.00181131
-0.00194784
-0.00191767
-0.00192333
-0.00189761
-0.00201928
-2.36832e-05
-0.000668106
-8.56121e-05
-0.00148703
-0.000174937
-0.00193584
-0.000281238
-0.00214366
-0.000396407
-0.00221263
-0.000515124
-0.00221178
-0.000634417
-0.0021813
-0.000752893
-0.00214141
-0.000870047
-0.00210081
-0.000985801
-0.00206258
-0.00110024
-0.00202742
-0.00121349
-0.00199518
-0.00132567
-0.00196546
-0.00143685
-0.00193786
-0.00154704
-0.00191197
-0.00165618
-0.00188745
-0.00176413
-0.00186402
-0.00187062
-0.00184135
-0.00197496
-0.00181899
-0.00179652
-0.00207606
-2.70411e-05
-0.000641065
-9.50646e-05
-0.001419
-0.000190923
-0.00183998
-0.000303196
-0.00203139
-0.000423539
-0.00209229
-0.000546734
-0.00208859
-0.000669987
-0.00205805
-0.000792045
-0.00201935
-0.000912488
-0.00198037
-0.00103127
-0.0019438
-0.00114847
-0.00191021
-0.00126421
-0.00187944
-0.00137858
-0.0018511
-0.0014916
-0.00182483
-0.00160329
-0.00180029
-0.00171355
-0.00177718
-0.00182227
-0.0017553
-0.0019292
-0.00173443
-0.00203391
-0.00171427
-0.0016946
-0.00213583
-3.02178e-05
-0.000610847
-0.000103944
-0.00134528
-0.000205871
-0.00173805
-0.000323665
-0.00191359
-0.000448786
-0.00196717
-0.00057612
-0.00196125
-0.00070304
-0.00193113
-0.000828423
-0.00189397
-0.000951924
-0.00185687
-0.00107353
-0.0018222
-0.00119334
-0.00179041
-0.00131145
-0.00176132
-0.00142796
-0.0017346
-0.00154289
-0.0017099
-0.00165625
-0.00168693
-0.00176798
-0.00166545
-0.00187798
-0.00164529
-0.00198612
-0.00162629
-0.00209219
-0.00160821
-0.00159089
-0.0021959
-3.32051e-05
-0.000577642
-0.000112242
-0.00126624
-0.000219784
-0.00163051
-0.00034267
-0.00179071
-0.000472193
-0.00183764
-0.000603349
-0.0018301
-0.000733667
-0.00180081
-0.000862144
-0.00176549
-0.000988505
-0.00173051
-0.00111277
-0.00169793
-0.00123505
-0.00166813
-0.00135546
-0.00164091
-0.00147409
-0.00161596
-0.001591
-0.00159299
-0.0017062
-0.00157173
-0.00181968
-0.00155198
-0.00193139
-0.00153358
-0.00204127
-0.00151641
-0.00214925
-0.00150023
-0.00148497
-0.00225517
-3.59969e-05
-0.000541645
-0.000119955
-0.00118228
-0.000232671
-0.00151779
-0.000360234
-0.00166314
-0.000493804
-0.00170407
-0.000628483
-0.00169542
-0.000761947
-0.00166735
-0.000893305
-0.00163413
-0.00102234
-0.00160147
-0.00114912
-0.00157115
-0.00127377
-0.00154348
-0.00139641
-0.00151827
-0.00151715
-0.00149522
-0.00163607
-0.00147407
-0.00175321
-0.00145459
-0.0018686
-0.00143659
-0.00198224
-0.00141995
-0.00209413
-0.00140452
-0.00220426
-0.0013901
-0.00137666
-0.00231257
-3.85884e-05
-0.000503057
-0.000127079
-0.00109379
-0.000244539
-0.00140033
-0.000376383
-0.0015313
-0.000513658
-0.0015668
-0.000651575
-0.0015575
-0.000787946
-0.00153098
-0.00092198
-0.0015001
-0.00105352
-0.00146992
-0.00118267
-0.00144201
-0.00130956
-0.00141659
-0.00143436
-0.00139347
-0.00155717
-0.00137241
-0.00167811
-0.00135314
-0.00179723
-0.00133546
-0.00191461
-0.00131922
-0.00203027
-0.00130428
-0.00214427
-0.00129052
-0.00225664
-0.00127773
-0.00126594
-0.00236735
-4.09759e-05
-0.000462081
-0.000133614
-0.00100115
-0.000255398
-0.00127855
-0.000391137
-0.00139556
-0.00053179
-0.00142614
-0.00067267
-0.00141662
-0.000811713
-0.00139194
-0.000948222
-0.00136359
-0.0010821
-0.00133604
-0.00121346
-0.00131064
-0.00134249
-0.00128756
-0.00146934
-0.00126662
-0.00159416
-0.00124759
-0.00171707
-0.00123023
-0.00183816
-0.00121437
-0.00195751
-0.00119986
-0.00207521
-0.00118659
-0.00219131
-0.00117441
-0.00230588
-0.00116316
-0.00115288
-0.00241894
-4.31561e-05
-0.000418925
-0.00013956
-0.00090475
-0.000265256
-0.00115285
-0.000404516
-0.0012563
-0.000548227
-0.00128243
-0.000691799
-0.00127305
-0.000833284
-0.00125045
-0.000972067
-0.00122481
-0.0011081
-0.00120001
-0.00124153
-0.00117721
-0.00137255
-0.00115654
-0.00150134
-0.00113783
-0.00162807
-0.00112086
-0.00175287
-0.00110543
-0.00187585
-0.00109139
-0.00199713
-0.00107859
-0.00211679
-0.00106692
-0.00223492
-0.00105627
-0.00235161
-0.00104648
-0.0010376
-0.00246689
-4.51261e-05
-0.000373799
-0.000144914
-0.000804962
-0.000274118
-0.00102365
-0.000416532
-0.00111389
-0.000562988
-0.00113598
-0.000708986
-0.00112705
-0.000852682
-0.00110675
-0.000993534
-0.00108395
-0.00113154
-0.00106201
-0.00126687
-0.00104188
-0.00139973
-0.00102367
-0.00153033
-0.00100723
-0.00165884
-0.000992348
-0.00178542
-0.000978861
-0.00191019
-0.000966618
-0.00203327
-0.000955501
-0.00215479
-0.000945412
-0.00227483
-0.000936233
-0.00239349
-0.000927823
-0.00092026
-0.00251082
-4.68831e-05
-0.000326916
-0.000149677
-0.000702168
-0.000281987
-0.000891339
-0.000427196
-0.00096868
-0.000576088
-0.000987084
-0.000724247
-0.000978894
-0.000869921
-0.000961079
-0.00101263
-0.000941243
-0.00115241
-0.000922228
-0.00128946
-0.000904834
-0.00142401
-0.000889129
-0.00155626
-0.000874974
-0.00168641
-0.0008622
-0.00181462
-0.000850653
-0.00194103
-0.000840202
-0.00206579
-0.000830746
-0.00218901
-0.000822194
-0.0023108
-0.000814441
-0.00243126
-0.000807365
-0.000801052
-0.00255046
-4.84245e-05
-0.000278491
-0.000153846
-0.000596747
-0.000288867
-0.000756317
-0.000436514
-0.000821034
-0.000587536
-0.000836062
-0.000737591
-0.000828839
-0.000885007
-0.000813662
-0.00102936
-0.000796889
-0.00117072
-0.000780869
-0.0013093
-0.000766252
-0.00144535
-0.000753083
-0.00157908
-0.000741242
-0.0017107
-0.000730583
-0.00184038
-0.000720974
-0.00196828
-0.000712305
-0.00209453
-0.000704487
-0.00221928
-0.000697444
-0.00234264
-0.000691083
-0.00246471
-0.000685299
-0.000680181
-0.00258558
-4.97477e-05
-0.000228744
-0.000157418
-0.000489077
-0.000294758
-0.000618977
-0.000444489
-0.000671302
-0.000597337
-0.000683214
-0.000749022
-0.000677154
-0.00089794
-0.000664744
-0.00104372
-0.000651112
-0.00118645
-0.00063814
-0.00132636
-0.000626336
-0.00146372
-0.000615729
-0.00159874
-0.000606217
-0.00173164
-0.000597679
-0.00186261
-0.000590007
-0.00199181
-0.000583109
-0.00211938
-0.000576914
-0.00224547
-0.000571355
-0.0023702
-0.000566356
-0.00249366
-0.000561832
-0.000557866
-0.00261598
-5.08503e-05
-0.000177893
-0.000160391
-0.000379536
-0.000299658
-0.00047971
-0.000451125
-0.000519836
-0.000605494
-0.000528845
-0.00075854
-0.000524108
-0.000908718
-0.000514566
-0.00105569
-0.000504141
-0.00119957
-0.000494258
-0.00134061
-0.000485295
-0.00147907
-0.000477269
-0.00161519
-0.000470097
-0.00174919
-0.000463685
-0.00188125
-0.000457947
-0.00201154
-0.000452813
-0.00214023
-0.000448225
-0.00226745
-0.000444133
-0.00239334
-0.000440474
-0.00251798
-0.000437184
-0.000434335
-0.00264152
-5.17302e-05
-0.000126163
-0.000162763
-0.000268502
-0.000303568
-0.000338906
-0.000456419
-0.000366985
-0.000612006
-0.000373259
-0.000766145
-0.000369968
-0.000917336
-0.000363375
-0.00106527
-0.000356206
-0.00121008
-0.000349444
-0.00135203
-0.000343345
-0.00149139
-0.000337914
-0.0016284
-0.000333091
-0.00176327
-0.000328807
-0.00189622
-0.000325002
-0.00202741
-0.000321624
-0.002157
-0.000318633
-0.00228514
-0.000315993
-0.00241196
-0.000313657
-0.00253756
-0.000311582
-0.000309823
-0.00266207
-5.23855e-05
-7.37776e-05
-0.000164531
-0.000156356
-0.000306484
-0.000196953
-0.000460373
-0.000213096
-0.000616873
-0.000216759
-0.000771834
-0.000215007
-0.000923788
-0.000211421
-0.00107245
-0.000207545
-0.00121797
-0.000203927
-0.00136061
-0.000200707
-0.00150064
-0.000197881
-0.00163832
-0.000195413
-0.00177386
-0.00019326
-0.00190748
-0.000191386
-0.00203934
-0.00018976
-0.00216962
-0.000188359
-0.00229845
-0.000187159
-0.00242597
-0.000186135
-0.0025523
-0.00018526
-0.000184573
-0.00267755
-5.28148e-05
-2.09628e-05
-0.000165694
-4.34777e-05
-0.000308406
-5.42408e-05
-0.000462984
-5.8518e-05
-0.000620094
-5.96489e-05
-0.000775605
-5.94955e-05
-0.000928071
-5.89547e-05
-0.00107722
-5.83947e-05
-0.00122321
-5.79371e-05
-0.00136631
-5.76058e-05
-0.0015068
-5.73929e-05
-0.00164493
-5.72835e-05
-0.00178093
-5.72631e-05
-0.00191499
-5.73194e-05
-0.00204731
-5.74429e-05
-0.00217804
-5.76261e-05
-0.00230734
-5.78621e-05
-0.00243533
-5.8142e-05
-0.00256214
-5.84578e-05
-5.88302e-05
-0.00268788
-5.3017e-05
3.20542e-05
-0.000166248
6.97536e-05
-0.000309332
8.88432e-05
-0.000464252
9.64016e-05
-0.000621667
9.7766e-05
-0.000777455
9.62932e-05
-0.00093018
9.37701e-05
-0.00107958
9.10022e-05
-0.00122581
8.82922e-05
-0.00136914
8.57291e-05
-0.00150986
8.33258e-05
-0.00164822
8.10737e-05
-0.00178444
7.89603e-05
-0.00191873
7.6973e-05
-0.00205128
7.5101e-05
-0.00218224
7.33348e-05
-0.00231177
7.16659e-05
-0.00243999
7.00849e-05
-0.00256703
6.85816e-05
6.71559e-05
-0.00269302
-5.29921e-05
8.50463e-05
-0.000166196
0.000182957
-0.000309263
0.000231911
-0.000464177
0.000251316
-0.000621593
0.000255182
-0.000777386
0.000252086
-0.000930116
0.0002465
-0.00107952
0.000240404
-0.00122575
0.000234526
-0.00136909
0.000229068
-0.00150981
0.000224048
-0.00164817
0.000219433
-0.0017844
0.000215185
-0.00191869
0.000211266
-0.00205123
0.000207644
-0.00218219
0.000204293
-0.00231171
0.000201189
-0.00243994
0.000198306
-0.00256697
0.000195613
0.000193131
-0.00269294
-5.27395e-05
0.000137786
-0.000165535
0.000295753
-0.000308198
0.000374574
-0.000462759
0.000405877
-0.000619871
0.000412294
-0.000775395
0.00040761
-0.000927877
0.000398981
-0.00107704
0.00038957
-0.00122305
0.000380531
-0.00136616
0.000372182
-0.00150666
0.000364547
-0.0016448
0.000357571
-0.0017808
0.000351186
-0.00191486
0.000345333
-0.00204718
0.000339958
-0.0021779
0.000335018
-0.00230719
0.000330474
-0.00243516
0.000326281
-0.00256194
0.00032239
0.000318842
-0.00268765
-5.22598e-05
0.000190046
-0.000164266
0.000407759
-0.000306136
0.000516444
-0.000459997
0.000559737
-0.000616502
0.0005688
-0.000771484
0.000562592
-0.000923465
0.000550962
-0.00107215
0.000538258
-0.00121769
0.000526073
-0.00136035
0.000514842
-0.00150041
0.000504597
-0.0016381
0.000495262
-0.00177365
0.000486742
-0.00190727
0.000478951
-0.00203913
0.000471818
-0.00216939
0.000465281
-0.00229821
0.000459287
-0.0024257
0.000453773
-0.00255198
0.000448673
0.000444041
-0.00267718
-5.15539e-05
0.0002416
-0.000162391
0.000518597
-0.00030308
0.000657132
-0.000455892
0.000712549
-0.000611486
0.000724394
-0.000765655
0.000716761
-0.000916884
0.00070219
-0.00106486
0.000686231
-0.00120971
0.000670922
-0.00135169
0.000656823
-0.00149107
0.000643979
-0.0016281
0.000632289
-0.00176299
0.000621633
-0.00189594
0.000611902
-0.00202712
0.000603002
-0.0021567
0.000594858
-0.00228481
0.000587401
-0.00241159
0.000580551
-0.00253714
0.000574223
0.000568483
-0.00266158
-5.0623e-05
0.000292223
-0.000159912
0.000627885
-0.000299029
0.000796249
-0.000450445
0.000863965
-0.000604824
0.000878773
-0.000757911
0.000869848
-0.000908139
0.000852418
-0.00105516
0.000833253
-0.00119909
0.000814852
-0.00134017
0.000797907
-0.00147867
0.000782475
-0.00161482
0.000768437
-0.00174883
0.000755647
-0.0018809
0.000743971
-0.0020112
0.000733297
-0.00213987
0.000723532
-0.00226707
0.000714595
-0.0023929
0.000706389
-0.00251749
0.000698809
0.00069193
-0.00264094
-4.9469e-05
0.000341692
-0.000156829
0.000735246
-0.000293985
0.000933406
-0.000443655
0.00101363
-0.000596517
0.00103164
-0.000748252
0.00102158
-0.000897234
0.0010014
-0.00104308
0.000979094
-0.00118587
0.000957642
-0.00132584
0.000937878
-0.00146324
0.000919878
-0.0015983
0.000903502
-0.00173124
0.00088858
-0.00186222
0.000874956
-0.00199142
0.000862496
-0.00211898
0.000851093
-0.00224504
0.000840654
-0.00236972
0.000831067
-0.00249312
0.000822207
0.000814151
-0.00261534
-4.80937e-05
0.000389785
-0.000153146
0.000840298
-0.000287949
0.00106821
-0.000435523
0.00116121
-0.000586564
0.00118268
-0.000736681
0.0011717
-0.000884175
0.00114889
-0.00102861
0.00112353
-0.00117005
0.00109908
-0.0013087
0.00107653
-0.00144481
0.00105599
-0.00157859
0.00103729
-0.00171025
0.00102024
-0.00183995
0.00100466
-0.00196786
0.000990404
-0.00209411
0.000977345
-0.00221884
0.000965377
-0.00234215
0.000954378
-0.00246414
0.000944201
0.000934922
-0.00258491
-4.64993e-05
0.000436285
-0.000148864
0.000942663
-0.00028092
0.00120027
-0.000426045
0.00130633
-0.000574961
0.00133159
-0.000723194
0.00131993
-0.000868962
0.00129466
-0.00101177
0.00126634
-0.00115165
0.00123895
-0.00128878
0.00121367
-0.00142341
0.00119061
-0.00155573
0.00116961
-0.00168593
0.00115044
-0.00181418
0.00113291
-0.00194062
0.00111684
-0.00206537
0.0011021
-0.00218857
0.00108857
-0.00231032
0.00107612
-0.00243071
0.00106459
0.00105403
-0.00254981
-4.46881e-05
0.000480973
-0.000143985
0.00104196
-0.000272897
0.00132918
-0.000415216
0.00144865
-0.000561701
0.00147808
-0.000707788
0.00146602
-0.000851595
0.00143847
-0.000992563
0.0014073
-0.00113068
0.00137707
-0.00126612
0.00134911
-0.00139908
0.00132357
-0.00152977
0.00130029
-0.00165835
0.00127902
-0.00178498
0.00125954
-0.00190979
0.00124165
-0.00203289
0.0012252
-0.00215439
0.00121008
-0.0022744
0.00119613
-0.00239299
0.00118318
0.00117127
-0.00251023
-4.26622e-05
0.000523635
-0.000138509
0.00113781
-0.000263876
0.00145454
-0.000403029
0.00158781
-0.000546775
0.00162182
-0.00069045
0.0016097
-0.000832066
0.00158009
-0.000970986
0.00154622
-0.00110715
0.00151324
-0.00124071
0.00148266
-0.00137185
0.00145471
-0.00150076
0.0014292
-0.00162758
0.00140584
-0.00175245
0.00138441
-0.00187549
0.00136469
-0.00199679
0.00134651
-0.00211646
0.00132974
-0.00223457
0.00131424
-0.0023512
0.00129981
0.00128645
-0.00246639
-4.04241e-05
0.000564059
-0.000132438
0.00122982
-0.000253851
0.00157596
-0.000389471
0.00172342
-0.000530165
0.00176252
-0.000671164
0.00175069
-0.000810359
0.00171928
-0.000947028
0.00168289
-0.00108106
0.00164727
-0.00121258
0.00161418
-0.00134175
0.00158389
-0.00146874
0.00155618
-0.00159368
0.00153078
-0.00171668
0.00150742
-0.00183785
0.00148586
-0.00195726
0.00146592
-0.00207498
0.00144746
-0.00219107
0.00143034
-0.0023056
0.00141434
0.00139943
-0.00241858
-3.79762e-05
0.000602035
-0.00012577
0.00131761
-0.000242815
0.001693
-0.000374525
0.00185513
-0.000511848
0.00189984
-0.000649903
0.00188875
-0.000786448
0.00185583
-0.000920668
0.00181711
-0.0010524
0.001779
-0.00118173
0.00174351
-0.0013088
0.00171096
-0.00143375
0.00168114
-0.00155671
0.00165374
-0.00167778
0.00162848
-0.00179701
0.00160509
-0.00191446
0.00158337
-0.00203017
0.00156317
-0.00214418
0.00154435
-0.00225652
0.00152668
0.00151008
-0.00236717
-3.5321e-05
0.000637356
-0.000118505
0.0014008
-0.000230757
0.00180525
-0.000358171
0.00198255
-0.000491795
0.00203346
-0.00062663
0.00202359
-0.000760294
0.00198949
-0.000891866
0.00194868
-0.00102112
0.00190826
-0.00114811
0.0018705
-0.00127296
0.00183581
-0.0013958
0.00180398
-0.00151673
0.00177467
-0.00163581
0.00174756
-0.00175309
0.00172237
-0.00186858
0.00169886
-0.00198229
0.00167689
-0.00209422
0.00165628
-0.00220435
0.0016368
0.00161833
-0.0023126
-3.24619e-05
0.000669818
-0.000110641
0.00147898
-0.000217666
0.00191228
-0.000340383
0.00210527
-0.000469966
0.00216305
-0.000601299
0.00215492
-0.000731843
0.00212003
-0.000860564
0.00207741
-0.000987174
0.00203487
-0.00111169
0.00199501
-0.00123421
0.00195833
-0.00135486
0.00192462
-0.00147371
0.00189352
-0.00159082
0.00186467
-0.00170619
0.00183774
-0.00181981
0.00181248
-0.00193163
0.0017887
-0.00204158
0.00176623
-0.00214957
0.00174479
0.0017242
-0.00225544
-2.94028e-05
0.000699221
-0.00010218
0.00155175
-0.000203529
0.00201363
-0.000321133
0.00222287
-0.000446319
0.00228823
-0.00057385
0.00228245
-0.000701024
0.00224721
-0.000826683
0.00220307
-0.000950469
0.00215866
-0.00107236
0.00211691
-0.00119245
0.00207842
-0.00131085
0.00204302
-0.00142762
0.00201029
-0.0015428
0.00197985
-0.00165638
0.00195132
-0.00176829
0.0019244
-0.00187844
0.00189885
-0.00198667
0.00187446
-0.00209277
0.00185089
0.00182788
-0.00219644
-2.61492e-05
0.00072537
-9.31224e-05
0.00161873
-0.000188335
0.00210884
-0.000300391
0.00233493
-0.000420803
0.00240864
-0.000544216
0.00240586
-0.000667753
0.00237074
-0.000790122
0.00232543
-0.000910888
0.00227942
-0.00103
0.00223602
-0.00114754
0.00219596
-0.0012636
0.00215908
-0.00137828
0.00212497
-0.00149161
0.00209318
-0.00160357
0.00206328
-0.00171408
0.00203491
-0.00182299
0.00200777
-0.00193006
0.00198152
-0.00203483
0.00195567
0.00192974
-0.0021367
-2.27085e-05
0.000748079
-8.34756e-05
0.00167949
-0.000172077
0.00219744
-0.00027813
0.00244098
-0.000393368
0.00252388
-0.000512323
0.00252482
-0.000631931
0.00249035
-0.000750754
0.00244426
-0.000868272
0.00239694
-0.000984398
0.00235214
-0.00109921
0.00231078
-0.00121284
0.00227271
-0.00132539
0.00223752
-0.00143692
0.00220471
-0.00154744
0.0021738
-0.00165687
0.00214434
-0.00176506
0.00211596
-0.00187173
0.00208818
-0.00197614
0.00206009
0.0020308
-0.0020772
-1.90912e-05
0.00076717
-7.3251e-05
0.00173365
-0.000154755
0.00227895
-0.000254326
0.00254055
-0.000363966
0.00263352
-0.000478098
0.00263895
-0.00059346
0.00260571
-0.000708454
0.00255925
-0.000822467
0.00251095
-0.000935381
0.00246506
-0.00104728
0.00242268
-0.00115833
0.00238376
-0.00126869
0.00234788
-0.0013785
0.00231452
-0.00148785
0.00228315
-0.00159675
0.00225323
-0.00170516
0.00222438
-0.00181306
0.00219608
-0.00191967
0.00216669
0.00213234
-0.00202121
-1.53111e-05
0.000782481
-6.24689e-05
0.00178081
-0.000136379
0.00235286
-0.00022897
0.00263314
-0.000332561
0.00273711
-0.000441476
0.00274787
-0.00055224
0.00271648
-0.000663073
0.00267008
-0.00077325
0.00262113
-0.000882601
0.00257441
-0.000991203
0.00253128
-0.00109923
0.00249179
-0.00120688
0.00245553
-0.00131438
0.00242203
-0.00142199
0.00239075
-0.00152988
0.00236113
-0.00163812
0.00233261
-0.00174696
0.00230492
-0.0018572
0.00227693
0.00224079
-0.00196565
-1.1386e-05
0.000793867
-5.1159e-05
0.00182058
-0.000116973
0.00241867
-0.000202067
0.00271824
-0.000299133
0.00283418
-0.000402411
0.00285114
-0.000508198
0.00282227
-0.000614512
0.0027764
-0.000720498
0.00272712
-0.000825928
0.00267984
-0.000930887
0.00263624
-0.00103562
0.00259652
-0.00114049
0.0025604
-0.00124599
0.00252752
-0.00135279
0.00249755
-0.00146178
0.00247012
-0.00157386
0.00244469
-0.00168937
0.00242042
-0.00180929
0.00239686
0.00238699
-0.0019555
-7.35168e-06
0.000801219
-3.93849e-05
0.00185262
-9.66048e-05
0.00247589
-0.000173671
0.0027953
-0.000263718
0.00292423
-0.000360914
0.00294834
-0.000461322
0.00292267
-0.000562728
0.0028778
-0.000664115
0.0028285
-0.000765161
0.00278089
-0.000865902
0.00273698
-0.000966548
0.00269717
-0.0010674
0.00266125
-0.00116879
0.00262891
-0.00127103
0.0025998