/*--------------------------------*- C++ -*----------------------------------*\
  =========                 |
  \\      /  F ield         | OpenFOAM: The Open Source CFD Toolbox
   \\    /   O peration     | Website:  https://openfoam.org
    \\  /    A nd           | Version:  6.0
     \\/     M anipulation  |
\*---------------------------------------------------------------------------*/
FoamFile
{
    version     2.0;
    format      ascii;
    class       volScalarField;
    location    "24";
    object      p;
}
// * * * * * * * * * * * * * * * * * * * * * * * * * * * * * * * * * * * * * //

dimensions      [0 2 -2 0 0 0 0];

internalField   nonuniform List<scalar> 
4000
(
-0.461285
-0.447435
-0.435201
-0.421774
-0.40596
-0.388228
-0.369364
-0.350172
-0.331342
-0.313363
-0.296518
-0.280927
-0.266595
-0.253465
-0.241445
-0.230429
-0.22032
-0.210992
-0.20225
-0.194394
-0.469252
-0.45496
-0.441913
-0.427051
-0.409306
-0.389438
-0.368501
-0.347468
-0.327095
-0.307868
-0.290031
-0.273653
-0.258695
-0.245061
-0.232629
-0.221276
-0.210886
-0.201317
-0.192358
-0.184382
-0.475393
-0.460759
-0.446848
-0.430421
-0.410637
-0.388601
-0.365642
-0.342879
-0.321105
-0.30078
-0.282093
-0.26506
-0.249593
-0.23556
-0.222813
-0.21121
-0.200623
-0.190887
-0.181782
-0.173761
-0.479338
-0.464461
-0.449637
-0.431544
-0.409664
-0.385491
-0.360617
-0.336277
-0.313275
-0.29202
-0.27264
-0.255089
-0.239237
-0.224917
-0.211955
-0.200195
-0.189494
-0.179671
-0.170495
-0.162505
-0.480731
-0.465709
-0.449933
-0.430106
-0.406132
-0.379912
-0.353283
-0.32756
-0.303525
-0.281523
-0.261614
-0.243693
-0.227585
-0.213092
-0.20002
-0.188198
-0.177473
-0.167643
-0.158475
-0.150593
-0.479237
-0.464166
-0.447415
-0.42583
-0.399824
-0.371708
-0.343528
-0.316644
-0.291791
-0.269238
-0.24897
-0.230829
-0.214598
-0.200052
-0.186979
-0.175196
-0.164538
-0.154786
-0.145708
-0.138013
-0.474556
-0.459529
-0.441801
-0.418485
-0.390568
-0.360759
-0.331271
-0.303472
-0.278027
-0.255124
-0.234674
-0.216466
-0.200249
-0.185773
-0.172811
-0.16117
-0.150676
-0.141089
-0.132185
-0.124756
-0.466428
-0.451539
-0.432859
-0.407889
-0.378239
-0.346984
-0.31646
-0.288007
-0.262206
-0.239157
-0.218703
-0.200586
-0.184522
-0.170242
-0.157506
-0.146113
-0.13588
-0.12655
-0.117909
-0.110824
-0.454647
-0.439986
-0.420409
-0.393915
-0.362759
-0.330343
-0.299074
-0.270237
-0.244318
-0.221328
-0.201049
-0.183179
-0.167409
-0.153453
-0.141061
-0.130025
-0.120154
-0.111177
-0.102889
-0.0962275
-0.439062
-0.424721
-0.404332
-0.376491
-0.3441
-0.310831
-0.279121
-0.250173
-0.224372
-0.201645
-0.181717
-0.164251
-0.148915
-0.135411
-0.123483
-0.112916
-0.103512
-0.0949864
-0.087148
-0.0809899
-0.419583
-0.405654
-0.384571
-0.355602
-0.322277
-0.288484
-0.25664
-0.227851
-0.202399
-0.180133
-0.160728
-0.143817
-0.129054
-0.116131
-0.104785
-0.094801
-0.0859714
-0.0780027
-0.0707167
-0.0651503
-0.396187
-0.382762
-0.36113
-0.331288
-0.297355
-0.26337
-0.231697
-0.203331
-0.178449
-0.156833
-0.138115
-0.121907
-0.107851
-0.0956331
-0.0849886
-0.0756996
-0.0675543
-0.0602522
-0.0536307
-0.0487512
-0.368913
-0.356086
-0.334078
-0.303643
-0.26944
-0.235597
-0.204391
-0.176696
-0.152594
-0.131805
-0.113929
-0.0985609
-0.0853377
-0.0739441
-0.064115
-0.0556322
-0.0482807
-0.04176
-0.0359218
-0.0318163
-0.337865
-0.325732
-0.303539
-0.272812
-0.238682
-0.205305
-0.174846
-0.148056
-0.124927
-0.105127
-0.0882318
-0.0738291
-0.061554
-0.051094
-0.0421872
-0.0346172
-0.0281696
-0.0225502
-0.0176136
-0.0143376
-0.303211
-0.291866
-0.269697
-0.238988
-0.205268
-0.172669
-0.143218
-0.117546
-0.0955636
-0.0768967
-0.0611051
-0.0477746
-0.0365454
-0.0271126
-0.0192222
-0.0126641
-0.00723023
-0.00263621
0.00128437
0.00368534
-0.265177
-0.254714
-0.232786
-0.202406
-0.169424
-0.137893
-0.109691
-0.0853289
-0.0646459
-0.0472353
-0.0326486
-0.0204763
-0.0103688
-0.00203489
0.00476484
0.0102284
0.0145514
0.0180018
0.0207682
0.0221279
-0.224041
-0.21455
-0.193086
-0.163343
-0.131408
-0.101215
-0.0744781
-0.0515939
-0.0323405
-0.016287
-0.0029836
0.00796908
0.0169041
0.0240912
0.0297474
0.0340546
0.0371921
0.0393732
0.0407231
0.0406013
-0.18013
-0.171699
-0.15092
-0.12211
-0.0915117
-0.0628989
-0.0378187
-0.0165579
0.00115856
0.0157789
0.0277494
0.0374545
0.045204
0.0512356
0.0557322
0.0588547
0.060742
0.0614347
0.060831
0.058663
-0.133814
-0.126523
-0.106644
-0.079046
-0.0500502
-0.0232371
1.83491e-05
0.0195311
0.0356238
0.0487584
0.0593779
0.0678538
0.0744734
0.0794407
0.0829015
0.0849853
0.0857182
0.0847486
0.0816209
0.0773436
-0.085493
-0.0794172
-0.0606427
-0.0345153
-0.00736204
0.0174572
0.0387395
0.0563947
0.0707873
0.0823922
0.091654
0.0989425
0.104543
0.108657
0.111444
0.11305
0.113379
0.111591
0.10699
0.102346
-0.0355982
-0.0308014
-0.0133203
0.0111015
0.0361998
0.0588554
0.0780342
0.0937325
0.10635
0.11637
0.124239
0.130333
0.134949
0.138328
0.140712
0.142375
0.143292
0.142492
0.139714
0.143166
0.0154302
0.0188912
0.0349065
0.0574146
0.0802746
0.100622
0.117586
0.13124
0.142009
0.15038
0.156795
0.16162
0.165156
0.167653
0.16937
0.170568
0.171237
0.170908
0.170468
0.176061
0.0671328
0.0692127
0.0836121
0.104029
0.124499
0.142422
0.157082
0.168619
0.177477
0.184142
0.189043
0.192541
0.194927
0.196454
0.197367
0.197886
0.197995
0.197403
0.19701
0.201504
0.119047
0.119713
0.132371
0.150553
0.168515
0.183925
0.196214
0.20558
0.212478
0.217383
0.220712
0.222808
0.223951
0.224379
0.22432
0.22397
0.223326
0.222165
0.22123
0.224242
0.170711
0.169943
0.180761
0.196599
0.21197
0.224812
0.234692
0.241855
0.246761
0.249874
0.25159
0.252234
0.252067
0.251309
0.250162
0.248794
0.247188
0.245149
0.24336
0.24499
0.22167
0.219462
0.22837
0.241791
0.254526
0.264775
0.272234
0.277187
0.280094
0.281402
0.281486
0.28065
0.279136
0.277142
0.27485
0.2724
0.269759
0.266757
0.264038
0.264343
0.271479
0.26784
0.274798
0.285767
0.295855
0.30352
0.308575
0.311338
0.312262
0.311775
0.310232
0.307913
0.305041
0.301795
0.298334
0.294775
0.291075
0.28709
0.283438
0.282491
0.319709
0.314662
0.319658
0.328178
0.335644
0.340768
0.343465
0.344081
0.343061
0.340814
0.337672
0.333893
0.329681
0.325195
0.320576
0.31592
0.311181
0.306238
0.301678
0.299539
0.365949
0.359531
0.362586
0.368692
0.373599
0.376252
0.376665
0.375203
0.372303
0.368352
0.36366
0.358465
0.35295
0.347261
0.341518
0.335801
0.330063
0.324208
0.318777
0.315509
0.409807
0.402072
0.403233
0.406998
0.409439
0.409723
0.407951
0.404504
0.399808
0.394229
0.388055
0.381506
0.374748
0.367908
0.361093
0.354368
0.347687
0.340975
0.334719
0.330384
0.450917
0.441931
0.441275
0.442804
0.442902
0.440946
0.437112
0.431795
0.425406
0.418293
0.410724
0.4029
0.39497
0.387048
0.379226
0.371556
0.363998
0.356491
0.349462
0.344127
0.488937
0.478782
0.47641
0.475837
0.473746
0.469703
0.463953
0.456898
0.448938
0.440401
0.431537
0.42253
0.413515
0.404591
0.395837
0.387297
0.378933
0.370698
0.362953
0.35669
0.523554
0.512324
0.508362
0.50585
0.501748
0.495795
0.488292
0.47965
0.470256
0.46042
0.450374
0.440288
0.430283
0.420447
0.410846
0.401515
0.392423
0.383531
0.375133
0.368021
0.554485
0.542285
0.536883
0.532619
0.526707
0.519038
0.509965
0.499902
0.489223
0.478225
0.467122
0.456071
0.445182
0.43453
0.424173
0.414139
0.4044
0.394925
0.385941
0.378065
0.581478
0.568425
0.56175
0.555943
0.548443
0.539272
0.528825
0.517519
0.505719
0.493704
0.481679
0.469786
0.458124
0.446762
0.435746
0.425099
0.414799
0.404818
0.395321
0.386775
0.604313
0.590534
0.582772
0.575649
0.5668
0.556355
0.544744
0.532385
0.519635
0.506761
0.493954
0.481349
0.469034
0.457071
0.445499
0.434335
0.423562
0.413154
0.403221
0.394106
0.622805
0.608436
0.599786
0.591592
0.581646
0.570167
0.557612
0.544401
0.530881
0.51731
0.50387
0.490688
0.477845
0.465396
0.453373
0.441791
0.430637
0.419884
0.409597
0.400018
0.636806
0.621988
0.612662
0.603654
0.592875
0.580611
0.567341
0.553484
0.539381
0.525283
0.511364
0.497745
0.484502
0.471685
0.459321
0.447424
0.435981
0.424969
0.414412
0.40448
0.646203
0.631083
0.621302
0.611745
0.600406
0.587615
0.573865
0.559574
0.54508
0.530627
0.516388
0.502475
0.488964
0.4759
0.463308
0.451198
0.439563
0.428376
0.417637
0.407468
0.65092
0.635648
0.625638
0.615805
0.604185
0.59113
0.577138
0.56263
0.547939
0.533309
0.518907
0.504848
0.491202
0.478014
0.465307
0.453092
0.44136
0.430085
0.419255
0.408966
0.65092
0.635648
0.625637
0.615805
0.604185
0.59113
0.577138
0.56263
0.547939
0.533309
0.518908
0.504848
0.491203
0.478015
0.465308
0.453092
0.44136
0.430085
0.419256
0.408967
0.646202
0.631082
0.621301
0.611744
0.600406
0.587615
0.573865
0.559575
0.54508
0.530628
0.516389
0.502476
0.488965
0.475901
0.463309
0.4512
0.439565
0.428377
0.417639
0.40747
0.636804
0.621986
0.612661
0.603653
0.592875
0.580611
0.567342
0.553485
0.539382
0.525284
0.511366
0.497747
0.484505
0.471687
0.459324
0.447426
0.435984
0.424971
0.414415
0.404483
0.622803
0.608434
0.599785
0.591592
0.581646
0.570167
0.557613
0.544402
0.530882
0.517312
0.503873
0.490691
0.477848
0.465399
0.453377
0.441795
0.430641
0.419889
0.409601
0.400022
0.60431
0.590532
0.58277
0.575648
0.5668
0.556355
0.544745
0.532387
0.519638
0.506764
0.493958
0.481353
0.469039
0.457076
0.445503
0.43434
0.423567
0.413159
0.403226
0.394111
0.581475
0.568423
0.561749
0.555942
0.548443
0.539273
0.528827
0.517522
0.505722
0.493708
0.481683
0.469791
0.45813
0.446768
0.435752
0.425105
0.414806
0.404824
0.395327
0.386782
0.554482
0.542283
0.536882
0.532618
0.526708
0.51904
0.509968
0.499905
0.489228
0.478229
0.467128
0.456077
0.445188
0.434537
0.42418
0.414146
0.404408
0.394933
0.385949
0.378074
0.523552
0.512322
0.508361
0.50585
0.501749
0.495797
0.488296
0.479654
0.470261
0.460426
0.450381
0.440295
0.430291
0.420455
0.410854
0.401524
0.392432
0.38354
0.375142
0.36803
0.488935
0.47878
0.476409
0.475838
0.473748
0.469707
0.463957
0.456903
0.448944
0.440409
0.431545
0.422539
0.413524
0.4046
0.395847
0.387307
0.378944
0.370709
0.362964
0.356702
0.450915
0.441931
0.441275
0.442805
0.442905
0.44095
0.437118
0.431802
0.425414
0.418302
0.410733
0.40291
0.394981
0.387059
0.379238
0.371568
0.364011
0.356504
0.349475
0.34414
0.409807
0.402073
0.403235
0.407001
0.409443
0.409729
0.407958
0.404513
0.399818
0.394239
0.388066
0.381518
0.37476
0.367921
0.361106
0.354381
0.347701
0.340989
0.334733
0.330398
0.36595
0.359534
0.36259
0.368697
0.373605
0.37626
0.376674
0.375213
0.372315
0.368364
0.363672
0.358478
0.352964
0.347275
0.341533
0.335816
0.330079
0.324224
0.318793
0.315525
0.319713
0.314667
0.319664
0.328184
0.335653
0.340777
0.343476
0.344093
0.343074
0.340828
0.337687
0.333909
0.329697
0.325212
0.320593
0.315938
0.311199
0.306256
0.301696
0.299557
0.271485
0.267847
0.274806
0.285776
0.295865
0.303532
0.308589
0.311352
0.312277
0.311791
0.310249
0.307931
0.30506
0.301814
0.298353
0.294794
0.291095
0.28711
0.283459
0.282511
0.221679
0.219473
0.228381
0.241804
0.254539
0.26479
0.27225
0.277204
0.280112
0.281421
0.281506
0.28067
0.279156
0.277163
0.274872
0.272421
0.269782
0.266779
0.264061
0.264366
0.170724
0.169957
0.180776
0.196614
0.211987
0.22483
0.23471
0.241875
0.246782
0.249896
0.251612
0.252257
0.252091
0.251332
0.250186
0.248818
0.247212
0.245174
0.243385
0.245015
0.119065
0.119731
0.13239
0.150572
0.168535
0.183946
0.196236
0.205603
0.212502
0.217408
0.220737
0.222833
0.223977
0.224405
0.224347
0.223997
0.223353
0.222193
0.221257
0.224269
0.0671554
0.0692361
0.0836357
0.104053
0.124523
0.142447
0.157107
0.168645
0.177504
0.184169
0.189071
0.192569
0.194956
0.196483
0.197396
0.197915
0.198024
0.197433
0.19704
0.201534
0.0154582
0.01892
0.0349351
0.057443
0.0803032
0.100651
0.117616
0.13127
0.14204
0.150411
0.156826
0.161652
0.165188
0.167685
0.169403
0.170601
0.171269
0.170941
0.170501
0.176093
-0.0355643
-0.0307668
-0.0132862
0.0111351
0.0362333
0.058889
0.0780681
0.0937668
0.106384
0.116405
0.124275
0.130368
0.134984
0.138364
0.140748
0.142411
0.143328
0.142528
0.139751
0.143202
-0.0854527
-0.0793763
-0.0606025
-0.034476
-0.00732329
0.0174957
0.0387781
0.0564334
0.0708261
0.0824311
0.091693
0.0989816
0.104582
0.108696
0.111483
0.113089
0.113418
0.11163
0.10703
0.102386
-0.133766
-0.126476
-0.106598
-0.0790006
-0.0500058
-0.0231932
6.19024e-05
0.0195745
0.0356671
0.0488016
0.059421
0.0678968
0.0745163
0.0794835
0.0829442
0.0850279
0.0857607
0.084791
0.0816633
0.0773862
-0.180076
-0.171644
-0.150867
-0.122058
-0.0914611
-0.0628494
-0.0377698
-0.0165096
0.00120655
0.0158265
0.0277967
0.0375016
0.0452508
0.0512821
0.0557785
0.0589006
0.0607877
0.0614801
0.0608761
0.058708
-0.223978
-0.214487
-0.193025
-0.163284
-0.131351
-0.101159
-0.0744236
-0.0515402
-0.0322875
-0.0162347
-0.00293178
0.00802038
0.0169549
0.0241416
0.0297972
0.034104
0.037241
0.0394217
0.0407711
0.040649
-0.265106
-0.254642
-0.232717
-0.20234
-0.16936
-0.137831
-0.109631
-0.0852697
-0.0645877
-0.047178
-0.0325921
-0.0204206
-0.0103138
-0.0019806
0.00481847
0.0102813
0.0146037
0.0180534
0.0208192
0.0221785
-0.303132
-0.291787
-0.26962
-0.238914
-0.205197
-0.1726
-0.143152
-0.117481
-0.0955
-0.0768344
-0.0610438
-0.0477144
-0.0364861
-0.0270542
-0.0191647
-0.0126074
-0.00717443
-0.00258129
0.00133843
0.00373886
-0.337777
-0.325643
-0.303453
-0.27273
-0.238603
-0.20523
-0.174773
-0.147985
-0.124858
-0.105059
-0.0881656
-0.0737642
-0.0614903
-0.0510314
-0.0421257
-0.0345568
-0.0281102
-0.0224919
-0.0175564
-0.0142811
-0.368815
-0.355989
-0.333983
-0.303552
-0.269354
-0.235514
-0.204311
-0.176618
-0.152519
-0.131732
-0.113857
-0.0984912
-0.0852694
-0.0738773
-0.0640495
-0.055568
-0.0482177
-0.0416982
-0.0358613
-0.0317568
-0.39608
-0.382655
-0.361027
-0.331188
-0.297261
-0.26328
-0.23161
-0.203247
-0.178368
-0.156755
-0.138039
-0.121833
-0.107778
-0.0955618
-0.0849189
-0.0756315
-0.0674876
-0.060187
-0.0535669
-0.0486885
-0.419467
-0.405538
-0.384458
-0.355494
-0.322174
-0.288386
-0.256546
-0.227761
-0.202312
-0.180049
-0.160646
-0.143737
-0.128976
-0.116055
-0.104711
-0.0947288
-0.0859009
-0.0779338
-0.0706494
-0.0650843
-0.438936
-0.424595
-0.40421
-0.376374
-0.343989
-0.310726
-0.27902
-0.250076
-0.224279
-0.201555
-0.18163
-0.164166
-0.148832
-0.135331
-0.123404
-0.11284
-0.103437
-0.0949138
-0.0870772
-0.0809207
-0.454512
-0.439852
-0.420278
-0.393789
-0.36264
-0.33023
-0.298966
-0.270133
-0.244218
-0.221232
-0.200956
-0.183089
-0.167321
-0.153368
-0.140978
-0.129945
-0.120076
-0.111101
-0.102815
-0.0961549
-0.466284
-0.451395
-0.432719
-0.407755
-0.378111
-0.346863
-0.316344
-0.287896
-0.2621
-0.239054
-0.218604
-0.20049
-0.184429
-0.170152
-0.157419
-0.146028
-0.135797
-0.12647
-0.117831
-0.110748
-0.474403
-0.459377
-0.441653
-0.418342
-0.390432
-0.360629
-0.331148
-0.303354
-0.277915
-0.255015
-0.23457
-0.216366
-0.200152
-0.185679
-0.17272
-0.161081
-0.150589
-0.141005
-0.132104
-0.124676
-0.479077
-0.464006
-0.447259
-0.425679
-0.39968
-0.371571
-0.343397
-0.31652
-0.291672
-0.269123
-0.24886
-0.230723
-0.214495
-0.199952
-0.186882
-0.175102
-0.164448
-0.154698
-0.145622
-0.13793
-0.480563
-0.465542
-0.449769
-0.429947
-0.40598
-0.379767
-0.353145
-0.327428
-0.303399
-0.281403
-0.261498
-0.243581
-0.227477
-0.212987
-0.199919
-0.1881
-0.177378
-0.167551
-0.158386
-0.150507
-0.479164
-0.464287
-0.449466
-0.431378
-0.409505
-0.385339
-0.360472
-0.336139
-0.313143
-0.291893
-0.272518
-0.254972
-0.239124
-0.224807
-0.211849
-0.200092
-0.189395
-0.179574
-0.170402
-0.162415
-0.475212
-0.460579
-0.44667
-0.430249
-0.410471
-0.388442
-0.365491
-0.342734
-0.320966
-0.300647
-0.281966
-0.264937
-0.249474
-0.235445
-0.222702
-0.211103
-0.200519
-0.190787
-0.181685
-0.173667
-0.469065
-0.454775
-0.44173
-0.426872
-0.409133
-0.389272
-0.368343
-0.347317
-0.32695
-0.307729
-0.289898
-0.273525
-0.258571
-0.244941
-0.232514
-0.221164
-0.210778
-0.201213
-0.192257
-0.184284
-0.461094
-0.447245
-0.435013
-0.42159
-0.405782
-0.388057
-0.3692
-0.350014
-0.331191
-0.313218
-0.296379
-0.280792
-0.266466
-0.253341
-0.241324
-0.230313
-0.220207
-0.210883
-0.202145
-0.194292
0.0838593
0.0559765
0.0354243
0.0256008
0.0168099
0.00495541
-0.00834065
-0.0211844
-0.0332829
-0.0450464
-0.0567141
-0.0682582
-0.0795871
-0.0906605
-0.101487
-0.112092
-0.122501
-0.132742
-0.142852
-0.152876
0.0266988
0.0127714
0.000526761
-0.00687522
-0.0123797
-0.0187921
-0.0262725
-0.0337953
-0.0407728
-0.0472624
-0.0534898
-0.0595503
-0.0654177
-0.0710444
-0.0764103
-0.0815164
-0.0863674
-0.0909628
-0.095297
-0.0993617
0.0121695
0.00600048
0.000417057
-0.00423122
-0.00838798
-0.0126502
-0.0172022
-0.0218627
-0.0264302
-0.0308612
-0.035214
-0.0395439
-0.043865
-0.0481689
-0.0524491
-0.0567078
-0.0609527
-0.0651921
-0.0694333
-0.0736833
0.00347135
-0.000370308
-0.0041769
-0.00787877
-0.0114766
-0.0150347
-0.0186013
-0.022168
-0.0256981
-0.0291683
-0.0325793
-0.0359416
-0.0392608
-0.0425363
-0.0457653
-0.0489465
-0.0520804
-0.0551684
-0.0582116
-0.0612113
-0.00331612
-0.006419
-0.00929777
-0.011943
-0.0145227
-0.0171133
-0.0197043
-0.0222711
-0.0248044
-0.027306
-0.0297806
-0.0322322
-0.0346637
-0.0370775
-0.0394753
-0.0418595
-0.0442322
-0.0465961
-0.0489535
-0.051307
-0.00848574
-0.0109804
-0.0131399
-0.0150423
-0.0169136
-0.0188389
-0.0207922
-0.0227357
-0.0246586
-0.0265664
-0.0284657
-0.0303589
-0.0322457
-0.0341259
-0.0359997
-0.0378675
-0.0397299
-0.0415874
-0.0434405
-0.0452895
-0.0117906
-0.0137324
-0.0153567
-0.0167799
-0.0181975
-0.0196736
-0.0211813
-0.0226866
-0.0241794
-0.0256642
-0.0271468
-0.0286288
-0.0301098
-0.0315889
-0.033066
-0.0345414
-0.0360154
-0.0374883
-0.0389605
-0.0404323
-0.0138325
-0.0153307
-0.0166019
-0.0177355
-0.0188687
-0.0200466
-0.0212507
-0.0224564
-0.0236555
-0.0248507
-0.0260459
-0.0272422
-0.0284393
-0.0296364
-0.0308331
-0.0320293
-0.0332252
-0.0344207
-0.0356161
-0.0368113
-0.0151364
-0.0162738
-0.0172974
-0.0182434
-0.0191843
-0.0201492
-0.0211309
-0.0221159
-0.0230982
-0.0240786
-0.0250589
-0.0260401
-0.0270219
-0.0280038
-0.0289856
-0.0299671
-0.0309484
-0.0319294
-0.0329102
-0.0338909
-0.0160893
-0.0169311
-0.0177619
-0.018571
-0.0193722
-0.0201779
-0.0209902
-0.0218055
-0.0226208
-0.0234354
-0.0242496
-0.0250638
-0.0258782
-0.0266925
-0.0275065
-0.0283202
-0.0291335
-0.0299464
-0.0307591
-0.0315714
-0.0168869
-0.0174978
-0.0181677
-0.0188583
-0.0195424
-0.0202181
-0.020892
-0.0215675
-0.0222443
-0.0229212
-0.0235977
-0.0242737
-0.0249494
-0.0256249
-0.0263
-0.0269749
-0.0276495
-0.0283239
-0.0289981
-0.0296721
-0.0175993
-0.0180381
-0.0185709
-0.0191495
-0.0197253
-0.0202869
-0.0208418
-0.0213969
-0.021954
-0.022512
-0.0230697
-0.0236271
-0.0241843
-0.0247414
-0.0252986
-0.025856
-0.0264136
-0.0269713
-0.0275294
-0.0280879
-0.0182067
-0.0185096
-0.0189208
-0.0193922
-0.0198656
-0.020323
-0.0207713
-0.0212189
-0.0216689
-0.0221204
-0.0225723
-0.0230243
-0.0234766
-0.0239296
-0.0243834
-0.0248382
-0.025294
-0.025751
-0.0262092
-0.0266687
-0.0186922
-0.0188708
-0.019169
-0.0195412
-0.0199201
-0.0202818
-0.0206324
-0.0209817
-0.0213337
-0.0216882
-0.022044
-0.022401
-0.0227593
-0.0231194
-0.0234816
-0.0238462
-0.0242133
-0.0245831
-0.0249556
-0.0253309
-0.0190491
-0.019082
-0.019253
-0.0195184
-0.0197972
-0.0200572
-0.0203036
-0.0205485
-0.0207978
-0.0210519
-0.0213097
-0.021571
-0.0218362
-0.0221059
-0.0223806
-0.0226605
-0.0229458
-0.0232366
-0.023533
-0.0238351
-0.0194114
-0.0193121
-0.0193214
-0.0194234
-0.0195513
-0.0196721
-0.0197865
-0.0199047
-0.0200329
-0.0201723
-0.0203223
-0.0204825
-0.0206531
-0.0208344
-0.0210266
-0.0212297
-0.0214435
-0.021668
-0.0219027
-0.0221475
-0.0192713
-0.0190716
-0.01882
-0.0186018
-0.0184419
-0.0183301
-0.0182525
-0.0182028
-0.0181808
-0.0181872
-0.0182219
-0.0182836
-0.0183707
-0.0184819
-0.0186158
-0.0187712
-0.0189466
-0.0191409
-0.0193528
-0.019581
-0.0166645
-0.0161797
-0.0156656
-0.0152541
-0.0149532
-0.0147343
-0.0145764
-0.0144708
-0.0144146
-0.0144058
-0.0144412
-0.0145172
-0.0146301
-0.0147766
-0.0149537
-0.0151585
-0.0153884
-0.0156409
-0.0159137
-0.0162046
-0.00509571
-0.00140802
-0.000114905
-0.000749467
-0.00182238
-0.00263773
-0.00320485
-0.00371176
-0.0042583
-0.00484842
-0.00545647
-0.00606595
-0.00667345
-0.00728049
-0.00788794
-0.0084951
-0.00910063
-0.00970331
-0.0103023
-0.0108968
0.00689143
0.0191366
0.0228849
0.0202809
0.0164681
0.0137111
0.0119165
0.0104365
0.00893328
0.00738634
0.00586996
0.00442819
0.00306336
0.00176273
0.000516253
-0.000680516
-0.00182948
-0.00293248
-0.00399187
-0.00501024
0.12128
0.121809
0.122891
0.124518
0.126691
0.129421
0.132732
0.136644
0.141174
0.146325
0.152082
0.158386
0.165129
0.17207
0.178799
0.184513
0.187707
0.185354
0.170886
0.129373
0.112017
0.112405
0.11314
0.114244
0.115678
0.117463
0.119533
0.121917
0.124489
0.127273
0.130021
0.13273
0.134913
0.136479
0.136454
0.134482
0.12851
0.117249
0.0956154
0.0579006
0.101059
0.101268
0.101639
0.102183
0.102867
0.103685
0.104561
0.105467
0.106271
0.106912
0.107162
0.106892
0.105713
0.103362
0.0991865
0.0926899
0.0828944
0.0691587
0.050789
0.02809
0.0891027
0.0891416
0.08919
0.0892491
0.0892962
0.0893032
0.0892069
0.0889433
0.088407
0.0874935
0.0860426
0.0838892
0.0808031
0.0765473
0.0708507
0.0634723
0.0542673
0.043145
0.0300497
0.0141488
0.0768502
0.0767622
0.0765722
0.0762762
0.0758606
0.0752917
0.0745224
0.0734845
0.0721052
0.0702872
0.0679382
0.0649344
0.0611811
0.0565506
0.0509955
0.0444232
0.0368461
0.0280775
0.0178568
0.00527661
0.064887
0.0647214
0.0643832
0.063868
0.0631682
0.062256
0.0610996
0.0596462
0.0578509
0.0556473
0.0529916
0.0498141
0.0460882
0.0417513
0.0368025
0.0311628
0.0247989
0.0174895
0.00898232
-0.00140386
0.0536199
0.0534166
0.0530058
0.0523838
0.051547
0.0504768
0.0491544
0.0475456
0.045626
0.0433564
0.0407178
0.0376713
0.0342087
0.0302868
0.0258995
0.020976
0.0154834
0.00927329
0.00220249
-0.00617598
0.0432806
0.0430668
0.0426365
0.0419865
0.0411152
0.0400116
0.0386662
0.0370588
0.035177
0.0329972
0.0305102
0.0276904
0.0245324
0.0210048
0.017105
0.012791
0.00806133
0.00284448
-0.00291835
-0.0095093
0.0339627
0.0337547
0.033337
0.0327061
0.0318615
0.0307965
0.0295073
0.027982
0.0262149
0.024191
0.0219057
0.0193416
0.0164976
0.0133546
0.00992004
0.00617606
0.00214318
-0.00220297
-0.00685267
-0.0119088
0.0256669
0.0254732
0.0250846
0.0244973
0.0237104
0.0227201
0.0215254
0.0201197
0.0185016
0.0166621
0.014601
0.0123078
0.00978675
0.00702777
0.0040442
0.000829943
-0.00258481
-0.00619528
-0.00993388
-0.0137477
0.0183404
0.0181644
0.0178116
0.017278
0.0165624
0.0156621
0.0145782
0.0133075
0.0118521
0.0102076
0.0083782
0.0063591
0.00415855
0.00177182
-0.000785564
-0.0035153
-0.00638289
-0.00936622
-0.0123604
-0.0152176
0.0119045
0.0117468
0.011431
0.0109528
0.0103113
0.00950474
0.00853558
0.00740318
0.00611189
0.00466061
0.00305629
0.00129821
-0.000601816
-0.00264402
-0.0048101
-0.00709867
-0.00947395
-0.0119083
-0.0142843
-0.0164175
0.00627564
0.0061342
0.00585186
0.00542451
0.00485164
0.00413284
0.00327242
0.00227194
0.00113745
-0.000130513
-0.00152425
-0.00304318
-0.00467391
-0.00641247
-0.00823516
-0.0101335
-0.0120681
-0.0140113
-0.015851
-0.0174014
0.0013787
0.00124945
0.000992418
0.00060396
8.46165e-05
-0.000564056
-0.00133507
-0.00222361
-0.00322046
-0.00432258
-0.00552156
-0.00681809
-0.00820207
-0.00967208
-0.0112035
-0.012779
-0.0143447
-0.0158583
-0.017208
-0.018231
-0.00284111
-0.00296443
-0.00320868
-0.00357711
-0.00406801
-0.00467815
-0.00539732
-0.00621656
-0.00712031
-0.00809879
-0.00913595
-0.0102287
-0.0113677
-0.0125629
-0.0138053
-0.0150939
-0.0163692
-0.0175596
-0.0184981
-0.0189858
-0.00641125
-0.00653593
-0.00678201
-0.00715306
-0.00764668
-0.00825999
-0.00898086
-0.00979888
-0.0106917
-0.0116414
-0.012614
-0.013588
-0.0145277
-0.0154342
-0.016303
-0.0171862
-0.0180826
-0.0189726
-0.0196175
-0.0196758
-0.00933071
-0.00946245
-0.00972323
-0.0101172
-0.0106426
-0.011299
-0.0120765
-0.0129687
-0.0139546
-0.015017
-0.0161111
-0.0171943
-0.0181807
-0.0190016
-0.019561
-0.0198641
-0.0199554
-0.0200323
-0.0200824
-0.0196883
-0.0115754
-0.0117155
-0.0119983
-0.0124266
-0.0130018
-0.0137246
-0.0145943
-0.01561
-0.0167674
-0.0180594
-0.0194674
-0.0209551
-0.022446
-0.0238038
-0.0247994
-0.0251218
-0.0244512
-0.0226906
-0.0202384
-0.0179587
-0.0131059
-0.0132531
-0.0135574
-0.0140189
-0.0146433
-0.0154315
-0.0163942
-0.0175345
-0.0188712
-0.0204108
-0.0221835
-0.0241944
-0.026472
-0.0289638
-0.0315625
-0.0338451
-0.0350157
-0.0335192
-0.0275085
-0.0157065
-0.0138806
-0.0140346
-0.0143518
-0.0148342
-0.0154876
-0.0163172
-0.0173356
-0.0185556
-0.0200018
-0.0217013
-0.0237027
-0.026064
-0.0288826
-0.0322761
-0.0364067
-0.0413739
-0.0469844
-0.0518305
-0.0508446
-0.0280673
0.131769
0.132346
0.133635
0.135541
0.138207
0.141534
0.145764
0.150755
0.156884
0.163942
0.172517
0.182289
0.194199
0.207739
0.224488
0.24358
0.267868
0.295715
0.332568
0.374932
0.131732
0.132309
0.133598
0.135503
0.138168
0.141493
0.145722
0.150709
0.156835
0.163887
0.172455
0.182218
0.194111
0.207629
0.224342
0.243382
0.267579
0.29529
0.33191
0.373881
0.131659
0.132236
0.133523
0.135427
0.13809
0.141412
0.145637
0.150619
0.156737
0.163779
0.172332
0.182075
0.193936
0.207412
0.224049
0.242987
0.267002
0.294442
0.330598
0.371786
0.131549
0.132126
0.133412
0.135313
0.137973
0.141291
0.14551
0.150484
0.156591
0.163618
0.172148
0.181861
0.193674
0.207086
0.223612
0.242399
0.266141
0.293178
0.328639
0.368659
0.131403
0.131979
0.133264
0.135162
0.137818
0.141131
0.145341
0.150305
0.156397
0.163403
0.171904
0.181577
0.193327
0.206655
0.223034
0.24162
0.265001
0.291506
0.326042
0.364516
0.131221
0.131797
0.133079
0.134974
0.137624
0.14093
0.145131
0.150081
0.156155
0.163136
0.171601
0.181224
0.192897
0.206118
0.222316
0.240654
0.263586
0.289435
0.322818
0.359378
0.131003
0.131579
0.132858
0.13475
0.137394
0.140691
0.14488
0.149815
0.155867
0.162818
0.17124
0.180804
0.192385
0.20548
0.221464
0.239506
0.261906
0.286977
0.318982
0.353273
0.13075
0.131325
0.132602
0.134489
0.137126
0.140414
0.14459
0.149506
0.155533
0.162449
0.170823
0.180317
0.191794
0.204742
0.220482
0.238182
0.259969
0.284148
0.314549
0.346233
0.130461
0.131037
0.13231
0.134193
0.136821
0.140099
0.14426
0.149156
0.155155
0.162032
0.17035
0.179765
0.191126
0.203907
0.219375
0.236687
0.257785
0.280963
0.309538
0.338295
0.130138
0.130714
0.131984
0.133861
0.136482
0.139748
0.143891
0.148765
0.154733
0.161566
0.169824
0.179151
0.190385
0.202978
0.218149
0.235029
0.255366
0.277439
0.303972
0.329503
0.129781
0.130357
0.131624
0.133496
0.136107
0.139361
0.143486
0.148334
0.154268
0.161053
0.169247
0.178476
0.189573
0.201959
0.216809
0.233215
0.252727
0.273594
0.297874
0.319904
0.12939
0.129967
0.131231
0.133097
0.135698
0.138938
0.143044
0.147865
0.153763
0.160496
0.168619
0.177743
0.188693
0.200854
0.215363
0.231251
0.249882
0.269446
0.291273
0.309551
0.128966
0.129544
0.130805
0.132666
0.135256
0.138482
0.142567
0.14736
0.153219
0.159896
0.167944
0.176954
0.187749
0.199666
0.213818
0.229146
0.246848
0.265015
0.284198
0.298496
0.128509
0.12909
0.130347
0.132203
0.134782
0.137993
0.142055
0.146819
0.152636
0.159254
0.167224
0.176113
0.186745
0.198401
0.212181
0.226909
0.243644
0.260319
0.276686
0.286795
0.12802
0.128604
0.129859
0.131709
0.134277
0.137473
0.141511
0.146243
0.152017
0.158572
0.166459
0.17522
0.185683
0.197062
0.210459
0.224547
0.240289
0.255375
0.268781
0.274496
0.1275
0.128087
0.129341
0.131185
0.13374
0.13692
0.140934
0.145632
0.15136
0.157849
0.165648
0.174275
0.18456
0.195647
0.208649
0.222062
0.236796
0.250199
0.260537
0.261637
0.126949
0.127542
0.128793
0.130633
0.133176
0.136339
0.140326
0.14499
0.15067
0.157091
0.164798
0.173283
0.183384
0.194166
0.206764
0.219468
0.233184
0.244805
0.252013
0.248249
0.126369
0.126968
0.128221
0.130058
0.132591
0.13574
0.139705
0.144338
0.149974
0.156331
0.163952
0.172299
0.182221
0.192692
0.204889
0.216852
0.229548
0.239248
0.243257
0.234235
0.125758
0.126367
0.127624
0.129461
0.131989
0.13513
0.139078
0.143689
0.14929
0.155594
0.16314
0.171361
0.181115
0.191281
0.203083
0.214279
0.225953
0.233572
0.23429
0.218932
0.125115
0.125725
0.126976
0.128804
0.131308
0.134421
0.138322
0.14288
0.148397
0.154603
0.161997
0.170033
0.179507
0.189305
0.200575
0.21099
0.221576
0.227296
0.225192
0.202627
0.125117
0.125728
0.126979
0.128807
0.131311
0.134425
0.138326
0.142885
0.148402
0.154609
0.162004
0.17004
0.179516
0.189315
0.200587
0.211004
0.221592
0.227316
0.225216
0.202658
0.125761
0.12637
0.127627
0.129464
0.131992
0.135133
0.139082
0.143694
0.149295
0.155599
0.163146
0.171368
0.181123
0.19129
0.203094
0.214292
0.225969
0.233591
0.234313
0.21896
0.126371
0.126971
0.128224
0.130061
0.132594
0.135744
0.139709
0.144342
0.149979
0.156336
0.163958
0.172306
0.182228
0.192701
0.204899
0.216864
0.229562
0.239266
0.243278
0.234261
0.126952
0.127544
0.128796
0.130636
0.133179
0.136342
0.14033
0.144994
0.150674
0.157096
0.164803
0.17329
0.183391
0.194174
0.206774
0.21948
0.233198
0.244821
0.252032
0.248273
0.127502
0.12809
0.129343
0.131188
0.133743
0.136923
0.140937
0.145636
0.151364
0.157854
0.165653
0.174281
0.184567
0.195655
0.208658
0.222073
0.236808
0.250214
0.260555
0.261658
0.128022
0.128606
0.129861
0.131712
0.134279
0.137475
0.141514
0.146246
0.152021
0.158576
0.166464
0.175226
0.185689
0.197069
0.210467
0.224557
0.240301
0.25539
0.268798
0.274515
0.128511
0.129092
0.13035
0.132205
0.134784
0.137996
0.142058
0.146822
0.15264
0.159258
0.167228
0.176118
0.186751
0.198408
0.212189
0.226918
0.243655
0.260332
0.276702
0.286814
0.128967
0.129546
0.130807
0.132668
0.135258
0.138485
0.142569
0.147363
0.153222
0.159899
0.167948
0.176959
0.187755
0.199673
0.213826
0.229155
0.246858
0.265027
0.284212
0.298513
0.129392
0.129969
0.131233
0.133099
0.1357
0.138941
0.143046
0.147868
0.153766
0.160499
0.168623
0.177748
0.188698
0.20086
0.21537
0.231259
0.249891
0.269458
0.291285
0.309566
0.129782
0.130359
0.131626
0.133498
0.136109
0.139363
0.143488
0.148337
0.154271
0.161056
0.16925
0.17848
0.189577
0.201965
0.216815
0.233222
0.252735
0.273604
0.297886
0.319918
0.13014
0.130715
0.131986
0.133863
0.136483
0.13975
0.143894
0.148767
0.154735
0.161569
0.169828
0.179155
0.190389
0.202983
0.218154
0.235036
0.255374
0.277448
0.303983
0.329515
0.130463
0.131038
0.132312
0.134194