/*--------------------------------*- C++ -*----------------------------------*\
  =========                 |
  \\      /  F ield         | OpenFOAM: The Open Source CFD Toolbox
   \\    /   O peration     | Website:  https://openfoam.org
    \\  /    A nd           | Version:  6.0
     \\/     M anipulation  |
\*---------------------------------------------------------------------------*/
FoamFile
{
    version     2.0;
    format      ascii;
    class       surfaceScalarField;
    location    "44";
    object      phi;
}
// * * * * * * * * * * * * * * * * * * * * * * * * * * * * * * * * * * * * * //

dimensions      [0 3 -1 0 0 0 0];

internalField   nonuniform List<scalar> 
7840
(
-2.41453e-06
3.60424e-06
-1.18972e-06
-8.59565e-06
9.24278e-06
-3.06166e-06
-1.76539e-05
1.36095e-05
-4.55131e-06
-2.88387e-05
1.69221e-05
-5.73726e-06
-4.15349e-05
1.93801e-05
-6.68381e-06
-5.52532e-05
2.11646e-05
-7.44628e-06
-6.96183e-05
2.24365e-05
-8.07147e-06
-8.43567e-05
2.33365e-05
-8.598e-06
-9.92853e-05
2.39856e-05
-9.05699e-06
-0.0001143
2.4487e-05
-9.47272e-06
-0.000129363
2.49272e-05
-9.86339e-06
-0.000144499
2.53778e-05
-1.0242e-05
-0.000159779
2.58963e-05
-1.0617e-05
-0.000175312
2.65273e-05
-1.09934e-05
-0.000191242
2.73034e-05
-1.13733e-05
-0.000207732
2.8246e-05
-1.17565e-05
-0.000224957
2.93663e-05
-1.21412e-05
-0.000243098
3.06652e-05
-1.25242e-05
-0.000262333
3.21356e-05
-1.29007e-05
3.37703e-05
-1.32652e-05
-0.000282838
-2.39813e-06
6.00238e-06
-8.53591e-06
1.53806e-05
-1.75259e-05
2.25995e-05
-2.86177e-05
2.8014e-05
-4.11952e-05
3.19575e-05
-5.47665e-05
3.47358e-05
-6.89529e-05
3.66229e-05
-8.34765e-05
3.78601e-05
-9.81489e-05
3.86579e-05
-0.00011286
3.91979e-05
-0.000127568
3.96352e-05
-0.00014229
4.01001e-05
-0.000157094
4.07003e-05
-0.000172088
4.15214e-05
-0.000187414
4.26286e-05
-0.000203234
4.40669e-05
-0.00021973
4.58621e-05
-0.000237086
4.80212e-05
-0.000255487
5.05365e-05
5.33994e-05
-0.000275116
-2.38383e-06
8.3862e-06
-8.47808e-06
2.14748e-05
-1.73918e-05
3.15132e-05
-2.83702e-05
3.89924e-05
-4.07918e-05
4.43791e-05
-5.41582e-05
4.81022e-05
-6.80826e-05
5.05473e-05
-8.22779e-05
5.20553e-05
-9.65447e-05
5.29247e-05
-0.000110762
5.34149e-05
-0.000124876
5.37495e-05
-0.000138895
5.41187e-05
-0.000152877
5.46822e-05
-0.000166925
5.55698e-05
-0.000181179
5.68823e-05
-0.000195804
5.86926e-05
-0.000210988
6.10455e-05
-0.000226924
6.39577e-05
-0.000243812
6.74239e-05
7.14363e-05
-0.000261849
-2.37273e-06
1.07589e-05
-8.42524e-06
2.75273e-05
-1.72574e-05
4.03453e-05
-2.81057e-05
4.98407e-05
-4.03396e-05
5.6613e-05
-5.34508e-05
6.12134e-05
-6.70406e-05
6.41371e-05
-8.08077e-05
6.58224e-05
-9.45371e-05
6.66542e-05
-0.00010809
6.69683e-05
-0.000121397
6.70565e-05
-0.000134449
6.71705e-05
-0.000147291
6.75242e-05
-0.000160017
6.82956e-05
-0.000172762
6.96269e-05
-0.000185694
7.16248e-05
-0.000199008
7.43599e-05
-0.000212915
7.78649e-05
-0.000227634
8.21428e-05
8.71892e-05
-0.000243387
-2.36587e-06
1.31248e-05
-8.38001e-06
3.35415e-05
-1.71274e-05
4.90926e-05
-2.78321e-05
6.05455e-05
-3.9852e-05
6.86328e-05
-5.26659e-05
7.40273e-05
-6.58605e-05
7.73317e-05
-7.91168e-05
7.90788e-05
-9.21994e-05
7.97368e-05
-0.000104947
7.97162e-05
-0.000117267
7.93762e-05
-0.000129127
7.90301e-05
-0.000140552
7.89493e-05
-0.000151621
7.93647e-05
-0.000162461
8.04671e-05
-0.000173242
8.24059e-05
-0.000184169
8.52867e-05
-0.000195473
8.91687e-05
-0.000207401
9.40714e-05
0.000100001
-0.000220213
-2.36381e-06
1.54886e-05
-8.34322e-06
3.95209e-05
-1.70028e-05
5.77522e-05
-2.75515e-05
7.10942e-05
-3.93337e-05
8.04151e-05
-5.18147e-05
8.65083e-05
-6.45646e-05
9.00815e-05
-7.72444e-05
9.17586e-05
-8.95947e-05
9.20872e-05
-0.000101427
9.15487e-05
-0.000112618
9.05672e-05
-0.000123106
8.95179e-05
-0.000132888
8.87315e-05
-0.000142021
8.84972e-05
-0.000150616
8.90626e-05
-0.000158841
9.0631e-05
-0.000166911
9.33567e-05
-0.000175082
9.73395e-05
-0.000183641
0.00010263
0.000109255
-0.000192895
-2.36616e-06
1.78548e-05
-8.31244e-06
4.54672e-05
-1.6878e-05
6.63177e-05
-2.72548e-05
8.1471e-05
-3.87739e-05
9.19342e-05
-5.08869e-05
9.86214e-05
-6.3148e-05
0.000102343
-7.51975e-05
0.000103808
-8.67501e-05
0.00010364
-9.75861e-05
0.000102385
-0.000107547
0.000100528
-0.000116532
9.8503e-05
-0.000124502
9.67016e-05
-0.00013148
9.54755e-05
-0.000137555
9.51378e-05
-0.000142883
9.59591e-05
-0.000147687
9.81599e-05
-0.000152248
0.000101901
-0.000156903
0.000107285
0.00011438
-0.000162028
-2.37119e-06
2.0226e-05
-8.28062e-06
5.13766e-05
-1.67377e-05
7.47748e-05
-2.69169e-05
9.16501e-05
-3.8137e-05
0.000103154
-4.98384e-05
0.000110323
-6.15612e-05
0.000114065
-7.29271e-05
0.000115174
-8.36252e-05
0.000114338
-9.34028e-05
0.000112162
-0.000102061
0.000109186
-0.000109456
0.000105898
-0.0001155
0.000102746
-0.000120171
0.000100147
-0.000123521
9.84874e-05
-0.000125682
9.81202e-05
-0.000126875
9.93531e-05
-0.000127409
0.000102435
-0.000127678
0.000107553
0.000114847
-0.000128145
-2.37547e-06
2.26014e-05
-8.23499e-06
5.72361e-05
-1.65548e-05
8.30947e-05
-2.64921e-05
0.000101587
-3.73559e-05
0.000114018
-4.8579e-05
0.000121546
-5.96922e-05
0.000125179
-7.03026e-05
0.000125784
-8.00771e-05
0.000124112
-8.8732e-05
0.000120817
-9.60279e-05
0.000116482
-0.00010177
0.00011164
-0.000105815
0.000106791
-0.000108082
0.000102414
-0.000108568
9.89733e-05
-0.000107365
9.69167e-05
-0.000104675
9.66635e-05
-0.000100826
9.85857e-05
-9.62728e-05
0.000103
0.000110167
-9.15933e-05
-2.3738e-06
2.49753e-05
-8.1567e-06
6.3019e-05
-1.62891e-05
9.12271e-05
-2.59115e-05
0.00011121
-3.63263e-05
0.000124433
-4.69636e-05
0.000132183
-5.73508e-05
0.000135566
-6.70871e-05
0.000135521
-7.58245e-05
0.00013285
-8.32541e-05
0.000128247
-8.90993e-05
0.000122327
-9.31155e-05
0.000115656
-9.50972e-05
0.000108773
-9.48924e-05
0.000102209
-9.24247e-05
9.65055e-05
-8.77207e-05
9.22128e-05
-8.09416e-05
8.98844e-05
-7.24121e-05
9.00562e-05
-6.2647e-05
9.32348e-05
9.98812e-05
-5.23607e-05
-2.35942e-06
2.73347e-05
-8.02133e-06
6.8681e-05
-1.58879e-05
9.90937e-05
-2.50834e-05
0.000120405
-3.49058e-05
0.000134255
-4.47873e-05
0.000142065
-5.42585e-05
0.000145037
-6.29198e-05
0.000144182
-7.04179e-05
0.000140348
-7.64296e-05
0.000134259
-8.06509e-05
0.000126549
-8.27948e-05
0.0001178
-8.25954e-05
0.000108573
-7.98239e-05
9.94376e-05
-7.43143e-05
9.0996e-05
-6.60018e-05
8.39002e-05
-5.4971e-05
7.88536e-05
-4.15114e-05
7.65967e-05
-2.61776e-05
7.79009e-05
8.35406e-05
-9.83696e-06
-2.32456e-06
2.96592e-05
-7.80052e-06
7.41569e-05
-1.5289e-05
0.000106582
-2.38964e-05
0.000129013
-3.29173e-05
0.000143276
-4.17885e-05
0.000150936
-5.00494e-05
0.000153298
-5.73098e-05
0.000151442
-6.32231e-05
0.000146261
-6.7466e-05
0.000138501
-6.97245e-05
0.000128807
-6.96854e-05
0.000117761
-6.70369e-05
0.000105925
-6.14799e-05
9.38806e-05
-5.27536e-05
8.22697e-05
-4.06798e-05
7.18264e-05
-2.5228e-05
6.34018e-05
-6.60237e-06
5.7971e-05
1.46471e-05
5.66515e-05
6.06858e-05
3.75019e-05
-2.26135e-06
3.19206e-05
-7.46461e-06
7.93602e-05
-1.44252e-05
0.000113543
-2.22277e-05
0.000136815
-3.01596e-05
0.000151208
-3.76614e-05
0.000158438
-4.4283e-05
0.00015992
-4.96487e-05
0.000156808
-5.34286e-05
0.000150041
-5.53153e-05
0.000140388
-5.50057e-05
0.000128498
-5.21875e-05
0.000114943
-4.65323e-05
0.000100269
-3.76974e-05
8.50457e-05
-2.5344e-05
6.99163e-05
-9.17794e-06
5.56603e-05
1.09766e-05
4.32473e-05
3.50617e-05
3.3886e-05
6.26083e-05
2.91049e-05
3.08048e-05
9.24893e-05
-2.16288e-06
3.40835e-05
-6.98588e-06
8.41832e-05
-1.32312e-05
0.000119788
-1.99526e-05
0.000143536
-2.64225e-05
0.000157678
-3.20774e-05
0.000164093
-3.64725e-05
0.000164315
-3.92451e-05
0.000159581
-4.00854e-05
0.000150881
-3.87132e-05
0.000139016
-3.48573e-05
0.000124642
-2.82385e-05
0.000108324
-1.85546e-05
9.05855e-05
-5.4712e-06
7.19624e-05
1.13773e-05
5.30678e-05
3.23638e-05
3.46737e-05
5.78058e-05
1.78052e-05
8.78401e-05
3.8517e-06
0.000122185
-5.24033e-06
-6.72988e-06
0.00015972
-2.02423e-06
3.61077e-05
-6.34165e-06
8.85006e-05
-1.16493e-05
0.000125096
-1.69562e-05
0.000148843
-2.15049e-05
0.000162227
-2.47128e-05
0.0001673
-2.61255e-05
0.000165727
-2.5381e-05
0.000158836
-2.21816e-05
0.000147682
-1.62734e-05
0.000133108
-7.42865e-06
0.000115797
4.57156e-06
9.63236e-05
1.99545e-05
7.52025e-05
3.89754e-05
5.29415e-05
6.19351e-05
3.01081e-05
8.91879e-05
7.42094e-06
0.000121116
-1.41227e-05
0.000158039
-3.30713e-05
0.000199969
-4.71705e-05
-5.27589e-05
0.000245998
-1.84305e-06
3.79507e-05
-5.51627e-06
9.21738e-05
-9.63443e-06
0.000129214
-1.31424e-05
0.000152351
-1.52311e-05
0.000164315
-1.52757e-05
0.000167345
-1.27874e-05
0.000163239
-7.37893e-06
0.000153428
1.25906e-06
0.000139044
1.33731e-05
0.000120994
2.91572e-05
0.000100013
4.87624e-05
7.67185e-05
7.23073e-05
5.16576e-05
9.9897e-05
2.53518e-05
0.000131651
-1.64609e-06
0.000167742
-2.86696e-05
0.000208427
-5.48076e-05
0.000254055
-7.86993e-05
0.000304941
-9.80565e-05
-0.00010846
0.000360641
-1.61946e-06
3.95702e-05
-4.50096e-06
9.50553e-05
-7.15427e-06
0.000131867
-8.4358e-06
0.000153633
-7.45816e-06
0.000163338
-3.52366e-06
0.000163411
3.92505e-06
0.00015579
1.53379e-05
0.000142015
3.10762e-05
0.000123306
5.14196e-05
0.00010065
7.65662e-05
7.48662e-05
0.000106626
4.66583e-05
0.000141617
1.6667e-05
0.00018146
-1.44916e-05
0.000225998
-4.61841e-05
0.000275032
-7.77031e-05
0.000328392
-0.000108168
0.00038606
-0.000136367
0.000448323
-0.00016032
-0.000175567
0.00051543
-1.35497e-06
4.09252e-05
-3.2908e-06
9.69912e-05
-4.18457e-06
0.000132761
-2.77658e-06
0.000152225
1.92929e-06
0.000158632
1.07379e-05
0.000154602
2.43144e-05
0.000142214
4.3216e-05
0.000123113
6.79067e-05
9.86151e-05
9.8757e-05
6.98001e-05
0.000136032
3.75911e-05
0.00017987
2.82069e-06
0.00023025
-3.37132e-05
0.000286959
-7.12004e-05
0.000349554
-0.000108779
0.000417348
-0.000145497
0.000489436
-0.000180256
0.000564812
-0.000211744
0.000642775
-0.000238282
-0.000257328
0.000724536
-1.05054e-06
4.19757e-05
-1.87912e-06
9.78197e-05
-6.98834e-07
0.000131581
3.89528e-06
0.000147631
1.3039e-05
0.000149488
2.76786e-05
0.000139962
4.86249e-05
0.000121268
7.65858e-05
9.51521e-05
0.000112178
6.30232e-05
0.000155922
2.60558e-05
0.000208228
-1.47144e-05
0.00026936
-5.83114e-05
0.000339393
-0.000103747
0.000418145
-0.000149952
0.000505075
-0.000195709
0.000599153
-0.000239575
0.000698692
-0.000279795
0.000801152
-0.000314204
0.000903307
-0.000340437
-0.000360535
0.00100651
-7.04087e-07
4.26798e-05
-2.50306e-07
9.73659e-05
3.34506e-06
0.000127985
1.16608e-05
0.000139315
2.60008e-05
0.000135148
4.74814e-05
0.000118482
7.70886e-05
9.16604e-05
0.000115709
5.65313e-05
0.000164144
1.45891e-05
0.000223101
-3.29012e-05
0.000293188
-8.48024e-05
0.000374896
-0.000140019
0.000468571
-0.000197422
0.000574385
-0.000255766
0.000692275
-0.000313599
0.000821814
-0.000369114
0.0009619
-0.000419881
0.00110977
-0.000462078
0.00125777
-0.000488428
-0.000485397
0.00138263
-3.08903e-07
4.29887e-05
1.6258e-06
9.54312e-05
8.01635e-06
0.000121595
2.0641e-05
0.00012669
4.09945e-05
0.000114795
7.03818e-05
8.90945e-05
0.000109974
5.2068e-05
0.000160837
5.66811e-06
0.000223939
-4.85126e-05
0.000300147
-0.000109109
0.000390225
-0.000174881
0.000494844
-0.000244638
0.000614611
-0.00031719
0.000750157
-0.000391312
0.000902293
-0.000465736
0.00107234
-0.000539156
0.00126267
-0.000610215
0.00147807
-0.000677483
0.00172967
-0.000740023
-0.000796824
0.0020411
1.50483e-07
4.28382e-05
3.80237e-06
9.17794e-05
1.34238e-05
0.000111973
3.10133e-05
0.000109101
5.82708e-05
8.75371e-05
9.66925e-05
5.06728e-05
0.00014762
1.14035e-06
0.000212257
-5.89685e-05
0.000291661
-0.000127917
0.000386735
-0.000204182
0.000498212
-0.000286357
0.000626665
-0.000373091
0.000772542
-0.000463067
0.00093624
-0.00055501
0.00111824
-0.000647736
0.00131932
-0.000740236
0.00154089
-0.000831781
0.00178546
-0.000922055
0.00205666
-0.00101122
-0.00109258
0.00235242
6.94434e-07
4.21438e-05
6.34875e-06
8.6125e-05
1.97068e-05
9.86152e-05
4.30001e-05
8.58077e-05
7.81357e-05
5.24015e-05
0.000126784
2.02432e-06
0.000190411
-6.24869e-05
0.000270273
-0.00013883
0.000367385
-0.00022503
0.000482494
-0.000319291
0.000616048
-0.000419911
0.00076819
-0.000525234
0.000938785
-0.000633661
0.00112746
-0.000743683
0.00133368
-0.000853953
0.00155682
-0.000963376
0.00179624
-0.00107121
0.0020513
-0.00117711
0.00232102
-0.00128094
-0.0013743
0.00260273
1.3493e-06
4.07945e-05
9.34937e-06
7.8125e-05
2.7028e-05
8.09366e-05
5.68503e-05
5.59854e-05
0.000100915
8.33705e-06
0.000161022
-5.80826e-05
0.000238677
-0.000140142
0.000335055
-0.000235208
0.000450946
-0.00034092
0.000586697
-0.000455043
0.000742188
-0.000575402
0.00091682
-0.000699865
0.00110954
-0.000826386
0.00131892
-0.000953061
0.00154319
-0.00107822
0.0017803
-0.00120049
0.00202799
-0.0013189
0.00228371
-0.00143283
0.00254466
-0.00154189
-0.00163859
0.00280895
2.14381e-06
3.86507e-05
1.2893e-05
6.73758e-05
3.55512e-05
5.82784e-05
7.28004e-05
1.87362e-05
0.000126888
-4.57506e-05
0.000199663
-0.000130857
0.000292538
-0.000233018
0.000406422
-0.000349092
0.000541634
-0.000476132
0.000697852
-0.000611262
0.000874096
-0.000751646
0.00106875
-0.000894523
0.00127966
-0.00103729
0.0015042
-0.0011776
0.00173944
-0.00131346
0.00198221
-0.00144327
0.00222922
-0.0015659
0.00247706
-0.00168067
0.00272239
-0.00178722
-0.00187994
0.00296374
3.10562e-06
3.55451e-05
1.70612e-05
5.34203e-05
4.54171e-05
2.99224e-05
9.10292e-05
-2.68759e-05
0.000156217
-0.000110938
0.000242747
-0.000217388
0.000351755
-0.000342025
0.000483633
-0.00048097
0.000637955
-0.000630454
0.000813439
-0.000786746
0.00100799
-0.000946194
0.0012188
-0.00110533
0.00144253
-0.00126102
0.00167548
-0.00141056
0.00191382
-0.0015518
0.00215373
-0.00168317
0.00239155
-0.00180372
0.00262385
-0.00191297
0.00284764
-0.00201101
-0.00209427
0.00306197
4.25821e-06
3.12868e-05
2.19173e-05
3.57611e-05
5.67192e-05
-4.87943e-06
0.000111617
-8.1774e-05
0.000188879
-0.0001882
0.000290006
-0.000318516
0.000415607
-0.000467625
0.000565273
-0.000630636
0.000737529
-0.00080271
0.000929876
-0.000979093
0.00113894
-0.00115525
0.00136068
-0.00132708
0.00159071
-0.00149105
0.00182456
-0.00164441
0.00205792
-0.00178516
0.00228691
-0.00191216
0.00250812
-0.00202494
0.00271881
-0.00212366
0.00291685
-0.00220905
-0.00227943
0.00310201
5.61844e-06
2.56684e-05
2.74983e-05
1.38812e-05
6.94856e-05
-4.68667e-05
0.000134514
-0.000146802
0.000224622
-0.000278308
0.000340803
-0.000434697
0.000482843
-0.000609665
0.000649222
-0.000797015
0.000837148
-0.000990636
0.00104273
-0.00118468
0.0012613
-0.00137382
0.00148775
-0.00155353
0.00171697
-0.00172027
0.00194416
-0.0018716
0.00216515
-0.00200615
0.00237652
-0.00212352
0.00257571
-0.00222413
0.00276104
-0.00230899
0.00293159
-0.0023796
-0.00243583
0.00308799
7.19526e-06
1.84731e-05
3.38087e-05
-1.27322e-05
8.36665e-05
-9.67246e-05
0.000159516
-0.000222652
0.000262937
-0.000381728
0.000394117
-0.000565878
0.000551698
-0.000767246
0.000732758
-0.000978075
0.000933007
-0.00119089
0.00114715
-0.00139882
0.00136938
-0.00159605
0.00159389
-0.00177804
0.00181534
-0.00194172
0.00202919
-0.00208545
0.00223191
-0.00220887
0.00242107
-0.00231268
0.00259528
-0.00239834
0.00275409
-0.0024678
0.00289776
-0.00252328
-0.00256584
0.00302778
8.98911e-06
9.48404e-06
4.08178e-05
-4.45608e-05
9.91281e-05
-0.000155035
0.000186265
-0.000309789
0.000303059
-0.000498522
0.000448567
-0.000711386
0.000619974
-0.000938652
0.000812747
-0.00117085
0.00102105
-0.00139919
0.00123837
-0.00161614
0.00145814
-0.00181582
0.00167435
-0.00199425
0.00188201
-0.00214938
0.00207738
-0.00228081
0.00225802
-0.00238952
0.00242276
-0.00247742
0.00257145
-0.00254703
0.00270478
-0.00260113
0.00282399
-0.00264249
-0.00267301
0.00293116
1.09917e-05
-1.50769e-06
4.8459e-05
-8.20281e-05
0.000115651
-0.000222227
0.000214242
-0.000408379
0.000343989
-0.000628269
0.000502482
-0.00086988
0.000685199
-0.00112137
0.000885915
-0.00137156
0.00109741
-0.00161069
0.0013123
-0.00183103
0.0015238
-0.00202731
0.00172629
-0.00219674
0.00191566
-0.00233875
0.00208937
-0.00245452
0.0022463
-0.00254645
0.00238655
-0.00261767
0.0025111
-0.00267158
0.0026215
-0.00271152
0.00271961
-0.00274061
-0.00276117
0.00280778
1.31861e-05
-1.46938e-05
5.66293e-05
-0.000125471
0.000132934
-0.000298532
0.00024279
-0.000518235
0.000384535
-0.000770014
0.000554
-0.00103934
0.000744814
-0.00131218
0.000949164
-0.00157591
0.00115879
-0.00182031
0.00136596
-0.0020382
0.00156426
-0.00222561
0.00174901
-0.00238149
0.00191737
-0.00250711
0.00206818
-0.00260533
0.00220165
-0.00267992
0.00231897
-0.00273499
0.00242193
-0.00277454
0.00251263
-0.00280222
0.0025932
-0.00282118
-0.00283393
0.00266595
1.55462e-05
-3.024e-05
6.51905e-05
-0.000175116
0.000150598
-0.000383939
0.000271133
-0.00063877
0.000423382
-0.000922263
0.000601203
-0.00121717
0.000796402
-0.00150738
0.000999865
-0.00177938
0.00120279
-0.00202324
0.00139772
-0.00223313
0.00157916
-0.00240705
0.00174374
-0.00254607
0.00189008
-0.00265345
0.00201837
-0.00273362
0.00212996
-0.0027915
0.00222682
-0.00283186
0.00231126
-0.00285897
0.00238554
-0.00287651
0.00245182
-0.00288746
-0.00289428
0.00251217
1.8037e-05
-4.8277e-05
7.39708e-05
-0.000231049
0.0001682
-0.000478169
0.000298413
-0.000768983
0.000459166
-0.00108302
0.000642265
-0.00140026
0.000837896
-0.00170301
0.0010361
-0.00197758
0.00122814
-0.00221528
0.00140739
-0.00241238
0.00156967
-0.00256933
0.00171314
-0.00268955
0.00183784
-0.00277815
0.00194514
-0.00284092
0.00203718
-0.00288354
0.00211642
-0.0029111
0.00218533
-0.00292788
0.00224615
-0.00293733
0.00230083
-0.00294213
-0.00294456
0.00235111
2.0614e-05
-6.8891e-05
8.27686e-05
-0.000293204
0.000185249
-0.000580649
0.000323739
-0.000907472
0.000490576
-0.00124985
0.000675599
-0.00158529
0.000867749
-0.00189516
0.0010568
-0.00216663
0.00123465
-0.00239313
0.00139596
-0.00257369
0.00153811
-0.00271148
0.00166076
-0.0028122
0.00176518
-0.00288257
0.00185362
-0.00292936
0.0019287
-0.00295862
0.00199307
-0.00297547
0.00204912
-0.00298393
0.00209888
-0.00298709
0.00214404
-0.00298729
-0.00298649
0.00218597
2.32245e-05
-9.21155e-05
9.13591e-05
-0.000361339
0.000201229
-0.000690519
0.000346235
-0.00105248
0.000516443
-0.00142006
0.000699975
-0.00176882
0.00088504
-0.00208023
0.00106173
-0.00234332
0.0012231
-0.0025545
0.00136536
-0.00271595
0.00148748
-0.0028336
0.00159045
-0.00291517
0.00167651
-0.00296863
0.00174843
-0.00300128
0.00180905
-0.00301925
0.00186096
-0.00302737
0.00190632
-0.00302929
0.0019469
-0.00302767
0.00198405
-0.00302444
-0.00302129
0.00201884
2.58083e-05
-0.000117924
9.95029e-05
-0.000435033
0.000215623
-0.000806639
0.000365103
-0.00120196
0.000535825
-0.00159078
0.000714601
-0.0019476
0.000889485
-0.00225511
0.00105144
-0.00250528
0.00119501
-0.00269807
0.00131807
-0.002839
0.00142103
-0.00293657
0.00150598
-0.00300012
0.00157578
-0.00303843
0.00163346
-0.00305896
0.00168182
-0.00306761
0.00172324
-0.00306879
0.0017596
-0.00306566
0.00179236
-0.00306043
0.00182258
-0.00305467
-0.00304976
0.00185105
2.83e-05
-0.000146224
0.000106957
-0.00051369
0.00022795
-0.000927632
0.000379669
-0.00135368
0.000548063
-0.00175918
0.000719146
-0.00211868
0.000881388
-0.00241735
0.00102706
-0.00265096
0.00115238
-0.00282338
0.00125679
-0.00294341
0.00134197
-0.00302174
0.00141074
-0.0030689
0.00146633
-0.00309402
0.00151179
-0.00310441
0.00154971
-0.00310553
0.00158219
-0.00310127
0.00161081
-0.00309427
0.00163671
-0.00308633
0.00166072
-0.00307868
-0.00307245
0.00168341
3.06319e-05
-0.000176856
0.000113487
-0.000596546
0.000237783
-0.00105193
0.000389426
-0.00150532
0.00055281
-0.00192256
0.000713711
-0.00227958
0.00086153
-0.00256517
0.000990125
-0.00277955
0.0010974
-0.00293066
0.00118422
-0.00303023
0.0012532
-0.00309072
0.00130765
-0.00312335
0.00135089
-0.00313726
0.00138581
-0.00313933
0.00141474
-0.00313446
0.00143944
-0.00312597
0.00146119
-0.00311601
0.00148089
-0.00310603
0.00149917
-0.00309696
-0.00308969
0.00151641
3.2736e-05
0.000118879
0.000244781
0.000394056
0.000550023
0.000698772
0.00083103
0.000942377
0.0010323
0.00110284
0.00115726
0.00119909
0.00123157
0.00125732
0.00127834
0.0012961
0.00131159
0.00132552
0.00133836
0.00135037
3.27167e-05
0.000177165
0.000118791
0.000597122
0.000244571
0.00105252
0.000393682
0.00150576
0.000549457
0.00192274
0.000698006
0.00227947
0.000830074
0.00256478
0.000941247
0.00277891
0.00103102
0.00292982
0.00110143
0.00302924
0.00115575
0.00308961
0.00119749
0.00312215
0.00122989
0.00313599
0.00125558
0.00313801
0.00127655
0.00313309
0.00129425
0.00312456
0.0013097
0.00311457
0.0013236
0.00310456
0.0013364
0.00309546
0.00308816
0.00134838
3.06167e-05
0.000146549
0.000113412
0.000514326
0.000237597
0.000928335
0.000389082
0.00135427
0.000552275
0.00175955
0.000712968
0.00211878
0.000860581
0.00241717
0.000988984
0.00265051
0.00109609
0.00282272
0.00118276
0.00294256
0.00125161
0.00302075
0.00130596
0.0030678
0.00134911
0.00309284
0.00138396
0.00310316
0.00141282
0.00310423
0.00143746
0.00309992
0.00145916
0.00309288
0.00147881
0.0030849
0.00149705
0.00307722
0.00307095
0.00151426
2.82891e-05
0.000118259
0.000106896
0.000435719
0.00022779
0.000807441
0.000379362
0.0012027
0.000547568
0.00159135
0.000718439
0.00194791
0.000880463
0.00225515
0.00102593
0.00250505
0.00115105
0.00269759
0.00125529
0.00283832
0.00134032
0.00293573
0.00140897
0.00299915
0.00146445
0.00303735
0.00150982
0.0030578
0.00154766
0.00306639
0.00158007
0.00306751
0.00160862
0.00306433
0.00163447
0.00305905
0.00165844
0.00305325
0.0030483
0.00168108
2.58012e-05
9.24582e-05
9.94561e-05
0.000362064
0.000215491
0.000691405
0.000364836
0.00105336
0.000535379
0.0014208
0.000713944
0.00176934
0.0008886
0.00208049
0.00105033
0.00234332
0.00119368
0.00255424
0.00131654
0.00271547
0.00141933
0.00283293
0.00150413
0.00291435
0.0015738
0.00296768
0.00163137
0.00300023
0.00167963
0.00301812
0.00172097
0.00302618
0.00175726
0.00302804
0.00178995
0.00302636
0.00182012
0.00302308
0.00301988
0.00184854
2.3221e-05
6.92372e-05
9.13258e-05
0.000293959
0.000201125
0.000581606
0.000346013
0.000908468
0.000516054
0.00125076
0.000699381
0.00158602
0.000884213
0.00189566
0.00106067
0.00216687
0.0012218
0.00239311
0.00136383
0.00257343
0.00148575
0.00271102
0.00158855
0.00281155
0.00167445
0.00288178
0.00174624
0.00292844
0.00180674
0.00295761
0.00185854
0.00297438
0.00190381
0.00298276
0.00194431
0.00298586
0.0019814
0.002986
0.00298515
0.00201613
2.06138e-05
4.86234e-05
8.27482e-05
0.000231825
0.000185173
0.000479181
0.000323562
0.000770079
0.00049025
0.00108407
0.000675078
0.00140119
0.000867
0.00170374
0.0010558
0.00197807
0.0012334
0.00221551
0.00139446
0.00241237
0.00153638
0.0025691
0.00165882
0.00268911
0.00176306
0.00277754
0.00185133
0.00284017
0.00192627
0.00288268
0.00199051
0.00291014
0.00204645
0.00292683
0.00209612
0.00293619
0.00214118
0.00294093
0.0029433
0.00218304
1.80398e-05
3.05836e-05
7.39626e-05
0.000175902
0.000168152
0.000384992
0.000298283
0.000639948
0.000458907
0.000923451
0.000641828
0.00121827
0.000837239
0.00150833
0.00103519
0.00178011
0.00122697
0.00202374
0.00140595
0.00223339
0.00156797
0.00240707
0.0017112
0.00254588
0.00183568
0.00265306
0.00194278
0.00273307
0.00203464
0.00279081
0.00211373
0.00283104
0.00218251
0.00285806
0.0022432
0.0028755
0.00229777
0.00288636
0.00289311
0.00234796
1.55518e-05
1.50317e-05
6.51939e-05
0.00012626
0.000150576
0.00029961
0.000271049
0.000519474
0.000423191
0.000771309
0.000600856
0.0010406
0.000795852
0.00131333
0.000999071
0.00157689
0.00120173
0.00182108
0.00139638
0.00203874
0.00157753
0.00222592
0.00174183
0.00238158
0.00188791
0.00250698
0.00201597
0.00260501
0.00212734
0.00267944
0.00222402
0.00273437
0.00230828
0.00277379
0.00238242
0.00280136
0.00244857
0.00282022
0.00283288
0.0025088
1.31944e-05
1.83736e-06
5.6644e-05
8.28104e-05
0.000132938
0.000223316
0.000242752
0.00040966
0.000384414
0.000629647
0.000553747
0.000871271
0.000744379
0.0011227
0.0009485
0.00137277
0.00115786
0.00161173
0.00136474
0.00183186
0.00156274
0.00202792
0.00174718
0.00219713
0.00191525
0.00233892
0.00206578
0.00245448
0.002199
0.00254623
0.00231608
0.00261728
0.00241884
0.00267104
0.00250935
0.00271085
0.00258975
0.00273981
0.00276027
0.00266236
1.10029e-05
-9.16551e-06
4.84852e-05
4.5328e-05
0.000115681
0.00015612
0.000214249
0.000311092
0.000343937
0.000499959
0.000502325
0.000712882
0.000684886
0.000940138
0.000885396
0.00117226
0.00109664
0.00140048
0.00131124
0.00161726
0.00152242
0.00181674
0.00172459
0.00199496
0.00191364
0.00214987
0.00208702
0.00228109
0.00224366
0.00238959
0.00238363
0.00247731
0.00250792
0.00254675
0.00261809
0.00260068
0.00271599
0.00264191
0.0026723
0.00280397
9.00357e-06
-1.81691e-05
4.08564e-05
1.34752e-05
9.91843e-05
9.77924e-05
0.000186318
0.000223959
0.000303076
0.000383201
0.000448507
0.000567452
0.000619786
0.000768858
0.000812379
0.000979667
0.00102046
0.0011924
0.0012375
0.00140022
0.00145695
0.00159729
0.00167283
0.00177909
0.00188014
0.00194256
0.00207515
0.00208608
0.00225545
0.00220929
0.00241986
0.0023129
0.00256824
0.00239837
0.00270128
0.00246764
0.00282024
0.00252295
0.00256537
0.00292717
7.21371e-06
-2.53828e-05
3.3861e-05
-1.31721e-05
8.37506e-05
4.79028e-05
0.000159616
0.000148093
0.000263023
0.000279794
0.000394151
0.000436323
0.000551633
0.000611376
0.000732544
0.000798757
0.00093259
0.000992356
0.00114648
0.00118633
0.00136841
0.00137535
0.00159259
0.00155491
0.00181367
0.00172148
0.00202714
0.00187261
0.00222948
0.00200695
0.00241827
0.00212412
0.00259212
0.00222452
0.00275058
0.00230918
0.00289393
0.0023796
0.00243565
0.00302365
5.64158e-06
-3.10244e-05
2.75656e-05
-3.50961e-05
6.95987e-05
5.86976e-06
0.000134659
8.30329e-05
0.000224775
0.000189679
0.000340929
0.000320169
0.000482898
0.000469407
0.000649158
0.000632497
0.000836912
0.000804602
0.00104227
0.000980967
0.00126056
0.00115706
0.00148669
0.00132878
0.00171555
0.00149262
0.00194235
0.0016458
0.00216293
0.00178637
0.00237389
0.00191316
0.00257267
0.00202573
0.0027576
0.00212425
0.00292776
0.00220943
0.00227961
0.00308381
4.28655e-06
-3.53109e-05
2.20001e-05
-5.28097e-05
5.68608e-05
-2.89909e-05
0.000111807
2.80869e-05
0.000189094
0.000112392
0.000290215
0.000219048
0.00041577
0.000343852
0.000565346
0.000482922
0.000737462
0.000632486
0.000929617
0.000788813
0.00113843
0.000948251
0.00135988
0.00110734
0.00158957
0.00126293
0.00182303
0.00141234
0.00205598
0.00155342
0.00228453
0.00168462
0.0025053
0.00180496
0.00271554
0.00191401
0.00291313
0.00201183
0.00209488
0.00309786
3.13913e-06
-3.845e-05
1.71581e-05
-6.68286e-05
4.55834e-05
-5.74162e-05
9.12552e-05
-1.75848e-05
0.000156482
4.71652e-05
0.000243023
0.000132506
0.000352005
0.000234869
0.000483819
0.000351108
0.000638031
0.000478274
0.000813355
0.000613488
0.00100769
0.000753913
0.00121824
0.000896788
0.00144166
0.00103951
0.00167425
0.00117974
0.00191219
0.00131548
0.00215167
0.00144515
0.00238901
0.00156761
0.00262084
0.00168219
0.00284413
0.00178854
0.00188106
0.00305796
2.1816e-06
-4.06316e-05
1.30002e-05
-7.76473e-05
3.57337e-05
-8.01497e-05
7.30482e-05
-5.48994e-05
0.000127182
-6.96818e-06
0.000199976
5.9712e-05
0.000292841
0.000142004
0.000406677
0.000237271
0.000541803
0.000343148
0.000697893
0.000457398
0.000873962
0.000577844
0.0010684
0.000702354
0.00127903
0.00082888
0.00150325
0.000955523
0.00173812
0.00108061
0.00198048
0.00120279
0.00222703
0.00132106
0.00247438
0.00143484
0.00271919
0.00154373
0.00164025
0.00296
1.38943e-06
-4.20211e-05
9.45993e-06
-8.57178e-05
2.72122e-05
-9.7902e-05
5.70967e-05
-8.47838e-05
0.000101204
-5.10752e-05
0.000161329
-4.13394e-07
0.000238976
6.43577e-05
0.000335316
0.000140931
0.000451136
0.000227328
0.000586782
0.000321752
0.00074213
0.000422497
0.000916576
0.000527907
0.00110907
0.000636384
0.00131818
0.000746419
0.00154212
0.000856668
0.00177887
0.000966038
0.00202614
0.00107379
0.00228139
0.00117959
0.00254183
0.00128329
0.00137653
0.00280555
7.33808e-07
-4.27549e-05
6.45225e-06
-9.14362e-05
1.98722e-05
-0.000111322
4.32122e-05
-0.000108124
7.83737e-05
-8.62367e-05
0.000127025
-4.90649e-05
0.000190632
7.50711e-07
0.00027045
6.11135e-05
0.000367494
0.000130284
0.000482509
0.000206737
0.00061594
0.000289065
0.000767931
0.000375917
0.00093834
0.000465975
0.00112679
0.000557967
0.00133275
0.000650712
0.00155558
0.000743202
0.00179466
0.000834715
0.00204931
0.000924939
0.00231855
0.00101404
0.00109537
0.00259972
1.85014e-07
-4.29399e-05
3.88556e-06
-9.51368e-05
1.35447e-05
-0.000120981
3.11506e-05
-0.00012573
5.84007e-05
-0.000113487
9.67924e-05
-8.74566e-05
0.00014767
-5.01266e-05
0.000212238
-3.45469e-06
0.000291558
5.09643e-05
0.00038653
0.000111764
0.000497891
0.000177705
0.000626211
0.000247597
0.000771936
0.00032025
0.000935461
0.000394442
0.00111727
0.000468908
0.00131812
0.000542348
0.00153942
0.000613415
0.00178367
0.000680687
0.00205448
0.000743241
0.000800119
0.00234973
-2.84004e-07
-4.26559e-05
1.6735e-06
-9.70943e-05
8.06343e-06
-0.000127371
2.06577e-05
-0.000138324
4.09523e-05
-0.000133781
7.02564e-05
-0.000116761
0.000109747
-8.96171e-05
0.000160495
-5.42024e-05
0.000223472
-1.20127e-05
0.000299548
3.56874e-05
0.000389492
8.77614e-05
0.000493974
0.000143115
0.000613604
0.000200619
0.000749011
0.000259034
0.000901011
0.000316908
0.00107091
0.000372444
0.0012611
0.000423225
0.00147635
0.000465443
0.00172775
0.000491838
0.000489003
0.00203887
-6.93881e-07
-4.1962e-05
-2.53855e-07
-9.75343e-05
3.28839e-06
-0.000130913
1.15103e-05
-0.000146546
2.57209e-05
-0.000147992
4.70446e-05
-0.000138084
7.64758e-05
-0.000119048
0.000114909
-9.26361e-05
0.000163152
-6.02553e-05
0.000221919
-2.30794e-05
0.000291823
1.78574e-05
0.000373358
6.15803e-05
0.000466875
0.000107102
0.000572553
0.000153356
0.000690336
0.000199126
0.000819805
0.000242974
0.000959873
0.000283157
0.00110779
0.000317522
0.0012559
0.000343728
0.000363871
0.00138104
-1.05986e-06
-4.09022e-05
-1.94874e-06
-9.66454e-05
-8.8721e-07
-0.000131975
3.53414e-06
-0.000150967
1.24607e-05
-0.000156919
2.685e-05
-0.000152474
4.75243e-05
-0.000139723
7.52016e-05
-0.000120313
0.000110507
-9.55609e-05
0.00015397
-6.65424e-05
0.000206006
-3.41785e-05
0.000266887
6.99661e-07
0.000336694
3.72947e-05
0.000415253
7.47967e-05
0.000502035
0.000112344