/*--------------------------------*- C++ -*----------------------------------*\
  =========                 |
  \\      /  F ield         | OpenFOAM: The Open Source CFD Toolbox
   \\    /   O peration     | Website:  https://openfoam.org
    \\  /    A nd           | Version:  6.0
     \\/     M anipulation  |
\*---------------------------------------------------------------------------*/
FoamFile
{
    version     2.0;
    format      ascii;
    class       volScalarField;
    location    "70";
    object      p;
}
// * * * * * * * * * * * * * * * * * * * * * * * * * * * * * * * * * * * * * //

dimensions      [0 2 -2 0 0 0 0];

internalField   nonuniform List<scalar> 
12500
(
-0.496915
-0.496949
-0.496889
-0.49679
-0.496821
-0.497126
-0.49779
-0.498845
-0.500285
-0.502079
-0.504182
-0.506547
-0.509124
-0.511869
-0.51474
-0.5177
-0.520718
-0.523767
-0.526825
-0.529872
-0.532872
-0.535815
-0.538877
-0.542237
-0.544061
-0.505628
-0.505308
-0.505062
-0.504876
-0.504882
-0.505222
-0.50598
-0.507188
-0.508836
-0.510891
-0.513305
-0.516025
-0.518997
-0.522169
-0.525494
-0.528927
-0.532429
-0.535964
-0.539503
-0.543018
-0.546471
-0.54984
-0.553303
-0.557058
-0.559245
-0.513944
-0.513267
-0.512827
-0.512545
-0.512516
-0.512878
-0.513715
-0.515056
-0.516891
-0.519183
-0.521881
-0.524927
-0.528262
-0.531828
-0.535568
-0.539432
-0.543371
-0.547341
-0.551305
-0.555227
-0.55906
-0.56278
-0.566554
-0.570599
-0.573073
-0.5218
-0.520768
-0.520129
-0.519741
-0.519662
-0.520028
-0.520921
-0.52237
-0.524363
-0.526861
-0.529809
-0.533145
-0.536803
-0.54072
-0.544832
-0.549079
-0.553404
-0.557756
-0.562085
-0.566348
-0.570494
-0.574488
-0.578486
-0.582719
-0.585408
-0.529144
-0.527764
-0.526922
-0.526417
-0.52627
-0.526617
-0.527539
-0.529063
-0.531177
-0.533841
-0.536996
-0.540577
-0.544512
-0.54873
-0.553162
-0.55774
-0.562397
-0.567071
-0.571705
-0.576247
-0.580637
-0.584833
-0.588973
-0.593299
-0.596136
-0.535932
-0.534219
-0.533173
-0.532539
-0.532305
-0.532605
-0.533522
-0.535081
-0.537272
-0.540054
-0.543365
-0.547137
-0.551293
-0.555757
-0.560451
-0.5653
-0.570228
-0.575164
-0.580041
-0.584798
-0.589369
-0.5937
-0.597908
-0.602242
-0.605167
-0.542133
-0.540109
-0.538863
-0.538089
-0.537746
-0.537969
-0.53884
-0.540389
-0.542606
-0.545449
-0.548858
-0.55276
-0.557074
-0.561719
-0.56661
-0.571664
-0.576798
-0.581932
-0.586988
-0.591898
-0.596586
-0.600991
-0.605202
-0.609468
-0.612433
-0.547729
-0.545426
-0.543986
-0.543062
-0.542589
-0.542701
-0.543485
-0.544972
-0.547157
-0.55
-0.553441
-0.557404
-0.561806
-0.566561
-0.571578
-0.576766
-0.582036
-0.587299
-0.59247
-0.597468
-0.602214
-0.606634
-0.610791
-0.614923
-0.617882
-0.552717
-0.550174
-0.548551
-0.54747
-0.546846
-0.546813
-0.547465
-0.548838
-0.550929
-0.553705
-0.557107
-0.561058
-0.565473
-0.570261
-0.575328
-0.580576
-0.585909
-0.591231
-0.596447
-0.60147
-0.606211
-0.610591
-0.61464
-0.618577
-0.621489
-0.557109
-0.554372
-0.552582
-0.55134
-0.550546
-0.550337
-0.550812
-0.552015
-0.553952
-0.556593
-0.559882
-0.563745
-0.568096
-0.57284
-0.577878
-0.583109
-0.58843
-0.593737
-0.598929
-0.60391
-0.608586
-0.612867
-0.616755
-0.620437
-0.623255
-0.560931
-0.558052
-0.556117
-0.554714
-0.553734
-0.55332
-0.553577
-0.554559
-0.556281
-0.55872
-0.561826
-0.565527
-0.569737
-0.574359
-0.579293
-0.58443
-0.589664
-0.594884
-0.599982
-0.604854
-0.609399
-0.613519
-0.617187
-0.62055
-0.623214
-0.564223
-0.56126
-0.559204
-0.557643
-0.556467
-0.555824
-0.555827
-0.556543
-0.557995
-0.560171
-0.563028
-0.566497
-0.570495
-0.574925
-0.579681
-0.584654
-0.58973
-0.594794
-0.599729
-0.604424
-0.608769
-0.612661
-0.616041
-0.619003
-0.621434
-0.567041
-0.564052
-0.561903
-0.560192
-0.558815
-0.557925
-0.557646
-0.558057
-0.559194
-0.561055
-0.563606
-0.566785
-0.570509
-0.574682
-0.579198
-0.583943
-0.588797
-0.59364
-0.598346
-0.602795
-0.606869
-0.610455
-0.613464
-0.615926
-0.61801
-0.569452
-0.566495
-0.564282
-0.562432
-0.560853
-0.559706
-0.559127
-0.559205
-0.559993
-0.5615
-0.563701
-0.566541
-0.569942
-0.573808
-0.578031
-0.582493
-0.587071
-0.591633
-0.596049
-0.600184
-0.603909
-0.607103
-0.609644
-0.61148
-0.613064
-0.571534
-0.568662
-0.566414
-0.564439
-0.562664
-0.561258
-0.560369
-0.5601
-0.560518
-0.561645
-0.563467
-0.565935
-0.568977
-0.572498
-0.576388
-0.580525
-0.584779
-0.58901
-0.593074
-0.596826
-0.600121
-0.602825
-0.604786
-0.605851
-0.606741
-0.573377
-0.570638
-0.56838
-0.566294
-0.564332
-0.562673
-0.561475
-0.560856
-0.560897
-0.561633
-0.563062
-0.565142
-0.567804
-0.570955
-0.574484
-0.578263
-0.582153
-0.586004
-0.58966
-0.592957
-0.595736
-0.597845
-0.599101
-0.599239
-0.599212
-0.575078
-0.572509
-0.570262
-0.56808
-0.565945
-0.564044
-0.562546
-0.561587
-0.561257
-0.561608
-0.562644
-0.564332
-0.566607
-0.569376
-0.572525
-0.575919
-0.579409
-0.582834
-0.586021
-0.588789
-0.590959
-0.592363
-0.592788
-0.591852
-0.590679
-0.576741
-0.574367
-0.572147
-0.569881
-0.567587
-0.565461
-0.563684
-0.562402
-0.561722
-0.561702
-0.562359
-0.563664
-0.565554
-0.567937
-0.570692
-0.573677
-0.576732
-0.57968
-0.582333
-0.584492
-0.585958
-0.586546
-0.586023
-0.583898
-0.581375
-0.578476
-0.576305
-0.574119
-0.571781
-0.569344
-0.567013
-0.564981
-0.563405
-0.562401
-0.562039
-0.562338
-0.563276
-0.564791
-0.566786
-0.569135
-0.571684
-0.574262
-0.576676
-0.578722
-0.580185
-0.58085
-0.580519
-0.578954
-0.575575
-0.571559
-0.580392
-0.578417
-0.576266
-0.573862
-0.571297
-0.568785
-0.566527
-0.564689
-0.563396
-0.562721
-0.56269
-0.563282
-0.564431
-0.566035
-0.567959
-0.570038
-0.572087
-0.5739
-0.575258
-0.575935
-0.575705
-0.574368
-0.571694
-0.567059
-0.561496
-0.582598
-0.580795
-0.578668
-0.576202
-0.573522
-0.570852
-0.568399
-0.566335
-0.564787
-0.563834
-0.5635
-0.563762
-0.56455
-0.565752
-0.567224
-0.568788
-0.570246
-0.571379
-0.57196
-0.571759
-0.570553
-0.568145
-0.564337
-0.558509
-0.551444
-0.585194
-0.583522
-0.581403
-0.578874
-0.57609
-0.573284
-0.570665
-0.568408
-0.56664
-0.565437
-0.564822
-0.564764
-0.565186
-0.565965
-0.566944
-0.567934
-0.568724
-0.56909
-0.568801
-0.567635
-0.565381
-0.56187
-0.556951
-0.550051
-0.54164
-0.588269
-0.586674
-0.584537
-0.581939
-0.57906
-0.576136
-0.573376
-0.570954
-0.568994
-0.567564
-0.56668
-0.566301
-0.566339
-0.566659
-0.56709
-0.567434
-0.56747
-0.566973
-0.565719
-0.563497
-0.560125
-0.555477
-0.549472
-0.541612
-0.532093
-0.591899
-0.590314
-0.588127
-0.58545
-0.582478
-0.579448
-0.576568
-0.574002
-0.571867
-0.570221
-0.569067
-0.568353
-0.567974
-0.567784
-0.567601
-0.567217
-0.56641
-0.564957
-0.562645
-0.559281
-0.554709
-0.548833
-0.541612
-0.532592
-0.522143
-0.596139
-0.594492
-0.592217
-0.589445
-0.586377
-0.583247
-0.580256
-0.577557
-0.575254
-0.573389
-0.571951
-0.570871
-0.570029
-0.569267
-0.568394
-0.5672
-0.565466
-0.562982
-0.559552
-0.555008
-0.549213
-0.542068
-0.533429
-0.522785
-0.511638
-0.601026
-0.59924
-0.596838
-0.59395
-0.590775
-0.587543
-0.584442
-0.581609
-0.579131
-0.577031
-0.575279
-0.573788
-0.572425
-0.57102
-0.569378
-0.567294
-0.564564
-0.560999
-0.556437
-0.550747
-0.543837
-0.535641
-0.526069
-0.515145
-0.504726
-0.606582
-0.60458
-0.602006
-0.598978
-0.59568
-0.592334
-0.589113
-0.586134
-0.583461
-0.581096
-0.578986
-0.577027
-0.575073
-0.572948
-0.570459
-0.567414
-0.563633
-0.55896
-0.553274
-0.546494
-0.53858
-0.529531
-0.519376
-0.508288
-0.497334
-0.612811
-0.61052
-0.607731
-0.604533
-0.60109
-0.597612
-0.594251
-0.591102
-0.588201
-0.585526
-0.583003
-0.580508
-0.577886
-0.57496
-0.57155
-0.567483
-0.562613
-0.556823
-0.55004
-0.542231
-0.533405
-0.523608
-0.512915
-0.501487
-0.490036
-0.619705
-0.61706
-0.614012
-0.610614
-0.606999
-0.603362
-0.599834
-0.596479
-0.593306
-0.590266
-0.58726
-0.584152
-0.58078
-0.576975
-0.572575
-0.567438
-0.561456
-0.55456
-0.546722
-0.537956
-0.528312
-0.517869
-0.506725
-0.495038
-0.483322
-0.627251
-0.624192
-0.620845
-0.617215
-0.613398
-0.609572
-0.60584
-0.602236
-0.598735
-0.59526
-0.591694
-0.587886
-0.58368
-0.578919
-0.573469
-0.567227
-0.560129
-0.552153
-0.543315
-0.533669
-0.523297
-0.512298
-0.500782
-0.488903
-0.477038
-0.635431
-0.631907
-0.628225
-0.624332
-0.620282
-0.616231
-0.612251
-0.608343
-0.604446
-0.600458
-0.596242
-0.591644
-0.586517
-0.580729
-0.57418
-0.566813
-0.558609
-0.549591
-0.539817
-0.529372
-0.518358
-0.506888
-0.495073
-0.483065
-0.471144
-0.644224
-0.640193
-0.636144
-0.63196
-0.627644
-0.623328
-0.619051
-0.614773
-0.610402
-0.605809
-0.600845
-0.595362
-0.589229
-0.58235
-0.574666
-0.566167
-0.55688
-0.546871
-0.536229
-0.525063
-0.513486
-0.501615
-0.489556
-0.477456
-0.465514
-0.65361
-0.649036
-0.644594
-0.640092
-0.635478
-0.630854
-0.62622
-0.621497
-0.616561
-0.611261
-0.605446
-0.598979
-0.591761
-0.583736
-0.574893
-0.565269
-0.554936
-0.543992
-0.532552
-0.520737
-0.508667
-0.496451
-0.484189
-0.472016
-0.460065
-0.663566
-0.65842
-0.653564
-0.648722
-0.643776
-0.638793
-0.633735
-0.628481
-0.622876
-0.616758
-0.609982
-0.602436
-0.594061
-0.584847
-0.574835
-0.564106
-0.55277
-0.540952
-0.528783
-0.516386
-0.50388
-0.491364
-0.478923
-0.466683
-0.454716
-0.674065
-0.668325
-0.663038
-0.657834
-0.65252
-0.647125
-0.641564
-0.635678
-0.629291
-0.622237
-0.61439
-0.605675
-0.59608
-0.585649
-0.574471
-0.562668
-0.550381
-0.537751
-0.524915
-0.511996
-0.499102
-0.486318
-0.473715
-0.461404
-0.449408
-0.685074
-0.678724
-0.672994
-0.667408
-0.661687
-0.655814
-0.64966
-0.643032
-0.63574
-0.627628
-0.618602
-0.608637
-0.597774
-0.58611
-0.573782
-0.560946
-0.547762
-0.534381
-0.520939
-0.507549
-0.494305
-0.481278
-0.468523
-0.456134
-0.444092
-0.696553
-0.689581
-0.6834
-0.67741
-0.671236
-0.664812
-0.657965
-0.650473
-0.642146
-0.632854
-0.62255
-0.611264
-0.599099
-0.586203
-0.572753
-0.55893
-0.544906
-0.530833
-0.516838
-0.503021
-0.489461
-0.476209
-0.463306
-0.450831
-0.438728
-0.708446
-0.700848
-0.69421
-0.687793
-0.681115
-0.674055
-0.6664
-0.657915
-0.648421
-0.637832
-0.626159
-0.613499
-0.600013
-0.585899
-0.571364
-0.556606
-0.5418
-0.52709
-0.512591
-0.498386
-0.484535
-0.471074
-0.458027
-0.445458
-0.433282
-0.720688
-0.712464
-0.705365
-0.698494
-0.69125
-0.683458
-0.674874
-0.665258
-0.654467
-0.642473
-0.629357
-0.615285
-0.600477
-0.58517
-0.569596
-0.553958
-0.538426
-0.523132
-0.508172
-0.493613
-0.479494
-0.465835
-0.452649
-0.439979
-0.427724
-0.733194
-0.724352
-0.716789
-0.709431
-0.701552
-0.692921
-0.683275
-0.672391
-0.660179
-0.646684
-0.632067
-0.616565
-0.600448
-0.583987
-0.567425
-0.550964
-0.534761
-0.518932
-0.503551
-0.488666
-0.4743
-0.460456
-0.447135
-0.434361
-0.422024
-0.745865
-0.736418
-0.728389
-0.720507
-0.71191
-0.702325
-0.69148
-0.679193
-0.665446
-0.650372
-0.634217
-0.617282
-0.599886
-0.582317
-0.564824
-0.547598
-0.530778
-0.514458
-0.498693
-0.48351
-0.468914
-0.454898
-0.441447
-0.428569
-0.416153
-0.758584
-0.748554
-0.740054
-0.731602
-0.722199
-0.711533
-0.699353
-0.685536
-0.670155
-0.653443
-0.63573
-0.617381
-0.598746
-0.580126
-0.561761
-0.543827
-0.526441
-0.509673
-0.493558
-0.478103
-0.463297
-0.44912
-0.435548
-0.422568
-0.41008
-0.771218
-0.760631
-0.751656
-0.74258
-0.732272
-0.720398
-0.706747
-0.691284
-0.67419
-0.655803
-0.636536
-0.616805
-0.596983
-0.577373
-0.5582
-0.539616
-0.521713
-0.504539
-0.488106
-0.472404
-0.457407
-0.443084
-0.4294
-0.416325
-0.403775
-0.783618
-0.772507
-0.763049
-0.753289
-0.74197
-0.728759
-0.713512
-0.696303
-0.677438
-0.657361
-0.636562
-0.615498
-0.594552
-0.574019
-0.5541
-0.534923
-0.516553
-0.499012
-0.482293
-0.466369
-0.451201
-0.436748
-0.422965
-0.409803
-0.397206
-0.795618
-0.784023
-0.774072
-0.763561
-0.751122
-0.736448
-0.71949
-0.700457
-0.679786
-0.658029
-0.635739
-0.613403
-0.591405
-0.570018
-0.54942
-0.529706
-0.510916
-0.493048
-0.476076
-0.459956
-0.444638
-0.430072
-0.416205
-0.402968
-0.39034
-0.807043
-0.795005
-0.784549
-0.773216
-0.759547
-0.743291
-0.724526
-0.703613
-0.681128
-0.65772
-0.633998
-0.610464
-0.58749
-0.565325
-0.544113
-0.52392
-0.504758
-0.486602
-0.469408
-0.45312
-0.437676
-0.423018
-0.409083
-0.395785
-0.383148
-0.817703
-0.805271
-0.794293
-0.782062
-0.767057
-0.749114
-0.728468
-0.705645
-0.68136
-0.656354
-0.631274
-0.606625
-0.582759
-0.559891
-0.538132
-0.517517
-0.498031
-0.479628
-0.462247
-0.445819
-0.430274
-0.415546
-0.401563
-0.388222
-0.375596
-0.827402
-0.814626
-0.803109
-0.789905
-0.773463
-0.753745
-0.731165
-0.70643
-0.680387
-0.653854
-0.627504
-0.601832
-0.57716
-0.553668
-0.531431
-0.510451
-0.49069
-0.472081
-0.454549
-0.438013
-0.422394
-0.40762
-0.39361
-0.380245
-0.367657
-0.835941
-0.822872
-0.810797
-0.796545
-0.778577
-0.757015
-0.732479
-0.705855
-0.678119
-0.650148
-0.622628
-0.596032
-0.570645
-0.546609
-0.523962
-0.502677
-0.48269
-0.463919
-0.446273
-0.429661
-0.413998
-0.399206
-0.385192
-0.371826
-0.359301
-0.843114
-0.829807
-0.817152
-0.801783
-0.782217
-0.758767
-0.732277
-0.703816
-0.674472
-0.645168
-0.616588
-0.589172
-0.563165
-0.538667
-0.51568
-0.49415
-0.47399
-0.455101
-0.437381
-0.420729
-0.405053
-0.390271
-0.37628
-0.362936
-0.350504
-0.848721
-0.835229
-0.821976
-0.805429
-0.784207
-0.758852
-0.73044
-0.700218
-0.669372
-0.638855
-0.609331
-0.581205
-0.554674
-0.529797
-0.506543
-0.484829
-0.464549
-0.445589
-0.427836
-0.411181
-0.395527
-0.380787
-0.366846
-0.35355
-0.341242
-0.852563
-0.838939
-0.82507
-0.807295
-0.784383
-0.757132
-0.726859
-0.694977
-0.662753
-0.631152
-0.60081
-0.572085
-0.545129
-0.519959
-0.49651
-0.474675
-0.454331
-0.435349
-0.417607
-0.400989
-0.385392
-0.370728
-0.356866
-0.343648
-0.331494
-0.854449
-0.840747
-0.82625
-0.80721
-0.782597
-0.753488
-0.72144
-0.688021
-0.654558
-0.622011
-0.590981
-0.561773
-0.534492
-0.509115
-0.485545
-0.463655
-0.443303
-0.424351
-0.406665
-0.390126
-0.374626
-0.360071
-0.346321
-0.33321
-0.321244
-0.854201
-0.840475
-0.82534
-0.805015
-0.778715
-0.747812
-0.714102
-0.679287
-0.644736
-0.611391
-0.579806
-0.550233
-0.522729
-0.497232
-0.473618
-0.451739
-0.431438
-0.412568
-0.394988
-0.378571
-0.363207
-0.3488
-0.335194
-0.322222
-0.31048
-0.851655
-0.837956
-0.822182
-0.800568
-0.772621
-0.740018
-0.704781
-0.668727
-0.633249
-0.599258
-0.567254
-0.537434
-0.50981
-0.484282
-0.460702
-0.438901
-0.418714
-0.39998
-0.382555
-0.366306
-0.351122
-0.3369
-0.323474
-0.310676
-0.299191
-0.846662
-0.833041
-0.816635
-0.79375
-0.764219
-0.730033
-0.693423
-0.656302
-0.620066
-0.585586
-0.5533
-0.523354
-0.495712
-0.470243
-0.446775
-0.425124
-0.405111
-0.386571
-0.369353
-0.35332
-0.338358
-0.324362
-0.311154
-0.298564
-0.287373
-0.839093
-0.8256
-0.808579
-0.784457
-0.753432
-0.717804
-0.679994
-0.641987
-0.605168
-0.570356
-0.537928
-0.507975
-0.480419
-0.4551
-0.431823
-0.410392
-0.390618
-0.37233
-0.355372
-0.339604
-0.324911
-0.311183
-0.298229
-0.285886
-0.275024
-0.828841
-0.815526
-0.797915
-0.772613
-0.740206
-0.703295
-0.664472
-0.625768
-0.588545
-0.553559
-0.521127
-0.491287
-0.463921
-0.438841
-0.415836
-0.394697
-0.375228
-0.357251
-0.340608
-0.325156
-0.310779
-0.297363
-0.284703
-0.272644
-0.26215
-0.81582
-0.802732
-0.784568
-0.758162
-0.724506
-0.68649
-0.64685
-0.607645
-0.570196
-0.535195
-0.502897
-0.473287
-0.446214
-0.421464
-0.398812
-0.378037
-0.358939
-0.341335
-0.325062
-0.309978
-0.295965
-0.282905
-0.270582
-0.258847
-0.248757
-0.799969
-0.787156
-0.768486
-0.74107
-0.706319
-0.66739
-0.627136
-0.587628
-0.550132
-0.515273
-0.483242
-0.453979
-0.4273
-0.402972
-0.380752
-0.360416
-0.341755
-0.324585
-0.30874
-0.294078
-0.280478
-0.26782
-0.255877
-0.244508
-0.234859
-0.781252
-0.768762
-0.749646
-0.721331
-0.685652
-0.646011
-0.605355
-0.56574
-0.528373
-0.493808
-0.462177
-0.433376
-0.407192
-0.383372
-0.361666
-0.341841
-0.323685
-0.307011
-0.291653
-0.277465
-0.264331
-0.252123
-0.240603
-0.229644
-0.220474
-0.759658
-0.74754
-0.728045
-0.698958
-0.662532
-0.622389
-0.581541
-0.542016
-0.504951
-0.470828
-0.439725
-0.411496
-0.385904
-0.362682
-0.341569
-0.322326
-0.304742
-0.288627
-0.273814
-0.260157
-0.247539
-0.23583
-0.224781
-0.214277
-0.205622
-0.735201
-0.723503
-0.703709
-0.673989
-0.637008
-0.596577
-0.555747
-0.516502
-0.479905
-0.446369
-0.415916
-0.388367
-0.363462
-0.340921
-0.320478
-0.301891
-0.284945
-0.269452
-0.255242
-0.242172
-0.230124
-0.218965
-0.208436
-0.198432
-0.190331
-0.707923
-0.696693
-0.676685
-0.646483
-0.609145
-0.56864
-0.528035
-0.489256
-0.453288
-0.420475
-0.390789
-0.364022
-0.339895
-0.318117
-0.29842
-0.280557
-0.264316
-0.249505
-0.235958
-0.223531
-0.212108
-0.201551
-0.191593
-0.182141
-0.17463
-0.677888
-0.667174
-0.647046
-0.616521
-0.579028
-0.538663
-0.498484
-0.460348
-0.42516
-0.393199
-0.364392
-0.338503
-0.315238
-0.294302
-0.275421
-0.258351
-0.242877
-0.22881
-0.215985
-0.204258
-0.193515
-0.183616
-0.174284
-0.165435
-0.158553
-0.645187
-0.635035
-0.614888
-0.584204
-0.546759
-0.506743
-0.467182
-0.429858
-0.395593
-0.364604
-0.336779
-0.311858
-0.289536
-0.269513
-0.251516
-0.235301
-0.220655
-0.207392
-0.195346
-0.184377
-0.174371
-0.165186
-0.15654
-0.148353
-0.142138
-0.609932
-0.600388
-0.580327
-0.549653
-0.512457
-0.472991
-0.434233
-0.397878
-0.364669
-0.334763
-0.308014
-0.284142
-0.262835
-0.243792
-0.226739
-0.211438
-0.197676
-0.185272
-0.174062
-0.163908
-0.154699
-0.14629
-0.138394
-0.130934
-0.125437
-0.572258
-0.563368
-0.5435
-0.513004
-0.476254
-0.437532
-0.39975
-0.36451
-0.332478
-0.303757
-0.278168
-0.255418
-0.23519
-0.217184
-0.201131
-0.186793
-0.173967
-0.162472
-0.152151
-0.142868
-0.134515
-0.126946
-0.119874
-0.113223
-0.108504
-0.532322
-0.524128
-0.504562
-0.474412
-0.438299
-0.400505
-0.363859
-0.329869
-0.299124
-0.271678
-0.247324
-0.225759
-0.206664
-0.189743
-0.174731
-0.1614
-0.14955
-0.139008
-0.129623
-0.121263
-0.113824
-0.107163
-0.100999
-0.0952512
-0.0913695
-0.490298
-0.482842
-0.463686
-0.434046
-0.398752
-0.362058
-0.326696
-0.294077
-0.264718
-0.238625
-0.215571
-0.195243
-0.177326
-0.161526
-0.147589
-0.135292
-0.124447
-0.114889
-0.106474
-0.0990806
-0.0926079
-0.0869224
-0.0817569
-0.0770117
-0.0739984
-0.446378
-0.439698
-0.42106
-0.392089
-0.357786
-0.322351
-0.288408
-0.257271
-0.229383
-0.204712
-0.183011
-0.163963
-0.147254
-0.132601
-0.119756
-0.108509
-0.0986805
-0.0901184
-0.0826911
-0.0762884
-0.0708198
-0.066166
-0.0620819
-0.0584352
-0.0563433
-0.400768
-0.3949
-0.376885
-0.348734
-0.315584
-0.281555
-0.249153
-0.219594
-0.193253
-0.170062
-0.149757
-0.132021
-0.116542
-0.103047
-0.0912982
-0.0810977
-0.0722798
-0.0647067
-0.0582641
-0.05286
-0.0484174
-0.0448355
-0.0419153
-0.0395354
-0.0386313
-0.353689
-0.348665
-0.331372
-0.304186
-0.272339
-0.239848
-0.209097
-0.1812
-0.156472
-0.134809
-0.115935
-0.0995317
-0.0852944
-0.0729561
-0.0622915
-0.0531153
-0.0452772
-0.0386594
-0.0331743
-0.0287587
-0.0253557
-0.0228995
-0.02133
-0.0206947
-0.0216221
-0.305371
-0.301219
-0.284743
-0.258656
-0.228249
-0.197416
-0.168412
-0.142253
-0.119192
-0.0990976
-0.0816824
-0.0666273
-0.0536328
-0.042439
-0.0328292
-0.0246278
-0.0176978
-0.0119415
-0.00730379
-0.00375866
-0.00127888
0.000104554
8.40623e-05
-0.0017994
-0.00518555
-0.256054
-0.252799
-0.237228
-0.212363
-0.183519
-0.154451
-0.127277
-0.10292
-0.081575
-0.0630837
-0.0471504
-0.0334557
-0.0217041
-0.0116398
-0.00304915
0.00424206
0.0103709
0.0154333
0.01948
0.0225429
0.0246687
0.0257123
0.0248057
0.0210305
0.0166116
-0.205985
-0.203645
-0.18906
-0.165529
-0.138358
-0.111148
-0.0858768
-0.0633751
-0.0437871
-0.0269293
-0.0124995
-0.000179435
0.010323
0.0192608
0.0268474
0.0332617
0.038652
0.0431353
0.0468045
0.0497798
0.0522533
0.0541586
0.0543595
0.0521739
0.0563795
-0.155406
-0.153998
-0.140472
-0.118377
-0.0929754
-0.0677011
-0.0443942
-0.0237939
-0.00599666
0.00920142
0.0221071
0.0330361
0.042276
0.0500755
0.0566459
0.0621665
0.0667892
0.0706408
0.0738365
0.0765286
0.0789172
0.0809607
0.0820075
0.0825624
0.0894476
-0.104569
-0.104106
-0.0917044
-0.0711305
-0.0475804
-0.0243078
-0.00301329
0.0156498
0.0316294
0.0451463
0.0565096
0.0660308
0.0739916
0.0806351
0.086169
0.0907707
0.0945926
0.0977659
0.100413
0.102685
0.104751
0.106563
0.107654
0.108609
0.114847
-0.0537247
-0.0542127
-0.0429914
-0.0240133
-0.00238071
0.0188394
0.0380851
0.0547854
0.0689284
0.0807484
0.0905546
0.0986525
0.105316
0.110781
0.115248
0.118889
0.121854
0.12427
0.126259
0.12796
0.129524
0.130916
0.131741
0.132462
0.137538
-0.00312134
-0.00456279
0.0054331
0.0227558
0.0424198
0.061551
0.0787245
0.0934472
0.105743
0.115858
0.124098
0.130762
0.136114
0.14038
0.143753
0.146398
0.148455
0.150046
0.15128
0.152284
0.153185
0.153938
0.154186
0.154359
0.158348
0.0469968
0.0446045
0.0533398
0.0689618
0.0866219
0.103643
0.118734
0.131475
0.141925
0.150334
0.157007
0.162232
0.166264
0.169318
0.171577
0.173197
0.174309
0.175024
0.175442
0.175675
0.175829
0.175846
0.175396
0.174909
0.177853
0.0963903
0.0930545
0.100505
0.114396
0.130032
0.144936
0.157948
0.168717
0.177329
0.184043
0.189156
0.192947
0.195659
0.197496
0.198632
0.199211
0.199353
0.199162
0.198726
0.198142
0.1975
0.196732
0.19554
0.194363
0.196312
0.144826
0.140559
0.14671
0.158854
0.172464
0.18526
0.196209
0.205026
0.211823
0.216861
0.220431
0.2228
0.224202
0.224828
0.224841
0.224375
0.223541
0.222432
0.221126
0.21971
0.218257
0.216695
0.214759
0.212893
0.213891
0.192078
0.186897
0.191746
0.202143
0.213737
0.224448
0.233365
0.240263
0.245276
0.248667
0.250721
0.251693
0.251804
0.251235
0.250137
0.248635
0.246831
0.244806
0.242633
0.240387
0.238129
0.235785
0.233123
0.230584
0.230672
0.237929
0.231856
0.235411
0.244074
0.25368
0.262344
0.269271
0.274294
0.277567
0.279352
0.279926
0.279533
0.278381
0.276643
0.274457
0.271938
0.26918
0.266257
0.263232
0.260172
0.257128
0.254027
0.250666
0.247478
0.246695
0.28217
0.275232
0.277512
0.284468
0.292129
0.298797
0.303791
0.306995
0.30858
0.308809
0.307948
0.306232
0.303856
0.300981
0.297738
0.294232
0.290548
0.286751
0.2829
0.279052
0.27525
0.271423
0.267398
0.263587
0.26197
0.324603
0.316832
0.317864
0.323155
0.328927
0.333665
0.336793
0.338245
0.338205
0.336937
0.334696
0.331706
0.328152
0.324184
0.319923
0.315466
0.310889
0.306253
0.301608
0.297005
0.292478
0.287963
0.283309
0.278905
0.27649
0.36504
0.356471
0.356294
0.359976
0.363927
0.366812
0.368154
0.367931
0.36634
0.363641
0.360082
0.355876
0.351197
0.346185
0.340952
0.335587
0.330159
0.324723
0.319322
0.314001
0.308788
0.303624
0.298379
0.293413
0.290239
0.403303
0.393977
0.39264
0.394778
0.396991
0.398113
0.397758
0.395946
0.392884
0.388831
0.384024
0.378666
0.372921
0.366921
0.360768
0.354544
0.348312
0.342119
0.336004
0.330007
0.32415
0.318378
0.312582
0.307085
0.303191
0.439227
0.429188
0.426748
0.427421
0.42799
0.427449
0.425497
0.42219
0.417747
0.412421
0.406442
0.400003
0.393259
0.386331
0.379315
0.372286
0.365299
0.358398
0.351617
0.344988
0.33853
0.332193
0.325886
0.319892
0.315321
0.472658
0.461956
0.458478
0.457775
0.456805
0.45471
0.451269
0.446571
0.440843
0.434334
0.427265
0.419821
0.412147
0.404358
0.396541
0.388763
0.381077
0.373519
0.36612
0.358906
0.351893
0.345035
0.338258
0.331803
0.3266
0.503455
0.492142
0.4877
0.485719
0.483325
0.479795
0.474983
0.469003
0.462092
0.454494
0.446424
0.438056
0.429528
0.420947
0.412393
0.403929
0.3956
0.387441
0.379475
0.371725
0.364204
0.356872
0.349666
0.342788
0.336999
0.531491
0.519623
0.514297
0.511147
0.507452
0.502614
0.496552
0.489409
0.481423
0.472836
0.463856
0.45465
0.445347
0.436047
0.426825
0.417739
0.408828
0.400123
0.391644
0.383411
0.37543
0.36767
0.360077
0.352814
0.346491
0.55665
0.544287
0.538165
0.53396
0.529095
0.523084
0.515903
0.507716
0.498769
0.489298
0.479505
0.469549
0.459554
0.449612
0.439794
0.430152
0.420722
0.41153
0.402594
0.393929
0.385539
0.377398
0.369462
0.361855
0.355052
0.578833
0.566036
0.559209
0.554073
0.548177
0.541133
0.532967
0.523865
0.514073
0.503827
0.493321
0.482708
0.472105
0.461601
0.45126
0.441131
0.431247
0.421629
0.412293
0.40325
0.394502
0.386029
0.377794
0.369885
0.362658
0.597953
0.584786
0.577353
0.571414
0.564629
0.556698
0.547689
0.537801
0.527286
0.516376
0.505259
0.494084
0.482962
0.471977
0.46119
0.450645
0.440372
0.430391
0.420713
0.411347
0.402295
0.393539
0.385049
0.37688
0.369289
0.613936
0.600467
0.592529
0.58592
0.578397
0.569729
0.560018
0.54948
0.538366
0.526906
0.515285
0.503644
0.492093
0.480711
0.469555
0.458666
0.448072
0.43779
0.427831
0.418199
0.408895
0.399905
0.391205
0.382822
0.374928
0.626727
0.613024
0.604686
0.597545
0.589436
0.580183
0.569918
0.558866
0.54728
0.535387
0.523367
0.511361
0.499472
0.487777
0.47633
0.465172
0.454326
0.443808
0.433627
0.423786
0.414284
0.405111
0.396246
0.387696
0.379562
0.636283
0.622416
0.613784
0.606251
0.597711
0.58803
0.57736
0.565932
0.554002
0.541794
0.529485
0.517213
0.505078
0.493157
0.4815
0.470146
0.459117
0.448429
0.438087
0.428095
0.41845
0.409144
0.40016
0.391488
0.383179
0.642576
0.628615
0.619799
0.612017
0.603203
0.593251
0.582326
0.570663
0.558518
0.546112
0.533624
0.521187
0.508901
0.496839
0.485052
0.473577
0.462436
0.451642
0.441202
0.431116
0.421383
0.411995
0.402938
0.394191
0.385773
0.645594
0.63161
0.62272
0.614831
0.605902
0.595837
0.584807
0.57305
0.560818
0.548336
0.535778
0.523277
0.510933
0.498817
0.486982
0.475461
0.464277
0.453443
0.442966
0.432845
0.423078
0.413659
0.404575
0.395801
0.38734
0.64534
0.631405
0.62255
0.614697
0.60581
0.595791
0.584807
0.573094
0.560907
0.548466
0.535948
0.523484
0.511176
0.499093
0.487289
0.475797
0.464641
0.453833
0.44338
0.433281
0.423536
0.414137
0.405071
0.396318
0.38788
0.641833
0.628017
0.619305
0.611631
0.602942
0.593125
0.582336
0.570808
0.558794
0.546513
0.534143
0.521818
0.509637
0.497674
0.485981
0.474593
0.463534
0.452817
0.442449
0.432431
0.422762
0.413433
0.404431
0.395745
0.387397
0.635107
0.621479
0.613017
0.605661
0.597325
0.587864
0.577419
0.566213
0.554498
0.542495
0.530381
0.518293
0.506333
0.494574
0.483071
0.471861
0.460967
0.450406
0.440184
0.430304
0.420764
0.411556
0.402664
0.394092
0.385898
0.625209
0.611838
0.603731
0.596828
0.588997
0.580044
0.570087
0.559339
0.548048
0.536437
0.524686
0.512933
0.501283
0.489813
0.478578
0.467618
0.456959
0.446616
0.4366
0.426914
0.417557
0.408519
0.399781
0.391369
0.383393
0.612203
0.599155
0.591504
0.585187
0.578007
0.569711
0.560383
0.550225
0.539481
0.528375
0.51709
0.505768
0.494518
0.483418
0.472528
0.461889
0.45153
0.441469
0.431717
0.422281
0.41316
0.40434
0.3958
0.387593
0.379895
0.596168
0.583508
0.576408
0.570804
0.564416
0.55692
0.548359
0.53892
0.528842
0.518351
0.507633
0.496836
0.48607
0.475421
0.46495
0.454702
0.444708
0.43499
0.425559
0.416427
0.407593
0.39904
0.390742
0.382782
0.375423
0.577195
0.564986
0.558529
0.553758
0.548299
0.541739
0.534078
0.525482
0.516184
0.506414
0.496362
0.486178
0.475982
0.465861
0.455881
0.446092
0.436526
0.427209
0.418156
0.40938
0.400884
0.392644
0.384631
0.376959
0.369996
0.555392
0.543691
0.537964
0.53414
0.529736
0.524245
0.51761
0.509975
0.501569
0.492622
0.483328
0.473846
0.4643
0.454781
0.445362
0.436096
0.42702
0.418162
0.40954
0.401172
0.393062
0.385182
0.377494
0.370151
0.363638
0.530877
0.519742
0.514823
0.512051
0.508824
0.504523
0.499035
0.492475
0.485065
0.477038
0.468593
0.459895
0.451075
0.44223
0.433439
0.424758
0.416229
0.407885
0.399747
0.391835
0.384158
0.376683
0.369363
0.362386
0.356373
0.503785
0.493268
0.48923
0.487605
0.485666
0.482672
0.478441
0.473063
0.466749
0.459732
0.452221
0.444386
0.436364
0.428261
0.42016
0.412123
0.404198
0.39642
0.388815
0.381407
0.374209
0.367182
0.360269
0.353695
0.34823
0.474262
0.464411
0.461318
0.460927
0.460376
0.458794
0.455926
0.451828
0.446702
0.440783
0.434284
0.427385
0.42023
0.412932
0.40558
0.398243
0.390973
0.38381
0.376785
0.369926
0.363251
0.356714
0.350246
0.34411
0.339237
0.442464
0.433325
0.431233
0.432152
0.433079
0.433005
0.431595
0.428867
0.425014
0.420271
0.414859
0.408963
0.402737
0.396302
0.389754
0.383168
0.376601
0.370099
0.363698
0.357431
0.351319
0.345314
0.339328
0.333663
0.329425
0.408563
0.400176
0.399132
0.401424
0.403907
0.405425
0.405558
0.404284
0.401781
0.398286
0.394026
0.389195
0.383955
0.378436
0.372741
0.366952
0.361133
0.355335
0.349597
0.343961
0.338451
0.333015
0.32755
0.322386
0.318821
0.372738
0.36514
0.365181
0.368898
0.373003
0.376186
0.377936
0.378188
0.377104
0.374921
0.371871
0.36816
0.363957
0.3594
0.354602
0.349651
0.344618
0.33956
0.334522
0.329552
0.32468
0.319851
0.31494
0.310306
0.307452
0.335181
0.328403
0.329558
0.334739
0.340518
0.345426
0.348856
0.350695
0.351089
0.350272
0.348485
0.34594
0.342817
0.339263
0.335399
0.33132
0.327106
0.322819
0.318512
0.314238
0.310035
0.305846
0.301523
0.297447
0.295338
0.296092
0.290161
0.292449
0.299118
0.306609
0.313289
0.31845
0.321928
0.323849
0.324445
0.323962
0.322622
0.320614
0.318095
0.315194
0.312015
0.308645
0.305154
0.3016
0.298046
0.294539
0.291018
0.287313
0.283819
0.282492
0.255682
0.250621
0.254048
0.262218
0.271443
0.279928
0.286858
0.292014
0.295501
0.297547
0.298401
0.298297
0.297431
0.29597
0.294053
0.291792
0.289282
0.286601
0.283816
0.280997
0.278202
0.275372
0.27231
0.269419
0.268908
0.214167
0.209994
0.214558
0.224226
0.235194
0.245502
0.254226
0.261089
0.266169
0.26969
0.271907
0.273058
0.273352
0.272964
0.272042
0.270707
0.269064
0.267197
0.265182
0.2631
0.261023
0.258894
0.256491
0.254216
0.25456
0.171773
0.168501
0.17419
0.185338
0.198041
0.210176
0.220706
0.229291
0.235982
0.240995
0.244587
0.247005
0.248467
0.249158
0.249232
0.248821
0.248037
0.246974
0.245717
0.244358
0.242984
0.241548
0.2398
0.238143
0.239379
0.128731
0.126368
0.133158
0.145757
0.160172
0.174122
0.186456
0.196766
0.205074
0.211585
0.216558
0.220246
0.222875
0.224639
0.2257
0.226198
0.226253
0.225967
0.225433
0.224758
0.224044
0.223259
0.222126
0.221055
0.223226
0.0852752
0.0838259
0.091685
0.105688
0.121778
0.137517
0.151639
0.163667
0.173587
0.181592
0.187941
0.192893
0.196681
0.199505
0.201535
0.202917
0.203777
0.204224
0.204358
0.2043
0.204171
0.203946
0.203319
0.202733
0.205874
0.0416465
0.0411099
0.0499953
0.065344
0.0830549
0.100543
0.116423
0.130149
0.141666
0.151154
0.158868
0.165072
0.170002
0.173867
0.17684