/*--------------------------------*- C++ -*----------------------------------*\
  =========                 |
  \\      /  F ield         | OpenFOAM: The Open Source CFD Toolbox
   \\    /   O peration     | Website:  https://openfoam.org
    \\  /    A nd           | Version:  6.0
     \\/     M anipulation  |
\*---------------------------------------------------------------------------*/
FoamFile
{
    version     2.0;
    format      ascii;
    class       volVectorField;
    location    "70";
    object      U;
}
// * * * * * * * * * * * * * * * * * * * * * * * * * * * * * * * * * * * * * //

dimensions      [0 1 -1 0 0 0 0];

internalField   nonuniform List<vector> 
12500
(
(-0.00074456 0.0553376 -1.44645e-21)
(-0.00203883 0.137867 2.22201e-20)
(-0.00389868 0.197651 -3.24472e-20)
(-0.00661194 0.238837 1.49482e-20)
(-0.0101374 0.265177 8.4892e-22)
(-0.0142937 0.280005 -1.78246e-21)
(-0.0188361 0.286145 -2.75315e-20)
(-0.0235072 0.285888 1.51593e-20)
(-0.0280664 0.281011 1.01659e-20)
(-0.032304 0.272829 1.03045e-20)
(-0.036045 0.262266 -1.76556e-20)
(-0.0391498 0.249937 1.02914e-20)
(-0.041512 0.236218 -4.89897e-21)
(-0.0430563 0.221317 8.37459e-21)
(-0.0437372 0.205337 -2.15056e-20)
(-0.0435376 0.188319 3.10698e-20)
(-0.0424679 0.170283 -5.76391e-21)
(-0.0405656 0.151259 -2.24029e-20)
(-0.0378957 0.131306 1.1683e-20)
(-0.0345464 0.110524 -1.12493e-20)
(-0.0306069 0.0890616 1.0012e-20)
(-0.0261683 0.0671055 1.31331e-20)
(-0.0215385 0.0448721 1.51251e-21)
(-0.0174094 0.0225768 -3.82699e-20)
(-0.0126639 0.000419497 2.12916e-20)
(-0.00231717 0.0550079 2.91024e-20)
(-0.00557017 0.137768 -7.72103e-20)
(-0.0081955 0.198297 2.26074e-20)
(-0.0108995 0.240428 1.52735e-20)
(-0.0139015 0.267701 -1.22077e-20)
(-0.017196 0.283313 -6.98771e-20)
(-0.0206698 0.290016 2.07552e-20)
(-0.0241574 0.290072 -3.97838e-20)
(-0.0274788 0.285256 4.77258e-20)
(-0.0304617 0.276896 -6.38782e-20)
(-0.0329528 0.265941 3.42418e-20)
(-0.0348233 0.253032 1.15026e-20)
(-0.0359707 0.238574 -2.83733e-20)
(-0.0363197 0.222809 -1.26123e-20)
(-0.0358216 0.205869 9.28469e-20)
(-0.0344546 0.187827 -8.30059e-20)
(-0.0322221 0.16874 1.99766e-20)
(-0.0291524 0.148671 3.46934e-20)
(-0.0252986 0.127715 -7.70082e-21)
(-0.0207349 0.106006 5.62711e-20)
(-0.0155349 0.0837254 1.08931e-20)
(-0.00977048 0.0610926 -3.86542e-21)
(-0.00373312 0.0383471 -7.28277e-20)
(0.00186023 0.0157179 6.74935e-20)
(0.0081164 -0.00652009 -1.35699e-19)
(-0.00384624 0.0542905 9.46275e-20)
(-0.00903584 0.136756 3.19872e-20)
(-0.0124293 0.197713 -4.28723e-20)
(-0.0151217 0.240632 1.86575e-20)
(-0.0175774 0.268789 1.69709e-20)
(-0.0199597 0.285213 6.54042e-20)
(-0.022285 0.292554 -8.37906e-20)
(-0.0244815 0.293024 -1.42102e-20)
(-0.026433 0.288379 -5.69706e-20)
(-0.0280086 0.279956 -4.79048e-20)
(-0.0290808 0.268721 6.14488e-20)
(-0.0295352 0.255339 -2.08643e-19)
(-0.0292771 0.240247 -7.26644e-21)
(-0.028234 0.223715 -1.27808e-19)
(-0.0263572 0.205906 -1.56313e-20)
(-0.0236219 0.186926 1.77574e-20)
(-0.0200264 0.16686 -1.01988e-19)
(-0.0155909 0.145802 -6.44612e-20)
(-0.0103574 0.123874 -7.64315e-20)
(-0.00438695 0.101241 1.19654e-19)
(0.00226117 0.0781117 4.4303e-20)
(0.00953214 0.0547362 -1.99052e-19)
(0.0171535 0.0313823 -9.67053e-20)
(0.0243875 0.00830298 -1.09847e-19)
(0.0322841 -0.0141321 3.04645e-19)
(-0.00530142 0.0531943 -2.31937e-21)
(-0.0123688 0.134831 -7.49943e-20)
(-0.0165175 0.195883 -3.70358e-20)
(-0.0191933 0.239402 2.36554e-20)
(-0.0210839 0.26837 1.41405e-19)
(-0.0225109 0.285612 -6.33869e-20)
(-0.0236163 0.293651 1.36902e-19)
(-0.0244224 0.294623 1.31616e-19)
(-0.0248795 0.290258 8.02551e-20)
(-0.0249019 0.281886 -1.12681e-21)
(-0.0243917 0.270486 1.64292e-19)
(-0.0232534 0.256747 2.88591e-20)
(-0.0214036 0.241133 1.27568e-19)
(-0.0187761 0.223943 2.97601e-19)
(-0.0153247 0.20537 -3.47752e-19)
(-0.0110242 0.185548 5.27883e-19)
(-0.0058696 0.164589 1.17197e-19)
(0.000125124 0.14261 -2.58648e-19)
(0.00692714 0.119758 -3.71564e-20)
(0.0144869 0.0962164 9.39527e-20)
(0.0227569 0.0722195 -4.91816e-20)
(0.0316963 0.0480478 -3.1018e-20)
(0.0410536 0.0240017 -2.99224e-20)
(0.0500755 0.000370535 -1.1765e-19)
(0.0597086 -0.0223634 4.22595e-19)
(-0.0066547 0.0517352 5.05129e-20)
(-0.0155061 0.132014 -2.40515e-19)
(-0.0203846 0.192806 2.93607e-19)
(-0.0230389 0.236713 -1.16461e-19)
(-0.0243537 0.266391 1.4127e-19)
(-0.0247944 0.284431 1.1637e-19)
(-0.0246227 0.293205 4.44536e-20)
(-0.0239533 0.294757 3.30243e-21)
(-0.0228049 0.290769 2.52191e-19)
(-0.0211405 0.282558 1.76723e-19)
(-0.0188958 0.271111 -7.04083e-20)
(-0.0159985 0.257135 -4.6689e-20)
(-0.01238 0.241118 1.96085e-19)
(-0.00798375 0.22339 3.67742e-20)
(-0.00276924 0.20417 1.0318e-19)
(0.00328662 0.183617 2.48394e-19)
(0.0101897 0.161866 -2.13992e-19)
(0.0179299 0.139053 1.73891e-19)
(0.0264813 0.11534 -3.81787e-19)
(0.0358031 0.0909273 3.23919e-19)
(0.0458564 0.0660676 2.88392e-21)
(0.0566104 0.0410691 -2.64382e-19)
(0.0678353 0.0162702 1.04484e-19)
(0.0787699 -0.00799164 2.43045e-19)
(0.0902113 -0.0311067 -3.69643e-19)
(-0.00788132 0.0499385 2.63782e-19)
(-0.0183919 0.128342 -2.89353e-19)
(-0.0239643 0.188508 -4.55561e-20)
(-0.0265952 0.232564 5.94132e-20)
(-0.0273344 0.262817 -1.27328e-19)
(-0.0267738 0.281607 -1.98765e-19)
(-0.0252857 0.291128 -1.67e-19)
(-0.0230745 0.293316 -4.03934e-20)
(-0.020228 0.289791 -2.90139e-19)
(-0.0167609 0.281846 2.35809e-19)
(-0.0126464 0.270466 -3.65989e-19)
(-0.00783918 0.256375 1.87327e-19)
(-0.00228958 0.240082 -6.14178e-20)
(0.00404592 0.221942 1.4663e-19)
(0.0111994 0.202202 -3.72265e-19)
(0.0191889 0.181042 1.84573e-19)
(0.0280187 0.158615 1.52051e-20)
(0.03768 0.135072 8.1915e-20)
(0.0481509 0.110585 5.04983e-19)
(0.0593968 0.0853642 1.16172e-19)
(0.0713835 0.0596752 -7.80425e-21)
(0.0840864 0.0338503 3.31631e-20)
(0.097297 0.00826853 2.17462e-19)
(0.110256 -0.0166737 6.36916e-20)
(0.123566 -0.0402279 2.11764e-19)
(-0.00896068 0.047838 -1.64187e-19)
(-0.0209784 0.123874 2.40961e-19)
(-0.0272004 0.18304 1.54346e-20)
(-0.02981 0.226981 -2.96147e-19)
(-0.0299865 0.257643 6.28394e-19)
(-0.0284283 0.277099 -2.03363e-19)
(-0.0256064 0.287351 2.99738e-19)
(-0.0218107 0.290207 2.75648e-19)
(-0.0171976 0.287213 -2.28723e-19)
(-0.0118355 0.279625 -3.37292e-19)
(-0.00573902 0.268422 9.28881e-20)
(0.00110667 0.254334 -9.87844e-20)
(0.00872843 0.237892 -4.43628e-19)
(0.0171534 0.219472 5.46554e-19)
(0.0264022 0.199344 -2.65132e-19)
(0.0364854 0.17771 -1.84825e-19)
(0.047403 0.154737 2.58025e-21)
(0.0591451 0.130585 1.55471e-19)
(0.0716913 0.105433 6.47394e-20)
(0.0850105 0.0794933 -2.52605e-19)
(0.0990707 0.0530397 2.95379e-19)
(0.113849 0.0264228 -5.12266e-19)
(0.129157 6.23095e-05 3.1571e-19)
(0.144248 -0.0255774 -2.43301e-19)
(0.159492 -0.0496013 6.67621e-20)
(-0.00987753 0.0454757 2.4323e-19)
(-0.0232282 0.11869 -1.92939e-19)
(-0.0300494 0.176482 -1.22323e-19)
(-0.0326451 0.220021 -2.17438e-19)
(-0.0322858 0.250893 -3.98793e-19)
(-0.0297537 0.270896 -2.95711e-19)
(-0.0256057 0.281826 1.86403e-19)
(-0.0202102 0.285353 -2.84002e-19)
(-0.0137906 0.282933 3.62829e-19)
(-0.00647077 0.275778 -5.9513e-19)
(0.00169085 0.264848 2.67199e-19)
(0.0106748 0.250876 5.70931e-19)
(0.0204817 0.234407 -8.09762e-19)
(0.0311191 0.215839 1.16654e-19)
(0.0425934 0.19546 1.55276e-19)
(0.0549052 0.173489 1.51903e-19)
(0.0680484 0.150106 -1.60307e-19)
(0.0820098 0.125479 -3.75737e-20)
(0.096769 0.0997874 -1.22029e-19)
(0.112296 0.0732423 -1.02243e-19)
(0.12856 0.0461169 -5.74266e-19)
(0.145536 0.0187743 -4.0145e-20)
(0.163055 -0.00832792 7.15171e-21)
(0.180394 -0.0346495 -2.64789e-19)
(0.197657 -0.0591442 2.78986e-19)
(-0.0106228 0.0429015 7.03455e-21)
(-0.0251169 0.112887 7.79281e-20)
(-0.0324827 0.168941 8.25246e-20)
(-0.035077 0.211775 4.73784e-20)
(-0.0342225 0.242626 4.08136e-19)
(-0.0307613 0.263019 3.85727e-19)
(-0.0253209 0.274538 -3.14641e-19)
(-0.0183401 0.278703 -9.72238e-20)
(-0.0101066 0.276873 -8.65791e-20)
(-0.000799635 0.270201 4.49737e-19)
(0.00947616 0.259622 1.64763e-19)
(0.0206641 0.245866 -2.38149e-19)
(0.0327355 0.229485 -2.06421e-19)
(0.0456755 0.210893 4.99829e-19)
(0.0594737 0.190394 -1.23206e-19)
(0.0741191 0.168224 -1.52285e-19)
(0.0895979 0.144572 -2.1607e-19)
(0.105893 0.11961 -1.70156e-19)
(0.122983 0.0935143 -2.21002e-19)
(0.140839 0.0664912 -1.46721e-19)
(0.159429 0.0388074 6.10493e-19)
(0.178726 0.0108304 -3.02967e-19)
(0.198578 -0.0169492 2.0515e-19)
(0.218296 -0.0439084 -5.52469e-19)
(0.237693 -0.0688443 2.26606e-19)
(-0.0111945 0.0401713 -2.199e-19)
(-0.0266338 0.106582 -5.9104e-20)
(-0.0344872 0.16055 -4.63328e-19)
(-0.0370973 0.202365 -2.22881e-19)
(-0.0358003 0.232937 -4.40806e-19)
(-0.0314739 0.253525 -4.59765e-20)
(-0.0248 0.265504 2.38834e-19)
(-0.0162787 0.270237 -1.46966e-19)
(-0.00625728 0.268977 3.18521e-19)
(0.00503062 0.262811 -7.80235e-19)
(0.017433 0.252639 -2.44199e-20)
(0.0308539 0.239178 1.40948e-19)
(0.0452328 0.222985 -1.80137e-19)
(0.0605303 0.204482 1.6823e-19)
(0.0767175 0.183988 -1.27675e-19)
(0.0937707 0.16175 -2.79888e-19)
(0.111668 0.137964 5.17575e-19)
(0.130388 0.112803 3.26212e-19)
(0.149909 0.0864411 -6.60079e-20)
(0.170204 0.0590733 2.20677e-19)
(0.191243 0.0309553 -4.35739e-19)
(0.212991 0.00245095 6.34982e-19)
(0.235313 -0.0259223 -8.70748e-19)
(0.257568 -0.0534518 1.79842e-19)
(0.279254 -0.0787691 -3.46253e-19)
(-0.0115978 0.0373454 1.17522e-20)
(-0.0277835 0.0999056 -2.04536e-19)
(-0.0360665 0.151468 3.00852e-19)
(-0.0387123 0.191947 6.19187e-19)
(-0.0370339 0.221958 -1.07067e-20)
(-0.0319215 0.242512 7.06828e-20)
(-0.0240953 0.254782 -2.68894e-19)
(-0.0141054 0.259973 1.25946e-19)
(-0.00235325 0.259226 8.79738e-19)
(0.0108754 0.253555 -2.00456e-19)
(0.0253816 0.243816 -2.41385e-19)
(0.0410291 0.230708 9.16212e-19)
(0.0577242 0.214781 3.05086e-19)
(0.0754019 0.196464 1.4798e-19)
(0.0940142 0.176083 1.51921e-19)
(0.113525 0.153894 4.15525e-19)
(0.133904 0.130098 -1.63478e-19)
(0.155127 0.104868 4.32927e-19)
(0.177173 0.0783704 5.93886e-19)
(0.20002 0.0507886 -5.11735e-19)
(0.223638 0.0223625 7.67763e-19)
(0.247988 -0.00655496 2.78929e-19)
(0.272945 -0.0354263 -1.05789e-18)
(0.297926 -0.0634409 1.5379e-18)
(0.322105 -0.089049 -1.25885e-18)
(-0.0118455 0.0344863 -5.66432e-19)
(-0.0285856 0.092997 3.16218e-19)
(-0.0372405 0.141869 -2.13464e-19)
(-0.0399415 0.180703 -2.03108e-19)
(-0.037946 0.209857 -2.2041e-19)
(-0.0321361 0.23012 -2.39488e-19)
(-0.0232535 0.242475 6.58205e-20)
(-0.0118877 0.247974 6.32192e-19)
(0.001513 0.247645 -1.34901e-19)
(0.0166147 0.242421 -3.56819e-19)
(0.0331734 0.233109 -2.20151e-19)
(0.051013 0.22038 -9.1022e-20)
(0.0700077 0.204774 2.73839e-19)
(0.0900664 0.186716 -1.74556e-19)
(0.111123 0.166538 -5.82023e-19)
(0.13313 0.144498 -6.52478e-19)
(0.156051 0.1208 2.6152e-19)
(0.179861 0.0956152 -4.955e-19)
(0.204542 0.0691007 4.37558e-19)
(0.230074 0.0414271 -1.23912e-18)
(0.256432 0.0128159 9.63115e-19)
(0.283571 -0.0163966 -1.28454e-18)
(0.311366 -0.0456605 -2.66987e-20)
(0.339303 -0.0740576 -4.41092e-19)
(0.366225 -0.0998314 1.29599e-18)
(-0.0119571 0.0316562 8.68501e-19)
(-0.0290742 0.086 1.30802e-19)
(-0.0380435 0.131941 -8.67676e-20)
(-0.0408146 0.168835 -3.63953e-20)
(-0.0385626 0.196831 6.81554e-19)
(-0.0321434 0.216525 2.22232e-19)
(-0.0223055 0.228729 2.02729e-19)
(-0.00966624 0.234351 -1.63898e-19)
(0.00528734 0.234306 6.36861e-19)
(0.0221789 0.229445 -3.16585e-19)
(0.0407233 0.22052 2.0363e-19)
(0.0607078 0.208166 5.26587e-19)
(0.081976 0.192905 -3.02943e-19)
(0.104414 0.175155 3.3096e-19)
(0.12794 0.155246 3.15516e-19)
(0.152495 0.133433 1.09259e-19)
(0.178043 0.109922 -2.77533e-19)
(0.204556 0.0848795 7.64221e-19)
(0.23202 0.058454 -7.30062e-20)
(0.260421 0.0308026 -8.87144e-20)
(0.289732 0.00212797 9.4605e-19)
(0.319896 -0.0272542 -6.81816e-19)
(0.35078 -0.056789 1.15317e-18)
(0.38194 -0.0854407 -9.64279e-19)
(0.411897 -0.111211 1.242e-18)
(-0.0119584 0.0289147 -4.20515e-19)
(-0.0292954 0.0790561 9.48083e-20)
(-0.0385212 0.121877 -1.00964e-19)
(-0.0413672 0.156561 -4.74774e-19)
(-0.0389066 0.183103 2.83583e-20)
(-0.0319546 0.20194 2.72072e-19)
(-0.0212537 0.213735 -1.11219e-18)
(-0.00743779 0.219265 8.34796e-19)
(0.00897654 0.219337 -8.17253e-19)
(0.027578 0.214721 -5.20602e-19)
(0.0480464 0.206107 4.69371e-19)
(0.0701375 0.194092 -1.02919e-18)
(0.0936692 0.179172 8.73338e-19)
(0.118509 0.16175 -2.79004e-19)
(0.144562 0.142149 -8.13114e-19)
(0.171765 0.120622 2.03734e-19)
(0.200077 0.0973684 -1.9251e-19)
(0.229475 0.0725503 7.68358e-20)
(0.259943 0.0463098 -2.64402e-19)
(0.291467 0.018792 -8.95202e-19)
(0.324014 -0.00981742 2.00563e-19)
(0.3575 -0.0392249 -2.22353e-21)
(0.391766 -0.0688778 -9.46145e-19)
(0.426439 -0.0976152 6.64914e-19)
(0.459744 -0.123156 -5.77197e-19)
(-0.0118802 0.0263159 1.70545e-19)
(-0.0293045 0.0722987 3.22592e-19)
(-0.0387263 0.111864 4.51543e-19)
(-0.041635 0.144105 2.32869e-19)
(-0.0389897 0.168911 -2.29039e-19)
(-0.0315555 0.186604 5.48548e-19)
(-0.0200581 0.197721 4.07208e-19)
(-0.00513707 0.202925 -1.49278e-19)
(0.0126715 0.202923 5.3625e-19)
(0.0329307 0.198403 -5.54665e-19)
(0.0552934 0.189996 -1.64842e-19)
(0.0794917 0.178253 1.67433e-19)
(0.105324 0.163641 3.34628e-19)
(0.132645 0.146543 4.1475e-21)
(0.161353 0.127269 2.17511e-19)
(0.19138 0.106063 4.0922e-19)
(0.222684 0.0831223 -7.02476e-19)
(0.255239 0.0586027 8.81696e-19)
(0.289023 0.0326416 3.02867e-19)
(0.324009 0.00537688 1.11444e-19)
(0.360142 -0.0230182 -1.10178e-18)
(0.397297 -0.0522708 1.54631e-19)
(0.435257 -0.0818386 2.45408e-19)
(0.473715 -0.110432 -6.05482e-20)
(0.510659 -0.135441 2.82305e-19)
(-0.0117557 0.0239061 1.23016e-20)
(-0.0291612 0.0658463 -8.29955e-19)
(-0.0387117 0.102077 -2.08395e-20)
(-0.0416455 0.131681 -2.10935e-19)
(-0.0388034 0.154501 -1.38464e-18)
(-0.0308956 0.170776 1.1991e-18)
(-0.0186225 0.180947 -8.56498e-19)
(-0.00261927 0.185583 -4.403e-20)
(0.0165692 0.185299 -4.088e-19)
(0.0384909 0.18071 7.11152e-19)
(0.0627823 0.172382 -7.70898e-19)
(0.0891608 0.160822 -3.64382e-19)
(0.117414 0.146462 5.7648e-21)
(0.147389 0.129662 -8.06482e-19)
(0.178979 0.110715 1.10811e-18)
(0.212113 0.0898569 -1.30142e-18)
(0.246743 0.0672767 1.68747e-22)
(0.282831 0.0431299 2.01484e-19)
(0.320334 0.0175525 -5.18035e-19)
(0.359193 -0.0093187 5.09618e-19)
(0.399306 -0.0373155 -7.22234e-19)
(0.440481 -0.0661821 -4.83278e-19)
(0.482415 -0.0953948 9.04469e-19)
(0.524848 -0.123541 -9.91096e-19)
(0.565635 -0.147632 -1.56904e-20)
(-0.0116191 0.0217215 -6.79373e-19)
(-0.0289238 0.0597971 8.04879e-19)
(-0.0385229 0.09267 -2.49954e-19)
(-0.0414091 0.119493 4.8036e-19)
(-0.0383088 0.140111 5.19155e-19)
(-0.0298766 0.15472 -4.59187e-19)
(-0.0167816 0.163695 -3.04371e-19)
(0.000354542 0.167526 -3.66758e-19)
(0.0209892 0.166753 3.37559e-19)
(0.0446666 0.161919 -2.37133e-20)
(0.0710178 0.153533 4.98371e-19)
(0.099755 0.142053 4.95173e-19)
(0.130662 0.127877 -5.99861e-19)
(0.163582 0.111338 1.18559e-18)
(0.198404 0.0927111 -7.95879e-19)
(0.235047 0.0722222 -1.39457e-19)
(0.273444 0.0500561 1.58495e-18)
(0.313529 0.0263689 -7.3793e-19)
(0.355215 0.00130155 4.8031e-19)
(0.39838 -0.0250028 9.4613e-19)
(0.442848 -0.0523729 -6.15971e-19)
(0.48833 -0.0805642 6.52344e-20)
(0.534403 -0.10908 -4.47656e-20)
(0.580835 -0.136403 -2.54831e-19)
(0.625505 -0.159113 4.80229e-19)
(-0.0115017 0.0197858 1.55624e-19)
(-0.0286432 0.0542233 -5.06986e-19)
(-0.0381899 0.0837679 2.79039e-19)
(-0.0409103 0.107715 -3.79669e-21)
(-0.0374273 0.125962 2.11096e-19)
(-0.0283432 0.138697 -3.6365e-19)
(-0.0142921 0.146255 2.08887e-19)
(0.00412585 0.149066 5.71505e-19)
(0.0263806 0.147608 -1.82585e-20)
(0.0520237 0.142361 -2.95081e-19)
(0.0806907 0.13378 2.97817e-19)
(0.112096 0.122279 -5.95348e-21)
(0.146024 0.108218 -9.62612e-19)
(0.182312 0.0919046 3.57409e-19)
(0.220836 0.0735966 7.86838e-20)
(0.261492 0.05351 -1.43058e-19)
(0.304175 0.0318282 -2.62886e-19)
(0.348759 0.00871217 9.96806e-19)
(0.395084 -0.0156866 2.46731e-19)
(0.442932 -0.041212 -5.32363e-19)
(0.492019 -0.0676821 -6.65512e-20)
(0.541934 -0.0948575 7.46329e-19)
(0.592111 -0.122278 -3.49271e-19)
(0.642312 -0.148355 1.51485e-19)
(0.690657 -0.169172 9.8397e-20)
(-0.0114296 0.0181092 -3.0969e-19)
(-0.0283555 0.0491678 3.18664e-19)
(-0.037719 0.0754605 -1.7965e-19)
(-0.0400992 0.0964907 -5.78918e-19)
(-0.0360332 0.112249 -5.3426e-19)
(-0.0260775 0.122949 -2.35712e-19)
(-0.0108301 0.128909 -1.96587e-19)
(0.00913691 0.13052 -5.83497e-19)
(0.0333145 0.128209 -2.37456e-19)
(0.0612702 0.122403 2.18166e-19)
(0.0926506 0.113511 -3.12017e-19)
(0.127175 0.101901 -3.30398e-19)
(0.164624 0.0879012 -3.13621e-19)
(0.20482 0.0717944 5.79117e-19)
(0.24761 0.053823 -1.21885e-18)
(0.29284 0.0341958 7.08665e-19)
(0.340334 0.0130973 -1.21702e-18)
(0.389878 -0.00930257 -1.90028e-19)
(0.441196 -0.0328382 -6.84798e-19)
(0.493946 -0.0573361 -1.61747e-19)
(0.547703 -0.0825994 -1.97716e-19)
(0.601919 -0.10839 -6.66545e-19)
(0.655876 -0.134293 -7.3401e-20)
(0.709304 -0.158697 4.1014e-19)
(0.760803 -0.177117 -1.04462e-18)
(-0.0114201 0.0166867 2.65882e-19)
(-0.0280766 0.0446413 3.59181e-19)
(-0.0370861 0.0677981 1.25734e-18)
(-0.0388861 0.0859211 -2.21233e-19)
(-0.0339511 0.0991303 5.29112e-19)
(-0.0228008 0.107689 1.26179e-18)
(-0.00599823 0.111923 -3.45455e-19)
(0.0159157 0.112199 4.68664e-19)
(0.0424581 0.108908 2.74063e-19)
(0.0732161 0.102434 4.99663e-19)
(0.107847 0.0931422 -1.00378e-19)
(0.14607 0.0813665 6.83262e-20)
(0.187648 0.0674038 -1.81969e-19)
(0.232369 0.0515154 9.72458e-19)
(0.280019 0.0339308 1.2336e-19)
(0.330361 0.0148546 9.21556e-19)
(0.383115 -0.00552516 -2.39236e-19)
(0.437933 -0.0270282 8.61602e-19)
(0.494395 -0.0494738 1.24092e-19)
(0.552 -0.0726713 4.46666e-19)
(0.610173 -0.0964096 -1.93682e-19)
(0.668226 -0.120451 -3.71144e-20)
(0.725305 -0.144436 1.07866e-18)
(0.781083 -0.166791 6.64896e-19)
(0.834875 -0.182383 -2.70132e-19)
(-0.0114797 0.0154988 -6.40264e-19)
(-0.0277969 0.040622 -6.69404e-19)
(-0.0362327 0.0607895 -7.01962e-19)
(-0.0371403 0.076063 2.59436e-19)
(-0.0309584 0.0867175 -5.208e-19)
(-0.0181818 0.0930887 -7.76483e-20)
(0.000656634 0.0955249 -2.059e-19)
(0.0250466 0.0943873 -8.56059e-19)
(0.0545303 0.0900396 -1.34307e-19)
(0.0887105 0.0828344 2.2146e-19)
(0.127246 0.0731022 -6.99323e-19)
(0.169838 0.0611455 9.7484e-19)
(0.216208 0.0472366 -1.33367e-18)
(0.266075 0.031619 3.24291e-19)
(0.31913 0.0145122 -8.28812e-19)
(0.375011 -0.00388169 -6.80856e-19)
(0.433288 -0.0233706 -4.04297e-20)
(0.493451 -0.0437656 -1.0619e-19)
(0.554907 -0.0648743 8.14372e-20)
(0.616987 -0.0864945 -4.03432e-19)
(0.678963 -0.108408 -2.80335e-19)
(0.74003 -0.13038 3.46904e-19)
(0.799237 -0.152115 -9.64884e-19)
(0.856192 -0.172148 3.13563e-19)
(0.9111 -0.184624 2.16752e-19)
(-0.0116016 0.0145124 -1.12909e-19)
(-0.0274792 0.0370581 -1.93053e-19)
(-0.0350652 0.054403 7.59021e-19)
(-0.0346927 0.0669262 2.82608e-19)
(-0.0267941 0.0750738 3.74997e-19)
(-0.0118543 0.0792692 -5.03257e-19)
(0.00961566 0.0798981 1.27061e-21)
(0.0371288 0.0773268 -4.09389e-19)
(0.0702433 0.0719046 7.60209e-19)
(0.108564 0.0639603 2.49498e-19)
(0.151729 0.0537981 2.82556e-19)
(0.199392 0.0416962 -1.12435e-18)
(0.251199 0.0279066 1.39833e-18)
(0.306758 0.0126588 -4.20759e-19)
(0.365618 -0.00383569 -3.04621e-19)
(0.427253 -0.0213774 9.21031e-19)
(0.491049 -0.0397731 4.16876e-19)
(0.556308 -0.0588301 -1.05764e-18)
(0.622254 -0.0783528 -4.47648e-19)
(0.688058 -0.0981389 1.35397e-18)
(0.752863 -0.117975 -1.03993e-18)
(0.815791 -0.137643 6.2925e-19)
(0.875853 -0.156917 3.53391e-19)
(0.932615 -0.174499 -4.55794e-19)
(0.987221 -0.183775 -4.25256e-19)
(-0.0117653 0.0136831 -4.14988e-19)
(-0.0270586 0.0338717 6.69893e-19)
(-0.033458 0.0485703 2.86014e-19)
(-0.0313434 0.058476 -4.15172e-19)
(-0.021173 0.0642122 -6.70482e-20)
(-0.00343925 0.0662993 -4.37962e-19)
(0.0213544 0.0651703 -1.74885e-19)
(0.052729 0.0612062 1.96842e-19)
(0.0902399 0.0547512 -4.93622e-20)
(0.133467 0.0461187 3.75151e-19)
(0.181997 0.0355942 -3.27674e-19)
(0.235396 0.0234368 9.10972e-19)
(0.293185 0.00988316 -1.13801e-18)
(0.354818 -0.0048492 7.12497e-19)
(0.419659 -0.0205568 8.9472e-19)
(0.48698 -0.0370453 -1.30246e-18)
(0.555962 -0.0541257 -3.99764e-19)
(0.62571 -0.0716108 6.78221e-19)
(0.695276 -0.0893137 -4.1952e-19)
(0.763699 -0.107047 4.09978e-19)
(0.830039 -0.124618 -9.94437e-19)
(0.893398 -0.141848 1.66529e-19)
(0.952835 -0.158597 6.55349e-19)
(1.00796 -0.173743 -1.05878e-18)
(1.06068 -0.179982 2.80755e-19)
(-0.0119378 0.0129593 -3.82807e-19)
(-0.0264448 0.0309661 1.24558e-18)
(-0.0312591 0.0431938 2.39709e-19)
(-0.0268725 0.050639 -6.51508e-19)
(-0.0138021 0.0540993 4.68723e-19)
(0.00743067 0.0541954 2.38381e-19)
(0.0363087 0.0514134 3.82061e-19)
(0.0723371 0.0461555 -2.55745e-20)
(0.115038 0.0387685 -3.99054e-20)
(0.16393 0.0295574 -8.38914e-20)
(0.218502 0.0187944 -3.70856e-19)
(0.278185 0.00672491 -1.39864e-20)
(0.342328 -0.00642797 8.76222e-19)
(0.410184 -0.0204583 -1.4494e-18)
(0.480896 -0.035173 1.03511e-18)
(0.553514 -0.0503884 2.10837e-19)
(0.627006 -0.0659274 3.75406e-19)
(0.700294 -0.0816183 -1.96139e-19)
(0.772292 -0.0972949 1.73767e-18)
(0.841947 -0.112798 -1.07847e-18)
(0.908289 -0.127974 8.67235e-19)
(0.970453 -0.142703 2.05251e-19)
(1.02762 -0.156936 -6.42604e-19)
(1.0796 -0.169636 5.46802e-19)
(1.12848 -0.173383 8.29645e-19)
(-0.0120751 0.0122862 -1.10887e-19)
(-0.0255279 0.0282344 -4.39329e-19)
(-0.0282983 0.0381564 -7.54249e-19)
(-0.0210516 0.0433135 -4.31277e-19)
(-0.00439691 0.0446648 -6.07147e-20)
(0.021089 0.0429298 -1.71975e-19)
(0.0548469 0.038649 -7.97829e-19)
(0.096332 0.0322503 1.32387e-19)
(0.144992 0.0240876 -9.04071e-19)
(0.200237 0.0144628 -7.05572e-20)
(0.261406 0.00363872 -8.75673e-19)
(0.327744 -0.00815132 -3.14355e-19)
(0.39838 -0.0206976 1.81359e-19)
(0.472327 -0.0338087 -8.66704e-19)
(0.548488 -0.0473075 7.55777e-21)
(0.625687 -0.0610287 -7.54743e-19)
(0.7027 -0.0748165 2.93413e-19)
(0.778303 -0.0885241 -1.06155e-18)
(0.851325 -0.102015 -1.82658e-19)
(0.920689 -0.115162 -2.10255e-20)
(0.985456 -0.127855 -1.79097e-19)
(1.04483 -0.140031 -1.80923e-19)
(1.09815 -0.151647 -8.638e-20)
(1.14545 -0.161635 -3.59718e-19)
(1.18762 -0.164633 -7.69275e-19)
(-0.0121255 0.0116107 2.03528e-19)
(-0.0241839 0.0255689 5.55585e-19)
(-0.024396 0.0333338 6.70881e-19)
(-0.0136544 0.0363821 -5.39218e-19)
(0.0073052 0.0358152 1.00433e-18)
(0.0378202 0.0324442 -5.48103e-19)
(0.0772526 0.0268624 2.98606e-19)
(0.124964 0.0195241 4.66797e-19)
(0.180278 0.0107932 4.27263e-19)
(0.242441 0.000969984 2.08411e-19)
(0.310587 -0.00969074 3.39106e-19)
(0.383723 -0.0209692 1.97536e-19)
(0.460719 -0.0326728 1.34694e-18)
(0.540325 -0.0446312 -9.83442e-19)
(0.621204 -0.056692 1.128e-18)
(0.701971 -0.0687184 -4.69362e-19)
(0.781256 -0.0805867 1.01838e-18)
(0.857755 -0.0921848 -4.68299e-20)
(0.930288 -0.103412 -2.11739e-19)
(0.997845 -0.114176 -3.28891e-20)
(1.05961 -0.124397 7.91635e-19)
(1.115 -0.134009 -7.5273e-19)
(1.16364 -0.142858 5.41706e-19)
(1.20555 -0.150312 5.76594e-19)
(1.23683 -0.157915 1.08316e-19)
(-0.012033 0.0108858 1.40625e-19)
(-0.0222815 0.0228711 -7.94541e-19)
(-0.0193707 0.028607 -2.90035e-19)
(-0.00446574 0.0297275 2.65815e-19)
(0.0215366 0.0274506 -8.24367e-19)
(0.0578517 0.0226683 -1.63748e-19)
(0.103719 0.0160213 1.1377e-19)
(0.158354 0.00798843 4.50771e-19)
(0.2209 -0.00105783 -1.14832e-18)
(0.290378 -0.0108195 8.76533e-20)
(0.365665 -0.0210533 -3.38689e-19)
(0.445484 -0.0315581 -1.03539e-18)
(0.52842 -0.0421665 7.08598e-19)
(0.612959 -0.0527391 3.05396e-20)
(0.697538 -0.0631597 -2.18872e-20)
(0.780615 -0.0733318 7.21162e-19)
(0.860737 -0.083175 -1.27316e-18)
(0.936601 -0.092622 1.00823e-18)
(1.00711 -0.101615 -1.89108e-19)
(1.07141 -0.110105 5.71729e-19)
(1.12891 -0.118045 -9.47199e-19)
(1.17927 -0.125388 5.30649e-19)
(1.22244 -0.132029 -9.23512e-19)
(1.25866 -0.137683 9.19938e-19)
(1.28578 -0.143465 -3.08244e-19)
(-0.0117406 0.0100738 9.44296e-19)
(-0.0196885 0.0200596 -1.59482e-19)
(-0.0130454 0.0238749 1.18218e-18)
(0.00671382 0.0232479 5.49921e-19)
(0.0384962 0.0194834 4.391e-20)
(0.0813536 0.0135405 2.4257e-19)
(0.134352 0.00609832 5.83182e-20)
(0.196503 -0.00234527 9.98131e-19)
(0.266704 -0.0114138 3.22619e-19)
(0.343696 -0.0208175 -4.37262e-20)
(0.426046 -0.0303321 8.70506e-20)
(0.512163 -0.0397849 3.38547e-19)
(0.600338 -0.0490454 2.83645e-19)
(0.688808 -0.0580176 6.08104e-19)
(0.775836 -0.0666343 -6.95623e-19)
(0.859788 -0.0748503 2.09139e-19)
(0.939213 -0.082637 6.65126e-20)
(1.0129 -0.0899772 3.09293e-19)
(1.07993 -0.09686 8.24168e-19)
(1.13969 -0.103277 -5.47133e-19)
(1.19184 -0.10922 3.97163e-20)
(1.23634 -0.114677 -7.27025e-19)
(1.27342 -0.119607 6.70996e-19)
(1.30353 -0.123865 -6.1468e-19)
(1.32537 -0.128328 8.15887e-20)
(-0.0111931 0.00914861 -7.87507e-19)
(-0.0162761 0.0170763 6.24095e-19)
(-0.00525206 0.0190645 -1.02174e-18)
(0.020065 0.0168706 8.87794e-20)
(0.0583494 0.011855 7.26836e-19)
(0.108443 0.00502626 -1.21747e-18)
(0.16918 -0.00290945 9.70579e-19)
(0.239305 -0.0114452 -1.54802e-18)
(0.317408 -0.0202098 3.10226e-19)
(0.40189 -0.0289324 6.65816e-20)
(0.490971 -0.0374203 5.27764e-19)
(0.582731 -0.0455431 -1.75929e-18)
(0.67518 -0.0532217 3.05108e-19)
(0.766353 -0.0604173 3.2325e-19)
(0.854406 -0.0671224 -1.93383e-19)
(0.937705 -0.0733509 -1.19537e-18)
(1.0149 -0.0791294 5.6668e-19)
(1.08497 -0.0844896 1.04201e-18)
(1.14725 -0.089462 -1.08653e-18)
(1.20141 -0.0940715 7.80359e-19)
(1.24744 -0.098335 -9.84706e-19)
(1.2856 -0.102261 7.10267e-19)
(1.31638 -0.105828 -1.81599e-19)
(1.3404 -0.108947 1.03895e-18)
(1.35704 -0.112367 -1.15107e-18)
(-0.010339 0.00809668 1.12745e-19)
(-0.0119225 0.0138906 9.2405e-20)
(0.00416602 0.014138 2.27264e-19)
(0.0357492 0.0105629 8.15263e-19)
(0.0812297 0.0045486 -2.55876e-20)
(0.139187 -0.00286641 1.8421e-19)
(0.208163 -0.0109649 8.24921e-19)
(0.286566 -0.019245 3.34933e-19)
(0.372616 -0.0273554 -1.10671e-19)
(0.464328 -0.0350602 9.47986e-19)
(0.559552 -0.0422154 -1.08328e-18)
(0.656043 -0.0487501 1.66723e-18)
(0.751576 -0.0546518 -6.62771e-19)
(0.844053 -0.0599511 1.20188e-18)
(0.931615 -0.0647073 -4.07041e-19)
(1.01273 -0.0689952 1.47902e-19)
(1.08626 -0.072893 1.78702e-19)
(1.15145 -0.0764733 -3.35389e-19)
(1.20796 -0.0797963 2.84121e-19)
(1.2558 -0.0829065 1.81334e-19)
(1.29529 -0.0858318 2.42395e-19)
(1.32695 -0.0885853 4.92501e-19)
(1.35152 -0.0911464 -5.24584e-20)
(1.36978 -0.0934617 -2.22131e-19)
(1.38157 -0.0961866 6.10546e-19)
(-0.00913093 0.00691615 -6.58645e-19)
(-0.00651491 0.0104996 7.2056e-20)
(0.0153522 0.00909625 -1.30645e-18)
(0.053907 0.00433802 -3.14079e-19)
(0.107239 -0.0024025 -5.91606e-19)
(0.173608 -0.0100791 -1.27621e-19)
(0.251194 -0.0179834 -6.4119e-19)
(0.338004 -0.0256379 -3.85297e-19)
(0.431831 -0.0327316 5.13341e-19)
(0.530272 -0.0390848 -8.60152e-19)
(0.6308 -0.0446225 -2.39828e-19)
(0.730889 -0.0493517 8.68476e-21)
(0.82814 -0.05334 -1.62359e-18)
(0.920421 -0.0566949 6.9012e-19)
(1.00597 -0.0595436 -1.0036e-18)
(1.08347 -0.0620162 -2.97506e-20)
(1.15207 -0.0642317 1.91584e-19)
(1.21139 -0.0662893 -3.17586e-19)
(1.26143 -0.0682628 -2.755e-19)
(1.30255 -0.0701996 1.29387e-19)
(1.33538 -0.0721233 1.40468e-19)
(1.3607 -0.0740368 -9.19333e-19)
(1.37943 -0.0759071 5.21379e-19)
(1.39245 -0.0776992 2.4395e-19)
(1.3999 -0.0800148 4.74814e-20)
(-0.00752599 0.00561566 6.73437e-19)
(5.02343e-05 0.00692727 -7.44995e-19)
(0.0284352 0.0039792 1.05245e-18)
(0.0746568 -0.00174384 1.64971e-19)
(0.136444 -0.00891355 -5.06953e-20)
(0.211675 -0.0165017 -3.61673e-19)
(0.298099 -0.0238333 5.43026e-20)
(0.393254 -0.0304803 5.5573e-19)
(0.494464 -0.0361981 -7.70116e-19)
(0.59889 -0.0408876 8.11885e-19)
(0.703663 -0.0445649 -8.57829e-20)
(0.80603 -0.0473313 4.00027e-20)
(0.903525 -0.0493435 1.06069e-18)
(0.994094 -0.0507865 1.41343e-18)
(1.07619 -0.0518483 -5.55756e-19)
(1.14881 -0.0527013 9.69337e-19)
(1.21149 -0.0534886 4.80142e-19)
(1.26422 -0.0543173 -2.99776e-19)
(1.30741 -0.0552567 9.17746e-19)
(1.34174 -0.0563416 -4.71551e-20)
(1.3681 -0.0575779 -8.58578e-19)
(1.38747 -0.0589483 8.84613e-19)
(1.40089 -0.0604009 1.14405e-19)
(1.40931 -0.0619112 -5.22603e-19)
(1.41304 -0.0640342 1.6723e-19)
(-0.00548494 0.00421261 -9.36281e-19)
(0.00786626 0.00322141 1.01556e-18)
(0.0435271 -0.00113728 -6.48842e-19)
(0.0980908 -0.00757811 -2.03979e-19)
(0.168874 -0.014852 -4.60024e-19)
(0.253304 -0.021978 8.18903e-19)
(0.348628 -0.0283443 -4.78819e-19)
(0.451864 -0.0336034 -2.20721e-19)
(0.559833 -0.0376063 -6.34314e-19)
(0.66928 -0.0403618 1.67654e-20)
(0.777045 -0.0419973 -2.49862e-19)
(0.880252 -0.0427193 1.20159e-19)
(0.976481 -0.0427754 -1.27564e-18)
(1.06389 -0.04242 3.65011e-19)
(1.14125 -0.0418871 -4.34616e-19)
(1.20798 -0.0413718 -3.44516e-19)
(1.26402 -0.0410203 1.04765e-19)
(1.30979 -0.0409279 -4.93277e-19)
(1.34605 -0.0411426 -2.01251e-19)
(1.37378 -0.0416729 5.97215e-19)
(1.39407 -0.0424974 2.40687e-19)
(1.40805 -0.0435731 -1.03191e-18)
(1.41682 -0.0448262 7.42564e-19)
(1.42133 -0.0462375 -1.39002e-19)
(1.42198 -0.0483175 -2.79662e-19)
(-0.00297166 0.00273139 -3.40475e-19)
(0.0170159 -0.00054964 -1.89035e-19)
(0.0607204 -0.00614596 -3.7968e-20)
(0.124269 -0.0130222 2.81305e-19)
(0.204509 -0.0200455 3.08323e-19)
(0.298343 -0.0263163 2.70422e-19)
(0.402454 -0.0313212 3.38331e-19)
(0.513292 -0.0348283 5.19172e-19)
(0.627179 -0.0368169 7.97031e-19)
(0.740486 -0.0374286 7.90474e-19)
(0.849854 -0.0369173 4.17432e-19)
(0.952407 -0.0355983 -1.13078e-19)
(1.04591 -0.0338018 2.85673e-20)
(1.12884 -0.0318351 -3.2522e-20)
(1.20042 -0.0299564 3.30266e-19)
(1.26051 -0.0283599 -8.02106e-20)
(1.30951 -0.0271731 9.4468e-19)
(1.34824 -0.0264609 -4.29108e-19)
(1.37776 -0.0262361 2.91766e-21)
(1.3993 -0.0264716 2.79178e-19)
(1.41409 -0.027114 -6.18545e-19)
(1.42333 -0.0280924 1.0007e-18)
(1.42813 -0.0293123 -8.03866e-19)
(1.42941 -0.0307584 1.39477e-19)
(1.42759 -0.0328903 -5.06177e-19)
(4.72433e-05 0.00120195 7.3014e-19)
(0.0275703 -0.00430088 5.11063e-19)
(0.0800844 -0.0109142 -3.30049e-19)
(0.153215 -0.0179038 1.47002e-18)
(0.243273 -0.0242934 -1.2816e-18)
(0.346569 -0.0293036 2.71747e-19)
(0.459161 -0.03256 -2.0546e-19)
(0.576914 -0.0339845 -9.12399e-19)
(0.695677 -0.0337161 -9.46854e-20)
(0.811529 -0.0320498 -7.40408e-19)
(0.921037 -0.0293726 1.71037e-20)
(1.02146 -0.0261018 -7.64749e-19)