/*--------------------------------*- C++ -*----------------------------------*\
  =========                 |
  \\      /  F ield         | OpenFOAM: The Open Source CFD Toolbox
   \\    /   O peration     | Website:  https://openfoam.org
    \\  /    A nd           | Version:  6.0
     \\/     M anipulation  |
\*---------------------------------------------------------------------------*/
FoamFile
{
    version     2.0;
    format      ascii;
    class       volScalarField;
    location    "16";
    object      p;
}
// * * * * * * * * * * * * * * * * * * * * * * * * * * * * * * * * * * * * * //

dimensions      [0 2 -2 0 0 0 0];

internalField   nonuniform List<scalar> 
8000
(
-0.279795
-0.280921
-0.281649
-0.282173
-0.282611
-0.282984
-0.283308
-0.2836
-0.28387
-0.284126
-0.284373
-0.284618
-0.284866
-0.285123
-0.285395
-0.285692
-0.286018
-0.286346
-0.28666
-0.28729
-0.279939
-0.281057
-0.281779
-0.282296
-0.282728
-0.283094
-0.283412
-0.283696
-0.283958
-0.284205
-0.284444
-0.28468
-0.284918
-0.285166
-0.285428
-0.285715
-0.286032
-0.286351
-0.286656
-0.287281
-0.280228
-0.281328
-0.282036
-0.282541
-0.28296
-0.283312
-0.283615
-0.283885
-0.284131
-0.284361
-0.284582
-0.284799
-0.285018
-0.285245
-0.285487
-0.285755
-0.286053
-0.286355
-0.28664
-0.287257
-0.280657
-0.281731
-0.28242
-0.282906
-0.283304
-0.283635
-0.283917
-0.284162
-0.284384
-0.284588
-0.284781
-0.284969
-0.285158
-0.285353
-0.285563
-0.2858
-0.286069
-0.286343
-0.2866
-0.287204
-0.281222
-0.282264
-0.282927
-0.283387
-0.283759
-0.284061
-0.284311
-0.284525
-0.284711
-0.284879
-0.285033
-0.28518
-0.285326
-0.285477
-0.285643
-0.285835
-0.286063
-0.286298
-0.286516
-0.287101
-0.281919
-0.282924
-0.283554
-0.283983
-0.28432
-0.284585
-0.284795
-0.284966
-0.285108
-0.285227
-0.28533
-0.285423
-0.285512
-0.285604
-0.28571
-0.285843
-0.286016
-0.286199
-0.286365
-0.286925
-0.282743
-0.283706
-0.2843
-0.28469
-0.284984
-0.285203
-0.285364
-0.285483
-0.285568
-0.285627
-0.285666
-0.28569
-0.285706
-0.285722
-0.285751
-0.285807
-0.285907
-0.286022
-0.286123
-0.286652
-0.283692
-0.28461
-0.285161
-0.285507
-0.28575
-0.285914
-0.286017
-0.286072
-0.28609
-0.286076
-0.286036
-0.285976
-0.285902
-0.285824
-0.285755
-0.285714
-0.28572
-0.285747
-0.285768
-0.286257
-0.284764
-0.285634
-0.286138
-0.286431
-0.286616
-0.286717
-0.286751
-0.286733
-0.286672
-0.286574
-0.286442
-0.286282
-0.286101
-0.285908
-0.285719
-0.285555
-0.285442
-0.285357
-0.285276
-0.285717
-0.285961
-0.286779
-0.28723
-0.287464
-0.287583
-0.287611
-0.287569
-0.287469
-0.28732
-0.287126
-0.28689
-0.286617
-0.28631
-0.285982
-0.285648
-0.285334
-0.285071
-0.284841
-0.28463
-0.285007
-0.287287
-0.288048
-0.288439
-0.288606
-0.28865
-0.288599
-0.288472
-0.288283
-0.288038
-0.287742
-0.287393
-0.286994
-0.286548
-0.286064
-0.285559
-0.285063
-0.284612
-0.284195
-0.283812
-0.284104
-0.288747
-0.289446
-0.289768
-0.289859
-0.289821
-0.289683
-0.289464
-0.28918
-0.288836
-0.288432
-0.287965
-0.287434
-0.286838
-0.286182
-0.285482
-0.28477
-0.284085
-0.283425
-0.282808
-0.282974
-0.29035
-0.290977
-0.291222
-0.291228
-0.291098
-0.290864
-0.290549
-0.290166
-0.28972
-0.289208
-0.288623
-0.287958
-0.287207
-0.286369
-0.285454
-0.284491
-0.283523
-0.282548
-0.281605
-0.281573
-0.292107
-0.292651
-0.292807
-0.292717
-0.292484
-0.292146
-0.291727
-0.291242
-0.290694
-0.290076
-0.289377
-0.288583
-0.28768
-0.286656
-0.285511
-0.284268
-0.282962
-0.281588
-0.280191
-0.279843
-0.29403
-0.294477
-0.29453
-0.294329
-0.293981
-0.293527
-0.292997
-0.292405
-0.291753
-0.291032
-0.290226
-0.289311
-0.288264
-0.28706
-0.285681
-0.284134
-0.282441
-0.280571
-0.278553
-0.277704
-0.296134
-0.296468
-0.2964
-0.296071
-0.295591
-0.295008
-0.294354
-0.293647
-0.292888
-0.292064
-0.291154
-0.290128
-0.288948
-0.287575
-0.285968
-0.284108
-0.281989
-0.279535
-0.276707
-0.275097
-0.298436
-0.298637
-0.298429
-0.297952
-0.297319
-0.296587
-0.295794
-0.294959
-0.294082
-0.293151
-0.292137
-0.291004
-0.289703
-0.288175
-0.286356
-0.284191
-0.281639
-0.278556
-0.274756
-0.272054
-0.300958
-0.301004
-0.300632
-0.299981
-0.299172
-0.298268
-0.297314
-0.296331
-0.295322
-0.29427
-0.293147
-0.291908
-0.290493
-0.288828
-0.286821
-0.284376
-0.281402
-0.277673
-0.272754
-0.268493
-0.303727
-0.303592
-0.303029
-0.302178
-0.301163
-0.30006
-0.298919
-0.297765
-0.296602
-0.295415
-0.294174
-0.292831
-0.291323
-0.289563
-0.287437
-0.284802
-0.281486
-0.277096
-0.270751
-0.264131
-0.306776
-0.306432
-0.305647
-0.304564
-0.303313
-0.301982
-0.300626
-0.299276
-0.297938
-0.296602
-0.295239
-0.293811
-0.292266
-0.290537
-0.288537
-0.286156
-0.283229
-0.279249
-0.272924
-0.265417
-0.310148
-0.309559
-0.308519
-0.307172
-0.305654
-0.304064
-0.302467
-0.300897
-0.299365
-0.297866
-0.296383
-0.294893
-0.293375
-0.291821
-0.290251
-0.288754
-0.287528
-0.28691
-0.288225
-0.298151
-0.313891
-0.313017
-0.311685
-0.310041
-0.308225
-0.306349
-0.304487
-0.302677
-0.300936
-0.299265
-0.297658
-0.296109
-0.294625
-0.293243
-0.292048
-0.291211
-0.29104
-0.292009
-0.295157
-0.304861
-0.31806
-0.316854
-0.315193
-0.313218
-0.311076
-0.308891
-0.306744
-0.30468
-0.30272
-0.30087
-0.299133
-0.297519
-0.296055
-0.2948
-0.293866
-0.293434
-0.293784
-0.295284
-0.298456
-0.305602
-0.322716
-0.321124
-0.319092
-0.316756
-0.314262
-0.311749
-0.309304
-0.306975
-0.304787
-0.302749
-0.300871
-0.299168
-0.297676
-0.296459
-0.295619
-0.295307
-0.295715
-0.297059
-0.299568
-0.304206
-0.32792
-0.325882
-0.323436
-0.32071
-0.317843
-0.314986
-0.312231
-0.309629
-0.307201
-0.304959
-0.302909
-0.301069
-0.299468
-0.29816
-0.297222
-0.296752
-0.296856
-0.297624
-0.299142
-0.301547
-0.333731
-0.331179
-0.32828
-0.325136
-0.321877
-0.318663
-0.315588
-0.312698
-0.31001
-0.307529
-0.305257
-0.303202
-0.301383
-0.299835
-0.298606
-0.297746
-0.2973
-0.297285
-0.297729
-0.29838
-0.340201
-0.337068
-0.333673
-0.330088
-0.326421
-0.322836
-0.319426
-0.316224
-0.313239
-0.310465
-0.307892
-0.305518
-0.30335
-0.301404
-0.299705
-0.298275
-0.297126
-0.296243
-0.295637
-0.294936
-0.347374
-0.34359
-0.339662
-0.335615
-0.331523
-0.327552
-0.32378
-0.320228
-0.316888
-0.313738
-0.31076
-0.30794
-0.305276
-0.302777
-0.300455
-0.298322
-0.29638
-0.294617
-0.293035
-0.2913
-0.355281
-0.350778
-0.346284
-0.341756
-0.337223
-0.332839
-0.328667
-0.324704
-0.320923
-0.31729
-0.313775
-0.310364
-0.307054
-0.303856
-0.300785
-0.297857
-0.295078
-0.29245
-0.289973
-0.287404
-0.363936
-0.358652
-0.353563
-0.348538
-0.343541
-0.338709
-0.334077
-0.329615
-0.325279
-0.321023
-0.316823
-0.312667
-0.308568
-0.304547
-0.300632
-0.296849
-0.293218
-0.289752
-0.286451
-0.283162
-0.373332
-0.367215
-0.361508
-0.35597
-0.35048
-0.345143
-0.339964
-0.334886
-0.32985
-0.324815
-0.319768
-0.31472
-0.309703
-0.304761
-0.299937
-0.29527
-0.29079
-0.286518
-0.28245
-0.278498
-0.383439
-0.376447
-0.370108
-0.364038
-0.35801
-0.35209
-0.346247
-0.340403
-0.334499
-0.328514
-0.322462
-0.316387
-0.310352
-0.304421
-0.298653
-0.293097
-0.287786
-0.282743
-0.277953
-0.273373
-0.394197
-0.386304
-0.379323
-0.372696
-0.366068
-0.359456
-0.352799
-0.346014
-0.33906
-0.331953
-0.324753
-0.317544
-0.310419
-0.303462
-0.296744
-0.290314
-0.284202
-0.278425
-0.272954
-0.267774
-0.405513
-0.396709
-0.38908
-0.38186
-0.374546
-0.367103
-0.359456
-0.351535
-0.343345
-0.33496
-0.326493
-0.318074
-0.309821
-0.301833
-0.29418
-0.286907
-0.280033
-0.273565
-0.267454
-0.261704
-0.417257
-0.407549
-0.399271
-0.391407
-0.383291
-0.37485
-0.366013
-0.356756
-0.347156
-0.33736
-0.327543
-0.317873
-0.308487
-0.299487
-0.290935
-0.282862
-0.275274
-0.26816
-0.261453
-0.255172
-0.429261
-0.418675
-0.409741
-0.401163
-0.392105
-0.382472
-0.372234
-0.361449
-0.350291
-0.338988
-0.327775
-0.316849
-0.306354
-0.296382
-0.286982
-0.278162
-0.269912
-0.262203
-0.254945
-0.248182
-0.441315
-0.429894
-0.420295
-0.41091
-0.400743
-0.389709
-0.377864
-0.365383
-0.352552
-0.339689
-0.327074
-0.314918
-0.303361
-0.292476
-0.282287
-0.272781
-0.263927
-0.255678
-0.247919
-0.240727
-0.453167
-0.44097
-0.43069
-0.420385
-0.408922
-0.396276
-0.382635
-0.368325
-0.353755
-0.33932
-0.325332
-0.312003
-0.299451
-0.287723
-0.276814
-0.266687
-0.257291
-0.24856
-0.240355
-0.232794
-0.46453
-0.451629
-0.440641
-0.429283
-0.41633
-0.401872
-0.386281
-0.370056
-0.353727
-0.337751
-0.322454
-0.308029
-0.294565
-0.282074
-0.27052
-0.259843
-0.249971
-0.240819
-0.232225
-0.224359
-0.475082
-0.461562
-0.449829
-0.437272
-0.422636
-0.406195
-0.388545
-0.37037
-0.352311
-0.334864
-0.318348
-0.302925
-0.288643
-0.275477
-0.26336
-0.252206
-0.241929
-0.23242
-0.223498
-0.215395
-0.484476
-0.470427
-0.457904
-0.443997
-0.427504
-0.408948
-0.389185
-0.369079
-0.349364
-0.330551
-0.31293
-0.29662
-0.281624
-0.267878
-0.255284
-0.243734
-0.233123
-0.223325
-0.214141
-0.205869
-0.492344
-0.477862
-0.464497
-0.449095
-0.430603
-0.409853
-0.38798
-0.366018
-0.344762
-0.324714
-0.306121
-0.289047
-0.27345
-0.259224
-0.246244
-0.234381
-0.223515
-0.213498
-0.204119
-0.195751
-0.498313
-0.483496
-0.469236
-0.452212
-0.431619
-0.408655
-0.384737
-0.361041
-0.338395
-0.317267
-0.297848
-0.280145
-0.264064
-0.249465
-0.236195
-0.224105
-0.213065
-0.202904
-0.1934
-0.18501
-0.502011
-0.486959
-0.471753
-0.453007
-0.430267
-0.405133
-0.379289
-0.354024
-0.330167
-0.308134
-0.288048
-0.269855
-0.253415
-0.238554
-0.225094
-0.21287
-0.201739
-0.191512
-0.181958
-0.173621
-0.503082
-0.487891
-0.4717
-0.451171
-0.426297
-0.399097
-0.371498
-0.344866
-0.320001
-0.29725
-0.276663
-0.258127
-0.241458
-0.226451
-0.212905
-0.200644
-0.189511
-0.179298
-0.169772
-0.161564
-0.501192
-0.485957
-0.468761
-0.446432
-0.419497
-0.390395
-0.361258
-0.333489
-0.307835
-0.284563
-0.263649
-0.244922
-0.228157
-0.213123
-0.199601
-0.187402
-0.176358
-0.166245
-0.156828
-0.148828
-0.496045
-0.480858
-0.462658
-0.438565
-0.409704
-0.378913
-0.348489
-0.319835
-0.293624
-0.270035
-0.24897
-0.230207
-0.213485
-0.198547
-0.185161
-0.173127
-0.162269
-0.152342
-0.143119
-0.135405
-0.487386
-0.472339
-0.453164
-0.427395
-0.396797
-0.364577
-0.333145
-0.303873
-0.277342
-0.253643
-0.232607
-0.213966
-0.197425
-0.18271
-0.169575
-0.157813
-0.147238
-0.137589
-0.128649
-0.1213
-0.475014
-0.460198
-0.440108
-0.412802
-0.380705
-0.347349
-0.315209
-0.285592
-0.258982
-0.235379
-0.214552
-0.196189
-0.179972
-0.165608
-0.152842
-0.141461
-0.13127
-0.121994
-0.113427
-0.106522
-0.458785
-0.444291
-0.423377
-0.394721
-0.361407
-0.327232
-0.294691
-0.265006
-0.238555
-0.215253
-0.194812
-0.176884
-0.16113
-0.147246
-0.134969
-0.124081
-0.11438
-0.105576
-0.0974786
-0.091097
-0.438617
-0.424538
-0.402923
-0.373146
-0.338924
-0.304264
-0.271635
-0.242154
-0.216094
-0.193291
-0.173408
-0.156068
-0.140917
-0.127641
-0.115972
-0.105691
-0.0965865
-0.0883598
-0.0808353
-0.0750658
-0.414493
-0.400922
-0.378758
-0.348123
-0.313328
-0.278521
-0.246111
-0.217098
-0.191651
-0.169537
-0.150376
-0.133771
-0.119357
-0.106813
-0.0958717
-0.08631
-0.0779123
-0.0703734
-0.0635341
-0.0584722
-0.386462
-0.373493
-0.350958
-0.319755
-0.284729
-0.250112
-0.218218
-0.189924
-0.1653
-0.144052
-0.125768
-0.110035
-0.0964835
-0.0847919
-0.0746913
-0.0659599
-0.0583785
-0.0516422
-0.0456071
-0.0413397
-0.354635
-0.342365
-0.319657
-0.288191
-0.253282
-0.219184
-0.188088
-0.160745
-0.137136
-0.116915
-0.0996474
-0.084912
-0.0723377
-0.0616071
-0.0524544
-0.0446597
-0.0380048
-0.0321913
-0.0270785
-0.0236594
-0.319188
-0.307712
-0.285044
-0.253631
-0.219181
-0.185913
-0.155877
-0.129699
-0.107278
-0.0882279
-0.0720977
-0.0584659
-0.0469665
-0.03729
-0.0291789
-0.0224199
-0.0168012
-0.0120346
-0.00795796
-0.00543134
-0.280353
-0.269767
-0.247361
-0.216317
-0.182656
-0.150509
-0.121772
-0.0969499
-0.0758695
-0.0581123
-0.0432204
-0.0307772
-0.0204277
-0.0118764
-0.00488076
0.000760126
0.00524546
0.00884682
0.0117488
0.0132147
-0.238417
-0.228812
-0.206894
-0.17653
-0.143968
-0.113212
-0.0859902
-0.0626905
-0.0430794
-0.0267149
-0.0131384
-0.00194411
0.00720578
0.0145849
0.0204128
0.0248743
0.0281519
0.0304616
0.0319231
0.0318802
-0.193713
-0.185177
-0.163972
-0.134585
-0.103414
-0.0742907
-0.0487734
-0.0271403
-0.00910428
0.00579317
0.0180062
0.0279251
0.0358639
0.0420635
0.046709
0.0499638
0.0519697
0.0527666
0.0522436
0.0501214
-0.146615
-0.13923
-0.118955
-0.0908268
-0.0613109
-0.0340392
-0.0103934
0.00945041
0.0258262
0.0392057
0.0500391
0.0587031
0.0654888
0.0706026
0.0741926
0.0763905
0.0772232
0.0763328
0.0732521
0.0689997
-0.0975315
-0.0913723
-0.0722328
-0.0456228
-0.0180015
0.00722628
0.0288539
0.0468005
0.0614414
0.0732607
0.0827096
0.0901628
0.0959085
0.100152
0.103054
0.104763
0.105182
0.103457
0.0988877
0.094282
-0.0468958
-0.0420272
-0.0242137
0.000643386
0.0261587
0.0491745
0.0686554
0.0846072
0.0974394
0.107645
0.115676
0.121912
0.126655
0.130148
0.132636
0.134397
0.135402
0.134668
0.131934
0.135502
0.00484744
0.00836793
0.0246825
0.0475792
0.0708065
0.0914678
0.108693
0.122564
0.133516
0.142045
0.148596
0.153543
0.157186
0.159781
0.161589
0.162874
0.163622
0.16336
0.162987
0.168711
0.0572353
0.0593621
0.0740277
0.0947875
0.115577
0.133769
0.148651
0.16037
0.169382
0.176177
0.181192
0.18479
0.187267
0.188875
0.189865
0.190458
0.190635
0.190104
0.189774
0.194383
0.109802
0.110502
0.123394
0.141874
0.16011
0.175748
0.188221
0.197737
0.204759
0.209769
0.213189
0.215365
0.21658
0.217074
0.217078
0.216789
0.216202
0.215094
0.214213
0.217321
0.162084
0.161338
0.172358
0.188451
0.204053
0.217082
0.227111
0.234393
0.239397
0.24259
0.244375
0.24508
0.244967
0.244259
0.24316
0.241839
0.240278
0.23828
0.236535
0.238244
0.213625
0.211427
0.220506
0.234142
0.247066
0.257465
0.26504
0.270083
0.273061
0.274426
0.274559
0.273765
0.272288
0.270329
0.26807
0.265654
0.263046
0.260072
0.257387
0.257756
0.263979
0.260338
0.267436
0.278582
0.288821
0.296602
0.301741
0.304566
0.305537
0.305086
0.303572
0.301277
0.298426
0.2952
0.291759
0.28822
0.284541
0.280573
0.276945
0.276048
0.312715
0.307654
0.312763
0.321423
0.329005
0.334211
0.336965
0.337617
0.336622
0.334391
0.331258
0.327487
0.323281
0.318801
0.314189
0.309541
0.30481
0.299876
0.295328
0.293227
0.359421
0.35298
0.35612
0.362334
0.367323
0.370029
0.370471
0.369023
0.366126
0.362172
0.357473
0.35227
0.346747
0.34105
0.335302
0.329582
0.323842
0.317985
0.312558
0.309316
0.403707
0.395938
0.39716
0.401002
0.403494
0.403804
0.402037
0.398583
0.393871
0.388271
0.382075
0.375504
0.368724
0.361865
0.355034
0.348295
0.341602
0.33488
0.328619
0.3243
0.445205
0.436176
0.435558
0.437135
0.437258
0.435302
0.431452
0.426108
0.419686
0.412537
0.404931
0.397072
0.389109
0.381157
0.373308
0.365616
0.358037
0.350512
0.34347
0.338141
0.483573
0.473366
0.471012
0.470462
0.468371
0.464307
0.45852
0.451421
0.443412
0.434825
0.425912
0.416858
0.407799
0.398835
0.390046
0.381474
0.373082
0.364822
0.357058
0.350792
0.518499
0.507209
0.503247
0.500736
0.496612
0.490617
0.483061
0.474359
0.464902
0.455003
0.444898
0.434755
0.424696
0.414811
0.405166
0.395797
0.38667
0.377746
0.369322
0.362199
0.549699
0.537433
0.532015
0.527731
0.521779
0.514051
0.50491
0.494773
0.48402
0.472948
0.461775
0.450658
0.439707
0.428999
0.418592
0.408511
0.398732
0.389219
0.380205
0.372312
0.576922
0.563798
0.557093
0.551249
0.543692
0.534448
0.52392
0.512529
0.500644
0.488547
0.476443
0.464476
0.452746
0.441321
0.430248
0.41955
0.409204
0.399181
0.389648
0.38108
0.599949
0.586093
0.57829
0.571117
0.562197
0.551666
0.539963
0.52751
0.514667
0.501702
0.48881
0.476124
0.463736
0.451705
0.44007
0.42885
0.418028
0.407574
0.397601
0.388458
0.618594
0.604144
0.595444
0.587189
0.577161
0.565587
0.552931
0.539618
0.525997
0.51233
0.4988
0.485532
0.47261
0.460089
0.448
0.436359
0.425151
0.41435
0.40402
0.394408
0.63271
0.617808
0.608425
0.599347
0.588478
0.576112
0.562735
0.54877
0.534561
0.520362
0.506349
0.49264
0.479315
0.466422
0.45399
0.44203
0.430532
0.419468
0.408866
0.398899
0.642184
0.626978
0.617134
0.607502
0.596068
0.583171
0.569309
0.554906
0.540303
0.525746
0.511408
0.497405
0.483809
0.470667
0.458004
0.44583
0.434137
0.422898
0.412113
0.401906
0.64694
0.631581
0.621506
0.611595
0.599877
0.586713
0.572607
0.557985
0.543183
0.528448
0.513947
0.499795
0.486063
0.472796
0.460018
0.447737
0.435946
0.424618
0.413741
0.403414
0.64694
0.631581
0.621506
0.611595
0.599877
0.586713
0.572608
0.557986
0.543184
0.528448
0.513948
0.499795
0.486064
0.472797
0.460018
0.447737
0.435947
0.424619
0.413742
0.403415
0.642185
0.626979
0.617135
0.607503
0.596069
0.583172
0.569311
0.554908
0.540305
0.525748
0.51141
0.497406
0.483811
0.470669
0.458006
0.445832
0.434139
0.422899
0.412115
0.401908
0.632712
0.61781
0.608427
0.599349
0.58848
0.576115
0.562738
0.548773
0.534564
0.520365
0.506352
0.492643
0.479318
0.466426
0.453993
0.442033
0.430535
0.419471
0.40887
0.398902
0.618597
0.604147
0.595447
0.587192
0.577164
0.56559
0.552935
0.539622
0.526001
0.512334
0.498804
0.485536
0.472615
0.460093
0.448004
0.436363
0.425155
0.414354
0.404024
0.394413
0.599952
0.586097
0.578294
0.571121
0.562201
0.551671
0.539968
0.527516
0.514672
0.501707
0.488815
0.47613
0.463742
0.45171
0.440076
0.428856
0.418033
0.40758
0.397607
0.388464
0.576927
0.563802
0.557098
0.551254
0.543698
0.534454
0.523926
0.512535
0.50065
0.488553
0.476449
0.464483
0.452753
0.441328
0.430255
0.419557
0.409211
0.399188
0.389656
0.381087
0.549705
0.537439
0.532021
0.527737
0.521785
0.514058
0.504917
0.49478
0.484028
0.472956
0.461783
0.450667
0.439716
0.429008
0.4186
0.40852
0.398741
0.389228
0.380213
0.37232
0.518506
0.507216
0.503254
0.500743
0.49662
0.490625
0.48307
0.474368
0.464911
0.455013
0.444907
0.434764
0.424706
0.414821
0.405176
0.395807
0.38668
0.377756
0.369332
0.362209
0.483581
0.473374
0.47102
0.470471
0.46838
0.464316
0.45853
0.451431
0.443422
0.434836
0.425923
0.416869
0.40781
0.398846
0.390057
0.381485
0.373093
0.364833
0.357069
0.350803
0.445213
0.436184
0.435567
0.437144
0.437268
0.435313
0.431463
0.426119
0.419697
0.412549
0.404943
0.397084
0.389121
0.38117
0.373321
0.365628
0.35805
0.350524
0.343483
0.338153
0.403717
0.395948
0.39717
0.401013
0.403505
0.403816
0.40205
0.398596
0.393884
0.388285
0.382089
0.375518
0.368738
0.361879
0.355048
0.348309
0.341617
0.334894
0.328633
0.324313
0.359433
0.352991
0.356132
0.362346
0.367335
0.370042
0.370485
0.369037
0.366141
0.362187
0.357488
0.352285
0.346763
0.341066
0.335318
0.329598
0.323858
0.318001
0.312574
0.309331
0.312728
0.307667
0.312776
0.321436
0.329019
0.334226
0.33698
0.337633
0.336638
0.334407
0.331275
0.327504
0.323297
0.318818
0.314206
0.309558
0.304827
0.299892
0.295345
0.293244
0.263993
0.260352
0.26745
0.278597
0.288836
0.296618
0.301758
0.304583
0.305554
0.305104
0.30359
0.301295
0.298445
0.295218
0.291777
0.288238
0.284559
0.280592
0.276963
0.276066
0.213641
0.211443
0.220522
0.234158
0.247083
0.257483
0.265058
0.270101
0.27308
0.274446
0.274578
0.273784
0.272307
0.270349
0.26809
0.265674
0.263066
0.260092
0.257407
0.257776
0.162102
0.161356
0.172376
0.18847
0.204072
0.217102
0.227131
0.234414
0.239417
0.242611
0.244397
0.245101
0.244989
0.24428
0.243182
0.241861
0.240299
0.238302
0.236557
0.238265
0.109821
0.110522
0.123413
0.141894
0.160131
0.175769
0.188243
0.197759
0.204781
0.209792
0.213212
0.215388
0.216603
0.217097
0.217101
0.216812
0.216225
0.215117
0.214236
0.217344
0.0572564
0.0593835
0.0740492
0.0948094
0.1156
0.133792
0.148674
0.160394
0.169406
0.176202
0.181217
0.184815
0.187291
0.1889
0.18989
0.190482
0.19066
0.190128
0.189799
0.194407
0.00487072
0.00839144
0.0247062
0.0476031
0.0708309
0.0914927
0.108718
0.12259
0.133542
0.142071
0.148623
0.15357
0.157213
0.159808
0.161616
0.1629
0.163648
0.163387
0.163014
0.168737
-0.0468701
-0.0420013
-0.0241878
0.000669556
0.0261852
0.0492014
0.0686827
0.0846348
0.0974672
0.107673
0.115704
0.12194
0.126683
0.130176
0.132664
0.134425
0.13543
0.134696
0.131962
0.13553
-0.0975034
-0.0913439
-0.0722044
-0.0455943
-0.0179727
0.00725536
0.0288833
0.0468301
0.0614712
0.0732907
0.0827396
0.0901929
0.0959387
0.100182
0.103084
0.104793
0.105212
0.103487
0.0989176
0.094312
-0.146585
-0.139199
-0.118924
-0.0907958
-0.0612797
-0.0340078
-0.0103618
0.00948218
0.0258581
0.0392377
0.0500711
0.0587351
0.0655208
0.0706346
0.0742245
0.0764223
0.0772549
0.0763643
0.0732835
0.069031
-0.19368
-0.185143
-0.163938
-0.134551
-0.10338
-0.0742569
-0.0487395
-0.0271063
-0.00907022
0.00582725
0.0180403
0.0279591
0.0358978
0.0420972
0.0467426
0.0499973
0.052003
0.0527996
0.0522764
0.0501539
-0.23838
-0.228775
-0.206857
-0.176493
-0.143932
-0.113176
-0.0859538
-0.0626542
-0.0430431
-0.0266786
-0.0131022
-0.00190811
0.00724161
0.0146205
0.0204482
0.0249095
0.0281868
0.0304962
0.0319573
0.0319142
-0.280313
-0.269726
-0.247321
-0.216277
-0.182616
-0.15047
-0.121733
-0.0969111
-0.0758308
-0.0580738
-0.0431821
-0.0307391
-0.0203899
-0.0118389
-0.00484351
0.000797062
0.00528205
0.00888303
0.0117846
0.0132502
-0.319144
-0.307668
-0.285001
-0.253588
-0.219139
-0.185871
-0.155835
-0.129657
-0.107237
-0.0881871
-0.0720572
-0.0584257
-0.0469267
-0.0372506
-0.0291398
-0.0223811
-0.0167629
-0.0119968
-0.00792059
-0.00539429
-0.354588
-0.342317
-0.31961
-0.288145
-0.253237
-0.219139
-0.188043
-0.160701
-0.137092
-0.116872
-0.0996046
-0.0848697
-0.0722958
-0.0615657
-0.0524134
-0.0446192
-0.0379648
-0.0321518
-0.0270395
-0.0236209
-0.386411
-0.373442
-0.350908
-0.319705
-0.28468
-0.250064
-0.218171
-0.189877
-0.165254
-0.144006
-0.125723
-0.109991
-0.0964394
-0.0847484
-0.0746483
-0.0659175
-0.0583367
-0.051601
-0.0455666
-0.0412996
-0.414438
-0.400867
-0.378704
-0.34807
-0.313275
-0.278469
-0.24606
-0.217048
-0.191602
-0.169489
-0.150329
-0.133725
-0.119311
-0.106768
-0.0958267
-0.0862657
-0.0778687
-0.0703305
-0.0634918
-0.0584305
-0.438558
-0.424479
-0.402864
-0.373089
-0.338869
-0.304209
-0.271581
-0.242102
-0.216042
-0.193241
-0.173358
-0.156019
-0.140869
-0.127593
-0.115925
-0.105645
-0.096541
-0.0883151
-0.0807914
-0.0750226
-0.458721
-0.444228
-0.423315
-0.39466
-0.361347
-0.327174
-0.294635
-0.264951
-0.238501
-0.2152
-0.19476
-0.176832
-0.16108
-0.147196
-0.13492
-0.124033
-0.114332
-0.105529
-0.0974329
-0.091052
-0.474946
-0.460131
-0.440041
-0.412737
-0.380642
-0.347287
-0.315149
-0.285533
-0.258924
-0.235323
-0.214497
-0.196135
-0.179918
-0.165555
-0.15279
-0.141411
-0.131221
-0.121945
-0.11338
-0.106475
-0.487314
-0.472267
-0.453093
-0.427326
-0.396729
-0.364511
-0.333082
-0.303811
-0.277282
-0.253584
-0.232549
-0.213909
-0.197369
-0.182655
-0.169521
-0.157761
-0.147187
-0.137538
-0.128599
-0.121251
-0.495969
-0.480782
-0.462583
-0.438492
-0.409632
-0.378844
-0.348422
-0.31977
-0.29356
-0.269973
-0.24891
-0.230148
-0.213427
-0.19849
-0.185105
-0.173072
-0.162215
-0.152289
-0.143068
-0.135355
-0.501112
-0.485877
-0.468682
-0.446355
-0.419422
-0.390322
-0.361187
-0.33342
-0.307768
-0.284498
-0.263585
-0.244859
-0.228096
-0.213063
-0.199542
-0.187345
-0.176303
-0.16619
-0.156775
-0.148775
-0.502998
-0.487806
-0.471617
-0.45109
-0.426218
-0.39902
-0.371424
-0.344794
-0.319931
-0.297182
-0.276596
-0.258062
-0.241395
-0.226389
-0.212844
-0.200585
-0.189453
-0.179241
-0.169717
-0.16151
-0.501923
-0.486871
-0.471666
-0.452921
-0.430184
-0.405053
-0.37921
-0.353948
-0.330094
-0.308062
-0.287978
-0.269787
-0.253349
-0.238489
-0.22503
-0.212809
-0.201679
-0.191453
-0.181901
-0.173564
-0.498221
-0.483405
-0.469145
-0.452123
-0.431532
-0.408571
-0.384655
-0.360962
-0.338318
-0.317192
-0.297775
-0.280074
-0.263994
-0.249398
-0.236129
-0.224041
-0.213002
-0.202843
-0.19334
-0.184951
-0.492249
-0.477767
-0.464402
-0.449003
-0.430512
-0.409764
-0.387894
-0.365935
-0.344682
-0.324636
-0.306044
-0.288973
-0.273377
-0.259154
-0.246176
-0.234314
-0.223449
-0.213435
-0.204056
-0.19569
-0.484378
-0.470328
-0.457806
-0.443901
-0.42741
-0.408856
-0.389095
-0.368993
-0.34928
-0.330469
-0.31285
-0.296542
-0.281548
-0.267805
-0.255213
-0.243664
-0.233055
-0.223259
-0.214076
-0.205807
-0.474981
-0.46146
-0.449728
-0.437172
-0.422539
-0.406099
-0.388452
-0.370279
-0.352223
-0.334779
-0.318265
-0.302844
-0.288564
-0.2754
-0.263286
-0.252134
-0.241858
-0.232351
-0.223431
-0.21533
-0.464426
-0.451526
-0.440538
-0.429181
-0.416229
-0.401774
-0.386185
-0.369962
-0.353636
-0.337663
-0.322368
-0.307945
-0.294483
-0.281994
-0.270443
-0.259767
-0.249898
-0.240747
-0.232155
-0.224292
-0.453061
-0.440864
-0.430584
-0.42028
-0.408819
-0.396174
-0.382536
-0.368228
-0.353661
-0.339228
-0.325243
-0.311916
-0.299366
-0.28764
-0.276733
-0.266608
-0.257215
-0.248485
-0.240282
-0.232723
-0.441206
-0.429785
-0.420187
-0.410803
-0.400637
-0.389605
-0.377761
-0.365283
-0.352455
-0.339594
-0.326981
-0.314827
-0.303273
-0.29239
-0.282203
-0.272699
-0.263847
-0.2556
-0.247844
-0.240654
-0.429151
-0.418565
-0.409632
-0.401054
-0.391997
-0.382365
-0.372129
-0.361346
-0.35019
-0.338889
-0.327679
-0.316754
-0.306261
-0.296292
-0.286894
-0.278076
-0.269829
-0.262122
-0.254867
-0.248105
-0.417145
-0.407438
-0.399159
-0.391296
-0.383181
-0.374741
-0.365905
-0.35665
-0.347052
-0.337258
-0.327443
-0.317775
-0.308391
-0.299393
-0.290844
-0.282773
-0.275187
-0.268076
-0.261371
-0.255093
-0.4054
-0.396596
-0.388968
-0.381748
-0.374434
-0.366993
-0.359347
-0.351427
-0.343238
-0.334854
-0.32639
-0.317972
-0.309721
-0.301735
-0.294085
-0.286814
-0.279942
-0.273476
-0.267368
-0.261621
-0.394083
-0.38619
-0.379209
-0.372582
-0.365955
-0.359344
-0.352688
-0.345903
-0.33895
-0.331845
-0.324646
-0.317438
-0.310315
-0.30336
-0.296644
-0.290216
-0.284107
-0.278332
-0.272864
-0.267686
-0.383324
-0.376333
-0.369994
-0.363924
-0.357897
-0.351977
-0.346133
-0.34029
-0.334387
-0.328402
-0.322351
-0.316278
-0.310244
-0.304315
-0.298549
-0.292995
-0.287686
-0.282645
-0.277858
-0.273281
-0.373216
-0.3671
-0.361394
-0.355856
-0.350366
-0.345029
-0.339849
-0.334771
-0.329735
-0.3247
-0.319653
-0.314606
-0.309591
-0.30465
-0.299828
-0.295163
-0.290685
-0.286416
-0.28235
-0.278401
-0.363819
-0.358537
-0.353448
-0.348423
-0.343427
-0.338594
-0.333961
-0.329499
-0.325162
-0.320906
-0.316705
-0.31255
-0.308452
-0.304432
-0.300518
-0.296737
-0.293108
-0.289644
-0.286346
-0.283059
-0.355164
-0.350662
-0.346168
-0.341641
-0.337107
-0.332723
-0.32855
-0.324587
-0.320804
-0.31717
-0.313654
-0.310242
-0.306933
-0.303736
-0.300666
-0.297739
-0.294962
-0.292336
-0.289862
-0.287296
-0.347256
-0.343473
-0.339547
-0.3355
-0.331408
-0.327435
-0.323662
-0.320109
-0.316766
-0.313616
-0.310636
-0.307815
-0.30515
-0.302651
-0.30033
-0.298198
-0.296258
-0.294497
-0.292918
-0.291186
-0.340083
-0.336951
-0.333558
-0.329973
-0.326305
-0.322719
-0.319307
-0.316103
-0.313116
-0.310339
-0.307765
-0.305389
-0.30322
-0.301274
-0.299575
-0.298146
-0.296998
-0.296117
-0.295514
-0.294815
-0.333612
-0.331063
-0.328164
-0.32502
-0.321761
-0.318545
-0.315468
-0.312575
-0.309884
-0.307401
-0.305126
-0.303069
-0.301248
-0.2997
-0.29847
-0.29761
-0.297166
-0.297152
-0.297599
-0.298252
-0.327802
-0.325765
-0.323321
-0.320594
-0.317726
-0.314867
-0.31211
-0.309504
-0.307073
-0.304828
-0.302775
-0.300932
-0.299329
-0.29802
-0.297081
-0.296611
-0.296715
-0.297485
-0.299005
-0.301414
-0.322598
-0.321009
-0.318977
-0.31664
-0.314145
-0.311629
-0.309181
-0.306849
-0.304657
-0.302616
-0.300734
-0.299028
-0.297533
-0.296314
-0.295473
-0.295161
-0.295569
-0.296915
-0.299426
-0.304066
-0.317943
-0.31674
-0.315079
-0.313103
-0.310959
-0.308771
-0.306621
-0.304553
-0.302588
-0.300734
-0.298993
-0.297375
-0.295908
-0.294651
-0.293715
-0.293284
-0.293634
-0.295134
-0.298308
-0.305457
-0.313776
-0.312904
-0.311573
-0.309928
-0.308109
-0.30623
-0.304363
-0.302549
-0.300803
-0.299127
-0.297515
-0.295962
-0.294476
-0.293091
-0.291894
-0.291058
-0.290887
-0.291856
-0.295005
-0.304712
-0.310037
-0.309449
-0.30841
-0.307061
-0.30554
-0.303946
-0.302344
-0.300769
-0.299232
-0.297728
-0.296239
-0.294745
-0.293224
-0.291667
-0.290096
-0.288598
-0.287373
-0.286755
-0.288071
-0.297999
-0.30667
-0.306327
-0.305541
-0.304456
-0.303202
-0.301866
-0.300505
-0.299149
-0.297806
-0.296463
-0.295096
-0.293663
-0.292114
-0.290383
-0.288382
-0.286001
-0.283074
-0.279095
-0.272771
-0.265264
-0.303627
-0.303492
-0.302928
-0.302074
-0.301056
-0.299948
-0.298801
-0.297641
-0.296472
-0.295279
-0.294032
-0.292685
-0.291173
-0.289411
-0.287283
-0.284649
-0.281334
-0.276946
-0.270603
-0.263986
-0.300865
-0.300911
-0.300537
-0.299884
-0.29907
-0.298161
-0.297201
-0.296212
-0.295196
-0.294138
-0.29301
-0.291766
-0.290348
-0.28868
-0.286672
-0.284227
-0.281255
-0.27753
-0.272616
-0.268361
-0.298352
-0.298551
-0.298341
-0.29786
-0.297223
-0.296486
-0.295687
-0.294846
-0.293963
-0.293025
-0.292006
-0.290869
-0.289564
-0.288034
-0.286214
-0.28405
-0.281501
-0.278422
-0.274629
-0.271936
-0.296059
-0.29639
-0.29632
-0.295988
-0.295502
-0.294914
-0.294255
-0.293542
-0.292776
-0.291947
-0.291032
-0.290001
-0.288818
-0.287443
-0.285836
-0.283977
-0.281862
-0.279414
-0.276593
-0.274993
-0.293966
-0.294409
-0.294459
-0.294254
-0.2939
-0.293442
-0.292906
-0.292308
-0.291651
-0.290924
-0.290113
-0.289194
-0.288144
-0.286939
-0.285561
-0.284015
-0.282327
-0.280462
-0.278454
-0.277615
-0.292053
-0.292592
-0.292745
-0.29265
-0.292413
-0.292069
-0.291645
-0.291155
-0.290601
-0.289978
-0.289275
-0.288478
-0.287572
-0.286548
-0.285404
-0.284162
-0.282862
-0.281493
-0.280106
-0.279767
-0.290306
-0.290928
-0.291169
-0.291171
-0.291036
-0.290797
-0.290477
-0.290089
-0.289638
-0.289122
-0.288533
-0.287866
-0.287113
-0.286274
-0.28536
-0.2844
-0.283436
-0.282468
-0.281534
-0.281512
-0.288713
-0.289405
-0.289723
-0.28981
-0.289768
-0.289625
-0.289402
-0.289113
-0.288765
-0.288357
-0.287887
-0.287354
-0.286756
-0.286101
-0.285402
-0.284692
-0.284013
-0.283359
-0.28275
-0.282925
-0.287261
-0.288016
-0.288402
-0.288565
-0.288605
-0.28855
-0.288419
-0.288225
-0.287978
-0.287678
-0.287326
-0.286925
-0.286479
-0.285996
-0.285492
-0.284999
-0.284552
-0.284141
-0.283766
-0.284067
-0.285944
-0.286755
-0.2872
-0.28743
-0.287545
-0.28757
-0.287524
-0.287421
-0.287269
-0.287072
-0.286835
-0.28656
-0.286253
-0.285926
-0.285593
-0.285282
-0.285023
-0.284799
-0.284595
-0.284982
-0.284754
-0.285616
-0.286115