/*--------------------------------*- C++ -*----------------------------------*\
  =========                 |
  \\      /  F ield         | OpenFOAM: The Open Source CFD Toolbox
   \\    /   O peration     | Website:  https://openfoam.org
    \\  /    A nd           | Version:  6.0
     \\/     M anipulation  |
\*---------------------------------------------------------------------------*/
FoamFile
{
    version     2.0;
    format      ascii;
    class       volScalarField;
    location    "16";
    object      p;
}
// * * * * * * * * * * * * * * * * * * * * * * * * * * * * * * * * * * * * * //

dimensions      [0 2 -2 0 0 0 0];

internalField   nonuniform List<scalar> 
4000
(
-0.484464
-0.470414
-0.457891
-0.443984
-0.427491
-0.408935
-0.389171
-0.369066
-0.34935
-0.330536
-0.312915
-0.296605
-0.281609
-0.267863
-0.255269
-0.243718
-0.233108
-0.22331
-0.214125
-0.205854
-0.492332
-0.477849
-0.464484
-0.449083
-0.43059
-0.409839
-0.387966
-0.366005
-0.344748
-0.3247
-0.306106
-0.289033
-0.273435
-0.259209
-0.246229
-0.234365
-0.223499
-0.213483
-0.204103
-0.195735
-0.4983
-0.483484
-0.469223
-0.452199
-0.431606
-0.408642
-0.384723
-0.361027
-0.338381
-0.317253
-0.297834
-0.28013
-0.264049
-0.24945
-0.23618
-0.22409
-0.213049
-0.202889
-0.193384
-0.184994
-0.501999
-0.486946
-0.47174
-0.452994
-0.430254
-0.40512
-0.379275
-0.35401
-0.330153
-0.30812
-0.288033
-0.26984
-0.2534
-0.238539
-0.225078
-0.212855
-0.201724
-0.191497
-0.181942
-0.173605
-0.503069
-0.487878
-0.471688
-0.451158
-0.426284
-0.399084
-0.371484
-0.344852
-0.319987
-0.297235
-0.276648
-0.258112
-0.241443
-0.226435
-0.212889
-0.200628
-0.189495
-0.179282
-0.169756
-0.161548
-0.50118
-0.485944
-0.468748
-0.446419
-0.419484
-0.390381
-0.361244
-0.333475
-0.30782
-0.284548
-0.263634
-0.244907
-0.228142
-0.213108
-0.199585
-0.187386
-0.176343
-0.166229
-0.156812
-0.148811
-0.496032
-0.480845
-0.462645
-0.438552
-0.40969
-0.378899
-0.348475
-0.319821
-0.293609
-0.27002
-0.248955
-0.230192
-0.21347
-0.198532
-0.185145
-0.173111
-0.162253
-0.152326
-0.143103
-0.135389
-0.487373
-0.472326
-0.453151
-0.427382
-0.396783
-0.364563
-0.333131
-0.303858
-0.277327
-0.253628
-0.232592
-0.21395
-0.19741
-0.182694
-0.169559
-0.157797
-0.147222
-0.137572
-0.128632
-0.121283
-0.475001
-0.460185
-0.440094
-0.412788
-0.380691
-0.347335
-0.315194
-0.285577
-0.258967
-0.235364
-0.214537
-0.196174
-0.179956
-0.165592
-0.152826
-0.141445
-0.131254
-0.121978
-0.113411
-0.106505
-0.458771
-0.444278
-0.423364
-0.394708
-0.361393
-0.327217
-0.294677
-0.264992
-0.23854
-0.215238
-0.194797
-0.176868
-0.161115
-0.14723
-0.134953
-0.124065
-0.114364
-0.105559
-0.0974621
-0.0910804
-0.438604
-0.424524
-0.402909
-0.373132
-0.33891
-0.304249
-0.27162
-0.242139
-0.216079
-0.193276
-0.173393
-0.156052
-0.140901
-0.127625
-0.115956
-0.105675
-0.0965701
-0.0883433
-0.0808187
-0.0750492
-0.41448
-0.400908
-0.378744
-0.348109
-0.313313
-0.278506
-0.246096
-0.217083
-0.191636
-0.169521
-0.150361
-0.133755
-0.119341
-0.106797
-0.0958553
-0.0862936
-0.0778958
-0.0703568
-0.0635174
-0.0584554
-0.386448
-0.373479
-0.350944
-0.31974
-0.284714
-0.250097
-0.218203
-0.189909
-0.165284
-0.144036
-0.125752
-0.110019
-0.0964672
-0.0847755
-0.0746748
-0.0659433
-0.0583619
-0.0516255
-0.0455903
-0.0413227
-0.354621
-0.342351
-0.319643
-0.288176
-0.253267
-0.219168
-0.188072
-0.160729
-0.13712
-0.116899
-0.0996312
-0.0848957
-0.0723213
-0.0615906
-0.0524378
-0.044643
-0.037988
-0.0321744
-0.0270615
-0.0236424
-0.319174
-0.307698
-0.28503
-0.253616
-0.219166
-0.185897
-0.155861
-0.129683
-0.107262
-0.0882117
-0.0720814
-0.0584494
-0.0469499
-0.0372734
-0.0291622
-0.022403
-0.0167843
-0.0120176
-0.0079409
-0.00541423
-0.280339
-0.269752
-0.247346
-0.216302
-0.18264
-0.150493
-0.121757
-0.0969338
-0.0758533
-0.0580959
-0.0432039
-0.0307606
-0.020411
-0.0118596
-0.00486386
0.000777103
0.00526251
0.00886393
0.011766
0.0132319
-0.238402
-0.228797
-0.206879
-0.176515
-0.143953
-0.113196
-0.0859741
-0.0626743
-0.0430631
-0.0266983
-0.0131217
-0.00192734
0.00722265
0.0146018
0.0204298
0.0248914
0.0281691
0.0304788
0.0319404
0.0318975
-0.193698
-0.185162
-0.163957
-0.13457
-0.103398
-0.0742748
-0.0487572
-0.0271239
-0.00908772
0.00580987
0.018023
0.0279421
0.035881
0.0420806
0.0467262
0.0499811
0.0519871
0.052784
0.052261
0.0501388
-0.1466
-0.139215
-0.11894
-0.0908111
-0.0612949
-0.034023
-0.010377
0.009467
0.025843
0.0392226
0.0500561
0.0587202
0.065506
0.0706199
0.07421
0.076408
0.0772407
0.0763503
0.0732697
0.0690172
-0.097516
-0.0913567
-0.0722171
-0.0456068
-0.0179853
0.0072427
0.0288705
0.0468173
0.0614583
0.0732778
0.0827267
0.0901801
0.0959259
0.100169
0.103071
0.104781
0.105199
0.103475
0.0989054
0.0942997
-0.04688
-0.0420114
-0.0241978
0.000659589
0.0261751
0.0491911
0.0686723
0.0846242
0.0974565
0.107662
0.115694
0.121929
0.126672
0.130165
0.132654
0.134414
0.13542
0.134686
0.131952
0.13552
0.00486348
0.00838402
0.0246988
0.0475956
0.0708232
0.0914847
0.10871
0.122581
0.133534
0.142062
0.148614
0.153561
0.157204
0.159799
0.161607
0.162892
0.16364
0.163378
0.163006
0.168729
0.0572516
0.0593785
0.0740442
0.0948042
0.115594
0.133786
0.148668
0.160388
0.1694
0.176195
0.18121
0.184808
0.187285
0.188893
0.189883
0.190476
0.190653
0.190122
0.189793
0.194402
0.109819
0.110519
0.123411
0.141891
0.160127
0.175765
0.188239
0.197755
0.204777
0.209787
0.213207
0.215383
0.216598
0.217092
0.217096
0.216807
0.216221
0.215112
0.214232
0.21734
0.162101
0.161355
0.172375
0.188468
0.204071
0.2171
0.227129
0.234411
0.239415
0.242608
0.244393
0.245098
0.244985
0.244277
0.243179
0.241858
0.240297
0.238299
0.236554
0.238263
0.213642
0.211444
0.220523
0.234159
0.247083
0.257483
0.265058
0.270101
0.273079
0.274445
0.274577
0.273783
0.272306
0.270347
0.268089
0.265672
0.263065
0.260091
0.257406
0.257775
0.263996
0.260355
0.267453
0.2786
0.288838
0.296619
0.301759
0.304584
0.305555
0.305104
0.30359
0.301296
0.298445
0.295218
0.291778
0.288239
0.28456
0.280592
0.276964
0.276067
0.312733
0.307672
0.312781
0.321441
0.329023
0.334229
0.336983
0.337635
0.33664
0.334409
0.331277
0.327506
0.323299
0.318819
0.314208
0.30956
0.304829
0.299895
0.295347
0.293246
0.359439
0.352997
0.356138
0.362352
0.367341
0.370047
0.37049
0.369042
0.366145
0.362191
0.357492
0.352289
0.346766
0.341069
0.335321
0.329601
0.323861
0.318005
0.312577
0.309335
0.403725
0.395956
0.397178
0.40102
0.403512
0.403822
0.402056
0.398601
0.393889
0.38829
0.382094
0.375523
0.368743
0.361884
0.355053
0.348314
0.341622
0.334899
0.328639
0.324319
0.445223
0.436194
0.435576
0.437153
0.437276
0.435321
0.431471
0.426126
0.419704
0.412555
0.40495
0.397091
0.389128
0.381176
0.373327
0.365635
0.358056
0.350531
0.34349
0.33816
0.483591
0.473384
0.47103
0.47048
0.46839
0.464325
0.458539
0.451439
0.443431
0.434844
0.425931
0.416877
0.407818
0.398854
0.390065
0.381493
0.373101
0.364841
0.357077
0.350811
0.518517
0.507227
0.503266
0.500754
0.49663
0.490636
0.48308
0.474378
0.464921
0.455022
0.444917
0.434774
0.424715
0.41483
0.405186
0.395816
0.386689
0.377765
0.369342
0.362219
0.549718
0.537451
0.532033
0.527749
0.521797
0.51407
0.504929
0.494792
0.484039
0.472967
0.461794
0.450677
0.439726
0.429019
0.418611
0.408531
0.398751
0.389239
0.380224
0.372332
0.576941
0.563816
0.557111
0.551268
0.543711
0.534467
0.523939
0.512548
0.500663
0.488566
0.476462
0.464495
0.452765
0.44134
0.430268
0.41957
0.409224
0.3992
0.389668
0.381099
0.599967
0.586112
0.578308
0.571136
0.562215
0.551685
0.539982
0.527529
0.514686
0.501721
0.488829
0.476144
0.463755
0.451724
0.44009
0.42887
0.418047
0.407594
0.397621
0.388478
0.618613
0.604163
0.595463
0.587208
0.57718
0.565606
0.55295
0.539637
0.526016
0.512349
0.498819
0.485551
0.47263
0.460108
0.448019
0.436378
0.42517
0.414369
0.404039
0.394428
0.632729
0.617827
0.608444
0.599366
0.588497
0.576131
0.562754
0.548789
0.534581
0.520381
0.506368
0.49266
0.479335
0.466442
0.454009
0.44205
0.430551
0.419488
0.408886
0.398919
0.642203
0.626997
0.617153
0.607521
0.596087
0.58319
0.569328
0.554925
0.540322
0.525766
0.511428
0.497424
0.483828
0.470686
0.458024
0.44585
0.434157
0.422917
0.412133
0.401926
0.646959
0.6316
0.621525
0.611614
0.599896
0.586732
0.572626
0.558004
0.543203
0.528467
0.513966
0.499814
0.486083
0.472816
0.460037
0.447756
0.435966
0.424638
0.413761
0.403434
0.646959
0.6316
0.621525
0.611614
0.599896
0.586732
0.572627
0.558005
0.543203
0.528468
0.513967
0.499815
0.486083
0.472816
0.460038
0.447757
0.435966
0.424638
0.413762
0.403435
0.642204
0.626998
0.617155
0.607523
0.596089
0.583192
0.56933
0.554927
0.540324
0.525768
0.51143
0.497426
0.48383
0.470688
0.458026
0.445852
0.434159
0.422919
0.412135
0.401928
0.632731
0.61783
0.608446
0.599368
0.5885
0.576134
0.562757
0.548792
0.534584
0.520385
0.506371
0.492663
0.479338
0.466445
0.454013
0.442053
0.430555
0.419491
0.408889
0.398922
0.618616
0.604167
0.595466
0.587211
0.577183
0.56561
0.552954
0.539641
0.526021
0.512354
0.498823
0.485556
0.472634
0.460113
0.448024
0.436383
0.425175
0.414374
0.404044
0.394433
0.599972
0.586117
0.578313
0.57114
0.56222
0.55169
0.539988
0.527535
0.514691
0.501727
0.488835
0.476149
0.463761
0.45173
0.440096
0.428876
0.418053
0.4076
0.397627
0.388484
0.576946
0.563822
0.557117
0.551274
0.543717
0.534473
0.523945
0.512555
0.50067
0.488573
0.476469
0.464502
0.452773
0.441348
0.430275
0.419577
0.409231
0.399208
0.389675
0.381107
0.549725
0.537458
0.53204
0.527757
0.521805
0.514078
0.504937
0.4948
0.484047
0.472975
0.461803
0.450686
0.439735
0.429028
0.41862
0.40854
0.39876
0.389248
0.380233
0.37234
0.518525
0.507235
0.503274
0.500763
0.496639
0.490645
0.483089
0.474387
0.46493
0.455032
0.444927
0.434784
0.424725
0.414841
0.405196
0.395826
0.386699
0.377776
0.369352
0.362229
0.4836
0.473394
0.47104
0.47049
0.4684
0.464336
0.45855
0.45145
0.443442
0.434856
0.425943
0.416889
0.40783
0.398866
0.390077
0.381505
0.373113
0.364853
0.357089
0.350823
0.445233
0.436204
0.435587
0.437164
0.437288
0.435333
0.431483
0.426139
0.419717
0.412568
0.404963
0.397104
0.389141
0.381189
0.37334
0.365648
0.358069
0.350544
0.343503
0.338173
0.403737
0.395968
0.397191
0.401033
0.403525
0.403836
0.40207
0.398615
0.393904
0.388304
0.382109
0.375538
0.368758
0.361899
0.355068
0.348329
0.341636
0.334914
0.328653
0.324333
0.359453
0.353011
0.356152
0.362366
0.367355
0.370062
0.370505
0.369057
0.366161
0.362207
0.357508
0.352305
0.346782
0.341086
0.335338
0.329617
0.323878
0.318021
0.312593
0.309351
0.312748
0.307688
0.312797
0.321457
0.329039
0.334246
0.337
0.337653
0.336658
0.334427
0.331295
0.327524
0.323317
0.318837
0.314226
0.309578
0.304847
0.299912
0.295365
0.293263
0.264014
0.260373
0.267471
0.278618
0.288857
0.296638
0.301778
0.304603
0.305574
0.305124
0.303609
0.301315
0.298464
0.295238
0.291797
0.288258
0.284579
0.280612
0.276983
0.276086
0.213662
0.211464
0.220543
0.234179
0.247104
0.257503
0.265078
0.270122
0.2731
0.274466
0.274598
0.273804
0.272327
0.270368
0.26811
0.265693
0.263086
0.260112
0.257427
0.257796
0.162123
0.161377
0.172397
0.188491
0.204093
0.217122
0.227151
0.234434
0.239438
0.242631
0.244417
0.245121
0.245009
0.2443
0.243202
0.24188
0.240319
0.238321
0.236576
0.238285
0.109843
0.110543
0.123435
0.141915
0.160152
0.17579
0.188264
0.19778
0.204802
0.209812
0.213232
0.215408
0.216623
0.217117
0.217121
0.216832
0.216245
0.215137
0.214256
0.217363
0.0572784
0.0594055
0.074071
0.094831
0.115621
0.133813
0.148695
0.160415
0.169427
0.176222
0.181237
0.184835
0.187312
0.18892
0.18991
0.190502
0.19068
0.190149
0.189819
0.194427
0.0048931
0.00841376
0.0247283
0.0476249
0.0708524
0.0915139
0.108739
0.12261
0.133563
0.142092
0.148643
0.15359
0.157233
0.159828
0.161636
0.16292
0.163668
0.163407
0.163034
0.168757
-0.0468474
-0.0419787
-0.0241654
0.000691635
0.0262069
0.0492229
0.0687039
0.0846559
0.0974881
0.107694
0.115725
0.121961
0.126703
0.130196
0.132685
0.134445
0.13545
0.134716
0.131983
0.13555
-0.0974803
-0.091321
-0.0721817
-0.0455719
-0.0179507
0.00727709
0.0289047
0.0468514
0.0614923
0.0733117
0.0827605
0.0902136
0.0959593
0.100203
0.103104
0.104814
0.105232
0.103508
0.098938
0.0943324
-0.146561
-0.139176
-0.118901
-0.0907732
-0.0612574
-0.0339858
-0.0103401
0.00950367
0.0258794
0.0392589
0.0500921
0.058756
0.0655416
0.0706553
0.0742452
0.0764429
0.0772755
0.0763849
0.0733041
0.0690516
-0.193656
-0.185119
-0.163915
-0.134528
-0.103357
-0.0742347
-0.0487176
-0.0270846
-0.0090487
0.0058486
0.0180615
0.0279802
0.0359188
0.0421182
0.0467635
0.0500181
0.0520238
0.0528204
0.0522971
0.0501747
-0.238356
-0.228751
-0.206834
-0.17647
-0.143909
-0.113153
-0.0859316
-0.0626322
-0.0430214
-0.0266571
-0.0130808
-0.00188683
0.00726279
0.0146416
0.0204692
0.0249304
0.0282077
0.030517
0.0319782
0.0319351
-0.280289
-0.269702
-0.247297
-0.216254
-0.182593
-0.150447
-0.121711
-0.096889
-0.0758089
-0.058052
-0.0431605
-0.0307177
-0.0203685
-0.0118176
-0.00482233
0.000818178
0.00530312
0.00890406
0.0118056
0.0132712
-0.31912
-0.307644
-0.284977
-0.253565
-0.219116
-0.185848
-0.155813
-0.129635
-0.107215
-0.0881651
-0.0720354
-0.0584041
-0.0469051
-0.0372291
-0.0291185
-0.0223599
-0.0167417
-0.0119756
-0.00789946
-0.00537318
-0.354563
-0.342293
-0.319586
-0.288121
-0.253213
-0.219116
-0.188021
-0.160678
-0.13707
-0.11685
-0.0995827
-0.0848479
-0.0722742
-0.0615441
-0.0523919
-0.0445977
-0.0379434
-0.0321305
-0.0270183
-0.0235996
-0.386386
-0.373417
-0.350883
-0.319681
-0.284656
-0.250041
-0.218148
-0.189855
-0.165231
-0.143984
-0.1257
-0.109969
-0.0964176
-0.0847267
-0.0746267
-0.065896
-0.0583152
-0.0515796
-0.0455452
-0.0412782
-0.414413
-0.400842
-0.378679
-0.348046
-0.313252
-0.278446
-0.246037
-0.217025
-0.19158
-0.169466
-0.150307
-0.133702
-0.119289
-0.106746
-0.095805
-0.0862441
-0.0778471
-0.0703089
-0.0634703
-0.058409
-0.438533
-0.424454
-0.40284
-0.373065
-0.338845
-0.304186
-0.271558
-0.242079
-0.21602
-0.193218
-0.173336
-0.155997
-0.140846
-0.127571
-0.115903
-0.105623
-0.0965193
-0.0882934
-0.0807698
-0.0750009
-0.458696
-0.444203
-0.42329
-0.394636
-0.361323
-0.32715
-0.294611
-0.264928
-0.238478
-0.215177
-0.194737
-0.17681
-0.161057
-0.147174
-0.134898
-0.124011
-0.114311
-0.105507
-0.0974111
-0.0910302
-0.474921
-0.460106
-0.440016
-0.412713
-0.380618
-0.347264
-0.315125
-0.28551
-0.258902
-0.2353
-0.214475
-0.196113
-0.179896
-0.165533
-0.152768
-0.141389
-0.131199
-0.121923
-0.113358
-0.106453
-0.487289
-0.472243
-0.453069
-0.427302
-0.396705
-0.364488
-0.333059
-0.303788
-0.277259
-0.253561
-0.232527
-0.213886
-0.197347
-0.182633
-0.169499
-0.157739
-0.147164
-0.137516
-0.128577
-0.121229
-0.495944
-0.480757
-0.462558
-0.438468
-0.409609
-0.37882
-0.348399
-0.319747
-0.293537
-0.26995
-0.248887
-0.230125
-0.213404
-0.198468
-0.185083
-0.17305
-0.162193
-0.152267
-0.143046
-0.135333
-0.501087
-0.485852
-0.468657
-0.446331
-0.419398
-0.390298
-0.361163
-0.333397
-0.307745
-0.284475
-0.263562
-0.244837
-0.228074
-0.213041
-0.19952
-0.187322
-0.17628
-0.166168
-0.156752
-0.148753
-0.502973
-0.487782
-0.471593
-0.451065
-0.426194
-0.398997
-0.3714
-0.344771
-0.319908
-0.297159
-0.276574
-0.25804
-0.241372
-0.226366
-0.212822
-0.200562
-0.18943
-0.179219
-0.169694
-0.161488
-0.501899
-0.486847
-0.471642
-0.452898
-0.43016
-0.405029
-0.379187
-0.353925
-0.330071
-0.30804
-0.287955
-0.269764
-0.253326
-0.238467
-0.225008
-0.212786
-0.201656
-0.191431
-0.181878
-0.173542
-0.498197
-0.483381
-0.469121
-0.452099
-0.431508
-0.408548
-0.384632
-0.360939
-0.338295
-0.31717
-0.297753
-0.280051
-0.263972
-0.249375
-0.236106
-0.224019
-0.212979
-0.20282
-0.193318
-0.184929
-0.492225
-0.477743
-0.464379
-0.448979
-0.430488
-0.409741
-0.387871
-0.365912
-0.344659
-0.324613
-0.306022
-0.288951
-0.273355
-0.259131
-0.246153
-0.234291
-0.223427
-0.213412
-0.204034
-0.195668
-0.484354
-0.470305
-0.457783
-0.443877
-0.427387
-0.408833
-0.389072
-0.36897
-0.349257
-0.330446
-0.312828
-0.29652
-0.281526
-0.267782
-0.25519
-0.243641
-0.233033
-0.223236
-0.214053
-0.205784
0.0763367
0.0479821
0.0271705
0.0173427
0.00858077
-0.00331648
-0.0166973
-0.0296185
-0.0417732
-0.0535799
-0.0652855
-0.0768624
-0.0882156
-0.0993013
-0.110126
-0.120713
-0.131086
-0.141269
-0.151296
-0.161208
0.0195177
0.0056372
-0.00648273
-0.0138807
-0.0194404
-0.0259024
-0.0334221
-0.0409864
-0.0480114
-0.0545528
-0.0608363
-0.0669584
-0.0728945
-0.0785978
-0.0840491
-0.0892507
-0.0942088
-0.0989249
-0.103395
-0.107614
0.00600311
-7.13663e-05
-0.00543423
-0.0100052
-0.0141881
-0.0184742
-0.0230158
-0.0276502
-0.0321946
-0.0366079
-0.0409442
-0.045256
-0.0495573
-0.0538403
-0.0580986
-0.0623346
-0.0665556
-0.0707697
-0.0749838
-0.0792048
-0.00171936
-0.00545748
-0.00903969
-0.0126389
-0.0162337
-0.0197956
-0.023336
-0.0268588
-0.0303453
-0.0337781
-0.0371553
-0.0404841
-0.0437695
-0.0470116
-0.0502083
-0.0533587
-0.0564636
-0.0595244
-0.0625428
-0.0655202
-0.00752709
-0.0105326
-0.0132019
-0.0157302
-0.0182769
-0.0208456
-0.0233922
-0.0258985
-0.0283694
-0.0308125
-0.0332313
-0.0356273
-0.0380026
-0.0403597
-0.042701
-0.0450289
-0.0473459
-0.0496544
-0.0519572
-0.0542566
-0.0117943
-0.0142016
-0.0161768
-0.0179628
-0.0197842
-0.0216713
-0.023571
-0.0254485
-0.0273031
-0.0291453
-0.0309812
-0.0328114
-0.034635
-0.0364518
-0.0382624
-0.0400674
-0.0418674
-0.043663
-0.0454547
-0.0472429
-0.0143032
-0.0161526
-0.0176014
-0.0189085
-0.0202674
-0.0216961
-0.0231443
-0.0245798
-0.0260009
-0.0274163
-0.0288313
-0.0302465
-0.0316606
-0.0330729
-0.0344833
-0.0358924
-0.0373006
-0.0387081
-0.0401153
-0.0415227
-0.0155398
-0.0169661
-0.0180901
-0.0191153
-0.0201849
-0.0213117
-0.0224576
-0.0235977
-0.0247294
-0.0258587
-0.0269898
-0.0281229
-0.029257
-0.0303912
-0.0315253
-0.0326594
-0.0337936
-0.0349279
-0.0360623
-0.037197
-0.01607
-0.0171367
-0.0180438
-0.0189041
-0.0197902
-0.0207082
-0.0216383
-0.0225668
-0.0234913
-0.0244146
-0.0253388
-0.0262644
-0.0271906
-0.0281168
-0.029043
-0.029969
-0.0308949
-0.0318207
-0.0327464
-0.0336721
-0.0163918
-0.0171524
-0.0178856
-0.0186303
-0.0193898
-0.0201563
-0.020924
-0.0216906
-0.0224563
-0.0232215
-0.0239868
-0.024752
-0.025517
-0.0262816
-0.0270456
-0.0278092
-0.0285723
-0.029335
-0.0300973
-0.0308593
-0.0167056
-0.0172428
-0.0178311
-0.0184668
-0.0191127
-0.0197511
-0.020383
-0.0210131
-0.0216437
-0.0222745
-0.022905
-0.0235348
-0.024164
-0.0247926
-0.0254207
-0.0260484
-0.0266757
-0.0273028
-0.0279295
-0.0285561
-0.017023
-0.0174042
-0.0178684
-0.0183939
-0.0189283
-0.0194501
-0.0199624
-0.0204728
-0.0209845
-0.0214972
-0.02201
-0.0225224
-0.0230346
-0.0235467
-0.024059
-0.0245715
-0.0250842
-0.0255974
-0.0261109
-0.026625
-0.0172835
-0.0175402
-0.0178893
-0.0183065
-0.0187344
-0.0191493
-0.0195544
-0.0199578
-0.0203634
-0.0207711
-0.0211799
-0.0215893
-0.0219996
-0.0224109
-0.0228235
-0.0232374
-0.0236528
-0.0240696
-0.0244881
-0.0249081
-0.0174091
-0.0175454
-0.017778
-0.0180904
-0.01842
-0.0187381
-0.0190462
-0.0193532
-0.0196638
-0.0199782
-0.0202955
-0.0206152
-0.0209374
-0.0212624
-0.0215904
-0.0219214
-0.0222556
-0.022593
-0.0229336
-0.0232773
-0.0172605
-0.0172589
-0.0173652
-0.0175748
-0.0178134
-0.0180423
-0.0182606
-0.0184787
-0.0187027
-0.0189335
-0.0191701
-0.0194118
-0.0196587
-0.0199109
-0.0201688
-0.0204323
-0.0207014
-0.0209761
-0.0212562
-0.0215415
-0.0167001
-0.0165372
-0.016501
-0.016603
-0.0167527
-0.0168972
-0.0170321
-0.0171693
-0.017317
-0.0174768
-0.0176474
-0.0178275
-0.018017
-0.0182159
-0.0184241
-0.0186415
-0.0188679
-0.0191028
-0.0193459
-0.0195968
-0.0154203
-0.0150404
-0.0147958
-0.0147403
-0.0147726
-0.01482
-0.0148682
-0.0149283
-0.0150098
-0.0151146
-0.0152405
-0.015385
-0.0155465
-0.0157243
-0.0159174
-0.016125
-0.0163461
-0.0165797
-0.0168247
-0.0170803
-0.0125582
-0.0116797
-0.0111674
-0.0110615
-0.0111165
-0.0111808
-0.0112331
-0.0113006
-0.0114026
-0.0115409
-0.0117094
-0.0119025
-0.0121171
-0.0123513
-0.0126037
-0.0128726
-0.0131562
-0.0134527
-0.0137607
-0.0140786
-0.00489418
-0.001257
-7.91409e-06
-0.000654826
-0.00172342
-0.00252699
-0.00307499
-0.00355445
-0.00406611
-0.00461555
-0.00517818
-0.00573805
-0.00629211
-0.00684232
-0.00739007
-0.00793514
-0.00847661
-0.00901363
-0.00954563
-0.0100722
0.00178682
0.0120767
0.0152862
0.0132789
0.0103005
0.00818984
0.0068527
0.00575597
0.00462809
0.0034563
0.00230249
0.00120237
0.000157748
-0.000841393
-0.00180264
-0.00272905
-0.00362174
-0.00448183
-0.00531091
-0.00611067
0.117072
0.11759
0.11865
0.120243
0.122369
0.125042
0.128283
0.132113
0.136549
0.141594
0.147233
0.153406
0.160002
0.166785
0.173333
0.178844
0.18179
0.179129
0.164232
0.122145
0.107982
0.108361
0.109077
0.110149
0.111541
0.113275
0.115282
0.117594
0.120081
0.122771
0.12541
0.128001
0.130048
0.131468
0.131272
0.129111
0.122911
0.111381
0.0893869
0.0511279
0.0972489
0.0974494
0.0978028
0.0983214
0.0989715
0.0997468
0.100571
0.101418
0.102153
0.102716
0.102879
0.102511
0.101225
0.0987528
0.0944461
0.0877982
0.0778356
0.0638904
0.0452623
0.0221885
0.0855575
0.0855889
0.0856244
0.0856642
0.0856863
0.0856614
0.0855275
0.0852192
0.0846332
0.0836625
0.0821501
0.079927
0.0767674
0.0724289
0.0666463
0.0591698
0.0498606
0.0386082
0.0253446
0.00916114
0.0736014
0.0735081
0.0733097
0.0730012
0.0725696
0.0719802
0.0711871
0.0701212
0.0687115
0.0668592
0.064475
0.0614326
0.0576412
0.0529691
0.0473733
0.0407533
0.0331245
0.0242842
0.0139632
0.00120203
0.0619561
0.0617877
0.0614455
0.0609243
0.0602171
0.0592954
0.0581284
0.0566628
0.0548554
0.0526393
0.0499729
0.0467856
0.043054
0.0387135
0.0337661
0.0281269
0.021761
0.0144312
0.00587434
-0.00462384
0.0510182
0.0508144
0.0504036
0.0497816
0.0489452
0.0478754
0.0465541
0.0449473
0.0430317
0.0407681
0.0381394
0.0351068
0.0316643
0.027769
0.0234174
0.0185373
0.0130952
0.0069278
-0.000139934
-0.00864107
0.0410095
0.0407973
0.0403706
0.0397259
0.0388618
0.0377673
0.0364332
0.0348396
0.032975
0.0308162
0.0283552
0.025567
0.022448
0.0189673
0.0151245
0.0108777
0.00622595
0.00109051
-0.00460627
-0.0112021
0.0320149
0.0318102
0.0313991
0.0307782
0.0299468
0.0288984
0.0276292
0.0261277
0.0243887
0.0223976
0.0201506
0.0176309
0.0148386
0.0117548
0.0083878
0.00471923
0.000770194
-0.00348215
-0.00801711
-0.0129116
0.0240281
0.0238388
0.0234591
0.0228853
0.0221166
0.0211491
0.019982
0.0186088
0.0170285
0.0152321
0.0132197
0.0109811
0.00852098
0.00582983
0.00292216
-0.000207104
-0.00352427
-0.00701762
-0.010601
-0.0141842
0.0169908
0.0168197
0.0164772
0.0159592
0.0152648
0.0143917
0.0133412
0.0121105
0.010702
0.00911119
0.00734199
0.00538904
0.00326054
0.000952122
-0.00151832
-0.00414884
-0.00689833
-0.00973725
-0.0125497
-0.0151734
0.0108218
0.0106688
0.0103633
0.00990094
0.00928127
0.00850301
0.00756961
0.00648127
0.00524341
0.00385546
0.00232457
0.000649077
-0.00116034
-0.00310547
-0.00516753
-0.00734266
-0.00958804
-0.0118674
-0.0140531
-0.0159539
0.00543616
0.00529926
0.00502635
0.00461346
0.00406057
0.00336779
0.00254056
0.00158178
0.000499755
-0.000702817
-0.00201561
-0.00343682
-0.00495295
-0.00656324
-0.00824851
-0.010006
-0.0117966
-0.0135864
-0.0152457
-0.0165684
0.000758168
0.000633525
0.000385277
9.90519e-06
-0.000491867
-0.00111828
-0.00186187
-0.00271695
-0.00367239
-0.00472198
-0.00585209
-0.00705691
-0.00831932
-0.00963429
-0.0109794
-0.0123497
-0.0137087
-0.0150303
-0.0161985
-0.0170178
-0.00326865
-0.0033865
-0.00362156
-0.0039768
-0.00445073
-0.00504005
-0.0057355
-0.00652855
-0.0074048
-0.00835327
-0.00935517
-0.0103984
-0.0114602
-0.0125293
-0.0135779
-0.0145939
-0.0155331
-0.0163661
-0.0169864
-0.0172319
-0.00667443
-0.00679185
-0.00702721
-0.00738306
-0.00785757
-0.00844706
-0.00914165
-0.00993176
-0.0108
-0.0117309
-0.0126967
-0.0136742
-0.0146243
-0.0155212
-0.0163204
-0.0170032
-0.0175118
-0.0178036
-0.0177267
-0.0171025
-0.0094601
-0.00958297
-0.00983119
-0.0102069
-0.0107091
-0.0113356
-0.012079
-0.0129325
-0.0138807
-0.0149093
-0.0159858
-0.0170775
-0.0181182
-0.0190447
-0.0197494
-0.0201574
-0.0201539
-0.0196888
-0.0185547
-0.0163859
-0.0116014
-0.0117338
-0.0120027
-0.0124098
-0.0129568
-0.0136438
-0.0144704
-0.0154353
-0.0165349
-0.0177644
-0.0191084
-0.0205441
-0.0220134
-0.0234251
-0.0245956
-0.0252656
-0.0250422
-0.0235213
-0.0202957
-0.015022
-0.0130608
-0.0132033
-0.0134926
-0.0139311
-0.014523
-0.0152716
-0.0161841
-0.0172659
-0.0185297
-0.0199842
-0.0216501
-0.0235362
-0.0256616
-0.0279951
-0.0304547
-0.0327286
-0.0341653
-0.0333735
-0.0281609
-0.0154288
-0.0138016
-0.0139504
-0.0142521
-0.0147102
-0.0153297
-0.0161173
-0.0170831
-0.01824
-0.0196079
-0.0212105
-0.0230879
-0.0252856
-0.0278823
-0.0309602
-0.0346401
-0.038957
-0.0437133
-0.0476611
-0.0466281
-0.0278558
0.127383
0.12795
0.129218
0.131092
0.133716
0.136991
0.141159
0.146076
0.152123
0.159088
0.167561
0.177225
0.18902
0.202442
0.219073
0.238054
0.262247
0.290029
0.326868
0.369295
0.127347
0.127914
0.129181
0.131055
0.133678
0.136951
0.141117
0.146032
0.152074
0.159034
0.1675
0.177154
0.188932
0.202332
0.218925
0.237855
0.261956
0.289601
0.326206
0.368238
0.127274
0.127841
0.129108
0.13098
0.133601
0.136871
0.141033
0.145942
0.151977
0.158927
0.167377
0.177011
0.188756
0.202114
0.218632
0.237459
0.261377
0.28875
0.324887
0.366131
0.127167
0.127733
0.128998
0.130868
0.133486
0.136752
0.140907
0.145808
0.151832
0.158766
0.167194
0.176798
0.188495
0.201788
0.218194
0.236869
0.260512
0.28748
0.322917
0.362986
0.127023
0.127589
0.128853
0.13072
0.133333
0.136593
0.14074
0.145631
0.151639
0.158553
0.166951
0.176515
0.188148
0.201356
0.217613
0.236087
0.259365
0.285799
0.320304
0.358818
0.126844
0.12741
0.128671
0.130535
0.133142
0.136396
0.140533
0.14541
0.151399
0.158288
0.166649
0.176163
0.187717
0.200819
0.216894
0.235118
0.257944
0.283717
0.317061
0.35365
0.12663
0.127195
0.128454
0.130313
0.132915
0.13616
0.140285
0.145146
0.151114
0.157971
0.16629
0.175743
0.187205
0.20018
0.216039
0.233966
0.256255
0.281247
0.313201
0.347509
0.12638
0.126946
0.128201
0.130057
0.132651
0.135886
0.139998
0.14484
0.150782
0.157605
0.165874
0.175257
0.186614
0.199441
0.215054
0.232636
0.254308
0.278404
0.308742
0.340426
0.126097
0.126662
0.127914
0.129765
0.132351
0.135576
0.139672
0.144493
0.150407
0.157189
0.165403
0.174707
0.185946
0.198605
0.213943
0.231136
0.252112
0.275202
0.3037
0.33244
0.125779
0.126344
0.127593
0.129439
0.132016
0.135229
0.139308
0.144106
0.149988
0.156726
0.164879
0.174094
0.185205
0.197675
0.212713
0.229472
0.249681
0.271659
0.298099
0.323594
0.125428
0.125994
0.127239
0.129079
0.131646
0.134846
0.138907
0.14368
0.149528
0.156217
0.164304
0.17342
0.184393
0.196654
0.211369
0.22765
0.247028
0.267794
0.291963
0.313934
0.125043
0.12561
0.126852
0.128686
0.131243
0.13443
0.13847
0.143216
0.149027
0.155663
0.163679
0.172688
0.183513
0.195547
0.209918
0.225678
0.244167
0.263624
0.285318
0.303514
0.124626
0.125194
0.126433
0.128262
0.130808
0.13398
0.137998
0.142715
0.148487
0.155066
0.163007
0.171901
0.182569
0.194357
0.208368
0.223565
0.241117
0.259168
0.278196
0.292387
0.124177
0.124747
0.125983
0.127806
0.130341
0.133497
0.137493
0.142179
0.147909
0.154428
0.162289
0.171061
0.181565
0.193089
0.206725
0.221317
0.237895
0.254445
0.270633
0.280607
0.123696
0.124269
0.125503
0.12732
0.129843
0.132983
0.136955
0.141609
0.147294
0.15375
0.161527
0.170169
0.180502
0.191747
0.204997
0.218945
0.234521
0.249472
0.262672
0.268222
0.123185
0.123762
0.124993
0.126804
0.129314
0.132438
0.136384
0.141004
0.146642
0.153032
0.160719
0.169225
0.179379
0.190329
0.203181
0.216449
0.231008
0.244264
0.254368
0.255272
0.122644
0.123225
0.124455
0.12626
0.128758
0.131865
0.135784
0.140369
0.145958
0.152278
0.159872
0.168235
0.178203
0.188845
0.201289
0.213842
0.227375
0.238835
0.245782
0.241787
0.122073
0.122662
0.123892
0.125694
0.128182
0.131274
0.13517
0.139723
0.145268
0.151522
0.159029
0.167252
0.177038
0.187367
0.199406
0.211212
0.223717
0.233241
0.236959
0.227666
0.121473
0.122071
0.123304
0.125107
0.127588
0.130671
0.13455
0.13908
0.144589
0.150788
0.158219
0.166313
0.17593
0.185949
0.197591
0.208622
0.220097
0.227522
0.227919
0.212232
0.12084
0.12144
0.122667
0.12446
0.126917
0.129972
0.133803
0.138279
0.143702
0.149803
0.157081
0.164988
0.174322
0.183971
0.195076
0.205319
0.215695
0.221202
0.218752
0.195781
0.120845
0.121444
0.122671
0.124464
0.126922
0.129977
0.133808
0.138284
0.143708
0.149809
0.157087
0.164995
0.17433
0.18398
0.195086
0.205331
0.215709
0.221219
0.218773
0.195807
0.121477
0.122075
0.123308
0.125111
0.127593
0.130676
0.134555
0.139085
0.144594
0.150794
0.158225
0.16632
0.175937
0.185958
0.197601
0.208634
0.220111
0.227538
0.227938
0.212256
0.122077
0.122665
0.123896
0.125698
0.128186
0.131278
0.135174
0.139728
0.145273
0.151527
0.159035
0.167258
0.177046
0.187375
0.199416
0.211223
0.22373
0.233256
0.236977
0.227689
0.122647
0.123229
0.124458
0.126264
0.128762
0.131869
0.135788
0.140373
0.145963
0.152283
0.159878
0.168241
0.178209
0.188852
0.201298
0.213852
0.227387
0.23885
0.245799
0.241808
0.123188
0.123765
0.124996
0.126807
0.129318
0.132442
0.136388
0.141008
0.146647
0.153037
0.160724
0.169231
0.179385
0.190336
0.203189
0.216458
0.231019
0.244277
0.254384
0.255292
0.123699
0.124273
0.125506
0.127323
0.129846
0.132987
0.136959
0.141613
0.147298
0.153755
0.161532
0.170175
0.180508
0.191754
0.205004
0.218954
0.234532
0.249484
0.262687
0.26824
0.12418
0.12475
0.125986
0.127809
0.130344
0.1335
0.137496
0.142183
0.147913
0.154432
0.162293
0.171066
0.18157
0.193095
0.206733
0.221326
0.237905
0.254456
0.270646
0.280624
0.124629
0.125197
0.126436
0.128265
0.130811
0.133983
0.138001
0.142718
0.14849
0.15507
0.163011
0.171906
0.182574
0.194363
0.208374
0.223573
0.241126
0.259179
0.278208
0.292402
0.125046
0.125613
0.126855
0.128689
0.131246
0.134433
0.138473
0.143219
0.14903
0.155667
0.163683
0.172693
0.183518
0.195552
0.209924
0.225686
0.244176
0.263634
0.285329
0.303528
0.12543
0.125996
0.127242
0.129081
0.131649
0.134849
0.138909
0.143683
0.149531
0.15622
0.164308
0.173424
0.184397
0.196659
0.211374
0.227657
0.247035
0.267803
0.291973
0.313947
0.125781
0.126347
0.127596
0.129441
0.132018
0.135231
0.13931
0.144109
0.149991
0.156729
0.164883
0.174097
0.185209
0.197679
0.212718
0.229478
0.249688
0.271667
0.298109
0.323605