/*--------------------------------*- C++ -*----------------------------------*\
  =========                 |
  \\      /  F ield         | OpenFOAM: The Open Source CFD Toolbox
   \\    /   O peration     | Website:  https://openfoam.org
    \\  /    A nd           | Version:  6.0
     \\/     M anipulation  |
\*---------------------------------------------------------------------------*/
FoamFile
{
    version     2.0;
    format      ascii;
    class       surfaceScalarField;
    location    "12";
    object      phi;
}
// * * * * * * * * * * * * * * * * * * * * * * * * * * * * * * * * * * * * * //

dimensions      [0 3 -1 0 0 0 0];

internalField   nonuniform List<scalar> 
24700
(
-2.03682e-06
2.05945e-06
-2.26334e-08
-7.29619e-06
5.33024e-06
-7.08696e-08
-1.51343e-05
7.95855e-06
-1.20412e-07
-2.50374e-05
1.00726e-05
-1.69536e-07
-3.65931e-05
1.17727e-05
-2.16987e-07
-4.94734e-05
1.31423e-05
-2.62024e-07
-6.34206e-05
1.42516e-05
-3.04316e-07
-7.82367e-05
1.516e-05
-3.43838e-07
-9.37742e-05
1.59183e-05
-3.80784e-07
-0.000109929
1.657e-05
-4.15485e-07
-0.000126633
1.71527e-05
-4.48343e-07
-0.000143852
1.76985e-05
-4.79772e-07
-0.000161577
1.82349e-05
-5.10164e-07
-0.000179822
1.87855e-05
-5.39857e-07
-0.000198623
1.93698e-05
-5.69124e-07
-0.000218029
2.00041e-05
-5.98169e-07
-0.000238103
2.07012e-05
-6.27124e-07
-0.000258918
2.14708e-05
-6.56053e-07
-0.000280552
2.23197e-05
-6.84958e-07
-0.00030309
2.32519e-05
-7.13795e-07
-0.000326617
2.42688e-05
-7.42484e-07
-0.000351215
2.5369e-05
-7.70913e-07
-0.000376965
2.65488e-05
-7.98946e-07
-0.000403942
2.78038e-05
-8.26422e-07
2.91324e-05
-8.53192e-07
-0.000432221
-2.01285e-06
4.0723e-06
-7.21387e-06
1.05313e-05
-1.49667e-05
1.57113e-05
-2.47615e-05
1.98674e-05
-3.6188e-05
2.31992e-05
-4.89186e-05
2.58729e-05
-6.26952e-05
2.80281e-05
-7.73182e-05
2.9783e-05
-9.26382e-05
3.12382e-05
-0.000108548
3.24802e-05
-0.000124979
3.35832e-05
-0.000141891
3.46109e-05
-0.000159274
3.5618e-05
-0.00017714
3.66513e-05
-0.00019552
3.77499e-05
-0.000214462
3.89463e-05
-0.000234028
4.02665e-05
-0.000254287
4.17304e-05
-0.00027532
4.3352e-05
-0.000297208
4.51399e-05
-0.000320036
4.70973e-05
-0.000343889
4.92222e-05
-0.000368848
5.15077e-05
-0.000394989
5.3945e-05
5.65308e-05
-0.000422388
-1.96657e-06
6.03886e-06
-7.0547e-06
1.56194e-05
-1.46422e-05
2.32989e-05
-2.42271e-05
2.94523e-05
-3.54028e-05
3.43748e-05
-4.78425e-05
3.83126e-05
-6.12869e-05
4.14725e-05
-7.55338e-05
4.40299e-05
-9.04298e-05
4.61343e-05
-0.000105863
4.79139e-05
-0.000121759
4.94791e-05
-0.000138074
5.09251e-05
-0.000154789
5.23335e-05
-0.000171912
5.37743e-05
-0.000189469
5.53067e-05
-0.000207503
5.69801e-05
-0.000226071
5.88345e-05
-0.000245241
6.09009e-05
-0.000265091
6.32017e-05
-0.000285702
6.5751e-05
-0.00030716
6.8555e-05
-0.00032955
7.16121e-05
-0.000352955
7.49127e-05
-0.000377454
7.84439e-05
8.22004e-05
-0.000403123
-1.90012e-06
7.93898e-06
-6.82566e-06
2.05449e-05
-1.41745e-05
3.06477e-05
-2.34558e-05
3.87336e-05
-3.42681e-05
4.51872e-05
-4.62861e-05
5.03306e-05
-5.92487e-05
5.44351e-05
-7.29498e-05
5.7731e-05
-8.72303e-05
6.04148e-05
-0.000101972
6.26555e-05
-0.000117091
6.45986e-05
-0.000132536
6.63699e-05
-0.00014828
6.80779e-05
-0.000164322
6.98161e-05
-0.00018068
7.16642e-05
-0.000197389
7.36894e-05
-0.000214502
7.59468e-05
-0.000232081
7.84802e-05
-0.000250201
8.1322e-05
-0.000268944
8.44935e-05
-0.000288394
8.80058e-05
-0.000308641
9.18588e-05
-0.00032977
9.60419e-05
-0.000351865
0.000100539
0.000105341
-0.000375006
-1.81654e-06
9.75552e-06
-6.53659e-06
2.5265e-05
-1.35829e-05
3.7694e-05
-2.24782e-05
4.76289e-05
-3.28279e-05
5.55369e-05
-4.43082e-05
6.18109e-05
-5.6656e-05
6.6783e-05
-6.96604e-05
7.07353e-05
-8.31552e-05
7.39095e-05
-9.70131e-05
7.65133e-05
-0.000111141
7.87263e-05
-0.000125475
8.07038e-05
-0.000139978
8.25809e-05
-0.000154636
8.44745e-05
-0.000169457
8.64855e-05
-0.000184468
8.86998e-05
-0.00019971
9.11895e-05
-0.000215243
9.40129e-05
-0.000231136
9.72148e-05
-0.000247469
0.000100827
-0.000264329
0.000104866
-0.000281809
0.000109338
-0.000299999
0.000114233
-0.000318992
0.000119531
0.000125223
-0.000338873
-1.71957e-06
1.14751e-05
-6.19961e-06
2.9745e-05
-1.28909e-05
4.43853e-05
-2.13319e-05
5.60699e-05
-3.11358e-05
6.53407e-05
-4.19809e-05
7.26559e-05
-5.36018e-05
7.84039e-05
-6.57822e-05
8.29157e-05
-7.83475e-05
8.64749e-05
-9.11602e-05
8.9326e-05
-0.000104115
9.16808e-05
-0.000117134
9.37233e-05
-0.000130167
9.5614e-05
-0.000143186
9.74933e-05
-0.000156184
9.94835e-05
-0.000169175
0.000101691
-0.000182191
0.000104206
-0.000195282
0.000107104
-0.000208512
0.000110445
-0.00022196
0.000114274
-0.000235715
0.000118621
-0.000249873
0.000123497
-0.000264536
0.000128896
-0.000279806
0.000134801
0.000141199
-0.000295782
-1.61337e-06
1.30885e-05
-5.82825e-06
3.39599e-05
-1.21251e-05
5.06822e-05
-2.00592e-05
6.4004e-05
-2.92523e-05
7.45338e-05
-3.93852e-05
8.27888e-05
-5.01906e-05
8.92093e-05
-6.14461e-05
9.41712e-05
-7.29686e-05
9.79974e-05
-8.4609e-05
0.000100966
-9.6248e-05
0.00010332
-0.000107793
0.000105269
-0.000119177
0.000106998
-0.000130355
0.000108671
-0.000141302
0.000110431
-0.000152018
0.000112406
-0.000162519
0.000114707
-0.000172845
0.00011743
-0.000183053
0.000120653
-0.000193218
0.000124439
-0.000203432
0.000128834
-0.000213798
0.000133863
-0.000224431
0.000139529
-0.000235448
0.000145819
0.00015272
-0.000246969
-1.50229e-06
1.45908e-05
-5.43661e-06
3.78942e-05
-1.1313e-05
5.65586e-05
-1.87039e-05
7.13948e-05
-2.72401e-05
8.307e-05
-3.66054e-05
9.21542e-05
-4.65309e-05
9.91349e-05
-5.67888e-05
0.000104429
-6.71869e-05
0.000108396
-7.75643e-05
0.000111344
-8.77871e-05
0.000113543
-9.77463e-05
0.000115228
-0.000107355
0.000116607
-0.00011655
0.000117865
-0.000125286
0.000119167
-0.000133542
0.000120662
-0.000141318
0.000122484
-0.000148639
0.00012475
-0.000155551
0.000127565
-0.000162125
0.000131013
-0.000168452
0.000135162
-0.000174647
0.000140058
-0.00018084
0.000145721
-0.000187173
0.000152151
0.000159337
-0.00019379
-1.39054e-06
1.59813e-05
-5.0384e-06
4.15421e-05
-1.04815e-05
6.20017e-05
-1.73087e-05
7.8222e-05
-2.51601e-05
9.09213e-05
-3.37231e-05
0.000100717
-4.27281e-05
0.00010814
-5.19424e-05
0.000113643
-6.11655e-05
0.000117619
-7.02249e-05
0.000120403
-7.89723e-05
0.00012229
-8.72809e-05
0.000123536
-9.50444e-05
0.00012437
-0.000102176
0.000124997
-0.000108609
0.0001256
-0.0001143
0.000126352
-0.000119225
0.000127409
-0.00012339
0.000128915
-0.000126826
0.000131001
-0.000129596
0.000133783
-0.000131791
0.000137358
-0.000133535
0.000141802
-0.000134979
0.000147165
-0.000136294
0.000153466
0.00016071
-0.000137666
-1.28194e-06
1.72632e-05
-4.646e-06
4.49061e-05
-9.65457e-06
6.70103e-05
-1.59118e-05
8.44792e-05
-2.30666e-05
9.80762e-05
-3.0811e-05
0.000108462
-3.88754e-05
0.000116204
-4.70236e-05
0.000121792
-5.50485e-05
0.000125644
-6.27669e-05
0.000128122
-7.00169e-05
0.00012954
-7.66545e-05
0.000130174
-8.25529e-05
0.000130269
-8.76021e-05
0.000130046
-9.17099e-05
0.000129708
-9.48044e-05
0.000129447
-9.68374e-05
0.000129442
-9.77879e-05
0.000129866
-9.76673e-05
0.00013088
-9.65235e-05
0.000132639
-9.44447e-05
0.000135279
-9.15616e-05
0.000138919
-8.80473e-05
0.00014365
-8.41142e-05
0.000149533
0.000156598
-8.00021e-05
-1.17965e-06
1.84429e-05
-4.26963e-06
4.79961e-05
-8.85209e-06
7.15927e-05
-1.45442e-05
9.01713e-05
-2.10035e-05
0.000104536
-2.79268e-05
0.000115385
-3.5046e-05
0.000123323
-4.21235e-05
0.000128869
-4.89471e-05
0.000132467
-5.53258e-05
0.0001345
-6.10855e-05
0.0001353
-6.60667e-05
0.000135155
-7.01228e-05
0.000134325
-7.31202e-05
0.000133043
-7.49398e-05
0.000131528
-7.54795e-05
0.000129987
-7.46594e-05
0.000128622
-7.24273e-05
0.000127634
-6.87662e-05
0.000127219
-6.37021e-05
0.000127575
-5.7312e-05
0.000128889
-4.97301e-05
0.000131337
-4.11529e-05
0.000135073
-3.18393e-05
0.00014022
0.000146859
-2.21002e-05
-1.08599e-06
1.95289e-05
-3.91669e-06
5.08268e-05
-8.08812e-06
7.57642e-05
-1.32276e-05
9.53108e-05
-1.90002e-05
0.000110308
-2.51081e-05
0.000121493
-3.12861e-05
0.000129501
-3.72973e-05
0.00013488
-4.29274e-05
0.000138097
-4.798e-05
0.000139553
-5.22723e-05
0.000139592
-5.56319e-05
0.000138515
-5.78952e-05
0.000136588
-5.89063e-05
0.000134054
-5.85189e-05
0.00013114
-5.65994e-05
0.000128067
-5.3032e-05
0.000125055
-4.77271e-05
0.000122329
-4.06306e-05
0.000120123
-3.17365e-05
0.000118681
-2.10999e-05
0.000118252
-8.8503e-06
0.000119087
4.79629e-06
0.000121427
1.95292e-05
0.000125487
0.00013144
3.49478e-05
-1.00231e-06
2.05312e-05
-3.59129e-06
5.34158e-05
-7.37e-06
7.95429e-05
-1.19723e-05
9.9913e-05
-1.70693e-05
0.000115405
-2.23686e-05
0.000126792
-2.76092e-05
0.000134742
-3.25571e-05
0.000139828
-3.69988e-05
0.000142539
-4.07363e-05
0.00014329
-4.3582e-05
0.000142438
-4.5355e-05
0.000140288
-4.58785e-05
0.000137112
-4.49781e-05
0.000133154
-4.24829e-05
0.000128645
-3.82279e-05
0.000123812
-3.206e-05
0.000118887
-2.38467e-05
0.000114115
-1.34886e-05
0.000109765
-9.35653e-07
0.000106128
1.37926e-05
0.000103524
3.0585e-05
0.000102295
4.92155e-05
0.000102796
6.93211e-05
0.000105381
0.000110368
9.03933e-05
-9.28931e-07
2.14601e-05
-3.29408e-06
5.57809e-05
-6.69794e-06
8.29467e-05
-1.07765e-05
0.000103992
-1.5205e-05
0.000119834
-1.96956e-05
0.000131283
-2.39925e-05
0.000139039
-2.78664e-05
0.000143702
-3.11074e-05
0.00014578
-3.35197e-05
0.000145703
-3.49156e-05
0.000143834
-3.5111e-05
0.000140483
-3.39215e-05
0.000135922
-3.11601e-05
0.000130393
-2.66367e-05
0.000124122
-2.0159e-05
0.000117335
-1.15381e-05
0.000110266
-5.96799e-07
0.000103174
1.28162e-05
9.63516e-05
2.88063e-05
9.01376e-05
4.74058e-05
8.49244e-05
6.85405e-05
8.11602e-05
9.19912e-05
7.93454e-05
0.00011735
8.00229e-05
8.37332e-05
0.000143985
-8.65198e-07
2.23253e-05
-3.02227e-06
5.7938e-05
-6.06504e-06
8.59895e-05
-9.6266e-06
0.000107553
-1.3383e-05
0.00012359
-1.705e-05
0.00013495
-2.03766e-05
0.000142366
-2.31391e-05
0.000146465
-2.51336e-05
0.000147775
-2.61696e-05
0.000146739
-2.60638e-05
0.000143728
-2.46344e-05
0.000139054
-2.16968e-05
0.000132985
-1.70592e-05
0.000125755
-1.05204e-05
0.000117583
-1.86943e-06
0.000108684
9.11193e-06
9.92847e-05
2.26418e-05
8.96442e-05
3.89246e-05
8.00688e-05
5.81292e-05
7.0933e-05
8.03554e-05
6.26982e-05
0.000105589
5.5927e-05
0.000133641
5.1293e-05
0.000164078
4.95862e-05
5.16726e-05
0.000196138
-8.09578e-07
2.31349e-05
-2.77003e-06
5.98984e-05
-5.45793e-06
8.86774e-05
-8.49766e-06
0.000110593
-1.15622e-05
0.000126655
-1.4368e-05
0.000137755
-1.66676e-05
0.000144665
-1.82426e-05
0.00014804
-1.88955e-05
0.000148427
-1.84432e-05
0.000146286
-1.67101e-05
0.000141995
-1.35222e-05
0.000135866
-8.70127e-06
0.000128164
-2.05999e-06
0.000119114
6.60256e-06
0.00010892
1.75038e-05
9.77824e-05
3.08779e-05
8.59105e-05
4.69725e-05
7.35496e-05
6.60378e-05
6.10034e-05
8.83059e-05
4.8665e-05
0.000113954
3.70499e-05
0.00014305
2.68312e-05
0.000175469
1.88737e-05
0.000210783
1.42725e-05
1.43449e-05
0.000248111
-7.5983e-07
2.38947e-05
-2.52893e-06
6.16675e-05
-4.85782e-06
9.10063e-05
-7.35552e-06
0.000113091
-9.68681e-06
0.000128986
-1.15649e-05
0.000139633
-1.27427e-05
0.000145843
-1.30046e-05
0.000148301
-1.21584e-05
0.000147581
-1.00279e-05
0.000144156
-6.44638e-06
0.000138413
-1.25076e-06
0.00013067
5.72476e-06
0.000121188
1.46543e-05
0.000110184
2.57261e-05
9.78486e-05
3.91479e-05
8.43606e-05
5.51508e-05
6.99076e-05
7.39909e-05
5.47095e-05
9.59446e-05
3.90498e-05
0.000121293
2.33167e-05
0.000150289
8.05416e-06
0.000183095
-5.97546e-06
0.000219688
-1.77188e-05
0.000259691
-2.57309e-05
-2.81034e-05
0.000302139
-7.13212e-07
2.46079e-05
-2.28865e-06
6.3243e-05
-4.24171e-06
9.29594e-05
-6.15877e-06
0.000115008
-7.69012e-06
0.000130517
-8.5402e-06
0.000140483
-8.45728e-06
0.00014576
-7.22401e-06
0.000147068
-4.64911e-06
0.000145006
-5.60262e-07
0.000140067
5.20214e-06
0.000132651
1.27905e-05
0.000123082
2.23556e-05
0.000111623
3.40517e-05
9.84879e-05
4.80432e-05
8.3857e-05
6.45109e-05
6.78929e-05
8.36593e-05
5.07592e-05
0.000105723
3.26455e-05
0.000130971
1.38019e-05
0.000159701
-5.41269e-06
0.000192215
-2.44604e-05
0.00022877
-4.25309e-05
0.000269467
-5.84152e-05
0.000314046
-7.03095e-05
-7.55829e-05
0.000361525
-6.66665e-07
2.52746e-05
-2.03754e-06
6.46139e-05
-3.58376e-06
9.45056e-05
-4.86107e-06
0.000116285
-5.49802e-06
0.000131154
-5.18328e-06
0.000140169
-3.65345e-06
0.00014423
-6.82544e-07
0.000144097
3.92654e-06
0.000140397
1.03489e-05
0.000133645
1.87428e-05
0.000124257
2.92543e-05
0.000112571
4.20208e-05
9.88565e-05
5.71754e-05
8.33334e-05
7.48512e-05
6.61813e-05
9.51875e-05
4.75566e-05
0.000118338
2.76083e-05
0.000144482
6.5015e-06
0.000173834
-1.555e-05
0.000206654
-3.82319e-05
0.000243241
-6.1048e-05
0.000283907
-8.31965e-05
0.000328877
-0.000103385
0.00037807
-0.000119503
-0.000128121
0.000430608
-6.16958e-07
2.58916e-05
-1.76317e-06
6.57601e-05
-2.85629e-06
9.55987e-05
-3.41306e-06
0.000116842
-3.03216e-06
0.000130773
-1.37824e-06
0.000138515
1.83234e-06
0.00014102
6.84317e-06
0.000139086
1.38666e-05
0.000133374
2.309e-05
0.000124421
3.468e-05
0.000112667
4.8785e-05
9.84655e-05
6.55367e-05
8.21048e-05
8.50512e-05
6.38188e-05
0.00010743
4.38021e-05
0.000132765
2.22219e-05
0.000161141
-7.67076e-07
0.000192646
-2.50044e-05
0.000227393
-5.02962e-05
0.00026553
-7.6369e-05
0.00030727
-0.000102788
0.000352891
-0.000128818
0.000402694
-0.000153187
0.00045681
-0.000173619
-0.000185933
0.000514622
-5.60761e-07
2.64523e-05
-1.45255e-06
6.66519e-05
-2.03047e-06
9.61766e-05
-1.76361e-06
0.000116575
-2.12133e-07
0.000129222
2.99237e-06
0.00013531
8.16348e-06
0.000135849
1.55728e-05
0.000131677
2.5459e-05
0.000123488
3.80336e-05
0.000111847
5.3484e-05
9.72164e-05
7.19736e-05
7.99759e-05
9.36407e-05
6.04376e-05
0.000118596
3.88636e-05
0.000146919
1.54793e-05
0.000178655
-9.51425e-06
0.000213816
-3.59282e-05
0.000252383
-6.35717e-05
0.00029432
-9.22327e-05
0.000339594
-0.000121644
0.000388221
-0.000151415
0.000440305
-0.000180903
0.000496084
-0.000208966
0.000555858
-0.000233393
-0.000249491
0.000619416
-4.94633e-07
2.6947e-05
-1.09222e-06
6.72494e-05
-1.07642e-06
9.61608e-05
1.39815e-07
0.000115359
3.04367e-06
0.000126318
8.04599e-06
0.000130308
1.55004e-05
0.000128394
2.57172e-05
0.00012146
3.89734e-05
0.000110232
5.55171e-05
9.53029e-05
7.55696e-05
7.71639e-05
9.93241e-05
5.62215e-05
0.000126941
3.28208e-05
0.000158541
7.26301e-06
0.0001942
-2.01794e-05
0.000233934
-4.92485e-05
0.000277695
-7.9689e-05
0.00032536
-0.000111237
0.000376731
-0.000143604
0.000431548
-0.000176461
0.000489524
-0.00020939
0.000550415
-0.000241794
0.000614143
-0.000272694
0.000680931
-0.000300181
-0.00031962
0.000751061
-4.14926e-07
2.73619e-05
-6.67953e-07
6.75025e-05
3.70798e-08
9.54558e-05
2.35155e-06
0.000113044
6.81854e-06
0.000121851
1.39004e-05
0.000123226
2.40005e-05
0.000118294
3.74783e-05
0.000107983
5.46593e-05
9.30505e-05
7.58398e-05
7.41224e-05
0.000101287
5.17166e-05
0.000131237
2.62717e-05
0.000165887
-1.82901e-06
0.000205387
-3.22372e-05
0.000249828
-6.46209e-05
0.000299228
-9.86476e-05
0.000353508
-0.000133969
0.000412478
-0.000170207
0.000475813
-0.000206938
0.000543031
-0.000243679
0.000613498
-0.000279857
0.000686468
-0.000314765
0.000761217
-0.000347443
0.000837362
-0.000376326
-0.000398072
0.000915815
-3.17652e-07
2.76795e-05
-1.6448e-07
6.73493e-05
1.34319e-06
9.39481e-05
4.92861e-06
0.000109459
1.11986e-05
0.000115581
2.06754e-05
0.000113749
3.38203e-05
0.000105149
5.10503e-05
9.07525e-05
7.27477e-05
7.13531e-05
9.92643e-05
4.76059e-05
0.000130921
2.00599e-05
0.000168004
-1.0811e-05
0.000210756
-4.45818e-05
0.000259372
-8.08525e-05
0.000313978
-0.000119227
0.000374622
-0.000159292
0.000441251
-0.000200598
0.000513683
-0.000242639
0.000591567
-0.000284823
0.000674327
-0.000326438
0.000761087
-0.000366618
0.0008506
-0.000404278
0.000941199
-0.000438042
0.00103111
-0.000466234
-0.000488815
0.00112185
-1.98344e-07
2.78779e-05
4.34895e-07
6.67161e-05
2.87761e-06
9.15054e-05
7.93154e-06
0.000104405
1.62741e-05
0.000107238
2.84941e-05
0.000101529
4.51171e-05
8.85263e-05
6.66228e-05
6.92469e-05
9.34537e-05
4.45222e-05
0.000126019
1.5041e-05
0.000164691
-1.86125e-05
0.000209805
-5.59248e-05
0.000261647
-9.64242e-05
0.000320451
-0.000139657
0.000386389
-0.000185164
0.000459561
-0.000232464
0.000539992
-0.00028103
0.000627622
-0.000330269
0.000722286
-0.000379487
0.00082369
-0.000427842
0.000931327
-0.000474255
0.0010443
-0.000517253
0.00116076
-0.000554496
0.00127612
-0.000581596
-0.00059135
0.00137865
-5.24802e-08
2.79304e-05
1.14762e-06
6.5516e-05
4.67783e-06
8.79752e-05
1.14237e-05
9.7659e-05
2.21386e-05
9.65236e-05
3.74824e-05
8.61854e-05
5.80484e-05
6.79604e-05
8.43793e-05
4.29159e-05
0.000116975
1.19263e-05
0.000156294
-2.42782e-05
0.00020275
-6.50686e-05
0.000256706
-0.000109881
0.000318468
-0.000158186
0.000388281
-0.000209469
0.000466325
-0.000263208
0.000552725
-0.000318863
0.00064756
-0.000375865
0.000750901
-0.00043361
0.000862868
-0.000491454
0.000983743
-0.000548717
0.00111417
-0.000604683
0.00125551
-0.000658591
0.00141063
-0.000709612
0.00158629
-0.000757263
-0.000803213
0.00179816
1.2636e-07
2.7804e-05
1.99495e-06
6.36474e-05
6.78652e-06
8.31836e-05
1.54743e-05
8.89712e-05
2.88909e-05
8.31069e-05
4.77695e-05
6.73069e-05
7.27699e-05
4.296e-05
0.000104493
1.11928e-05
0.000143485
-2.70661e-05
0.000190237
-7.10299e-05
0.000245175
-0.000120006
0.000308654
-0.00017336
0.000380952
-0.000230484
0.00046226
-0.000290778
0.000552691
-0.000353639
0.00065228
-0.000418453
0.000761013
-0.000484598
0.000878856
-0.000551453
0.00100582
-0.00061842
0.00114205
-0.000684947
0.00128795
-0.000750582
0.00144438
-0.000815015
0.00161289
-0.000878128
0.00179567
-0.000940039
-0.000998478
0.00199093
3.43647e-07
2.74603e-05
2.99671e-06
6.09943e-05
9.24472e-06
7.69356e-05
2.01503e-05
7.80657e-05
3.66262e-05
6.6631e-05
5.9477e-05
4.44561e-05
8.94231e-05
1.30138e-05
0.000127111
-2.64955e-05
0.000173115
-7.30697e-05
0.000227926
-0.000125841
0.000291943
-0.000184023
0.000365462
-0.000246879
0.000448663
-0.000313685
0.000541608
-0.000383723
0.000644237
-0.000456268
0.000756382
-0.000530598
0.000877783
-0.000605998
0.00100811
-0.000681783
0.00114702
-0.000757327
0.00129417
-0.000832095
0.00144927
-0.000905688
0.00161214
-0.000977878
0.00178261
-0.0010486
0.00196022
-0.00111766
-0.00118095
0.0021427
6.05552e-07
2.68548e-05
4.17378e-06
5.74261e-05
1.20939e-05
6.90155e-05
2.5517e-05
6.46425e-05
4.54336e-05
4.67144e-05
7.27131e-05
1.71766e-05
0.000108124
-2.23972e-05
0.000152339
-7.07103e-05
0.000205926
-0.000126657
0.000269338
-0.000189252
0.000342892
-0.000257578
0.000426758
-0.000330745
0.000520944
-0.000407871
0.000625292
-0.000488071
0.000739481
-0.000570457
0.000863035
-0.000654152
0.000995346
-0.000738309
0.0011357
-0.000822134
0.00128329
-0.000904918
0.00143726
-0.000986068
0.00159671
-0.00106513
0.00176066
-0.00114183
0.00192803
-0.00121597
0.00209755
-0.00128718
-0.00135105
0.00226765
9.18141e-07
2.59367e-05
5.54607e-06
5.27981e-05
1.53725e-05
5.91891e-05
3.16328e-05
4.83822e-05
5.53882e-05
2.29591e-05
8.75606e-05
-1.49959e-05
0.000128946
-6.37829e-05
0.000180212
-0.000121976
0.000241881
-0.000188325
0.000314309
-0.000261681
0.00039767
-0.000340938
0.00049193
-0.000425005
0.000596846
-0.000512787
0.000711957
-0.000603182
0.000836599
-0.0006951
0.000969924
-0.000787477
0.00111093
-0.000879311
0.00125847
-0.000969682
0.00141135
-0.00105779
0.00156825
-0.00114297
0.00172785
-0.00122473
0.00188875
-0.00130273
0.0020495
-0.00137672
0.00220863
-0.00144631
-0.00150756
0.00236515
1.28706e-06
2.46496e-05
7.13147e-06
4.69537e-05
1.91135e-05
4.72071e-05
3.85444e-05
2.89513e-05
6.65433e-05
-5.03982e-06
0.000104065
-5.25175e-05
0.000151903
-0.000111621
0.000210678
-0.000180751
0.00028081
-0.000258458
0.000362498
-0.000343369
0.000455692
-0.000434132
0.000560079
-0.000529393
0.000675083
-0.000627791
0.000799874
-0.000727973
0.000933392
-0.000828617
0.00107438
-0.000928469
0.00122145
-0.00102638
0.00137309
-0.00112132
0.00152774
-0.00121244
0.00168385
-0.00129908
0.00183984
-0.00138073
0.00199421
-0.0014571
0.00214549
-0.001528
0.00229236
-0.00159318
-0.0016495
0.0024343
1.71722e-06
2.29324e-05
8.94466e-06
3.97263e-05
2.33417e-05
3.28101e-05
4.62818e-05
6.0112e-06
7.89225e-05
-3.76805e-05
0.000122222
-9.58173e-05
0.000176932
-0.000166331
0.00024357
-0.000247389
0.000322391
-0.000337279
0.000413358
-0.000434335
0.000516119
-0.000536892
0.000630004
-0.000643278
0.00075404
-0.000751827
0.000886978
-0.000860911
0.00102734
-0.000968982
0.00117349
-0.00107462
0.00132368
-0.00117657
0.00147614
-0.00127377
0.00162911
-0.00136541
0.00178091
-0.00145088
0.00193
-0.00152982
0.00207495
-0.00160205
0.00221453
-0.00166758
0.00234772
-0.00172636
-0.00177619
0.00247441
2.21261e-06
2.07198e-05
1.09962e-05
3.09427e-05
2.80718e-05
1.57346e-05
5.48548e-05
-2.07718e-05
9.25135e-05
-7.53393e-05
0.000141971
-0.000145275
0.000203882
-0.000228242
0.000278599
-0.000322106
0.000366134
-0.000424814
0.000466131
-0.000534332
0.00057786
-0.000648621
0.000700229
-0.000765647
0.000831821
-0.000883419
0.000970955
-0.00100004
0.00111576
-0.00111379
0.00126427
-0.00122313
0.00141449
-0.00132679
0.00156451
-0.00142379
0.00171254
-0.00151344
0.00185697
-0.00159532
0.00199644
-0.00166928
0.00212979
-0.00173541
0.00225616
-0.00179394
0.00237494
-0.00184514
-0.00188765
0.0024864
2.77605e-06
1.79437e-05
1.32918e-05
2.04269e-05
3.33062e-05
-4.27988e-06
6.42494e-05
-5.1715e-05
0.000107263
-0.000118353
0.000163184
-0.000201196
0.000232508
-0.000297566
0.000315344
-0.000404941
0.000411377
-0.000520847
0.000519857
-0.000642812
0.000639605
-0.00076837
0.000769062
-0.000895103
0.000906354
-0.00102071
0.00104939
-0.00114308
0.00119599
-0.00126038
0.00134393
-0.00137107
0.00149114
-0.001474
0.0016357
-0.00156835
0.00177596
-0.0016537
0.00191055
-0.00172991
0.00203841
-0.00179715
0.0021588
-0.0018558
0.00227126
-0.0019064
0.00237563
-0.00194952
-0.00198452
0.0024725
3.40913e-06
1.45346e-05
1.58316e-05
8.0045e-06
3.90342e-05
-2.74825e-05
7.44256e-05
-8.71064e-05
0.000123073
-0.000167001
0.000185667
-0.00026379
0.000262466
-0.000374365
0.000353254
-0.000495729
0.000457308
-0.000624901
0.000573408
-0.000758913
0.000699883
-0.000894844
0.000834688
-0.00102991
0.000975523
-0.00116155
0.00111997
-0.00128753
0.0012656
-0.00140601
0.00141014
-0.00151561
0.00155154
-0.0016154
0.00168806
-0.00170488
0.00181833
-0.00178397
0.00194134
-0.00185292
0.00205644
-0.00191224
0.00216331
-0.00196267
0.00226193
-0.00200502
0.00235254
-0.00204013
-0.00206796
0.00243599
4.11205e-06
1.04225e-05
1.86098e-05
-6.49328e-06
4.52304e-05
-5.41031e-05
8.53153e-05
-0.000127191
0.0001398
-0.000221485
0.000209153
-0.000333143
0.000293317
-0.000458529
0.000391661
-0.000594073
0.000502981
-0.000736221
0.000625535
-0.000881466
0.000757135
-0.00102644
0.000895282
-0.00116806
0.00103732
-0.00130358
0.0011806
-0.0014308
0.00132262
-0.00154803
0.00146117
-0.00165417
0.00159441
-0.00174864
0.00172092
-0.00183139
0.0018397
-0.00190275
0.00195018
-0.00196339
0.00205213
-0.0020142
0.00214567
-0.0020562
0.00223115
-0.0020905
0.00230913
-0.00211811
-0.00213946
0.00238063
4.88357e-06
5.53898e-06
2.16145e-05
-2.32242e-05
5.1854e-05
-8.43426e-05
9.68219e-05
-0.000172159
0.000157252
-0.000281915
0.000233311
-0.000409202
0.000324536
-0.000549754
0.000429804
-0.000699342
0.000547365
-0.000853782
0.000674929
-0.00100903
0.000809815
-0.00116133
0.000949136
-0.00130738
0.00108999
-0.00144443
0.00122963
-0.00157045
0.00136566
-0.00168406
0.00149608
-0.00178459
0.00161939
-0.00187195
0.00173457
-0.00194657
0.00184109
-0.00200926
0.00193879
-0.0020611
0.0020279
-0.0021033
0.00210886
-0.00213717
0.00218233
-0.00216397
0.0022491
-0.00218488
-0.00220061
0.00231024
5.72089e-06
-1.81911e-07
2.48268e-05
-4.23301e-05
5.88487e-05
-0.000118365
0.00010882
-0.00022213
0.000175194
-0.000348289
0.000257748
-0.000491757
0.000355529
-0.000647535
0.000466852
-0.000810664
0.000589384
-0.000976314
0.000720299
-0.00113995
0.000856483
-0.00129752
0.000994765
-0.00144566
0.00113214
-0.00158181
0.00126595
-0.00170426
0.001394
-0.00181212
0.00151468
-0.00190527
0.0016269
-0.00198417
0.00173012
-0.00204979
0.00182425
-0.00210339
0.00190957
-0.00214641
0.00198661
-0.00218035
0.00205613
-0.00220669
0.00211897
-0.0022268
0.00217602
-0.00224193
-0.00225295
0.00222837
6.61951e-06
-6.80143e-06
2.82212e-05
-6.39318e-05
6.61425e-05
-0.000156286
0.000121156
-0.000277143
0.000193349
-0.000420482
0.000282023
-0.000580431
0.000385653
-0.000751165
0.000501944
-0.000926955
0.000627979
-0.00110235
0.000760445
-0.00127241
0.000895894
-0.00143296
0.00103101
-0.00158078
0.00116285
-0.00171365
0.00128898
-0.00183038
0.00140758
-0.00193072
0.00151748
-0.00201516
0.00161808
-0.00208477
0.00170929
-0.00214101
0.00179145
-0.00218555
0.00186518
-0.00222013
0.00193128
-0.00224645
0.00199067
-0.00226608
0.00204429
-0.00228042
0.00209308
-0.00229071
-0.00229791
0.00213803
7.57314e-06
-1.43746e-05
3.17648e-05
-8.81234e-05
7.36475e-05
-0.000198169
0.000133651
-0.000337146
0.000211407
-0.000498239
0.000305655
-0.000674679
0.000414238
-0.000859748
0.000534232
-0.00104695
0.000662167
-0.00123028
0.00079433
-0.00140457
0.000927076
-0.00156571
0.00105711
-0.00171081
0.00118169
-0.00183822
0.00129875
-0.00194744
0.00140693
-0.00203891
0.00150556
-0.00211379
0.00159452
-0.00217373
0.00167416
-0.00222064
0.00174514
-0.00225653
0.00180835
-0.00228334
0.00186475
-0.00230286
0.00191536
-0.00231668
0.00196112
-0.00232619
0.00200294
-0.00233253
-0.00233667
0.0020417
8.57355e-06
-2.29481e-05
3.5418e-05
-0.000114968
8.12615e-05
-0.000244012
0.000146103
-0.000401988
0.000229032
-0.000581167
0.000328148
-0.000773795
0.000440625
-0.000972225
0.00056292
-0.00116924
0.000691087
-0.00135845
0.000821136
-0.00153462
0.000949376
-0.00169395
0.00107269
-0.00183412
0.00118867
-0.00195421
0.00129574
-0.00205451
0.00139305
-0.00213622
0.0014804
-0.00220114
0.00155813
-0.00225146
0.00162695
-0.00228946
0.00168777
-0.00231735
0.00174163
-0.00233721
0.0017896
-0.00235083
0.00183268
-0.00235976
0.00187179
-0.00236529
0.00190774
-0.00236848
-0.00237023
0.00194129
9.6106e-06
-3.25587e-05
3.91341e-05
-0.000144491
8.88695e-05
-0.000293747
0.000158295
-0.000471414
0.000245872
-0.000668744
0.000349004
-0.000876927
0.000464187
-0.00108741
0.00058731
-0.00129237
0.000714055
-0.0014852
0.000840301
-0.00166087
0.000962475
-0.00181613
0.00107777
-0.00194942
0.00118426
-0.0020607
0.00128086
-0.00215111
0.00136725
-0.0022226
0.0014437
-0.00227759
0.0015109
-0.00231867
0.00156984
-0.00234839
0.0016216
-0.00236911
0.0016673
-0.00238291
0.001708
-0.00239153
0.00174467
-0.00239643
0.00177813
-0.00239876
0.00180911
-0.00239946
-0.00239934
0.00183822
1.06722e-05
-4.32309e-05
4.28607e-05
-0.00017668
9.63461e-05
-0.000347233
0.000169997
-0.000545065
0.000261574
-0.00076032
0.000367751
-0.000983105
0.000484368
-0.00120403
0.000606831
-0.00141483
0.000730583
-0.00160895
0.000851536
-0.00178182
0.000966378
-0.00193097
0.00107274
-0.00205578
0.00116922
-0.00215718
0.00125527
-0.00223716
0.00133104
-0.00229838
0.00139722
-0.00234376
0.00145477
-0.00237622
0.00150486
-0.00239848
0.00154865
-0.0024129
0.00158727
-0.00242153
0.00162174
-0.002426
0.00165293
-0.00242762
0.00168157
-0.0024274
0.00170828
-0.00242616
-0.0024246
0.00173354
1.17446e-05
-5.49755e-05
4.65402e-05
-0.000211475
0.000103559
-0.000404252
0.000180978
-0.000622483
0.000275798
-0.00085514
0.00038396
-0.00109127
0.000500702
-0.00132077
0.000621063
-0.00153519
0.000740403
-0.00172829
0.000854813
-0.00189623
0.000961377
-0.00203753
0.00105824
-0.00215265
0.00114455
-0.00224349
0.00122027
-0.00231288
0.00128599
-0.0023641
0.00134268
-0.00240045
0.00139153
-0.00242507
0.00143377
-0.00244072
0.00147061
-0.00244974
0.00150311
-0.00245403
0.00153221
-0.0024551
0.00155868
-0.00245409
0.00158315
-0.00245187
0.00160611
-0.00244912
-0.00244644
0.00162795
1.28123e-05
-6.77878e-05
5.01115e-05
-0.000248775
0.000110374
-0.000464515
0.000191011
-0.00070312
0.00028823
-0.000952359
0.000397261
-0.0012003
0.000512833
-0.00143634
0.000629754
-0.00165211
0.000743452
-0.00184198
0.000850342
-0.00200312
0.000947995
-0.00213519
0.00103512
-0.00223977
0.00111139
-0.00231976
0.00117724
-0.00237874
0.0012336
-0.00242046
0.00128167
-0.00244852
0.00132275
-0.00246615
0.00135811
-0.00247607
0.00138888
-0.00248052
0.00141607
-0.00248123
0.00144051
-0.00247953
0.00146286
-0.00247643
0.00148364
-0.00247265
0.00150325
-0.00246873
-0.00246517
0.00152198
1.3859e-05
-8.16468e-05
5.35116e-05
-0.000288427
0.000116657
-0.000527661
0.000199882
-0.000786345
0.000298594
-0.00105107
0.000407365
-0.00130907
0.000520529
-0.0015495
0.000632814
-0.0017644
0.000739864
-0.00194903
0.000838528
-0.00210179
0.000926929
-0.00222359
0.00100434
-0.00231718
0.00107093
-0.00238635
0.00112752
-0.00243533
0.0011753
-0.00246824
0.00121561
-0.00248884
0.0012498
-0.00250034
0.0012791
-0.00250537
0.00130457
-0.00250599
0.00132712
-0.00250377
0.00134744
-0.00249986
0.00136612
-0.00249511
0.00138357
-0.0024901
0.00140011
-0.00248527
-0.00248101
0.00141595
1.48672e-05
-9.6514e-05
5.66774e-05
-0.000330237
0.000122281
-0.000593265
0.000207402
-0.000871465
0.000306663
-0.00115033
0.000414066
-0.00141647
0.000523681
-0.00165912
0.000630308
-0.00187102
0.000729934
-0.00204866
0.000819927
-0.00219178
0.000898984
-0.00230264
0.000966911
-0.0023851
0.00102432
-0.00244376
0.00107234
-0.00248335
0.00111233
-0.00250823
0.00114571
-0.00252221
0.0011738
-0.00252843
0.00119776
-0.00252933
0.00121855
-0.00252679
0.00123697
-0.00252219
0.00125362
-0.00251651
0.00126896
-0.00251045
0.00128334
-0.00250448
0.001297
-0.00249894
-0.00249412
0.00131011
1.58194e-05
-0.000112333
5.9548e-05
-0.000373966
0.000127129
-0.000660846
0.000213407
-0.000957742
0.000312267
-0.00124919
0.000417247
-0.00152145
0.000522299
-0.00176417
0.000622433
-0.00197116
0.000714086
-0.00214031
0.000795194
-0.00227289
0.000865019
-0.00237247
0.000923856
-0.00244394
0.000972679
-0.00249259
0.00101284
-0.0025235
0.0010458
-0.00254119
0.00107299
-0.0025494
0.00109565
-0.00255109
0.00111487
-0.00254854
0.00113149
-0.00254341
0.00114619
-0.00253689
0.00115948
-0.0025298
0.00117173
-0.0025227
0.00118322
-0.00251597
0.00119414
-0.00250986
-0.00250458
0.0012046
1.66982e-05