/*--------------------------------*- C++ -*----------------------------------*\
  =========                 |
  \\      /  F ield         | OpenFOAM: The Open Source CFD Toolbox
   \\    /   O peration     | Website:  https://openfoam.org
    \\  /    A nd           | Version:  6.0
     \\/     M anipulation  |
\*---------------------------------------------------------------------------*/
FoamFile
{
    version     2.0;
    format      ascii;
    class       volScalarField;
    location    "1.9";
    object      p;
}
// * * * * * * * * * * * * * * * * * * * * * * * * * * * * * * * * * * * * * //

dimensions      [0 2 -2 0 0 0 0];

internalField   nonuniform List<scalar> 
8000
(
-0.327714
-0.337823
-0.343864
-0.34899
-0.354574
-0.360423
-0.366097
-0.371076
-0.374823
-0.376849
-0.376761
-0.374295
-0.36934
-0.361958
-0.352375
-0.340947
-0.328197
-0.314915
-0.30171
-0.286952
-0.331063
-0.340789
-0.34668
-0.351764
-0.357358
-0.363268
-0.369051
-0.374185
-0.378128
-0.380382
-0.380541
-0.378322
-0.37359
-0.36638
-0.356887
-0.345449
-0.332568
-0.319023
-0.305462
-0.290464
-0.337491
-0.346473
-0.352069
-0.357064
-0.362669
-0.368687
-0.374672
-0.380097
-0.38441
-0.387099
-0.387733
-0.385995
-0.381706
-0.374845
-0.365554
-0.354124
-0.341021
-0.326991
-0.31275
-0.297284
-0.346534
-0.354453
-0.359616
-0.364466
-0.370066
-0.376214
-0.382463
-0.388279
-0.393098
-0.396389
-0.397691
-0.39664
-0.392998
-0.386671
-0.377721
-0.36637
-0.353023
-0.338364
-0.323189
-0.307052
-0.357565
-0.364161
-0.368761
-0.373397
-0.378951
-0.385216
-0.391745
-0.397998
-0.4034
-0.407399
-0.4095
-0.40929
-0.406465
-0.400844
-0.392397
-0.381252
-0.367727
-0.352411
-0.336157
-0.319194
-0.369858
-0.374947
-0.37887
-0.383205
-0.388637
-0.394959
-0.401727
-0.408396
-0.414383
-0.419115
-0.422066
-0.422776
-0.420873
-0.416093
-0.408303
-0.397528
-0.383976
-0.368106
-0.350774
-0.332907
-0.38267
-0.386153
-0.389301
-0.393233
-0.398433
-0.4047
-0.411601
-0.418592
-0.425082
-0.430483
-0.434243
-0.435859
-0.434901
-0.431027
-0.42401
-0.413768
-0.400389
-0.384184
-0.365929
-0.347174
-0.395309
-0.397179
-0.399476
-0.402889
-0.407715
-0.413769
-0.420638
-0.427785
-0.434619
-0.440544
-0.444983
-0.447402
-0.447323
-0.44434
-0.438143
-0.428554
-0.415549
-0.399282
-0.380378
-0.360843
-0.407196
-0.407534
-0.408936
-0.411711
-0.415998
-0.421645
-0.42827
-0.435354
-0.442315
-0.448552
-0.453477
-0.456528
-0.45719
-0.455007
-0.449603
-0.44072
-0.428237
-0.412169
-0.392936
-0.372792
-0.417903
-0.416872
-0.417369
-0.419396
-0.422975
-0.428004
-0.434149
-0.440922
-0.44776
-0.454068
-0.459249
-0.462724
-0.463948
-0.462424
-0.457727
-0.44953
-0.437638
-0.421959
-0.402689
-0.38212
-0.427176
-0.425002
-0.424621
-0.425813
-0.428533
-0.432743
-0.438174
-0.444388
-0.450853
-0.456988
-0.462196
-0.465883
-0.46748
-0.466455
-0.462339
-0.454752
-0.443442
-0.428242
-0.409151
-0.38831
-0.43493
-0.431879
-0.430684
-0.430991
-0.432735
-0.43596
-0.440478
-0.445918
-0.45179
-0.457537
-0.462566
-0.466273
-0.468064
-0.467377
-0.4637
-0.45661
-0.445808
-0.431086
-0.412295
-0.391287
-0.441236
-0.437587
-0.435671
-0.435084
-0.435787
-0.437918
-0.441384
-0.44589
-0.451004
-0.456196
-0.460884
-0.464451
-0.466281
-0.465774
-0.462384
-0.455649
-0.445235
-0.430921
-0.412477
-0.391375
-0.44629
-0.442308
-0.439783
-0.438335
-0.437992
-0.43899
-0.441338
-0.444828
-0.449086
-0.453619
-0.457849
-0.461149
-0.462874
-0.462392
-0.459121
-0.452571
-0.442392
-0.428374
-0.410282
-0.389159
-0.450388
-0.446296
-0.443278
-0.44104
-0.439703
-0.439601
-0.440846
-0.443314
-0.446691
-0.450514
-0.454211
-0.457138
-0.458618
-0.457989
-0.454644
-0.448082
-0.437958
-0.424105
-0.406352
-0.385317
-0.453887
-0.449849
-0.446446
-0.443513
-0.441283
-0.44018
-0.440407
-0.441915
-0.444443
-0.447551
-0.450662
-0.45311
-0.454192
-0.453218
-0.449576
-0.44278
-0.432524
-0.418705
-0.40128
-0.380483
-0.457176
-0.453286
-0.449588
-0.446071
-0.443082
-0.441122
-0.440465
-0.441123
-0.44287
-0.445274
-0.447745
-0.449594
-0.450092
-0.448543
-0.444353
-0.437088
-0.426519
-0.412643
-0.395562
-0.375191
-0.460645
-0.456924
-0.452996
-0.449008
-0.44541
-0.442759
-0.441377
-0.441313
-0.442352
-0.444055
-0.445811
-0.446905
-0.446598
-0.444209
-0.439194
-0.431207
-0.420135
-0.406117
-0.389394
-0.369693
-0.464652
-0.461055
-0.456936
-0.452581
-0.448522
-0.445345
-0.443393
-0.44272
-0.443102
-0.444077
-0.445005
-0.445156
-0.443795
-0.440284
-0.434151
-0.425152
-0.413298
-0.39887
-0.382214
-0.363364
-0.469494
-0.465925
-0.461629
-0.456994
-0.452601
-0.449039
-0.446641
-0.445438
-0.445173
-0.445348
-0.4453
-0.444297
-0.441639
-0.436751
-0.429255
-0.418999
-0.406059
-0.390701
-0.373218
-0.354886
-0.475392
-0.471723
-0.467237
-0.462385
-0.457754
-0.453909
-0.451142
-0.449435
-0.448481
-0.447744
-0.446547
-0.444183
-0.440018
-0.433577
-0.424596
-0.413023
-0.398993
-0.382738
-0.364531
-0.345694
-0.482485
-0.478569
-0.473862
-0.468825
-0.464013
-0.459939
-0.456827
-0.454588
-0.452855
-0.451059
-0.448531
-0.444621
-0.438796
-0.430709
-0.420229
-0.407424
-0.392522
-0.375848
-0.357819
-0.339166
-0.490831
-0.486522
-0.481548
-0.47633
-0.471354
-0.467056
-0.46357
-0.46072
-0.458077
-0.455055
-0.451023
-0.44542
-0.437843
-0.42809
-0.416168
-0.402252
-0.386636
-0.369676
-0.351764
-0.33346
-0.500427
-0.495592
-0.490295
-0.484877
-0.479719
-0.475158
-0.471219
-0.467634
-0.463921
-0.4595
-0.45381
-0.44641
-0.437048
-0.425673
-0.412417
-0.397541
-0.381384
-0.364306
-0.346684
-0.328978
-0.511225
-0.505754
-0.500078
-0.494424
-0.489034
-0.48413
-0.479618
-0.475137
-0.470173
-0.464182
-0.456706
-0.447451
-0.436323
-0.423412
-0.408951
-0.393259
-0.376688
-0.359576
-0.342265
-0.325106
-0.523155
-0.51696
-0.510854
-0.504914
-0.499219
-0.493857
-0.488613
-0.483046
-0.476637
-0.468917
-0.459559
-0.448432
-0.435596
-0.42126
-0.405732
-0.389356
-0.372472
-0.355382
-0.338384
-0.321735
-0.536129
-0.529149
-0.522569
-0.516287
-0.510189
-0.504222
-0.498052
-0.491185
-0.483137
-0.473546
-0.462245
-0.449266
-0.434807
-0.41917
-0.402704
-0.385753
-0.368623
-0.351569
-0.334844
-0.318605
-0.550052
-0.542247
-0.535159
-0.528468
-0.521847
-0.515094
-0.507776
-0.499383
-0.489506
-0.47793
-0.464658
-0.449878
-0.4339
-0.417087
-0.3998
-0.382359
-0.365029
-0.348009
-0.331505
-0.315592
-0.564814
-0.556166
-0.548539
-0.541365
-0.534074
-0.526324
-0.517616
-0.507467
-0.495592
-0.481947
-0.466709
-0.450201
-0.432817
-0.414948
-0.396941
-0.379078
-0.361571
-0.344571
-0.328232
-0.312558
-0.580288
-0.570794
-0.562604
-0.554853
-0.546721
-0.53774
-0.527385
-0.515261
-0.501245
-0.485482
-0.468314
-0.450172
-0.431497
-0.412682
-0.39404
-0.375806
-0.358137
-0.341136
-0.324912
-0.309408
-0.596323
-0.585995
-0.577213
-0.568778
-0.559606
-0.549138
-0.536882
-0.522584
-0.506321
-0.48843
-0.469394
-0.449721
-0.42987
-0.410209
-0.391005
-0.372439
-0.354616
-0.337594
-0.321439
-0.30605
-0.612737
-0.601599
-0.592193
-0.582943
-0.572511
-0.560292
-0.545893
-0.529257
-0.51068
-0.490685
-0.469867
-0.448775
-0.427859
-0.407442
-0.387739
-0.368873
-0.350901
-0.333842
-0.317719
-0.302406
-0.629314
-0.617402
-0.60733
-0.597114
-0.585184
-0.570953
-0.554196
-0.535098
-0.514186
-0.492145
-0.469648
-0.447255
-0.425379
-0.404289
-0.384141
-0.365003
-0.346889
-0.329781
-0.313666
-0.298403
-0.645807
-0.633165
-0.622374
-0.611021
-0.597348
-0.580857
-0.561565
-0.53993
-0.516704
-0.492705
-0.468648
-0.445072
-0.422338
-0.400653
-0.38011
-0.360729
-0.342481
-0.325322
-0.309197
-0.293973
-0.661932
-0.648612
-0.637039
-0.624363
-0.608702
-0.589734
-0.567776
-0.543581
-0.518105
-0.492261
-0.466773
-0.442136
-0.418643
-0.396435
-0.375547
-0.355951
-0.337586
-0.320377
-0.304237
-0.289049
-0.677381
-0.663439
-0.651008
-0.636816
-0.618936
-0.597313
-0.572613
-0.545884
-0.518259
-0.490707
-0.463926
-0.438349
-0.414195
-0.391536
-0.370352
-0.350575
-0.332113
-0.314865
-0.298713
-0.283572
-0.691816
-0.677314
-0.663942
-0.648039
-0.627737
-0.603329
-0.575868
-0.546684
-0.517045
-0.487938
-0.46001
-0.433615
-0.408896
-0.385858
-0.364432
-0.344512
-0.325979
-0.308711
-0.292559
-0.277484
-0.704887
-0.689887
-0.675484
-0.657685
-0.634796
-0.607531
-0.57735
-0.545833
-0.514343
-0.483849
-0.454924
-0.427836
-0.40265
-0.379309
-0.357698
-0.337678
-0.319109
-0.301846
-0.285714
-0.270732
-0.71623
-0.700796
-0.68527
-0.665412
-0.639817
-0.609686
-0.576879
-0.543194
-0.510042
-0.47834
-0.448574
-0.42092
-0.395366
-0.3718
-0.350066
-0.329996
-0.311432
-0.294207
-0.278123
-0.263269
-0.72548
-0.709675
-0.692941
-0.67089
-0.642525
-0.609581
-0.574298
-0.538644
-0.504036
-0.471316
-0.440868
-0.412776
-0.386958
-0.363251
-0.341461
-0.321398
-0.302886
-0.285739
-0.269738
-0.255053
-0.732281
-0.716167
-0.698148
-0.673809
-0.642672
-0.607028
-0.569465
-0.532071
-0.496231
-0.462689
-0.431721
-0.403324
-0.37735
-0.353588
-0.331816
-0.311822
-0.293417
-0.276392
-0.260517
-0.246049
-0.736286
-0.719924
-0.700564
-0.673888
-0.640038
-0.601865
-0.562261
-0.52338
-0.486543
-0.452379
-0.421058
-0.392492
-0.366472
-0.34275
-0.321074
-0.301218
-0.282979
-0.266129
-0.250429
-0.236228
-0.737175
-0.720629
-0.699891
-0.670881
-0.634439
-0.593961
-0.552587
-0.512492
-0.4749
-0.440319
-0.408814
-0.380218
-0.354269
-0.330683
-0.309189
-0.289545
-0.271538
-0.25492
-0.239449
-0.225571
-0.73466
-0.717992
-0.695868
-0.66458
-0.625725
-0.583211
-0.540367
-0.499342
-0.461244
-0.426455
-0.394936
-0.366451
-0.340693
-0.317348
-0.296125
-0.276774
-0.259069
-0.242745
-0.227562
-0.214067
-0.728488
-0.711763
-0.688278
-0.654821
-0.613787
-0.569543
-0.525549
-0.483887
-0.445534
-0.410744
-0.379385
-0.351156
-0.325712
-0.302714
-0.281859
-0.262884
-0.245557
-0.229595
-0.214765
-0.201715
-0.718451
-0.701737
-0.676948
-0.641486
-0.59855
-0.552913
-0.508102
-0.466102
-0.427744
-0.393161
-0.362135
-0.33431
-0.309306
-0.286767
-0.266377
-0.247868
-0.230998
-0.215471
-0.201062
-0.188524
-0.704387
-0.687759
-0.661758
-0.6245
-0.57998
-0.533309
-0.488022
-0.445979
-0.407865
-0.373696
-0.343175
-0.315901
-0.291467
-0.269501
-0.249679
-0.231729
-0.2154
-0.200382
-0.18647
-0.174509
-0.686189
-0.669724
-0.642637
-0.603836
-0.558082
-0.510746
-0.465326
-0.423534
-0.385907
-0.352355
-0.322511
-0.295936
-0.272202
-0.250925
-0.231776
-0.214479
-0.198779
-0.184351
-0.171012
-0.159696
-0.6638
-0.647584
-0.619569
-0.579513
-0.532894
-0.485271
-0.440056
-0.3988
-0.361899
-0.32916
-0.300162
-0.274432
-0.251528
-0.231057
-0.212688
-0.196143
-0.181161
-0.167407
-0.154724
-0.14412
-0.637221
-0.621345
-0.592588
-0.551594
-0.504493
-0.456959
-0.412279
-0.371834
-0.335884
-0.30415
-0.27616
-0.251419
-0.229473
-0.209927
-0.192446
-0.176753
-0.162583
-0.149592
-0.137648
-0.127826
-0.606507
-0.591068
-0.56178
-0.520185
-0.472991
-0.425913
-0.382084
-0.342712
-0.307928
-0.277379
-0.250554
-0.226941
-0.206079
-0.187572
-0.171087
-0.156348
-0.143085
-0.130951
-0.11984
-0.110873
-0.571769
-0.556869
-0.52728
-0.485433
-0.438531
-0.392264
-0.349584
-0.311528
-0.278112
-0.248917
-0.223404
-0.20105
-0.181393
-0.164037
-0.148654
-0.134972
-0.122715
-0.111537
-0.101358
-0.093327
-0.53317
-0.518915
-0.489269
-0.447525
-0.401289
-0.356168
-0.314916
-0.278401
-0.246536
-0.21885
-0.194784
-0.173811
-0.15547
-0.139372
-0.125194
-0.112666
-0.101515
-0.0913993
-0.082262
-0.075245
-0.490923
-0.477423
-0.447971
-0.406682
-0.361471
-0.31781
-0.278238
-0.243468
-0.213319
-0.18728
-0.16478
-0.145294
-0.128369
-0.113625
-0.100747
-0.0894712
-0.0795269
-0.0705844
-0.0626003
-0.0566548
-0.445293
-0.432654
-0.403652
-0.363159
-0.319312
-0.277397
-0.239735
-0.206888
-0.178597
-0.154323
-0.133489
-0.11558
-0.100154
-0.0868443
-0.0753481
-0.0654107
-0.0567709
-0.0491153
-0.0423929
-0.0375622
-0.396582
-0.384913
-0.356613
-0.317244
-0.275074
-0.235162
-0.19961
-0.168841
-0.14253
-0.120116
-0.101028
-0.0847629
-0.0708967
-0.0590803
-0.0490281
-0.0404989
-0.0332466
-0.0269827
-0.0216428
-0.018045
-0.345138
-0.334539
-0.307186
-0.26925
-0.229041
-0.191362
-0.158093
-0.129531
-0.105296
-0.0848166
-0.0675304
-0.052953
-0.0406836
-0.0303982
-0.0218349
-0.0147685
-0.00897309
-0.0042191
-0.000486513
0.00154456
-0.291337
-0.281906
-0.255734
-0.219515
-0.181522
-0.146274
-0.115435
-0.0891844
-0.0670986
-0.0486003
-0.0331427
-0.0202639
-0.00959318
-0.00084219
0.00621598
0.0117837
0.0160413
0.0190564
0.0206843
0.0206282
-0.235587
-0.227412
-0.20264
-0.168397
-0.132844
-0.100199
-0.07191
-0.0480533
-0.0281675
-0.0116733
0.00196208
0.0131788
0.0223185
0.0296301
0.0353007
0.0394974
0.0422821
0.0433556
0.0422915
0.0399004
-0.178318
-0.171479
-0.148305
-0.116268
-0.0833515
-0.0534515
-0.0278134
-0.00641751
0.0112291
0.0257069
0.03754
0.0471585
0.0548935
0.0609857
0.0656287
0.0690007
0.0710306
0.0709312
0.0680713
0.0649
-0.119976
-0.114542
-0.0931447
-0.0635144
-0.0333965
-0.00635977
0.0165458
0.0354249
0.0507945
0.063234
0.0732596
0.0812977
0.087686
0.0926958
0.0965964
0.0996823
0.101926
0.102336
0.100677
0.105186
-0.0610127
-0.0570404
-0.037576
-0.0105218
0.016664
0.0407451
0.0608555
0.0771732
0.0902318
0.100603
0.10879
0.115204
0.120179
0.12399
0.12692
0.129242
0.130934
0.13149
0.13181
0.138182
-0.0018883
0.000576733
0.0179787
0.0423208
0.0664741
0.0875342
0.104807
0.118534
0.129257
0.137537
0.143859
0.148621
0.152145
0.154701
0.156554
0.157934
0.158807
0.158848
0.158999
0.164147
0.0569371
0.0578641
0.0731017
0.0946303
0.115684
0.133686
0.148101
0.159224
0.167598
0.173768
0.178198
0.181265
0.183273
0.184479
0.185126
0.185415
0.185327
0.184613
0.184068
0.187622
0.115009
0.114382
0.127382
0.146032
0.163953
0.178888
0.190451
0.198977
0.205009
0.209069
0.211597
0.212948
0.213403
0.213198
0.212549
0.211627
0.210402
0.208658
0.207138
0.20921
0.171884
0.169701
0.18042
0.196162
0.210952
0.222844
0.231584
0.237545
0.241259
0.243227
0.243863
0.243496
0.242387
0.240749
0.238772
0.236602
0.234193
0.231357
0.228802
0.229452
0.227128
0.223404
0.23183
0.244671
0.256365
0.265266
0.271242
0.27469
0.276134
0.27605
0.274825
0.272764
0.270104
0.267037
0.263731
0.260306
0.256708
0.252778
0.249197
0.248501
0.280327
0.275091
0.281241
0.291223
0.299893
0.305885
0.309178
0.310192
0.309436
0.307361
0.304328
0.300617
0.296445
0.291982
0.287376
0.282726
0.277973
0.272988
0.268414
0.266438
0.331083
0.324381
0.328302
0.335503
0.34125
0.344444
0.345162
0.343842
0.340976
0.33699
0.332221
0.326925
0.321298
0.315493
0.309637
0.303812
0.29796
0.291976
0.286455
0.283267
0.37902
0.370912
0.37268
0.377209
0.380166
0.3807
0.378976
0.375442
0.370576
0.364779
0.358363
0.351564
0.344558
0.337479
0.330441
0.323506
0.316622
0.309706
0.30329
0.298956
0.423786
0.414347
0.414065
0.416063
0.416392
0.414427
0.410413
0.404807
0.398068
0.390576
0.382619
0.374413
0.366116
0.357847
0.349703
0.341736
0.333896
0.326117
0.318866
0.31346
0.465054
0.454373
0.452168
0.451805
0.449693
0.445415
0.439285
0.431764
0.423296
0.414238
0.404859
0.395355
0.385867
0.376502
0.36734
0.358425
0.34971
0.341144
0.333121
0.32672
0.502523
0.490702
0.486726
0.484198
0.479855
0.473471
0.465415
0.456153
0.446114
0.435634
0.424962
0.414278
0.403711
0.39335
0.383267
0.373493
0.363991
0.354715
0.34599
0.338679
0.535922
0.523075
0.517502
0.513026
0.506686
0.498418
0.488643
0.477829
0.466388
0.45464
0.442816
0.431082
0.419551
0.408305
0.397402
0.386866
0.376666
0.366762
0.357407
0.34928
0.565009
0.551263
0.544283
0.5381
0.530013
0.520101
0.508828
0.49666
0.483999
0.471146
0.458319
0.44567
0.433302
0.421286
0.409669
0.398473
0.387668
0.37722
0.367314
0.358471
0.589576
0.575064
0.566887
0.559253
0.549687
0.538384
0.525844
0.512533
0.498841
0.485055
0.471382
0.457961
0.444886
0.43222
0.420002
0.408248
0.396935
0.386029
0.375656
0.366204
0.609445
0.59431
0.585159
0.576347
0.56558
0.553152
0.539587
0.525351
0.510825
0.496285
0.481927
0.467882
0.454237
0.441046
0.428342
0.416138
0.404415
0.39314
0.382387
0.37244
0.624474
0.608866
0.598974
0.589268
0.577592
0.564311
0.54997
0.535036
0.519878
0.504768
0.489892
0.475376
0.461299
0.447711
0.43464
0.422097
0.410065
0.398511
0.387469
0.377146
0.634555
0.61863
0.608238
0.597931
0.585644
0.571791
0.55693
0.541527
0.525946
0.510454
0.495231
0.480398
0.466031
0.452177
0.438861
0.42609
0.413851
0.40211
0.390874
0.380298
0.639617
0.623531
0.612889
0.602279
0.589686
0.575546
0.560423
0.544784
0.528991
0.513307
0.497909
0.482918
0.468406
0.454419
0.440979
0.428093
0.41575
0.403916
0.392582
0.381878
0.639622
0.623537
0.612894
0.602284
0.58969
0.57555
0.560427
0.544788
0.528995
0.51331
0.497913
0.482921
0.468409
0.454421
0.440981
0.428096
0.415753
0.403918
0.392585
0.38188
0.634572
0.618646
0.608254
0.597945
0.585658
0.571804
0.556942
0.541538
0.525957
0.510464
0.49524
0.480407
0.46604
0.452186
0.438869
0.426097
0.413858
0.402117
0.390881
0.380304
0.624501
0.608893
0.598999
0.589292
0.577614
0.564332
0.54999
0.535054
0.519896
0.504785
0.489908
0.475391
0.461313
0.447725
0.434654
0.422109
0.410077
0.398522
0.387481
0.377157
0.609483
0.594348
0.585194
0.57638
0.565612
0.553181
0.539614
0.525377
0.510849
0.496308
0.481949
0.467903
0.454257
0.441065
0.42836
0.416156
0.404432
0.393156
0.382403
0.372455
0.589625
0.575112
0.566933
0.559297
0.549727
0.538422
0.525879
0.512567
0.498872
0.485085
0.47141
0.457988
0.444912
0.432245
0.420026
0.408271
0.396957
0.38605
0.375676
0.366223
0.56507
0.551322
0.544339
0.538153
0.530063
0.520147
0.508871
0.496701
0.484037
0.471182
0.458354
0.445703
0.433334
0.421316
0.409698
0.3985
0.387694
0.377245
0.367338
0.358494
0.535993
0.523146
0.517568
0.513089
0.506744
0.498473
0.488694
0.477877
0.466434
0.454683
0.442857
0.431121
0.419588
0.408341
0.397436
0.386899
0.376697
0.366792
0.357436
0.349308
0.502605
0.490783
0.486803
0.48427
0.479923
0.473534
0.465474
0.456209
0.446166
0.435684
0.425009
0.414323
0.403753
0.393391
0.383306
0.373531
0.364027
0.35475
0.346023
0.338711
0.465147
0.454465
0.452255
0.451887
0.449769
0.445487
0.439352
0.431827
0.423356
0.414295
0.404912
0.395405
0.385916
0.376548
0.367385
0.358467
0.349751
0.341183
0.333159
0.326756
0.423891
0.41445
0.414162
0.416155
0.416477
0.414507
0.410488
0.404877
0.398135
0.390639
0.382679
0.37447
0.36617
0.357899
0.349753
0.341784
0.333942
0.326161
0.318909
0.3135
0.379135
0.371025
0.372788
0.37731
0.38026
0.380788
0.379058
0.37552
0.370649
0.364848
0.358429
0.351627
0.344618
0.337537
0.330495
0.323559
0.316673
0.309754
0.303337
0.299001
0.331209
0.324504
0.32842
0.335613
0.341353
0.34454
0.345253
0.343927
0.341056
0.337066
0.332293
0.326994
0.321364
0.315555
0.309697
0.30387
0.298015
0.29203
0.286507
0.283316
0.280463
0.275225
0.281369
0.291343
0.300005
0.30599
0.309276
0.310285
0.309523
0.307443
0.304406
0.300692
0.296516
0.29205
0.287441
0.282788
0.278033
0.273046
0.26847
0.266492
0.227275
0.223548
0.231968
0.2448
0.256486
0.265379
0.271348
0.27479
0.276229
0.276139
0.27491
0.272845
0.270181
0.267111
0.263802
0.260373
0.256772
0.25284
0.249257
0.248559
0.172042
0.169856
0.180568
0.1963
0.211081
0.222965
0.231698
0.237652
0.24136
0.243322
0.243954
0.243583
0.24247
0.240828
0.238848
0.236675
0.234263
0.231424
0.228867
0.229514
0.115178
0.114547
0.12754
0.14618
0.164091
0.179017
0.190572
0.199091
0.205117
0.209171
0.211694
0.21304
0.213491
0.213282
0.21263
0.211704
0.210476
0.20873
0.207207
0.209276
0.0571158
0.0580392
0.0732687
0.0947871
0.11583
0.133823
0.14823
0.159345
0.167713
0.173877
0.178301
0.181363
0.183367
0.184569
0.185212
0.185497
0.185406
0.18469
0.184142
0.187692
-0.00169939
0.000761823
0.0181553
0.0424866
0.066629
0.087679
0.104943
0.118662
0.129378
0.137652
0.143968
0.148725
0.152244
0.154796
0.156646
0.158022
0.158891
0.15893
0.159078
0.164222
-0.0608139
-0.0568456
-0.03739
-0.0103472
0.0168272
0.0408977
0.0609986
0.077308
0.0903592
0.100724
0.108905
0.115314
0.120284
0.124091
0.127016
0.129335
0.131023
0.131576
0.131894
0.138262
-0.119768
-0.114337
-0.0929496
-0.0633311
-0.0332252
-0.00619964
0.016696
0.0355664
0.0509283
0.0633609
0.0733804
0.081413
0.0877963
0.0928016
0.0966981
0.0997802
0.10202
0.102428
0.100767
0.105272
-0.178099
-0.171265
-0.148101
-0.116077
-0.0831723
-0.0532839
-0.0276563
-0.00626954
0.011369
0.0258396
0.0376664
0.0472791
0.055009
0.0610966
0.0657355
0.0691037
0.0711303
0.0710282
0.0681666
0.0649943
-0.23536
-0.22719
-0.202427
-0.168197
-0.132657
-0.100024
-0.0717462
-0.0478991
-0.0280217
-0.0115349
0.00209385
0.0133047
0.022439
0.0297459
0.0354123
0.0396052
0.0423866
0.0434574
0.0423913
0.039999
-0.291101
-0.281674
-0.255513
-0.219307
-0.181327
-0.146093
-0.115265
-0.089024
-0.0669471
-0.0484565
-0.0330058
-0.0201332
-0.009468
-0.00072194
0.00633183
0.0118956
0.0161496
0.0191616
0.0207869
0.020729
-0.344893
-0.334299
-0.306957
-0.269034
-0.228839
-0.191173
-0.157916
-0.129365
-0.105139
-0.0846677
-0.0673888
-0.0528177
-0.0405541
-0.0302739
-0.0217153
-0.0146531
-0.00886152
-0.004111
-0.000381339
0.00164733
-0.39633
-0.384665
-0.356375
-0.317021
-0.274865
-0.234967
-0.199427
-0.168669
-0.142368
-0.119962
-0.100882
-0.0846235
-0.0707633
-0.0589523
-0.048905
-0.0403803
-0.0331321
-0.0268719
-0.0215352
-0.0179402
-0.445033
-0.432399
-0.403408
-0.362929
-0.319097
-0.277196
-0.239546
-0.206711
-0.17843
-0.154164
-0.133339
-0.115436
-0.100017
-0.086713
-0.075222
-0.0652893
-0.0566538
-0.0490021
-0.0422831
-0.0374555
-0.490657
-0.477161
-0.44772
-0.406445
-0.36125
-0.317603
-0.278045
-0.243286
-0.213147
-0.187117
-0.164625
-0.145147
-0.128229
-0.113491
-0.100618
-0.0893471
-0.0794074
-0.070469
-0.0624887
-0.0565464
-0.532896
-0.518647
-0.489011
-0.447281
-0.401061
-0.355956
-0.314717
-0.278215
-0.246361
-0.218684
-0.194626
-0.17366
-0.155326
-0.139235
-0.125062
-0.11254
-0.101394
-0.0912821
-0.0821487
-0.0751352
-0.57149
-0.556595
-0.527016
-0.485184
-0.438297
-0.392046
-0.34938
-0.311337
-0.277932
-0.248747
-0.223243
-0.200897
-0.181247
-0.163898
-0.148521
-0.134843
-0.122591
-0.111418
-0.101243
-0.093216
-0.606223
-0.590789
-0.561511
-0.51993
-0.472752
-0.42569
-0.381875
-0.342516
-0.307745
-0.277205
-0.25039
-0.226785
-0.205931
-0.18743
-0.170951
-0.156219
-0.142961
-0.130831
-0.119724
-0.110761
-0.636933
-0.621061
-0.592314
-0.551334
-0.504249
-0.456731
-0.412066
-0.371635
-0.335697
-0.303973
-0.275993
-0.251261
-0.229323
-0.209783
-0.192309
-0.176622
-0.162456
-0.14947
-0.137531
-0.127713
-0.663509
-0.647297
-0.619291
-0.579249
-0.532646
-0.485039
-0.43984
-0.398598
-0.361709
-0.328981
-0.299993
-0.274272
-0.251376
-0.230912
-0.21255
-0.196011
-0.181034
-0.167285
-0.154606
-0.144006
-0.685895
-0.669434
-0.642356
-0.603568
-0.55783
-0.51051
-0.465106
-0.423328
-0.385715
-0.352174
-0.322341
-0.295775
-0.272049
-0.250779
-0.231637
-0.214346
-0.198651
-0.184228
-0.170894
-0.159582
-0.704091
-0.687467
-0.661474
-0.624229
-0.579725
-0.53307
-0.487799
-0.445771
-0.40767
-0.373513
-0.343003
-0.315739
-0.291313
-0.269355
-0.249539
-0.231595
-0.215272
-0.200259
-0.186352
-0.174395
-0.718154
-0.701444
-0.676663
-0.641213
-0.598292
-0.552672
-0.507877
-0.465891
-0.427547
-0.392977
-0.361961
-0.334146
-0.309151
-0.28662
-0.266237
-0.247734
-0.23087
-0.215347
-0.200944
-0.18841
-0.728191
-0.71147
-0.687992
-0.654547
-0.613526
-0.569299
-0.525321
-0.483675
-0.445335
-0.410558
-0.37921
-0.350992
-0.325556
-0.302567
-0.281718
-0.26275
-0.245429
-0.229472
-0.214647
-0.201602
-0.734364
-0.7177
-0.695583
-0.664304
-0.625463
-0.582965
-0.540137
-0.499128
-0.461044
-0.426268
-0.394761
-0.366286
-0.340537
-0.3172
-0.295985
-0.27664
-0.258941
-0.242623
-0.227445
-0.213955
-0.736881
-0.720339
-0.699606
-0.670605
-0.634176
-0.593713
-0.552355
-0.512276
-0.474699
-0.440131
-0.408638
-0.380052
-0.354113
-0.330536
-0.309049
-0.289412
-0.271411
-0.254799
-0.239332
-0.225459
-0.735994
-0.719637
-0.700281
-0.673613
-0.639775
-0.601616
-0.562028
-0.523163
-0.486341
-0.45219
-0.420882
-0.392327
-0.366317
-0.342603
-0.320935
-0.301086
-0.282853
-0.266009
-0.250314
-0.236118
-0.731993
-0.715882
-0.697868
-0.673536
-0.642409
-0.606779
-0.569231
-0.531853
-0.496029
-0.4625
-0.431544
-0.403159
-0.377195
-0.353442
-0.331678
-0.311691
-0.293292
-0.276273
-0.260404
-0.24594
-0.725196
-0.709394
-0.692664
-0.670619
-0.642264
-0.609332
-0.574064
-0.538425
-0.503833
-0.471127
-0.440691
-0.412611
-0.386804
-0.363105
-0.341324
-0.321268
-0.302763
-0.285622
-0.269626
-0.254947
-0.71595
-0.70052
-0.684997
-0.665145
-0.639557
-0.609438
-0.576645
-0.542975
-0.509838
-0.478151
-0.448398
-0.420756
-0.395212
-0.371656
-0.34993
-0.329868
-0.311311
-0.294092
-0.278013
-0.263165
-0.704613
-0.689616
-0.675216
-0.657421
-0.634539
-0.607285
-0.577116
-0.545614
-0.51414
-0.48366
-0.454748
-0.427673
-0.402497
-0.379166
-0.357564
-0.337552
-0.31899
-0.301734
-0.285607
-0.270631
-0.691548
-0.677049
-0.66368
-0.64778
-0.627484
-0.603085
-0.575636
-0.546466
-0.516841
-0.487749
-0.459834
-0.433452
-0.408744
-0.385717
-0.3643
-0.344388
-0.325863
-0.308601
-0.292454
-0.277385
-0.677119
-0.66318
-0.650753
-0.636563
-0.618688
-0.597071
-0.572382
-0.545667
-0.518056
-0.490518
-0.463752
-0.438187
-0.414045
-0.391396
-0.370222
-0.350453
-0.331998
-0.314757
-0.298611
-0.283476
-0.661678
-0.648361
-0.63679
-0.624116
-0.608458
-0.589496
-0.567548
-0.543364
-0.517902
-0.492073
-0.466599
-0.441975
-0.418494
-0.396297
-0.375418
-0.355831
-0.337474
-0.320272
-0.304138
-0.288957
-0.645559
-0.632921
-0.622133
-0.610781
-0.59711
-0.580624
-0.561339
-0.539715
-0.516502
-0.492517
-0.468474
-0.444912
-0.422191
-0.400516
-0.379984
-0.360611
-0.342372
-0.32522
-0.309102
-0.293883
-0.629074
-0.617166
-0.607096
-0.596881
-0.584953
-0.570725
-0.553974
-0.534885
-0.513985
-0.491957
-0.469474
-0.447095
-0.425231
-0.404154
-0.384016
-0.364888
-0.346782
-0.329682
-0.313573
-0.298317
-0.612504
-0.60137
-0.591967
-0.582718
-0.572287
-0.56007
-0.545676
-0.529047
-0.51048
-0.490498
-0.469693
-0.448615
-0.427712
-0.407307
-0.387615
-0.368759
-0.350796
-0.333745
-0.317629
-0.302323
-0.596098
-0.585773
-0.576994
-0.56856
-0.559389
-0.548922
-0.536669
-0.522377
-0.506122
-0.488243
-0.46922
-0.449561
-0.429723
-0.410074
-0.390883
-0.372327
-0.354513
-0.337499
-0.321351
-0.30597
-0.58007
-0.570579
-0.562392
-0.554643
-0.546511
-0.53753
-0.527177
-0.515057
-0.501048
-0.485296
-0.46814
-0.450011
-0.43135
-0.412547
-0.393918
-0.375694
-0.358035
-0.341043
-0.324827
-0.30933
-0.564602
-0.555957
-0.548334
-0.541161
-0.533871
-0.526121
-0.517413
-0.507268
-0.495398
-0.481761
-0.466534
-0.450039
-0.432668
-0.414812
-0.396817
-0.378966
-0.36147
-0.344479
-0.328149
-0.312482
-0.549846
-0.542045
-0.53496
-0.528272
-0.521651
-0.514897
-0.50758
-0.499189
-0.489315
-0.477746
-0.464483
-0.449714
-0.433749
-0.416949
-0.399675
-0.382246
-0.364927
-0.347917
-0.331422
-0.315516
-0.535929
-0.528952
-0.522376
-0.516096
-0.509999
-0.504032
-0.497861
-0.490995
-0.482949
-0.473363
-0.462069
-0.4491
-0.434653
-0.419029
-0.402576
-0.385637
-0.368519
-0.351476
-0.33476
-0.318529
-0.52296
-0.516768
-0.510665
-0.504729
-0.499035
-0.493674
-0.488429
-0.482862
-0.476454
-0.468736
-0.459383
-0.448264
-0.435438
-0.421114
-0.405599
-0.389236
-0.372364
-0.355285
-0.338298
-0.321658
-0.511035
-0.505566
-0.499893
-0.494243
-0.488856
-0.483953
-0.479441
-0.474959
-0.469994
-0.464004
-0.45653
-0.44728
-0.43616
-0.423259
-0.408811
-0.393133
-0.376574
-0.359475
-0.342175
-0.325026
-0.500239
-0.495407
-0.490113
-0.4847
-0.479545
-0.474986
-0.471048
-0.467461
-0.463747
-0.459324
-0.453634
-0.446236
-0.436879
-0.425514
-0.412268
-0.397405
-0.381261
-0.364196
-0.346587
-0.328892
-0.490645
-0.486338
-0.481367
-0.476154
-0.471183
-0.466889
-0.463404
-0.460553
-0.457908
-0.454882
-0.450847
-0.445243
-0.437668
-0.427921
-0.416008
-0.402103
-0.386501
-0.369554
-0.351656
-0.333366
-0.482299
-0.478384
-0.473682
-0.468651
-0.463845
-0.459775
-0.456666
-0.454426
-0.45269
-0.450888
-0.448355
-0.444441
-0.438614
-0.430529
-0.420055
-0.40726
-0.39237
-0.37571
-0.357695
-0.339058
-0.475204
-0.471536
-0.467056
-0.46221
-0.457587
-0.453747
-0.450984
-0.449276
-0.448319
-0.447575
-0.44637
-0.443998
-0.439827
-0.433385
-0.424406
-0.412841
-0.398821
-0.382579
-0.364385
-0.345564
-0.469301
-0.465735
-0.461445
-0.456818
-0.452433
-0.448877
-0.446483
-0.44528
-0.445011
-0.445178
-0.44512
-0.444106
-0.441438
-0.436545
-0.429048
-0.418795
-0.405862
-0.390514
-0.373039
-0.354712
-0.464453
-0.460859
-0.456747
-0.4524
-0.44835
-0.44518
-0.443232
-0.442559
-0.442937
-0.443903
-0.444819
-0.444956
-0.443583
-0.440062
-0.433924
-0.424924
-0.413076
-0.398654
-0.382007
-0.363165
-0.460439
-0.456722
-0.452801
-0.448821
-0.445232
-0.442588
-0.441211
-0.441146
-0.44218
-0.443873
-0.445615
-0.446693
-0.446371
-0.443969
-0.438945
-0.430955
-0.419886
-0.405876
-0.389164
-0.369478
-0.456961
-0.453076
-0.449385
-0.445876
-0.442896
-0.440943
-0.440289
-0.440947
-0.442687
-0.445079
-0.447535
-0.449366
-0.449845
-0.448281
-0.444079
-0.436809
-0.426242
-0.412375
-0.395308
-0.37496
-0.453661
-0.44963
-0.446235
-0.44331
-0.441088
-0.439991
-0.440219
-0.441725
-0.444245
-0.447339
-0.450432
-0.45286
-0.453922
-0.45293
-0.449274
-0.442471
-0.432217
-0.418409
-0.401001
-0.380232
-0.450151
-0.446068
-0.443058
-0.440827
-0.439497
-0.439399
-0.440644
-0.443106
-0.446473
-0.45028
-0.453957
-0.456862
-0.458321
-0.457672
-0.454311
-0.447741
-0.43762
-0.423777
-0.406045
-0.385044
-0.446043
-0.442071
-0.439555
-0.438113
-0.437775
-0.438774
-0.441119
-0.444601
-0.448846
-0.45336
-0.457568
-0.460845
-0.462546
-0.462043
-0.458756
-0.452197
-0.442019
-0.428014
-0.409945
-0.38886
-0.440979
-0.437342
-0.435435
-0.434853
-0.435559
-0.437688
-0.441148
-0.445643
-0.45074
-0.455912
-0.460575
-0.464117
-0.465921
-0.465393
-0.461986
-0.455243
-0.44483
-0.43053
-0.412112
-0.39105
-0.434666
-0.431628
-0.430441
-0.430752
-0.432497
-0.435717
-0.440227
-0.445652
-0.451504
-0.457227
-0.46223
-0.46591
-0.467675
-0.466965
-0.463272
-0.456174
-0.445374
-0.430666
-0.411903
-0.390938
-0.426908
-0.424748
-0.424374
-0.425569
-0.428287
-0.43249
-0.437909
-0.444106
-0.450549
-0.456658
-0.461838
-0.465496
-0.467066
-0.466018
-0.461886
-0.454292
-0.442985
-0.427801
-0.40874
-0.387942
-0.417635
-0.416618
-0.417121
-0.419149
-0.422726
-0.427746
-0.433875
-0.440628
-0.447442
-0.453723
-0.458875
-0.462321
-0.463518
-0.461972
-0.457259
-0.449055
-0.437168
-0.421506
-0.402269
-0.381742
-0.406932
-0.407284
-0.408692
-0.411467
-0.415749