1.22 	3.45254e-18 	-6.98323e-18 	-0.0650756 	0.00914803 	-7.49021e-22
1.66 	3.45254e-18 	-6.96118e-18 	-0.0181905 	-0.519447 	-5.20218e-23
2.1 	3.45254e-18 	-6.93894e-18 	-0.0885235 	-0.557277 	-1.31742e-21
2.54 	3.45254e-18 	-8.30431e-18 	0.420248 	0.0259815 	2.3803e-24
2.98 	3.45254e-18 	-8.28171e-18 	0.647443 	0.44769 	1.3186e-21
3.42 	3.45254e-18 	-6.87115e-18 	0.521537 	0.667005 	9.24158e-22
3.86 	3.45254e-18 	-6.84819e-18 	0.509674 	0.557411 	1.34186e-22
4.3 	3.45254e-18 	-6.82504e-18 	0.730528 	0.0756527 	7.85539e-22
4.74 	3.45254e-18 	-5.41391e-18 	0.878328 	-0.315572 	-6.69816e-22
5.18 	3.45254e-18 	-2.61482e-18 	0.836784 	-0.535013 	-3.244e-22
5.62 	3.45254e-18 	-1.2033e-18 	0.750571 	-0.61016 	1.25141e-22
6.06 	3.45254e-18 	-1.17937e-18 	0.807352 	-0.390089 	3.03188e-22
6.5 	3.45254e-18 	-1.15524e-18 	0.893628 	-0.0366989 	-3.11983e-22
