1.275 	2.15223e-18 	-2.76991e-20 	-0.405587 	0.00739889 	-3.77985e-22
1.825 	2.15223e-18 	-1.39322e-20 	-0.455038 	-0.00508277 	4.1248e-21
2.375 	2.15223e-18 	-2.66896e-23 	-0.127286 	-0.00914613 	-1.19851e-21
