/*--------------------------------*- C++ -*----------------------------------*\
  =========                 |
  \\      /  F ield         | OpenFOAM: The Open Source CFD Toolbox
   \\    /   O peration     | Website:  https://openfoam.org
    \\  /    A nd           | Version:  6.0
     \\/     M anipulation  |
\*---------------------------------------------------------------------------*/
FoamFile
{
    version     2.0;
    format      ascii;
    class       volVectorField;
    location    "18.9";
    object      U;
}
// * * * * * * * * * * * * * * * * * * * * * * * * * * * * * * * * * * * * * //

dimensions      [0 1 -1 0 0 0 0];

internalField   nonuniform List<vector> 
8000
(
(-0.000517854 0.000652402 -3.59573e-21)
(-0.0028102 0.00161881 1.92204e-20)
(-0.00702986 0.00230196 -2.3378e-20)
(-0.0122015 0.00276845 1.78021e-20)
(-0.0178217 0.00306883 8.66927e-21)
(-0.0236095 0.00324397 -2.60334e-20)
(-0.0293657 0.00332834 -2.30108e-21)
(-0.034963 0.00335066 -8.16728e-22)
(-0.0403319 0.0033347 -1.35148e-20)
(-0.0454454 0.0033001 -7.32244e-21)
(-0.0503067 0.00326295 5.46027e-21)
(-0.0549411 0.00323627 2.07613e-20)
(-0.0593883 0.00323033 -1.55369e-21)
(-0.0636976 0.00325292 2.22565e-21)
(-0.0679235 0.00330951 -2.09159e-20)
(-0.0721252 0.00340338 1.28886e-20)
(-0.0763615 0.00353573 -1.847e-20)
(-0.080654 0.00370653 2.79519e-20)
(-0.0849755 0.00391536 -3.13426e-23)
(-0.0895808 0.00415592 6.04205e-21)
(-0.000609896 0.00182463 1.19413e-20)
(-0.00303001 0.00452368 -6.10286e-20)
(-0.00732439 0.00642243 -4.2153e-20)
(-0.0125305 0.00770995 -2.86264e-20)
(-0.0181527 0.00852917 -3.68276e-20)
(-0.0239153 0.00899542 8.10297e-21)
(-0.0296231 0.00920584 -4.2514e-20)
(-0.0351517 0.00924151 -9.54968e-21)
(-0.0404337 0.00916969 3.01617e-21)
(-0.0454435 0.00904615 3.17763e-20)
(-0.0501854 0.00891684 -3.46661e-20)
(-0.0546854 0.00881918 4.82238e-20)
(-0.0589843 0.00878297 -3.61149e-20)
(-0.0631323 0.00883101 -4.28311e-20)
(-0.0671852 0.00897959 -5.90315e-20)
(-0.071204 0.0092386 3.76959e-20)
(-0.0752493 0.00961199 -1.21991e-20)
(-0.0793446 0.0101001 -4.44171e-20)
(-0.083462 0.0107023 4.19964e-20)
(-0.087861 0.0113998 -3.12321e-20)
(-0.000790629 0.0029769 1.16744e-19)
(-0.00346265 0.00737981 6.04606e-20)
(-0.00790578 0.0104728 6.79955e-20)
(-0.0131817 0.0125642 5.65831e-21)
(-0.0188098 0.0138875 3.75817e-20)
(-0.0245245 0.0146309 4.69028e-20)
(-0.0301388 0.0149533 -8.52432e-20)
(-0.0355336 0.014987 -4.51412e-20)
(-0.0406458 0.0148423 -5.87952e-20)
(-0.0454525 0.0146108 6.27604e-20)
(-0.0499598 0.0143681 -4.79388e-20)
(-0.0541956 0.0141766 -6.16854e-20)
(-0.0582023 0.014086 -2.24635e-20)
(-0.0620321 0.0141353 2.13393e-20)
(-0.0657435 0.0143525 -5.93698e-21)
(-0.0694006 0.0147554 8.55253e-21)
(-0.0730683 0.0153517 9.90497e-20)
(-0.0767734 0.016143 -1.38982e-20)
(-0.0804878 0.0171295 -1.00715e-19)
(-0.0844796 0.0182795 1.32836e-19)
(-0.00105777 0.00409761 4.06257e-20)
(-0.00410343 0.0101582 -5.73747e-20)
(-0.00876884 0.0144108 -1.43927e-20)
(-0.0141504 0.0172782 2.69132e-20)
(-0.0197894 0.0190813 7.64128e-20)
(-0.0254358 0.0200794 1.67296e-19)
(-0.0309139 0.0204908 1.63474e-19)
(-0.0361136 0.0204979 1.35839e-20)
(-0.0409775 0.0202527 1.00251e-19)
(-0.0454866 0.0198819 1.53451e-19)
(-0.0496501 0.0194911 -1.2262e-19)
(-0.053498 0.0191676 1.81472e-19)
(-0.057075 0.0189825 -4.11034e-20)
(-0.0604364 0.0189921 1.03633e-20)
(-0.0636442 0.0192383 4.29269e-20)
(-0.0667675 0.0197486 5.70536e-20)
(-0.0698775 0.0205364 -8.97781e-20)
(-0.0730064 0.0216068 -7.49471e-20)
(-0.0761269 0.0229621 -1.32662e-19)
(-0.0795208 0.0245572 1.93169e-19)
(-0.00140816 0.00517669 -2.12244e-20)
(-0.00494554 0.0128327 -2.17266e-19)
(-0.0099055 0.0181977 -6.42641e-20)
(-0.0154287 0.0218031 -1.56603e-19)
(-0.0210849 0.0240535 5.91988e-20)
(-0.0266444 0.0252761 -9.33603e-20)
(-0.0319473 0.0257461 3.2112e-20)
(-0.0368949 0.0256939 -1.97743e-19)
(-0.0414376 0.0253114 1.04324e-19)
(-0.0455617 0.0247595 -1.24408e-19)
(-0.04928 0.0241731 -1.10642e-19)
(-0.052625 0.0236651 -1.23894e-19)
(-0.0556442 0.0233292 1.12464e-19)
(-0.0583962 0.0232411 -1.00986e-19)
(-0.0609476 0.0234591 1.40621e-19)
(-0.0633741 0.0240236 4.06487e-20)
(-0.0657555 0.024957 1.00628e-19)
(-0.0681321 0.0262706 4.41795e-20)
(-0.070479 0.0279721 -1.749e-19)
(-0.0730981 0.0300024 2.84654e-19)
(-0.00183798 0.00620583 9.35815e-20)
(-0.00598013 0.0153809 7.19321e-21)
(-0.0113045 0.0217997 3.85487e-20)
(-0.0170041 0.0260959 1.34502e-19)
(-0.0226839 0.0287538 -2.05853e-20)
(-0.0281396 0.0301644 2.18416e-19)
(-0.0332311 0.0306572 9.69474e-20)
(-0.0378741 0.030507 8.15051e-21)
(-0.0420289 0.0299436 2.49289e-19)
(-0.0456883 0.0291602 8.16873e-20)
(-0.0488689 0.0283202 3.87534e-20)
(-0.0516063 0.0275623 1.22991e-19)
(-0.0539505 0.0270039 1.12742e-19)
(-0.0559635 0.0267425 2.05837e-19)
(-0.0577172 0.0268565 -1.83981e-19)
(-0.059295 0.0274036 2.60105e-19)
(-0.0607878 0.0284195 3.43961e-21)
(-0.0622472 0.0299267 -3.32527e-19)
(-0.063654 0.0319431 4.31129e-19)
(-0.0653381 0.0343958 1.78598e-19)
(-0.00234288 0.00717854 -5.51494e-20)
(-0.0071963 0.0177839 -1.00114e-19)
(-0.0129505 0.0251876 -2.08314e-19)
(-0.0188584 0.0301196 -6.17315e-21)
(-0.0245663 0.0331392 3.55502e-20)
(-0.0299008 0.0346977 -2.65994e-19)
(-0.0347458 0.035174 -1.97338e-19)
(-0.0390346 0.0348845 -2.82274e-20)
(-0.0427397 0.0340931 -2.49618e-19)
(-0.0458613 0.0330229 -1.72833e-19)
(-0.0484208 0.031864 -5.03699e-20)
(-0.0504561 0.0307805 -1.62195e-19)
(-0.0520196 0.0299142 -2.64085e-21)
(-0.0531762 0.0293873 -2.15412e-19)
(-0.0540032 0.0293023 9.06248e-20)
(-0.0545926 0.0297394 -1.03393e-19)
(-0.0550485 0.0307548 7.92292e-20)
(-0.0554373 0.0323889 -1.00782e-19)
(-0.0557507 0.0346776 -2.88151e-19)
(-0.0563573 0.0375361 -8.75603e-20)
(-0.00291811 0.0080898 -2.03059e-20)
(-0.00858088 0.0200259 -2.20494e-20)
(-0.0148233 0.0283365 1.74662e-19)
(-0.0209653 0.0338427 -2.84234e-19)
(-0.0267009 0.0371746 4.16981e-20)
(-0.0318929 0.0388389 -1.64187e-19)
(-0.036454 0.0392601 7.75842e-20)
(-0.0403386 0.0387908 3.48731e-19)
(-0.0435336 0.0377256 -2.23694e-20)
(-0.0460484 0.0363133 -2.60164e-19)
(-0.0479092 0.0347683 4.72696e-20)
(-0.0491564 0.033278 9.16409e-21)
(-0.0498435 0.0320091 -5.34247e-20)
(-0.0500377 0.0311101 5.39537e-21)
(-0.0498205 0.0307121 4.69352e-19)
(-0.049293 0.0309247 -6.68273e-20)
(-0.0485742 0.031833 -1.30386e-19)
(-0.0477493 0.0335062 -2.33988e-19)
(-0.0468277 0.0360092 2.38699e-19)
(-0.0462315 0.039251 1.02881e-19)
(-0.00355846 0.00893556 1.025e-19)
(-0.010118 0.0220933 -1.34111e-19)
(-0.0168967 0.0312247 1.89601e-19)
(-0.0232885 0.0372385 1.9086e-19)
(-0.0290417 0.0408311 1.75936e-19)
(-0.0340613 0.0425605 3.56753e-19)
(-0.0382934 0.0428915 2.30697e-19)
(-0.0417174 0.0422083 -4.95734e-19)
(-0.0443376 0.0408305 2.53532e-19)
(-0.0461744 0.0390281 1.9895e-19)
(-0.0472595 0.0370352 -2.82605e-21)
(-0.0476354 0.0350596 2.22714e-19)
(-0.0473561 0.0332909 1.73638e-19)
(-0.046489 0.0319049 -9.4452e-20)
(-0.0451186 0.0310646 3.19185e-19)
(-0.0433542 0.0309167 -3.95674e-19)
(-0.0413307 0.0315857 1.58384e-19)
(-0.0391558 0.0331841 2.03713e-19)
(-0.036865 0.0358229 -4.74799e-20)
(-0.0349553 0.0394153 4.08963e-19)
(-0.00425807 0.00971206 2.06012e-19)
(-0.0117885 0.023973 1.068e-20)
(-0.0191371 0.0338323 -7.39333e-20)
(-0.0257794 0.040283 -7.80868e-20)
(-0.031525 0.0440847 -3.61615e-19)
(-0.0363267 0.0458423 5.12111e-20)
(-0.0401695 0.0460558 1.45082e-19)
(-0.043062 0.0451358 -6.97851e-20)
(-0.0450292 0.0434208 5.75643e-20)
(-0.0461047 0.0411963 -1.5262e-20)
(-0.0463276 0.0387099 -7.51924e-20)
(-0.0457427 0.0361845 7.1389e-20)
(-0.0444032 0.0338285 -3.10389e-19)
(-0.0423752 0.0318431 2.97554e-19)
(-0.0397436 0.0304253 -2.57745e-19)
(-0.0366243 0.0297646 7.96183e-20)
(-0.0331682 0.0300371 1.81183e-19)
(-0.0295078 0.0314175 -3.76845e-20)
(-0.0257148 0.034087 -1.25405e-19)
(-0.0223893 0.0379819 -8.51911e-20)
(-0.00501011 0.0104152 -2.56629e-19)
(-0.013569 0.0256519 -1.68734e-20)
(-0.0215022 0.036139 5.40418e-20)
(-0.0283752 0.0429527 1.38928e-19)
(-0.0340657 0.0469129 -1.96138e-19)
(-0.0385806 0.0486678 -1.71151e-19)
(-0.0419488 0.0487481 3.99478e-19)
(-0.0442131 0.047585 -2.20742e-19)
(-0.0454229 0.0455302 -1.42393e-19)
(-0.0456285 0.0428776 -2.04315e-19)
(-0.0448783 0.0398811 1.35257e-19)
(-0.0432207 0.0367711 -3.65843e-21)
(-0.0407085 0.0337678 -2.52585e-19)
(-0.0374048 0.0310919 -4.13195e-19)
(-0.0333929 0.0289721 3.14791e-19)
(-0.0287919 0.0276439 -2.55059e-19)
(-0.0237671 0.0273461 3.61635e-19)
(-0.0184776 0.0283366 -1.01295e-19)
(-0.0130399 0.0309008 2.1303e-19)
(-0.00819628 0.035028 -7.22491e-19)
(-0.00580648 0.0110398 -5.1977e-19)
(-0.0154314 0.0271145 3.40789e-19)
(-0.0239401 0.0381225 4.63455e-20)
(-0.0309971 0.0452222 8.96449e-21)
(-0.0365553 0.049292 -2.10095e-19)
(-0.0406815 0.0510206 3.0895e-19)
(-0.0434538 0.0509655 3.37227e-20)
(-0.0449536 0.0495739 -6.33517e-20)
(-0.0452596 0.0472053 -2.03341e-19)
(-0.0444423 0.0441549 2.19802e-19)
(-0.0425632 0.0406752 5.57267e-19)
(-0.0396773 0.0369946 -1.23112e-19)
(-0.0358387 0.0333347 2.78186e-19)
(-0.0311079 0.0299257 -3.28603e-19)
(-0.0255644 0.0270193 -3.15077e-19)
(-0.0193283 0.0248935 1.89453e-19)
(-0.0125766 0.0238554 3.13028e-19)
(-0.0054931 0.0242673 -1.01435e-18)
(0.00175505 0.0265602 1.19095e-19)
(0.00823357 0.0308219 1.61894e-19)
(-0.00663744 0.0115797 3.84895e-19)
(-0.0173422 0.0283434 1.26603e-19)
(-0.0263882 0.0397573 6.59443e-19)
(-0.0335493 0.0470619 3.39297e-20)
(-0.0388601 0.0511932 -7.33347e-20)
(-0.0424527 0.0528788 -3.49207e-19)
(-0.0444591 0.0527006 2.96969e-19)
(-0.0450038 0.0511182 5.32789e-19)
(-0.0441987 0.0484945 3.54968e-19)
(-0.0421394 0.0451212 2.56269e-19)
(-0.0389055 0.0412418 2.20925e-19)
(-0.0345635 0.0370731 -3.96726e-19)
(-0.0291731 0.0328257 -1.24271e-19)
(-0.0227958 0.0287244 -9.15185e-20)
(-0.0155089 0.025028 9.80736e-19)
(-0.00743198 0.0220435 -3.37296e-21)
(0.00124899 0.0201401 -2.44409e-19)
(0.0103298 0.0197973 -7.7108e-20)
(0.0195947 0.0216383 7.01466e-19)
(0.0278589 0.0259094 9.20533e-20)
(-0.00749147 0.0120275 -1.89829e-20)
(-0.0192618 0.0293183 -3.64074e-19)
(-0.0287734 0.0410138 -5.41594e-19)
(-0.035919 0.0484367 -1.50692e-19)
(-0.0408215 0.0525805 8.32099e-20)
(-0.0436824 0.0542114 1.79191e-20)
(-0.0446917 0.0539344 4.75176e-19)
(-0.0440199 0.0522205 -5.89327e-19)
(-0.0418164 0.0494342 -2.24166e-19)
(-0.0382064 0.0458606 -4.51763e-19)
(-0.0332931 0.0417299 -3.84783e-19)
(-0.0271619 0.0372397 -3.40708e-19)
(-0.0198864 0.032578 8.51867e-20)
(-0.0115368 0.0279472 -1.10606e-19)
(-0.00219493 0.0235906 4.73896e-19)
(0.00801634 0.019818 -2.59765e-19)
(0.0189014 0.0170364 -8.14172e-19)
(0.0302419 0.0158354 -1.64271e-19)
(0.0417896 0.0170693 4.01803e-19)
(0.0520507 0.0212132 -3.49819e-19)
(-0.00835528 0.0123752 -6.14085e-20)
(-0.0211449 0.0300171 4.45269e-19)
(-0.0310113 0.0418592 -5.67856e-19)
(-0.037976 0.0493062 1.31257e-19)
(-0.0422555 0.0534101 -2.70338e-19)
(-0.0441244 0.054976 6.02163e-19)
(-0.043832 0.0546328 -4.30372e-19)
(-0.0415978 0.0528633 4.92386e-19)
(-0.0376104 0.0500349 -4.66855e-19)
(-0.0320288 0.0464274 1.99201e-19)
(-0.0249858 0.0422577 -9.66734e-20)
(-0.0165943 0.0377021 -2.42725e-19)
(-0.00695313 0.032919 -2.9991e-19)
(0.00384454 0.0280745 2.98841e-19)
(0.015698 0.0233724 -2.50265e-19)
(0.0284681 0.0190893 -5.47154e-19)
(0.0419404 0.0156236 5.69619e-19)
(0.0558848 0.013634 -7.26603e-19)
(0.0700569 0.0142158 3.26853e-19)
(0.0826174 0.0181319 8.17869e-21)
(-0.009214 0.0126151 -5.56741e-19)
(-0.0229402 0.0304174 -6.01081e-19)
(-0.0330065 0.0422592 6.92697e-20)
(-0.0395728 0.0496272 -5.79604e-19)
(-0.0429539 0.0536326 -5.15746e-20)
(-0.043499 0.0551209 -4.26345e-19)
(-0.0415179 0.0547462 -9.7808e-20)
(-0.0372785 0.0530062 -2.85855e-19)
(-0.0310097 0.0502746 2.54178e-21)
(-0.0229062 0.0468312 -1.2508e-19)
(-0.0131359 0.0428855 8.88008e-21)
(-0.0018475 0.038598 -3.60446e-19)
(0.0108207 0.0341007 3.97274e-19)
(0.0247335 0.0295192 -5.63675e-19)
(0.0397474 0.0250025 1.99699e-19)
(0.0556814 0.0207592 7.56535e-21)
(0.0722768 0.0171176 -3.17988e-19)
(0.0892783 0.0147211 7.88468e-19)
(0.106499 0.014855 -1.88269e-19)
(0.121785 0.0185774 -1.21951e-19)
(-0.0100514 0.0127401 6.24933e-19)
(-0.0245901 0.030498 3.37419e-19)
(-0.0346516 0.0421812 3.13856e-19)
(-0.0405433 0.0493577 4.68532e-20)
(-0.0426824 0.0531988 4.24377e-19)
(-0.0414936 0.0545921 6.11688e-19)
(-0.037346 0.0542186 5.00825e-19)
(-0.0305542 0.0525938 4.48291e-20)
(-0.021386 0.0501038 3.66794e-19)
(-0.0100724 0.0470361 5.66767e-19)
(0.00318099 0.043604 -1.47029e-19)
(0.0181816 0.0399656 2.4676e-19)
(0.0347383 0.0362409 1.99259e-19)
(0.0526523 0.0325284 2.02721e-19)
(0.0717068 0.0289271 1.19924e-18)
(0.0916402 0.0255632 -4.49493e-19)
(0.112103 0.0226402 -2.74361e-20)
(0.132767 0.0206671 5.21313e-19)
(0.153549 0.0209827 -2.95591e-19)
(0.17214 0.0248547 1.46015e-19)
(-0.0108499 0.0127448 -5.05342e-19)
(-0.0260304 0.0302414 3.23586e-20)
(-0.0358255 0.041598 -4.0447e-19)
(-0.0407004 0.0484634 -5.26452e-20)
(-0.0411784 0.0520695 2.96078e-19)
(-0.0377599 0.0533462 -8.8144e-19)
(-0.0308712 0.0530029 -6.59257e-22)
(-0.020871 0.0515757 4.10222e-19)
(-0.0080636 0.0494681 3.85441e-19)
(0.00728525 0.0469841 -1.69699e-19)
(0.0249305 0.0443534 5.59653e-20)
(0.0446307 0.0417504 1.29804e-19)
(0.0661306 0.0393077 -6.14636e-20)
(0.089147 0.0371281 -6.8949e-19)
(0.113356 0.0352964 1.74564e-19)
(0.138366 0.0338875 4.80478e-19)
(0.163666 0.0329765 -6.84638e-19)
(0.188751 0.0328434 3.33891e-19)
(0.213634 0.0347104 8.96439e-20)
(0.236221 0.0398697 4.53623e-19)
(-0.0115903 0.0126256 -7.45897e-20)
(-0.0271879 0.0296347 -3.54038e-19)
(-0.03639 0.0404919 1.62919e-19)
(-0.039831 0.0469252 7.60714e-22)
(-0.0381452 0.0502263 -7.10005e-19)
(-0.0319084 0.0513671 1.108e-19)
(-0.0216028 0.0510845 -2.10444e-20)
(-0.00762867 0.0499361 1.43345e-19)
(0.00967532 0.0483457 -6.56167e-19)
(0.0300092 0.0466391 -4.60126e-20)
(0.0530884 0.0450725 -1.54186e-19)
(0.0786205 0.0438529 1.3715e-19)
(0.106282 0.0431533 4.63072e-19)
(0.135694 0.0431255 -7.15946e-20)
(0.166401 0.0439095 2.77462e-20)
(0.197825 0.04563 1.82342e-19)
(0.229183 0.0483645 -4.50496e-20)
(0.259576 0.0522987 3.68077e-19)
(0.288851 0.058662 -2.13521e-19)
(0.315521 0.0684846 -3.37527e-19)
(-0.0122505 0.0123803 6.9203e-20)
(-0.0279783 0.0286714 1.68951e-20)
(-0.0361855 0.0388584 1.4196e-19)
(-0.0376908 0.0447461 3.47689e-19)
(-0.0332452 0.0476838 1.9511e-19)
(-0.023502 0.0486828 2.03584e-20)
(-0.00899934 0.0485052 -2.32926e-19)
(0.00982008 0.0477275 5.97079e-20)
(0.032581 0.0467908 3.14067e-19)
(0.0589464 0.0460415 -5.32221e-19)
(0.0885901 0.0457611 4.01637e-19)
(0.121171 0.0461911 -3.0265e-19)
(0.156309 0.0475549 2.5688e-19)
(0.193563 0.050079 -5.54128e-19)
(0.232398 0.0540177 6.09769e-19)
(0.272133 0.0596696 -6.52252e-19)
(0.311797 0.0673763 -1.69657e-19)
(0.350058 0.0777746 5.32902e-19)
(0.385741 0.0929265 -1.79897e-19)
(0.415523 0.113286 7.98322e-20)
(-0.0128046 0.0120077 -5.23629e-20)
(-0.0283024 0.027351 4.94172e-19)
(-0.0350261 0.0367088 -2.06973e-21)
(-0.0339981 0.0419575 -3.06779e-19)
(-0.0260948 0.0444994 -2.06314e-19)
(-0.0120518 0.0453815 3.77981e-19)
(0.00753104 0.0453857 -1.49712e-19)
(0.0321601 0.0451004 -1.886e-20)
(0.061411 0.0449759 3.12059e-19)
(0.0948933 0.0453656 -3.87675e-19)
(0.132222 0.0465579 4.25213e-20)
(0.172995 0.0488024 -5.04108e-19)
(0.216778 0.0523345 2.65517e-19)
(0.263107 0.0574034 -7.59865e-19)
(0.311488 0.0643101 1.2108e-18)
(0.361415 0.0734574 -2.21844e-19)
(0.412405 0.0854644 2.31644e-19)
(0.464281 0.101709 -6.01421e-19)
(0.517494 0.125231 3.81949e-21)
(0.563965 0.152139 6.8301e-19)
(-0.0132196 0.0115066 -1.58613e-19)
(-0.0280418 0.0256793 1.37026e-19)
(-0.0326951 0.0340717 -5.04709e-19)
(-0.0284304 0.0386221 7.46515e-19)
(-0.0162624 0.0407793 -5.38968e-19)
(0.00298013 0.0416199 2.7823e-20)
(0.028621 0.0419378 -5.81238e-19)
(0.0600935 0.0423234 4.15589e-19)
(0.0968929 0.0432211 -5.93688e-20)
(0.138535 0.0449702 -3.66816e-19)
(0.184526 0.0478347 -2.14097e-19)
(0.234346 0.0520252 2.26224e-19)
(0.287442 0.0577179 1.49646e-19)
(0.343244 0.0650714 -6.62364e-19)
(0.401196 0.0742431 2.39103e-19)
(0.460794 0.0854016 -3.52847e-19)
(0.521658 0.0987458 4.27533e-20)
(0.583747 0.114699 -2.99941e-19)
(0.647861 0.134427 1.22934e-19)
(0.706798 0.154168 -4.49981e-19)
(-0.0134543 0.0108751 4.51555e-19)
(-0.0270559 0.0236678 -2.73507e-19)
(-0.0289424 0.0309938 2.25366e-19)
(-0.0206244 0.0348361 -2.84523e-19)
(-0.0032736 0.0366802 4.76904e-19)
(0.0221683 0.0376244 -8.33397e-21)
(0.05492 0.0384643 -5.80675e-20)
(0.0943011 0.0397783 -4.30588e-20)
(0.139672 0.0419866 2.65026e-19)
(0.190389 0.0453893 4.50697e-19)
(0.245769 0.0501933 -2.66227e-19)
(0.305085 0.0565306 2.5887e-19)
(0.367567 0.0644718 4.72934e-19)
(0.432428 0.0740359 -3.31606e-19)
(0.498904 0.0851959 -6.73747e-19)
(0.566295 0.0978752 1.23218e-18)
(0.634015 0.111931 -2.20014e-19)
(0.701673 0.127194 -7.14913e-20)
(0.769438 0.143976 7.70184e-19)
(0.832224 0.161506 -1.63062e-19)
(-0.0134564 0.0101112 -7.3507e-19)
(-0.0251794 0.0213352 -4.89332e-19)
(-0.0234856 0.0275402 -1.87845e-19)
(-0.0101824 0.0307284 3.62424e-19)
(0.013374 0.0324067 -8.18248e-19)
(0.0460955 0.033684 4.23783e-19)
(0.0870486 0.0353432 5.37134e-20)
(0.135376 0.0379319 5.43298e-20)
(0.190224 0.0418212 -5.55175e-19)
(0.250696 0.0472422 -1.96062e-19)
(0.315824 0.0543101 -3.45655e-19)
(0.384577 0.063042 3.33859e-19)
(0.455876 0.0733707 9.47786e-20)
(0.528641 0.0851559 1.85397e-20)
(0.601833 0.098192 4.3528e-19)
(0.674507 0.112209 -4.40903e-19)
(0.745844 0.126866 -1.82996e-20)
(0.815189 0.141763 1.12648e-20)
(0.882205 0.156734 6.04301e-20)
(0.944115 0.173386 3.41744e-19)
(-0.0131625 0.00921348 2.34033e-19)
(-0.0222235 0.0187087 6.02752e-19)
(-0.0160149 0.0237964 4.83699e-19)
(0.00331494 0.0264598 -1.66743e-19)
(0.0341859 0.0282065 5.79993e-19)
(0.0753115 0.0301388 -4.88682e-20)
(0.125535 0.0330055 -6.88405e-20)
(0.183732 0.0372961 4.09837e-20)
(0.248732 0.0432995 5.60802e-19)
(0.319276 0.051139 3.29549e-19)
(0.394012 0.0607986 9.62468e-20)
(0.47152 0.0721447 5.92563e-21)
(0.550362 0.0849473 -6.38623e-19)
(0.629147 0.0989004 5.54912e-19)
(0.706588 0.11364 9.51766e-20)
(0.781563 0.128758 -1.56743e-19)
(0.853138 0.143812 -6.79727e-19)
(0.920602 0.158358 -5.73967e-20)
(0.983428 0.17193 2.68366e-19)
(1.04091 0.18766 -5.46261e-20)
(-0.0124974 0.00818299 -5.93786e-19)
(-0.0179782 0.0158276 2.48441e-19)
(-0.00620196 0.0198704 -1.21303e-18)
(0.0202899 0.0222237 4.96855e-19)
(0.0596377 0.024366 -3.96258e-19)
(0.110281 0.0273674 2.92148e-19)
(0.170741 0.031911 -4.5391e-19)
(0.23951 0.0383887 4.16662e-20)
(0.314979 0.046962 -2.34076e-20)
(0.395418 0.057599 1.2212e-19)
(0.479004 0.0701087 1.7637e-19)
(0.56389 0.0841738 -3.33327e-19)
(0.64829 0.0993863 1.7654e-19)
(0.730568 0.115282 1.62133e-19)
(0.809306 0.131373 7.00339e-19)
(0.883361 0.147172 -3.04216e-19)
(0.951884 0.162216 -2.02085e-19)
(1.01433 0.176109 3.39811e-19)
(1.07031 0.188301 1.81158e-19)
(1.12046 0.202586 -3.41109e-19)
(-0.0113759 0.00702579 5.20065e-19)
(-0.0122182 0.0127478 5.01459e-19)
(0.00628682 0.0158968 1.44701e-19)
(0.0411438 0.018247 6.0945e-19)
(0.0901364 0.021206 2.99437e-19)
(0.151327 0.0257743 -5.39826e-19)
(0.222788 0.0325232 8.17688e-19)
(0.302491 0.0416934 -4.02412e-19)
(0.388265 0.0532611 4.01757e-19)
(0.477815 0.0669858 5.19882e-19)
(0.568816 0.0824593 -2.97117e-19)
(0.659023 0.0991588 5.64441e-20)
(0.746398 0.116501 3.14724e-19)
(0.82921 0.133894 2.21741e-19)
(0.906107 0.150777 5.10701e-19)
(0.976139 0.166653 -2.04381e-19)
(1.03875 0.181109 -2.52318e-20)
(1.09377 0.193856 3.22064e-19)
(1.14119 0.204437 -6.92842e-20)
(1.18242 0.216674 2.73435e-22)
(-0.00970464 0.0057558 -2.68453e-19)
(-0.00471079 0.00954743 -9.86702e-19)
(0.0217746 0.0120421 2.32375e-19)
(0.0662299 0.0147915 -1.7691e-19)
(0.12598 0.0190771 -4.0843e-19)
(0.198577 0.025776 -2.91667e-19)
(0.281494 0.0352844 -1.80198e-19)
(0.372041 0.0476228 4.37614e-19)
(0.467375 0.0625163 -2.59903e-19)
(0.564603 0.0794629 -2.66203e-19)
(0.660935 0.0978087 -3.36698e-19)
(0.753852 0.116826 -5.55769e-20)
(0.841251 0.135789 -3.76861e-20)
(0.921531 0.154033 -7.78615e-19)
(0.993638 0.170996 3.77405e-19)
(1.05704 0.18625 -4.96342e-19)
(1.11165 0.199501 1.55815e-19)
(1.1578 0.210606 -1.18626e-18)
(1.19597 0.21932 3.57593e-19)
(1.22792 0.229087 4.52038e-19)
(-0.00738588 0.00439744 -6.74188e-20)
(0.00477382 0.00633132 4.813e-19)
(0.0405551 0.00850769 3.08618e-20)
(0.0958241 0.0121543 7.42607e-20)
(0.167318 0.0183528 -1.50985e-19)
(0.251917 0.027784 -2.49592e-21)
(0.346334 0.0405876 -3.88919e-21)
(0.447089 0.0564833 -9.11449e-20)
(0.55062 0.074879 3.23275e-19)
(0.653476 0.094973 1.2498e-19)
(0.752545 0.115863 5.67472e-19)
(0.845248 0.136653 -1.54711e-19)
(0.929672 0.156537 1.08029e-19)
(1.00461 0.17486 -1.40225e-20)
(1.06953 0.191147 2.99183e-19)
(1.12447 0.205109 1.83037e-19)
(1.16995 0.216626 4.40976e-19)
(1.20678 0.225726 -7.1215e-19)
(1.23594 0.232405 8.95988e-19)
(1.25929 0.239572 -2.83842e-19)
(-0.00432082 0.00298787 -6.27267e-19)
(0.0164513 0.00323489 -1.95856e-19)
(0.062873 0.00553255 1.53048e-19)
(0.130095 0.0106643 9.65004e-20)
(0.214111 0.0194179 9.89269e-20)
(0.310953 0.0321837 1.00277e-19)
(0.416419 0.0487481 -2.51012e-19)
(0.526166 0.0684458 -1.03795e-19)
(0.635944 0.090315 3.21992e-20)
(0.741893 0.113246 -3.07541e-19)
(0.84082 0.136125 -1.39124e-19)
(0.930377 0.15796 8.40711e-19)
(1.00913 0.177959 -2.16897e-19)
(1.07649 0.195574 -2.98974e-19)
(1.13261 0.210496 -1.41863e-19)
(1.17819 0.222633 9.82652e-20)
(1.21431 0.232065 1.19798e-19)
(1.24225 0.238989 -5.74149e-19)
(1.26332 0.243622 8.30792e-19)
(1.27937 0.248316 -7.19988e-19)
(-0.00041394 0.00157839 -7.09569e-20)
(0.0305103 0.000425669 2.03219e-20)
(0.0889016 0.00339121 -2.59461e-20)
(0.169076 0.0106744 3.78958e-19)
(0.266106 0.0226519 2.09011e-20)
(0.374998 0.0393098 1.39197e-19)
(0.490525 0.0599755 -2.89239e-19)
(0.607486 0.0835258 -1.05478e-20)
(0.721087 0.108607 4.01857e-19)
(0.827322 0.133836 5.60157e-20)
(0.923233 0.157969 -3.50133e-19)
(1.00702 0.180023 -3.07655e-20)
(1.07797 0.19933 -2.87658e-19)
(1.13629 0.215536 2.86443e-19)
(1.18287 0.22856 3.97793e-19)
(1.21905 0.238534 -4.38486e-20)
(1.24636 0.245734 -5.34265e-20)
(1.2664 0.250502 1.62886e-19)
(1.28066 0.253212 -5.23509e-19)
(1.29091 0.255733 4.61154e-19)
(0.00442245 0.000235023 7.12958e-20)
(0.0470993 -0.00189766 -4.59843e-19)
(0.118723 0.00238825 1.23057e-19)
(0.212641 0.0125479 -3.81829e-19)
(0.322817 0.0284075 1.31306e-19)
(0.443083 0.0494196 -4.87671e-19)
(0.567149 0.0743525 1.96732e-19)
(0.689077 0.101581 -6.26445e-20)
(0.803795 0.129384 -2.54936e-21)
(0.907493 0.156188 6.41083e-20)
(0.997802 0.180737 -2.33484e-19)
(1.07374 0.202183 -3.33362e-19)
(1.13551 0.22008 -6.83528e-20)
(1.18415 0.234337 -3.06853e-20)
(1.22124 0.245129 -7.78537e-20)
(1.24863 0.252805 -2.53605e-20)
(1.26817 0.257802 -7.59131e-20)
(1.28159 0.260569 -6.58142e-20)
(1.29044 0.261573 -1.95767e-19)
(1.29631 0.262292 3.10579e-19)
(0.0102634 -0.000961785 1.71407e-19)
(0.0663132 -0.00350897 -1.90374e-19)
(0.152309 0.00284825 4.09748e-19)
(0.260485 0.0166411 -1.76895e-19)
(0.383526 0.0369862 4.72802e-19)
(0.513992 0.0626703 6.76371e-21)
(0.644607 0.0918254 2.37495e-19)
(0.768943 0.122327 -6.36457e-20)
(0.882015 0.152165 2.65482e-19)
(0.980598 0.179707 1.91819e-20)
(1.06323 0.203824 6.32054e-19)
(1.12995 0.223917 -4.36273e-19)
(1.18191 0.239842 5.87984e-20)
(1.22094 0.251803 1.12187e-19)
(1.24919 0.260222 5.87366e-19)
(1.26883 0.265628 -2.1103e-19)
(1.28185 0.268578 -4.1826e-20)
(1.28999 0.269575 -2.21513e-19)
(1.29471 0.269128 -2.33093e-20)
(1.29741 0.26841 1.10821e-19)
(0.0171663 -0.00191845 -8.2245e-20)
(0.0881807 -0.00416103 2.37627e-19)
(0.189506 0.00510214 -2.43367e-19)
(0.312123 0.0232818 9.60939e-20)
(0.447299 0.0486149 -1.14957e-19)
(0.586331 0.0791034 4.21895e-19)
(0.721157 0.112209 -5.8796e-20)
(0.845226 0.145371 1.44775e-19)
(0.954065 0.176426 -8.52775e-20)
(1.0454 0.203836 -2.25929e-21)
(1.11892 0.226739 9.73851e-20)
(1.17575 0.244877 -7.54644e-20)
(1.21796 0.258451 1.95735e-19)
(1.24801 0.26795 -9.75849e-20)
(1.26843 0.274008 -4.29601e-19)
(1.28154 0.27729 4.27097e-19)
(1.28932 0.278413 -1.92405e-19)
(1.2934 0.277893 1.53642e-19)
(1.29508 0.276245 2.66355e-19)
(1.29557 0.274406 1.09425e-19)
(0.0251657 -0.00253037 2.04671e-19)
(0.112653 -0.00359436 -4.21793e-19)
(0.230024 0.00947085 8.06948e-20)
(0.366889 0.0327482 -5.85589e-20)
(0.513033 0.0634279 -2.36277e-19)
(0.658615 0.098642 -1.85451e-19)
(0.795125 0.135211 -3.64666e-20)
(0.916341 0.170262 -3.30662e-19)
(1.01873 0.201652 -2.01562e-20)
(1.10127 0.228102 -6.14504e-20)
(1.1649 0.249132 -1.66809e-19)
(1.21181 0.264884 -3.7067e-20)
(1.24482 0.275898 -1.27671e-19)
(1.26686 0.282919 -2.13063e-19)
(1.28063 0.286738 2.18177e-19)
(1.28844 0.288098 3.0056e-20)
(1.29216 0.287633 5.98966e-20)
(1.29322 0.285837 -2.51301e-19)
(1.29274 0.283207 -6.294e-21)
(1.2917 0.280495 -3.87666e-19)
(0.0342689 -0.00268501 2.24324e-19)
(0.139598 -0.00154793 1.49643e-19)
(0.27344 0.0162477 -2.41346e-19)
(0.423964 0.0452493 3.76882e-19)
(0.57951 0.0814555 -4.06505e-20)
(0.729363 0.121099 1.40815e-19)
(0.865018 0.160457 4.87621e-20)
(0.981068 0.196529 1.72761e-19)
(1.07529 0.227381 -1.35282e-19)
(1.14808 0.252144 4.5094e-20)
(1.20164 0.270796 -4.32804e-20)
(1.23909 0.283892 -1.90351e-20)
(1.26381 0.292284 3.62087e-20)
(1.27896 0.296915 -6.67146e-20)
(1.28728 0.298677 -2.04992e-20)
(1.29094 0.298337 -6.27318e-20)
(1.29159 0.296509 -1.01961e-19)
(1.29046 0.293641 6.58326e-20)
(1.28847 0.290207 -9.03165e-20)
(1.28641 0.286801 3.90289e-19)
(0.0444516 -0.00226571 -1.11998e-19)
(0.168791 0.00222881 -3.1735e-19)
(0.319202 0.0256809 -4.2253e-20)
(0.482406 0.0609104 -1.15209e-20)
(0.645465 0.102623 -1.42211e-19)
(0.797192 0.146196 -2.33532e-19)
(0.929609 0.187535 7.6449e-20)
(1.03858 0.223726 -1.05054e-19)
(1.12346 0.253236 -1.17723e-19)
(1.18613 0.275715 6.55919e-20)
(1.22993 0.29164 -4.95704e-20)
(1.25872 0.301953 -1.00317e-19)
(1.27621 0.307767 -3.38814e-21)
(1.28565 0.310159 6.79514e-20)
(1.28962 0.310065 -6.93331e-20)
(1.29009 0.308237 9.62101e-20)
(1.28849 0.305238 2.58845e-20)
(1.28581 0.301462 6.52238e-20)
(1.28279 0.297357 1.27132e-19)
(1.28006 0.293379 -1.08906e-19)
(0.0556556 -0.00115629 1.0697e-19)
(0.199923 0.00796326 -9.42789e-21)
(0.366646 0.0379586 4.80305e-20)
(0.541194 0.0797634 -6.51693e-20)
(0.709656 0.126757 5.37338e-21)
(0.860888 0.173589 2.26217e-19)
(0.987976 0.21602 -1.48603e-19)
(1.08844 0.251456 6.29678e-20)
(1.16334 0.278924 5.55346e-20)
(1.216 0.298667 -1.56077e-19)
(1.25071 0.311654 1.46695e-19)
(1.27182 0.319171 1.30361e-21)
(1.28321 0.32252 -1.03408e-19)
(1.28801 0.322853 1.24652e-19)
(1.28861 0.3211 -4.94836e-20)
(1.28671 0.317968 3.78417e-20)
(1.28349 0.313952 -4.23203e-20)
(1.27974 0.30939 -1.69323e-20)
(1.27603 0.304708 -1.48216e-19)
(1.27287 0.300232 4.54068e-20)
(0.067787 0.000753959 -3.60518e-20)
(0.232598 0.0158473 9.67909e-20)
(0.415021 0.0531957 1.50979e-20)
(0.599279 0.101745 6.33193e-20)
(0.770932 0.153602 3.02241e-20)
(0.919456 0.202893 1.41688e-20)
(1.03951 0.245504 8.03251e-20)
(1.13052 0.279381 -9.74399e-21)
(1.1953 0.304235 3.54328e-20)
(1.23842 0.320926 5.69382e-20)
(1.26492 0.330883 2.74842e-20)
(1.27943 0.335667 1.97363e-20)
(1.2858 0.336702 8.00427e-20)
(1.28694 0.335158 -7.74864e-20)
(1.28498 0.331924 1.66343e-20)
(1.28134 0.327637 -1.5586e-20)
(1.27698 0.322722 2.41064e-20)
(1.27252 0.31746 2.02015e-20)
(1.26838 0.312262 4.21994e-20)
(1.26494 0.307328 1.76893e-21)
(0.0807166 0.00356502 2.13735e-20)
(0.266351 0.026026 1.95239e-20)
(0.463518 0.0714263 -2.70334e-20)
(0.655632 0.126702 1.68935e-20)
(0.828274 0.182835 9.54774e-21)
(0.972142 0.233706 -2.97032e-20)
(1.08387 0.27561 9.80388e-21)
(1.16496 0.307225 1.77004e-21)
(1.21985 0.329021 1.6914e-20)
(1.25418 0.342469 -4.53631e-20)
(1.27347 0.349393 -1.42389e-22)
(1.28245 0.351556 1.25796e-20)
(1.28477 0.350442 -1.00248e-20)
(1.2831 0.347191 1.01426e-20)
(1.27924 0.342625 2.64806e-20)
(1.27437 0.3373 -1.5072e-20)
(1.26924 0.331569 4.19334e-21)
(1.26432 0.325665 1.65209e-20)
(1.25992 0.319989 -2.72375e-20)
(1.25633 0.314611 1.30749e-20)
(0.094283 0.00736103 5.95532e-20)
(0.300658 0.0385884 -3.23984e-20)
(0.511304 0.0925997 3.81586e-20)
(0.709285 0.154397 -2.83959e-20)
(0.880831 0.214084 -1.27401e-20)
(1.01843 0.265626 3.8521e-21)
(1.12099 0.305998 -1.25083e-20)
(1.19208 0.334763 4.49923e-20)
(1.23762 0.353183 -3.7475e-20)
(1.26406 0.363296 8.79529e-21)
(1.27718 0.367248 -6.5541e-21)
(1.28162 0.366931 -4.2724e-20)
(1.28078 0.363831 4.14508e-20)
(1.27698 0.359023 1.57899e-20)
(1.27176 0.353244 -1.57077e-20)
(1.26604 0.346968 3.68871e-20)
(1.26042 0.340477 -5.3892e-22)
(1.25523 0.333968 -3.58025e-20)
(1.25071 0.327833 2.65266e-20)
(1.24706 0.32201 8.37033e-21)
(0.108295 0.0122057 -2.0869e-20)
(0.334956 0.0535611 6.05202e-20)
(0.557556 0.116582 6.99448e-20)
(0.75937 0.184522 -3.30081e-20)
(0.927936 0.246949 5.74325e-20)
(1.05801 0.298262 9.09159e-20)
(1.15095 0.336366 -5.00934e-21)
(1.21231 0.361812 -1.56225e-20)
(1.24925 0.37665 7.71609e-20)
(1.26877 0.383416 3.76338e-20)
(1.27673 0.3845 -6.83553e-21)
(1.27754 0.381854 5.61339e-20)
(1.27428 0.376918 -6.02249e-20)
(1.26894 0.37068 9.37923e-20)
(1.26277 0.363781 -1.56491e-20)
(1.25652 0.356615 4.48605e-20)
(1.25061 0.349402 8.09608e-21)
(1.24531 0.342308 3.21201e-20)
(1.24075 0.335722 -3.05716e-20)
(1.23712 0.329445 7.37039e-21)
(0.122537 0.0181381 -3.24815e-20)
(0.368659 0.0709032 7.70428e-20)
(0.601484 0.143157 5.72511e-20)
(0.805137 0.216713 -8.68016e-21)
(0.969098 0.28101 8.92602e-20)
(1.09076 0.33124 -6.66975e-20)
(1.17399 0.366443 -5.24386e-21)
(1.22614 0.388219 5.89016e-20)
(1.25535 0.399363 1.87133e-20)
(1.26896 0.402831 2.61978e-20)
(1.2727 0.401178 -3.86948e-20)
(1.27069 0.396352 1.00948e-19)
(1.26564 0.389715 1.88649e-20)
(1.25923 0.382149 -8.94573e-20)
(1.25245 0.3742 1.30778e-19)
(1.24588 0.366188 -1.54339e-19)
(1.23986 0.358277 -7.08961e-20)
(1.23455 0.35061 1.17442e-20)
(1.23005 0.343573 6.88671e-20)
(1.2265 0.33683 -1.29891e-19)
(0.136776 0.0251693 -7.30647e-20)
(0.401183 0.0905065 -1.72393e-19)
(0.642365 0.172042 -1.49097e-19)
(0.845972 0.250563 -2.03053e-19)
(1.004 0.315844 -1.15252e-19)
(1.11672 0.364207 -2.39034e-19)
(1.19044 0.395988 3.03719e-20)