/*--------------------------------*- C++ -*----------------------------------*\
  =========                 |
  \\      /  F ield         | OpenFOAM: The Open Source CFD Toolbox
   \\    /   O peration     | Website:  https://openfoam.org
    \\  /    A nd           | Version:  6.0
     \\/     M anipulation  |
\*---------------------------------------------------------------------------*/
FoamFile
{
    version     2.0;
    format      ascii;
    class       volScalarField;
    location    "38";
    object      p;
}
// * * * * * * * * * * * * * * * * * * * * * * * * * * * * * * * * * * * * * //

dimensions      [0 2 -2 0 0 0 0];

internalField   nonuniform List<scalar> 
12500
(
-0.245986
-0.246749
-0.247275
-0.247676
-0.248018
-0.248309
-0.248559
-0.248775
-0.248965
-0.249135
-0.249288
-0.249428
-0.249558
-0.24968
-0.249796
-0.24991
-0.250022
-0.250136
-0.250253
-0.250375
-0.250508
-0.250654
-0.250776
-0.250855
-0.251249
-0.245836
-0.246606
-0.247135
-0.247537
-0.247879
-0.248168
-0.248414
-0.248626
-0.24881
-0.248973
-0.249119
-0.249249
-0.249369
-0.249479
-0.249583
-0.249683
-0.249781
-0.249879
-0.249979
-0.250084
-0.250199
-0.250325
-0.250426
-0.250482
-0.250856
-0.245752
-0.246528
-0.24706
-0.247461
-0.247801
-0.248086
-0.248325
-0.24853
-0.248705
-0.248858
-0.248992
-0.24911
-0.249215
-0.249311
-0.249398
-0.249481
-0.24956
-0.249639
-0.249719
-0.249803
-0.249896
-0.249999
-0.250077
-0.250107
-0.250461
-0.245737
-0.246519
-0.247052
-0.247451
-0.247786
-0.248064
-0.248295
-0.248488
-0.248652
-0.248791
-0.24891
-0.249011
-0.249099
-0.249175
-0.249243
-0.249304
-0.249361
-0.249416
-0.249472
-0.249531
-0.249599
-0.249678
-0.24973
-0.249731
-0.250063
-0.245793
-0.246581
-0.247113
-0.247508
-0.247836
-0.248104
-0.248324
-0.248504
-0.248652
-0.248773
-0.248873
-0.248954
-0.24902
-0.249073
-0.249116
-0.249152
-0.249182
-0.24921
-0.249238
-0.249268
-0.249308
-0.249358
-0.249382
-0.249352
-0.249662
-0.245923
-0.246715
-0.247245
-0.247634
-0.247953
-0.248209
-0.248414
-0.248577
-0.248706
-0.248807
-0.248884
-0.24894
-0.24898
-0.249006
-0.24902
-0.249025
-0.249024
-0.24902
-0.249015
-0.249012
-0.24902
-0.249039
-0.249031
-0.248967
-0.249255
-0.246129
-0.246924
-0.247452
-0.247832
-0.248139
-0.248381
-0.248567
-0.248709
-0.248816
-0.248892
-0.248942
-0.24897
-0.248979
-0.248973
-0.248953
-0.248922
-0.248885
-0.248843
-0.2488
-0.24876
-0.248731
-0.248714
-0.248671
-0.24857
-0.248835
-0.246415
-0.247212
-0.247734
-0.248105
-0.248397
-0.24862
-0.248785
-0.248904
-0.248984
-0.249031
-0.24905
-0.249045
-0.249019
-0.248974
-0.248915
-0.248844
-0.248764
-0.248678
-0.248592
-0.248508
-0.248436
-0.248379
-0.248297
-0.248155
-0.248397
-0.246784
-0.247581
-0.248096
-0.248454
-0.248729
-0.24893
-0.249071
-0.249162
-0.249211
-0.249225
-0.249209
-0.249166
-0.249099
-0.249012
-0.248908
-0.248789
-0.24866
-0.248524
-0.248387
-0.248253
-0.248131
-0.248028
-0.247901
-0.247713
-0.247932
-0.24724
-0.248034
-0.248541
-0.248883
-0.249137
-0.249314
-0.249426
-0.249485
-0.249501
-0.249478
-0.249422
-0.249336
-0.249224
-0.249088
-0.248932
-0.248759
-0.248574
-0.24838
-0.248183
-0.24799
-0.247812
-0.247654
-0.247476
-0.247236
-0.247431
-0.247787
-0.248577
-0.249071
-0.249394
-0.249624
-0.249773
-0.249853
-0.249878
-0.249855
-0.249791
-0.249691
-0.249558
-0.249395
-0.249205
-0.248991
-0.248757
-0.248507
-0.248247
-0.247981
-0.247719
-0.247473
-0.247251
-0.247012
-0.246711
-0.24688
-0.248431
-0.249213
-0.24969
-0.249991
-0.250194
-0.25031
-0.250355
-0.250341
-0.250276
-0.250168
-0.25002
-0.249835
-0.249617
-0.249368
-0.24909
-0.248787
-0.248464
-0.248126
-0.247781
-0.247438
-0.247112
-0.246814
-0.246501
-0.246129
-0.246268
-0.249177
-0.249945
-0.250403
-0.250677
-0.250848
-0.250929
-0.250934
-0.250878
-0.250768
-0.250611
-0.250412
-0.250173
-0.249895
-0.249581
-0.249234
-0.248855
-0.24845
-0.248025
-0.247588
-0.24715
-0.246728
-0.246337
-0.245934
-0.245475
-0.245579
-0.25003
-0.250779
-0.251212
-0.251455
-0.251589
-0.25163
-0.251593
-0.25149
-0.251333
-0.251125
-0.250872
-0.250575
-0.250235
-0.249853
-0.24943
-0.248969
-0.248474
-0.247952
-0.247409
-0.24686
-0.246324
-0.245821
-0.245306
-0.244738
-0.244796
-0.250995
-0.251719
-0.25212
-0.252327
-0.25242
-0.252417
-0.252332
-0.252181
-0.251973
-0.251712
-0.251403
-0.251046
-0.250641
-0.250188
-0.249687
-0.249139
-0.248547
-0.247916
-0.247255
-0.246577
-0.245907
-0.245265
-0.24461
-0.243903
-0.243897
-0.252079
-0.252768
-0.253132
-0.253297
-0.253343
-0.25329
-0.253154
-0.252951
-0.252688
-0.252373
-0.252007
-0.251589
-0.251119
-0.250594
-0.250013
-0.249374
-0.248679
-0.247932
-0.247139
-0.246315
-0.245485
-0.244676
-0.243845
-0.242956
-0.24286
-0.253285
-0.253931
-0.254251
-0.254366
-0.254359
-0.254251
-0.254059
-0.253799
-0.25348
-0.253108
-0.252683
-0.252204
-0.251669
-0.251073
-0.250412
-0.249682
-0.248881
-0.248011
-0.247076
-0.246088
-0.245074
-0.244064
-0.243012
-0.241886
-0.241657
-0.25462
-0.255213
-0.255478
-0.255537
-0.25547
-0.2553
-0.255046
-0.254724
-0.254345
-0.253913
-0.253429
-0.25289
-0.25229
-0.251625
-0.250885
-0.250065
-0.249159
-0.248163
-0.247078
-0.245912
-0.244689
-0.243442
-0.242117
-0.240681
-0.240256
-0.256087
-0.256616
-0.256819
-0.256812
-0.256676
-0.256436
-0.256113
-0.255724
-0.25528
-0.254785
-0.254239
-0.253638
-0.252975
-0.252242
-0.251428
-0.250522
-0.249513
-0.248392
-0.247154
-0.245799
-0.244347
-0.242826
-0.241173
-0.239336
-0.238624
-0.257693
-0.258146
-0.258276
-0.258194
-0.257979
-0.257659
-0.257259
-0.256795
-0.256279
-0.255716
-0.255105
-0.25444
-0.253714
-0.252915
-0.252029
-0.251041
-0.249935
-0.248695
-0.247307
-0.24576
-0.244064
-0.242239
-0.240198
-0.237855
-0.236726
-0.259441
-0.259807
-0.259853
-0.259684
-0.259379
-0.258969
-0.258481
-0.257933
-0.257337
-0.256698
-0.256016
-0.255283
-0.254492
-0.253627
-0.252672
-0.251608
-0.250414
-0.249065
-0.247536
-0.245804
-0.243863
-0.241716
-0.23924
-0.236276
-0.234562
-0.26134
-0.261606
-0.261556
-0.261288
-0.26088
-0.260367
-0.259778
-0.259134
-0.258448
-0.257724
-0.256963
-0.256156
-0.255295
-0.254363
-0.253342
-0.252209
-0.250938
-0.249497
-0.247851
-0.24596
-0.243798
-0.241343
-0.238428
-0.234762
-0.232244
-0.263397
-0.263552
-0.263392
-0.263012
-0.262486
-0.261856
-0.261153
-0.260399
-0.25961
-0.25879
-0.257939
-0.257051
-0.256114
-0.255114
-0.254031
-0.252839
-0.25151
-0.250006
-0.248282
-0.246281
-0.243951
-0.24124
-0.237916
-0.233459
-0.229756
-0.265624
-0.265653
-0.265371
-0.264862
-0.264204
-0.263441
-0.262608
-0.26173
-0.260824
-0.259895
-0.258944
-0.257966
-0.25695
-0.255882
-0.254744
-0.253514
-0.252161
-0.250651
-0.248931
-0.246929
-0.244553
-0.241685
-0.237926
-0.232299
-0.226543
-0.268034
-0.267924
-0.267503
-0.266851
-0.266043
-0.265131
-0.264152
-0.263135
-0.262097
-0.261047
-0.259986
-0.25891
-0.257812
-0.256682
-0.255507
-0.254272
-0.252963
-0.251562
-0.250043
-0.248365
-0.246468
-0.244216
-0.241048
-0.235572
-0.229103
-0.270644
-0.270379
-0.269803
-0.268991
-0.268017
-0.266939
-0.265799
-0.264628
-0.263445
-0.262262
-0.261081
-0.259902
-0.258722
-0.257536
-0.256343
-0.255144
-0.25395
-0.252787
-0.251702
-0.250789
-0.25022
-0.250277
-0.251373
-0.255269
-0.268395
-0.273476
-0.273038
-0.27229
-0.2713
-0.270143
-0.268882
-0.267566
-0.266227
-0.264888
-0.263562
-0.262254
-0.260969
-0.259707
-0.258472
-0.257272
-0.256128
-0.255071
-0.254163
-0.253499
-0.253238
-0.253632
-0.255058
-0.25803
-0.264024
-0.277746
-0.276554
-0.275922
-0.274984
-0.273799
-0.272441
-0.270982
-0.269475
-0.267957
-0.266452
-0.264975
-0.263537
-0.262143
-0.2608
-0.25952
-0.258321
-0.257235
-0.256314
-0.255636
-0.255321
-0.25554
-0.256542
-0.258661
-0.262279
-0.2682
-0.279616
-0.279904
-0.279056
-0.277907
-0.276509
-0.274934
-0.273263
-0.271554
-0.269846
-0.268168
-0.266536
-0.264963
-0.26346
-0.262037
-0.260711
-0.25951
-0.258472
-0.257657
-0.257152
-0.257072
-0.257574
-0.258859
-0.26117
-0.264739
-0.269922
-0.278893
-0.283557
-0.282466
-0.281085
-0.279456
-0.277649
-0.275754
-0.273832
-0.271927
-0.270069
-0.268279
-0.266569
-0.264954
-0.263447
-0.262069
-0.260849
-0.259831
-0.259072
-0.258652
-0.25867
-0.259247
-0.260522
-0.262643
-0.265719
-0.269836
-0.276423
-0.287541
-0.286178
-0.284544
-0.282667
-0.280614
-0.278482
-0.276339
-0.274231
-0.27219
-0.270236
-0.268386
-0.266653
-0.265052
-0.263605
-0.26234
-0.261295
-0.260524
-0.260088
-0.260062
-0.260528
-0.261566
-0.263248
-0.265601
-0.268571
-0.273043
-0.291888
-0.290221
-0.288311
-0.286168
-0.283856
-0.281478
-0.279107
-0.276791
-0.274561
-0.27244
-0.270442
-0.268579
-0.266867
-0.265322
-0.26397
-0.262842
-0.261977
-0.26142
-0.26122
-0.261421
-0.262061
-0.263158
-0.264694
-0.266552
-0.269242
-0.296625
-0.294619
-0.29241
-0.289987
-0.287403
-0.28477
-0.282165
-0.279635
-0.277212
-0.274914
-0.272755
-0.270744
-0.268892
-0.267211
-0.265719
-0.264438
-0.263394
-0.262615
-0.262126
-0.261946
-0.262083
-0.262525
-0.263234
-0.264079
-0.265332
-0.301778
-0.299398
-0.296867
-0.294148
-0.291282
-0.288387
-0.285541
-0.282791
-0.280164
-0.277676
-0.275336
-0.273148
-0.271117
-0.26925
-0.267555
-0.266046
-0.264737
-0.263641
-0.262769
-0.262124
-0.261696
-0.261463
-0.261385
-0.261336
-0.26146
-0.307368
-0.304577
-0.301702
-0.298674
-0.295516
-0.292352
-0.289258
-0.286278
-0.283433
-0.280735
-0.278184
-0.27578
-0.27352
-0.271405
-0.269436
-0.26762
-0.265962
-0.264468
-0.263139
-0.26197
-0.260949
-0.260052
-0.259246
-0.258421
-0.257665
-0.313412
-0.310173
-0.306935
-0.303585
-0.300127
-0.296685
-0.293334
-0.290109
-0.287026
-0.284087
-0.281286
-0.278615
-0.276065
-0.273632
-0.271313
-0.269111
-0.267027
-0.265063
-0.26322
-0.261493
-0.25987
-0.258335
-0.256865
-0.255368
-0.253916
-0.319918
-0.316196
-0.312576
-0.308896
-0.305129
-0.3014
-0.297778
-0.294289
-0.290938
-0.287717
-0.284613
-0.281613
-0.278703
-0.275876
-0.273129
-0.270464
-0.267885
-0.265395
-0.262998
-0.260692
-0.258473
-0.256332
-0.254256
-0.25217
-0.250149
-0.326887
-0.322652
-0.318635
-0.314615
-0.31053
-0.306503
-0.302592
-0.298809
-0.295149
-0.291594
-0.288125
-0.284722
-0.281373
-0.278073
-0.274821
-0.271624
-0.268491
-0.265431
-0.262454
-0.259563
-0.256761
-0.254048
-0.251415
-0.248804
-0.246295
-0.334313
-0.329536
-0.325108
-0.320742
-0.316331
-0.31199
-0.307763
-0.303648
-0.299627
-0.295673
-0.291763
-0.287877
-0.284008
-0.280154
-0.276325
-0.272536
-0.268803
-0.265143
-0.261571
-0.258098
-0.254732
-0.251476
-0.248329
-0.245238
-0.242293
-0.342176
-0.336835
-0.331988
-0.327269
-0.322521
-0.317844
-0.313266
-0.308769
-0.304322
-0.299893
-0.295458
-0.291003
-0.286529
-0.282047
-0.277578
-0.273147
-0.268781
-0.264502
-0.260333
-0.256289
-0.252379
-0.24861
-0.244982
-0.241448
-0.238099
-0.350446
-0.344523
-0.339253
-0.334176
-0.329076
-0.324034
-0.31906
-0.314118
-0.309168
-0.304177
-0.299126
-0.294015
-0.288857
-0.28368
-0.278519
-0.27341
-0.268389
-0.263486
-0.258726
-0.254125
-0.249695
-0.245441
-0.241362
-0.237412
-0.233684
-0.359081
-0.352566
-0.34687
-0.34143
-0.335958
-0.330514
-0.325086
-0.319624
-0.314083
-0.308436
-0.302677
-0.296824
-0.290911
-0.284982
-0.279089
-0.27328
-0.267596
-0.262073
-0.256735
-0.251598
-0.246673
-0.241961
-0.237457
-0.233116
-0.22903
-0.368022
-0.360913
-0.354793
-0.348982
-0.343113
-0.337218
-0.331268
-0.3252
-0.318971
-0.31257
-0.306012
-0.299339
-0.292609
-0.285887
-0.279237
-0.272717
-0.266373
-0.260242
-0.254346
-0.248699
-0.243304
-0.23816
-0.233259
-0.228548
-0.224124
-0.377196
-0.369498
-0.36296
-0.356767
-0.350467
-0.344064
-0.33751
-0.330739
-0.323722
-0.316469
-0.309028
-0.301468
-0.293874
-0.28633
-0.278912
-0.271684
-0.264695
-0.257976
-0.251546
-0.245414
-0.239577
-0.23403
-0.228756
-0.223698
-0.218958
-0.386515
-0.378241
-0.371291
-0.364703
-0.357931
-0.35095
-0.343701
-0.336125
-0.328217
-0.320022
-0.311623
-0.303124
-0.294634
-0.286254
-0.278071
-0.270149
-0.262534
-0.255253
-0.248319
-0.241731
-0.235481
-0.229557
-0.223937
-0.218555
-0.213524
-0.395874
-0.387045
-0.379692
-0.372689
-0.365394
-0.357755
-0.349713
-0.341228
-0.332331
-0.323111
-0.313695
-0.304219
-0.294818
-0.285606
-0.276671
-0.268078
-0.259866
-0.252054
-0.244646
-0.237633
-0.231
-0.224728
-0.218788
-0.213106
-0.207811
-0.405151
-0.395798
-0.388048
-0.380606
-0.372728
-0.364345
-0.355407
-0.34591
-0.335935
-0.325624
-0.315147
-0.304676
-0.294364
-0.284334
-0.274673
-0.26544
-0.256665
-0.248356
-0.240507
-0.233102
-0.226116
-0.219526
-0.213293
-0.207337
-0.201806
-0.414209
-0.404368
-0.396231
-0.388319
-0.379791
-0.37057
-0.360635
-0.350031
-0.338901
-0.327447
-0.315886
-0.304419
-0.293212
-0.282391
-0.272039
-0.262204
-0.252903
-0.244135
-0.235881
-0.228117
-0.22081
-0.213932
-0.207436
-0.201231
-0.195496
-0.422897
-0.412614
-0.404096
-0.395676
-0.386425
-0.376272
-0.365241
-0.353446
-0.341104
-0.328477
-0.315826
-0.303377
-0.291306
-0.279733
-0.268732
-0.258337
-0.248553
-0.239364
-0.230744
-0.222656
-0.215062
-0.207926
-0.201196
-0.194771
-0.188862
-0.431053
-0.420376
-0.411483
-0.402513
-0.392462
-0.381284
-0.36907
-0.356017
-0.342423
-0.328612
-0.314886
-0.301488
-0.288594
-0.276316
-0.264715
-0.253808
-0.243585
-0.234019
-0.22507
-0.216694
-0.208847
-0.201487
-0.194554
-0.187936
-0.181887
-0.438504
-0.427488
-0.418222
-0.408656
-0.397728
-0.385439
-0.371967
-0.357608
-0.342745
-0.327762
-0.312993
-0.298692
-0.285028
-0.272102
-0.259954
-0.248586
-0.237972
-0.228072
-0.218835
-0.21021
-0.202145
-0.194594
-0.187489
-0.180709
-0.174551
-0.445068
-0.433771
-0.424133
-0.413922
-0.402043
-0.388568
-0.373782
-0.358092
-0.341964
-0.325841
-0.310079
-0.294934
-0.280564
-0.26705
-0.254414
-0.242639
-0.231684
-0.221496
-0.212014
-0.203178
-0.194932
-0.187226
-0.179981
-0.173069
-0.166838
-0.450559
-0.439044
-0.429034
-0.418129
-0.405232
-0.39051
-0.374375
-0.35735
-0.339988
-0.322775
-0.306085
-0.290166
-0.27516
-0.261126
-0.248064
-0.235939
-0.224695
-0.214265
-0.204582
-0.195577
-0.187188
-0.179363
-0.172011
-0.164999
-0.158729
-0.454792
-0.443121
-0.432737
-0.421094
-0.407121
-0.39111
-0.373615
-0.355277
-0.336729
-0.318496
-0.300956
-0.284343
-0.268778
-0.254295
-0.240873
-0.228457
-0.216978
-0.206357
-0.196518
-0.187385
-0.178894
-0.170986
-0.163563
-0.156485
-0.150211
-0.457584
-0.445819
-0.435061
-0.422639
-0.407547
-0.390226
-0.371383
-0.351778
-0.332116
-0.312946
-0.294645
-0.277427
-0.261385
-0.246528
-0.232813
-0.220169
-0.20851
-0.197749
-0.187801
-0.178586
-0.170033
-0.162081
-0.154622
-0.147511
-0.141269
-0.458756
-0.446962
-0.435829
-0.422595
-0.406359
-0.387729
-0.367575
-0.346772
-0.326084
-0.306077
-0.287114
-0.269384
-0.252951
-0.237799
-0.223862
-0.211051
-0.199271
-0.188423
-0.178416
-0.169163
-0.160591
-0.152635
-0.145177
-0.138069
-0.131893
-0.458141
-0.44638
-0.434874
-0.420807
-0.403419
-0.383507
-0.362103
-0.340191
-0.318582
-0.297847
-0.278328
-0.260185
-0.243451
-0.228084
-0.213997
-0.201087
-0.189244
-0.178364
-0.168347
-0.159104
-0.150558
-0.142639
-0.13522
-0.128151
-0.122079
-0.455583
-0.443917
-0.432044
-0.417135
-0.398609
-0.377463
-0.354893
-0.33198
-0.309569
-0.288226
-0.268264
-0.24981
-0.232867
-0.217367
-0.203204
-0.19026
-0.178417
-0.167561
-0.157587
-0.148401
-0.139926
-0.132087
-0.124746
-0.117754
-0.111821
-0.450943
-0.439431
-0.427202
-0.411457
-0.391827
-0.369521
-0.345891
-0.322101
-0.299018
-0.277191
-0.256901
-0.238242
-0.221184
-0.205634
-0.191471
-0.178563
-0.166781
-0.156006
-0.146128
-0.137051
-0.128692
-0.120977
-0.113755
-0.106879
-0.101122
-0.444101
-0.4328
-0.420233
-0.403673
-0.382995
-0.359623
-0.335056
-0.310526
-0.286909
-0.264729
-0.244231
-0.225472
-0.208394
-0.19288
-0.178792
-0.165988
-0.154331
-0.143696
-0.13397
-0.125052
-0.116859
-0.109311
-0.102251
-0.0955302
-0.0899868
-0.434955
-0.423922
-0.411041
-0.393703
-0.372053
-0.34773
-0.322365
-0.297243
-0.273236
-0.250837
-0.230252
-0.211499
-0.194495
-0.179102
-0.165167
-0.152537
-0.141069
-0.130634
-0.121115
-0.112408
-0.10443
-0.0970971
-0.0902416
-0.0837182
-0.0784246
-0.423429
-0.412717
-0.399554
-0.381493
-0.358967
-0.333824
-0.307812
-0.282253
-0.258004
-0.235521
-0.214967
-0.196328
-0.179492
-0.164304
-0.150598
-0.138212
-0.126999
-0.116825
-0.10757
-0.0991281
-0.0914151
-0.0843449
-0.0777394
-0.0714567
-0.06645
-0.40947
-0.399131
-0.385727
-0.367011
-0.343723
-0.317906
-0.291407
-0.265571
-0.24123
-0.218796
-0.198393
-0.179971
-0.163397
-0.148497
-0.135095
-0.123024
-0.112131
-0.102279
-0.0933447
-0.0852228
-0.0778272
-0.0710687
-0.0647606
-0.0587638
-0.0540814
-0.39305
-0.383135
-0.369537
-0.350251
-0.326329
-0.299994
-0.273177
-0.247226
-0.22294
-0.200687
-0.180549
-0.162448
-0.146225
-0.131695
-0.118673
-0.106986
-0.0964773
-0.0870077
-0.0784535
-0.0707069
-0.0636819
-0.0572863
-0.0513251
-0.0456617
-0.041341
-0.374169
-0.364725
-0.350989
-0.331231
-0.306814
-0.280128
-0.253161
-0.227257
-0.203172
-0.181228
-0.161469
-0.143785
-0.128001
-0.113921
-0.101351
-0.0901151
-0.0800544
-0.0710284
-0.0629121
-0.0555972
-0.0489975
-0.043018
-0.0374563
-0.0321768
-0.0282552
-0.352849
-0.343922
-0.330113
-0.30999
-0.285229
-0.258362
-0.231417
-0.205718
-0.181976
-0.160464
-0.141189
-0.124017
-0.108756
-0.0951997
-0.0831515
-0.0724318
-0.0628811
-0.0543582
-0.0467379
-0.0399118
-0.0337936
-0.0282861
-0.0231803
-0.0183393
-0.0148569
-0.329141
-0.320776
-0.306962
-0.286594
-0.261645
-0.234769
-0.208016
-0.182677
-0.159412
-0.138449
-0.119759
-0.103186
-0.0885249
-0.0755636
-0.064102
-0.0539598
-0.0449778
-0.0370155
-0.029948
-0.0236678
-0.0180888
-0.0131122
-0.00852395
-0.00418349
-0.00118802
-0.30312
-0.295359
-0.281616
-0.261127
-0.236151
-0.209439
-0.183042
-0.15821
-0.13555
-0.115245
-0.0972338
-0.0813411
-0.0673519
-0.0550497
-0.0442338
-0.034725
-0.0263658
-0.0190175
-0.0125574
-0.00687931
-0.00189804
0.00248573
0.00648801
0.0102544
0.0127064
-0.274885
-0.267767
-0.254176
-0.233696
-0.208856
-0.182475
-0.156593
-0.132408
-0.110474
-0.0909274
-0.0736803
-0.0585411
-0.0452874
-0.0337007
-0.023582
-0.0147549
-0.00706553
-0.000379015
0.00542395
0.0104464
0.0147718
0.0184979
0.021837
0.0249432
0.0267974
-0.244558
-0.238121
-0.224763
-0.204426
-0.179882
-0.153998
-0.128782
-0.105375
-0.0842756
-0.0655803
-0.0491743
-0.0348531
-0.0223897
-0.0115661
-0.00218638
0.0059207
0.0129034
0.0188907
0.0239957
0.0283161
0.0319313
0.0349332
0.0375242
0.0398779
0.0410953
-0.212281
-0.20656
-0.193519
-0.173459
-0.149369
-0.124139
-0.09973
-0.0772231
-0.0570602
-0.0392989
-0.0238019
-0.0103545
0.00127307
0.0112963
0.0199063
0.0272675
0.0335206
0.0387858
0.0431672
0.0467534
0.0496156
0.051835
0.0535968
0.0551023
0.0556172
-0.178216
-0.173243
-0.160605
-0.140954
-0.11747
-0.093042
-0.0695735
-0.048078
-0.0289429
-0.0121895
0.00233919
0.0148661
0.0256216
0.0348178
0.0426394
0.0492428
0.0547588
0.0592964
0.0629461
0.0657821
0.067864
0.0692585
0.070113
0.0706157
0.0701909
-0.142543
-0.138346
-0.126195
-0.107082
-0.0843501
-0.0608636
-0.0384573
-0.0180747
-4.96381e-05
0.0156304
0.0291397
0.0407076
0.0505642
0.0589176
0.0659455
0.0717955
0.076587
0.0804136
0.0833451
0.0854317
0.0867162
0.0872374
0.0870289
0.0861307
0.0842498
-0.105455
-0.102061
-0.0904767
-0.0720262
-0.0501838
-0.0277683
-0.00653571
0.0126422
0.0294837
0.0440325
0.0564781
0.0670552
0.0759937
0.0834983
0.0897418
0.0948648
0.0989773
0.102157
0.104449
0.105872
0.106442
0.106121
0.104643
0.1017
0.0978613
-0.067159
-0.0645891
-0.0536511
-0.0359806
-0.0151551
0.00607124
0.0260294
0.0439203
0.0595126
0.0728782
0.0842205
0.0937784
0.101782
0.108436
0.11391
0.118346
0.121854
0.124513
0.126362
0.127424
0.127727
0.127145
0.124967
0.120482
0.115747
-0.0278745
-0.0261458
-0.0159267
0.000854186
0.0205461
0.0404766
0.0590705
0.0756016
0.089886
0.102022
0.112224
0.120734
0.127783
0.133574
0.138279
0.142045
0.144992
0.147216
0.148793
0.149816
0.150434
0.150603
0.14943
0.146389
0.148668
0.0121809
0.0130527
0.0224838
0.0382735
0.056726
0.075266
0.0924167
0.107524
0.12045
0.131314
0.14034
0.147774
0.153843
0.158749
0.162665
0.165737
0.168092
0.169832
0.171054
0.171878
0.172466
0.172796
0.172362
0.171586
0.176066
0.0527752
0.0527792
0.06136
0.0760676
0.0931876
0.110255
0.125896
0.139526
0.151049
0.160605
0.168425
0.174753
0.179815
0.18381
0.186909
0.189258
0.190982
0.192192
0.192988
0.193493
0.193845
0.194021
0.193659
0.193251
0.197215
0.093675
0.0928047
0.10048
0.114026
0.129734
0.14526
0.159336
0.171445
0.18153
0.189748
0.196334
0.201531
0.20556
0.208615
0.210863
0.212445
0.213486
0.214093
0.214364
0.214417
0.214375
0.214217
0.213643
0.213051
0.21607
0.134646
0.132899
0.139623
0.151938
0.166168
0.180099
0.192567
0.203123
0.211744
0.218602
0.223934
0.227979
0.230952
0.233041
0.234407
0.235185
0.235493
0.235433
0.235097
0.234588
0.234012
0.23334
0.232295
0.231252
0.233369
0.175454
0.172833
0.178566
0.189596
0.202297
0.214593
0.225424
0.234405
0.241546
0.247031
0.251095
0.253974
0.255875
0.256979
0.257438
0.257381
0.256919
0.256146
0.255144
0.254006
0.25282
0.251545
0.249927
0.248336
0.249583
0.215868
0.212379
0.217092
0.226795
0.23793
0.248565
0.257743
0.265142
0.270798
0.274904
0.277697
0.279404
0.280225
0.280332
0.27987
0.278959
0.277702
0.276184
0.274481
0.272672
0.270832
0.26891
0.266678
0.264511
0.264925
0.255659
0.251313
0.254987
0.263335
0.272882
0.281845
0.289369
0.295187
0.299363
0.302098
0.303625
0.304163
0.303905
0.303014
0.301625
0.299852
0.297789
0.295513
0.293091
0.290594
0.288084
0.285505
0.282654
0.279911
0.279527
0.294605
0.289418
0.292042
0.29902
0.306974
0.314268
0.320148
0.324401
0.327115
0.328494
0.328769
0.328151
0.326825
0.324943
0.322634
0.320001
0.317132
0.314097
0.310955
0.307769
0.30459
0.301361
0.297906
0.294598
0.293448
0.33249
0.326481
0.328056
0.333662
0.340031
0.345675
0.349936
0.352651
0.353929
0.353979
0.353026
0.351274
0.348898
0.346043
0.342827
0.339348
0.335685
0.3319
0.328049
0.324185
0.320351
0.316491
0.312451
0.308597
0.306713
0.369104
0.362298
0.362832
0.36708
0.371887
0.375913
0.378591
0.379807
0.379687
0.378444
0.376296
0.373441
0.370043
0.366239
0.362141
0.357836
0.353399
0.348884
0.344342
0.339819
0.335352
0.330885
0.326289
0.32191
0.319321
0.404246
0.396672
0.396186
0.3991
0.402382
0.404835
0.40598
0.405747
0.404277
0.401786
0.398485
0.394565
0.390181
0.385462
0.38051
0.375409
0.370224
0.365006
0.359798
0.354643
0.349569
0.344526
0.339403
0.334523
0.331259
0.437726
0.429417
0.427939
0.429558
0.431366
0.432304
0.431976
0.430353
0.427591
0.423905
0.419502
0.414562
0.409235
0.40364
0.397874
0.392011
0.386111
0.380222
0.37438
0.368622
0.362973
0.357386
0.351766
0.346411
0.342505
0.469362
0.460356
0.457923
0.458297
0.458694
0.458187
0.456459
0.453516
0.449528
0.444709
0.43926
0.433355
0.427133
0.420709
0.414169
0.407585
0.401009
0.394485
0.388044
0.381719
0.375529
0.369432
0.363349
0.357545
0.35303
0.498983
0.489322
0.485982
0.485172
0.484233
0.482362
0.479314
0.47513
0.46999
0.464107
0.457677
0.450865
0.443805
0.436602
0.429338
0.422077
0.414869
0.407749
0.400749
0.393893
0.387199
0.380628
0.374116
0.367894
0.362806
0.526431
0.516161
0.511967
0.510047
0.507857
0.504714
0.500438
0.4951
0.488889
0.482018
0.474677
0.467024
0.459185
0.451259
0.443323
0.435435
0.42764
0.41997
0.412451
0.405106
0.397947
0.390941
0.384034
0.377423
0.371802
0.551559
0.540729
0.535745
0.532796
0.529452
0.525137
0.519732
0.513334
0.506141
0.498364
0.490187
0.481763
0.47321
0.464622
0.456071
0.447609
0.439277
0.431103
0.423111
0.415319
0.407735
0.400333
0.393068
0.386101
0.379988
0.574234
0.562897
0.557192
0.553306
0.548913
0.543534
0.537106
0.52975
0.521669
0.513073
0.504142
0.495021
0.485824
0.476638
0.467531
0.458551
0.449735
0.441108
0.432689
0.424494
0.416528
0.40877
0.401185
0.393896
0.387337
0.594335
0.582547
0.576197
0.571473
0.566144
0.559819
0.552482
0.544274
0.535406
0.526083
0.516482
0.506743
0.496974
0.487259
0.477659
0.468219
0.458974
0.449945
0.441149
0.432597
0.424294
0.416223
0.408354
0.400779
0.393822
0.611756
0.599576
0.592662
0.587206
0.581062
0.573915
0.565788
0.556841
0.547288
0.537335
0.527153
0.516878
0.506614
0.496439
0.486412
0.476575
0.466958
0.457581
0.448458
0.439597
0.431003
0.42266
0.414547
0.406723
0.39942
0.626404
0.613894
0.606503
0.600428
0.593596
0.585754
0.576962
0.567393
0.557264
0.546781
0.53611
0.525384
0.514703
0.504141
0.493755
0.483583
0.473654
0.463984
0.454587
0.445467
0.436628
0.428058
0.419739
0.411707
0.404111
0.638203
0.625426
0.617648
0.611073
0.603684
0.595282
0.585953
0.575881
0.565288
0.554377
0.543313
0.532223
0.521206
0.510333
0.499658
0.489216
0.479035
0.46913
0.459511
0.450183
0.441147
0.432394
0.423911
0.415709
0.407876
0.647089
0.634111
0.62604
0.619086
0.611277
0.602452
0.592718
0.582268
0.571325
0.560091
0.548729
0.537366
0.526095
0.514988
0.504094
0.49345
0.483079
0.472997
0.463211
0.453726
0.444542
0.435652
0.427044
0.418715
0.410703
0.653016
0.639903
0.631636
0.624429
0.616339
0.60723
0.597226
0.586523
0.575346
0.563897
0.552337
0.54079
0.529351
0.518086
0.507047
0.496267
0.485769
0.475568
0.465672
0.456082
0.446798
0.437817
0.429126
0.420711
0.412579
0.655953
0.642772
0.634408
0.627074
0.618844
0.609595
0.599456
0.588627
0.577334
0.565777
0.554118
0.542481
0.530957
0.519615
0.508503
0.497655
0.487094
0.476834
0.466882
0.45724
0.447907
0.43888
0.430148
0.421691
0.413499
0.655883
0.642702
0.63434
0.627008
0.61878
0.609534
0.599397
0.588569
0.577278
0.565723
0.554066
0.54243
0.530907
0.519566
0.508455
0.497608
0.487048
0.476789
0.466838
0.457196
0.447864
0.438837
0.430106
0.421649
0.413459
0.652806
0.639694
0.631432
0.624231
0.616148
0.607047
0.597049
0.586351
0.57518
0.563736
0.55218
0.540637
0.529201
0.51794
0.506904
0.496126
0.485631
0.475433
0.465538
0.45595
0.446669
0.437689
0.429
0.420586
0.412458
0.646739
0.633762
0.625699
0.618756
0.610959
0.602145
0.592422
0.581982
0.571048
0.559822
0.548468
0.537111
0.525846
0.514744
0.503855
0.493215
0.482849
0.47277
0.462988
0.453507
0.444326
0.435439
0.426834
0.418507
0.4105
0.637711
0.624937
0.617169
0.61061
0.603238
0.594852
0.585538
0.575481
0.5649
0.554
0.542945
0.531865
0.520856
0.509991
0.499322
0.488887
0.478712
0.468813
0.459199
0.449876
0.440844
0.432096
0.423616
0.415418
0.407592
0.625771
0.613264
0.605886
0.599832
0.593021
0.585201
0.576429
0.566877
0.556764
0.546295
0.535637
0.524923
0.514252
0.503701
0.493323
0.48316
0.473238
0.463576
0.454185
0.445072
0.436238
0.427674
0.41936
0.411332
0.403745
0.61098
0.598804
0.591906
0.586475
0.580358
0.573237
0.565134
0.556209
0.546676
0.53674
0.526574
0.516314
0.506062
0.4959
0.485883
0.476057
0.466449
0.457081
0.447966
0.439113
0.430526
0.422191
0.414083
0.406265
0.398973
0.593415
0.581631
0.575301
0.570606
0.565309
0.559015
0.551707
0.543525
0.53468
0.525378
0.515796
0.506074
0.496321
0.48662
0.477033
0.467606
0.458372
0.449353
0.440567
0.432024
0.42373
0.415667
0.407805
0.400237
0.393293
0.573168
0.561836
0.556154
0.552302
0.547946
0.542603
0.536209
0.528883
0.52083
0.512258
0.503349
0.494247
0.485069
0.4759
0.466808
0.457842
0.449039
0.440424
0.432017
0.423832
0.415877
0.408129
0.400551
0.39327
0.386725
0.550346
0.539521
0.534564
0.531654
0.528352
0.524078
0.518711
0.512348
0.505186
0.497437
0.489285
0.480884
0.472352
0.463783
0.455249
0.446803
0.438486
0.430327
0.422348
0.414567
0.406995
0.399604
0.392349
0.385391
0.379294
0.525068
0.514805
0.510641
0.508764
0.506622
0.503525
0.499292
0.493993
0.487818
0.480978
0.473666
0.466038
0.458223
0.450318
0.442402
0.434532
0.426754
0.4191
0.411596
0.404265
0.397119
0.390125
0.38323
0.376629
0.371025
0.497469
0.487815
0.484508
0.483747
0.482861
0.481042
0.478043
0.473902
0.468801
0.462954
0.456555
0.449772
0.442738
0.435559
0.428317
0.421076
0.413887
0.406785
0.399801
0.392962
0.386282
0.379726
0.373226
0.367014
0.361946
0.467694
0.458696
0.4563
0.456728
0.457184
0.456734
0.455059
0.452164
0.44822
0.44344
0.438026
0.432153
0.42596
0.419562
0.413047
0.406485
0.399931
0.393426
0.387004
0.380696
0.374522
0.368441
0.362371
0.35658
0.352087
0.435903
0.427603
0.426164
0.427842
0.429715
0.430716
0.430447
0.428877
0.426163
0.42252
0.418155
0.413251
0.407955
0.40239
0.39665
0.390812
0.384936
0.379067
0.373246
0.367508
0.361877
0.356307
0.350702
0.34536
0.341478
0.402265
0.3947
0.394258
0.397236
0.400589
0.403111
0.40432
0.404144
0.402727
0.400282
0.397024
0.393142
0.388793
0.384105
0.379184
0.37411
0.36895
0.363756
0.35857
0.353436
0.348382
0.343358
0.33825
0.333385
0.330148
0.366962
0.360166
0.360748
0.365065
0.369949
0.374049
0.376797
0.378076
0.378013
0.376821
0.374719
0.371905
0.368545
0.364776
0.36071
0.356435
0.352025
0.347536
0.343018
0.338518
0.334072
0.329627
0.325048
0.320686
0.318125
0.330185
0.324187
0.325812
0.331494
0.337945
0.343671
0.348006
0.35079
0.352129
0.352234
0.351331
0.349624
0.347289
0.344471
0.34129
0.337844
0.33421
0.330453
0.326628
0.322789
0.318979
0.315141
0.311121
0.307285
0.305431
0.292134
0.286959
0.289638
0.296696
0.304739
0.312121
0.318082
0.322408
0.325187
0.326626
0.326954
0.326385
0.325103
0.323262
0.32099
0.318392
0.315555
0.31255
0.309436
0.306278
0.303124
0.29992
0.296485
0.293196
0.292079
0.25302
0.248688
0.252419
0.260853
0.270496
0.279552
0.287163
0.29306
0.297307
0.300106
0.301689
0.30228
0.302069
0.301222
0.299873
0.298137
0.296108
0.293864
0.291473
0.289005
0.286522
0.28397
0.281142
0.278419
0.27807
0.213058
0.209584
0.214358
0.224154
0.23539
0.246124
0.255396
0.262879
0.26861
0.272785
0.275639
0.277402
0.278274
0.278427
0.278008
0.277136
0.275916
0.274432
0.272761
0.270984
0.269174
0.26728
0.265072
0.262928
0.263379
0.172472
0.169867
0.175664
0.186792
0.1996
0.212003
0.222933
0.232005
0.239227
0.244783
0.248913
0.251851
0.253806
0.254959
0.255464
0.255449
0.255026
0.254289
0.253322
0.252217
0.251063
0.249818
0.248226
0.246659
0.247945
0.13149
0.129759
0.136551
0.14897
0.163314
0.177358
0.189931
0.200583
0.20929
0.216225
0.221626
0.225734
0.228764
0.230906
0.232319
0.233141
0.233491
0.233469
0.23317
0.232695
0.232153
0.231512
0.230496
0.229478
0.231637
0.0903427
0.0894899
0.0972372
0.110891
0.12672
0.142366
0.156553
0.168764
0.17894
0.187239
0.193899
0.199162
0.203252
0.206362
0.20866
0.210289
0.211373
0.21202
0.21233
0.212418
0.212411
0.212286
0.211742
0.211176
0.21424
0.0492654
0.0492879
0.0579435
0.0727646
0.0900121
0.107206
0.122965
0.136702
0.148321
0.157963
0.165861
0.172259
0.177384
0.181438
0.184589
0.186987