/*--------------------------------*- C++ -*----------------------------------*\
  =========                 |
  \\      /  F ield         | OpenFOAM: The Open Source CFD Toolbox
   \\    /   O peration     | Website:  https://openfoam.org
    \\  /    A nd           | Version:  6.0
     \\/     M anipulation  |
\*---------------------------------------------------------------------------*/
FoamFile
{
    version     2.0;
    format      ascii;
    class       volVectorField;
    location    "34";
    object      U;
}
// * * * * * * * * * * * * * * * * * * * * * * * * * * * * * * * * * * * * * //

dimensions      [0 1 -1 0 0 0 0];

internalField   nonuniform List<vector> 
8000
(
(-0.000435045 0.000623184 -3.29498e-21)
(-0.00238764 0.00153462 1.76126e-20)
(-0.00600395 0.00216443 -2.14196e-20)
(-0.0104475 0.0025772 1.631e-20)
(-0.0152773 0.00282389 7.94176e-21)
(-0.0202408 0.00294614 -2.38488e-20)
(-0.0251568 0.00297893 -2.10764e-21)
(-0.0299079 0.00295121 -7.4753e-22)
(-0.0344287 0.00288679 -1.23775e-20)
(-0.0386927 0.00280507 -6.70518e-21)
(-0.0427012 0.0027218 5.00095e-21)
(-0.0464761 0.00264958 1.90084e-20)
(-0.0500534 0.00259826 -1.42413e-21)
(-0.0534776 0.00257522 2.03606e-21)
(-0.0567992 0.00258561 -1.91432e-20)
(-0.0600778 0.00263234 1.17947e-20)
(-0.0633741 0.00271634 -1.68965e-20)
(-0.0666684 0.00283817 2.55685e-20)
(-0.0698398 0.00299909 -2.85986e-23)
(-0.073457 0.00318673 5.51672e-21)
(-0.000518333 0.00161615 1.09433e-20)
(-0.00259403 0.00401952 -5.59242e-20)
(-0.00629386 0.00570353 -3.86221e-20)
(-0.010788 0.00682657 -2.62262e-20)
(-0.0156406 0.00751439 -3.37378e-20)
(-0.0206033 0.00787111 7.42414e-21)
(-0.0254984 0.00798592 -3.89436e-20)
(-0.0302111 0.00793409 -8.74563e-21)
(-0.0346784 0.00777855 2.76477e-21)
(-0.0388752 0.00757172 2.9103e-20)
(-0.0428043 0.00735695 -3.17453e-20)
(-0.0464888 0.00716963 4.4157e-20)
(-0.0499657 0.00703808 -3.30655e-20)
(-0.0532809 0.00698418 -3.92083e-20)
(-0.0564862 0.00702371 -5.40262e-20)
(-0.0596431 0.00716636 3.45055e-20)
(-0.0628142 0.00741625 -1.11572e-20)
(-0.0659813 0.00777687 -4.06174e-20)
(-0.069023 0.00825396 3.84058e-20)
(-0.0725106 0.00881221 -2.84894e-20)
(-0.000679968 0.0025998 1.06985e-19)
(-0.00299602 0.00647905 5.53952e-20)
(-0.00686024 0.00920306 6.2297e-20)
(-0.0114548 0.0110235 5.18332e-21)
(-0.0163534 0.0121405 3.443e-20)
(-0.0213156 0.0127201 4.29678e-20)
(-0.0261706 0.012905 -7.80883e-20)
(-0.0308088 0.0128165 -4.13479e-20)
(-0.0351712 0.0125561 -5.38474e-20)
(-0.039236 0.0122091 5.74795e-20)
(-0.0430085 0.0118465 -4.39013e-20)
(-0.046514 0.0115266 -5.64813e-20)
(-0.0497918 0.011297 -2.05676e-20)
(-0.0528902 0.0111945 1.95365e-20)
(-0.0558637 0.0112466 -5.42844e-21)
(-0.0587769 0.0114706 7.83209e-21)
(-0.0616968 0.0118747 9.06267e-20)
(-0.0646085 0.0124661 -1.27431e-20)
(-0.0673895 0.013256 -9.21194e-20)
(-0.070616 0.014186 1.2134e-19)
(-0.000919306 0.00356884 3.72177e-20)
(-0.00359168 0.00889805 -5.25754e-20)
(-0.0076999 0.0126389 -1.31847e-20)
(-0.0124435 0.0151358 2.46539e-20)
(-0.0174104 0.0166624 7.00008e-20)
(-0.0223721 0.0174459 1.53253e-19)
(-0.0271677 0.0176818 1.49743e-19)
(-0.0316956 0.0175361 1.24391e-20)
(-0.0359029 0.0171487 9.1818e-20)
(-0.0397724 0.0166369 1.40534e-19)
(-0.0433129 0.0160993 -1.12285e-19)
(-0.046553 0.015618 1.66178e-19)
(-0.049535 0.0152601 -3.76239e-20)
(-0.0523108 0.0150789 9.49421e-21)
(-0.0549387 0.015115 3.92888e-20)
(-0.0574882 0.0153949 5.22071e-20)
(-0.0600324 0.0159324 -8.21688e-20)
(-0.0625619 0.0167399 -6.85682e-20)
(-0.0649531 0.0178358 -1.21322e-19)
(-0.0677903 0.0191387 1.76515e-19)
(-0.00123545 0.00451837 -1.94469e-20)
(-0.00437801 0.0112621 -1.99036e-19)
(-0.00880765 0.015988 -5.88689e-20)
(-0.0137468 0.0191326 -1.43455e-19)
(-0.0188023 0.0210424 5.42262e-20)
(-0.0237621 0.0220046 -8.55175e-20)
(-0.0284785 0.0222661 2.94087e-20)
(-0.0328607 0.0220365 -1.81114e-19)
(-0.0368637 0.0214923 9.55452e-20)
(-0.0404763 0.0207828 -1.13935e-19)
(-0.0437121 0.0200337 -1.01319e-19)
(-0.0466032 0.0193509 -1.1344e-19)
(-0.0491959 0.0188224 1.02968e-19)
(-0.051546 0.0185196 -9.24473e-20)
(-0.053717 0.0184982 1.28726e-19)
(-0.0557849 0.0187964 3.72014e-20)
(-0.0578307 0.0194361 9.2079e-20)
(-0.059853 0.0204372 4.03878e-20)
(-0.0617283 0.0218282 -1.59993e-19)
(-0.0640524 0.023505 2.60514e-19)
(-0.00162725 0.00544388 8.57042e-20)
(-0.00535075 0.0135575 6.59924e-21)
(-0.0101756 0.0192283 3.53068e-20)
(-0.015353 0.0229849 1.23199e-19)
(-0.0205143 0.0252458 -1.88615e-20)
(-0.025468 0.0263567 2.00055e-19)
(-0.0300836 0.0266141 8.87883e-20)
(-0.0342839 0.026269 7.46412e-21)
(-0.0380339 0.0255333 2.28295e-19)
(-0.0413297 0.0245865 7.47978e-20)
(-0.0441902 0.0235811 3.54823e-20)
(-0.0466518 0.022647 1.12613e-19)
(-0.0487648 0.021894 1.03219e-19)
(-0.0505896 0.0214136 1.88429e-19)
(-0.0521954 0.0212793 -1.6842e-19)
(-0.0536658 0.0215447 2.38064e-19)
(-0.0550925 0.0222431 3.11493e-21)
(-0.0564845 0.0234058 -3.04234e-19)
(-0.0577199 0.0250755 3.9437e-19)
(-0.0594121 0.0271265 1.63639e-19)
(-0.0020932 0.00634108 -5.0508e-20)
(-0.00650391 0.0157708 -9.16724e-20)
(-0.0117923 0.0223386 -1.90784e-19)
(-0.0172448 0.0266654 -5.65515e-21)
(-0.0225233 0.029241 3.25528e-20)
(-0.0274618 0.0304676 -2.43618e-19)
(-0.0319513 0.0306888 -1.80731e-19)
(-0.0359309 0.0301948 -2.58543e-20)
(-0.0393779 0.0292305 -2.28593e-19)
(-0.042297 0.0280034 -1.58261e-19)
(-0.0447131 0.0266917 -4.61217e-20)
(-0.0466669 0.0254488 -1.48506e-19)
(-0.0482127 0.0244072 -2.42168e-21)
(-0.0494153 0.0236804 -1.97205e-19)
(-0.05035 0.0233635 8.29522e-20)
(-0.0511092 0.0235295 -9.46402e-20)
(-0.0517971 0.0242284 7.24943e-20)
(-0.0524364 0.0255084 -9.22886e-20)
(-0.0529095 0.027433 -2.63592e-19)
(-0.0538554 0.0298571 -8.01014e-20)
(-0.00263132 0.00720553 -1.85786e-20)
(-0.00782917 0.0178883 -2.01814e-20)
(-0.0136412 0.0252977 1.59954e-19)
(-0.0193971 0.030148 -2.60291e-19)
(-0.0247955 0.0329989 3.81855e-20)
(-0.0297017 0.0343073 -1.50357e-19)
(-0.0340324 0.0344613 7.10538e-20)
(-0.0377464 0.0337868 3.19349e-19)
(-0.040836 0.0325581 -2.04905e-20)
(-0.0433156 0.0310086 -2.3822e-19)
(-0.0452168 0.0293394 4.32863e-20)
(-0.0465847 0.0277264 8.39341e-21)
(-0.0474768 0.0263249 -4.89038e-20)
(-0.0479619 0.0252724 4.94822e-21)
(-0.048121 0.0246888 4.29653e-19)
(-0.0480558 0.0246722 -6.11748e-20)
(-0.0478848 0.0252961 -1.19346e-19)
(-0.0476475 0.0266337 -2.14086e-19)
(-0.0472352 0.0287788 2.1838e-19)
(-0.047323 0.0315714 9.43004e-20)
(-0.00323887 0.00803226 9.38507e-20)
(-0.00931511 0.0198952 -1.2278e-19)
(-0.0156997 0.0280836 1.73595e-19)
(-0.0217748 0.0334063 1.74768e-19)
(-0.0272832 0.0364922 1.61112e-19)
(-0.0321274 0.0378504 3.26704e-19)
(-0.0362546 0.03791 2.11262e-19)
(-0.0396474 0.037029 -4.53959e-19)
(-0.0423153 0.0355073 2.32157e-19)
(-0.0442846 0.0335997 1.82165e-19)
(-0.0455942 0.0315271 -2.58837e-21)
(-0.0462935 0.0294853 2.03905e-19)
(-0.0464426 0.0276512 1.58964e-19)
(-0.0461129 0.0261872 -8.64727e-20)
(-0.0453904 0.0252412 2.92198e-19)
(-0.0443853 0.0249424 -3.62216e-19)
(-0.0432321 0.0253964 1.44988e-19)
(-0.04199 0.0267124 1.86435e-19)
(-0.0405645 0.0290289 -4.34547e-20)
(-0.0396825 0.032179 3.75213e-19)
(-0.00391199 0.00881526 1.88547e-19)
(-0.0109463 0.0217747 9.7859e-21)
(-0.0179375 0.0306723 -6.76838e-20)
(-0.0243309 0.0364129 -7.15043e-20)
(-0.0299217 0.0396938 -3.31143e-19)
(-0.0346559 0.0410739 4.68952e-20)
(-0.0385166 0.0410196 1.32856e-19)
(-0.0415144 0.0399168 -6.39041e-20)
(-0.0436792 0.0380862 5.27119e-20)
(-0.0450514 0.0357991 -1.3978e-20)
(-0.0456785 0.0332912 -6.88479e-20)
(-0.0456142 0.0307738 6.5366e-20)
(-0.0449208 0.0284427 -2.84171e-19)
(-0.043671 0.0264835 2.72425e-19)
(-0.0419534 0.0250744 -2.35969e-19)
(-0.0398863 0.024381 7.2889e-20)
(-0.0376198 0.0245507 1.65869e-19)
(-0.0352355 0.0257436 -3.45203e-20)
(-0.0326589 0.0281626 -1.14735e-19)
(-0.0306901 0.0316483 -7.81556e-20)
(-0.00464523 0.00954707 -2.34864e-19)
(-0.0127021 0.023507 -1.54811e-20)
(-0.0203148 0.0330364 4.94701e-20)
(-0.0270041 0.0391374 1.27224e-19)
(-0.0326262 0.0425746 -1.79607e-19)
(-0.0371774 0.0439547 -1.56736e-19)
(-0.0406822 0.0437779 3.65824e-19)
(-0.0431838 0.0424535 -2.02149e-19)
(-0.0447363 0.0403177 -1.30394e-19)
(-0.045397 0.0376526 -1.87086e-19)
(-0.045224 0.0347025 1.23846e-19)
(-0.0442769 0.0316881 -3.35292e-21)
(-0.0426196 0.0288179 -2.31266e-19)
(-0.040325 0.0262971 -3.78308e-19)
(-0.0374826 0.0243326 2.88214e-19)
(-0.034216 0.0231296 -2.33534e-19)
(-0.0306903 0.0228866 3.31102e-19)
(-0.0270105 0.0238319 -9.27849e-20)
(-0.0231274 0.0262606 1.94984e-19)
(-0.0199424 0.0300431 -6.62866e-19)
(-0.00543122 0.0102186 -4.7566e-19)
(-0.0145563 0.0250689 3.11954e-19)
(-0.0227817 0.0351443 4.2425e-20)
(-0.0297175 0.0415446 8.20982e-21)
(-0.0352898 0.0451014 -1.92409e-19)
(-0.0395519 0.0464668 2.82949e-19)
(-0.0425752 0.046172 3.08746e-20)
(-0.0444404 0.0446455 -5.80133e-20)
(-0.04523 0.0422341 -1.86221e-19)
(-0.0450219 0.0392248 2.01285e-19)
(-0.0438881 0.0358636 5.10283e-19)
(-0.0418963 0.0323725 -1.1273e-19)
(-0.0391138 0.028964 2.54715e-19)
(-0.0356137 0.0258547 -3.0087e-19)
(-0.0314847 0.0232738 -2.88489e-19)
(-0.0268532 0.0214644 1.73464e-19)
(-0.021897 0.0206815 2.86604e-19)
(-0.0167432 0.0212394 -9.28605e-19)
(-0.0113707 0.0235598 1.09056e-19)
(-0.00681739 0.0275781 1.4838e-19)
(-0.00626025 0.0108192 3.52227e-19)
(-0.0164757 0.0264339 1.15926e-19)
(-0.0252769 0.0369595 6.03888e-19)
(-0.0323774 0.0435937 3.10915e-20)
(-0.0377819 0.047234 -6.71623e-20)
(-0.0416069 0.0485772 -3.19858e-19)
(-0.0439763 0.0481826 2.72008e-19)
(-0.0450127 0.0464952 4.88016e-19)
(-0.0448313 0.0438684 3.25093e-19)
(-0.0435351 0.0405891 2.34706e-19)
(-0.0412145 0.0368983 2.02319e-19)
(-0.0379497 0.0330104 -3.63279e-19)
(-0.0338153 0.0291317 -1.1378e-19)
(-0.0288873 0.0254771 -8.37955e-20)
(-0.0232544 0.0222856 8.9798e-19)
(-0.0170445 0.0198276 -3.08377e-21)
(-0.0104453 0.018411 -2.23791e-19)
(-0.00360194 0.0184478 -7.04612e-20)
(0.00348276 0.0205262 6.42011e-19)
(0.00959337 0.0246942 8.37721e-20)
(-0.00712023 0.0113371 -1.73351e-20)
(-0.0184207 0.0275722 -3.33331e-19)
(-0.0277278 0.0384409 -4.96e-19)
(-0.0348729 0.0452372 -1.38051e-19)
(-0.0399475 0.0489243 7.62409e-20)
(-0.0431369 0.0502424 1.64188e-20)
(-0.0446218 0.0497787 4.35297e-19)
(-0.0445704 0.0479925 -5.3985e-19)
(-0.0431348 0.0452424 -2.05342e-19)
(-0.0404478 0.0418118 -4.13777e-19)
(-0.0366236 0.0379323 -3.52384e-19)
(-0.0317613 0.033804 -3.11996e-19)
(-0.0259503 0.0296154 7.8008e-20)
(-0.0192764 0.025565 -1.01271e-19)
(-0.0118338 0.0218821 4.33894e-19)
(-0.00375434 0.0188425 -2.37835e-19)
(0.00476472 0.0167881 -7.45502e-19)
(0.0135659 0.0162241 -1.50302e-19)
(0.0226381 0.0179403 3.67859e-19)
(0.0305508 0.0221559 -3.21187e-19)
(-0.00799675 0.0117598 -5.61968e-20)
(-0.0203445 0.0284527 4.07832e-19)
(-0.0300502 0.0395443 -5.20198e-19)
(-0.037076 0.0464223 1.20216e-19)
(-0.0416078 0.0501155 -2.477e-19)
(-0.0439038 0.0514078 5.51792e-19)
(-0.0442043 0.0509139 -3.94339e-19)
(-0.0427262 0.0491082 4.51108e-19)
(-0.0396611 0.0463547 -4.27735e-19)
(-0.0351754 0.0429343 1.82454e-19)
(-0.0294132 0.0390684 -8.85625e-20)
(-0.022501 0.0349397 -2.22298e-19)
(-0.0145531 0.0307126 -2.74613e-19)
(-0.00567783 0.0265551 2.73624e-19)
(0.0040121 0.0226647 -2.29128e-19)
(0.0143699 0.0192913 -5.0096e-19)
(0.0251819 0.0167708 5.21549e-19)
(0.0362809 0.0156679 -6.65253e-19)
(0.0476795 0.0169846 2.99266e-19)
(0.0577165 0.0211658 8.49269e-21)
(-0.00887343 0.0120758 -5.09899e-19)
(-0.0221942 0.0290444 -5.50714e-19)
(-0.0321485 0.040224 6.34414e-20)
(-0.0388418 0.0470932 -5.31249e-19)
(-0.0425601 0.0507453 -4.73341e-20)
(-0.0436375 0.0520088 -3.90757e-19)
(-0.0423754 0.0515267 -8.96499e-20)
(-0.0390397 0.0497906 -2.61987e-19)
(-0.0338628 0.0471732 2.28803e-21)
(-0.0270473 0.0439572 -1.14623e-19)
(-0.0187721 0.0403588 8.09559e-21)
(-0.00919934 0.0365476 -3.30137e-19)
(0.00151844 0.0326648 3.6377e-19)
(0.0132325 0.0288439 -5.16098e-19)
(0.0257897 0.0252344 1.82825e-19)
(0.0390047 0.0220273 6.93242e-21)
(0.0526243 0.0194968 -2.91135e-19)
(0.0664595 0.0181916 7.21932e-19)
(0.080593 0.0192812 -1.72422e-19)
(0.0931764 0.0234494 -1.1244e-19)
(-0.00973237 0.0122747 5.72553e-19)
(-0.0239102 0.0293185 3.09218e-19)
(-0.0339155 0.0404372 2.87661e-19)
(-0.0400074 0.0471958 4.29441e-20)
(-0.0425774 0.0507515 3.89055e-19)
(-0.0420366 0.0519779 5.60751e-19)
(-0.0387472 0.0515476 4.59164e-19)
(-0.0330227 0.0499721 4.10242e-20)
(-0.0251354 0.0476379 3.36144e-19)
(-0.0153241 0.0448369 5.19355e-19)
(-0.00380542 0.0417901 -1.34713e-19)
(0.00921601 0.0386661 2.26052e-19)
(0.0235368 0.0355962 1.82528e-19)
(0.0389476 0.0326899 1.85659e-19)
(0.0552254 0.0300518 1.09786e-18)
(0.0721094 0.0277985 -4.1148e-19)
(0.0892612 0.0260889 -2.51339e-20)
(0.106421 0.0253416 4.77437e-19)
(0.12378 0.0267625 -2.708e-19)
(0.139461 0.0312029 1.34486e-19)
(-0.0105544 0.0123486 -4.632e-19)
(-0.0254268 0.0292514 2.97796e-20)
(-0.0352309 0.0401474 -3.71009e-19)
(-0.0403902 0.0466839 -4.82887e-20)
(-0.0414057 0.0500809 2.71603e-19)
(-0.0387659 0.0512566 -8.08377e-19)
(-0.0328919 0.0509137 -5.01254e-22)
(-0.0241424 0.0495861 3.7611e-19)
(-0.0128262 0.0476791 3.53356e-19)
(0.00078321 0.0455018 -1.55556e-19)
(0.0164317 0.0432928 5.12611e-20)
(0.0338682 0.0412373 1.18929e-19)
(0.0528292 0.0394809 -5.63221e-20)
(0.073026 0.0381391 -6.31335e-19)
(0.0941337 0.0373057 1.59841e-19)
(0.115766 0.0370513 4.3994e-19)
(0.137428 0.0374137 -6.26963e-19)
(0.15868 0.0385834 3.05854e-19)
(0.179796 0.041626 8.21783e-20)
(0.199225 0.0473771 4.18224e-19)
(-0.0113192 0.0122923 -6.8524e-20)
(-0.0266705 0.0288255 -3.24772e-19)
(-0.0359592 0.0393289 1.49393e-19)
(-0.0397839 0.0455273 6.14326e-22)
(-0.0387595 0.0487011 -6.51391e-19)
(-0.0334519 0.0498116 1.01632e-19)
(-0.024339 0.0495908 -1.92814e-20)
(-0.0118215 0.0485952 1.31458e-19)
(0.00375829 0.0472514 -6.01658e-19)
(0.0220952 0.0458916 -4.20973e-20)
(0.0428996 0.0447817 -1.41224e-19)
(0.0658756 0.0441412 1.25727e-19)
(0.0906984 0.0441581 4.24146e-19)
(0.116992 0.0450001 -6.55787e-20)
(0.144307 0.0468222 2.53778e-20)
(0.172074 0.0497544 1.67064e-19)
(0.199522 0.0538499 -4.11899e-20)
(0.225803 0.0592151 3.3751e-19)
(0.250979 0.066893 -1.95474e-19)
(0.274193 0.0773422 -3.10408e-19)
(-0.0120043 0.012103 6.34819e-20)
(-0.0275579 0.0280313 1.54086e-20)
(-0.0359452 0.0379708 1.3028e-19)
(-0.0379532 0.0437189 3.1909e-19)
(-0.0343154 0.0466125 1.79026e-19)
(-0.0256763 0.047653 1.86786e-20)
(-0.0125702 0.0475981 -2.13725e-19)
(0.00456141 0.0470244 5.47971e-20)
(0.0253428 0.0463771 2.88009e-19)
(0.049438 0.0460098 -4.88005e-19)
(0.0765243 0.0462153 3.68179e-19)
(0.106269 0.0472503 -2.77359e-19)
(0.138306 0.0493571 2.35349e-19)
(0.17221 0.0527858 -5.07605e-19)
(0.20747 0.0578186 5.58533e-19)
(0.243419 0.0647826 -5.97503e-19)
(0.279094 0.0740404 -1.55517e-19)
(0.313168 0.0862299 4.89251e-19)
(0.344539 0.103275 -1.64831e-19)
(0.370485 0.124815 7.49817e-20)
(-0.0125838 0.0117799 -4.81093e-20)
(-0.0279924 0.0268674 4.53842e-19)
(-0.0350098 0.0360801 -1.93482e-21)
(-0.0346278 0.0412813 -2.81681e-19)
(-0.0277061 0.0438592 -1.89461e-19)
(-0.0149716 0.0448502 3.47029e-19)
(0.00298177 0.0450324 -1.37451e-19)
(0.0256651 0.0449948 -1.73228e-20)
(0.0526608 0.0451922 2.86234e-19)
(0.0835907 0.0459864 -3.55625e-19)
(0.118089 0.0476786 3.89502e-20)
(0.155781 0.0505356 -4.62127e-19)
(0.196274 0.0548157 2.43361e-19)
(0.23915 0.0607985 -6.9653e-19)
(0.283975 0.0688248 1.11026e-18)
(0.330311 0.0793498 -2.03196e-19)
(0.377754 0.093068 2.13431e-19)
(0.426241 0.111475 -5.53943e-19)
(0.476311 0.137558 2.10102e-21)
(0.520401 0.166407 6.40511e-19)
(-0.0130267 0.0113228 -1.4587e-19)
(-0.0278605 0.0253397 1.26072e-19)
(-0.0329448 0.0336827 -4.63842e-19)
(-0.0294982 0.0382709 6.85955e-19)
(-0.0185173 0.0405361 -4.95171e-19)
(-0.000820042 0.0415438 2.55139e-20)
(0.0229272 0.0420839 -5.33681e-19)
(0.0521705 0.0427472 3.815e-19)
(0.086424 0.0439834 -5.45413e-20)
(0.125233 0.0461406 -3.36516e-19)
(0.168144 0.0494962 -1.96296e-19)
(0.214692 0.0542784 2.0739e-19)
(0.264395 0.0606859 1.37208e-19)
(0.316767 0.0689052 -6.07662e-19)
(0.371346 0.0791272 2.19255e-19)
(0.427741 0.0915596 -3.24117e-19)
(0.485694 0.10645 3.92097e-20)
(0.545327 0.124299 -2.77365e-19)
(0.607584 0.146276 1.16658e-19)
(0.665192 0.167805 -4.20552e-19)
(-0.0132939 0.0107317 4.1522e-19)
(-0.0270276 0.0234617 -2.51318e-19)
(-0.0295102 0.0308246 2.07085e-19)
(-0.0222144 0.0347793 -2.61413e-19)
(-0.00629028 0.0367917 4.38312e-19)
(0.0173359 0.0379477 -7.74842e-21)
(0.0479012 0.0390386 -5.33307e-20)
(0.0847508 0.0406437 -3.95301e-20)
(0.127283 0.0431888 2.43252e-19)
(0.174905 0.0469841 4.13467e-19)
(0.227004 0.0522509 -2.44272e-19)
(0.282937 0.0591392 2.37406e-19)
(0.342035 0.0677409 4.33838e-19)
(0.403624 0.0780987 -3.04231e-19)
(0.467059 0.0902096 -6.19313e-19)
(0.531766 0.104019 1.13373e-18)
(0.597286 0.119401 -2.02327e-19)
(0.663362 0.136209 -6.62046e-20)
(0.730301 0.1548 7.19177e-19)
(0.792649 0.173834 -1.50154e-19)
(-0.0133365 0.0100065 -6.76427e-19)
(-0.0253359 0.0212543 -4.503e-19)
(-0.0244336 0.0275717 -1.72859e-19)
(-0.0123905 0.0309334 3.33383e-19)
(0.0094655 0.0328252 -7.52377e-19)
(0.0400708 0.0343427 3.8944e-19)
(0.0785241 0.0362643 4.93306e-20)
(0.124013 0.0391399 4.98006e-20)
(0.175747 0.0433481 -5.09718e-19)
(0.232911 0.0491325 -1.79991e-19)
(0.29464 0.0566252 -3.17214e-19)
(0.360016 0.0658633 3.06335e-19)
(0.428089 0.0768014 8.70957e-20)
(0.497908 0.0893203 1.71078e-20)
(0.568561 0.103232 4.00886e-19)
(0.639218 0.118276 -4.05582e-19)
(0.709164 0.134112 -1.70452e-20)
(0.777824 0.15033 9.56538e-21)
(0.844945 0.166812 5.48722e-20)
(0.907325 0.184843 3.20908e-19)
(-0.0130944 0.00914758 2.15456e-19)
(-0.0226039 0.018747 5.54958e-19)
(-0.0174145 0.0240104 4.45364e-19)
(0.000383978 0.0268935 -1.53437e-19)
(0.0292504 0.028882 5.33358e-19)
(0.0679374 0.031065 -4.49061e-20)
(0.115341 0.0341883 -6.32787e-20)
(0.170411 0.0387463 3.76464e-20)
(0.23207 0.0450392 5.14999e-19)
(0.299179 0.0532077 3.02483e-19)
(0.370518 0.0632571 8.82852e-20)
(0.444811 0.0750774 5.37238e-21)
(0.520761 0.0884614 -5.86694e-19)
(0.597108 0.103122 5.09691e-19)
(0.672679 0.118706 8.78129e-20)
(0.746434 0.134809 -1.44119e-19)
(0.817497 0.150974 -6.2892e-19)
(0.885176 0.166729 -5.40918e-20)
(0.948955 0.181625 2.50009e-19)
(1.00776 0.198698 -5.17705e-20)
(-0.0124962 0.00815717 -5.47308e-19)
(-0.0186284 0.0159807 2.28982e-19)
(-0.00813153 0.0202498 -1.11742e-18)
(0.0165273 0.0228527 4.57389e-19)
(0.0535431 0.0252474 -3.64689e-19)
(0.101417 0.0284925 2.68841e-19)
(0.158752 0.0332715 -4.17353e-19)
(0.22415 0.0399862 3.83229e-20)
(0.296135 0.0488159 -2.14629e-20)
(0.37313 0.059753 1.12103e-19)
(0.453477 0.0726336 1.6199e-19)
(0.535486 0.0871675 -3.06222e-19)
(0.61751 0.10297 1.62033e-19)
(0.698022 0.119591 1.49054e-19)
(0.77568 0.136546 6.45888e-19)
(0.849374 0.15334 -2.8006e-19)
(0.918247 0.169485 -1.87451e-19)
(0.981711 0.184548 3.15829e-19)
(1.03931 0.197951 1.70351e-19)
(1.09144 0.21358 -3.17875e-19)
(-0.0114597 0.0070418 4.79816e-19)
(-0.0131897 0.0130117 4.62684e-19)
(0.00374479 0.0164242 1.33286e-19)
(0.0364422 0.0190371 5.61549e-19)
(0.0827634 0.0222418 2.75665e-19)
(0.140862 0.0270309 -4.96765e-19)
(0.208932 0.0339823 7.52139e-19)
(0.285096 0.0433546 -3.70075e-19)
(0.367357 0.0551511 3.69256e-19)
(0.453607 0.0691632 4.77752e-19)
(0.541697 0.0850156 -2.72986e-19)
(0.629537 0.102214 5.18253e-20)
(0.715202 0.120194 2.8947e-19)
(0.797028 0.138371 2.04199e-19)
(0.873676 0.156175 4.71448e-19)
(0.944167 0.173089 -1.88014e-19)
(1.00788 0.188663 -2.2665e-20)
(1.06453 0.202565 2.99854e-19)
(1.114 0.214279 -6.41688e-20)
(1.15754 0.227838 4.58925e-22)
(-0.0098942 0.00581499 -2.47781e-19)
(-0.00605894 0.00991646 -9.1068e-19)
(0.0185371 0.012698 2.1435e-19)
(0.0604894 0.0157068 -1.63133e-19)
(0.117231 0.0202147 -3.76308e-19)
(0.186444 0.0270985 -2.68344e-19)
(0.26577 0.0367702 -1.65734e-19)
(0.352714 0.0492794 4.02625e-19)
(0.444648 0.0643887 -2.39073e-19)
(0.53888 0.0816357 -2.44608e-19)
(0.632794 0.100402 -3.09666e-19)
(0.723994 0.119984 -5.11399e-20)
(0.810439 0.139667 -3.44371e-20)
(0.890533 0.158779 -7.17539e-19)
(0.963167 0.176736 3.48752e-19)
(1.02771 0.193072 -4.58498e-19)
(1.08397 0.207451 1.44982e-19)
(1.13212 0.219682 -1.10333e-18)
(1.17251 0.229449 3.32309e-19)
(1.20681 0.240462 4.23114e-19)
(-0.00770362 0.00449995 -6.21629e-20)
(0.00299247 0.00679684 4.44781e-19)
(0.0365427 0.00926886 2.84778e-20)
(0.0889587 0.013155 6.85552e-20)
(0.157125 0.0195381 -1.39357e-19)
(0.238101 0.0291094 -2.21552e-21)
(0.328817 0.0420378 -3.50532e-21)
(0.426036 0.0580851 -8.38653e-20)
(0.526429 0.0767068 2.97486e-19)
(0.626748 0.097145 1.15102e-19)
(0.724019 0.11853 5.22317e-19)
(0.815733 0.13998 -1.42566e-19)
(0.89997 0.160684 9.96078e-20)
(0.975453 0.179964 -1.31091e-20)
(1.04153 0.197305 2.76182e-19)
(1.09811 0.212372 1.69459e-19)
(1.14554 0.224995 4.09612e-19)
(1.18449 0.235157 -6.62308e-19)
(1.21582 0.242792 8.35011e-19)
(1.24134 0.25107 -2.64897e-19)
(-0.00479 0.00313195 -5.80485e-19)
(0.0141811 0.0037837 -1.80935e-19)
(0.0580137 0.00637014 1.41596e-19)
(0.122039 0.011706 8.9225e-20)
(0.202445 0.0205949 9.11437e-20)
(0.295499 0.0334531 9.2524e-20)
(0.397269 0.0501119 -2.31296e-19)
(0.503683 0.0699619 -9.56642e-20)
(0.610731 0.0920961 2.96806e-20)
(0.714722 0.115446 -2.83192e-19)
(0.812545 0.138922 -1.28136e-19)
(0.901845 0.161526 7.7493e-19)
(0.981101 0.182444 -1.99813e-19)
(1.0496 0.201085 -2.76073e-19)
(1.10731 0.217091 -1.31486e-19)
(1.15479 0.230315 9.0811e-20)
(1.19296 0.240791 1.11365e-19)
(1.22294 0.248678 -5.34086e-19)
(1.24598 0.254148 7.74183e-19)
(1.26389 0.259786 -6.7167e-19)
(-0.00105783 0.00175993 -6.59389e-20)
(0.0276993 0.00103906 1.89246e-20)
(0.0831358 0.00427 -2.39157e-20)
(0.15979 0.0117075 3.5044e-19)
(0.252983 0.023764 1.9138e-20)
(0.358016 0.0404699 1.28548e-19)
(0.469975 0.0612157 -2.66809e-19)
(0.583942 0.0849452 -9.71888e-21)
(0.695339 0.110361 3.70477e-19)
(0.800267 0.13611 5.16398e-20)
(0.895773 0.160953 -3.22875e-19)
(0.979965 0.183882 -2.82884e-20)
(1.05198 0.204185 -2.6572e-19)
(1.11184 0.221453 2.64438e-19)
(1.16026 0.235548 3.68065e-19)
(1.19839 0.246551 -4.06091e-20)
(1.22766 0.254697 -4.96879e-20)
(1.24954 0.260304 1.51412e-19)
(1.26549 0.263722 -4.87907e-19)
(1.27727 0.267013 4.29433e-19)
(0.00358147 0.000447324 6.59264e-20)
(0.0437017 -0.0012443 -4.261e-19)
(0.112007 0.00326657 1.14101e-19)
(0.202115 0.013519 -3.53203e-19)
(0.308301 0.0293989 1.2137e-19)
(0.424743 0.0504255 -4.50654e-19)
(0.545493 0.0754467 1.81664e-19)
(0.664883 0.10291 -5.7753e-20)
(0.777996 0.131141 -2.30765e-21)
(0.881052 0.158581 5.91374e-20)
(0.971596 0.183952 -2.15669e-19)
(1.04848 0.206358 -3.07968e-19)
(1.1117 0.225294 -6.32314e-20)
(1.1621 0.240607 -2.83835e-20)
(1.20108 0.252417 -7.20955e-20)
(1.23034 0.261029 -2.35219e-20)
(1.25163 0.266855 -7.04351e-20)
(1.26664 0.270329 -6.11346e-20)
(1.27688 0.271915 -1.82291e-19)
(1.28398 0.273241 2.89517e-19)
(0.00920467 -0.000728108 1.59143e-19)
(0.0622919 -0.00284598 -1.76656e-19)
(0.144619 0.00367886 3.79991e-19)
(0.248745 0.0174944 -1.63826e-19)
(0.367727 0.0378053 4.37764e-19)
(0.494517 0.0634878 6.08691e-21)
(0.622182 0.092766 2.19655e-19)
(0.744516 0.123584 -5.86485e-20)
(0.856608 0.153964 2.45306e-19)
(0.955169 0.182256 1.77822e-20)
(1.03857 0.207289 5.84231e-19)
(1.10662 0.228395 -4.03421e-19)
(1.16025 0.245364 5.43267e-20)
(1.2011 0.258336 1.03728e-19)
(1.23116 0.267687 5.44169e-19)
(1.25248 0.273919 -1.95538e-19)
(1.26702 0.277574 -3.88234e-20)
(1.27648 0.279152 -2.05912e-19)
(1.28233 0.279173 -2.17678e-20)
(1.286 0.278926 1.03134e-19)
(0.0158717 -0.00167533 -7.66236e-20)
(0.0835097 -0.00352378 2.20969e-19)
(0.180841 0.00583392 -2.25748e-19)
(0.29923 0.0239622 8.93579e-20)
(0.430374 0.0492169 -1.06372e-19)
(0.565984 0.0797104 3.90846e-19)
(0.698312 0.113001 -5.42664e-20)
(0.820954 0.146583 1.34116e-19)
(0.929414 0.178296 -7.88411e-20)
(1.02126 0.206559 -1.95541e-21)
(1.09594 0.230443 9.02208e-20)
(1.15434 0.249612 -6.98435e-20)
(1.19829 0.264196 1.81257e-19)
(1.23009 0.274633 -9.03142e-20)
(1.25216 0.281522 -3.98128e-19)
(1.26673 0.285513 3.95939e-19)
(1.27579 0.287222 -1.78551e-19)
(1.28096 0.287173 1.42572e-19)
(1.28354 0.285899 2.47458e-19)
(1.2848 0.284422 1.01612e-19)
(0.0236207 -0.00229204 1.90557e-19)
(0.10732 -0.00302209 -3.92567e-19)
(0.22041 0.010051 7.51687e-20)
(0.352941 0.033204 -5.44423e-20)
(0.495174 0.0637772 -2.19152e-19)
(0.637679 0.0990282 -1.71915e-19)
(0.772198 0.135867 -3.3737e-20)
(0.89256 0.171452 -3.06346e-19)
(0.995102 0.20361 -1.85596e-20)
(1.07857 0.230994 -5.68765e-20)
(1.14361 0.253038 -1.54455e-19)
(1.19219 0.269803 -3.43149e-20)
(1.22691 0.281768 -1.18248e-19)
(1.25056 0.289635 -1.97391e-19)
(1.26577 0.294179 2.02182e-19)
(1.27484 0.296137 2.78946e-20)
(1.27961 0.296154 5.5579e-20)
(1.28155 0.294738 -2.33067e-19)
(1.28179 0.292406 -5.83661e-21)
(1.28139 0.289976 -3.59634e-19)
(0.0324632 -0.0024676 2.09316e-19)
(0.133603 -0.00108228 1.39488e-19)
(0.262925 0.0166243 -2.24533e-19)
(0.409088 0.0454351 3.50616e-19)
(0.560934 0.0815271 -3.7708e-20)
(0.708123 0.121264 1.30789e-19)
(0.842314 0.160995 4.52447e-20)
(0.958039 0.197715 1.60264e-19)
(1.05285 0.22943 -1.2547e-19)
(1.12686 0.255178 4.17731e-20)
(1.18197 0.274846 -4.01303e-20)
(1.22108 0.288911 -1.76802e-20)
(1.24739 0.298176 3.35508e-20)
(1.26399 0.303556 -6.18214e-20)
(1.27355 0.305939 -1.89862e-20)
(1.27825 0.3061 -5.80997e-20)
(1.27977 0.304667 -9.44749e-20)
(1.27935 0.302108 6.10024e-20)
(1.27796 0.298916 -8.36791e-20)
(1.27643 0.295735 3.61526e-19)
(0.0423799 -0.00208677 -1.04662e-19)
(0.162153 0.00254546 -2.96107e-19)
(0.307861 0.0258053 -3.93854e-20)
(0.466756 0.0607891 -1.06249e-20)
(0.626401 0.102402 -1.32397e-19)
(0.775918 0.146147 -2.17197e-19)
(0.907383 0.187969 7.10618e-20)
(1.01649 0.224915 -9.76247e-20)
(1.1023 0.25536 -1.09372e-19)
(1.16636 0.278848 6.08834e-20)
(1.21175 0.295763 -4.60133e-20)
(1.24211 0.306984 -9.30408e-20)
(1.26105 0.313584 -3.1076e-21)
(1.27174 0.316631 6.29895e-20)
(1.27676 0.317066 -6.41815e-20)
(1.2781 0.315656 8.90908e-20)
(1.27722 0.312985 2.39709e-20)
(1.27513 0.309463 6.03739e-20)
(1.27261 0.305559 1.1762e-19)
(1.27033 0.301768 -1.0074e-19)
(0.0533181 -0.00103417 1.00033e-19)
(0.192674 0.00808958 -8.9773e-21)
(0.354573 0.0377876 4.47264e-20)
(0.52494 0.0793074 -6.07841e-20)
(0.690333 0.12624 4.9414e-21)
(0.839821 0.173337 2.10555e-19)
(0.966425 0.216362 -1.38337e-19)
(1.0674 0.252644 5.85028e-20)
(1.14346 0.281095 5.15365e-20)
(1.1976 0.301844 -1.44973e-19)
(1.23385 0.315777 1.36148e-19)
(1.25641 0.324127 1.18397e-21)
(1.26908 0.328176 -9.58203e-20)
(1.27496 0.329077 1.15478e-19)
(1.27644 0.327776 -4.57798e-20)
(1.27526 0.324996 3.50043e-20)
(1.27264 0.321257 -3.91703e-20)
(1.26939 0.316911 -1.56499e-20)
(1.26612 0.312402 -1.36892e-19)
(1.26335 0.308088 4.18715e-20)
(0.0651895 0.000800781 -3.38147e-20)
(0.224786 0.0157447 9.0554e-20)
(0.40233 0.0526935 1.40865e-20)
(0.582601 0.100937 5.91351e-20)
(0.751564 0.15279 2.81637e-20)
(0.898797 0.202449 1.31976e-20)
(1.01877 0.245759 7.48283e-20)
(1.11058 0.280554 -9.10563e-21)
(1.17665 0.306413 3.29368e-20)
(1.22126 0.324088 5.29099e-20)
(1.24921 0.334933 2.55012e-20)
(1.26503 0.340474 1.82884e-20)
(1.27251 0.342128 7.41378e-20)
(1.27457 0.341078 -7.1749e-20)
(1.27335 0.33823 1.53917e-20)
(1.27033 0.334246 -1.43649e-20)
(1.26648 0.32957 2.2287e-20)
(1.26245 0.324498 1.86555e-20)
(1.25869 0.319456 3.88964e-20)
(1.25562 0.314668 1.65794e-21)
(0.077871 0.00351861 2.00415e-20)
(0.258037 0.0256604 1.83021e-20)
(0.450334 0.0705657 -2.53105e-20)
(0.638709 0.125533 1.581e-20)
(0.809056 0.181735 8.9154e-21)
(0.952051 0.233081 -2.77317e-20)
(1.06404 0.275775 9.14284e-21)
(1.14612 0.308359 1.6413e-21)
(1.20237 0.331163 1.57471e-20)
(1.23814 0.345556 -4.21774e-20)
(1.25876 0.353305 -1.19752e-22)
(1.26889 0.356151 1.16578e-20)
(1.27218 0.355585 -9.28855e-21)
(1.27129 0.352765 9.39663e-21)
(1.26806 0.348535 2.4462e-20)
(1.26372 0.343475 -1.38933e-20)
(1.25903 0.337957 3.88127e-21)
(1.2545 0.332226 1.5191e-20)
(1.25045 0.326695 -2.50345e-20)
(1.24719 0.321455 1.20165e-20)
(0.0912068 0.00720469 5.59836e-20)
(0.291915 0.0379313 -3.04075e-20)
(0.497761 0.0913626 3.57717e-20)
(0.692288 0.152868 -2.66022e-20)
(0.86193 0.212709 -1.19123e-20)
(0.999022 0.264827 3.60106e-21)
(1.1021 0.306066 -1.16757e-20)
(1.17431 0.33583 4.19637e-20)
(1.22122 0.355244 -3.49005e-20)
(1.249 0.366254 8.1824e-21)
(1.26333 0.370966 -6.09963e-21)
(1.26878 0.371265 -3.95877e-20)
(1.26877 0.36865 3.83585e-20)
(1.26564 0.364223 1.45651e-20)
(1.26096 0.358742 -1.44903e-20)
(1.25571 0.352705 3.39495e-20)
(1.25047 0.34641 -5.17662e-22)
(1.24564 0.340063 -3.28452e-20)
(1.24143 0.334068 2.43085e-20)
(1.2381 0.32838 7.62226e-21)
(0.105011 0.0119246 -1.96154e-20)
(0.325864 0.0525907 5.68925e-20)
(0.543786 0.114959 6.56684e-20)
(0.742457 0.182641 -3.09411e-20)
(0.909489 0.245312 5.38381e-20)
(1.03937 0.297294 8.50712e-20)
(1.13303 0.336325 -4.67059e-21)
(1.19557 0.362784 -1.45366e-20)
(1.23382 0.378588 7.18939e-20)
(1.25459 0.386198 3.49985e-20)
(1.26362 0.38798 -6.3112e-21)
(1.26532 0.385889 5.20131e-20)
(1.26277 0.381388 -5.56134e-20)
(1.25801 0.37549 8.65389e-20)
(1.25232 0.368862 -1.44208e-20)
(1.24646 0.361917 4.11445e-20)
(1.24091 0.354889 7.35515e-21)
(1.23593 0.347953 2.93364e-20)
(1.23168 0.341503 -2.79379e-20)
(1.22834 0.335363 6.67304e-21)
(0.119071 0.0177197 -3.05194e-20)
(0.359304 0.0696051 7.26219e-20)
(0.58762 0.141149 5.38905e-20)
(0.788448 0.214493 -8.14357e-21)
(0.951214 0.279126 8.37116e-20)
(1.07294 0.330106 -6.23635e-20)
(1.15702 0.36628 -4.79726e-21)
(1.21036 0.389066 5.50222e-20)
(1.24082 0.40114 1.74836e-20)
(1.25555 0.405399 2.43581e-20)
(1.26024 0.404385 -3.59081e-20)
(1.259 0.400063 9.33525e-20)
(1.25456 0.393819 1.73297e-20)
(1.24865 0.386564 -8.24314e-20)
(1.2423 0.378867 1.20001e-19)
(1.2361 0.371063 -1.41357e-19)
(1.2304 0.363331 -6.46232e-20)
(1.22539 0.35582 1.07716e-20)
(1.22117 0.348919 6.266e-20)
(1.2179 0.342315 -1.17716e-19)
(0.133158 0.0246041 -6.88977e-20)
(0.391654 0.0888737 -1.62392e-19)
(0.62853 0.169656 -1.40257e-19)
(0.829628 0.248021 -1.90825e-19)
(0.986757 0.313727 -1.08084e-19)
(1.09975 0.36291 -2.23903e-19)
(1.17439 0.395689 2.84451e-20)