/*--------------------------------*- C++ -*----------------------------------*\
  =========                 |
  \\      /  F ield         | OpenFOAM: The Open Source CFD Toolbox
   \\    /   O peration     | Website:  https://openfoam.org
    \\  /    A nd           | Version:  6.0
     \\/     M anipulation  |
\*---------------------------------------------------------------------------*/
FoamFile
{
    version     2.0;
    format      ascii;
    class       volVectorField;
    location    "59";
    object      U;
}
// * * * * * * * * * * * * * * * * * * * * * * * * * * * * * * * * * * * * * //

dimensions      [0 1 -1 0 0 0 0];

internalField   nonuniform List<vector> 
4000
(
(-0.000468471 0.00488429 -3.56549e-21)
(-0.00233217 0.011986 1.90668e-20)
(-0.00565612 0.0170783 -2.31768e-20)
(-0.0096876 0.0206421 1.76449e-20)
(-0.0140208 0.0230641 8.58642e-21)
(-0.0184186 0.02466 -2.57951e-20)
(-0.0227104 0.0256836 -2.27637e-21)
(-0.026786 0.0263355 -8.02038e-22)
(-0.0305854 0.0267709 -1.33833e-20)
(-0.0340868 0.0271077 -7.24688e-21)
(-0.0372968 0.0274336 5.40541e-21)
(-0.0402432 0.0278117 2.05176e-20)
(-0.0429687 0.0282858 -1.53489e-21)
(-0.045526 0.0288844 2.20404e-21)
(-0.0479738 0.0296234 -2.06701e-20)
(-0.0503799 0.030508 1.27381e-20)
(-0.0528133 0.0315346 -1.82378e-20)
(-0.0552769 0.0326925 2.76141e-20)
(-0.057682 0.0339665 -3.14371e-23)
(-0.0605053 0.0353265 5.94596e-21)
(-0.000692819 0.0057383 1.1865e-20)
(-0.00283914 0.0141462 -6.0694e-20)
(-0.00628974 0.0201641 -4.18936e-20)
(-0.0103459 0.0243407 -2.84151e-20)
(-0.0146336 0.0271232 -3.65625e-20)
(-0.018936 0.028881 8.00894e-21)
(-0.0230973 0.0299172 -4.21866e-20)
(-0.0270176 0.030476 -9.46687e-21)
(-0.0306439 0.0307512 2.9895e-21)
(-0.033959 0.0308941 3.14714e-20)
(-0.0369725 0.0310213 -3.43589e-20)
(-0.0397144 0.0312209 4.78001e-20)
(-0.0422293 0.0315575 -3.58037e-20)
(-0.0445716 0.0320766 -4.24548e-20)
(-0.0468024 0.0328071 -5.84891e-20)
(-0.0489919 0.0337633 3.73578e-20)
(-0.051213 0.0349467 -1.21175e-20)
(-0.0534714 0.0363502 -4.40015e-20)
(-0.0556769 0.0379633 4.1586e-20)
(-0.0583161 0.0397372 -3.08229e-20)
(-0.000983815 0.0065414 1.16377e-19)
(-0.003521 0.0161871 6.01586e-20)
(-0.00718287 0.0230867 6.76485e-20)
(-0.0113232 0.0278483 5.63251e-21)
(-0.0156006 0.0309732 3.73728e-20)
(-0.0198206 0.0328806 4.65204e-20)
(-0.0238445 0.0339194 -8.47859e-20)
(-0.0275844 0.0343754 -4.48217e-20)
(-0.0309956 0.034479 -5.84434e-20)
(-0.0340668 0.0344142 6.22588e-20)
(-0.0368115 0.0343265 -4.75846e-20)
(-0.0392627 0.034329 -6.1305e-20)
(-0.0414678 0.0345081 -2.23979e-20)
(-0.0434843 0.0349275 2.12037e-20)
(-0.0453768 0.0356312 -5.88883e-21)
(-0.0472204 0.0366445 8.46018e-21)
(-0.0490942 0.0379756 9.83491e-20)
(-0.051009 0.0396234 -1.38613e-20)
(-0.0528737 0.0415843 -1.00073e-19)
(-0.0551895 0.0437912 1.31456e-19)
(-0.00133731 0.00729514 4.0607e-20)
(-0.00436814 0.0181081 -5.71187e-20)
(-0.00832274 0.0258401 -1.42868e-20)
(-0.0126048 0.0311516 2.6903e-20)
(-0.0169064 0.0345933 7.6149e-20)
(-0.0210575 0.0366297 1.66528e-19)
(-0.0249379 0.0376524 1.62706e-19)
(-0.0284736 0.037986 1.35672e-20)
(-0.0316297 0.0378958 9.97416e-20)
(-0.0344016 0.0375975 1.52679e-19)
(-0.0368073 0.0372646 -1.21906e-19)
(-0.0388836 0.0370361 1.80494e-19)
(-0.0406813 0.0370213 -4.10173e-20)
(-0.0422618 0.0373043 1.0286e-20)
(-0.0436948 0.0379463 4.27264e-20)
(-0.045062 0.0389865 5.68408e-20)
(-0.0464513 0.0404434 -8.94979e-20)
(-0.0478816 0.0423244 -7.47931e-20)
(-0.0492614 0.0446366 -1.3231e-19)
(-0.0511123 0.0472953 1.91955e-19)
(-0.00174984 0.00800191 -2.12206e-20)
(-0.00537165 0.0199101 -2.16945e-19)
(-0.00969627 0.0284204 -6.41079e-20)
(-0.0141745 0.0342405 -1.56164e-19)
(-0.0185327 0.0379663 5.91197e-20)
(-0.0226269 0.040104 -9.30392e-20)
(-0.0263576 0.0410844 3.21161e-20)
(-0.0296662 0.0412678 -1.97055e-19)
(-0.032529 0.0409523 1.04043e-19)
(-0.0349485 0.0403832 -1.23936e-19)
(-0.0369481 0.0397622 -1.10194e-19)
(-0.0385683 0.0392538 -1.23514e-19)
(-0.0398637 0.0389921 1.12072e-19)
(-0.0409001 0.0390837 -1.00802e-19)
(-0.0417533 0.0396106 1.40248e-19)
(-0.0425132 0.04063 4.05832e-20)
(-0.0432795 0.0421745 1.00547e-19)
(-0.044082 0.044265 4.4087e-20)
(-0.0448311 0.0469241 -1.74986e-19)
(-0.046075 0.0500516 2.84046e-19)
(-0.00221862 0.00866458 9.37242e-20)
(-0.00652309 0.0215951 7.13021e-21)
(-0.0112895 0.0308252 3.85427e-20)
(-0.0160134 0.0371074 1.34324e-19)
(-0.0204563 0.0410792 -2.0441e-20)
(-0.0245024 0.0432852 2.1804e-19)
(-0.0280752 0.0441915 9.68491e-20)
(-0.0311334 0.044191 8.15758e-21)
(-0.0336651 0.0436114 2.48815e-19)
(-0.0356813 0.0427259 8.15402e-20)
(-0.0372106 0.0417626 3.87251e-20)
(-0.0382971 0.0409121 1.22751e-19)
(-0.0389988 0.0403339 1.12581e-19)
(-0.0393861 0.0401603 2.05648e-19)
(-0.0395411 0.0404983 -1.83826e-19)
(-0.0395637 0.041428 2.60214e-19)
(-0.0395677 0.0430022 3.70267e-21)
(-0.0395978 0.0452617 -3.3299e-19)
(-0.0395691 0.0482525 4.32244e-19)
(-0.0400654 0.0518611 1.79038e-19)
(-0.00274143 0.00928608 -5.52491e-20)
(-0.007814 0.0231652 -1.0029e-19)
(-0.0130865 0.033053 -2.08329e-19)
(-0.0180979 0.0397462 -6.14694e-21)
(-0.0226465 0.0439222 3.56029e-20)
(-0.0266475 0.0461602 -2.65761e-19)
(-0.0300496 0.0469582 -1.97119e-19)
(-0.0328307 0.0467375 -2.81755e-20)
(-0.0349925 0.0458519 -2.49284e-19)
(-0.0365547 0.0445993 -1.72622e-19)
(-0.0375512 0.0432321 -5.02984e-20)
(-0.0380293 0.0419662 -1.62044e-19)
(-0.0380498 0.0409876 -2.62246e-21)
(-0.0376865 0.0404565 -2.15388e-19)
(-0.0370279 0.0405096 9.06471e-20)
(-0.0361845 0.0412566 -1.03412e-19)
(-0.0352868 0.0427786 7.95149e-20)
(-0.0343985 0.0451453 -1.009e-19)
(-0.0334445 0.0484366 -2.89238e-19)
(-0.0330557 0.0525315 -8.76475e-20)
(-0.00331637 0.00986876 -2.03907e-20)
(-0.00923511 0.0246214 -2.21278e-20)
(-0.015068 0.0351012 1.74771e-19)
(-0.0203979 0.0421514 -2.84464e-19)
(-0.0250626 0.0464877 4.17309e-20)
(-0.0290114 0.0487213 -1.64297e-19)
(-0.0322212 0.0493777 7.75368e-20)
(-0.0346915 0.0489023 3.48682e-19)
(-0.0364392 0.0476706 -2.23693e-20)
(-0.0374935 0.0460009 -2.6018e-19)
(-0.0378938 0.0441665 4.71687e-20)
(-0.0376897 0.0424065 9.15211e-21)
(-0.0369434 0.0409329 -5.35825e-20)
(-0.0357308 0.0399361 5.2361e-21)
(-0.0341457 0.0395868 4.70244e-19)
(-0.0323092 0.0400322 -6.67951e-20)
(-0.0303705 0.0413913 -1.30924e-19)
(-0.0284166 0.0437759 -2.35402e-19)
(-0.026389 0.0473153 2.39991e-19)
(-0.0249821 0.0518902 1.03414e-19)
(-0.00394141 0.0104137 1.02719e-19)
(-0.0107753 0.0259621 -1.34423e-19)
(-0.0172098 0.0369652 1.89986e-19)
(-0.0228743 0.0443163 1.91186e-19)
(-0.0276501 0.0487692 1.76161e-19)
(-0.0315244 0.0509643 3.57035e-19)
(-0.0345059 0.051451 2.30835e-19)
(-0.0366184 0.0506937 -4.96016e-19)
(-0.0378963 0.0490839 2.53692e-19)
(-0.0383797 0.0469551 1.99117e-19)
(-0.0381134 0.0445969 -2.89645e-21)
(-0.0371491 0.0422671 2.23064e-19)
(-0.0355484 0.0402016 1.74031e-19)
(-0.0333878 0.0386213 -9.45632e-20)
(-0.0307637 0.0377346 3.20213e-19)
(-0.0278069 0.0377336 -3.96962e-19)
(-0.0246868 0.038788 1.5918e-19)
(-0.0215177 0.0410681 2.04929e-19)
(-0.0182661 0.0447748 -4.78067e-20)
(-0.0157133 0.0498059 4.12113e-19)
(-0.00461396 0.0109203 2.06728e-19)
(-0.0124204 0.0271822 1.06932e-20)
(-0.0194809 0.0386361 -7.4115e-20)
(-0.0254768 0.0462306 -7.81912e-20)
(-0.0303378 0.0507581 -3.62143e-19)
(-0.0340936 0.0528863 5.13575e-20)
(-0.0367888 0.0531843 1.45242e-19)
(-0.0384751 0.0521304 -6.99307e-20)
(-0.0392071 0.0501265 5.76715e-20)
(-0.0390376 0.0475146 -1.52247e-20)
(-0.038018 0.0445936 -7.52946e-20)
(-0.0362017 0.0416341 7.15594e-20)
(-0.0336491 0.0388907 -3.1112e-19)
(-0.030434 0.0366118 2.98334e-19)
(-0.0266534 0.0350449 -2.58697e-19)
(-0.0224452 0.0344336 7.98459e-20)
(-0.0179986 0.0350108 1.8229e-19)
(-0.0134589 0.0370269 -3.77299e-20)
(-0.00882773 0.0407846 -1.26214e-19)
(-0.00500403 0.0462242 -8.58407e-20)
(-0.00533021 0.0113852 -2.57565e-19)
(-0.0141521 0.0282716 -1.68444e-20)
(-0.021842 0.0400994 5.42152e-20)
(-0.0281415 0.0478785 1.39226e-19)
(-0.0330345 0.0524414 -1.96555e-19)
(-0.0365985 0.0544816 -1.71456e-19)
(-0.0389183 0.0545846 4.00116e-19)
(-0.0400778 0.053238 -2.21117e-19)
(-0.0401548 0.0508476 -1.42623e-19)
(-0.039218 0.0477569 -2.04686e-19)
(-0.0373276 0.044266 1.35531e-19)
(-0.0345395 0.0406494 -3.56302e-21)
(-0.0309125 0.0371719 -2.53155e-19)
(-0.0265166 0.0341027 -4.14552e-19)
(-0.0214457 0.0317247 3.1589e-19)
(-0.0158419 0.0303351 -2.56398e-19)
(-0.00991219 0.0302417 3.63639e-19)
(-0.00383485 0.0317988 -1.01766e-19)
(0.00234395 0.0354507 2.15386e-19)
(0.00756595 0.0412192 -7.27881e-19)
(-0.00608464 0.0118028 -5.2185e-19)
(-0.0159466 0.0292149 3.42009e-19)
(-0.0242441 0.0413337 4.64872e-20)
(-0.0307892 0.0492366 8.99733e-21)
(-0.0356271 0.0537982 -2.10587e-19)
(-0.038888 0.0557377 3.09646e-19)
(-0.0407018 0.0556544 3.3761e-20)
(-0.0411885 0.0540411 -6.34674e-20)
(-0.0404534 0.0513024 -2.03787e-19)
(-0.0385848 0.0477761 2.20259e-19)
(-0.0356552 0.0437548 5.58579e-19)
(-0.0317261 0.0395066 -1.23371e-19)
(-0.0268563 0.0352945 2.79009e-19)
(-0.0211119 0.031396 -3.29757e-19)
(-0.0145821 0.0281191 -3.16462e-19)
(-0.00740954 0.0258095 1.90245e-19)
(0.00018381 0.0248548 3.15031e-19)
(0.00798801 0.0257353 -1.02107e-18)
(0.0159061 0.0290862 1.19633e-19)
(0.0226683 0.0350669 1.62723e-19)
(-0.00686961 0.0121649 3.86483e-19)
(-0.017774 0.029991 1.27129e-19)
(-0.0266278 0.04231 6.61549e-19)
(-0.0333252 0.0502721 3.40116e-20)
(-0.0379795 0.0547972 -7.35157e-20)
(-0.0407792 0.0566304 -3.50023e-19)
(-0.0419032 0.0563842 2.97669e-19)
(-0.0415117 0.0545542 5.34041e-19)
(-0.0397417 0.0515398 3.5576e-19)
(-0.0367057 0.0476679 2.56931e-19)
(-0.0324932 0.0432159 2.2157e-19)
(-0.0271766 0.0384346 -3.97784e-19)
(-0.0208198 0.0335716 -1.24652e-19)
(-0.0134883 0.0288954 -9.18738e-20)
(-0.00526778 0.0247203 9.84677e-19)
(0.00370018 0.021424 -3.2199e-21)
(0.0131819 0.019465 -2.45787e-19)
(0.0229399 0.0194629 -7.7889e-20)
(0.032829 0.022296 7.05742e-19)
(0.0413079 0.0283363 9.13724e-20)
(-0.00767517 0.0124613 -1.90615e-20)
(-0.0195983 0.0305745 -3.6538e-19)
(-0.0289228 0.0429924 -5.43325e-19)
(-0.0356382 0.0509431 -1.5111e-19)
(-0.0399328 0.0553947 8.34643e-20)
(-0.0420573 0.0571207 1.79758e-20)
(-0.0422434 0.056747 4.7637e-19)
(-0.0406945 0.0547717 -5.90746e-19)
(-0.0375831 0.0515881 -2.24701e-19)
(-0.0330503 0.0475096 -4.52863e-19)
(-0.0272088 0.0427938 -3.85767e-19)
(-0.0201496 0.0376665 -3.41694e-19)
(-0.0119497 0.0323466 8.54401e-20)
(-0.00268303 0.0270746 -1.10975e-19)
(0.00756148 0.0221455 4.75714e-19)
(0.0186401 0.0179383 -2.60736e-19)
(0.0303075 0.0149539 -8.18026e-19)
(0.0423049 0.01394 -1.65289e-19)
(0.0544562 0.0160617 4.03903e-19)
(0.0648934 0.0219915 -3.51727e-19)
(-0.00848924 0.012681 -6.16429e-20)
(-0.0213766 0.0309368 4.46888e-19)
(-0.0310483 0.0433398 -5.69756e-19)
(-0.0376012 0.0511996 1.31691e-19)
(-0.0413053 0.0555361 -2.71081e-19)
(-0.0424769 0.0571539 6.03814e-19)
(-0.0414024 0.0566945 -4.31501e-19)
(-0.0383304 0.0546604 4.93641e-19)
(-0.0334711 0.0514411 -4.6806e-19)
(-0.026998 0.0473383 1.99725e-19)
(-0.0190536 0.0425904 -9.69132e-20)
(-0.00975592 0.0373957 -2.43423e-19)
(0.000792341 0.0319375 -3.0084e-19)
(0.0124944 0.0264128 2.99813e-19)
(0.025243 0.0210699 -2.51123e-19)
(0.0388795 0.0162491 -5.49237e-19)
(0.0531391 0.0124401 5.71956e-19)
(0.067744 0.0104705 -7.29448e-19)
(0.0825267 0.0118016 3.28597e-19)
(0.095268 0.0174862 9.91113e-21)
(-0.00929786 0.012813 -5.58981e-19)
(-0.0230602 0.0310488 -6.03259e-19)
(-0.0329123 0.043309 6.95153e-20)
(-0.0390708 0.0509872 -5.81365e-19)
(-0.0418931 0.0551589 -5.16769e-20)
(-0.0417631 0.0566629 -4.27506e-19)
(-0.0390225 0.0561595 -9.80693e-20)
(-0.0339651 0.0541597 -2.86605e-19)
(-0.0268393 0.0510535 2.53728e-21)
(-0.0178535 0.0471374 -1.25418e-19)
(-0.00718457 0.0426374 8.92094e-21)
(0.00501261 0.0377308 -3.6147e-19)
(0.0185956 0.0325679 3.98488e-19)
(0.0334248 0.0272985 -5.65351e-19)
(0.0493505 0.0221073 2.00361e-19)
(0.0661736 0.0172563 7.58483e-21)
(0.0835861 0.0131558 -3.18772e-19)
(0.101278 0.0106168 7.90818e-19)
(0.119149 0.0113384 -1.88398e-19)
(0.134685 0.0167828 -1.22692e-19)
(-0.0100856 0.0128478 6.27384e-19)
(-0.024594 0.0308833 3.38642e-19)
(-0.0344113 0.0428585 3.14892e-19)
(-0.0398862 0.050253 4.69868e-20)
(-0.0414683 0.0542008 4.25652e-19)
(-0.0396106 0.055578 6.13405e-19)
(-0.0347092 0.055067 5.02158e-19)
(-0.0271011 0.0531916 4.49478e-20)
(-0.0170718 0.0503493 3.67755e-19)
(-0.00486477 0.0468401 5.68275e-19)
(0.00930514 0.0428896 -1.47426e-19)
(0.0252388 0.0386686 2.47442e-19)
(0.0427399 0.0343105 1.99813e-19)
(0.0616041 0.0299315 2.03368e-19)
(0.0816079 0.025657 1.20243e-18)
(0.102474 0.0216554 -4.50702e-19)
(0.123809 0.0181963 -2.7352e-20)
(0.145223 0.0159411 5.21904e-19)
(0.166728 0.0166732 -2.95767e-19)
(0.185733 0.0222022 1.46619e-19)
(-0.0108357 0.0127776 -5.0728e-19)
(-0.0259158 0.0304172 3.24567e-20)
(-0.035428 0.0419535 -4.05733e-19)
(-0.0398653 0.0489532 -5.27568e-20)
(-0.0397751 0.0526107 2.96918e-19)
(-0.0356797 0.0538418 -8.83853e-19)
(-0.028028 0.0533531 -6.45977e-22)
(-0.0171979 0.0516851 4.11297e-19)
(-0.00350925 0.0492489 3.86436e-19)
(0.01276 0.0463577 -1.70148e-19)
(0.0313556 0.0432503 5.61136e-20)
(0.0520286 0.0401103 1.30136e-19)
(0.074517 0.0370803 -6.166e-20)
(0.0985308 0.0342754 -6.91168e-19)
(0.123739 0.031799 1.74989e-19)
(0.149737 0.029756 4.81202e-19)
(0.175977 0.02827 -6.85511e-19)
(0.201894 0.027745 3.34064e-19)
(0.227605 0.0298528 8.94554e-20)
(0.250881 0.036592 4.5342e-19)
(-0.0115298 0.0125971 -7.4825e-20)
(-0.0269546 0.0296337 -3.55245e-19)
(-0.0358275 0.0405703 1.63434e-19)
(-0.0388 0.0470611 7.37723e-22)
(-0.0365228 0.0503614 -7.12038e-19)
(-0.0295887 0.0514272 1.11127e-19)
(-0.018498 0.0509902 -2.10878e-20)
(-0.00366771 0.049609 1.43708e-19)
(0.0145494 0.0477118 -6.57827e-19)
(0.0358416 0.0456309 -4.61412e-20)
(0.0599142 0.043629 -1.54585e-19)
(0.0864656 0.0419195 1.37479e-19)
(0.115163 0.0406826 4.64183e-19)
(0.145621 0.0400775 -7.17854e-20)
(0.177373 0.0402556 2.78441e-20)
(0.209833 0.0413598 1.82463e-19)
(0.242194 0.0434958 -4.52032e-20)
(0.273509 0.0469333 3.67282e-19)
(0.303729 0.053317 -2.13958e-19)
(0.331448 0.0645696 -3.35794e-19)
(-0.0121464 0.0123026 6.94563e-20)
(-0.0276276 0.0285226 1.69727e-20)
(-0.0354528 0.0387001 1.42429e-19)
(-0.0364491 0.0445747 3.48745e-19)
(-0.0313783 0.0474619 1.95661e-19)
(-0.020906 0.0483566 2.03976e-20)
(-0.00558511 0.0480136 -2.33514e-19)
(0.014127 0.0470078 5.98694e-20)
(0.0378415 0.0457828 3.14842e-19)
(0.0652088 0.0446885 -5.33515e-19)
(0.0958906 0.0440106 4.02586e-19)
(0.129533 0.0439948 -3.03366e-19)
(0.165745 0.0448679 2.57402e-19)
(0.204071 0.0468595 -5.55165e-19)
(0.243966 0.0502274 6.10633e-19)
(0.28474 0.0552741 -6.53009e-19)
(0.325409 0.062345 -1.69626e-19)
(0.36462 0.0721055 5.31749e-19)
(0.401304 0.0869148 -1.79958e-19)
(0.43246 0.108178 8.01235e-20)
(-0.0126598 0.0118917 -5.25443e-20)
(-0.0278364 0.0270811 4.95784e-19)
(-0.0341189 0.0363511 -2.11747e-21)
(-0.0325324 0.0415226 -3.07701e-19)
(-0.0239595 0.0439676 -2.0685e-19)
(-0.00914472 0.0447166 3.78983e-19)
(0.0112997 0.044543 -1.50096e-19)
(0.0368665 0.0440324 -1.89054e-20)
(0.0671168 0.0436348 3.12798e-19)
(0.101645 0.0437055 -3.88567e-19)
(0.140051 0.0445349 4.25941e-20)
(0.181914 0.0463742 -5.05152e-19)
(0.226782 0.0494595 2.65977e-19)
(0.274168 0.0540393 -7.60962e-19)
(0.323557 0.0604114 1.21192e-18)
(0.374423 0.0689719 -2.22161e-19)
(0.426259 0.0803261 2.31118e-19)
(0.478853 0.0958316 -6.00285e-19)
(0.532649 0.118592 4.33983e-21)
(0.57962 0.145063 6.78031e-19)
(-0.0130372 0.0113618 -1.59152e-19)
(-0.0274622 0.0253123 1.37446e-19)
(-0.0316085 0.0335498 -5.06232e-19)
(-0.0267263 0.0379666 7.4868e-19)
(-0.0138336 0.0399848 -5.40453e-19)
(0.00623428 0.0406657 2.78977e-20)
(0.0327897 0.0407943 -5.8266e-19)
(0.0652517 0.0409565 4.16586e-19)
(0.103099 0.0415953 -5.95048e-20)
(0.145828 0.0430497 -3.67584e-19)
(0.192923 0.0455839 -2.14488e-19)
(0.243838 0.0494085 2.26734e-19)
(0.297995 0.0546988 1.49865e-19)
(0.354793 0.0616112 -6.62958e-19)
(0.413645 0.0703003 2.39416e-19)
(0.474017 0.0809296 -3.52801e-19)
(0.535497 0.0936911 4.27235e-20)
(0.598006 0.108994 -2.99051e-19)
(0.662313 0.128006 1.21801e-19)
(0.721343 0.147188 -4.4725e-19)
(-0.0132365 0.0107095 4.53083e-19)
(-0.0263629 0.0232255 -2.74388e-19)
(-0.0276694 0.0303409 2.26058e-19)
(-0.0186651 0.034002 -2.85339e-19)
(-0.000523374 0.0356715 4.78232e-19)
(0.0258078 0.0364338 -8.35009e-21)
(0.0595353 0.0370756 -5.81974e-20)
(0.0999618 0.0381697 -4.31448e-20)
(0.146427 0.0401332 2.65625e-19)
(0.19826 0.0432645 4.51639e-19)
(0.25475 0.0477689 -2.66731e-19)
(0.315136 0.0537762 2.59325e-19)
(0.378613 0.0613551 4.73491e-19)
(0.444359 0.070522 -3.31978e-19)
(0.511575 0.0812476 -6.73583e-19)
(0.579528 0.0934538 1.23124e-18)
(0.647604 0.106998 -2.19887e-19)
(0.715387 0.121709 -7.12651e-20)
(0.783018 0.137882 7.65693e-19)
(0.845558 0.154863 -1.62704e-19)
(-0.0132043 0.00993123 -7.37547e-19)
(-0.0243708 0.0208365 -4.90913e-19)
(-0.0220161 0.0267872 -1.88414e-19)
(-0.00794766 0.0297568 3.63478e-19)
(0.0164764 0.0312331 -8.20535e-19)
(0.0501602 0.0323126 4.24887e-19)
(0.0921555 0.0337691 5.38438e-20)
(0.141583 0.0361439 5.4444e-20)
(0.197561 0.0398034 -5.56398e-19)
(0.259159 0.0449749 -1.96444e-19)
(0.325372 0.0517696 -3.46206e-19)
(0.395125 0.0602007 3.34332e-19)
(0.467303 0.0701977 9.47435e-20)
(0.540785 0.0816171 1.84505e-20)
(0.614503 0.0942516 4.34725e-19)
(0.687482 0.107832 -4.40628e-19)
(0.758889 0.12202 -1.82076e-20)
(0.828058 0.136421 1.15328e-20)
(0.894645 0.150861 6.05384e-20)
(0.956003 0.166967 3.39144e-19)
(-0.0128752 0.00902381 2.34834e-19)
(-0.0212939 0.0181695 6.04713e-19)
(-0.0143354 0.0229714 4.85208e-19)
(0.00584807 0.0253898 -1.67235e-19)
(0.037672 0.0269164 5.8159e-19)
(0.0798387 0.0286422 -4.90071e-20)
(0.131171 0.031307 -6.90131e-20)
(0.190514 0.0353925 4.10996e-20)
(0.256661 0.0411809 5.62048e-19)
(0.32831 0.0487893 3.3021e-19)
(0.404061 0.0581954 9.64477e-20)
(0.48245 0.0692597 6.00931e-21)
(0.561998 0.0817478 -6.38854e-19)
(0.641279 0.0953505 5.55143e-19)
(0.718985 0.109703 9.49802e-20)
(0.793979 0.124402 -1.56666e-19)
(0.86533 0.139009 -6.77434e-19)
(0.932335 0.15309 -5.68419e-20)
(0.994485 0.166188 2.66767e-19)
(1.05115 0.181377 -5.41589e-20)
(-0.0121724 0.00798672 -5.95796e-19)
(-0.0169191 0.0152608 2.49249e-19)
(-0.00429633 0.018998 -1.21684e-18)
(0.0231454 0.0210912 4.98333e-19)
(0.0635369 0.0230049 -3.97399e-19)
(0.1153 0.0257988 2.9296e-19)
(0.176927 0.030146 -4.55076e-19)
(0.246871 0.036429 4.18002e-20)
(0.323473 0.0448001 -2.34417e-20)
(0.404952 0.0552184 1.22327e-19)
(0.489435 0.0674845 1.76542e-19)
(0.575028 0.0812739 -3.33629e-19)
(0.659911 0.0961742 1.76751e-19)
(0.742425 0.11172 1.62126e-19)
(0.821146 0.127424 6.98928e-19)
(0.894937 0.142806 -3.03891e-19)
(0.962969 0.157413 -2.01102e-19)
(1.02472 0.17086 3.37945e-19)
(1.07986 0.18262 1.79296e-19)
(1.12904 0.196376 -3.38923e-19)
(-0.0110086 0.00682482 5.21857e-19)
(-0.0110183 0.0121638 5.03134e-19)
(0.00843638 0.0149984 1.4516e-19)
(0.0443442 0.0170839 6.1133e-19)
(0.0944719 0.019815 3.0029e-19)
(0.156855 0.0241814 -5.41333e-19)
(0.229524 0.0307429 8.19813e-19)
(0.310401 0.0397284 -4.03407e-19)
(0.397255 0.0511021 4.02589e-19)
(0.487734 0.0646121 5.20691e-19)
(0.579461 0.0798402 -2.97532e-19)
(0.670156 0.0962568 5.65442e-20)
(0.757757 0.113276 3.14711e-19)
(0.840532 0.130307 2.21496e-19)
(0.91714 0.146794 5.09349e-19)
(0.986661 0.162251 -2.04229e-19)
(1.04858 0.176279 -2.55148e-20)
(1.10276 0.188599 3.19761e-19)
(1.14925 0.198787 -6.89876e-20)
(1.18947 0.210526 1.78694e-22)
(-0.00928922 0.0055513 -2.69392e-19)
(-0.00335723 0.00895476 -9.90022e-19)
(0.0241856 0.0111358 2.3313e-19)
(0.0697935 0.0136256 -1.77475e-19)
(0.130765 0.0176917 -4.09655e-19)
(0.204612 0.0241993 -2.92447e-19)
(0.288753 0.0335307 -1.80618e-19)
(0.380435 0.0456916 4.38672e-19)
(0.476751 0.0603925 -2.60477e-19)
(0.574749 0.0771183 -2.66745e-19)
(0.671597 0.0952055 -3.37026e-19)
(0.764754 0.113922 -5.56188e-20)
(0.852115 0.132542 -3.79166e-20)
(0.932101 0.150406 -7.7746e-19)
(1.00369 0.166966 3.76144e-19)
(1.0664 0.181803 -4.94743e-19)
(1.12019 0.194642 1.54611e-19)
(1.16544 0.20535 -1.17787e-18)
(1.20269 0.213712 3.55176e-19)
(1.23368 0.223037 4.47561e-19)
(-0.00691568 0.00419043 -6.76444e-20)
(0.00629436 0.00573743 4.82961e-19)
(0.043243 0.00760946 3.09659e-20)
(0.0997627 0.0110095 7.45027e-20)
(0.172551 0.0170031 -1.51466e-19)
(0.258436 0.0262565 -2.50221e-21)
(0.354059 0.0388926 -3.85376e-21)
(0.455871 0.0546129 -9.12904e-20)
(0.560241 0.072809 3.23942e-19)
(0.66367 0.0926662 1.25159e-19)
(0.763018 0.113276 5.67743e-19)
(0.855709 0.13374 -1.5473e-19)
(0.939853 0.153259 1.07863e-19)
(1.01428 0.17119 -1.38475e-20)
(1.07852 0.187072 2.98382e-19)
(1.13267 0.200632 1.82136e-19)
(1.17728 0.211765 4.37806e-19)
(1.21323 0.220509 -7.0661e-19)
(1.24153 0.226885 8.87729e-19)
(1.26405 0.233677 -2.81143e-19)
(-0.00378898 0.00277967 -6.29511e-19)
(0.0181512 0.00264716 -1.96513e-19)
(0.0658492 0.00465691 1.53583e-19)
(0.134412 0.00956159 9.68303e-20)
(0.219779 0.0181289 9.92319e-20)
(0.317912 0.0307312 1.00547e-19)
(0.424531 0.0471341 -2.51706e-19)
(0.535214 0.0666519 -1.03931e-19)
(0.645652 0.0883061 3.23333e-20)
(0.751952 0.110976 -3.07853e-19)
(0.850921 0.133547 -1.39047e-19)
(0.940235 0.155032 8.40133e-19)
(1.0185 0.17465 -2.16811e-19)
(1.08521 0.191869 -2.98152e-19)
(1.14056 0.206398 -1.41001e-19)
(1.18531 0.21816 9.79155e-20)
(1.2206 0.227248 1.1875e-19)
(1.24772 0.233868 -5.69202e-19)
(1.26804 0.238248 8.22277e-19)
(1.28337 0.242641 -7.12267e-19)
(0.000185959 0.00137097 -7.12197e-20)
(0.0324 -0.000147812 2.03963e-20)
(0.0921725 0.00255241 -2.60284e-20)
(0.173764 0.00963269 3.80212e-19)
(0.272178 0.0214447 2.09526e-20)
(0.382335 0.0379516 1.39576e-19)
(0.498922 0.0584567 -2.90007e-19)
(0.616663 0.0818152 -1.05322e-20)
(0.730722 0.106659 4.02478e-19)
(0.837083 0.131599 5.59784e-20)
(0.932817 0.155397 -3.50131e-19)
(1.01617 0.177082 -3.07499e-20)
(1.0865 0.196002 -2.8681e-19)
(1.14408 0.211822 2.85829e-19)
(1.18987 0.224479 3.95934e-19)
(1.22525 0.234117 -4.35896e-20)
(1.2518 0.24102 -5.29657e-20)
(1.27112 0.245536 1.61289e-19)
(1.28474 0.248045 -5.17584e-19)
(1.2944 0.250334 4.56056e-19)
(0.00509593 3.12195e-05 7.15466e-20)
(0.049186 -0.00244763 -4.61464e-19)
(0.122289 0.00160085 1.23497e-19)
(0.217683 0.011585 -3.83085e-19)
(0.329249 0.0272997 1.31733e-19)
(0.450719 0.0481697 -4.89054e-19)
(0.575719 0.0729365 1.9721e-19)
(0.698247 0.0999544 -6.27908e-20)
(0.813213 0.127493 -2.55423e-21)
(0.916828 0.15398 6.40764e-20)
(1.00678 0.178173 -2.33319e-19)
(1.08215 0.19924 -3.32675e-19)
(1.14322 0.216758 -6.8019e-20)
(1.1911 0.230652 -3.05343e-20)
(1.22743 0.241113 -7.74066e-20)
(1.25408 0.248497 -2.51523e-20)
(1.27294 0.253249 -7.53161e-20)
(1.28575 0.255815 -6.5246e-20)
(1.29406 0.256663 -1.93524e-19)
(1.29945 0.25721 3.06451e-19)
(0.0110147 -0.00115826 1.72031e-19)
(0.0686003 -0.00402485 -1.91042e-19)
(0.156162 0.00212737 4.11143e-19)
(0.265854 0.0157736 -1.77474e-19)
(0.39026 0.0359923 4.74289e-19)
(0.521839 0.061538 6.80831e-21)
(0.653235 0.0905151 2.38043e-19)
(0.77798 0.120782 -6.37766e-20)
(0.891099 0.150329 2.65652e-19)
(0.98942 0.17753 1.90542e-20)
(1.07155 0.201279 6.31092e-19)
(1.13763 0.220997 -4.35339e-19)
(1.18887 0.236561 5.87775e-20)
(1.22716 0.248192 1.11896e-19)
(1.25471 0.25632 5.83528e-19)
(1.27369 0.261483 -2.09537e-19)
(1.28613 0.264235 -4.14724e-20)
(1.29375 0.265076 -2.18833e-19)
(1.29802 0.264512 -2.27759e-20)
(1.30033 0.263669 1.0931e-19)
(0.0179982 -0.0021031 -8.25319e-20)
(0.0906673 -0.00463112 2.38451e-19)
(0.193631 0.00446324 -2.44186e-19)
(0.31778 0.0225253 9.64088e-20)
(0.45427 0.0477469 -1.1529e-19)
(0.594296 0.0780945 4.23021e-19)
(0.729734 0.111005 -5.89476e-20)
(0.854023 0.143907 1.44872e-19)
(0.962733 0.174645 -8.53765e-20)
(1.05367 0.201699 -2.26194e-21)
(1.1266 0.224231 9.71448e-20)
(1.18276 0.242009 -7.51868e-20)
(1.22426 0.25525 1.9486e-19)
(1.25363 0.264457 -9.71981e-20)
(1.27342 0.270269 -4.26361e-19)
(1.28596 0.27335 4.23512e-19)
(1.29325 0.274317 -1.90418e-19)
(1.29689 0.273679 1.51943e-19)
(1.2982 0.271944 2.62858e-19)
(1.29835 0.270016 1.07786e-19)
(0.0260793 -0.00269809 2.05387e-19)
(0.115334 -0.00400621 -4.23237e-19)
(0.234401 0.00892924 8.09559e-20)
(0.372789 0.0321165 -5.87544e-20)
(0.520169 0.0626947 -2.3697e-19)
(0.666606 0.0977594 -1.85871e-19)
(0.803555 0.134111 -3.65604e-20)
(0.924818 0.168877 -3.30973e-19)
(1.02693 0.19993 -2.01172e-20)
(1.10898 0.226018 -6.1403e-20)
(1.17198 0.246688 -1.66483e-19)
(1.21822 0.262102 -3.70295e-20)
(1.25057 0.272817 -1.27164e-19)
(1.27199 0.279585 -2.11694e-19)
(1.28521 0.283199 2.16426e-19)
(1.29254 0.284398 2.95518e-20)
(1.29584 0.28381 5.88598e-20)
(1.29653 0.281924 -2.4835e-19)
(1.29572 0.279231 -6.39943e-21)
(1.29439 0.276456 -3.81645e-19)
(0.0352636 -0.0028303 2.25079e-19)
(0.142462 -0.00188889 1.50134e-19)
(0.27804 0.0158178 -2.42115e-19)
(0.430055 0.0447542 3.78027e-19)
(0.586737 0.0808633 -4.07861e-20)
(0.737297 0.120344 1.41109e-19)
(0.873225 0.159462 4.88335e-20)
(0.989173 0.195226 1.72791e-19)
(1.08301 0.225731 -1.35295e-19)
(1.15525 0.250134 4.4992e-20)
(1.20818 0.268443 -4.31683e-20)
(1.24499 0.28123 -1.88737e-20)
(1.2691 0.289359 3.60096e-20)
(1.28372 0.293774 -6.61866e-20)
(1.29156 0.295366 -2.02386e-20)
(1.2948 0.294898 -6.19741e-20)
(1.29509 0.292974 -1.00633e-19)
(1.29364 0.290038 6.50333e-20)
(1.29136 0.286557 -8.87895e-20)
(1.28904 0.283107 3.8374e-19)
(0.0455252 -0.00238294 -1.12358e-19)
(0.171825 0.00197096 -3.1835e-19)
(0.323991 0.0253758 -4.23618e-20)
(0.488634 0.0605609 -1.15688e-20)
(0.652712 0.102175 -1.42561e-19)
(0.804996 0.145568 -2.33966e-19)
(0.937536 0.186645 7.64978e-20)
(1.04629 0.222513 -1.05098e-19)
(1.13071 0.251671 -1.17595e-19)
(1.19281 0.273801 6.5422e-20)
(1.236 0.289406 -4.93921e-20)
(1.2642 0.299442 -9.97194e-20)
(1.28115 0.305027 -3.20769e-21)
(1.29011 0.307237 6.75157e-20)
(1.29367 0.307004 -6.85702e-20)
(1.29378 0.305073 9.52131e-20)
(1.29186 0.301998 2.56815e-20)
(1.2889 0.298169 6.43759e-20)
(1.28562 0.294028 1.25019e-19)
(1.28266 0.290018 -1.06996e-19)
(0.0568041 -0.00123991 1.07301e-19)
(0.203107 0.00779977 -9.44352e-21)
(0.371587 0.0377889 4.81778e-20)
(0.547502 0.0795662 -6.5343e-20)
(0.71686 0.126456 5.41967e-21)
(0.868503 0.173089 2.26548e-19)
(0.995585 0.215238 -1.48752e-19)
(1.09574 0.250341 6.29265e-20)
(1.17015 0.277461 5.5433e-20)
(1.22224 0.296872 -1.5562e-19)
(1.25637 0.309566 1.46077e-19)
(1.27695 0.316836 1.30418e-21)
(1.28786 0.319987 -1.02586e-19)
(1.29225 0.320167 1.23587e-19)
(1.29249 0.3183 -4.89213e-20)
(1.29027 0.315083 3.73784e-20)
(1.28676 0.311007 -4.18532e-20)
(1.28276 0.306402 -1.67633e-20)
(1.27882 0.301692 -1.45639e-19)
(1.27544 0.297192 4.45548e-20)
(0.0690047 0.000709224 -3.61476e-20)
(0.235912 0.0157881 9.70667e-20)
(0.420073 0.0531701 1.5146e-20)
(0.605614 0.101705 6.34623e-20)
(0.778035 0.153448 3.0271e-20)
(0.92684 0.202522 1.4192e-20)
(1.04678 0.244836 8.03397e-20)
(1.13742 0.278376 -9.75182e-21)
(1.2017 0.302892 3.53467e-20)
(1.24427 0.319272 5.67264e-20)
(1.27024 0.328962 2.73171e-20)
(1.28427 0.333528 1.95819e-20)
(1.29022 0.334393 7.9337e-20)
(1.291 0.33272 -7.67646e-20)
(1.28872 0.32939 1.64547e-20)
(1.2848 0.325033 -1.53378e-20)
(1.28018 0.320066 2.38008e-20)
(1.27549 0.314768 1.99116e-20)
(1.27113 0.309548 4.14321e-20)
(1.2675 0.304593 1.73671e-21)
(0.0819967 0.003564 2.14339e-20)
(0.26977 0.0260795 1.95718e-20)
(0.468642 0.0715512 -2.70947e-20)
(0.661944 0.12682 1.69285e-20)
(0.835231 0.182828 9.55339e-21)
(0.979265 0.233466 -2.97293e-20)
(1.09081 0.275062 9.79478e-21)
(1.17149 0.306342 1.77638e-21)
(1.22588 0.327814 1.68591e-20)
(1.2597 0.340973 -4.51757e-20)
(1.27851 0.347657 -1.27188e-22)
(1.28706 0.349629 1.2471e-20)
(1.28901 0.348367 -9.93757e-21)
(1.28702 0.345006 1.00546e-20)
(1.28287 0.340357 2.61513e-20)
(1.27775 0.334972 -1.48463e-20)
(1.27238 0.329196 4.15335e-21)
(1.26725 0.32326 1.62144e-20)
(1.26265 0.317564 -2.66932e-20)
(1.25887 0.312167 1.28241e-20)
(0.0810028 -0.00351948 5.60415e-20)
(0.266314 -0.0257991 -3.07921e-20)
(0.462659 -0.0708696 3.63365e-20)
(0.653793 -0.125779 -2.7054e-20)
(0.825544 -0.18159 -1.22254e-20)
(0.968743 -0.232233 3.76636e-21)
(1.08005 -0.27401 -1.20826e-20)
(1.16093 -0.305587 4.36547e-20)
(1.21576 -0.327409 -3.64818e-20)
(1.25011 -0.340919 8.31871e-21)
(1.26945 -0.347922 -6.43362e-21)
(1.27848 -0.350167 -4.20482e-20)
(1.28084 -0.349132 4.09037e-20)
(1.27918 -0.345954 1.58118e-20)
(1.27532 -0.341455 -1.5206e-20)
(1.27042 -0.336195 3.64758e-20)
(1.26525 -0.330528 -4.62663e-22)
(1.26029 -0.324689 -3.54175e-20)
(1.25584 -0.31908 2.59359e-20)
(1.25221 -0.31377 8.60535e-21)
(0.0681651 -0.000694914 -2.00867e-20)
(0.232803 -0.0156164 5.44145e-20)
(0.414495 -0.0526572 6.36175e-20)
(0.597791 -0.100852 -3.07536e-20)
(0.768505 -0.152379 5.31495e-20)
(0.916271 -0.201415 8.6167e-20)
(1.0358 -0.243865 -4.845e-21)
(1.12651 -0.277674 -1.54113e-20)
(1.19116 -0.302529 7.64181e-20)
(1.23427 -0.319269 3.77246e-20)
(1.2608 -0.3293 -7.03193e-21)
(1.27535 -0.334166 5.72867e-20)
(1.28176 -0.335283 -6.12643e-20)
(1.28292 -0.333818 9.80998e-20)
(1.28096 -0.330657 -1.59878e-20)
(1.2773 -0.32644 4.86268e-20)
(1.2729 -0.321593 9.4682e-21)
(1.26839 -0.316399 3.4573e-20)
(1.26419 -0.311272 -3.24616e-20)
(1.2607 -0.306407 9.01668e-21)
(0.0561194 0.00123494 -2.97935e-20)
(0.200365 -0.00771312 6.51953e-20)
(0.366464 -0.0374207 4.86048e-20)
(0.54009 -0.0788854 -7.75019e-21)
(0.707585 -0.125547 8.12199e-20)
(0.857976 -0.172102 -6.39643e-20)
(0.984437 -0.21434 -6.66065e-21)
(1.0845 -0.249673 5.77151e-20)
(1.15919 -0.277114 1.93057e-20)
(1.21177 -0.296885 2.67519e-20)
(1.24648 -0.309936 -3.93361e-20)
(1.26763 -0.317533 1.09742e-19)
(1.27905 -0.320967 2.12011e-20)
(1.28388 -0.321383 -9.63885e-20)
(1.28448 -0.319711 1.48094e-19)
(1.28256 -0.316654 -1.74964e-19)
(1.2793 -0.312712 -8.2928e-20)
(1.2755 -0.308222 1.4304e-20)
(1.27174 -0.303614 7.96845e-20)
(1.26851 -0.299211 -1.50642e-19)
(0.0449928 0.00236949 -6.25388e-20)
(0.169461 -0.00194434 -1.46837e-19)
(0.319367 -0.0251249 -1.29385e-19)
(0.481711 -0.0600316 -1.76795e-19)
(0.643796 -0.101415 -1.05016e-19)
(0.794617 -0.144697 -2.23009e-19)
(0.926306 -0.185813 2.83918e-20)