/*--------------------------------*- C++ -*----------------------------------*\
  =========                 |
  \\      /  F ield         | OpenFOAM: The Open Source CFD Toolbox
   \\    /   O peration     | Website:  https://openfoam.org
    \\  /    A nd           | Version:  6.0
     \\/     M anipulation  |
\*---------------------------------------------------------------------------*/
FoamFile
{
    version     2.0;
    format      ascii;
    class       surfaceScalarField;
    location    "58";
    object      phi;
}
// * * * * * * * * * * * * * * * * * * * * * * * * * * * * * * * * * * * * * //

dimensions      [0 3 -1 0 0 0 0];

internalField   nonuniform List<scalar> 
15760
(
-2.29012e-06
8.86859e-06
-6.57847e-06
-8.16163e-06
2.03674e-05
-1.44959e-05
-1.67508e-05
2.73255e-05
-1.87364e-05
-2.73147e-05
3.0975e-05
-2.04111e-05
-3.92368e-05
3.22816e-05
-2.03596e-05
-5.20212e-05
3.19904e-05
-1.92059e-05
-6.52849e-05
3.06667e-05
-1.7403e-05
-7.87468e-05
2.87328e-05
-1.52708e-05
-9.22183e-05
2.65003e-05
-1.30288e-05
-0.000105593
2.4197e-05
-1.08223e-05
-0.000118837
2.19887e-05
-8.74433e-06
-0.000131982
1.99955e-05
-6.85092e-06
-0.000145112
1.83036e-05
-5.17354e-06
-0.000158358
1.69736e-05
-3.72724e-06
-0.000171888
1.60457e-05
-2.51611e-06
-0.000185894
1.55423e-05
-1.53646e-06
-0.000200585
1.54689e-05
-7.7786e-07
-0.000216176
1.58152e-05
-2.24341e-07
-0.00023288
1.65655e-05
1.38244e-07
1.77057e-05
3.21279e-07
-0.000250907
-2.28432e-06
1.11529e-05
-8.14739e-06
2.62304e-05
-1.67305e-05
3.59086e-05
-2.72924e-05
4.15369e-05
-3.92146e-05
4.42038e-05
-5.19976e-05
4.47734e-05
-6.52523e-05
4.39214e-05
-7.86906e-05
4.2171e-05
-9.21157e-05
3.99254e-05
-0.000105413
3.74948e-05
-0.000118543
3.51185e-05
-0.00013153
3.29822e-05
-0.000144456
3.12295e-05
-0.000157452
2.99699e-05
-0.00017069
2.92832e-05
-0.00018437
2.92224e-05
-0.000198714
2.98132e-05
-0.000213954
3.10551e-05
-0.000230322
3.29338e-05
3.54366e-05
-0.000248053
-2.2846e-06
1.34375e-05
-8.14736e-06
3.20932e-05
-1.67271e-05
4.44884e-05
-2.72784e-05
5.20881e-05
-3.91763e-05
5.61018e-05
-5.19124e-05
5.75095e-05
-6.50864e-05
5.70953e-05
-7.83969e-05
5.54815e-05
-9.16325e-05
5.3161e-05
-0.000104664
5.05259e-05
-0.000117435
4.78899e-05
-0.000129959
4.55061e-05
-0.000142308
4.3579e-05
-0.00015461
4.22716e-05
-0.000167037
4.17099e-05
-0.000179799
4.19842e-05
-0.000193133
4.31479e-05
-0.000207295
4.52169e-05
-0.000222546
4.8185e-05
5.20452e-05
-0.000239155
-2.2896e-06
1.57271e-05
-8.15623e-06
3.79598e-05
-1.67298e-05
5.3062e-05
-2.7256e-05
6.26143e-05
-3.90998e-05
6.79455e-05
-5.17398e-05
7.01496e-05
-6.47602e-05
7.01157e-05
-7.78411e-05
6.85623e-05
-9.07497e-05
6.60697e-05
-0.000103334
6.311e-05
-0.000115515
6.00713e-05
-0.000127285
5.72761e-05
-0.0001387
5.49935e-05
-0.000149875
5.34464e-05
-0.00016098
5.28152e-05
-0.000172233
5.32376e-05
-0.000183891
5.48053e-05
-0.000196235
5.75615e-05
-0.000209568
6.15178e-05
6.66814e-05
-0.000224204
-2.29772e-06
1.80248e-05
-8.16785e-06
4.38299e-05
-1.6726e-05
6.16201e-05
-2.72058e-05
7.30942e-05
-3.89596e-05
7.96993e-05
-5.14511e-05
8.2641e-05
-6.42457e-05
8.29103e-05
-7.70005e-05
8.13172e-05
-8.94561e-05
7.85253e-05
-0.00010143
7.5084e-05
-0.000112813
7.14542e-05
-0.000123565
6.80282e-05
-0.000133715
6.51438e-05
-0.00014336
6.30907e-05
-0.000152658
6.21139e-05
-0.000161832
6.24113e-05
-0.000171155
6.41282e-05
-0.000180944
6.73509e-05
-0.00019155
7.21237e-05
7.84807e-05
-0.00020335
-2.30685e-06
2.03317e-05
-8.17416e-06
4.96972e-05
-1.66991e-05
7.01451e-05
-2.71019e-05
8.34969e-05
-3.87216e-05
9.13189e-05
-5.10064e-05
9.49258e-05
-6.35018e-05
9.54058e-05
-7.58396e-05
9.3655e-05
-8.77292e-05
9.04149e-05
-9.89516e-05
8.63065e-05
-0.000109357
8.18597e-05
-0.000118865
7.75361e-05
-0.000127465
7.37439e-05
-0.000135221
7.08464e-05
-0.000142271
6.91643e-05
-0.000148832
6.89719e-05
-0.000155191
7.04876e-05
-0.000161704
7.38636e-05
-0.00016878
7.91995e-05
8.65767e-05
-0.000176876
-2.31401e-06
2.26457e-05
-8.16415e-06
5.55474e-05
-1.66266e-05
7.86076e-05
-2.69081e-05
9.37784e-05
-3.8336e-05
0.000102747
-5.03446e-05
0.000106934
-6.24606e-05
0.000107522
-7.42901e-05
0.000105485
-8.55093e-05
0.000101634
-9.58582e-05
9.66554e-05
-0.000105139
9.11407e-05
-0.000113219
8.56162e-05
-0.000120036
8.05602e-05
-0.000125603
7.6414e-05
-0.000130024
7.35853e-05
-0.000133495
7.24425e-05
-0.00013631
7.33025e-05
-0.00013886
7.64132e-05
-0.000141624
8.19638e-05
9.0115e-05
-0.000145162
-2.31508e-06
2.49608e-05
-8.12299e-06
6.13553e-05
-1.64778e-05
8.69623e-05
-2.65744e-05
0.000103875
-3.77314e-05
0.000113904
-4.93731e-05
0.000118576
-6.10108e-05
0.000119159
-7.22281e-05
0.000116702
-8.26687e-05
0.000112075
-9.203e-05
0.000106017
-0.000100061
9.91722e-05
-0.000106568
9.2123e-05
-0.000111421
8.54126e-05
-0.000114567
7.95608e-05
-0.000116052
7.50702e-05
-0.000116032
7.2422e-05
-0.00011479
7.20603e-05
-0.000112745
7.43689e-05
-0.000110456
7.96744e-05
8.82688e-05
-0.00010861
-2.30476e-06
2.72655e-05
-8.03167e-06
6.70822e-05
-1.62127e-05
9.51434e-05
-2.60337e-05
0.000113696
-3.68091e-05
0.000124679
-4.7958e-05
0.000129725
-5.8983e-05
0.000130184
-6.94506e-05
0.000127169
-7.89774e-05
0.000121601
-8.72209e-05
0.00011426
-9.38768e-05
0.000105828
-9.86831e-05
9.69293e-05
-0.000101431
8.81607e-05
-0.000101985
8.01142e-05
-0.000100304
7.33896e-05
-9.64778e-05
6.85958e-05
-9.07525e-05
6.6335e-05
-8.35593e-05
6.71757e-05
-7.55334e-05
7.16485e-05
8.02554e-05
-6.752e-05
-2.27668e-06
2.95422e-05
-7.86743e-06
7.26729e-05
-1.57829e-05
0.000103059
-2.52026e-05
0.000123116
-3.54411e-05
0.000134918
-4.59192e-05
0.000140203
-5.61379e-05
0.000140403
-6.56559e-05
0.000136687
-7.40716e-05
0.000130017
-8.10111e-05
0.0001212
-8.61222e-05
0.000110939
-8.90769e-05
9.9884e-05
-8.9582e-05
8.86657e-05
-8.74006e-05
7.79328e-05
-8.23855e-05
6.83746e-05
-7.45229e-05
6.07332e-05
-6.3984e-05
5.57962e-05
-5.11795e-05
5.43712e-05
-3.68108e-05
5.72798e-05
6.53522e-05
-2.19077e-05
-2.22396e-06
3.17662e-05
-7.60519e-06
7.80542e-05
-1.51333e-05
0.000110587
-2.39832e-05
0.000131966
-3.3473e-05
0.000144407
-4.30306e-05
0.000149761
-5.21636e-05
0.000149536
-6.0433e-05
0.000144957
-6.74317e-05
0.000137016
-7.27683e-05
0.000126536
-7.6057e-05
0.000114228
-7.69147e-05
0.000100742
-7.4969e-05
8.672e-05
-6.98781e-05
7.28419e-05
-6.13678e-05
5.98642e-05
-4.92876e-05
4.8653e-05
-3.36863e-05
4.01949e-05
-1.49033e-05
3.55882e-05
6.32728e-06
3.60493e-05
4.2905e-05
2.87745e-05
-2.13998e-06
3.39061e-05
-7.21993e-06
8.31341e-05
-1.42071e-05
0.000117574
-2.22704e-05
0.000140029
-3.07321e-05
0.000152869
-3.90299e-05
0.000158058
-4.66838e-05
0.00015719
-5.32666e-05
0.00015154
-5.83793e-05
0.000142129
-6.16312e-05
0.000129788
-6.26241e-05
0.000115221
-6.09435e-05
9.90612e-05
-5.61587e-05
8.19352e-05
-4.78363e-05
6.45194e-05
-3.55733e-05
4.76013e-05
-1.90592e-05
3.21388e-05
1.82874e-06
1.9307e-05
2.68905e-05
1.05264e-05
5.54242e-05
7.51551e-06
1.23211e-05
8.60081e-05
-2.0195e-06
3.59256e-05
-6.68989e-06
8.78045e-05
-1.29511e-05
0.000123835
-1.99608e-05
0.000147039
-2.70408e-05
0.000159949
-3.36363e-05
0.000164654
-3.92803e-05
0.000162834
-4.35625e-05
0.000155822
-4.61028e-05
0.000144669
-4.65289e-05
0.000130214
-4.44562e-05
0.000113148
-3.94724e-05
9.40774e-05
-3.11275e-05
7.35903e-05
-1.89348e-05
5.23267e-05
-2.39148e-06
3.1058e-05
1.89684e-05
1.07789e-05
4.54704e-05
-7.19498e-06
7.71284e-05
-2.11316e-05
0.000113376
-2.87317e-05
-2.69653e-05
0.000152662
-1.85962e-06
3.77852e-05
-5.99962e-06
9.19445e-05
-1.13227e-05
0.000129158
-1.69638e-05
0.00015268
-2.22337e-05
0.000165219
-2.65757e-05
0.000168996
-2.95283e-05
0.000165787
-3.06946e-05
0.000156988
-2.9716e-05
0.00014369
-2.62497e-05
0.000126748
-1.9948e-05
0.000106846
-1.04379e-05
8.45673e-05
2.69716e-06
6.04553e-05
1.99314e-05
3.50924e-05
4.17987e-05
9.19066e-06
6.88644e-05
-1.62868e-05
0.00010164
-3.99706e-05
0.000140404
-5.98952e-05
0.000184854
-7.31821e-05
-7.55744e-05
0.000233463
-1.66052e-06
3.94458e-05
-5.14217e-06
9.54261e-05
-9.29382e-06
0.00013331
-1.32104e-05
0.000156597
-1.61738e-05
0.000168182
-1.76072e-05
0.000170429
-1.70375e-05
0.000165217
-1.40659e-05
0.000154016
-8.34433e-06
0.000137969
4.4281e-07
0.000117961
1.25965e-05
9.46927e-05
2.84213e-05
6.87426e-05
4.82466e-05
4.06299e-05
7.24523e-05
1.08868e-05
0.000101493
-1.98504e-05
0.000135912
-5.07052e-05
0.000176302
-8.03605e-05
0.000223175
-0.000106769
0.000276611
-0.000126617
-0.000134319
0.000335356
-1.42542e-06
4.08712e-05
-4.1191e-06
9.81198e-05
-6.8526e-06
0.000136043
-8.65703e-06
0.000158401
-8.76085e-06
0.000168286
-6.54126e-06
0.00016821
-1.4861e-06
0.000160162
6.83353e-06
0.000145697
1.87815e-05
0.000126021
3.46687e-05
0.000102074
5.47612e-05
7.46001e-05
7.929e-05
4.42138e-05
0.000108464
1.14558e-05
0.000142495
-2.31436e-05
0.000181631
-5.89866e-05
0.000226209
-9.52835e-05
0.000276688
-0.00013084
0.000333628
-0.000163708
0.000397471
-0.00019046
-0.00020438
0.000467531
-1.15952e-06
4.20307e-05
-2.9376e-06
9.98979e-05
-3.99806e-06
0.000137104
-3.27957e-06
0.000157682
7.25108e-08
0.000164934
6.75912e-06
0.000161523
1.73668e-05
0.000149554
3.23927e-05
0.000130671
5.22575e-05
0.000106156
7.73082e-05
7.70229e-05
0.000107815
4.40936e-05
0.000143963
8.06545e-06
0.000185851
-3.04317e-05
0.000233489
-7.07821e-05
0.000286828
-0.000112325
0.000345807
-0.000154263
0.000410444
-0.000195477
0.000480933
-0.000234197
0.000557714
-0.000267242
-0.000287548
0.000640882
-8.67927e-07
4.28986e-05
-1.60437e-06
0.000100634
-7.29469e-07
0.000136229
2.94249e-06
0.00015401
1.03816e-05
0.000157495
2.24019e-05
0.000149503
3.97026e-05
0.000132253
6.28921e-05
0.000107481
9.24951e-05
7.65529e-05
0.000128947
4.05705e-05
0.00017258
4.60595e-07
0.000223597
-4.29508e-05
0.00028204
-8.88751e-05
0.000347765
-0.000136507
0.000420415
-0.000184975
0.000499425
-0.000233274
0.000584089
-0.000280141
0.000673681
-0.000323789
0.000767754
-0.000361315
-0.000387074
0.000867281
-5.52869e-07
4.34515e-05
-1.17373e-07
0.000100199
2.96937e-06
0.000133142
1.00504e-05
0.00014693
2.22435e-05
0.000145302
4.05095e-05
0.000131237
6.56961e-05
0.000107067
9.85606e-05
7.46167e-05
0.000139774
3.53393e-05
0.000189911
-9.56605e-06
0.000249424
-5.90527e-05
0.000318614
-0.00011214
0.000397579
-0.00016784
0.000486158
-0.000225086
0.000583846
-0.000282663
0.000689699
-0.000339127
0.000802236
-0.000392679
0.000919346
-0.000440898
0.00103845
-0.000480417
-0.000509204
0.00116058
-2.10701e-07
4.36622e-05
1.54293e-06
9.84452e-05
7.14654e-06
0.000127539
1.81322e-05
0.000135944
3.57949e-05
0.000127639
6.12699e-05
0.000105762
9.55784e-05
7.27584e-05
0.000139649
3.05464e-05
0.000194317
-1.93293e-05
0.000260316
-7.5565e-05
0.000338253
-0.000136989
0.000428586
-0.000202473
0.0005316
-0.000270854
0.000647373
-0.000340859
0.000775735
-0.000411025
0.000916175
-0.000479567
0.00106763
-0.000544129
0.00122768
-0.000600949
0.00138966
-0.000642405
-0.000652515
0.00153297
1.69571e-07
4.34926e-05
3.41888e-06
9.51959e-05
1.1893e-05
0.000119065
2.73413e-05
0.000120496
5.12593e-05
0.000103721
8.4973e-05
7.20483e-05
0.000129683
2.80484e-05
0.000186479
-2.625e-05
0.000256336
-8.91857e-05
0.000340094
-0.000159323
0.000438445
-0.000235341
0.000551932
-0.00031596
0.000680961
-0.000399883
0.000825878
-0.000485775
0.000987107
-0.000572254
0.00116544
-0.000657906
0.0013626
-0.000741283
0.00158248
-0.000820827
0.00183519
-0.000895118
-0.000960304
0.00214298
6.0971e-07
4.28829e-05
5.58187e-06
9.02237e-05
1.73509e-05
0.000107295
3.79052e-05
9.99414e-05
6.8955e-05
7.26712e-05
0.000112017
2.89862e-05
0.00016845
-2.83847e-05
0.000239455
-9.72546e-05
0.000326052
-0.000175783
0.000429052
-0.000262323
0.000549034
-0.000355323
0.000686336
-0.000453262
0.000841081
-0.000554629
0.00101325
-0.000657941
0.00120278
-0.000761791
0.00140981
-0.000864934
0.00163493
-0.000966401
0.00187972
-0.00106562
0.00214703
-0.00116243
-0.00124932
0.00243604
1.13715e-06
4.17458e-05
8.12189e-06
8.3239e-05
2.3697e-05
9.17204e-05
5.01021e-05
7.35363e-05
8.92616e-05
3.35117e-05
0.000142861
-2.46128e-05
0.00021236
-9.78843e-05
0.000298973
-0.000183868
0.000403618
-0.000280428
0.00052687
-0.000385575
0.000668925
-0.000497378
0.00082959
-0.000613926
0.0010083
-0.000733342
0.00120419
-0.00085383
0.00141616
-0.000973757
0.00164297
-0.00109175
0.00188335
-0.00120678
0.002136
-0.00131827
0.00239947
-0.00142589
-0.00152153
0.00267168
1.78476e-06
3.9961e-05
1.11423e-05
7.38815e-05
3.11275e-05
7.17352e-05
6.42288e-05
4.0435e-05
0.000112563
-1.48224e-05
0.000177929
-8.99788e-05
0.000261792
-0.000181747
0.000365225
-0.000287301
0.000488839
-0.000404041
0.000632715
-0.000529452
0.000796376
-0.000661039
0.000978784
-0.000796334
0.00117839
-0.000932951
0.00139323
-0.00106867
0.00162099
-0.00120152
0.00185914
-0.00132989
0.00210495
-0.00145259
0.00235556
-0.00156888
0.00260797
-0.00167831
-0.0017742
0.00286064
2.58597e-06
3.7375e-05
1.47451e-05
6.17223e-05
3.98288e-05
4.66515e-05
8.05498e-05
-2.85938e-07
0.000139165
-7.34375e-05
0.000217491
-0.000168305
0.000316845
-0.000281101
0.000437952
-0.000408408
0.000580854
-0.000546944
0.000744854
-0.000693452
0.00092851
-0.000844694
0.00112969
-0.000997519
0.00134571
-0.00114896
0.00157343
-0.00129639
0.00180947
-0.00143756
0.00205033
-0.00157075
0.00229251
-0.00169478
0.00253258
-0.00180894
0.0027673
-0.00191302
-0.00200236
0.00299546
3.57066e-06
3.38044e-05
1.90177e-05
4.62753e-05
4.99485e-05
1.57207e-05
9.92465e-05
-4.95839e-05
0.000169216
-0.000143407
0.000261542
-0.000260631
0.000377184
-0.000396743
0.000516253
-0.000547478
0.00067793
-0.00070862
0.000860447
-0.000875969
0.00106117
-0.00104542
0.00127674
-0.00121309
0.00150332
-0.00137554
0.00173679
-0.00152986
0.00197304
-0.0016738
0.00220811
-0.00180583
0.00243841
-0.00192508
0.00266075
-0.00203129
0.00287248
-0.00212475
-0.00220286
0.00307298
4.76182e-06
2.90425e-05
2.40207e-05
2.70164e-05
6.1571e-05
-2.18295e-05
0.000120375
-0.000108388
0.000202642
-0.000225674
0.000309719
-0.000367708
0.000441938
-0.000528963
0.000598494
-0.000704033
0.000777408
-0.000887533
0.00097561
-0.00107417
0.00118915
-0.00125896
0.00141348
-0.00143742
0.00164381
-0.00160587
0.00187541
-0.00176146
0.00210392
-0.00190232
0.00232557
-0.00202747
0.00253724
-0.00213676
0.00273661
-0.00223065
0.00292206
-0.0023102
-0.00237454
0.00309374
6.17364e-06
2.28689e-05
2.97814e-05
3.40861e-06
7.47012e-05
-6.67494e-05
0.000143839
-0.000177525
0.00023911
-0.000320945
0.000361259
-0.000489857
0.000509679
-0.000677383
0.000682336
-0.000876691
0.000875845
-0.00108104
0.00108571
-0.00128404
0.00130672
-0.00147996
0.00153337
-0.00166407
0.00176032
-0.00183281
0.00198274
-0.00198388
0.00219663
-0.0021162
0.00239889
-0.00222974
0.00258743
-0.00232529
0.00276106
-0.00240429
0.00291942
-0.00246856
-0.00251863
0.00306352
7.81091e-06
1.5058e-05
3.62897e-05
-2.50702e-05
8.92575e-05
-0.000119717
0.000169377
-0.000257645
0.000278017
-0.000429585
0.000415004
-0.000626844
0.000578469
-0.000840847
0.000764878
-0.0010631
0.000969301
-0.00128547
0.00118587
-0.00150061
0.00140835
-0.00170245
0.00163072
-0.00188644
0.00184761
-0.00204971
0.0020547
-0.00219097
0.00224882
-0.00231032
0.00242801
-0.00240892
0.00259138
-0.00248867
0.002739
-0.00255191
0.00287161
-0.00260116
-0.00263798
0.00299096
9.6693e-06
5.38869e-06
4.34986e-05
-5.88995e-05
0.00010507
-0.000181289
0.000196566
-0.000349141
0.000318503
-0.000551521
0.000469454
-0.000777795
0.000645985
-0.00101738
0.000842893
-0.00126001
0.00105373
-0.0014963
0.0012715
-0.00171838
0.00148939
-0.00192034
0.00170141
-0.00209845
0.00190276
-0.00225106
0.00209009
-0.0023783
0.00226145
-0.00248169
0.00241618
-0.00256365
0.00255463
-0.00262711
0.00267789
-0.00267517
0.00278755
-0.00271083
-0.00273627
0.00288584
1.17359e-05
-6.34721e-06
5.13248e-05
-9.84885e-05
0.000121885
-0.000251848
0.000224831
-0.000452087
0.000359488
-0.000686178
0.000522847
-0.000941154
0.00070969
-0.00120422
0.000913122
-0.00146344
0.0011254
-0.00170858
0.00133883
-0.00193182
0.00154661
-0.00212812
0.00174334
-0.00229518
0.0019253
-0.00243301
0.00209042
-0.00254343
0.00223814
-0.0026294
0.002369
-0.00269451
0.00248438
-0.00274249
0.00258612
-0.00277691
0.00267628
-0.00280099
-0.00281723
0.00275724
1.39895e-05
-2.03367e-05
5.96503e-05
-0.000144149
0.000139368
-0.000331566
0.000253464
-0.000566183
0.000399723
-0.000832438
0.000573279
-0.00111471
0.000767041
-0.00139798
0.00097259
-0.00166899
0.00118129
-0.00191728
0.00138535
-0.00213587
0.00157851
-0.00232129
0.00175651
-0.00247317
0.00191698
-0.00259349
0.0020593
-0.00268575
0.00218415
-0.00275425
0.00229308
-0.00280344
0.00238817
-0.00283758
0.00247165
-0.0028604
0.00254575
-0.00287508
-0.0028842
0.00261272
1.64004e-05
-3.67371e-05
6.83238e-05
-0.000196073
0.000157116
-0.000420358
0.000281655
-0.000690722
0.000437863
-0.000988646
0.000618843
-0.00129569
0.000815712
-0.00159485
0.00101888
-0.00187216
0.00121938
-0.00211778
0.00140989
-0.00232637
0.00158527
-0.00249667
0.00174265
-0.00263056
0.00188118
-0.00273202
0.00200152
-0.0028061
0.0021054
-0.00285812
0.00219504
-0.00289309
0.00227288
-0.00291542
0.00234127
-0.00292878
0.00240232
-0.00293613
-0.0029399
0.00245802
1.89305e-05
-5.56676e-05
7.71634e-05
-0.000254306
0.000174669
-0.000517864
0.00030853
-0.000824584
0.000472551
-0.00115267
0.000657773
-0.00148091
0.000853787
-0.00179087
0.00105034
-0.00206871
0.00123874
-0.00230618
0.00141267
-0.0025003
0.00156844
-0.00265244
0.00170475
-0.00276686
0.0018221
-0.00284937
0.00192225
-0.00290625
0.00200761
-0.00294347
0.00208077
-0.00296626
0.00214425
-0.0029789
0.00220027
-0.0029848
0.00225071
-0.00298658
-0.00298641
0.00229722
2.15331e-05
-7.72006e-05
8.59602e-05
-0.000318733
0.000191524
-0.000623428
0.000333197
-0.000966257
0.00050251
-0.00132198
0.000688584
-0.00166699
0.000879912
-0.00198219
0.00106617
-0.00225498
0.00123951
-0.00247951
0.00139501
-0.00265581
0.00153061
-0.00278804
0.00164645
-0.0028827
0.00174422
-0.00294714
0.00182642
-0.00298845
0.00189583
-0.00301288
0.00195514
-0.00302557
0.00200673
-0.00303049
0.00205257
-0.00303064
0.00209425
-0.00302826
-0.00302522
0.00213306
2.41533e-05
-0.000101354
9.44849e-05
-0.000389064
0.000207165
-0.000736108
0.000354799
-0.00111389
0.000526634
-0.00149381
0.000710178
-0.00185053
0.000893366
-0.00216538
0.0010664
-0.00242801
0.00122271
-0.00263582
0.00135903
-0.00279213
0.00147485
-0.00290386
0.00157159
-0.00297944
0.00165177
-0.00302732
0.00171834
-0.00305502
0.0017742
-0.00306874
0.00182191
-0.00307328
0.00186359
-0.00307217
0.00190092
-0.00306797
0.00193517
-0.00306251
-0.00305737
0.00196732
2.67299e-05
-0.000128084
0.000102497
-0.000464831
0.000221084
-0.000854695
0.000372571
-0.00126538
0.000544066
-0.00166531
0.000721902
-0.00202837
0.000894055
-0.00233754
0.00105176
-0.00258572
0.00119004
-0.0027741
0.00130729
-0.00290938
0.0014044
-0.00300096
0.00148377
-0.00305881
0.00154847
-0.00309202
0.00160161
-0.00310816
0.00164598
-0.00311311
0.0016839
-0.0031112
0.00171719
-0.00310545
0.0017472
-0.00309798
0.00177494
-0.00309025
-0.00308356
0.00180113
2.91968e-05
-0.000157281
0.000109756
-0.000545391
0.000232814
-0.000977753
0.000385888
-0.00141845
0.000554237
-0.00183366
0.000723562
-0.00219769
0.000882436
-0.00249641
0.00102352
-0.00272681
0.00114356
-0.00289413
0.00124248
-0.0030083
0.00132234
-0.00308083
0.00138622
-0.00312269
0.00143743
-0.00314323
0.00147904
-0.00314977
0.0015136
-0.00314768
0.00154313
-0.00314072
0.00156912
-0.00313144
0.00159265
-0.00312151
0.0016145
-0.0031121
-0.00310422
0.00163517
3.14862e-05
-0.000188767
0.000116032
-0.000629937
0.000241951
-0.00110367
0.000394296
-0.0015708
0.000556891
-0.00199625
0.000715374
-0.00235617
0.000859398
-0.00264043
0.000983289
-0.0028507
0.00108546
-0.00299631
0.00116722
-0.00309006
0.00123146
-0.00314506
0.00128165
-0.00317288
0.00132113
-0.00318272
0.00135278
-0.00318141
0.00137885
-0.00317374
0.00140101
-0.00316289
0.00142048
-0.00315091
0.0014381
-0.00313913
0.00145444
-0.00312844
-0.00311965
0.00146987
3.35315e-05
-0.000222298
0.000121121
-0.000717526
0.000248182
-0.00123073
0.000397533
-0.00172015
0.000552068
-0.00215079
0.000697903
-0.00250201
0.000826127
-0.00276866
0.000932819
-0.00295739
0.00101794
-0.00308143
0.00108388
-0.003156
0.00113412
-0.0031953
0.00117225
-0.00321101
0.0012015
-0.00321197
0.00122444
-0.00320435
0.00124299
-0.00319229
0.00125853
-0.00317842
0.00127201
-0.00316439
0.00128407
-0.0031512
0.00129515
-0.00313953
-0.00312999
0.0013055
3.5274e-05
-0.000257572
0.000124858
-0.00080711
0.000251302
-0.00135718
0.000395543
-0.00186439
0.000540079
-0.00229532
0.000671978
-0.00263391
0.000783992
-0.00288067
0.000873912
-0.00304731
0.000943043
-0.00315056
0.000994577
-0.00320753
0.0010323
-0.00323302
0.00105979
-0.00323851
0.00108001
-0.00323218
0.00109519
-0.00321953
0.00110694
-0.00320405
0.00111637
-0.00318785
0.0011242
-0.00317222
0.00113094
-0.00315794
0.0011369
-0.00314549
-0.00313535
0.00114226
3.66518e-05
-0.000294224
0.000127098
-0.000897556
0.000251186
-0.00148127
0.000388406
-0.00200161
0.000521397
-0.00242831
0.000638546
-0.00275106
0.000734365
-0.00297649
0.00080823
-0.00312118
0.000862534
-0.00320487
0.000901016
-0.00324602
0.000927567
-0.00325957
0.000945582
-0.00325652
0.000957706
-0.00324431
0.000965848
-0.00322768
0.000971314
-0.00320951
0.000974968
-0.0031915
0.000977383
-0.00317463
0.000978935
-0.00315949
0.000979863
-0.00314642
-0.00313577
0.000980282
3.76219e-05
-0.000331846
0.000127764
-0.000987698
0.000247838
-0.00160134
0.000376389
-0.00213016
0.00049668
-0.00254861
0.000598675
-0.00285305
0.000678636
-0.00305645
0.000737331
-0.00317987
0.000777989
-0.00324553
0.000804657
-0.00327268
0.000821167
-0.00327608
0.000830646
-0.003266
0.000835402
-0.00324906
0.000837024
-0.0032293
0.000836556
-0.00320904
0.000834671
-0.00318962
0.000831807
-0.00317177
0.000828252
-0.00315594
0.000824187
-0.00314235
-0.00313127
0.000819693
3.81485e-05
-0.000369995
0.000126816
-0.00107637
0.000241347
-0.00171587
0.000359862
-0.00224867
0.000466659
-0.0026554
0.000553429
-0.00293982
0.000618089
-0.00312111
0.000662576
-0.00322436
0.00069071
-0.00327366
0.000706657
-0.00328863
0.000714065
-0.00328349
0.000715747
-0.00326768
0.000713675
-0.00324699
0.000709149
-0.00322477
0.000702989
-0.00320288
0.000695713
-0.00318234
0.000687654
-0.00316371
0.000679038
-0.00314732
0.000670003
-0.00313332
-0.00312188
0.000660608
3.82078e-05
-0.000408202
0.00012426
-0.00116242
0.000231883
-0.00182349
0.000339276
-0.00235607
0.000432106
-0.00274823
0.000503835
-0.00301155
0.000553887
-0.00317116
0.000585134
-0.00325561
0.000601772
-0.0032903
0.000607929
-0.00329479
0.000606996
-0.00328256
0.000601449
-0.00326213
0.000592947
-0.00323849
0.000582533
-0.00321436
0.000570844
-0.00319119
0.00055827
-0.00316977
0.000545069
-0.00315051
0.000531416
-0.00313367
0.000517423
-0.00311932
-0.00310759
0.000503134
3.77881e-05
-0.00044599
0.000120144
-0.00124477
0.000219673
-0.00192302
0.000315134
-0.00245153
0.000393787
-0.00282689
0.000450846
-0.00306861
0.00048705
-0.00320737
0.000505986
-0.00327454
0.000512038
-0.00329635
0.000509185
-0.00329193
0.000500514
-0.00327389
0.000488169
-0.00324979
0.000473523
-0.00322384
0.000457402
-0.00319824
0.00044029
-0.00317408
0.00042248
-0.00315196
0.000404167
-0.0031322
0.000385492
-0.00311499
0.000366547
-0.00310038
-0.00308841
0.000347373
3.68891e-05
-0.00048288
0.000114548
-0.00132243
0.000204992
-0.00201347
0.000287953
-0.00253449
0.000352441
-0.00289137
0.000395324
-0.00311149
0.000418461
-0.0032305
0.000425946
-0.00328203
0.0004222
-0.00329261
0.000410977
-0.00328071
0.000395036
-0.00325795
0.000376213
-0.00323096
0.000355627
-0.00320326
0.000333922
-0.00317653
0.000311459
-0.00315162
0.000288451
-0.00312895
0.000265046
-0.00310879
0.000241356
-0.0030913
0.000217466
-0.00307649
-0.00306437
0.000193417
3.55212e-05
-0.000518401
0.000107581
-0.00139449
0.000188139
-0.00209403
0.000258255
-0.0026046
0.000308753
-0.00294187
0.000338032
-0.00314077
0.000348867
-0.00324134
0.000345677
-0.00327884
0.000332806
-0.00327973
0.000313727
-0.00326163
0.000290878
-0.0032351
0.000265808
-0.00320589
0.000239423
-0.00317687
0.000212218
-0.00314933
0.000184451
-0.00312385
0.000156271
-0.00310077
0.000127786
-0.00308031
9.90894e-05
-0.00306261
7.02611e-05
-0.00304766
-0.00303545
4.1348e-05
3.37043e-05
-0.000552105
9.9374e-05
-0.00146016
0.000169429
-0.00216408
0.000226538
-0.00266171
0.000263349
-0.00297868
0.000279637
-0.00315706
0.000278897
-0.0032406
0.000265721
-0.00326566
0.000244287
-0.0032583
0.000217762
-0.00323511
0.000188276
-0.00320561
0.000157126
-0.00317474
0.000125037
-0.00314478
9.23832e-05
-0.00311667
5.93426e-05
-0.00309081
2.60093e-05
-0.00306743
-7.5448e-06
-0.00304675
-4.1242e-05
-0.00302891
-7.49998e-05
-0.0030139
-0.00300169
-0.00010876
3.14667e-05
-0.000583572
9.00703e-05
-0.00151876
0.000149177
-0.00222319
0.000193274
-0.00270581
0.000216792
-0.0030022
0.000220713
-0.00316098
0.000209075
-0.00322896
0.000186516
-0.0032431
0.000156986
-0.00322877
0.000123339
-0.00320146
8.7417e-05
-0.00316969
5.02987e-05
-0.00313763
1.25638e-05
-0.00310705
-2.551e-05
-0.0030786
-6.38078e-05
-0.00305251
-0.000102284
-0.00302896
-0.0001409
-0.00300814
-0.000179591
-0.00299022
-0.000218268
-0.00297523
-0.0029631
-0.000256856
2.8843e-05
-0.000612415
7.98229e-05
-0.00156974
0.00012769
-0.00227105
0.000158898
-0.00273702
0.00016958
-0.00301288
0.000161751
-0.00315315
0.000139838
-0.00320705
0.000108421
-0.00321168
7.1181e-05
-0.00319153
3.06644e-05
-0.00316094
-1.15502e-05
-0.00312748
-5.45666e-05
-0.00309461
-9.79213e-05
-0.00306369
-0.000141408
-0.00303511
-0.000184962
-0.00300896
-0.00022858
-0.00298534
-0.000272256
-0.00296446
-0.000315943
-0.00294653
-0.000359538
-0.00293163
-0.0029197
-0.00040294
2.58734e-05
-0.000638288
6.87882e-05
-0.00161266
0.000105264
-0.00230753
0.00012381
-0.00275556
0.000122151
-0.00301123
0.000103175
-0.00313418
7.15534e-05
-0.00317543
3.17335e-05
-0.00317186
-1.28953e-05
-0.0031469
-6.00859e-05
-0.00311375
-0.000108493
-0.00307907
-0.000157372
-0.00304573
-0.000206349
-0.00301472
-0.000255266
-0.0029862
-0.000304095
-0.00296013
-0.00035287
-0.00293657
-0.000401623
-0.00291571
-0.000450327
-0.00289783
-0.000498863
-0.0028831
-0.00287147
-0.000547094
2.26019e-05
-0.00066089
5.71229e-05
-0.00164718
8.21781e-05
-0.00233258
8.83692e-05
-0.00276175
7.48924e-05
-0.00299775
4.53459e-05
-0.00310463
4.53449e-06
-0.00313461
-4.32891e-05
-0.00312404
-9.50382e-05
-0.00309515
-0.000148748
-0.00306004
-0.00020328
-0.00302454
-0.000258016
-0.00299099
-0.000312646
-0.00296009
-0.000367039
-0.0029318
-0.000421188
-0.00290598
-0.00047516
-0.00288259
-0.00052903
-0.00286184
-0.000582802
-0.00284406
-0.000636348
-0.00282955
-0.00281835
-0.000689469
1.90755e-05
-0.000679966
4.49807e-05
-0.00167309
5.86926e-05
-0.0023463
5.29023e-05
-0.00275596
2.81422e-05
-0.00297299
-1.14198e-05
-0.00306507
-6.09452e-05
-0.00308509
-0.000116417
-0.00306857
-0.000175054
-0.00303651
-0.000235156
-0.00299994
-0.000295767
-0.00296393
-0.000356377
-0.00293038
-0.000416717
-0.00289975
-0.000476666
-0.00287185
-0.000536218
-0.00284643
-0.000595457
-0.00282335
-0.000654509
-0.00280279
-0.000713426
-0.00278514
-0.000772079
-0.0027709
-0.00276025
-0.000830175
1.53427e-05
-0.000695308
3.25101e-05
-0.00169025
3.50486e-05
-0.00234884
1.77011e-05
-0.00273862
-1.77996e-05
-0.00293749
-6.68443e-05
-0.00301602
-0.00012464
-0.00302729
-0.000187435
-0.00300577
-0.000252747
-0.0029712
-0.000319124
-0.00293357
-0.000385779
-0.00289727
-0.000452291
-0.00286387
-0.000518425
-0.00283361
-0.000584052
-0.00280623
-0.00064914
-0.00278134
-0.000713768
-0.00275873
-0.000778099
-0.00273845
-0.000842254
-0.00272098
-0.000906116
-0.00270703
-0.00269712
-0.000969255
1.14526e-05
-0.000706761
1.98528e-05
-0.00169865
1.14671e-05
-0.00234045
-1.69731e-05
-0.00271018
-6.26678e-05
-0.00289179
-0.00012068
-0.00295801
-0.000186325
-0.00296165
-0.00025613
-0.00293597
-0.000327909
-0.00289942
-0.000400438
-0.00286104
-0.000473088
-0.00282462
-0.000545528
-0.00279143
-0.000617556
-0.00276159
-0.000689026
-0.00273476
-0.00075986
-0.00271051
-0.000830092
-0.00268849
-0.000899893
-0.00266865
-0.000969457
-0.00265142
-0.0010387
-0.00263779
-0.00262873
-0.00110709
7.45421e-06
-0.000714215
7.14202e-06
-0.00169834
-1.18511e-05
-0.00232146
-5.08878e-05
-0.00267114
-0.000106228
-0.00283645
-0.000172705
-0.00289153
-0.000245787
-0.00288857
-0.000322293
-0.00285946
-0.000400313
-0.0028214
-0.000478845
-0.0027825
-0.000557408
-0.00274606
-0.00063577
-0.00271307
-0.000713777
-0.00268358
-0.000791283
-0.00265725
-0.000868158
-0.00263363
-0.000944358
-0.00261229
-0.00102003
-0.00259298
-0.00109545
-0.002576
-0.00117062
-0.00256262
-0.00255417
-0.00124518
3.39504e-06
-0.00071761
-5.49914e-06
-0.00168945
-3.47264e-05
-0.00229223
-8.3839e-05
-0.00262203
-0.000148276
-0.00277202
-0.00022272
-0.00281709
-0.000302829
-0.00280846
-0.000385708
-0.00277658
-0.000469717
-0.00273739
-0.000554053
-0.00269817
-0.000638389
-0.00266172
-0.000722604
-0.00262886
-0.000806628
-0.00259955
-0.000890359
-0.00257352
-0.000973645
-0.00255035
-0.00105637
-0.00252957
-0.00113863
-0.00251072
-0.00122081
-0.00249382
-0.00130312
-0.0024803
-0.00247111
-0.00138618
-6.79858e-07
-0.00071693
-1.79593e-05
-0.00167217
-5.70015e-05
-0.00225319
-0.000115652
-0.00256338
-0.000188636
-0.00269903
-0.000270552
-0.00273517
-0.000357266
-0.00272174
-0.000446165
-0.00268769
-0.000535852
-0.00264771
-0.000625719
-0.0026083
-0.000715584
-0.00257186
-0.000805465
-0.00253897
-0.00089543
-0.00250959
-0.000985513
-0.00248344
-0.00107566
-0.0024602
-0.00116575
-0.00243948
-0.00125578
-0.00242069
-0.00134611
-0.00240349
-0.00143729
-0.00238912
-0.00237632
-0.00153208
-4.729e-06
-0.000712201
-3.01406e-05
-0.00164676
-7.8543e-05
-0.00220478
-0.000146182
-0.00249574
-0.000227166
-0.00261805
-0.00031606
-0.00264628
-0.000408945
-0.00262886
-0.00050347
-0.00259316
-0.000598456
-0.00255272
-0.000693456
-0.0025133
-0.000788418
-0.0024769
-0.000883496
-0.0024439
-0.000978944
-0.00241414
-0.00107505
-0.00238733
-0.00117211
-0.00236315
-0.0012703
-0.00234128
-0.00136975
-0.00232124
-0.00147102
-0.00230222
-0.00157636
-0.00228378
-0.0022774
-0.00167528
-8.70321e-06
-0.000703498
-4.19401e-05
-0.00161352
-9.922e-05
-0.0021475
-0.000175296
-0.00241966