/*--------------------------------*- C++ -*----------------------------------*\
  =========                 |
  \\      /  F ield         | OpenFOAM: The Open Source CFD Toolbox
   \\    /   O peration     | Website:  https://openfoam.org
    \\  /    A nd           | Version:  6.0
     \\/     M anipulation  |
\*---------------------------------------------------------------------------*/
FoamFile
{
    version     2.0;
    format      ascii;
    class       volVectorField;
    location    "19.5";
    object      U;
}
// * * * * * * * * * * * * * * * * * * * * * * * * * * * * * * * * * * * * * //

dimensions      [0 1 -1 0 0 0 0];

internalField   nonuniform List<vector> 
8000
(
(-0.000513019 0.000632198 -3.57853e-21)
(-0.00278673 0.00157538 1.91284e-20)
(-0.00697375 0.00224747 -2.32659e-20)
(-0.0121058 0.0027113 1.77167e-20)
(-0.0176824 0.0030146 8.62763e-21)
(-0.0234236 0.00319621 -2.59083e-20)
(-0.0291309 0.00328907 -2.29001e-21)
(-0.0346767 0.00332084 -8.12786e-22)
(-0.0399917 0.0033146 -1.34494e-20)
(-0.0450481 0.00328952 -7.28688e-21)
(-0.0498488 0.00326139 5.43391e-21)
(-0.0544182 0.00324306 2.06603e-20)
(-0.0587955 0.00324472 -1.54646e-21)
(-0.0630295 0.00327414 2.21443e-21)
(-0.0671739 0.00333683 -2.08128e-20)
(-0.0712878 0.00343608 1.28247e-20)
(-0.0754299 0.00357317 -1.83776e-20)
(-0.0796202 0.00374818 2.78116e-20)
(-0.0838294 0.00396082 -3.11816e-23)
(-0.0883229 0.00420462 6.01008e-21)
(-0.000603853 0.00179476 1.1884e-20)
(-0.00300421 0.00445763 -6.0735e-20)
(-0.00726593 0.00633639 -4.19499e-20)
(-0.012433 0.00761468 -2.84885e-20)
(-0.0180127 0.00843164 -3.66498e-20)
(-0.0237302 0.00889981 8.06442e-21)
(-0.0293908 0.00911431 -4.23084e-20)
(-0.0348701 0.00915475 -9.50327e-21)
(-0.0401005 0.00908741 3.00197e-21)
(-0.0450559 0.00896733 3.16225e-20)
(-0.0497402 0.00884001 -3.44973e-20)
(-0.0541786 0.00874258 4.79883e-20)
(-0.0584114 0.0087047 -3.59377e-20)
(-0.0624881 0.00874916 -4.26198e-20)
(-0.0664641 0.00889229 -5.8738e-20)
(-0.0703998 0.00914416 3.75097e-20)
(-0.0743559 0.00950893 -1.21366e-20)
(-0.0783542 0.00998732 -4.41912e-20)
(-0.0823647 0.0105791 4.17828e-20)
(-0.0866572 0.0112652 -3.1066e-20)
(-0.000782866 0.002938 1.1618e-19)
(-0.00343381 0.00729245 6.01686e-20)
(-0.00784489 0.0103569 6.76669e-20)
(-0.0130836 0.0124328 5.63082e-21)
(-0.0186717 0.0137488 3.73999e-20)
(-0.0243446 0.0144899 4.66768e-20)
(-0.0299154 0.0148122 -8.48294e-20)
(-0.0352654 0.0148464 -4.49221e-20)
(-0.0403311 0.0147014 -5.8508e-20)
(-0.0450892 0.0144678 6.24552e-20)
(-0.0495454 0.0142207 -4.77048e-20)
(-0.0537268 0.0140219 -6.13819e-20)
(-0.0576753 0.013921 -2.2352e-20)
(-0.0614426 0.0139569 2.12339e-20)
(-0.0650863 0.0141578 -5.90626e-21)
(-0.0686704 0.0145414 8.51117e-21)
(-0.0722593 0.0151161 9.855e-20)
(-0.0758784 0.015884 -1.38307e-20)
(-0.0794973 0.016846 -1.00199e-19)
(-0.0833941 0.0179699 1.32133e-19)
(-0.00104787 0.00405072 4.04276e-20)
(-0.00407096 0.0100517 -5.7098e-20)
(-0.00870548 0.0142679 -1.43231e-20)
(-0.0140526 0.0171139 2.67816e-20)
(-0.0196556 0.0189053 7.6041e-20)
(-0.0252649 0.0198972 1.66483e-19)
(-0.0307053 0.0203049 1.62678e-19)
(-0.0358668 0.0203089 1.35167e-20)
(-0.0406916 0.0200594 9.97609e-20)
(-0.0451606 0.0196819 1.527e-19)
(-0.0492825 0.0192813 -1.22018e-19)
(-0.0530867 0.0189441 1.80581e-19)
(-0.0566174 0.0187413 -4.08972e-20)
(-0.0599291 0.0187288 1.03134e-20)
(-0.0630831 0.0189486 4.27115e-20)
(-0.0661482 0.0194285 5.67643e-20)
(-0.069195 0.0201824 -8.93259e-20)
(-0.0722544 0.0212161 -7.45646e-20)
(-0.0752964 0.0225329 -1.31978e-19)
(-0.0786123 0.0240873 1.92147e-19)
(-0.00139583 0.00512318 -2.11212e-20)
(-0.00490902 0.0127102 -2.16207e-19)
(-0.00983971 0.0180319 -6.39507e-20)
(-0.015332 0.0216107 -1.55839e-19)
(-0.0209571 0.0238454 5.89092e-20)
(-0.0264856 0.0250585 -9.29045e-20)
(-0.0317581 0.0255221 3.19534e-20)
(-0.0366758 0.025464 -1.96775e-19)
(-0.041189 0.0250743 1.03812e-19)
(-0.0452838 0.0245125 -1.23797e-19)
(-0.0489726 0.0239122 -1.10098e-19)
(-0.0522875 0.0233859 -1.23281e-19)
(-0.0552754 0.0230264 1.11906e-19)
(-0.0579942 0.0229091 -1.00482e-19)
(-0.0605098 0.0230923 1.39919e-19)
(-0.0628973 0.0236167 4.04429e-20)
(-0.0652357 0.0245049 1.00115e-19)
(-0.067564 0.0257692 4.39502e-20)
(-0.0698544 0.0274187 -1.73998e-19)
(-0.0724175 0.0293936 2.83158e-19)
(-0.00182307 0.0061473 9.31214e-20)
(-0.00593936 0.0152459 7.15968e-21)
(-0.0112363 0.0216156 3.83595e-20)
(-0.0169091 0.025881 1.33843e-19)
(-0.0225635 0.0285199 -2.04861e-20)
(-0.0279953 0.0299188 2.17345e-19)
(-0.0330647 0.0304032 9.64699e-20)
(-0.0376874 0.0302455 8.11021e-21)
(-0.0418237 0.0296734 2.4806e-19)
(-0.0454662 0.0288783 8.1283e-20)
(-0.0486316 0.0280224 3.85609e-20)
(-0.0513546 0.0272434 1.22381e-19)
(-0.0536851 0.0266577 1.12181e-19)
(-0.0556844 0.0263623 2.04806e-19)
(-0.0574235 0.0264354 -1.8306e-19)
(-0.0589851 0.0269344 2.58789e-19)
(-0.0604592 0.0278956 3.41385e-21)
(-0.0618955 0.029342 -3.30824e-19)
(-0.0632719 0.0312934 4.28903e-19)
(-0.0649259 0.0336762 1.77663e-19)
(-0.00232541 0.00711668 -5.48785e-20)
(-0.00715131 0.0176401 -9.96197e-20)
(-0.0128801 0.0249904 -2.07289e-19)
(-0.0187656 0.0298883 -6.14281e-21)
(-0.0244541 0.0328867 3.53737e-20)
(-0.0297723 0.0344319 -2.64686e-19)
(-0.0346042 0.0348991 -1.96366e-19)
(-0.0388831 0.0346018 -2.8089e-20)
(-0.0425815 0.0338017 -2.48386e-19)
(-0.0456999 0.03272 -1.71978e-19)
(-0.0482594 0.0315453 -5.01205e-20)
(-0.0502977 0.0304403 -1.6139e-19)
(-0.0518669 0.0295459 -2.62878e-21)
(-0.0530314 0.0289831 -2.14336e-19)
(-0.0538675 0.0288537 9.01681e-20)
(-0.0544662 0.0292377 -1.02872e-19)
(-0.0549306 0.0301909 7.88223e-20)
(-0.0553247 0.0317546 -1.00276e-19)
(-0.0556371 0.0339662 -2.86666e-19)
(-0.0562426 0.0367405 -8.71058e-20)
(-0.00289822 0.00802627 -2.02038e-20)
(-0.00853189 0.0198772 -2.19389e-20)
(-0.014751 0.0281314 1.73801e-19)
(-0.0208749 0.0336014 -2.8283e-19)
(-0.0265973 0.0369107 4.14924e-20)
(-0.0317807 0.0385613 -1.63374e-19)
(-0.0363378 0.0389736 7.72018e-20)
(-0.0402231 0.0384977 3.47006e-19)
(-0.0434237 0.0374255 -2.22596e-20)
(-0.0459492 0.0360039 -2.58873e-19)
(-0.0478259 0.0344456 4.70362e-20)
(-0.0490941 0.0329365 9.11926e-21)
(-0.0498073 0.0316417 -5.31559e-20)
(-0.050032 0.0307084 5.3716e-21)
(-0.0498491 0.0302662 4.66994e-19)
(-0.0493583 0.0304241 -6.6493e-20)
(-0.0486774 0.031266 -1.29725e-19)
(-0.0478886 0.0328617 -2.32787e-19)
(-0.0469974 0.0352771 2.37475e-19)
(-0.0464309 0.0384208 1.02355e-19)
(-0.0035364 0.00887191 1.01993e-19)
(-0.0100654 0.0219432 -1.33445e-19)
(-0.0168228 0.0310168 1.8866e-19)
(-0.0232007 0.0369934 1.89914e-19)
(-0.0289467 0.040563 1.75065e-19)
(-0.0339652 0.0422792 3.54987e-19)
(-0.0382023 0.0426028 2.29555e-19)
(-0.0416375 0.0419153 -4.93277e-19)
(-0.0442753 0.0405339 2.52274e-19)
(-0.0461365 0.0387265 1.97962e-19)
(-0.0472531 0.0367254 -2.81179e-21)
(-0.047668 0.0347367 2.21604e-19)
(-0.0474351 0.0329479 1.7277e-19)
(-0.0466215 0.0315332 -9.39807e-20)
(-0.0453109 0.0306535 3.17582e-19)
(-0.0436114 0.0304535 -3.93685e-19)
(-0.0416562 0.0310563 1.57584e-19)
(-0.0395495 0.0325735 2.02674e-19)
(-0.0373218 0.0351166 -4.72325e-20)
(-0.0354728 0.038598 4.06898e-19)
(-0.00423416 0.0096496 2.04983e-19)
(-0.0117328 0.0238248 1.06266e-20)
(-0.0190619 0.0336263 -7.35657e-20)
(-0.0256944 0.0400397 -7.77003e-20)
(-0.0314384 0.0438191 -3.59821e-19)
(-0.0362462 0.0455648 5.09559e-20)
(-0.0401025 0.0457735 1.44362e-19)
(-0.0430161 0.0448527 -6.94378e-20)
(-0.0450124 0.043139 5.72779e-20)
(-0.0461254 0.0409157 -1.51867e-20)
(-0.0463949 0.0384286 -7.48184e-20)
(-0.045866 0.0358986 7.10343e-20)
(-0.0445924 0.0335321 -3.08841e-19)
(-0.0426402 0.0315279 2.96071e-19)
(-0.0400936 0.0300802 -2.56456e-19)
(-0.0370673 0.0293757 7.92198e-20)
(-0.03371 0.0295875 1.80272e-19)
(-0.0301502 0.0308878 -3.74955e-20)
(-0.0264528 0.0334572 -1.24764e-19)
(-0.0232182 0.0372298 -8.47675e-20)
(-0.00498473 0.010355 -2.55343e-19)
(-0.0135109 0.0255082 -1.67912e-20)
(-0.0214263 0.0359388 5.37716e-20)
(-0.0282932 0.0427163 1.38237e-19)
(-0.0339874 0.0466557 -1.95162e-19)
(-0.0385151 0.0484009 -1.703e-19)
(-0.0419049 0.0484795 3.97493e-19)
(-0.0441996 0.0473201 -2.19644e-19)
(-0.0454492 0.0452726 -1.41685e-19)
(-0.0457046 0.0426288 -2.03299e-19)
(-0.0450149 0.0396411 1.34584e-19)
(-0.0434294 0.0365377 -3.63987e-21)
(-0.0410015 0.0335368 -2.51329e-19)
(-0.0377947 0.0308563 -4.11139e-19)
(-0.0338917 0.0287214 3.13226e-19)
(-0.0294107 0.0273636 -2.53789e-19)
(-0.0245147 0.0270169 3.59829e-19)
(-0.0193575 0.0279348 -1.00791e-19)
(-0.0140469 0.0303993 2.11937e-19)
(-0.00932179 0.0343956 -7.18956e-19)
(-0.00578 0.0109826 -5.17157e-19)
(-0.0153717 0.0269777 3.39081e-19)
(-0.0238642 0.0379314 4.6114e-20)
(-0.0309185 0.0449969 8.91954e-21)
(-0.0364855 0.049048 -2.09049e-19)
(-0.0406309 0.0507696 3.07412e-19)
(-0.0434324 0.0507166 3.35553e-20)
(-0.0449716 0.0493338 -6.30366e-20)
(-0.0453275 0.0469789 -2.02329e-19)
(-0.0445714 0.0439459 2.18709e-19)
(-0.0427659 0.0404856 5.54498e-19)
(-0.0399671 0.0368248 -1.22499e-19)
(-0.0362299 0.0331827 2.76806e-19)
(-0.0316156 0.0297868 -3.26975e-19)
(-0.0262037 0.0268848 -3.1352e-19)
(-0.0201132 0.0247495 1.88513e-19)
(-0.0135186 0.0236813 3.11469e-19)
(-0.00659782 0.0240352 -1.0093e-18)
(0.000493442 0.0262357 1.18505e-19)
(0.00682969 0.030362 1.61113e-19)
(-0.00661023 0.0115261 3.82958e-19)
(-0.0172816 0.0282149 1.25965e-19)
(-0.0263133 0.0395778 6.56145e-19)
(-0.0334752 0.046851 3.37608e-20)
(-0.0387997 0.0509663 -7.29692e-20)
(-0.0424177 0.0526481 -3.47468e-19)
(-0.0444609 0.0524758 2.9549e-19)
(-0.0450536 0.0509073 5.30137e-19)
(-0.0443084 0.0483041 3.53202e-19)
(-0.0423216 0.0449568 2.54995e-19)
(-0.039174 0.0411077 2.19829e-19)
(-0.0349334 0.0369723 -3.94757e-19)
(-0.0296608 0.0327595 -1.23655e-19)
(-0.0234186 0.0286912 -9.10687e-20)
(-0.0162845 0.0250221 9.75902e-19)
(-0.0083772 0.0220532 -3.35062e-21)
(0.000119861 0.0201452 -2.43209e-19)
(0.00900921 0.0197669 -7.6721e-20)
(0.0180898 0.0215301 6.98009e-19)
(0.0261927 0.0256669 9.16149e-20)
(-0.00746389 0.0119778 -1.88876e-20)
(-0.0192013 0.0291993 -3.62249e-19)
(-0.0287006 0.0408479 -5.38886e-19)
(-0.0358506 0.0482427 -1.4994e-19)
(-0.040772 0.0523736 8.27944e-20)
(-0.043665 0.054004 1.78295e-20)
(-0.0447188 0.0537369 4.72809e-19)
(-0.0441042 0.0520417 -5.86392e-19)
(-0.041971 0.049282 -2.2305e-19)
(-0.0384452 0.0457423 -4.49516e-19)
(-0.0336314 0.041652 -3.82871e-19)
(-0.0276164 0.0372082 -3.39019e-19)
(-0.020475 0.0325973 8.4765e-20)
(-0.0122789 0.0280195 -1.10061e-19)
(-0.00311042 0.0237143 4.71574e-19)
(0.00690813 0.0199852 -2.58482e-19)
(0.0175839 0.0172293 -8.10206e-19)
(0.028706 0.0160222 -1.63473e-19)
(0.0400442 0.0172012 3.99858e-19)
(0.05013 0.0212179 -3.48194e-19)
(-0.00832766 0.0123296 -6.11001e-20)
(-0.0210854 0.0299084 4.43035e-19)
(-0.0309421 0.0417083 -5.65014e-19)
(-0.0379154 0.0491311 1.306e-19)
(-0.0422195 0.0532255 -2.6899e-19)
(-0.0441276 0.0547942 5.99161e-19)
(-0.0438886 0.0544644 -4.28228e-19)
(-0.0417217 0.052718 4.89934e-19)
(-0.0378162 0.0499216 -4.6453e-19)
(-0.0323319 0.0463546 1.98211e-19)
(-0.025403 0.0422338 -9.61917e-20)
(-0.0171437 0.0377354 -2.4152e-19)
(-0.0076544 0.0330172 -2.98428e-19)
(0.00297045 0.0282435 2.97368e-19)
(0.0146294 0.0236153 -2.49038e-19)
(0.0271839 0.0194031 -5.44499e-19)
(0.0404224 0.0159951 5.6686e-19)
(0.0541229 0.0140334 -7.23123e-19)
(0.0680617 0.0145895 3.25275e-19)
(0.0804369 0.0183919 8.14754e-21)
(-0.00918666 0.0125736 -5.53939e-19)
(-0.0228827 0.0303194 -5.98069e-19)
(-0.0329427 0.0421243 6.89224e-20)
(-0.0395226 0.0494723 -5.76713e-19)
(-0.0429349 0.0534718 -5.13193e-20)
(-0.0435276 0.0549663 -4.24221e-19)
(-0.0416099 0.0546084 -9.73207e-20)
(-0.0374496 0.0528951 -2.84431e-19)
(-0.0312761 0.0501996 2.52983e-21)
(-0.0232852 0.0468018 -1.24457e-19)
(-0.0136458 0.0429114 8.8379e-21)
(-0.00250813 0.0386893 -3.58655e-19)
(0.00998828 0.0342673 3.95311e-19)
(0.023707 0.0297705 -5.60894e-19)
(0.038504 0.0253459 1.98725e-19)
(0.0541987 0.0211971 7.53807e-21)
(0.0705358 0.0176426 -3.16474e-19)
(0.0872689 0.0153082 7.84737e-19)
(0.104233 0.0154493 -1.87405e-19)
(0.119324 0.0190761 -1.21423e-19)
(-0.0100247 0.0127027 6.21793e-19)
(-0.0245358 0.0304111 3.35729e-19)
(-0.0345952 0.042063 3.12287e-19)
(-0.0405066 0.049224 4.66199e-20)
(-0.0426849 0.0530631 4.22262e-19)
(-0.0415535 0.0544659 6.0864e-19)
(-0.0374811 0.0541122 4.98331e-19)
(-0.0307822 0.0525171 4.46058e-20)
(-0.0217252 0.0500664 3.64966e-19)
(-0.010542 0.0470479 5.63942e-19)
(0.00256091 0.0436752 -1.46296e-19)
(0.0173896 0.0401074 2.45531e-19)
(0.0337521 0.0364648 1.98264e-19)
(0.0514486 0.032846 2.0171e-19)
(0.0702622 0.0293491 1.19337e-18)
(0.0899323 0.026097 -4.47302e-19)
(0.110113 0.0232847 -2.73138e-20)
(0.130484 0.021404 5.18905e-19)
(0.150986 0.0217589 -2.94249e-19)
(0.16937 0.025555 1.45382e-19)
(-0.0108241 0.0127115 -5.02808e-19)
(-0.0259804 0.0301657 3.21996e-20)
(-0.035779 0.0414969 -4.02456e-19)
(-0.040681 0.0483517 -5.23842e-20)
(-0.0412077 0.0519598 2.94606e-19)
(-0.0378583 0.0532494 -8.77052e-19)
(-0.0310587 0.0529288 -6.54652e-22)
(-0.0211675 0.0515337 4.08178e-19)
(-0.0084896 0.0494677 3.83518e-19)
(0.00670857 0.0470351 -1.68854e-19)
(0.0241812 0.0444663 5.56859e-20)
(0.0436861 0.0419365 1.29156e-19)
(0.0649675 0.0395793 -6.11543e-20)
(0.0877421 0.0374981 -6.86088e-19)
(0.111686 0.0357777 1.73701e-19)
(0.13641 0.0344911 4.78187e-19)
(0.161405 0.0337071 -6.81413e-19)
(0.186177 0.0336905 3.32343e-19)
(0.210756 0.0356252 8.92552e-20)
(0.233116 0.040727 4.51814e-19)
(-0.0115657 0.0125962 -7.42206e-20)
(-0.0271438 0.0295703 -3.52274e-19)
(-0.0363561 0.0404083 1.62106e-19)
(-0.0398333 0.046836 7.55269e-22)
(-0.0382075 0.0501433 -7.06475e-19)
(-0.0320535 0.0513001 1.1025e-19)
(-0.0218531 0.0510429 -2.0939e-20)
(-0.00800644 0.0499288 1.4263e-19)
(0.0091474 0.0483816 -6.52893e-19)
(0.0293081 0.0467277 -4.57824e-20)
(0.0521909 0.045224 -1.53416e-19)
(0.0775032 0.0440784 1.36464e-19)
(0.104922 0.0434654 4.6077e-19)
(0.134069 0.0435378 -7.12364e-20)
(0.16449 0.0444364 2.76094e-20)
(0.19561 0.0462858 1.81474e-19)
(0.226647 0.04916 -4.48252e-20)
(0.25671 0.0532334 3.66484e-19)
(0.285659 0.0596978 -2.12489e-19)
(0.31207 0.0694891 -3.36188e-19)
(-0.0122277 0.0123549 6.88574e-20)
(-0.0279418 0.0286183 1.68081e-20)
(-0.0361674 0.0387924 1.41254e-19)
(-0.0377197 0.0446797 3.45962e-19)
(-0.0333475 0.0476277 1.94141e-19)
(-0.023703 0.0486461 2.02568e-20)
(-0.00932397 0.0484963 -2.31767e-19)
(0.00934727 0.0477543 5.94118e-20)
(0.0319355 0.0468619 3.12499e-19)
(0.058104 0.0461656 -5.29561e-19)
(0.0875271 0.0459478 3.99629e-19)
(0.119865 0.0464515 -3.01138e-19)
(0.154739 0.0479013 2.55605e-19)
(0.191711 0.0505256 -5.51396e-19)
(0.230249 0.0545808 6.06807e-19)
(0.269674 0.0603675 -6.49109e-19)
(0.309017 0.0682285 -1.68877e-19)
(0.346949 0.0787988 5.30609e-19)
(0.382296 0.0941151 -1.79054e-19)
(0.411774 0.114524 7.96279e-20)
(-0.0127838 0.0119862 -5.21038e-20)
(-0.0282752 0.0273093 4.91724e-19)
(-0.0350275 0.0366605 -2.06002e-21)
(-0.0340594 0.0419139 -3.05259e-19)
(-0.0262451 0.0444701 -2.05292e-19)
(-0.0123191 0.0453745 3.76106e-19)
(0.00711958 0.0454084 -1.48969e-19)
(0.0315779 0.04516 -1.87664e-20)
(0.0606321 0.0450798 3.105e-19)
(0.0938935 0.0455218 -3.85737e-19)
(0.130979 0.0467753 4.23091e-20)
(0.171489 0.0490913 -5.01591e-19)
(0.214995 0.0527067 2.64203e-19)
(0.261035 0.0578733 -7.56138e-19)
(0.309124 0.0648948 1.20498e-18)
(0.358761 0.0741779 -2.20757e-19)
(0.409472 0.0863474 2.30685e-19)
(0.461089 0.10279 -5.9888e-19)
(0.514072 0.126541 3.654e-21)
(0.560366 0.153631 6.81195e-19)
(-0.0132016 0.0114889 -1.57832e-19)
(-0.0280262 0.0256488 1.36355e-19)
(-0.0327201 0.0340409 -5.02221e-19)
(-0.0285304 0.038601 7.42832e-19)
(-0.0164694 0.0407761 -5.36305e-19)
(0.00263561 0.0416415 2.76842e-20)
(0.0281096 0.0419904 -5.7835e-19)
(0.0593871 0.0424131 4.13521e-19)
(0.0959655 0.0433541 -5.90737e-20)
(0.137364 0.0451536 -3.64982e-19)
(0.183092 0.0480762 -2.13028e-19)
(0.232634 0.0523341 2.25091e-19)
(0.285447 0.0581049 1.4891e-19)
(0.340967 0.0655493 -6.59156e-19)
(0.398645 0.0748271 2.37927e-19)
(0.45799 0.0861094 -3.51212e-19)
(0.518632 0.0995983 4.25653e-20)
(0.580544 0.115722 -2.98752e-19)
(0.644537 0.135649 1.22706e-19)
(0.703394 0.155558 -4.48605e-19)
(-0.0134395 0.0108612 4.49333e-19)
(-0.0270542 0.0236486 -2.72156e-19)
(-0.0289957 0.0309801 2.24254e-19)
(-0.0207702 0.0348367 -2.83118e-19)
(-0.00354677 0.0367018 4.74554e-19)
(0.0217348 0.0376725 -8.2946e-21)
(0.0542951 0.0385439 -5.77783e-20)
(0.0934564 0.0398943 -4.28432e-20)
(0.138583 0.0421439 2.63704e-19)
(0.189036 0.0455938 4.48444e-19)
(0.244138 0.0504519 -2.64898e-19)
(0.303171 0.0568514 2.5758e-19)
(0.365374 0.0648644 4.70614e-19)
(0.42997 0.0745115 -3.29977e-19)
(0.496206 0.0857672 -6.70615e-19)
(0.563392 0.0985563 1.2266e-18)
(0.630953 0.112737 -2.18999e-19)
(0.698509 0.12814 -7.12041e-20)
(0.766241 0.145081 7.67754e-19)
(0.829027 0.162755 -1.62354e-19)
(-0.0134459 0.0101012 -7.31472e-19)
(-0.0251948 0.0213272 -4.8694e-19)
(-0.0235726 0.0275431 -1.86927e-19)
(-0.0103818 0.0307494 3.60647e-19)
(0.0130246 0.0324512 -8.14226e-19)
(0.0455612 0.0337559 4.21689e-19)
(0.0862975 0.035446 5.34468e-20)
(0.134381 0.0380692 5.40569e-20)
(0.188963 0.0419971 -5.52407e-19)
(0.249156 0.0474616 -1.95085e-19)
(0.314 0.0545791 -3.43937e-19)
(0.382474 0.0633681 3.32207e-19)
(0.453512 0.073763 9.43332e-20)
(0.526044 0.0856249 1.84737e-20)
(0.599043 0.098749 4.33333e-19)
(0.671572 0.112866 -4.38875e-19)
(0.742821 0.127634 -1.82367e-20)
(0.812142 0.142651 1.11361e-20)
(0.879202 0.157756 6.00908e-20)
(0.94119 0.174538 3.40801e-19)
(-0.0131573 0.00920747 2.32891e-19)
(-0.0222592 0.0187116 5.99817e-19)
(-0.0161412 0.0238152 4.81346e-19)
(0.00305385 0.0264998 -1.65928e-19)
(0.0337502 0.0282713 5.77142e-19)
(0.074665 0.0302308 -4.8628e-20)
(0.124647 0.033127 -6.85002e-20)
(0.182578 0.0374495 4.07807e-20)
(0.247296 0.043488 5.5801e-19)
(0.317554 0.0513672 3.27904e-19)
(0.392011 0.0610725 9.57636e-20)
(0.469258 0.0724721 5.88742e-21)
(0.547872 0.0853375 -6.35549e-19)
(0.62647 0.0993638 5.52239e-19)
(0.703778 0.114187 9.47622e-20)
(0.778677 0.1294 -1.56009e-19)
(0.85024 0.144558 -6.76967e-19)
(0.917754 0.159213 -5.72647e-20)
(0.980693 0.172902 2.67445e-19)
(1.03832 0.188757 -5.45175e-20)
(-0.0124987 0.00818098 -5.90917e-19)
(-0.0180379 0.0158411 2.47241e-19)
(-0.00637388 0.0199039 -1.20715e-18)
(0.0199588 0.0222806 4.94432e-19)
(0.0591058 0.024448 -3.94321e-19)
(0.109512 0.0274755 2.90717e-19)
(0.169708 0.0320461 -4.51671e-19)
(0.238194 0.0385525 4.14613e-20)
(0.313373 0.0471574 -2.329e-20)
(0.393528 0.057831 1.21513e-19)
(0.476852 0.0703841 1.75506e-19)
(0.561511 0.0845014 -3.317e-19)
(0.64573 0.0997764 1.75668e-19)
(0.727881 0.115746 1.61364e-19)
(0.806554 0.131921 6.97248e-19)
(0.880606 0.147814 -3.02818e-19)
(0.949187 0.162958 -2.01304e-19)
(1.01175 0.176956 3.38566e-19)
(1.06789 0.189252 1.80689e-19)
(1.11824 0.203659 -3.39944e-19)
(-0.011385 0.0070278 5.17572e-19)
(-0.0123058 0.0127716 4.99059e-19)
(0.00606304 0.0159439 1.43999e-19)
(0.0407348 0.0183183 6.06499e-19)
(0.0895 0.0213016 2.97974e-19)
(0.150429 0.0258938 -5.37182e-19)
(0.221606 0.0326666 8.13665e-19)
(0.301016 0.0418621 -4.00429e-19)
(0.386501 0.0534588 3.99771e-19)
(0.475784 0.0672184 5.17322e-19)
(0.566554 0.0827353 -2.95655e-19)
(0.65658 0.0994886 5.61625e-20)
(0.743832 0.116897 3.13225e-19)
(0.826585 0.134366 2.20717e-19)
(0.903486 0.151336 5.08479e-19)
(0.973582 0.167307 -2.03422e-19)
(1.03631 0.181863 -2.50559e-20)
(1.09149 0.194711 3.20934e-19)
(1.13911 0.205388 -6.90076e-20)
(1.18055 0.21774 2.93518e-22)
(-0.00972321 0.00576177 -2.6717e-19)
(-0.00483068 0.0095807 -9.81992e-19)
(0.0214927 0.0121008 2.3126e-19)
(0.0657355 0.0148743 -1.76059e-19)
(0.125233 0.0191822 -4.06448e-19)
(0.197547 0.0259019 -2.90234e-19)
(0.280166 0.0354307 -1.7931e-19)
(0.370417 0.0477916 4.35466e-19)
(0.465476 0.0627127 -2.58626e-19)
(0.562466 0.0796949 -2.64884e-19)
(0.658613 0.0980868 -3.35064e-19)
(0.751406 0.117163 -5.53078e-20)
(0.838745 0.136196 -3.7476e-20)
(0.919033 0.154522 -7.75061e-19)
(0.991206 0.171576 3.75796e-19)
(1.05472 0.186927 -4.94205e-19)
(1.1095 0.200276 1.55257e-19)
(1.15583 0.211477 -1.18197e-18)
(1.1942 0.220277 3.56272e-19)
(1.22636 0.230151 4.50665e-19)
(-0.00741557 0.00440724 -6.70938e-20)
(0.00461745 0.00637311 4.79028e-19)
(0.0402093 0.0085759 3.07142e-20)
(0.0952383 0.0122451 7.39067e-20)
(0.166454 0.0184629 -1.50264e-19)
(0.250754 0.0279112 -2.48019e-21)
(0.344867 0.040732 -3.86757e-21)
(0.445336 0.0566486 -9.07e-20)
(0.548618 0.0750724 3.21694e-19)
(0.651278 0.0952051 1.24377e-19)
(0.750214 0.116147 5.64754e-19)
(0.842854 0.137002 -1.53981e-19)
(0.927283 0.156963 1.07535e-19)
(1.00229 0.175373 -1.39795e-20)
(1.06732 0.191754 2.97869e-19)
(1.12242 0.205812 1.82288e-19)
(1.16807 0.217423 4.39322e-19)
(1.20509 0.226611 -7.09569e-19)
(1.23445 0.233368 8.92933e-19)
(1.25799 0.240626 -2.82907e-19)
(-0.00436337 0.00300121 -6.24344e-19)
(0.0162543 0.00328381 -1.94929e-19)
(0.0624579 0.00560756 1.52334e-19)
(0.129413 0.0107593 9.60471e-20)
(0.213131 0.0195282 9.84467e-20)
(0.309662 0.0323074 9.97968e-20)
(0.414829 0.0488866 -2.49794e-19)
(0.52431 0.0686052 -1.03299e-19)
(0.633875 0.0905055 3.20414e-20)
(0.739678 0.113481 -3.06063e-19)
(0.838532 0.136419 -1.38471e-19)
(0.928086 0.158326 8.368e-19)
(1.00689 0.178409 -2.15879e-19)
(1.07437 0.196114 -2.97651e-19)
(1.13063 0.21113 -1.41294e-19)
(1.17639 0.223359 9.78401e-20)
(1.21269 0.232878 1.19358e-19)
(1.24081 0.239881 -5.72083e-19)
(1.26205 0.24458 8.27963e-19)
(1.27826 0.24935 -7.1761e-19)
(-0.000471082 0.00159481 -7.06401e-20)
(0.0302689 0.000479934 2.02333e-20)
(0.0884133 0.00346984 -2.58205e-20)
(0.168297 0.0107691 3.7718e-19)
(0.265012 0.0227577 2.07937e-20)
(0.37359 0.0394255 1.38536e-19)
(0.488832 0.060105 -2.87851e-19)
(0.605558 0.0836784 -1.04984e-20)
(0.718992 0.108796 3.99936e-19)
(0.825135 0.134077 5.57547e-20)
(0.921031 0.158277 -3.48493e-19)
(1.00487 0.180411 -3.06195e-20)
(1.07592 0.199805 -2.86391e-19)
(1.13438 0.216103 2.85155e-19)
(1.18113 0.229218 3.96117e-19)
(1.21748 0.239277 -4.36679e-20)
(1.24496 0.246554 -5.32338e-20)
(1.26516 0.251388 1.6229e-19)
(1.27957 0.254153 -5.21744e-19)
(1.28995 0.256735 4.59563e-19)
(0.00434906 0.000253883 7.09608e-20)
(0.0468103 -0.00184027 -4.57729e-19)
(0.118159 0.00246685 1.22496e-19)
(0.211763 0.0126378 -3.80042e-19)
(0.321615 0.028504 1.30687e-19)
(0.441573 0.0495236 -4.85369e-19)
(0.565378 0.0744712 1.95799e-19)
(0.687111 0.101727 -6.23429e-20)
(0.801712 0.129574 -2.53483e-21)
(0.905373 0.156438 6.38106e-20)
(0.995718 0.181062 -2.32416e-19)
(1.07175 0.202592 -3.31868e-19)
(1.13365 0.220579 -6.80634e-20)
(1.18244 0.234925 -3.0556e-20)
(1.2197 0.245802 -7.75319e-20)
(1.24725 0.253554 -2.5261e-20)
(1.26694 0.258617 -7.56188e-20)
(1.2805 0.261439 -6.55674e-20)
(1.28946 0.262487 -1.95091e-19)
(1.29544 0.263253 3.09551e-19)
(0.0101723 -0.000941315 1.70635e-19)
(0.0659741 -0.00345106 -1.89512e-19)
(0.151668 0.00292283 4.0788e-19)
(0.259513 0.0167215 -1.76077e-19)
(0.382226 0.0370692 4.70611e-19)
(0.5124 0.0627597 6.72237e-21)
(0.642786 0.0919325 2.36388e-19)
(0.766972 0.122468 -6.33384e-20)
(0.879979 0.152359 2.64252e-19)
(0.978575 0.179969 1.91031e-20)
(1.06128 0.204167 6.29211e-19)
(1.12813 0.224347 -4.34334e-19)
(1.18023 0.24036 5.85277e-20)
(1.21942 0.252405 1.1169e-19)
(1.24783 0.260899 5.84962e-19)
(1.2676 0.266372 -2.10172e-19)
(1.28075 0.269377 -4.16651e-20)
(1.28901 0.270418 -2.20718e-19)
(1.29382 0.270006 -2.32438e-20)
(1.29661 0.269324 1.1044e-19)
(0.0170561 -0.00189738 -8.18891e-20)
(0.0877898 -0.00410556 2.36576e-19)
(0.188788 0.00516848 -2.4226e-19)
(0.311062 0.0233483 9.56689e-20)
(0.445916 0.0486808 -1.14421e-19)
(0.584678 0.0791766 4.19957e-19)
(0.719314 0.112305 -5.85153e-20)
(0.843281 0.145509 1.44122e-19)
(0.952103 0.176625 -8.48827e-20)
(1.0435 0.20411 -2.2424e-21)
(1.11712 0.227098 9.6961e-20)
(1.17409 0.245323 -7.51383e-20)
(1.21645 0.25898 1.94901e-19)
(1.24665 0.268556 -9.71662e-20)
(1.2672 0.274681 -4.27862e-19)
(1.28043 0.278019 4.25396e-19)
(1.28833 0.279187 -1.91672e-19)
(1.2925 0.278702 1.53059e-19)
(1.29426 0.277081 2.65395e-19)
(1.29481 0.275269 1.09034e-19)
(0.0250354 -0.00250989 2.03778e-19)
(0.11221 -0.00354453 -4.19947e-19)
(0.229232 0.0095247 8.03453e-20)
(0.365748 0.0327967 -5.82992e-20)
(0.511582 0.0634739 -2.35204e-19)
(0.656925 0.0986981 -1.84608e-19)
(0.793286 0.135296 -3.62966e-20)
(0.914447 0.170398 -3.29168e-19)
(1.01686 0.201857 -2.0062e-20)
(1.09949 0.228387 -6.11748e-20)
(1.16324 0.249504 -1.66074e-19)
(1.21029 0.265339 -3.69014e-20)
(1.24345 0.276431 -1.27123e-19)
(1.26562 0.28352 -2.12179e-19)
(1.27952 0.287397 2.17293e-19)
(1.28743 0.288804 2.99493e-20)
(1.29124 0.288375 5.96847e-20)
(1.29238 0.286606 -2.50341e-19)
(1.29196 0.283998 -6.26264e-21)
(1.29098 0.281305 -3.86259e-19)
(0.0341179 -0.00266642 2.23372e-19)
(0.139103 -0.00150708 1.49001e-19)
(0.272579 0.0162849 -2.40285e-19)
(0.422754 0.0452763 3.75226e-19)
(0.57801 0.0814797 -4.04654e-20)
(0.727659 0.121138 1.4019e-19)
(0.863208 0.160534 4.85442e-20)
(0.979244 0.196664 1.71997e-19)
(1.07352 0.227592 -1.34683e-19)
(1.14643 0.252438 4.48968e-20)
(1.20012 0.271175 -4.30935e-20)
(1.23771 0.28435 -1.8959e-20)
(1.26256 0.292813 3.60567e-20)
(1.27783 0.297503 -6.64415e-20)
(1.28626 0.299314 -2.04196e-20)
(1.29 0.299012 -6.24848e-20)
(1.29073 0.297213 -1.01569e-19)
(1.28966 0.294368 6.5577e-20)
(1.28772 0.29095 -8.99842e-20)
(1.28571 0.28756 3.88846e-19)
(0.0442797 -0.00225043 -1.11533e-19)
(0.168247 0.00225733 -3.16004e-19)
(0.318279 0.0256978 -4.20721e-20)
(0.48114 0.0609129 -1.14646e-20)
(0.643933 0.102624 -1.41595e-19)
(0.795494 0.146218 -2.32513e-19)
(0.927847 0.187603 7.61171e-20)
(1.03684 0.223861 -1.04597e-19)
(1.12181 0.253451 -1.17218e-19)
(1.1846 0.276014 6.53118e-20)
(1.22853 0.29202 -4.93607e-20)
(1.25745 0.302407 -9.98987e-20)
(1.27506 0.308284 -3.3792e-21)
(1.2846 0.310727 6.76687e-20)
(1.28866 0.310674 -6.90527e-20)
(1.28921 0.308878 9.58216e-20)
(1.28767 0.305903 2.5777e-20)
(1.28504 0.302144 6.49669e-20)
(1.28206 0.298053 1.26648e-19)
(1.27937 0.294087 -1.08495e-19)
(0.055463 -0.00114577 1.0653e-19)
(0.199331 0.00797622 -9.39874e-21)
(0.365668 0.0379517 4.78217e-20)
(0.539886 0.0797395 -6.48925e-20)
(0.708112 0.126735 5.34536e-21)
(0.859215 0.173595 2.25242e-19)
(0.986276 0.21608 -1.47967e-19)
(1.08679 0.25159 6.26964e-20)
(1.1618 0.279141 5.5295e-20)
(1.21458 0.298966 -1.55417e-19)
(1.24941 0.31203 1.46078e-19)
(1.27065 0.319614 1.29714e-21)
(1.28214 0.323018 -1.02981e-19)
(1.28704 0.323395 1.24139e-19)
(1.28771 0.321677 -4.92814e-20)
(1.28587 0.318571 3.76886e-20)
(1.28269 0.314575 -4.2149e-20)
(1.27899 0.310028 -1.68609e-20)
(1.27532 0.305357 -1.47638e-19)
(1.27219 0.300892 4.52272e-20)
(0.0675743 0.00075828 -3.59097e-20)
(0.231964 0.0158417 9.63952e-20)
(0.413998 0.0531625 1.50338e-20)
(0.597944 0.101694 6.30556e-20)
(0.769392 0.153557 3.00955e-20)
(0.917824 0.202884 1.41082e-20)
(1.03788 0.245557 7.99867e-20)
(1.12896 0.279512 -9.70422e-21)
(1.19385 0.304449 3.52835e-20)
(1.2371 0.32122 5.67003e-20)
(1.26372 0.331249 2.73699e-20)
(1.27834 0.336092 1.96543e-20)
(1.28479 0.337176 7.97117e-20)
(1.28602 0.33567 -7.71656e-20)
(1.28411 0.332465 1.6566e-20)
(1.28053 0.328201 -1.55213e-20)
(1.27621 0.323303 2.40084e-20)
(1.27178 0.318054 2.01194e-20)
(1.26768 0.312867 4.20299e-20)
(1.26427 0.307942 1.76399e-21)
(0.080485 0.00356176 2.12888e-20)
(0.26568 0.0259994 1.94464e-20)
(0.462461 0.0713647 -2.69244e-20)
(0.654284 0.126622 1.68252e-20)
(0.826752 0.182767 9.50853e-21)
(0.970561 0.233683 -2.95806e-20)
(1.08232 0.275655 9.76356e-21)
(1.16349 0.307351 1.76195e-21)
(1.2185 0.32923 1.68445e-20)
(1.25295 0.342753 -4.51754e-20)
(1.27235 0.349743 -1.41679e-22)
(1.28142 0.35196 1.25274e-20)
(1.28383 0.350889 -9.98309e-21)
(1.28222 0.347671 1.01006e-20)
(1.27841 0.34313 2.63706e-20)
(1.27358 0.337825 -1.5009e-20)
(1.26849 0.332109 4.17592e-21)
(1.2636 0.326216 1.64518e-20)
(1.25924 0.32055 -2.71248e-20)
(1.25568 0.315181 1.30203e-20)
(0.094034 0.00734892 5.93269e-20)
(0.299956 0.0385386 -3.22723e-20)
(0.510224 0.0925085 3.80079e-20)
(0.707937 0.154288 -2.82831e-20)
(0.879341 0.213995 -1.26888e-20)
(1.01691 0.265589 3.83621e-21)
(1.11952 0.306034 -1.24577e-20)
(1.1907 0.334882 4.48102e-20)
(1.23636 0.353383 -3.73222e-20)
(1.26291 0.363567 8.75911e-21)
(1.27613 0.367579 -6.5273e-21)
(1.28065 0.36731 -4.25462e-20)
(1.27987 0.364247 4.12774e-20)
(1.27614 0.359469 1.5723e-20)
(1.27096 0.353712 -1.56416e-20)
(1.26528 0.347453 3.67302e-20)
(1.25969 0.340977 -5.36909e-22)
(1.25453 0.334478 -3.56491e-20)
(1.25004 0.328353 2.64131e-20)
(1.24642 0.322539 8.33324e-21)
(0.108031 0.0121837 -2.07894e-20)
(0.334229 0.0534865 6.02909e-20)
(0.556462 0.11646 6.96755e-20)
(0.758035 0.184386 -3.28787e-20)
(0.926488 0.246839 5.72084e-20)
(1.05655 0.29821 9.05567e-20)
(1.14956 0.336392 -4.98844e-21)
(1.21101 0.361921 -1.55584e-20)
(1.24806 0.376837 7.68493e-20)
(1.26769 0.38367 3.748e-20)
(1.27574 0.384809 -6.80653e-21)
(1.27662 0.382206 5.58999e-20)
(1.27341 0.377303 -5.997e-20)
(1.26813 0.371091 9.33924e-20)
(1.262 0.364212 -1.55823e-20)
(1.25577 0.357062 4.46632e-20)
(1.24989 0.349862 8.05866e-21)
(1.24462 0.342779 3.19773e-20)
(1.24009 0.336203 -3.04366e-20)
(1.23649 0.329935 7.33462e-21)
(0.122259 0.0181051 -3.23573e-20)
(0.367914 0.070803 7.67644e-20)
(0.600387 0.143006 5.70401e-20)
(0.803824 0.216551 -8.647e-21)
(0.967699 0.280881 8.89187e-20)
(1.08937 0.331175 -6.6432e-20)
(1.17268 0.366458 -5.22049e-21)
(1.22492 0.388316 5.86696e-20)
(1.25424 0.399534 1.86404e-20)
(1.26794 0.403065 2.6091e-20)
(1.27176 0.401461 -3.85352e-20)
(1.26981 0.396675 1.00521e-19)
(1.26481 0.390067 1.87819e-20)
(1.25844 0.382525 -8.9072e-20)
(1.2517 0.374595 1.30199e-19)
(1.24516 0.366598 -1.53649e-19)
(1.23916 0.358699 -7.05708e-20)
(1.23388 0.351044 1.16907e-20)
(1.22941 0.344016 6.85506e-20)
(1.22588 0.337282 -1.29274e-19)
(0.136487 0.0251248 -7.28021e-20)
(0.400428 0.0903802 -1.71763e-19)
(0.641275 0.171861 -1.48541e-19)
(0.844691 0.250376 -2.02293e-19)
(1.00265 0.315697 -1.1481e-19)
(1.1154 0.364128 -2.38113e-19)
(1.1892 0.395991 3.02544e-20)
(1.23294 0.413932 -1.26539e-19)