1.22 	3.45254e-18 	-6.98323e-18 	-0.102304 	-0.00912042 	-4.96249e-22
1.66 	3.45254e-18 	-6.96118e-18 	-0.212385 	0.105586 	-2.30499e-23
2.1 	3.45254e-18 	-6.93894e-18 	-0.198632 	0.345123 	-1.392e-21
2.54 	3.45254e-18 	-8.30431e-18 	-0.150202 	0.249078 	-5.71584e-24
2.98 	3.45254e-18 	-8.28171e-18 	0.163261 	-0.156028 	1.56523e-21
3.42 	3.45254e-18 	-6.87115e-18 	0.18438 	-0.453486 	1.37462e-21
3.86 	3.45254e-18 	-6.84819e-18 	0.0778302 	-0.612059 	2.51563e-22
4.3 	3.45254e-18 	-6.82504e-18 	0.116561 	-0.440945 	1.04663e-21
4.74 	3.45254e-18 	-5.41391e-18 	0.356884 	-0.02788 	-8.53776e-22
5.18 	3.45254e-18 	-2.61482e-18 	0.471388 	0.283143 	-5.07526e-22
5.62 	3.45254e-18 	-1.2033e-18 	0.527825 	0.457036 	2.14017e-22
6.06 	3.45254e-18 	-1.17937e-18 	0.417892 	0.571264 	5.05635e-22
6.5 	3.45254e-18 	-1.15524e-18 	0.336834 	0.517069 	-3.00646e-22
