/*--------------------------------*- C++ -*----------------------------------*\
  =========                 |
  \\      /  F ield         | OpenFOAM: The Open Source CFD Toolbox
   \\    /   O peration     | Website:  https://openfoam.org
    \\  /    A nd           | Version:  6.0
     \\/     M anipulation  |
\*---------------------------------------------------------------------------*/
FoamFile
{
    version     2.0;
    format      ascii;
    class       surfaceScalarField;
    location    "119";
    object      phi;
}
// * * * * * * * * * * * * * * * * * * * * * * * * * * * * * * * * * * * * * //

dimensions      [0 3 -1 0 0 0 0];

internalField   nonuniform List<scalar> 
24700
(
-5.1218e-06
2.50667e-05
-1.99449e-05
-1.74089e-05
3.71285e-05
-2.48414e-05
-3.47858e-05
2.30696e-05
-5.69262e-06
-5.57784e-05
-8.22137e-06
2.9214e-05
-7.93017e-05
-5.02454e-05
7.37687e-05
-0.000104523
-9.84842e-05
0.000123706
-0.000130768
-0.000149933
0.000176177
-0.000157456
-0.000202678
0.000229367
-0.000184075
-0.000255537
0.000282156
-0.00021016
-0.00030777
0.000333855
-0.000235297
-0.000358868
0.000384005
-0.00025912
-0.000408425
0.000432248
-0.000281317
-0.000456067
0.000478264
-0.000301633
-0.000501427
0.000521742
-0.000319868
-0.000544159
0.000562395
-0.000335883
-0.000583961
0.000599976
-0.000349591
-0.000620601
0.000634309
-0.000360958
-0.000653948
0.000665316
-0.000369997
-0.000683998
0.000693036
-0.000376758
-0.000710883
0.000717644
-0.000381326
-0.000734888
0.000739456
-0.000383813
-0.000756446
0.000758933
-0.000384353
-0.000776138
0.000776679
-0.000383097
-0.000794761
0.000793505
-0.00081338
0.000810517
-0.000380234
-5.46871e-06
3.05354e-05
-1.86715e-05
5.03313e-05
-3.74428e-05
4.18409e-05
-6.02292e-05
1.4565e-05
-8.58762e-05
-2.45983e-05
-0.000113495
-7.08653e-05
-0.000142367
-0.000121061
-0.000171881
-0.000173164
-0.0002015
-0.000225918
-0.000230741
-0.000278529
-0.000259166
-0.000330442
-0.000286386
-0.000381206
-0.000312055
-0.000430398
-0.000335877
-0.000477605
-0.000357607
-0.00052243
-0.000377052
-0.000564516
-0.000394076
-0.000603577
-0.000408599
-0.000639425
-0.000420598
-0.000671999
-0.000430103
-0.000701378
-0.000437194
-0.000727797
-0.000441996
-0.000751644
-0.00044467
-0.000773464
-0.000445407
-0.000794024
-0.000814341
-0.000444446
-5.6682e-06
3.62036e-05
-1.94586e-05
6.41217e-05
-3.91795e-05
6.15618e-05
-6.32366e-05
3.86221e-05
-9.04296e-05
2.59461e-06
-0.000119828
-4.14673e-05
-0.000150679
-9.02094e-05
-0.00018235
-0.000141493
-0.000214286
-0.000193982
-0.000245988
-0.000246827
-0.000277003
-0.000299427
-0.000306916
-0.000351293
-0.000335349
-0.000401965
-0.000361961
-0.000450993
-0.000386454
-0.000497936
-0.000408578
-0.000542392
-0.000428137
-0.000584018
-0.000444995
-0.000622567
-0.000459084
-0.00065791
-0.000470405
-0.000690057
-0.000479027
-0.000719175
-0.000485086
-0.000745585
-0.000488775
-0.000769776
-0.000490336
-0.000792462
-0.000814596
-0.000490081
-5.69848e-06
4.19021e-05
-1.96987e-05
7.81219e-05
-3.98587e-05
8.17218e-05
-6.4588e-05
6.33513e-05
-9.26667e-05
3.06734e-05
-0.00012314
-1.09944e-05
-0.000155233
-5.81156e-05
-0.000188299
-0.000108427
-0.00022177
-0.000160511
-0.000255139
-0.000213458
-0.00028794
-0.000266626
-0.000319737
-0.000319496
-0.00035012
-0.000371582
-0.000378706
-0.000422407
-0.000405143
-0.0004715
-0.000429117
-0.000518417
-0.000450368
-0.000562767
-0.000468696
-0.000604239
-0.000483979
-0.000642627
-0.000496179
-0.000677858
-0.000505347
-0.000710006
-0.000511629
-0.000739303
-0.000515252
-0.000766152
-0.000516526
-0.000791188
-0.00081527
-0.000515853
-5.54544e-06
4.74475e-05
-1.93451e-05
9.19216e-05
-3.93878e-05
0.000101764
-6.41354e-05
8.80989e-05
-9.23789e-05
5.8917e-05
-0.000123156
1.97829e-05
-0.000155684
-2.55879e-05
-0.000189305
-7.48066e-05
-0.000223449
-0.000126367
-0.000257604
-0.000179302
-0.000291297
-0.000232933
-0.000324076
-0.000286717
-0.000355506
-0.000340152
-0.000385165
-0.000392747
-0.000412651
-0.000444013
-0.000437591
-0.000493477
-0.000459656
-0.000540703
-0.000478579
-0.000585315
-0.000494177
-0.000627029
-0.000506365
-0.00066567
-0.00051517
-0.000701201
-0.000520739
-0.000733733
-0.000523341
-0.000763551
-0.000523361
-0.000791168
-0.000817318
-0.000521313
-5.20467e-06
5.26522e-05
-1.83791e-05
0.000105096
-3.77249e-05
0.00012111
-6.18072e-05
0.000112181
-8.94586e-05
8.65683e-05
-0.000119729
5.0053e-05
-0.000151835
6.51845e-06
-0.00018512
-4.15213e-05
-0.000219015
-9.24721e-05
-0.00025301
-0.000145307
-0.00028663
-0.000199314
-0.000319415
-0.000253932
-0.000350914
-0.000308653
-0.000380677
-0.000362984
-0.000408261
-0.000416429
-0.000433241
-0.000468497
-0.000455226
-0.000518717
-0.000473884
-0.000566657
-0.000488967
-0.000611946
-0.000500336
-0.000654302
-0.000507986
-0.000693551
-0.000512061
-0.000729658
-0.000512865
-0.000762747
-0.000510868
-0.000793165
-0.000821471
-0.000506715
-4.68213e-06
5.73343e-05
-1.68135e-05
0.000117227
-3.48861e-05
0.000139183
-5.76169e-05
0.000134912
-8.3911e-05
0.000112862
-0.000112849
7.89905e-05
-0.000143659
3.73292e-05
-0.000175692
-9.48861e-06
-0.000208384
-5.978e-05
-0.000241232
-0.000112459
-0.000273766
-0.00016678
-0.000305531
-0.000222167
-0.000336068
-0.000278116
-0.000364914
-0.000334138
-0.000391602
-0.000389742
-0.000415668
-0.000444431
-0.000436674
-0.000497711
-0.00045423
-0.000549101
-0.000468024
-0.000598152
-0.000477862
-0.000644463
-0.000483697
-0.000687716
-0.00048566
-0.000727695
-0.000484082
-0.000764326
-0.000479517
-0.00079773
-0.000828238
-0.00047275
-3.99452e-06
6.13288e-05
-1.46935e-05
0.000127926
-3.0946e-05
0.000155436
-5.16658e-05
0.000155632
-7.58596e-05
0.000137056
-0.000102656
0.000105787
-0.000131308
6.59813e-05
-0.000161177
2.03804e-05
-0.000191711
-2.92461e-05
-0.000222419
-8.1752e-05
-0.000252842
-0.000136357
-0.000282536
-0.000192473
-0.000311054
-0.000249598
-0.000337933
-0.000307258
-0.000362702
-0.000364973
-0.000384879
-0.000422254
-0.000403998
-0.000478593
-0.000419625
-0.000533475
-0.000431398
-0.000586378
-0.000439065
-0.000636796
-0.000442531
-0.000684251
-0.000441899
-0.000728328
-0.00043751
-0.000768714
-0.000429991
-0.00080525
-0.000837963
-0.000420265
-3.1685e-06
6.44973e-05
-1.20949e-05
0.000136853
-2.6037e-05
0.000169378
-4.41421e-05
0.000173737
-6.55455e-05
0.00015846
-8.94419e-05
0.000129684
-0.000115117
9.16563e-05
-0.000141951
4.72144e-05
-0.000169406
-1.79067e-06
-0.000197007
-5.41513e-05
-0.000224314
-0.00010905
-0.000250903
-0.000165884
-0.000276347
-0.000224154
-0.000300205
-0.000283399
-0.000322019
-0.000343159
-0.000341317
-0.000402957
-0.000357623
-0.000462286
-0.000370488
-0.00052061
-0.000379512
-0.000577354
-0.000384395
-0.000631913
-0.000384986
-0.000683659
-0.000381345
-0.000731969
-0.0003738
-0.000776259
-0.000363019
-0.000816031
-0.000850929
-0.000350053
-2.2392e-06
6.67365e-05
-9.12082e-06
0.000143734
-2.03426e-05
0.000180599
-3.53134e-05
0.000188708
-5.33189e-05
0.000176465
-7.36357e-05
0.000150001
-9.55929e-05
0.000113613
-0.000118595
7.02167e-05
-0.000142123
2.17374e-05
-0.000165719
-3.05556e-05
-0.000188965
-8.58035e-05
-0.000211465
-0.000143384
-0.000232824
-0.000202796
-0.000252633
-0.00026359
-0.00027047
-0.000325323
-0.00028589
-0.000387536
-0.000298443
-0.000449734
-0.000307681
-0.000511372
-0.000313194
-0.000571841
-0.000314646
-0.000630461
-0.000311833
-0.000686472
-0.000304756
-0.000739046
-0.000293699
-0.000787316
-0.000279334
-0.000830396
-0.000867457
-0.000262805
-1.24788e-06
6.79844e-05
-5.89503e-06
0.000148381
-1.40882e-05
0.000188793
-2.55134e-05
0.000200133
-3.96234e-05
0.000190575
-5.57907e-05
0.000166168
-7.33975e-05
0.00013122
-9.18792e-05
8.86984e-05
-0.000110737
4.05955e-05
-0.000129534
-1.1759e-05
-0.000147876
-6.74616e-05
-0.000165396
-0.000125864
-0.000181736
-0.000186456
-0.000196534
-0.000248792
-0.000209413
-0.000312444
-0.000219978
-0.00037697
-0.000227822
-0.00044189
-0.000232532
-0.000506662
-0.000233709
-0.000570665
-0.000231004
-0.000633166
-0.00022417
-0.000693306
-0.000213139
-0.000750077
-0.000198124
-0.000802332
-0.000179751
-0.000848768
-0.000887993
-0.000159215
-2.39203e-07
6.82236e-05
-2.5546e-06
0.000150697
-7.52732e-06
0.000193765
-1.51231e-05
0.000207729
-2.49718e-05
0.000200424
-3.6553e-05
0.000177749
-4.93112e-05
0.000143978
-6.27182e-05
0.000102105
-7.62998e-05
5.41771e-05
-8.96391e-05
1.5803e-06
-0.000102367
-5.47342e-05
-0.000114145
-0.000114085
-0.000124655
-0.000175946
-0.000133581
-0.000239866
-0.000140601
-0.000305424
-0.000145382
-0.000372189
-0.000147577
-0.000439695
-0.000146828
-0.000507411
-0.000142776
-0.000574716
-0.000135086
-0.000640857
-0.000123486
-0.000704906
-0.000107844
-0.000765718
-8.82804e-05
-0.000821895
-6.53327e-05
-0.000871716
-0.000913139
-4.01866e-05
7.41962e-07
6.74817e-05
7.5939e-07
0.000150679
-9.2564e-07
0.00019545
-4.54757e-06
0.000211351
-9.91575e-06
0.000205792
-1.66242e-05
0.000184458
-2.41875e-05
0.000151542
-3.21201e-05
0.000110038
-3.9975e-05
6.2032e-05
-4.73566e-05
8.9619e-06
-5.39173e-05
-4.81735e-05
-5.93473e-05
-0.000108655
-6.3362e-05
-0.000171931
-6.56903e-05
-0.000237538
-6.60656e-05
-0.000305049
-6.42181e-05
-0.000374037
-5.98707e-05
-0.000444042
-5.2736e-05
-0.000514546
-4.25181e-05
-0.000584934
-2.89223e-05
-0.000654453
-1.16829e-05
-0.000722145
9.37715e-06
-0.000786778
3.42351e-05
-0.000846753
6.24758e-05
-0.000899957
-0.000943641
9.29774e-05
1.65365e-06
6.5828e-05
3.91137e-06
0.000148422
5.45647e-06
0.000193905
5.8102e-06
0.000210997
4.98973e-06
0.000206613
3.28358e-06
0.000186164
1.10127e-06
0.000153724
-1.11918e-06
0.000112258
-2.96105e-06
6.38739e-05
-4.05004e-06
1.00509e-05
-4.05786e-06
-4.81657e-05
-2.69687e-06
-0.000110016
2.88954e-07
-0.000174917
5.13294e-06
-0.000242382
1.20536e-05
-0.000311969
2.12608e-05
-0.000383244
3.29616e-05
-0.000455743
4.73656e-05
-0.00052895
6.46896e-05
-0.000602258
8.51605e-05
-0.000674924
0.000109005
-0.00074599
0.000136412
-0.000814185
0.000167436
-0.000877777
0.000201798
-0.000934318
-0.00098033
0.000238487
2.45963e-06
6.33684e-05
6.78046e-06
0.000144101
1.13816e-05
0.000189304
1.55766e-05
0.000206802
1.92234e-05
0.000202966
2.24958e-05
0.000182891
2.57246e-05
0.000150495
2.92969e-05
0.000108686
3.3597e-05
5.95737e-05
3.89785e-05
4.66939e-06
4.57536e-05
-5.49408e-05
5.41937e-05
-0.000118456
6.45343e-05
-0.000185257
7.69803e-05
-0.000254828
9.17117e-05
-0.000326701
0.000108887
-0.000400419
0.000128649
-0.000475505
0.000151129
-0.000551429
0.000176454
-0.000627584
0.000204763
-0.000703232
0.000236208
-0.000777435
0.000270945
-0.000848923
0.000309067
-0.000915899
0.000350417
-0.000975669
-0.00102404
0.000394128
3.13175e-06
6.02366e-05
9.26851e-06
0.000137964
1.66515e-05
0.000181921
2.4433e-05
0.00019902
3.23346e-05
0.000195064
4.04236e-05
0.000174802
4.8954e-05
0.000141965
5.82608e-05
9.93793e-05
6.8696e-05
4.91386e-05
8.05933e-05
-7.22793e-06
9.42528e-05
-6.86003e-05
0.000109936
-0.000134139
0.000127865
-0.000203186
0.000148226
-0.000275189
0.00017117
-0.000349645
0.000196814
-0.000426063
0.00022524
-0.000503932
0.000256506
-0.000582694
0.000290644
-0.000661722
0.000327686
-0.000740274
0.000367679
-0.000817428
0.000410699
-0.000891943
0.000456822
-0.000962022
0.000505974
-0.00102482
-0.0010755
0.000557439
3.6516e-06
5.6585e-05
1.13064e-05
0.000130309
2.11203e-05
0.000172107
3.21384e-05
0.000188002
4.39756e-05
0.000183227
5.66078e-05
0.00016217
7.02185e-05
0.000128354
8.5094e-05
8.45038e-05
0.000101555
3.26772e-05
0.00011992
-2.55923e-05
0.000140479
-8.91594e-05
0.000163489
-0.000157149
0.000189167
-0.000228864
0.000217685
-0.000303707
0.000249171
-0.000381131
0.000283704
-0.000460596
0.000321313
-0.00054154
0.000361975
-0.000623357
0.000405627
-0.000705374
0.000452179
-0.000786826
0.000501543
-0.000866792
0.000553672
-0.000944072
0.000608564
-0.00101691
0.000666171
-0.00108243
-0.00113525
0.000725919
4.01136e-06
5.25737e-05
1.28582e-05
0.000121463
2.47045e-05
0.000160261
3.85464e-05
0.000174161
5.39278e-05
0.000167845
7.07543e-05
0.000145344
8.91511e-05
0.000109957
0.000109363
6.42924e-05
0.000131684
1.03556e-05
0.00015642
-5.03286e-05
0.000183859
-0.000116598
0.000214254
-0.000187545
0.000247819
-0.000262429
0.000284715
-0.000340603
0.000325046
-0.000421462
0.000368849
-0.000504399
0.000416091
-0.000588782
0.000466667
-0.000673932
0.000520401
-0.000759109
0.00057707
-0.000843494
0.000636429
-0.000926152
0.000698268
-0.00100591
0.000762454
-0.0010811
0.000828902
-0.00114888
-0.0012035
0.000897151
4.21398e-06
4.83597e-05
1.39229e-05
0.000111754
2.73881e-05
0.000146796
4.36157e-05
0.000157933
6.21189e-05
0.000149342
8.27589e-05
0.000124704
0.00010562
8.70962e-05
0.000130916
3.89966e-05
0.000158924
-1.76529e-05
0.000189942
-8.13467e-05
0.000224256
-0.000150911
0.000262119
-0.000225408
0.000303737
-0.000304047
0.000349254
-0.00038612
0.000398737
-0.000470945
0.000452169
-0.000557831
0.000509438
-0.000646052
0.000570335
-0.00073483
0.000634559
-0.000823332
0.00070173
-0.000910665
0.000771429
-0.000995851
0.000843259
-0.00107774
0.000916912
-0.00115475
0.000992211
-0.00122417
-0.00128007
0.00106878
4.27271e-06
4.4087e-05
1.4534e-05
0.000101492
2.9223e-05
0.000132107
4.74132e-05
0.000139743
6.86288e-05
0.000128127
9.27169e-05
0.000100616
0.000119742
6.00715e-05
0.000149901
8.83682e-06
0.000183466
-5.12171e-05
0.000220729
-0.00011861
0.000261975
-0.000192158
0.000307451
-0.000270885
0.000357346
-0.000353941
0.000411766
-0.000440539
0.000470722
-0.000529901
0.000534114
-0.000621223
0.000601723
-0.00071366
0.000673206
-0.000806313
0.000748107
-0.000898233
0.000825874
-0.000988432
0.000905898
-0.00107588
0.00098758
-0.00115942
0.00107042
-0.0012376
0.00115412
-0.00130787
-0.00136428
0.00123833
4.21e-06
3.9877e-05
1.47567e-05
9.09456e-05
3.03251e-05
0.000116538
5.01088e-05
0.000119959
7.36844e-05
0.000104551
0.000100917
7.33836e-05
0.000131873
2.91147e-05
0.000166754
-2.60434e-05
0.000205827
-9.0291e-05
0.000249389
-0.000162171
0.000297714
-0.000240483
0.00035103
-0.000324201
0.000409485
-0.000412396
0.000473121
-0.000504175
0.000541855
-0.000598635
0.000615466
-0.000694834
0.000693585
-0.00079178
0.000775701
-0.00088843
0.000861174
-0.000983706
0.000949258
-0.00107652
0.00103915
-0.00116577
0.00113005
-0.00125032
0.00122128
-0.00132883
0.00131239
-0.00139898
-0.00145495
0.00140306
4.05589e-06
3.58211e-05
1.46828e-05
8.03187e-05
3.0865e-05
0.000100356
5.19619e-05
9.8862e-05
7.76409e-05
7.8872e-05
0.000107815
4.3209e-05
0.000142581
-5.6506e-06
0.000182151
-6.56137e-05
0.000226803
-0.000134943
0.000276825
-0.000212193
0.000332472
-0.00029613
0.000393925
-0.000385654
0.000461257
-0.000479728
0.000534402
-0.00057732
0.000613138
-0.000677371
0.000697071
-0.000778767
0.000785639
-0.000880348
0.000878123
-0.000980914
0.000973672
-0.00107925
0.00107134
-0.00117418
0.00117012
-0.00126455
0.00126907
-0.00134927
0.00136733
-0.00142709
0.00146435
-0.001496
-0.00155038
0.00155978
3.84587e-06
3.19752e-05
1.44239e-05
6.97407e-05
3.10549e-05
8.37251e-05
5.33003e-05
7.66167e-05
8.09515e-05
5.12208e-05
0.000113999
1.01617e-05
0.000152584
-4.4236e-05
0.000196947
-0.000109977
0.000247369
-0.000185365
0.000304119
-0.000268943
0.000367404
-0.000359415
0.00043732
-0.00045557
0.000513818
-0.000556226
0.000596671
-0.000660173
0.000685458
-0.000766158
0.000779563
-0.000872873
0.000878185
-0.00097897
0.000980365
-0.00108309
0.00108502
-0.00118391
0.00119101
-0.00128017
0.00129716
-0.00137071
0.00140239
-0.0014545
0.00150579
-0.00153049
0.00160673
-0.00159693
-0.0016485
0.00170485
3.61842e-06
2.83568e-05
1.41031e-05
5.9256e-05
3.11314e-05
6.66968e-05
5.44923e-05
5.32558e-05
8.41274e-05
2.15857e-05
0.000120125
-2.58357e-05
0.000162686
-8.6797e-05
0.000212076
-0.000159367
0.00026857
-0.000241858
0.00033239
-0.000332763
0.000403653
-0.000430678
0.000482321
-0.000534239
0.000568162
-0.000642067
0.000660726
-0.000752737
0.000759339
-0.00086477
0.000863112
-0.000976646
0.000970976
-0.00108683
0.00108172
-0.00119383
0.00119403
-0.00129623
0.00130659
-0.00139273
0.0014181
-0.00148221
0.00152737
-0.00156376
0.00163344
-0.00163656
0.00173574
-0.00169923
-0.00174698
0.00183422
3.41212e-06
2.49447e-05
1.38451e-05
4.8823e-05
3.13359e-05
4.92061e-05
5.59152e-05
2.86765e-05
8.76905e-05
-1.01897e-05
0.000126859
-6.50044e-05
0.000173684
-0.000133622
0.000228446
-0.000214129
0.000291384
-0.000304797
0.000362635
-0.000404014
0.000442172
-0.000510215
0.000529757
-0.000621824
0.000624911
-0.000737221
0.000726899
-0.000854724
0.000834742
-0.000972613
0.000947248
-0.00108915
0.00106307
-0.00120265
0.00118075
-0.00131152
0.00129883
-0.00141431
0.00141588
-0.00150977
0.00153055
-0.00159689
0.00164165
-0.00167487
0.00174804
-0.00174295
0.00184841
-0.0017996
-0.00184078
0.00194221
3.26241e-06
2.16823e-05
1.37663e-05
3.83191e-05
3.18949e-05
3.10774e-05
5.79222e-05
2.6493e-06
9.21257e-05
-4.43933e-05
0.000134811
-0.00010769
0.000186291
-0.000185101
0.000246834
-0.000274672
0.000316606
-0.000374569
0.000395599
-0.000483007
0.000483578
-0.000598193
0.000580036
-0.000718282
0.000684179
-0.000841364
0.000794934
-0.000965479
0.000910981
-0.00108866
0.00103082
-0.00120899
0.00115282
-0.00132466
0.00127536
-0.00143406
0.00139685
-0.0015358
0.00151588
-0.0016288
0.00163126
-0.00171226
0.00174208
-0.00178569
0.00184793
-0.0018488
0.0019497
-0.00190136
-0.0019416
0.00205052
3.20014e-06
1.84822e-05
1.3967e-05
2.75522e-05
3.30027e-05
1.20418e-05
6.08124e-05
-2.51604e-05
9.78352e-05
-8.14161e-05
0.00014447
-0.000154325
0.000201051
-0.000241682
0.000267796
-0.000341417
0.000344737
-0.00045151
0.000431657
-0.000569927
0.000528038
-0.000694575
0.000633039
-0.000823283
0.000745494
-0.000953819
0.000863954
-0.00108394
0.000986749
-0.00121146
0.00111207
-0.00133431
0.00123809
-0.00145067
0.00136302
-0.00155899
0.00148524
-0.00165803
0.00160338
-0.00174694
0.00171635
-0.00182523
0.00182343
-0.00189277
0.00192432
-0.0019497
0.00201935
-0.00199639
-0.00203155
0.00210931
3.24765e-06
1.52345e-05
1.45226e-05
1.62772e-05
3.48052e-05
-8.24075e-06
6.48081e-05
-5.51634e-05
0.000105108
-0.000121716
0.000156168
-0.000205384
0.0002183
-0.000303815
0.000291613
-0.00041473
0.000375939
-0.000535835
0.000470777
-0.000664765
0.000575257
-0.000799056
0.000688142
-0.000936168
0.00080786
-0.00107354
0.000932576
-0.00120866
0.00106029
-0.00133917
0.00118895
-0.00146297
0.00131656
-0.00157829
0.00144131
-0.00168373
0.00156161
-0.00177833
0.00167623
-0.00186155
0.00178424
-0.00193325
0.00188511
-0.00199364
0.00197862
-0.00204321
0.00206481
-0.00208258
-0.00211097
0.00214423
3.419e-06
1.18155e-05
1.54809e-05
4.21535e-06
3.7394e-05
-3.01538e-05
7.00419e-05
-8.78113e-05
0.000114103
-0.000165777
0.000170055
-0.000261336
0.000238135
-0.000371894
0.000318271
-0.000494866
0.00041002
-0.000627584
0.000512523
-0.000767268
0.000624498
-0.00091103
0.00074427
-0.00105594
0.000869851
-0.00119912
0.000999046
-0.00133785
0.00112958
-0.00146971
0.00125924
-0.00159263
0.00138599
-0.00170503
0.00150806
-0.0018058
0.00162405
-0.00189432
0.00173293
-0.00197043
0.00183406
-0.00203438
0.00192715
-0.00208673
0.00201225
-0.00212831
0.00208965
-0.00215998
-0.00218163
0.00216031
3.71954e-06
8.09598e-06
1.68615e-05
-8.92659e-06
4.08043e-05
-5.40966e-05
7.65551e-05
-0.000123562
0.000124843
-0.000214065
0.000186103
-0.000322596
0.000260424
-0.000446215
0.000347477
-0.000581919
0.000446467
-0.000726575
0.000556112
-0.000876912
0.000674668
-0.00102959
0.000800016
-0.00118129
0.000929772
-0.00132887
0.00106144
-0.00146952
0.00119257
-0.00160083
0.00132088
-0.00172095
0.00144442
-0.00182857
0.0015616
-0.00192299
0.00167128
-0.002004
0.00177274
-0.00207189
0.00186567
-0.00212731
0.00195011
-0.00217117
0.00202639
-0.00220459
0.00209508
-0.00222867
-0.00224376
0.00215721
4.14691e-06
3.94907e-06
1.86584e-05
-2.34381e-05
4.502e-05
-8.04582e-05
8.43053e-05
-0.000162847
0.000137232
-0.000266991
0.000204121
-0.000389486
0.000284834
-0.000526928
0.000378704
-0.00067579
0.000484512
-0.000832383
0.000600499
-0.000992899
0.000724444
-0.00115353
0.000853796
-0.00131064
0.000985836
-0.00146092
0.00111786
-0.00160154
0.00124735
-0.00173032
0.00137211
-0.0018457
0.00149036
-0.00194683
0.00160083
-0.00203345
0.0017027
-0.00210587
0.00179562
-0.00216481
0.00187964
-0.00221133
0.00195513
-0.00224666
0.0020227
-0.00227216
0.00208315
-0.00228912
-0.00229823
0.00213762
4.69285e-06
-7.43782e-07
2.08452e-05
-3.95905e-05
4.99834e-05
-0.000109596
9.31822e-05
-0.000206046
0.000151075
-0.000324885
0.000223791
-0.000462201
0.000310877
-0.000614013
0.000411252
-0.000776166
0.00052321
-0.00094434
0.000644485
-0.00111417
0.000772388
-0.00128144
0.00090399
-0.00144224
0.00103633
-0.00159325
0.00116661
-0.00173182
0.00129237
-0.00185609
0.00141163
-0.00196496
0.00152291
-0.00205811
0.0016253
-0.00213584
0.00171838
-0.00219895
0.00180218
-0.00224861
0.0018771
-0.00228624
0.00194379
-0.00231335
0.00200309
-0.00233146
0.00205596
-0.00234198
-0.00234584
0.00210356
5.34528e-06
-6.08906e-06
2.33813e-05
-5.76265e-05
5.56065e-05
-0.000141822
0.000103025
-0.000253465
0.000166108
-0.000387967
0.000244702
-0.000540795
0.000337959
-0.00070727
0.00044431
-0.000882517
0.000561519
-0.00106155
0.000686812
-0.00123947
0.000817073
-0.0014117
0.000949081
-0.00157425
0.00107974
-0.00172392
0.00120631
-0.00185839
0.00132652
-0.0019763
0.00143869
-0.00207713
0.00154175
-0.00216117
0.00163519
-0.00222928
0.001719
-0.00228276
0.00179358
-0.00232319
0.00185962
-0.00235228
0.001918
-0.00237173
0.00196972
-0.00238318
0.00201583
-0.00238809
-0.00238748
0.00205747
6.09031e-06
-1.21794e-05
2.62176e-05
-7.77537e-05
6.17828e-05
-0.000177387
0.000113642
-0.000305324
0.000182017
-0.000456342
0.000266386
-0.000625164
0.000365421
-0.000806306
0.000477013
-0.000994108
0.000598375
-0.00118291
0.000726252
-0.00136734
0.000857177
-0.00154262
0.000987748
-0.00170482
0.00111488
-0.00185105
0.001236
-0.00197951
0.00134916
-0.00208946
0.00145308
-0.00218106
0.00154713
-0.00225522
0.00163122
-0.00231337
0.00170572
-0.00235727
0.00177136
-0.00238882
0.00182904
-0.00240997
0.00187983
-0.00242252
0.00192479
-0.00242814
0.00196499
-0.0024283
-0.00242401
0.00200152
6.91378e-06
-1.90932e-05
2.93018e-05
-0.000100142
6.83956e-05
-0.000216481
0.000124822
-0.000361751
0.000198464
-0.000529984
0.000288343
-0.000715043
0.000392585
-0.000910548
0.000508496
-0.00111002
0.000632754
-0.00130717
0.000761681
-0.00149627
0.000891561
-0.0016725
0.00101895
-0.0018322
0.0011409
-0.001973
0.00125514
-0.00209375
0.00136014
-0.00219445
0.00145507
-0.00227599
0.00153974
-0.00233989
0.00161448
-0.00238811
0.00167999
-0.00242278
0.00173724
-0.00244607
0.0017873
-0.00246003
0.00183131
-0.00246653
0.00187037
-0.0024672
0.00190551
-0.00246343
-0.00245621
0.0019377
7.80211e-06
-2.68953e-05
3.2581e-05
-0.000124921
7.53247e-05
-0.000259224
0.000136346
-0.000422772
0.000215099
-0.000608737
0.000310067
-0.000810011
0.000418773
-0.00101925
0.00053793
-0.00122918
0.000663717
-0.00143296
0.000792125
-0.00162468
0.00091932
-0.0017997
0.00104194
-0.00195483
0.00115733
-0.00208839
0.00126362
-0.00220004
0.00135974
-0.00229057
0.00144534
-0.00236158
0.00152065
-0.0024152
0.00158636
-0.00245382
0.00164344
-0.00247986
0.00169303
-0.00249565
0.00173628
-0.00250329
0.00177437
-0.00250461
0.00180834
-0.00250118
0.00183916
-0.00249425
-0.00248474
0.0018677
8.74261e-06
-3.56379e-05
3.6003e-05
-0.000152181
8.24492e-05
-0.000305671
0.000147992
-0.000488315
0.00023157
-0.000692315
0.000331058
-0.000909498
0.00044334
-0.00113154
0.000564553
-0.00135039
0.00069045
-0.00155885
0.000816808
-0.00175104
0.000939811
-0.0019227
0.00105633
-0.00207135
0.00116409
-0.00219615
0.00126171
-0.00229765
0.00134859
-0.00237746
0.00142485
-0.00243785
0.00149112
-0.00248147
0.00154835
-0.00251106
0.00159772
-0.00252923
0.00164045
-0.00253837
0.00167773
-0.00254057
0.00171069
-0.00253757
0.00174032
-0.0025308
0.00176747
-0.0025214
-0.00251016
0.00179289
9.72327e-06
-4.53612e-05
3.95165e-05
-0.000181974
8.96482e-05
-0.000355802
0.00015954
-0.000558207
0.000247534
-0.000780309
0.000350838
-0.0010128
0.00046569
-0.00124639
0.0005877
-0.0014724
0.000712292
-0.00168345
0.000835166
-0.00187391
0.000952665
-0.0020402
0.00106201
-0.0021807
0.0011614
-0.00229554
0.00124995
-0.0023862
0.00132757
-0.00245507
0.00139478
-0.00250506
0.00145252
-0.00253921
0.00150197
-0.00256051
0.0015444
-0.00257166
0.00158108
-0.00257505
0.00161317
-0.00257266
0.00164173
-0.00256612
0.00166763
-0.00255671
0.00169164
-0.00254541
-0.00253289
0.00171437
1.07323e-05
-5.60934e-05
4.30702e-05
-0.000214312
9.68008e-05
-0.000409533
0.000170772
-0.000632178
0.000262655
-0.000872192
0.000368959
-0.00111911
0.000485293
-0.00136272
0.000606817
-0.00159392
0.000728751
-0.00180538
0.000846858
-0.00199202
0.000957771
-0.00215111
0.00105916
-0.00228209
0.00114974
-0.00238612
0.00122915
-0.0024656
0.00129773
-0.00252366
0.00135636
-0.00256369
0.00140623
-0.00258908
0.00144865
-0.00260292
0.00148493
-0.00260795
0.00151632
-0.00260644
0.00154392
-0.00260026
0.00156867
-0.00259088
0.00159137
-0.0025794
0.00161264
-0.00256668
-0.00255325
0.001633
1.17575e-05
-6.78509e-05
4.6612e-05
-0.000249167
0.000103786
-0.000466707
0.000181473
-0.000709864
0.000276616
-0.000967335
0.000385015
-0.00122751
0.000501699
-0.00147941
0.00062148
-0.0017137
0.000739513
-0.00192341
0.00085176
-0.00210426
0.000955256
-0.00225461
0.00104819
-0.00237502
0.0011298
-0.00246773
0.00120021
-0.00253602
0.00126018
-0.00258362
0.00131085
-0.00261436
0.00135356
-0.00263179
0.00138969
-0.00263906
0.00142056
-0.00263882
0.00144734
-0.00263322
0.00147104
-0.00262396
0.0014925
-0.00261233
0.00151238
-0.00259928
0.00153122
-0.00258552
-0.00257146
0.00154943
1.27863e-05
-8.06373e-05
5.00888e-05
-0.000286469
0.000110484
-0.000527102
0.000191436
-0.000790817
0.000289126
-0.00106502
0.000398655
-0.00133703
0.000514551
-0.0015953
0.000631401
-0.00183055
0.000744437
-0.00203645
0.000849942
-0.00220977
0.000945441
-0.00235011
0.00102967
-0.00245924
0.00110239
-0.00254045
0.00116416
-0.00259779
0.00121605
-0.00263552
0.00125942
-0.00265772
0.00129569
-0.00266806
0.00132626
-0.00266963
0.00135238
-0.00266494
0.00137513
-0.00265597
0.00139541
-0.00264425
0.00141395
-0.00263087
0.00143131
-0.00261665
0.00144794
-0.00260214
-0.00258766
0.00146414
1.38052e-05
-9.44425e-05
5.34463e-05
-0.00032611
0.000116775
-0.00059043
0.000200468
-0.00087451
0.000299922
-0.00116448
0.000409587
-0.0014467
0.000523589
-0.00170931
0.000636427
-0.00194339
0.000743541
-0.00214356
0.000841644
-0.00230787
0.0009288
-0.00243726
0.00100429
-0.00253474
0.00106838
-0.00260454
0.00112198
-0.00265139
0.00116641
-0.00267995
0.00120316
-0.00269447
0.00123368
-0.00269858
0.00125932
-0.00269527
0.00128126
-0.00268687
0.00130046
-0.00267517
0.00131771
-0.0026615
0.00133363
-0.00264679
0.00134868
-0.0026317
0.00136323
-0.00261669
-0.00260195
0.00137751
1.47998e-05
-0.000109242
5.66298e-05
-0.00036794
0.000122545
-0.000656345
0.000208389
-0.000960354
0.000308781
-0.00126487
0.000417589
-0.00155551
0.000528658
-0.00182037
0.000636535
-0.00205127
0.000736989
-0.00224402
0.000827241
-0.00239813
0.000905918
-0.00251594
0.000972834
-0.00260165
0.00102867
-0.00266037
0.00107465
-0.00269737
0.00111226
-0.00271757
0.00114305
-0.00272525
0.00116844
-0.00272398
0.00118972
-0.00271654
0.00120794
-0.00270509
0.00122396
-0.0026912
0.00123847
-0.002676
0.00125198
-0.00266029
0.00126487
-0.00264459
0.00127741
-0.00262924
-0.00261436
0.00128982
1.57555e-05
-0.000124998
5.95854e-05
-0.00041177
0.000127685
-0.000724445
0.00021504
-0.00104771
0.000315524
-0.00136536
0.000422513
-0.00166249
0.0005297
-0.00192756
0.000631817
-0.00215338
0.00072506
-0.00233726
0.000807205
-0.00248027
0.000877443
-0.00258618
0.000936072
-0.00266028
0.000984134
-0.00270844
0.00102308
-0.00273631
0.00105449
-0.00274898
0.00107991
-0.00275068
0.00110073
-0.00274479
0.0011181
-0.00273392
0.00113299
-0.00271998
0.00114614
-0.00270435
0.00115812
-0.00268798
0.00116935
-0.00267152
0.00118015
-0.00265539
0.00119075
-0.00263983
-0.00262489
0.00120128
1.6657e-05
-0.000141655
6.2261e-05
-0.000457374
0.000132099
-0.000794283
0.00022029
-0.0011359
0.000320019
-0.00146508
0.00042428
-0.00176676
0.000526752
-0.00203003
0.000622465
-0.0022491
0.000708123
-0.00242292
0.000782076
-0.00255422
0.000844054
-0.00264816
0.000894782
-0.00271101
0.000935587
-0.00274924
0.000968072
-0.0027688
0.000993865
-0.00277477
0.00101447
-0.00277128
0.00103117
-0.00276149
0.00104503
-0.00274778
0.00105688
-0.00273183
0.00106737
-0.00271483
0.00107696
-0.00269758
0.00108601
-0.00268058
0.00109477
-0.00266415
0.00110342
-0.00264848
-0.00263354
0.00111207
1.74897e-05
-0.000159145
6.4608e-05
-0.000504493
0.0001357
-0.000865374
0.000224034
-0.00122424
0.000322184
-0.00156323
0.000422885
-0.00186746
0.00051993
-0.00212708
0.000608752
-0.00233792
0.00068661
-0.00250078
0.000752428
-0.00262004
0.000806428
-0.00270216
0.000849696
-0.00275428
0.000883775
-0.00278332
0.000910356
-0.00279538
0.000931056
-0.00279547
0.000947303
-0.00278752
0.00096028
-0.00277447
0.000970929
-0.00275843
0.00097997
-0.00274088
0.000987945
-0.00272281
0.000995249
-0.00270488
0.00100217
-0.00268749
0.0010089
-0.00267089
0.00101559
-0.00265516
-0.00264027
0.00102232
1.82393e-05
-0.000177384
6.65826e-05
-0.000552836
0.000138416
-0.000937208
0.000226199
-0.00131202
0.000321985
-0.00165902
0.000418383
-0.00196386
0.00050942
-0.00221811
0.000591009
-0.00241951
0.000660991
-0.00257076
0.00071884
-0.00267789
0.000765216
-0.00274853
0.000801494
-0.00279056
0.000829366
-0.00281119
0.000850553
-0.00281657
0.000866624
-0.00281154
0.000878909
-0.00279981
0.000888475
-0.00278404
0.000896147
-0.0027661
0.000902542
-0.00274727
0.000908113
-0.00272838
0.000913184
-0.00270995
0.000917988
-0.0026923
0.000922686
-0.00267559
0.000927386
-0.00265986
-0.00264505
0.000932158
1.88925e-05
-0.000196276
6.81469e-05
-0.00060209
0.000140195
-0.00100926
0.000226741
-0.00139856
0.000319436
-0.00175171
0.000410887
-0.00205531
0.000495459
-0.00230269
0.000569607
-0.00249366
0.000631753
-0.0026329
0.000681883
-0.00272802
0.000721029
-0.00278768
0.000750789
-0.00282032
0.000772942
-0.00283335
0.000789195
-0.00283282
0.000801035
-0.00282338
0.000809682
-0.00280846
0.000816085
-0.00279044
0.000820958
-0.00277097
0.000824822
-0.00275114
0.000828054
-0.00273161
0.00083092
-0.00271282