/*--------------------------------*- C++ -*----------------------------------*\
  =========                 |
  \\      /  F ield         | OpenFOAM: The Open Source CFD Toolbox
   \\    /   O peration     | Website:  https://openfoam.org
    \\  /    A nd           | Version:  6.0
     \\/     M anipulation  |
\*---------------------------------------------------------------------------*/
FoamFile
{
    version     2.0;
    format      ascii;
    class       volScalarField;
    location    "37";
    object      p;
}
// * * * * * * * * * * * * * * * * * * * * * * * * * * * * * * * * * * * * * //

dimensions      [0 2 -2 0 0 0 0];

internalField   nonuniform List<scalar> 
4000
(
-0.442251
-0.428531
-0.41647
-0.403318
-0.387888
-0.370618
-0.352254
-0.333565
-0.31522
-0.297696
-0.281271
-0.266066
-0.25209
-0.239289
-0.227574
-0.216843
-0.207
-0.197923
-0.18942
-0.181786
-0.450264
-0.436098
-0.423241
-0.40869
-0.39137
-0.372001
-0.351591
-0.331076
-0.311193
-0.29242
-0.274998
-0.258999
-0.244389
-0.231075
-0.21894
-0.207863
-0.197731
-0.188405
-0.179676
-0.171914
-0.456495
-0.441982
-0.42828
-0.4122
-0.39288
-0.371375
-0.348961
-0.326723
-0.30544
-0.285562
-0.267283
-0.25062
-0.235491
-0.221769
-0.20931
-0.197974
-0.187636
-0.178135
-0.169252
-0.161435
-0.460578
-0.445817
-0.431222
-0.413509
-0.392128
-0.368508
-0.34419
-0.320379
-0.297861
-0.277045
-0.258062
-0.240871
-0.225347
-0.211327
-0.198644
-0.187141
-0.17668
-0.167082
-0.15812
-0.150325
-0.462154
-0.447244
-0.431717
-0.412302
-0.388854
-0.363203
-0.337135
-0.311936
-0.288376
-0.266802
-0.247277
-0.229704
-0.213912
-0.199709
-0.186905
-0.17533
-0.164836
-0.155222
-0.146259
-0.138561
-0.46089
-0.445928
-0.429445
-0.408299
-0.382839
-0.355301
-0.32768
-0.30131
-0.276919
-0.25478
-0.234883
-0.217076
-0.201149
-0.186881
-0.174064
-0.162517
-0.15208
-0.142535
-0.133652
-0.126132
-0.456483
-0.441563
-0.42412
-0.401266
-0.373908
-0.344679
-0.315741
-0.288443
-0.263445
-0.240938
-0.220844
-0.202957
-0.18703
-0.17282
-0.160102
-0.148686
-0.138401
-0.129012
-0.120293
-0.113028
-0.448673
-0.433888
-0.415508
-0.391017
-0.361932
-0.331252
-0.301264
-0.273294
-0.247922
-0.225252
-0.205138
-0.187325
-0.171537
-0.157509
-0.145005
-0.133826
-0.123791
-0.114648
-0.106183
-0.0992509
-0.437249
-0.42269
-0.403425
-0.37742
-0.34683
-0.314976
-0.284226
-0.255851
-0.23034
-0.207712
-0.187754
-0.170172
-0.154663
-0.140946
-0.128772
-0.117938
-0.108254
-0.0994528
-0.0913299
-0.0848102
-0.422056
-0.407815
-0.387748
-0.3604
-0.328567
-0.295845
-0.264631
-0.236124
-0.210709
-0.188323
-0.168698
-0.151502
-0.136412
-0.123132
-0.111409
-0.101031
-0.0918012
-0.0834409
-0.0757566
-0.0697292
-0.403002
-0.38917
-0.368414
-0.339937
-0.307157
-0.273888
-0.242517
-0.214144
-0.189055
-0.167109
-0.147988
-0.131331
-0.116797
-0.104083
-0.092928
-0.0831189
-0.0744519
-0.0666366
-0.0594934
-0.054046
-0.380056
-0.366727
-0.345423
-0.316065
-0.28266
-0.249175
-0.217948
-0.189971
-0.165429
-0.144111
-0.125658
-0.109686
-0.095842
-0.0838173
-0.0733492
-0.064222
-0.0562265
-0.0490658
-0.0425753
-0.0378027
-0.353254
-0.340521
-0.318838
-0.288876
-0.255178
-0.221807
-0.191019
-0.163687
-0.139901
-0.119388
-0.101755
-0.0866054
-0.0735781
-0.0623619
-0.0526945
-0.0443596
-0.0371449
-0.0307531
-0.0250336
-0.0210231
-0.322696
-0.310652
-0.288779
-0.258509
-0.224857
-0.191924
-0.161853
-0.135399
-0.112561
-0.0930148
-0.0763437
-0.0621404
-0.0500442
-0.0397458
-0.0309857
-0.0235496
-0.0172256
-0.0117225
-0.00689224
-0.00369996
-0.288544
-0.277283
-0.255425
-0.225152
-0.191883
-0.159696
-0.130604
-0.105241
-0.0835245
-0.0650895
-0.0495019
-0.0363526
-0.0252854
-0.0159984
-0.00823979
-0.00180137
0.00352231
0.00801301
0.0118395
0.0141673
-0.251017
-0.240634
-0.219005
-0.189039
-0.156477
-0.125326
-0.097454
-0.0733728
-0.0529317
-0.0357313
-0.0213291
-0.00931991
0.000642281
0.00884607
0.0155288
0.0208867
0.0251132
0.0284736
0.0311586
0.0324572
-0.210392
-0.200975
-0.179795
-0.150441
-0.118895
-0.0890497
-0.0626123
-0.0399828
-0.0209477
-0.0050833
0.00805481
0.0188618
0.0276677
0.03474
0.0402938
0.0445094
0.0475641
0.049669
0.0509527
0.0507873
-0.16699
-0.158626
-0.138115
-0.109666
-0.0794246
-0.0511284
-0.0263181
-0.00528605
0.0122351
0.0266868
0.0385103
0.0480864
0.0557222
0.0616534
0.0660616
0.0691058
0.0709236
0.0715556
0.0709057
0.0687154
-0.121175
-0.113946
-0.0943166
-0.0670507
-0.0383799
-0.0118519
0.0111622
0.0304715
0.0463909
0.0593764
0.0698661
0.0782285
0.0847484
0.0896281
0.0930124
0.095029
0.0957038
0.0946894
0.0915377
0.0872514
-0.0733477
-0.0673254
-0.0487811
-0.0229571
0.00390342
0.0284684
0.049537
0.0670129
0.0812535
0.0927279
0.101876
0.109065
0.114578
0.118615
0.121334
0.122879
0.123156
0.121332
0.116718
0.112055
-0.0239331
-0.0191818
-0.00191077
0.022237
0.0470743
0.0695055
0.0884974
0.10404
0.116525
0.126433
0.134205
0.140212
0.144752
0.148063
0.150385
0.15199
0.152854
0.152016
0.149214
0.152592
0.0266308
0.0300543
0.0458804
0.0681437
0.0907736
0.110926
0.127729
0.141249
0.151906
0.160182
0.166514
0.171267
0.174737
0.177176
0.178839
0.179985
0.180606
0.180238
0.179757
0.185264
0.077887
0.0799376
0.0941688
0.11437
0.13464
0.152395
0.166918
0.178343
0.187109
0.193694
0.198528
0.201965
0.204298
0.205776
0.206643
0.207118
0.207185
0.206559
0.206127
0.210546
0.129375
0.13002
0.14253
0.160524
0.178315
0.193584
0.205761
0.215035
0.221858
0.2267
0.229975
0.232024
0.233124
0.233513
0.233418
0.233032
0.232353
0.231161
0.230192
0.233143
0.180634
0.179853
0.190545
0.206222
0.22145
0.234176
0.243964
0.251056
0.255905
0.25897
0.260646
0.261254
0.261056
0.260269
0.259094
0.257699
0.256066
0.254004
0.252187
0.253767
0.231212
0.228999
0.237801
0.251087
0.263704
0.273861
0.28125
0.28615
0.289016
0.290291
0.290348
0.289488
0.287953
0.28594
0.28363
0.28116
0.278501
0.275482
0.272744
0.273008
0.280664
0.277028
0.283898
0.294757
0.304752
0.312348
0.317353
0.320079
0.320977
0.320471
0.318913
0.316583
0.3137
0.310444
0.306973
0.303403
0.299693
0.295698
0.292033
0.291054
0.328563
0.323526
0.328453
0.336885
0.344281
0.349356
0.352021
0.352617
0.351586
0.349332
0.346186
0.342407
0.338193
0.333706
0.329086
0.324427
0.319684
0.314739
0.310172
0.30801
0.374496
0.368096
0.371098
0.377138
0.381996
0.384619
0.385017
0.38355
0.380652
0.376707
0.372021
0.366835
0.361329
0.355646
0.34991
0.344197
0.338462
0.332611
0.327179
0.323895
0.418074
0.410362
0.411487
0.415206
0.417617
0.417889
0.416117
0.412679
0.407997
0.402434
0.396278
0.389746
0.383004
0.37618
0.369378
0.362663
0.355992
0.349289
0.343037
0.338694
0.458929
0.449974
0.449295
0.450796
0.450882
0.44893
0.44511
0.439814
0.43345
0.426363
0.418821
0.411022
0.403116
0.395216
0.387414
0.379761
0.372218
0.364725
0.357705
0.352368
0.496722
0.486602
0.484221
0.483636
0.481549
0.477524
0.4718
0.464777
0.456852
0.448351
0.439521
0.430547
0.421562
0.412666
0.403938
0.39542
0.387077
0.37886
0.371129
0.364869
0.531138
0.519947
0.515989
0.513479
0.509394
0.503471
0.496006
0.487406
0.478055
0.468262
0.458258
0.448212
0.438243
0.42844
0.41887
0.409566
0.400499
0.391629
0.383249
0.376145
0.561893
0.549738
0.544348
0.540099
0.534217
0.526589
0.517563
0.50755
0.496922
0.485974
0.474919
0.463913
0.453066
0.442452
0.43213
0.422127
0.412417
0.402967
0.394004
0.386142
0.588736
0.575732
0.569078
0.563296
0.555836
0.546715
0.536324
0.525076
0.513333
0.501374
0.489402
0.477559
0.465943
0.454623
0.443646
0.433034
0.422766
0.412813
0.40334
0.394811
0.611447
0.59772
0.589987
0.582899
0.574097
0.563709
0.55216
0.539866
0.527178
0.514364
0.501615
0.489064
0.476799
0.464882
0.453351
0.442225
0.431486
0.421109
0.411203
0.402107
0.629842
0.615526
0.606911
0.598759
0.588867
0.577451
0.564963
0.55182
0.538367
0.52486
0.511482
0.498357
0.485567
0.473166
0.461187
0.449645
0.438527
0.427807
0.417549
0.407991
0.64377
0.629008
0.619721
0.610759
0.600039
0.587843
0.574644
0.560858
0.546825
0.532794
0.518939
0.505379
0.492191
0.479424
0.467106
0.45525
0.443846
0.432867
0.422341
0.412432
0.65312
0.638056
0.628316
0.618809
0.607533
0.594813
0.581136
0.566919
0.552496
0.538112
0.523938
0.510086
0.496631
0.483618
0.471073
0.459007
0.44741
0.436258
0.425551
0.415406
0.657815
0.6426
0.632632
0.62285
0.611294
0.598311
0.584394
0.569959
0.555341
0.540781
0.526445
0.512447
0.498858
0.485722
0.473063
0.46089
0.449197
0.437958
0.42716
0.416897
0.657818
0.642602
0.632634
0.622852
0.611295
0.598312
0.584394
0.56996
0.555342
0.540781
0.526445
0.512447
0.498858
0.485722
0.473062
0.46089
0.449197
0.437957
0.427159
0.416896
0.653127
0.638063
0.628322
0.618814
0.607537
0.594816
0.581138
0.56692
0.552497
0.538113
0.523938
0.510085
0.49663
0.483617
0.471072
0.459005
0.447408
0.436256
0.425549
0.415404
0.643783
0.629019
0.619731
0.610767
0.600046
0.587848
0.574648
0.560861
0.546827
0.532795
0.518939
0.505378
0.49219
0.479422
0.467104
0.455247
0.443843
0.432864
0.422337
0.412428
0.629858
0.615541
0.606925
0.59877
0.588876
0.577458
0.564968
0.551824
0.538369
0.524861
0.511482
0.498355
0.485564
0.473162
0.461183
0.449641
0.438522
0.427802
0.417543
0.407986
0.611467
0.597739
0.590003
0.582912
0.574108
0.563718
0.552167
0.53987
0.52718
0.514365
0.501614
0.489061
0.476796
0.464877
0.453346
0.442219
0.43148
0.421102
0.411195
0.402099
0.588759
0.575753
0.569097
0.563312
0.555849
0.546725
0.536331
0.52508
0.513335
0.501374
0.4894
0.477555
0.465939
0.454618
0.443639
0.433026
0.422757
0.412804
0.40333
0.394801
0.561919
0.549761
0.544369
0.540116
0.53423
0.526598
0.51757
0.507554
0.496924
0.485973
0.474916
0.463909
0.453059
0.442445
0.432122
0.422118
0.412407
0.402956
0.393993
0.38613
0.531164
0.519971
0.51601
0.513496
0.509408
0.50348
0.496012
0.487408
0.478055
0.46826
0.458254
0.448205
0.438235
0.428431
0.418859
0.409555
0.400486
0.391616
0.383235
0.376131
0.496749
0.486626
0.484242
0.483653
0.481562
0.477532
0.471805
0.464778
0.45685
0.448346
0.439514
0.430538
0.421552
0.412654
0.403925
0.395406
0.387061
0.378844
0.371112
0.364852
0.458955
0.449996
0.449314
0.450811
0.450893
0.448936
0.445113
0.439813
0.433446
0.426356
0.418811
0.411011
0.403103
0.395202
0.387398
0.379744
0.3722
0.364706
0.357686
0.352348
0.418097
0.410382
0.411503
0.415219
0.417625
0.417892
0.416117
0.412675
0.40799
0.402424
0.396265
0.389732
0.382988
0.376161
0.369358
0.362643
0.355971
0.349267
0.343014
0.338671
0.374515
0.368111
0.37111
0.377147
0.382
0.384619
0.385013
0.383543
0.380641
0.376693
0.372005
0.366816
0.361308
0.355624
0.349886
0.344173
0.338437
0.332585
0.327152
0.323869
0.328575
0.323535
0.328459
0.336888
0.34428
0.34935
0.352012
0.352604
0.35157
0.349314
0.346165
0.342383
0.338168
0.33368
0.329058
0.324398
0.319655
0.314709
0.310141
0.30798
0.28067
0.27703
0.283897
0.294754
0.304745
0.312337
0.317338
0.32006
0.320955
0.320447
0.318886
0.316554
0.31367
0.310412
0.30694
0.303369
0.299659
0.295663
0.291998
0.29102
0.231208
0.228992
0.237791
0.251075
0.263689
0.273843
0.281228
0.286125
0.288988
0.29026
0.290315
0.289454
0.287917
0.285903
0.283592
0.281121
0.278462
0.275442
0.272704
0.272969
0.180619
0.179835
0.190525
0.2062
0.221425
0.234148
0.243934
0.251023
0.255869
0.258932
0.260606
0.261213
0.261014
0.260226
0.25905
0.257654
0.256021
0.253958
0.252142
0.253723
0.129346
0.129987
0.142498
0.160491
0.17828
0.193547
0.205721
0.214993
0.221814
0.226654
0.229928
0.231975
0.233075
0.233463
0.233367
0.232981
0.232301
0.23111
0.230141
0.233093
0.0778425
0.0798901
0.0941215
0.114323
0.134592
0.152346
0.166867
0.178291
0.187055
0.193639
0.198472
0.201908
0.204241
0.205718
0.206584
0.207059
0.207127
0.2065
0.206069
0.21049
0.0265687
0.0299895
0.0458168
0.0680816
0.090712
0.110864
0.127666
0.141185
0.151841
0.160117
0.166448
0.1712
0.174671
0.177109
0.178772
0.179919
0.18054
0.180172
0.179691
0.185201
-0.0240149
-0.019266
-0.00199277
0.0221579
0.0469971
0.0694291
0.0884212
0.103964
0.116449
0.126356
0.134128
0.140136
0.144676
0.147987
0.15031
0.151915
0.152779
0.151941
0.149139
0.152519
-0.0734512
-0.0674309
-0.0488834
-0.0230549
0.00380895
0.0283761
0.0494461
0.0669231
0.0811644
0.0926395
0.101789
0.108978
0.114492
0.11853
0.121249
0.122795
0.123072
0.121248
0.116634
0.111971
-0.121302
-0.114075
-0.094441
-0.067169
-0.0384932
-0.0119615
0.0110554
0.0303667
0.0462879
0.059275
0.0697662
0.07813
0.0846512
0.0895322
0.0929177
0.0949356
0.0956114
0.0945979
0.0914469
0.087161
-0.167142
-0.15878
-0.138263
-0.109806
-0.0795584
-0.0512568
-0.0264422
-0.00540678
0.0121173
0.0265715
0.0383974
0.0479758
0.0556136
0.0615469
0.065957
0.0690031
0.0708227
0.0714565
0.0708084
0.0686193
-0.210572
-0.201156
-0.179969
-0.150605
-0.119051
-0.0891981
-0.0627549
-0.0401205
-0.0210813
-0.00521322
0.00792827
0.0187384
0.0275473
0.0346224
0.0401789
0.0443971
0.0474543
0.0495619
0.0508481
0.0506845
-0.251226
-0.240843
-0.219206
-0.189229
-0.156656
-0.125496
-0.0976162
-0.0735286
-0.053082
-0.0358767
-0.0214699
-0.00945664
0.000509454
0.00871695
0.0154032
0.0207645
0.0249944
0.028358
0.0310462
0.0323472
-0.288783
-0.277523
-0.255655
-0.225369
-0.192087
-0.159888
-0.130787
-0.105415
-0.0836923
-0.0652511
-0.0496578
-0.0365033
-0.0254311
-0.0161394
-0.00837643
-0.0019338
0.00339397
0.00788875
0.0117191
0.0140498
-0.322967
-0.310923
-0.289039
-0.258754
-0.225087
-0.19214
-0.162058
-0.135594
-0.112747
-0.0931933
-0.0765152
-0.0623055
-0.0502033
-0.0398992
-0.0311338
-0.0236925
-0.0173637
-0.0118557
-0.00702077
-0.00382488
-0.353557
-0.340823
-0.319129
-0.28915
-0.255435
-0.222048
-0.191246
-0.163902
-0.140106
-0.119584
-0.101943
-0.0867853
-0.0737509
-0.062528
-0.0528542
-0.0445133
-0.0372929
-0.0308954
-0.0251705
-0.0211556
-0.380392
-0.367062
-0.345746
-0.31637
-0.282945
-0.249441
-0.218199
-0.190208
-0.165654
-0.144326
-0.125862
-0.109881
-0.096029
-0.0839965
-0.073521
-0.0643868
-0.0563847
-0.0492175
-0.0427207
-0.0379431
-0.403371
-0.389539
-0.368769
-0.340272
-0.307471
-0.274181
-0.242792
-0.214404
-0.189301
-0.167342
-0.148209
-0.131542
-0.116999
-0.104275
-0.0931121
-0.0832951
-0.0746205
-0.0667978
-0.0596476
-0.0541943
-0.422458
-0.408216
-0.388136
-0.360767
-0.32891
-0.296165
-0.264931
-0.236406
-0.210975
-0.188575
-0.168937
-0.15173
-0.136628
-0.123339
-0.111605
-0.101218
-0.0919803
-0.0836118
-0.0759196
-0.0698856
-0.437683
-0.423123
-0.403845
-0.377818
-0.347203
-0.315324
-0.284551
-0.256157
-0.230628
-0.207983
-0.188011
-0.170416
-0.154895
-0.141166
-0.128982
-0.118137
-0.108444
-0.0996335
-0.0915019
-0.0849747
-0.449139
-0.434352
-0.41596
-0.391446
-0.362335
-0.331628
-0.301615
-0.273623
-0.248231
-0.225543
-0.205413
-0.187585
-0.171784
-0.157744
-0.145228
-0.134037
-0.123992
-0.114839
-0.106364
-0.0994234
-0.456979
-0.442058
-0.424602
-0.401725
-0.37434
-0.345082
-0.316118
-0.288795
-0.263775
-0.24125
-0.221138
-0.203234
-0.187292
-0.173068
-0.160337
-0.148909
-0.138612
-0.129212
-0.120483
-0.113208
-0.461415
-0.446451
-0.429955
-0.408787
-0.383299
-0.355732
-0.328082
-0.301687
-0.277272
-0.255111
-0.235195
-0.217371
-0.201427
-0.187144
-0.174313
-0.162753
-0.152303
-0.142746
-0.133851
-0.12632
-0.462706
-0.447794
-0.432255
-0.412818
-0.389342
-0.363661
-0.337563
-0.312336
-0.288751
-0.267154
-0.247608
-0.230016
-0.214206
-0.199986
-0.187166
-0.175577
-0.165069
-0.155442
-0.146466
-0.138758
-0.461154
-0.446391
-0.431785
-0.414052
-0.392642
-0.368992
-0.344643
-0.320803
-0.298258
-0.277417
-0.258411
-0.2412
-0.225657
-0.211619
-0.198919
-0.1874
-0.176924
-0.167312
-0.158337
-0.150529
-0.457094
-0.442578
-0.428865
-0.412766
-0.39342
-0.371883
-0.349438
-0.327171
-0.305858
-0.285955
-0.267652
-0.250966
-0.235817
-0.222076
-0.209599
-0.198246
-0.187891
-0.178375
-0.169477
-0.161647
-0.450882
-0.436712
-0.423847
-0.409277
-0.391932
-0.372534
-0.352092
-0.331546
-0.311634
-0.292833
-0.275385
-0.259363
-0.24473
-0.231396
-0.219242
-0.208146
-0.197998
-0.188655
-0.17991
-0.172133
-0.442885
-0.429161
-0.417093
-0.403924
-0.388471
-0.371172
-0.352777
-0.334057
-0.315682
-0.298129
-0.281677
-0.266447
-0.252448
-0.239625
-0.227889
-0.217139
-0.207277
-0.198183
-0.189663
-0.182013
0.0932819
0.065727
0.0453743
0.035579
0.0267921
0.014992
0.00178241
-0.0109758
-0.0229995
-0.0346928
-0.0462893
-0.0577607
-0.0690167
-0.0800189
-0.0907765
-0.101315
-0.111661
-0.121843
-0.131899
-0.141876
0.0359465
0.0220048
0.00969857
0.00231247
-0.00313978
-0.00950401
-0.0169414
-0.0244184
-0.031346
-0.0377828
-0.0439548
-0.0499562
-0.0557598
-0.061318
-0.06661
-0.0716366
-0.0764015
-0.0809033
-0.0851355
-0.0890889
0.0207659
0.0145499
0.00882992
0.00414029
1.20729e-05
-0.00422229
-0.00876862
-0.0134328
-0.0180015
-0.0224292
-0.0267773
-0.0311026
-0.0354192
-0.0397183
-0.0439929
-0.0482453
-0.0524833
-0.0567151
-0.0609478
-0.0651886
0.0113726
0.00746703
0.00350624
-0.000263564
-0.00385809
-0.00740737
-0.0109861
-0.0145772
-0.0181309
-0.0216203
-0.0250479
-0.0284263
-0.0317616
-0.0350528
-0.0382965
-0.0414913
-0.0446374
-0.0477362
-0.0507887
-0.0537959
0.00385056
0.000681617
-0.00234868
-0.00507613
-0.00767534
-0.0102767
-0.0128948
-0.0155003
-0.0180732
-0.0206112
-0.0231199
-0.0256053
-0.0280708
-0.0305186
-0.0329503
-0.0353676
-0.037773
-0.0401689
-0.0425577
-0.0449419
-0.00203129
-0.00459014
-0.00688668
-0.00887232
-0.0107755
-0.0127233
-0.0147109
-0.0166983
-0.0186665
-0.0206174
-0.022558
-0.024492
-0.0264199
-0.0283413
-0.0302561
-0.0321646
-0.0340674
-0.035965
-0.0378576
-0.0397458
-0.00599336
-0.00799574
-0.0097392
-0.0112407
-0.0126964
-0.0142024
-0.0157483
-0.0172992
-0.0188391
-0.0203697
-0.0218968
-0.0234231
-0.0249485
-0.0264722
-0.027994
-0.0295138
-0.0310322
-0.0325493
-0.0340655
-0.0355812
-0.00862157
-0.0101765
-0.0115492
-0.0127532
-0.0139261
-0.0151371
-0.0163802
-0.0176304
-0.0188754
-0.0201156
-0.021355
-0.0225954
-0.0238368
-0.0250782
-0.0263193
-0.02756
-0.0288003
-0.0300402
-0.0312798
-0.0325191
-0.0104403
-0.0116313
-0.0127401
-0.0137473
-0.0147268
-0.0157253
-0.016745
-0.017772
-0.0187976
-0.0198207
-0.0208433
-0.0218667
-0.022891
-0.0239156
-0.0249401
-0.0259645
-0.0269887
-0.0280127
-0.0290365
-0.03006
-0.0118306
-0.0127233
-0.0136261
-0.014488
-0.0153252
-0.0161637
-0.0170121
-0.0178666
-0.0187221
-0.0195767
-0.0204307
-0.0212848
-0.0221393
-0.022994
-0.0238486
-0.0247029
-0.0255571
-0.026411
-0.0272646
-0.028118
-0.0129932
-0.0136504
-0.0143815
-0.0151186
-0.0158368
-0.0165444
-0.0172528
-0.0179651
-0.0186796
-0.0193942
-0.0201084
-0.0208222
-0.021536
-0.0222498
-0.0229635
-0.0236771
-0.0243906
-0.025104
-0.0258173
-0.0265306
-0.0140104
-0.0144902
-0.0150754
-0.0156958
-0.0163045
-0.0168973
-0.0174852
-0.0180753
-0.018668
-0.0192616
-0.0198552
-0.0204485
-0.0210419
-0.0216356
-0.0222295
-0.0228238
-0.0234185
-0.0240135
-0.0246091
-0.0252051
-0.0148747
-0.0152139
-0.0156702
-0.0161796
-0.0166846
-0.0171725
-0.0176524
-0.0181331
-0.0186167
-0.019102
-0.0195879
-0.0200741
-0.0205609
-0.0210486
-0.0215374
-0.0220273
-0.0225185
-0.023011
-0.023505
-0.0240004
-0.0155765
-0.0157878
-0.0161252
-0.0165319
-0.0169408
-0.0173318
-0.0177126
-0.0180932
-0.018477
-0.0188634
-0.0192515
-0.0196408
-0.0200318
-0.0204249
-0.0208204
-0.0212185
-0.0216192
-0.0220229
-0.0224295
-0.0228392
-0.0161118
-0.0161747
-0.0163801
-0.016677
-0.0169842
-0.0172722
-0.0175473
-0.0178217
-0.018101
-0.0183852
-0.0186735
-0.0189655
-0.0192616
-0.0195626
-0.0198688
-0.0201805
-0.0204979
-0.020821
-0.02115
-0.0214849
-0.0166195
-0.0165475
-0.0165871
-0.0167177
-0.0168724
-0.0170198
-0.0171614
-0.0173073
-0.0174636
-0.0176315
-0.0178103
-0.0179996
-0.0181996
-0.0184106
-0.0186327
-0.0188661
-0.0191105
-0.0193658
-0.0196316
-0.0199078
-0.0165911
-0.0164179
-0.0161937
-0.0160007
-0.0158651
-0.0157778
-0.0157253
-0.0157015
-0.0157058
-0.0157389
-0.0158006
-0.0158897
-0.0160047
-0.016144
-0.0163065
-0.0164907
-0.0166954
-0.0169193
-0.017161
-0.0174194
-0.0140627
-0.0136013
-0.0131104
-0.0127212
-0.0124427
-0.0122468
-0.0121126
-0.0120314
-0.0120002
-0.0120167
-0.012078
-0.0121802
-0.0123199
-0.0124937
-0.0126984
-0.0129313
-0.0131896
-0.0134709
-0.0137729
-0.0140932
-0.00251411
0.00117355
0.00245703
0.00179957
0.00069829
-0.000145117
-0.000738798
-0.00127172
-0.00184467
-0.00246183
-0.00309744
-0.00373485
-0.00437058
-0.00500614
-0.00564243
-0.00627873
-0.0069137
-0.00754612
-0.00817509
-0.00879992
0.00949434
0.0217742
0.02553
0.0228995
0.0190472
0.016253
0.0144263
0.0129166
0.0113837
0.00980622
0.00825881
0.00678586
0.00538989
0.0040581
0.00278039
0.00155227
0.000371849
-0.00076272
-0.0018538
-0.00290396
0.128281
0.128817
0.129916
0.131569
0.133776
0.136549
0.139911
0.143882
0.148482
0.153709
0.159554
0.165955
0.172805
0.179863
0.186725
0.192587
0.195963
0.193836
0.179679
0.13858
0.11889
0.119285
0.120036
0.121163
0.122628
0.124452
0.126569
0.129008
0.131643
0.134499
0.137328
0.140127
0.142412
0.14409
0.144195
0.142369
0.13657
0.125516
0.104156
0.0668451
0.107767
0.107983
0.108366
0.10893
0.109641
0.110492
0.111408
0.112361
0.113218
0.11392
0.114238
0.114046
0.112951
0.110695
0.106624
0.100249
0.0905895
0.0770235
0.0588641
0.0364653
0.0956127
0.0956573
0.0957162
0.0957909
0.0958586
0.0958917
0.0958262
0.0955993
0.0951043
0.0942381
0.0928388
0.0907436
0.0877196
0.0835337
0.0779107
0.0706165
0.0615026
0.0504942
0.0375449
0.0218778
0.0831371
0.0830534
0.0828707
0.0825857
0.0821845
0.0816339
0.0808861
0.0798737
0.0785224
0.0767363
0.0744211
0.0714548
0.0677399
0.0631515
0.0576388
0.0511141
0.0435876
0.0348847
0.024753
0.0123264
0.0709321
0.0707691
0.0704353
0.0699265
0.069235
0.0683334
0.0671891
0.0657499
0.0639697
0.0617828
0.0591438
0.0559838
0.0522742
0.047954
0.0430196
0.0373954
0.0310463
0.0237594
0.0152888
0.00498458
0.0594119
0.0592097
0.0588003
0.0581805
0.0573463
0.0562794
0.0549604
0.0533554
0.0514391
0.0491724
0.0465351
0.0434888
0.0400234
0.0360967
0.0317002
0.0267651
0.0212567
0.0150323
0.00795407
-0.000401183
0.048815
0.0486009
0.0481695
0.0475178
0.0466441
0.0455374
0.0441878
0.042575
0.0406861
0.0384974
0.0359988
0.0331645
0.0299883
0.0264384
0.0225109
0.0181641
0.0133953
0.00813597
0.00233075
-0.00428543
0.0392414
0.039032
0.038611
0.0379752
0.0371238
0.0360502
0.0347502
0.0332119
0.031429
0.0293864
0.0270788
0.0244885
0.0216136
0.0184349
0.0149586
0.0111671
0.00707945
0.00267252
-0.00204457
-0.00717046
0.0306973
0.0305012
0.0301076
0.0295126
0.0287154
0.027712
0.0265011
0.0250761
0.023435
0.0215689
0.0194767
0.0171481
0.0145863
0.0117812
0.0087453
0.00547247
0.00199158
-0.00169279
-0.00551591
-0.00942688
0.0231344
0.0229553
0.0225961
0.0220526
0.0213237
0.0204067
0.0193022
0.0180072
0.0165232
0.0148458
0.0129785
0.0109166
0.00866753
0.00622656
0.00360838
0.000811129
-0.00213199
-0.00519936
-0.00828869
-0.0112537
0.0164779
0.0163164
0.015993
0.0155033
0.0148463
0.01402
0.0130269
0.0118662
0.010542
0.00905283
0.0074054
0.0055988
0.00364429
0.00154149
-0.000692036
-0.00305509
-0.00551289
-0.008038
-0.0105144
-0.0127579
0.0106471
0.0105015
0.0102107
0.00977042
0.00918018
0.0084395
0.00755253
0.0065207
0.00534984
0.00404032
0.0025995
0.00102779
-0.000661864
-0.00246566
-0.00436047
-0.00633795
-0.00835932
-0.0103969
-0.0123392
-0.0139994
0.00556939
0.00543562
0.00516938
0.00476699
0.00422889
0.00355662
0.00275702
0.00183482
0.000799057
-0.000347366
-0.00159632
-0.00294866
-0.00439461
-0.00593291
-0.00753931
-0.00919661
-0.0108511
-0.0124604
-0.0139131
-0.0150457
0.00119175
0.00106363
0.000809636
0.000426458
-8.42664e-05
-0.000719353
-0.00146868
-0.00232334
-0.00326794
-0.00429275
-0.00538193
-0.00653249
-0.0077354
-0.00900064
-0.0103196
-0.0116912
-0.0130564
-0.0143429
-0.0153841
-0.0159795
-0.00251181
-0.00264153
-0.00289777
-0.00328419
-0.00379848
-0.00443778
-0.00519004
-0.00604492
-0.00698011
-0.00797781
-0.00900405
-0.0100373
-0.0110422
-0.0120196
-0.0129656
-0.0139321
-0.0149182
-0.015904
-0.0166505
-0.0168164
-0.00553925
-0.0056762
-0.00594744
-0.00635728
-0.006904
-0.0075872
-0.00839704
-0.00932728
-0.0103569
-0.0114687
-0.0126181
-0.0137622
-0.0148151
-0.015708
-0.0163447
-0.0167307
-0.0169106
-0.0170824
-0.0172323
-0.0169398
-0.00786569
-0.00801108
-0.00830456
-0.00874903
-0.00934598
-0.0100963
-0.0109992
-0.0120537
-0.013256
-0.0145988
-0.0160637
-0.0176144
-0.0191742
-0.0206065
-0.0216815
-0.0220873
-0.0215031
-0.0198323
-0.0174744
-0.0152921
-0.00945102
-0.00960357
-0.00991865
-0.0103966
-0.0110431
-0.0118592
-0.0128555
-0.0140354
-0.0154178
-0.0170092
-0.0188402
-0.020916
-0.0232652
-0.0258358
-0.0285197
-0.0308924
-0.0321548
-0.0307468
-0.0248194
-0.0131078
-0.010253
-0.0104126
-0.0107407
-0.0112397
-0.0119153
-0.012773
-0.0138253
-0.0150853
-0.0165775
-0.0183295
-0.0203898
-0.0228171
-0.0257089
-0.029184
-0.033405
-0.0384732
-0.0441946
-0.0491588
-0.0482773
-0.0255234
0.138901
0.139485
0.140789
0.142717
0.145413
0.148778
0.153053
0.158095
0.164283
0.171406
0.180053
0.189901
0.201892
0.215513
0.232344
0.251511
0.275863
0.303754
0.340614
0.382934
0.138864
0.139448
0.140751
0.142679
0.145374
0.148737
0.15301
0.15805
0.164234
0.171352
0.179991
0.18983
0.201804
0.215404
0.232198
0.251314
0.275576
0.303331
0.339959
0.381889
0.13879
0.139373
0.140676
0.142602
0.145295
0.148655
0.152924
0.157959
0.164136
0.171243
0.179868
0.189687
0.20163
0.215187
0.231907
0.250922
0.275002
0.302488
0.338654
0.379804
0.138678
0.139262
0.140563
0.142487
0.145177
0.148533
0.152796
0.157823
0.163989
0.171081
0.179684
0.189473
0.201368
0.214863
0.231472
0.250336
0.274145
0.301229
0.336705
0.37669
0.138531
0.139114
0.140413
0.142335
0.14502
0.148371
0.152626
0.157642
0.163794
0.170866
0.179439
0.189189
0.201022
0.214432
0.230895
0.24956
0.27301
0.299564
0.33412
0.372565
0.138346
0.138929
0.140226
0.142144
0.144825
0.148169
0.152415
0.157417
0.163551
0.170598
0.179136
0.188836
0.200592
0.213897
0.230181
0.248597
0.271602
0.297502
0.33091
0.36745
0.138126
0.138708
0.140003
0.141917
0.144592
0.147927
0.152162
0.157149
0.163261
0.170279
0.178774
0.188416
0.200081
0.21326
0.229331
0.247453
0.269928
0.295055
0.327091
0.361372
0.137869
0.138452
0.139743
0.141654
0.144321
0.147648
0.151869
0.156838
0.162925
0.169909
0.178356
0.187929
0.19949
0.212523
0.228352
0.246134
0.267999
0.292237
0.322678
0.354362
0.137577
0.13816
0.139448
0.141354
0.144014
0.14733
0.151536
0.156485
0.162545
0.169489
0.177882
0.187377
0.198823
0.21169
0.227249
0.244645
0.265825
0.289065
0.317691
0.34646
0.13725
0.137833
0.139118
0.141019
0.14367
0.146975
0.151165
0.156092
0.162121
0.169022
0.177355
0.186762
0.198082
0.210763
0.226026
0.242993
0.263416
0.285556
0.312151
0.337708
0.136888
0.137472
0.138754
0.14065
0.143291
0.146584
0.150756
0.155658
0.161654
0.168508
0.176777
0.186087
0.197271
0.209746
0.224691
0.241184
0.260788
0.281727
0.306082
0.328153
0.136492
0.137077
0.138356
0.140246
0.142878
0.146158
0.15031
0.155186
0.161146
0.167948
0.176148
0.185354
0.196392
0.208643
0.223249
0.239228
0.257956
0.277598
0.299512
0.317848
0.136063
0.136649
0.137925
0.13981
0.142432
0.145698
0.149829
0.154677
0.160599
0.167346
0.175471
0.184565
0.195449
0.207458
0.221709
0.237131
0.254935
0.273186
0.292472
0.306847
0.1356
0.136189
0.137463
0.139342
0.141953
0.145204
0.149314
0.154132
0.160013
0.166702
0.174749
0.183723
0.194446
0.206196
0.220078
0.234902
0.251746
0.268511
0.284999
0.295204
0.135106
0.135697
0.136968
0.138842
0.141442
0.144678
0.148765
0.153553
0.159391
0.166018
0.173983
0.18283
0.193385
0.204859
0.21836
0.232549
0.248406
0.26359
0.277136
0.282966
0.134579
0.135174
0.136444
0.138313
0.1409
0.144121
0.148183
0.152938
0.15873
0.165292
0.173171
0.181884
0.192263
0.203448
0.216557
0.230074
0.244929
0.258439
0.268935
0.270174
0.134021
0.134622
0.13589
0.137754
0.14033
0.143534
0.147571
0.152292
0.158037
0.164531
0.172319
0.180892
0.191088
0.20197
0.214678
0.227491
0.241335
0.253071
0.260458
0.256858
0.133434
0.134041
0.135311
0.137172
0.139739
0.14293
0.146944
0.151636
0.157337
0.163769
0.171471
0.179908
0.189927
0.200501
0.212809
0.224886
0.237716
0.247543
0.251752
0.242923
0.132816
0.133433
0.134706
0.136569
0.139131
0.142314
0.146312
0.150982
0.15665
0.16303
0.170659
0.178971
0.188824
0.199095
0.211012
0.222327
0.234142
0.241901
0.242841
0.227714
0.132164
0.132783
0.134051
0.135904
0.138442
0.141598
0.14555
0.150168
0.155752
0.162035
0.169514
0.177642
0.187217
0.197123
0.208512
0.219051
0.229785
0.23566
0.233795
0.211516
0.132171
0.13279
0.134058
0.135911
0.138448
0.141604
0.145555
0.150172
0.155755
0.162037
0.169514
0.177641
0.187213
0.197117
0.208502
0.219036
0.229765
0.235631
0.233755
0.211459
0.132823
0.133439
0.134713
0.136575
0.139137
0.142319
0.146317
0.150986
0.156654
0.163032
0.170659
0.17897
0.18882
0.199089
0.211003
0.222313
0.234123
0.241874
0.242805
0.227664
0.13344
0.134048
0.135317
0.137178
0.139745
0.142935
0.146949
0.151639
0.15734
0.16377
0.171472
0.179907
0.189923
0.200495
0.2128
0.224872
0.237698
0.247518
0.251719
0.242878
0.134028
0.134628
0.135896
0.13776
0.140335
0.143539
0.147575
0.152296
0.158039
0.164533
0.172319
0.180891
0.191085
0.201965
0.214669
0.227478
0.241317
0.253047
0.260428
0.256818
0.134585
0.13518
0.136449
0.138318
0.140905
0.144125
0.148187
0.152941
0.158733
0.165294
0.173171
0.181883
0.19226
0.203443
0.216549
0.230063
0.244913
0.258417
0.268907
0.270138
0.135111
0.135702
0.136974
0.138847
0.141447
0.144683
0.148769
0.153556
0.159393
0.166019
0.173983
0.182829
0.193382
0.204854
0.218353
0.232538
0.248391
0.26357
0.27711
0.282934
0.135605
0.136194
0.137467
0.139347
0.141957
0.145208
0.149317
0.154135
0.160016
0.166703
0.17475
0.183722
0.194444
0.206191
0.220071
0.234891
0.251732
0.268492
0.284976
0.295175
0.136068
0.136654
0.13793
0.139814
0.142436
0.145701
0.149832
0.15468
0.160601
0.167347
0.175472
0.184564
0.195447
0.207454
0.221703
0.237121
0.254923
0.273169
0.292451
0.306821
0.136497
0.137081
0.13836
0.14025
0.142882
0.146161
0.150313
0.155189
0.161148
0.167949
0.176148
0.185353
0.19639
0.208639
0.223243
0.239219
0.257944
0.277582
0.299493
0.317825
0.136892
0.137476
0.138758
0.140653
0.143295
0.146587
0.150759
0.155661
0.161656
0.168509
0.176777
0.186086
0.197269
0.209743
0.224685
0.241177
0.260778
0.281713
0.306065
0.328133
0.137254
0.137836
0.139122
0.141022
0.143673
0.146978
0.151167
0.156094
0.162122
0.169023
0.177356
0.186762
0.19808
0.21076
0.226021
0.242985
0.263407
0.285543
0.312136
0.33769
0.13758
0.138163
0.139451
0.141357