/*--------------------------------*- C++ -*----------------------------------*\
  =========                 |
  \\      /  F ield         | OpenFOAM: The Open Source CFD Toolbox
   \\    /   O peration     | Website:  https://openfoam.org
    \\  /    A nd           | Version:  6.0
     \\/     M anipulation  |
\*---------------------------------------------------------------------------*/
FoamFile
{
    version     2.0;
    format      ascii;
    class       volScalarField;
    location    "5.2";
    object      p;
}
// * * * * * * * * * * * * * * * * * * * * * * * * * * * * * * * * * * * * * //

dimensions      [0 2 -2 0 0 0 0];

internalField   nonuniform List<scalar> 
8000
(
-0.341221
-0.345042
-0.347373
-0.349132
-0.350858
-0.352654
-0.35457
-0.356625
-0.358808
-0.361093
-0.363447
-0.365832
-0.368213
-0.370555
-0.37283
-0.375012
-0.377066
-0.378909
-0.380569
-0.382611
-0.342053
-0.345747
-0.348015
-0.349741
-0.351444
-0.353225
-0.355132
-0.357183
-0.359366
-0.361655
-0.364014
-0.366408
-0.3688
-0.371156
-0.373445
-0.375643
-0.377712
-0.379572
-0.381242
-0.383291
-0.343679
-0.347126
-0.349269
-0.350928
-0.352585
-0.354335
-0.356223
-0.358264
-0.360445
-0.362737
-0.365107
-0.367516
-0.369927
-0.372306
-0.37462
-0.376845
-0.378944
-0.380833
-0.382521
-0.384586
-0.346003
-0.349097
-0.351061
-0.35262
-0.354206
-0.355907
-0.357761
-0.359781
-0.361952
-0.364243
-0.366619
-0.369043
-0.371475
-0.373878
-0.376222
-0.37848
-0.380616
-0.382542
-0.384254
-0.386341
-0.348897
-0.351552
-0.353288
-0.354715
-0.356204
-0.357832
-0.359633
-0.361615
-0.363759
-0.366037
-0.368409
-0.370836
-0.37328
-0.375703
-0.378071
-0.380358
-0.382529
-0.384495
-0.386233
-0.388345
-0.352206
-0.354362
-0.355831
-0.357095
-0.358458
-0.359986
-0.361708
-0.363627
-0.365722
-0.367963
-0.370309
-0.372721
-0.375159
-0.377584
-0.379961
-0.382265
-0.384461
-0.386459
-0.388219
-0.390361
-0.355767
-0.357392
-0.358565
-0.359639
-0.360846
-0.362243
-0.363854
-0.365677
-0.367691
-0.369862
-0.372151
-0.374518
-0.376921
-0.379321
-0.381683
-0.383981
-0.386183
-0.388199
-0.389972
-0.392145
-0.359423
-0.360513
-0.361374
-0.362233
-0.363254
-0.364485
-0.365946
-0.367634
-0.369526
-0.371588
-0.373781
-0.376063
-0.378394
-0.380734
-0.383047
-0.385308
-0.387489
-0.389501
-0.391275
-0.39348
-0.363032
-0.363611
-0.364157
-0.364781
-0.365585
-0.366614
-0.367885
-0.369393
-0.371117
-0.373023
-0.375074
-0.377226
-0.379441
-0.381679
-0.383904
-0.386092
-0.388218
-0.390197
-0.391953
-0.394193
-0.366479
-0.366598
-0.366836
-0.36721
-0.367771
-0.368562
-0.369599
-0.370882
-0.372389
-0.37409
-0.375948
-0.377924
-0.379976
-0.382067
-0.384161
-0.386235
-0.388268
-0.390181
-0.391894
-0.394168
-0.369684
-0.36941
-0.36936
-0.369476
-0.369771
-0.370289
-0.371054
-0.372065
-0.373308
-0.374757
-0.376376
-0.378128
-0.379973
-0.381872
-0.383792
-0.38571
-0.387609
-0.389415
-0.391047
-0.393345
-0.372603
-0.372018
-0.371707
-0.371562
-0.371574
-0.371792
-0.372248
-0.372948
-0.373887
-0.375041
-0.37638
-0.377868
-0.379467
-0.381136
-0.382842
-0.384561
-0.38628
-0.387928
-0.389421
-0.391709
-0.37523
-0.374422
-0.373881
-0.373478
-0.373196
-0.373093
-0.373213
-0.373573
-0.374175
-0.375003
-0.376032
-0.377228
-0.378551
-0.379961
-0.381419
-0.382899
-0.384386
-0.385808
-0.387068
-0.389261
-0.377598
-0.376649
-0.375912
-0.375257
-0.374675
-0.37424
-0.374007
-0.374008
-0.374254
-0.374739
-0.375441
-0.376328
-0.37736
-0.378491
-0.379676
-0.380878
-0.382076
-0.383184
-0.384068
-0.385997
-0.379772
-0.378754
-0.377849
-0.376951
-0.37607
-0.375299
-0.374707
-0.374342
-0.374228
-0.374366
-0.374739
-0.375316
-0.376053
-0.376897
-0.377789
-0.378676
-0.379519
-0.380202
-0.380513
-0.3819
-0.381845
-0.380811
-0.379761
-0.378627
-0.377453
-0.376348
-0.375403
-0.374679
-0.374212
-0.374011
-0.374065
-0.37434
-0.374788
-0.375344
-0.375929
-0.376464
-0.376878
-0.37701
-0.376523
-0.376985
-0.383934
-0.382914
-0.381728
-0.380365
-0.378905
-0.377478
-0.376193
-0.375125
-0.374322
-0.373802
-0.373553
-0.373541
-0.373709
-0.373975
-0.374237
-0.37438
-0.374287
-0.373749
-0.372263
-0.371363
-0.386169
-0.385164
-0.383843
-0.382253
-0.380516
-0.378781
-0.377174
-0.375785
-0.37467
-0.373852
-0.373321
-0.373037
-0.37293
-0.3729
-0.372816
-0.372516
-0.371828
-0.370486
-0.367811
-0.365088
-0.388685
-0.387669
-0.386199
-0.384381
-0.382373
-0.380347
-0.378441
-0.376756
-0.375354
-0.374261
-0.373466
-0.372921
-0.372545
-0.372222
-0.371788
-0.371034
-0.36971
-0.367431
-0.363257
-0.358122
-0.391613
-0.390534
-0.388889
-0.386836
-0.384563
-0.38226
-0.380076
-0.378118
-0.376452
-0.375103
-0.374055
-0.373259
-0.372626
-0.372036
-0.371325
-0.370289
-0.368663
-0.365963
-0.360946
-0.354259
-0.39507
-0.393854
-0.391999
-0.389695
-0.387159
-0.384589
-0.382143
-0.379931
-0.378016
-0.376419
-0.375121
-0.374067
-0.373172
-0.372326
-0.371407
-0.370292
-0.368888
-0.367128
-0.365217
-0.36705
-0.399152
-0.397712
-0.3956
-0.393027
-0.39022
-0.387388
-0.38469
-0.382231
-0.380071
-0.378221
-0.376656
-0.375315
-0.374113
-0.372953
-0.371735
-0.370385
-0.368874
-0.367251
-0.365769
-0.366591
-0.403935
-0.402173
-0.399751
-0.396882
-0.393792
-0.390694
-0.387743
-0.385036
-0.382621
-0.380498
-0.378629
-0.376949
-0.375369
-0.373799
-0.372157
-0.370386
-0.368475
-0.366464
-0.364488
-0.363395
-0.40947
-0.407287
-0.404499
-0.401302
-0.397908
-0.394531
-0.391317
-0.388347
-0.385652
-0.383216
-0.380987
-0.37889
-0.376836
-0.374738
-0.372524
-0.370146
-0.367589
-0.364866
-0.362051
-0.359348
-0.415792
-0.413091
-0.409879
-0.406319
-0.402596
-0.398921
-0.395421
-0.392158
-0.389139
-0.386329
-0.383659
-0.381046
-0.3784
-0.375644
-0.372717
-0.369583
-0.366232
-0.362667
-0.358945
-0.35498
-0.42292
-0.419612
-0.41592
-0.411961
-0.407881
-0.403879
-0.40006
-0.396457
-0.393049
-0.389778
-0.386561
-0.383311
-0.379946
-0.376403
-0.372642
-0.36865
-0.364431
-0.360005
-0.355429
-0.350555
-0.430866
-0.426868
-0.422648
-0.418255
-0.413787
-0.409422
-0.405235
-0.401224
-0.397335
-0.39349
-0.389597
-0.385574
-0.381357
-0.37691
-0.372223
-0.36731
-0.362203
-0.356941
-0.351585
-0.346012
-0.439633
-0.434874
-0.430083
-0.425226
-0.420336
-0.41556
-0.410937
-0.406423
-0.401933
-0.397373
-0.392655
-0.387716
-0.382523
-0.377074
-0.371397
-0.365536
-0.359548
-0.353492
-0.347428
-0.341286
-0.449213
-0.443634
-0.438238
-0.43289
-0.427538
-0.422289
-0.417137
-0.411994
-0.406753
-0.401317
-0.395616
-0.38962
-0.38334
-0.376817
-0.370113
-0.363302
-0.356458
-0.349651
-0.342936
-0.336279
-0.459588
-0.453139
-0.447114
-0.441249
-0.435385
-0.42958
-0.423776
-0.417849
-0.411681
-0.405191
-0.398348
-0.39117
-0.383718
-0.376075
-0.368336
-0.360592
-0.352927
-0.345409
-0.338082
-0.330934
-0.470716
-0.463364
-0.456693
-0.450281
-0.44384
-0.437367
-0.430757
-0.423862
-0.416573
-0.408851
-0.40072
-0.392259
-0.383579
-0.374799
-0.366037
-0.357393
-0.348945
-0.340755
-0.332849
-0.325218
-0.482532
-0.474257
-0.46693
-0.459933
-0.452828
-0.445548
-0.437947
-0.429876
-0.421267
-0.412144
-0.402604
-0.392789
-0.382854
-0.372948
-0.363196
-0.353693
-0.344507
-0.335682
-0.327224
-0.319122
-0.494939
-0.485735
-0.477743
-0.470113
-0.462232
-0.453971
-0.445168
-0.435705
-0.425584
-0.414916
-0.403878
-0.392672
-0.381488
-0.370487
-0.35979
-0.349479
-0.339601
-0.330181
-0.3212
-0.312644
-0.507801
-0.497679
-0.489015
-0.480683
-0.471886
-0.462444
-0.452211
-0.441141
-0.429338
-0.417015
-0.404429
-0.39183
-0.379428
-0.367382
-0.355797
-0.344731
-0.334211
-0.324237
-0.314765
-0.305782
-0.520942
-0.50993
-0.500582
-0.491459
-0.481577
-0.470731
-0.458839
-0.445966
-0.432345
-0.418298
-0.404151
-0.390189
-0.376622
-0.363595
-0.351185
-0.339425
-0.328314
-0.317831
-0.307903
-0.298531
-0.534144
-0.522286
-0.512236
-0.502211
-0.491048
-0.478567
-0.464796
-0.449957
-0.434426
-0.418629
-0.402947
-0.387678
-0.373018
-0.359082
-0.345917
-0.333524
-0.321878
-0.310934
-0.30059
-0.290873
-0.54715
-0.534503
-0.523723
-0.51266
-0.500007
-0.485661
-0.469821
-0.452895
-0.43541
-0.417881
-0.400724
-0.384227
-0.368558
-0.353795
-0.339948
-0.326988
-0.314864
-0.30351
-0.292795
-0.282785
-0.559662
-0.546296
-0.534747
-0.522494
-0.508135
-0.491713
-0.473654
-0.454571
-0.435138
-0.415937
-0.397392
-0.379764
-0.363181
-0.347678
-0.333227
-0.319768
-0.307228
-0.295517
-0.284482
-0.274234
-0.57135
-0.557345
-0.544977
-0.531367
-0.515094
-0.496421
-0.476043
-0.454792
-0.433466
-0.412687
-0.392865
-0.374217
-0.356824
-0.340672
-0.325697
-0.311811
-0.29892
-0.286913
-0.27561
-0.265185
-0.581858
-0.5673
-0.554054
-0.538918
-0.520545
-0.499491
-0.476755
-0.453379
-0.430258
-0.408027
-0.387058
-0.367513
-0.349419
-0.332715
-0.317303
-0.303065
-0.289892
-0.277649
-0.266137
-0.2556
-0.590812
-0.575789
-0.5616
-0.544779
-0.524155
-0.500648
-0.475576
-0.450171
-0.425393
-0.40186
-0.37989
-0.35958
-0.3409
-0.323746
-0.307985
-0.293477
-0.280094
-0.267682
-0.256023
-0.24544
-0.597826
-0.582431
-0.567231
-0.548585
-0.52561
-0.499641
-0.472316
-0.445026
-0.418763
-0.3941
-0.371285
-0.350349
-0.331205
-0.313707
-0.29769
-0.282996
-0.26948
-0.256967
-0.245228
-0.234669
-0.602521
-0.586845
-0.570574
-0.549994
-0.524622
-0.496249
-0.466812
-0.437824
-0.410272
-0.384665
-0.361173
-0.339756
-0.320274
-0.302541
-0.286367
-0.271576
-0.258009
-0.245469
-0.233718
-0.223256
-0.60453
-0.588662
-0.57127
-0.54869
-0.52094
-0.490283
-0.458926
-0.428462
-0.399839
-0.373488
-0.349491
-0.327744
-0.308053
-0.290201
-0.273973
-0.259178
-0.245644
-0.233155
-0.221467
-0.211175
-0.603508
-0.587537
-0.568993
-0.544395
-0.514351
-0.481591
-0.44855
-0.416857
-0.387399
-0.360509
-0.336187
-0.314263
-0.294499
-0.276647
-0.260473
-0.24577
-0.232359
-0.220001
-0.208453
-0.198409
-0.599145
-0.583157
-0.563457
-0.536878
-0.504684
-0.470054
-0.435602
-0.402951
-0.3729
-0.345684
-0.32122
-0.299277
-0.279578
-0.261849
-0.245838
-0.23133
-0.218133
-0.20599
-0.194665
-0.184945
-0.591176
-0.575256
-0.554424
-0.525955
-0.491816
-0.455595
-0.42003
-0.386703
-0.356309
-0.328983
-0.30456
-0.282758
-0.263265
-0.245784
-0.230051
-0.215843
-0.202956
-0.191117
-0.180099
-0.170781
-0.579382
-0.563617
-0.54171
-0.511497
-0.475668
-0.43817
-0.401809
-0.368096
-0.337613
-0.31039
-0.286193
-0.264693
-0.245548
-0.228444
-0.213106
-0.199304
-0.186825
-0.175381
-0.164758
-0.155921
-0.563603
-0.548081
-0.525191
-0.493431
-0.45621
-0.417772
-0.380944
-0.347137
-0.316813
-0.289906
-0.266119
-0.24508
-0.226426
-0.209828
-0.195004
-0.181718
-0.169749
-0.158795
-0.148659
-0.140379
-0.543739
-0.528551
-0.504803
-0.471737
-0.433454
-0.394431
-0.357468
-0.323854
-0.293933
-0.26755
-0.24435
-0.22393
-0.205909
-0.189948
-0.175757
-0.163098
-0.151745
-0.14138
-0.131826
-0.124184
-0.519755
-0.504993
-0.480545
-0.44645
-0.407459
-0.368213
-0.331439
-0.298299
-0.269016
-0.243355
-0.220916
-0.201269
-0.184019
-0.168821
-0.155384
-0.143467
-0.132836
-0.123165
-0.114297
-0.10738
-0.491678
-0.47744
-0.452476
-0.417657
-0.378326
-0.339215
-0.302948
-0.270547
-0.242124
-0.217375
-0.195859
-0.17713
-0.160785
-0.146475
-0.133909
-0.122845
-0.113046
-0.104179
-0.0961106
-0.0900129
-0.459601
-0.445986
-0.420713
-0.385497
-0.346194
-0.307569
-0.272111
-0.240699
-0.213342
-0.189679
-0.169238
-0.151562
-0.136246
-0.122942
-0.111359
-0.101258
-0.0923987
-0.0844517
-0.0773007
-0.0721076
-0.423679
-0.410787
-0.385431
-0.350152
-0.311244
-0.273439
-0.23907
-0.208877
-0.182775
-0.160354
-0.141124
-0.124623
-0.110447
-0.0982549
-0.08776
-0.0787268
-0.0709159
-0.0640078
-0.0578912
-0.0536516
-0.384126
-0.372059
-0.346856
-0.311853
-0.273692
-0.23702
-0.203999
-0.175231
-0.150551
-0.129509
-0.111606
-0.0963813
-0.0834394
-0.072448
-0.0631318
-0.0552623
-0.0486081
-0.0428615
-0.03789
-0.0346413
-0.341211
-0.33007
-0.305261
-0.270866
-0.233788
-0.198538
-0.167098
-0.139937
-0.116822
-0.0972749
-0.0807922
-0.0669225
-0.0552838
-0.0455601
-0.0374925
-0.0308661
-0.0254633
-0.0209947
-0.0173047
-0.0152148
-0.295253
-0.285135
-0.260961
-0.227494
-0.191812
-0.158247
-0.128592
-0.103196
-0.0817659
-0.0638044
-0.0488114
-0.0363498
-0.0260577
-0.0176431
-0.0108721
-0.00554679
-0.00146771
0.00159514
0.00373034
0.00419712
-0.246614
-0.237611
-0.214308
-0.182073
-0.148072
-0.116426
-0.0887356
-0.0652379
-0.0455875
-0.029276
-0.0158114
-0.0047754
0.004167
0.0112722
0.0167377
0.0207393
0.0234324
0.0248601
0.0248733
0.0231209
-0.195692
-0.187891
-0.165683
-0.134963
-0.102903
-0.0733818
-0.0478107
-0.0263214
-0.00852482
0.00609671
0.0180276
0.0276697
0.0353322
0.0412341
0.0455342
0.0483755
0.0497909
0.0494047
0.0467052
0.0426973
-0.142917
-0.136395
-0.115494
-0.086545
-0.056655
-0.0294399
-0.00612201
0.013263
0.0291424
0.0420426
0.052446
0.0607503
0.06726
0.0721919
0.0757177
0.0779981
0.0789299
0.0776178
0.0733264
0.0689701
-0.0887408
-0.0835638
-0.0641604
-0.0372131
-0.00969393
0.0150604
0.0360097
0.0532047
0.0671035
0.0782382
0.0870898
0.0940583
0.0994618
0.103556
0.1066
0.108884
0.110371
0.110022
0.107575
0.111691
-0.0336204
-0.0298476
-0.0121141
0.012632
0.0376106
0.0597754
0.0782597
0.0931902
0.105048
0.114362
0.121607
0.127174
0.131378
0.134486
0.136775
0.138516
0.139691
0.139799
0.139787
0.146111
0.0219703
0.0242928
0.0402093
0.0625873
0.0848888
0.104363
0.120308
0.132914
0.142679
0.150125
0.155714
0.159825
0.162768
0.164807
0.166202
0.167183
0.167725
0.167516
0.167517
0.172656
0.0775579
0.0783975
0.0923767
0.112255
0.131777
0.14849
0.161843
0.172084
0.179716
0.185251
0.189131
0.191718
0.193308
0.194151
0.194487
0.194519
0.194238
0.193407
0.192813
0.196364
0.132673
0.132012
0.143962
0.161244
0.177921
0.191833
0.20257
0.210427
0.215907
0.219506
0.221644
0.222664
0.222839
0.2224
0.221559
0.22049
0.219171
0.217395
0.215885
0.217963
0.186857
0.184689
0.194549
0.209178
0.222981
0.234084
0.242208
0.247686
0.251017
0.252677
0.253062
0.252492
0.25122
0.249454
0.247384
0.245154
0.242726
0.239918
0.237415
0.238085
0.239661
0.235999
0.243738
0.255694
0.266629
0.274948
0.280492
0.283623
0.284831
0.284571
0.283216
0.281061
0.278338
0.275233
0.271913
0.268498
0.26494
0.261085
0.257588
0.256929
0.290655
0.285525
0.291143
0.300444
0.308556
0.314148
0.317172
0.318011
0.317148
0.315012
0.311953
0.308243
0.304091
0.299667
0.295114
0.290532
0.285867
0.280995
0.276532
0.274611
0.339429
0.332873
0.3364
0.3431
0.348466
0.35142
0.352011
0.350641
0.347779
0.343833
0.339128
0.333914
0.32838
0.322677
0.316931
0.311223
0.305499
0.299659
0.294273
0.291158
0.385594
0.377668
0.379165
0.383351
0.386082
0.386516
0.384786
0.381313
0.376548
0.370877
0.364604
0.357956
0.351105
0.344183
0.337302
0.330525
0.323804
0.317057
0.310798
0.306558
0.428786
0.419561
0.419116
0.42091
0.421147
0.419204
0.415292
0.409839
0.403286
0.395995
0.388247
0.380251
0.372163
0.364098
0.356153
0.348379
0.34073
0.333144
0.326067
0.320775
0.468665
0.458227
0.455955
0.455508
0.453421
0.449269
0.443332
0.436047
0.427836
0.419044
0.409931
0.400688
0.391455
0.382333
0.373405
0.364713
0.356215
0.347861
0.340029
0.333762
0.504923
0.493371
0.48941
0.486901
0.482684
0.476514
0.46873
0.459773
0.450053
0.439893
0.429537
0.419158
0.408883
0.398801
0.388981
0.379456
0.370192
0.361145
0.352626
0.345466
0.537279
0.524724
0.519235
0.514868
0.508738
0.50076
0.491324
0.480872
0.469802
0.458421
0.446954
0.435561
0.424356
0.413417
0.402802
0.392537
0.382593
0.372932
0.363797
0.355838
0.565486
0.552048
0.545213
0.539212
0.531406
0.521847
0.510967
0.499212
0.486964
0.474516
0.46208
0.449804
0.437789
0.426104
0.414796
0.403888
0.393354
0.383162
0.373487
0.364826
0.589326
0.575139
0.567155
0.559763
0.550535
0.539636
0.527535
0.514676
0.501432
0.488083
0.474828
0.461805
0.449105
0.43679
0.424898
0.413448
0.402418
0.391777
0.381645
0.372388
0.608619
0.593821
0.584901
0.576378
0.565995
0.554011
0.54092
0.527167
0.513117
0.499039
0.485121
0.471493
0.458239
0.445414
0.433051
0.421162
0.409732
0.39873
0.388226
0.378484
0.623217
0.607956
0.598323
0.588941
0.577682
0.564876
0.551035
0.536606
0.521945
0.507315
0.492896
0.47881
0.465138
0.451928
0.439207
0.426988
0.415256
0.403981
0.393194
0.383083
0.633011
0.617437
0.607324
0.597364
0.585517
0.572158
0.557815
0.542931
0.527861
0.51286
0.498105
0.483713
0.46976
0.456291
0.443331
0.43089
0.418955
0.407498
0.39652
0.386162
0.637924
0.622194
0.611839
0.601589
0.589446
0.57581
0.561214
0.546103
0.530828
0.515641
0.500717
0.486171
0.472076
0.458478
0.445398
0.432846
0.42081
0.40926
0.398188
0.387704
0.637921
0.622191
0.611836
0.601586
0.589444
0.575807
0.561212
0.546101
0.530825
0.515639
0.500714
0.486168
0.472074
0.458476
0.445396
0.432844
0.420808
0.409258
0.398186
0.387702
0.633001
0.617428
0.607315
0.597355
0.585509
0.57215
0.557807
0.542924
0.527854
0.512854
0.498098
0.483706
0.469753
0.456285
0.443325
0.430884
0.41895
0.407492
0.396515
0.386156
0.623202
0.607941
0.598308
0.588926
0.577668
0.564862
0.551022
0.536594
0.521934
0.507303
0.492885
0.4788
0.465128
0.451917
0.439197
0.426978
0.415246
0.403971
0.393185
0.383074
0.608597
0.5938
0.584879
0.576358
0.565976
0.553992
0.540902
0.52715
0.5131
0.499023
0.485105
0.471478
0.458225
0.4454
0.433037
0.421149
0.409719
0.398717
0.388213
0.378471
0.589298
0.575111
0.567127
0.559737
0.55051
0.539613
0.527512
0.514654
0.501411
0.488063
0.474808
0.461786
0.449086
0.436771
0.424881
0.413431
0.402401
0.391761
0.381628
0.372372
0.565451
0.552014
0.54518
0.53918
0.531375
0.521818
0.510939
0.499185
0.486938
0.474491
0.462056
0.44978
0.437766
0.426081
0.414775
0.403867
0.393334
0.383141
0.373467
0.364807
0.537238
0.524683
0.519196
0.51483
0.508702
0.500725
0.49129
0.48084
0.469771
0.458391
0.446925
0.435533
0.424329
0.413391
0.402776
0.392512
0.382568
0.372908
0.363773
0.355815
0.504875
0.493324
0.489364
0.486857
0.482642
0.476474
0.468692
0.459736
0.450017
0.439859
0.429503
0.419126
0.408852
0.398771
0.388951
0.379427
0.370163
0.361117
0.352598
0.34544
0.468611
0.458174
0.455903
0.455459
0.453373
0.449223
0.443288
0.436005
0.427795
0.419005
0.409893
0.400651
0.391419
0.382299
0.373372
0.36468
0.356183
0.347829
0.339999
0.333732
0.428724
0.4195
0.419057
0.420854
0.421094
0.419152
0.415242
0.409792
0.40324
0.395951
0.388204
0.38021
0.372123
0.364059
0.356115
0.348342
0.340694
0.333108
0.326033
0.320742
0.385526
0.377601
0.3791
0.383289
0.386023
0.386459
0.384732
0.38126
0.376497
0.370829
0.364557
0.35791
0.35106
0.34414
0.33726
0.330485
0.323764
0.317018
0.31076
0.306522
0.339354
0.332799
0.336328
0.343031
0.3484
0.351357
0.351951
0.350583
0.347724
0.34378
0.339077
0.333864
0.328332
0.32263
0.316885
0.311178
0.305456
0.299617
0.294231
0.291118
0.290573
0.285444
0.291065
0.300369
0.308484
0.31408
0.317106
0.317948
0.317087
0.314954
0.311897
0.308188
0.304038
0.299615
0.295064
0.290483
0.28582
0.280949
0.276487
0.274567
0.239571
0.235911
0.243652
0.255612
0.266552
0.274874
0.280421
0.283554
0.284765
0.284508
0.283155
0.281002
0.27828
0.275177
0.271859
0.268445
0.264889
0.261035
0.257539
0.256881
0.18676
0.184594
0.194457
0.20909
0.222897
0.234003
0.242132
0.247613
0.250946
0.252608
0.252996
0.252428
0.251158
0.249394
0.247326
0.245097
0.242671
0.239865
0.237363
0.238034
0.132569
0.131909
0.143862
0.161149
0.177831
0.191747
0.202488
0.210348
0.215831
0.219433
0.221573
0.222595
0.222773
0.222335
0.221497
0.220429
0.219112
0.217337
0.215829
0.217909
0.0774461
0.0782871
0.09227
0.112153
0.13168
0.148397
0.161755
0.172
0.179635
0.185172
0.189055
0.191645
0.193237
0.194082
0.19442
0.194454
0.194174
0.193345
0.192753
0.196306
0.0218508
0.0241748
0.0400953
0.0624785
0.0847853
0.104265
0.120213
0.132824
0.142592
0.150042
0.155633
0.159747
0.162692
0.164733
0.166131
0.167114
0.167657
0.167451
0.167453
0.172595
-0.0337478
-0.0299735
-0.0122356
0.0125161
0.0375004
0.0596705
0.0781594
0.093094
0.104955
0.114273
0.121521
0.12709
0.131297
0.134408
0.136699
0.138442
0.139619
0.139728
0.139718
0.146045
-0.0888762
-0.0836975
-0.0642896
-0.0373361
-0.00981091
0.0149491
0.0359034
0.0531027
0.0670056
0.0781438
0.0869986
0.0939701
0.0993763
0.103473
0.106519
0.108805
0.110295
0.109947
0.107501
0.11162
-0.143061
-0.136536
-0.11563
-0.0866754
-0.0567789
-0.0295578
-0.00623453
0.0131552
0.0290389
0.0419428
0.0523496
0.0606571
0.0671697
0.0721042
0.0756323
0.0779149
0.0788487
0.0775384
0.0732482
0.0688926
-0.195844
-0.188041
-0.165828
-0.135101
-0.103034
-0.0735063
-0.0479295
-0.0264351
-0.008634
0.00599157
0.0179261
0.0275716
0.0352371
0.0411417
0.0454442
0.0482878
0.0497052
0.0493208
0.0466226
0.0426155
-0.246773
-0.237769
-0.21446
-0.182219
-0.14821
-0.116557
-0.0888606
-0.0653575
-0.0457023
-0.0293865
-0.015918
-0.0048785
0.00406709
0.0111752
0.0166433
0.0206474
0.0233426
0.0247724
0.0247872
0.0230359
-0.295421
-0.285301
-0.261121
-0.227647
-0.191957
-0.158384
-0.128723
-0.103322
-0.0818863
-0.0639202
-0.0489231
-0.0364578
-0.0261622
-0.0177445
-0.0109707
-0.00564275
-0.00156128
0.00150378
0.00364096
0.00410918
-0.341387
-0.330244
-0.305429
-0.271026
-0.23394
-0.198683
-0.167235
-0.140068
-0.116948
-0.097396
-0.0809089
-0.0670351
-0.0553929
-0.0456658
-0.0375951
-0.0309659
-0.0255605
-0.0210895
-0.0173973
-0.0153057
-0.38431
-0.372242
-0.347033
-0.312021
-0.273852
-0.237172
-0.204143
-0.175368
-0.150682
-0.129636
-0.111728
-0.0964986
-0.0835528
-0.0725579
-0.0632384
-0.0553659
-0.0487089
-0.0429596
-0.0379857
-0.0347352
-0.423871
-0.410978
-0.385616
-0.350328
-0.311411
-0.273597
-0.239221
-0.20902
-0.182912
-0.160486
-0.141251
-0.124745
-0.110565
-0.0983688
-0.0878705
-0.078834
-0.0710201
-0.0641091
-0.05799
-0.0537483
-0.459801
-0.446185
-0.420906
-0.38568
-0.346368
-0.307733
-0.272267
-0.240848
-0.213485
-0.189815
-0.169369
-0.151689
-0.136368
-0.12306
-0.111473
-0.101369
-0.0925062
-0.0845562
-0.0774024
-0.0722069
-0.491886
-0.477647
-0.452676
-0.417848
-0.378507
-0.339386
-0.303111
-0.270702
-0.242272
-0.217517
-0.195995
-0.177261
-0.160911
-0.146597
-0.134027
-0.122959
-0.113156
-0.104287
-0.096215
-0.0901149
-0.519971
-0.505208
-0.480753
-0.446648
-0.407647
-0.368391
-0.331608
-0.298459
-0.269169
-0.243502
-0.221056
-0.201404
-0.184149
-0.168947
-0.155505
-0.143584
-0.132949
-0.123275
-0.114404
-0.107484
-0.543963
-0.528773
-0.505019
-0.471943
-0.433649
-0.394616
-0.357642
-0.32402
-0.294091
-0.267701
-0.244495
-0.22407
-0.206043
-0.190077
-0.175881
-0.163219
-0.151862
-0.141493
-0.131936
-0.124291
-0.563833
-0.54831
-0.525414
-0.493644
-0.456412
-0.417963
-0.381125
-0.347309
-0.316976
-0.290062
-0.266268
-0.245223
-0.226563
-0.209961
-0.195132
-0.181841
-0.169869
-0.15891
-0.148771
-0.140488
-0.579619
-0.563852
-0.541939
-0.511717
-0.475877
-0.438367
-0.401996
-0.368273
-0.337781
-0.31055
-0.286347
-0.26484
-0.245689
-0.22858
-0.213237
-0.19943
-0.186948
-0.175499
-0.164873
-0.156032
-0.591419
-0.575497
-0.554659
-0.526181
-0.49203
-0.455798
-0.420222
-0.386885
-0.356483
-0.329148
-0.304718
-0.282909
-0.26341
-0.245924
-0.230185
-0.215972
-0.203081
-0.191237
-0.180216
-0.170894
-0.599394
-0.583404
-0.563698
-0.537109
-0.504904
-0.470263
-0.435799
-0.403138
-0.373078
-0.345853
-0.321381
-0.299431
-0.279726
-0.261991
-0.245975
-0.231462
-0.21826
-0.206113
-0.194784
-0.18506
-0.603761
-0.587788
-0.569239
-0.544632
-0.514577
-0.481805
-0.448752
-0.417049
-0.387581
-0.360682
-0.336353
-0.314421
-0.294651
-0.276793
-0.260612
-0.245905
-0.232489
-0.220126
-0.208574
-0.198525
-0.604787
-0.588918
-0.57152
-0.548932
-0.521171
-0.490503
-0.459134
-0.428658
-0.400026
-0.373665
-0.34966
-0.327905
-0.308208
-0.290349
-0.274116
-0.259315
-0.245776
-0.233282
-0.22159
-0.211294
-0.602781
-0.587104
-0.570828
-0.55024
-0.524858
-0.496473
-0.467024
-0.438025
-0.410462
-0.384846
-0.361345
-0.339921
-0.320431
-0.302692
-0.286512
-0.271715
-0.258142
-0.245598
-0.233842
-0.223376
-0.598089
-0.582692
-0.567488
-0.548835
-0.525849
-0.49987
-0.472533
-0.445232
-0.418957
-0.394285
-0.371461
-0.350517
-0.331365
-0.31386
-0.297837
-0.283137
-0.269616
-0.257098
-0.245353
-0.23479
-0.591076
-0.576052
-0.561858
-0.545031
-0.524398
-0.50088
-0.475796
-0.45038
-0.425591
-0.402049
-0.380069
-0.359751
-0.341063
-0.323902
-0.308134
-0.29362
-0.280232
-0.267814
-0.25615
-0.245562
-0.582123
-0.567563
-0.554314
-0.539172
-0.52079
-0.499726
-0.476979
-0.453591
-0.430459
-0.408218
-0.38724
-0.367687
-0.349584
-0.332873
-0.317454
-0.303211
-0.290031
-0.277783
-0.266266
-0.255724
-0.571615
-0.557608
-0.545238
-0.531622
-0.515341
-0.496658
-0.47627
-0.455008
-0.433671
-0.412882
-0.39305
-0.374393
-0.356992
-0.340832
-0.325851
-0.311958
-0.299061
-0.287048
-0.275739
-0.26531
-0.559926
-0.546559
-0.535007
-0.522749
-0.508383
-0.491952
-0.473883
-0.45479
-0.435346
-0.416135
-0.39758
-0.379943
-0.363352
-0.34784
-0.333382
-0.319916
-0.30737
-0.295654
-0.284612
-0.274359
-0.547413
-0.534764
-0.523981
-0.512915
-0.500256
-0.485901
-0.470052
-0.453115
-0.43562
-0.418081
-0.400915
-0.384408
-0.368731
-0.35396
-0.340105
-0.327138
-0.315008
-0.303647
-0.292926
-0.282911
-0.534405
-0.522545
-0.512492
-0.502464
-0.491296
-0.478807
-0.465028
-0.450179
-0.434638
-0.418831
-0.40314
-0.387861
-0.373193
-0.359249
-0.346076
-0.333676
-0.322023
-0.311073
-0.300722
-0.291
-0.5212
-0.510186
-0.500836
-0.49171
-0.481823
-0.470971
-0.459071
-0.446189
-0.432559
-0.418502
-0.404347
-0.390375
-0.3768
-0.363764
-0.351346
-0.339579
-0.328461
-0.317971
-0.308036
-0.298658
-0.508056
-0.497932
-0.489266
-0.480931
-0.47213
-0.462683
-0.452443
-0.441365
-0.429554
-0.417222
-0.404627
-0.392018
-0.379608
-0.367554
-0.35596
-0.344887
-0.334359
-0.324379
-0.314899
-0.30591
-0.495191
-0.485984
-0.47799
-0.470358
-0.462474
-0.454209
-0.445399
-0.435929
-0.4258
-0.415124
-0.404078
-0.392863
-0.381671
-0.370661
-0.359956
-0.349636
-0.339751
-0.330323
-0.321335
-0.312772
-0.48278
-0.474503
-0.467173
-0.460175
-0.453067
-0.445783
-0.438177
-0.4301
-0.421484
-0.412354
-0.402806
-0.392982
-0.383039
-0.373125
-0.363364
-0.353853
-0.344659
-0.335826
-0.327361
-0.319251
-0.47096
-0.463606
-0.456933
-0.450519
-0.444075
-0.437599
-0.430986
-0.424085
-0.416791
-0.409062
-0.400924
-0.392455
-0.383766
-0.374979
-0.366208
-0.357556
-0.3491
-0.340901
-0.332987
-0.325348
-0.459828
-0.453377
-0.44735
-0.441483
-0.435616
-0.429808
-0.424001
-0.418071
-0.411898
-0.405403
-0.398553
-0.391369
-0.383909
-0.376258
-0.36851
-0.360758
-0.353084
-0.345557
-0.338222
-0.331066
-0.44945
-0.443867
-0.438469
-0.43312
-0.427765
-0.422515
-0.41736
-0.412215
-0.40697
-0.401529
-0.395823
-0.389821
-0.383534
-0.377003
-0.370291
-0.363472
-0.356619
-0.349803
-0.343078
-0.336413
-0.439865
-0.435104
-0.43031
-0.425452
-0.42056
-0.415783
-0.411158
-0.406641
-0.402149
-0.397585
-0.392864
-0.387919
-0.38272
-0.377264
-0.371579
-0.36571
-0.359712
-0.353647
-0.347574
-0.341422
-0.431095
-0.427094
-0.422872
-0.418478
-0.414008
-0.409641
-0.405453
-0.40144
-0.39755
-0.393702
-0.389806
-0.385779
-0.381557
-0.377104
-0.37241
-0.367489
-0.362373
-0.357101
-0.351734
-0.346151
-0.423146
-0.419834
-0.416141
-0.41218
-0.408098
-0.404094
-0.400275
-0.396671
-0.393263
-0.38999
-0.386772
-0.383519
-0.38015
-0.376602
-0.372835
-0.368834
-0.364607
-0.36017
-0.355583
-0.350698
-0.416014
-0.413311
-0.410097
-0.406534
-0.40281
-0.399133
-0.395633
-0.39237
-0.389351
-0.386541
-0.383871
-0.381256
-0.378608
-0.375848
-0.372915
-0.369774
-0.366414
-0.362839
-0.359105
-0.355128
-0.40969
-0.407504
-0.404714
-0.401515
-0.398119
-0.394742
-0.391527
-0.388557
-0.385863
-0.383427
-0.3812
-0.379103
-0.377047
-0.374947
-0.372728
-0.370344
-0.367779
-0.365046
-0.362218
-0.359501
-0.404152
-0.402388
-0.399963
-0.397093
-0.394
-0.390902
-0.387951
-0.385245
-0.382831
-0.380709
-0.378843
-0.377163
-0.375584
-0.374013
-0.372368
-0.370592
-0.368674
-0.366653
-0.364664
-0.363555
-0.399367
-0.397924
-0.39581
-0.393235
-0.390426
-0.387594
-0.384896
-0.382439
-0.38028
-0.378433
-0.376871
-0.375532
-0.374332
-0.373172
-0.371953
-0.370599
-0.369083
-0.367451
-0.365957
-0.36676
-0.395283
-0.394064
-0.392206
-0.389901
-0.387363
-0.384794
-0.382349
-0.380138
-0.378225
-0.376631
-0.375337
-0.374286
-0.373394
-0.372551
-0.371631
-0.370514
-0.369107
-0.36734
-0.365417
-0.367232
-0.391824
-0.390742
-0.389095
-0.38704
-0.384766
-0.382463
-0.38028
-0.378324
-0.376662
-0.375316
-0.374273
-0.373481
-0.372852
-0.372265
-0.371556
-0.37052
-0.368892
-0.366189
-0.361167
-0.354473
-0.388894
-0.387874
-0.386403
-0.384583
-0.382575
-0.380549
-0.378644
-0.376962
-0.375564
-0.374476
-0.373685
-0.373145
-0.372775
-0.372455
-0.372024
-0.371272
-0.369947
-0.367667
-0.363489
-0.358348
-0.386376
-0.385367
-0.384044
-0.382453
-0.380715
-0.378981
-0.377376
-0.37599
-0.37488
-0.374067
-0.373541
-0.373263
-0.373161
-0.373137
-0.373057
-0.37276
-0.372073
-0.370729
-0.368051
-0.365322
-0.384138
-0.383114
-0.381927
-0.380563
-0.379102
-0.377677
-0.376393
-0.375329
-0.374531
-0.374016
-0.373774
-0.373769
-0.373942
-0.374214
-0.374481
-0.374627
-0.374536
-0.373998
-0.37251
-0.371603
-0.382046
-0.381009
-0.379956
-0.378821
-0.377647
-0.376544
-0.375602
-0.374882
-0.37442
-0.374225
-0.374286
-0.374568
-0.375022
-0.375584
-0.376175
-0.376714
-0.37713
-0.377262
-0.376774
-0.377231
-0.379969
-0.378947
-0.37804
-0.377141
-0.376262
-0.375491
-0.374903
-0.374543
-0.374434
-0.374578
-0.374958
-0.375542
-0.376286
-0.377136
-0.378034
-0.378926
-0.379772
-0.380455
-0.380766
-0.382149
-0.377791
-0.376837
-0.376098
-0.375443
-0.374862
-0.374429
-0.3742
-0.374205
-0.374457
-0.374949
-0.375658
-0.376552
-0.377591
-0.378728
-0.379919
-0.381126
-0.382327
-0.383436
-0.38432
-0.386247
-0.375417
-0.374604
-0.374062
-0.373658
-0.373377
-0.373278
-0.373401
-0.373766
-0.374374
-0.375209
-0.376245
-0.377448
-0.378777
-0.380194
-0.381657
-0.383142
-0.384633
-0.386057
-0.387318
-0.389509
-0.372783
-0.372194
-0.371881
-0.371736
-0.371749
-0.37197
-0.37243
-0.373136
-0.37408
-0.375241
-0.376587
-0.378082
-0.379687
-0.381363
-0.383074
-0.384798
-0.38652
-0.38817
-0.389665
-0.391952
-0.369856
-0.369578
-0.369526
-0.369642
-0.369939
-0.37046
-0.371228
-0.372245
-0.373494
-0.374949
-0.376576
-0.378334
-0.380185
-0.382091
-0.384016
-0.385938
-0.38784
-0.389649
-0.391283
-0.39358
-0.366641
-0.366756
-0.366993
-0.367367
-0.36793
-0.368723
-0.369765
-0.371053
-0.372566
-0.374274
-0.376139
-0.378121
-0.380179
-0.382275
-0.384374
-0.386452
-0.388489
-0.390405
-0.392119
-0.394392
-0.363183
-0.363759
-0.364303
-0.364927