1.275 	2.15223e-18 	-2.76991e-20 	-0.149384 	0.0055282 	-2.76893e-22
1.825 	2.15223e-18 	-1.39322e-20 	-0.334082 	0.00678225 	4.02263e-21
2.375 	2.15223e-18 	-2.66896e-23 	-0.454471 	0.00617905 	-2.07273e-21
