/*--------------------------------*- C++ -*----------------------------------*\
  =========                 |
  \\      /  F ield         | OpenFOAM: The Open Source CFD Toolbox
   \\    /   O peration     | Website:  https://openfoam.org
    \\  /    A nd           | Version:  6.0
     \\/     M anipulation  |
\*---------------------------------------------------------------------------*/
FoamFile
{
    version     2.0;
    format      ascii;
    class       volVectorField;
    location    "8";
    object      U;
}
// * * * * * * * * * * * * * * * * * * * * * * * * * * * * * * * * * * * * * //

dimensions      [0 1 -1 0 0 0 0];

internalField   nonuniform List<vector> 
12500
(
(-0.000677754 0.000718879 -9.78147e-22)
(-0.00378314 0.00177827 1.40083e-20)
(-0.00964125 0.00254785 -2.0466e-20)
(-0.0170445 0.00310855 9.46236e-21)
(-0.0253892 0.00351377 5.74804e-22)
(-0.0343334 0.00380257 -1.17651e-21)
(-0.043616 0.00400522 -1.75211e-20)
(-0.0530504 0.00414534 9.66273e-21)
(-0.0625117 0.00424152 6.41932e-21)
(-0.0719195 0.00430866 6.5481e-21)
(-0.0812269 0.00435879 -1.11531e-20)
(-0.0904114 0.00440172 6.51164e-21)
(-0.099469 0.00444548 -3.08339e-21)
(-0.108409 0.0044966 5.24581e-21)
(-0.117252 0.00456039 -1.34558e-20)
(-0.126022 0.00464099 1.95378e-20)
(-0.134749 0.00474155 -3.71493e-21)
(-0.143466 0.00486426 -1.39273e-20)
(-0.152203 0.00501039 7.16266e-21)
(-0.160992 0.00518029 -6.88443e-21)
(-0.169884 0.00537323 6.18319e-21)
(-0.178915 0.00558779 8.23234e-21)
(-0.187922 0.00582448 8.73882e-22)
(-0.196618 0.00608541 -2.37208e-20)
(-0.206364 0.00634947 1.36608e-20)
(-0.000761545 0.00229211 1.78436e-20)
(-0.00395777 0.00571218 -4.78353e-20)
(-0.00982716 0.00823696 1.42115e-20)
(-0.0171933 0.0101093 9.56775e-21)
(-0.0254681 0.0114907 -7.65772e-21)
(-0.0343181 0.0125004 -4.38302e-20)
(-0.043488 0.013232 1.30805e-20)
(-0.0527949 0.013759 -2.48895e-20)
(-0.0621162 0.0141399 2.99019e-20)
(-0.0713729 0.0144217 -4.007e-20)
(-0.0805187 0.0146428 2.15183e-20)
(-0.0895313 0.0148344 7.00293e-21)
(-0.098407 0.0150221 -1.76796e-20)
(-0.107155 0.0152266 -7.89419e-21)
(-0.115794 0.0154647 5.7634e-20)
(-0.12435 0.0157496 -5.12486e-20)
(-0.132853 0.016091 1.22496e-20)
(-0.141335 0.016496 2.13397e-20)
(-0.149826 0.0169687 -4.96853e-21)
(-0.15836 0.0175104 3.47878e-20)
(-0.166986 0.0181189 6.47966e-21)
(-0.175744 0.0187901 -2.1227e-21)
(-0.184471 0.0195254 -4.44244e-20)
(-0.192873 0.0203314 4.13718e-20)
(-0.202313 0.0211446 -8.56716e-20)
(-0.000927773 0.0038141 5.72654e-20)
(-0.00430507 0.00952931 1.9789e-20)
(-0.0101977 0.0137699 -2.61227e-20)
(-0.0174909 0.0169301 1.13097e-20)
(-0.0256271 0.0192734 1.06306e-20)
(-0.0342898 0.0209956 4.06085e-20)
(-0.0432353 0.0222505 -5.18417e-20)
(-0.0522881 0.0231599 -8.48362e-21)
(-0.0613304 0.0238209 -3.50703e-20)
(-0.0702859 0.0243122 -2.94444e-20)
(-0.0791095 0.0246975 3.81553e-20)
(-0.0877797 0.0250294 -1.28295e-19)
(-0.0962923 0.0253507 -4.09155e-21)
(-0.104657 0.0256965 -7.77558e-20)
(-0.112891 0.0260953 -9.29622e-21)
(-0.121021 0.0265694 1.10626e-20)
(-0.129077 0.0271359 -6.11892e-20)
(-0.13709 0.027807 -3.84875e-20)
(-0.145091 0.0285902 -4.57808e-20)
(-0.153115 0.0294884 7.19044e-20)
(-0.161214 0.0304987 2.6646e-20)
(-0.169428 0.0316145 -1.17908e-19)
(-0.177597 0.0328389 -5.72683e-20)
(-0.185414 0.034184 -6.4635e-20)
(-0.194247 0.0355434 1.88877e-19)
(-0.00116994 0.00525263 -1.70789e-21)
(-0.00481321 0.0131555 -4.5709e-20)
(-0.0107424 0.0190468 -2.22248e-20)
(-0.0179314 0.023455 1.37994e-20)
(-0.0258668 0.0267359 8.65576e-20)
(-0.0342563 0.0291556 -3.92764e-20)
(-0.0428731 0.030924 8.41564e-20)
(-0.0515532 0.0322081 8.06043e-20)
(-0.0601854 0.0331416 4.93034e-20)
(-0.0686974 0.0338331 -7.86882e-22)
(-0.0770465 0.0343714 1.00334e-19)
(-0.0852118 0.0348294 1.74526e-20)
(-0.0931894 0.0352673 7.72708e-20)
(-0.100988 0.0357344 1.78664e-19)
(-0.108626 0.036271 -2.0808e-19)
(-0.116128 0.0369093 3.1428e-19)
(-0.123523 0.0376743 6.90383e-20)
(-0.130845 0.0385842 -1.52123e-19)
(-0.138124 0.039651 -2.18878e-20)
(-0.145397 0.0408801 5.57225e-20)
(-0.152718 0.0422688 -2.82688e-20)
(-0.160131 0.0438091 -1.71889e-20)
(-0.167481 0.0455066 -1.68226e-20)
(-0.17444 0.0473813 -6.76331e-20)
(-0.182384 0.0492829 2.56181e-19)
(-0.00147886 0.00657937 2.99338e-20)
(-0.00546536 0.0165247 -1.44306e-19)
(-0.0114465 0.0239771 1.76357e-19)
(-0.0185067 0.0295776 -7.06961e-20)
(-0.0261879 0.0337616 8.51662e-20)
(-0.0342287 0.0368569 6.9962e-20)
(-0.0424239 0.039124 2.67335e-20)
(-0.0506237 0.040771 1.36743e-21)
(-0.0587261 0.0419655 1.51862e-19)
(-0.0666643 0.0428442 1.05706e-19)
(-0.0743984 0.0435194 -4.25988e-20)
(-0.081909 0.0440839 -2.77374e-20)
(-0.0891923 0.0446145 1.16528e-19)
(-0.0962567 0.045175 2.1976e-20)
(-0.10312 0.0458177 6.01796e-20)
(-0.109805 0.0465854 1.44962e-19)
(-0.116344 0.0475117 -1.25664e-19)
(-0.122768 0.0486221 1.02044e-19)
(-0.129111 0.0499343 -2.20881e-19)
(-0.135409 0.0514579 1.86686e-19)
(-0.14172 0.053192 1.37982e-21)
(-0.148098 0.0551284 -1.5052e-19)
(-0.154388 0.0572767 6.05825e-20)
(-0.160241 0.0596678 1.38982e-19)
(-0.167038 0.0621075 -2.22814e-19)
(-0.00184328 0.0077711 1.55023e-19)
(-0.0062408 0.0195813 -1.70987e-19)
(-0.0122916 0.0284834 -2.76208e-20)
(-0.0192067 0.0352052 3.52572e-20)
(-0.0265918 0.0402467 -7.6483e-20)
(-0.0342213 0.043988 -1.1996e-19)
(-0.0419155 0.0467331 -1.00443e-19)
(-0.0495419 0.0487264 -2.43798e-20)
(-0.0570095 0.050166 -1.7465e-19)
(-0.0642585 0.0512144 1.39922e-19)
(-0.0712526 0.0520057 -2.18336e-19)
(-0.0779744 0.0526514 1.10873e-19)
(-0.0844207 0.0532444 -3.70305e-20)
(-0.0905994 0.0538628 8.62064e-20)
(-0.0965275 0.0545712 -2.17768e-19)
(-0.102229 0.0554236 1.06129e-19)
(-0.107733 0.0564634 8.02176e-21)
(-0.113074 0.0577247 4.73796e-20)
(-0.118286 0.0592329 2.88713e-19)
(-0.123409 0.0610035 6.47593e-20)
(-0.128504 0.0630396 -5.41713e-21)
(-0.133633 0.0653349 1.86369e-20)
(-0.138651 0.0679052 1.22893e-19)
(-0.143182 0.0707963 3.52434e-20)
(-0.148608 0.0737708 1.26635e-19)
(-0.00225064 0.00881063 -9.65609e-20)
(-0.0071162 0.0222824 1.42472e-19)
(-0.0132569 0.0325033 9.03415e-21)
(-0.0200199 0.0402608 -1.76595e-19)
(-0.0270797 0.0461032 3.73891e-19)
(-0.0342502 0.0504521 -1.21598e-19)
(-0.0413801 0.0536476 1.78596e-19)
(-0.0483566 0.055965 1.64436e-19)
(-0.0551017 0.0576289 -1.36609e-19)
(-0.0615636 0.0588247 -2.00206e-19)
(-0.067711 0.0597062 5.50023e-20)
(-0.073529 0.0604023 -5.82883e-20)
(-0.0790152 0.0610212 -2.59708e-19)
(-0.0841775 0.0616547 3.17233e-19)
(-0.0890323 0.0623802 -1.52958e-19)
(-0.0936028 0.0632632 -1.06127e-19)
(-0.0979188 0.0643581 8.8883e-22)
(-0.102015 0.0657094 8.74649e-20)
(-0.105928 0.067352 3.64527e-20)
(-0.109701 0.0693101 -1.42724e-19)
(-0.113399 0.0715938 1.64235e-19)
(-0.117096 0.0742012 -2.86672e-19)
(-0.120659 0.0771571 1.75681e-19)
(-0.123684 0.0805281 -1.36114e-19)
(-0.127551 0.0840359 3.58602e-20)
(-0.00268794 0.00968737 1.41129e-19)
(-0.00806717 0.024599 -1.12683e-19)
(-0.0143206 0.035992 -7.21897e-20)
(-0.020934 0.0446858 -1.28361e-19)
(-0.027653 0.0512611 -2.36102e-19)
(-0.0343326 0.0561701 -1.75534e-19)
(-0.0408522 0.0597806 1.10122e-19)
(-0.0471206 0.0623933 -1.67809e-19)
(-0.0530741 0.0642549 2.14156e-19)
(-0.0586708 0.0655706 -3.50394e-19)
(-0.0638852 0.0665115 1.56548e-19)
(-0.0687055 0.067222 3.32631e-19)
(-0.0731308 0.0678246 -4.69632e-19)
(-0.0771691 0.0684239 6.73225e-20)
(-0.0808363 0.06911 8.83711e-20)
(-0.0841552 0.0699603 8.60421e-20)
(-0.0871553 0.0710415 -9.21795e-20)
(-0.0898722 0.0724101 -2.24848e-20)
(-0.0923454 0.0741129 -6.83633e-20)
(-0.0946214 0.076186 -5.75137e-20)
(-0.0967724 0.07865 -3.18306e-19)
(-0.0988843 0.0815112 -2.18672e-20)
(-0.10084 0.0848077 3.60812e-21)
(-0.102213 0.0886336 -1.46344e-19)
(-0.104371 0.0926751 1.62585e-19)
(-0.00314259 0.0103975 4.19037e-21)
(-0.00906972 0.0265166 4.6089e-20)
(-0.015461 0.0389226 4.84191e-20)
(-0.0219367 0.0484415 2.81665e-20)
(-0.0283127 0.0556704 2.40494e-19)
(-0.0344856 0.0610817 2.27398e-19)
(-0.0403665 0.0650635 -1.85816e-19)
(-0.0458871 0.0679355 -5.69567e-20)
(-0.0509999 0.0699625 -5.08522e-20)
(-0.0556737 0.0713653 2.63729e-19)
(-0.0598902 0.07233 9.54059e-20)
(-0.0636415 0.0730143 -1.39115e-19)
(-0.0669287 0.0735531 -1.18708e-19)
(-0.0697604 0.0740631 2.87142e-19)
(-0.0721519 0.0746463 -7.09284e-20)
(-0.0741255 0.0753925 -8.65516e-20)
(-0.0757105 0.0763812 -1.21703e-19)
(-0.076943 0.0776825 -9.51742e-20)
(-0.0778653 0.0793579 -1.22365e-19)
(-0.0785281 0.0814588 -8.07466e-20)
(-0.0790107 0.0840209 3.36166e-19)
(-0.079414 0.0870638 -1.66149e-19)
(-0.079642 0.0906442 1.12372e-19)
(-0.0792498 0.094893 -3.01657e-19)
(-0.0795894 0.0994691 1.28564e-19)
(-0.00360324 0.0109436 -1.27088e-19)
(-0.0101017 0.0280351 -3.44209e-20)
(-0.0166576 0.0412867 -2.70267e-19)
(-0.023016 0.0515088 -1.30431e-19)
(-0.0290592 0.0593017 -2.58963e-19)
(-0.0347245 0.0651478 -2.72016e-20)
(-0.039955 0.0694483 1.40451e-19)
(-0.0447063 0.0725362 -8.60787e-20)
(-0.0489483 0.0746896 1.86547e-19)
(-0.0526618 0.0761419 -4.55662e-19)
(-0.0558367 0.0770906 -1.35003e-20)
(-0.0584704 0.0777041 8.16104e-20)
(-0.0605663 0.0781279 -1.04e-19)
(-0.062134 0.0784892 9.54779e-20)
(-0.0631886 0.0789007 -7.29446e-20)
(-0.0637513 0.0794642 -1.57602e-19)
(-0.0638508 0.0802724 2.89238e-19)
(-0.0635237 0.0814104 1.806e-19)
(-0.0628142 0.0829568 -3.71019e-20)
(-0.0617776 0.0849823 1.20605e-19)
(-0.0605011 0.0875426 -2.38417e-19)
(-0.0591023 0.0906778 3.46143e-19)
(-0.0575119 0.0944701 -4.74312e-19)
(-0.0552747 0.0990988 9.79409e-20)
(-0.0537245 0.104208 -2.01798e-19)
(-0.00406042 0.0113344 6.91383e-21)
(-0.0111442 0.0291675 -1.1779e-19)
(-0.0178923 0.0430934 1.75208e-19)
(-0.0241605 0.0538889 3.61633e-19)
(-0.0298913 0.0621462 -6.03891e-21)
(-0.0350609 0.0683501 4.14394e-20)
(-0.0396439 0.072908 -1.57623e-19)
(-0.0436205 0.0761611 7.40729e-20)
(-0.0469787 0.0783964 5.14233e-19)
(-0.049713 0.079856 -1.1718e-19)
(-0.0518225 0.0807455 -1.39451e-19)
(-0.0533108 0.0812415 5.29093e-19)
(-0.0541848 0.0814972 1.73971e-19)
(-0.0544552 0.0816481 8.34052e-20)
(-0.0541371 0.0818161 8.55672e-20)
(-0.0532504 0.0821136 2.3402e-19)
(-0.0518225 0.0826462 -9.07561e-20)
(-0.0498895 0.0835148 2.40131e-19)
(-0.047497 0.084817 3.27036e-19)
(-0.0447043 0.0866464 -2.80609e-19)
(-0.0416065 0.0890855 4.19151e-19)
(-0.0383397 0.0922018 1.51063e-19)
(-0.0348664 0.0961138 -5.73912e-19)
(-0.0307334 0.101063 8.3351e-19)
(-0.0272582 0.106698 -7.17499e-19)
(-0.00450713 0.0115835 -3.24979e-19)
(-0.0121821 0.0299389 1.83322e-19)
(-0.0191498 0.0443675 -1.23925e-19)
(-0.0253591 0.0556011 -1.18387e-19)
(-0.0308053 0.0642154 -1.28659e-19)
(-0.0355007 0.0706914 -1.40377e-19)
(-0.0394504 0.0754373 3.86426e-20)
(-0.0426591 0.0787983 3.70116e-19)
(-0.0451344 0.0810659 -7.95017e-20)
(-0.0468852 0.0824872 -2.08508e-19)
(-0.0479215 0.083273 -1.2801e-19)
(-0.0482541 0.0836045 -5.26743e-20)
(-0.0478942 0.0836398 1.56636e-19)
(-0.0468545 0.0835198 -1.00328e-19)
(-0.0451499 0.083373 -3.29811e-19)
(-0.042799 0.0833205 -3.66072e-19)
(-0.039827 0.0834792 1.46407e-19)
(-0.0362682 0.0839653 -2.74468e-19)
(-0.0321681 0.0848967 2.3984e-19)
(-0.0275891 0.0863933 -6.79328e-19)
(-0.0226336 0.0885698 5.25134e-19)
(-0.0174567 0.0915314 -6.98253e-19)
(-0.0120583 0.0954448 -1.39805e-20)
(-0.00600196 0.100632 -2.39035e-19)
(-0.000598981 0.106772 7.38491e-19)
(-0.00493908 0.0117088 4.98748e-19)
(-0.0132048 0.0303836 7.57596e-20)
(-0.0204181 0.0451474 -5.01618e-20)
(-0.026601 0.0566807 -2.12576e-20)
(-0.0317939 0.0655387 3.98073e-19)
(-0.0360414 0.072194 1.30239e-19)
(-0.039378 0.077052 1.18759e-19)
(-0.0418334 0.0804579 -9.59359e-20)
(-0.0434349 0.0827046 3.72037e-19)
(-0.0442073 0.0840409 -1.8405e-19)
(-0.0441726 0.0846791 1.19057e-19)
(-0.0433502 0.0848019 3.0466e-19)
(-0.0417568 0.0845689 -1.73858e-19)
(-0.0394078 0.0841232 1.88958e-19)
(-0.0363182 0.0835966 1.79224e-19)
(-0.0325051 0.0831152 6.16856e-20)
(-0.0279908 0.0828048 -1.53473e-19)
(-0.0228061 0.0827948 4.24538e-19)
(-0.0169949 0.0832228 -3.99713e-20)
(-0.0106202 0.0842371 -4.71085e-20)
(-0.00379069 0.08599 5.16427e-19)
(0.00331985 0.0886342 -3.70287e-19)
(0.0106697 0.0924001 6.2574e-19)
(0.0186606 0.0977134 -5.23053e-19)
(0.0259677 0.104316 7.03433e-19)
(-0.00535482 0.0117304 -2.41233e-19)
(-0.0142063 0.0305428 5.52738e-20)
(-0.0216877 0.0454816 -5.81759e-20)
(-0.0278746 0.0571764 -2.76536e-19)
(-0.0328437 0.066161 1.61951e-20)
(-0.0366693 0.0728978 1.59212e-19)
(-0.0394134 0.0777872 -6.51236e-19)
(-0.0411305 0.0811716 4.88667e-19)
(-0.0418684 0.0833426 -4.78092e-19)
(-0.0416689 0.0845477 -3.03279e-19)
(-0.0405672 0.084998 2.73035e-19)
(-0.0385926 0.0848743 -5.94219e-19)
(-0.0357687 0.0843344 5.02573e-19)
(-0.0321144 0.0835197 -1.60442e-19)
(-0.0276458 0.0825612 -4.61225e-19)
(-0.0223784 0.0815859 1.1461e-19)
(-0.0163307 0.0807239 -1.08045e-19)
(-0.00952936 0.0801138 4.14561e-20)
(-0.00201365 0.0799104 -1.46759e-19)
(0.00615484 0.0802894 -4.90597e-19)
(0.0148635 0.0814446 1.10029e-19)
(0.0239213 0.0835852 -7.50125e-22)
(0.0332412 0.0870226 -5.14111e-19)
(0.0431713 0.0923143 3.6161e-19)
(0.052341 0.0993091 -3.28324e-19)
(-0.00575553 0.0116698 9.7728e-20)
(-0.0151847 0.0304616 1.86331e-19)
(-0.0229512 0.0454253 2.62107e-19)
(-0.0291659 0.0571464 1.35625e-19)
(-0.033934 0.0661396 -1.33789e-19)
(-0.0373564 0.0728576 3.20898e-19)
(-0.0395216 0.0776949 2.38736e-19)
(-0.040508 0.08099 -8.74028e-20)
(-0.0403848 0.0830312 3.13561e-19)
(-0.0392113 0.0840627 -3.24026e-19)
(-0.0370375 0.0842915 -9.56494e-20)
(-0.0339036 0.083894 9.73395e-20)
(-0.0298414 0.0830231 1.93462e-19)
(-0.0248749 0.0818145 2.39785e-21)
(-0.0190221 0.0803937 1.23656e-19)
(-0.0122978 0.078884 2.29951e-19)
(-0.00471696 0.0774135 -3.93105e-19)
(0.00369953 0.0761242 4.90709e-19)
(0.0129183 0.0751818 1.66541e-19)
(0.0228821 0.0747856 5.9781e-20)
(0.0334774 0.0751704 -6.03773e-19)
(0.0444979 0.0766087 8.51105e-20)
(0.0558098 0.0795101 1.33789e-19)
(0.0676888 0.0845964 -3.30462e-20)
(0.0786742 0.0918774 1.61565e-19)
(-0.00614461 0.0115486 7.50556e-21)
(-0.0161411 0.0301859 -4.79758e-19)
(-0.0242019 0.045037 -1.20553e-20)
(-0.0304569 0.0566547 -1.22442e-19)
(-0.0350339 0.0655402 -8.08703e-19)
(-0.0380578 0.0721392 7.01948e-19)
(-0.039642 0.0768411 -5.02023e-19)
(-0.0398889 0.0799803 -2.55948e-20)
(-0.0388887 0.0818409 -2.39485e-19)
(-0.0367192 0.0826625 4.15916e-19)
(-0.0334456 0.0826464 -4.49681e-19)
(-0.0291207 0.0819625 -2.11505e-19)
(-0.0237856 0.080756 4.0434e-21)
(-0.017471 0.0791537 -4.61841e-19)
(-0.0101985 0.0772717 6.3252e-19)
(-0.0019834 0.0752236 -7.36504e-19)
(0.00716174 0.0731289 1.19679e-21)
(0.0172212 0.0711249 1.13438e-19)
(0.0281684 0.0693792 -2.86643e-19)
(0.0399525 0.0681058 2.79989e-19)
(0.0524621 0.0675744 -3.97496e-19)
(0.0654779 0.0681218 -2.647e-19)
(0.07882 0.070269 4.95518e-19)
(0.092677 0.0749383 -5.43095e-19)
(0.105442 0.0823651 -1.1092e-20)
(-0.00652702 0.0113866 -3.9165e-19)
(-0.0170784 0.0297595 4.65692e-19)
(-0.0254315 0.0443744 -1.44744e-19)
(-0.0317235 0.0557668 2.79831e-19)
(-0.0361001 0.064433 3.03447e-19)
(-0.0387081 0.0708158 -2.68753e-19)
(-0.0396853 0.0753018 -1.7877e-19)
(-0.0391571 0.0782224 -2.15303e-19)
(-0.0372346 0.0798574 1.98063e-19)
(-0.0340141 0.0804416 -1.35626e-20)
(-0.0295765 0.0801701 2.91224e-19)
(-0.0239878 0.079205 2.88278e-19)
(-0.0173 0.0776824 -3.46183e-19)
(-0.00955196 0.0757179 6.82079e-19)
(-0.000771049 0.0734151 -4.54539e-19)
(0.00902441 0.0708728 -7.81663e-20)
(0.0198217 0.0681956 8.92938e-19)
(0.0316078 0.0655063 -4.14851e-19)
(0.0443617 0.062963 2.66264e-19)
(0.0580389 0.0607808 5.22474e-19)
(0.0725313 0.0592508 -3.39945e-19)
(0.0876098 0.0587648 3.58048e-20)
(0.10305 0.0599604 -2.41706e-20)
(0.118947 0.0639942 -1.41985e-19)
(0.133485 0.0714012 2.76183e-19)
(-0.00690847 0.0112009 8.95503e-20)
(-0.0179994 0.0292217 -2.94443e-19)
(-0.0266286 0.0434909 1.62075e-19)
(-0.0329331 0.0545462 -2.09827e-21)
(-0.037074 0.0628885 1.23373e-19)
(-0.0392196 0.0689637 -2.13263e-19)
(-0.0395307 0.073159 1.22644e-19)
(-0.0381548 0.0758045 3.35721e-19)
(-0.0352235 0.0771774 -1.04283e-20)
(-0.0308511 0.0775077 -1.7288e-19)
(-0.0251339 0.076985 1.74284e-19)
(-0.0181515 0.0757639 -4.03635e-21)
(-0.0099675 0.0739711 -5.57661e-19)
(-0.000630652 0.071711 2.07276e-19)
(0.00982319 0.0690724 4.57247e-20)
(0.0213691 0.0661371 -8.11495e-20)
(0.0339895 0.062989 -1.46586e-19)
(0.0476695 0.0597282 5.61048e-19)
(0.0623882 0.0564903 1.37477e-19)
(0.078104 0.053474 -2.96024e-19)
(0.0947107 0.0509705 -3.62811e-20)
(0.11197 0.0494051 4.12292e-19)
(0.129617 0.0495201 -1.92783e-19)
(0.147658 0.0527314 8.3765e-20)
(0.164016 0.0599494 5.74983e-20)
(-0.00729445 0.0110053 -1.78915e-19)
(-0.0189048 0.0286046 1.84496e-19)
(-0.0277757 0.0424331 -1.04445e-19)
(-0.0340421 0.0530505 -3.37339e-19)
(-0.0378803 0.060974 -3.12312e-19)
(-0.0394798 0.0666587 -1.38514e-19)
(-0.0390239 0.0704968 -1.15607e-19)
(-0.0366815 0.0728198 -3.43158e-19)
(-0.0326032 0.0739039 -1.39448e-19)
(-0.0269198 0.0739765 1.27854e-19)
(-0.0197428 0.0732224 -1.82892e-19)
(-0.0111647 0.0717908 -1.93449e-19)
(-0.00126111 0.0698004 -1.82419e-19)
(0.00990742 0.0673455 3.33139e-19)
(0.0222937 0.0645018 -7.01511e-19)
(0.0358614 0.0613335 4.02963e-19)
(0.0505817 0.057902 -6.90897e-19)
(0.0664292 0.0542792 -1.06934e-19)
(0.0833741 0.0505672 -3.83197e-19)
(0.101368 0.0469301 -8.99737e-20)
(0.120301 0.0436316 -1.09958e-19)
(0.139922 0.041095 -3.69921e-19)
(0.159929 0.0401327 -4.12335e-20)
(0.180265 0.042423 2.29098e-19)
(0.198559 0.0493184 -6.17408e-19)
(-0.00768921 0.010809 1.53464e-19)
(-0.0197911 0.0279318 2.07977e-19)
(-0.0288473 0.041238 7.32008e-19)
(-0.0349939 0.0513293 -1.29171e-19)
(-0.0384243 0.0587504 3.09299e-19)
(-0.0393506 0.0639728 7.40371e-19)
(-0.0379779 0.067398 -2.02816e-19)
(-0.0344952 0.0693622 2.75647e-19)
(-0.0290704 0.070143 1.61267e-19)
(-0.0218495 0.0699671 2.93706e-19)
(-0.0129573 0.0690173 -5.88021e-20)
(-0.00249856 0.0674394 4.01796e-20)
(0.00943864 0.0653475 -1.04281e-19)
(0.0227807 0.0628293 5.64584e-19)
(0.0374657 0.0599509 7.22782e-20)
(0.0534399 0.0567627 5.27781e-19)
(0.0706551 0.0533061 -1.35654e-19)
(0.0890637 0.0496245 4.87033e-19)
(0.108613 0.0457816 6.899e-20)
(0.129233 0.0418924 2.49875e-19)
(0.150794 0.038166 -1.08396e-19)
(0.173024 0.0349771 -2.0476e-20)
(0.195585 0.0331465 6.01876e-19)
(0.218398 0.034582 3.73239e-19)
(0.238828 0.0411157 -1.60685e-19)
(-0.00809472 0.0106166 -3.70933e-19)
(-0.0206486 0.0272174 -3.89393e-19)
(-0.0298073 0.0399315 -4.09526e-19)
(-0.0357166 0.0494215 1.51154e-19)
(-0.0385916 0.05627 -3.04988e-19)
(-0.0386682 0.0609715 -4.56614e-20)
(-0.0361736 0.0639415 -1.20935e-19)
(-0.0313153 0.0655239 -5.03551e-19)
(-0.0242771 0.0660003 -7.89092e-20)
(-0.015218 0.0655991 1.30084e-19)
(-0.0042743 0.064504 -4.0956e-19)
(0.00843748 0.0628606 5.7014e-19)
(0.0228169 0.0607822 -7.76726e-19)
(0.0387755 0.0583548 1.87709e-19)
(0.0562326 0.055641 -4.78742e-19)
(0.0751109 0.0526842 -3.90203e-19)
(0.0953327 0.0495135 -2.24825e-20)
(0.116815 0.0461507 -5.96476e-20)
(0.139463 0.0426249 4.67259e-20)
(0.163164 0.0389987 -2.26682e-19)
(0.187748 0.0354076 -1.57476e-19)
(0.212901 0.0321319 1.94669e-19)
(0.238241 0.0299155 -5.40818e-19)
(0.263722 0.0308113 1.76332e-19)
(0.286566 0.0371152 1.32359e-19)
(-0.00850977 0.0104279 -6.55981e-20)
(-0.0214595 0.0264656 -1.12607e-19)
(-0.0306074 0.0385284 4.42041e-19)
(-0.0361222 0.047355 1.65182e-19)
(-0.0382469 0.0535751 2.19748e-19)
(-0.037244 0.0577125 -2.95075e-19)
(-0.0333628 0.0602005 7.30241e-22)
(-0.0268286 0.0613935 -2.40688e-19)
(-0.017839 0.0615796 4.46914e-19)
(-0.00656468 0.0609913 1.46415e-19)
(0.00684764 0.0598156 1.64898e-19)
(0.0222704 0.0582009 -6.57578e-19)
(0.0395898 0.0562641 8.14127e-19)
(0.0587 0.0540947 -2.45022e-19)
(0.0794972 0.0517586 -1.75986e-19)
(0.101874 0.0493016 5.29533e-19)
(0.125712 0.0467515 2.37588e-19)
(0.150879 0.0441227 -6.0282e-19)
(0.177222 0.0414242 -2.53305e-19)
(0.204557 0.0386778 7.66218e-19)
(0.232645 0.035946 -5.88039e-19)
(0.261102 0.033385 3.55002e-19)
(0.289474 0.0315686 1.99737e-19)
(0.317797 0.0325536 -2.57505e-19)
(0.343398 0.0390231 -2.56909e-19)
(-0.00892918 0.0102383 -2.4099e-19)
(-0.0221964 0.0256712 3.89024e-19)
(-0.0311857 0.0370319 1.66707e-19)
(-0.0361058 0.0451461 -2.42207e-19)
(-0.0372354 0.050698 -3.89987e-20)
(-0.0348669 0.0542452 -2.56364e-19)
(-0.029273 0.056242 -1.02454e-19)
(-0.020696 0.0570557 1.15701e-19)
(-0.00934682 0.0569827 -2.9179e-20)
(0.00459308 0.0562614 2.19693e-19)
(0.0209663 0.0550838 -1.9158e-19)
(0.0396332 0.053604 5.32392e-19)
(0.0604642 0.0519449 -6.62228e-19)
(0.0833323 0.0502041 4.14368e-19)
(0.108105 0.0484572 5.16893e-19)
(0.134638 0.0467609 -7.49805e-19)
(0.162765 0.0451555 -2.2912e-19)
(0.19229 0.043666 3.87665e-19)
(0.222982 0.0423061 -2.4001e-19)
(0.254566 0.0410873 2.33308e-19)
(0.286697 0.0400299 -5.66853e-19)
(0.318881 0.0391766 9.45373e-20)
(0.350537 0.0388688 3.72847e-19)
(0.381791 0.0410185 -6.02206e-19)
(0.410471 0.0485791 1.65475e-19)
(-0.00934329 0.0100393 -2.2235e-19)
(-0.0228215 0.0248209 7.24019e-19)
(-0.031466 0.0354353 1.39816e-19)
(-0.0355454 0.0428011 -3.80183e-19)
(-0.0353835 0.0476614 2.73961e-19)
(-0.0313066 0.050611 1.39965e-19)
(-0.0236125 0.0521273 2.24113e-19)
(-0.0125617 0.052592 -1.46901e-20)
(0.00162114 0.0523105 -2.36682e-20)
(0.0187422 0.0515282 -4.9656e-20)
(0.038631 0.0504428 -2.16868e-19)
(0.0611321 0.0492144 -7.31968e-21)
(0.0860951 0.0479736 5.1011e-19)
(0.113366 0.0468274 -8.39809e-19)
(0.142779 0.0458642 5.99418e-19)
(0.174144 0.045158 1.2177e-19)
(0.207242 0.0447717 2.16093e-19)
(0.24181 0.0447603 -1.12296e-19)
(0.277531 0.045174 9.9698e-19)
(0.314023 0.0460651 -6.19661e-19)
(0.350802 0.0474873 4.97882e-19)
(0.38719 0.0494679 1.17973e-19)
(0.422354 0.0522186 -3.68045e-19)
(0.456339 0.057572 3.12858e-19)
(0.487843 0.0685322 4.97774e-19)
(-0.0097377 0.00981942 -6.4287e-20)
(-0.0232864 0.0238952 -2.55142e-19)
(-0.0313581 0.033724 -4.38759e-19)
(-0.0343034 0.040318 -2.5125e-19)
(-0.0325013 0.0444804 -3.53397e-20)
(-0.0263174 0.0468453 -1.00179e-19)
(-0.0160773 0.0479137 -4.66979e-19)
(-0.00206273 0.0480821 7.79671e-20)
(0.0154845 0.047665 -5.28985e-19)
(0.036354 0.0469141 -4.11837e-20)
(0.0603561 0.0460317 -5.11165e-19)
(0.0873116 0.0451829 -1.82651e-19)
(0.117041 0.0445032 1.05235e-19)
(0.149353 0.0441068 -5.0255e-19)
(0.18404 0.0440918 4.52572e-21)
(0.220864 0.044547 -4.3613e-19)
(0.259553 0.0455583 1.69137e-19)
(0.299791 0.0472161 -6.13429e-19)
(0.341207 0.0496268 -1.05739e-19)
(0.383361 0.0529288 -1.43277e-20)
(0.4257 0.057302 -1.04687e-19)
(0.467434 0.0629567 -1.07156e-19)
(0.507474 0.0703884 -5.30237e-20)
(0.545172 0.0818265 -2.15577e-19)
(0.578469 0.0995203 -4.72297e-19)
(-0.0100934 0.00956541 1.1816e-19)
(-0.0235318 0.0228704 3.22995e-19)
(-0.0307584 0.0318783 3.90619e-19)
(-0.032228 0.0376892 -3.13869e-19)
(-0.0283858 0.0411656 5.86014e-19)
(-0.0196429 0.0429802 -3.19629e-19)
(-0.00635824 0.0436573 1.7454e-19)
(0.0111601 0.043607 2.73233e-19)
(0.0326465 0.043152 2.49485e-19)
(0.0578647 0.0425481 1.21816e-19)
(0.0865948 0.0419998 1.97555e-19)
(0.11862 0.0416723 1.15303e-19)
(0.153717 0.0417007 7.81874e-19)
(0.191643 0.0421977 -5.70143e-19)
(0.232132 0.0432604 6.53326e-19)
(0.274888 0.0449774 -2.72364e-19)
(0.319587 0.047437 5.9023e-19)
(0.365874 0.050738 -2.77048e-20)
(0.413371 0.0550068 -1.22934e-19)
(0.461688 0.0604232 -2.20951e-20)
(0.510431 0.0672553 4.68975e-19)
(0.55922 0.0759446 -4.57723e-19)
(0.607908 0.0875554 3.23588e-19)
(0.656822 0.104464 3.55663e-19)
(0.70076 0.123529 7.31725e-20)
(-0.010387 0.00926322 8.16792e-20)
(-0.0234889 0.0217212 -4.61212e-19)
(-0.029551 0.0298763 -1.68696e-19)
(-0.0291549 0.0349057 1.55157e-19)
(-0.0228237 0.0377265 -4.80123e-19)
(-0.0110215 0.0390481 -9.5018e-20)
(0.00585146 0.0394162 6.63182e-20)
(0.0274519 0.0392525 2.63126e-19)
(0.0534788 0.0388849 -6.69054e-19)
(0.0836558 0.0385701 5.10512e-20)
(0.117715 0.0385099 -1.97119e-19)
(0.155383 0.0388633 -6.01067e-19)
(0.196366 0.039756 4.10971e-19)
(0.240348 0.0412874 1.76499e-20)
(0.28698 0.0435374 -1.24334e-20)
(0.335884 0.0465717 4.18522e-19)
(0.386658 0.0504491 -7.42045e-19)
(0.438886 0.0552281 5.89341e-19)
(0.49215 0.0609761 -1.09398e-19)
(0.546063 0.0677791 3.44563e-19)
(0.600288 0.0757482 -5.68729e-19)
(0.654588 0.0850396 3.25642e-19)
(0.709008 0.096057 -5.81499e-19)
(0.764092 0.109729 5.95767e-19)
(0.814454 0.122452 -1.90207e-19)
(-0.010591 0.0088993 5.47117e-19)
(-0.0230798 0.0204237 -9.23326e-20)
(-0.0276096 0.0276982 6.86597e-19)
(-0.0249105 0.0319607 3.19862e-19)
(-0.0155955 0.0341761 2.58696e-20)
(-0.000191743 0.0350866 1.41142e-19)
(0.0208484 0.0352557 3.43036e-20)
(0.0471329 0.035113 5.80322e-19)
(0.0783082 0.0349879 1.87688e-19)
(0.114037 0.0351328 -2.5265e-20)
(0.153979 0.0357403 5.08396e-20)
(0.197775 0.036955 1.96374e-19)
(0.245034 0.0388825 1.64432e-19)
(0.295331 0.0415963 3.52974e-19)
(0.348206 0.0451433 -4.03431e-19)
(0.403167 0.0495486 1.222e-19)
(0.459703 0.0548204 3.73316e-20)
(0.517299 0.0609534 1.81808e-19)
(0.575454 0.0679323 4.93084e-19)
(0.63371 0.0757326 -3.23179e-19)
(0.691673 0.084314 2.69176e-20)
(0.749034 0.0936098 -4.54784e-19)
(0.805648 0.103614 4.28803e-19)
(0.861705 0.114767 -4.11322e-19)
(0.912627 0.125155 4.25314e-20)
(-0.0106747 0.00846188 -4.56152e-19)
(-0.0222194 0.018958 3.6197e-19)
(-0.0247996 0.0253295 -5.93096e-19)
(-0.0193141 0.0288547 5.14548e-20)
(-0.00647921 0.0305361 4.22341e-19)
(0.0131025 0.0311434 -7.0726e-19)
(0.0389114 0.0312526 5.63758e-19)
(0.0704877 0.0312962 -8.98487e-19)
(0.107402 0.0315992 1.79837e-19)
(0.149229 0.0324031 3.85783e-20)
(0.195523 0.0338825 3.05542e-19)
(0.245806 0.0361576 -1.01895e-18)
(0.299555 0.0393024 1.76557e-19)
(0.356203 0.0433515 1.87599e-19)
(0.415146 0.0483055 -1.12814e-19)
(0.475751 0.0541356 -7.01486e-19)
(0.537374 0.0607881 3.31347e-19)
(0.599383 0.0681875 6.20552e-19)
(0.661175 0.0762384 -6.55378e-19)
(0.722204 0.0848249 4.75732e-19)
(0.781994 0.0938052 -6.15556e-19)
(0.840152 0.102998 4.47568e-19)
(0.896385 0.112231 -1.22643e-19)
(0.950643 0.121778 7.01629e-19)
(0.999513 0.131135 -8.02697e-19)
(-0.010605 0.00794181 6.51432e-20)
(-0.0208167 0.0173108 5.3386e-20)
(-0.02098 0.0227653 1.31502e-19)
(-0.0121811 0.0255995 4.728e-19)
(0.00474531 0.0268418 -1.4926e-20)
(0.0291056 0.0272816 1.06848e-19)
(0.0602929 0.0275006 4.78059e-19)
(0.0977544 0.0279269 1.93817e-19)
(0.140955 0.0288733 -6.41227e-20)
(0.189346 0.0305609 5.48259e-19)
(0.24234 0.0331361 -6.26703e-19)
(0.299301 0.0366824 9.6508e-19)
(0.359538 0.0412292 -3.84219e-19)
(0.422313 0.0467595 6.99493e-19)
(0.486851 0.0532156 -2.36923e-19)
(0.552364 0.0605061 8.66406e-20)
(0.618071 0.0685108 1.05229e-19)
(0.683226 0.0770866 -2.03217e-19)
(0.747142 0.0860708 1.70775e-19)
(0.809209 0.0952835 1.09972e-19)
(0.868911 0.104527 1.51401e-19)
(0.92583 0.11358 3.19452e-19)
(0.979636 0.122222 -2.85247e-20)
(1.03021 0.130634 -1.46255e-19)
(1.07535 0.139306 4.35821e-19)
(-0.0103465 0.00733337 -3.81006e-19)
(-0.0187765 0.0154775 4.18233e-20)
(-0.0160058 0.0200131 -7.56915e-19)
(-0.0033266 0.022223 -1.81898e-19)
(0.0182916 0.0231468 -3.42731e-19)
(0.0480438 0.0235844 -7.3884e-20)
(0.08521 0.0241138 -3.70998e-19)
(0.129113 0.0251494 -2.22802e-19)
(0.179074 0.0269809 2.96377e-19)
(0.234379 0.0297972 -4.96763e-19)
(0.294261 0.0337027 -1.38533e-19)
(0.357884 0.03873 5.45788e-21)
(0.42436 0.0448502 -9.4303e-19)
(0.492752 0.0519814 4.02164e-19)
(0.562109 0.0599986 -5.88734e-19)
(0.63149 0.0687418 -1.83504e-20)
(0.699996 0.0780259 1.16456e-19)
(0.766801 0.0876483 -1.89851e-19)
(0.831177 0.0973962 -1.66652e-19)
(0.89251 0.107053 8.28035e-20)
(0.950315 0.116401 9.24064e-20)
(1.00423 0.125222 -6.00253e-19)
(1.05399 0.133311 3.42528e-19)
(1.09955 0.140792 1.7084e-19)
(1.1397 0.148757 4.52073e-20)
(-0.00986253 0.00663476 3.89594e-19)
(-0.0160006 0.0134635 -4.31331e-19)
(-0.00973063 0.0170957 6.09451e-19)
(0.00743138 0.0187719 9.56023e-20)
(0.0343614 0.0195266 -2.9443e-20)
(0.0701175 0.0201585 -2.08609e-19)
(0.113834 0.0212299 3.15296e-20)
(0.16467 0.0231287 3.20608e-19)
(0.22176 0.0261079 -4.44329e-19)
(0.284181 0.0303082 4.68678e-19)
(0.35094 0.035776 -4.96898e-20)
(0.420972 0.0424768 2.19952e-20)
(0.493163 0.0503084 6.16413e-19)
(0.566376 0.0591132 8.28476e-19)
(0.639489 0.0686915 -3.25211e-19)
(0.711439 0.0788148 5.78664e-19)
(0.781252 0.0892387 2.94195e-19)
(0.848079 0.0997145 -1.80609e-19)
(0.911222 0.11 5.71906e-19)
(0.970138 0.119866 -2.27364e-20)
(1.02445 0.129105 -5.50248e-19)
(1.07393 0.137529 5.80072e-19)
(1.11848 0.144976 8.25241e-20)
(1.15817 0.151553 -3.58332e-19)
(1.19258 0.158643 1.13234e-19)
(-0.0091152 0.00584847 -5.41794e-19)
(-0.0123894 0.0112862 5.87909e-19)
(-0.00200927 0.0140529 -3.75671e-19)
(0.0202672 0.0153146 -1.17919e-19)
(0.0531377 0.0160813 -2.65905e-19)
(0.0954921 0.0171357 4.72994e-19)
(0.146279 0.0190097 -2.76067e-19)
(0.204448 0.0220482 -1.27185e-19)
(0.268898 0.0264491 -3.65761e-19)
(0.338452 0.0322866 9.4779e-21)
(0.411851 0.0395298 -1.4429e-19)
(0.487777 0.0480599 7.0492e-20)
(0.564885 0.0576877 -7.44633e-19)
(0.641848 0.0681713 2.1289e-19)
(0.717414 0.0792348 -2.57593e-19)
(0.790444 0.0905863 -2.08002e-19)
(0.859961 0.101935 6.41763e-20)
(0.925171 0.113004 -3.047e-19)
(0.985484 0.123545 -1.30714e-19)
(1.04051 0.133341 3.7797e-19)
(1.09004 0.142218 1.59778e-19)
(1.13407 0.150039 -6.80676e-19)
(1.17268 0.1567 5.00342e-19)
(1.20613 0.162321 -9.46066e-20)
(1.23453 0.168347 -1.96262e-19)
(-0.00806589 0.00498139 -1.97281e-19)
(-0.00784368 0.0089746 -1.09565e-19)
(0.0072991 0.0109431 -2.19805e-20)
(0.0353427 0.0119422 1.62742e-19)
(0.0747778 0.0129357 1.78049e-19)
(0.124288 0.0146725 1.55901e-19)
(0.182589 0.0176348 1.95047e-19)
(0.248369 0.0221038 2.99187e-19)
(0.320241 0.0282006 4.59464e-19)
(0.396729 0.0359103 4.56536e-19)
(0.476285 0.0451043 2.42024e-19)
(0.557325 0.0555632 -6.52593e-20)
(0.63829 0.0670001 1.63745e-20)
(0.717706 0.0790861 -2.21596e-20)
(0.794246 0.0914739 1.9417e-19)
(0.866778 0.103821 -5.16871e-20)
(0.934402 0.11581 5.77692e-19)
(0.996467 0.127159 -2.59674e-19)
(1.05257 0.137637 3.927e-21)
(1.10254 0.147067 1.83006e-19)
(1.1464 0.155323 -4.00602e-19)
(1.18437 0.162335 6.66607e-19)
(1.21676 0.168063 -5.40719e-19)
(1.24403 0.172662 9.85477e-20)
(1.2666 0.177489 -3.51845e-19)
(-0.00667557 0.00404495 4.23192e-19)