/*--------------------------------*- C++ -*----------------------------------*\
  =========                 |
  \\      /  F ield         | OpenFOAM: The Open Source CFD Toolbox
   \\    /   O peration     | Website:  https://openfoam.org
    \\  /    A nd           | Version:  6.0
     \\/     M anipulation  |
\*---------------------------------------------------------------------------*/
FoamFile
{
    version     2.0;
    format      ascii;
    class       volVectorField;
    location    "36";
    object      U;
}
// * * * * * * * * * * * * * * * * * * * * * * * * * * * * * * * * * * * * * //

dimensions      [0 1 -1 0 0 0 0];

internalField   nonuniform List<vector> 
12500
(
(-0.000263624 0.000616678 -7.67158e-22)
(-0.00153484 0.00174447 1.09792e-20)
(-0.00398648 0.00275825 -1.60159e-20)
(-0.00711984 0.00365971 7.39329e-21)
(-0.0106628 0.0044522 4.45772e-22)
(-0.0144444 0.0051423 -9.20652e-22)
(-0.0183281 0.00573939 -1.36403e-20)
(-0.0222122 0.00625447 7.51755e-21)
(-0.0260258 0.00669928 4.98665e-21)
(-0.0297224 0.00708568 5.08069e-21)
(-0.0332745 0.00742517 -8.62247e-21)
(-0.0366701 0.00772852 5.02869e-21)
(-0.0399087 0.00800557 -2.37319e-21)
(-0.0429995 0.0082651 4.03197e-21)
(-0.0459582 0.00851479 -1.03027e-20)
(-0.0488058 0.00876117 1.4913e-20)
(-0.0515667 0.00900976 -2.84863e-21)
(-0.0542674 0.00926504 -1.05741e-20)
(-0.0569348 0.00953059 5.42105e-21)
(-0.059596 0.00980918 -5.17838e-21)
(-0.0622809 0.0101028 4.63882e-21)
(-0.0650188 0.0104127 6.1364e-21)
(-0.0677994 0.0107404 6.22291e-22)
(-0.0705585 0.0110873 -1.75835e-20)
(-0.0735665 0.01145 9.85115e-21)
(-0.000310242 0.00124095 1.39937e-20)
(-0.00165306 0.00336518 -3.74797e-20)
(-0.00415132 0.00514217 1.11191e-20)
(-0.0073119 0.00661367 7.46959e-21)
(-0.0108659 0.00781546 -5.98463e-21)
(-0.0146447 0.00878237 -3.41529e-20)
(-0.0185137 0.00954946 1.01968e-20)
(-0.0223729 0.0101506 -1.93236e-20)
(-0.0261528 0.0106179 2.31976e-20)
(-0.0298078 0.0109808 -3.10629e-20)
(-0.0333114 0.0112666 1.66296e-20)
(-0.0366521 0.0114996 5.38461e-21)
(-0.0398301 0.0117015 -1.36002e-20)
(-0.0428548 0.0118911 -6.0214e-21)
(-0.0457424 0.0120848 4.4148e-20)
(-0.0485142 0.0122963 -3.91168e-20)
(-0.051195 0.0125367 9.36904e-21)
(-0.0538116 0.012815 1.62263e-20)
(-0.0563914 0.0131379 -3.71117e-21)
(-0.058962 0.01351 2.62007e-20)
(-0.0615536 0.013934 4.76695e-21)
(-0.0641963 0.0144105 -1.70948e-21)
(-0.0668803 0.0149406 -3.31411e-20)
(-0.0695413 0.0155265 3.05121e-20)
(-0.0724495 0.016155 -6.17768e-20)
(-0.000395924 0.00185604 4.48737e-20)
(-0.00187303 0.00496184 1.54726e-20)
(-0.00446602 0.00749016 -2.04034e-20)
(-0.00768875 0.00952184 8.81056e-21)
(-0.0112769 0.0111246 8.29432e-21)
(-0.0150652 0.0123612 3.16159e-20)
(-0.0189222 0.013292 -4.03222e-20)
(-0.0227506 0.0139733 -6.57629e-21)
(-0.0264831 0.0144571 -2.71883e-20)
(-0.0300759 0.0147907 -2.27684e-20)
(-0.033504 0.0150166 2.94877e-20)
(-0.0367568 0.0151726 -9.89268e-20)
(-0.0398356 0.0152921 -3.09112e-21)
(-0.0427506 0.0154043 -5.96106e-20)
(-0.0455188 0.0155341 -7.02636e-21)
(-0.0481622 0.0157024 8.5e-21)
(-0.0507064 0.0159263 -4.64883e-20)
(-0.0531791 0.0162195 -2.9118e-20)
(-0.0556086 0.016592 -3.4517e-20)
(-0.0580238 0.0170506 5.41451e-20)
(-0.0604561 0.0175986 1.98074e-20)
(-0.0629369 0.0182366 -8.8118e-20)
(-0.0654578 0.0189653 -4.24698e-20)
(-0.0679538 0.0197877 -4.74912e-20)
(-0.0706962 0.0206812 1.35961e-19)
(-0.000520042 0.00246016 -1.40679e-21)
(-0.00219327 0.00652924 -3.57777e-20)
(-0.00492864 0.00979338 -1.72674e-20)
(-0.0082482 0.0123719 1.07716e-20)
(-0.0118933 0.014364 6.74521e-20)
(-0.0157035 0.0158597 -3.05722e-20)
(-0.0195516 0.0169443 6.54514e-20)
(-0.0233439 0.0176963 6.25673e-20)
(-0.027016 0.0181874 3.82219e-20)
(-0.0305268 0.0184819 -5.7959e-22)
(-0.033853 0.0186375 7.75089e-20)
(-0.036986 0.0187054 1.34491e-20)
(-0.0399282 0.0187308 5.94261e-20)
(-0.0426911 0.0187529 1.36872e-19)
(-0.0452926 0.0188055 -1.59086e-19)
(-0.0477559 0.018917 2.39594e-19)
(-0.050108 0.0191109 5.21868e-20)
(-0.0523777 0.0194058 -1.15318e-19)
(-0.0545953 0.0198155 -1.63817e-20)
(-0.056791 0.0203495 4.2042e-20)
(-0.0589985 0.0210123 -2.10761e-20)
(-0.0612513 0.0218045 -1.26086e-20)
(-0.063543 0.0227267 -1.231e-20)
(-0.0658078 0.0237834 -4.96426e-20)
(-0.0683197 0.0249421 1.84679e-19)
(-0.000681952 0.00305184 2.33647e-20)
(-0.00261213 0.00806261 -1.12641e-19)
(-0.00553683 0.0120438 1.37498e-19)
(-0.00898742 0.0151524 -5.50628e-20)
(-0.0127122 0.0175189 6.62643e-20)
(-0.0165566 0.01926 5.43228e-20)
(-0.0203988 0.0204855 2.07146e-20)
(-0.0241498 0.0212957 1.00427e-21)
(-0.0277491 0.0217812 1.17519e-19)
(-0.0311587 0.0220232 8.15993e-20)
(-0.034358 0.0220944 -3.28307e-20)
(-0.0373403 0.022059 -2.11887e-20)
(-0.0401098 0.0219737 8.96125e-20)
(-0.0426793 0.0218882 1.69214e-20)
(-0.0450683 0.0218451 4.59796e-20)
(-0.0473014 0.0218809 1.1033e-19)
(-0.049407 0.0220257 -9.55002e-20)
(-0.051416 0.0223038 7.72242e-20)
(-0.0533605 0.0227334 -1.66651e-19)
(-0.0552736 0.0233273 1.40225e-19)
(-0.0571913 0.0240919 8.99272e-22)
(-0.0591505 0.0250283 -1.1203e-19)
(-0.0611474 0.0261377 4.51713e-20)
(-0.0631157 0.0274264 1.02633e-19)
(-0.0653337 0.0288518 -1.60233e-19)
(-0.000881015 0.00362988 1.20827e-19)
(-0.0031278 0.00955786 -1.33149e-19)
(-0.00628786 0.0142341 -2.15812e-20)
(-0.00990282 0.0178531 2.736e-20)
(-0.0137292 0.0205759 -5.94483e-20)
(-0.0176195 0.0225459 -9.31797e-20)
(-0.0214586 0.0238966 -7.78319e-20)
(-0.0251631 0.0247495 -1.88457e-20)
(-0.0286775 0.0252138 -1.35104e-19)
(-0.0319675 0.025387 1.07959e-19)
(-0.0350157 0.0253561 -1.68292e-19)
(-0.0378177 0.0251982 8.53247e-20)
(-0.0403798 0.0249816 -2.84188e-20)
(-0.0427164 0.0247661 6.59645e-20)
(-0.0448486 0.0246038 -1.66267e-19)
(-0.0468028 0.0245393 8.0724e-20)
(-0.048609 0.0246102 6.01333e-21)
(-0.0503007 0.0248472 3.59692e-20)
(-0.0519124 0.0252739 2.17596e-19)
(-0.0534801 0.0259072 4.82435e-20)
(-0.0550437 0.0267565 -4.43333e-21)
(-0.0566443 0.027824 1.38168e-20)
(-0.0582814 0.0291123 9.12093e-20)
(-0.0598886 0.0306303 2.60027e-20)
(-0.0617508 0.0323252 9.04531e-20)
(-0.00111662 0.0041933 -7.52877e-20)
(-0.00373832 0.0110114 1.1094e-19)
(-0.00717838 0.0163578 6.99605e-21)
(-0.0109897 0.0204645 -1.37219e-19)
(-0.0149382 0.0235229 2.90172e-19)
(-0.0188852 0.0257026 -9.43313e-20)
(-0.0227232 0.0271606 1.38362e-19)
(-0.0263757 0.0280386 1.27182e-19)
(-0.0297929 0.0284637 -1.05694e-19)
(-0.0329452 0.0285493 -1.54421e-19)
(-0.0358186 0.028396 4.2422e-20)
(-0.0384118 0.0280935 -4.48776e-20)
(-0.0407331 0.0277212 -1.99124e-19)
(-0.0427989 0.0273491 2.42559e-19)
(-0.0446319 0.027039 -1.16631e-19)
(-0.0462602 0.0268442 -8.06197e-20)
(-0.047716 0.0268106 7.25174e-22)
(-0.0490349 0.0269761 6.61159e-20)
(-0.050255 0.0273709 2.73182e-20)
(-0.0514157 0.0280173 -1.07228e-19)
(-0.0525613 0.0289288 1.22553e-19)
(-0.0537383 0.0301102 -2.13323e-19)
(-0.0549511 0.0315663 1.30444e-19)
(-0.0561333 0.0333102 -1.00022e-19)
(-0.0575795 0.0352784 2.78414e-20)
(-0.00138816 0.00474131 1.09498e-19)
(-0.00444147 0.0124198 -8.74101e-20)
(-0.0082043 0.0184088 -5.60016e-20)
(-0.0122419 0.0229778 -9.95021e-20)
(-0.0163313 0.0263488 -1.8302e-19)
(-0.0203437 0.0287173 -1.35984e-19)
(-0.0241809 0.0302627 8.51688e-20)
(-0.0277747 0.0311468 -1.2961e-19)
(-0.0310817 0.0315135 1.65236e-19)
(-0.0340777 0.0314911 -2.7002e-19)
(-0.0367531 0.0311934 1.20389e-19)
(-0.0391096 0.0307218 2.5515e-19)
(-0.0411579 0.0301665 -3.59653e-19)
(-0.0429164 0.0296078 5.1504e-20)
(-0.0444093 0.029117 6.71824e-20)
(-0.0456664 0.0287568 6.51349e-20)
(-0.0467221 0.028582 -7.01959e-20)
(-0.0476146 0.028639 -1.73196e-20)
(-0.0483852 0.0289659 -5.17155e-20)
(-0.0490778 0.0295924 -4.32359e-20)
(-0.0497419 0.0305375 -2.37555e-19)
(-0.0504305 0.0318103 -1.60475e-20)
(-0.0511541 0.0334196 2.59004e-21)
(-0.0518481 0.0353842 -1.07917e-19)
(-0.0528198 0.0376299 1.17566e-19)
(-0.00169504 0.00527318 3.15225e-21)
(-0.00523466 0.01378 3.57467e-20)
(-0.00936043 0.0203812 3.74768e-20)
(-0.0136514 0.0253849 2.19088e-20)
(-0.0178973 0.0290436 1.86238e-19)
(-0.0219811 0.0315783 1.75871e-19)
(-0.0258155 0.0331906 -1.43708e-19)
(-0.0293414 0.034061 -4.39252e-20)
(-0.0325234 0.0343497 -3.91915e-20)
(-0.0353435 0.0341987 2.03057e-19)
(-0.0377967 0.033734 7.31414e-20)
(-0.0398884 0.033068 -1.06916e-19)
(-0.0416319 0.032301 -9.0752e-20)
(-0.0430473 0.0315232 2.1936e-19)
(-0.0441604 0.0308154 -5.42477e-20)
(-0.0450025 0.0302501 -6.59175e-20)
(-0.0456099 0.0298917 -9.22109e-20)
(-0.0460235 0.0297965 -7.19277e-20)
(-0.0462878 0.0300124 -9.19839e-20)
(-0.0464516 0.030578 -6.02602e-20)
(-0.0465706 0.0315205 2.50891e-19)
(-0.0467057 0.0328556 -1.23745e-19)
(-0.046875 0.0345984 8.34567e-20)
(-0.0470171 0.0367758 -2.22232e-19)
(-0.047457 0.0393033 9.49242e-20)
(-0.00203659 0.00578807 -9.82955e-20)
(-0.00611474 0.0150885 -2.6564e-20)
(-0.0106402 0.0222692 -2.09059e-19)
(-0.0152077 0.0276777 -1.00809e-19)
(-0.0196217 0.0315977 -2.00219e-19)
(-0.0237787 0.0342753 -2.09897e-20)
(-0.027604 0.0359337 1.08462e-19)
(-0.0310493 0.0367713 -6.63681e-20)
(-0.0340883 0.0369631 1.43687e-19)
(-0.03671 0.036664 -3.50557e-19)
(-0.038915 0.0360109 -1.01736e-20)
(-0.0407124 0.035126 6.25878e-20)
(-0.0421183 0.0341189 -7.96634e-20)
(-0.0431546 0.0330888 7.26854e-20)
(-0.0438485 0.032126 -5.57324e-20)
(-0.0442326 0.0313127 -1.19709e-19)
(-0.0443444 0.0307237 2.18898e-19)
(-0.0442271 0.0304264 1.36048e-19)
(-0.0439289 0.0304803 -2.82733e-20)
(-0.0435033 0.0309354 9.01168e-20)
(-0.0430131 0.0318303 -1.78176e-19)
(-0.0425285 0.0331901 2.57208e-19)
(-0.0420769 0.0350396 -3.519e-19)
(-0.0416028 0.0374179 7.25888e-20)
(-0.0414546 0.0402306 -1.45437e-19)
(-0.002412 0.00628487 5.32855e-21)
(-0.0070777 0.0163414 -9.07307e-20)
(-0.0120351 0.0240661 1.35391e-19)
(-0.0168972 0.0298478 2.79405e-19)
(-0.0214853 0.0340016 -4.61174e-21)
(-0.0257117 0.0367988 3.20087e-20)
(-0.0295161 0.0384832 -1.21548e-19)
(-0.0328628 0.0392702 5.72168e-20)
(-0.0357356 0.0393488 3.95927e-19)
(-0.0381317 0.0388849 -9.02249e-20)
(-0.040058 0.0380251 -1.06916e-19)
(-0.041528 0.0368999 4.05573e-19)
(-0.0425609 0.0356269 1.32826e-19)
(-0.0431802 0.0343134 6.3414e-20)
(-0.0434143 0.0330581 6.50867e-20)
(-0.0432963 0.0319529 1.77882e-19)
(-0.0428649 0.0310833 -6.85244e-20)
(-0.0421649 0.0305289 1.81524e-19)
(-0.0412476 0.0303625 2.46169e-19)
(-0.0401713 0.0306488 -2.10409e-19)
(-0.0390066 0.0314408 3.13186e-19)
(-0.0378341 0.0327775 1.11871e-19)
(-0.0366928 0.0346983 -4.25409e-19)
(-0.0355361 0.037259 6.1616e-19)
(-0.0347437 0.0403578 -5.27544e-19)
(-0.00282016 0.00676205 -2.50137e-19)
(-0.00811847 0.0175338 1.41546e-19)
(-0.0135345 0.0257645 -9.56441e-20)
(-0.0187026 0.0318858 -9.14601e-20)
(-0.0234637 0.0362452 -9.92772e-20)
(-0.0277482 0.0391389 -1.08319e-19)
(-0.0315124 0.0408309 2.9905e-20)
(-0.0347346 0.0415526 2.85267e-19)
(-0.0374103 0.0415053 -6.14201e-20)
(-0.0395465 0.0408646 -1.60523e-19)
(-0.0411568 0.0397851 -9.83808e-20)
(-0.0422601 0.038404 -4.04041e-20)
(-0.0428788 0.0368452 1.19811e-19)
(-0.0430384 0.0352223 -7.68135e-20)
(-0.042768 0.0336413 -2.51342e-19)
(-0.0421011 0.0322028 -2.78033e-19)
(-0.0410766 0.0310029 1.11137e-19)
(-0.0397401 0.0301338 -2.07332e-19)
(-0.0381453 0.0296836 1.80353e-19)
(-0.0363552 0.0297343 -5.10525e-19)
(-0.034448 0.0303576 3.92944e-19)
(-0.0325164 0.0316115 -5.2055e-19)
(-0.030613 0.0335565 -9.70769e-21)
(-0.0287036 0.0362728 -1.75752e-19)
(-0.0272096 0.0396541 5.4534e-19)
(-0.00325956 0.0072175 3.83769e-19)
(-0.00923048 0.0186595 5.83742e-20)
(-0.0151249 0.0273552 -3.86226e-20)
(-0.0206023 0.033781 -1.64155e-20)
(-0.0255265 0.0383173 3.07115e-19)
(-0.0298484 0.0412854 1.00426e-19)
(-0.0335428 0.0429689 9.15199e-20)
(-0.0366043 0.0436141 -7.39573e-20)
(-0.0390418 0.0434334 2.8645e-19)
(-0.0408728 0.0426106 -1.41448e-19)
(-0.0421194 0.0413064 9.16583e-20)
(-0.0428064 0.0396627 2.33851e-19)
(-0.0429602 0.0378076 -1.33077e-19)
(-0.0426085 0.0358589 1.44506e-19)
(-0.0417812 0.033928 1.36864e-19)
(-0.0405117 0.0321223 4.69794e-20)
(-0.0388385 0.0305475 -1.15981e-19)
(-0.0368071 0.0293083 3.21572e-19)
(-0.0344725 0.028509 -2.99952e-20)
(-0.0319015 0.0282514 -3.45895e-20)
(-0.0291799 0.0286305 3.87382e-19)
(-0.0264131 0.0297295 -2.76009e-19)
(-0.0236696 0.0316381 4.6573e-19)
(-0.0209318 0.0344713 -3.86738e-19)
(-0.0186762 0.0381241 5.25455e-19)
(-0.00372814 0.00764841 -1.85327e-19)
(-0.0104054 0.019711 4.26175e-20)
(-0.0167895 0.0288272 -4.47412e-20)
(-0.02257 0.0355204 -2.13268e-19)
(-0.0276363 0.0402045 1.24554e-20)
(-0.0319631 0.0432261 1.22805e-19)
(-0.0355458 0.0448879 -5.02206e-19)
(-0.038397 0.0454502 3.76665e-19)
(-0.0405408 0.0451352 -3.68351e-19)
(-0.0420069 0.0441334 -2.3328e-19)
(-0.0428271 0.0426098 2.09981e-19)
(-0.0430332 0.0407089 -4.55978e-19)
(-0.0426565 0.0385605 3.8534e-19)
(-0.0417276 0.0362843 -1.22953e-19)
(-0.0402777 0.0339941 -3.52067e-19)
(-0.0383399 0.0318017 8.721e-20)
(-0.0359517 0.02982 -8.211e-20)
(-0.0331579 0.0281646 3.09852e-20)
(-0.0300134 0.0269557 -1.11154e-19)
(-0.0265874 0.0263167 -3.69356e-19)
(-0.0229727 0.0263696 8.29317e-20)
(-0.0192877 0.0272298 -1.57058e-22)
(-0.0156185 0.0290267 -3.82646e-19)
(-0.0119684 0.0319237 2.69287e-19)
(-0.00888565 0.0358267 -2.45769e-19)
(-0.00422309 0.00805123 7.50053e-20)
(-0.0116329 0.0206789 1.43341e-19)
(-0.0185081 0.0301676 2.02016e-19)
(-0.0245738 0.0370888 1.04575e-19)
(-0.0297488 0.041891 -1.03185e-19)
(-0.0340337 0.0449463 2.47546e-19)
(-0.0374472 0.0465762 1.84125e-19)
(-0.0400219 0.0470542 -6.73945e-20)
(-0.0417986 0.0466114 2.41602e-19)
(-0.0428208 0.0454437 -2.49583e-19)
(-0.0431315 0.0437185 -7.34839e-20)
(-0.0427709 0.041581 7.48529e-20)
(-0.0417766 0.0391603 1.48729e-19)
(-0.0401832 0.0365749 1.79917e-21)
(-0.0380241 0.0339381 9.46631e-20)
(-0.0353327 0.0313621 1.75228e-19)
(-0.0321458 0.0289634 -2.99114e-19)
(-0.0285064 0.0268655 3.72687e-19)
(-0.0244684 0.0252019 1.25949e-19)
(-0.0201019 0.0241174 4.44656e-20)
(-0.015505 0.0237634 -4.54803e-19)
(-0.0108089 0.024294 6.45007e-20)
(-0.00611787 0.0258898 1.00183e-19)
(-0.00145986 0.0287812 -2.40519e-20)
(0.00252415 0.0328988 1.20636e-19)
(-0.00474082 0.00842171 5.85761e-21)
(-0.0129001 0.0215523 -3.6922e-19)
(-0.0202567 0.031361 -9.28523e-21)
(-0.0265765 0.0384682 -9.43879e-20)
(-0.0318119 0.043358 -6.24014e-19)
(-0.0359916 0.0464281 5.41805e-19)
(-0.0391601 0.0480187 -3.87536e-19)
(-0.0413716 0.0484161 -1.96173e-20)
(-0.0426855 0.0478597 -1.84751e-19)
(-0.0431606 0.0465495 3.20751e-19)
(-0.0428524 0.0446544 -3.46566e-19)
(-0.0418114 0.0423185 -1.62825e-19)
(-0.0400831 0.039668 3.42305e-21)
(-0.0377079 0.0368175 -3.5445e-19)
(-0.0347229 0.0338758 4.85039e-19)
(-0.0311634 0.0309518 -5.63403e-19)
(-0.0270662 0.0281601 1.1401e-21)
(-0.0224733 0.0256267 8.67521e-20)
(-0.0174366 0.0234938 -2.17504e-19)
(-0.0120258 0.0219238 2.11401e-19)
(-0.00634221 0.021097 -3.00558e-19)
(-0.00052828 0.0212101 -1.9889e-19)
(0.00529404 0.022507 3.71243e-19)
(0.0110708 0.0253072 -4.0569e-19)
(0.0160434 0.0295865 -8.16806e-21)
(-0.00527683 0.00875501 -3.01023e-19)
(-0.0141919 0.0223192 3.58492e-19)
(-0.022007 0.0323901 -1.11428e-19)
(-0.0285353 0.0396381 2.1588e-19)
(-0.0337656 0.0445832 2.34212e-19)
(-0.0377581 0.0476494 -2.0747e-19)
(-0.0405843 0.0491955 -1.38214e-19)
(-0.0423222 0.0495205 -1.66288e-19)
(-0.043051 0.0488717 1.52942e-19)
(-0.0428462 0.047453 -1.02644e-20)
(-0.0417774 0.045434 2.24693e-19)
(-0.039907 0.0429566 2.22242e-19)
(-0.0372903 0.0401428 -2.66307e-19)
(-0.0339759 0.0371009 5.24563e-19)
(-0.0300071 0.033932 -3.48843e-19)
(-0.0254237 0.030737 -5.99332e-20)
(-0.020265 0.027623 6.82962e-19)
(-0.0145734 0.0247113 -3.1704e-19)
(-0.00840012 0.0221446 2.02396e-19)
(-0.00181329 0.0200949 3.9614e-19)
(0.00508408 0.0187658 -2.57568e-19)
(0.012141 0.0183956 2.72114e-20)
(0.0192209 0.0193 -1.77663e-20)
(0.0262461 0.0219131 -1.06082e-19)
(0.0323139 0.0262828 2.10694e-19)
(-0.00582571 0.00904592 6.87812e-20)
(-0.0154907 0.0229661 -2.27173e-19)
(-0.0237272 0.0332359 1.25053e-19)
(-0.0304014 0.0405756 -1.55471e-21)
(-0.0355426 0.0455415 9.5339e-20)
(-0.0392443 0.0485843 -1.64957e-19)
(-0.0416071 0.0500818 9.48739e-20)
(-0.0427338 0.050346 2.59589e-19)
(-0.0427244 0.0496319 -7.91284e-21)
(-0.0416725 0.0481477 -1.33685e-19)
(-0.0396629 0.0460637 1.34902e-19)
(-0.0367714 0.0435198 -3.16172e-21)
(-0.0330653 0.0406332 -4.302e-19)
(-0.028604 0.037505 1.60034e-19)
(-0.0234402 0.0342265 3.54543e-20)
(-0.0176222 0.0308868 -6.25169e-20)
(-0.0111959 0.0275799 -1.1181e-19)
(-0.00420832 0.024414 4.29703e-19)
(0.00328715 0.0215217 1.04976e-19)
(0.0112222 0.0190722 -2.25502e-19)
(0.0194931 0.0172791 -2.71428e-20)
(0.027943 0.0164122 3.1164e-19)
(0.0364262 0.0168598 -1.45812e-19)
(0.0448518 0.0191945 6.27296e-20)
(0.0521471 0.0235684 4.4627e-20)
(-0.00638123 0.00928912 -1.37729e-19)
(-0.0167762 0.0234793 1.42126e-19)
(-0.0253809 0.0338786 -8.06729e-20)
(-0.0321206 0.0412561 -2.60675e-19)
(-0.0370678 0.0462052 -2.41437e-19)
(-0.0403517 0.0492035 -1.07438e-19)
(-0.0421033 0.0506483 -8.94398e-20)
(-0.0424509 0.0508647 -2.6582e-19)
(-0.0415163 0.0501164 -1.07849e-19)
(-0.0394113 0.0486164 9.87156e-20)
(-0.0362369 0.0465368 -1.41487e-19)
(-0.0320836 0.0440165 -1.499e-19)
(-0.0270325 0.0411692 -1.4109e-19)
(-0.0211564 0.0380892 2.56939e-19)
(-0.0145216 0.0348582 -5.41306e-19)
(-0.00718954 0.0315519 3.09857e-19)
(0.000781211 0.0282473 -5.3133e-19)
(0.00933212 0.0250325 -8.20578e-20)
(0.018401 0.0220182 -2.93094e-19)
(0.027914 0.0193541 -6.85799e-20)
(0.0377642 0.0172431 -8.38446e-20)
(0.0477901 0.0159635 -2.80549e-19)
(0.0578445 0.0159611 -3.07773e-20)
(0.0678448 0.0179611 1.72302e-19)
(0.0765335 0.0222528 -4.71351e-19)
(-0.00693639 0.00947948 1.18136e-19)
(-0.018026 0.0238453 1.60405e-19)
(-0.0269282 0.0342981 5.65859e-19)
(-0.0336327 0.0416548 -9.99973e-20)
(-0.0382585 0.0465456 2.3944e-19)
(-0.040972 0.049476 5.73543e-19)
(-0.0419356 0.0508626 -1.57125e-19)
(-0.0413037 0.0510443 2.1366e-19)
(-0.0392196 0.0502943 1.25168e-19)
(-0.0358136 0.0488318 2.27741e-19)
(-0.0312028 0.0468323 -4.57657e-20)
(-0.0254933 0.0444361 3.10609e-20)
(-0.018781 0.0417556 -8.05143e-20)
(-0.011155 0.0388815 4.37199e-19)
(-0.00269849 0.0358885 5.61274e-20)
(0.00650818 0.0328408 4.07573e-19)
(0.0163862 0.0297986 -1.0446e-19)
(0.0268563 0.0268262 3.74482e-19)
(0.0378361 0.024004 5.26326e-20)
(0.0492354 0.0214452 1.91111e-19)
(0.0609352 0.0193153 -8.26308e-20)
(0.0727648 0.017864 -1.47085e-20)
(0.0845823 0.017555 4.56888e-19)
(0.0963496 0.0192565 2.81473e-19)
(0.106637 0.0234139 -1.23226e-19)
(-0.00748354 0.00961234 -2.8632e-19)
(-0.0192152 0.0240513 -3.01291e-19)
(-0.0283248 0.0344753 -3.17163e-19)
(-0.0348716 0.0417475 1.16985e-19)
(-0.0390241 0.0465351 -2.36361e-19)
(-0.040987 0.049371 -3.54101e-20)
(-0.0409549 0.0506919 -9.38414e-20)
(-0.0391082 0.0508508 -3.90944e-19)
(-0.0356113 0.0501313 -6.12561e-20)
(-0.0306122 0.04876 1.01093e-19)
(-0.0242441 0.0469181 -3.1826e-19)
(-0.0166278 0.0447502 4.4272e-19)
(-0.00787531 0.0423716 -6.02948e-19)
(0.00190721 0.0398737 1.45553e-19)
(0.012616 0.0373299 -3.7117e-19)
(0.0241471 0.0347991 -3.01879e-19)
(0.0363936 0.0323303 -1.72024e-20)
(0.0492439 0.029968 -4.57966e-20)
(0.0625809 0.0277611 3.62521e-20)
(0.0762798 0.0257771 -1.73787e-19)
(0.090191 0.0241191 -1.20516e-19)
(0.104118 0.0229614 1.48399e-19)
(0.117922 0.0227162 -4.11218e-19)
(0.131658 0.0243387 1.33927e-19)
(0.14379 0.0284086 9.96247e-20)
(-0.00801449 0.00968373 -5.08014e-20)
(-0.0203168 0.0240861 -8.75162e-20)
(-0.0295223 0.0343933 3.42394e-19)
(-0.0357649 0.041513 1.28174e-19)
(-0.0392652 0.0461488 1.70641e-19)
(-0.0402677 0.0488614 -2.2919e-19)
(-0.0389994 0.0501072 4.04165e-22)
(-0.0356661 0.0502536 -1.87208e-19)
(-0.0304527 0.0495949 3.47595e-19)
(-0.023524 0.0483668 1.13872e-19)
(-0.0150278 0.0467582 1.28135e-19)
(-0.00509918 0.0449208 -5.11603e-19)
(0.00613458 0.0429769 6.32871e-19)
(0.0185496 0.041025 -1.90702e-19)
(0.0320204 0.0391443 -1.36795e-19)
(0.0464158 0.0373984 4.10669e-19)
(0.0615948 0.0358368 1.8365e-19)
(0.0774034 0.0344975 -4.65985e-19)
(0.0936733 0.0334102 -1.94937e-19)
(0.110222 0.0326029 5.89607e-19)
(0.12684 0.0321084 -4.51461e-19)
(0.143272 0.0319841 2.72012e-19)
(0.159348 0.0324938 1.52391e-19)
(0.175269 0.0345547 -1.96363e-19)
(0.189547 0.0387877 -1.98014e-19)
(-0.00852049 0.00969051 -1.86879e-19)
(-0.0213009 0.0239404 3.0142e-19)
(-0.0304671 0.0340382 1.29292e-19)
(-0.0362325 0.0409343 -1.87957e-19)
(-0.0388727 0.045368 -3.02775e-20)
(-0.038673 0.0479275 -1.99385e-19)
(-0.0358929 0.0490882 -7.98365e-20)
(-0.0307636 0.0492317 9.00002e-20)
(-0.0234892 0.0486633 -2.26168e-20)
(-0.0142502 0.0476282 1.71243e-19)
(-0.00320782 0.0463244 -1.49287e-19)
(0.00948976 0.0449131 4.14575e-19)
(0.0237013 0.043527 -5.15488e-19)
(0.039286 0.0422769 3.22504e-19)
(0.0560975 0.0412562 4.01758e-19)
(0.073977 0.0405438 -5.82267e-19)
(0.0927472 0.0402063 -1.77658e-19)
(0.112206 0.0402971 3.00114e-19)
(0.132121 0.040855 -1.8573e-19)
(0.152228 0.0419019 1.79757e-19)
(0.17222 0.0434293 -4.36698e-19)
(0.191721 0.0453763 7.28512e-20)
(0.210455 0.0477747 2.85949e-19)
(0.228771 0.0513407 -4.61065e-19)
(0.245537 0.0565445 1.30181e-19)
(-0.00899215 0.00963034 -1.72884e-19)
(-0.022135 0.0236072 5.62434e-19)
(-0.0311 0.0334004 1.08739e-19)
(-0.0361859 0.0400007 -2.95732e-19)
(-0.0377259 0.0441827 2.13099e-19)
(-0.0360476 0.0465607 1.08763e-19)
(-0.0314436 0.0476286 1.74596e-19)
(-0.0241699 0.0477812 -1.15171e-20)
(-0.0144494 0.0473341 -1.83371e-20)
(-0.00247741 0.0465417 -3.85386e-20)
(0.0115721 0.0456112 -1.68996e-19)
(0.0275387 0.0447137 -5.68966e-21)
(0.0452682 0.0439942 3.97645e-19)
(0.0646051 0.0435783 -6.54063e-19)
(0.0853844 0.0435785 4.66793e-19)
(0.107424 0.0440986 9.4727e-20)
(0.130516 0.0452378 1.67938e-19)
(0.154413 0.0470914 -8.67963e-20)
(0.178822 0.0497514 7.72022e-19)
(0.203382 0.0533018 -4.7949e-19)
(0.227643 0.0577926 3.84437e-19)
(0.251009 0.0631696 9.08198e-20)
(0.272901 0.0693567 -2.83091e-19)
(0.293614 0.0769367 2.40388e-19)
(0.312744 0.085782 3.87184e-19)
(-0.00941917 0.00950161 -5.02894e-20)
(-0.0227827 0.0230818 -1.98347e-19)
(-0.0313551 0.0324747 -3.41368e-19)
(-0.0355264 0.0387093 -1.95808e-19)
(-0.0356911 0.0425935 -2.75588e-20)
(-0.0322208 0.0447673 -7.82082e-20)
(-0.0254419 0.0457413 -3.64103e-19)
(-0.0156356 0.0459218 6.06181e-20)
(-0.00304417 0.0456334 -4.12697e-19)
(0.0121218 0.0451382 -3.21216e-20)
(0.0296747 0.0446506 -3.98828e-19)
(0.0494414 0.0443503 -1.42524e-19)
(0.0712542 0.044392 8.20521e-20)
(0.0949438 0.0449139 -3.91868e-19)
(0.120331 0.046046 3.56839e-21)
(0.147219 0.047917 -3.39501e-19)
(0.175387 0.0506626 1.31429e-19)
(0.204576 0.0544341 -4.76704e-19)
(0.234476 0.0594102 -8.19584e-20)
(0.264704 0.0658098 -1.15317e-20)
(0.294745 0.0738872 -8.13404e-20)
(0.323847 0.0838977 -8.36879e-20)
(0.351039 0.0962544 -4.20941e-20)
(0.375733 0.112114 -1.6889e-19)
(0.396599 0.129855 -3.74892e-19)
(-0.00979006 0.00930328 9.17063e-20)
(-0.0232033 0.0223623 2.51486e-19)
(-0.0311581 0.0312616 3.04391e-19)
(-0.0341437 0.0370658 -2.4484e-19)
(-0.0326198 0.0406146 4.5687e-19)
(-0.0270043 0.0425717 -2.49428e-19)
(-0.017659 0.0434624 1.36119e-19)
(-0.00489241 0.0437026 2.13123e-19)
(0.0110321 0.0436234 1.94744e-19)
(0.0298854 0.0434916 9.50593e-20)
(0.0514627 0.0435258 1.54223e-19)
(0.075573 0.0439088 8.99903e-20)
(0.102031 0.0447989 6.10043e-19)
(0.130649 0.0463384 -4.44738e-19)
(0.161233 0.0486623 5.09293e-19)
(0.193577 0.0519074 -2.1229e-19)
(0.227462 0.0562226 4.59495e-19)
(0.262657 0.0617835 -2.18737e-20)
(0.298923 0.0688138 -9.5661e-20)
(0.336022 0.0776168 -1.78117e-20)
(0.373724 0.0886155 3.65973e-19)
(0.411862 0.102459 -3.60531e-19)
(0.450664 0.120446 2.5277e-19)
(0.490845 0.144325 2.83207e-19)
(0.529151 0.167748 6.07068e-20)
(-0.0100915 0.00903453 6.34682e-20)
(-0.0233503 0.0214486 -3.5995e-19)
(-0.0304255 0.0297668 -1.31583e-19)
(-0.0319145 0.0350856 1.20853e-19)
(-0.0283475 0.0382742 -3.74704e-19)
(-0.0201918 0.0400178 -7.43413e-20)
(-0.00784794 0.0408541 5.17787e-20)
(0.00834511 0.0412055 2.05407e-19)
(0.0280975 0.0414066 -5.22468e-19)
(0.0511552 0.0417252 3.98546e-20)
(0.0772874 0.0423784 -1.5393e-19)
(0.106275 0.0435458 -4.6923e-19)
(0.137903 0.0453794 3.20785e-19)
(0.171951 0.0480122 1.3737e-20)
(0.208194 0.0515655 -9.63561e-21)
(0.2464 0.0561561 3.26164e-19)
(0.286334 0.0619037 -5.78512e-19)
(0.327768 0.0689399 4.59382e-19)
(0.370497 0.0774182 -8.50763e-20)
(0.414362 0.0875253 2.70242e-19)
(0.459283 0.0994862 -4.45755e-19)
(0.505325 0.113595 2.57251e-19)
(0.552984 0.130419 -4.64118e-19)
(0.603184 0.150435 4.83221e-19)
(0.651067 0.167203 -1.52877e-19)
(-0.0103076 0.00869457 4.27382e-19)
(-0.0231707 0.0203426 -7.23947e-20)
(-0.0290634 0.0280017 5.36364e-19)
(-0.0287025 0.0327943 2.49783e-19)
(-0.0226943 0.0356157 2.00835e-20)
(-0.0115608 0.0371705 1.10261e-19)
(0.00425418 0.0380052 2.67313e-20)
(0.0243743 0.0385458 4.53346e-19)
(0.0484747 0.0391264 1.46589e-19)
(0.0762651 0.0400105 -1.97196e-20)
(0.107474 0.041408 3.97389e-20)
(0.141838 0.0434868 1.53379e-19)
(0.17909 0.0463825 1.28359e-19)
(0.218954 0.0502054 2.7535e-19)
(0.261148 0.0550463 -3.14717e-19)
(0.305381 0.0609811 9.53249e-20)
(0.351362 0.0680744 2.89474e-20)
(0.398812 0.0763824 1.41924e-19)
(0.447482 0.085954 3.86176e-19)
(0.497172 0.0968278 -2.52193e-19)
(0.547754 0.109018 2.19545e-20)
(0.599196 0.122506 -3.61253e-19)
(0.651696 0.137352 3.43931e-19)
(0.705702 0.15375 -3.36272e-19)
(0.756297 0.167539 3.14971e-20)
(-0.0104198 0.00828272 -3.56593e-19)
(-0.0226041 0.0190489 2.82881e-19)
(-0.0269673 0.0259835 -4.63609e-19)
(-0.0243578 0.0302274 4.02624e-20)
(-0.0154661 0.0326978 3.30093e-19)
(-0.000875111 0.0341148 -5.52813e-19)
(0.0189197 0.0350305 4.40551e-19)
(0.0434948 0.03587 -7.02073e-19)
(0.072477 0.0369621 1.40526e-19)
(0.105523 0.0385604 3.01124e-20)
(0.142299 0.0408598 2.38508e-19)
(0.182473 0.0440079 -7.95455e-19)
(0.2257 0.048113 1.37828e-19)
(0.271618 0.0532507 1.46393e-19)
(0.319853 0.0594681 -8.80496e-20)
(0.370022 0.0667866 -5.47695e-19)
(0.421739 0.0752043 2.58562e-19)
(0.47463 0.0846958 4.85656e-19)
(0.52835 0.0952102 -5.1439e-19)
(0.582594 0.106665 3.74474e-19)
(0.637114 0.118934 -4.88263e-19)
(0.691715 0.131829 3.5608e-19)
(0.7463 0.145186 -1.00271e-19)
(0.800942 0.159192 5.74888e-19)
(0.851453 0.171632 -6.70969e-19)
(-0.0104061 0.00779843 5.11062e-20)
(-0.0215824 0.0175739 4.17913e-20)
(-0.0240218 0.0237354 1.03146e-19)
(-0.0187189 0.0274309 3.70069e-19)
(-0.00645784 0.0295936 -1.16101e-20)
(0.0121085 0.0309549 8.36497e-20)
(0.0364215 0.0320678 3.73833e-19)
(0.0659952 0.0333513 1.51492e-19)
(0.100389 0.0351223 -5.00762e-20)
(0.139183 0.0376174 4.28236e-19)
(0.181956 0.0410075 -4.89294e-19)
(0.228276 0.0454095 7.53351e-19)
(0.277685 0.0508935 -2.99865e-19)
(0.329707 0.0574886 5.45923e-19)
(0.383843 0.0651871 -1.84887e-19)
(0.439586 0.0739476 6.76374e-20)
(0.496428 0.0836974 8.22023e-20)
(0.553879 0.0943329 -1.59624e-19)
(0.611478 0.105719 1.33879e-19)
(0.668808 0.117688 8.63966e-20)
(0.725503 0.13003 1.19963e-19)
(0.781242 0.142483 2.56549e-19)
(0.835755 0.154795 -2.09869e-20)
(0.888927 0.167138 -1.18114e-19)
(0.937637 0.178798 3.66961e-19)
(-0.0102409 0.00724154 -2.98805e-19)
(-0.0200294 0.0159276 3.27779e-20)
(-0.020102 0.0212872 -5.93255e-19)
(-0.0116153 0.0244614 -1.426e-19)
(0.00454153 0.0263909 -2.68342e-19)
(0.0276325 0.0278132 -5.7905e-20)
(0.0570201 0.0292756 -2.90271e-19)
(0.092135 0.031184 -1.74149e-19)
(0.132444 0.0338357 2.31611e-19)
(0.17742 0.03744 -3.88111e-19)
(0.226522 0.0421335 -1.08196e-19)
(0.279182 0.04799 4.2239e-21)
(0.3348 0.0550289 -7.36075e-19)
(0.392749 0.0632212 3.13946e-19)
(0.452384 0.072495 -4.59848e-19)
(0.513053 0.08274 -1.44272e-20)
(0.574119 0.0938126 9.15162e-20)
(0.634975 0.105539 -1.48669e-19)
(0.695057 0.117719 -1.3081e-19)
(0.753864 0.130127 6.60273e-20)
(0.810959 0.142513 7.44138e-20)
(0.865965 0.1546 -4.82672e-19)
(0.918558 0.166117 2.76133e-19)
(0.968566 0.177202 1.41538e-19)
(1.01394 0.18821 4.12749e-20)
(-0.00989517 0.0066127 3.05915e-19)
(-0.017862 0.0141235 -3.38774e-19)
(-0.0150754 0.0186764 4.78185e-19)
(-0.00287092 0.0213862 7.46846e-20)
(0.0177425 0.0231914 -2.30712e-20)
(0.045929 0.0248277 -1.63506e-19)
(0.0809496 0.0268286 2.472e-20)
(0.122125 0.0295775 2.50752e-19)
(0.168797 0.033341 -3.47365e-19)
(0.220296 0.0382891 3.66147e-19)
(0.275922 0.0445099 -3.87722e-20)
(0.334937 0.0520204 1.71721e-20)
(0.396567 0.0607756 4.81305e-19)
(0.460012 0.0706767 6.47185e-19)
(0.524464 0.0815793 -2.5397e-19)
(0.58913 0.0933012 4.53212e-19)
(0.653251 0.105631 2.31599e-19)
(0.71613 0.118336 -1.41694e-19)
(0.777144 0.131167 4.52408e-19)
(0.835759 0.143867 -1.63714e-20)
(0.891535 0.156179 -4.39167e-19)
(0.944122 0.167841 4.66591e-19)
(0.993242 0.178606 6.88173e-20)
(1.03877 0.188581 -2.93345e-19)
(1.07957 0.198814 9.29047e-20)
(-0.00933629 0.00591404 -4.26013e-19)
(-0.0149907 0.0121804 4.61916e-19)
(-0.00880409 0.0159487 -2.95186e-19)
(0.00769084 0.0182845 -9.28246e-20)
(0.0333474 0.0201108 -2.08546e-19)
(0.0672072 0.0221514 3.70679e-19)
(0.108402 0.0249149 -2.16229e-19)
(0.156108 0.0287497 -9.94781e-20)
(0.209502 0.0338776 -2.86007e-19)
(0.267732 0.0404136 7.44821e-21)
(0.329902 0.048381 -1.12716e-19)
(0.395072 0.0577238 5.50757e-20)
(0.462267 0.0683186 -5.817e-19)
(0.530504 0.0799862 1.66269e-19)
(0.598819 0.0925041 -2.01548e-19)
(0.666294 0.105619 -1.63291e-19)
(0.732089 0.119059 5.05653e-20)
(0.795465 0.132546 -2.40461e-19)
(0.855799 0.145803 -1.04527e-19)
(0.912595 0.158568 3.00256e-19)
(0.965489 0.170596 1.28847e-19)
(1.01423 0.181668 -5.47994e-19)
(1.05867 0.191585 4.05838e-19)
(1.09881 0.200446 -7.71901e-20)
(1.13422 0.209674 -1.62545e-19)
(-0.00852885 0.00514982 -1.55558e-19)
(-0.0113217 0.0101235 -8.63459e-20)
(-0.00114861 0.0131604 -1.74433e-20)
(0.0202413 0.0152485 1.27695e-19)
(0.0515412 0.0172787 1.39762e-19)
(0.091642 0.01995 1.22373e-19)
(0.13951 0.0237316 1.52821e-19)
(0.194136 0.0289206 2.34328e-19)
(0.25449 0.0356758 3.59518e-19)
(0.319494 0.0440384 3.57031e-19)
(0.388019 0.0539479 1.89147e-19)
(0.458896 0.0652588 -5.09398e-20)
(0.530946 0.0777559 1.28521e-20)
(0.603009 0.0911724 -1.76469e-20)
(0.67399 0.105207 1.51829e-19)
(0.742892 0.119541 -4.11081e-20)
(0.80885 0.133856 4.54909e-19)
(0.871151 0.147846 -2.03857e-19)
(0.929249 0.161232 3.56076e-21)