/*--------------------------------*- C++ -*----------------------------------*\
  =========                 |
  \\      /  F ield         | OpenFOAM: The Open Source CFD Toolbox
   \\    /   O peration     | Website:  https://openfoam.org
    \\  /    A nd           | Version:  6.0
     \\/     M anipulation  |
\*---------------------------------------------------------------------------*/
FoamFile
{
    version     2.0;
    format      ascii;
    class       volScalarField;
    location    "82";
    object      p;
}
// * * * * * * * * * * * * * * * * * * * * * * * * * * * * * * * * * * * * * //

dimensions      [0 2 -2 0 0 0 0];

internalField   nonuniform List<scalar> 
4000
(
-0.788906
-0.772715
-0.755257
-0.732448
-0.703642
-0.67073
-0.635915
-0.601029
-0.567344
-0.535583
-0.506054
-0.478799
-0.453715
-0.430634
-0.409365
-0.389723
-0.371539
-0.354618
-0.338715
-0.324178
-0.791671
-0.775128
-0.756366
-0.731304
-0.699818
-0.664326
-0.627351
-0.590827
-0.55599
-0.523469
-0.49347
-0.465954
-0.440754
-0.41766
-0.39645
-0.376921
-0.358891
-0.34214
-0.326412
-0.31216
-0.791556
-0.774741
-0.754628
-0.727275
-0.693173
-0.655275
-0.616377
-0.578469
-0.542716
-0.509639
-0.479343
-0.451707
-0.426511
-0.403504
-0.382441
-0.363103
-0.345294
-0.328773
-0.313278
-0.299369
-0.788228
-0.771221
-0.749735
-0.720102
-0.683514
-0.643438
-0.602892
-0.563873
-0.52745
-0.494027
-0.463608
-0.435999
-0.410929
-0.388116
-0.367294
-0.348229
-0.330714
-0.314488
-0.299288
-0.285786
-0.781387
-0.764267
-0.741413
-0.70957
-0.670683
-0.628703
-0.586811
-0.546968
-0.510128
-0.476571
-0.446207
-0.418774
-0.393959
-0.371451
-0.350967
-0.332264
-0.315123
-0.299263
-0.284426
-0.271397
-0.770774
-0.753623
-0.729439
-0.695508
-0.654567
-0.610997
-0.568084
-0.527715
-0.490712
-0.457236
-0.427105
-0.400001
-0.375571
-0.353484
-0.333442
-0.315193
-0.298509
-0.28309
-0.268689
-0.256203
-0.756177
-0.739079
-0.713638
-0.677798
-0.635095
-0.590279
-0.546683
-0.506089
-0.469179
-0.435996
-0.406279
-0.379656
-0.355746
-0.334198
-0.314704
-0.297007
-0.280868
-0.265969
-0.252082
-0.240209
-0.737439
-0.720483
-0.693894
-0.656372
-0.612238
-0.566541
-0.522608
-0.482089
-0.445523
-0.412845
-0.383719
-0.357732
-0.334477
-0.313591
-0.294755
-0.277709
-0.262206
-0.247912
-0.234621
-0.223432
-0.714461
-0.697741
-0.670146
-0.631213
-0.586008
-0.53981
-0.495886
-0.455736
-0.419761
-0.387792
-0.359433
-0.334235
-0.311772
-0.291669
-0.273604
-0.257312
-0.24254
-0.22894
-0.216331
-0.205896
-0.687205
-0.670818
-0.642394
-0.602356
-0.556463
-0.510144
-0.466568
-0.427074
-0.391926
-0.360866
-0.333445
-0.309185
-0.287649
-0.268452
-0.251271
-0.23584
-0.221898
-0.209086
-0.197249
-0.187644
-0.655694
-0.639743
-0.610696
-0.569885
-0.523695
-0.477635
-0.434734
-0.396168
-0.362073
-0.332111
-0.305791
-0.282615
-0.262135
-0.243966
-0.227783
-0.213321
-0.200311
-0.188389
-0.177425
-0.168731
-0.620017
-0.604609
-0.575164
-0.533933
-0.487841
-0.442405
-0.400491
-0.363109
-0.330277
-0.301589
-0.276523
-0.254567
-0.235271
-0.218247
-0.203174
-0.189787
-0.177815
-0.166889
-0.156908
-0.149218
-0.580319
-0.565565
-0.535968
-0.494677
-0.449069
-0.404608
-0.363972
-0.328009
-0.296632
-0.26938
-0.245707
-0.225098
-0.2071
-0.191331
-0.177475
-0.165268
-0.154439
-0.144622
-0.135743
-0.129137
-0.536806
-0.522819
-0.493326
-0.452337
-0.407587
-0.364427
-0.325337
-0.291006
-0.261255
-0.235581
-0.213425
-0.19427
-0.177673
-0.163258
-0.150716
-0.139789
-0.130208
-0.12162
-0.113959
-0.108481
-0.489741
-0.476632
-0.447506
-0.407173
-0.363634
-0.322078
-0.284773
-0.252261
-0.224284
-0.200309
-0.179771
-0.16216
-0.147045
-0.134065
-0.12292
-0.113364
-0.105136
-0.0978976
-0.0915625
-0.0872434
-0.439435
-0.427314
-0.398815
-0.359481
-0.317482
-0.277801
-0.242493
-0.211962
-0.185885
-0.163705
-0.144862
-0.128859
-0.115283
-0.103791
-0.0941047
-0.085991
-0.0792062
-0.0734328
-0.0685609
-0.0655679
-0.386243
-0.375216
-0.3476
-0.309588
-0.26943
-0.231867
-0.198738
-0.170324
-0.146244
-0.125932
-0.108834
-0.0944764
-0.0824671
-0.0724928
-0.0643028
-0.0576824
-0.0524085
-0.0482309
-0.0451118
-0.043938
-0.330562
-0.320728
-0.294239
-0.25785
-0.219803
-0.18457
-0.153776
-0.127588
-0.105579
-0.0871773
-0.0718444
-0.0591287
-0.0486713
-0.0401992
-0.0335018
-0.0283887
-0.0246876
-0.0223558
-0.0216086
-0.0229052
-0.272819
-0.264268
-0.239136
-0.204644
-0.16895
-0.136229
-0.107901
-0.084026
-0.0641399
-0.0476669
-0.0340811
-0.0229518
-0.0139504
-0.00684638
-0.00147244
0.00232563
0.00458097
0.0048727
0.00260434
-0.00120917
-0.213467
-0.206279
-0.182715
-0.150367
-0.117234
-0.0871834
-0.0614313
-0.0399434
-0.0222223
-0.0076885
0.00417859
0.0138033
0.0215076
0.0275188
0.0320186
0.0351798
0.0368792
0.0361177
0.0320764
0.0278853
-0.152976
-0.147221
-0.125413
-0.095424
-0.0650321
-0.0377827
-0.0146998
0.00433558
0.0198466
0.0324141
0.0425546
0.0506934
0.0571668
0.0622453
0.0662068
0.0693661
0.0716659
0.0719294
0.0698625
0.0750326
-0.0918195
-0.0875559
-0.0676714
-0.0402252
-0.0127219
0.0116203
0.0319588
0.048486
0.0617423
0.0723031
0.080673
0.0872671
0.0924188
0.0964104
0.099537
0.102092
0.104036
0.104798
0.105415
0.113019
-0.0304831
-0.0277558
-0.00993306
0.0148207
0.0393211
0.0606775
0.078217
0.0921942
0.10316
0.111678
0.118239
0.123244
0.12702
0.129845
0.131997
0.133719
0.134967
0.13538
0.136009
0.142321
0.0305529
0.0317137
0.0473644
0.0693125
0.0907303
0.109051
0.12376
0.135161
0.14381
0.150253
0.15496
0.158314
0.160623
0.162152
0.163157
0.163851
0.164212
0.163962
0.163955
0.168531
0.0908156
0.0903945
0.103793
0.12286
0.141152
0.156418
0.168289
0.177113
0.183438
0.187793
0.190622
0.192286
0.19307
0.193218
0.192954
0.19246
0.191702
0.190436
0.189447
0.192432
0.149844
0.147841
0.15894
0.175088
0.190246
0.202472
0.211526
0.217792
0.221809
0.224083
0.225032
0.22499
0.224223
0.222947
0.221363
0.219622
0.217673
0.215301
0.21325
0.214715
0.207194
0.203625
0.212407
0.225637
0.23769
0.24692
0.253208
0.256963
0.258711
0.258935
0.258025
0.25629
0.253971
0.251264
0.248343
0.245334
0.242175
0.238682
0.235569
0.235605
0.262438
0.257336
0.263816
0.274166
0.283179
0.28949
0.293089
0.294404
0.293948
0.292176
0.289453
0.286063
0.282223
0.27811
0.273875
0.269619
0.265278
0.2607
0.256557
0.25524
0.315173
0.308585
0.312809
0.320353
0.326425
0.329925
0.330939
0.32991
0.327335
0.323644
0.319176
0.31419
0.308884
0.303413
0.297909
0.292454
0.286985
0.281377
0.276252
0.273659
0.365019
0.357007
0.35905
0.363898
0.367159
0.367983
0.366542
0.363288
0.358702
0.353189
0.347063
0.340561
0.33386
0.327099
0.32039
0.313803
0.307273
0.300701
0.29465
0.290855
0.41162
0.402263
0.402229
0.40452
0.405132
0.403442
0.399697
0.394358
0.387888
0.380667
0.372986
0.365063
0.357056
0.349087
0.341253
0.333609
0.326096
0.318635
0.311719
0.3068
0.454649
0.444038
0.442057
0.441961
0.440113
0.436094
0.430218
0.422953
0.414741
0.405943
0.396827
0.387592
0.378379
0.369296
0.360425
0.35181
0.343399
0.335125
0.327411
0.321452
0.493808
0.482049
0.478273
0.475989
0.471892
0.46575
0.457936
0.448918
0.439124
0.428892
0.418472
0.408044
0.397736
0.387642
0.377831
0.368338
0.359117
0.350113
0.341672
0.334761
0.528829
0.516038
0.510644
0.506391
0.500279
0.492241
0.482697
0.472115
0.460909
0.449398
0.437815
0.426325
0.415042
0.404047
0.3934
0.383126
0.373188
0.363537
0.354445
0.34668
0.559478
0.545783
0.538964
0.532984
0.52511
0.515415
0.504363
0.492419
0.479983
0.467359
0.454763
0.442347
0.430215
0.418438
0.407063
0.396111
0.385551
0.37534
0.365679
0.357162
0.585549
0.571088
0.563055
0.555607
0.54624
0.535144
0.522816
0.509721
0.496247
0.482682
0.469231
0.456034
0.443186
0.430747
0.418758
0.407235
0.396152
0.385468
0.375324
0.366166
0.606876
0.591794
0.582771
0.574129
0.563549
0.551319
0.537959
0.523933
0.509618
0.495293
0.48115
0.467321
0.453893
0.440919
0.428434
0.416449
0.404942
0.393877
0.383339
0.373655
0.623325
0.607772
0.597995
0.588444
0.576944
0.563853
0.549711
0.534981
0.52003
0.505129
0.490462
0.476155
0.462287
0.448908
0.436046
0.42371
0.411883
0.400529
0.38969
0.379601
0.634797
0.618931
0.608643
0.598475
0.586355
0.572684
0.558017
0.542812
0.527434
0.512145
0.497126
0.482496
0.468332
0.454679
0.441563
0.42899
0.416946
0.405396
0.394352
0.383982
0.641232
0.625212
0.61466
0.604176
0.591738
0.577773
0.562838
0.547393
0.531798
0.516312
0.501114
0.48632
0.472004
0.458211
0.444963
0.432267
0.420111
0.40846
0.397309
0.386785
0.642605
0.626592
0.616027
0.605526
0.593076
0.579102
0.564161
0.54871
0.53311
0.51762
0.502416
0.487616
0.473295
0.459495
0.446239
0.433535
0.421371
0.409713
0.398553
0.388005
0.638929
0.623083
0.612753
0.602536
0.590379
0.576681
0.561993
0.546771
0.531377
0.516073
0.501037
0.48639
0.472207
0.458534
0.445394
0.432796
0.420728
0.409159
0.398088
0.387643
0.630253
0.614732
0.604884
0.595246
0.583681
0.570543
0.556364
0.541603
0.526624
0.511695
0.496999
0.482661
0.46876
0.455345
0.442444
0.430065
0.418197
0.406809
0.395925
0.38571
0.616664
0.601622
0.592494
0.583724
0.573046
0.560743
0.547326
0.533252
0.518894
0.504526
0.490339
0.476464
0.462986
0.449959
0.437416
0.425369
0.413802
0.402687
0.392085
0.382223
0.598284
0.58387
0.57569
0.568066
0.558561
0.547361
0.534951
0.521787
0.508249
0.494622
0.481108
0.467846
0.454929
0.442418
0.430351
0.418744
0.407578
0.396827
0.386597
0.377208
0.575271
0.561627
0.554612
0.548399
0.540338
0.5305
0.519333
0.507292
0.494767
0.482057
0.469376
0.456872
0.444648
0.432775
0.421297
0.410237
0.399571
0.389271
0.379501
0.370699
0.547818
0.535076
0.529429
0.524873
0.518515
0.510285
0.500586
0.489871
0.478545
0.466919
0.455221
0.443615
0.432213
0.421095
0.410317
0.399905
0.389833
0.380071
0.370844
0.362735
0.516152
0.504435
0.500338
0.497669
0.493254
0.486861
0.478842
0.469647
0.459693
0.449308
0.438739
0.428161
0.417702
0.407451
0.397477
0.387813
0.378427
0.369283
0.360678
0.353364
0.480531
0.469951
0.467566
0.46699
0.464737
0.460395
0.454253
0.446756
0.438336
0.42934
0.420033
0.410608
0.401204
0.391926
0.382854
0.37403
0.365417
0.356973
0.349062
0.342635
0.441245
0.431901
0.431369
0.433065
0.433172
0.431072
0.426986
0.421352
0.414614
0.407142
0.39922
0.391059
0.382815
0.374607
0.366528
0.358631
0.350875
0.343205
0.336056
0.330603
0.398615
0.390592
0.392028
0.396149
0.398785
0.399097
0.397226
0.393599
0.388676
0.382849
0.376421
0.369626
0.362635
0.355584
0.348581
0.341691
0.334869
0.328047
0.321722
0.317321
0.352988
0.346356
0.349848
0.356514
0.361822
0.36469
0.365171
0.363679
0.360686
0.356606
0.351768
0.346425
0.340768
0.334948
0.329093
0.32328
0.317464
0.311556
0.306113
0.302837
0.304737
0.299553
0.30516
0.314459
0.322547
0.328088
0.331036
0.331782
0.330813
0.328568
0.325397
0.321577
0.317318
0.31279
0.30814
0.303464
0.298715
0.293782
0.28927
0.287189
0.25426
0.250564
0.258315
0.270299
0.281245
0.289546
0.295046
0.298112
0.299242
0.298895
0.297449
0.295202
0.292387
0.289193
0.285788
0.282289
0.278654
0.274747
0.271209
0.270392
0.201976
0.199794
0.209687
0.224371
0.238216
0.249332
0.257443
0.262884
0.266162
0.267757
0.268072
0.267428
0.26608
0.264239
0.262094
0.25979
0.257294
0.254441
0.251905
0.25242
0.148325
0.147666
0.159667
0.177028
0.193775
0.207731
0.218483
0.226329
0.23178
0.235336
0.237422
0.238384
0.238498
0.237997
0.237093
0.23596
0.23458
0.232766
0.231233
0.233161
0.0937618
0.0946203
0.108663
0.128639
0.148257
0.16504
0.178433
0.188688
0.196313
0.201825
0.20567
0.208216
0.209759
0.210552
0.210836
0.210813
0.210479
0.209619
0.209012
0.212417
0.0387532
0.0411089
0.0570989
0.0795896
0.102007
0.121574
0.137581
0.150222
0.159999
0.16744
0.173011
0.177095
0.180004
0.182004
0.183359
0.184294
0.18479
0.18456
0.184558
0.189557
-0.0162241
-0.0124055
0.0054069
0.0302747
0.0553836
0.0776591
0.0962245
0.111208
0.123094
0.132419
0.139659
0.145211
0.149393
0.152474
0.154732
0.156437
0.157573
0.157665
0.157666
0.16386
-0.0706901
-0.0654562
-0.0459734
-0.0189017
0.00875642
0.0336339
0.0546782
0.0719396
0.0858804
0.0970374
0.105896
0.11286
0.118251
0.122326
0.125347
0.127605
0.129061
0.128698
0.126283
0.130333
-0.124165
-0.117576
-0.0965999
-0.0675313
-0.0375004
-0.0101558
0.0132658
0.0327266
0.0486572
0.0615885
0.0720072
0.0803147
0.0868188
0.0917395
0.0952523
0.0975223
0.0984472
0.0971239
0.0928196
0.0886035
-0.176185
-0.16831
-0.146037
-0.115208
-0.0830125
-0.0533624
-0.0276848
-0.00611548
0.011737
0.0263942
0.0383444
0.0479933
0.0556527
0.0615445
0.0658304
0.0686583
0.0700621
0.0696486
0.0668847
0.062886
-0.226294
-0.217211
-0.193858
-0.161533
-0.127411
-0.0956431
-0.0678498
-0.0442734
-0.0245676
-0.00822069
0.00526264
0.0163038
0.0252403
0.03233
0.0377723
0.0417454
0.0444053
0.0457823
0.0457101
0.0438929
-0.274059
-0.263856
-0.239651
-0.206122
-0.17034
-0.136669
-0.106921
-0.0814543
-0.0599742
-0.0419824
-0.0269757
-0.0145144
-0.00423475
0.00415664
0.0108947
0.0161787
0.0202081
0.0232051
0.0252567
0.0256784
-0.319079
-0.30785
-0.283033
-0.248609
-0.211463
-0.17613
-0.144614
-0.117396
-0.0942421
-0.0746744
-0.0581869
-0.0443263
-0.0327092
-0.0230181
-0.0149931
-0.00841802
-0.00307587
0.00131545
0.00491646
0.00698134
-0.36099
-0.348832
-0.323649
-0.288658
-0.250468
-0.213744
-0.180673
-0.151867
-0.127164
-0.106116
-0.0882205
-0.0730168
-0.0601082
-0.0491611
-0.0398992
-0.0320922
-0.02551
-0.019853
-0.0149862
-0.0117749
-0.399474
-0.386488
-0.361183
-0.325964
-0.287072
-0.249255
-0.214868
-0.184662
-0.158559
-0.13615
-0.116945
-0.10048
-0.086352
-0.0742174
-0.0637904
-0.0548332
-0.0471072
-0.0403015
-0.0343056
-0.0301288
-0.434262
-0.42055
-0.395361
-0.360257
-0.321025
-0.282435
-0.246998
-0.215605
-0.188274
-0.164645
-0.144248
-0.126627
-0.111375
-0.0981442
-0.0866437
-0.076633
-0.0678714
-0.0600385
-0.0530194
-0.0479084
-0.465146
-0.450808
-0.42596
-0.39131
-0.35211
-0.313089
-0.276889
-0.244544
-0.216178
-0.191489
-0.170041
-0.151387
-0.135124
-0.120904
-0.108435
-0.0974747
-0.0877856
-0.0790436
-0.0711146
-0.0651104
-0.491974
-0.47711
-0.45281
-0.418942
-0.380148
-0.341052
-0.304397
-0.271356
-0.242164
-0.216595
-0.194249
-0.174698
-0.15755
-0.14246
-0.129135
-0.117335
-0.106826
-0.0972893
-0.0885689
-0.0817538
-0.514662
-0.499369
-0.475799
-0.443018
-0.405001
-0.366195
-0.329406
-0.29594
-0.26615
-0.239891
-0.216812
-0.196513
-0.178615
-0.162778
-0.148716
-0.136188
-0.12497
-0.114748
-0.10535
-0.0978199
-0.533192
-0.517563
-0.494876
-0.463458
-0.426573
-0.388421
-0.35183
-0.318222
-0.288072
-0.261325
-0.237688
-0.216796
-0.198286
-0.181833
-0.167153
-0.154012
-0.14219
-0.13139
-0.121418
-0.113262
-0.547611
-0.531737
-0.510054
-0.480234
-0.444811
-0.40767
-0.371611
-0.338152
-0.307888
-0.280863
-0.256849
-0.235521
-0.216543
-0.199603
-0.184426
-0.170783
-0.158464
-0.147185
-0.136735
-0.128033
-0.558034
-0.542003
-0.521409
-0.493377
-0.459709
-0.423917
-0.388719
-0.355704
-0.325578
-0.298488
-0.274281
-0.252679
-0.233376
-0.216078
-0.200523
-0.186488
-0.173774
-0.16211
-0.151274
-0.142104
-0.564634
-0.548536
-0.52908
-0.502973
-0.471308
-0.437176
-0.403157
-0.370875
-0.341141
-0.314202
-0.289986
-0.268271
-0.248785
-0.231258
-0.215442
-0.201122
-0.18811
-0.176154
-0.16502
-0.155459
-0.567647
-0.551568
-0.533268
-0.509165
-0.479699
-0.447499
-0.414955
-0.38369
-0.354596
-0.328023
-0.303983
-0.282314
-0.262785
-0.245155
-0.229191
-0.214691
-0.201476
-0.189314
-0.177967
-0.168093
-0.567355
-0.551385
-0.534228
-0.512152
-0.485018
-0.454974
-0.424173
-0.39419
-0.36598
-0.339985
-0.316301
-0.294834
-0.275401
-0.257788
-0.241786
-0.227206
-0.213881
-0.201597
-0.190118
-0.180008
-0.564087
-0.548315
-0.532265
-0.512185
-0.48745
-0.459733
-0.430903
-0.402447
-0.375352
-0.350138
-0.326989
-0.305877
-0.286671
-0.269194
-0.253259
-0.238695
-0.225347
-0.213022
-0.201487
-0.191218
-0.558201
-0.542722
-0.527723
-0.509558
-0.487223
-0.461938
-0.43526
-0.408545
-0.382777
-0.358541
-0.336096
-0.315487
-0.296636
-0.279407
-0.263641
-0.249185
-0.235897
-0.223607
-0.212091
-0.201735
-0.550081
-0.534991
-0.520978
-0.504606
-0.484609
-0.461794
-0.437394
-0.412595
-0.388346
-0.365267
-0.343689
-0.323724
-0.305352
-0.288478
-0.272977
-0.258715
-0.245568
-0.233385
-0.221955
-0.211584
0.0133757
-0.0189449
-0.0410828
-0.051279
-0.0607999
-0.0738782
-0.0884703
-0.102436
-0.11548
-0.128069
-0.14046
-0.152602
-0.16437
-0.175697
-0.186568
-0.196982
-0.206937
-0.216428
-0.225456
-0.234026
-0.0327828
-0.0469495
-0.0572595
-0.0640028
-0.0699794
-0.0769474
-0.0846808
-0.0922755
-0.0992995
-0.105849
-0.112127
-0.118212
-0.124076
-0.129681
-0.135014
-0.140086
-0.144912
-0.149502
-0.153865
-0.15801
-0.0327832
-0.0381245
-0.0408038
-0.0440363
-0.0481113
-0.0523756
-0.0565015
-0.0604665
-0.064303
-0.0680314
-0.0716707
-0.0752354
-0.0787285
-0.0821461
-0.0854853
-0.0887476
-0.0919366
-0.0950561
-0.0981089
-0.101098
-0.0278123
-0.0307861
-0.0320167
-0.0341908
-0.0373408
-0.0406101
-0.0435881
-0.0463398
-0.0490146
-0.0516635
-0.0542683
-0.056806
-0.0592703
-0.0616639
-0.0639903
-0.0662509
-0.0684468
-0.0705794
-0.0726507
-0.0746636
-0.0227637
-0.0250024
-0.0257403
-0.0269641
-0.0289046
-0.0310059
-0.0329157
-0.0346368
-0.036284
-0.0379177
-0.0395357
-0.0411201
-0.0426633
-0.0441682
-0.0456401
-0.0470828
-0.0484987
-0.0498896
-0.0512574
-0.0526046
-0.0182883
-0.019989
-0.0204676
-0.0211802
-0.022401
-0.0237926
-0.025094
-0.0262766
-0.0274083
-0.0285353
-0.0296624
-0.0307784
-0.0318759
-0.0329543
-0.0340159
-0.0350622
-0.0360938
-0.0371109
-0.0381136
-0.0391024
-0.0139381
-0.0151557
-0.0154711
-0.0159284
-0.0167421
-0.0176936
-0.0186005
-0.0194331
-0.020231
-0.0210253
-0.0218213
-0.0226128
-0.0233945
-0.0241654
-0.0249264
-0.0256787
-0.0264227
-0.0271586
-0.0278867
-0.0286074
-0.0100498
-0.0108987
-0.0111488
-0.0115086
-0.0121102
-0.0128066
-0.0134782
-0.0141038
-0.0147074
-0.0153088
-0.0159118
-0.0165126
-0.017108
-0.0176969
-0.0182799
-0.0188575
-0.0194298
-0.0199969
-0.0205588
-0.0211157
-0.00678538
-0.00734716
-0.00756185
-0.00788119
-0.00835946
-0.00889187
-0.009405
-0.00988875
-0.0103587
-0.0108266
-0.0112943
-0.0117595
-0.0122203
-0.0126762
-0.0131274
-0.0135742
-0.0140168
-0.0144551
-0.0148894
-0.0153196
-0.00423977
-0.00458908
-0.00477417
-0.00506637
-0.00546206
-0.00588164
-0.0062825
-0.0066636
-0.0070363
-0.00740725
-0.00777695
-0.00814383
-0.00850682
-0.00886578
-0.00922094
-0.00957252
-0.00992066
-0.0102654
-0.010607
-0.0109454
-0.00233924
-0.00253852
-0.00268821
-0.00294335
-0.0032669
-0.00359574
-0.00390594
-0.00420193
-0.00449274
-0.0047822
-0.00506997
-0.00535487
-0.00563637
-0.00591458
-0.00618977
-0.00646218
-0.00673195
-0.00699921
-0.00726414
-0.00752686
-0.000945652
-0.00103998
-0.00114804
-0.00135476
-0.00160839
-0.00185783
-0.00208977
-0.00231109
-0.00252927
-0.00274663
-0.00296249
-0.00317593
-0.00338673
-0.00359513
-0.00380144
-0.00400591
-0.00420869
-0.00440996
-0.00460989
-0.00480863
0.00010754
9.81528e-05
3.95404e-05
-0.00011161
-0.000296973
-0.000473465
-0.000633818
-0.000785967
-0.000936374
-0.00108657
-0.0012358
-0.00138335
-0.00152922
-0.00167374
-0.00181727
-0.00196008
-0.00210237
-0.00224433
-0.00238618
-0.00252805
0.000932708
0.00100879
0.00100781
0.000914025
0.000793238
0.000684936
0.000592435
0.000506587
0.000421217
0.000335147
0.000249137
0.000163677
7.85826e-05
-6.62035e-06
-9.23724e-05
-0.000179002
-0.000266763
-0.000355885
-0.00044658
-0.000538979
0.00160522
0.00179625
0.00187966
0.00185902
0.00181303
0.00178302
0.00176969
0.00176164
0.00175183
0.00173897
0.0017238
0.00170668
0.00168721
0.00166477
0.00163883
0.001609
0.00157504
0.00153673
0.00149392
0.00144657
0.00204298
0.00234311
0.00255555
0.00267096
0.00275401
0.00284285
0.00294038
0.00303699
0.00312582
0.00320509
0.00327525
0.00333671
0.00338935
0.00343279
0.00346677
0.00349119
0.0035061
0.00351164
0.003508
0.00349546
0.00279224
0.0031772
0.00362442
0.00403472
0.00438351
0.00468501
0.00495524
0.00520029
0.00541988
0.00561289
0.00577945
0.00592081
0.00603846
0.00613378
0.006208
0.00626232
0.00629793
0.00631605
0.00631788
0.00630462
0.00580968
0.00646523
0.00715177
0.00773426
0.00820694
0.00860048
0.00893646
0.00922305
0.00946261
0.00965714
0.00980966
0.00992374
0.0100029
0.0100504
0.0100691
0.0100618
0.010031
0.00997906
0.00990826
0.00982068
0.0174855
0.0212663
0.0226816
0.0222155
0.0213322
0.0207066
0.0203243
0.0200005
0.0196389
0.0192364
0.0188183
0.0184004
0.0179858
0.017573
0.0171611
0.0167507
0.0163431
0.0159394
0.0155404
0.0151467
0.0294609
0.0415977
0.0453601
0.042935
0.0393653
0.036842
0.0352562
0.033973
0.0326669
0.0313209
0.030008
0.0287701
0.027609
0.0265119
0.0254692
0.0244765
0.0235319
0.0226335
0.0217788
0.0209655
0.109093
0.109496
0.110308
0.11152
0.113129
0.115146
0.117583
0.120449
0.123746
0.127457
0.131547
0.135925
0.140443
0.144803
0.148509
0.150607
0.149338
0.141176
0.118782
0.0659621
0.0997685
0.100033
0.10051
0.101216
0.102112
0.103213
0.104448
0.105829
0.107225
0.108635
0.109802
0.110687
0.110788
0.109958
0.107187
0.102039
0.0923858
0.0768082
0.0499311
0.00492385
0.0893908
0.0894833
0.0896239
0.089818
0.0900319
0.0902494
0.090398
0.0904334
0.090232
0.0897035
0.0886419
0.0868689
0.084043
0.0798215
0.0736516
0.064904
0.0527764
0.0363079
0.0148143
-0.0127429
0.078578
0.0785195
0.0783815
0.0781593
0.0778308
0.0773608
0.0766912
0.0757487
0.0744403
0.0726453
0.0702291
0.0670001
0.0627792
0.0572885
0.0503497
0.0416501
0.0311685
0.0186128
0.00388787
-0.014709
0.0679355
0.0677768
0.0674519
0.0669535
0.0662683
0.0653602
0.064187
0.0626793
0.0607753
0.0583752
0.0554081
0.0517452
0.0473306
0.0420265
0.0358488
0.0286767
0.0205998
0.011327
0.000580846
-0.0130559
0.0579316
0.0577224
0.0573005
0.0566599
0.0557934
0.0546743
0.0532755
0.0515483
0.0494571
0.0469411
0.0439731
0.0404895
0.0364918
0.0319223
0.0268226
0.021111
0.0148078
0.0076489
-0.000618425
-0.0109751
0.0488502
0.0486269
0.0481777
0.0474984
0.0465861
0.0454253
0.0440019
0.0422878
0.0402669
0.0379079
0.0352054
0.0321302
0.0286944
0.0248657
0.0206677
0.0160384
0.0109846
0.00534722
-0.00100292
-0.00866521
0.0408088
0.0405942
0.0401631
0.0395123
0.0386416
0.0375436
0.0362131
0.0346362
0.0328076
0.0307118
0.0283504
0.0257076
0.0227935
0.0195878
0.01611
0.0123292
0.00827429
0.00387716
-0.000895779
-0.00638531
0.0338048
0.0336109
0.033222
0.0326352
0.031851
0.0308666
0.0296817
0.0282904
0.0266926
0.0248806
0.0228583
0.020617
0.0181677
0.015501
0.0126403
0.00957787
0.00635617
0.00295831
-0.000576939
-0.00435976
0.0277623
0.0275937
0.027256
0.0267462
0.0260646
0.0252103
0.0241856
0.0229887
0.0216229
0.0200852
0.0183822
0.0165108
0.0144841
0.0123002
0.00998389
0.00753709
0.00500571
0.00240102
-0.000188074
-0.00271294
0.02257
0.0224269
0.0221408
0.0217083
0.0211295
0.0204042
0.0195361
0.0185258
0.0173791
0.0160965
0.0146871
0.0131523
0.0115067
0.00975196
0.00791171
0.00599045
0.00403284
0.00206433
0.000198307
-0.00143446
0.0181072
0.0179876
0.0177489
0.0173877
0.0169041
0.0162984
0.0155751
0.0147364
0.0137893
0.0127367
0.0115889
0.01035
0.00903607
0.00765183
0.00622057
0.00474825
0.00327579
0.00183122
0.000530568
-0.000465887
0.0142615
0.0141615
0.0139628
0.0136623
0.0132603
0.0127582
0.0121616
0.0114743
0.010704
0.00985415
0.00893477
0.00794992
0.0069155
0.00583915
0.00474689
0.00365018
0.00258972
0.00159207
0.000763088
0.000265609
0.0109396
0.0108536
0.0106838
0.0104277
0.0100865
0.00966313
0.00916532
0.00859945
0.00797571
0.00729921
0.00657955
0.00581856
0.00502749
0.00421026
0.00339198
0.0025915
0.0018616
0.00124272
0.000838722
0.00079321
0.0080759
0.00799671
0.00784144
0.00760789
0.00729847
0.00691735
0.00647515
0.0059818
0.00545321
0.00490047
0.00433994
0.00377629
0.00321894
0.00265968
0.00210687
0.00156266
0.00108366
0.000739235
0.000686833
0.00110982
0.00563743
0.00555716
0.00540059
0.00516522
0.00485405
0.00447071
0.00402741
0.00353516
0.00301619
0.00248908
0.00198742
0.0015334
0.00116157
0.000871807
0.000666928
0.000496457
0.000358906
0.000272081
0.000463009
0.00125545
0.00362296
0.00353561
0.00336427
0.00310586
0.00276271
0.00233591
0.00183524
0.00126744
0.000653173
1.02265e-05
-0.000617684
-0.00118771
-0.00161631
-0.00183558
-0.00175305
-0.00137435
-0.000746306
-6.39819e-05
0.000678225
0.00187787
0.00205627
0.00196039
0.00176675
0.0014736
0.00108015
0.000586047
-7.94945e-06
-0.000700598
-0.00148798
-0.00236261
-0.00330632
-0.00428289
-0.00521762
-0.00597641
-0.0063358
-0.00599155
-0.00463405
-0.00217158
0.00100066
0.00403997
0.000977251
0.000874126
0.000658755
0.000331934
-0.000111328
-0.000671532
-0.00135927
-0.00217758
-0.00314525
-0.00426827
-0.00557668
-0.00707503
-0.0087919
-0.0106754
-0.0126209
-0.0142128
-0.0146728
-0.0124758
-0.00581817
0.00655075
0.000428088
0.000318166
8.97059e-05
-0.00025825
-0.000730892
-0.00133286
-0.00207686
-0.00297521
-0.00405284
-0.00533586
-0.00687281
-0.00871979
-0.010974
-0.0137495
-0.0172082
-0.0214452
-0.0262744
-0.0303079
-0.0285753
-0.00539961
0.1225
0.122992
0.1241
0.125732
0.128029
0.130897
0.134569
0.13891
0.144288
0.150505
0.158136
0.166887
0.17768
0.190053
0.205581
0.22347
0.246624
0.273527
0.309806
0.352194
0.122277
0.122767
0.12387
0.125495
0.127783
0.130638
0.134295
0.138617
0.143971
0.150159
0.157754
0.166458
0.177194
0.189492
0.204922
0.222681
0.245652
0.272295
0.308203
0.350003
0.122023
0.122511
0.123609
0.125226
0.127503
0.130345
0.133984
0.138283
0.14361
0.149762
0.157313
0.165961
0.176622
0.188823
0.204116
0.221691
0.244382
0.270625
0.305914
0.346713
0.121738
0.122224
0.123316
0.124925
0.12719
0.130016
0.133636
0.13791
0.143205
0.149316
0.156816
0.165396
0.175966
0.188048
0.203163
0.220502
0.242817
0.268521
0.302943
0.342334
0.121422
0.121906
0.122992
0.124592
0.126844
0.129653
0.133251
0.137497
0.142756
0.148822
0.156262
0.164764
0.175227
0.187168
0.202068
0.21912
0.240962
0.265992
0.2993
0.336882
0.121076
0.121558
0.122637
0.124227
0.126465
0.129256
0.13283
0.137045
0.142265
0.148279
0.155652
0.164067
0.174406
0.186184
0.200832
0.217547
0.238823
0.263048
0.294995
0.330377
0.120699
0.121179
0.122252
0.123832
0.126055
0.128826
0.132373
0.136555
0.141732
0.14769
0.154989
0.163305
0.173507
0.1851
0.199461
0.215789
0.236409
0.259701
0.290042
0.322845
0.120294
0.120772
0.121837
0.123406
0.125613
0.128364
0.131883
0.136028
0.141159
0.147055
0.154274
0.162481
0.172531
0.183918
0.19796
0.213852
0.233728
0.255967
0.284457
0.314317
0.119859
0.120335
0.121393
0.122951
0.125141
0.127869
0.131359
0.135465
0.140546
0.146375
0.153507
0.161595
0.171481
0.18264
0.196333
0.211742
0.230791
0.251862
0.278258
0.304831
0.119396
0.119871
0.120921
0.122468
0.12464
0.127344
0.130802
0.134868
0.139895
0.145653
0.152692
0.160651
0.170361
0.181271
0.194587
0.209466
0.227612
0.247402
0.271465
0.294427
0.118904
0.119378
0.120421
0.121956
0.124109
0.126789
0.130214
0.134236
0.139207
0.144889
0.15183
0.159651
0.169174
0.179813
0.192729
0.207031
0.224204
0.242607
0.264102
0.283155
0.118386
0.118859
0.119894
0.121417
0.123551
0.126206
0.129595
0.133572
0.138483
0.144085
0.150923
0.158596
0.167922
0.178271
0.190766
0.204444
0.220583
0.237494
0.256196
0.271064
0.11784
0.118313
0.119341
0.120851
0.122965
0.125594
0.128947
0.132876
0.137726
0.143243
0.149973
0.157489
0.16661
0.176649
0.188705
0.201713
0.216767
0.232081
0.247778
0.258208
0.117268
0.117742
0.118763
0.120261
0.122354
0.124956
0.128271
0.132151
0.136936
0.142365
0.148982
0.156334
0.165241
0.174952
0.186553
0.198847
0.212776
0.226386
0.238884
0.244639
0.116671
0.117145
0.11816
0.119646
0.121718
0.124292
0.127567
0.131396
0.136114
0.141453
0.147951
0.155131
0.163817
0.173182
0.184317
0.195853
0.208629
0.220426
0.229558
0.230402
0.116048
0.116525
0.117533
0.119007
0.121058
0.123602
0.126837
0.130614
0.135261
0.140504
0.14688
0.153881
0.162337
0.171341
0.181996
0.192736
0.204341
0.214215
0.21986
0.215534
0.115402
0.115882
0.116885
0.118346
0.120375
0.12289
0.126083
0.129806
0.134381
0.139526
0.145774
0.15259
0.16081
0.169437
0.179604
0.18951
0.199935
0.207767
0.209855
0.200062
0.114732
0.115217
0.116216
0.117668
0.119677
0.122165
0.125319
0.12899
0.133496
0.138546
0.144672
0.151304
0.159291
0.167536
0.177217
0.186252
0.195494
0.201123
0.199564
0.183842
0.114039
0.114531
0.115529
0.116973
0.118965
0.12143
0.124549
0.128175
0.132618
0.137581
0.143591
0.150047
0.157807
0.165671
0.174865
0.182994
0.191041
0.194273
0.188946
0.165962
0.11332
0.113812
0.114801
0.116229
0.118188
0.120614
0.12367
0.127225
0.131561
0.136398
0.142219
0.148446
0.15587
0.163293
0.171862
0.179076
0.185854
0.186876
0.178324
0.146906
0.120496
0.121032
0.122151
0.123791
0.126053
0.12887
0.132424
0.136589
0.141672
0.147417
0.154323
0.161884
0.17087
0.180276
0.191126
0.201379
0.211648
0.2176
0.214988
0.192645
0.120874
0.121408
0.122533
0.124181
0.126463
0.129301
0.132895
0.137102
0.142257
0.148084
0.155123
0.162849
0.172087
0.181838
0.193186
0.204207
0.215534
0.223421
0.223639
0.208822
0.121223
0.121749
0.12287
0.124516
0.1268
0.129641
0.133245
0.137466
0.142644
0.148512
0.155608
0.163442
0.172821
0.182854
0.194562
0.206329
0.218653
0.228633
0.232208
0.223926
0.121544
0.122064
0.123184
0.12483
0.12712
0.12997
0.133589
0.137831
0.14304
0.148958
0.156122
0.164075
0.173606
0.183925
0.196001
0.208484
0.221805
0.233704
0.240551
0.237622
0.121838
0.122354
0.123475
0.125123
0.127421
0.130281
0.133917
0.138184
0.143429
0.149401
0.156636
0.16471
0.174398
0.184996
0.197444
0.210607
0.224923
0.238591
0.248638
0.250635
0.122105
0.122618
0.123739
0.125389
0.127694
0.130564
0.134217
0.138507
0.143784
0.149806
0.157109
0.165297
0.175135
0.185996
0.198805
0.21261
0.227913
0.243238
0.256423
0.263079
0.122343
0.122853
0.123975
0.125628
0.127939
0.130818
0.134485
0.138795
0.144102
0.150171
0.157536
0.165829
0.175808
0.186916
0.200075
0.214481
0.230756
0.247633
0.263844
0.274925
0.122552
0.12306
0.124183
0.125838
0.128155
0.131041
0.134721
0.13905
0.144383
0.150494
0.157917
0.166308
0.176421
0.187757
0.201254
0.216218
0.233437
0.251761
0.270844
0.286131
0.122732
0.123239
0.124362
0.126019
0.12834
0.131233
0.134924
0.13927
0.144627
0.150777
0.158253
0.166732
0.176971
0.188516
0.202336
0.217814
0.235938
0.255607
0.277379
0.296652
0.122883
0.123388
0.124512
0.12617
0.128495
0.131394
0.135094
0.139455
0.144832
0.151016
0.15854
0.167099
0.177455
0.189189
0.203315
0.21926
0.23824
0.259151
0.283412
0.306432
0.123003
0.123507
0.124632
0.126291
0.128619
0.131522
0.13523
0.139602
0.144998
0.151211