/*--------------------------------*- C++ -*----------------------------------*\
  =========                 |
  \\      /  F ield         | OpenFOAM: The Open Source CFD Toolbox
   \\    /   O peration     | Website:  https://openfoam.org
    \\  /    A nd           | Version:  6.0
     \\/     M anipulation  |
\*---------------------------------------------------------------------------*/
FoamFile
{
    version     2.0;
    format      ascii;
    class       volVectorField;
    location    "82";
    object      U;
}
// * * * * * * * * * * * * * * * * * * * * * * * * * * * * * * * * * * * * * //

dimensions      [0 1 -1 0 0 0 0];

internalField   nonuniform List<vector> 
4000
(
(0.146357 0.00913227 9.86525e-20)
(0.436378 0.0448135 -5.42555e-20)
(0.707804 0.10129 6.42009e-20)
(0.941001 0.160119 -4.77953e-20)
(1.12409 0.211113 -2.13613e-20)
(1.25544 0.249924 6.63225e-21)
(1.34113 0.275856 -2.08576e-20)
(1.39095 0.290504 7.47163e-20)
(1.41508 0.296445 -6.21491e-20)
(1.42228 0.296296 1.46538e-20)
(1.41915 0.292241 -1.08576e-20)
(1.41027 0.285899 -7.04762e-20)
(1.39854 0.278363 6.83061e-20)
(1.38572 0.270323 2.5949e-20)
(1.37283 0.262192 -2.57328e-20)
(1.36041 0.2542 6.03511e-20)
(1.34878 0.246458 -9.44388e-22)
(1.33811 0.239067 -5.82005e-20)
(1.32845 0.232343 4.28998e-20)
(1.31987 0.225952 1.36298e-20)
(0.16194 0.0159325 -3.47151e-20)
(0.471772 0.0642997 9.95911e-20)
(0.75182 0.130554 1.15721e-19)
(0.984263 0.195105 -5.49104e-20)
(1.16028 0.248034 9.5023e-20)
(1.28159 0.286036 1.50327e-19)
(1.35699 0.309604 -8.56291e-21)
(1.39789 0.321302 -2.59647e-20)
(1.41514 0.324324 1.27043e-19)
(1.41747 0.321596 6.20068e-20)
(1.41118 0.315395 -1.12685e-20)
(1.40039 0.307313 9.25425e-20)
(1.38762 0.29837 -9.92037e-20)
(1.37431 0.289177 1.54677e-19)
(1.36126 0.280079 -2.57337e-20)
(1.3489 0.271258 7.40019e-20)
(1.33745 0.262788 1.3383e-20)
(1.32703 0.254767 5.26601e-20)
(1.31766 0.247521 -5.00094e-20)
(1.30939 0.240577 1.25253e-20)
(0.177297 0.0238977 -5.3789e-20)
(0.505405 0.0861422 1.23488e-19)
(0.792065 0.162219 9.23334e-20)
(1.02202 0.23188 -1.40972e-20)
(1.18999 0.285942 1.4506e-19)
(1.30115 0.322436 -1.10573e-19)
(1.36679 0.343167 -8.5355e-21)
(1.39965 0.351658 9.59701e-20)
(1.41097 0.351667 3.0104e-20)
(1.40933 0.346358 4.29759e-20)
(1.4006 0.338047 -6.36694e-20)
(1.38845 0.328268 1.66528e-19)
(1.37504 0.317949 3.12555e-20)
(1.36151 0.307619 -1.47754e-19)
(1.3485 0.297559 2.17054e-19)
(1.33631 0.287904 -2.56075e-19)
(1.32514 0.278699 -1.17879e-19)
(1.31504 0.270042 1.97963e-20)
(1.30599 0.262263 1.13981e-19)
(1.29807 0.254741 -2.18012e-19)
(0.192188 0.0329967 -1.1699e-19)
(0.536755 0.110141 -2.77736e-19)
(0.828006 0.19592 -2.42568e-19)
(1.05395 0.269997 -3.27914e-19)
(1.21319 0.324402 -1.87377e-19)
(1.31432 0.358761 -3.87821e-19)
(1.37087 0.376264 4.94426e-20)
(1.3966 0.381372 -2.07091e-19)
(1.40293 0.378328 -2.31953e-20)
(1.39814 0.370468 3.42678e-20)
(1.38761 0.360101 -7.57907e-20)
(1.37459 0.348671 9.56362e-20)
(1.36085 0.33701 1.70884e-19)
(1.34734 0.325561 -2.39583e-19)
(1.33452 0.314544 3.96425e-20)
(1.32263 0.304054 1.12686e-19)
(1.3118 0.294111 1.88972e-19)
(1.30208 0.284816 -1.62961e-19)
(1.29341 0.276495 -7.84905e-21)
(1.28588 0.268379 1.93742e-19)
(0.206372 0.0431692 -2.18236e-19)
(0.565345 0.136041 6.03988e-19)
(0.859207 0.231243 -1.05224e-19)
(1.07983 0.308989 1.42389e-19)
(1.22992 0.362983 -1.38105e-19)
(1.32136 0.39466 4.28367e-19)
(1.36959 0.408636 -6.82861e-20)
(1.38914 0.41025 4.02391e-20)
(1.39138 0.404159 -2.15752e-20)
(1.38417 0.393805 6.75749e-20)
(1.37242 0.381443 4.40283e-20)
(1.35893 0.368414 5.71462e-20)
(1.34517 0.355444 -1.6073e-19)
(1.33186 0.342895 2.37692e-19)
(1.31937 0.33093 -1.81193e-19)
(1.30787 0.319607 3.58325e-20)
(1.29747 0.308927 -1.17592e-19)
(1.28819 0.298995 2.59641e-20)
(1.27993 0.290128 2.96886e-20)
(1.27285 0.281411 -2.70548e-19)
(0.219618 0.0543264 1.34807e-20)
(0.590755 0.163537 -3.012e-19)
(0.885324 0.267744 1.6884e-19)
(1.09955 0.348383 -5.83847e-19)
(1.24032 0.401265 2.84834e-19)
(1.32256 0.429798 -4.87028e-19)
(1.36333 0.440027 -3.83264e-19)
(1.37762 0.438101 -1.46636e-20)
(1.37659 0.429008 -1.31403e-19)
(1.36764 0.416235 -4.1593e-19)
(1.35516 0.401951 -5.35663e-20)
(1.34155 0.387377 -4.07686e-19)
(1.32801 0.373135 7.2842e-20)
(1.31509 0.359508 -6.03184e-20)
(1.30305 0.346608 3.58431e-20)
(1.29204 0.33446 -2.85493e-19)
(1.28214 0.323048 1.15326e-20)
(1.27334 0.312487 5.55825e-20)
(1.26556 0.303074 -1.37149e-19)
(1.25898 0.293757 1.19065e-19)
(0.23171 0.0663525 -1.22505e-19)
(0.612625 0.192284 5.46729e-19)
(0.906113 0.304952 6.39649e-21)
(1.11309 0.387703 -4.73546e-19)
(1.24457 0.438837 3.62573e-19)
(1.31823 0.463854 1.53746e-19)
(1.35242 0.470195 3.13599e-20)
(1.36234 0.464736 -2.6362e-19)
(1.35883 0.452717 4.29963e-19)
(1.34873 0.437616 -2.57843e-19)
(1.33596 0.421489 9.02923e-20)
(1.32254 0.40543 4.44057e-19)
(1.30944 0.389957 -4.0502e-19)
(1.29706 0.375278 4.48524e-19)
(1.28559 0.361462 -2.9209e-19)
(1.27515 0.348501 -5.67773e-20)
(1.26582 0.33637 7.03346e-20)
(1.25758 0.325191 9.25007e-20)
(1.25031 0.315238 1.29657e-19)
(1.24429 0.305332 7.72873e-20)
(0.24245 0.0791073 4.72551e-20)
(0.630663 0.221903 -4.86058e-19)
(0.921419 0.342385 8.70007e-20)
(1.12051 0.42648 1.14127e-18)
(1.24291 0.475305 -1.04647e-19)
(1.3087 0.49652 3.20934e-19)
(1.3372 0.498903 2.02959e-19)
(1.34361 0.489966 3.33762e-20)
(1.33831 0.475124 -2.42401e-19)
(1.32759 0.457799 3.99122e-19)
(1.31492 0.439914 -5.07771e-20)
(1.30197 0.422434 6.28452e-19)
(1.2895 0.405775 2.48345e-19)
(1.2778 0.390079 1.59386e-19)
(1.26702 0.375369 -3.32561e-19)
(1.25724 0.361616 7.10107e-20)
(1.24855 0.348784 2.64378e-19)
(1.24091 0.337003 7.23577e-20)
(1.23422 0.326521 -3.28984e-19)
(1.22881 0.316048 -8.38021e-20)
(0.251665 0.0924289 -2.69293e-19)
(0.644649 0.251992 8.68151e-19)
(0.931177 0.379554 -4.7291e-19)
(1.12194 0.464255 -4.37515e-19)
(1.23562 0.510292 -3.84513e-19)
(1.29431 0.527503 -3.27901e-19)
(1.31799 0.525923 -4.10797e-19)
(1.32169 0.513603 5.21601e-19)
(1.31523 0.496063 -3.80078e-19)
(1.30438 0.476629 -3.21142e-20)
(1.29214 0.457079 -1.69425e-21)
(1.2799 0.438245 -7.53804e-20)
(1.26825 0.420451 -2.00476e-19)
(1.25738 0.403776 -2.30024e-19)
(1.24738 0.388206 -1.23793e-20)
(1.23835 0.373686 -5.22668e-20)
(1.23036 0.360177 -1.34935e-19)
(1.22339 0.347815 -4.45308e-20)
(1.21732 0.336821 4.30201e-20)
(1.21259 0.325815 -3.02897e-19)
(0.259207 0.106137 4.64031e-19)
(0.654434 0.282135 4.85651e-19)
(0.9354 0.415978 -3.02234e-19)
(1.11759 0.50059 1.87169e-19)
(1.223 0.543443 3.27148e-19)
(1.27539 0.556527 -7.16767e-20)
(1.29512 0.551035 8.11964e-20)
(1.29683 0.535464 9.76307e-20)
(1.2898 0.515369 1.6389e-19)
(1.27922 0.493949 -1.96876e-19)
(1.26771 0.472829 9.56208e-20)
(1.25641 0.452716 -7.16477e-20)
(1.24574 0.433843 3.15425e-19)
(1.23583 0.416235 1.47825e-19)
(1.22673 0.399842 -3.2631e-19)
(1.21853 0.38459 1.85788e-19)
(1.21131 0.370433 9.18039e-20)
(1.20506 0.357517 -1.80963e-19)
(1.19968 0.346034 4.88397e-19)
(1.19568 0.334542 -3.67491e-19)
(0.264959 0.120039 -3.40499e-19)
(0.659938 0.311909 -4.4477e-19)
(0.934178 0.451185 3.17369e-19)
(1.10769 0.535068 -2.91539e-19)
(1.20538 0.574423 -2.48749e-20)
(1.2523 0.583331 -3.36254e-19)
(1.26887 0.574032 2.75896e-19)
(1.26928 0.555368 5.38441e-19)
(1.26218 0.532875 -7.52533e-19)
(1.25226 0.509601 3.89525e-20)
(1.24175 0.487013 3.26862e-20)
(1.23158 0.465697 -1.64071e-19)
(1.22205 0.445808 1.07638e-19)
(1.21322 0.427319 -5.08965e-20)
(1.20513 0.410148 3.57149e-19)
(1.19784 0.394202 -3.85899e-19)
(1.19146 0.379433 -1.45034e-19)
(1.186 0.365992 3.66866e-19)
(1.18137 0.354048 -5.79225e-19)
(1.17815 0.342126 3.66746e-19)
(0.268837 0.133928 7.10174e-19)
(0.66115 0.340894 6.35015e-19)
(0.927667 0.484722 -1.0603e-19)
(1.09255 0.567296 -1.40133e-20)
(1.18313 0.602922 -3.32531e-19)
(1.22537 0.607674 1.41202e-19)
(1.23955 0.594716 7.36063e-19)
(1.23927 0.573144 -6.53243e-19)
(1.23256 0.548422 4.35611e-19)
(1.2236 0.523429 -4.20674e-20)
(1.21432 0.499477 2.84053e-19)
(1.20547 0.477041 -6.11073e-20)
(1.19724 0.456202 1.79184e-19)
(1.18963 0.43689 2.4916e-19)
(1.18264 0.41899 -1.26879e-19)
(1.17636 0.402393 1.78861e-19)
(1.1709 0.387049 -2.77206e-19)
(1.16628 0.373113 7.0068e-19)
(1.16246 0.360734 -4.61203e-19)
(1.16011 0.348446 3.35238e-19)
(0.270787 0.147597 -3.50781e-19)
(0.658124 0.368677 -6.57027e-19)
(0.916084 0.516164 -4.55632e-19)
(1.07248 0.596913 -3.68469e-20)
(1.15661 0.628658 1.13333e-19)
(1.19494 0.629334 -6.09127e-20)
(1.20743 0.612904 -4.15216e-19)
(1.20702 0.588627 -1.9186e-19)
(1.20109 0.561855 -3.68207e-19)
(1.19338 0.535285 -2.05244e-19)
(1.18555 0.510077 1.00392e-19)
(1.17817 0.486604 -4.84932e-19)
(1.17137 0.464885 -1.30097e-19)
(1.16511 0.444809 -1.35955e-19)
(1.15935 0.426235 -4.20513e-19)
(1.15417 0.409034 1.88361e-19)
(1.14969 0.393152 -1.0904e-20)
(1.14598 0.378744 1.94287e-19)
(1.14305 0.365949 -8.14964e-20)
(1.14162 0.353358 -3.35108e-19)
(0.27079 0.160833 8.10277e-19)
(0.650972 0.394866 7.06786e-19)
(0.899696 0.545112 8.97762e-19)
(1.04785 0.623592 -9.27874e-20)
(1.12619 0.651375 -3.49592e-19)
(1.16137 0.648112 1.01619e-18)
(1.17282 0.628428 -5.34318e-19)
(1.17275 0.601669 6.11876e-19)
(1.16795 0.573032 -1.20912e-19)
(1.16173 0.545029 4.02937e-19)
(1.15551 0.518675 4.30341e-20)
(1.14976 0.49425 2.29325e-19)
(1.14452 0.47172 -5.40711e-20)
(1.13973 0.450941 2.53792e-19)
(1.13533 0.431747 -2.42001e-19)
(1.13136 0.413992 -3.37578e-21)
(1.12795 0.397609 1.20087e-19)
(1.1252 0.382747 2.11842e-19)
(1.12322 0.369544 -4.70091e-20)
(1.12276 0.356718 1.45299e-19)
(0.268858 0.173428 -2.50727e-19)
(0.639865 0.419089 -7.16947e-19)
(0.878819 0.571206 -4.39084e-19)
(1.01906 0.647038 -7.82876e-19)
(1.09228 0.67085 8.66117e-19)
(1.125 0.663831 -6.47353e-19)
(1.13598 0.641141 4.25528e-19)
(1.13669 0.612133 -1.40364e-19)
(1.13331 0.581825 -2.03111e-19)
(1.12878 0.552537 -1.48572e-19)
(1.12432 0.525147 7.5524e-20)
(1.1203 0.499854 1.31709e-19)
(1.11675 0.47658 1.34933e-19)
(1.11356 0.455155 -1.53202e-19)
(1.11064 0.435392 -1.49125e-19)
(1.10799 0.417128 4.75639e-19)
(1.10574 0.400281 -1.73014e-20)
(1.10404 0.384978 -2.46024e-19)
(1.10306 0.371384 -7.54623e-21)
(1.10357 0.358414 -9.11306e-20)
(0.265036 0.185182 1.13921e-18)
(0.625022 0.441003 5.42865e-19)
(0.853809 0.594121 5.07272e-19)
(0.986501 0.666994 -3.11563e-19)
(1.05525 0.686887 4.36898e-20)
(1.08617 0.676339 4.63057e-19)
(1.0972 0.650915 7.3155e-20)
(1.09905 0.619906 1.76728e-19)
(1.09733 0.588125 2.07506e-19)
(1.09466 0.557704 4.3772e-20)
(1.09207 0.52939 1.49515e-19)
(1.08988 0.503312 -4.01394e-21)
(1.08811 0.479355 -4.99516e-20)
(1.08662 0.45733 -2.75604e-19)
(1.08531 0.437038 5.30926e-20)
(1.08413 0.4183 3.08886e-21)
(1.08316 0.401014 8.69965e-22)
(1.08258 0.385277 1.91344e-20)
(1.08265 0.371304 -8.87996e-20)
(1.08418 0.358306 1.17757e-19)
(0.2594 0.195905 -8.34213e-19)
(0.606708 0.4603 -7.27102e-19)
(0.825051 0.613573 3.64635e-19)
(0.950611 0.683243 -4.66093e-19)
(1.01553 0.699326 -3.00092e-20)
(1.04523 0.685512 9.63135e-20)
(1.05677 0.657645 -8.56602e-20)
(1.06006 0.624893 -5.72203e-20)
(1.0602 0.591846 -1.97827e-19)
(1.0595 0.560448 -1.19151e-19)
(1.05887 0.531327 2.51225e-20)
(1.05857 0.504546 -1.97287e-19)
(1.05863 0.479961 5.00928e-20)
(1.05894 0.457372 -6.86894e-20)
(1.05937 0.436574 2.08874e-20)
(1.05982 0.417382 1.03844e-19)
(1.06029 0.399667 6.0481e-20)
(1.06095 0.383463 5.46864e-20)
(1.06223 0.369034 6.56324e-21)
(1.06505 0.356038 -7.06494e-20)
(0.252052 0.205423 8.0995e-19)
(0.585225 0.476706 1.31675e-20)
(0.792962 0.629323 -6.63676e-20)
(0.911826 0.695603 8.3714e-20)
(0.973502 0.708035 3.79457e-19)
(1.00252 0.691252 -2.57328e-19)
(1.01496 0.66125 1.80266e-19)
(1.01996 0.627023 -2.1263e-19)
(1.02211 0.592925 1.19157e-19)
(1.02346 0.560715 -7.47236e-20)
(1.02482 0.530906 5.68543e-20)
(1.02643 0.503503 3.23571e-20)
(1.02834 0.478337 -4.9664e-20)
(1.03049 0.455201 2.03006e-21)
(1.03277 0.433894 7.45972e-20)
(1.03502 0.414245 -8.97467e-20)
(1.03715 0.396099 2.65945e-20)
(1.03933 0.379342 7.62579e-21)
(1.04226 0.364176 -3.52657e-20)
(1.04691 0.350964 3.6618e-20)
(0.243121 0.213577 -1.66674e-19)
(0.560909 0.489987 1.73018e-19)
(0.757978 0.641171 1.6777e-19)
(0.870596 0.703934 -2.59099e-19)
(0.929593 0.712917 1.48892e-19)
(0.958404 0.693487 -2.57811e-19)
(0.972069 0.661676 -9.57124e-21)
(0.978971 0.626256 -3.64694e-20)
(0.983244 0.591333 -3.21479e-20)
(0.986696 0.558486 3.09206e-20)
(0.990036 0.528119 -4.40204e-20)
(0.993514 0.500175 -4.49657e-20)
(0.997208 0.474454 -2.67573e-20)
(1.00114 0.450733 5.16209e-21)
(1.00525 0.428824 -5.14487e-21)
(1.0094 0.408592 9.06844e-21)
(1.01341 0.389872 -2.16509e-20)
(1.01757 0.372311 -4.47066e-21)
(1.02286 0.355905 1.30918e-20)
(1.02968 0.342135 -1.9627e-21)
(0.232756 0.220231 -5.83991e-20)
(0.534122 0.499952 1.5483e-19)
(0.72055 0.648963 -2.08132e-19)
(0.827378 0.70813 2.85244e-19)
(0.884212 0.713905 4.44412e-20)
(0.913232 0.692172 -1.31484e-19)
(0.928403 0.658894 -3.07645e-20)
(0.937368 0.622576 3.94141e-20)
(0.94383 0.587075 -3.66196e-20)
(0.949391 0.553796 -1.07807e-20)
(0.954674 0.523037 1.08728e-20)
(0.959915 0.494675 -9.00403e-21)
(0.965225 0.468455 2.51186e-20)
(0.970684 0.444107 -3.51203e-20)
(0.97633 0.4214 3.45589e-20)
(0.982071 0.400193 -6.34062e-20)
(0.987798 0.380257 8.28997e-20)
(0.994002 0.360889 -7.47533e-20)
(1.00175 0.341831 -3.43279e-20)
(1.00982 0.326766 7.95948e-20)
(0.22113 0.22527 1.26839e-19)
(0.505246 0.506449 5.12196e-20)
(0.681144 0.652587 7.45835e-20)
(0.782631 0.708123 6.48009e-20)
(0.837775 0.710959 -6.78997e-20)
(0.867366 0.687286 1.73902e-20)
(0.884272 0.652892 1.58543e-20)
(0.895422 0.615987 -1.18945e-20)
(0.904124 0.580177 8.2329e-21)
(0.91179 0.54671 -3.17834e-20)
(0.918967 0.515793 6.09749e-20)
(0.925865 0.487248 -1.82771e-20)
(0.932587 0.460771 5.86229e-20)
(0.939218 0.436031 -8.89894e-20)
(0.945812 0.412709 1.92511e-19)
(0.952321 0.390534 -3.60107e-20)
(0.958773 0.369053 -9.76403e-21)
(0.96592 0.346862 1.44982e-19)
(0.974593 0.321863 -6.8191e-20)
(0.979226 0.296956 4.50684e-20)
(0.208425 0.228603 7.03237e-20)
(0.474677 0.509369 -2.26499e-19)
(0.640227 0.651968 -1.74378e-20)
(0.736816 0.703876 -6.21703e-20)
(0.790698 0.704065 1.6151e-20)
(0.821169 0.678826 -4.81945e-20)
(0.839998 0.643674 6.2936e-20)
(0.853428 0.606495 8.65933e-21)
(0.864407 0.570654 -9.73782e-21)
(0.874182 0.537257 6.73085e-21)
(0.88324 0.506444 4.40558e-20)
(0.891766 0.478012 8.03092e-20)
(0.899838 0.451661 4.37998e-20)
(0.907495 0.427083 -1.1027e-19)
(0.914726 0.404008 -3.95785e-20)
(0.921467 0.382239 5.06093e-21)
(0.927848 0.361489 2.84257e-20)
(0.934546 0.340995 7.22012e-21)
(0.94148 0.319983 2.66687e-19)
(0.94347 0.300825 -1.83885e-19)
(0.194834 0.230157 -6.28162e-20)
(0.442817 0.508636 7.5243e-20)
(0.598266 0.647071 -5.05325e-20)
(0.690386 0.695384 5.0216e-20)
(0.74339 0.693235 6.65383e-20)
(0.775004 0.666806 -1.04939e-19)
(0.795903 0.631253 1.16213e-19)
(0.811681 0.594114 -3.95547e-20)
(0.82496 0.558517 1.18114e-19)
(0.83685 0.525437 6.69476e-20)
(0.847795 0.494956 -2.47408e-19)
(0.857978 0.466851 -2.44839e-20)
(0.867483 0.440822 3.68122e-19)
(0.87635 0.41657 -4.55831e-19)
(0.884556 0.393838 4.22041e-19)
(0.892027 0.372415 1.52586e-19)
(0.898849 0.351999 -5.27636e-19)
(0.905491 0.331951 2.63958e-19)
(0.911757 0.31195 -4.9588e-20)
(0.913763 0.294687 6.25601e-20)
(0.18056 0.229884 -7.64458e-20)
(0.410071 0.504217 -9.09177e-20)
(0.555725 0.637898 6.01188e-20)
(0.643789 0.682674 -1.1235e-19)
(0.696252 0.678505 -3.79606e-19)
(0.729226 0.651262 -3.13017e-20)
(0.752305 0.61566 -1.19377e-19)
(0.770475 0.578869 -8.44273e-21)
(0.786062 0.543788 -2.81707e-19)
(0.800059 0.511276 -2.88031e-19)
(0.812879 0.481371 -2.0974e-19)
(0.824703 0.453839 -1.0479e-20)
(0.83563 0.428392 -5.01846e-19)
(0.845713 0.404755 -1.52459e-20)
(0.854959 0.382705 2.50104e-19)
(0.863336 0.362071 -2.46075e-19)
(0.870936 0.342617 -1.98198e-19)
(0.878138 0.323855 1.91986e-19)
(0.884739 0.305582 -1.35305e-19)
(0.887564 0.28991 2.61883e-20)
(0.165809 0.227759 1.09466e-19)
(0.376843 0.496114 8.36668e-20)
(0.51306 0.624486 -1.4111e-20)
(0.59746 0.665801 -1.1558e-19)
(0.649678 0.659932 2.16555e-19)
(0.684182 0.632247 3.99911e-19)
(0.709518 0.596937 -4.62168e-20)
(0.7301 0.560791 -2.3274e-21)
(0.747992 0.526485 6.81982e-20)
(0.764092 0.494773 1.84032e-19)
(0.778792 0.465654 2.76483e-19)
(0.792282 0.438892 -2.3307e-19)
(0.804677 0.414209 2.18718e-19)
(0.81605 0.391344 -8.42177e-20)
(0.826429 0.370089 2.63827e-19)
(0.835815 0.350284 -1.03967e-19)
(0.844333 0.331721 -2.67567e-19)
(0.852358 0.314021 1.55587e-19)
(0.859723 0.297111 -2.30883e-19)
(0.863648 0.282763 -2.59445e-19)
(0.150786 0.223778 8.46149e-20)
(0.343528 0.484365 1.35353e-19)
(0.470712 0.606907 -1.39095e-19)
(0.551821 0.644852 -4.84147e-21)
(0.604043 0.637601 2.43113e-20)
(0.640205 0.609833 2.21071e-19)
(0.66784 0.575144 -3.1723e-19)
(0.690829 0.539928 2.98574e-19)
(0.711004 0.506642 -3.46539e-20)
(0.729183 0.475946 8.04806e-20)
(0.745748 0.44781 1.37723e-19)
(0.760906 0.421999 -2.63753e-19)
(0.774794 0.398243 1.20167e-19)
(0.78751 0.376302 1.16749e-19)
(0.799111 0.35598 4.4192e-20)
(0.809627 0.337128 -2.25042e-19)
(0.81921 0.319553 7.57205e-19)
(0.828229 0.302931 -4.30055e-19)
(0.83651 0.287226 7.72896e-19)
(0.841584 0.27391 -5.02175e-20)
(0.135696 0.217956 7.25931e-20)
(0.310511 0.469041 3.51873e-19)
(0.429108 0.585265 1.34269e-19)
(0.507274 0.619939 2.5619e-19)
(0.559711 0.611619 7.36089e-20)
(0.597618 0.584114 -4.28415e-19)
(0.627559 0.55036 6.70165e-19)
(0.652926 0.516341 3.544e-19)
(0.675342 0.484306 1.64771e-20)
(0.695563 0.454828 4.5874e-19)
(0.713966 0.427854 8.02994e-20)
(0.730777 0.403148 4.72658e-20)
(0.746157 0.380455 2.73524e-19)
(0.76023 0.359545 -1.04909e-19)
(0.773078 0.340234 -1.05137e-19)
(0.784766 0.322377 6.39917e-19)
(0.795469 0.305795 -5.29973e-19)
(0.805543 0.290206 1.96474e-20)
(0.814805 0.275596 6.74757e-19)
(0.821051 0.263176 -7.9438e-22)
(0.120737 0.21033 -7.84738e-19)
(0.278161 0.450244 -1.12617e-19)
(0.388653 0.559695 -1.70041e-19)
(0.464205 0.591204 -1.35258e-19)
(0.517023 0.582118 -3.55078e-19)
(0.556722 0.555205 1.21104e-19)
(0.588947 0.522683 -1.74126e-19)
(0.616636 0.490113 5.76881e-20)
(0.641232 0.459544 -2.52546e-19)
(0.663438 0.43147 -2.30988e-19)
(0.683635 0.405819 5.70019e-20)
(0.702068 0.38236 -3.82235e-19)
(0.718922 0.360851 3.11722e-19)
(0.734344 0.341072 -1.13296e-19)
(0.748444 0.322849 3.45281e-19)
(0.761312 0.30604 -7.46036e-19)
(0.773142 0.290476 -1.42915e-19)
(0.784269 0.275909 -2.68851e-19)
(0.794508 0.262329 -7.17776e-19)
(0.801908 0.250721 -1.16816e-19)
(0.106104 0.200954 1.24648e-19)
(0.246834 0.428107 -9.43569e-21)
(0.349734 0.530364 -2.0884e-19)
(0.422976 0.558816 7.46263e-20)
(0.476304 0.549252 -1.50901e-19)
(0.517805 0.523244 -1.21121e-21)
(0.552258 0.492231 2.02459e-19)
(0.582191 0.461346 -3.05195e-19)
(0.608885 0.432442 1.16341e-19)
(0.633002 0.405943 -6.83866e-20)
(0.654929 0.381763 2.072e-20)
(0.67493 0.35968 -3.41367e-19)
(0.693215 0.33946 -4.12889e-19)
(0.709954 0.320899 -1.6288e-20)
(0.725277 0.303829 4.59586e-19)
(0.739302 0.288114 2.01075e-20)
(0.75223 0.273593 5.8022e-19)
(0.764379 0.26005 -8.4857e-19)
(0.775566 0.24747 4.48491e-19)
(0.784087 0.236645 7.79222e-19)
(0.0919796 0.189899 -1.20726e-19)
(0.216861 0.402791 6.45858e-20)
(0.312713 0.497464 4.23704e-19)
(0.383925 0.522966 1.0626e-19)
(0.437856 0.5132 -1.41014e-19)
(0.481133 0.488389 1.1265e-19)
(0.517732 0.459143 4.40104e-19)
(0.549805 0.430162 -3.59059e-19)
(0.578495 0.403107 3.31021e-20)
(0.60443 0.378341 -1.3091e-19)
(0.628005 0.355769 4.71665e-19)
(0.649504 0.335176 3.37199e-19)
(0.669159 0.316344 -4.89332e-20)
(0.687161 0.299081 -5.07543e-19)
(0.70366 0.283227 2.77006e-20)
(0.718793 0.268653 -6.29304e-20)
(0.73277 0.255208 2.97933e-19)
(0.745884 0.242703 4.83498e-19)
(0.757973 0.231116 4.20836e-19)
(0.76757 0.221069 -7.05838e-19)
(0.0785378 0.177256 -7.83944e-20)
(0.188556 0.374481 3.33032e-19)
(0.277925 0.461217 -3.21684e-19)
(0.347368 0.483874 4.53525e-19)
(0.401958 0.474163 -2.43012e-19)
(0.446954 0.450819 1.78423e-19)
(0.485589 0.423579 4.45863e-19)
(0.519678 0.3967 -5.39154e-19)
(0.550243 0.371665 2.45692e-19)
(0.577886 0.348777 3.0971e-19)
(0.60301 0.327936 -4.18646e-19)
(0.62592 0.308941 -2.74493e-20)
(0.646866 0.291587 -3.32744e-19)
(0.666059 0.275696 5.36982e-19)
(0.683668 0.261119 -2.89426e-19)
(0.699844 0.247732 3.10212e-19)
(0.714803 0.2354 -5.47799e-20)
(0.728818 0.223954 1.92687e-19)
(0.74175 0.213367 4.47306e-20)
(0.752365 0.204115 -1.11649e-19)
(0.0659411 0.163126 -2.4559e-19)
(0.162207 0.343391 -5.57549e-19)
(0.245681 0.421866 1.46425e-19)
(0.313594 0.44178 -4.69864e-19)
(0.368868 0.43236 -4.46335e-19)
(0.415495 0.410732 -3.21511e-19)
(0.456031 0.385714 2.49681e-19)
(0.491991 0.361123 1.91433e-19)
(0.524293 0.33826 -6.57529e-22)
(0.553517 0.317381 -1.66149e-19)
(0.580077 0.298386 -3.01981e-19)
(0.604295 0.281085 2.71152e-19)
(0.62644 0.265293 -9.30781e-20)
(0.646739 0.250843 -4.58028e-19)
(0.665377 0.237601 2.97061e-19)
(0.68252 0.225449 -2.22758e-19)
(0.698383 0.214266 -9.03011e-20)
(0.713222 0.203907 -2.53643e-19)
(0.726933 0.194334 -2.27635e-19)
(0.738498 0.185903 5.92334e-20)
(0.054339 0.14763 2.13966e-19)
(0.138078 0.309754 1.09709e-19)
(0.216264 0.379681 1.69271e-19)
(0.282864 0.396946 -5.83034e-19)
(0.338819 0.388033 6.22688e-19)
(0.386963 0.368345 5.0851e-22)
(0.429242 0.345746 4.2419e-21)
(0.466911 0.323605 -3.77368e-19)
(0.500795 0.303054 3.51797e-19)
(0.53146 0.284304 -2.45571e-19)
(0.559328 0.267256 7.19854e-20)
(0.584739 0.251738 -3.25864e-19)
(0.607978 0.237582 -1.54958e-19)
(0.629285 0.224639 -7.36438e-20)
(0.64886 0.212784 5.5456e-19)
(0.666883 0.201913 -2.71424e-19)
(0.683565 0.191918 -2.45295e-19)
(0.699148 0.182673 2.50244e-19)
(0.713565 0.174135 -2.05539e-19)
(0.726005 0.16656 1.60457e-19)
(0.0438671 0.130898 4.63926e-19)
(0.116407 0.273825 -2.80631e-19)
(0.189926 0.334949 4.14758e-20)
(0.255414 0.349651 4.88783e-19)
(0.31202 0.34144 1.95191e-19)
(0.361541 0.323891 2.40275e-19)
(0.405388 0.303885 2.38893e-19)
(0.444586 0.28434 5.0529e-19)
(0.479883 0.266224 -1.15088e-19)
(0.511835 0.249708 2.75735e-19)
(0.540873 0.234699 3.99265e-19)
(0.567351 0.221043 1.46783e-19)
(0.591567 0.208592 2.64591e-19)
(0.613775 0.197213 9.57795e-20)
(0.634188 0.186796 5.53205e-20)
(0.652995 0.177248 -4.02859e-20)
(0.670406 0.168476 3.25303e-19)
(0.686646 0.160373 1.99884e-19)
(0.701694 0.152891 -1.81736e-19)
(0.714924 0.146209 1.71988e-19)
(0.0346458 0.113074 -3.09514e-19)
(0.0974041 0.235877 3.38366e-20)
(0.166891 0.287978 -8.91459e-20)
(0.231451 0.300195 -2.71617e-19)
(0.288654 0.292854 -1.42403e-19)
(0.339392 0.277618 -2.6029e-19)
(0.384613 0.260355 1.22115e-19)
(0.425145 0.243534 -4.66803e-19)
(0.461677 0.227961 2.76037e-19)
(0.494751 0.213771 -3.799e-19)
(0.524809 0.20088 -2.34963e-19)
(0.552218 0.189156 -3.10565e-19)
(0.577287 0.178468 7.11639e-20)
(0.600282 0.168705 -7.00058e-20)
(0.621426 0.159771 8.28479e-20)
(0.640916 0.151585 4.45713e-20)
(0.658958 0.144069 8.84408e-20)
(0.675769 0.137134 -7.41159e-19)
(0.691366 0.130731 3.68601e-19)
(0.705292 0.124977 -2.21092e-19)
(0.0267797 0.0943126 1.03385e-19)
(0.0812503 0.196201 2.08371e-19)
(0.147349 0.239092 -1.35768e-19)
(0.211152 0.24889 3.35411e-19)
(0.268879 0.242563 -5.28775e-20)
(0.320655 0.229787 3.87192e-19)
(0.367041 0.215396 7.55524e-20)
(0.408703 0.201406 -7.81132e-20)
(0.446277 0.188466 2.84888e-19)
(0.4803 0.17668 2.16724e-19)
(0.511221 0.165976 8.04901e-20)
(0.539417 0.156241 1.05044e-19)
(0.565207 0.14737 5.24459e-20)
(0.588868 0.139267 -2.23391e-19)
(0.610629 0.131855 -3.07677e-20)
(0.630696 0.125064 2.31653e-19)
(0.649271 0.118833 -1.5823e-19)
(0.666561 0.113089 -7.94395e-21)
(0.682623 0.107785 -3.29758e-19)
(0.697145 0.102994 6.64053e-19)
(0.0203567 0.0747767 2.79199e-19)
(0.0680973 0.155101 -3.33463e-19)
(0.131462 0.188628 1.56897e-19)
(0.194665 0.196061 -2.20657e-19)
(0.252826 0.190866 1.95438e-19)
(0.305447 0.18067 -3.38073e-19)
(0.352777 0.169255 -2.4709e-19)
(0.395353 0.158183 1.86313e-20)
(0.43377 0.147951 -3.35481e-19)
(0.468561 0.138634 -2.08813e-19)
(0.50018 0.130171 -3.60177e-19)
(0.529012 0.122475 -1.18172e-20)
(0.555387 0.115462 -1.39576e-19)
(0.579586 0.109057 3.5249e-19)
(0.601849 0.103198 2.42071e-19)
(0.622382 0.0978313 -8.1519e-20)
(0.641388 0.0929087 -7.36665e-20)
(0.659065 0.0883751 -3.55309e-21)
(0.675504 0.0841882 9.09548e-21)
(0.690514 0.08039 1.31989e-19)
(0.0154471 0.0546369 -6.98089e-20)
(0.058066 0.112892 -2.39499e-19)
(0.119355 0.136936 -1.49142e-19)
(0.182107 0.142045 -9.32215e-20)
(0.240599 0.138072 -1.92894e-19)
(0.293861 0.130548 3.29697e-19)
(0.341904 0.122189 -3.58543e-20)
(0.385169 0.114103 -7.91865e-20)
(0.424223 0.106637 3.0215e-21)
(0.459594 0.0998367 2.31441e-19)
(0.491741 0.0936589 -2.19598e-19)
(0.521056 0.088039 2.14315e-19)
(0.547874 0.0829163 1.00132e-19)
(0.572481 0.0782374 -1.82608e-19)
(0.595123 0.0739569 3.99437e-20)
(0.616011 0.0700367 1.16819e-19)
(0.635344 0.0664417 4.03007e-20)
(0.653313 0.0631331 -2.8518e-20)
(0.670039 0.0600772 -2.44604e-19)
(0.685425 0.057296 1.94808e-19)
(0.0121032 0.0340701 6.33532e-20)
(0.051246 0.0698978 7.66568e-20)
(0.111124 0.0843742 2.14794e-20)
(0.173565 0.087186 -1.62003e-20)
(0.232276 0.0844962 4.62608e-20)
(0.285964 0.0797086 7.05773e-20)
(0.334482 0.0744618 2.67307e-20)
(0.378208 0.0694091 3.26498e-20)
(0.417687 0.0647474 -6.89946e-20)
(0.453446 0.0604998 1.29195e-19)
(0.485948 0.0566368 -3.04662e-20)
(0.515587 0.0531194 -2.4005e-21)
(0.542702 0.0499104 3.07374e-20)
(0.567585 0.0469776 3.46289e-20)
(0.590483 0.0442935 -9.28909e-20)
(0.611611 0.0418348 6.12458e-20)
(0.631164 0.0395806 3.99875e-20)
(0.649331 0.0375071 3.41239e-20)
(0.666251 0.0355922 7.29361e-20)
(0.681897 0.0338455 3.01134e-20)
(0.0103589 0.013257 -1.30071e-20)
(0.0476952 0.0264505 2.70367e-20)
(0.10683 0.0313063 -3.77864e-20)
(0.169096 0.0318341 2.37395e-20)
(0.227906 0.0304615 1.38872e-20)
(0.2818 0.0284453 6.16422e-21)
(0.330552 0.0263414 1.46544e-20)
(0.374505 0.0243481 -4.19413e-20)
(0.414195 0.022514 2.6712e-20)
(0.450148 0.020838 9.33831e-21)
(0.482827 0.0193069 -5.06255e-22)
(0.512629 0.0179066 5.70092e-20)
(0.539896 0.0166243 -1.73192e-20)
(0.564919 0.0154489 -1.65372e-20)
(0.587949 0.014371 -1.58665e-20)
(0.6092 0.0133825 2.47623e-21)
(0.628867 0.0124763 -2.109e-20)
(0.647135 0.0116435 4.07655e-21)
(0.664156 0.0108748 7.89599e-22)
(0.679941 0.0101727 -2.66236e-21)
(0.0102291 -0.00761915 8.27602e-21)
(0.0474391 -0.0171158 -4.40588e-20)
(0.106498 -0.0218991 5.24706e-20)
(0.168724 -0.0236572 -3.9409e-20)
(0.227511 -0.023708 -1.8343e-20)
(0.28139 -0.0229466 5.49385e-20)
(0.330131 -0.0219012 4.55475e-21)
(0.374076 -0.0208296 1.2352e-21)
(0.413762 -0.0198312 2.55058e-20)
(0.449712 -0.0189313 1.31409e-20)
(0.482391 -0.0181269 -1.04173e-20)
(0.512195 -0.0174069 -3.63129e-20)
(0.539465 -0.0167598 3.49177e-21)
(0.564493 -0.0161755 -3.13453e-21)
(0.587528 -0.0156452 3.37174e-20)
(0.608786 -0.0151617 -2.02651e-20)
(0.62846 -0.0147186 2.77033e-20)
(0.646734 -0.01431 -4.15212e-20)
(0.66376 -0.0139319 4.93129e-23)
(0.679564 -0.0135863 -8.72266e-21)
(0.01171 -0.0283745 -2.7544e-20)
(0.050471 -0.0604655 1.39016e-19)
(0.110123 -0.074873 9.35835e-20)
(0.172442 -0.0789338 6.17847e-20)
(0.231085 -0.0776873 7.70382e-20)
(0.284728 -0.0741709 -1.87205e-20)
(0.333214 -0.0699949 8.51395e-20)
(0.376917 -0.0658735 1.73055e-20)
(0.416382 -0.0620554 -7.69959e-21)
(0.452135 -0.0585906 -6.04758e-20)
(0.484636 -0.0554601 6.25904e-20)
(0.514281 -0.0526283 -8.48897e-20)
(0.541407 -0.0500594 6.15829e-20)
(0.566304 -0.0477219 7.03799e-20)
(0.589219 -0.0455893 9.28143e-20)
(0.610368 -0.0436392 -6.11124e-20)
(0.629942 -0.0418514 1.71453e-20)
(0.648126 -0.0402053 6.40737e-20)
(0.665063 -0.0386842 -6.05756e-20)
(0.680763 -0.037295 4.57391e-20)
(0.0147788 -0.0488264 -2.66822e-19)
(0.0567518 -0.103265 -1.3376e-19)
(0.117662 -0.127248 -1.48703e-19)
(0.180213 -0.133643 -1.17014e-20)
(0.238595 -0.131153 -8.01023e-20)
(0.291785 -0.124933 -9.77824e-20)
(0.339775 -0.117669 1.7316e-19)
(0.383004 -0.110534 8.78312e-20)
(0.422035 -0.103927 1.0799e-19)
(0.457396 -0.097923 -1.17157e-19)
(0.489545 -0.0924895 8.67214e-20)
(0.51887 -0.0875659 1.05615e-19)
(0.545706 -0.0830927 3.72899e-20)
(0.570337 -0.0790178 -3.52932e-20)
(0.593009 -0.0752966 7.40833e-21)
(0.613933 -0.0718919 -1.52416e-20)
(0.633301 -0.0687699 -1.48019e-19)
(0.651299 -0.0658952 2.31806e-20)
(0.668054 -0.0632393 1.43447e-19)
(0.683532 -0.0608178 -1.92726e-19)
(0.019394 -0.0687952 -8.78159e-20)
(0.0662103 -0.145185 1.30007e-19)
(0.129041 -0.178661 2.99322e-20)
(0.191967 -0.187436 -5.62744e-20)
(0.24998 -0.183783 -1.58585e-19)
(0.302505 -0.17494 -3.38943e-19)
(0.349766 -0.164658 -3.22066e-19)
(0.392293 -0.154566 -2.30769e-20)
(0.430681 -0.145216 -1.86643e-19)
(0.46546 -0.136715 -2.78731e-19)
(0.497083 -0.129014 2.15474e-19)
(0.525932 -0.12203 -3.17942e-19)
(0.552334 -0.115681 6.28785e-20)
(0.576568 -0.109893 -2.0339e-20)
(0.598874 -0.104604 -6.60755e-20)
(0.619459 -0.0997641 -8.32696e-20)
(0.638517 -0.0953242 1.35546e-19)
(0.656236 -0.0912344 1.08046e-19)
(0.672717 -0.0874567 1.85114e-19)
(0.687856 -0.0840215 -2.77268e-19)
(0.0254957 -0.0881057 4.76905e-20)
(0.0787435 -0.185902 4.62297e-19)
(0.144152 -0.228756 1.32166e-19)
(0.207605 -0.239971 3.19328e-19)
(0.265151 -0.235266 -1.19514e-19)
(0.316812 -0.223908 1.83168e-19)
(0.363115 -0.210699 -5.76101e-20)
(0.40472 -0.197727 3.7045e-19)
(0.442261 -0.185701 -1.90541e-19)
(0.476273 -0.174758 2.23996e-19)
(0.507202 -0.164839 1.94031e-19)
(0.535421 -0.155837 2.07125e-19)
(0.56125 -0.147648 -1.84959e-19)
(0.584959 -0.14018 1.58541e-19)
(0.606779 -0.133354 -2.20071e-19)
(0.626914 -0.127103 -6.03021e-20)
(0.64556 -0.121367 -1.44173e-19)
(0.662906 -0.11608 -6.0907e-20)
(0.679024 -0.111198 2.42337e-19)
(0.693713 -0.106775 -4.01083e-19)
(0.033006 -0.10659 -1.91321e-19)
(0.0942169 -0.225106 -2.24904e-20)
(0.162853 -0.277188 -7.61241e-20)
(0.226996 -0.290914 -2.67511e-19)
(0.283991 -0.285294 4.54347e-20)
(0.334601 -0.271557 -4.17966e-19)
(0.379732 -0.255539 -1.75325e-19)
(0.420203 -0.239784 -1.35646e-20)
(0.4567 -0.225163 -4.39607e-19)
(0.489767 -0.211849 -1.35958e-19)
(0.51984 -0.199772 -6.21146e-20)
(0.547282 -0.188806 -2.02722e-19)