1.275 	2.15223e-18 	-2.76991e-20 	-0.229797 	0.00952594 	-3.21594e-22
1.825 	2.15223e-18 	-1.39322e-20 	-0.514842 	0.00408602 	5.14846e-21
2.375 	2.15223e-18 	-2.66896e-23 	-0.394209 	-0.00274004 	-2.11323e-21
