/*--------------------------------*- C++ -*----------------------------------*\
  =========                 |
  \\      /  F ield         | OpenFOAM: The Open Source CFD Toolbox
   \\    /   O peration     | Website:  https://openfoam.org
    \\  /    A nd           | Version:  6.0
     \\/     M anipulation  |
\*---------------------------------------------------------------------------*/
FoamFile
{
    version     2.0;
    format      ascii;
    class       volScalarField;
    location    "97";
    object      p;
}
// * * * * * * * * * * * * * * * * * * * * * * * * * * * * * * * * * * * * * //

dimensions      [0 2 -2 0 0 0 0];

internalField   nonuniform List<scalar> 
8000
(
-0.400572
-0.402129
-0.40285
-0.403114
-0.403193
-0.403181
-0.403144
-0.403127
-0.40315
-0.403223
-0.40335
-0.403535
-0.403781
-0.404091
-0.404471
-0.404936
-0.405484
-0.405984
-0.406341
-0.407881
-0.398374
-0.399388
-0.399778
-0.399797
-0.399648
-0.399423
-0.399192
-0.399007
-0.398896
-0.398878
-0.398964
-0.399161
-0.399475
-0.39991
-0.400469
-0.401165
-0.401994
-0.402821
-0.403526
-0.405432
-0.396422
-0.396914
-0.396984
-0.396765
-0.396395
-0.395961
-0.395537
-0.395177
-0.39492
-0.394791
-0.394808
-0.394983
-0.395325
-0.395838
-0.396526
-0.397399
-0.398454
-0.399558
-0.400563
-0.402779
-0.394598
-0.394612
-0.394382
-0.393936
-0.393353
-0.392712
-0.39209
-0.391545
-0.391125
-0.390861
-0.390778
-0.390894
-0.391221
-0.391768
-0.392537
-0.393537
-0.394769
-0.396104
-0.397371
-0.399849
-0.392808
-0.392405
-0.391905
-0.391247
-0.390457
-0.38961
-0.388782
-0.388038
-0.387431
-0.387003
-0.386786
-0.386804
-0.387074
-0.387607
-0.388409
-0.38949
-0.390852
-0.392376
-0.393871
-0.396572
-0.390982
-0.390238
-0.389504
-0.388651
-0.387662
-0.386607
-0.385563
-0.3846
-0.383782
-0.383157
-0.382768
-0.382645
-0.382811
-0.383283
-0.38407
-0.385185
-0.386633
-0.388307
-0.389999
-0.392893
-0.389075
-0.388075
-0.387151
-0.386122
-0.384942
-0.383676
-0.382403
-0.381201
-0.380142
-0.379286
-0.378684
-0.378375
-0.37839
-0.378751
-0.379474
-0.380573
-0.382062
-0.383846
-0.385707
-0.388773
-0.387071
-0.385905
-0.384834
-0.383651
-0.382288
-0.380808
-0.379295
-0.377833
-0.376504
-0.375381
-0.374525
-0.373984
-0.373798
-0.373997
-0.374603
-0.375638
-0.37712
-0.378972
-0.380976
-0.384202
-0.384973
-0.383733
-0.382563
-0.381246
-0.379709
-0.378014
-0.376249
-0.374507
-0.372883
-0.37146
-0.37031
-0.369493
-0.369058
-0.369043
-0.36948
-0.370397
-0.371824
-0.373698
-0.375817
-0.379199
-0.382811
-0.381583
-0.380359
-0.378929
-0.377226
-0.375316
-0.373292
-0.371257
-0.369316
-0.367566
-0.36609
-0.364959
-0.364231
-0.363955
-0.36417
-0.364916
-0.366234
-0.368082
-0.370281
-0.373823
-0.380634
-0.379498
-0.378258
-0.376733
-0.374874
-0.372751
-0.370464
-0.368129
-0.365861
-0.363768
-0.361946
-0.360473
-0.35942
-0.358842
-0.358789
-0.359312
-0.360464
-0.362226
-0.364459
-0.36816
-0.378512
-0.377532
-0.376308
-0.374704
-0.372697
-0.370366
-0.367821
-0.365187
-0.362593
-0.360156
-0.357981
-0.356158
-0.354763
-0.353859
-0.353504
-0.353757
-0.354685
-0.35629
-0.358479
-0.362311
-0.376532
-0.375757
-0.374569
-0.372895
-0.370748
-0.368218
-0.365425
-0.362507
-0.359602
-0.356837
-0.354325
-0.352164
-0.350433
-0.349201
-0.348528
-0.348478
-0.349124
-0.350482
-0.352506
-0.356369
-0.3748
-0.374256
-0.373114
-0.371373
-0.369093
-0.366376
-0.363355
-0.360177
-0.356991
-0.353932
-0.351121
-0.348657
-0.346624
-0.345088
-0.344107
-0.343738
-0.344052
-0.345058
-0.346728
-0.350411
-0.373436
-0.373121
-0.372021
-0.370214
-0.367807
-0.364919
-0.361695
-0.358294
-0.354871
-0.35157
-0.348515
-0.345808
-0.343529
-0.341739
-0.340483
-0.339803
-0.339743
-0.340281
-0.341348
-0.344493
-0.372566
-0.372454
-0.371379
-0.3695
-0.366973
-0.363935
-0.360541
-0.35696
-0.353355
-0.349875
-0.346644
-0.343765
-0.341313
-0.339334
-0.337855
-0.336882
-0.336418
-0.336374
-0.336559
-0.338683
-0.372318
-0.372353
-0.371276
-0.369315
-0.366675
-0.363507
-0.359981
-0.35627
-0.352543
-0.34895
-0.345617
-0.342639
-0.340084
-0.33798
-0.336323
-0.335075
-0.334177
-0.333455
-0.332529
-0.333115
-0.372807
-0.372912
-0.371791
-0.369735
-0.366987
-0.363714
-0.360091
-0.3563
-0.352508
-0.348865
-0.345492
-0.342478
-0.339875
-0.337689
-0.33588
-0.334356
-0.33298
-0.331487
-0.329285
-0.327867
-0.374129
-0.374204
-0.372991
-0.370822
-0.367968
-0.364607
-0.360921
-0.35709
-0.353281
-0.349637
-0.346273
-0.343265
-0.34065
-0.338412
-0.336476
-0.334694
-0.332844
-0.330535
-0.326902
-0.323047
-0.376351
-0.376286
-0.374923
-0.372616
-0.369649
-0.36621
-0.362481
-0.35864
-0.354845
-0.351232
-0.347902
-0.344923
-0.342317
-0.340058
-0.338064
-0.336188
-0.334198
-0.331643
-0.327407
-0.322183
-0.379507
-0.379184
-0.377609
-0.37513
-0.372035
-0.368514
-0.36475
-0.360909
-0.357141
-0.353565
-0.350272
-0.347315
-0.344708
-0.342429
-0.34042
-0.338604
-0.336909
-0.335275
-0.333861
-0.336325
-0.383603
-0.382909
-0.381051
-0.378359
-0.375106
-0.371488
-0.367679
-0.363833
-0.360082
-0.35653
-0.353248
-0.350274
-0.347612
-0.345238
-0.343108
-0.341177
-0.339425
-0.337888
-0.336775
-0.337989
-0.388624
-0.387452
-0.385241
-0.382286
-0.378838
-0.375093
-0.371215
-0.367341
-0.363581
-0.360017
-0.356697
-0.35364
-0.350836
-0.348254
-0.345856
-0.343604
-0.341488
-0.339524
-0.337834
-0.337004
-0.394544
-0.392799
-0.390167
-0.386894
-0.383207
-0.379297
-0.375316
-0.371378
-0.367565
-0.363932
-0.3605
-0.357264
-0.354201
-0.351271
-0.348435
-0.345658
-0.342924
-0.340225
-0.337639
-0.335168
-0.401339
-0.398939
-0.395821
-0.392179
-0.388206
-0.38409
-0.379964
-0.375912
-0.371984
-0.3682
-0.364553
-0.361016
-0.35755
-0.354115
-0.350675
-0.347205
-0.343691
-0.340125
-0.336573
-0.332795
-0.408995
-0.405868
-0.402208
-0.398151
-0.393848
-0.389483
-0.38516
-0.38093
-0.376801
-0.372757
-0.368763
-0.364772
-0.360744
-0.356644
-0.352454
-0.348166
-0.34379
-0.339335
-0.334871
-0.330147
-0.417507
-0.413594
-0.409345
-0.404834
-0.400164
-0.395502
-0.390921
-0.386425
-0.381981
-0.377536
-0.373032
-0.368418
-0.36366
-0.358747
-0.353686
-0.348502
-0.343229
-0.337907
-0.332604
-0.327132
-0.42688
-0.422128
-0.417256
-0.412262
-0.407187
-0.402175
-0.397255
-0.39238
-0.387474
-0.382455
-0.377256
-0.371837
-0.36619
-0.360335
-0.354317
-0.348193
-0.342026
-0.335876
-0.329811
-0.323717
-0.437116
-0.431481
-0.425962
-0.420462
-0.414946
-0.409515
-0.404149
-0.398749
-0.3932
-0.387408
-0.381318
-0.374918
-0.368239
-0.361345
-0.354317
-0.347241
-0.340199
-0.333264
-0.326496
-0.319833
-0.448212
-0.441657
-0.435475
-0.42945
-0.423444
-0.417505
-0.411556
-0.405448
-0.399048
-0.392271
-0.385095
-0.377555
-0.369734
-0.361736
-0.353675
-0.345657
-0.337772
-0.330094
-0.32267
-0.315465
-0.46014
-0.452638
-0.445785
-0.439213
-0.432652
-0.426088
-0.419382
-0.412355
-0.404878
-0.396902
-0.388462
-0.379654
-0.370613
-0.36148
-0.352392
-0.34346
-0.334772
-0.326392
-0.318348
-0.310615
-0.472845
-0.464379
-0.456852
-0.449701
-0.442499
-0.435157
-0.427489
-0.419308
-0.410521
-0.401148
-0.391297
-0.381131
-0.370829
-0.360562
-0.350472
-0.340667
-0.33122
-0.322177
-0.313547
-0.305302
-0.486235
-0.476804
-0.4686
-0.460824
-0.452863
-0.444555
-0.435691
-0.426111
-0.415796
-0.404856
-0.393486
-0.381909
-0.370342
-0.358966
-0.347917
-0.337287
-0.327128
-0.317465
-0.308281
-0.299548
-0.500177
-0.489793
-0.480909
-0.472439
-0.463571
-0.454079
-0.443767
-0.432548
-0.42051
-0.407875
-0.39492
-0.381921
-0.369114
-0.356674
-0.344721
-0.333319
-0.322498
-0.312259
-0.302556
-0.293368
-0.514492
-0.503185
-0.493611
-0.484356
-0.474398
-0.463481
-0.451467
-0.438389
-0.424475
-0.410061
-0.3955
-0.381103
-0.367105
-0.353662
-0.340865
-0.328751
-0.31732
-0.30655
-0.296368
-0.286764
-0.528957
-0.516772
-0.506491
-0.496332
-0.485075
-0.472479
-0.458522
-0.443403
-0.427505
-0.411278
-0.395132
-0.379389
-0.364268
-0.349894
-0.336322
-0.323556
-0.31157
-0.300319
-0.2897
-0.279729
-0.543303
-0.530302
-0.519284
-0.508076
-0.495293
-0.480767
-0.464656
-0.44736
-0.429426
-0.411399
-0.393724
-0.376713
-0.360552
-0.345326
-0.331051
-0.317698
-0.305215
-0.293535
-0.282526
-0.272241
-0.557222
-0.543477
-0.531681
-0.519259
-0.504714
-0.488026
-0.469595
-0.450044
-0.430074
-0.410304
-0.391186
-0.373004
-0.355897
-0.339905
-0.325003
-0.311131
-0.298213
-0.286159
-0.27481
-0.26427
-0.570369
-0.555962
-0.543333
-0.529516
-0.512981
-0.493939
-0.473076
-0.45125
-0.429298
-0.40788
-0.387431
-0.368188
-0.350238
-0.333571
-0.318124
-0.303804
-0.290517
-0.278148
-0.266515
-0.255783
-0.582371
-0.567391
-0.553863
-0.538467
-0.519737
-0.498195
-0.474853
-0.450793
-0.426958
-0.404019
-0.382371
-0.362191
-0.343508
-0.326263
-0.310355
-0.295664
-0.282076
-0.269455
-0.257598
-0.246739
-0.592834
-0.577373
-0.562873
-0.545721
-0.524631
-0.500506
-0.474702
-0.448506
-0.422928
-0.398622
-0.375922
-0.354938
-0.335638
-0.317916
-0.301637
-0.286656
-0.272841
-0.260035
-0.248017
-0.237099
-0.601355
-0.585507
-0.569958
-0.550896
-0.527329
-0.500607
-0.472424
-0.444239
-0.417094
-0.391595
-0.368004
-0.346356
-0.326561
-0.30847
-0.291913
-0.276728
-0.262764
-0.249844
-0.237732
-0.226827
-0.607532
-0.591389
-0.574722
-0.553627
-0.52753
-0.498264
-0.467847
-0.437865
-0.409356
-0.382855
-0.358541
-0.336377
-0.316215
-0.297866
-0.281132
-0.265832
-0.251802
-0.238842
-0.226708
-0.21589
-0.610978
-0.594631
-0.576787
-0.55358
-0.524966
-0.493279
-0.460825
-0.429275
-0.399626
-0.372327
-0.347468
-0.32494
-0.304544
-0.286053
-0.269247
-0.253927
-0.239918
-0.226996
-0.214915
-0.204261
-0.611329
-0.594867
-0.575806
-0.550463
-0.519413
-0.48549
-0.451244
-0.418382
-0.387834
-0.359949
-0.334728
-0.311994
-0.2915
-0.27299
-0.256221
-0.24098
-0.227082
-0.214281
-0.202333
-0.19192
-0.608257
-0.591765
-0.571477
-0.544028
-0.51069
-0.474774
-0.439016
-0.405121
-0.373925
-0.345672
-0.320276
-0.297497
-0.277047
-0.258642
-0.242023
-0.226966
-0.213273
-0.20068
-0.188949
-0.178856
-0.601477
-0.585042
-0.563545
-0.534081
-0.498665
-0.461043
-0.424085
-0.389449
-0.357862
-0.329462
-0.30408
-0.281419
-0.261158
-0.242988
-0.226635
-0.211868
-0.198478
-0.186184
-0.174756
-0.165064
-0.590759
-0.574467
-0.551815
-0.520484
-0.483254
-0.444252
-0.406422
-0.371345
-0.339628
-0.311302
-0.286123
-0.263746
-0.243818
-0.226014
-0.210048
-0.195682
-0.182695
-0.170792
-0.159759
-0.150548
-0.575929
-0.559867
-0.536153
-0.503157
-0.464422
-0.424392
-0.38603
-0.350814
-0.319223
-0.29119
-0.266402
-0.244473
-0.225026
-0.207721
-0.192264
-0.17841
-0.165932
-0.154518
-0.143972
-0.135322
-0.556879
-0.541138
-0.516487
-0.482076
-0.44218
-0.40149
-0.36294
-0.327882
-0.296671
-0.269144
-0.24493
-0.223612
-0.204791
-0.188118
-0.173293
-0.160067
-0.148204
-0.137382
-0.127422
-0.119416
-0.533566
-0.51824
-0.492813
-0.457274
-0.416585
-0.375611
-0.337212
-0.302602
-0.272012
-0.245197
-0.221736
-0.201186
-0.183134
-0.167225
-0.153154
-0.140672
-0.129536
-0.119413
-0.110147
-0.102876
-0.506013
-0.491199
-0.465187
-0.428838
-0.387739
-0.346854
-0.308935
-0.275049
-0.24531
-0.219402
-0.196863
-0.17723
-0.160085
-0.145067
-0.131871
-0.120248
-0.10995
-0.100639
-0.0921841
-0.0857474
-0.474312
-0.460111
-0.433728
-0.396909
-0.355785
-0.315354
-0.278228
-0.245324
-0.216651
-0.19183
-0.170369
-0.151794
-0.135684
-0.121676
-0.109471
-0.0988189
-0.0894689
-0.0810875
-0.0735643
-0.0680468
-0.438619
-0.425133
-0.398613
-0.361674
-0.320906
-0.281277
-0.245237
-0.213554
-0.186142
-0.16257
-0.142329
-0.124936
-0.109975
-0.0970879
-0.0859799
-0.0764046
-0.0681129
-0.0607816
-0.0543062
-0.0497495
-0.39915
-0.386484
-0.360073
-0.323366
-0.283323
-0.244824
-0.210137
-0.179892
-0.153914
-0.131735
-0.112832
-0.0967283
-0.0830118
-0.0713377
-0.0614198
-0.0530197
-0.0458967
-0.0397391
-0.0344194
-0.0308548
-0.356179
-0.344435
-0.318385
-0.282259
-0.243291
-0.206223
-0.173134
-0.144516
-0.120122
-0.0994559
-0.0819909
-0.0672578
-0.0548594
-0.044467
-0.0358118
-0.0286696
-0.0228133
-0.0179488
-0.0139248
-0.0115407
-0.310032
-0.299311
-0.273874
-0.238663
-0.201098
-0.165735
-0.134458
-0.107632
-0.0849491
-0.0658912
-0.0499368
-0.0366306
-0.0255958
-0.0165289
-0.009187
-0.00336306
0.00115239
0.00459157
0.0070262
0.00771254
-0.261077
-0.251475
-0.226897
-0.192921
-0.157058
-0.123646
-0.0943692
-0.0694751
-0.0486033
-0.0312228
-0.0168207
-0.00496056
0.00470668
0.0124481
0.0184696
0.0229565
0.0260741
0.0278561
0.0281086
0.0264811
-0.209723
-0.201329
-0.177847
-0.145401
-0.111512
-0.0802689
-0.0531549
-0.0303104
-0.0113288
0.00433013
0.0171721
0.0276168
0.0359874
0.0425135
0.0473627
0.0506897
0.0525346
0.0524928
0.0499881
0.0461171
-0.156406
-0.149303
-0.127138
-0.0964924
-0.0648207
-0.0359358
-0.011127
0.0095656
0.0265879
0.0404894
0.0517737
0.0608564
0.0680565
0.0736024
0.0776772
0.080455
0.0818367
0.0808918
0.0768361
0.0727745
-0.10159
-0.0958481
-0.0752019
-0.046599
-0.0173555
0.00900673
0.0313872
0.0498356
0.0648297
0.0769245
0.0866219
0.0943397
0.10041
0.105103
0.108687
0.111468
0.113411
0.113462
0.111358
0.115883
-0.0457411
-0.0414233
-0.0224781
0.0038702
0.0305055
0.0542076
0.0740563
0.0901801
0.10308
0.113308
0.121359
0.127641
0.132484
0.136168
0.138979
0.141201
0.142817
0.143331
0.14371
0.150456
0.010656
0.0134998
0.0305874
0.0545035
0.0783847
0.099318
0.116554
0.130288
0.141036
0.149346
0.155696
0.160485
0.164034
0.16662
0.168515
0.169956
0.170923
0.17111
0.171486
0.177002
0.0671176
0.068451
0.083552
0.104894
0.125911
0.143997
0.158563
0.16986
0.178414
0.184756
0.189348
0.192569
0.194727
0.196084
0.196889
0.197354
0.197474
0.19702
0.196781
0.200669
0.123164
0.122965
0.13598
0.154645
0.172723
0.187917
0.199782
0.20862
0.214954
0.219301
0.222099
0.223705
0.224406
0.224443
0.224037
0.223368
0.22242
0.22099
0.219803
0.222185
0.178326
0.176586
0.187447
0.203368
0.218473
0.230761
0.239926
0.246305
0.250419
0.252763
0.253752
0.253719
0.252928
0.251598
0.249925
0.24806
0.245971
0.243478
0.241269
0.24221
0.232145
0.228873
0.237541
0.250694
0.262827
0.272231
0.278722
0.282672
0.284589
0.284949
0.284139
0.282468
0.280178
0.277466
0.274504
0.271417
0.268164
0.264592
0.26136
0.260944
0.284181
0.279399
0.285871
0.296267
0.305468
0.312042
0.315917
0.317491
0.317261
0.315677
0.313103
0.309822
0.306056
0.301979
0.297743
0.293453
0.289058
0.284438
0.280212
0.278508
0.334012
0.327761
0.332062
0.339751
0.346094
0.349923
0.351269
0.350547
0.348241
0.344778
0.340496
0.335656
0.330458
0.325057
0.319588
0.314133
0.308645
0.303026
0.297849
0.294926
0.38124
0.373574
0.375762
0.380828
0.384422
0.385622
0.38455
0.381635
0.377349
0.372091
0.366179
0.359849
0.353283
0.346619
0.339973
0.333413
0.326893
0.320337
0.31426
0.310186
0.425491
0.416478
0.416638
0.419202
0.420186
0.4189
0.415546
0.410565
0.404411
0.397464
0.390014
0.382281
0.374427
0.366575
0.358824
0.35123
0.34375
0.336324
0.329403
0.324252
0.466416
0.456141
0.454386
0.454597
0.453141
0.449537
0.44406
0.437158
0.429269
0.42075
0.411873
0.402837
0.393788
0.384835
0.376061
0.367512
0.35915
0.350927
0.343225
0.337075
0.503694
0.492255
0.488723
0.48676
0.483058
0.477328
0.469907
0.461246
0.451769
0.441814
0.431632
0.421406
0.411266
0.401308
0.391603
0.382186
0.373026
0.364081
0.355665
0.348601
0.537036
0.524543
0.519395
0.515462
0.509733
0.502089
0.492918
0.482677
0.471775
0.46053
0.449177
0.437883
0.426766
0.415908
0.405369
0.395178
0.385307
0.375721
0.366663
0.358777
0.566182
0.552757
0.546175
0.540499
0.532983
0.523652
0.512944
0.501315
0.489161
0.476784
0.464403
0.452173
0.440199
0.428552
0.417284
0.406417
0.395926
0.385782
0.37616
0.367551
0.590906
0.576681
0.568864
0.561692
0.552644
0.541873
0.529852
0.517038
0.503815
0.490473
0.477217
0.464189
0.451485
0.439168
0.42728
0.415838
0.404823
0.394205
0.384103
0.374878
0.611015
0.596131
0.587295
0.578888
0.568582
0.556627
0.543528
0.529742
0.515643
0.50151
0.487536
0.473855
0.460555
0.44769
0.435296
0.423386
0.411944
0.40094
0.390444
0.380716
0.62635
0.610955
0.601327
0.591964
0.580682
0.567811
0.553879
0.539341
0.524566
0.509822
0.495295
0.481111
0.467351
0.454065
0.441282
0.429013
0.417243
0.405944
0.395145
0.385033
0.636791
0.621037
0.610856
0.600822
0.588857
0.575346
0.560831
0.545769
0.530523
0.515353
0.500441
0.485907
0.471828
0.45825
0.445198
0.43268
0.420686
0.409182
0.398174
0.387801
0.64225
0.626296
0.615804
0.605395
0.593047
0.579176
0.564334
0.548979
0.533469
0.518062
0.502936
0.488208
0.473953
0.460215
0.447015
0.434363
0.422246
0.410632
0.399512
0.389003
0.642678
0.626683
0.616129
0.605643
0.593215
0.579268
0.564359
0.548943
0.53338
0.517926
0.502759
0.487995
0.473708
0.459942
0.446719
0.434045
0.42191
0.410279
0.399144
0.388628
0.638063
0.622188
0.611821
0.601557
0.589352
0.575616
0.560897
0.545655
0.530249
0.51494
0.499905
0.485263
0.471089
0.457428
0.444304
0.431724
0.419674
0.408121
0.39707
0.386674
0.628431
0.612835
0.602901
0.593156
0.581478
0.568234
0.553965
0.539129
0.52409
0.509115
0.494384
0.480021
0.466105
0.452682
0.439779
0.427406
0.415546
0.404164
0.393295
0.383145
0.613843
0.598681
0.589423
0.58049
0.569634
0.557163
0.543597
0.529397
0.514934
0.500479
0.486224
0.472296
0.458778
0.445724
0.433165
0.421112
0.409544
0.398426
0.387834
0.378056
0.594397
0.57982
0.571472
0.563634
0.553892
0.542466
0.529853
0.516514
0.502828
0.489079
0.475466
0.462125
0.449146
0.43659
0.424494
0.412871
0.401697
0.390936
0.380713
0.371427
0.570227
0.556381
0.549165
0.542694
0.534346
0.52423
0.512811
0.500551
0.487841
0.474976
0.462167
0.449561
0.437258
0.425325
0.413807
0.402724
0.392044
0.381729
0.371965
0.363286
0.541502
0.528525
0.522651
0.517805
0.511117
0.502564
0.492571
0.481601
0.470055
0.458246
0.446398
0.434671
0.423174
0.411986
0.40116
0.390721
0.380633
0.370852
0.361632
0.35367
0.508427
0.496444
0.492107
0.489125
0.484348
0.477597
0.469252
0.45977
0.449571
0.438981
0.428243
0.417531
0.406966
0.396638
0.386612
0.376919
0.367517
0.358356
0.349761
0.34262
0.471235
0.460366
0.457738
0.45684
0.454207
0.449482
0.442989
0.435184
0.4265
0.417285
0.407797
0.398228
0.388714
0.379356
0.370232
0.361383
0.352759
0.344301
0.336406
0.330182
0.430197
0.420545
0.41978
0.421161
0.420883
0.418389
0.413939
0.407984
0.400972
0.393273
0.385165
0.376858
0.368505
0.360219
0.352094
0.344179
0.336421
0.328746
0.321623
0.316405
0.385609
0.377267
0.378495
0.382324
0.384585
0.384506
0.382271
0.378322
0.373125
0.367071
0.360461
0.353525
0.34643
0.33931
0.332271
0.325376
0.318566
0.31175
0.305466
0.301337
0.337799
0.330845
0.334168
0.340585
0.345546
0.348042
0.348172
0.346368
0.343111
0.338815
0.333806
0.328334
0.322587
0.316712
0.310837
0.305038
0.299253
0.293369
0.287983
0.285021
0.287122
0.281619
0.287113
0.296224
0.304015
0.309219
0.311842
0.312301
0.31109
0.308649
0.305327
0.301398
0.297069
0.292509
0.287861
0.283221
0.278528
0.273641
0.269209
0.267488
0.233956
0.229953
0.237663
0.249544
0.260261
0.26828
0.273499
0.276314
0.277235
0.276724
0.275157
0.27283
0.269973
0.266774
0.263399
0.259966
0.256417
0.252582
0.249149
0.248744
0.178705
0.176234
0.186177
0.200863
0.214571
0.225479
0.233371
0.238614
0.24173
0.243203
0.243436
0.242749
0.241394
0.239582
0.237502
0.235297
0.232921
0.230171
0.22777
0.228754
0.121793
0.120872
0.133031
0.150524
0.16725
0.181092
0.191704
0.199421
0.20477
0.208259
0.210313
0.211278
0.211428
0.210995
0.210194
0.209198
0.207975
0.206297
0.204928
0.20739
0.0636622
0.0642916
0.0786205
0.0988832
0.118619
0.135407
0.14876
0.15897
0.166568
0.17208
0.175953
0.178556
0.180184
0.181091
0.18152
0.181675
0.181535
0.180838
0.180421
0.18443
0.00477
0.00693678
0.0233575
0.0463146
0.0690164
0.0887304
0.104817
0.117517
0.127358
0.134878
0.140548
0.144752
0.147802
0.149965
0.151506
0.152657
0.153377
0.153326
0.153526
0.159218
-0.0544147
-0.0507389
-0.0323338
-0.00679446
0.018793
0.0413827
0.0601699
0.0753344
0.0873906
0.0968884
0.104311
0.110055
0.11444
0.117736
0.120223
0.122183
0.123576
0.12386
0.124044
0.130978
-0.113416
-0.108274
-0.0880203
-0.0600463
-0.0316874
-0.00630156
0.0151307
0.0327166
0.0469523
0.0583917
0.0675286
0.0747696
0.0804361
0.084786
0.0880833
0.0906262
0.0923573
0.09215
0.089737
0.0943307
-0.171755
-0.165203
-0.143263
-0.113036
-0.0820536
-0.0539782
-0.0299771
-0.0100265
0.00634305
0.0196832
0.0304906
0.0391707
0.0460305
0.0512862
0.0551095
0.0576615
0.0588175
0.0576171
0.0532982
0.0489217
-0.228966
-0.22107
-0.197628
-0.16536
-0.131932
-0.101299
-0.0748238
-0.0525753
-0.0341181
-0.0189057
-0.0064367
0.00369996
0.0118177
0.0181363
0.0228149
0.0259981
0.027712
0.0275523
0.0249749
0.0210088
-0.284585
-0.275423
-0.250683
-0.216617
-0.180952
-0.14792
-0.119082
-0.0946109
-0.0741106
-0.057039
-0.0428836
-0.0312138
-0.0216871
-0.0140429
-0.00808017
-0.00361865
-0.000498206
0.00132046
0.00165829
0.000122907
-0.338168
-0.327827
-0.302013
-0.266419
-0.228755
-0.193507
-0.162438
-0.135835
-0.113345
-0.0944357
-0.0785808
-0.0653275
-0.0543034
-0.045209
-0.0378049
-0.0318872
-0.0272469
-0.0236463
-0.0210254
-0.0201947
-0.389298
-0.377874
-0.351222
-0.314394
-0.274999
-0.237746
-0.204604
-0.175979
-0.151576
-0.130875
-0.113342
-0.0985066
-0.0859737
-0.075417
-0.0665706
-0.0592126
-0.0531138
-0.0479726
-0.0436629
-0.0410912
-0.43759
-0.425184
-0.397941
-0.360194
-0.319366
-0.280349
-0.245316
-0.214806
-0.188591
-0.166171
-0.147013
-0.130634
-0.116622
-0.104633
-0.0943828
-0.0856345
-0.0781439
-0.071589
-0.065868
-0.0620234
-0.4827
-0.469418
-0.441835
-0.4035
-0.361561
-0.321051
-0.284339
-0.252107
-0.224203
-0.200163
-0.179458
-0.161601
-0.146167
-0.132802
-0.121208
-0.111141
-0.102348
-0.0944922
-0.0874934
-0.0825364
-0.524328
-0.510279
-0.482605
-0.444026
-0.401322
-0.359616
-0.321464
-0.287696
-0.258253
-0.232713
-0.210564
-0.191316
-0.174543
-0.159881
-0.147026
-0.135731
-0.125738
-0.116701
-0.108532
-0.102494
-0.562226
-0.547518
-0.519998
-0.481523
-0.438416
-0.395837
-0.356508
-0.321416
-0.290605
-0.263707
-0.240235
-0.219706
-0.201694
-0.185832
-0.171814
-0.159388
-0.148299
-0.138197
-0.128972
-0.121897
-0.596202
-0.580943
-0.553808
-0.515781
-0.472646
-0.429535
-0.389316
-0.353133
-0.321145
-0.293049
-0.268392
-0.246706
-0.22757
-0.210617
-0.19554
-0.182086
-0.170004
-0.158947
-0.148782
-0.140749
-0.626123
-0.610416
-0.58388
-0.546633
-0.50385
-0.460563
-0.419761
-0.382739
-0.34978
-0.320661
-0.29497
-0.272263
-0.252126
-0.234197
-0.21817
-0.203793
-0.190821
-0.178914
-0.167915
-0.159013
-0.651917
-0.635864
-0.610114
-0.573961
-0.531903
-0.488807
-0.447741
-0.410148
-0.37644
-0.346484
-0.31992
-0.296333
-0.275323
-0.256538
-0.239673
-0.224478
-0.210716
-0.198057
-0.186321
-0.176629
-0.673573
-0.65727
-0.632469
-0.597693
-0.556722
-0.514183
-0.473182
-0.435298
-0.401074
-0.370475
-0.343206
-0.318885
-0.297135
-0.277613
-0.260021
-0.244112
-0.229655
-0.216336
-0.203952
-0.193543
-0.691143
-0.674683
-0.65096
-0.617808
-0.578261
-0.536639
-0.496038
-0.458149
-0.423649
-0.39261
-0.364806
-0.339902
-0.317544
-0.297404
-0.279194
-0.262671
-0.247613
-0.23372
-0.220771
-0.209714
-0.704739
-0.688211
-0.665661
-0.634337
-0.596519
-0.556159
-0.516288
-0.478684
-0.444153
-0.412879
-0.384716
-0.359377
-0.336543
-0.315905
-0.297183
-0.280144
-0.264573
-0.250188
-0.236754
-0.225116
-0.714529
-0.698019
-0.676705
-0.647361
-0.611537
-0.572759
-0.533939
-0.49691
-0.462596
-0.431294
-0.402944
-0.377321
-0.354141
-0.333118
-0.313989
-0.296527
-0.280528
-0.265729
-0.251884
-0.239735
-0.720733
-0.704326
-0.684276
-0.657015
-0.623398
-0.58649
-0.549026
-0.512855
-0.479002
-0.447878
-0.419517
-0.393757
-0.370357
-0.349061
-0.329624
-0.311828
-0.295481
-0.280341
-0.266155
-0.253561
-0.723619
-0.707397
-0.688611
-0.663479
-0.63223
-0.597438
-0.561608
-0.526566
-0.493416
-0.462675
-0.434473
-0.40872
-0.385224
-0.363763
-0.344111
-0.326066
-0.309447
-0.294033
-0.279573
-0.266597
-0.723489
-0.707536
-0.689989
-0.666981
-0.638199
-0.605719
-0.571771
-0.538113
-0.505898
-0.475741
-0.447866
-0.42226
-0.398787
-0.377262
-0.357485
-0.33927
-0.32245
-0.306824
-0.292149
-0.278853
-0.720678
-0.705078
-0.688724
-0.667789
-0.641512
-0.611485
-0.579628
-0.547584
-0.516524
-0.487145
-0.459761
-0.434438
-0.411102
-0.389609
-0.369791
-0.35148
-0.334524
-0.318743
-0.303906
-0.290346
-0.715541
-0.700376
-0.685158
-0.666201
-0.642408
-0.614917
-0.585314
-0.555085
-0.525385
-0.496968
-0.470233
-0.445326
-0.422236
-0.400867
-0.381085
-0.362744
-0.345711
-0.329826
-0.314876
-0.301103
-0.708444
-0.693797
-0.679649
-0.662545
-0.641159
-0.616224
-0.588987
-0.560739
-0.532582
-0.505302
-0.479368
-0.455004
-0.432264
-0.411105
-0.39143
-0.373121
-0.356062
-0.340118
-0.325096
-0.311158
-0.699753
-0.685701
-0.672557
-0.657159
-0.638057
-0.615642
-0.590827
-0.564686
-0.538229
-0.512245
-0.487257
-0.463558
-0.441268
-0.4204
-0.400897
-0.382675
-0.365637
-0.349672
-0.334612
-0.320551
-0.689823
-0.676442
-0.664238
-0.650388
-0.63341
-0.613422
-0.591032
-0.567079
-0.54245
-0.517904
-0.493997
-0.471079
-0.449335
-0.428834
-0.409565
-0.391478
-0.3745
-0.358545
-0.343474
-0.329324
-0.678993
-0.66635
-0.65503
-0.642568
-0.627529
-0.609832
-0.589816
-0.568086
-0.545377
-0.52239
-0.499687
-0.477661
-0.456556
-0.436494
-0.417514
-0.399604
-0.382719
-0.366799
-0.351735
-0.337523
-0.667577
-0.655729
-0.645245
-0.634019
-0.620723
-0.605146
-0.587404
-0.567883
-0.54715
-0.525818
-0.504428
-0.483399
-0.46302
-0.443467
-0.424828
-0.407131
-0.390365
-0.374496
-0.35945
-0.345194
-0.655858
-0.644852
-0.635163
-0.625034
-0.613283
-0.599632
-0.584028
-0.566657
-0.547917
-0.528307
-0.508323
-0.488385
-0.468817
-0.44984
-0.431591
-0.414141
-0.397513
-0.381704
-0.366676
-0.352383
-0.644084
-0.633951
-0.625023
-0.61587
-0.605478
-0.59355
-0.579917
-0.564599
-0.547829
-0.529979
-0.511473
-0.492712
-0.474034
-0.455698
-0.437885
-0.42071
-0.404235
-0.388488
-0.373468
-0.359135
-0.632467
-0.623221
-0.615026
-0.606746
-0.597544
-0.587138
-0.575294
-0.561902
-0.547043
-0.530959
-0.51398
-0.496467
-0.478753
-0.461121
-0.44379
-0.426917
-0.410604
-0.394913
-0.379882
-0.365491
-0.621182
-0.612822
-0.605333
-0.597839
-0.589679
-0.580611
-0.57037
-0.558754
-0.545718
-0.531372
-0.515947
-0.499736
-0.483052
-0.466184
-0.449381
-0.432835
-0.416689
-0.401044
-0.385973
-0.371492
-0.610369
-0.602873
-0.596063
-0.589287
-0.582046
-0.574149
-0.56533
-0.555332
-0.544007
-0.531347
-0.517473
-0.502602
-0.487003
-0.470956
-0.454723
-0.438531
-0.422558
-0.406943
-0.391795
-0.37718
-0.600134
-0.593465
-0.587304
-0.58119
-0.574766
-0.567899
-0.56034
-0.551802
-0.542061
-0.531009
-0.51866
-0.505144
-0.490671
-0.475495
-0.459877
-0.444065
-0.428272
-0.41267
-0.397405
-0.382599
-0.590554
-0.584657
-0.57911
-0.573613
-0.567929
-0.561977
-0.555535
-0.548306
-0.540018
-0.530478
-0.519606
-0.507439
-0.494117
-0.479851
-0.464889
-0.449487
-0.433882
-0.418281
-0.402862
-0.387807
-0.581675
-0.576478
-0.571512
-0.566596
-0.561592
-0.556464
-0.551021
-0.544968
-0.538003
-0.529869
-0.520403
-0.509556
-0.497391
-0.484062
-0.469791
-0.454828
-0.439427
-0.423821
-0.408219
-0.392867
-0.573511
-0.568934
-0.564511
-0.56015
-0.555785
-0.551416
-0.546877
-0.541885
-0.53612
-0.529281
-0.521137
-0.51156
-0.500534
-0.488153
-0.474595
-0.460097
-0.444919
-0.429317
-0.413527
-0.397877
-0.566043
-0.562001
-0.558086
-0.554263
-0.550513
-0.546858
-0.543152
-0.539125
-0.53445
-0.528796
-0.521879
-0.513502
-0.503576
-0.49213
-0.479292
-0.465274
-0.450334
-0.434749
-0.418785
-0.402876
-0.559214
-0.555624
-0.552189
-0.548896
-0.545751
-0.542783
-0.539861
-0.536724
-0.533043
-0.528468
-0.522678
-0.515417
-0.506533
-0.495985
-0.483848
-0.4703
-0.455595
-0.440033
-0.423937
-0.407961
-0.55293
-0.54972
-0.546743
-0.543981
-0.541441
-0.53915
-0.536979
-0.534675
-0.531908
-0.528317
-0.523554
-0.517319
-0.5094
-0.499692
-0.488211
-0.475089
-0.460566
-0.444969
-0.42872
-0.412855
-0.547058
-0.544175
-0.541641
-0.539418
-0.537492
-0.535877
-0.534439
-0.532925
-0.531005
-0.528315
-0.524485
-0.519184
-0.512148
-0.503209
-0.492315
-0.479537
-0.465072
-0.449242
-0.432632
-0.417228
-0.541436
-0.538848
-0.536756
-0.53508
-0.533778
-0.532842
-0.532123
-0.531364
-0.530238
-0.528375
-0.525396
-0.520944
-0.514713
-0.506477
-0.496107
-0.483592
-0.469039
-0.452629
-0.434856
-0.419062
-0.535878
-0.533584
-0.531938
-0.530817
-0.530145
-0.529883
-0.529867
-0.529832
-0.529448
-0.528347
-0.526144
-0.522467
-0.516979
-0.509399
-0.499521
-0.487227
-0.472472
-0.455143
-0.434714
-0.412956
-0.530196
-0.528221
-0.52703
-0.526465
-0.526416
-0.526814
-0.527473
-0.528121
-0.528427
-0.528023
-0.526528
-0.523563
-0.518772
-0.511847
-0.502536
-0.490667
-0.476164
-0.458967
-0.438681
-0.416983
-0.52421
-0.522604
-0.521879
-0.521859
-0.522411
-0.523432
-0.524721
-0.525996
-0.526926
-0.52715
-0.52629
-0.523971
-0.519835
-0.513563
-0.504891
-0.493632
-0.479713
-0.463079
-0.443402
-0.422719
-0.51777
-0.5166
-0.516347
-0.516847
-0.517954
-0.519541
-0.521389
-0.523213
-0.524685
-0.52545
-0.52514
-0.523386
-0.519839
-0.514178
-0.506135
-0.49552
-0.482248
-0.466213
-0.447113
-0.427584
-0.51077
-0.510107
-0.510328
-0.511304
-0.5129
-0.514969
-0.517283
-0.519555
-0.521464
-0.522664
-0.522799
-0.521513
-0.518465
-0.513341
-0.505879
-0.495893
-0.483301
-0.46796
-0.449646
-0.431492
-0.50316
-0.503071
-0.503752
-0.505145
-0.507144
-0.50959
-0.512253
-0.514852
-0.517074
-0.518586
-0.519047
-0.518115
-0.515464
-0.510795
-0.50386
-0.494494
-0.482634
-0.468127
-0.450876
-0.434296
-0.494953
-0.495489
-0.496603
-0.498339
-0.500638
-0.503342
-0.506225
-0.509015
-0.511414
-0.513104
-0.513763
-0.513066
-0.51071
-0.506416
-0.499963
-0.491222
-0.480156
-0.466633
-0.450702
-0.435841
-0.486229
-0.487414
-0.488919
-0.490913
-0.493403
-0.49624
-0.499208
-0.502052
-0.504491
-0.506229
-0.506961
-0.50639
-0.504238
-0.500259
-0.494265
-0.486175
-0.475989
-0.46361
-0.449219
-0.436167
-0.477126
-0.478953
-0.480793
-0.482956
-0.48553
-0.488378
-0.491305
-0.494077
-0.496434
-0.498102
-0.498805
-0.498274
-0.496264
-0.492569
-0.487046
-0.479661
-0.470455
-0.459371
-0.44668
-0.43546
-0.467834
-0.47026
-0.472368
-0.474613
-0.47717
-0.479925
-0.482704
-0.485299
-0.487476
-0.488989
-0.489591
-0.489049
-0.487157
-0.483751
-0.478737
-0.472127
-0.463992
-0.454313
-0.443399
-0.433969
-0.45857
-0.461519
-0.46382
-0.466069
-0.468526
-0.471103
-0.473653
-0.475997
-0.47793
-0.479237
-0.479704
-0.479138
-0.477373
-0.474289
-0.469837
-0.464064
-0.457062
-0.448831
-0.439675
-0.431939