/*--------------------------------*- C++ -*----------------------------------*\
  =========                 |
  \\      /  F ield         | OpenFOAM: The Open Source CFD Toolbox
   \\    /   O peration     | Website:  https://openfoam.org
    \\  /    A nd           | Version:  6.0
     \\/     M anipulation  |
\*---------------------------------------------------------------------------*/
FoamFile
{
    version     2.0;
    format      ascii;
    class       volVectorField;
    location    "97";
    object      U;
}
// * * * * * * * * * * * * * * * * * * * * * * * * * * * * * * * * * * * * * //

dimensions      [0 1 -1 0 0 0 0];

internalField   nonuniform List<vector> 
8000
(
(-0.0012154 0.015658 -5.29255e-21)
(-0.00559204 0.0502307 2.8242e-20)
(-0.0128394 0.0856219 -3.43306e-20)
(-0.0213117 0.119868 2.6115e-20)
(-0.0301553 0.151824 1.26886e-20)
(-0.0388419 0.181057 -3.80181e-20)
(-0.046928 0.207566 -3.36785e-21)
(-0.0540587 0.231545 -1.2194e-21)
(-0.0599751 0.253215 -1.96087e-20)
(-0.0645129 0.272739 -1.06251e-20)
(-0.0676012 0.29019 7.94169e-21)
(-0.0692545 0.305568 3.03109e-20)
(-0.0695591 0.31884 -2.29767e-21)
(-0.0686545 0.32998 3.20005e-21)
(-0.0667157 0.339006 -3.04517e-20)
(-0.0639517 0.346001 1.87552e-20)
(-0.0605782 0.351133 -2.69387e-20)
(-0.0566171 0.35465 4.07207e-20)
(-0.0518005 0.356888 -4.38657e-23)
(-0.047458 0.358294 8.76442e-21)
(-0.00161333 0.0172804 1.7465e-20)
(-0.00623102 0.0540638 -8.89091e-20)
(-0.0127962 0.0909278 -6.1247e-20)
(-0.0201362 0.126097 -4.15803e-20)
(-0.0276091 0.158512 -5.32255e-20)
(-0.0347979 0.187772 1.21029e-20)
(-0.0413469 0.213905 -6.13026e-20)
(-0.046965 0.237139 -1.37274e-20)
(-0.0514349 0.257759 4.45765e-21)
(-0.0546172 0.276003 4.61007e-20)
(-0.0564523 0.292035 -4.99604e-20)
(-0.0569562 0.305949 6.94145e-20)
(-0.0562096 0.317794 -5.19157e-20)
(-0.0543409 0.327614 -6.16256e-20)
(-0.0515102 0.335473 -8.51677e-20)
(-0.047908 0.341483 5.42978e-20)
(-0.0437365 0.345814 -1.75421e-20)
(-0.0390096 0.348712 -6.43133e-20)
(-0.0334035 0.350515 6.09015e-20)
(-0.0281999 0.351613 -4.4677e-20)
(-0.00209609 0.0182136 1.69321e-19)
(-0.00710922 0.056327 8.75532e-20)
(-0.0131329 0.0941401 9.82226e-20)
(-0.0194364 0.129942 8.07602e-21)
(-0.0255809 0.162688 5.40929e-20)
(-0.0312636 0.191971 6.80505e-20)
(-0.0362234 0.217808 -1.21677e-19)
(-0.0402422 0.24044 -6.47259e-20)
(-0.0431537 0.260187 -8.34218e-20)
(-0.0448507 0.277353 9.01989e-20)
(-0.0452903 0.292179 -6.85813e-20)
(-0.044493 0.304839 -8.75112e-20)
(-0.0425345 0.315461 -3.13456e-20)
(-0.0395323 0.324149 3.03117e-20)
(-0.0356314 0.331013 -8.6641e-21)
(-0.0310045 0.336183 1.23161e-20)
(-0.0258413 0.339832 1.42359e-19)
(-0.020154 0.342201 -1.95154e-20)
(-0.0135699 0.34363 -1.45176e-19)
(-0.0073011 0.344462 1.89116e-19)
(-0.00260458 0.0185103 5.81651e-20)
(-0.0081218 0.0571066 -8.32195e-20)
(-0.0137676 0.0953281 -2.06332e-20)
(-0.0191864 0.131433 3.81004e-20)
(-0.0241166 0.164345 1.0872e-19)
(-0.0283607 0.193608 2.37978e-19)
(-0.0317514 0.219201 2.31758e-19)
(-0.0341473 0.241353 1.86257e-20)
(-0.0354395 0.260398 1.41605e-19)
(-0.0355602 0.276682 2.16431e-19)
(-0.0344889 0.290508 -1.73772e-19)
(-0.0322546 0.302119 2.56303e-19)
(-0.0289309 0.31171 -5.72281e-20)
(-0.0246262 0.319442 1.4732e-20)
(-0.0194715 0.325462 6.09857e-20)
(-0.0136229 0.329922 8.11203e-20)
(-0.00725923 0.332995 -1.26794e-19)
(-0.00039633 0.334917 -1.06187e-19)
(0.00737755 0.336037 -1.89582e-19)
(0.0149401 0.336659 2.71539e-19)
(-0.00308923 0.018252 -3.06195e-20)
(-0.00917423 0.0565499 -3.10449e-19)
(-0.0146163 0.0946424 -9.11252e-20)
(-0.0193443 0.130692 -2.21778e-19)
(-0.0232328 0.163552 8.3404e-20)
(-0.026172 0.192701 -1.31508e-19)
(-0.0280797 0.218057 4.39672e-20)
(-0.0288899 0.23981 -2.76966e-19)
(-0.028554 0.25829 1.45095e-19)
(-0.0270484 0.273862 -1.73977e-19)
(-0.0243809 0.286872 -1.54906e-19)
(-0.0205943 0.297619 -1.72316e-19)
(-0.0157641 0.306352 1.57216e-19)
(-0.00999248 0.31328 -1.40193e-19)
(-0.00339906 0.318587 1.96478e-19)
(0.00387433 0.322446 5.71785e-20)
(0.0116583 0.325035 1.41628e-19)
(0.0199282 0.326584 6.32939e-20)
(0.0291225 0.327456 -2.47453e-19)
(0.0382244 0.327934 3.97331e-19)
(-0.00351377 0.0175417 1.32871e-19)
(-0.0101916 0.0548584 1.11694e-20)
(-0.0156055 0.0923048 5.4268e-20)
(-0.0198629 0.127914 1.89298e-19)
(-0.0229256 0.160459 -2.97518e-20)
(-0.024747 0.189338 3.04745e-19)
(-0.0253155 0.214396 1.33561e-19)
(-0.0246336 0.235774 1.0927e-20)
(-0.0227124 0.253772 3.43714e-19)
(-0.0195751 0.268757 1.12068e-19)
(-0.0152624 0.281099 5.26753e-20)
(-0.00983537 0.291132 1.69325e-19)
(-0.00337662 0.299148 1.55162e-19)
(0.00401393 0.305399 2.83801e-19)
(0.0122244 0.310099 -2.53684e-19)
(0.0211246 0.313443 3.60622e-19)
(0.0305525 0.315617 5.19287e-21)
(0.0404704 0.31685 -4.64482e-19)
(0.051328 0.317532 6.0371e-19)
(0.0622214 0.317941 2.47052e-19)
(-0.00385798 0.0164948 -7.87624e-20)
(-0.0111258 0.0522686 -1.4021e-19)
(-0.016681 0.0885903 -2.9078e-19)
(-0.0207 0.123363 -8.18902e-21)
(-0.0231793 0.155282 4.79789e-20)
(-0.024108 0.183672 -3.68125e-19)
(-0.0235266 0.208305 -2.71886e-19)
(-0.0214957 0.229257 -3.91171e-20)
(-0.0180812 0.246789 -3.42341e-19)
(-0.013353 0.261252 -2.36028e-19)
(-0.00738668 0.273018 -6.87925e-20)
(-0.000266319 0.282442 -2.21159e-19)
(0.00791452 0.289844 -3.25765e-21)
(0.0170538 0.295504 -2.93587e-19)
(0.0270437 0.299669 1.25139e-19)
(0.0377623 0.302552 -1.42328e-19)
(0.0490534 0.304352 1.09774e-19)
(0.0608622 0.305308 -1.37997e-19)
(0.0736322 0.305842 -3.99513e-19)
(0.0865646 0.306257 -1.18982e-19)
(-0.00411867 0.0152328 -2.7497e-20)
(-0.0119597 0.0490387 -2.9652e-20)
(-0.0178153 0.0838129 2.42531e-19)
(-0.0218259 0.117355 -3.91523e-19)
(-0.0239729 0.148306 5.79228e-20)
(-0.0242541 0.175932 -2.22899e-19)
(-0.0227424 0.199938 1.06586e-19)
(-0.0195432 0.220338 4.72401e-19)
(-0.0147696 0.237345 -3.06675e-20)
(-0.0085351 0.251277 -3.50091e-19)
(-0.000950508 0.262493 6.5621e-20)
(0.00787544 0.271352 1.20353e-20)
(0.017835 0.278188 -7.10685e-20)
(0.0288207 0.283301 7.63746e-21)
(0.040726 0.286957 6.33355e-19)
(0.0534345 0.289393 -9.09976e-20)
(0.0667943 0.290823 -1.76226e-19)
(0.080732 0.291504 -3.18634e-19)
(0.0956654 0.291908 3.25697e-19)
(0.110873 0.292394 1.38231e-19)
(-0.00430956 0.0138759 1.43074e-19)
(-0.012708 0.0454328 -1.85181e-19)
(-0.0190104 0.0783057 2.61568e-19)
(-0.0232279 0.110242 2.60599e-19)
(-0.0252848 0.139866 2.40125e-19)
(-0.0251635 0.166408 4.84509e-19)
(-0.0229517 0.189524 3.11197e-19)
(-0.0187857 0.209174 -6.65031e-19)
(-0.0128169 0.225517 3.384e-19)
(-0.00519684 0.238832 2.63889e-19)
(0.00393096 0.249453 -2.1753e-21)
(0.0144332 0.257725 2.93824e-19)
(0.0261869 0.263982 2.29661e-19)
(0.0390782 0.268531 -1.25803e-19)
(0.0530004 0.271653 4.24873e-19)
(0.0678423 0.273602 -5.27867e-19)
(0.0834568 0.274615 2.11598e-19)
(0.099753 0.274975 2.74971e-19)
(0.117104 0.275224 -6.63403e-20)
(0.134812 0.275819 5.42188e-19)
(-0.00446005 0.0125376 2.83568e-19)
(-0.013416 0.0417069 1.3218e-20)
(-0.0202966 0.0724027 -1.01649e-19)
(-0.0249099 0.102393 -1.07428e-19)
(-0.0270908 0.13033 -4.88319e-19)
(-0.0267905 0.155444 6.82149e-20)
(-0.0240964 0.177364 1.93873e-19)
(-0.0191639 0.196004 -9.13269e-20)
(-0.0121732 0.211478 7.506e-20)
(-0.0033072 0.224021 -2.15897e-20)
(0.0072621 0.23393 -9.89764e-20)
(0.0193794 0.241526 9.14044e-20)
(0.032908 0.247128 -4.07139e-19)
(0.0477287 0.251038 3.87741e-19)
(0.063737 0.25354 -3.38155e-19)
(0.0808291 0.254902 1.0496e-19)
(0.0988668 0.255383 2.38373e-19)
(0.117748 0.255308 -5.07318e-20)
(0.137783 0.255312 -1.68658e-19)
(0.158217 0.256002 -1.10974e-19)
(-0.00461262 0.0113195 -3.4896e-19)
(-0.0141533 0.0380954 -2.17262e-20)
(-0.0217256 0.0664214 7.28155e-20)
(-0.0268841 0.0941729 1.85258e-19)
(-0.0293566 0.120086 -2.6264e-19)
(-0.0290549 0.143426 -2.2726e-19)
(-0.0260568 0.163819 5.26913e-19)
(-0.0205278 0.181155 -2.90957e-19)
(-0.0126686 0.195509 -1.86143e-19)
(-0.00268635 0.207069 -2.64801e-19)
(0.00922418 0.216094 1.74893e-19)
(0.0228901 0.222869 -6.4577e-21)
(0.0381647 0.227686 -3.25884e-19)
(0.0549275 0.23083 -5.3343e-19)
(0.0730811 0.232575 4.05845e-19)
(0.0925357 0.233192 -3.29861e-19)
(0.113171 0.232961 4.70007e-19)
(0.134883 0.232256 -1.32005e-19)
(0.157913 0.231841 2.84946e-19)
(0.18133 0.232536 -9.25828e-19)
(-0.00481883 0.0103069 -6.96968e-19)
(-0.015004 0.0347997 4.55717e-19)
(-0.0233572 0.0606457 6.27021e-20)
(-0.0291565 0.0859267 1.16033e-20)
(-0.0320206 0.109518 -2.76787e-19)
(-0.0318223 0.13076 4.06014e-19)
(-0.0286272 0.149304 4.48703e-20)
(-0.0226047 0.165035 -8.31255e-20)
(-0.0139696 0.177997 -2.59807e-19)
(-0.002946 0.188341 2.81917e-19)
(0.010255 0.196281 7.09679e-19)
(0.025449 0.202063 -1.5805e-19)
(0.0424849 0.20594 3.51117e-19)
(0.0612473 0.208165 -4.16815e-19)
(0.0816533 0.20899 -3.99291e-19)
(0.103636 0.208674 2.42387e-19)
(0.127104 0.207504 4.04996e-19)
(0.151968 0.205911 -1.3091e-18)
(0.178395 0.204818 1.52967e-19)
(0.20514 0.205341 2.03677e-19)
(-0.00513381 0.00956398 5.14092e-19)
(-0.0160538 0.0319777 1.63919e-19)
(-0.0252409 0.0553125 8.69239e-19)
(-0.0317055 0.0779603 4.3368e-20)
(-0.0349696 0.0989928 -9.58914e-20)
(-0.0348767 0.117861 -4.52303e-19)
(-0.0314821 0.134271 3.85926e-19)
(-0.0249568 0.148121 6.8115e-19)
(-0.0155235 0.159438 4.52473e-19)
(-0.00341638 0.168344 3.20502e-19)
(0.011145 0.175011 2.73291e-19)
(0.0279723 0.179639 -5.00093e-19)
(0.0469173 0.182438 -1.58649e-19)
(0.0678763 0.183617 -1.1282e-19)
(0.0907883 0.183388 1.23135e-18)
(0.115617 0.181978 -4.10329e-21)
(0.142306 0.179663 -3.09197e-19)
(0.170792 0.176918 -1.0194e-19)
(0.201171 0.174853 8.95948e-19)
(0.231737 0.174973 1.09531e-19)
(-0.00560918 0.00913009 -2.81641e-20)
(-0.0173731 0.0297343 -4.81423e-19)
(-0.0273944 0.0505992 -7.11439e-19)
(-0.034456 0.070527 -1.95479e-19)
(-0.0380106 0.088839 1.06959e-19)
(-0.0378883 0.105131 2.42534e-20)
(-0.0341398 0.119189 6.06913e-19)
(-0.0269365 0.130943 -7.53011e-19)
(-0.0165033 0.14042 -2.84927e-19)
(-0.00307614 0.147719 -5.68938e-19)
(0.0131262 0.152978 -4.82898e-19)
(0.0319199 0.156354 -4.22269e-19)
(0.0531669 0.158009 1.05102e-19)
(0.0767797 0.1581 -1.35151e-19)
(0.10272 0.156784 5.85581e-19)
(0.13098 0.154237 -3.23376e-19)
(0.161529 0.150692 -1.01681e-18)
(0.194323 0.14664 -2.10473e-19)
(0.229401 0.143385 5.05925e-19)
(0.26446 0.142914 -4.32914e-19)
(-0.00628494 0.00901528 -8.22451e-20)
(-0.0190001 0.0281146 5.78465e-19)
(-0.0297818 0.0466137 -7.36644e-19)
(-0.0372565 0.0638144 1.71769e-19)
(-0.0408464 0.079333 -3.46577e-19)
(-0.040388 0.0929384 7.66777e-19)
(-0.0359349 0.104519 -5.45259e-19)
(-0.0276572 0.114054 6.20703e-19)
(-0.0157756 0.121586 -5.82866e-19)
(-0.000518168 0.127202 2.47744e-19)
(0.0179066 0.131015 -1.20691e-19)
(0.0393274 0.133146 -2.97061e-19)
(0.0636189 0.133711 -3.65023e-19)
(0.0907059 0.132814 3.66221e-19)
(0.12056 0.130554 -3.06302e-19)
(0.153178 0.127033 -6.73346e-19)
(0.188521 0.122416 7.04241e-19)
(0.226519 0.117157 -9.0225e-19)
(0.267165 0.112732 4.12355e-19)
(0.307525 0.111673 1.81022e-20)
(-0.00718112 0.00919796 -7.18701e-19)
(-0.0209249 0.0270992 -7.75025e-19)
(-0.0322963 0.043388 9.02359e-20)
(-0.0398625 0.0579336 -7.39917e-19)
(-0.043062 0.0706813 -6.22281e-20)
(-0.0417585 0.0815959 -5.40076e-19)
(-0.0360156 0.0906853 -1.22422e-19)
(-0.0260004 0.0979925 -3.54382e-19)
(-0.0119221 0.103589 6.94753e-21)
(0.00600725 0.107563 -1.51956e-19)
(0.027596 0.110015 1.12998e-20)
(0.0526859 0.111039 -4.38195e-19)
(0.0811566 0.110716 4.84022e-19)
(0.112924 0.109105 -6.81662e-19)
(0.147935 0.106247 2.43456e-19)
(0.186137 0.102174 1.02035e-20)
(0.227416 0.096956 -3.87432e-19)
(0.271591 0.090956 9.74237e-19)
(0.318611 0.0857606 -2.29972e-19)
(0.365051 0.0844651 -1.4964e-19)
(-0.00829087 0.00962493 8.01568e-19)
(-0.0230787 0.0266048 4.33223e-19)
(-0.0347521 0.040875 4.01656e-19)
(-0.0419344 0.0529105 6.03539e-20)
(-0.0441305 0.0630047 5.40172e-19)
(-0.0412523 0.0713329 7.7276e-19)
(-0.0333802 0.0780335 6.25107e-19)
(-0.0206772 0.0832263 5.66002e-20)
(-0.0033375 0.087021 4.52063e-19)
(0.0184443 0.0895222 6.93198e-19)
(0.044489 0.0908261 -1.76735e-19)
(0.0746372 0.0910141 2.9936e-19)
(0.108746 0.0901449 2.40869e-19)
(0.146677 0.0882478 2.45404e-19)
(0.188289 0.0853219 1.44611e-18)
(0.233403 0.0813419 -5.42478e-19)
(0.281737 0.0762862 -3.28478e-20)
(0.332892 0.070376 6.39933e-19)
(0.386735 0.0652068 -3.65337e-19)
(0.439755 0.0644629 1.76897e-19)
(-0.00957641 0.0102149 -6.43515e-19)
(-0.0253302 0.0264895 3.94236e-20)
(-0.036887 0.0389516 -5.11593e-19)
(-0.0430499 0.048682 -6.57274e-20)
(-0.0434409 0.0563256 3.71151e-19)
(-0.0380401 0.0622731 -1.10287e-18)
(-0.0269535 0.0667993 3.26863e-22)
(-0.0103447 0.0701067 5.0841e-19)
(0.0116003 0.0723522 4.70837e-19)
(0.0386915 0.0736635 -2.09481e-19)
(0.0707384 0.0741446 6.71796e-20)
(0.107542 0.0738746 1.56316e-19)
(0.148883 0.072904 -7.45669e-20)
(0.194502 0.0712496 -8.27542e-19)
(0.244081 0.0688927 2.09143e-19)
(0.297219 0.0657795 5.80898e-19)
(0.353368 0.0618246 -8.30737e-19)
(0.411812 0.0570884 4.05435e-19)
(0.472265 0.0530632 1.10317e-19)
(0.531723 0.0541528 5.5043e-19)
(-0.0109693 0.0108664 -9.31316e-20)
(-0.0274902 0.0265667 -4.48884e-19)
(-0.0383767 0.0374287 2.06743e-19)
(-0.0427316 0.045101 9.06229e-22)
(-0.040343 0.0505647 -8.91546e-19)
(-0.0312802 0.0544216 1.40331e-19)
(-0.0156901 0.0570816 -2.54134e-20)
(0.00624604 0.0588309 1.76031e-19)
(0.034327 0.0598762 -8.02418e-19)
(0.068332 0.0603723 -5.41723e-20)
(0.10801 0.060436 -1.8491e-19)
(0.153059 0.0601506 1.65916e-19)
(0.20311 0.0595678 5.55982e-19)
(0.257697 0.0587075 -8.58783e-20)
(0.316241 0.0575587 3.33053e-20)
(0.378027 0.0560794 2.19772e-19)
(0.442152 0.0541799 -5.43164e-20)
(0.507486 0.0518202 4.52844e-19)
(0.573443 0.0503946 -2.56989e-19)
(0.637837 0.0552339 -4.0414e-19)
(-0.0123756 0.011469 8.74777e-20)
(-0.0293245 0.0266239 2.21882e-20)
(-0.0388565 0.0360713 1.79349e-19)
(-0.0404807 0.0419523 4.37821e-19)
(-0.0341971 0.0455524 2.44391e-19)
(-0.0201904 0.0476708 2.45851e-20)
(0.00132475 0.0488437 -2.87697e-19)
(0.0301147 0.0494362 7.46763e-20)
(0.0659157 0.0497014 3.83405e-19)
(0.108414 0.0498187 -6.47445e-19)
(0.157223 0.049914 4.86298e-19)
(0.211856 0.0500713 -3.65043e-19)
(0.271709 0.0503407 3.08915e-19)
(0.336039 0.0507453 -6.65735e-19)
(0.403964 0.0512915 7.33222e-19)
(0.474448 0.051979 -7.85038e-19)
(0.54626 0.0527888 -2.05525e-19)
(0.617906 0.053765 6.49037e-19)
(0.688309 0.0564709 -2.17369e-19)
(0.754285 0.0666036 9.86945e-20)
(-0.0136844 0.0119167 -6.57614e-20)
(-0.0305711 0.0264474 6.21686e-19)
(-0.0379451 0.034626 -3.07783e-21)
(-0.035808 0.0389821 -3.85171e-19)
(-0.0244155 0.0410592 -2.56826e-19)
(-0.00410192 0.0418316 4.70943e-19)
(0.0248067 0.0419465 -1.86233e-19)
(0.0619672 0.0418367 -2.34258e-20)
(0.106979 0.041792 3.8145e-19)
(0.159347 0.0420051 -4.74315e-19)
(0.218449 0.0425977 5.09372e-20)
(0.283514 0.0436365 -6.10564e-19)
(0.353615 0.0451459 3.2027e-19)
(0.427676 0.0471218 -9.15443e-19)
(0.504501 0.0495491 1.45642e-18)
(0.582811 0.0524265 -2.67121e-19)
(0.661292 0.0558014 2.76953e-19)
(0.738721 0.0599635 -7.1891e-19)
(0.814684 0.0666886 8.68326e-21)
(0.881136 0.0776234 7.67201e-19)
(-0.0147783 0.0121203 -1.98875e-19)
(-0.0309577 0.0258474 1.71873e-19)
(-0.035264 0.0328549 -6.33201e-19)
(-0.0282542 0.0359381 9.35432e-19)
(-0.0104831 0.0368426 -6.73881e-19)
(0.017519 0.0366877 3.44393e-20)
(0.0552523 0.036211 -7.2056e-19)
(0.102181 0.0358952 5.13806e-19)
(0.157669 0.0360502 -7.42472e-20)
(0.220924 0.0368632 -4.49715e-19)
(0.290973 0.0384281 -2.60195e-19)
(0.366651 0.0407653 2.74287e-19)
(0.446621 0.0438368 1.80797e-19)
(0.529415 0.047562 -7.99974e-19)
(0.613498 0.0518338 2.89169e-19)
(0.697341 0.056536 -4.23731e-19)
(0.77951 0.0615569 5.15091e-20)
(0.85878 0.0668462 -3.53682e-19)
(0.934606 0.0728317 1.31932e-19)
(1.00291 0.0807484 -5.08182e-19)
(-0.0155426 0.0120168 5.66757e-19)
(-0.0302164 0.0246808 -3.43479e-19)
(-0.0304495 0.0305691 2.82867e-19)
(-0.0173969 0.0326148 -3.56401e-19)
(0.00804199 0.032703 5.97002e-19)
(0.0450803 0.0320633 -1.08228e-20)
(0.0929595 0.031496 -7.20109e-20)
(0.150845 0.0315101 -5.33682e-20)
(0.217738 0.0324108 3.27033e-19)
(0.292424 0.0343517 5.52609e-19)
(0.373454 0.0373678 -3.27504e-19)
(0.459174 0.0413989 3.15577e-19)
(0.547778 0.0463103 5.74102e-19)
(0.637393 0.0519133 -4.03516e-19)
(0.726179 0.0579861 -8.11378e-19)
(0.812423 0.0642925 1.47704e-18)
(0.89463 0.0705933 -2.64481e-19)
(0.971613 0.0766818 -8.38584e-20)
(1.0426 0.0823799 8.78117e-19)
(1.1064 0.0902425 -1.93271e-19)
(-0.0158722 0.0115742 -9.22898e-19)
(-0.0280918 0.0228674 -6.14723e-19)
(-0.0231561 0.0276585 -2.35817e-19)
(-0.002846 0.0288954 4.54596e-19)
(0.0315425 0.0285381 -1.0251e-18)
(0.0788873 0.0278863 5.29183e-19)
(0.138063 0.0277693 6.67394e-20)
(0.207803 0.0286889 6.60999e-20)
(0.286607 0.0309099 -6.88487e-19)
(0.3727 0.0345136 -2.43282e-19)
(0.464054 0.0394356 -4.26086e-19)
(0.558465 0.045497 4.09102e-19)
(0.653664 0.0524353 1.14609e-19)
(0.747442 0.059936 1.99929e-20)
(0.83778 0.0676625 5.21977e-19)
(0.922952 0.0752825 -5.31197e-19)
(1.0016 0.0824849 -2.10426e-20)
(1.0728 0.0890307 1.72404e-20)
(1.13594 0.094529 7.59035e-20)
(1.1916 0.102104 3.79569e-19)
(-0.0156731 0.0107911 2.93937e-19)
(-0.0243437 0.0203962 7.57497e-19)
(-0.0130548 0.0241097 6.07983e-19)
(0.0157629 0.0247813 -2.09365e-19)
(0.0603532 0.0243809 7.26717e-19)
(0.119157 0.0242329 -6.08865e-20)
(0.190547 0.0251514 -8.61732e-20)
(0.272675 0.0275854 5.07506e-20)
(0.363383 0.0317093 6.97352e-19)
(0.460217 0.0374809 4.07764e-19)
(0.560507 0.0446888 1.18409e-19)
(0.661511 0.0529981 7.54257e-21)
(0.760587 0.0619983 -7.80818e-19)
(0.855358 0.0712493 6.77205e-19)
(0.943844 0.0803232 1.14061e-19)
(1.02455 0.0888371 -1.90144e-19)
(1.0965 0.0964727 -8.03174e-19)
(1.15924 0.103027 -6.27448e-20)
(1.21264 0.108105 3.08626e-19)
(1.25838 0.114891 -5.88149e-20)
(-0.0148607 0.00969191 -7.47062e-19)
(-0.018745 0.0173242 3.12639e-19)
(0.000168517 0.0200123 -1.52576e-18)
(0.0387694 0.0204049 6.24359e-19)
(0.0947575 0.0204163 -4.9775e-19)
(0.166008 0.0213407 3.67272e-19)
(0.250231 0.0239205 -5.69018e-19)
(0.344824 0.028489 5.2131e-20)
(0.446839 0.0350654 -2.87936e-20)
(0.553059 0.0434234 1.51242e-19)
(0.660184 0.0531574 2.17979e-19)
(0.765045 0.0637511 -4.12071e-19)
(0.864824 0.0746463 2.17484e-19)
(0.957231 0.0853044 1.98008e-19)
(1.0406 0.0952539 8.4229e-19)
(1.11394 0.104123 -3.68891e-19)
(1.17686 0.111651 -2.37274e-19)
(1.22953 0.11772 3.94912e-19)
(1.27243 0.122076 2.00503e-19)
(1.3077 0.127566 -3.91014e-19)
(-0.0133552 0.00832115 6.55091e-19)
(-0.0110791 0.0137684 6.31902e-19)
(0.0168112 0.015552 1.81918e-19)
(0.0664768 0.0160234 7.67275e-19)
(0.134962 0.01697 3.76973e-19)
(0.219416 0.0195891 -6.78466e-19)
(0.316703 0.0244764 1.02752e-18)
(0.423305 0.0317694 -5.05482e-19)
(0.535376 0.0412559 5.03119e-19)
(0.648944 0.0524654 6.48779e-19)
(0.760194 0.0647647 -3.69786e-19)
(0.865753 0.0774564 7.04187e-20)
(0.962922 0.0898667 3.87362e-19)
(1.0498 0.101414 2.70562e-19)
(1.12533 0.111653 6.14368e-19)
(1.1892 0.120291 -2.49745e-19)
(1.24175 0.127182 -3.4088e-20)
(1.28383 0.132327 3.71608e-19)
(1.31649 0.135659 -8.17561e-20)
(1.34201 0.139553 -7.94739e-22)
(-0.0110776 0.00673718 -3.38308e-19)
(-0.00113844 0.00989413 -1.2438e-18)
(0.0371436 0.0109955 2.92915e-19)
(0.0991262 0.0119966 -2.22923e-19)
(0.181053 0.0144765 -5.14867e-19)
(0.279156 0.019451 -3.66999e-19)
(0.389264 0.0272744 -2.26764e-19)
(0.506811 0.0377948 5.50779e-19)
(0.627032 0.0504917 -3.26855e-19)
(0.745318 0.0646056 -3.33282e-19)
(0.857579 0.0792733 -4.19766e-19)
(0.960564 0.0936534 -6.94826e-20)
(1.05203 0.107023 -4.88501e-20)
(1.13077 0.118838 -9.49911e-19)
(1.19653 0.128754 4.52662e-19)
(1.24982 0.136619 -5.96918e-19)
(1.29171 0.142443 1.80437e-19)
(1.3236 0.14636 -1.37579e-18)
(1.34701 0.148489 4.16338e-19)
(1.36416 0.150713 5.09382e-19)
(-0.00794641 0.00500816 -8.49623e-20)
(0.0112709 0.005904 6.07427e-19)
(0.061391 0.00667024 3.88616e-20)
(0.136861 0.00875614 9.38102e-20)
(0.232942 0.0134335 -1.90963e-19)
(0.344738 0.0214306 -2.82202e-21)
(0.466876 0.0327492 -4.70707e-21)
(0.59368 0.0468504 -1.14623e-19)
(0.719567 0.0628444 4.06818e-19)
(0.839536 0.0796728 1.57094e-19)
(0.94958 0.0962823 7.06469e-19)
(1.04694 0.111764 -1.92961e-19)
(1.13017 0.125437 1.32534e-19)
(1.19896 0.136882 -1.57646e-20)
(1.25398 0.145926 3.6186e-19)
(1.29652 0.152597 2.17841e-19)
(1.32827 0.157072 5.15352e-19)
(1.35105 0.159612 -8.26543e-19)
(1.36662 0.160479 1.02802e-18)
(1.37705 0.161139 -3.2382e-19)
(-0.00387873 0.00321017 -7.92289e-19)
(0.026321 0.00202891 -2.473e-19)
(0.0897115 0.00294481 1.93312e-19)
(0.179688 0.00677167 1.21973e-19)
(0.290319 0.0143522 1.24746e-19)
(0.415374 0.0260005 1.27068e-19)
(0.548167 0.0412455 -3.17192e-19)
(0.68197 0.0590776 -1.30674e-19)
(0.810622 0.0782125 4.10863e-20)
(0.929103 0.0973304 -3.85155e-19)
(1.0339 0.115273 -1.7203e-19)
(1.12313 0.131169 1.04023e-18)
(1.19634 0.144482 -2.68617e-19)
(1.25427 0.154993 -3.64134e-19)
(1.29845 0.162741 -1.68454e-19)
(1.33084 0.167949 1.18892e-19)
(1.35355 0.170946 1.39423e-19)
(1.36863 0.172097 -6.65174e-19)
(1.3779 0.171752 9.5194e-19)
(1.38322 0.171053 -8.20621e-19)
(0.00120664 0.00142732 -8.97411e-20)
(0.0441491 -0.00147854 2.57124e-20)
(0.12217 0.00021059 -3.27867e-20)
(0.227444 0.00651861 4.79867e-19)
(0.352624 0.0177123 2.63314e-20)
(0.489976 0.0335486 1.76443e-19)
(0.631492 0.0529707 -3.66088e-19)
(0.769598 0.0744482 -1.3112e-20)
(0.897932 0.0963294 5.06102e-19)
(1.01191 0.117122 6.94828e-20)
(1.10892 0.135683 -4.36485e-19)
(1.1882 0.151296 -3.78247e-20)
(1.25048 0.163655 -3.50536e-19)
(1.29745 0.172792 3.51472e-19)
(1.33138 0.178973 4.78862e-19)
(1.35472 0.182596 -5.2545e-20)
(1.36979 0.184112 -6.18548e-20)
(1.37866 0.183952 1.89228e-19)
(1.38309 0.182512 -5.9798e-19)
(1.38466 0.180695 5.29189e-19)
(0.00738331 -0.000247298 9.01695e-20)
(0.0648423 -0.00434851 -5.81557e-19)
(0.158718 -0.0011334 1.55547e-19)
(0.279777 0.00845078 -4.8375e-19)
(0.419047 0.0239249 1.66315e-19)
(0.567202 0.0443423 -6.18246e-19)
(0.715048 0.0679743 2.49077e-19)
(0.854517 0.0927732 -7.91983e-20)
(0.979528 0.116806 -3.18411e-21)
(1.08639 0.13854 7.97332e-20)
(1.17373 0.156983 -2.90472e-19)
(1.24207 0.171677 -4.10461e-19)
(1.29324 0.18261 -8.23665e-20)
(1.32981 0.19008 -3.68634e-20)
(1.35457 0.194561 -9.33873e-20)
(1.37019 0.196595 -2.99934e-20)
(1.37905 0.196712 -8.94329e-20)
(1.38311 0.195372 -7.69342e-20)
(1.38393 0.192983 -2.24486e-19)
(1.38288 0.190274 3.52844e-19)
(0.0147104 -0.00171081 2.16641e-19)
(0.0884223 -0.00629843 -2.40811e-19)
(0.199173 -0.000694323 5.1902e-19)
(0.336136 0.0129772 -2.24228e-19)
(0.488552 0.0333064 5.99671e-19)
(0.64554 0.0585108 8.59104e-21)
(0.797009 0.0861534 3.00803e-19)
(0.934885 0.113738 -8.04227e-20)
(1.05388 0.139188 3.33306e-19)
(1.1516 0.161089 2.30626e-20)
(1.22811 0.178727 7.82712e-19)
(1.28523 0.191979 -5.38276e-19)
(1.32578 0.201152 7.35201e-20)
(1.35294 0.206797 1.38105e-19)
(1.3698 0.209559 7.03642e-19)
(1.3791 0.21008 -2.52273e-19)
(1.38309 0.208924 -4.92171e-20)
(1.38353 0.20655 -2.55781e-19)
(1.38176 0.203354 -2.53114e-20)
(1.37889 0.199944 1.26635e-19)
(0.0232253 -0.00285077 -1.03852e-19)
(0.114833 -0.00703862 3.00476e-19)
(0.243212 0.00190087 -3.08404e-19)
(0.395783 0.0204424 1.21756e-19)
(0.559933 0.0460615 -1.4583e-19)
(0.723407 0.0760451 5.35001e-19)
(0.875667 0.107278 -7.45476e-20)
(1.00919 0.136947 1.82001e-19)
(1.11998 0.163013 -1.0741e-19)
(1.2072 0.184335 -2.69059e-21)
(1.27243 0.200577 1.20302e-19)
(1.31865 0.211997 -9.22886e-20)
(1.34946 0.21921 2.38641e-19)
(1.36843 0.222982 -1.18811e-19)
(1.37874 0.224084 -5.13403e-19)
(1.38301 0.223207 5.07701e-19)
(1.38329 0.220918 -2.25642e-19)
(1.38108 0.217646 1.79801e-19)
(1.37749 0.213771 3.07362e-19)
(1.3734 0.209803 1.25615e-19)
(0.032938 -0.00354679 2.58554e-19)
(0.143929 -0.00628025 -5.33239e-19)
(0.290369 0.00699099 1.02108e-19)
(0.457823 0.031111 -7.42122e-20)
(0.631878 0.0622771 -2.99697e-19)
(0.799259 0.0968108 -2.34888e-19)
(0.949547 0.131024 -4.62782e-20)
(1.07634 0.161977 -4.16257e-19)
(1.1773 0.187854 -2.4935e-20)
(1.25332 0.207927 -7.66172e-20)
(1.30739 0.222307 -2.06582e-19)
(1.34347 0.231633 -4.61601e-20)
(1.36568 0.236796 -1.5631e-19)
(1.37774 0.238726 -2.57274e-19)
(1.38277 0.238269 2.61079e-19)
(1.38315 0.236125 3.43625e-20)
(1.38067 0.232835 6.83462e-20)
(1.37656 0.228781 -2.94478e-19)
(1.37173 0.224327 -8.24984e-21)
(1.36684 0.219898 -4.46154e-19)
(0.0438257 -0.00367359 2.8292e-19)
(0.175473 -0.00374557 1.89056e-19)
(0.340048 0.0148658 -3.05679e-19)
(0.521239 0.0451549 4.77453e-19)
(0.703047 0.0819234 -5.16359e-20)
(0.871682 0.120571 1.78148e-19)
(1.01747 0.157013 6.15356e-20)
(1.13565 0.188407 2.16669e-19)
(1.22577 0.213343 -1.69589e-19)
(1.29046 0.231606 5.58085e-20)
(1.33394 0.243781 -5.35152e-20)
(1.3609 0.250865 -2.30189e-20)
(1.37574 0.253971 4.40024e-20)
(1.38214 0.25414 -8.03091e-20)
(1.38301 0.252243 -2.40714e-20)
(1.38045 0.248957 -7.4156e-20)
(1.37595 0.244775 -1.19472e-19)
(1.37052 0.240029 7.74572e-20)
(1.36485 0.235069 -1.03964e-19)
(1.35945 0.230238 4.49944e-19)
(0.0558297 -0.0031053 -1.4105e-19)
(0.209137 0.00082029 -4.00739e-19)
(0.391537 0.0257516 -5.35063e-20)
(0.584943 0.0626466 -1.47273e-20)
(0.772147 0.104864 -1.79931e-19)
(0.939465 0.147012 -2.9501e-19)
(1.0786 0.184847 9.60736e-20)
(1.18679 0.215853 -1.31903e-19)
(1.26564 0.23918 -1.46775e-19)
(1.31934 0.25519 8.11981e-20)
(1.3531 0.264933 -6.11334e-20)
(1.3721 0.269716 -1.22443e-19)
(1.38078 0.270816 -3.28923e-21)
(1.38265 0.269326 8.25585e-20)
(1.38031 0.266106 -8.28621e-20)
(1.37557 0.261786 1.14919e-19)
(1.36964 0.256798 3.13015e-20)
(1.36331 0.251425 7.69679e-20)
(1.35709 0.246007 1.47584e-19)
(1.35137 0.240802 -1.25948e-19)
(0.0688543 -0.00172048 1.34656e-19)
(0.244506 0.00763701 -1.15869e-20)
(0.444039 0.0397993 6.08319e-20)
(0.647829 0.0835577 -8.23753e-20)
(0.837992 0.130872 7.00268e-21)
(1.00164 0.175771 2.85191e-19)
(1.13239 0.214128 -1.86966e-19)
(1.22979 0.243971 7.86714e-20)
(1.29739 0.265128 6.89935e-20)
(1.34076 0.278559 -1.93079e-19)
(1.36587 0.285742 1.80434e-19)
(1.37808 0.288231 1.48027e-21)
(1.38173 0.287406 -1.25357e-19)
(1.38005 0.284367 1.50571e-19)
(1.3753 0.279929 -5.93532e-20)
(1.36898 0.27466 4.51269e-20)
(1.36205 0.268929 -5.05742e-20)
(1.35512 0.26297 -2.05183e-20)
(1.34857 0.257122 -1.7287e-19)
(1.34267 0.251546 5.29803e-20)
(0.082767 0.00059246 -4.51972e-20)
(0.281088 0.0168774 1.21869e-19)
(0.496699 0.0570759 1.9094e-20)
(0.708821 0.107763 7.98718e-20)
(0.899551 0.159645 3.81057e-20)
(1.05749 0.206457 1.78738e-20)
(1.17862 0.244478 1.00674e-19)
(1.26486 0.272469 -1.2239e-20)
(1.32162 0.291006 4.39473e-20)
(1.35558 0.301636 7.02893e-20)
(1.37316 0.306207 3.36426e-20)
(1.37972 0.306453 2.40079e-20)
(1.37935 0.303799 9.69837e-20)
(1.37494 0.299314 -9.39143e-20)
(1.36841 0.293746 2.0004e-20)
(1.36097 0.287592 -1.85952e-20)
(1.35338 0.281158 2.8766e-20)
(1.34607 0.274638 2.40077e-20)
(1.33934 0.268372 4.95128e-20)
(1.33336 0.262414 1.91243e-21)
(0.0974006 0.0039299 2.67948e-20)
(0.318335 0.0286573 2.45138e-20)
(0.548641 0.0775598 -3.40062e-20)
(0.766915 0.135048 2.12552e-20)
(0.955973 0.190826 1.19745e-20)
(1.10653 0.238672 -3.72941e-20)
(1.21725 0.275547 1.22288e-20)
(1.29241 0.301095 2.24382e-21)
(1.33902 0.316672 2.09384e-20)
(1.36459 0.324368 -5.59788e-20)
(1.37575 0.326333 -1.18566e-22)
(1.3777 0.324414 1.53469e-20)
(1.3742 0.320031 -1.22427e-20)
(1.36774 0.314189 1.23165e-20)
(1.35993 0.307559 3.18846e-20)
(1.35173 0.300565 -1.80657e-20)
(1.34372 0.293451 5.08813e-21)
(1.33622 0.28638 1.95932e-20)
(1.32941 0.279696 -3.20765e-20)
(1.32343 0.273337 1.54524e-20)
(0.112558 0.00836807 7.43722e-20)
(0.355657 0.0430287 -4.06014e-20)
(0.599001 0.101142 4.79044e-20)
(0.821218 0.165123 -3.56543e-20)
(1.0066 0.22402 -1.59467e-20)
(1.14851 0.272021 4.86132e-21)
(1.24846 0.307015 -1.55741e-20)
(1.31292 0.329634 5.58549e-20)
(1.35026 0.342009 -4.63597e-20)
(1.36851 0.346712 1.08514e-20)
(1.37432 0.346117 -8.09724e-21)
(1.3726 0.342123 -5.22517e-20)
(1.36669 0.336104 5.05574e-20)
(1.35875 0.328982 1.91391e-20)
(1.35006 0.321342 -1.89615e-20)
(1.34138 0.313536 4.43728e-20)
(1.33314 0.305753 -7.21826e-22)
(1.32557 0.298133 -4.26499e-20)
(1.31878 0.291026 3.14129e-20)
(1.31286 0.284238 9.85138e-21)
(0.128017 0.0139589 -2.60614e-20)
(0.392442 0.0599749 7.56443e-20)
(0.646957 0.127628 8.75698e-20)
(0.870962 0.197636 -4.13401e-20)
(1.05095 0.258812 7.18478e-20)
(1.18335 0.306117 1.13407e-19)
(1.27251 0.338586 -6.26586e-21)
(1.32691 0.357897 -1.93134e-20)
(1.35595 0.366916 9.54473e-20)
(1.36797 0.368621 4.64217e-20)
(1.36942 0.36554 -8.32712e-21)
(1.36483 0.359566 6.88506e-20)
(1.35715 0.351996 -7.33198e-20)
(1.34817 0.343655 1.1435e-19)
(1.33892 0.335041 -1.89672e-20)
(1.32997 0.32644 5.42367e-20)
(1.32165 0.317992 9.68386e-21)
(1.31412 0.309821 3.8361e-20)
(1.30741 0.302278 -3.64628e-20)
(1.30162 0.295037 8.9445e-21)
(0.143535 0.0207263 -4.06424e-20)
(0.428076 0.0794087 9.57384e-20)
(0.691753 0.15675 7.1352e-20)
(0.915521 0.232184 -1.08264e-20)
(1.08873 0.294768 1.11153e-19)
(1.21111 0.340589 -8.31394e-20)
(1.28977 0.369989 -6.30696e-21)
(1.33492 0.38571 7.3046e-20)
(1.35669 0.391293 2.32557e-20)
(1.36349 0.390041 3.23041e-20)
(1.36146 0.384563 -4.75352e-20)
(1.35472 0.376704 1.24169e-19)
(1.34578 0.367657 2.30085e-20)
(1.33614 0.358146 -1.0917e-19)
(1.32658 0.348585 1.59439e-19)
(1.31754 0.339198 -1.87446e-19)
(1.30927 0.330084 -8.56395e-20)
(1.30185 0.321356 1.45286e-20)
(1.29531 0.313367 8.25722e-20)
(1.28969 0.305649 -1.56137e-19)
(0.158858 0.028664 -9.06604e-20)
(0.461966 0.101175 -2.14578e-19)
(0.732721 0.188171 -1.86085e-19)
(0.95441 0.268328 -2.53034e-19)
(1.11977 0.331457 -1.43563e-19)
(1.23196 0.375082 -2.97151e-19)
(1.30064 0.400971 3.77634e-20)
(1.33744 0.412911 -1.57296e-19)
(1.35298 0.415039 -1.71766e-20)
(1.35551 0.410902 2.58184e-20)
(1.3508 0.403126 -5.66141e-20)
(1.3425 0.393471 7.11649e-20)
(1.33275 0.383013 1.26054e-19)
(1.32273 0.372372 -1.76962e-19)
(1.31308 0.361884 2.87416e-20)
(1.3041 0.351715 8.18675e-20)
(1.29597 0.341932 1.36701e-19)
(1.28877 0.332645 -1.1791e-19)
(1.28243 0.324198 -5.5827e-21)
(1.27706 0.315983 1.37909e-19)
(0.173729 0.0377346 -1.70749e-19)
(0.493556 0.125052 4.69951e-19)
(0.769291 0.221499 -8.27318e-20)