/*--------------------------------*- C++ -*----------------------------------*\
  =========                 |
  \\      /  F ield         | OpenFOAM: The Open Source CFD Toolbox
   \\    /   O peration     | Website:  https://openfoam.org
    \\  /    A nd           | Version:  6.0
     \\/     M anipulation  |
\*---------------------------------------------------------------------------*/
FoamFile
{
    version     2.0;
    format      ascii;
    class       volScalarField;
    location    "9.8";
    object      p;
}
// * * * * * * * * * * * * * * * * * * * * * * * * * * * * * * * * * * * * * //

dimensions      [0 2 -2 0 0 0 0];

internalField   nonuniform List<scalar> 
8000
(
-0.305908
-0.307492
-0.308506
-0.30925
-0.309908
-0.310516
-0.3111
-0.311684
-0.312281
-0.312902
-0.313552
-0.314239
-0.314969
-0.315747
-0.316584
-0.317506
-0.318505
-0.319403
-0.320174
-0.322556
-0.306155
-0.307708
-0.308704
-0.309435
-0.310082
-0.310679
-0.311253
-0.311827
-0.312415
-0.313025
-0.313665
-0.314341
-0.315059
-0.315825
-0.31665
-0.317561
-0.318551
-0.319442
-0.320202
-0.32258
-0.306635
-0.308128
-0.309087
-0.309792
-0.310416
-0.310992
-0.311546
-0.3121
-0.312667
-0.313255
-0.313873
-0.314525
-0.315218
-0.315959
-0.316759
-0.317646
-0.318616
-0.319492
-0.320228
-0.322596
-0.307332
-0.308738
-0.309644
-0.310311
-0.3109
-0.311443
-0.311965
-0.312487
-0.313021
-0.313576
-0.314158
-0.314772
-0.315426
-0.316127
-0.316887
-0.317735
-0.318672
-0.319521
-0.32022
-0.322566
-0.308223
-0.309522
-0.310361
-0.310977
-0.311519
-0.312017
-0.312495
-0.312973
-0.31346
-0.313966
-0.314497
-0.315057
-0.315656
-0.316298
-0.317
-0.317791
-0.318679
-0.319487
-0.320132
-0.322443
-0.309282
-0.310459
-0.311219
-0.311773
-0.312257
-0.312697
-0.313118
-0.313535
-0.313961
-0.314402
-0.314864
-0.315352
-0.315875
-0.31644
-0.317062
-0.317776
-0.318593
-0.319343
-0.319916
-0.322173
-0.310482
-0.311528
-0.312201
-0.312683
-0.313095
-0.313465
-0.313813
-0.314156
-0.314503
-0.314861
-0.315234
-0.31563
-0.316055
-0.316518
-0.317037
-0.317649
-0.318373
-0.319042
-0.319523
-0.321705
-0.311796
-0.31271
-0.313288
-0.313689
-0.314019
-0.314305
-0.314565
-0.314816
-0.315067
-0.315323
-0.315588
-0.315868
-0.316172
-0.316509
-0.316898
-0.317379
-0.317981
-0.318544
-0.318911
-0.320995
-0.313203
-0.313987
-0.314467
-0.314778
-0.315015
-0.315203
-0.315361
-0.315505
-0.315642
-0.315776
-0.315913
-0.316056
-0.316214
-0.316397
-0.316626
-0.316945
-0.317393
-0.317819
-0.318046
-0.32001
-0.314684
-0.315346
-0.315726
-0.315941
-0.316074
-0.316153
-0.316195
-0.316216
-0.316223
-0.31622
-0.316209
-0.316194
-0.316182
-0.316185
-0.316224
-0.316347
-0.316602
-0.316853
-0.316908
-0.318728
-0.316231
-0.316781
-0.317061
-0.317172
-0.317193
-0.317151
-0.317065
-0.316951
-0.316815
-0.31666
-0.316487
-0.316297
-0.316096
-0.315894
-0.315712
-0.315601
-0.31562
-0.315648
-0.315486
-0.31713
-0.317842
-0.318291
-0.318471
-0.318473
-0.318372
-0.318199
-0.317976
-0.317718
-0.31743
-0.317115
-0.316771
-0.316395
-0.31599
-0.315563
-0.315133
-0.314751
-0.314483
-0.314225
-0.313778
-0.315194
-0.319524
-0.319882
-0.319961
-0.319847
-0.319617
-0.319306
-0.318937
-0.318528
-0.318085
-0.317607
-0.317089
-0.316526
-0.315912
-0.315248
-0.314548
-0.313857
-0.313247
-0.312623
-0.311788
-0.312884
-0.321296
-0.321569
-0.321543
-0.321306
-0.320939
-0.32048
-0.319961
-0.319398
-0.318798
-0.31816
-0.317474
-0.316729
-0.31591
-0.315009
-0.314026
-0.312996
-0.311984
-0.310897
-0.309528
-0.310148
-0.32318
-0.323371
-0.323235
-0.322865
-0.32235
-0.321736
-0.32106
-0.320341
-0.319587
-0.318795
-0.31795
-0.317035
-0.316025
-0.314896
-0.313629
-0.312238
-0.31077
-0.309112
-0.307017
-0.30692
-0.32521
-0.325314
-0.325056
-0.324541
-0.323867
-0.323089
-0.322248
-0.32137
-0.320463
-0.319522
-0.318531
-0.31746
-0.316277
-0.314937
-0.313397
-0.311638
-0.309672
-0.307347
-0.304315
-0.30317
-0.327424
-0.327429
-0.327035
-0.326359
-0.32551
-0.324554
-0.32354
-0.322497
-0.321435
-0.320348
-0.319215
-0.318002
-0.316662
-0.315132
-0.31334
-0.311224
-0.30875
-0.305708
-0.301577
-0.298987
-0.329867
-0.329751
-0.329201
-0.328344
-0.327302
-0.326153
-0.324952
-0.323733
-0.322509
-0.321273
-0.320001
-0.318652
-0.317168
-0.315469
-0.313451
-0.311003
-0.30803
-0.304253
-0.298902
-0.294385
-0.332586
-0.332322
-0.331589
-0.330528
-0.329271
-0.327909
-0.326505
-0.325097
-0.323699
-0.322307
-0.320894
-0.319418
-0.317813
-0.315987
-0.313813
-0.311129
-0.307747
-0.303238
-0.296434
-0.289282
-0.335635
-0.335186
-0.334238
-0.332944
-0.331448
-0.329852
-0.328226
-0.326613
-0.32503
-0.323474
-0.321924
-0.32034
-0.318667
-0.316831
-0.314729
-0.31223
-0.309148
-0.304956
-0.298143
-0.289962
-0.339068
-0.338388
-0.33719
-0.335634
-0.333872
-0.332018
-0.330151
-0.328317
-0.326537
-0.324811
-0.323126
-0.321455
-0.319769
-0.318045
-0.316276
-0.314509
-0.312882
-0.311641
-0.311809
-0.319645
-0.342941
-0.341978
-0.340489
-0.338638
-0.336583
-0.33445
-0.332324
-0.330255
-0.328267
-0.326364
-0.324539
-0.322781
-0.321086
-0.319467
-0.317978
-0.316744
-0.316005
-0.316151
-0.318022
-0.325534
-0.347312
-0.346006
-0.344183
-0.342004
-0.339629
-0.337196
-0.334795
-0.332479
-0.330272
-0.328183
-0.326211
-0.324354
-0.322624
-0.321056
-0.319728
-0.318778
-0.318427
-0.318978
-0.320864
-0.325982
-0.352237
-0.350522
-0.34832
-0.34578
-0.34306
-0.340307
-0.337617
-0.335042
-0.332606
-0.330317
-0.328175
-0.326184
-0.32436
-0.322743
-0.321404
-0.320455
-0.320046
-0.320348
-0.321557
-0.324355
-0.357768
-0.355576
-0.352948
-0.350016
-0.346926
-0.343837
-0.340844
-0.337995
-0.335312
-0.332795
-0.330443
-0.328256
-0.326246
-0.324443
-0.322899
-0.321686
-0.320883
-0.320559
-0.320799
-0.321599
-0.363955
-0.361215
-0.358116
-0.354762
-0.351281
-0.347838
-0.344525
-0.341382
-0.338419
-0.33563
-0.333001
-0.330527
-0.32821
-0.326067
-0.324129
-0.322435
-0.321018
-0.319894
-0.319104
-0.318365
-0.370841
-0.367481
-0.363868
-0.360066
-0.356175
-0.352359
-0.348703
-0.345231
-0.341939
-0.338806
-0.335808
-0.332929
-0.330164
-0.327521
-0.325019
-0.322678
-0.320514
-0.318527
-0.31674
-0.31482
-0.378462
-0.374412
-0.370247
-0.365973
-0.361651
-0.357439
-0.353405
-0.349552
-0.345856
-0.34228
-0.338791
-0.335368
-0.332005
-0.328709
-0.325498
-0.322394
-0.319411
-0.316555
-0.313845
-0.311009
-0.386839
-0.382034
-0.377283
-0.372518
-0.367744
-0.363102
-0.358638
-0.354327
-0.350123
-0.345977
-0.341853
-0.337733
-0.333621
-0.329534
-0.325503
-0.321557
-0.317722
-0.314017
-0.310458
-0.306859
-0.39598
-0.390363
-0.384999
-0.379724
-0.37447
-0.369351
-0.364381
-0.359505
-0.354659
-0.34979
-0.344871
-0.339899
-0.334899
-0.329909
-0.324976
-0.320144
-0.315451
-0.310926
-0.306581
-0.302304
-0.405871
-0.399393
-0.393397
-0.387594
-0.381822
-0.376157
-0.370575
-0.364997
-0.359348
-0.353585
-0.347705
-0.341737
-0.335732
-0.329756
-0.323872
-0.318139
-0.312599
-0.307287
-0.302206
-0.297294
-0.416473
-0.409098
-0.402457
-0.396105
-0.38976
-0.383453
-0.377125
-0.370675
-0.36404
-0.357207
-0.350211
-0.343121
-0.336024
-0.32901
-0.322157
-0.315529
-0.309168
-0.303105
-0.29733
-0.291812
-0.427716
-0.419425
-0.41213
-0.405197
-0.398205
-0.391131
-0.383887
-0.376376
-0.368563
-0.360489
-0.35224
-0.343935
-0.335693
-0.327621
-0.319806
-0.312307
-0.30516
-0.298386
-0.291957
-0.28586
-0.439498
-0.430285
-0.422332
-0.414775
-0.407034
-0.399036
-0.390682
-0.381903
-0.372726
-0.363259
-0.353654
-0.344075
-0.334666
-0.325546
-0.316796
-0.308465
-0.300577
-0.293135
-0.286093
-0.279449
-0.451674
-0.441554
-0.432937
-0.424696
-0.416077
-0.406968
-0.397291
-0.387039
-0.376328
-0.365351
-0.354323
-0.343446
-0.332883
-0.322746
-0.313105
-0.303992
-0.295412
-0.28735
-0.279737
-0.272589
-0.464063
-0.453065
-0.443778
-0.43477
-0.425114
-0.414687
-0.403469
-0.391556
-0.379174
-0.366606
-0.354128
-0.341966
-0.330284
-0.319182
-0.308707
-0.298869
-0.289652
-0.281022
-0.272885
-0.265281
-0.476437
-0.464611
-0.454639
-0.444759
-0.433886
-0.421922
-0.408955
-0.395221
-0.381071
-0.366877
-0.35296
-0.339556
-0.326815
-0.314813
-0.303569
-0.293068
-0.283273
-0.274131
-0.26552
-0.257516
-0.488532
-0.475941
-0.465261
-0.454384
-0.442094
-0.428377
-0.413481
-0.397807
-0.381841
-0.366029
-0.35072
-0.336142
-0.322418
-0.309592
-0.297652
-0.286556
-0.276247
-0.26665
-0.257621
-0.249278
-0.500045
-0.486764
-0.475343
-0.463324
-0.449416
-0.433749
-0.41678
-0.3991
-0.381317
-0.363938
-0.347315
-0.331652
-0.317034
-0.303469
-0.290911
-0.279293
-0.268536
-0.258546
-0.249156
-0.240538
-0.510642
-0.496756
-0.484551
-0.471235
-0.455513
-0.437733
-0.4186
-0.3989
-0.379351
-0.360491
-0.342657
-0.326014
-0.310603
-0.29639
-0.283298
-0.271232
-0.260098
-0.24978
-0.240091
-0.231267
-0.519963
-0.505565
-0.492523
-0.477753
-0.460048
-0.440036
-0.418705
-0.397028
-0.375805
-0.355584
-0.336663
-0.319159
-0.303063
-0.2883
-0.274761
-0.262329
-0.250892
-0.240314
-0.23039
-0.22143
-0.527634
-0.512819
-0.498883
-0.482513
-0.462689
-0.440386
-0.416883
-0.393323
-0.37056
-0.349122
-0.329256
-0.311019
-0.294354
-0.279144
-0.265252
-0.252538
-0.240876
-0.23011
-0.220019
-0.210994
-0.533274
-0.51814
-0.503253
-0.485158
-0.46313
-0.438536
-0.412948
-0.387647
-0.36351
-0.341021
-0.320363
-0.301532
-0.28442
-0.268871
-0.254722
-0.241815
-0.23001
-0.21913
-0.208945
-0.199929
-0.536512
-0.521155
-0.505265
-0.485353
-0.461091
-0.434273
-0.406742
-0.379883
-0.354564
-0.331207
-0.309922
-0.290641
-0.273208
-0.257434
-0.24313
-0.230123
-0.218261
-0.207345
-0.19714
-0.18821
-0.536989
-0.521504
-0.504574
-0.482794
-0.456331
-0.427416
-0.398134
-0.369936
-0.343649
-0.319617
-0.297877
-0.278297
-0.260675
-0.244793
-0.230441
-0.217431
-0.2056
-0.194731
-0.184584
-0.175817
-0.534378
-0.518858
-0.500869
-0.47722
-0.44865
-0.417824
-0.387026
-0.357732
-0.330705
-0.306203
-0.284184
-0.264459
-0.246785
-0.230917
-0.216625
-0.203714
-0.192008
-0.181269
-0.171264
-0.162738
-0.528387
-0.512922
-0.493883
-0.468416
-0.437895
-0.405394
-0.373348
-0.34322
-0.315692
-0.290929
-0.268811
-0.249098
-0.231511
-0.215782
-0.201666
-0.188958
-0.177471
-0.166953
-0.157174
-0.148968
-0.518772
-0.503453
-0.483399
-0.45622
-0.423959
-0.390059
-0.357058
-0.326373
-0.298588
-0.273773
-0.25174
-0.232198
-0.214839
-0.199376
-0.185553
-0.173155
-0.161988
-0.15178
-0.142317
-0.13451
-0.505342
-0.490259
-0.46926
-0.440526
-0.406784
-0.371794
-0.338148
-0.307187
-0.279388
-0.254732
-0.232964
-0.213753
-0.196766
-0.181698
-0.168286
-0.156308
-0.145562
-0.135762
-0.126706
-0.119377
-0.487965
-0.473209
-0.451367
-0.421282
-0.386356
-0.350609
-0.316634
-0.285679
-0.258109
-0.233818
-0.212494
-0.193771
-0.177297
-0.162755
-0.149874
-0.13843
-0.128211
-0.118918
-0.110365
-0.103595
-0.466574
-0.452237
-0.429686
-0.398496
-0.362713
-0.32655
-0.292567
-0.261893
-0.234786
-0.21106
-0.190353
-0.172273
-0.156452
-0.142565
-0.130336
-0.119538
-0.109954
-0.101275
-0.0933291
-0.0872066
-0.441165
-0.427341
-0.404245
-0.372227
-0.335932
-0.299703
-0.266022
-0.235897
-0.209476
-0.186505
-0.166581
-0.149291
-0.134257
-0.121149
-0.109691
-0.0996547
-0.0908158
-0.0828603
-0.0756355
-0.0702563
-0.4118
-0.398587
-0.375132
-0.342589
-0.306137
-0.270185
-0.237107
-0.207781
-0.182257
-0.160217
-0.14123
-0.124868
-0.110748
-0.0985393
-0.0879664
-0.0788014
-0.0708176
-0.0637014
-0.057317
-0.0527674
-0.378607
-0.366101
-0.342496
-0.309746
-0.273491
-0.238147
-0.205955
-0.177662
-0.153227
-0.132281
-0.11437
-0.0990596
-0.0859672
-0.0747667
-0.0651856
-0.0569984
-0.0499798
-0.0438236
-0.0383974
-0.0347291
-0.341773
-0.330073
-0.306538
-0.273905
-0.238196
-0.203775
-0.172732
-0.145684
-0.122509
-0.102799
-0.0860844
-0.0719314
-0.0599637
-0.0498636
-0.0413676
-0.034257
-0.0283135
-0.0232414
-0.0188865
-0.016141
-0.301544
-0.290747
-0.267512
-0.23532
-0.200489
-0.167284
-0.137628
-0.112015
-0.0902511
-0.0718968
-0.056478
-0.0435662
-0.0327968
-0.0238673
-0.0165294
-0.0105775
-0.0058061
-0.00193655
0.00120825
0.00285949
-0.258219
-0.248418
-0.225716
-0.19428
-0.160642
-0.128919
-0.100864
-0.0768514
-0.0566252
-0.0397246
-0.0256766
-0.0140641
-0.00454113
0.0031724
0.00930091
0.0140336
0.0175589
0.0200982
0.0217615
0.0218585
-0.212143
-0.203427
-0.181487
-0.151108
-0.118953
-0.0889558
-0.0626891
-0.040417
-0.0218315
-0.00645663
0.00617536
0.0164646
0.0247324
0.0312249
0.0361314
0.0396197
0.0418359
0.0428203
0.0424465
0.0404086
-0.163698
-0.156152
-0.135195
-0.106156
-0.0757491
-0.0476922
-0.0233778
-0.00296628
0.0138962
0.0276977
0.0389006
0.0478907
0.0549654
0.0603353
0.064152
0.0665514
0.0675618
0.0668155
0.0638262
0.0596197
-0.113302
-0.107001
-0.0872351
-0.0597979
-0.031376
-0.00544956
0.0167691
0.0352153
0.0502831
0.062472
0.0722444
0.0799833
0.0859828
0.090452
0.0935556
0.0954472
0.0960254
0.0944183
0.0899097
0.0853701
-0.0613958
-0.0564063
-0.0380234
-0.0124216
0.0138059
0.0374371
0.0574349
0.0738212
0.0870234
0.0975485
0.10586
0.112343
0.117307
0.121
0.123671
0.125604
0.126766
0.126151
0.123499
0.127267
-0.00843122
-0.00481067
0.0120156
0.0355757
0.0594297
0.0806267
0.0982978
0.112541
0.12381
0.13261
0.139399
0.144557
0.148389
0.151156
0.153125
0.154562
0.155452
0.155311
0.155059
0.16101
0.045124
0.0473298
0.0624494
0.0837936
0.105128
0.12378
0.13904
0.151073
0.160349
0.167371
0.172583
0.176357
0.178991
0.180745
0.181872
0.182596
0.182896
0.182473
0.182257
0.187067
0.0988001
0.0995581
0.112847
0.131835
0.150537
0.166563
0.179352
0.189125
0.196362
0.201555
0.205134
0.207451
0.208793
0.209405
0.209522
0.209343
0.20886
0.207847
0.207066
0.210342
0.15213
0.151421
0.162782
0.17931
0.195305
0.208654
0.218938
0.226425
0.231597
0.234932
0.236839
0.237651
0.237636
0.237019
0.236008
0.234773
0.233295
0.231373
0.22971
0.231559
0.204654
0.202473
0.21184
0.225841
0.239088
0.249744
0.257517
0.262716
0.265819
0.267286
0.267506
0.266788
0.26538
0.263486
0.261291
0.258938
0.256391
0.253474
0.250853
0.251336
0.255926
0.252281
0.259617
0.271063
0.281559
0.289537
0.294824
0.297758
0.298812
0.298427
0.296966
0.294718
0.291909
0.288722
0.285321
0.281824
0.278186
0.274256
0.270674
0.269867
0.305513
0.30043
0.305729
0.314627
0.322406
0.327754
0.330606
0.331325
0.330375
0.328176
0.325066
0.321314
0.317123
0.312659
0.308065
0.303438
0.298729
0.293815
0.289296
0.287264
0.353002
0.34652
0.349807
0.356202
0.361332
0.36413
0.364626
0.363205
0.360319
0.356364
0.35166
0.346449
0.340919
0.335216
0.329465
0.323747
0.31801
0.312158
0.306744
0.303552
0.398003
0.390177
0.391504
0.395475
0.398058
0.398413
0.39666
0.393197
0.388463
0.382835
0.376607
0.370004
0.363195
0.35631
0.349457
0.342702
0.335997
0.329264
0.323003
0.318715
0.440149
0.431048
0.430496
0.432156
0.432323
0.430372
0.426498
0.421112
0.41464
0.407435
0.399774
0.391862
0.38385
0.375854
0.367967
0.360242
0.352636
0.345087
0.338032
0.332719
0.479098
0.468805
0.466483
0.465974
0.463885
0.459788
0.453945
0.446775
0.43869
0.430024
0.421035
0.411908
0.402782
0.393757
0.384915
0.376296
0.367864
0.359568
0.351779
0.345514
0.514538
0.50315
0.49919
0.496681
0.492523
0.486463
0.478821
0.470023
0.460466
0.450468
0.440267
0.430034
0.419893
0.409933
0.400221
0.390793
0.381614
0.372644
0.364185
0.357051
0.546187
0.533811
0.528368
0.524054
0.518036
0.510215
0.500962
0.490707
0.479834
0.468644
0.45736
0.446138
0.435091
0.424295
0.413809
0.403659
0.393818
0.38425
0.37519
0.367275
0.573793
0.56055
0.553797
0.547895
0.540245
0.530883
0.520222
0.508693
0.496671
0.484441
0.472211
0.460127
0.448289
0.436766
0.425604
0.414827
0.404411
0.394325
0.38474
0.376139
0.597138
0.583156
0.575285
0.568031
0.558995
0.548326
0.536473
0.523867
0.510872
0.497761
0.484732
0.471918
0.459412
0.447273
0.435542
0.424235
0.413335
0.402812
0.392781
0.383597
0.616038
0.601456
0.592672
0.584317
0.574156
0.562427
0.549607
0.536128
0.522344
0.508521
0.494844
0.48144
0.468393
0.455756
0.443564
0.43183
0.420539
0.409664
0.39927
0.389611
0.630346
0.615306
0.605829
0.596636
0.58562
0.573088
0.559536
0.545395
0.531015
0.516653
0.502485
0.488634
0.475178
0.462165
0.449624
0.437567
0.425981
0.414839
0.404169
0.39415
0.639948
0.624601
0.614655
0.6049
0.59331
0.580238
0.566194
0.551609
0.536829
0.522104
0.507608
0.493456
0.479726
0.46646
0.453685
0.441411
0.429628
0.418307
0.407452
0.39719
0.64477
0.629269
0.619087
0.609048
0.59717
0.583827
0.569535
0.554728
0.539746
0.524839
0.510178
0.495876
0.482008
0.468615
0.455723
0.44334
0.431458
0.420048
0.409099
0.398715
0.644774
0.629272
0.619091
0.609052
0.597173
0.58383
0.569539
0.554731
0.539749
0.524842
0.510181
0.495879
0.48201
0.468618
0.455726
0.443343
0.43146
0.42005
0.409101
0.398717
0.63996
0.624613
0.614667
0.604911
0.59332
0.580248
0.566203
0.551618
0.536837
0.522112
0.507616
0.493464
0.479733
0.466467
0.453693
0.441418
0.429635
0.418314
0.407459
0.397196
0.630366
0.615326
0.605848
0.596654
0.585638
0.573105
0.559552
0.54541
0.53103
0.516667
0.502499
0.488647
0.475191
0.462177
0.449636
0.437579
0.425993
0.41485
0.40418
0.394161
0.616066
0.601483
0.592699
0.584342
0.57418
0.56245
0.549629
0.536149
0.522365
0.508541
0.494863
0.481458
0.468411
0.455774
0.443581
0.431847
0.420555
0.409679
0.399285
0.389626
0.597174
0.583192
0.575319
0.568063
0.559026
0.548356
0.536501
0.523894
0.510897
0.497786
0.484756
0.471942
0.459435
0.447295
0.435564
0.424257
0.413356
0.402832
0.392801
0.383616
0.573837
0.560593
0.553838
0.547934
0.540282
0.530919
0.520256
0.508726
0.496703
0.484472
0.472241
0.460156
0.448317
0.436793
0.425631
0.414853
0.404436
0.394349
0.384764
0.376162
0.546239
0.533863
0.528417
0.524101
0.51808
0.510257
0.501003
0.490746
0.479871
0.46868
0.457395
0.446172
0.435123
0.424327
0.41384
0.403689
0.393847
0.384279
0.375219
0.367303
0.514598
0.503209
0.499246
0.496735
0.492574
0.486512
0.478868
0.470068
0.460509
0.45051
0.440307
0.430073
0.419931
0.40997
0.400257
0.390828
0.381648
0.372677
0.364218
0.357082
0.479166
0.468872
0.466547
0.466035
0.463943
0.459844
0.453998
0.446826
0.438738
0.430071
0.42108
0.411952
0.402825
0.393799
0.384955
0.376336
0.367903
0.359606
0.351816
0.34555
0.440224
0.431122
0.430568
0.432224
0.432387
0.430434
0.426557
0.421169
0.414694
0.407488
0.399825
0.391911
0.383897
0.3759
0.368012
0.360286
0.352679
0.345129
0.338073
0.332759
0.398086
0.390259
0.391582
0.39555
0.398129
0.398481
0.396725
0.393259
0.388523
0.382892
0.376663
0.370058
0.363248
0.356361
0.349507
0.342751
0.336045
0.32931
0.323048
0.318759
0.353093
0.346609
0.349892
0.356284
0.361409
0.364204
0.364697
0.363273
0.360384
0.356428
0.351721
0.346508
0.340976
0.335272
0.32952
0.3238
0.318062
0.312208
0.306794
0.3036
0.305611
0.300526
0.305822
0.314716
0.32249
0.327835
0.330683
0.331399
0.330446
0.328244
0.325133
0.321378
0.317185
0.31272
0.308124
0.303496
0.298785
0.29387
0.28935
0.287317
0.256031
0.252385
0.259717
0.271159
0.28165
0.289624
0.294907
0.297837
0.298889
0.298501
0.297038
0.294787
0.291976
0.288788
0.285385
0.281886
0.278246
0.274316
0.270732
0.269924
0.204767
0.202583
0.211947
0.225943
0.239185
0.249836
0.257606
0.262801
0.2659
0.267365
0.267582
0.266862
0.265452
0.263556
0.261359
0.259004
0.256456
0.253538
0.250915
0.251396
0.15225
0.151538
0.162896
0.179419
0.195408
0.208752
0.219032
0.226515
0.231684
0.235016
0.23692
0.23773
0.237713
0.237094
0.236081
0.234844
0.233364
0.231441
0.229777
0.231624
0.0989267
0.0996827
0.112967
0.13195
0.150647
0.166667
0.179452
0.189221
0.196454
0.201644
0.20522
0.207534
0.208874
0.209485
0.209599
0.209418
0.208934
0.207919
0.207137
0.21041
0.0452574
0.0474611
0.0625764
0.083915
0.105243
0.12389
0.139145
0.151175
0.160447
0.167465
0.172675
0.176445
0.179077
0.180829
0.181954
0.182676
0.182974
0.18255
0.182332
0.18714
-0.00829122
-0.00467272
0.0121491
0.0357034
0.0595514
0.0807428
0.098409
0.112648
0.123912
0.13271
0.139496
0.14465
0.14848
0.151245
0.153211
0.154646
0.155534
0.155392
0.155138
0.161087
-0.0612494
-0.056262
-0.0378837
-0.0122879
0.0139334
0.0375588
0.0575514
0.0739332
0.0871312
0.0976528
0.105961
0.112441
0.117403
0.121093
0.123762
0.125693
0.126853
0.126236
0.123583
0.127349
-0.113149
-0.106851
-0.0870892
-0.0596582
-0.0312428
-0.00532232
0.0168909
0.0353324
0.050396
0.0625811
0.0723501
0.0800861
0.0860829
0.0905496
0.0936511
0.0955407
0.0961171
0.0945086
0.089999
0.085459
-0.163539
-0.155996
-0.135043
-0.106011
-0.0756102
-0.0475596
-0.0232508
-0.00284418
0.0140139
0.0278115
0.039011
0.0479981
0.05507
0.0604374
0.064252
0.0666494
0.0676581
0.0669104
0.06392
0.0597132
-0.211978
-0.203265
-0.18133
-0.150957
-0.118809
-0.0888179
-0.062557
-0.04029
-0.0217091
-0.00633815
0.0062903
0.0165764
0.0248414
0.0313313
0.0362356
0.0397218
0.0419363
0.042919
0.042544
0.0405054
-0.258049
-0.24825
-0.225553
-0.194124
-0.160492
-0.128776
-0.100727
-0.0767196
-0.0564981
-0.0396017
-0.0255573
-0.0139481
-0.00442804
0.00328286
0.00940901
0.0141396
0.017663
0.0202005
0.0218623
0.0219583
-0.301369
-0.290574
-0.267344
-0.235158
-0.200335
-0.167136
-0.137486
-0.111879
-0.0901196
-0.0717695
-0.0563545
-0.043446
-0.0326797
-0.0237529
-0.0164175
-0.0104679
-0.00569853
-0.00183086
0.00131223
0.00296224
-0.341593
-0.329895
-0.306365
-0.273739
-0.238037
-0.203622
-0.172585
-0.145543
-0.122374
-0.102667
-0.0859569
-0.0718074
-0.0598428
-0.0497456
-0.0412522
-0.0341439
-0.0282026
-0.0231324
-0.0187794
-0.0160353
-0.378422
-0.365919
-0.342318
-0.309574
-0.273327
-0.23799
-0.205805
-0.177517
-0.153087
-0.132145
-0.114239
-0.0989318
-0.0858427
-0.0746451
-0.0650667
-0.056882
-0.0498657
-0.0437115
-0.0382873
-0.0346205
-0.411611
-0.3984
-0.37495
-0.342414
-0.305969
-0.270023
-0.236952
-0.207632
-0.182113
-0.160078
-0.141095
-0.124737
-0.11062
-0.0984143
-0.0878442
-0.0786817
-0.0707003
-0.0635864
-0.057204
-0.052656
-0.440972
-0.427151
-0.404059
-0.372047
-0.335759
-0.299538
-0.265863
-0.235744
-0.209329
-0.186362
-0.166442
-0.149156
-0.134125
-0.121021
-0.109566
-0.099532
-0.0906956
-0.0827424
-0.0755197
-0.0701422
-0.466378
-0.452043
-0.429496
-0.398312
-0.362536
-0.326381
-0.292404
-0.261737
-0.234635
-0.210913
-0.190211
-0.172135
-0.156317
-0.142433
-0.130207
-0.119413
-0.109831
-0.101154
-0.0932106
-0.0870899
-0.487766
-0.473011
-0.451174
-0.421095
-0.386176
-0.350436
-0.316468
-0.285519
-0.257954
-0.233668
-0.212348
-0.19363
-0.177159
-0.162621
-0.149743
-0.138301
-0.128085
-0.118795
-0.110244
-0.103476
-0.50514
-0.490058
-0.469064
-0.440335
-0.4066
-0.371618
-0.337978
-0.307023
-0.27923
-0.254579
-0.232815
-0.213608
-0.196625
-0.181561
-0.168151
-0.156177
-0.145434
-0.135636
-0.126582
-0.119255
-0.518568
-0.503251
-0.483201
-0.456027
-0.423773
-0.38988
-0.356886
-0.326207
-0.298427
-0.273617
-0.251588
-0.23205
-0.214696
-0.199236
-0.185416
-0.173021
-0.161856
-0.151652
-0.14219
-0.134386
-0.528181
-0.512718
-0.493682
-0.46822
-0.437706
-0.405211
-0.373172
-0.343051
-0.315528
-0.29077
-0.268657
-0.248948
-0.231365
-0.215639
-0.201526
-0.188821
-0.177337
-0.166821
-0.157045
-0.148841
-0.534171
-0.518652
-0.500667
-0.477022
-0.448458
-0.417639
-0.386848
-0.35756
-0.330538
-0.306042
-0.284027
-0.264306
-0.246636
-0.230771
-0.216483
-0.203575
-0.191871
-0.181135
-0.171133
-0.162609
-0.536781
-0.521298
-0.50437
-0.482595
-0.456137
-0.427229
-0.397954
-0.369761
-0.343479
-0.319453
-0.297717
-0.278141
-0.260523
-0.244645
-0.230296
-0.217289
-0.205461
-0.194594
-0.18445
-0.175685
-0.536303
-0.520948
-0.50506
-0.485152
-0.460895
-0.434084
-0.406559
-0.379706
-0.354393
-0.33104
-0.30976
-0.290483
-0.273054
-0.257284
-0.242983
-0.229979
-0.218119
-0.207206
-0.197004
-0.188076
-0.533066
-0.517933
-0.503048
-0.484957
-0.462933
-0.438346
-0.412763
-0.387468
-0.363336
-0.340851
-0.320199
-0.301372
-0.284263
-0.268718
-0.254572
-0.241668
-0.229866
-0.218989
-0.208806
-0.199793
-0.527425
-0.512612
-0.498678
-0.482312
-0.462492
-0.440194
-0.416697
-0.393142
-0.370384
-0.34895
-0.329089
-0.310857
-0.294195
-0.278989
-0.265099
-0.252388
-0.240729
-0.229966
-0.219878
-0.210855
-0.519756
-0.505359
-0.492319
-0.477552
-0.45985
-0.439843
-0.418517
-0.396845
-0.375627
-0.35541
-0.336494
-0.318994
-0.302902
-0.288142
-0.274607
-0.262177
-0.250743
-0.240168
-0.230247
-0.221289
-0.510435
-0.496551
-0.484347
-0.471034
-0.455316
-0.437539
-0.418411
-0.398716
-0.379171
-0.360316
-0.342486
-0.325847
-0.310439
-0.29623
-0.283141
-0.271078
-0.259947
-0.249632
-0.239945
-0.231123
-0.49984
-0.48656
-0.475141
-0.463124
-0.449218
-0.433555
-0.41659
-0.398915
-0.381136
-0.363761
-0.347142
-0.331483
-0.316869
-0.303306
-0.290752
-0.279136
-0.268382
-0.258395
-0.249007
-0.240392
-0.488329
-0.475739
-0.46506
-0.454185
-0.441897
-0.428183
-0.41329
-0.397621
-0.381658
-0.365851
-0.350546
-0.335971
-0.32225
-0.309427
-0.297491
-0.286398
-0.276091
-0.266496
-0.25747
-0.249129
-0.476236
-0.464411
-0.45444
-0.444562
-0.43369
-0.421729
-0.408765
-0.395034
-0.380887
-0.366697
-0.352784
-0.339383
-0.326645
-0.314646
-0.303405
-0.292907
-0.283115
-0.273975
-0.265367
-0.257365
-0.463863
-0.452867
-0.443581
-0.434574
-0.42492
-0.414495
-0.403279
-0.391369
-0.37899
-0.366425
-0.35395
-0.341791
-0.330112
-0.319013
-0.308541
-0.298705
-0.28949
-0.280863
-0.272728
-0.265127
-0.451478
-0.441358
-0.432743
-0.424503
-0.415884
-0.406777
-0.397102
-0.386852
-0.376144
-0.365168
-0.354144
-0.34327
-0.332709
-0.322574
-0.312936
-0.303826
-0.295248
-0.287189
-0.279578
-0.272431
-0.439303
-0.430092
-0.422139
-0.414584
-0.406844
-0.398847
-0.390494
-0.381716
-0.372541
-0.363076
-0.353474
-0.343896
-0.33449
-0.325372
-0.316624
-0.308296
-0.30041
-0.29297
-0.28593
-0.279288
-0.427524
-0.419234
-0.41194
-0.405008
-0.398017
-0.390944
-0.383701
-0.37619
-0.368379
-0.360306
-0.352059
-0.343755
-0.335515
-0.327445
-0.319632
-0.312134
-0.30499
-0.298218
-0.291791
-0.285696
-0.416283
-0.40891
-0.402269
-0.395918
-0.389574
-0.383268
-0.37694
-0.370491
-0.363857
-0.357024
-0.350028
-0.342939
-0.335844
-0.328831
-0.32198
-0.315353
-0.308994
-0.302933
-0.29716
-0.291644
-0.405683
-0.399206
-0.393212
-0.38741
-0.381638
-0.375974
-0.370392
-0.364814
-0.359164
-0.353402
-0.347522
-0.341554
-0.33555
-0.329574
-0.323692
-0.31796
-0.312422
-0.307111
-0.302032
-0.297122
-0.395794
-0.390178
-0.384816
-0.379542
-0.374288
-0.36917
-0.364199
-0.359323
-0.354477
-0.349607
-0.344687
-0.339715
-0.334715
-0.329725
-0.324793
-0.319962
-0.31527
-0.310746
-0.306403
-0.302128
-0.386656
-0.381852
-0.377102
-0.372338
-0.367564
-0.362923
-0.358459
-0.354147
-0.349942
-0.345795
-0.341669
-0.337548
-0.333435
-0.329348
-0.325316
-0.32137
-0.317536
-0.313833
-0.310275
-0.306678
-0.37828
-0.374231
-0.370068
-0.365795
-0.361474
-0.357262
-0.353227
-0.349374
-0.345676
-0.342098
-0.338607
-0.335182
-0.331817
-0.32852
-0.325308
-0.322203
-0.31922
-0.316365
-0.313657
-0.310822
-0.370661
-0.367302
-0.363691
-0.35989
-0.355999
-0.352184
-0.348527
-0.345055
-0.34176
-0.338625
-0.335624
-0.332742
-0.329974
-0.327329
-0.324825
-0.322483
-0.320319
-0.318332
-0.316546
-0.314628
-0.363776
-0.361037
-0.357939
-0.354587
-0.351107
-0.347665
-0.344351
-0.341207
-0.338241
-0.335449
-0.332818
-0.33034
-0.328019
-0.325872
-0.323931
-0.322235
-0.320817
-0.319693
-0.318903
-0.318167
-0.357589
-0.355399
-0.352773
-0.349842
-0.346754
-0.343665
-0.340671
-0.337821
-0.335134
-0.332615
-0.330259
-0.328067
-0.326052
-0.324245
-0.322697
-0.321481
-0.320676
-0.320352
-0.320592
-0.321394
-0.352058
-0.350346
-0.348145
-0.345607
-0.342888
-0.340135
-0.337445
-0.334868
-0.332429
-0.330136
-0.32799
-0.325994
-0.324164
-0.322541
-0.321198
-0.320245
-0.319832
-0.320132
-0.321342
-0.324143
-0.347134
-0.34583
-0.344009
-0.341832
-0.339458
-0.337024
-0.334623
-0.332304
-0.330095
-0.328002
-0.326024
-0.324161
-0.322425
-0.320851
-0.319517
-0.318562
-0.318206
-0.318755
-0.32064
-0.325762
-0.342763
-0.341802
-0.340316
-0.338466
-0.336412
-0.334279
-0.332151
-0.33008
-0.328088
-0.32618
-0.32435
-0.322586
-0.320884
-0.319258
-0.317762
-0.316521
-0.315776
-0.315918
-0.317788
-0.325304
-0.33889
-0.338213
-0.337017
-0.335462
-0.333701
-0.331847
-0.329978
-0.328141
-0.326357
-0.324626
-0.322934
-0.321257
-0.319564
-0.317832
-0.316055
-0.314281
-0.312647
-0.3114
-0.311564
-0.319402
-0.335458
-0.335012
-0.334066
-0.332773
-0.331277
-0.32968
-0.328052
-0.326435
-0.324848
-0.323287
-0.32173
-0.320139
-0.318459
-0.316614
-0.314504
-0.311996
-0.308906
-0.304705
-0.297884
-0.289695
-0.33241
-0.33215
-0.331418
-0.330358
-0.329101
-0.327737
-0.326331
-0.324919
-0.323516
-0.322118
-0.320699
-0.319215
-0.317602
-0.315768
-0.313585
-0.310892
-0.307502
-0.302985
-0.296172
-0.289013
-0.329693
-0.329581
-0.329032
-0.328176
-0.327133
-0.325982
-0.324779
-0.323556
-0.322326
-0.321083
-0.319804
-0.318448
-0.316956
-0.315248
-0.313221
-0.310765
-0.307784
-0.303999
-0.298642
-0.294119
-0.327254
-0.327262
-0.326869
-0.326193
-0.325343
-0.324386
-0.323368
-0.32232
-0.321253
-0.320159
-0.319019
-0.317799
-0.31645
-0.314911
-0.313111
-0.310987
-0.308505
-0.305455
-0.301319
-0.298724
-0.325044
-0.325151
-0.324895
-0.32438
-0.323704
-0.322923
-0.322079
-0.321196
-0.320284
-0.319336
-0.318337
-0.317259
-0.316066
-0.314718
-0.313171
-0.311403
-0.30943
-0.307098
-0.304061
-0.302912
-0.32302
-0.323214
-0.323078
-0.322708
-0.322191
-0.321575
-0.320895
-0.320171
-0.319411
-0.318612
-0.31776
-0.316837
-0.315819
-0.314682
-0.313407
-0.312008
-0.310533
-0.308869
-0.306769
-0.306668
-0.321142
-0.321418
-0.321393
-0.321155
-0.320786
-0.320325
-0.319801
-0.319233
-0.318628
-0.317983
-0.31729
-0.316537
-0.31571
-0.314801
-0.313811
-0.312773
-0.311754
-0.310661
-0.309287
-0.309903
-0.319379
-0.319739
-0.319818
-0.319703
-0.319472
-0.319157
-0.318785
-0.318371
-0.317922
-0.317437
-0.316913
-0.316341
-0.31572
-0.315049
-0.314341
-0.313643
-0.313027
-0.312396
-0.311557
-0.312647
-0.317705
-0.318156
-0.318336
-0.318337
-0.318234
-0.318059
-0.317832
-0.317568
-0.317275
-0.316954
-0.316603
-0.31622
-0.315808
-0.315374
-0.314937
-0.314548
-0.314274
-0.314009
-0.313557
-0.314966
-0.316104
-0.316655
-0.316935
-0.317045
-0.317064
-0.317019
-0.31693
-0.316811
-0.31667
-0.316509
-0.31633
-0.316133
-0.315925
-0.315716
-0.315528
-0.31541
-0.315423
-0.315445
-0.315277
-0.316915
-0.314569
-0.31523
-0.31561
-0.315824
-0.315955
-0.316031
-0.31607
-0.316087
-0.316089
-0.31608
-0.316063
-0.316042
-0.316024
-0.31602
-0.316053
-0.316169
-0.316418
-0.316664
-0.316713
-0.318527
-0.313098
-0.313882
-0.314362
-0.314672