/*--------------------------------*- C++ -*----------------------------------*\
  =========                 |
  \\      /  F ield         | OpenFOAM: The Open Source CFD Toolbox
   \\    /   O peration     | Website:  https://openfoam.org
    \\  /    A nd           | Version:  6.0
     \\/     M anipulation  |
\*---------------------------------------------------------------------------*/
FoamFile
{
    version     2.0;
    format      ascii;
    class       volScalarField;
    location    "21";
    object      p;
}
// * * * * * * * * * * * * * * * * * * * * * * * * * * * * * * * * * * * * * //

dimensions      [0 2 -2 0 0 0 0];

internalField   nonuniform List<scalar> 
12500
(
-0.262865
-0.263689
-0.264257
-0.264688
-0.265057
-0.265374
-0.265647
-0.265888
-0.266104
-0.266301
-0.266484
-0.266656
-0.26682
-0.26698
-0.267137
-0.267295
-0.267455
-0.267622
-0.267796
-0.267982
-0.268188
-0.268413
-0.268599
-0.268715
-0.269359
-0.26293
-0.263753
-0.264318
-0.264747
-0.265113
-0.265427
-0.265697
-0.265934
-0.266146
-0.26634
-0.266518
-0.266686
-0.266846
-0.267
-0.267153
-0.267306
-0.267461
-0.267623
-0.267793
-0.267974
-0.268174
-0.268395
-0.268577
-0.268688
-0.269329
-0.26307
-0.263888
-0.264449
-0.264873
-0.265234
-0.265542
-0.265805
-0.266036
-0.266241
-0.266426
-0.266597
-0.266756
-0.266907
-0.267053
-0.267196
-0.267339
-0.267485
-0.267637
-0.267797
-0.267969
-0.26816
-0.268373
-0.268547
-0.268649
-0.269286
-0.263284
-0.264095
-0.264649
-0.265067
-0.26542
-0.265719
-0.265973
-0.266193
-0.266387
-0.266561
-0.266719
-0.266865
-0.267003
-0.267135
-0.267264
-0.267392
-0.267524
-0.267661
-0.267806
-0.267964
-0.268143
-0.268343
-0.268506
-0.268594
-0.269224
-0.263571
-0.264374
-0.26492
-0.265328
-0.265671
-0.265957
-0.266198
-0.266404
-0.266583
-0.266741
-0.266883
-0.267012
-0.267131
-0.267244
-0.267354
-0.267463
-0.267574
-0.267691
-0.267817
-0.267955
-0.268115
-0.268299
-0.268447
-0.268517
-0.269137
-0.263932
-0.264724
-0.26526
-0.265657
-0.265986
-0.266257
-0.266482
-0.26667
-0.26683
-0.266967
-0.267088
-0.267194
-0.267291
-0.26738
-0.267464
-0.267547
-0.267633
-0.267723
-0.267823
-0.267936
-0.268072
-0.268234
-0.268361
-0.268409
-0.269018
-0.264365
-0.265146
-0.26567
-0.266053
-0.266366
-0.266619
-0.266823
-0.266989
-0.267125
-0.267238
-0.267332
-0.267411
-0.267479
-0.267537
-0.267591
-0.267642
-0.267694
-0.267752
-0.267818
-0.267899
-0.268005
-0.26814
-0.268242
-0.268261
-0.268856
-0.264872
-0.265641
-0.266151
-0.266517
-0.266811
-0.267042
-0.267222
-0.267362
-0.26747
-0.267553
-0.267616
-0.267662
-0.267694
-0.267716
-0.267732
-0.267743
-0.267755
-0.267772
-0.267798
-0.267839
-0.267907
-0.268007
-0.268077
-0.268063
-0.268641
-0.265454
-0.266209
-0.266703
-0.26705
-0.267322
-0.267527
-0.267679
-0.267788
-0.267864
-0.267913
-0.267939
-0.267945
-0.267937
-0.267915
-0.267885
-0.267849
-0.267813
-0.26778
-0.267756
-0.267748
-0.26777
-0.267828
-0.267859
-0.267803
-0.268362
-0.266112
-0.266851
-0.267328
-0.267653
-0.267899
-0.268075
-0.268195
-0.268269
-0.268308
-0.268317
-0.2683
-0.268263
-0.268206
-0.268135
-0.268052
-0.26796
-0.267866
-0.267774
-0.26769
-0.267623
-0.267587
-0.267592
-0.267575
-0.267471
-0.268007
-0.266847
-0.26757
-0.268027
-0.268327
-0.268543
-0.268687
-0.26877
-0.268806
-0.268803
-0.268767
-0.268704
-0.268616
-0.268506
-0.268377
-0.268233
-0.268077
-0.267915
-0.267753
-0.267598
-0.267459
-0.267354
-0.267294
-0.267217
-0.267054
-0.267563
-0.267664
-0.268368
-0.268802
-0.269074
-0.269257
-0.269364
-0.269407
-0.2694
-0.269351
-0.269267
-0.269151
-0.269007
-0.268838
-0.268646
-0.268433
-0.268205
-0.267965
-0.267721
-0.267481
-0.267257
-0.267067
-0.266928
-0.266776
-0.266542
-0.267018
-0.268566
-0.269249
-0.269655
-0.269896
-0.270042
-0.270108
-0.270107
-0.270053
-0.269954
-0.269817
-0.269646
-0.269443
-0.269209
-0.268948
-0.26866
-0.26835
-0.268022
-0.267685
-0.267347
-0.26702
-0.266729
-0.266491
-0.266245
-0.265921
-0.266356
-0.269558
-0.270214
-0.270591
-0.270796
-0.270901
-0.270922
-0.270873
-0.270768
-0.270616
-0.270423
-0.270193
-0.269927
-0.269625
-0.26929
-0.268921
-0.268523
-0.268098
-0.267655
-0.267204
-0.266758
-0.266343
-0.265984
-0.26562
-0.265182
-0.265562
-0.270644
-0.27127
-0.271612
-0.271776
-0.271835
-0.271806
-0.271705
-0.271546
-0.271338
-0.271087
-0.270795
-0.270464
-0.270093
-0.269681
-0.269228
-0.268736
-0.268206
-0.267647
-0.267067
-0.266482
-0.265921
-0.265412
-0.264898
-0.264311
-0.264617
-0.27183
-0.27242
-0.272721
-0.272839
-0.272847
-0.272764
-0.272606
-0.272389
-0.272122
-0.271811
-0.271457
-0.27106
-0.270618
-0.270129
-0.26959
-0.269001
-0.268361
-0.267677
-0.266955
-0.266211
-0.265477
-0.264786
-0.264081
-0.263299
-0.263496
-0.273123
-0.273669
-0.273922
-0.273988
-0.273939
-0.273796
-0.273577
-0.273298
-0.272969
-0.272596
-0.272178
-0.271716
-0.271204
-0.270639
-0.270015
-0.269329
-0.268577
-0.267761
-0.266886
-0.265965
-0.265031
-0.264119
-0.263174
-0.262134
-0.262172
-0.274527
-0.275022
-0.275221
-0.275227
-0.275113
-0.274904
-0.274618
-0.274273
-0.273879
-0.273441
-0.272959
-0.272431
-0.271852
-0.271213
-0.270507
-0.269726
-0.268862
-0.267913
-0.266877
-0.265764
-0.264603
-0.263431
-0.262188
-0.260808
-0.260614
-0.276051
-0.276484
-0.276621
-0.276559
-0.276373
-0.276089
-0.275729
-0.275312
-0.274848
-0.274342
-0.273795
-0.273201
-0.272555
-0.271846
-0.271062
-0.270191
-0.26922
-0.268139
-0.266941
-0.265625
-0.264214
-0.262743
-0.261138
-0.259317
-0.258784
-0.277701
-0.278064
-0.278127
-0.277988
-0.27772
-0.277353
-0.27691
-0.276413
-0.275873
-0.275295
-0.274678
-0.274018
-0.273306
-0.272528
-0.271671
-0.270716
-0.269645
-0.268439
-0.267081
-0.265559
-0.263884
-0.262078
-0.260047
-0.257666
-0.256648
-0.279485
-0.279767
-0.279748
-0.27952
-0.279159
-0.278697
-0.278162
-0.277576
-0.276951
-0.276293
-0.275602
-0.274872
-0.274092
-0.273247
-0.272319
-0.271287
-0.270124
-0.268805
-0.267299
-0.265578
-0.263636
-0.261475
-0.258965
-0.255902
-0.254209
-0.281414
-0.281603
-0.281489
-0.281161
-0.280694
-0.280125
-0.279486
-0.278799
-0.278079
-0.277333
-0.276559
-0.275752
-0.274901
-0.273988
-0.272993
-0.27189
-0.270649
-0.269233
-0.267602
-0.265709
-0.263522
-0.26102
-0.258024
-0.254192
-0.251588
-0.283498
-0.283583
-0.283361
-0.28292
-0.282332
-0.281643
-0.280885
-0.280084
-0.279257
-0.278411
-0.277545
-0.276654
-0.275726
-0.274744
-0.273685
-0.272522
-0.27122
-0.269738
-0.268021
-0.266006
-0.263628
-0.260833
-0.257379
-0.252684
-0.248777
-0.285753
-0.285719
-0.285376
-0.284806
-0.284083
-0.283257
-0.282366
-0.281438
-0.28049
-0.279531
-0.278563
-0.277579
-0.27657
-0.275518
-0.274404
-0.2732
-0.271873
-0.27038
-0.268661
-0.266633
-0.264193
-0.261211
-0.257277
-0.251348
-0.245267
-0.288195
-0.288028
-0.287548
-0.286833
-0.285959
-0.284981
-0.283941
-0.28287
-0.281788
-0.280705
-0.279623
-0.27854
-0.277446
-0.27633
-0.275176
-0.273966
-0.272679
-0.271291
-0.269766
-0.268054
-0.266082
-0.263704
-0.260346
-0.25454
-0.247666
-0.290845
-0.290527
-0.289893
-0.289017
-0.287975
-0.286828
-0.285624
-0.284396
-0.283167
-0.281948
-0.280745
-0.279557
-0.278378
-0.277204
-0.276029
-0.27485
-0.273672
-0.272513
-0.271412
-0.270447
-0.269776
-0.269661
-0.270488
-0.273917
-0.286413
-0.293725
-0.293239
-0.292433
-0.291377
-0.29015
-0.288819
-0.287436
-0.286039
-0.284651
-0.283288
-0.281956
-0.280659
-0.279396
-0.278169
-0.276984
-0.275854
-0.274807
-0.273894
-0.273203
-0.272877
-0.273155
-0.274396
-0.277092
-0.282635
-0.295724
-0.296863
-0.296186
-0.295188
-0.293936
-0.292507
-0.290976
-0.289401
-0.287823
-0.286268
-0.284753
-0.283288
-0.28188
-0.280534
-0.279259
-0.278068
-0.27699
-0.276069
-0.275377
-0.275022
-0.275166
-0.276042
-0.277971
-0.281321
-0.286841
-0.297672
-0.300288
-0.299393
-0.298184
-0.296717
-0.29507
-0.293326
-0.291548
-0.289779
-0.288049
-0.286378
-0.284778
-0.283258
-0.281828
-0.280502
-0.279302
-0.278263
-0.277438
-0.276905
-0.276772
-0.277184
-0.278331
-0.280444
-0.283745
-0.288557
-0.296982
-0.304028
-0.30289
-0.301446
-0.299746
-0.297865
-0.295896
-0.293905
-0.291939
-0.290029
-0.288198
-0.28646
-0.284825
-0.283307
-0.281922
-0.280695
-0.279664
-0.278882
-0.278419
-0.278367
-0.278839
-0.279964
-0.281881
-0.284694
-0.28847
-0.294565
-0.308116
-0.306701
-0.305001
-0.303051
-0.300923
-0.298716
-0.296504
-0.294334
-0.292241
-0.290246
-0.288365
-0.286608
-0.28499
-0.283528
-0.282244
-0.281175
-0.280364
-0.279868
-0.279756
-0.280101
-0.280979
-0.282455
-0.284554
-0.287216
-0.291262
-0.312581
-0.310856
-0.308876
-0.306659
-0.304269
-0.301816
-0.299376
-0.296998
-0.294716
-0.292552
-0.290518
-0.288627
-0.28689
-0.285319
-0.283936
-0.282766
-0.281844
-0.28121
-0.280906
-0.280973
-0.281445
-0.282338
-0.283633
-0.285218
-0.287551
-0.31745
-0.31538
-0.313096
-0.310595
-0.307933
-0.305225
-0.30255
-0.299958
-0.297481
-0.295137
-0.292938
-0.290891
-0.289003
-0.287283
-0.285744
-0.284404
-0.283284
-0.282408
-0.281799
-0.281473
-0.281435
-0.281677
-0.282162
-0.282765
-0.283726
-0.322748
-0.320296
-0.317685
-0.314886
-0.31194
-0.308968
-0.306053
-0.303239
-0.300556
-0.298018
-0.295631
-0.293397
-0.291317
-0.289394
-0.287634
-0.286045
-0.28464
-0.283428
-0.28242
-0.281617
-0.281012
-0.280584
-0.280296
-0.280033
-0.279918
-0.328497
-0.325625
-0.322664
-0.319553
-0.316313
-0.313071
-0.309906
-0.30686
-0.303956
-0.3012
-0.298594
-0.29613
-0.293805
-0.291616
-0.28956
-0.287643
-0.285867
-0.284237
-0.282756
-0.28142
-0.280218
-0.27913
-0.278128
-0.277111
-0.276154
-0.334709
-0.331381
-0.32805
-0.324615
-0.321073
-0.317552
-0.314127
-0.310833
-0.307684
-0.304679
-0.301808
-0.299062
-0.296427
-0.293898
-0.29147
-0.289142
-0.286918
-0.284801
-0.282791
-0.280887
-0.27908
-0.277358
-0.275701
-0.274027
-0.272398
-0.341393
-0.337574
-0.333856
-0.330086
-0.326233
-0.322422
-0.318723
-0.315159
-0.311733
-0.308433
-0.305245
-0.302149
-0.299131
-0.296183
-0.293302
-0.290488
-0.287748
-0.285086
-0.282508
-0.280017
-0.277611
-0.275285
-0.273028
-0.270773
-0.268588
-0.348549
-0.344208
-0.340086
-0.335973
-0.3318
-0.327688
-0.323694
-0.319828
-0.31608
-0.312431
-0.308856
-0.305335
-0.301854
-0.298406
-0.294994
-0.291624
-0.288309
-0.285061
-0.281891
-0.278807
-0.275814
-0.272914
-0.270104
-0.267327
-0.26466
-0.356167
-0.351276
-0.346739
-0.342277
-0.337774
-0.333342
-0.329025
-0.324815
-0.320691
-0.316622
-0.312583
-0.308552
-0.304522
-0.300495
-0.29648
-0.292495
-0.288561
-0.284697
-0.280921
-0.277248
-0.273686
-0.270243
-0.266918
-0.263663
-0.260559
-0.364227
-0.358764
-0.353803
-0.348985
-0.344141
-0.339366
-0.334687
-0.330081
-0.325511
-0.320943
-0.316351
-0.311723
-0.30706
-0.302376
-0.297696
-0.293049
-0.288463
-0.283968
-0.279585
-0.275334
-0.271224
-0.267266
-0.263458
-0.259758
-0.256249
-0.372697
-0.366646
-0.361257
-0.356077
-0.350875
-0.345727
-0.340638
-0.335567
-0.33047
-0.325312
-0.320075
-0.31476
-0.309384
-0.303978
-0.298583
-0.293238
-0.287983
-0.282852
-0.27787
-0.273056
-0.268423
-0.263976
-0.259715
-0.255596
-0.251704
-0.381531
-0.374882
-0.369064
-0.363517
-0.357936
-0.352373
-0.346813
-0.341199
-0.335483
-0.329638
-0.323661
-0.317573
-0.311412
-0.305231
-0.299083
-0.29302
-0.28709
-0.281328
-0.275761
-0.270407
-0.265275
-0.260367
-0.255679
-0.251165
-0.24691
-0.390668
-0.383421
-0.377175
-0.371252
-0.365265
-0.359237
-0.353133
-0.346885
-0.340451
-0.333818
-0.327009
-0.32007
-0.313066
-0.306067
-0.299144
-0.292357
-0.285756
-0.279379
-0.273248
-0.267379
-0.261774
-0.256432
-0.251342
-0.246456
-0.241859
-0.400032
-0.392193
-0.385526
-0.379216
-0.372786
-0.366231
-0.359498
-0.352517
-0.345259
-0.337741
-0.330016
-0.322161
-0.314267
-0.306426
-0.298719
-0.291213
-0.283957
-0.276985
-0.270317
-0.263959
-0.257909
-0.25216
-0.246696
-0.24146
-0.236544
-0.409532
-0.401116
-0.394033
-0.387321
-0.380404
-0.373249
-0.365792
-0.357972
-0.349788
-0.341293
-0.332577
-0.323756
-0.314944
-0.306251
-0.297765
-0.289555
-0.281666
-0.274128
-0.266951
-0.260134
-0.253669
-0.247542
-0.241729
-0.236166
-0.230957
-0.419059
-0.410088
-0.402598
-0.395462
-0.388006
-0.380168
-0.371885
-0.36312
-0.35391
-0.344356
-0.334594
-0.324771
-0.315029
-0.305488
-0.29624
-0.287351
-0.278861
-0.270788
-0.263134
-0.25589
-0.249039
-0.242562
-0.236427
-0.230562
-0.225088
-0.428487
-0.418993
-0.411104
-0.403518
-0.395459
-0.386847
-0.377634
-0.367819
-0.357495
-0.346817
-0.335967
-0.325128
-0.314459
-0.304088
-0.294106
-0.284572
-0.275514
-0.266941
-0.258845
-0.251207
-0.244002
-0.237205
-0.230777
-0.224636
-0.218924
-0.437677
-0.427698
-0.419418
-0.411349
-0.402616
-0.393136
-0.382887
-0.371928
-0.360415
-0.348564
-0.336606
-0.324751
-0.313174
-0.302004
-0.291325
-0.281184
-0.271599
-0.262564
-0.254062
-0.246064
-0.238538
-0.231451
-0.224759
-0.218368
-0.212452
-0.446474
-0.436056
-0.42739
-0.418798
-0.409317
-0.39887
-0.387489
-0.375302
-0.362543
-0.349492
-0.336424
-0.323574
-0.311122
-0.299193
-0.287861
-0.277158
-0.267087
-0.257632
-0.248762
-0.240439
-0.232625
-0.225281
-0.218355
-0.211743
-0.205653
-0.454711
-0.443904
-0.434857
-0.425699
-0.41539
-0.403882
-0.39128
-0.377801
-0.36376
-0.349503
-0.335342
-0.321531
-0.30825
-0.295612
-0.283677
-0.272461
-0.261951
-0.252118
-0.242919
-0.234309
-0.226242
-0.218674
-0.211544
-0.20474
-0.198509
-0.462214
-0.451073
-0.441647
-0.431873
-0.420657
-0.408003
-0.394107
-0.379289
-0.363953
-0.348504
-0.333288
-0.318566
-0.304511
-0.291222
-0.278739
-0.267062
-0.256161
-0.245994
-0.236509
-0.22765
-0.219365
-0.211607
-0.204306
-0.197341
-0.191003
-0.468796
-0.457381
-0.447576
-0.437137
-0.424939
-0.411063
-0.39582
-0.37964
-0.363019
-0.346414
-0.330195
-0.314624
-0.29986
-0.285983
-0.273013
-0.26093
-0.249689
-0.239235
-0.229505
-0.220437
-0.211973
-0.204061
-0.196621
-0.189526
-0.183115
-0.47427
-0.462643
-0.452458
-0.441304
-0.428056
-0.4129
-0.396276
-0.378738
-0.360863
-0.343157
-0.326004
-0.309657
-0.294257
-0.279861
-0.266467
-0.254035
-0.242507
-0.231815
-0.221885
-0.21265
-0.204045
-0.196015
-0.188471
-0.181278
-0.17483
-0.47845
-0.466673
-0.456106
-0.44419
-0.429837
-0.413359
-0.395347
-0.376475
-0.357402
-0.338668
-0.320662
-0.303622
-0.287664
-0.272822
-0.25907
-0.246351
-0.234591
-0.223709
-0.213627
-0.204267
-0.195562
-0.187452
-0.179838
-0.172581
-0.166131
-0.481149
-0.469287
-0.458335
-0.445617
-0.430116
-0.4123
-0.392916
-0.372761
-0.352563
-0.33289
-0.314124
-0.296479
-0.280049
-0.264837
-0.250796
-0.237852
-0.225916
-0.214898
-0.204711
-0.195271
-0.186507
-0.178357
-0.17071
-0.163423
-0.157007
-0.48219
-0.470305
-0.458968
-0.445416
-0.428743
-0.409593
-0.388879
-0.367514
-0.346285
-0.325775
-0.306349
-0.288197
-0.271381
-0.255878
-0.241621
-0.228516
-0.216463
-0.205363
-0.195119
-0.185646
-0.176867
-0.168716
-0.161074
-0.153793
-0.147448
-0.481404
-0.469559
-0.457839
-0.443432
-0.425583
-0.405128
-0.38315
-0.360669
-0.338518
-0.317283
-0.297307
-0.278748
-0.261637
-0.245926
-0.231525
-0.218325
-0.206216
-0.195088
-0.18484
-0.175381
-0.166632
-0.158522
-0.150923
-0.143686
-0.137447
-0.478636
-0.466892
-0.454795
-0.439526
-0.420516
-0.398812
-0.375658
-0.352173
-0.329223
-0.307384
-0.286972
-0.268111
-0.250799
-0.234962
-0.220492
-0.207266
-0.195161
-0.184063
-0.173864
-0.164468
-0.155794
-0.147769
-0.140252
-0.133097
-0.127002
-0.473747
-0.462164
-0.449701
-0.433577
-0.413446
-0.390569
-0.366349
-0.341988
-0.318372
-0.296058
-0.275328
-0.25627
-0.238852
-0.222975
-0.208512
-0.195328
-0.183292
-0.172282
-0.162185
-0.152903
-0.144352
-0.136455
-0.129063
-0.122028
-0.116114
-0.466618
-0.455253
-0.442443
-0.425488
-0.404294
-0.380343
-0.355186
-0.33009
-0.305949
-0.283293
-0.262366
-0.243219
-0.22579
-0.209958
-0.195579
-0.182508
-0.170605
-0.159742
-0.149803
-0.140686
-0.132307
-0.124584
-0.117358
-0.110485
-0.104788
-0.457151
-0.446059
-0.432927
-0.415181
-0.393006
-0.3681
-0.342147
-0.316468
-0.291948
-0.269085
-0.248083
-0.228955
-0.211611
-0.19591
-0.181693
-0.168805
-0.1571
-0.146444
-0.13672
-0.127822
-0.119664
-0.112162
-0.105147
-0.0984781
-0.093036
-0.445271
-0.434506
-0.421084
-0.402605
-0.379547
-0.353822
-0.32723
-0.301124
-0.276377
-0.253443
-0.232486
-0.213485
-0.196322
-0.180836
-0.166859
-0.154225
-0.142783
-0.132396
-0.122944
-0.114319
-0.106433
-0.0992004
-0.0924424
-0.0860207
-0.080871
-0.430927
-0.42054
-0.406871
-0.38773
-0.363907
-0.337512
-0.310445
-0.284077
-0.259252
-0.236384
-0.215592
-0.196822
-0.179932
-0.164747
-0.151086
-0.138776
-0.127663
-0.117608
-0.108486
-0.100188
-0.0926277
-0.085714
-0.0792605
-0.0731319
-0.0683123
-0.414094
-0.404136
-0.390269
-0.370553
-0.346097
-0.319194
-0.291821
-0.265354
-0.240602
-0.217932
-0.197422
-0.178986
-0.162462
-0.147659
-0.134389
-0.122474
-0.111756
-0.102093
-0.093359
-0.0854454
-0.0782638
-0.0717207
-0.0656217
-0.0598342
-0.0553825
-0.394774
-0.385292
-0.371286
-0.351095
-0.32615
-0.298906
-0.271401
-0.244999
-0.220467
-0.198124
-0.178008
-0.160006
-0.143935
-0.129594
-0.116788
-0.105336
-0.0950763
-0.0858669
-0.0775807
-0.0701078
-0.0633602
-0.0572414
-0.0515499
-0.0461542
-0.0421081
-0.372994
-0.364034
-0.349953
-0.3294
-0.304119
-0.276709
-0.249244
-0.223067
-0.198897
-0.177005
-0.157391
-0.139916
-0.124382
-0.110579
-0.0983072
-0.0873829
-0.0776445
-0.0689487
-0.0611684
-0.0541938
-0.0479367
-0.0422986
-0.0370715
-0.0321227
-0.0285229
-0.348807
-0.340413
-0.326329
-0.305535
-0.280077
-0.252675
-0.225422
-0.199626
-0.175954
-0.15463
-0.135619
-0.118759
-0.103841
-0.0906467
-0.078974
-0.0686394
-0.0594811
-0.0513566
-0.0441396
-0.0377208
-0.0320125
-0.0269144
-0.0222139
-0.0177746
-0.0146691
-0.322291
-0.314505
-0.300495
-0.279588
-0.254118
-0.226898
-0.200023
-0.174757
-0.151711
-0.131064
-0.11275
-0.0965867
-0.0823552
-0.0698344
-0.0588205
-0.0491315
-0.0406077
-0.0331086
-0.0265095
-0.0207031
-0.0156025
-0.0111068
-0.00700204
-0.00314605
-0.000592074
-0.293549
-0.286411
-0.272556
-0.251668
-0.22635
-0.199484
-0.173146
-0.14855
-0.126251
-0.106383
-0.0888506
-0.0734577
-0.0599767
-0.0481857
-0.0378822
-0.0288874
-0.0210453
-0.0142192
-0.00828831
-0.0031481
0.00128641
0.00511416
0.00854566
0.011732
0.0136797
-0.262706
-0.256253
-0.242637
-0.221904
-0.1969
-0.170553
-0.144905
-0.12111
-0.0996686
-0.0806714
-0.0639984
-0.0494401
-0.0367647
-0.0257508
-0.0161996
-0.00793724
-0.000813615
0.00530182
0.0105237
0.0149512
0.0186649
0.021758
0.024431
0.0268551
0.0281571
-0.229907
-0.224173
-0.210883
-0.19044
-0.16591
-0.14024
-0.115424
-0.0925535
-0.0720699
-0.0540265
-0.0382806
-0.0246124
-0.012788
-0.00258835
0.00618018
0.0136844
0.0200667
0.0254488
0.0299361
0.0336184
0.0365684
0.0388681
0.0407009
0.0422663
0.0428555
-0.195317
-0.190335
-0.177456
-0.157437
-0.133535
-0.108692
-0.0848413
-0.0630055
-0.0435714
-0.0265557
-0.0117959
0.000935635
0.0118733
0.0212323
0.0291999
0.0359343
0.0415681
0.0462117
0.0499565
0.0528777
0.0550362
0.056499
0.0574113
0.0579602
0.0575968
-0.159118
-0.154917
-0.142534
-0.12307
-0.0999423
-0.076066
-0.0533024
-0.0326031
-0.0143005
0.00162245
0.0153454
0.0271021
0.0371266
0.0456296
0.0527914
0.0587612
0.0636599
0.0675821
0.0705983
0.0727595
0.0741091
0.0746848
0.0745172
0.0736483
0.0718104
-0.121506
-0.118111
-0.106307
-0.0875234
-0.0653083
-0.0425284
-0.0209635
-0.00149228
0.0156055
0.0303782
0.0430204
0.053771
0.0628635
0.0705053
0.0768714
0.0821039
0.086314
0.0895808
0.0919488
0.0934376
0.0940628
0.0937828
0.0923314
0.0894086
0.085595
-0.0826922
-0.0801243
-0.0689785
-0.0509934
-0.0298189
-0.00825363
0.0120119
0.0301733
0.0460009
0.0595719
0.071094
0.0808105
0.0889551
0.0957337
0.10132
0.105856
0.109455
0.112193
0.114113
0.115237
0.115593
0.115048
0.112899
0.108453
0.103758
-0.042896
-0.0411727
-0.0307585
-0.0136825
0.00633441
0.0265785
0.0454552
0.0622341
0.0767336
0.0890565
0.0994218
0.108076
0.115253
0.121158
0.125965
0.129823
0.132853
0.135152
0.136796
0.137881
0.138553
0.13877
0.13766
0.134705
0.136923
-0.00233803
-0.00147474
0.00813816
0.024203
0.0429564
0.0617847
0.0791942
0.0945273
0.107648
0.118681
0.127856
0.135419
0.141603
0.146612
0.15062
0.153776
0.156206
0.158016
0.159301
0.160185
0.160827
0.16121
0.160847
0.160158
0.164614
0.0387481
0.0387405
0.0474894
0.0624519
0.0798487
0.0971798
0.113055
0.12689
0.138588
0.148296
0.156248
0.162692
0.167857
0.171944
0.175125
0.177549
0.179342
0.180614
0.18147
0.18203
0.182435
0.182663
0.182367
0.182034
0.185988
0.0801271
0.0792423
0.0870721
0.100852
0.116813
0.132579
0.146866
0.159158
0.1694
0.177753
0.184456
0.189756
0.193875
0.197011
0.199331
0.20098
0.202081
0.202744
0.203069
0.203173
0.203179
0.203072
0.202557
0.202031
0.205046
0.121563
0.119799
0.126663
0.139193
0.153652
0.167799
0.180456
0.191174
0.199934
0.20691
0.212344
0.216478
0.21953
0.221689
0.223117
0.223953
0.224314
0.224303
0.224014
0.22355
0.223017
0.222389
0.221398
0.220411
0.222527
0.162822
0.160181
0.166039
0.177264
0.190171
0.202659
0.213658
0.222782
0.230044
0.235631
0.239783
0.242738
0.244706
0.245869
0.246381
0.246373
0.245955
0.245223
0.244262
0.243163
0.242014
0.240777
0.239204
0.237661
0.238906
0.203669
0.200158
0.204983
0.214861
0.22618
0.236984
0.24631
0.253831
0.259591
0.263784
0.266651
0.268421
0.269298
0.269454
0.269035
0.268163
0.266943
0.265459
0.263788
0.262012
0.260202
0.258312
0.256118
0.253991
0.254402
0.243877
0.239507
0.243279
0.251782
0.261492
0.270603
0.278253
0.284176
0.28844
0.291247
0.292834
0.293423
0.293209
0.292356
0.291002
0.28926
0.287225
0.284975
0.282579
0.280107
0.277621
0.275067
0.272247
0.269536
0.269148
0.283223
0.278009
0.280717
0.287832
0.295927
0.303349
0.309336
0.313677
0.316462
0.317899
0.318221
0.317643
0.316349
0.314496
0.312212
0.309602
0.306753
0.303737
0.300613
0.297446
0.294284
0.291074
0.287642
0.28436
0.283205
0.321488
0.315451
0.317096
0.322821
0.329312
0.335064
0.339413
0.3422
0.343533
0.343628
0.34271
0.340986
0.338633
0.335796
0.332597
0.329132
0.325481
0.321709
0.317869
0.314016
0.310194
0.306346
0.302324
0.298489
0.296598
0.358464
0.351628
0.352221
0.356569
0.361479
0.365594
0.368344
0.369615
0.369537
0.368324
0.3662
0.363362
0.359977
0.356183
0.352092
0.347794
0.343361
0.338852
0.334315
0.329798
0.325336
0.320876
0.316291
0.311926
0.309329
0.393949
0.386343
0.385903
0.388902
0.392269
0.394793
0.395993
0.3958
0.394358
0.391886
0.388597
0.384684
0.380303
0.375585
0.370634
0.365531
0.360345
0.355125
0.349916
0.344761
0.339687
0.334645
0.329527
0.324655
0.321382
0.427752
0.41941
0.417966
0.419654
0.42153
0.422523
0.422235
0.420638
0.417891
0.414212
0.409811
0.404869
0.399536
0.393934
0.388159
0.382288
0.376381
0.370483
0.364635
0.358871
0.353217
0.347626
0.342006
0.336655
0.332737
0.459691
0.450652
0.448242
0.448671
0.449119
0.448651
0.446948
0.444018
0.440033
0.435211
0.429754
0.423837
0.417602
0.411163
0.404608
0.398009
0.391419
0.384881
0.378428
0.372092
0.365892
0.359786
0.353699
0.347895
0.343367
0.489597
0.479901
0.476573
0.475805
0.474902
0.473056
0.47002
0.465836
0.460689
0.454792
0.448345
0.441513
0.434432
0.427207
0.419921
0.412639
0.405411
0.398273
0.391255
0.384384
0.377675
0.371091
0.36457
0.358343
0.353241
0.51731
0.507003
0.502813
0.500921
0.498754
0.495622
0.491345
0.485996
0.479768
0.472874
0.465507
0.457826
0.449959
0.442005
0.434041
0.426126
0.418306
0.410613
0.403072
0.395707
0.388528
0.381505
0.374586
0.367967
0.36233
0.542683
0.531816
0.526826
0.523894
0.52056
0.516243
0.510826
0.504407
0.497187
0.489379
0.481168
0.472709
0.464122
0.4555
0.446915
0.438421
0.430059
0.421857
0.413839
0.406022
0.398416
0.390993
0.383712
0.376734
0.370604
0.565584
0.554209
0.54849
0.544609
0.540215
0.534824
0.528373
0.520987
0.51287
0.504235
0.495263
0.486101
0.476863
0.467638
0.458492
0.449476
0.440625
0.431966
0.423517
0.415294
0.407303
0.399521
0.391915
0.384612
0.378036
0.585891
0.574064
0.567693
0.562964
0.557624
0.551277
0.543908
0.535661
0.526749
0.51738
0.507732
0.497946
0.488131
0.478371
0.468728
0.459248
0.449964
0.440899
0.43207
0.423487
0.415155
0.407057
0.399165
0.391573
0.384598
0.603499
0.59128
0.584338
0.578869
0.572704
0.565525
0.557358
0.548365
0.538762
0.528756
0.518522
0.508194
0.497879
0.487655
0.477581
0.4677
0.458041
0.448624
0.439465
0.43057
0.421944
0.413572
0.405433
0.397591
0.390268
0.618315
0.605765
0.59834
0.592245
0.585384
0.577502
0.568663
0.55904
0.548855
0.538314
0.527586
0.516803
0.506067
0.495452
0.485016
0.474796
0.464821
0.45511
0.445673
0.436517
0.427644
0.419042
0.410696
0.402642
0.395026
0.630262
0.617445
0.609628
0.603026
0.595601
0.587152
0.577769
0.567639
0.556985
0.546011
0.534885
0.523735
0.512659
0.50173
0.491001
0.480509
0.47028
0.46033
0.45067
0.441303
0.432231
0.423445
0.414932
0.406707
0.398853
0.639278
0.626259
0.618145
0.611159
0.603308
0.59443
0.584637
0.574123
0.563115
0.551815
0.540388
0.52896
0.517628
0.506462
0.495512
0.484814
0.474394
0.464264
0.454435
0.44491
0.435688
0.426763
0.418124
0.40977
0.401736
0.645317
0.632161
0.623849
0.616605
0.608467
0.599302
0.589234
0.578463
0.567217
0.555698
0.54407
0.532457
0.520953
0.509628
0.49853
0.487695
0.477146
0.466897
0.456955
0.447323
0.438
0.428982
0.420259
0.411819
0.403664
0.648346
0.635122
0.62671
0.619336
0.611055
0.601745
0.591539
0.580639
0.569274
0.557646
0.545916
0.53421
0.52262
0.511215
0.500043
0.489139
0.478525
0.468216
0.458217
0.448532
0.439159
0.430094
0.42133
0.412846
0.404629
0.648349
0.635126
0.626713
0.619339
0.611058
0.601748
0.591541
0.580641
0.569276
0.557648
0.545918
0.534211
0.522621
0.511216
0.500044
0.48914
0.478526
0.468217
0.458218
0.448533
0.43916
0.430095
0.42133
0.412846
0.40463
0.645328
0.632172
0.623859
0.616614
0.608476
0.59931
0.589241
0.57847
0.567223
0.555704
0.544075
0.532462
0.520957
0.509631
0.498534
0.487698
0.477149
0.466899
0.456957
0.447325
0.438002
0.428984
0.420261
0.41182
0.403665
0.639297
0.626277
0.618162
0.611175
0.603323
0.594444
0.584649
0.574134
0.563125
0.551824
0.540396
0.528968
0.517635
0.506468
0.495517
0.48482
0.474398
0.464269
0.454439
0.444913
0.435691
0.426765
0.418126
0.409772
0.401737
0.630288
0.617469
0.609652
0.603048
0.595621
0.587171
0.577787
0.567655
0.556999
0.546024
0.534896
0.523745
0.512668
0.501739
0.491009
0.480516
0.470286
0.460336
0.450675
0.441308
0.432235
0.423448
0.414935
0.40671
0.398855
0.618347
0.605796
0.598369
0.592273
0.585409
0.577526
0.568684
0.55906
0.548873
0.53833
0.5276
0.516816
0.506079
0.495463
0.485025
0.474805
0.464829
0.455117
0.445679
0.436523
0.427649
0.419047
0.4107
0.402646
0.395029
0.603538
0.591317
0.584373
0.578903
0.572735
0.565553
0.557384
0.548388
0.538783
0.528776
0.518539
0.50821
0.497894
0.487668
0.477593
0.46771
0.45805
0.448633
0.439472
0.430577
0.42195
0.413578
0.405438
0.397595
0.390272
0.585936
0.574107
0.567734
0.563003
0.55766
0.551309
0.543938
0.535688
0.526774
0.517403
0.507752
0.497964
0.488148
0.478386
0.468742
0.45926
0.449975
0.440909
0.432078
0.423494
0.415162
0.407063
0.39917
0.391578
0.384602
0.565634
0.554257
0.548535
0.544652
0.540255
0.53486
0.528407
0.521017
0.512898
0.50426
0.495286
0.486121
0.476882
0.467655
0.458507
0.449489
0.440637
0.431976
0.423526
0.415302
0.40731
0.399527
0.391921
0.384617
0.37804
0.542738
0.531869
0.526876
0.523941
0.520604
0.516283
0.510862
0.50444
0.497217
0.489406
0.481193
0.472731
0.464142
0.455517
0.446931
0.438435
0.430071
0.421868
0.413849
0.406031
0.398423
0.391
0.383718
0.376738
0.370609
0.517369
0.50706
0.502867
0.500971
0.498801
0.495664
0.491384
0.486031
0.4798
0.472903
0.465533
0.45785
0.44998
0.442023
0.434058
0.426141
0.418319
0.410624
0.403082
0.395715
0.388536
0.381512
0.374592
0.367971
0.362334
0.489659
0.47996
0.47663
0.475858
0.474952
0.473101
0.470061
0.465874
0.460722
0.454823
0.448372
0.441538
0.434454
0.427226
0.419938
0.412654
0.405424
0.398284
0.391265
0.384392
0.377682
0.371098
0.364576
0.358347
0.353245
0.459756
0.450713
0.448301
0.448726
0.44917
0.448698
0.44699
0.444056
0.440068
0.435242
0.429782
0.423862
0.417624
0.411182
0.404626
0.398024
0.391433
0.384893
0.378438
0.372101
0.365899
0.359792
0.353704
0.347899
0.34337
0.427818
0.419473
0.418026
0.419711
0.421582
0.42257
0.422278
0.420677
0.417926
0.414244
0.409839
0.404894
0.399558
0.393954
0.388177
0.382303
0.376394
0.370495
0.364644
0.358879
0.353224
0.347631
0.342011
0.336658
0.33274
0.394015
0.386406
0.385963
0.388958
0.392322
0.394841
0.396037
0.395839
0.394393
0.391917
0.388625
0.384708
0.380325
0.375605
0.37065
0.365546
0.360357
0.355136
0.349925
0.344768
0.339692
0.33465
0.32953
0.324658
0.321384
0.358529
0.35169
0.35228
0.356625
0.361531
0.365641
0.368387
0.369653
0.369571
0.368355
0.366227
0.363386
0.359998
0.356201
0.352108
0.347807
0.343373
0.338861
0.334322
0.329804
0.32534
0.320879
0.316293
0.311927
0.309329
0.321552
0.315511
0.317154
0.322876
0.329363
0.33511
0.339455
0.342237
0.343567
0.343657
0.342735
0.341008
0.338652
0.335813
0.332611
0.329144
0.325491
0.321716
0.317875
0.314021
0.310197
0.306348
0.302324
0.298489
0.296597
0.283284
0.278066
0.280772
0.287883
0.295975
0.303393
0.309376
0.313712
0.316493
0.317926
0.318245
0.317663
0.316367
0.314511
0.312224
0.309611
0.306761
0.303742
0.300617
0.297448
0.294285
0.291074
0.28764
0.284357
0.283202
0.243934
0.23956
0.24333
0.25183
0.261537
0.270643
0.278289
0.284209
0.288468
0.291271
0.292855
0.293441
0.293224
0.292369
0.291012
0.289267
0.28723
0.284978
0.28258
0.280107
0.277619
0.275064
0.272243
0.269531
0.269143
0.203721
0.200206
0.205029
0.214904
0.22622
0.237021
0.246342
0.25386
0.259616
0.263806
0.266669
0.268436
0.26931
0.269463
0.269041
0.268168
0.266945
0.26546
0.263787
0.262009
0.260198
0.258307
0.256111
0.253983
0.254395
0.162867
0.160222
0.166079
0.177302
0.190206
0.202691
0.213686
0.222807
0.230065
0.235648
0.239797
0.242749
0.244714
0.245874
0.246384
0.246374
0.245954
0.245221
0.244258
0.243157
0.242007
0.240768
0.239194
0.23765
0.238895
0.121601
0.119833
0.126695
0.139223
0.15368
0.167824
0.180478
0.191193
0.199949
0.206923
0.212354
0.216485
0.219534
0.221691
0.223116
0.22395
0.224309
0.224296
0.224006
0.22354
0.223007
0.222377
0.221385
0.220397
0.222513
0.0801554
0.0792672
0.0870957
0.100875
0.116834
0.132598
0.146882
0.159171
0.16941
0.17776
0.184461
0.189757
0.193874
0.197008
0.199326
0.200972
0.202072
0.202733
0.203057
0.203159
0.203165
0.203056
0.20254
0.202013
0.205028
0.0387662
0.0387552
0.0475033
0.0624655
0.0798613
0.0971907
0.113064
0.126896
0.138591
0.148297
0.156246
0.162688
0.167851