/*--------------------------------*- C++ -*----------------------------------*\
  =========                 |
  \\      /  F ield         | OpenFOAM: The Open Source CFD Toolbox
   \\    /   O peration     | Website:  https://openfoam.org
    \\  /    A nd           | Version:  6.0
     \\/     M anipulation  |
\*---------------------------------------------------------------------------*/
FoamFile
{
    version     2.0;
    format      ascii;
    class       volScalarField;
    location    "80";
    object      p;
}
// * * * * * * * * * * * * * * * * * * * * * * * * * * * * * * * * * * * * * //

dimensions      [0 2 -2 0 0 0 0];

internalField   nonuniform List<scalar> 
12500
(
-0.480718
-0.480368
-0.48002
-0.479622
-0.479285
-0.479151
-0.479314
-0.479823
-0.480688
-0.481897
-0.483423
-0.485235
-0.487302
-0.489595
-0.49209
-0.494763
-0.497596
-0.50057
-0.503668
-0.506872
-0.510155
-0.513496
-0.516947
-0.520572
-0.523623
-0.473719
-0.473802
-0.473702
-0.473454
-0.473218
-0.47314
-0.473315
-0.473789
-0.474571
-0.475646
-0.476989
-0.478568
-0.480355
-0.482325
-0.484456
-0.486732
-0.489137
-0.491658
-0.494285
-0.497002
-0.499791
-0.502634
-0.505577
-0.508668
-0.51129
-0.466421
-0.466957
-0.467111
-0.467012
-0.466877
-0.466852
-0.467031
-0.467459
-0.468145
-0.469071
-0.470211
-0.471536
-0.47302
-0.47464
-0.476378
-0.478222
-0.480163
-0.482193
-0.484304
-0.48649
-0.488735
-0.491029
-0.493408
-0.495906
-0.498056
-0.458923
-0.459922
-0.460332
-0.460385
-0.460349
-0.460372
-0.460549
-0.460923
-0.4615
-0.462263
-0.463183
-0.464235
-0.465392
-0.466636
-0.467953
-0.469334
-0.470774
-0.472273
-0.473827
-0.475434
-0.477088
-0.478782
-0.480542
-0.482392
-0.484026
-0.451331
-0.452799
-0.453468
-0.45367
-0.453731
-0.453799
-0.453967
-0.454279
-0.454736
-0.455321
-0.456007
-0.456766
-0.457575
-0.458417
-0.459284
-0.460169
-0.461074
-0.462001
-0.462955
-0.463938
-0.464952
-0.465995
-0.467083
-0.468233
-0.469302
-0.443766
-0.445703
-0.446626
-0.446977
-0.447131
-0.44724
-0.447393
-0.447633
-0.447961
-0.448355
-0.44879
-0.449238
-0.449678
-0.450095
-0.450482
-0.450839
-0.451171
-0.451486
-0.451794
-0.452106
-0.452429
-0.452769
-0.453132
-0.45353
-0.453984
-0.43636
-0.438755
-0.439926
-0.44042
-0.440664
-0.440808
-0.440941
-0.441101
-0.441289
-0.441482
-0.441652
-0.441772
-0.441822
-0.441789
-0.441667
-0.441462
-0.441181
-0.44084
-0.440455
-0.440044
-0.439624
-0.439205
-0.438788
-0.438385
-0.438167
-0.429247
-0.43208
-0.433489
-0.434119
-0.434448
-0.434623
-0.434729
-0.434803
-0.434842
-0.434823
-0.434717
-0.434494
-0.434135
-0.433628
-0.432969
-0.432166
-0.431232
-0.430188
-0.429058
-0.427868
-0.426645
-0.425409
-0.424153
-0.422896
-0.42195
-0.422566
-0.425805
-0.427436
-0.428195
-0.428603
-0.428804
-0.428879
-0.428861
-0.428747
-0.42851
-0.428117
-0.42754
-0.426757
-0.425754
-0.42453
-0.423093
-0.421462
-0.419664
-0.417731
-0.4157
-0.413609
-0.411488
-0.40933
-0.407163
-0.405432
-0.416451
-0.420054
-0.421885
-0.422764
-0.423245
-0.423468
-0.423509
-0.423399
-0.423129
-0.422671
-0.42199
-0.421052
-0.419833
-0.418317
-0.416503
-0.414398
-0.412027
-0.40942
-0.406621
-0.403678
-0.400643
-0.397561
-0.394425
-0.391287
-0.388717
-0.411025
-0.414939
-0.416945
-0.417932
-0.41848
-0.418723
-0.418731
-0.418531
-0.41811
-0.417436
-0.416469
-0.415171
-0.413513
-0.411475
-0.409051
-0.406249
-0.403094
-0.399624
-0.39589
-0.391955
-0.387891
-0.383756
-0.379556
-0.375372
-0.371911
-0.4064
-0.410559
-0.41271
-0.413791
-0.414401
-0.414664
-0.414643
-0.41436
-0.413799
-0.41292
-0.411679
-0.410032
-0.407942
-0.405381
-0.402339
-0.398819
-0.394845
-0.390458
-0.385719
-0.380706
-0.375514
-0.370222
-0.364851
-0.359528
-0.355121
-0.402663
-0.40699
-0.409251
-0.410414
-0.411081
-0.411365
-0.411323
-0.410971
-0.410285
-0.409222
-0.407729
-0.405753
-0.403249
-0.40018
-0.396524
-0.392277
-0.387459
-0.382112
-0.376302
-0.370124
-0.363695
-0.357125
-0.350453
-0.343871
-0.338452
-0.399874
-0.404287
-0.40662
-0.407847
-0.408566
-0.408876
-0.408823
-0.408418
-0.40763
-0.406408
-0.404692
-0.402419
-0.399532
-0.395981
-0.391733
-0.38677
-0.381103
-0.374767
-0.367833
-0.360408
-0.352634
-0.344653
-0.336529
-0.328531
-0.322014
-0.398065
-0.402475
-0.404836
-0.406111
-0.406875
-0.407214
-0.407163
-0.406723
-0.405857
-0.404507
-0.402603
-0.400072
-0.396843
-0.392852
-0.388049
-0.3824
-0.375899
-0.368573
-0.360486
-0.351751
-0.342536
-0.33301
-0.323265
-0.313657
-0.305927
-0.397233
-0.401547
-0.403894
-0.405196
-0.405996
-0.406365
-0.406325
-0.405869
-0.40495
-0.403502
-0.401447
-0.398699
-0.395175
-0.390794
-0.385486
-0.3792
-0.371908
-0.363619
-0.354384
-0.344312
-0.333585
-0.322401
-0.310868
-0.29943
-0.290333
-0.397341
-0.401472
-0.403758
-0.405063
-0.405887
-0.406283
-0.406261
-0.4058
-0.404848
-0.403328
-0.401154
-0.398229
-0.394455
-0.389735
-0.383982
-0.37712
-0.369101
-0.359907
-0.349566
-0.338176
-0.325918
-0.313008
-0.299551
-0.286064
-0.275415
-0.398326
-0.402189
-0.404367
-0.405648
-0.406478
-0.406892
-0.406885
-0.406426
-0.405451
-0.403877
-0.401607
-0.398534
-0.394547
-0.389535
-0.383392
-0.376021
-0.367349
-0.357333
-0.345971
-0.333333
-0.319589
-0.304954
-0.28951
-0.273798
-0.261393
-0.400096
-0.403616
-0.405641
-0.406866
-0.407679
-0.408094
-0.408091
-0.407627
-0.40663
-0.405006
-0.40265
-0.399445
-0.395269
-0.389999
-0.38351
-0.375691
-0.366445
-0.355701
-0.343428
-0.329663
-0.314546
-0.298277
-0.280888
-0.262873
-0.248518
-0.402545
-0.405658
-0.407486
-0.408619
-0.409384
-0.409774
-0.409756
-0.409271
-0.408238
-0.406556
-0.404108
-0.400772
-0.396416
-0.390904
-0.384102
-0.375883
-0.366131
-0.354756
-0.341699
-0.326959
-0.310642
-0.292917
-0.273749
-0.253496
-0.237045
-0.405553
-0.408212
-0.4098
-0.410804
-0.411484
-0.411817
-0.411751
-0.411218
-0.410126
-0.408363
-0.405808
-0.402328
-0.397785
-0.392037
-0.384939
-0.376356
-0.366161
-0.354247
-0.340536
-0.324997
-0.307696
-0.288766
-0.268108
-0.245852
-0.227247
-0.409004
-0.411174
-0.412485
-0.413321
-0.413875
-0.414108
-0.413957
-0.41334
-0.412154
-0.410281
-0.407591
-0.403948
-0.399206
-0.393218
-0.385838
-0.376924
-0.366345
-0.353987
-0.33976
-0.323612
-0.305572
-0.285746
-0.263988
-0.240137
-0.219407
-0.412787
-0.414449
-0.415451
-0.416077
-0.416461
-0.416551
-0.416271
-0.415527
-0.414208
-0.412189
-0.409335
-0.405504
-0.40055
-0.394324
-0.38668
-0.377478
-0.366588
-0.353897
-0.339309
-0.322757
-0.304237
-0.283821
-0.261332
-0.23627
-0.213388
-0.416806
-0.417954
-0.418621
-0.418999
-0.419168
-0.419067
-0.418609
-0.417694
-0.416201
-0.414
-0.410953
-0.406915
-0.401742
-0.395289
-0.387415
-0.377991
-0.3669
-0.354039
-0.339318
-0.322661
-0.304021
-0.283386
-0.260433
-0.234177
-0.208752
-0.420985
-0.421626
-0.421936
-0.42203
-0.421941
-0.421602
-0.420921
-0.41979
-0.418083
-0.415666
-0.412399
-0.408141
-0.40275
-0.396091
-0.38804
-0.37849
-0.367352
-0.354561
-0.340074
-0.323865
-0.305927
-0.286225
-0.264272
-0.238658
-0.212537
-0.425273
-0.425421
-0.425359
-0.425136
-0.424749
-0.424129
-0.423181
-0.421793
-0.419835
-0.417172
-0.413665
-0.409176
-0.403573
-0.396736
-0.388564
-0.378983
-0.367948
-0.355459
-0.341564
-0.326378
-0.310107
-0.293061
-0.275597
-0.259
-0.249437
-0.429644
-0.429317
-0.428872
-0.428306
-0.427585
-0.426645
-0.425392
-0.42371
-0.421469
-0.418535
-0.41477
-0.410043
-0.404234
-0.397242
-0.388991
-0.379442
-0.368598
-0.356515
-0.343313
-0.329192
-0.314455
-0.299524
-0.284949
-0.27202
-0.264816
-0.434096
-0.433312
-0.432478
-0.431546
-0.430462
-0.429171
-0.42758
-0.425574
-0.423024
-0.419796
-0.415757
-0.410784
-0.404771
-0.397635
-0.389327
-0.37984
-0.369217
-0.357555
-0.345021
-0.33185
-0.318363
-0.304965
-0.292125
-0.280619
-0.272854
-0.438645
-0.437423
-0.436194
-0.434879
-0.433412
-0.431744
-0.42979
-0.427435
-0.424552
-0.421011
-0.416682
-0.411452
-0.405227
-0.397943
-0.389576
-0.380145
-0.369719
-0.358425
-0.346442
-0.334007
-0.321408
-0.308973
-0.297031
-0.285999
-0.277397
-0.443329
-0.44168
-0.440052
-0.438343
-0.436475
-0.434413
-0.432076
-0.429353
-0.426118
-0.422243
-0.417606
-0.4121
-0.405645
-0.398195
-0.389743
-0.38033
-0.370045
-0.359025
-0.347449
-0.335534
-0.32352
-0.311657
-0.300166
-0.289261
-0.27994
-0.448194
-0.446121
-0.444092
-0.441981
-0.439703
-0.437233
-0.434499
-0.431391
-0.427785
-0.423556
-0.418586
-0.412778
-0.406062
-0.398409
-0.389829
-0.380378
-0.370158
-0.359307
-0.347996
-0.336417
-0.324767
-0.313238
-0.301979
-0.291111
-0.28131
-0.453291
-0.450791
-0.448357
-0.44584
-0.443145
-0.440261
-0.437117
-0.433608
-0.429611
-0.425002
-0.419668
-0.41352
-0.406503
-0.398598
-0.389833
-0.380276
-0.370036
-0.359252
-0.348084
-0.3367
-0.325267
-0.313933
-0.302811
-0.291977
-0.281903
-0.458673
-0.455734
-0.45289
-0.449965
-0.446851
-0.443546
-0.439983
-0.436056
-0.431642
-0.42662
-0.420883
-0.414349
-0.406976
-0.398762
-0.389747
-0.380012
-0.369672
-0.358865
-0.34774
-0.336449
-0.325135
-0.313921
-0.302897
-0.292121
-0.281937
-0.464388
-0.460992
-0.457731
-0.454396
-0.450862
-0.44713
-0.443135
-0.438769
-0.433908
-0.428433
-0.422243
-0.415268
-0.407479
-0.39889
-0.389558
-0.379575
-0.369061
-0.358153
-0.346995
-0.335725
-0.324468
-0.313331
-0.302391
-0.291697
-0.281508
-0.470471
-0.466595
-0.462912
-0.459166
-0.455209
-0.451043
-0.4466
-0.441768
-0.436421
-0.430443
-0.423743
-0.416263
-0.407992
-0.398962
-0.389246
-0.378949
-0.368198
-0.35713
-0.345882
-0.334581
-0.323341
-0.312254
-0.301388
-0.290788
-0.280653
-0.476949
-0.472568
-0.468454
-0.464297
-0.459912
-0.455301
-0.450387
-0.445054
-0.439173
-0.432634
-0.425357
-0.417304
-0.408482
-0.398945
-0.388785
-0.378118
-0.367079
-0.355804
-0.344424
-0.333057
-0.321805
-0.310748
-0.299946
-0.28944
-0.279381
-0.483833
-0.478921
-0.474368
-0.469797
-0.464979
-0.459904
-0.45449
-0.44861
-0.442138
-0.434971
-0.427046
-0.418346
-0.408906
-0.398802
-0.388144
-0.377063
-0.365696
-0.35418
-0.342638
-0.33118
-0.319895
-0.308851
-0.2981
-0.287678
-0.277695
-0.491117
-0.485651
-0.480653
-0.475664
-0.470401
-0.464839
-0.458885
-0.452403
-0.445271
-0.437401
-0.428752
-0.419336
-0.409214
-0.39849
-0.387291
-0.375759
-0.364037
-0.352257
-0.340534
-0.328967
-0.317632
-0.306586
-0.295869
-0.285514
-0.275595
-0.49878
-0.492741
-0.487294
-0.481881
-0.476155
-0.470074
-0.463528
-0.456379
-0.448511
-0.439858
-0.430408
-0.420207
-0.409348
-0.397959
-0.386187
-0.374183
-0.362089
-0.35003
-0.338114
-0.326425
-0.315027
-0.303964
-0.293267
-0.282958
-0.273086
-0.506786
-0.50016
-0.494261
-0.488416
-0.482204
-0.47556
-0.468362
-0.460469
-0.451782
-0.442263
-0.431938
-0.42089
-0.409247
-0.397162
-0.384796
-0.372306
-0.359832
-0.347489
-0.335373
-0.323554
-0.312083
-0.300991
-0.290298
-0.280016
-0.270174
-0.515079
-0.507862
-0.501508
-0.49522
-0.488491
-0.481233
-0.47331
-0.464588
-0.454994
-0.444527
-0.433258
-0.421311
-0.408849
-0.396047
-0.383078
-0.3701
-0.357245
-0.344619
-0.332302
-0.320349
-0.308796
-0.297665
-0.286963
-0.276692
-0.266865
-0.523591
-0.515783
-0.508976
-0.502229
-0.494945
-0.487009
-0.478279
-0.468638
-0.458047
-0.446554
-0.43428
-0.421394
-0.40809
-0.394563
-0.380993
-0.367533
-0.354305
-0.341401
-0.328884
-0.316796
-0.305158
-0.29398
-0.283259
-0.272984
-0.263163
-0.532233
-0.523845
-0.516587
-0.509362
-0.501475
-0.492788
-0.483161
-0.472505
-0.46083
-0.448242
-0.434914
-0.421062
-0.406907
-0.39266
-0.378499
-0.36457
-0.350982
-0.33781
-0.325101
-0.31288
-0.301155
-0.289926
-0.279179
-0.268892
-0.259071
-0.540904
-0.531954
-0.524248
-0.51652
-0.507974
-0.498453
-0.487835
-0.47607
-0.46323
-0.449487
-0.435073
-0.420241
-0.405241
-0.390287
-0.375555
-0.361178
-0.347248
-0.333821
-0.320928
-0.308579
-0.29677
-0.285488
-0.274713
-0.264407
-0.254588
-0.549484
-0.539998
-0.531848
-0.523586
-0.514317
-0.503875
-0.492167
-0.479203
-0.465129
-0.450187
-0.434666
-0.418859
-0.403029
-0.387394
-0.372119
-0.357319
-0.343068
-0.329403
-0.316339
-0.30387
-0.291981
-0.28065
-0.269848
-0.259522
-0.249707
-0.55784
-0.54785
-0.539259
-0.530427
-0.520364
-0.508909
-0.496016
-0.481772
-0.466408
-0.450239
-0.433611
-0.416845
-0.400215
-0.383932
-0.368147
-0.352955
-0.338407
-0.324525
-0.311304
-0.298727
-0.286767
-0.275393
-0.264567
-0.254223
-0.244422
-0.565823
-0.55537
-0.54634
-0.536896
-0.525964
-0.513402
-0.499236
-0.483644
-0.46695
-0.449546
-0.431824
-0.414131
-0.396741
-0.379852
-0.363595
-0.348044
-0.33323
-0.319153
-0.305794
-0.293123
-0.281102
-0.269694
-0.258852
-0.248498
-0.238721
-0.573273
-0.562403
-0.552934
-0.542832
-0.530952
-0.517195
-0.501678
-0.484687
-0.466643
-0.448013
-0.42923
-0.410654
-0.392552
-0.375105
-0.358421
-0.342548
-0.327498
-0.313251
-0.299776
-0.287028
-0.274961
-0.263533
-0.252686
-0.242329
-0.232592
-0.580019
-0.568782
-0.558874
-0.548064
-0.535158
-0.520126
-0.503195
-0.484772
-0.46538
-0.445552
-0.425755
-0.406351
-0.387595
-0.369644
-0.352579
-0.336427
-0.321174
-0.306787
-0.293218
-0.280414
-0.26832
-0.256886
-0.246048
-0.235702
-0.226023
-0.585884
-0.574334
-0.563984
-0.552415
-0.53841
-0.522032
-0.503643
-0.483778
-0.46306
-0.442081
-0.421331
-0.401166
-0.38182
-0.363423
-0.34603
-0.32964
-0.314223
-0.299727
-0.286091
-0.273253
-0.261152
-0.249732
-0.238919
-0.2286
-0.218998
-0.590685
-0.578879
-0.568082
-0.555703
-0.540534
-0.522757
-0.502885
-0.48159
-0.45959
-0.437525
-0.415896
-0.395044
-0.375178
-0.356398
-0.33873
-0.322151
-0.306608
-0.292037
-0.278365
-0.26552
-0.253436
-0.242051
-0.231282
-0.221007
-0.211506
-0.594234
-0.582231
-0.570984
-0.557748
-0.54136
-0.522149
-0.500794
-0.478105
-0.454886
-0.431815
-0.409391
-0.387936
-0.367626
-0.348529
-0.330644
-0.313923
-0.298298
-0.283689
-0.270013
-0.25719
-0.245148
-0.233823
-0.223121
-0.212911
-0.203534
-0.596348
-0.584209
-0.572507
-0.558373
-0.540726
-0.520067
-0.497253
-0.473228
-0.448873
-0.42489
-0.401766
-0.379796
-0.359121
-0.339777
-0.321734
-0.304925
-0.289262
-0.274654
-0.261009
-0.248241
-0.236272
-0.225033
-0.214421
-0.2043
-0.195073
-0.596849
-0.584634
-0.572474
-0.55741
-0.538481
-0.516384
-0.492159
-0.466878
-0.441486
-0.416696
-0.392975
-0.370584
-0.349627
-0.330108
-0.311971
-0.295126
-0.279474
-0.26491
-0.251334
-0.238655
-0.22679
-0.215667
-0.205171
-0.195164
-0.186115
-0.595566
-0.583334
-0.570717
-0.554702
-0.534487
-0.510985
-0.485421
-0.458985
-0.432669
-0.407188
-0.382979
-0.360265
-0.339112
-0.319493
-0.301326
-0.284503
-0.268911
-0.254436
-0.24097
-0.228416
-0.216689
-0.205713
-0.195363
-0.185497
-0.176654
-0.592339
-0.580149
-0.567081
-0.550105
-0.528622
-0.503773
-0.476963
-0.449489
-0.422377
-0.396329
-0.371747
-0.34881
-0.32755
-0.307907
-0.289777
-0.273035
-0.257555
-0.243216
-0.229903
-0.217514
-0.205962
-0.195166
-0.184992
-0.175296
-0.16669
-0.587024
-0.574934
-0.561423
-0.543495
-0.520782
-0.494666
-0.466726
-0.438347
-0.410576
-0.38409
-0.359252
-0.336197
-0.314919
-0.295331
-0.277306
-0.260706
-0.245393
-0.231239
-0.218124
-0.205942
-0.194603
-0.184023
-0.174056
-0.164562
-0.156223
-0.579491
-0.567558
-0.553621
-0.534762
-0.510882
-0.483602
-0.454664
-0.425526
-0.397241
-0.370452
-0.345477
-0.322409
-0.301205
-0.281751
-0.263902
-0.247506
-0.232417
-0.218499
-0.205629
-0.193697
-0.182611
-0.172284
-0.16256
-0.153301
-0.14526
-0.569632
-0.557911
-0.543573
-0.523823
-0.498857
-0.470535
-0.440747
-0.411008
-0.382359
-0.355404
-0.330414
-0.307437
-0.286399
-0.267159
-0.249558
-0.23343
-0.218622
-0.204994
-0.192418
-0.180781
-0.16999
-0.159955
-0.150509
-0.141519
-0.133808
-0.55736
-0.545904
-0.531198
-0.510614
-0.484663
-0.45544
-0.424963
-0.394785
-0.365926
-0.338944
-0.314059
-0.29128
-0.270499
-0.251556
-0.234273
-0.218478
-0.204012
-0.190727
-0.178495
-0.167199
-0.156747
-0.147045
-0.137916
-0.129231
-0.121883
-0.542611
-0.531472
-0.516438
-0.495092
-0.468277
-0.438308
-0.407313
-0.376865
-0.347951
-0.32108
-0.296421
-0.273944
-0.253511
-0.234944
-0.218053
-0.202657
-0.188591
-0.175706
-0.163869
-0.152964
-0.142896
-0.133568
-0.124795
-0.116454
-0.1095
-0.525342
-0.514573
-0.499261
-0.477242
-0.449699
-0.41915
-0.387814
-0.357266
-0.328453
-0.301829
-0.277514
-0.255441
-0.235447
-0.217336
-0.200909
-0.185978
-0.172373
-0.159944
-0.148555
-0.138089
-0.128452
-0.119542
-0.111167
-0.103208
-0.096682
-0.505541
-0.49519
-0.479659
-0.457069
-0.428946
-0.397994
-0.366498
-0.336021
-0.307461
-0.281216
-0.25736
-0.235792
-0.216325
-0.198749
-0.182857
-0.168456
-0.155373
-0.143456
-0.132568
-0.122593
-0.113434
-0.104989
-0.0970543
-0.0895207
-0.0834552
-0.483215
-0.473331
-0.457648
-0.434601
-0.406058
-0.374885
-0.343411
-0.313173
-0.285016
-0.259279
-0.235993
-0.215024
-0.196169
-0.179205
-0.163918
-0.150111
-0.137611
-0.126263
-0.115931
-0.106497
-0.0978656
-0.0899319
-0.082485
-0.0754204
-0.0698485
-0.458401
-0.449031
-0.433269
-0.409892
-0.381096
-0.349886
-0.318613
-0.288779
-0.261167
-0.236061
-0.21345
-0.193175
-0.175013
-0.158734
-0.144118
-0.130969
-0.11911
-0.108387
-0.098664
-0.0898237
-0.0817714
-0.0743989
-0.0674889
-0.0609404
-0.0558951
-0.431158
-0.422348
-0.406587
-0.383013
-0.354137
-0.323073
-0.29218
-0.262907
-0.235976
-0.211617
-0.189782
-0.170285
-0.152893
-0.137368
-0.123488
-0.111055
-0.0998944
-0.0898519
-0.0807921
-0.0725986
-0.0651775
-0.0584185
-0.0520988
-0.0461178
-0.0416347
-0.40157
-0.393365
-0.37769
-0.354059
-0.325276
-0.294542
-0.264198
-0.235637
-0.209515
-0.186012
-0.165044
-0.146406
-0.129854
-0.115147
-0.102062
-0.0904009
-0.0799918
-0.0706821
-0.062338
-0.0548444
-0.0481084
-0.0420186
-0.0363483
-0.030994
-0.0271164
-0.369747
-0.362188
-0.346689
-0.323143
-0.294627
-0.2644
-0.234768
-0.207059
-0.181866
-0.159318
-0.139302
-0.121595
-0.105947
-0.0921141
-0.079876
-0.0690375
-0.0594287
-0.0509006
-0.043322
-0.0365805
-0.0305845
-0.0252228
-0.020268
-0.0156117
-0.0123927
-0.335816
-0.328944
-0.313713
-0.290397
-0.262319
-0.232768
-0.204002
-0.177277
-0.153121
-0.13162
-0.11263
-0.095918
-0.0812288
-0.0683195
-0.0569727
-0.0469982
-0.0382309
-0.0305266
-0.0237588
-0.0178186
-0.0126172
-0.00804568
-0.00388193
-7.69879e-06
0.0025023
-0.299928
-0.293781
-0.278911
-0.255969
-0.228495
-0.199781
-0.172024
-0.146404
-0.123385
-0.10301
-0.0851131
-0.0694508
-0.0557659
-0.0438188
-0.0333974
-0.0243179
-0.0164222
-0.00957361
-0.00365226
0.00144445
0.00580079
0.00951845
0.012808
0.0158102
0.0175793
-0.262253
-0.256866
-0.242448
-0.220022
-0.19331
-0.165587
-0.138971
-0.114565
-0.0927706
-0.0735926
-0.0568456
-0.042278
-0.0296332
-0.0186763
-0.00920216
-0.0010355
0.00597268
0.0119495
0.0170045
0.0212305
0.024703
0.0275113
0.0298474
0.0318852
0.0328564
-0.222975
-0.218381
-0.204507
-0.182732
-0.156933
-0.130341
-0.104987
-0.0818934
-0.0614025
-0.0434832
-0.0279331
-0.0144959
-0.00291681
0.00703303
0.0155505
0.0228011
0.0289227
0.0340296
0.0382167
0.0415612
0.0441268
0.0459859
0.0472897
0.0482058
0.0481398
-0.182295
-0.178522
-0.165281
-0.144289
-0.119543
-0.0942109
-0.0702285
-0.0485344
-0.0294152
-0.0128069
0.00150723
0.0137871
0.0242844
0.0332218
0.0407875
0.0471362
0.0523929
0.0566548
0.0599942
0.0624634
0.0641082
0.0649689
0.0650749
0.0644501
0.0627972
-0.140426
-0.137499
-0.124974
-0.104888
-0.0813262
-0.0573717
-0.0348579
-0.0146407
0.0030474
0.0183001
0.0313463
0.0424487
0.0518562
0.0597862
0.0664203
0.0719047
0.0763531
0.0798452
0.0824254
0.0841132
0.0849257
0.0848168
0.0835001
0.0806568
0.0768897
-0.0975908
-0.095532
-0.0838024
-0.0647356
-0.0424762
-0.0200045
0.000954977
0.019628
0.0358336
0.049692
0.061443
0.071351
0.0796633
0.0865945
0.0923237
0.0969963
0.100726
0.10359
0.105628
0.106862
0.107318
0.106849
0.104699
0.100169
0.0954685
-0.0540229
-0.052848
-0.0419859
-0.0240429
-0.00319164
0.0177051
0.0370359
0.0541071
0.0687859
0.0812163
0.0916469
0.100343
0.10755
0.113482
0.118317
0.122206
0.125272
0.127612
0.129302
0.130438
0.131171
0.131436
0.130303
0.127263
0.129674
-0.00995178
-0.0096752
0.000252499
0.0169775
0.0363272
0.0555693
0.0732086
0.0886295
0.101744
0.112718
0.121805
0.129271
0.135358
0.140276
0.144204
0.147293
0.149671
0.151442
0.152704
0.153582
0.154239
0.154645
0.154286
0.153634
0.158356
0.0343809
0.0337497
0.0426844
0.0581094
0.0758779
0.0933994
0.109296
0.123028
0.134549
0.144042
0.151766
0.157983
0.162932
0.16682
0.169822
0.172087
0.173745
0.174904
0.17567
0.176166
0.176533
0.176738
0.176421
0.176124
0.180311
0.0787339
0.0771903
0.0850819
0.0991372
0.115259
0.131008
0.145123
0.157139
0.167045
0.17504
0.181384
0.186336
0.19013
0.192966
0.195014
0.196419
0.197308
0.197787
0.19796
0.197944
0.197862
0.19769
0.197127
0.196611
0.199781
0.122867
0.120411
0.127218
0.139847
0.154272
0.168211
0.180519
0.1908
0.199079
0.205565
0.21052
0.214197
0.216822
0.218587
0.219657
0.22017
0.220245
0.219984
0.219481
0.218841
0.218168
0.217428
0.216351
0.215341
0.217542
0.166541
0.163177
0.168869
0.18003
0.192722
0.204827
0.215315
0.223856
0.230505
0.235482
0.239045
0.241443
0.242891
0.243574
0.243648
0.243244
0.242472
0.241427
0.240194
0.238864
0.237523
0.236127
0.234427
0.23282
0.234085
0.209523
0.20526
0.209816
0.219478
0.230418
0.24068
0.249349
0.256156
0.261184
0.264659
0.266838
0.267959
0.268231
0.267828
0.266898
0.265563
0.263926
0.26207
0.260073
0.258013
0.255963
0.253867
0.251503
0.249272
0.249642
0.251583
0.246435
0.249842
0.257992
0.267175
0.275601
0.282465
0.287555
0.290981
0.292973
0.293782
0.29364
0.292745
0.291264
0.289332
0.287065
0.284555
0.281879
0.279105
0.276303
0.273529
0.270725
0.267696
0.264841
0.264355
0.292498
0.286482
0.28874
0.295378
0.302814
0.309425
0.314511
0.317915
0.319768
0.320304
0.31977
0.318387
0.316345
0.3138
0.310879
0.307688
0.304313
0.300822
0.297274
0.293732
0.29024
0.28674
0.283062
0.279597
0.278294
0.33205
0.325192
0.326309
0.331448
0.337164
0.341995
0.345343
0.347103
0.347424
0.346543
0.344699
0.342107
0.338946
0.335361
0.331473
0.327378
0.323155
0.318864
0.314558
0.310291
0.3061
0.301926
0.297624
0.293572
0.291486
0.370034
0.362359
0.362357
0.366024
0.370059
0.373159
0.374823
0.374991
0.373831
0.37158
0.368472
0.36471
0.360466
0.355875
0.351051
0.34608
0.341034
0.335968
0.330928
0.325961
0.321097
0.316279
0.311384
0.306771
0.303937
0.40625
0.397791
0.396698
0.398934
0.401343
0.402774
0.402818
0.401459
0.398879
0.395315
0.390993
0.386111
0.380828
0.375273
0.369549
0.363738
0.357903
0.352094
0.346352
0.340715
0.33521
0.329782
0.324329
0.319182
0.315637
0.440509
0.431303
0.429158
0.430017
0.430867
0.430704
0.429205
0.426393
0.422462
0.41765
0.412176
0.406228
0.399957
0.393485
0.386907
0.380297
0.373713
0.367199
0.36079
0.354521
0.348411
0.34241
0.336434
0.330783
0.326563
0.472632
0.46272
0.459572
0.45912
0.45849
0.456821
0.453865
0.449683
0.44448
0.438493
0.431934
0.424983
0.417783
0.410448
0.403066
0.395704
0.388415
0.381239
0.374205
0.367342
0.360666
0.354133
0.347671
0.341547
0.336692
0.502452
0.49188
0.487786
0.4861
0.484083
0.481003
0.476687
0.471228
0.46484
0.457757
0.450188
0.442303
0.434237
0.426098
0.417966
0.409905
0.401961
0.394168
0.386554
0.379141
0.371941
0.364915
0.358006
0.351443
0.345995
0.529814
0.51863
0.513656
0.510823
0.507521
0.503139
0.497569
0.490932
0.483453
0.475362
0.466862
0.458117
0.449254
0.440375
0.431554
0.42285
0.414303
0.405944
0.397796
0.389878
0.382199
0.374724
0.367407
0.360439
0.354443
0.554573
0.54283
0.537049
0.533167
0.528694
0.523125
0.516415
0.508709
0.500238
0.491232
0.481887
0.47236
0.462775
0.453224
0.443777
0.434488
0.425395
0.416523
0.407892
0.399517
0.391404
0.383524
0.375839
0.368503
0.362007
0.576599
0.564354
0.557846
0.553022
0.547498
0.540868
0.533138
0.524477
0.51512
0.505297
0.495198
0.484974
0.474742
0.464591
0.454587
0.444776
0.435195
0.425865
0.416803
0.408021
0.399522
0.391282
0.38327
0.375606
0.368659
0.595775
0.583086
0.575938
0.570286
0.563841
0.556282
0.54766
0.538164
0.528033
0.517495
0.506736
0.495902
0.485106
0.47443
0.463937
0.453671
0.443663
0.433933
0.424495
0.415358
0.406522
0.397968
0.389671
0.381719
0.374376
0.611996
0.598926
0.591231
0.584872
0.577642
0.569293
0.559912
0.549705
0.538916
0.527771
0.51645
0.505098
0.49382
0.482698
0.471789
0.461135
0.450764
0.440694
0.430936
0.421496
0.412373
0.403553
0.395016
0.386816
0.379134
0.625172
0.611785
0.60364
0.596703
0.588831
0.579835
0.569834
0.559046
0.547718
0.536075
0.524295
0.512517
0.500846
0.489358
0.478108
0.467136
0.456467
0.446118
0.436097
0.426409
0.417052
0.408014
0.399279
0.390875
0.382914
0.635228
0.621591
0.613097
0.605714
0.597348
0.587853
0.577375
0.566139
0.554395
0.542367
0.530232
0.518125
0.506149
0.494377
0.482864
0.471645
0.460745
0.45018
0.439955
0.430075
0.420536
0.411329
0.40244
0.393878
0.385698
0.642103
0.628285
0.619546
0.611854
0.603145
0.593305
0.582494
0.570945
0.558912
0.546615
0.534231
0.521893
0.509703
0.497732
0.486032
0.47464
0.463578
0.452859
0.442491
0.432475
0.422808
0.413482
0.404485
0.395809
0.387474
0.64575
0.63182
0.622945
0.615084
0.606186
0.596156
0.585161
0.573438
0.561241
0.548793
0.536268
0.523799
0.511486
0.499402
0.487596
0.476103
0.464948
0.454141
0.443691
0.433596
0.423854
0.414459
0.405399
0.396657
0.388232
0.646139
0.632167
0.623264
0.615376
0.606447
0.596383
0.585353
0.573596
0.561365
0.548884
0.536327
0.523828
0.511486
0.499374
0.487542
0.476024
0.464845
0.454016
0.443543
0.433428
0.423667
0.414253
0.405176
0.396415
0.387964
0.643254
0.629311
0.62049
0.612717
0.603916
0.593976
0.583062
0.57141
0.559275
0.54688
0.534401
0.521973
0.509696
0.497642
0.485864
0.474397
0.463263
0.452477
0.442045
0.431967
0.422241
0.41286
0.403812
0.395079
0.386669
0.637094
0.623251
0.614621
0.607107
0.598591
0.588934
0.578287
0.566881
0.554971
0.542781
0.53049
0.518233
0.506114
0.494207
0.482563
0.471221
0.460204
0.449527
0.439196
0.429214
0.419578
0.41028
0.401307
0.39265
0.384346
0.627674
0.614001
0.605671
0.598559
0.590484
0.581266
0.571036
0.560016
0.54846
0.536595
0.5246
0.512617
0.500749
0.489074
0.477646
0.466504
0.455673
0.44517
0.435002
0.425173
0.415682
0.406519
0.397666
0.389132
0.381001
0.615023
0.601589
0.593668
0.587096
0.579618
0.570996
0.561331
0.550835
0.539761
0.528338
0.516749
0.505139
0.493615
0.482257
0.471124
0.460256
0.449681
0.439417
0.429473
0.419856
0.410564
0.401586
0.392899
0.384534
0.376639
0.599187
0.586061
0.578651
0.572757
0.566028
0.558154
0.5492
0.539366
0.5289
0.518035
0.506958
0.49582
0.484731
0.473776
0.463017
0.452496
0.442245
0.432284
0.422625
0.413275
0.404237
0.395494
0.387019
0.378869
0.371273
0.580225
0.567473
0.560676
0.555592
0.549761
0.542785
0.534685
0.525646
0.515912
0.505718
0.495259
0.484689
0.474125
0.463656
0.453348
0.443247
0.433388
0.423793
0.414477
0.405452
0.39672
0.388261
0.380043
0.372152
0.364917
0.558212
0.545897
0.53981
0.535666
0.530874
0.524941
0.517835
0.50972
0.500839
0.491428
0.48169
0.471783
0.461831
0.451929
0.442147
0.432536
0.423135
0.413968
0.405055
0.396408
0.388035
0.379909
0.371992
0.364404
0.357588
0.533237
0.521422
0.516137
0.513052
0.509438
0.504687
0.498709
0.491645
0.483733
0.475213
0.466294
0.457142
0.447888
0.438631
0.429449
0.420397
0.411518
0.40284
0.394385
0.386172
0.378209
0.370464
0.362891
0.355648
0.349307
0.505403
0.494145
0.489748
0.487839
0.485533
0.482096
0.477376
0.471484
0.464653
0.457128
0.449124
0.440815
0.43234
0.423806
0.415295
0.406868
0.398573
0.390442
0.382501
0.374774
0.36727
0.359954
0.352768
0.345911
0.340097
0.474827
0.464183
0.460753
0.460125
0.459249
0.457253
0.453912
0.449307
0.443666
0.437235
0.430237
0.422857
0.41524
0.4075
0.399728
0.39199
0.384338
0.376811
0.369438
0.362247
0.355251
0.34841
0.341654
0.33522
0.329984
0.441638
0.43166
0.429271
0.430021
0.430688
0.430251
0.428404
0.425196
0.420845
0.415602
0.409698
0.403325
0.396641
0.389766
0.382797
0.375808
0.368858
0.361988
0.355233
0.348626
0.342186
0.335865
0.32958
0.323607
0.318996
0.405981
0.396716
0.395432
0.397648
0.399961
0.401191
0.400946
0.399236
0.39627
0.392303
0.387574
0.382286
0.376603
0.370658
0.364553
0.358371
0.352175
0.346013
0.339926
0.333951
0.328111
0.322354
0.31658
0.311103
0.307162
0.368011
0.359504
0.35938
0.363139
0.367191
0.370186
0.37164
0.371523
0.37003
0.367421
0.363942
0.359807
0.355191
0.350235
0.345051
0.339728
0.334337
0.328931
0.323556
0.318257
0.31306
0.30791
0.302687
0.29774
0.29451
0.327896
0.320186
0.32127
0.326637
0.332507
0.337356
0.340597
0.342157
0.342217
0.341039
0.338879
0.335961
0.332471
0.328559
0.324347
0.319931
0.315391
0.310785
0.306164
0.301581
0.297069
0.292566
0.287933
0.283549
0.281067
0.285814
0.278937
0.281266
0.288294
0.296051
0.302828
0.307934
0.311246
0.312931
0.313251
0.312471
0.310826
0.308513
0.305694
0.302499
0.299034
0.295383
0.291616
0.287788
0.283958
0.280167
0.276351
0.272346
0.268554
0.266859
0.241957
0.235944
0.239545
0.248273
0.25797
0.26674
0.273777
0.278906
0.282277
0.284151
0.284805
0.284482
0.283392
0.281707
0.279567
0.277087
0.274361
0.271464
0.268461
0.265416
0.262381
0.259287
0.255946
0.252775
0.251903
0.196524
0.191402
0.196292
0.206745
0.218423
0.229234
0.238256
0.245256
0.250365
0.253843
0.255974
0.257013
0.257183
0.256665
0.25561
0.254144
0.252369
0.250368
0.248213
0.245979
0.243727
0.241387
0.238742
0.23622
0.236207
0.149727
0.145516
0.151702
0.163892
0.177575
0.190463
0.20151
0.210425
0.217312
0.222433
0.226075
0.228509
0.229965
0.230639
0.230691
0.230257
0.229449
0.22836
0.227068
0.225661
0.22421
0.222648
0.220727
0.218877
0.219759
0.101784
0.0985014
0.105978
0.119902
0.1356
0.150585
0.163687
0.174546
0.183243
0.190033
0.195213
0.199062
0.201824
0.203703
0.204874
0.20548
0.205644
0.205468
0.205042
0.204463
0.203818
0.203045
0.201866
0.200704
0.202523
0.0529229
0.0505804
0.0593329
0.0749727
0.0926788
0.109768
0.124938
0.13776
0.148285
0.156763
0.163496
0.168773
0.172848
0.175938
0.178227
0.179869
0.180997
0.181722
0.182145
0.182377
0.182523
0.182531
0.182091
0.181619
0.184416
0.00337837
0.00198298
0.0119849
0.0293077
0.0489999
0.0681835
0.0854222
0.100213
0.112575
0.122749
0.13104
0.137748
0.143135
0.14743
0.150826
0.153486
0.155553
0.157148
0.158383
0.15938
0.160268
0.161007
0.161263
0.161451
0.165274
-0.0466089
-0.0470549
-0.0358403
-0.0168821
0.00475794
0.0260118
0.0453064
0.0620608
0.0762563
0.0881239
0.097971
0.106103
0.112793
0.118278
0.122759
0.12641
0.129377
0.131792
0.133774
0.135463
0.137008
0.138381
0.139215
0.139955
0.14484
-0.0967932
-0.0962923
-0.0839121
-0.0633807
-0.0398468
-0.016562
0.00476219
0.0234625
0.0394798
0.0530307
0.0644226
0.0739663