/*--------------------------------*- C++ -*----------------------------------*\
  =========                 |
  \\      /  F ield         | OpenFOAM: The Open Source CFD Toolbox
   \\    /   O peration     | Website:  https://openfoam.org
    \\  /    A nd           | Version:  6.0
     \\/     M anipulation  |
\*---------------------------------------------------------------------------*/
FoamFile
{
    version     2.0;
    format      ascii;
    class       volVectorField;
    location    "7";
    object      U;
}
// * * * * * * * * * * * * * * * * * * * * * * * * * * * * * * * * * * * * * //

dimensions      [0 1 -1 0 0 0 0];

internalField   nonuniform List<vector> 
12500
(
(-0.000842581 0.000931614 -7.08419e-22)
(-0.00465346 0.00230619 9.77358e-21)
(-0.0117982 0.00331042 -1.41844e-20)
(-0.0207852 0.00404802 6.51826e-21)
(-0.0308694 0.00458669 3.94961e-22)
(-0.0416332 0.00497559 -8.00296e-22)
(-0.0527601 0.00525259 -1.18793e-20)
(-0.0640246 0.00544697 6.52024e-21)
(-0.0752757 0.00558166 4.31399e-21)
(-0.0864158 0.00567481 4.38377e-21)
(-0.0973862 0.0057409 -7.44806e-21)
(-0.108157 0.00579157 4.33382e-21)
(-0.118719 0.00583619 -2.04764e-21)
(-0.129078 0.00588229 3.47372e-21)
(-0.139251 0.00593589 -8.89529e-21)
(-0.149262 0.00600175 1.28923e-20)
(-0.159141 0.00608351 -2.44066e-21)
(-0.168919 0.00618381 -9.15602e-21)
(-0.178625 0.00630439 4.70163e-21)
(-0.188296 0.00644603 -4.51629e-21)
(-0.197986 0.00660835 4.04988e-21)
(-0.207732 0.0067904 5.3886e-21)
(-0.217328 0.00699359 5.76262e-22)
(-0.226467 0.00722046 -1.54843e-20)
(-0.236839 0.00744565 8.34772e-21)
(-0.000944624 0.00286756 1.29203e-20)
(-0.00485835 0.00711254 -3.33771e-20)
(-0.012001 0.0102261 9.85031e-21)
(-0.0209249 0.0125205 6.59289e-21)
(-0.0309067 0.0142012 -5.24126e-21)
(-0.0415405 0.0154185 -2.98635e-20)
(-0.0525176 0.0162884 8.86219e-21)
(-0.0636176 0.0169012 -1.68095e-20)
(-0.0746924 0.0173276 2.01066e-20)
(-0.0856461 0.0176237 -2.68344e-20)
(-0.0964207 0.0178341 1.4372e-20)
(-0.106986 0.0179948 4.66864e-21)
(-0.117333 0.0181344 -1.17426e-20)
(-0.127468 0.018276 -5.24367e-21)
(-0.137406 0.0184381 3.8092e-20)
(-0.147171 0.0186352 -3.38145e-20)
(-0.156792 0.0188783 8.05375e-21)
(-0.166301 0.0191756 1.40221e-20)
(-0.175728 0.0195325 -3.27429e-21)
(-0.185106 0.0199517 2.2812e-20)
(-0.194494 0.020432 4.26472e-21)
(-0.203928 0.020971 -1.36498e-21)
(-0.213203 0.0215728 -2.90154e-20)
(-0.222004 0.0222457 2.70351e-20)
(-0.232022 0.0229133 -5.23745e-20)
(-0.00114541 0.00473322 4.14767e-20)
(-0.00526259 0.0117607 1.38189e-20)
(-0.0124024 0.0169332 -1.81165e-20)
(-0.021203 0.0207566 7.79875e-21)
(-0.0309834 0.0235654 7.28145e-21)
(-0.0413608 0.0256051 2.7677e-20)
(-0.0520421 0.0270665 -3.51563e-20)
(-0.0628167 0.0280981 -5.73146e-21)
(-0.0735424 0.0288168 -2.35863e-20)
(-0.0841266 0.0293154 -1.97388e-20)
(-0.0945127 0.0296681 2.54809e-20)
(-0.104671 0.0299345 -8.54278e-20)
(-0.114592 0.0301625 -2.73717e-21)
(-0.124281 0.0303908 -5.15353e-20)
(-0.133753 0.0306503 -6.17522e-21)
(-0.143031 0.0309654 7.28116e-21)
(-0.152143 0.0313553 -4.03234e-20)
(-0.16112 0.0318341 -2.53307e-20)
(-0.169991 0.0324113 -3.0085e-20)
(-0.178793 0.033092 4.71554e-20)
(-0.187582 0.0338754 1.74917e-20)
(-0.196399 0.0347575 -7.71421e-20)
(-0.205041 0.0357465 -3.7456e-20)
(-0.213175 0.0368576 -4.22783e-20)
(-0.222496 0.0379633 1.15621e-19)
(-0.00143602 0.00648504 -1.21293e-21)
(-0.00585005 0.0161518 -3.19047e-20)
(-0.0129883 0.0233002 -1.54456e-20)
(-0.0216116 0.028606 9.50577e-21)
(-0.0311 0.0325186 5.93097e-20)
(-0.0411038 0.0353703 -2.67719e-20)
(-0.0513524 0.03742 5.70692e-20)
(-0.06165 0.0388704 5.44319e-20)
(-0.0718632 0.0398817 3.31583e-20)
(-0.0819041 0.0405817 -5.40045e-22)
(-0.0917187 0.0410729 6.70098e-20)
(-0.101278 0.0414379 1.16233e-20)
(-0.110572 0.0417436 5.13203e-20)
(-0.119605 0.0420439 1.18444e-19)
(-0.128391 0.0423825 -1.37612e-19)
(-0.136952 0.0427944 2.07445e-19)
(-0.145315 0.0433071 4.55769e-20)
(-0.15351 0.0439416 -1.00058e-19)
(-0.161567 0.0447126 -1.44147e-20)
(-0.169523 0.0456286 3.65237e-20)
(-0.177435 0.0466903 -1.85492e-20)
(-0.185349 0.0478932 -1.13009e-20)
(-0.193066 0.0492505 -1.10397e-20)
(-0.200227 0.0507875 -4.42607e-20)
(-0.208532 0.052325 1.57002e-19)
(-0.0018038 0.00808474 2.17124e-20)
(-0.00659777 0.0201975 -1.00829e-19)
(-0.0137385 0.029208 1.22389e-19)
(-0.0221395 0.0359307 -4.87552e-20)
(-0.0312571 0.0409121 5.83898e-20)
(-0.0407833 0.0445589 4.77291e-20)
(-0.0504763 0.0471904 1.81569e-20)
(-0.0601591 0.0490579 9.4219e-22)
(-0.0697098 0.0503611 1.02199e-19)
(-0.0790473 0.0512602 7.09017e-20)
(-0.088121 0.0518843 -2.84793e-20)
(-0.0969033 0.052338 -1.85433e-20)
(-0.105384 0.0527064 7.73875e-20)
(-0.113566 0.0530588 1.45373e-20)
(-0.121463 0.0534518 3.98102e-20)
(-0.129094 0.0539313 9.57449e-20)
(-0.136486 0.0545342 -8.28063e-20)
(-0.14367 0.055289 6.7155e-20)
(-0.150674 0.0562173 -1.45151e-19)
(-0.157536 0.0573326 1.2255e-19)
(-0.164317 0.0586383 9.3722e-22)
(-0.171069 0.0601314 -9.86163e-20)
(-0.177597 0.0618316 3.95859e-20)
(-0.183513 0.0637783 9.08464e-20)
(-0.190517 0.0657413 -1.36868e-19)
(-0.00223331 0.00950099 1.12504e-19)
(-0.0074775 0.0238236 -1.19577e-19)
(-0.0146281 0.0345541 -1.91523e-20)
(-0.0227731 0.0426096 2.43487e-20)
(-0.0314559 0.0486122 -5.2458e-20)
(-0.0404172 0.0530296 -8.1828e-20)
(-0.049449 0.0562315 -6.8218e-20)
(-0.0583966 0.0585113 -1.6494e-20)
(-0.0671525 0.0601034 -1.17556e-19)
(-0.075644 0.0611972 9.38658e-20)
(-0.0838251 0.0619462 -1.45942e-19)
(-0.0916703 0.0624756 7.38736e-20)
(-0.0991697 0.0628881 -2.46161e-20)
(-0.106326 0.0632679 5.71748e-20)
(-0.11315 0.0636846 -1.44097e-19)
(-0.119661 0.0641955 7.0119e-20)
(-0.125885 0.0648476 5.31592e-21)
(-0.131851 0.0656786 3.11555e-20)
(-0.13759 0.0667182 1.89813e-19)
(-0.143139 0.0679871 4.26279e-20)
(-0.148564 0.0694936 -3.45605e-21)
(-0.153924 0.0712382 1.22292e-20)
(-0.159036 0.0732496 8.04172e-20)
(-0.163473 0.075587 2.30578e-20)
(-0.168932 0.0779706 7.80775e-20)
(-0.00270727 0.0107106 -7.00676e-20)
(-0.00845749 0.0269728 9.96367e-20)
(-0.0156291 0.0392561 6.28596e-21)
(-0.0234968 0.0485419 -1.21897e-19)
(-0.0316982 0.0555049 2.56594e-19)
(-0.0400267 0.0606587 -8.29855e-20)
(-0.0483119 0.0644128 1.21291e-19)
(-0.0564247 0.0670948 1.11202e-19)
(-0.0642741 0.0689689 -9.19328e-20)
(-0.0717978 0.0702498 -1.34329e-19)
(-0.0789557 0.0711128 3.67507e-20)
(-0.0857254 0.071702 -3.88281e-20)
(-0.0920979 0.0721363 -1.72689e-19)
(-0.0980752 0.0725144 2.10468e-19)
(-0.103668 0.0729187 -1.01269e-19)
(-0.108894 0.0734183 -7.01544e-20)
(-0.113778 0.0740714 5.76935e-22)
(-0.118349 0.074926 5.76117e-20)
(-0.12264 0.0760219 2.40099e-20)
(-0.12669 0.0773891 -9.37132e-20)
(-0.130565 0.0790441 1.07827e-19)
(-0.134341 0.0809935 -1.87901e-19)
(-0.137843 0.0832785 1.14996e-19)
(-0.140611 0.0859846 -8.91056e-20)
(-0.144324 0.0887874 2.17677e-20)
(-0.00320779 0.0116995 1.02594e-19)
(-0.00950451 0.0296066 -7.89169e-20)
(-0.0167121 0.0432545 -5.01968e-20)
(-0.0242948 0.0536504 -8.86825e-20)
(-0.0319865 0.0614987 -1.62106e-19)
(-0.0396353 0.0673431 -1.19858e-19)
(-0.0471109 0.071622 7.48382e-20)
(-0.0543123 0.0746893 -1.13542e-19)
(-0.0611668 0.0768331 1.44289e-19)
(-0.0676243 0.0782892 -2.35173e-19)
(-0.0736523 0.0792517 1.04737e-19)
(-0.0792325 0.0798812 2.21938e-19)
(-0.0843577 0.0803115 -3.12433e-19)
(-0.0890302 0.0806547 4.46536e-20)
(-0.09326 0.0810058 5.85842e-20)
(-0.0970643 0.081446 5.69566e-20)
(-0.100467 0.0820449 -6.07063e-20)
(-0.103497 0.0828626 -1.47035e-20)
(-0.106188 0.0839507 -4.49159e-20)
(-0.108583 0.0853515 -3.77598e-20)
(-0.110753 0.0870931 -2.09003e-19)
(-0.112785 0.089192 -1.43954e-20)
(-0.114523 0.0917058 2.38607e-21)
(-0.115471 0.0947557 -9.57682e-20)
(-0.117286 0.0979796 1.0049e-19)
(-0.00371757 0.0124626 3.08394e-21)
(-0.010586 0.0317059 3.22855e-20)
(-0.0178482 0.0465139 3.36974e-20)
(-0.0251515 0.0578834 1.94328e-20)
(-0.0323237 0.0665267 1.65182e-19)
(-0.0392677 0.0730031 1.55372e-19)
(-0.0458942 0.0777685 -1.26278e-19)
(-0.0521315 0.0811954 -3.85579e-20)
(-0.0579274 0.0835894 -3.42782e-20)
(-0.0632457 0.0852032 1.77072e-19)
(-0.0680627 0.086246 6.39193e-20)
(-0.0723656 0.0868927 -9.27372e-20)
(-0.0761503 0.0872897 -7.9034e-20)
(-0.0794199 0.0875614 1.90584e-19)
(-0.0821845 0.0878145 -4.69073e-20)
(-0.0844604 0.0881418 -5.71696e-20)
(-0.0862708 0.0886253 -8.03217e-20)
(-0.0876457 0.0893379 -6.27105e-20)
(-0.0886203 0.0903451 -8.05726e-20)
(-0.0892392 0.0917047 -5.31568e-20)
(-0.0895802 0.0934602 2.20784e-19)
(-0.0897451 0.0956428 -1.08959e-19)
(-0.0896018 0.0983322 7.35986e-20)
(-0.0886222 0.101696 -1.97554e-19)
(-0.088428 0.105346 7.9326e-20)
(-0.00422096 0.0130041 -9.24961e-20)
(-0.0116721 0.0332713 -2.41555e-20)
(-0.0190108 0.0490236 -1.88125e-19)
(-0.0260528 0.0612159 -9.02159e-20)
(-0.0327137 0.0705492 -1.77987e-19)
(-0.0389488 0.0775846 -1.86084e-20)
(-0.0447095 0.0827859 9.55083e-20)
(-0.0499543 0.0865358 -5.82789e-20)
(-0.0546529 0.089152 1.25777e-19)
(-0.0587843 0.0908991 -3.06038e-19)
(-0.0623355 0.0919981 -9.11897e-21)
(-0.0653007 0.0926345 5.44555e-20)
(-0.0676795 0.0929657 -6.91834e-20)
(-0.0694773 0.0931262 6.34719e-20)
(-0.0707044 0.093233 -4.82654e-20)
(-0.0713769 0.0933901 -1.04229e-19)
(-0.0715174 0.0936914 1.91015e-19)
(-0.071156 0.0942235 1.1916e-19)
(-0.0703294 0.0950678 -2.43271e-20)
(-0.0690857 0.0963001 7.94027e-20)
(-0.0675083 0.0979842 -1.56593e-19)
(-0.0657158 0.100172 2.27201e-19)
(-0.0636049 0.102972 -3.10822e-19)
(-0.0606251 0.106611 6.40684e-20)
(-0.0583555 0.110694 -1.25486e-19)
(-0.00470501 0.0133362 5.04067e-21)
(-0.0127373 0.0343221 -8.2708e-20)
(-0.020177 0.0507969 1.22005e-19)
(-0.0269867 0.0636494 2.50158e-19)
(-0.0331601 0.0735532 -4.16861e-21)
(-0.0387013 0.0810605 2.83253e-20)
(-0.0436007 0.0866332 -1.07252e-19)
(-0.0478473 0.0906581 5.01061e-20)
(-0.0514335 0.0934589 3.46763e-19)
(-0.0543551 0.0953074 -7.86661e-20)
(-0.0566113 0.0964324 -9.34285e-20)
(-0.0582045 0.0970274 3.53137e-19)
(-0.0591397 0.0972573 1.15917e-19)
(-0.0594251 0.0972645 5.5488e-20)
(-0.0590721 0.0971748 5.67394e-20)
(-0.0580968 0.0971014 1.54739e-19)
(-0.0565211 0.0971496 -5.99963e-20)
(-0.0543745 0.0974195 1.58285e-19)
(-0.0516951 0.0980095 2.15354e-19)
(-0.0485336 0.0990166 -1.84556e-19)
(-0.0449797 0.100529 2.75362e-19)
(-0.0411694 0.102627 9.92844e-20)
(-0.0370339 0.105457 -3.76278e-19)
(-0.032012 0.109321 5.45788e-19)
(-0.0276379 0.113838 -4.45483e-19)
(-0.0051602 0.0134785 -2.36939e-19)
(-0.0137623 0.0348937 1.28617e-19)
(-0.021329 0.0518692 -8.63324e-20)
(-0.0279434 0.0652105 -8.18924e-20)
(-0.033666 0.0755531 -8.84912e-20)
(-0.0385438 0.0834307 -9.60041e-20)
(-0.0426043 0.0892972 2.6242e-20)
(-0.0458665 0.0935367 2.50623e-19)
(-0.0483459 0.0964741 -5.35152e-20)
(-0.0500565 0.0983843 -1.39986e-19)
(-0.0510111 0.0994997 -8.5664e-20)
(-0.0512217 0.100018 -3.5145e-20)
(-0.0507002 0.10011 1.04293e-19)
(-0.0494585 0.0999209 -6.65365e-20)
(-0.0475099 0.0995839 -2.18501e-19)
(-0.0448704 0.0992192 -2.42167e-19)
(-0.0415609 0.0989413 9.66063e-20)
(-0.03761 0.0988632 -1.8097e-19)
(-0.0330555 0.0991002 1.58034e-19)
(-0.0279502 0.0997723 -4.46607e-19)
(-0.0223893 0.100998 3.44942e-19)
(-0.0165263 0.102892 -4.58168e-19)
(-0.0103319 0.10565 -9.30589e-21)
(-0.00324983 0.109668 -1.56707e-19)
(0.00322552 0.114612 4.59197e-19)
(-0.00558098 0.0134562 3.63681e-19)
(-0.0147344 0.0350354 5.3196e-20)
(-0.0224545 0.0522952 -3.49758e-20)
(-0.0289158 0.0659491 -1.47085e-20)
(-0.0342322 0.076588 2.73815e-19)
(-0.0384881 0.0847222 8.91007e-20)
(-0.0417451 0.0907919 8.08343e-20)
(-0.044051 0.0951741 -6.49528e-20)
(-0.0454449 0.0981905 2.50875e-19)
(-0.0459599 0.100115 -1.23677e-19)
(-0.0456237 0.10118 7.96005e-20)
(-0.0444597 0.101585 2.03238e-19)
(-0.0424874 0.1015 -1.15713e-19)
(-0.039724 0.101075 1.25412e-19)
(-0.0361852 0.100443 1.18659e-19)
(-0.0318872 0.0997293 4.07619e-20)
(-0.0268495 0.0990548 -1.01472e-19)
(-0.0210985 0.0985426 2.79703e-19)
(-0.0146705 0.098324 -2.63518e-20)
(-0.00761847 0.0985425 -3.12079e-20)
(-4.15725e-05 0.0993497 3.39052e-19)
(0.00788973 0.100903 -2.43026e-19)
(0.0161616 0.103462 4.10033e-19)
(0.0253073 0.107538 -3.42567e-19)
(0.0338559 0.112883 4.37254e-19)
(-0.00596594 0.0132984 -1.76007e-19)
(-0.015648 0.0348068 3.88092e-20)
(-0.0235466 0.0521447 -4.05796e-20)
(-0.029898 0.0659341 -1.91429e-19)
(-0.0348558 0.0767201 1.11466e-20)
(-0.0385362 0.0849869 1.08898e-19)
(-0.0410312 0.0911582 -4.43084e-19)
(-0.0424163 0.0956009 3.30891e-19)
(-0.0427545 0.0986304 -3.22283e-19)
(-0.0420983 0.100516 -2.03716e-19)
(-0.0404916 0.101488 1.82677e-19)
(-0.0379704 0.101742 -3.96498e-19)
(-0.0345635 0.101446 3.34282e-19)
(-0.0302943 0.100748 -1.06373e-19)
(-0.0251816 0.0997811 -3.05429e-19)
(-0.0192423 0.0986696 7.57744e-20)
(-0.0124943 0.0975369 -7.12627e-20)
(-0.00496061 0.0965123 2.74632e-20)
(0.00332593 0.0957394 -9.64541e-20)
(0.0123145 0.0953835 -3.22476e-19)
(0.0219044 0.0956311 7.21314e-20)
(0.03191 0.0966898 -5.75311e-22)
(0.042272 0.0988945 -3.36932e-19)
(0.0534813 0.102901 2.36511e-19)
(0.0640609 0.108595 -2.04342e-19)
(-0.00631769 0.0130365 7.13292e-20)
(-0.0165045 0.0342739 1.30911e-19)
(-0.0246034 0.0514987 1.82704e-19)
(-0.0308841 0.0652498 9.38949e-20)
(-0.0355275 0.0760302 -9.20427e-20)
(-0.0386759 0.0842988 2.19475e-19)
(-0.0404486 0.0904623 1.6244e-19)
(-0.0409472 0.0948758 -5.91588e-20)
(-0.040258 0.0978461 2.1139e-19)
(-0.0384537 0.0996362 -2.17518e-19)
(-0.0355953 0.10047 -6.40273e-20)
(-0.0317321 0.100538 6.48798e-20)
(-0.0269038 0.100003 1.28541e-19)
(-0.0211408 0.0990082 1.59882e-21)
(-0.0144664 0.0976803 8.18105e-20)
(-0.00689874 0.0961395 1.51991e-19)
(0.00154602 0.0945062 -2.59278e-19)
(0.0108488 0.0929101 3.23079e-19)
(0.020982 0.0915013 1.09603e-19)
(0.0318996 0.090462 3.94969e-20)
(0.0435023 0.0900113 -3.96023e-19)
(0.0555923 0.0904107 5.56174e-20)
(0.0680639 0.0920846 8.75589e-20)
(0.0813472 0.0958617 -2.1707e-20)
(0.0939157 0.10182 1.00805e-19)
(-0.00664235 0.0127021 5.45362e-21)
(-0.0173106 0.0335051 -3.37024e-19)
(-0.0256258 0.0504438 -8.40227e-21)
(-0.0318658 0.0639904 -8.47701e-20)
(-0.0362287 0.0746134 -5.56247e-19)
(-0.0388773 0.0827503 4.79981e-19)
(-0.0399558 0.0887923 -3.41415e-19)
(-0.0395901 0.0930827 -1.73705e-20)
(-0.0378891 0.0959191 -1.61366e-19)
(-0.0349459 0.097556 2.79081e-19)
(-0.0308384 0.0982101 -3.00613e-19)
(-0.0256308 0.0980643 -1.4094e-19)
(-0.0193739 0.0972741 2.56835e-21)
(-0.0121068 0.0959734 -3.0615e-19)
(-0.00385832 0.0942804 4.18143e-19)
(0.00535121 0.092306 -4.86045e-19)
(0.0155064 0.0901616 6.85704e-22)
(0.0265919 0.0879702 7.44819e-20)
(0.0385864 0.0858798 -1.88388e-19)
(0.0514504 0.0840811 1.83934e-19)
(0.0650888 0.0828187 -2.60412e-19)
(0.0792949 0.0824056 -1.73414e-19)
(0.0939181 0.083365 3.24235e-19)
(0.109312 0.0867297 -3.54933e-19)
(0.123847 0.0928375 -6.94387e-21)
(-0.00694877 0.012325 -2.85751e-19)
(-0.0180773 0.0325668 3.27121e-19)
(-0.0266154 0.0490676 -1.00936e-19)
(-0.03283 0.0622547 1.93695e-19)
(-0.0369275 0.072574 2.087e-19)
(-0.0390884 0.0804477 -1.83756e-19)
(-0.0394786 0.0862547 -1.21517e-19)
(-0.0382468 0.0903283 -1.45683e-19)
(-0.0355235 0.092957 1.33393e-19)
(-0.0314213 0.0943869 -9.17362e-21)
(-0.0260354 0.0948264 1.94588e-19)
(-0.0194445 0.0944498 1.91973e-19)
(-0.0117114 0.0934035 -2.29985e-19)
(-0.00288486 0.0918108 4.51705e-19)
(0.0069996 0.0897784 -3.00391e-19)
(0.0179174 0.0874037 -5.15701e-20)
(0.0298521 0.0847838 5.87802e-19)
(0.0427905 0.0820269 -2.72466e-19)
(0.0567161 0.0792692 1.74891e-19)
(0.071596 0.076697 3.42738e-19)
(0.0873407 0.074567 -2.22561e-19)
(0.103737 0.0732335 2.33732e-20)
(0.120592 0.0733181 -1.59034e-20)
(0.138176 0.0760854 -9.27427e-20)
(0.154695 0.0822052 1.71844e-19)
(-0.00724738 0.0119319 6.53536e-20)
(-0.0188165 0.03152 -2.06686e-19)
(-0.0275714 0.0474534 1.12945e-19)
(-0.0337546 0.0601409 -1.47099e-21)
(-0.0375758 0.0700201 8.48152e-20)
(-0.0392308 0.0775057 -1.45714e-19)
(-0.0389052 0.0829694 8.33391e-20)
(-0.0367688 0.0867373 2.27033e-19)
(-0.0329722 0.0890902 -7.08579e-21)
(-0.0276462 0.0902668 -1.15882e-19)
(-0.0209023 0.0904673 1.16303e-19)
(-0.0128332 0.0898577 -2.65242e-21)
(-0.00351388 0.088575 -3.70016e-19)
(0.00699668 0.0867316 1.37012e-19)
(0.0186545 0.0844214 3.00719e-20)
(0.0314283 0.0817264 -5.34043e-20)
(0.0452972 0.0787249 -9.66476e-20)
(0.0602458 0.075504 3.68185e-19)
(0.076258 0.0721773 9.01471e-20)
(0.0933041 0.0689117 -1.93822e-19)
(0.111298 0.0659568 -2.38666e-20)
(0.130021 0.0636863 2.69627e-19)
(0.149239 0.0628053 -1.25811e-19)
(0.169144 0.0648266 5.47169e-20)
(0.187728 0.0708241 3.56582e-20)
(-0.00754891 0.0115446 -1.30479e-19)
(-0.0195392 0.0304169 1.29572e-19)
(-0.0284873 0.0456761 -7.27588e-20)
(-0.0346054 0.0577414 -2.33379e-19)
(-0.038105 0.0670578 -2.14679e-19)
(-0.0391962 0.074042 -9.45482e-20)
(-0.038083 0.0790645 -7.85614e-20)
(-0.0349542 0.0824475 -2.31906e-19)
(-0.0299786 0.0844669 -9.38657e-20)
(-0.0233033 0.0853555 8.57499e-20)
(-0.0150543 0.0853068 -1.22062e-19)
(-0.00533716 0.08448 -1.28528e-19)
(0.00576139 0.0830038 -1.20889e-19)
(0.0181717 0.0809812 2.20376e-19)
(0.0318395 0.0784942 -4.62469e-19)
(0.0467234 0.0756096 2.65365e-19)
(0.0627926 0.0723863 -4.53694e-19)
(0.0800223 0.0688859 -7.01217e-20)
(0.0983884 0.0651915 -2.51053e-19)
(0.117855 0.0614358 -5.89165e-20)
(0.138332 0.0578378 -7.1827e-20)
(0.159591 0.0547583 -2.41662e-19)
(0.181359 0.0529501 -2.70443e-20)
(0.203767 0.0541685 1.49456e-19)
(0.224572 0.0599521 -3.852e-19)
(-0.00786286 0.011179 1.11922e-19)
(-0.0202517 0.0292979 1.46015e-19)
(-0.0293468 0.043798 5.09803e-19)
(-0.0353324 0.0551382 -8.93099e-20)
(-0.0384232 0.0637868 2.1251e-19)
(-0.038844 0.0701724 5.05591e-19)
(-0.0368166 0.0746705 -1.37745e-19)
(-0.0325468 0.0776041 1.8623e-19)
(-0.0262191 0.0792471 1.08384e-19)
(-0.0179946 0.0798286 1.96616e-19)
(-0.00801132 0.0795381 -3.9144e-20)
(0.00361388 0.0785298 2.67188e-20)
(0.0167835 0.0769271 -6.91956e-20)
(0.0314166 0.0748265 3.72698e-19)
(0.0474462 0.0723015 4.74866e-20)
(0.0648162 0.0694071 3.46825e-19)
(0.0834786 0.0661852 -8.90367e-20)
(0.103389 0.0626735 3.19057e-19)
(0.124501 0.0589212 4.52726e-20)
(0.146758 0.0550168 1.63371e-19)
(0.17005 0.0511268 -7.08411e-20)
(0.194127 0.0475596 -1.37046e-20)
(0.218675 0.0450573 3.92461e-19)
(0.243799 0.0455783 2.43463e-19)
(0.267056 0.051157 -1.00417e-19)
(-0.008196 0.0108445 -2.70288e-19)
(-0.0209527 0.0281899 -2.73098e-19)
(-0.0301213 0.0418663 -2.85039e-19)
(-0.035867 0.0523991 1.04522e-19)
(-0.0384129 0.0602955 -2.09468e-19)
(-0.0380008 0.0660054 -3.1169e-20)
(-0.0348692 0.0699156 -8.20862e-20)
(-0.0292395 0.0723544 -3.39995e-19)
(-0.0213094 0.0735968 -5.30372e-20)
(-0.0112511 0.0738713 8.70024e-20)
(0.000787418 0.0733659 -2.72825e-19)
(0.01468 0.0722329 3.78465e-19)
(0.0303188 0.0705937 -5.13861e-19)
(0.0476105 0.0685427 1.23845e-19)
(0.0664722 0.0661498 -3.14886e-19)
(0.0868273 0.0634644 -2.56195e-19)
(0.108601 0.0605183 -1.48103e-20)
(0.131716 0.0573319 -3.91205e-20)
(0.156086 0.0539257 3.03874e-20)
(0.181612 0.050343 -1.48061e-19)
(0.208142 0.046685 -1.02754e-19)
(0.235382 0.0431709 1.27029e-19)
(0.262963 0.0404572 -3.52608e-19)
(0.291008 0.04062 1.14848e-19)
(0.317004 0.0461741 8.33979e-20)
(-0.00855097 0.0105433 -4.77503e-20)
(-0.0216308 0.0271057 -7.88679e-20)
(-0.0307662 0.0399114 3.07669e-19)
(-0.03612 0.0495758 1.14123e-19)
(-0.037931 0.0566581 1.50821e-19)
(-0.0364609 0.0616381 -2.01318e-19)
(-0.0319658 0.0649202 5.49444e-22)
(-0.024681 0.0668416 -1.62392e-19)
(-0.0148152 0.0676819 3.00111e-19)
(-0.00254952 0.0676716 9.78927e-20)
(0.01196 0.0669997 1.09856e-19)
(0.0285785 0.0658197 -4.36106e-19)
(0.0471873 0.0642546 5.38239e-19)
(0.0676784 0.0624009 -1.61339e-19)
(0.0899483 0.0603311 -1.15604e-19)
(0.113892 0.0580963 3.47237e-19)
(0.139398 0.0557283 1.55657e-19)
(0.166341 0.0532423 -3.939e-19)
(0.194577 0.0506431 -1.65568e-19)
(0.223936 0.0479413 4.99646e-19)
(0.254195 0.0451764 -3.83278e-19)
(0.284988 0.0424583 2.31143e-19)
(0.315862 0.0402795 1.30292e-19)
(0.346985 0.0407031 -1.677e-19)
(0.376024 0.0466621 -1.61565e-19)
(-0.00892511 0.0102709 -1.75355e-19)
(-0.0222622 0.0260437 2.72737e-19)
(-0.03122 0.0379466 1.15983e-19)
(-0.0359806 0.0467022 -1.67344e-19)
(-0.0368087 0.0529322 -2.67769e-20)
(-0.0339903 0.0571539 -1.74839e-19)
(-0.0277999 0.0597934 -6.94371e-20)
(-0.0184864 0.0612009 7.80605e-20)
(-0.00626828 0.061663 -1.96241e-20)
(0.00866532 0.0614143 1.46739e-19)
(0.0261504 0.0606471 -1.27453e-19)
(0.0460422 0.0595182 3.52934e-19)
(0.0682085 0.0581548 -4.37518e-19)
(0.0925215 0.0566591 2.72853e-19)
(0.118851 0.0551112 3.39554e-19)
(0.147055 0.0535714 -4.9135e-19)
(0.176974 0.0520821 -1.49881e-19)
(0.20842 0.0506688 2.53139e-19)
(0.24117 0.0493424 -1.56431e-19)
(0.27496 0.0481072 1.52163e-19)
(0.309463 0.0469704 -3.69062e-19)
(0.344198 0.0459471 6.1317e-20)
(0.378578 0.0453186 2.42885e-19)
(0.412808 0.047006 -3.92427e-19)
(0.445103 0.0542828 1.03453e-19)
(-0.00930966 0.0100171 -1.61666e-19)
(-0.0228094 0.0249897 5.07203e-19)
(-0.0314029 0.035969 9.7194e-20)
(-0.0353173 0.0437947 -2.62479e-19)
(-0.0348551 0.0491584 1.87943e-19)
(-0.0303319 0.0526197 9.54696e-20)
(-0.0220429 0.0546305 1.51892e-19)
(-0.0102514 0.0555559 -9.89446e-21)
(0.00481349 0.0556912 -1.59248e-20)
(0.022953 0.0552768 -3.32311e-20)
(0.0439922 0.054509 -1.44272e-19)
(0.0677721 0.0535485 -4.85823e-21)
(0.0941401 0.0525278 3.36764e-19)
(0.122942 0.0515556 -5.52833e-19)
(0.15401 0.0507219 3.93355e-19)
(0.187159 0.0501008 7.97099e-20)
(0.222169 0.0497536 1.41149e-19)
(0.258784 0.0497317 -7.34705e-20)
(0.296692 0.0500789 6.49761e-19)
(0.335517 0.0508378 -4.03307e-19)
(0.374791 0.0520494 3.23978e-19)
(0.413854 0.053723 7.69473e-20)
(0.451869 0.056029 -2.39658e-19)
(0.488907 0.0608239 2.03653e-19)
(0.524011 0.071573 3.15196e-19)
(-0.00968944 0.00976674 -4.66646e-20)
(-0.023221 0.0239189 -1.78709e-19)
(-0.0312176 0.0339618 -3.05006e-19)
(-0.0339798 0.0408543 -1.73379e-19)
(-0.0318609 0.0453611 -2.42324e-20)
(-0.0252124 0.0480872 -6.82472e-20)
(-0.0143542 0.0495119 -3.16425e-19)
(0.000432622 0.0500166 5.26223e-20)
(0.0189045 0.049906 -3.5477e-19)
(0.0408479 0.0494259 -2.74945e-20)
(0.0660698 0.0487759 -3.3985e-19)
(0.0943871 0.0481197 -1.20955e-19)
(0.125616 0.0475921 6.94691e-20)
(0.159563 0.047306 -3.30605e-19)
(0.196015 0.0473576 2.94766e-21)
(0.234728 0.0478317 -2.85476e-19)
(0.275427 0.0488073 1.10541e-19)
(0.317789 0.0503653 -3.99999e-19)
(0.36144 0.0525976 -6.89782e-20)
(0.405939 0.055623 -9.31043e-21)
(0.450737 0.0595965 -6.80272e-20)
(0.495063 0.0646951 -6.93943e-20)
(0.537839 0.0713556 -3.3967e-20)
(0.578442 0.0818211 -1.39559e-19)
(0.615024 0.0989668 -2.98964e-19)
(-0.0100431 0.00950153 8.59509e-20)
(-0.0234323 0.0227993 2.26128e-19)
(-0.0305509 0.0318978 2.71409e-19)
(-0.031802 0.0378696 -2.16544e-19)
(-0.0276034 0.0415514 4.01751e-19)
(-0.0183501 0.0435942 -2.17769e-19)
(-0.00439344 0.0445048 1.18278e-19)
(0.0139618 0.0446805 1.8416e-19)
(0.0364495 0.0444347 1.67289e-19)
(0.062831 0.0440171 8.13227e-20)
(0.0928818 0.0436281 1.31313e-19)
(0.126379 0.0434298 7.63527e-20)
(0.163091 0.0435541 5.1593e-19)
(0.202764 0.04411 -3.75001e-19)
(0.245121 0.045189 4.28536e-19)
(0.28985 0.0468721 -1.78199e-19)
(0.336609 0.0492366 3.85453e-19)
(0.385023 0.0523667 -1.78393e-20)
(0.434694 0.0563683 -7.995e-20)
(0.485206 0.0613933 -1.43287e-20)
(0.536142 0.0676719 3.0452e-19)
(0.587091 0.0755883 -2.96766e-19)
(0.637844 0.0861098 2.09714e-19)
(0.688658 0.10161 2.30485e-19)
(0.734032 0.119602 4.65104e-20)
(-0.0103437 0.00920185 5.93933e-20)
(-0.0233667 0.021595 -3.22725e-19)
(-0.0292761 0.0297441 -1.17193e-19)
(-0.0286056 0.0348216 1.07062e-19)
(-0.021852 0.0377316 -3.29096e-19)
(-0.00946338 0.0391691 -6.46878e-20)
(0.00816889 0.0396668 4.49215e-20)
(0.0307052 0.039636 1.77278e-19)
(0.0578439 0.0393963 -4.4861e-19)
(0.0893045 0.0391981 3.40707e-20)
(0.124811 0.0392381 -1.31015e-19)
(0.164078 0.0396705 -3.97958e-19)
(0.206798 0.0406157 2.71126e-19)
(0.252634 0.0421671 1.16209e-20)
(0.301213 0.0443965 -8.18033e-21)
(0.352133 0.0473597 2.73874e-19)
(0.404959 0.051103 -4.84365e-19)
(0.45924 0.0556694 3.83995e-19)
(0.514523 0.0611072 -7.10084e-20)
(0.570378 0.0674793 2.23952e-19)
(0.626424 0.0748698 -3.68718e-19)
(0.682369 0.0833992 2.11039e-19)
(0.738176 0.0934137 -3.75844e-19)
(0.794312 0.105864 3.84388e-19)
(0.845419 0.117768 -1.2072e-19)
(-0.0105594 0.00884848 3.97378e-19)
(-0.0229376 0.0202707 -6.45502e-20)
(-0.0272557 0.0274667 4.76834e-19)
(-0.0242043 0.0316894 2.20625e-19)
(-0.0143738 0.0339012 1.77303e-20)
(0.00172283 0.0348371 9.6145e-20)
(0.0236414 0.035052 2.32592e-20)
(0.0509919 0.0349674 3.90995e-19)
(0.0834178 0.0349055 1.25837e-19)
(0.120573 0.0351124 -1.68565e-20)
(0.162104 0.0357742 3.37892e-20)
(0.20763 0.0370295 1.30001e-19)
(0.256737 0.0389766 1.08481e-19)
(0.308969 0.0416809 2.32196e-19)
(0.363831 0.0451797 -2.64515e-19)
(0.420792 0.0494868 7.99543e-20)
(0.4793 0.0545976 2.43274e-20)
(0.538795 0.0604928 1.18407e-19)
(0.598733 0.0671421 3.20696e-19)
(0.658607 0.0745056 -2.09651e-19)
(0.717976 0.0825287 1.76023e-20)
(0.776483 0.0911316 -2.94048e-19)
(0.833921 0.100287 2.76864e-19)
(0.890428 0.11045 -2.64547e-19)
(0.941604 0.120213 2.70832e-20)
(-0.010655 0.00842449 -3.31264e-19)
(-0.0220511 0.0187952 2.53216e-19)
(-0.0243449 0.0250368 -4.11854e-19)
(-0.0184074 0.0284567 3.54873e-20)
(-0.00493847 0.0300642 2.89393e-19)
(0.0154701 0.0306276 -4.81735e-19)
(0.0423036 0.0307184 3.81827e-19)
(0.0751005 0.0307631 -6.05369e-19)
(0.113423 0.0310803 1.2059e-19)
(0.15683 0.0319046 2.57446e-20)
(0.204853 0.0334036 2.03096e-19)
(0.256983 0.0356897 -6.74695e-19)
(0.312662 0.0388278 1.16472e-19)
(0.371282 0.0428427 1.23384e-19)
(0.432191 0.0477238 -7.39905e-20)
(0.49471 0.0534308 -4.58936e-19)
(0.558146 0.0598976 2.16131e-19)
(0.621819 0.0670369 4.04081e-19)
(0.685082 0.0747423 -4.25848e-19)
(0.747344 0.0828893 3.085e-19)
(0.808095 0.0913307 -3.98338e-19)
(0.866909 0.0998855 2.89104e-19)
(0.92346 0.108377 -7.8932e-20)
(0.977677 0.117082 4.5093e-19)
(1.02637 0.125876 -5.0893e-19)
(-0.0105931 0.00791658 4.72865e-20)
(-0.0206081 0.0171453 3.73454e-20)
(-0.0203941 0.0224351 9.12983e-20)
(-0.0110236 0.0251184 3.26032e-19)
(0.00667769 0.0262364 -1.02241e-20)
(0.0320211 0.0265825 7.27925e-20)
(0.064399 0.0267366 3.23804e-19)
(0.103251 0.0271229 1.30592e-19)
(0.148024 0.0280479 -4.29899e-20)
(0.198144 0.0297255 3.65995e-19)
(0.25299 0.0322937 -4.16628e-19)
(0.311884 0.0358265 6.39119e-19)
(0.374088 0.0403427 -2.53547e-19)
(0.43881 0.0458138 4.60141e-19)
(0.505223 0.0521702 -1.55365e-19)
(0.572484 0.0593085 5.66617e-20)
(0.639765 0.0670976 6.86355e-20)
(0.706275 0.0753849 -1.3231e-19)
(0.771287 0.0840006 1.10889e-19)
(0.834163 0.0927617 7.12996e-20)
(0.894367 0.101471 9.79344e-20)
(0.95147 0.109915 2.06119e-19)
(1.00514 0.11788 -1.84277e-20)
(1.05526 0.125542 -9.40062e-20)
(1.09985 0.133659 2.76432e-19)
(-0.0103347 0.00731606 -2.76584e-19)
(-0.0185068 0.0153087 2.92436e-20)
(-0.0152523 0.0196572 -5.25458e-19)
(-0.00186426 0.0216865 -1.25416e-19)
(0.0206871 0.0224528 -2.34822e-19)
(0.0515943 0.0227635 -5.03299e-20)
(0.0901284 0.0231972 -2.51299e-19)
(0.135594 0.024165 -1.50127e-19)
(0.187285 0.0259505 1.98767e-19)
(0.244451 0.0287344 -3.31669e-19)
(0.306276 0.0326113 -9.21077e-20)
(0.371872 0.0376027 3.61768e-21)
(0.44029 0.0436671 -6.22428e-19)
(0.510536 0.0507103 2.64571e-19)
(0.5816 0.0585945 -3.86151e-19)
(0.652489 0.0671488 -1.20124e-20)
(0.722259 0.0761785 7.59981e-20)
(0.79005 0.0854743 -1.23507e-19)
(0.85511 0.0948205 -1.08187e-19)
(0.916815 0.104001 5.36363e-20)
(0.974678 0.112806 5.96952e-20)
(1.02835 0.121026 -3.87043e-19)
(1.07759 0.128469 2.20427e-19)
(1.12237 0.135257 1.09552e-19)
(1.16167 0.142648 2.85207e-20)
(-0.00984044 0.0066195 2.82792e-19)
(-0.015644 0.0132856 -3.01582e-19)
(-0.00876902 0.0167166 4.23052e-19)
(0.009253 0.018195 6.59212e-20)
(0.0372867 0.018773 -2.01748e-20)
(0.0743779 0.0192586 -1.42086e-19)
(0.119642 0.0202162 2.13597e-20)
(0.172206 0.0220304 2.16066e-19)
(0.231166 0.0249473 -2.98021e-19)
(0.295547 0.0290984 3.1295e-19)
(0.364295 0.0345183 -3.30372e-20)
(0.436281 0.0411597 1.4547e-20)
(0.510325 0.0489066 4.06901e-19)
(0.585226 0.0575881 5.45107e-19)
(0.659807 0.0669923 -2.13297e-19)
(0.732958 0.0768807 3.78494e-19)
(0.803673 0.0870022 1.9192e-19)
(0.871086 0.0971049 -1.1749e-19)
(0.934492 0.106947 3.71166e-19)
(0.993361 0.116306 -1.47576e-20)
(1.04733 0.124983 -3.55459e-19)
(1.09622 0.132805 3.73812e-19)
(1.13995 0.139622 5.30056e-20)
(1.17864 0.145544 -2.29828e-19)
(1.21201 0.152042 7.19787e-20)
(-0.00907074 0.00582887 -3.93236e-19)
(-0.0119173 0.0110905 4.1105e-19)
(-0.000797597 0.0136475 -2.60754e-19)
(0.0225007 0.0147033 -8.12896e-20)
(0.0566522 0.015285 -1.82178e-19)
(0.100523 0.016185 3.22167e-19)
(0.153029 0.0179373 -1.87017e-19)
(0.213075 0.0208827 -8.57217e-20)
(0.279504 0.0252112 -2.45364e-19)
(0.351074 0.0309856 6.32738e-21)
(0.426454 0.0381616 -9.59601e-20)
(0.504253 0.0466057 4.67105e-20)
(0.583054 0.0561141 -4.91595e-19)
(0.661473 0.0664318 1.40073e-19)
(0.738207 0.0772718 -1.68968e-19)
(0.812087 0.0883348 -1.36033e-19)
(0.882119 0.0993263 4.18402e-20)
(0.947513 0.109971 -1.98215e-19)
(1.00769 0.120025 -8.47987e-20)
(1.0623 0.129283 2.44607e-19)
(1.11118 0.13758 1.03095e-19)
(1.15434 0.144796 -4.38389e-19)
(1.19194 0.150842 3.21483e-19)
(1.22428 0.155843 -6.069e-20)
(1.25156 0.161273 -1.24587e-19)
(-0.00798621 0.00495157 -1.43167e-19)
(-0.00722603 0.00875231 -7.65933e-20)
(0.00880248 0.0105056 -1.52486e-20)
(0.0380368 0.0112976 1.12203e-19)
(0.0789318 0.0121062 1.21985e-19)
(0.130133 0.0136893 1.06193e-19)
(0.190309 0.0165299 1.32135e-19)
(0.258087 0.0209037 2.01665e-19)
(0.332009 0.0269215 3.08235e-19)
(0.410519 0.034555 3.04931e-19)
(0.491988 0.0436602 1.60986e-19)
(0.574756 0.0540018 -4.32386e-20)
(0.657194 0.0652783 1.08108e-20)
(0.737778 0.0771485 -1.45814e-20)
(0.815146 0.0892569 1.27359e-19)
(0.888154 0.101257 -3.37868e-20)
(0.955909 0.112832 3.76686e-19)
(1.01778 0.123706 -1.68922e-19)
(1.07341 0.133659 2.54056e-21)
(1.12267 0.142523 1.18333e-19)
(1.16564 0.15019 -2.58537e-19)
(1.20258 0.156603 4.29123e-19)
(1.23387 0.161738 -3.47346e-19)
(1.26 0.165755 6.31057e-20)
(1.28146 0.170002 -2.23274e-19)
(-0.00654778 0.00400013 3.07102e-19)