/*--------------------------------*- C++ -*----------------------------------*\
  =========                 |
  \\      /  F ield         | OpenFOAM: The Open Source CFD Toolbox
   \\    /   O peration     | Website:  https://openfoam.org
    \\  /    A nd           | Version:  6.0
     \\/     M anipulation  |
\*---------------------------------------------------------------------------*/
FoamFile
{
    version     2.0;
    format      ascii;
    class       volVectorField;
    location    "94";
    object      U;
}
// * * * * * * * * * * * * * * * * * * * * * * * * * * * * * * * * * * * * * //

dimensions      [0 1 -1 0 0 0 0];

internalField   nonuniform List<vector> 
12500
(
(-0.000868311 -0.0114875 -1.47182e-21)
(-0.00522708 -0.0164092 1.97846e-20)
(-0.0132941 -0.00883936 -2.87893e-20)
(-0.0231168 0.00703516 1.32839e-20)
(-0.0337422 0.0280876 8.45106e-22)
(-0.0446551 0.0521021 -1.73543e-21)
(-0.0554715 0.0775753 -2.44728e-20)
(-0.0659071 0.10353 1.35067e-20)
(-0.0757502 0.129356 8.84942e-21)
(-0.0848386 0.154673 9.09153e-21)
(-0.0930489 0.179234 -1.53455e-20)
(-0.100291 0.202859 8.97622e-21)
(-0.106508 0.225396 -4.21882e-21)
(-0.111667 0.246705 7.13387e-21)
(-0.115767 0.266663 -1.82471e-20)
(-0.118824 0.285166 2.66032e-20)
(-0.120878 0.302146 -5.21395e-21)
(-0.121981 0.317579 -1.86472e-20)
(-0.122197 0.3315 9.42234e-21)
(-0.121598 0.344008 -8.97852e-21)
(-0.120273 0.355269 8.1137e-21)
(-0.118312 0.365523 1.08552e-20)
(-0.115677 0.375082 9.92182e-22)
(-0.112224 0.38437 -3.07084e-20)
(-0.108896 0.393954 1.72284e-20)
(-0.000510598 -0.00924731 2.45663e-20)
(-0.00438591 -0.0111645 -6.63333e-20)
(-0.01189 -0.00164523 1.99121e-20)
(-0.0211329 0.0154589 1.32389e-20)
(-0.031162 0.0372318 -1.0656e-20)
(-0.0414496 0.0615909 -6.03026e-20)
(-0.0516086 0.0871154 1.81001e-20)
(-0.0613563 0.112879 -3.38684e-20)
(-0.070485 0.138304 4.07739e-20)
(-0.0788375 0.163035 -5.46816e-20)
(-0.0862959 0.186853 2.94051e-20)
(-0.0927764 0.209601 9.15839e-21)
(-0.0982265 0.231158 -2.38859e-20)
(-0.102623 0.251413 -1.07123e-20)
(-0.105969 0.270271 7.74146e-20)
(-0.108291 0.287655 -6.82986e-20)
(-0.109635 0.303521 1.62138e-20)
(-0.11006 0.317865 2.82555e-20)
(-0.109634 0.330737 -6.81733e-21)
(-0.108434 0.342244 4.5926e-20)
(-0.106552 0.35256 7.98233e-21)
(-0.104082 0.36193 -2.69329e-21)
(-0.100971 0.370675 -5.71612e-20)
(-0.0969901 0.379236 5.25903e-20)
(-0.0932492 0.388165 -1.05736e-19)
(-0.000259133 -0.00726354 7.76527e-20)
(-0.00375741 -0.00655085 2.72196e-20)
(-0.01071 0.0046493 -3.51954e-20)
(-0.0193273 0.0227853 1.4949e-20)
(-0.0286756 0.045135 1.46838e-20)
(-0.0382248 0.0697372 5.50135e-20)
(-0.0475918 0.0952448 -6.97295e-20)
(-0.056501 0.120775 -1.07806e-20)
(-0.0647524 0.145778 -4.6587e-20)
(-0.0721972 0.169921 -3.90218e-20)
(-0.0787258 0.193005 5.13492e-20)
(-0.0842619 0.214901 -1.70143e-19)
(-0.0887599 0.235514 -4.71328e-21)
(-0.0922031 0.254764 -1.01675e-19)
(-0.0946012 0.272584 -1.17832e-20)
(-0.0959865 0.288925 1.49349e-20)
(-0.09641 0.303764 -7.85091e-20)
(-0.0959367 0.317115 -4.90004e-20)
(-0.0946389 0.329038 -5.84218e-20)
(-0.0925945 0.339647 9.20191e-20)
(-0.0898992 0.349117 3.37292e-20)
(-0.086655 0.357691 -1.47395e-19)
(-0.0827968 0.365701 -7.10246e-20)
(-0.0780213 0.373606 -7.85432e-20)
(-0.0735628 0.38194 2.26555e-19)
(-9.43601e-05 -0.00556229 -3.11353e-21)
(-0.00331212 -0.00262523 -6.2144e-20)
(-0.00974531 0.00996616 -2.86959e-20)
(-0.0177262 0.0289222 1.76791e-20)
(-0.0263517 0.0516942 1.15793e-19)
(-0.0350956 0.07643 -5.30756e-20)
(-0.0435833 0.101848 1.1221e-19)
(-0.0515497 0.127101 1.0641e-19)
(-0.0588061 0.151662 6.52811e-20)
(-0.0652151 0.175216 -1.27982e-21)
(-0.0706774 0.197583 1.31601e-19)
(-0.0751263 0.218656 2.25118e-20)
(-0.0785242 0.238366 1.0022e-19)
(-0.0808612 0.256662 2.29055e-19)
(-0.0821526 0.273507 -2.6575e-19)
(-0.0824358 0.288875 3.98749e-19)
(-0.0817659 0.302766 8.63527e-20)
(-0.0802116 0.315208 -1.8982e-19)
(-0.0778483 0.32627 -2.73192e-20)
(-0.0747558 0.336069 7.02886e-20)
(-0.0710323 0.344779 -3.3968e-20)
(-0.0667883 0.352637 -1.93797e-20)
(-0.0619569 0.359982 -1.93542e-20)
(-0.056165 0.367298 -7.99291e-20)
(-0.0507315 0.375104 2.98641e-19)
(4.36632e-06 -0.0041525 3.92224e-20)
(-0.00301748 0.000590189 -1.90992e-19)
(-0.00898196 0.0142722 2.32175e-19)
(-0.0163494 0.033825 -9.34441e-20)
(-0.0242512 0.0568531 1.11079e-19)
(-0.0321681 0.0816019 8.99251e-20)
(-0.0397362 0.106846 3.41374e-20)
(-0.0467026 0.131771 1.60061e-22)
(-0.052892 0.155866 1.94163e-19)
(-0.0581805 0.178828 1.33466e-19)
(-0.0624816 0.200492 -5.52378e-20)
(-0.06574 0.220771 -3.50263e-20)
(-0.0679274 0.239618 1.45962e-19)
(-0.0690414 0.257011 2.78429e-20)
(-0.0691031 0.272936 7.34102e-20)
(-0.068154 0.287394 1.78084e-19)
(-0.0662529 0.300404 -1.56274e-19)
(-0.063471 0.312009 1.27006e-19)
(-0.0598863 0.322285 -2.68772e-19)
(-0.0555804 0.33135 2.25795e-19)
(-0.0506541 0.339372 1.05004e-21)
(-0.0452272 0.346584 -1.7807e-19)
(-0.0392388 0.353327 7.36293e-20)
(-0.0322554 0.360119 1.64495e-19)
(-0.0256415 0.367467 -2.54375e-19)
(5.6659e-05 -0.00302681 2.00437e-19)
(-0.00284173 0.00310921 -2.20603e-19)
(-0.00840442 0.0175787 -3.71596e-20)
(-0.0152117 0.0374969 4.4469e-20)
(-0.0224275 0.0606029 -9.87239e-20)
(-0.0295388 0.0852295 -1.55269e-19)
(-0.0361921 0.110202 -1.28213e-19)
(-0.0421471 0.134733 -3.10321e-20)
(-0.0472426 0.158323 -2.23265e-19)
(-0.0513696 0.18068 1.73572e-19)
(-0.0544562 0.201649 -2.74633e-19)
(-0.0564601 0.221157 1.37246e-19)
(-0.057364 0.239177 -4.81152e-20)
(-0.0571739 0.255708 1.06593e-19)
(-0.0559171 0.270763 -2.6739e-19)
(-0.0536396 0.284364 1.26476e-19)
(-0.0504031 0.296549 7.96241e-21)
(-0.0462813 0.307375 5.7292e-20)
(-0.0413541 0.316925 3.44346e-19)
(-0.0357055 0.325316 7.39494e-20)
(-0.0294385 0.332712 -8.53095e-21)
(-0.0226831 0.339338 2.13884e-20)
(-0.0153922 0.345536 1.43482e-19)
(-0.00708323 0.351864 3.96429e-20)
(0.000869846 0.358831 1.39542e-19)
(7.91608e-05 -0.00216389 -1.251e-19)
(-0.00275755 0.0049765 1.83905e-19)
(-0.00799916 0.0199375 1.11101e-20)
(-0.0143263 0.039986 -2.25827e-19)
(-0.0209278 0.0629806 4.72823e-19)
(-0.0272939 0.0873339 -1.54461e-19)
(-0.0330789 0.111918 2.23878e-19)
(-0.0380541 0.13597 2.05958e-19)
(-0.042072 0.159001 -1.71552e-19)
(-0.045039 0.180724 -2.48379e-19)
(-0.0468987 0.20099 6.77797e-20)
(-0.0476232 0.219736 -7.10836e-20)
(-0.0472075 0.236952 -3.15959e-19)
(-0.0456673 0.252654 3.80372e-19)
(-0.0430368 0.266876 -1.82245e-19)
(-0.0393671 0.27966 -1.26266e-19)
(-0.034723 0.291063 -9.39933e-22)
(-0.0291802 0.301152 1.00122e-19)
(-0.0228211 0.310019 4.24818e-20)
(-0.0157316 0.317783 -1.66725e-19)
(-0.00801778 0.324602 1.85918e-19)
(0.000179966 0.330691 -3.29144e-19)
(0.00888857 0.336396 1.99298e-19)
(0.0186256 0.342317 -1.54949e-19)
(0.0280361 0.34898 4.01046e-20)
(8.4123e-05 -0.00153043 1.76579e-19)
(-0.002745 0.00626404 -1.40719e-19)
(-0.00775764 0.0214365 -9.03725e-20)
(-0.0137064 0.0413818 -1.59551e-19)
(-0.0197937 0.0640674 -2.94102e-19)
(-0.0255081 0.0879811 -2.18505e-19)
(-0.0305078 0.112041 1.34549e-19)
(-0.0345734 0.135507 -2.04449e-19)
(-0.0375697 0.1579 2.60601e-19)
(-0.0394179 0.178938 -4.23862e-19)
(-0.0400776 0.198473 1.87843e-19)
(-0.0395358 0.21645 3.96851e-19)
(-0.0378008 0.232867 -5.56623e-19)
(-0.0348992 0.247756 7.91035e-20)
(-0.0308732 0.261167 1.02047e-19)
(-0.0257791 0.273159 1.00038e-19)
(-0.0196853 0.283804 -1.09443e-19)
(-0.0126701 0.293183 -2.87439e-20)
(-0.00481762 0.301394 -7.7051e-20)
(0.0037835 0.308558 -6.66103e-20)
(0.013024 0.314831 -3.5718e-19)
(0.0227529 0.320422 -2.33791e-20)
(0.0329717 0.325677 3.17646e-21)
(0.0442168 0.331243 -1.63351e-19)
(0.0551715 0.337683 1.72875e-19)
(7.82634e-05 -0.00108409 3.99548e-21)
(-0.00279387 0.00706524 5.7279e-20)
(-0.00767895 0.0221937 5.9089e-20)
(-0.0133677 0.0418098 3.63168e-20)
(-0.0190626 0.0639841 2.9556e-19)
(-0.0242443 0.087279 2.76403e-19)
(-0.028571 0.110659 -2.26538e-19)
(-0.0318292 0.13341 -6.68974e-20)
(-0.0338941 0.155063 -6.06973e-20)
(-0.0347005 0.175339 3.14437e-19)
(-0.0342231 0.194091 1.10748e-19)
(-0.0324641 0.211266 -1.65283e-19)
(-0.0294457 0.226869 -1.37425e-19)
(-0.0252055 0.240939 3.32648e-19)
(-0.0197947 0.25354 -8.18964e-20)
(-0.0132755 0.264744 -9.81172e-20)
(-0.00572004 0.274637 -1.37786e-19)
(0.00279111 0.283311 -1.0627e-19)
(0.0121716 0.290871 -1.34859e-19)
(0.0223307 0.297443 -8.8914e-20)
(0.0331556 0.303182 3.69966e-19)
(0.0444849 0.308294 -1.8105e-19)
(0.0562907 0.313128 1.22125e-19)
(0.0691108 0.318384 -3.24997e-19)
(0.0816728 0.324678 1.35243e-19)
(6.20843e-05 -0.000776388 -1.55212e-19)
(-0.00290523 0.00748874 -4.06502e-20)
(-0.00777151 0.0223493 -3.27809e-19)
(-0.0133294 0.0414235 -1.56127e-19)
(-0.0187675 0.0628851 -3.11751e-19)
(-0.0235528 0.085373 -3.23237e-20)
(-0.0273393 0.107903 1.67887e-19)
(-0.0299161 0.129787 -1.00553e-19)
(-0.0311664 0.150573 2.19686e-19)
(-0.0310371 0.169984 -5.32455e-19)
(-0.0295167 0.187874 -1.39837e-20)
(-0.026622 0.204189 9.42591e-20)
(-0.0223884 0.218934 -1.1957e-19)
(-0.0168653 0.232156 1.07739e-19)
(-0.0101125 0.243924 -8.13844e-20)
(-0.00219837 0.254322 -1.73801e-19)
(0.00680121 0.263444 3.17982e-19)
(0.0168038 0.271393 1.96433e-19)
(0.0277217 0.278281 -4.03231e-20)
(0.0394623 0.284242 1.28387e-19)
(0.0519102 0.289433 -2.54533e-19)
(0.0648941 0.294061 3.68372e-19)
(0.0783543 0.298484 -5.04337e-19)
(0.092811 0.303459 1.05388e-19)
(0.107028 0.309675 -2.05155e-19)
(2.96827e-05 -0.000555644 7.92899e-21)
(-0.00309184 0.00765185 -1.37782e-19)
(-0.00805338 0.0220578 2.09768e-19)
(-0.0136144 0.0403967 4.30578e-19)
(-0.0189367 0.0609507 -5.76822e-21)
(-0.0234693 0.0824406 4.88717e-20)
(-0.0268585 0.103938 -1.83483e-19)
(-0.0288933 0.12479 8.85476e-20)
(-0.029463 0.144561 5.93671e-19)
(-0.0285243 0.16298 -1.35691e-19)
(-0.0260782 0.179902 -1.57209e-19)
(-0.0221547 0.19527 5.97901e-19)
(-0.0168019 0.209089 1.91524e-19)
(-0.0100799 0.221406 9.11222e-20)
(-0.00205688 0.232293 9.17594e-20)
(0.0071931 0.241839 2.55018e-19)
(0.0175912 0.250146 -9.86559e-20)
(0.0290543 0.257322 2.54519e-19)
(0.0414947 0.263489 3.46074e-19)
(0.0548199 0.268787 -2.98261e-19)
(0.0689133 0.273382 4.41524e-19)
(0.0835954 0.277485 1.55278e-19)
(0.0987744 0.281474 -5.96599e-19)
(0.114933 0.286171 8.61962e-19)
(0.130845 0.292363 -7.15558e-19)
(-3.09286e-05 -0.000369859 -3.81847e-19)
(-0.0033773 0.00767389 2.18265e-19)
(-0.0085511 0.0214794 -1.46243e-19)
(-0.0142475 0.0389139 -1.41212e-19)
(-0.0195917 0.0583783 -1.49456e-19)
(-0.0240121 0.0786832 -1.63582e-19)
(-0.0271453 0.0989634 4.65507e-20)
(-0.028779 0.118607 4.26606e-19)
(-0.0288065 0.1372 -9.42542e-20)
(-0.0271931 0.154483 -2.38552e-19)
(-0.0239505 0.17031 -1.43541e-19)
(-0.0191203 0.184622 -5.97285e-20)
(-0.0127618 0.197422 1.68029e-19)
(-0.00494488 0.208752 -1.10891e-19)
(0.0042551 0.218684 -3.58556e-19)
(0.0147597 0.227308 -3.9231e-19)
(0.0264888 0.234727 1.5557e-19)
(0.0393603 0.241055 -2.90684e-19)
(0.0532897 0.24642 2.47053e-19)
(0.0681873 0.250968 -7.05408e-19)
(0.0839386 0.254877 5.40981e-19)
(0.100359 0.258373 -7.16044e-19)
(0.117327 0.261859 -1.36249e-20)
(0.135266 0.266244 -2.43625e-19)
(0.152921 0.272433 7.24507e-19)
(-0.000136963 -0.000169522 5.82263e-19)
(-0.00379396 0.00766969 8.71408e-20)
(-0.00929671 0.0207713 -5.70104e-20)
(-0.0152518 0.0371613 -2.53966e-20)
(-0.0207424 0.0553734 4.58467e-19)
(-0.0251763 0.0743182 1.47508e-19)
(-0.0281806 0.0932023 1.32554e-19)
(-0.0295411 0.111462 -1.0863e-19)
(-0.0291551 0.12871 4.16044e-19)
(-0.0269947 0.144701 -2.06504e-19)
(-0.023081 0.159293 1.34457e-19)
(-0.0174656 0.172426 3.32212e-19)
(-0.0102175 0.184095 -1.90068e-19)
(-0.00141431 0.194339 2.00938e-19)
(0.00886301 0.203223 1.89e-19)
(0.0205336 0.210834 6.56799e-20)
(0.0335183 0.217272 -1.59697e-19)
(0.0477391 0.222653 4.3896e-19)
(0.0631185 0.227105 -4.1809e-20)
(0.0795748 0.230783 -4.80174e-20)
(0.0970002 0.233876 5.22028e-19)
(0.115211 0.236632 -3.72362e-19)
(0.134058 0.239495 6.25526e-19)
(0.153889 0.243478 -5.21915e-19)
(0.173354 0.24964 6.75703e-19)
(-0.000309445 8.96884e-05 -2.7654e-19)
(-0.00437951 0.00774323 6.13353e-20)
(-0.0103231 0.0200798 -6.47873e-20)
(-0.0166437 0.0353171 -3.17427e-19)
(-0.0223816 0.0521395 1.87066e-20)
(-0.0269274 0.0695689 1.78245e-19)
(-0.0299013 0.0868931 -7.33222e-19)
(-0.0310884 0.103603 5.45315e-19)
(-0.0303899 0.119346 -5.32e-19)
(-0.0277845 0.133893 -3.35729e-19)
(-0.0233014 0.14711 2.97081e-19)
(-0.0170004 0.158934 -6.38975e-19)
(-0.00895805 0.169357 5.35662e-19)
(0.000742031 0.178407 -1.72392e-19)
(0.0120156 0.186144 -4.84641e-19)
(0.0247819 0.192644 1.20111e-19)
(0.0389655 0.198 -1.14249e-19)
(0.0544967 0.202323 4.19337e-20)
(0.0713093 0.205738 -1.51756e-19)
(0.0893356 0.208403 -4.91424e-19)
(0.108481 0.210517 1.11273e-19)
(0.128569 0.212355 -3.70163e-21)
(0.14943 0.214418 -5.0151e-19)
(0.171316 0.217849 3.51368e-19)
(0.192709 0.223906 -3.1134e-19)
(-0.000571253 0.000444319 1.10732e-19)
(-0.00517234 0.00798193 2.0891e-19)
(-0.0116578 0.0195322 2.95856e-19)
(-0.018425 0.0335429 1.51059e-19)
(-0.0244768 0.0488689 -1.50039e-19)
(-0.0291933 0.0646558 3.57802e-19)
(-0.0321916 0.0802813 2.63878e-19)
(-0.0332593 0.095298 -9.97488e-20)
(-0.0323024 0.109393 3.42261e-19)
(-0.0293061 0.122361 -3.53051e-19)
(-0.0243063 0.134075 -1.04184e-19)
(-0.0173694 0.144474 1.05223e-19)
(-0.00857737 0.153544 2.01756e-19)
(0.00198283 0.161305 3.60802e-21)
(0.0142262 0.167804 1.25096e-19)
(0.028075 0.173105 2.33596e-19)
(0.0434608 0.17729 -3.96879e-19)
(0.0603257 0.180455 4.90763e-19)
(0.0786199 0.182718 1.60361e-19)
(0.0982953 0.184229 5.48168e-20)
(0.119277 0.185195 -5.86469e-19)
(0.141402 0.185916 8.15188e-20)
(0.164484 0.186962 1.2955e-19)
(0.18867 0.189637 -3.23322e-20)
(0.212179 0.195454 1.53354e-19)
(-0.000944677 0.000920761 6.35825e-21)
(-0.00620616 0.00845138 -5.36096e-19)
(-0.0133163 0.0192302 -1.5997e-20)
(-0.0205765 0.0319757 -1.36691e-19)
(-0.0269632 0.0457338 -8.97318e-19)
(-0.0318556 0.0597858 7.74733e-19)
(-0.0348744 0.0736079 -5.51795e-19)
(-0.0358128 0.0868214 -3.02178e-20)
(-0.0345832 0.0991587 -2.58376e-19)
(-0.0311772 0.110439 4.44353e-19)
(-0.0256363 0.120551 -4.76595e-19)
(-0.018031 0.129436 -2.21282e-19)
(-0.00844604 0.137074 2.09239e-21)
(0.00303107 0.143478 -4.70019e-19)
(0.0163177 0.14868 6.40368e-19)
(0.0313418 0.15273 -7.36857e-19)
(0.0480449 0.15569 3.12022e-21)
(0.0663837 0.157639 1.11488e-19)
(0.0863275 0.158676 -2.77872e-19)
(0.107851 0.158936 2.69684e-19)
(0.130901 0.158621 -3.81811e-19)
(0.155332 0.158049 -2.5113e-19)
(0.180946 0.15786 4.67414e-19)
(0.207773 0.15955 -5.11855e-19)
(0.233676 0.164953 -7.59528e-21)
(-0.00144864 0.00153322 -4.32619e-19)
(-0.00750406 0.0091912 5.16083e-19)
(-0.0152948 0.0192443 -1.61753e-19)
(-0.0230497 0.030721 3.09307e-19)
(-0.029736 0.0428779 3.35101e-19)
(-0.0347439 0.055143 -2.95969e-19)
(-0.0377051 0.0670989 -1.91387e-19)
(-0.0384223 0.0784414 -2.31524e-19)
(-0.0368161 0.0889522 2.13218e-19)
(-0.0328838 0.0984815 -1.61656e-20)
(-0.0266704 0.106934 3.0697e-19)
(-0.0182482 0.114257 3.00624e-19)
(-0.00770118 0.120429 -3.55205e-19)
(0.00488592 0.125453 6.92509e-19)
(0.0194358 0.12935 -4.57115e-19)
(0.0358844 0.132151 -7.29163e-20)
(0.0541846 0.133899 8.75367e-19)
(0.0743072 0.134645 -4.06526e-19)
(0.0962391 0.134463 2.55108e-19)
(0.119975 0.133462 4.96606e-19)
(0.145481 0.131823 -3.22446e-19)
(0.172621 0.129865 3.46697e-20)
(0.201181 0.128289 -2.34024e-20)
(0.231079 0.128796 -1.2997e-19)
(0.259739 0.133607 2.51883e-19)
(-0.0020958 0.00228226 9.75734e-20)
(-0.00907297 0.010212 -3.20463e-19)
(-0.0175641 0.0196092 1.75487e-19)
(-0.025762 0.0298469 -3.10864e-21)
(-0.0326467 0.0404087 1.34112e-19)
(-0.0376328 0.050879 -2.29967e-19)
(-0.0403709 0.060953 1.32297e-19)
(-0.0406775 0.0704055 3.60283e-19)
(-0.038482 0.0790719 -1.07121e-20)
(-0.0337865 0.0868368 -1.80059e-19)
(-0.0266371 0.0936248 1.78857e-19)
(-0.0171042 0.0993921 -6.07853e-21)
(-0.00526776 0.104119 -5.65556e-19)
(0.00879344 0.107802 2.09463e-19)
(0.0250095 0.11045 4.51648e-20)
(0.0433247 0.112078 -7.70223e-20)
(0.0637009 0.112705 -1.40338e-19)
(0.086118 0.112358 5.40159e-19)
(0.110572 0.111075 1.28106e-19)
(0.137064 0.10893 -2.80566e-19)
(0.165566 0.106066 -3.42036e-20)
(0.195935 0.102777 3.82611e-19)
(0.227929 0.0997989 -1.78932e-19)
(0.261364 0.0990311 7.72041e-20)
(0.293185 0.103123 5.0727e-20)
(-0.00288991 0.00315422 -1.93496e-19)
(-0.010899 0.0114944 2.01607e-19)
(-0.0200656 0.0203221 -1.13214e-19)
(-0.0285941 0.0293802 -3.6495e-19)
(-0.0355027 0.0383914 -3.37862e-19)
(-0.0402447 0.0471037 -1.46007e-19)
(-0.0424977 0.0553291 -1.23613e-19)
(-0.0420952 0.0629251 -3.62736e-19)
(-0.0389761 0.0697835 -1.46975e-19)
(-0.0331455 0.0758267 1.34863e-19)
(-0.0246478 0.0810027 -1.90244e-19)
(-0.0135485 0.0852802 -1.9796e-19)
(7.92346e-05 0.0886436 -1.84286e-19)
(0.0161641 0.0910873 3.29946e-19)
(0.034643 0.0926112 -6.94534e-19)
(0.055465 0.0932166 3.91696e-19)
(0.0785931 0.0929036 -6.6734e-19)
(0.104004 0.0916714 -1.01365e-19)
(0.131684 0.0895253 -3.61675e-19)
(0.161619 0.0864961 -8.30924e-20)
(0.193759 0.0826772 -1.02537e-19)
(0.227926 0.0783106 -3.41202e-19)
(0.263828 0.0741148 -3.67084e-20)
(0.30121 0.0721539 2.08932e-19)
(0.336562 0.0755093 -5.50448e-19)
(-0.00382376 0.00412168 1.64558e-19)
(-0.0129443 0.0129894 2.23153e-19)
(-0.0227096 0.0213419 7.87436e-19)
(-0.0313909 0.0293043 -1.37743e-19)
(-0.038072 0.0368447 3.31419e-19)
(-0.0422592 0.043878 7.89665e-19)
(-0.0436646 0.0503357 -2.15972e-19)
(-0.0421418 0.0561595 2.91457e-19)
(-0.0376393 0.0612998 1.68729e-19)
(-0.0301637 0.0657191 3.05423e-19)
(-0.0197559 0.0693916 -5.91722e-20)
(-0.00647519 0.0723018 4.22318e-20)
(0.00961241 0.0744418 -1.01105e-19)
(0.0284408 0.0758074 5.63696e-19)
(0.0499481 0.0763945 7.31304e-20)
(0.0740782 0.076195 5.12607e-19)
(0.100781 0.0751947 -1.29225e-19)
(0.130008 0.073372 4.62838e-19)
(0.161709 0.0707031 6.3626e-20)
(0.195822 0.0671782 2.32417e-19)
(0.232239 0.0628352 -9.93221e-20)
(0.270713 0.0578405 -1.68814e-20)
(0.310872 0.0528397 5.5066e-19)
(0.352429 0.0499871 3.38402e-19)
(0.391557 0.0527546 -1.42332e-19)
(-0.00487813 0.0051453 -3.9583e-19)
(-0.0151466 0.0146222 -4.16116e-19)
(-0.0253769 0.0225923 -4.37729e-19)
(-0.0339664 0.0295602 1.6152e-19)
(-0.0400925 0.0357383 -3.24967e-19)
(-0.0433279 0.0412086 -4.85163e-20)
(-0.0434262 0.0460216 -1.27893e-19)
(-0.0402644 0.0502031 -5.27019e-19)
(-0.0338011 0.0537631 -8.05817e-20)
(-0.0240449 0.0567052 1.33718e-19)
(-0.0110337 0.0590318 -4.15531e-19)
(0.00517741 0.0607459 5.76747e-19)
(0.0245246 0.0618502 -7.76474e-19)
(0.046939 0.0623457 1.8484e-19)
(0.0723474 0.0622288 -4.69476e-19)
(0.100672 0.061488 -3.77029e-19)
(0.131825 0.0601016 -2.0628e-20)
(0.165707 0.0580357 -5.52827e-20)
(0.202198 0.0552476 4.50898e-20)
(0.241149 0.0516969 -2.10902e-19)
(0.282355 0.0473715 -1.45507e-19)
(0.325466 0.0423525 1.78291e-19)
(0.369999 0.0371586 -4.93593e-19)
(0.415672 0.0339325 1.60246e-19)
(0.458601 0.0364589 1.166e-19)
(-0.00602192 0.00617683 -6.96065e-20)
(-0.0174206 0.0162973 -1.19027e-19)
(-0.0279232 0.0239666 4.70644e-19)
(-0.0361123 0.03005 1.75283e-19)
(-0.0412852 0.0349952 2.32247e-19)
(-0.0430934 0.0390471 -3.11251e-19)
(-0.0413393 0.0423721 1.65337e-21)
(-0.0359271 0.0450783 -2.49909e-19)
(-0.0268285 0.0472341 4.63649e-19)
(-0.0140572 0.0488847 1.49649e-19)
(0.00234658 0.0500613 1.64807e-19)
(0.0223246 0.0507865 -6.6389e-19)
(0.0458037 0.0510764 8.11608e-19)
(0.0726969 0.0509397 -2.44072e-19)
(0.1029 0.0503775 -1.71936e-19)
(0.136289 0.0493802 5.12881e-19)
(0.172712 0.0479261 2.25983e-19)
(0.211984 0.0459793 -5.72949e-19)
(0.253883 0.0434906 -2.36437e-19)
(0.298137 0.0404046 7.16021e-19)
(0.34441 0.0366754 -5.45158e-19)
(0.392222 0.0323067 3.27715e-19)
(0.440954 0.0276526 1.82104e-19)
(0.49034 0.0247311 -2.34525e-19)
(0.5368 0.0275676 -2.26866e-19)
(-0.0072137 0.00716325 -2.54418e-19)
(-0.0196618 0.0179062 4.11759e-19)
(-0.0301861 0.0253364 1.76727e-19)
(-0.0376079 0.0306445 -2.56712e-19)
(-0.0413681 0.0344975 -4.1516e-20)
(-0.0412088 0.0372944 -2.70011e-19)
(-0.0369888 0.0393116 -1.06949e-19)
(-0.0286454 0.0407356 1.20302e-19)
(-0.0161699 0.0416911 -3.15755e-20)
(0.000411021 0.042263 2.23777e-19)
(0.0210443 0.0425112 -1.93761e-19)
(0.0456535 0.0424782 5.3698e-19)
(0.0741383 0.0421936 -6.59799e-19)
(0.106371 0.0416761 4.12133e-19)
(0.14219 0.0409337 5.05649e-19)
(0.181397 0.0399635 -7.27447e-19)
(0.223746 0.03875 -2.19374e-19)
(0.268938 0.0372651 3.69383e-19)
(0.316616 0.0354673 -2.27605e-19)
(0.366361 0.0333053 2.17914e-19)
(0.417677 0.0307251 -5.28795e-19)
(0.469933 0.0276792 8.84725e-20)
(0.522357 0.0243522 3.42649e-19)
(0.574685 0.0225529 -5.50121e-19)
(0.624018 0.0265332 1.47315e-19)
(-0.00840429 0.00805139 -2.3403e-19)
(-0.0217524 0.0193363 7.63624e-19)
(-0.0319928 0.0265613 1.47753e-19)
(-0.0382301 0.0311939 -4.0096e-19)
(-0.0400695 0.0340967 2.88751e-19)
(-0.0373541 0.0358108 1.47047e-19)
(-0.0300083 0.0367139 2.33558e-19)
(-0.018012 0.0370649 -1.64706e-20)
(-0.00138637 0.0370408 -2.5538e-20)
(0.019815 0.0367638 -5.13176e-20)
(0.0455088 0.0363203 -2.19436e-19)
(0.0755793 0.0357712 -4.91087e-21)
(0.109873 0.0351592 5.11342e-19)
(0.148195 0.0345123 -8.30026e-19)
(0.190297 0.0338463 5.91363e-19)
(0.235877 0.0331662 1.19362e-19)
(0.28457 0.0324671 2.09756e-19)
(0.335941 0.031736 -1.05521e-19)
(0.389485 0.0309529 9.46819e-19)
(0.444621 0.0300951 -5.85703e-19)
(0.500683 0.0291384 4.66426e-19)
(0.556861 0.0280416 1.09067e-19)
(0.612184 0.0268967 -3.40094e-19)
(0.666289 0.0273742 2.87783e-19)
(0.717097 0.0339447 4.44843e-19)
(-0.00954024 0.00879269 -6.73402e-20)
(-0.0235676 0.0204805 -2.68958e-19)
(-0.0331681 0.0275013 -4.62728e-19)
(-0.0377626 0.0315407 -2.64414e-19)
(-0.0371369 0.0336287 -3.73524e-20)
(-0.0312465 0.0344324 -1.05082e-19)
(-0.020092 0.0344197 -4.87319e-19)
(-0.00370869 0.0339148 8.18862e-20)
(0.017836 0.0331411 -5.4528e-19)
(0.0444422 0.0322543 -4.15064e-20)
(0.0759722 0.0313637 -5.20584e-19)
(0.112243 0.030546 -1.83988e-19)
(0.153019 0.0298537 1.0475e-19)
(0.198004 0.0293211 -5.00847e-19)
(0.246836 0.0289683 4.94253e-21)
(0.299083 0.028805 -4.26821e-19)
(0.354243 0.028834 1.63343e-19)
(0.411743 0.0290563 -5.91291e-19)
(0.470944 0.0294777 -9.99591e-20)
(0.53114 0.0301188 -1.39265e-20)
(0.591552 0.031023 -9.85933e-20)
(0.651266 0.032244 -1.01131e-19)
(0.709162 0.0339992 -5.02231e-20)
(0.764511 0.0381306 -1.99733e-19)
(0.814592 0.0487382 -4.24063e-19)
(-0.0105676 0.00934724 1.24113e-19)
(-0.0249823 0.021246 3.40276e-19)
(-0.0335404 0.0280284 4.11647e-19)
(-0.0360007 0.0315352 -3.30385e-19)
(-0.0323423 0.0329311 6.15921e-19)
(-0.0226433 0.0329912 -3.3536e-19)
(-0.00699461 0.0322608 1.8286e-19)
(0.014496 0.0311199 2.83945e-19)
(0.0416936 0.0298321 2.57783e-19)
(0.0744259 0.0285811 1.24868e-19)
(0.112471 0.0274943 2.02241e-19)
(0.155545 0.0266591 1.17521e-19)
(0.203296 0.0261325 7.86654e-19)
(0.255293 0.0259485 -5.70906e-19)
(0.311029 0.0261237 6.48319e-19)
(0.369921 0.026662 -2.68964e-19)
(0.431318 0.0275602 5.75521e-19)
(0.494512 0.0288154 -3.00063e-20)
(0.558758 0.0304348 -1.18822e-19)
(0.623293 0.0324511 -2.13054e-20)
(0.687361 0.0349434 4.43729e-19)
(0.750229 0.038073 -4.28659e-19)
(0.811307 0.0423552 3.02888e-19)
(0.870532 0.0497306 3.24896e-19)
(0.922026 0.0603096 6.3745e-20)
(-0.0114348 0.00968648 8.57668e-20)
(-0.0258755 0.0215612 -4.85909e-19)
(-0.0329468 0.0280383 -1.77824e-19)
(-0.0327546 0.0310497 1.63061e-19)
(-0.0254807 0.031862 -5.0501e-19)
(-0.0113376 0.0313377 -9.96059e-20)
(0.00947698 0.0300857 6.92655e-20)
(0.0367611 0.0285316 2.72816e-19)
(0.0702858 0.0269712 -6.94624e-19)
(0.109774 0.0256093 5.21359e-20)
(0.154885 0.0245854 -2.03189e-19)
(0.205198 0.0239904 -6.12226e-19)
(0.260202 0.023878 4.17653e-19)
(0.319302 0.0242728 1.65797e-20)
(0.381813 0.0251761 -1.10039e-20)
(0.44698 0.0265718 4.12263e-19)
(0.513991 0.0284318 -7.30014e-19)
(0.582001 0.0307229 5.7414e-19)
(0.650164 0.0334133 -1.08034e-19)
(0.717662 0.036481 3.27758e-19)
(0.783743 0.0399197 -5.42578e-19)
(0.847757 0.0437428 3.04649e-19)
(0.909249 0.0480847 -5.40221e-19)
(0.968295 0.0537628 5.42394e-19)
(1.02046 0.0602444 -1.73964e-19)
(-0.0120954 0.00979462 5.76312e-19)
(-0.0261346 0.0213805 -9.76001e-20)
(-0.0312342 0.0274585 7.24003e-19)
(-0.0278474 0.0299922 3.36929e-19)
(-0.0163657 0.0303169 2.67789e-20)
(0.00285067 0.0293623 1.48375e-19)
(0.0294777 0.0277857 3.60387e-20)
(0.0631931 0.0260469 6.05663e-19)
(0.103641 0.024465 1.94823e-19)
(0.150405 0.0232575 -2.55948e-20)
(0.202982 0.0225673 5.33997e-20)
(0.260773 0.0224799 2.03333e-19)
(0.323076 0.0230357 1.67945e-19)
(0.38909 0.0242382 3.54548e-19)
(0.457932 0.0260612 -4.06136e-19)
(0.528661 0.0284551 1.21412e-19)
(0.600299 0.031353 3.72342e-20)
(0.671874 0.0346772 1.78404e-19)
(0.742453 0.0383448 4.76835e-19)
(0.811174 0.0422722 -3.14471e-19)
(0.877288 0.0463769 2.24199e-20)
(0.940179 0.0505705 -4.29758e-19)
(0.999398 0.0547887 3.98337e-19)
(1.05488 0.0594244 -3.7665e-19)
(1.10362 0.0648243 4.23543e-20)
(-0.012509 0.00966858 -4.80954e-19)
(-0.0256565 0.0206865 3.81752e-19)
(-0.0282594 0.0262548 -6.25732e-19)
(-0.0211127 0.028316 5.43511e-20)
(-0.00482378 0.0282429 4.44585e-19)
(0.0200845 0.0270125 -7.43692e-19)
(0.053138 0.0253147 5.90881e-19)
(0.0938628 0.0236312 -9.39457e-19)
(0.14174 0.0222931 1.88004e-19)
(0.196167 0.0215204 3.95008e-20)
(0.25644 0.0214482 3.13932e-19)
(0.321737 0.0221449 -1.04749e-18)
(0.391126 0.0236247 1.81432e-19)
(0.463578 0.025857 1.90597e-19)
(0.537997 0.0287755 -1.13899e-19)
(0.613253 0.0322855 -7.0022e-19)
(0.688225 0.0362725 3.31792e-19)
(0.761841 0.0406092 6.11491e-19)
(0.833121 0.0451629 -6.40927e-19)
(0.901214 0.0498 4.61458e-19)
(0.965419 0.0543882 -5.89959e-19)
(1.02521 0.0587919 4.25818e-19)
(1.08021 0.0628815 -1.13426e-19)
(1.13038 0.0668807 6.44089e-19)
(1.17392 0.0717306 -7.22237e-19)
(-0.0126411 0.0093164 6.90516e-20)
(-0.0243469 0.0194891 5.64058e-20)
(-0.0238874 0.024433 1.39481e-19)
(-0.0123908 0.0260249 4.996e-19)
(0.00931213 0.0256472 -1.54831e-20)
(0.0405174 0.0243041 1.13085e-19)
(0.0805724 0.022702 5.02782e-19)
(0.128815 0.0213305 2.03168e-19)
(0.184517 0.0205195 -6.6548e-20)
(0.246849 0.0204777 5.70968e-19)
(0.314855 0.0213182 -6.48834e-19)
(0.387451 0.0230769 9.96068e-19)
(0.463447 0.0257268 -3.94144e-19)
(0.541569 0.0291892 7.13478e-19)
(0.620512 0.0333453 -2.40954e-19)
(0.698982 0.0380472 8.75882e-20)
(0.775755 0.0431288 1.06074e-19)
(0.849719 0.0484161 -2.00384e-19)
(0.919918 0.0537366 1.69335e-19)
(0.98558 0.0589256 1.07382e-19)
(1.04613 0.0638303 1.46126e-19)
(1.10121 0.0683097 3.02885e-19)
(1.15062 0.0722355 -2.99601e-20)
(1.19444 0.0757528 -1.37357e-19)
(1.23186 0.0801085 3.9143e-19)
(-0.012462 0.00875499 -4.03827e-19)
(-0.0221188 0.0178227 4.43132e-20)
(-0.0179887 0.0220378 -8.01734e-19)
(-0.00152622 0.0231743 -1.92764e-19)
(0.0262042 0.0225991 -3.62175e-19)
(0.0642943 0.021324 -7.83568e-20)
(0.111878 0.0200551 -3.91076e-19)
(0.168062 0.0192732 -2.33703e-19)
(0.231862 0.0192904 3.10746e-19)
(0.302167 0.0202867 -5.1984e-19)
(0.377726 0.0223348 -1.44518e-19)
(0.457161 0.0254204 4.31364e-21)
(0.539004 0.0294582 -9.71503e-19)
(0.621745 0.0343074 4.12455e-19)
(0.703894 0.0397873 -6.0001e-19)
(0.784048 0.0456928 -1.80496e-20)
(0.860945 0.0518089 1.15575e-19)
(0.933515 0.0579243 -1.91561e-19)
(1.00091 0.0638421 -1.66067e-19)
(1.06253 0.0693882 7.99039e-20)
(1.11801 0.0744153 8.808e-20)
(1.16721 0.0788038 -5.71981e-19)
(1.21018 0.0824585 3.24848e-19)
(1.24717 0.0854993 1.56764e-19)
(1.2781 0.0892349 3.70273e-20)
(-0.0119445 0.00800751 4.13866e-19)
(-0.0188897 0.0157422 -4.58457e-19)
(-0.0104379 0.0191488 6.46726e-19)
(0.0116323 0.0198677 1.0065e-19)
(0.0460078 0.0192269 -3.11347e-20)
(0.0915457 0.0182267 -2.21203e-19)
(0.147126 0.0175534 3.33922e-20)
(0.211572 0.0176596 3.37846e-19)
(0.28359 0.0188189 -4.67324e-19)
(0.361738 0.0211607 4.90874e-19)
(0.444432 0.0246961 -5.12835e-20)
(0.529978 0.02934 2.38432e-20)
(0.616636 0.0349323 6.39713e-19)
(0.702688 0.041259 8.5096e-19)
(0.78652 0.0480728 -3.3408e-19)
(0.866694 0.055114 5.86402e-19)
(0.942003 0.0621285 2.93717e-19)
(1.01151 0.0688834 -1.82453e-19)
(1.07458 0.0751779 5.64982e-19)
(1.13086 0.0808502 -2.58302e-20)
(1.18023 0.0857804 -5.33734e-19)
(1.22285 0.0898886 5.56172e-19)
(1.25901 0.0931263 7.47249e-20)
(1.28919 0.095619 -3.35123e-19)
(1.31374 0.0985926 1.0576e-19)
(-0.0110625 0.00710099 -5.76959e-19)
(-0.0145797 0.0133178 6.25267e-19)
(-0.00111335 0.0158745 -3.99628e-19)
(0.0272295 0.0162494 -1.25935e-19)
(0.068864 0.0157096 -2.82135e-19)
(0.122375 0.0152229 5.01196e-19)
(0.186338 0.0154338 -2.92443e-19)
(0.259239 0.016743 -1.34289e-19)
(0.339416 0.0193606 -3.85774e-19)
(0.425055 0.02334 1.02461e-20)
(0.51421 0.0286064 -1.5125e-19)
(0.604874 0.0349842 7.30001e-20)
(0.695066 0.042225 -7.72458e-19)
(0.782922 0.0500356 2.20817e-19)
(0.866789 0.0581052 -2.63705e-19)
(0.945293 0.0661304 -2.113e-19)
(1.01739 0.0738352 6.53665e-20)
(1.08238 0.0809863 -3.03705e-19)
(1.13989 0.0874013 -1.26538e-19)
(1.18989 0.0929525 3.73079e-19)
(1.23257 0.0975644 1.53937e-19)
(1.26834 0.101209 -6.55729e-19)
(1.29776 0.10389 4.76329e-19)
(1.3215 0.105755 -8.89264e-20)
(1.34015 0.107866 -1.81984e-19)
(-0.00978854 0.00606462 -2.11043e-19)
(-0.00910965 0.0106316 -1.17102e-19)
(0.0101018 0.0123462 -2.3804e-20)
(0.0453972 0.0124966 1.72751e-19)
(0.0948887 0.0122652 1.89341e-19)
(0.156842 0.0125644 1.66023e-19)
(0.22947 0.0139711 2.0686e-19)
(0.310859 0.0168056 3.17242e-19)
(0.398934 0.0211851 4.85885e-19)
(0.491467 0.0270591 4.81744e-19)
(0.586152 0.0342429 2.53989e-19)
(0.680698 0.042454 -6.82257e-20)
(0.772946 0.0513484 1.81295e-20)
(0.860979 0.0605564 -2.11979e-20)
(0.943212 0.0697158 2.01797e-19)
(1.01845 0.0784987 -5.12073e-20)
(1.08591 0.0866305 5.8528e-19)
(1.1452 0.093902 -2.63405e-19)
(1.19631 0.100172 2.42508e-21)
(1.23951 0.105364 1.78465e-19)
(1.27531 0.109459 -3.92162e-19)
(1.30438 0.112487 6.41661e-19)
(1.32746 0.114505 -5.17247e-19)
(1.34538 0.115684 9.19941e-20)
(1.35885 0.116895 -3.29358e-19)
(-0.00809345 0.00492869 4.52985e-19)
(-0.00240137 0.00777376 3.16561e-19)
(0.023316 0.00871149 -2.04428e-19)
(0.0662465 0.00880902 9.07739e-19)
(0.124158 0.00913772 -7.89879e-19)
(0.194941 0.0105274 1.68219e-19)
(0.276383 0.0134566 -1.26245e-19)
(0.366112 0.0181324 -5.58631e-19)
(0.461593 0.024547 -5.80678e-20)