/*--------------------------------*- C++ -*----------------------------------*\
  =========                 |
  \\      /  F ield         | OpenFOAM: The Open Source CFD Toolbox
   \\    /   O peration     | Website:  https://openfoam.org
    \\  /    A nd           | Version:  6.0
     \\/     M anipulation  |
\*---------------------------------------------------------------------------*/
FoamFile
{
    version     2.0;
    format      ascii;
    class       surfaceScalarField;
    location    "109";
    object      phi;
}
// * * * * * * * * * * * * * * * * * * * * * * * * * * * * * * * * * * * * * //

dimensions      [0 3 -1 0 0 0 0];

internalField   nonuniform List<scalar> 
15760
(
-1.78937e-06
8.84263e-05
-8.66369e-05
-6.96518e-06
0.000244709
-0.000239533
-1.52545e-05
0.000381767
-0.000373477
-2.61229e-05
0.000499429
-0.000488561
-3.87253e-05
0.000598644
-0.000586042
-5.19564e-05
0.000681462
-0.000668231
-6.45829e-05
0.000750369
-0.000737742
-7.53986e-05
0.000807728
-0.000796912
-8.33637e-05
0.000855446
-0.000847481
-8.77038e-05
0.000894862
-0.000890522
-8.79593e-05
0.000926796
-0.00092654
-8.39888e-05
0.000951692
-0.000955663
-7.59347e-05
0.000969791
-0.000977845
-6.41617e-05
0.000981267
-0.00099304
-4.91793e-05
0.000986331
-0.00100131
-3.15565e-05
0.00098527
-0.00100289
-1.18372e-05
0.000978456
-0.000998175
9.53404e-06
0.000966308
-0.000987679
3.22741e-05
0.000949192
-0.000971932
0.000927417
-0.000951484
5.63411e-05
2.55626e-07
8.81706e-05
-1.15724e-07
0.00024508
-1.7102e-06
0.000383361
-4.63809e-06
0.000502357
-8.55352e-06
0.000602559
-1.27339e-05
0.000685642
-1.62286e-05
0.000753864
-1.80305e-05
0.000809529
-1.72294e-05
0.000854645
-1.31252e-05
0.000890758
-5.28806e-06
0.000918959
6.42898e-06
0.000939975
2.19185e-05
0.000954301
4.08735e-05
0.000962312
6.28587e-05
0.000964346
8.73868e-05
0.000960742
0.000113996
0.000951847
0.000142317
0.000937987
0.000172137
0.000919372
0.000896064
0.00020349
2.04837e-06
8.61223e-05
6.01927e-06
0.00024111
1.06173e-05
0.000378763
1.51804e-05
0.000497794
1.95926e-05
0.000598147
2.41957e-05
0.000681039
2.96398e-05
0.00074842
3.67114e-05
0.000802458
4.61746e-05
0.000845182
5.86502e-05
0.000878282
7.45447e-05
0.000903064
9.40271e-05
0.000920493
0.000117046
0.000931283
0.000143373
0.000935985
0.000172663
0.000935056
0.000204518
0.000928887
0.000238555
0.00091781
0.000274468
0.000902074
0.000312085
0.000881754
0.000856671
0.000351478
3.53373e-06
8.25885e-05
1.12391e-05
0.000233404
2.13167e-05
0.000368685
3.26722e-05
0.000486439
4.47939e-05
0.000586025
5.76686e-05
0.000668164
7.16474e-05
0.000734441
8.7284e-05
0.000786821
0.000105183
0.000827283
0.000125875
0.00085759
0.000149741
0.000879198
0.000176976
0.000893257
0.000207594
0.000900665
0.000241456
0.000902124
0.000278315
0.000898197
0.000317869
0.000889333
0.000359811
0.000875868
0.000403886
0.000857999
0.000449943
0.000835697
0.000808568
0.000498046
4.6784e-06
7.79101e-05
1.54075e-05
0.000222675
3.00868e-05
0.000354006
4.7327e-05
0.000469198
6.63088e-05
0.000567044
8.67135e-05
0.00064776
0.000108612
0.000712542
0.000132327
0.000763106
0.000158293
0.000801317
0.000186942
0.000828941
0.000218618
0.000847522
0.000253537
0.000858338
0.000291775
0.000862427
0.000333281
0.000860617
0.000377912
0.000853567
0.000425459
0.000841786
0.000475693
0.000825633
0.000528402
0.00080529
0.000583435
0.000780664
0.000751196
0.000640808
5.46894e-06
7.24412e-05
1.84481e-05
0.000209696
3.67336e-05
0.000335721
5.87861e-05
0.000447146
8.35816e-05
0.000542248
0.000110563
0.000620779
0.000139557
0.000683547
0.000170672
0.000731992
0.000204172
0.000767817
0.000240379
0.000792734
0.00027959
0.000808311
0.000322027
0.000815901
0.000367818
0.000816636
0.000416996
0.000811439
0.00046951
0.000801053
0.000525247
0.000786049
0.000584053
0.000766827
0.000645755
0.000743589
0.000710186
0.000716233
0.00068411
0.000777272
5.90627e-06
6.6535e-05
2.03345e-05
0.000195268
4.11611e-05
0.000314894
6.68372e-05
0.00042147
9.62432e-05
0.000512842
0.000128662
0.00058836
0.000163731
0.000648478
0.000201368
0.000694355
0.00024168
0.000727506
0.000284874
0.00074954
0.000331187
0.000761997
0.000380836
0.000766252
0.000433983
0.000763489
0.000490729
0.000754693
0.000551112
0.00074067
0.00061511
0.000722051
0.000682643
0.000699294
0.000753577
0.000672654
0.000827722
0.000642088
0.000606961
0.000904872
6.0035e-06
6.05315e-05
2.1085e-05
0.000180186
4.33632e-05
0.000292616
7.14099e-05
0.000393423
0.000104116
0.000480136
0.000140689
0.000551787
0.000180637
0.00060853
0.000223728
0.000651265
0.000269929
0.000681305
0.000319338
0.00070013
0.000372128
0.000709207
0.000428491
0.00070989
0.000488611
0.000703368
0.000552646
0.000690658
0.000620711
0.000672605
0.000692872
0.00064989
0.000769133
0.000623034
0.000849411
0.000592376
0.000933494
0.000558004
0.000519451
0.001021
5.78199e-06
5.47495e-05
2.07535e-05
0.000165215
4.34137e-05
0.000269956
7.25681e-05
0.000364269
0.000107215
0.000445489
0.000146567
0.000512435
0.000190067
0.000565031
0.000237379
0.000603952
0.00028836
0.000630325
0.000343011
0.000645479
0.000401435
0.000650783
0.000463795
0.000647529
0.000530285
0.000636878
0.000601106
0.000619838
0.000676446
0.000597265
0.000756467
0.000569868
0.000841275
0.000538226
0.000930867
0.000502785
0.00102504
0.000463835
0.000421288
0.0011232
5.26926e-06
4.94802e-05
1.94244e-05
0.000151059
4.14594e-05
0.000247921
7.05054e-05
0.000335223
0.00010575
0.000410245
0.000146482
0.000471702
0.000192143
0.00051937
0.00024234
0.000553755
0.000296852
0.000575813
0.000355602
0.00058673
0.000418632
0.000587754
0.000486071
0.000580089
0.000558115
0.000564834
0.000635002
0.000542951
0.000716999
0.000515268
0.000804377
0.00048249
0.000897376
0.000445227
0.000996132
0.000404029
0.0011005
0.000359469
0.000312117
0.00120967
4.49882e-06
4.49814e-05
1.72123e-05
0.000138346
3.77198e-05
0.000227413
6.55488e-05
0.000307394
0.000100139
0.000375654
0.000140918
0.000430923
0.000187376
0.000472912
0.000239115
0.000502016
0.00029587
0.000519058
0.000357509
0.00052509
0.000424029
0.000521234
0.000495531
0.000508588
0.000572211
0.000488153
0.000654351
0.000460812
0.0007423
0.000427319
0.000836463
0.000388327
0.000937261
0.000344429
0.00104503
0.000296258
0.00115978
0.000244724
0.000191429
0.00128046
3.51234e-06
4.14691e-05
1.42665e-05
0.000127592
3.24961e-05
0.000209184
5.81733e-05
0.000281716
9.10358e-05
0.000342792
0.000130696
0.000391263
0.000176743
0.000426865
0.000228814
0.000449944
0.000286643
0.00046123
0.000350078
0.000461655
0.000419089
0.000452223
0.00049377
0.000433907
0.000574332
0.000407591
0.000661105
0.000374039
0.000754536
0.000333888
0.000855182
0.000287681
0.000963673
0.000235937
0.00108061
0.000179324
0.0012062
0.000119131
5.84323e-05
0.0013392
2.36341e-06
3.91057e-05
1.07804e-05
0.000119175
2.61846e-05
0.000193779
4.90222e-05
0.000258879
7.93597e-05
0.000312454
0.000117031
0.000353592
0.000161765
0.000382131
0.000213284
0.000398426
0.000271364
0.00040315
0.000335877
0.000397142
0.000406812
0.000381288
0.000484284
0.000356435
0.000568547
0.000323329
0.000659997
0.000282589
0.000759181
0.000234703
0.0008668
0.000180062
0.000983674
0.000119064
0.00111063
5.23661e-05
0.0012481
-1.83387e-05
-8.80576e-05
0.00139459
1.12156e-06
3.79841e-05
6.99944e-06
0.000113297
1.92897e-05
0.000181489
3.89257e-05
0.000239243
6.63227e-05
0.000285057
0.000101567
0.000318347
0.000144573
0.000339125
0.000195197
0.000347802
0.000253318
0.000345029
0.000318891
0.000331568
0.000391981
0.000308198
0.000472779
0.000275637
0.000561613
0.000234494
0.000658961
0.000185242
0.000765447
0.000128217
0.000881846
6.36634e-05
0.00100905
-8.13723e-06
0.00114795
-8.6536e-05
0.00129905
-0.000169438
-0.000249592
0.00146058
-1.25725e-07
3.81098e-05
3.22385e-06
0.000109948
1.24241e-05
0.000172289
2.88968e-05
0.00022277
5.34214e-05
0.000260533
8.63696e-05
0.000285399
0.000127888
0.000297607
0.000178029
0.000297661
0.000236846
0.000286212
0.000304451
0.000263963
0.000381051
0.000231597
0.000466966
0.000189722
0.000562629
0.000138831
0.00066858
7.92916e-05
0.000785445
1.13509e-05
0.00091392
-6.48111e-05
0.00105472
-0.000148941
0.00120851
-0.000240324
0.00137555
-0.000336475
-0.00042781
0.00155377
-1.27567e-06
3.93855e-05
-2.02906e-07
0.000108875
6.284e-06
0.000165802
2.00875e-05
0.000208966
4.23667e-05
0.000238254
7.3815e-05
0.00025395
0.000114865
0.000256557
0.000165834
0.000246693
0.00022702
0.000225026
0.000298761
0.000192222
0.000381463
0.000148895
0.000475599
9.55866e-05
0.000581687
3.27426e-05
0.000700256
-3.92767e-05
0.000831784
-0.000120177
0.00097665
-0.000209677
0.00113508
-0.000307368
0.00130708
-0.000412328
0.00149231
-0.000521704
-0.000623851
0.00168835
-2.21882e-06
4.16043e-05
-2.922e-06
0.000109578
1.59185e-06
0.000161288
1.36925e-05
0.000196866
3.49344e-05
0.000217012
6.63704e-05
0.000222514
0.000108772
0.000214155
0.000162778
0.000192686
0.000228986
0.000158818
0.000307995
0.000113213
0.00040041
5.64797e-05
0.000506819
-1.08223e-05
0.00062773
-8.81688e-05
0.0007635
-0.000175046
0.000914238
-0.000270916
0.00107973
-0.000375169
0.00125938
-0.000487015
0.0014522
-0.000605156
0.0016569
-0.000726398
-0.000837538
0.00187059
-2.85335e-06
4.44577e-05
-4.6025e-06
0.000111327
-9.87821e-07
0.000157673
1.0808e-05
0.00018507
3.27473e-05
0.000195073
6.62722e-05
0.00018899
0.000112528
0.000167899
0.000172504
0.000132711
0.000247098
8.42238e-05
0.000337141
2.31699e-05
0.000443363
-4.97422e-05
0.000566331
-0.00013379
0.000706356
-0.000228195
0.000863394
-0.000332083
0.00103693
-0.000444449
0.00122588
-0.000564122
0.00142859
-0.000689726
0.0016429
-0.000819466
0.00186641
-0.00094991
-0.00106674
0.00209562
-3.10155e-06
4.75592e-05
-4.99014e-06
0.000113216
-9.42722e-07
0.000153626
1.22772e-05
0.00017185
3.70397e-05
0.00017031
7.51848e-05
0.000150844
0.000128231
0.000114853
0.000197489
6.34532e-05
0.000284097
-2.38368e-06
0.000388998
-8.17309e-05
0.000512876
-0.000173621
0.000656066
-0.000276979
0.000818437
-0.000390566
0.000999293
-0.00051294
0.00119727
-0.000642429
0.00141028
-0.000777126
0.00163545
-0.000914898
0.00186934
-0.00105335
0.00210847
-0.00118904
-0.00130719
0.00234891
-2.92367e-06
5.04829e-05
-3.94723e-06
0.000114239
2.01126e-06
0.000147668
1.85664e-05
0.000155295
4.84746e-05
0.000140402
9.39468e-05
0.000105372
0.000156823
5.19767e-05
0.000238641
-1.83653e-05
0.000340632
-0.000104374
0.000463653
-0.000204752
0.000608096
-0.000318065
0.000773789
-0.000442671
0.000959901
-0.000576677
0.00116489
-0.000717925
0.00138646
-0.000864006
0.00162163
-0.00101229
0.00186669
-0.00115996
0.00211718
-0.00130385
0.00236753
-0.00143939
-0.00154816
0.0026085
-2.32471e-06
5.28076e-05
-1.47075e-06
0.000113385
7.89742e-06
0.000138299
2.97163e-05
0.000133476
6.70784e-05
0.00010304
0.000122495
4.99556e-05
0.000198016
-2.35447e-05
0.000295247
-0.000115596
0.000415289
-0.000224416
0.000558642
-0.000348105
0.000725105
-0.000484528
0.000913693
-0.00063126
0.00112261
-0.000785592
0.00134927
-0.000944588
0.00159044
-0.00110518
0.00184242
-0.00126427
0.00210137
-0.00141891
0.00236384
-0.00156632
0.0026285
-0.00170404
-0.00182225
0.00290259
-1.34652e-06
5.41542e-05
2.32619e-06
0.000109713
1.65101e-05
0.000124115
4.53927e-05
0.000104594
9.23206e-05
5.61119e-05
0.00015999
-1.77141e-05
0.000250497
-0.000114051
0.000365287
-0.000230386
0.000505056
-0.000364184
0.000669631
-0.00051268
0.000857893
-0.00067279
0.00106775
-0.000841115
0.00129619
-0.00101403
0.00153945
-0.00118785
0.00179321
-0.00135894
0.00205292
-0.00152398
0.00231409
-0.00168008
0.00257271
-0.00182494
0.00282575
-0.00195708
-0.00207079
0.00307429
-5.82309e-08
5.42124e-05
7.24747e-06
0.000102407
2.74828e-05
0.00010388
6.50017e-05
6.70746e-05
0.000123294
-2.18008e-06
0.000205082
-9.95026e-05
0.000312291
-0.000221261
0.000445935
-0.00036403
0.000605986
-0.000524235
0.000791272
-0.000697966
0.000999457
-0.000880975
0.00122712
-0.00106878
0.00146994
-0.00125686
0.00172299
-0.00144089
0.00198105
-0.001617
0.00223901
-0.00178193
0.00249212
-0.00193319
0.0027363
-0.00206912
0.00296824
-0.00218902
-0.00228996
0.0031874
1.46616e-06
5.27463e-05
1.30733e-05
9.07999e-05
4.03936e-05
7.65597e-05
8.78515e-05
1.96168e-05
0.000158939
-7.32674e-05
0.000256207
-0.000196771
0.000381146
-0.0003462
0.000534025
-0.000516909
0.000713756
-0.000703966
0.000917863
-0.000902073
0.00114257
-0.00110568
0.00138304
-0.00130925
0.00163373
-0.00150755
0.00188882
-0.00169598
0.00214261
-0.0018708
0.00238996
-0.00202928
0.00262652
-0.00216975
0.00284894
-0.00229154
0.00305488
-0.00239496
-0.00247953
0.00324446
3.16463e-06
4.95816e-05
1.96089e-05
7.43556e-05
5.48544e-05
4.13142e-05
0.000113285
-3.88141e-05
0.000198224
-0.000158206
0.000311808
-0.000310355
0.000454787
-0.000489178
0.000626338
-0.00068846
0.000823993
-0.000901621
0.00104372
-0.00112181
0.00128023
-0.00134219
0.00152737
-0.00155638
0.00177868
-0.00175886
0.00202791
-0.00194521
0.00226951
-0.0021124
0.00249892
-0.00225869
0.00271281
-0.00238363
0.00290906
-0.0024878
0.00308673
-0.00257263
-0.00263939
0.00324659
4.99834e-06
4.45833e-05
2.67162e-05
5.26377e-05
7.05643e-05
-2.53393e-06
0.000140755
-0.000109004
0.000240231
-0.000257682
0.000370424
-0.000440548
0.000530997
-0.000649751
0.000719691
-0.000877154
0.000932383
-0.00111431
0.00116339
-0.00135281
0.00140597
-0.00158477
0.00165301
-0.00180343
0.00189765
-0.0020035
0.00213385
-0.00218141
0.0023568
-0.00233535
0.00256312
-0.00246501
0.00275086
-0.00257137
0.0029194
-0.00265634
0.00306921
-0.00272244
-0.00277208
0.0032019
6.95369e-06
3.76296e-05
3.43191e-05
2.52723e-05
8.73162e-05
-5.5531e-05
0.000169819
-0.000191507
0.000284133
-0.000371996
0.000430648
-0.000587063
0.000607574
-0.000826677
0.000810907
-0.00108049
0.00103472
-0.00133812
0.00127173
-0.00158983
0.00151413
-0.00182717
0.00175435
-0.00204364
0.00198576
-0.00223491
0.00220318
-0.00239883
0.00240308
-0.00253525
0.00258358
-0.00264551
0.00274426
-0.00273206
0.0028859
-0.00279798
0.00301008
-0.00284662
-0.00288105
0.00311905
9.03624e-06
2.85934e-05
4.23866e-05
-8.07802e-06
0.000104962
-0.000118106
0.000200086
-0.000286631
0.000329116
-0.000501026
0.000491031
-0.000748978
0.000682241
-0.00101789
0.000896793
-0.00129504
0.00112698
-0.00156831
0.00136426
-0.00182711
0.00160025
-0.00206317
0.00182761
-0.00227099
0.00204059
-0.0024479
0.0022354
-0.00259364
0.00241008
-0.00270993
0.00256434
-0.00279976
0.00269915
-0.00286687
0.00281636
-0.00291519
0.0029183
-0.00294856
-0.00297033
0.00300758
1.12599e-05
1.73335e-05
5.09022e-05
-4.77203e-05
0.000123359
-0.000190563
0.000231134
-0.000394406
0.000374282
-0.000644174
0.000549996
-0.000924692
0.000752624
-0.00122051
0.000974222
-0.00151664
0.00120557
-0.00179966
0.00143737
-0.00205891
0.00166137
-0.00228716
0.00187108
-0.00248071
0.00206222
-0.00263903
0.0022326
-0.00276403
0.00238194
-0.00285926
0.00251132
-0.00292915
0.0026228
-0.00297834
0.0027189
-0.00301129
0.00280231
-0.00303197
-0.00304367
0.00287565
1.36356e-05
3.69793e-06
5.9833e-05
-9.39177e-05
0.000142313
-0.000273043
0.000262439
-0.000514533
0.000418582
-0.000800317
0.000605823
-0.00111193
0.00081632
-0.00143101
0.00104032
-0.00174064
0.00126757
-0.00202691
0.00148869
-0.00228003
0.00169622
-0.00249468
0.0018851
-0.00266959
0.00205275
-0.00280668
0.00219871
-0.00290998
0.0023241
-0.00298466
0.00243112
-0.00303617
0.00252247
-0.00306969
0.00260097
-0.0030898
0.00266934
-0.00310033
-0.00310433
0.00272999
1.61628e-05
-1.24648e-05
6.91068e-05
-0.000146862
0.00016155
-0.000365486
0.000293349
-0.000646331
0.00046082
-0.000967788
0.000656714
-0.00130783
0.000871063
-0.00164536
0.00109271
-0.00196228
0.001311
-0.0022452
0.00151719
-0.00248622
0.00170516
-0.00268266
0.00187163
-0.00283606
0.00201577
-0.00295082
0.00213862
-0.00303283
0.00224245
-0.00308848
0.0023301
-0.00312382
0.00240459
-0.00314418
0.00246874
-0.00315395
0.00252503
-0.00315662
-0.00315486
0.00257557
1.8825e-05
-3.12898e-05
7.86006e-05
-0.000206637
0.000180699
-0.000467584
0.000323085
-0.000788718
0.000499712
-0.00114442
0.000700928
-0.00150904
0.000914923
-0.00185936
0.00112972
-0.00217708
0.00133497
-0.00245046
0.00152316
-0.00267441
0.00168993
-0.00284943
0.00183382
-0.00297995
0.0019556
-0.0030726
0.00205751
-0.00313475
0.00214254
-0.00317351
0.00221387
-0.00319515
0.00227449
-0.0032048
0.00232701
-0.00320647
0.00237358
-0.00320319
-0.00319722
0.00241593
2.15891e-05
-5.28789e-05
8.81429e-05
-0.000273191
0.000199309
-0.00057875
0.000350793
-0.000940202
0.000533979
-0.0013276
0.000736933
-0.001712
0.000946481
-0.0020689
0.0011505
-0.0023811
0.00133963
-0.00263958
0.00150801
-0.00284279
0.00165318
-0.00299459
0.00177538
-0.00310215
0.0018767
-0.00317392
0.0019602
-0.00321824
0.00202923
-0.00324254
0.00208698
-0.00325291
0.00213624
-0.00325406
0.00217929
-0.00324952
0.00221791
-0.0032418
-0.00323277
0.00225345
2.44079e-05
-7.72869e-05
9.75221e-05
-0.000346305
0.000216877
-0.000698105
0.000375605
-0.00109893
0.000562459
-0.00151446
0.000763542
-0.00191308
0.000964929
-0.00227029
0.00115505
-0.00257121
0.00132602
-0.00281056
0.0014739
-0.00299067
0.00159805
-0.00311875
0.00170018
-0.00320428
0.0017833
-0.00325704
0.00185094
-0.00328588
0.0019065
-0.00329811
0.001953
-0.0032994
0.00199289
-0.00329395
0.00202808
-0.00328471
0.00206
-0.00327372
-0.00326245
0.00208969
2.72229e-05
-0.00010451
0.000106501
-0.000425583
0.000232884
-0.000824489
0.000396708
-0.00126275
0.000584206
-0.00170195
0.000779999
-0.00210887
0.00097009
-0.00246038
0.00114405
-0.00274518
0.00129584
-0.00296235
0.00142345
-0.00311827
0.00152785
-0.00322315
0.00161186
-0.00328829
0.00167909
-0.00332427
0.0017332
-0.00333999
0.00177746
-0.00334237
0.00181456
-0.0033365
0.00184658
-0.00332598
0.00187508
-0.00331321
0.00190117
-0.00329981
-0.0032869
0.00192561
2.99681e-05
-0.000134478
0.000114831
-0.000510446
0.00024683
-0.000956488
0.000413405
-0.00142933
0.000598553
-0.0018871
0.000786008
-0.00229633
0.000962358
-0.00263673
0.00111878
-0.0029016
0.0012512
-0.00309477
0.0013594
-0.00322647
0.00144568
-0.00330944
0.00151364
-0.00335624
0.00156713
-0.00337777
0.00160974
-0.00338259
0.00164444
-0.00337707
0.00167356
-0.00336562
0.00169881
-0.00335123
0.00172141
-0.00333581
0.00174223
-0.00332062
-0.0033065
0.00176183
3.25739e-05
-0.000167052
0.000122269
-0.00060014
0.000258269
-0.00109249
0.000425163
-0.00159622
0.000605144
-0.00206708
0.000781708
-0.00247289
0.000942585
-0.00279761
0.00108083
-0.00303985
0.00119433
-0.00320827
0.00128442
-0.00331655
0.00135439
-0.0033794
0.00140825
-0.00341011
0.0014499
-0.00341941
0.00148266
-0.00341536
0.00150916
-0.00340357
0.00153134
-0.0033878
0.00155058
-0.00337046
0.00156782
-0.00335306
0.00158373
-0.00333653
-0.00332148
0.00159871
3.49705e-05
-0.000202022
0.000128589
-0.000693759
0.000266834
-0.00123073
0.00043164
-0.00176103
0.000603935
-0.00223938
0.000767603
-0.00263656
0.000911946
-0.00294195
0.00103202
-0.00315992
0.00112749
-0.00330374
0.00120096
-0.00339002
0.00125638
-0.00343482
0.00129792
-0.00345165
0.00132931
-0.00345081
0.00135355
-0.00343959
0.00137286
-0.00342288
0.00138884
-0.00340378
0.00140257
-0.0033842
0.00141479
-0.00336529
0.00142599
-0.00334773
-0.00333196
0.00143647
3.70907e-05
-0.000239113
0.000133596
-0.000790265
0.000272257
-0.00136939
0.000432691
-0.00192146
0.000595157
-0.00240184
0.000744478
-0.00278588
0.000871806
-0.00306928
0.00097416
-0.00326227
0.00105276
-0.00338235
0.00111116
-0.00344841
0.00115366
-0.00347733
0.00118441
-0.0034824
0.00120683
-0.00347323
0.00122354
-0.0034563
0.00123639
-0.00343574
0.00124668
-0.00341406
0.00125524
-0.00339276
0.00126264
-0.00337269
0.00126925
-0.00335433
-0.003338
0.00127529
3.88732e-05
-0.000277986
0.000137133
-0.000888525
0.00027438
-0.00150664
0.000428359
-0.00207544
0.000579265
-0.00255275
0.000713301
-0.00291992
0.0008236
-0.00317958
0.000909007
-0.00334768
0.000972019
-0.00344536
0.00101682
-0.00349321
0.00104786
-0.00350837
0.00106907
-0.00350361
0.00108353
-0.00348768
0.00109345
-0.00346622
0.00110038
-0.00344266
0.00110531
-0.00341899
0.0011089
-0.00339635
0.00111159
-0.00337538
0.00111366
-0.0033564
-0.00333961
0.00111526
4.02694e-05
-0.000318256
0.000139097
-0.000987352
0.000273163
-0.00164071
0.000418868
-0.00222115
0.000556898
-0.00269078
0.000675159
-0.00303818
0.000768767
-0.00327319
0.000838186
-0.0034171
0.000886896
-0.00349407
0.000919461
-0.00352578
0.000940277
-0.00352919
0.000952966
-0.0035163
0.000960221
-0.00349494
0.000963906
-0.00346991
0.000965247
-0.003444
0.000965033
-0.00341878
0.000963776
-0.0033951
0.000961808
-0.00337342
0.000959342
-0.00335393
-0.00333677
0.000956504
4.12286e-05
-0.000359484
0.000139406
-0.00108553
0.000268632
-0.00176993
0.000404524
-0.00235704
0.000528751
-0.00281501
0.000631107
-0.00314053
0.000708607
-0.00335069
0.000763082
-0.00347157
0.000798722
-0.00352971
0.000820248
-0.0035473
0.000831861
-0.0035408
0.000836827
-0.00352126
0.000837457
-0.00349557
0.000835281
-0.00346773
0.000831274
-0.00343999
0.00082605
-0.00341355
0.000820003
-0.00338905
0.000813393
-0.00336681
0.000806385
-0.00334693
-0.00332946
0.000799079
4.1723e-05
-0.000401207
0.00013805
-0.00118186
0.000260934
-0.00189282
0.000385776
-0.00248188
0.000495617
-0.00292485
0.000582227
-0.00322714
0.000644354
-0.00341281
0.000684941
-0.00351216
0.000708639
-0.00355341
0.000720151
-0.00355882
0.000723392
-0.00354404
0.000721247
-0.00351912
0.000715668
-0.00348999
0.000707895
-0.00345996
0.00069869
-0.00343079
0.000688529
-0.00340339
0.000677717
-0.00337824
0.000666461
-0.00335555
0.000654891
-0.00333536
-0.00331766
0.000643088
4.17328e-05
-0.00044294
0.000135054
-0.00127518
0.000250274
-0.00200804
0.000363116
-0.00259472
0.000458286
-0.00302002
0.000529515
-0.00329837
0.000577086
-0.00346038
0.0006048
-0.00353987
0.000617558
-0.00356616
0.000619914
-0.00356117
0.00061544
-0.00353957
0.000606647
-0.00351032
0.000595158
-0.0034785
0.000581962
-0.00344676
0.000567653
-0.00341648
0.000552592
-0.00338833
0.00053702
-0.00336266
0.000521102
-0.00333963
0.000504946
-0.0033192
-0.00330134
0.000488621
4.12502e-05
-0.00048419
0.000130481
-0.00136441
0.000236912
-0.00211447
0.00033707
-0.00269488
0.00041752
-0.00310047
0.000473876
-0.00335473
0.000507734
-0.00349424
0.000523518
-0.00355566
0.000526206
-0.00356885
0.000520109
-0.00355507
0.000508435
-0.0035279
0.000493336
-0.00349523
0.000476145
-0.00346131
0.000457642
-0.00342826
0.000438281
-0.00339712
0.000418337
-0.00336838
0.000397997
-0.00334233
0.000377398
-0.00331903
0.000356633
-0.00329844
-0.00328046
0.000335762
4.02783e-05
-0.000524469
0.000124425
-0.00144856
0.000221138
-0.00221118
0.000308165
-0.00278191
0.000374037
-0.00316634
0.000416117
-0.00339681
0.000437089
-0.00351522
0.000441796
-0.00356036
0.000435156
-0.00356221
0.000421175
-0.00354109
0.000402695
-0.00350941
0.000381539
-0.00347407
0.000358788
-0.00343856
0.000335052
-0.00340452
0.000310667
-0.00337273
0.000285841
-0.00334356
0.000260721
-0.00331721
0.000235421
-0.00329373
0.000210026
-0.00327304
-0.00325503
0.000184592
3.88306e-05
-0.000563299
0.000117005
-0.00152673
0.000203264
-0.00229744
0.000276917
-0.00285556
0.000328493
-0.00321791
0.00035694
-0.00342526
0.000365816
-0.00352409
0.000360202
-0.00355475
0.000344856
-0.00354687
0.000323445
-0.00351968
0.000298457
-0.00348443
0.000271421
-0.00344703
0.000243206
-0.00341034
0.000214278
-0.0033756
0.000184883
-0.00334334
0.000155172
-0.00331385
0.000125257
-0.00328729
9.52364e-05
-0.00326371
6.51921e-05
-0.003243
-0.00322502
3.51815e-05
3.69293e-05
-0.000600228
0.000108358
-0.00159816
0.000183607
-0.00237269
0.000243813
-0.00291577
0.000281477
-0.00325558
0.00029695
-0.00344073
0.000294465
-0.00352161
0.000279193
-0.00353948
0.000255657
-0.00352333
0.000227173
-0.0034912
0.000195898
-0.00345315
0.000163105
-0.00341424
0.000129485
-0.00337672
9.53877e-05
-0.0033415
6.09866e-05
-0.00330894
2.63817e-05
-0.00327924
-8.34242e-06
-0.00325257
-4.31002e-05
-0.00322896
-7.78086e-05
-0.00320829
-0.00319042
-0.000112404
3.46039e-05
-0.000634832
9.86293e-05
-0.00166219
0.000162479
-0.00243654
0.000209306
-0.00296259
0.000233511
-0.00327978
0.000236665
-0.00344388
0.000223491
-0.00350843
0.000199135
-0.00351512
0.000167834
-0.00349203
0.000132556
-0.00345592
9.51547e-05
-0.00341575
5.66839e-05
-0.00337577
1.76909e-05
-0.00333773
-2.1567e-05
-0.00330224
-6.09785e-05
-0.00326953
-0.000100486
-0.00323973
-0.000140033
-0.00321302
-0.000179543
-0.00318945
-0.000218927
-0.0031689
-0.00315124
-0.000258111
3.18898e-05
-0.000666722
8.79728e-05
-0.00171827
0.00014018
-0.00248874
0.000173809
-0.00299622
0.000185054
-0.00329103
0.000176523
-0.00343535
0.000153269
-0.00348518
0.000120322
-0.00348218
8.16043e-05
-0.00345331
3.97472e-05
-0.00341406
-3.66616e-06
-0.00337234
-4.77671e-05
-0.00333167
-9.2123e-05
-0.00329337
-0.000136548
-0.00325782
-0.000180981
-0.00322509
-0.000225403
-0.00319531
-0.000269786
-0.00316864
-0.000314063
-0.00314517
-0.000358133
-0.00312483
-0.00310747
-0.000401904
2.88271e-05
-0.000695549
7.65425e-05
-0.00176598
0.000116994
-0.0025292
0.000137696
-0.00301692
0.000136507
-0.00328984
0.000116894
-0.00341574
8.4111e-05
-0.00345239
4.29993e-05
-0.00344106
-2.84996e-06
-0.00340746
-5.11216e-05
-0.00336579
-0.000100471
-0.00332299
-0.000150183
-0.00328196
-0.000199912
-0.00324364
-0.000249526
-0.0032082
-0.000299002
-0.00317562
-0.00034836
-0.00314595
-0.000397601
-0.0031194
-0.000446669
-0.0030961
-0.000495444
-0.00307606
-0.0030591
-0.000543812
2.54592e-05
-0.000721009
6.44909e-05
-0.00180502
9.31892e-05
-0.00255789
0.000101302
-0.00302504
8.82165e-05
-0.00327675
5.8097e-05
-0.00338562
1.62815e-05
-0.00341058
-3.26277e-05
-0.00339216
-8.5372e-05
-0.00335472
-0.000139931
-0.00331123
-0.00019517
-0.00326775
-0.000250496
-0.00322663
-0.000305631
-0.00318851
-0.000360475
-0.00315336
-0.000415034
-0.00312106
-0.000469365
-0.00309162
-0.000523503
-0.00306526
-0.000577409
-0.00304219
-0.000630946
-0.00302252
-0.00300609
-0.000683956
2.18317e-05
-0.00074284
5.19666e-05
-0.00183515
6.90111e-05
-0.00257494
6.49296e-05
-0.00302096
4.04893e-05
-0.00325231
4.06084e-07
-0.00334554
-4.99914e-05
-0.00336018
-0.000106375
-0.00333577
-0.000165814
-0.00329528
-0.000226561
-0.00325049
-0.000287661
-0.00320665
-0.000348626
-0.00316567
-0.000409219
-0.00312791
-0.000469359
-0.00309322
-0.000529067
-0.00306135
-0.000588429
-0.00303226
-0.000647527
-0.00300616
-0.000706354
-0.00298337
-0.000764756
-0.00296412
-0.00294834
-0.000822504
1.79917e-05
-0.000760832
3.91124e-05
-0.00185627
4.46879e-05
-0.00258051
2.88478e-05
-0.00300512
-6.406e-06
-0.00321706
-5.59376e-05
-0.003296
-0.000114502
-0.00330162
-0.000178069
-0.00327221
-0.000244026
-0.00322932
-0.000310874
-0.00318364
-0.000377821
-0.0031397
-0.000444462
-0.00309902
-0.000510591
-0.00306179
-0.000576121
-0.00302769
-0.000641074
-0.0029964
-0.000705554
-0.00296778
-0.000769697
-0.00294202
-0.000833546
-0.00291952
-0.000896938
-0.00290073
-0.00288574
-0.000959536
1.39869e-05
-0.000774819
2.60645e-05
-0.00186835
2.04284e-05
-0.00257488
-6.70157e-06
-0.00297799
-5.2231e-05
-0.00317153
-0.000110718
-0.00323752
-0.000177061
-0.00323527
-0.000247539
-0.00320173
-0.000319844
-0.00315702
-0.000392708
-0.00311077
-0.000465487
-0.00306692
-0.000537849
-0.00302666
-0.000609609
-0.00299003
-0.000680665
-0.00295663
-0.000751007
-0.00292606
-0.000820735
-0.00289805
-0.000890029
-0.00287272
-0.000959002
-0.00285055
-0.0010275
-0.00283223
-0.00281822
-0.00109503
9.86482e-06
-0.000784684
1.29514e-05
-0.00187143
-3.57675e-06
-0.00255835
-4.15023e-05
-0.00294006
-9.67727e-05
-0.00311626
-0.000163739
-0.00317055
-0.000237486
-0.00316153
-0.000314607
-0.00312461
-0.000393083
-0.00307854
-0.000471863
-0.00303199
-0.000550439
-0.00298835
-0.000628558
-0.00294854
-0.000706058
-0.00291253
-0.000782815
-0.00287988
-0.000858767
-0.0028501
-0.000933968
-0.00282285
-0.00100861
-0.00279808
-0.00108289
-0.00277627
-0.00115667
-0.00275845
-0.00274551
-0.00122938
5.67202e-06
-0.000790356
-1.07191e-07
-0.00186566
-2.7155e-05
-0.0025313
-7.53616e-05
-0.00289185
-0.000139841
-0.00305178
-0.000214819
-0.00309557
-0.0002956
-0.00308074
-0.000379087
-0.00304112
-0.000463537
-0.00299409
-0.000548098
-0.00294743
-0.000632399
-0.00290404
-0.000716273
-0.00286467
-0.000799602
-0.0028292
-0.000882262
-0.00279722
-0.000964133
-0.00276823
-0.00104519
-0.00274179
-0.00112561
-0.00271766
-0.00120569
-0.00269619
-0.00128538
-0.00267876
-0.00266655
-0.00136433
1.45328e-06
-0.000791809
-1.30013e-05
-0.0018512
-5.01526e-05
-0.00249415
-0.00010811
-0.0028339
-0.000181268
-0.00297862
-0.000263794
-0.00301305
-0.000351232
-0.00299331
-0.000440789
-0.00295156
-0.000530975
-0.00290391
-0.00062113
-0.00285728
-0.000711019
-0.00281416
-0.000800579
-0.00277511
-0.000889779
-0.00274
-0.000978535
-0.00270846
-0.00106671
-0.00268006
-0.00115421
-0.00265429
-0.00124118
-0.0026307
-0.00132804
-0.00260932
-0.00141502
-0.00259178
-0.00257887
-0.0015027
-2.74943e-06
-0.000789059
-2.56324e-05
-0.00182832
-7.24358e-05
-0.00244735
-0.000139603
-0.00276673
-0.00022091
-0.00289732
-0.000310518
-0.00292344
-0.000404222
-0.0028996
-0.000499513
-0.00285627
-0.00059514
-0.00280828
-0.000690616
-0.0027618
-0.000785845
-0.00271893
-0.000880896
-0.00268006
-0.000975879
-0.00264501
-0.00107085
-0.00261349
-0.00116578
-0.00258513
-0.00126058
-0.00255949
-0.0013553
-0.00253598
-0.00145036
-0.00251426
-0.0015464
-0.00249574
-0.00247915
-0.00164612
-6.89792e-06
-0.000782162
-3.79148e-05
-0.0017973
-9.38926e-05
-0.00239137
-0.000169724
-0.0026909
-0.000258654
-0.00280839
-0.000354878
-0.00282722
-0.000454437
-0.00280004
-0.000555084
-0.00275563
-0.000655777
-0.00270759
-0.000756173
-0.00266141
-0.000856294
-0.00261881
-0.000956343
-0.00258001
-0.00105661
-0.00254475
-0.00115742
-0.00251268
-0.00125908
-0.00248346
-0.00136184
-0.00245673
-0.00146585
-0.00243197
-0.00157176
-0.00240836
-0.00168205
-0.00238545
-0.00237584
-0.00178536
-1.09453e-05
-0.000771216
-4.97555e-05
-0.00175849
-0.00011441
-0.00232672
-0.000198361
-0.00260695
-0.000294399
-0.00271235
-0.000396779
-0.00272484
-0.000501778
-0.00269504
-0.000607383
-0.00265002
-0.000712716
-0.00260225
-0.000817532
-0.00255659
-0.000921905
-0.00251443
-0.00102607
-0.00247584
-0.00113039
-0.00244044
-0.00123533
-0.00240774
-0.00134157
-0.00237723
-0.00144996
-0.00234834
-0.00156139