/*--------------------------------*- C++ -*----------------------------------*\
  =========                 |
  \\      /  F ield         | OpenFOAM: The Open Source CFD Toolbox
   \\    /   O peration     | Website:  https://openfoam.org
    \\  /    A nd           | Version:  6.0
     \\/     M anipulation  |
\*---------------------------------------------------------------------------*/
FoamFile
{
    version     2.0;
    format      ascii;
    class       volVectorField;
    location    "13";
    object      U;
}
// * * * * * * * * * * * * * * * * * * * * * * * * * * * * * * * * * * * * * //

dimensions      [0 1 -1 0 0 0 0];

internalField   nonuniform List<vector> 
8000
(
(-0.000608162 0.00067888 -3.83206e-21)
(-0.00326959 0.00167806 2.04843e-20)
(-0.00814912 0.00238751 -2.492e-20)
(-0.0141306 0.00288263 1.89782e-20)
(-0.0206527 0.00321728 9.24456e-21)
(-0.0274118 0.00343369 -2.77613e-20)
(-0.0341967 0.00356686 -2.45494e-21)
(-0.0408757 0.00364575 -8.73169e-22)
(-0.047381 0.00369425 -1.44244e-20)
(-0.0536905 0.00373209 -7.81961e-21)
(-0.0598149 0.00377544 5.82684e-21)
(-0.0657875 0.0038373 2.21816e-20)
(-0.0716567 0.00392777 -1.65215e-21)
(-0.077479 0.00405428 2.38643e-21)
(-0.0833159 0.00422165 -2.23793e-20)
(-0.0892405 0.00443205 1.37982e-20)
(-0.095322 0.00468527 -1.97986e-20)
(-0.101512 0.00498095 2.99694e-20)
(-0.10764 0.00531957 -3.33288e-23)
(-0.114486 0.00568399 6.53006e-21)
(-0.000708223 0.00204622 1.27255e-20)
(-0.0034969 0.00504045 -6.50427e-20)
(-0.00843314 0.00714948 -4.49351e-20)
(-0.0144219 0.0086043 -3.05215e-20)
(-0.0209127 0.00957063 -3.92722e-20)
(-0.0276085 0.0101781 8.63645e-21)
(-0.0343022 0.0105336 -4.53496e-20)
(-0.0408651 0.0107251 -1.01945e-20)
(-0.0472313 0.010825 3.20854e-21)
(-0.0533799 0.0108926 3.39135e-20)
(-0.0593221 0.0109767 -3.70177e-20)
(-0.065092 0.0111164 5.15117e-20)
(-0.0707389 0.0113423 -3.8595e-20)
(-0.0763204 0.0116772 -4.58028e-20)
(-0.0818997 0.0121358 -6.31905e-20)
(-0.0875517 0.0127251 4.032e-20)
(-0.093349 0.0134452 -1.3094e-20)
(-0.0992454 0.0142953 -4.7649e-20)
(-0.105067 0.0152775 4.50639e-20)
(-0.111599 0.0163402 -3.36623e-20)
(-0.000906487 0.0033781 1.24416e-19)
(-0.00394872 0.00832072 6.44511e-20)
(-0.00900016 0.0117978 7.24885e-20)
(-0.0150065 0.0141885 6.03385e-21)
(-0.0214386 0.0157665 4.00705e-20)
(-0.0280118 0.0167461 5.00202e-20)
(-0.034528 0.0173045 -9.09129e-20)
(-0.0408644 0.0175872 -4.81633e-20)
(-0.0469585 0.0177142 -6.27564e-20)
(-0.0527916 0.0177845 6.69918e-20)
(-0.0583765 0.0178792 -5.11875e-20)
(-0.0637484 0.0180645 -6.59012e-20)
(-0.0689582 0.0183923 -2.40028e-20)
(-0.0740659 0.018902 2.28088e-20)
(-0.0791376 0.01962 -6.38574e-21)
(-0.0842526 0.02056 9.12785e-21)
(-0.0894894 0.0217233 1.06155e-19)
(-0.094807 0.0231105 -1.48489e-20)
(-0.100026 0.0247268 -1.08118e-19)
(-0.105942 0.0264854 1.43361e-19)
(-0.00119844 0.00465373 4.33137e-20)
(-0.00461726 0.0114697 -6.11519e-20)
(-0.00984408 0.0162636 -1.53481e-20)
(-0.0158823 0.0195513 2.86946e-20)
(-0.0222336 0.0217081 8.14804e-20)
(-0.0286321 0.0230291 1.78418e-19)
(-0.0348925 0.0237586 1.74373e-19)
(-0.0409008 0.0240976 1.45011e-20)
(-0.0466 0.0242125 1.06983e-19)
(-0.0519745 0.0242408 1.63798e-19)
(-0.057039 0.0242966 -1.30957e-19)
(-0.0618305 0.0244736 1.93799e-19)
(-0.0664018 0.0248468 -4.39687e-20)
(-0.070816 0.0254743 1.10478e-20)
(-0.0751437 0.0263974 4.59568e-20)
(-0.0794707 0.0276388 6.11494e-20)
(-0.0838846 0.0292045 -9.61301e-20)
(-0.0883529 0.0310985 -8.03396e-20)
(-0.0926899 0.0333324 -1.42398e-19)
(-0.0977044 0.0357834 2.08282e-19)
(-0.00157793 0.00585593 -2.26238e-20)
(-0.00549153 0.0144456 -2.31644e-19)
(-0.0109557 0.0204868 -6.85262e-20)
(-0.0170452 0.0246184 -1.66995e-19)
(-0.023301 0.0273093 6.3126e-20)
(-0.0294812 0.0289301 -9.95761e-20)
(-0.0354182 0.029788 3.42575e-20)
(-0.0410093 0.0301366 -2.10979e-19)
(-0.0462049 0.0301861 1.11319e-19)
(-0.0509933 0.0301119 -1.32784e-19)
(-0.0553917 0.0300605 -1.18133e-19)
(-0.0594387 0.0301539 -1.32338e-19)
(-0.0631892 0.0304927 1.2018e-19)
(-0.0667099 0.0311566 -1.07968e-19)
(-0.070077 0.0322054 1.50384e-19)
(-0.0733843 0.0336758 4.35361e-20)
(-0.0767324 0.0355824 1.07845e-19)
(-0.0801013 0.0379374 4.74186e-20)
(-0.0832998 0.0407636 -1.87682e-19)
(-0.0871552 0.0439021 3.07201e-19)
(-0.00203776 0.00697202 9.98063e-20)
(-0.00655808 0.0172153 7.65722e-21)
(-0.0123228 0.0244183 4.11096e-20)
(-0.0184878 0.029328 1.43433e-19)
(-0.0246405 0.0324979 -2.19519e-20)
(-0.0305687 0.0343676 2.32954e-19)
(-0.0361263 0.0353022 1.0342e-19)
(-0.0412253 0.0356039 8.6906e-21)
(-0.0458249 0.0355238 2.66024e-19)
(-0.0499187 0.0352728 8.72106e-20)
(-0.0535261 0.0350291 4.1378e-20)
(-0.0566871 0.034944 1.31345e-19)
(-0.0594586 0.0351451 1.20455e-19)
(-0.0619104 0.0357378 2.20053e-19)
(-0.0641249 0.0368055 -1.96698e-19)
(-0.0662056 0.0384052 2.78427e-19)
(-0.0682691 0.0405667 3.83182e-21)
(-0.0703131 0.0433171 -3.56323e-19)
(-0.0721451 0.0466983 4.62326e-19)
(-0.0746156 0.050517 1.9283e-19)
(-0.00257032 0.007994 -5.88166e-20)
(-0.00780154 0.0197553 -1.06791e-19)
(-0.0139295 0.0280213 -2.2217e-19)
(-0.0201974 0.0336322 -6.58326e-21)
(-0.0262455 0.0372172 3.79232e-20)
(-0.0318961 0.0392782 -2.83709e-19)
(-0.0370293 0.0402319 -2.10505e-19)
(-0.0415747 0.0404241 -3.01048e-20)
(-0.0455027 0.0401428 -2.66355e-19)
(-0.0488126 0.0396311 -1.84473e-19)
(-0.0515266 0.0390973 -5.37695e-20)
(-0.0536853 0.0387214 -1.73191e-19)
(-0.0553462 0.0386598 -2.78925e-21)
(-0.0565819 0.0390476 -2.30166e-19)
(-0.0574801 0.0399976 9.69512e-20)
(-0.0581553 0.041595 -1.10588e-19)
(-0.0587427 0.0438948 8.48995e-20)
(-0.0592638 0.0469489 -1.07841e-19)
(-0.0595318 0.0508303 -3.08773e-19)
(-0.0604283 0.0553169 -9.39994e-20)
(-0.00316808 0.00891827 -2.16762e-20)
(-0.00920506 0.0220512 -2.35277e-20)
(-0.0157555 0.0312706 1.86289e-19)
(-0.022154 0.0374971 -3.03163e-19)
(-0.0280981 0.0414273 4.44762e-20)
(-0.0334506 0.0436178 -1.75123e-19)
(-0.0381217 0.0445309 8.27594e-20)
(-0.0420625 0.0445498 3.72035e-19)
(-0.0452565 0.043994 -2.3841e-20)
(-0.0477106 0.0431346 -2.77623e-19)
(-0.0494492 0.0422062 5.04644e-20)
(-0.0505132 0.0414159 9.75826e-21)
(-0.0509591 0.0409494 -5.70872e-20)
(-0.0508599 0.0409743 5.70125e-21)
(-0.0503079 0.0416393 5.01628e-19)
(-0.049428 0.0430677 -7.14064e-20)
(-0.0483764 0.0453518 -1.39474e-19)
(-0.0472042 0.0485838 -2.5052e-19)
(-0.0457412 0.052885 2.5553e-19)
(-0.0449132 0.0580167 1.10506e-19)
(-0.00382388 0.00974479 1.09344e-19)
(-0.0107504 0.0240962 -1.43077e-19)
(-0.0177756 0.0341511 2.02258e-19)
(-0.0243271 0.0409014 2.03574e-19)
(-0.0301652 0.0451034 1.87647e-19)
(-0.0351978 0.0473616 3.80502e-19)
(-0.0393702 0.048177 2.4607e-19)
(-0.0426587 0.0479637 -5.28787e-19)
(-0.0450633 0.0470662 2.70455e-19)
(-0.0465996 0.0457774 2.12257e-19)
(-0.0472953 0.044353 -2.98062e-21)
(-0.0471904 0.0430232 2.37679e-19)
(-0.0463388 0.0420013 1.85394e-19)
(-0.0448115 0.0414882 -1.00838e-19)
(-0.0427023 0.041674 3.41e-19)
(-0.0401452 0.0427303 -4.22781e-19)
(-0.0373178 0.0448023 1.69332e-19)
(-0.034307 0.048043 2.17977e-19)
(-0.0309735 0.0526473 -5.09903e-20)
(-0.0283081 0.0583818 4.38812e-19)
(-0.00453099 0.0104758 2.19847e-19)
(-0.0124173 0.0258889 1.13806e-20)
(-0.0199575 0.0366559 -7.88778e-20)
(-0.0266737 0.0438341 -8.32912e-20)
(-0.0323931 0.0482337 -3.85677e-19)
(-0.0370743 0.0505013 5.46087e-20)
(-0.0407027 0.0511699 1.54738e-19)
(-0.0432843 0.0506774 -7.4408e-20)
(-0.044839 0.049386 6.13783e-20)
(-0.0453937 0.0476031 -1.62909e-20)
(-0.0449808 0.045598 -8.02108e-20)
(-0.0436391 0.0436173 7.60987e-20)
(-0.0414183 0.0418963 -3.31248e-19)
(-0.0383846 0.0406674 3.1747e-19)
(-0.0346297 0.0401642 -2.75163e-19)
(-0.0302932 0.0406151 8.50099e-20)
(-0.0255734 0.0422353 1.93546e-19)
(-0.0205973 0.0452648 -4.03111e-20)
(-0.0152736 0.0500082 -1.34122e-19)
(-0.0106913 0.0562726 -9.11243e-20)
(-0.00528286 0.0111145 -2.73856e-19)
(-0.0141832 0.0274301 -1.796e-20)
(-0.0222609 0.0387819 5.76545e-20)
(-0.0291345 0.0462901 1.48156e-19)
(-0.0347031 0.0508152 -2.09177e-19)
(-0.038981 0.0530408 -1.82509e-19)
(-0.041999 0.0535264 4.25978e-19)
(-0.0437976 0.0527267 -2.35375e-19)
(-0.0444204 0.0510145 -1.51828e-19)
(-0.0439097 0.0487029 -2.17848e-19)
(-0.0423046 0.046066 1.4422e-19)
(-0.0396441 0.043357 -3.92702e-21)
(-0.0359733 0.0408239 -2.69342e-19)
(-0.031351 0.038723 -4.40706e-19)
(-0.0258631 0.0373281 3.35737e-19)
(-0.0196504 0.0369286 -2.72131e-19)
(-0.0129287 0.0378247 3.85965e-19)
(-0.00586755 0.0403727 -1.08154e-19)
(0.00155863 0.0450348 2.28108e-19)
(0.00811519 0.0517133 -7.70812e-19)
(-0.00607262 0.0116636 -5.5465e-19)
(-0.0160216 0.0287209 3.63567e-19)
(-0.0246355 0.0405269 4.94447e-20)
(-0.0316325 0.0482663 9.55765e-21)
(-0.0369882 0.0528481 -2.2401e-19)
(-0.040778 0.0549899 3.29397e-19)
(-0.043083 0.0552728 3.59701e-20)
(-0.0439827 0.0541632 -6.7551e-20)
(-0.0435497 0.0520373 -2.16703e-19)
(-0.0418453 0.0492062 2.34275e-19)
(-0.0389197 0.0459385 5.93902e-19)
(-0.0348153 0.0424824 -1.31241e-19)
(-0.0295741 0.0390854 2.96394e-19)
(-0.0232475 0.0360141 -3.50183e-19)
(-0.0159129 0.0335708 -3.35735e-19)
(-0.0077078 0.0321008 2.01991e-19)
(0.00113878 0.0319962 3.33979e-19)
(0.010416 0.0337582 -1.08192e-18)
(0.0200693 0.038064 1.26956e-19)
(0.0286535 0.0449895 1.7202e-19)
(-0.00689251 0.0121242 4.1072e-19)
(-0.0179016 0.0297592 1.35013e-19)
(-0.02702 0.041886 7.03221e-19)
(-0.0340709 0.049757 3.61519e-20)
(-0.039111 0.0543305 -7.8183e-20)
(-0.0422816 0.0563566 -3.72212e-19)
(-0.0437184 0.0564354 3.16554e-19)
(-0.0435441 0.0550414 5.67744e-19)
(-0.0418647 0.0525494 3.78261e-19)
(-0.0387658 0.0492618 2.72948e-19)
(-0.0343138 0.0454333 2.35222e-19)
(-0.0285602 0.041295 -4.2266e-19)
(-0.0215491 0.0370785 -1.32466e-19)
(-0.0133282 0.0330412 -9.73879e-20)
(-0.00396716 0.0294933 1.04449e-18)
(0.00640158 0.0268169 -3.64768e-21)
(0.0175398 0.0254875 -2.60321e-19)
(0.0291998 0.0261668 -8.21931e-20)
(0.0412428 0.0298093 7.47151e-19)
(0.051934 0.0367656 9.63672e-20)
(-0.0077334 0.0124952 -2.03023e-20)
(-0.0197864 0.0305391 -3.88328e-19)
(-0.0293413 0.0428491 -5.77504e-19)
(-0.0363326 0.0507506 -1.60619e-19)
(-0.0409034 0.0552532 8.86772e-20)
(-0.0432643 0.0571404 1.91157e-20)
(-0.0436087 0.0570306 5.0632e-19)
(-0.0421062 0.055405 -6.27967e-19)
(-0.0388993 0.0526354 -2.3884e-19)
(-0.0341029 0.0490126 -4.81248e-19)
(-0.027806 0.044772 -4.09866e-19)
(-0.0200772 0.0401188 -3.62754e-19)
(-0.0109717 0.0352541 9.06787e-20)
(-0.000542937 0.0304055 -1.17662e-19)
(0.0111391 0.0258616 5.04231e-19)
(0.0239433 0.0220076 -2.76591e-19)
(0.037622 0.0193699 -8.66375e-19)
(0.0518966 0.018759 -1.7477e-19)
(0.0665582 0.0214568 4.2745e-19)
(0.079504 0.0282046 -3.71284e-19)
(-0.00858428 0.0127735 -6.55267e-20)
(-0.0216329 0.0310499 4.74751e-19)
(-0.0315134 0.0433999 -6.05354e-19)
(-0.0382802 0.0512276 1.39953e-19)
(-0.0421671 0.0555974 -2.88069e-19)
(-0.0434568 0.0573276 6.41551e-19)
(-0.042402 0.0570569 -4.58475e-19)
(-0.0392201 0.0552746 5.24489e-19)
(-0.0340929 0.0523511 -4.97172e-19)
(-0.0271682 0.0485671 2.12121e-19)
(-0.018564 0.0441393 -1.02963e-19)
(-0.00837534 0.0392446 -2.58321e-19)
(0.00331772 0.0340462 -3.19058e-19)
(0.0164403 0.0287244 3.17967e-19)
(0.0309052 0.0235176 -2.66185e-19)
(0.0465676 0.0187686 -5.81749e-19)
(0.0631604 0.0149955 6.05673e-19)
(0.0803765 0.0131025 -7.72101e-19)
(0.0979771 0.01471 3.47731e-19)
(0.113445 0.0210539 1.04927e-20)
(-0.00943212 0.0129541 -5.93634e-19)
(-0.0233908 0.0312771 -6.40736e-19)
(-0.0334373 0.0435172 7.38589e-20)
(-0.0397559 0.0511621 -6.1755e-19)
(-0.0426753 0.0553346 -5.48592e-20)
(-0.0425515 0.0568915 -4.54161e-19)
(-0.0396965 0.0564939 -1.04159e-19)
(-0.0343752 0.0546426 -3.04351e-19)
(-0.0268086 0.0517118 2.79488e-21)
(-0.0171795 0.0479783 -1.33105e-19)
(-0.00564069 0.043647 9.45099e-21)
(0.00767622 0.0388734 -3.83531e-19)
(0.022651 0.0337862 4.22656e-19)
(0.0391651 0.0285151 -5.99439e-19)
(0.0570869 0.0232295 2.12304e-19)
(0.0762294 0.0181884 7.95488e-21)
(0.0962793 0.0138259 -3.37566e-19)
(0.116887 0.0110335 8.37077e-19)
(0.137849 0.0117053 -1.99438e-19)
(0.15628 0.0176163 -1.29469e-19)
(-0.0102617 0.0130311 6.6618e-19)
(-0.0250021 0.0312039 3.59629e-19)
(-0.0350002 0.0431766 3.34448e-19)
(-0.0405809 0.0505246 4.99262e-20)
(-0.0421726 0.0544327 4.52107e-19)
(-0.0402049 0.0557986 6.51535e-19)
(-0.0350476 0.0553088 5.33289e-19)
(-0.0270106 0.0534805 4.776e-20)
(-0.016353 0.0506975 3.90474e-19)
(-0.00329352 0.0472422 6.03238e-19)
(0.0119766 0.0433204 -1.56403e-19)
(0.0292799 0.0390813 2.62568e-19)
(0.0484399 0.0346359 2.12029e-19)
(0.0692694 0.0300781 2.15733e-19)
(0.0915584 0.0255142 1.27441e-18)
(0.115037 0.021103 -4.77616e-19)
(0.139298 0.0171294 -2.89834e-20)
(0.163905 0.0143288 5.52517e-19)
(0.188748 0.0147051 -3.1305e-19)
(0.210804 0.0205158 1.54728e-19)
(-0.0110554 0.0129982 -5.3854e-19)
(-0.0263999 0.0308133 3.44081e-20)
(-0.036073 0.042355 -4.30797e-19)
(-0.0405533 0.0492891 -5.60436e-20)
(-0.0403736 0.0528641 3.15271e-19)
(-0.0360372 0.0540208 -9.38577e-19)
(-0.0279695 0.0534734 -6.99765e-22)
(-0.0165233 0.0517585 4.3674e-19)
(-0.00199361 0.0492763 4.10223e-19)
(0.0153648 0.0463239 -1.80663e-19)
(0.0353185 0.0431219 5.95342e-20)
(0.0576362 0.039833 1.38085e-19)
(0.0820703 0.0365775 -6.54495e-20)
(0.108341 0.0334474 -7.32901e-19)
(0.136121 0.0305239 1.85568e-19)
(0.165005 0.0278974 5.09852e-19)
(0.194428 0.0256974 -7.26139e-19)
(0.223768 0.024389 3.53836e-19)
(0.253018 0.0258788 9.46821e-20)
(0.279514 0.0327578 4.78149e-19)
(-0.0117929 0.0128499 -7.93906e-20)
(-0.0275067 0.0300904 -3.77122e-19)
(-0.0365079 0.0410351 1.73551e-19)
(-0.0394444 0.0474401 8.29516e-22)
(-0.0369586 0.050618 -7.56038e-19)
(-0.0296287 0.0515529 1.1801e-19)
(-0.0179347 0.0509871 -2.23964e-20)
(-0.00227087 0.049478 1.52576e-19)
(0.0170316 0.0474451 -6.98369e-19)
(0.0396799 0.0452067 -4.89258e-20)
(0.0653945 0.043008 -1.64e-19)
(0.0938835 0.0410425 1.45939e-19)
(0.124819 0.0394675 4.92412e-19)
(0.157812 0.0384177 -7.61626e-20)
(0.19239 0.0380189 2.9501e-20)
(0.227955 0.038392 1.93403e-19)
(0.263678 0.0396352 -4.79204e-20)
(0.298562 0.0420527 3.88744e-19)
(0.332456 0.0475149 -2.26759e-19)
(0.363579 0.0587196 -3.5434e-19)
(-0.0124498 0.0125808 7.3718e-20)
(-0.0282318 0.0290242 1.80458e-20)
(-0.0361343 0.0392097 1.51182e-19)
(-0.036993 0.0449808 3.7023e-19)
(-0.0315682 0.0477124 2.07743e-19)
(-0.0205154 0.0484302 2.16618e-20)
(-0.00437119 0.0479024 -2.47938e-19)
(0.0164252 0.0467051 6.35669e-20)
(0.0415008 0.045275 3.34252e-19)
(0.070517 0.0439498 -5.66382e-19)
(0.10314 0.0429986 4.27347e-19)
(0.139011 0.0426469 -3.21965e-19)
(0.177727 0.0430975 2.73113e-19)
(0.218811 0.0445521 -5.88897e-19)
(0.261691 0.0472356 6.47484e-19)
(0.305648 0.0514148 -6.92286e-19)
(0.349675 0.0573968 -1.79667e-19)
(0.392382 0.0658145 5.62545e-19)
(0.432687 0.0791615 -1.90704e-19)
(0.467385 0.0997646 8.38899e-20)
(-0.0129967 0.0121865 -5.57423e-20)
(-0.028468 0.0276086 5.26116e-19)
(-0.0347539 0.0368852 -2.20515e-21)
(-0.0329014 0.0419399 -3.26605e-19)
(-0.0237989 0.044205 -2.19602e-19)
(-0.00818622 0.0447443 4.02356e-19)
(0.0133351 0.0443466 -1.59366e-19)
(0.0402683 0.0436008 -2.00749e-20)
(0.0721809 0.0429522 3.32125e-19)
(0.108665 0.042745 -4.12621e-19)
(0.149307 0.0432541 4.52091e-20)
(0.193662 0.0447108 -5.36288e-19)
(0.241238 0.0473265 2.82259e-19)
(0.291499 0.0513194 -8.07301e-19)
(0.343866 0.05695 1.28492e-18)
(0.397742 0.064567 -2.35656e-19)
(0.452535 0.0747101 2.44002e-19)
(0.50792 0.0886316 -6.34084e-19)
(0.564251 0.109433 5.77755e-21)
(0.613224 0.134312 7.07018e-19)
(-0.0133972 0.0116624 -1.68788e-19)
(-0.0280882 0.0258437 1.45781e-19)
(-0.0321379 0.0340846 -5.37166e-19)
(-0.0268323 0.0383759 7.94548e-19)
(-0.013203 0.0401998 -5.73656e-19)
(0.00791218 0.040652 2.96207e-20)
(0.0358279 0.0405347 -6.18695e-19)
(0.0699626 0.0404389 4.42371e-19)
(0.109786 0.0408041 -6.32121e-20)
(0.154774 0.0419601 -3.90422e-19)
(0.204375 0.0441567 -2.27768e-19)
(0.257992 0.0475857 2.40732e-19)
(0.314978 0.0524002 1.59037e-19)
(0.374652 0.0587304 -7.03241e-19)
(0.436331 0.0667011 2.54087e-19)
(0.499378 0.0764432 -3.73686e-19)
(0.563264 0.088111 4.51667e-20)
(0.627773 0.102054 -3.15223e-19)
(0.69354 0.11941 1.26035e-19)
(0.753658 0.137242 -4.67733e-19)
(-0.0136055 0.0110041 4.80545e-19)
(-0.0269428 0.0237361 -2.91128e-19)
(-0.0280248 0.030849 2.39876e-19)
(-0.0184102 0.0343801 -3.02839e-19)
(0.000704663 0.03585 5.07553e-19)
(0.0283602 0.0363779 -8.86054e-21)
(0.0637531 0.0367684 -6.18166e-20)
(0.106169 0.0376005 -4.58495e-20)
(0.15492 0.0392888 2.82122e-19)
(0.209288 0.0421228 4.79701e-19)
(0.268499 0.046294 -2.8335e-19)
(0.331711 0.0519147 2.75396e-19)
(0.398025 0.0590333 5.02578e-19)
(0.466514 0.0676448 -3.52436e-19)
(0.536265 0.0776989 -7.13719e-19)
(0.606433 0.0890998 1.30337e-18)
(0.676295 0.101693 -2.32949e-19)
(0.745322 0.115295 -7.51713e-20)
(0.813543 0.130156 8.0187e-19)
(0.876378 0.146039 -1.7198e-19)
(-0.0135657 0.0102076 -7.82055e-19)
(-0.0248585 0.0213009 -5.20583e-19)
(-0.0221226 0.0272395 -1.9984e-19)
(-0.00722894 0.0300773 3.85621e-19)
(0.0184306 0.0313567 -8.70739e-19)
(0.0537357 0.0322078 4.51049e-19)
(0.0977111 0.0334222 5.71762e-20)
(0.149439 0.0355468 5.78334e-20)
(0.207981 0.0389452 -5.91024e-19)
(0.272332 0.0438345 -2.0871e-19)
(0.341392 0.0503114 -3.67787e-19)
(0.413979 0.0583712 3.55082e-19)
(0.488858 0.0679237 1.00463e-19)
(0.564793 0.0788077 1.93344e-20)
(0.640599 0.0908009 4.60171e-19)
(0.715205 0.103626 -4.66821e-19)
(0.787692 0.116947 -1.9114e-20)
(0.857334 0.130382 1.286e-20)
(0.923727 0.14372 6.4718e-20)
(0.98461 0.158818 3.54041e-19)
(-0.0132107 0.00927077 2.48956e-19)
(-0.0216392 0.0185638 6.4113e-19)
(-0.0141143 0.0233398 5.14481e-19)
(0.00713486 0.0256269 -1.77394e-19)
(0.0404765 0.0269658 6.17203e-19)
(0.0845713 0.0284794 -5.19976e-20)
(0.138192 0.030923 -7.32761e-20)
(0.200117 0.034782 4.36228e-20)
(0.26905 0.0403328 5.97021e-19)
(0.343581 0.0476798 3.50805e-19)
(0.422186 0.0567832 1.0247e-19)
(0.503268 0.0674838 6.4237e-21)
(0.585222 0.0795281 -6.78085e-19)
(0.666504 0.0925916 5.89186e-19)
(0.745714 0.106301 1.00494e-19)
(0.821645 0.120252 -1.66137e-19)
(0.893327 0.134021 -7.15178e-19)
(0.960052 0.147196 -5.91519e-20)
(1.02132 0.159316 2.80301e-19)
(1.07681 0.173508 -5.60999e-20)
(-0.0124626 0.00819503 -6.31349e-19)
(-0.0170696 0.015565 2.64156e-19)
(-0.00366749 0.0192589 -1.29001e-18)
(0.0251023 0.0212231 5.28535e-19)
(0.0673063 0.0229647 -4.2158e-19)
(0.121302 0.0255711 3.10862e-19)
(0.185502 0.0297273 -4.83117e-19)
(0.258256 0.0358147 4.43469e-20)
(0.337782 0.0439748 -2.49199e-20)
(0.422156 0.0541493 1.29965e-19)
(0.509355 0.0661169 1.8752e-19)
(0.597345 0.0795319 -3.54338e-19)
(0.684182 0.0939638 1.87757e-19)
(0.768114 0.108936 1.72021e-19)
(0.84766 0.123961 7.40003e-19)
(0.921664 0.138568 -3.22139e-19)
(0.989314 0.152324 -2.12156e-19)
(1.05014 0.164878 3.55877e-19)
(1.10387 0.175728 1.87352e-19)
(1.15139 0.188475 -3.56143e-19)
(-0.0112338 0.00698775 5.5275e-19)
(-0.010921 0.0123638 5.32932e-19)
(0.0095523 0.0151358 1.53882e-19)
(0.0470679 0.0170977 6.48096e-19)
(0.0993066 0.0196783 3.18574e-19)
(0.16421 0.0238895 -5.74389e-19)
(0.239692 0.0302962 8.70215e-19)
(0.323533 0.0391191 -4.28285e-19)
(0.413338 0.0503044 4.27587e-19)
(0.506588 0.0635761 5.5309e-19)
(0.600744 0.0784908 -3.16053e-19)
(0.693391 0.0944974 6.00903e-20)
(0.782372 0.110996 3.3405e-19)
(0.865904 0.127393 2.34912e-19)
(0.942641 0.143141 5.39267e-19)
(1.0117 0.157776 -2.16691e-19)
(1.07264 0.170929 -2.74723e-20)
(1.12542 0.182357 3.36647e-19)
(1.1702 0.191684 -7.28358e-20)
(1.20853 0.202427 2.8913e-23)
(-0.00943003 0.00566495 -2.85278e-19)
(-0.00295958 0.00904322 -1.0485e-18)
(0.0258651 0.0111437 2.46992e-19)
(0.0733723 0.0135199 -1.88064e-19)
(0.136747 0.017464 -4.34379e-19)
(0.213369 0.0238546 -3.10391e-19)
(0.300499 0.0330697 -1.9178e-19)
(0.3952 0.045097 4.65661e-19)
(0.494369 0.0596201 -2.76557e-19)
(0.594872 0.0760939 -2.83349e-19)
(0.693722 0.0938282 -3.57888e-19)
(0.788275 0.112073 -5.90677e-20)
(0.876375 0.130098 -4.04244e-20)
(0.956451 0.147253 -8.24391e-19)
(1.02754 0.163009 3.98104e-19)
(1.08924 0.176982 -5.2383e-19)
(1.14164 0.188933 1.6299e-19)
(1.18522 0.198768 -1.24147e-18)
(1.22066 0.206324 3.74594e-19)
(1.24978 0.21471 4.69876e-19)
(-0.00695267 0.00425369 -7.16791e-20)
(0.00704359 0.0057149 5.11148e-19)
(0.0455578 0.00749303 3.27967e-20)
(0.104272 0.0107964 7.89086e-20)
(0.179737 0.0167029 -1.60459e-19)
(0.268602 0.0258811 -2.69486e-21)
(0.367307 0.0384368 -4.15667e-21)
(0.472078 0.0540417 -9.69385e-20)
(0.579072 0.0720517 3.43891e-19)
(0.684608 0.0916188 1.32836e-19)
(0.785427 0.111811 6.02707e-19)
(0.878898 0.131722 -1.64203e-19)
(0.963144 0.150561 1.144e-19)
(1.03707 0.167708 -1.45698e-20)
(1.1003 0.182736 3.16093e-19)
(1.15307 0.195413 1.92658e-19)
(1.19608 0.205674 4.6224e-19)
(1.2303 0.213593 -7.45363e-19)
(1.25687 0.219236 9.35349e-19)
(1.27769 0.225193 -2.95924e-19)
(-0.003703 0.0027941 -6.65734e-19)
(0.0193008 0.00252165 -2.08034e-19)
(0.0688633 0.0044325 1.62447e-19)
(0.139911 0.00926584 1.02461e-19)
(0.228193 0.017787 1.0522e-19)
(0.329446 0.0303556 1.06577e-19)
(0.439139 0.0467052 -2.66957e-19)
(0.552602 0.0661081 -1.10273e-19)
(0.665309 0.0875439 3.42783e-20)
(0.773221 0.109861 -3.26762e-19)
(0.873073 0.13193 -1.47571e-19)
(0.962558 0.152772 8.91332e-19)
(1.04036 0.17163 -2.3007e-19)
(1.1061 0.188009 -3.16022e-19)
(1.16011 0.201662 -1.49159e-19)
(1.2033 0.212555 1.03737e-19)
(1.23694 0.22082 1.25437e-19)
(1.26243 0.226693 -6.00674e-19)
(1.28121 0.23043 8.67115e-19)
(1.29512 0.234114 -7.50603e-19)
(0.00041378 0.00134055 -7.51436e-20)
(0.033995 -0.000361333 2.14949e-20)
(0.0959394 0.00224635 -2.75923e-20)
(0.180291 0.00928987 4.02355e-19)
(0.28181 0.0211002 2.23004e-20)
(0.395145 0.0376098 1.47872e-19)
(0.514691 0.0580737 -3.07431e-19)
(0.634916 0.0812948 -1.11851e-20)
(0.750792 0.105863 4.26932e-19)
(0.858211 0.130366 5.93959e-20)
(0.954244 0.153569 -3.71427e-19)
(1.03723 0.174525 -3.26497e-20)
(1.10665 0.192624 -3.03997e-19)
(1.16295 0.207578 3.03068e-19)
(1.20723 0.219371 4.1934e-19)
(1.24103 0.228189 -4.61678e-20)
(1.26602 0.234346 -5.59003e-20)
(1.2839 0.23821 1.70497e-19)
(1.29623 0.240173 -5.46099e-19)
(1.30473 0.241886 4.81549e-19)
(0.00548391 -3.78609e-05 7.57036e-20)
(0.0512662 -0.00272804 -4.87703e-19)
(0.126848 0.00124764 1.30466e-19)
(0.225247 0.0112381 -4.0534e-19)
(0.340048 0.0269957 1.39446e-19)
(0.46466 0.0478939 -5.17904e-19)
(0.592397 0.072611 2.08961e-19)
(0.717016 0.0994438 -6.65916e-20)
(0.833286 0.126627 -2.73613e-21)
(0.937401 0.152582 6.79702e-20)
(1.02712 0.17609 -2.47344e-19)
(1.10169 0.196362 -3.52679e-19)
(1.16155 0.213025 -7.20679e-20)
(1.20798 0.226061 -3.23456e-20)
(1.24279 0.235703 -8.19837e-20)
(1.26796 0.242341 -2.66317e-20)
(1.28544 0.246439 -7.96796e-20)
(1.29703 0.248454 -6.89731e-20)
(1.30429 0.248853 -2.04392e-19)
(1.30877 0.248942 3.23698e-19)
(0.0115801 -0.00125775 1.81598e-19)
(0.0711982 -0.00434586 -2.01746e-19)
(0.161536 0.0017674 4.34378e-19)
(0.274436 0.0154695 -1.87667e-19)
(0.402132 0.0357709 5.01645e-19)
(0.536722 0.0613538 7.30316e-21)
(0.670538 0.0902488 2.5202e-19)
(0.796913 0.12026 -6.7663e-20)
(0.910809 0.149357 2.81514e-19)
(1.00911 0.175932 2.01853e-20)
(1.09059 0.19892 6.68888e-19)
(1.15555 0.217801 -4.61368e-19)
(1.20542 0.232511 6.23117e-20)
(1.24225 0.243321 1.1861e-19)
(1.26835 0.250699 6.18167e-19)
(1.28601 0.255204 -2.22006e-19)
(1.29728 0.257399 -4.38825e-20)
(1.30391 0.257785 -2.31614e-19)
(1.30734 0.256857 -2.41165e-20)
(1.30895 0.255658 1.15661e-19)
(0.0187565 -0.00222284 -8.69528e-20)
(0.0938061 -0.0049623 2.51511e-19)
(0.199822 0.00414045 -2.5796e-19)
(0.32733 0.0223108 1.01708e-19)
(0.467084 0.047645 -1.21999e-19)
(0.609898 0.0780186 4.47384e-19)
(0.747366 0.110791 -6.24772e-20)
(0.872796 0.143348 1.53308e-19)
(0.981781 0.173538 -9.04363e-20)
(1.07227 0.199881 -2.47364e-21)
(1.14422 0.221601 1.02875e-19)
(1.19909 0.23853 -7.96704e-20)
(1.23917 0.250945 2.06476e-19)
(1.26714 0.259392 -1.02979e-19)
(1.28564 0.264535 -4.51829e-19)
(1.29705 0.26705 4.48804e-19)
(1.30337 0.267552 -2.01732e-19)
(1.30622 0.266543 1.61032e-19)
(1.30687 0.264516 2.785e-19)
(1.30647 0.262309 1.1435e-19)
(0.0270434 -0.00282617 2.16473e-19)
(0.119026 -0.00431414 -4.46201e-19)
(0.24139 0.00868867 8.53164e-20)
(0.383225 0.0320352 -6.19896e-20)
(0.533761 0.0627412 -2.50416e-19)
(0.682687 0.0977984 -1.96531e-19)
(0.821232 0.133935 -3.86994e-20)
(0.943154 0.168259 -3.50204e-19)
(1.0451 0.198671 -2.1373e-20)
(1.12636 0.223983 -6.5032e-20)
(1.18818 0.243813 -1.7633e-19)
(1.23306 0.258394 -3.92158e-20)
(1.26404 0.268333 -1.34728e-19)
(1.28419 0.274415 -2.24388e-19)
(1.29629 0.277445 2.29463e-19)
(1.30267 0.278165 3.13889e-20)
(1.30519 0.277193 6.25401e-20)
(1.30524 0.275006 -2.63447e-19)
(1.30392 0.272076 -6.71307e-21)
(1.30216 0.269081 -4.05359e-19)
(0.036443 -0.00295333 2.36922e-19)
(0.146707 -0.00213841 1.58145e-19)
(0.285785 0.0157034 -2.55359e-19)
(0.441269 0.0448441 3.98746e-19)
(0.600922 0.0810781 -4.30925e-20)
(0.753616 0.120496 1.49042e-19)
(0.890692 0.159308 5.16187e-20)
(1.00686 0.194531 1.82733e-19)
(1.10017 0.224315 -1.431e-19)
(1.17138 0.247899 4.76482e-20)
(1.22303 0.265369 -4.56989e-20)
(1.2585 0.27736 -2.00046e-20)
(1.28135 0.284776 3.81603e-20)
(1.29485 0.288583 -7.02006e-20)
(1.30174 0.289674 -2.15025e-20)
(1.3042 0.288803 -6.58509e-20)
(1.30386 0.286561 -1.06902e-19)
(1.30191 0.283378 6.9061e-20)
(1.29921 0.279702 -9.44612e-20)
(1.29654 0.276073 4.08354e-19)
(0.0469251 -0.00248635 -1.18167e-19)
(0.176609 0.00181546 -3.35156e-19)
(0.33243 0.0254282 -4.46413e-20)
(0.500493 0.0608523 -1.22627e-20)
(0.667295 0.102569 -1.50344e-19)
(0.821324 0.145826 -2.46937e-19)
(0.954581 0.186497 8.07944e-20)
(1.06317 0.221732 -1.11025e-19)
(1.14679 0.250109 -1.243e-19)
(1.20773 0.271401 6.92196e-20)
(1.24962 0.286187 -5.22775e-20)
(1.27655 0.295479 -1.05679e-19)
(1.29238 0.300421 -3.48052e-21)
(1.30037 0.302099 7.15717e-20)
(1.30314 0.301438 -7.28824e-20)
(1.30262 0.299167 1.01135e-19)
(1.30019 0.295828 2.72542e-20)
(1.29683 0.291792 6.84593e-20)
(1.29321 0.287487 1.33166e-19)
(1.28995 0.283325 -1.14036e-19)
(0.0584251 -0.00130847 1.12805e-19)
(0.208403 0.00777286 -9.81705e-21)
(0.380638 0.0380439 5.07889e-20)
(0.559861 0.0800807 -6.88259e-20)
(0.731646 0.127031 5.7473e-21)
(0.884639 0.173441 2.39025e-19)
(1.01205 0.215086 -1.5695e-19)
(1.11172 0.249477 6.65049e-20)
(1.18515 0.275776 5.86451e-20)
(1.23602 0.29435 -1.64613e-19)
(1.2689 0.306262 1.54656e-19)
(1.28832 0.312847 1.38738e-21)
(1.29824 0.315426 -1.08862e-19)
(1.30182 0.315143 1.31184e-19)
(1.3014 0.312909 -5.20397e-20)
(1.29866 0.309405 3.97726e-20)
(1.29475 0.305103 -4.44885e-20)
(1.29041 0.300321 -1.78366e-20)
(1.28619 0.295467 -1.55411e-19)
(1.28255 0.290831 4.76391e-20)
(0.0708424 0.000690873 -3.79347e-20)
(0.24168 0.0159218 1.02031e-19)
(0.429641 0.0536567 1.5947e-20)
(0.61832 0.102455 6.68004e-20)
(0.792842 0.1542 3.19153e-20)
(0.942614 0.202955 1.49662e-20)
(1.06254 0.244674 8.47521e-20)
(1.15247 0.27744 -1.0266e-20)
(1.21566 0.301113 3.73677e-20)
(1.25702 0.316675 6.00097e-20)
(1.28181 0.325631 2.89498e-20)
(1.29482 0.329574 2.07821e-20)
(1.29991 0.329931 8.42537e-20)
(1.30001 0.327855 -8.15621e-20)
(1.29718 0.32421 1.74983e-20)
(1.29284 0.319605 -1.63933e-20)
(1.28788 0.314443 2.53404e-20)
(1.28291 0.308987 2.1231e-20)
(1.27831 0.303635 4.43031e-20)
(1.27444 0.298555 1.83068e-21)
(0.0840415 0.00361071 2.24959e-20)
(0.275958 0.0264018 2.05493e-20)
(0.478617 0.0722905 -2.84735e-20)
(0.674842 0.127811 1.77964e-20)
(0.849894 0.183747 1.00621e-20)
(0.994543 0.23397 -3.13126e-20)
(1.10579 0.274889 1.03296e-20)
(1.1856 0.30535 1.87671e-21)
(1.23886 0.325977 1.78129e-20)
(1.27151 0.338349 -4.77847e-20)
(1.28926 0.34435 -1.49214e-22)
(1.2969 0.345759 1.32431e-20)
(1.29813 0.344049 -1.0555e-20)
(1.29556 0.340336 1.06765e-20)
(1.29097 0.335411 2.78667e-20)
(1.28549 0.329808 -1.5861e-20)
(1.27984 0.323857 4.41452e-21)
(1.27446 0.317776 1.73769e-20)
(1.26965 0.311956 -2.86292e-20)
(1.26566 0.306439 1.3752e-20)
(0.0978547 0.00753348 6.25506e-20)
(0.310703 0.0392949 -3.40671e-20)
(0.526729 0.093884 4.01507e-20)
(0.728475 0.155902 -2.98857e-20)
(0.901984 0.215297 -1.34124e-20)
(1.03996 0.266085 4.06231e-21)
(1.14176 0.305399 -1.31674e-20)
(1.21147 0.332989 4.73556e-20)
(1.2554 0.350268 -3.94479e-20)
(1.28028 0.359367 9.26215e-21)
(1.29201 0.362474 -6.89944e-21)
(1.29529 0.361482 -4.4986e-20)
(1.2935 0.357854 4.36494e-20)
(1.28894 0.352639 1.66312e-20)
(1.28309 0.346542 -1.65385e-20)
(1.27684 0.340015 3.88474e-20)
(1.27075 0.333321 -5.67768e-22)
(1.26515 0.326645 -3.76993e-20)
(1.26024 0.320371 2.79224e-20)
(1.25621 0.314412 8.82167e-21)
(0.112086 0.0125206 -2.19243e-20)
(0.345343 0.0546198 6.35506e-20)
(0.573154 0.118293 7.35003e-20)
(0.778366 0.186413 -3.4712e-20)
(0.948479 0.248449 6.03786e-20)
(1.07859 0.298912 9.5612e-20)
(1.17059 0.335904 -5.28312e-21)
(1.23052 0.360173 -1.64499e-20)
(1.26592 0.37391 8.11789e-20)
(1.28401 0.379729 3.96067e-20)
(1.29075 0.380042 -7.20128e-21)
(1.29055 0.376788 5.91101e-20)
(1.28647 0.371381 -6.34402e-20)
(1.28047 0.364777 9.88287e-20)
(1.27375 0.35759 -1.64868e-20)
(1.26701 0.350191 4.73112e-20)
(1.26068 0.342786 8.55193e-21)
(1.255 0.335531 3.38733e-20)
(1.25008 0.328807 -3.22304e-20)
(1.2461 0.322392 7.80799e-21)
(0.126514 0.018608 -3.4125e-20)
(0.379289 0.0723272 8.07197e-20)
(0.617108 0.145292 6.00333e-20)
(0.823789 0.218973 -9.11419e-21)
(0.988923 0.282782 9.37251e-20)
(1.11036 0.332079 -7.01637e-20)
(1.19252 0.366136 -5.52985e-21)
(1.24325 0.386748 6.19015e-20)
(1.27103 0.396839 1.96519e-20)
(1.28334 0.399426 2.75644e-20)
(1.286 0.397068 -4.07315e-20)
(1.28312 0.391693 1.06358e-19)
(1.27736 0.384629 1.99015e-20)
(1.27036 0.37673 -9.42982e-20)
(1.2631 0.368513 1.38008e-19)
(1.2561 0.36028 -1.62905e-19)
(1.24968 0.352182 -7.48959e-20)
(1.24403 0.344356 1.24142e-20)
(1.23918 0.337181 7.27358e-20)
(1.2353 0.330295 -1.37412e-19)
(0.140904 0.0258037 -7.65332e-20)
(0.411955 0.0923004 -1.80707e-19)
(0.657879 0.174588 -1.56443e-19)
(0.864154 0.253171 -2.1303e-19)
(1.02303 0.317872 -1.2102e-19)
(1.13532 0.365235 -2.51019e-19)
(1.20791 0.395851 3.19027e-20)
(1.25018 0.412573 -1.33562e-19)
(1.27128 0.418991 -1.46977e-20)
(1.27878 0.418435 2.19991e-20)