/*--------------------------------*- C++ -*----------------------------------*\
  =========                 |
  \\      /  F ield         | OpenFOAM: The Open Source CFD Toolbox
   \\    /   O peration     | Website:  https://openfoam.org
    \\  /    A nd           | Version:  6.0
     \\/     M anipulation  |
\*---------------------------------------------------------------------------*/
FoamFile
{
    version     2.0;
    format      ascii;
    class       volScalarField;
    location    "13.3";
    object      p;
}
// * * * * * * * * * * * * * * * * * * * * * * * * * * * * * * * * * * * * * //

dimensions      [0 2 -2 0 0 0 0];

internalField   nonuniform List<scalar> 
8000
(
-0.289015
-0.290234
-0.291018
-0.291582
-0.292059
-0.292471
-0.292838
-0.293178
-0.293502
-0.293818
-0.294135
-0.294458
-0.294795
-0.295151
-0.295536
-0.295964
-0.296439
-0.296891
-0.297295
-0.298376
-0.289174
-0.290379
-0.291154
-0.29171
-0.292179
-0.292583
-0.292943
-0.293274
-0.293589
-0.293896
-0.294203
-0.294516
-0.294842
-0.295188
-0.295561
-0.295979
-0.296444
-0.296887
-0.297281
-0.298358
-0.289495
-0.290674
-0.29143
-0.291971
-0.292424
-0.292813
-0.293156
-0.293471
-0.293768
-0.294057
-0.294344
-0.294636
-0.294941
-0.295264
-0.295615
-0.296011
-0.296456
-0.296882
-0.297254
-0.298323
-0.289973
-0.291113
-0.291843
-0.29236
-0.29279
-0.293155
-0.293473
-0.293762
-0.294032
-0.294292
-0.294549
-0.294809
-0.295079
-0.295367
-0.295684
-0.296045
-0.296459
-0.296856
-0.297197
-0.298251
-0.290599
-0.291692
-0.292387
-0.292874
-0.293272
-0.293604
-0.293888
-0.294141
-0.294373
-0.294592
-0.294806
-0.29502
-0.295243
-0.295482
-0.295748
-0.296061
-0.296431
-0.296787
-0.297084
-0.298117
-0.291365
-0.292403
-0.293057
-0.293506
-0.293864
-0.294154
-0.294394
-0.294599
-0.294781
-0.294947
-0.295104
-0.295258
-0.295417
-0.29559
-0.295789
-0.296037
-0.296346
-0.296647
-0.296886
-0.297889
-0.292261
-0.293241
-0.293847
-0.294251
-0.29456
-0.294798
-0.294983
-0.29513
-0.295249
-0.295348
-0.295432
-0.295509
-0.295586
-0.295674
-0.295787
-0.295949
-0.296178
-0.296407
-0.296574
-0.297538
-0.293281
-0.294199
-0.294753
-0.295104
-0.295356
-0.295533
-0.295651
-0.295727
-0.295771
-0.295787
-0.295783
-0.295765
-0.295742
-0.295724
-0.295727
-0.29578
-0.295906
-0.296042
-0.296121
-0.297035
-0.29442
-0.295275
-0.295772
-0.296062
-0.296249
-0.296354
-0.296396
-0.29639
-0.296344
-0.296266
-0.296158
-0.296027
-0.295883
-0.295736
-0.295605
-0.295521
-0.295516
-0.295531
-0.295501
-0.296355
-0.295675
-0.296466
-0.296901
-0.297124
-0.297236
-0.297261
-0.297217
-0.297118
-0.296974
-0.296787
-0.296562
-0.296303
-0.296018
-0.295719
-0.295425
-0.295174
-0.295004
-0.294864
-0.294695
-0.295473
-0.297049
-0.297774
-0.298141
-0.298291
-0.29832
-0.298256
-0.298117
-0.297919
-0.297666
-0.297364
-0.297011
-0.29661
-0.296168
-0.295695
-0.295211
-0.294758
-0.29438
-0.294041
-0.293689
-0.294367
-0.298547
-0.299203
-0.299497
-0.299564
-0.299503
-0.299342
-0.299102
-0.298797
-0.298433
-0.298009
-0.297524
-0.296975
-0.296364
-0.295699
-0.294999
-0.294306
-0.293672
-0.293071
-0.292471
-0.293003
-0.300179
-0.30076
-0.300972
-0.300948
-0.300787
-0.300522
-0.300176
-0.299761
-0.299284
-0.298739
-0.298122
-0.297424
-0.296641
-0.295774
-0.294835
-0.293865
-0.29292
-0.291978
-0.291029
-0.291334
-0.301956
-0.302455
-0.302574
-0.302448
-0.302178
-0.301801
-0.301342
-0.300816
-0.300226
-0.299565
-0.298822
-0.297982
-0.297031
-0.29596
-0.29477
-0.293491
-0.292174
-0.290795
-0.289354
-0.289292
-0.303895
-0.304299
-0.304313
-0.304072
-0.30368
-0.303181
-0.302603
-0.301962
-0.30126
-0.300488
-0.299628
-0.298657
-0.29755
-0.296283
-0.294838
-0.293225
-0.291481
-0.289558
-0.287435
-0.28679
-0.306013
-0.306307
-0.3062
-0.305827
-0.305298
-0.304664
-0.303957
-0.303195
-0.302379
-0.301498
-0.300529
-0.299439
-0.298191
-0.296741
-0.295048
-0.293092
-0.290878
-0.288311
-0.285292
-0.28376
-0.308332
-0.308496
-0.308248
-0.307724
-0.307039
-0.306252
-0.3054
-0.304506
-0.303569
-0.302576
-0.301499
-0.300298
-0.298922
-0.297306
-0.295383
-0.293093
-0.290396
-0.287132
-0.283036
-0.280239
-0.310877
-0.310889
-0.310476
-0.309777
-0.308912
-0.307949
-0.306934
-0.305889
-0.304816
-0.303701
-0.302512
-0.301201
-0.299705
-0.297943
-0.295813
-0.293212
-0.290043
-0.28606
-0.280736
-0.276172
-0.313678
-0.313512
-0.312907
-0.312005
-0.310932
-0.309768
-0.308563
-0.307346
-0.306118
-0.304866
-0.303556
-0.302138
-0.300542
-0.298673
-0.296408
-0.293589
-0.290033
-0.285325
-0.278488
-0.27137
-0.316772
-0.316396
-0.315568
-0.314432
-0.313122
-0.311727
-0.310307
-0.308893
-0.30749
-0.306086
-0.304652
-0.303144
-0.301501
-0.29965
-0.297489
-0.294895
-0.291686
-0.287336
-0.280465
-0.272327
-0.320202
-0.31958
-0.318495
-0.317092
-0.315513
-0.31386
-0.312198
-0.310563
-0.308965
-0.307398
-0.305839
-0.30426
-0.302632
-0.300934
-0.299171
-0.29741
-0.29582
-0.294697
-0.295254
-0.304029
-0.324019
-0.323108
-0.321728
-0.320026
-0.318147
-0.316208
-0.31428
-0.312405
-0.310598
-0.308855
-0.307166
-0.305518
-0.303909
-0.302361
-0.300942
-0.299804
-0.299225
-0.299645
-0.302035
-0.310621
-0.328278
-0.327029
-0.325314
-0.323279
-0.321073
-0.318824
-0.316613
-0.314483
-0.312454
-0.310528
-0.308701
-0.306975
-0.305366
-0.30392
-0.302731
-0.301965
-0.301875
-0.302808
-0.305254
-0.311383
-0.333039
-0.331395
-0.329304
-0.326905
-0.324346
-0.321768
-0.319258
-0.316863
-0.314602
-0.312481
-0.310501
-0.308668
-0.307007
-0.30557
-0.304444
-0.303764
-0.303707
-0.304473
-0.306281
-0.310004
-0.338362
-0.336261
-0.333752
-0.330959
-0.328025
-0.325102
-0.322281
-0.319608
-0.317102
-0.314765
-0.312597
-0.310604
-0.308807
-0.307248
-0.305991
-0.305125
-0.304747
-0.304941
-0.305794
-0.307403
-0.344304
-0.34168
-0.338709
-0.335496
-0.332168
-0.328886
-0.325741
-0.322775
-0.319998
-0.317407
-0.314995
-0.312761
-0.310714
-0.308882
-0.307304
-0.306026
-0.305091
-0.304517
-0.304339
-0.304304
-0.350917
-0.3477
-0.344228
-0.34057
-0.33683
-0.333174
-0.329688
-0.326401
-0.323312
-0.320407
-0.317668
-0.315083
-0.312653
-0.31039
-0.308315
-0.306451
-0.304813
-0.303395
-0.302212
-0.300918
-0.358242
-0.354362
-0.350351
-0.346227
-0.34206
-0.338011
-0.334155
-0.330504
-0.32704
-0.323733
-0.320556
-0.31749
-0.314529
-0.311681
-0.30896
-0.306384
-0.30396
-0.301685
-0.299571
-0.297313
-0.366309
-0.3617
-0.357116
-0.352507
-0.347893
-0.343425
-0.339156
-0.335075
-0.331144
-0.32732
-0.32357
-0.319875
-0.316234
-0.31266
-0.309173
-0.305796
-0.302546
-0.299431
-0.296461
-0.293419
-0.37513
-0.36973
-0.364546
-0.359435
-0.354352
-0.349423
-0.344676
-0.340071
-0.335552
-0.331069
-0.326593
-0.322117
-0.317655
-0.313234
-0.308891
-0.304661
-0.30057
-0.296642
-0.292881
-0.289155
-0.384696
-0.378454
-0.372647
-0.367019
-0.361432
-0.355984
-0.350667
-0.345413
-0.340156
-0.334852
-0.32949
-0.324085
-0.318678
-0.313319
-0.308061
-0.302951
-0.298026
-0.293314
-0.288814
-0.284453
-0.394972
-0.387849
-0.381406
-0.375239
-0.369103
-0.363051
-0.357039
-0.350981
-0.344814
-0.338517
-0.332111
-0.325649
-0.3192
-0.312841
-0.306639
-0.300648
-0.294908
-0.289445
-0.284248
-0.279281
-0.405898
-0.397868
-0.390779
-0.384047
-0.377295
-0.370524
-0.363663
-0.35662
-0.349358
-0.341897
-0.334307
-0.326684
-0.319131
-0.311741
-0.304592
-0.297737
-0.291212
-0.285035
-0.27918
-0.273632
-0.417375
-0.40843
-0.400691
-0.393355
-0.385894
-0.37826
-0.370366
-0.362142
-0.353598
-0.344819
-0.335933
-0.32708
-0.318389
-0.309968
-0.301892
-0.294207
-0.286936
-0.280086
-0.27361
-0.267511
-0.429269
-0.41942
-0.411025
-0.403032
-0.394743
-0.386072
-0.376941
-0.367333
-0.357336
-0.347112
-0.336852
-0.326735
-0.316908
-0.307479
-0.298513
-0.290042
-0.282073
-0.274595
-0.26754
-0.260927
-0.441407
-0.43068
-0.421625
-0.412899
-0.403636
-0.393729
-0.383148
-0.371966
-0.360371
-0.348613
-0.33694
-0.325559
-0.314624
-0.304231
-0.294427
-0.285223
-0.276608
-0.268551
-0.260962
-0.253883
-0.453574
-0.442013
-0.432287
-0.422732
-0.412322
-0.400967
-0.38873
-0.375808
-0.362509
-0.349168
-0.336082
-0.323471
-0.311479
-0.300181
-0.289601
-0.279725
-0.270521
-0.261939
-0.253865
-0.246372
-0.465512
-0.453179
-0.442762
-0.432261
-0.420515
-0.407498
-0.39342
-0.37863
-0.363565
-0.348638
-0.334175
-0.320393
-0.307414
-0.295284
-0.283997
-0.273513
-0.263782
-0.254733
-0.246227
-0.23838
-0.47693
-0.463898
-0.452762
-0.441178
-0.427896
-0.41302
-0.396949
-0.380213
-0.36337
-0.346895
-0.331122
-0.316251
-0.30237
-0.289489
-0.27757
-0.26655
-0.256357
-0.2469
-0.238019
-0.229881
-0.487502
-0.473855
-0.461961
-0.449144
-0.434135
-0.41723
-0.399064
-0.380354
-0.361769
-0.343821
-0.326834
-0.310974
-0.296286
-0.282743
-0.270274
-0.258792
-0.248206
-0.238406
-0.22921
-0.220848
-0.496875
-0.482705
-0.470004
-0.455802
-0.438892
-0.419833
-0.399523
-0.378867
-0.358621
-0.339309
-0.321226
-0.30449
-0.289101
-0.274991
-0.262059
-0.250193
-0.239288
-0.229212
-0.219765
-0.211248
-0.504681
-0.490083
-0.476522
-0.460789
-0.441838
-0.420551
-0.39811
-0.375589
-0.353803
-0.333264
-0.31422
-0.296734
-0.280756
-0.266181
-0.252876
-0.24071
-0.229561
-0.21928
-0.209649
-0.20105
-0.510542
-0.495615
-0.481139
-0.463748
-0.442661
-0.419133
-0.394633
-0.370376
-0.347206
-0.325599
-0.305743
-0.287641
-0.271194
-0.256259
-0.242678
-0.230299
-0.218989
-0.208575
-0.198832
-0.190222
-0.514088
-0.498929
-0.483488
-0.464342
-0.441078
-0.41536
-0.388929
-0.363107
-0.338737
-0.316239
-0.29573
-0.277154
-0.260363
-0.24518
-0.231423
-0.218924
-0.207536
-0.197068
-0.187287
-0.178742
-0.51496
-0.499666
-0.483222
-0.462263
-0.43684
-0.409046
-0.380861
-0.353682
-0.328319
-0.305118
-0.284126
-0.265223
-0.248219
-0.232904
-0.219075
-0.206552
-0.195175
-0.184733
-0.174992
-0.166588
-0.512828
-0.497493
-0.480025
-0.457241
-0.429742
-0.400041
-0.370326
-0.342025
-0.31589
-0.292187
-0.270886
-0.251808
-0.234725
-0.219398
-0.205607
-0.193159
-0.181885
-0.171554
-0.161934
-0.15375
-0.507396
-0.492111
-0.473623
-0.449057
-0.419621
-0.388237
-0.357248
-0.32808
-0.301408
-0.277408
-0.255975
-0.236879
-0.219854
-0.20464
-0.190999
-0.17873
-0.167654
-0.157521
-0.148107
-0.140223
-0.498413
-0.483271
-0.463793
-0.437537
-0.406363
-0.37356
-0.341582
-0.311817
-0.284847
-0.260758
-0.239374
-0.220417
-0.203591
-0.188615
-0.17524
-0.163257
-0.152477
-0.142635
-0.133515
-0.126007
-0.485681
-0.470772
-0.450368
-0.422569
-0.389902
-0.355978
-0.323313
-0.293227
-0.266202
-0.242231
-0.221076
-0.202417
-0.185931
-0.171322
-0.158331
-0.146743
-0.13636
-0.126903
-0.118168
-0.111116
-0.469061
-0.454475
-0.433241
-0.404091
-0.370217
-0.335495
-0.302455
-0.272326
-0.245485
-0.221837
-0.201088
-0.182883
-0.166879
-0.152766
-0.140279
-0.129199
-0.119318
-0.110346
-0.102092
-0.0955766
-0.448475
-0.434305
-0.412367
-0.3821
-0.347336
-0.312153
-0.279052
-0.249155
-0.222729
-0.199604
-0.179434
-0.161836
-0.146452
-0.132964
-0.121101
-0.110641
-0.101371
-0.0929885
-0.0853199
-0.0794287
-0.423911
-0.410251
-0.387764
-0.35665
-0.321332
-0.28603
-0.253177
-0.223776
-0.197989
-0.175576
-0.15615
-0.139306
-0.124676
-0.111937
-0.100817
-0.091091
-0.0825413
-0.0748594
-0.0678883
-0.0627171
-0.395422
-0.382367
-0.359513
-0.327844
-0.292322
-0.257239
-0.224932
-0.196278
-0.17134
-0.149816
-0.131287
-0.115335
-0.101586
-0.0897155
-0.0794516
-0.0705705
-0.0628507
-0.0559843
-0.04983
-0.0454655
-0.363125
-0.350772
-0.327752
-0.295839
-0.260461
-0.225928
-0.19445
-0.166775
-0.142878
-0.122404
-0.104912
-0.0899772
-0.0772232
-0.0663299
-0.0570291
-0.0490992
-0.0423193
-0.0363886
-0.0311691
-0.0276644
-0.3272
-0.315645
-0.292675
-0.260837
-0.225948
-0.192276
-0.161889
-0.135407
-0.112723
-0.0934427
-0.0771092
-0.0632964
-0.0516346
-0.0418116
-0.0335677
-0.0266877
-0.0209576
-0.0160868
-0.0119156
-0.00931383
-0.287883
-0.277222
-0.254527
-0.223083
-0.189013
-0.156496
-0.127438
-0.102339
-0.0810204
-0.0630552
-0.04798
-0.0353741
-0.0248792
-0.0161972
-0.00908365
-0.00333596
0.00124725
0.00493986
0.00792401
0.00945335
-0.245466
-0.235791
-0.2136
-0.182861
-0.149923
-0.118829
-0.0913152
-0.0677662
-0.0479405
-0.0313892
-0.0176488
-0.00630944
0.00296957
0.0104641
0.0163954
0.0209498
0.0243119
0.0266993
0.0282286
0.028233
-0.200285
-0.191686
-0.170223
-0.14049
-0.108974
-0.0795446
-0.0537651
-0.0319087
-0.0136809
0.00138284
0.0137415
0.0237888
0.0318413
0.0381417
0.0428769
0.0462115
0.0482889
0.0491488
0.0486751
0.0465805
-0.152719
-0.145277
-0.124763
-0.0963156
-0.0664873
-0.0389404
-0.0150606
0.00498165
0.0215272
0.0350536
0.0460153
0.0547923
0.0616777
0.0668796
0.0705473
0.0728139
0.0737068
0.0728644
0.0698128
0.0655751
-0.103178
-0.096968
-0.0776088
-0.0507088
-0.0228066
0.00266612
0.0245007
0.0426219
0.0574117
0.0693596
0.0789206
0.0864726
0.0923058
0.0966267
0.0995975
0.101369
0.101842
0.100156
0.0956054
0.0910224
-0.0520983
-0.0471865
-0.0291731
-0.00405452
0.0217108
0.0449425
0.0646044
0.0807081
0.0936691
0.103986
0.112114
0.118435
0.123254
0.126815
0.129366
0.131185
0.132244
0.131549
0.128843
0.132479
7.24142e-05
0.00362872
0.0201232
0.043253
0.0667005
0.0875498
0.104931
0.118932
0.129994
0.138617
0.145251
0.15027
0.153978
0.156632
0.158495
0.159831
0.160626
0.160405
0.160073
0.165875
0.0528696
0.0550247
0.0698501
0.0908155
0.111796
0.13015
0.145164
0.156993
0.166096
0.17297
0.178053
0.181711
0.184241
0.185899
0.186935
0.187572
0.187791
0.187296
0.187004
0.191682
0.105826
0.106547
0.119578
0.138238
0.156637
0.172411
0.184995
0.1946
0.201697
0.20677
0.210244
0.212468
0.213726
0.21426
0.214302
0.214049
0.213497
0.21242
0.211573
0.214737
0.158477
0.157744
0.168884
0.185131
0.200871
0.214012
0.22413
0.231483
0.236544
0.239786
0.241613
0.242353
0.242273
0.241595
0.240526
0.239233
0.237699
0.235725
0.234007
0.235764
0.210364
0.208172
0.217353
0.231118
0.244155
0.254644
0.262288
0.267384
0.270405
0.271805
0.271966
0.271197
0.269742
0.267804
0.265566
0.26317
0.260582
0.257626
0.254961
0.255368
0.261042
0.2574
0.264582
0.275833
0.286162
0.294012
0.299203
0.302064
0.303063
0.302634
0.301137
0.298857
0.296018
0.292804
0.289375
0.285849
0.282182
0.278226
0.274611
0.273744
0.310079
0.30501
0.310186
0.31893
0.326581
0.331836
0.334623
0.335298
0.334317
0.332095
0.328969
0.325202
0.320999
0.316523
0.311915
0.307273
0.302548
0.297618
0.293079
0.291
0.357062
0.350606
0.353798
0.360075
0.365113
0.36785
0.368311
0.366871
0.363976
0.36002
0.355317
0.350109
0.344582
0.338881
0.33313
0.327408
0.321667
0.315809
0.310385
0.307158
0.401601
0.393812
0.39507
0.398957
0.40148
0.401805
0.400042
0.396583
0.391861
0.38625
0.380041
0.373456
0.366664
0.359794
0.352953
0.346206
0.339507
0.332778
0.326515
0.322205
0.443328
0.434273
0.433679
0.435284
0.435421
0.433467
0.429607
0.424245
0.417804
0.410633
0.403006
0.395126
0.387143
0.379174
0.371309
0.363603
0.356013
0.348477
0.341428
0.336103
0.481903
0.471665
0.469321
0.468785
0.466694
0.462616
0.456808
0.449682
0.441644
0.433027
0.424085
0.415003
0.405918
0.396931
0.38812
0.37953
0.371122
0.362846
0.355071
0.348804
0.517011
0.505685
0.501724
0.499212
0.495075
0.489055
0.481467
0.472729
0.463234
0.453299
0.443157
0.43298
0.42289
0.412976
0.403306
0.393913
0.384765
0.375823
0.367385
0.360256
0.54837
0.536064
0.530636
0.52634
0.520363
0.512601
0.503419
0.493237
0.48244
0.471324
0.46011
0.448954
0.437966
0.427225
0.416787
0.40668
0.396877
0.387342
0.37831
0.370407
0.575728
0.56256
0.555838
0.549972
0.542381
0.533093
0.522516
0.511074
0.499138
0.486992
0.474841
0.462831
0.45106
0.439598
0.428492
0.417763
0.40739
0.397343
0.387789
0.379207
0.598867
0.584965
0.577137
0.569934
0.560971
0.55039
0.538632
0.526122
0.513223
0.500204
0.487261
0.474528
0.462096
0.450024
0.438353
0.4271
0.416248
0.405768
0.395772
0.386612
0.617601
0.603103
0.594372
0.58608
0.576003
0.564373
0.551657
0.538283
0.524602
0.510878
0.497293
0.483975
0.471006
0.458442
0.446314
0.434638
0.423398
0.412568
0.402214
0.392583
0.631784
0.616832
0.607414
0.598294
0.587371
0.574945
0.561504
0.547474
0.533203
0.518943
0.504873
0.491111
0.477738
0.4648
0.452327
0.44033
0.428799
0.417705
0.407077
0.397089
0.641301
0.626043
0.616163
0.606485
0.594994
0.582033
0.568105
0.553636
0.538967
0.524349
0.509953
0.495894
0.482248
0.46906
0.456356
0.444144
0.432417
0.421146
0.410335
0.400106
0.646077
0.630666
0.620553
0.610595
0.598819
0.585589
0.571416
0.556726
0.541859
0.52706
0.5125
0.498292
0.48451
0.471196
0.458375
0.446056
0.434231
0.422871
0.411967
0.401618
0.646076
0.630665
0.620551
0.610594
0.598817
0.585588
0.571415
0.556725
0.541857
0.527059
0.512499
0.498291
0.484509
0.471195
0.458374
0.446055
0.43423
0.42287
0.411966
0.401617
0.641296
0.626039
0.616158
0.606481
0.59499
0.582029
0.568101
0.553632
0.538963
0.524345
0.509949
0.49589
0.482244
0.469056
0.456352
0.44414
0.432413
0.421142
0.410331
0.400102
0.631776
0.616824
0.607406
0.598287
0.587364
0.574938
0.561497
0.547467
0.533196
0.518936
0.504866
0.491105
0.477731
0.464793
0.45232
0.440324
0.428792
0.417699
0.407071
0.397083
0.617591
0.603093
0.594362
0.58607
0.575994
0.564363
0.551647
0.538273
0.524593
0.510868
0.497284
0.483965
0.470997
0.458432
0.446305
0.434628
0.423389
0.41256
0.402205
0.392575
0.598853
0.584952
0.577123
0.569921
0.560958
0.550377
0.538619
0.52611
0.51321
0.500192
0.487249
0.474516
0.462084
0.450012
0.438341
0.427089
0.416236
0.405756
0.395761
0.386601
0.575711
0.562543
0.555821
0.549956
0.542365
0.533077
0.522501
0.511059
0.499123
0.486977
0.474826
0.462816
0.451046
0.439584
0.428477
0.417749
0.407376
0.397328
0.387775
0.379193
0.548349
0.536043
0.530616
0.526321
0.520344
0.512582
0.5034
0.493219
0.482422
0.471306
0.460092
0.448936
0.437949
0.427208
0.41677
0.406663
0.39686
0.387326
0.378293
0.37039
0.516987
0.505661
0.5017
0.499188
0.495052
0.489033
0.481445
0.472707
0.463213
0.453278
0.443136
0.432959
0.42287
0.412956
0.403286
0.393893
0.384746
0.375804
0.367366
0.360237
0.481875
0.471637
0.469294
0.468758
0.466667
0.462591
0.456783
0.449657
0.441619
0.433003
0.424061
0.41498
0.405895
0.396908
0.388097
0.379507
0.371099
0.362824
0.355049
0.348782
0.443296
0.434241
0.433647
0.435253
0.435391
0.433437
0.429578
0.424217
0.417776
0.410606
0.402979
0.395099
0.387117
0.379147
0.371283
0.363577
0.355987
0.348451
0.341404
0.336078
0.401565
0.393775
0.395035
0.398923
0.401447
0.401772
0.40001
0.396551
0.39183
0.386219
0.38001
0.373426
0.366634
0.359764
0.352923
0.346177
0.339478
0.33275
0.326487
0.322178
0.357021
0.350565
0.353758
0.360036
0.365075
0.367813
0.368275
0.366835
0.363941
0.359985
0.355283
0.350076
0.344549
0.338848
0.333097
0.327376
0.321636
0.315778
0.310354
0.307128
0.310032
0.304964
0.310141
0.318886
0.326538
0.331795
0.334583
0.335258
0.334278
0.332057
0.328931
0.325165
0.320963
0.316487
0.31188
0.307238
0.302513
0.297584
0.293045
0.290967
0.26099
0.257348
0.264531
0.275785
0.286115
0.293966
0.299158
0.302021
0.30302
0.302592
0.301095
0.298816
0.295978
0.292765
0.289336
0.28581
0.282144
0.278188
0.274575
0.273708
0.210307
0.208115
0.217297
0.231064
0.244103
0.254593
0.262238
0.267336
0.270358
0.271759
0.271921
0.271152
0.269699
0.267761
0.265524
0.263128
0.26054
0.257585
0.254921
0.255329
0.158413
0.157681
0.168823
0.185071
0.200813
0.213957
0.224076
0.23143
0.236493
0.239736
0.241563
0.242305
0.242226
0.241548
0.240479
0.239187
0.237654
0.235681
0.233964
0.235721
0.105756
0.106477
0.119511
0.138172
0.156575
0.17235
0.184936
0.194543
0.201641
0.206715
0.21019
0.212415
0.213674
0.214209
0.214251
0.214
0.213448
0.212372
0.211525
0.214691
0.0527926
0.0549482
0.0697759
0.0907443
0.111728
0.130084
0.1451
0.156931
0.166036
0.17291
0.177995
0.181654
0.184185
0.185844
0.186881
0.187519
0.187738
0.187244
0.186953
0.191632
-1.15884e-05
0.00354526
0.0200423
0.0431754
0.0666261
0.0874781
0.104862
0.118865
0.129929
0.138553
0.145188
0.150209
0.153918
0.156572
0.158436
0.159773
0.16057
0.160349
0.160018
0.165821
-0.0521896
-0.0472772
-0.0292609
-0.00413868
0.0216301
0.0448649
0.0645294
0.0806352
0.0935983
0.103917
0.112046
0.118369
0.123189
0.126751
0.129303
0.131123
0.132182
0.131489
0.128782
0.13242
-0.103277
-0.0970663
-0.0777039
-0.0507998
-0.0228938
0.00258239
0.0244199
0.0425436
0.0573355
0.0692853
0.078848
0.0864015
0.092236
0.0965581
0.0995299
0.101302
0.101776
0.100091
0.0955402
0.0909572
-0.152826
-0.145383
-0.124865
-0.0964138
-0.0665811
-0.0390305
-0.0151474
0.00489759
0.0214456
0.034974
0.0459376
0.0547161
0.0616031
0.0668062
0.070475
0.0727426
0.0736363
0.0727945
0.0697432
0.0655056
-0.2004
-0.1918
-0.170334
-0.140595
-0.109074
-0.0796412
-0.0538581
-0.0319986
-0.0137682
0.00129787
0.0136585
0.0237076
0.0317617
0.0380636
0.0428
0.0461357
0.048214
0.0490749
0.0486018
0.0465074
-0.245589
-0.235913
-0.213718
-0.182974
-0.150031
-0.118932
-0.0914144
-0.0678621
-0.0480335
-0.0314797
-0.0177369
-0.00639563
0.00288515
0.0103812
0.0163139
0.0208696
0.0242328
0.0266214
0.0281516
0.0281565
-0.288014
-0.277352
-0.254653
-0.223203
-0.189128
-0.156606
-0.127544
-0.102441
-0.0811191
-0.0631511
-0.0480735
-0.0354654
-0.0249685
-0.0162848
-0.0091696
-0.00342047
0.00116405
0.0048579
0.00784321
0.00937328
-0.327339
-0.315783
-0.292809
-0.260965
-0.22607
-0.192393
-0.162001
-0.135515
-0.112828
-0.0935441
-0.077208
-0.0633927
-0.0517288
-0.0419039
-0.0336582
-0.0267765
-0.021045
-0.0161727
-0.0120003
-0.00939757
-0.363273
-0.350918
-0.327894
-0.295975
-0.260591
-0.226052
-0.194568
-0.166889
-0.142988
-0.122511
-0.105017
-0.0900787
-0.0773223
-0.0664268
-0.0571241
-0.0491924
-0.0424109
-0.0364786
-0.0312576
-0.0277518
-0.395578
-0.382522
-0.359663
-0.327988
-0.292458
-0.25737
-0.225057
-0.196398
-0.171456
-0.149928
-0.131396
-0.115442
-0.10169
-0.0898172
-0.0795511
-0.0706681
-0.0629465
-0.0560783
-0.0499224
-0.0455567
-0.424075
-0.410414
-0.387922
-0.356801
-0.321476
-0.286167
-0.253308
-0.223902
-0.198111
-0.175694
-0.156264
-0.139418
-0.124785
-0.112044
-0.100921
-0.0911929
-0.0826413
-0.0749575
-0.0679846
-0.0628121
-0.448647
-0.434476
-0.412532
-0.382259
-0.347487
-0.312297
-0.279189
-0.249287
-0.222857
-0.199728
-0.179554
-0.161953
-0.146566
-0.133075
-0.121209
-0.110747
-0.101475
-0.0930908
-0.0854203
-0.0795275
-0.46924
-0.454653
-0.433414
-0.404256
-0.370375
-0.335646
-0.302599
-0.272465
-0.245618
-0.221967
-0.201214
-0.183005
-0.166997
-0.152882
-0.140392
-0.129309
-0.119427
-0.110452
-0.102197
-0.0956793
-0.485867
-0.470956
-0.450548
-0.422741
-0.390067
-0.356135
-0.323463
-0.293371
-0.266341
-0.242366
-0.221206
-0.202543
-0.186054
-0.171442
-0.158449
-0.146858
-0.136473
-0.127014
-0.118277
-0.111223
-0.498605
-0.483461
-0.463979
-0.437717
-0.406535
-0.373724
-0.341739
-0.311967
-0.284992
-0.260898
-0.239509
-0.220549
-0.20372
-0.18874
-0.175362
-0.163377
-0.152594
-0.142749
-0.133627
-0.126118
-0.507593
-0.492308
-0.473815
-0.449242
-0.419799
-0.388406
-0.35741
-0.328236
-0.301558
-0.277553
-0.256115
-0.237016
-0.219987
-0.204769
-0.191125
-0.178854
-0.167775
-0.15764
-0.148224
-0.140337
-0.513031
-0.497694
-0.480222
-0.457433
-0.429925
-0.400217
-0.370494
-0.342186
-0.316046
-0.292337
-0.271031
-0.25195
-0.234863
-0.219533
-0.205738
-0.193287
-0.18201
-0.171677
-0.162054
-0.153869
-0.515168
-0.499872
-0.483424
-0.462459
-0.437029
-0.409227
-0.381034
-0.353849
-0.328479
-0.305273
-0.284276
-0.265369
-0.248361
-0.233043
-0.219211
-0.206684
-0.195304
-0.18486
-0.175116
-0.166711
-0.514299
-0.499139
-0.483695
-0.464543
-0.441271
-0.415546
-0.389107
-0.363278
-0.338902
-0.316398
-0.295885
-0.277304
-0.26051
-0.245323
-0.231562
-0.21906
-0.20767
-0.197199
-0.187415
-0.178868
-0.510757
-0.495828
-0.481349
-0.463953
-0.442859
-0.419324
-0.394816
-0.370552
-0.347376
-0.325763
-0.305902
-0.287795
-0.271345
-0.256406
-0.242822
-0.23044
-0.219127
-0.20871
-0.198965
-0.190353
-0.504898
-0.490298
-0.476735
-0.460997
-0.44204
-0.420745
-0.398297
-0.375769
-0.353977
-0.333433
-0.314384
-0.296893
-0.280911
-0.266332
-0.253024
-0.240855
-0.229703
-0.219419
-0.209786
-0.201184
-0.497094
-0.482922
-0.470219
-0.456012
-0.439097
-0.42003
-0.399714
-0.379052
-0.358799
-0.339482
-0.321394
-0.304654
-0.28926
-0.275147
-0.262211
-0.250342
-0.239434
-0.229355
-0.219906
-0.211387
-0.487721
-0.474073
-0.462176
-0.449355
-0.434341
-0.417431
-0.399258
-0.380542
-0.361951
-0.343997
-0.327006
-0.311141
-0.296449
-0.282902
-0.270431
-0.258945
-0.248356
-0.238554
-0.229355
-0.220991
-0.47715
-0.464116
-0.452978
-0.44139
-0.428104
-0.413223
-0.397146
-0.380404
-0.363555
-0.347075
-0.331298
-0.316422
-0.302537
-0.289652
-0.277731
-0.266707
-0.256511
-0.247052
-0.238168
-0.230028
-0.465732
-0.453397
-0.442978
-0.432474
-0.420723
-0.407702
-0.393618
-0.378824
-0.363753
-0.348822
-0.334353
-0.320567
-0.307585
-0.295451
-0.284161
-0.273675
-0.26394
-0.254889
-0.24638
-0.238531
-0.453792
-0.44223
-0.432501
-0.422945
-0.412531
-0.401172
-0.388931
-0.376004
-0.3627
-0.349354
-0.336264
-0.323649
-0.311653
-0.300352
-0.289769
-0.27989
-0.270683
-0.262099
-0.254023
-0.246528
-0.441624
-0.430895
-0.421838
-0.413111
-0.403845
-0.393934
-0.38335
-0.372163
-0.360564
-0.348802
-0.337124
-0.32574
-0.314802
-0.304405
-0.294598
-0.285392
-0.276775
-0.268716
-0.261124
-0.254043
-0.429485
-0.419633
-0.411237
-0.403242
-0.394951
-0.386277
-0.377143
-0.367531
-0.35753
-0.347303
-0.337039
-0.326919
-0.317089
-0.307657
-0.298688
-0.290215
-0.282244
-0.274763
-0.267706
-0.261091
-0.417588
-0.408642
-0.4009
-0.393563
-0.386101
-0.378464
-0.370568
-0.36234
-0.353794
-0.345012
-0.336123
-0.327267
-0.318574
-0.31015
-0.302071
-0.294384
-0.287112
-0.280259
-0.273782
-0.26768
-0.406109
-0.398077
-0.390987
-0.384253
-0.377499
-0.370726
-0.363863
-0.356819
-0.349554
-0.342091
-0.334499
-0.326874
-0.319318
-0.311926
-0.304775
-0.297919
-0.291392
-0.285213
-0.279356
-0.273807
-0.395181
-0.388056
-0.381611
-0.375443
-0.369306
-0.363252
-0.357238
-0.351179
-0.345011
-0.338712
-0.332304
-0.32584
-0.319391
-0.31303
-0.306826
-0.300834
-0.295092
-0.289628
-0.28443
-0.279462
-0.384902
-0.378658
-0.37285
-0.36722
-0.361633
-0.356183
-0.350865
-0.34561
-0.340352
-0.335048
-0.329684
-0.324279
-0.318871
-0.313511
-0.308252
-0.303142
-0.298216
-0.293502
-0.289002
-0.28464
-0.375334
-0.369933
-0.364746
-0.359634
-0.35455
-0.34962
-0.344873
-0.340267
-0.335747
-0.331265
-0.326789
-0.322313
-0.31785
-0.31343
-0.309087
-0.304856
-0.300765
-0.296836
-0.293075
-0.289348
-0.366511
-0.3619
-0.357314
-0.352704
-0.348089
-0.34362
-0.339351
-0.33527
-0.331339
-0.327516
-0.323767
-0.320073
-0.316432
-0.312859
-0.309373
-0.305996
-0.302746
-0.299631
-0.296661
-0.293618
-0.358442
-0.354561
-0.350548
-0.346422
-0.342253
-0.338204
-0.334348
-0.330697
-0.327234
-0.323929
-0.320753
-0.317689
-0.31473
-0.311883
-0.309164
-0.306588
-0.304165
-0.301891
-0.299777
-0.297519
-0.351115
-0.347896
-0.344423
-0.340763
-0.337022
-0.333365
-0.329879
-0.326593
-0.323505
-0.320602
-0.317865
-0.315283
-0.312856
-0.310596
-0.308523
-0.306661
-0.305025
-0.303607
-0.302425
-0.301131
-0.344501
-0.341875
-0.338903
-0.335688
-0.332359
-0.329076
-0.325931
-0.322966
-0.32019
-0.317602
-0.315193
-0.312962
-0.31092
-0.309091
-0.307516
-0.306241
-0.305309
-0.304736
-0.304559
-0.304524
-0.338558
-0.336455
-0.333944
-0.33115
-0.328214
-0.325291
-0.32247
-0.319799
-0.317294
-0.31496
-0.312796
-0.310808
-0.309015
-0.30746
-0.306208
-0.305346
-0.304971
-0.305168
-0.306022
-0.30763
-0.333235
-0.331588
-0.329495
-0.327095
-0.324535
-0.321956
-0.319447
-0.317053
-0.314795
-0.312677
-0.310701
-0.308874
-0.307218
-0.305786
-0.304666
-0.30399
-0.303937
-0.304707
-0.306517
-0.310239
-0.328473
-0.327221
-0.325504
-0.323468
-0.321261
-0.319012
-0.316801
-0.314674
-0.312647
-0.310725
-0.308904
-0.307183
-0.305579
-0.30414
-0.302958
-0.302197
-0.302113
-0.30305
-0.3055
-0.311627
-0.324213
-0.323299
-0.321917
-0.320214
-0.318335
-0.316395
-0.314469
-0.312597
-0.310793
-0.309055
-0.307371
-0.305729
-0.304126
-0.302585
-0.301174
-0.300043
-0.29947
-0.299895
-0.302289
-0.310875
-0.320395
-0.31977
-0.318683
-0.317279
-0.3157
-0.314047
-0.312387
-0.310755
-0.309162
-0.307599
-0.306046
-0.304474
-0.302852
-0.301162
-0.299407
-0.297654
-0.296072
-0.294957
-0.295519
-0.304295
-0.316964
-0.316585
-0.315755
-0.314618
-0.313308
-0.311914
-0.310497
-0.309085
-0.307687
-0.306289
-0.304862
-0.30336
-0.301725
-0.299881
-0.29773
-0.295145
-0.291945
-0.287604
-0.280742
-0.272613
-0.313867
-0.313698
-0.313091
-0.312189
-0.311116
-0.309954
-0.308752
-0.307538
-0.306316
-0.30507
-0.303767
-0.302356
-0.300768
-0.298908
-0.296651
-0.293841
-0.290294
-0.285595
-0.278767
-0.271656
-0.311063
-0.311072
-0.310658
-0.309958
-0.309094
-0.308134
-0.307121
-0.306081
-0.305014
-0.303905
-0.302723
-0.30142
-0.299932
-0.298179
-0.296058
-0.293465
-0.290305
-0.28633
-0.281012
-0.276454
-0.308514
-0.308675
-0.308426
-0.307902
-0.307218
-0.306433
-0.305586
-0.304696
-0.303765
-0.302779
-0.301709
-0.300516
-0.299148
-0.297542
-0.295627
-0.293345
-0.290657
-0.2874
-0.28331
-0.280518
-0.30619
-0.30648
-0.306372
-0.306
-0.305473
-0.304841
-0.304138
-0.303381
-0.302572
-0.301698
-0.300736
-0.299654
-0.298415
-0.296973
-0.295289
-0.293341
-0.291135
-0.288575
-0.28556
-0.284033
-0.304065
-0.304466
-0.30448
-0.304239
-0.303849
-0.303353
-0.30278
-0.302144
-0.301448
-0.300683
-0.29983
-0.298868
-0.297769
-0.29651
-0.295073
-0.293469
-0.291732
-0.289816
-0.287697
-0.287057
-0.302119
-0.302615
-0.302734
-0.302609
-0.302341
-0.301967
-0.301512
-0.300992
-0.300407
-0.299753
-0.299017
-0.298185
-0.297243
-0.29618
-0.294998
-0.293726
-0.292417
-0.291045
-0.289608
-0.289552
-0.300332
-0.300912
-0.301123
-0.301101
-0.300942
-0.30068
-0.300338
-0.299929
-0.299457
-0.298919
-0.298309
-0.297619
-0.296843
-0.295984
-0.295053
-0.294091
-0.293152
-0.292217
-0.291273
-0.291584
-0.29869
-0.299345
-0.299639
-0.299708
-0.299648
-0.299491
-0.299255
-0.298955
-0.298597
-0.298179
-0.2977
-0.297159
-0.296555
-0.295898
-0.295205
-0.294519
-0.293893
-0.293297
-0.292703
-0.293242
-0.297181
-0.297906
-0.298274
-0.298424
-0.298456
-0.298395
-0.29826
-0.298066
-0.297819
-0.297522
-0.297176
-0.296782
-0.296347
-0.295881
-0.295404
-0.294958
-0.294587
-0.294254
-0.293908
-0.294593
-0.295796
-0.296587
-0.297022
-0.297247
-0.297362
-0.297389
-0.297349
-0.297255
-0.297115
-0.296934
-0.296715
-0.296462
-0.296183
-0.295891
-0.295604
-0.29536
-0.295195
-0.295062
-0.294899
-0.295684
-0.294529
-0.295384
-0.295882