/*--------------------------------*- C++ -*----------------------------------*\
  =========                 |
  \\      /  F ield         | OpenFOAM: The Open Source CFD Toolbox
   \\    /   O peration     | Website:  https://openfoam.org
    \\  /    A nd           | Version:  6.0
     \\/     M anipulation  |
\*---------------------------------------------------------------------------*/
FoamFile
{
    version     2.0;
    format      ascii;
    class       surfaceScalarField;
    location    "13.3";
    object      phi;
}
// * * * * * * * * * * * * * * * * * * * * * * * * * * * * * * * * * * * * * //

dimensions      [0 3 -1 0 0 0 0];

internalField   nonuniform List<scalar> 
15760
(
-3.45036e-06
3.39189e-06
5.84699e-08
-1.21078e-05
8.53637e-06
1.21029e-07
-2.47083e-05
1.24555e-05
1.45052e-07
-4.02652e-05
1.54146e-05
1.42377e-07
-5.80146e-05
1.76274e-05
1.21998e-07
-7.73797e-05
1.92746e-05
9.04828e-08
-9.7942e-05
2.05099e-05
5.24662e-08
-0.000119417
2.14639e-05
1.1078e-08
-0.000141634
2.22486e-05
-3.16759e-08
-0.000164519
2.29592e-05
-7.45851e-08
-0.000188078
2.36768e-05
-1.1697e-07
-0.000212389
2.4469e-05
-1.58489e-07
-0.000237581
2.5391e-05
-1.99003e-07
-0.000263828
2.64854e-05
-2.38477e-07
-0.000291334
2.7783e-05
-2.76915e-07
-0.000320322
2.93023e-05
-3.14328e-07
-0.000351022
3.10503e-05
-3.50721e-07
-0.000383657
3.30215e-05
-3.86104e-07
-0.000418439
3.52029e-05
-4.20447e-07
3.75875e-05
-4.53767e-07
-0.000455573
-3.40696e-06
6.79886e-06
-1.19602e-05
1.70896e-05
-2.44063e-05
2.49015e-05
-3.97613e-05
3.07695e-05
-5.72596e-05
3.51257e-05
-7.63199e-05
3.83349e-05
-9.65164e-05
4.07064e-05
-0.000117555
4.25031e-05
-0.000139256
4.39492e-05
-0.000161533
4.52363e-05
-0.000184383
4.6527e-05
-0.000207872
4.7958e-05
-0.000232122
4.96411e-05
-0.000257301
5.16644e-05
-0.00028361
5.4092e-05
-0.000311273
5.69645e-05
-0.000340521
6.02989e-05
-0.000371587
6.40871e-05
-0.000404689
6.83049e-05
7.29385e-05
-0.00044004
-3.32397e-06
1.01228e-05
-1.16772e-05
2.54429e-05
-2.38258e-05
3.70501e-05
-3.87913e-05
4.57351e-05
-5.58052e-05
5.21396e-05
-7.42769e-05
5.68066e-05
-9.37668e-05
6.01962e-05
-0.000113964
6.26999e-05
-0.000134666
6.46516e-05
-0.000155767
6.63375e-05
-0.000177242
6.80019e-05
-0.000199136
6.98519e-05
-0.000221555
7.20595e-05
-0.000244653
7.47625e-05
-0.000268625
7.80645e-05
-0.000293696
8.20349e-05
-0.000320104
8.67072e-05
-0.000348094
9.20775e-05
-0.000377904
9.81145e-05
0.000104798
-0.000409764
-3.20793e-06
1.33308e-05
-1.12791e-05
3.35141e-05
-2.30062e-05
4.87772e-05
-3.74184e-05
6.01472e-05
-5.37431e-05
6.84643e-05
-7.13772e-05
7.44407e-05
-8.98615e-05
7.86805e-05
-0.00010886
8.16979e-05
-0.000128141
8.39327e-05
-0.000147566
8.57626e-05
-0.000167077
8.75132e-05
-0.000186689
8.94634e-05
-0.000206479
9.18495e-05
-0.000226582
9.48658e-05
-0.000247182
9.86644e-05
-0.000268501
0.000103354
-0.000290789
0.000108995
-0.000314311
0.0001156
-0.000339335
0.000123138
0.000131587
-0.000366124
-3.06765e-06
1.63984e-05
-1.07932e-05
4.12397e-05
-2.20001e-05
5.99841e-05
-3.57267e-05
7.38738e-05
-5.11963e-05
8.39339e-05
-6.7791e-05
9.10353e-05
-8.5028e-05
9.59176e-05
-0.00010254
9.92099e-05
-0.000120059
0.000101451
-0.000137404
0.000103108
-0.000154473
0.000104583
-0.000171238
0.000106228
-0.000187738
0.000108349
-0.000204077
0.000111205
-0.000220418
0.000115006
-0.000236981
0.000119916
-0.000254027
0.000126041
-0.000271851
0.000133424
-0.000290764
0.000142052
0.000151905
-0.000311081
-2.91304e-06
1.93114e-05
-1.02503e-05
4.85769e-05
-2.08668e-05
7.06006e-05
-3.38113e-05
8.68183e-05
-4.83035e-05
9.84261e-05
-6.37105e-05
0.000106442
-7.95244e-05
0.000111732
-9.53434e-05
0.000115029
-0.000110856
0.000116964
-0.000125833
0.000118084
-0.000140117
0.000118867
-0.000153624
0.000119736
-0.000166342
0.000121067
-0.000178331
0.000123193
-0.000189722
0.000126398
-0.000200723
0.000130917
-0.000211606
0.000136924
-0.000222703
0.000144521
-0.000234387
0.000153736
0.000164571
-0.000247053
-2.75386e-06
2.20653e-05
-9.68039e-06
5.55034e-05
-1.9664e-05
8.05843e-05
-3.17644e-05
9.89187e-05
-4.51994e-05
0.000111861
-5.93232e-05
0.000120566
-7.36039e-05
0.000126012
-8.76048e-05
0.00012903
-0.000100969
0.000130329
-0.000113413
0.000130527
-0.000124716
0.00013017
-0.000134726
0.000129747
-0.000143365
0.000129706
-0.00015063
0.000130458
-0.000156607
0.000132374
-0.000161475
0.000135785
-0.000165512
0.000140961
-0.000169091
0.0001481
-0.000172665
0.000157309
0.000168648
-0.000176741
-2.59843e-06
2.46637e-05
-9.1089e-06
6.20139e-05
-1.84399e-05
8.99153e-05
-2.9662e-05
0.000110141
-4.19943e-05
0.000124193
-5.47821e-05
0.000133354
-6.7474e-05
0.000138704
-7.96019e-05
0.000141158
-9.07662e-05
0.000141493
-0.000100625
0.000140386
-0.000108893
0.000138437
-0.000115339
0.000136193
-0.000119802
0.000134169
-0.000122199
0.000132854
-0.000122545
0.00013272
-0.000120972
0.000134212
-0.000117746
0.000137735
-0.000113275
0.000143629
-0.000108111
0.000152145
0.000163453
-0.000102916
-2.45244e-06
2.71162e-05
-8.55264e-06
6.81141e-05
-1.72252e-05
9.85878e-05
-2.75511e-05
0.000120467
-3.8754e-05
0.000135396
-5.01765e-05
0.000144776
-6.12552e-05
0.000149783
-7.14988e-05
0.000151401
-8.04709e-05
0.000150465
-8.77785e-05
0.000147694
-9.30679e-05
0.000143726
-9.60273e-05
0.000139153
-9.63991e-05
0.000134541
-9.39993e-05
0.000130455
-8.87456e-05
0.000127466
-8.06913e-05
0.000126158
-7.00613e-05
0.000127105
-5.7285e-05
0.000130853
-4.30167e-05
0.000137876
0.000148561
-2.81245e-05
-2.31823e-06
2.94344e-05
-8.01735e-06
7.38132e-05
-1.60278e-05
0.000106598
-2.54393e-05
0.000129878
-3.54833e-05
0.00014544
-4.55069e-05
0.0001548
-5.49443e-05
0.00015922
-6.32925e-05
0.000159749
-7.00906e-05
0.000157264
-7.49056e-05
0.000152509
-7.73246e-05
0.000146145
-7.69569e-05
0.000138785
-7.34446e-05
0.000131028
-6.64864e-05
0.000123496
-5.58745e-05
0.000116855
-4.15449e-05
0.000111828
-2.36386e-05
0.000109199
-2.56957e-06
0.000109784
2.09117e-05
0.000114395
0.000123785
4.56882e-05
-2.19451e-06
3.16289e-05
-7.49653e-06
7.91153e-05
-1.48302e-05
0.000113932
-2.32899e-05
0.000138338
-3.21171e-05
0.000154268
-4.06693e-05
0.000163352
-4.83886e-05
0.00016694
-5.47737e-05
0.000166135
-5.93555e-05
0.000161845
-6.16788e-05
0.000154832
-6.12897e-05
0.000145756
-5.77328e-05
0.000135228
-5.05577e-05
0.000123853
-3.93418e-05
0.000112281
-2.37312e-05
0.000101244
-3.50524e-06
9.1602e-05
2.13335e-05
8.43601e-05
5.04451e-05
8.06722e-05
8.30193e-05
8.18209e-05
8.91472e-05
0.000117657
-2.07662e-06
3.37055e-05
-6.97227e-06
8.40109e-05
-1.35903e-05
0.00012055
-2.1023e-05
0.000145771
-2.852e-05
0.000161765
-3.54525e-05
0.000170285
-4.12782e-05
0.000172765
-4.55098e-05
0.000170366
-4.76874e-05
0.000164023
-4.73556e-05
0.0001545
-4.4046e-05
0.000142447
-3.72662e-05
0.000128448
-2.64992e-05
0.000113086
-1.12175e-05
9.69988e-05
9.07936e-06
8.09471e-05
3.47945e-05
6.58868e-05
6.61198e-05
5.30349e-05
0.000102869
4.39231e-05
0.000144246
4.04438e-05
4.48225e-05
0.000188571
-1.95749e-06
3.5663e-05
-6.41779e-06
8.84712e-05
-1.22465e-05
0.000126379
-1.85225e-05
0.000152047
-2.44968e-05
0.000167739
-2.95518e-05
0.000175339
-3.31622e-05
0.000176376
-3.48618e-05
0.000172066
-3.42131e-05
0.000163374
-3.07824e-05
0.00015107
-2.41168e-05
0.000135781
-1.37262e-05
0.000118058
9.27921e-07
9.84322e-05
2.04325e-05
7.74942e-05
4.54003e-05
5.59793e-05
7.64086e-05
3.48785e-05
0.000113877
1.55661e-05
0.000157859
-5.84216e-08
0.000207691
-9.38809e-06
-8.96263e-06
0.000261476
-1.82887e-06
3.74919e-05
-5.80129e-06
9.24436e-05
-1.0725e-05
0.000131302
-1.5649e-05
0.000156971
-1.98124e-05
0.000171902
-2.25975e-05
0.000178125
-2.34886e-05
0.000177267
-2.20372e-05
0.000170614
-1.78321e-05
0.000159169
-1.04742e-05
0.000143712
4.47524e-07
0.000124859
1.53782e-05
0.000103127
3.48183e-05
7.89921e-05
5.93392e-05
5.29733e-05
8.9585e-05
2.57335e-05
0.00012624
-1.77688e-06
0.00016993
-2.81233e-05
0.000220998
-5.11266e-05
0.000279065
-6.74552e-05
-7.2084e-05
0.000342186
-1.68267e-06
3.91745e-05
-5.09009e-06
9.58511e-05
-8.94852e-06
0.000135161
-1.22553e-05
0.000160277
-1.42165e-05
0.000173863
-1.41942e-05
0.000178102
-1.16628e-05
0.000174735
-6.175e-06
0.000165126
2.66589e-06
0.000150328
1.52271e-05
0.000131151
3.18663e-05
0.00010822
5.29517e-05
8.20417e-05
7.88852e-05
5.30586e-05
0.00011013
2.17287e-05
0.000147237
-1.13733e-05
0.000190856
-4.53959e-05
0.000241693
-7.89613e-05
0.000300349
-0.000109782
0.000366854
-0.00013396
-0.00014474
0.00043951
-1.51193e-06
4.06865e-05
-4.2538e-06
9.85929e-05
-6.8432e-06
0.00013775
-8.19897e-06
0.000161633
-7.46641e-06
0.000173131
-3.95828e-06
0.000174594
2.89118e-06
0.000167886
1.35594e-05
0.000154458
2.84576e-05
0.00013543
4.79449e-05
0.000111663
7.23384e-05
8.38267e-05
0.000101923
5.24576e-05
0.000136963
1.80181e-05
0.000177731
-1.90397e-05
0.000224544
-5.81854e-05
0.000277811
-9.86634e-05
0.000338079
-0.000139229
0.000405988
-0.000177691
0.000481973
-0.000209945
-0.000227702
0.000564935
-1.31103e-06
4.19975e-05
-3.26524e-06
0.000100547
-4.34126e-06
0.000138826
-3.34895e-06
0.000160641
6.59491e-07
0.000169122
8.45603e-06
0.000166798
2.06855e-05
0.000155657
3.78968e-05
0.000137247
6.05594e-05
0.000112768
8.90676e-05
8.3155e-05
0.000123737
4.91573e-05
0.000164797
1.1398e-05
0.000212381
-2.95668e-05
0.000266535
-7.31935e-05
0.000327234
-0.000118884
0.000394444
-0.000165873
0.000468218
-0.000213003
0.000548801
-0.000258274
0.000636656
-0.0002978
-0.000322612
0.000731566
-1.07494e-06
4.30724e-05
-2.09858e-06
0.000101571
-1.37813e-06
0.000138106
2.41754e-06
0.000156845
1.03637e-05
0.000161176
2.33547e-05
0.000153807
4.21556e-05
0.000136856
6.74321e-05
0.00011197
9.97607e-05
8.0439e-05
0.000139624
4.32919e-05
0.000187392
1.38879e-06
0.000243298
-4.45079e-05
0.000307401
-9.36697e-05
0.000379554
-0.000145347
0.000459382
-0.000198711
0.000546289
-0.000252781
0.000639545
-0.000306259
0.000738442
-0.000357172
0.000842596
-0.000401954
-0.000432794
0.000952778
-7.97632e-07
4.38701e-05
-7.2486e-07
0.000101498
2.11552e-06
0.000135266
9.22723e-06
0.000149733
2.1846e-05
0.000148557
4.10238e-05
0.000134629
6.76829e-05
0.000110197
0.000102644
7.70094e-05
0.000146631
3.64515e-05
0.000200262
-1.03385e-05
0.000264017
-6.23666e-05
0.000338207
-0.000118697
0.000422916
-0.000178379
0.000517941
-0.000240372
0.000622709
-0.000303479
0.000736188
-0.000366259
0.000856813
-0.000426884
0.00098246
-0.000482819
0.00111071
-0.0005302
-0.000564608
0.00124252
-4.70106e-07
4.43402e-05
8.93538e-07
0.000100134
6.22425e-06
0.000129935
1.72273e-05
0.00013873
3.53277e-05
0.000130457
6.17621e-05
0.000108194
9.76343e-05
7.43243e-05
0.000143939
3.07044e-05
0.000201564
-2.11731e-05
0.000271271
-8.0046e-05
0.000353676
-0.000144771
0.000449212
-0.000214234
0.000558104
-0.00028727
0.00068033
-0.000362598
0.000815579
-0.000438728
0.00096317
-0.000513851
0.00112187
-0.000585579
0.00128918
-0.000650136
0.00145874
-0.000699753
-0.000716704
0.00161083
-7.94611e-08
4.44196e-05
2.80648e-06
9.72484e-05
1.10552e-05
0.000121686
2.65978e-05
0.000123188
5.10693e-05
0.000105986
8.59057e-05
7.3358e-05
0.000132394
2.78357e-05
0.00019169
-2.85911e-05
0.000264806
-9.42891e-05
0.000352593
-0.000167833
0.000455716
-0.000247894
0.000574643
-0.00033316
0.000709657
-0.000422284
0.000860916
-0.000513857
0.00102859
-0.000606406
0.00121315
-0.000698411
0.00141589
-0.000788311
0.00164017
-0.000874422
0.00189548
-0.00095506
-0.00102487
0.00220364
3.9458e-07
4.40251e-05
5.0822e-06
9.25608e-05
1.67458e-05
0.000110023
3.75593e-05
0.000102374
6.93782e-05
7.41667e-05
0.000113833
2.89033e-05
0.000172367
-3.06985e-05
0.000246236
-0.00010246
0.000336479
-0.000184532
0.000443885
-0.000275239
0.000568959
-0.000372968
0.000711911
-0.000476113
0.00087268
-0.000583053
0.00105099
-0.00069217
0.00124649
-0.000801904
0.00145892
-0.000910841
0.00168844
-0.00101783
0.00193614
-0.00112212
0.00220445
-0.00122337
-0.00131358
0.00249316
9.75075e-07
4.305e-05
7.79838e-06
8.57375e-05
2.34502e-05
9.43707e-05
5.03543e-05
7.54702e-05
9.05803e-05
3.39407e-05
0.000145924
-2.644e-05
0.00021792
-0.000102695
0.000307816
-0.000192356
0.000416517
-0.000293233
0.000544529
-0.000403251
0.000691921
-0.000520361
0.000858315
-0.000642507
0.00104291
-0.000767644
0.00124453
-0.000893795
0.00146176
-0.00101914
0.00169302
-0.0011421
0.00193666
-0.00126148
0.00219106
-0.00137652
0.0024545
-0.0014868
-0.00158428
0.0027252
1.68872e-06
4.13613e-05
1.10401e-05
7.63861e-05
3.13301e-05
7.40807e-05
6.52238e-05
4.15764e-05
0.000114976
-1.58118e-05
0.000182485
-9.39488e-05
0.000269268
-0.000189478
0.000376398
-0.000299487
0.000504426
-0.00042126
0.000653308
-0.000552133
0.000822377
-0.00068943
0.00101035
-0.000830483
0.0012154
-0.000972691
0.00143523
-0.00111362
0.00166721
-0.00125112
0.00190852
-0.0013834
0.00215618
-0.00150914
0.00240712
-0.00162747
0.00265825
-0.00173793
-0.00183421
0.00290819
2.56235e-06
3.87989e-05
1.48891e-05
6.40594e-05
4.05324e-05
4.84374e-05
8.23686e-05
-2.59724e-07
0.000142778
-7.62209e-05
0.000223652
-0.000174823
0.000326326
-0.000292152
0.000451479
-0.000424639
0.00059903
-0.000568812
0.000768094
-0.000721197
0.000956977
-0.000878313
0.00116326
-0.00103676
0.00138392
-0.00119335
0.00161553
-0.00134523
0.00185444
-0.00149002
0.00209692
-0.00162588
0.00233933
-0.00175156
0.00257821
-0.00186634
0.00281034
-0.00197007
-0.00205855
0.00303468
3.62002e-06
3.51789e-05
1.94141e-05
4.82654e-05
5.1168e-05
1.66834e-05
0.000101909
-5.10011e-05
0.000174042
-0.000148353
0.000269291
-0.000270072
0.000388585
-0.000411447
0.000531927
-0.000567981
0.000698309
-0.000735194
0.000885709
-0.000908596
0.00109118
-0.00108379
0.00131106
-0.00125664
0.00154118
-0.00142347
0.00177718
-0.00158123
0.00201473
-0.00172758
0.00224979
-0.00186095
0.00247876
-0.00198052
0.00269853
-0.00208612
0.00290664
-0.00217817
-0.00225453
0.00310262
4.88068e-06
3.02982e-05
2.4662e-05
2.84841e-05
6.32924e-05
-2.19471e-05
0.000123853
-0.000111562
0.000208619
-0.000233119
0.00031893
-0.000380383
0.000455026
-0.000547543
0.000615922
-0.000728877
0.00079938
-0.000918652
0.00100202
-0.00111123
0.00121955
-0.00130132
0.00144712
-0.00148421
0.00167967
-0.00165602
0.0019123
-0.00181386
0.00214057
-0.00195585
0.00236071
-0.00208109
0.00256976
-0.00218957
0.00276557
-0.00228192
0.00294678
-0.00235938
-0.00242148
0.00311373
6.35647e-06
2.39417e-05
3.06514e-05
4.18912e-06
7.68915e-05
-6.81871e-05
0.000148069
-0.00018274
0.00024612
-0.00033117
0.000371723
-0.000505985
0.000524106
-0.000699927
0.000700983
-0.000905753
0.000898647
-0.00111632
0.00111226
-0.00132485
0.00133628
-0.00152534
0.00156493
-0.00171286
0.0017927
-0.00188379
0.00201472
-0.00203587
0.002227
-0.00216813
0.00242662
-0.00228071
0.00261167
-0.00237462
0.00278124
-0.00245149
0.00293522
-0.00251336
-0.00256108
0.00307481
8.05191e-06
1.58898e-05
3.73691e-05
-2.5128e-05
9.18727e-05
-0.000122691
0.000174273
-0.00026514
0.000285902
-0.0004428
0.000426452
-0.000646534
0.00059381
-0.000867285
0.000784122
-0.00109607
0.000992097
-0.00132429
0.00121152
-0.00154427
0.00143589
-0.0017497
0.00165898
-0.00193596
0.0018754
-0.00210022
0.00208087
-0.00224134
0.00227239
-0.00235964
0.0024482
-0.00245652
0.0026077
-0.00253412
0.00275119
-0.00259499
0.00287967
-0.00264184
-0.00267645
0.00299503
9.96346e-06
5.92637e-06
4.47673e-05
-5.99319e-05
0.000108061
-0.000185985
0.000202026
-0.000359105
0.000327077
-0.00056785
0.000481571
-0.000801029
0.000661762
-0.00104748
0.000862073
-0.00129638
0.00107569
-0.00153791
0.00129531
-0.0017639
0.00151394
-0.00196833
0.00172551
-0.00214753
0.0019253
-0.00230001
0.00211013
-0.00242617
0.00227829
-0.0025278
0.00242936
-0.00260759
0.00256394
-0.0026687
0.00268336
-0.00271441
0.00278937
-0.00274785
-0.00277137
0.00288429
1.20792e-05
-6.15288e-06
5.27633e-05
-0.000100616
0.000125198
-0.000258419
0.000230741
-0.000464647
0.00036854
-0.000705649
0.000535292
-0.000967781
0.000725404
-0.00123759
0.00093159
-0.00150256
0.00114577
-0.00175208
0.00136003
-0.00197816
0.00156749
-0.00217579
0.0017628
-0.00234284
0.00194242
-0.00247963
0.00210453
-0.00258829
0.00224881
-0.00267208
0.00237606
-0.00273484
0.00248787
-0.0027805
0.00258623
-0.00281277
0.00267332
-0.00283494
-0.00284958
0.00275153
1.43787e-05
-2.05316e-05
6.12386e-05
-0.000147476
0.000142946
-0.000340127
0.000259698
-0.000581399
0.000409025
-0.000854975
0.000585694
-0.00114445
0.000782202
-0.0014341
0.000989755
-0.00171011
0.00119945
-0.00196178
0.00140338
-0.00218209
0.00159535
-0.00236775
0.00177122
-0.00251872
0.00192891
-0.00263732
0.00206802
-0.0027274
0.0021895
-0.00279355
0.0022951
-0.00284044
0.00238705
-0.00287245
0.00246768
-0.00289341
0.00253926
-0.00290651
-0.00291433
0.00260401
1.68323e-05
-3.73639e-05
7.00403e-05
-0.000200684
0.000160895
-0.000430982
0.000288077
-0.000708581
0.000447174
-0.00101407
0.000630872
-0.00132815
0.000829869
-0.00163309
0.00103426
-0.0019145
0.0012349
-0.00216242
0.00142447
-0.00237166
0.00159799
-0.00254128
0.00175283
-0.00267356
0.00188839
-0.00277287
0.00200559
-0.00284461
0.00210635
-0.00289431
0.00219307
-0.00292716
0.00226824
-0.00294763
0.00233427
-0.00295943
0.00239326
-0.00296551
-0.00296824
0.00244717
1.94009e-05
-5.67648e-05
7.89827e-05
-0.000260266
0.000178577
-0.000530576
0.000314991
-0.000844995
0.000481629
-0.00118071
0.000669083
-0.0015156
0.00086656
-0.00183057
0.00106357
-0.00211151
0.00125137
-0.00235022
0.00142375
-0.00254404
0.00157725
-0.00269478
0.00171082
-0.00280713
0.00182524
-0.0028873
0.00192247
-0.00294184
0.00200507
-0.0029769
0.00207572
-0.00299781
0.00213697
-0.00300888
0.00219105
-0.00301351
0.0022398
-0.00301426
-0.00301326
0.00228483
2.20367e-05
-7.88014e-05
8.78526e-05
-0.000326082
0.000195482
-0.000638205
0.000339544
-0.000989058
0.000511121
-0.00135229
0.000698888
-0.00170337
0.000891014
-0.0020227
0.00107705
-0.00229755
0.00124919
-0.00252235
0.00140273
-0.00269758
0.00153584
-0.0028279
0.00164896
-0.00292024
0.00174397
-0.00298231
0.00182355
-0.00302141
0.00189056
-0.00304392
0.00194775
-0.003055
0.00199748
-0.00305861
0.00204171
-0.00305774
0.00208198
-0.00305454
-0.00305081
0.00211953
2.46832e-05
-0.000103485
9.64167e-05
-0.000397815
0.000211088
-0.000752877
0.000360883
-0.00113885
0.000534571
-0.00152598
0.000719248
-0.00188805
0.000902615
-0.00220606
0.00107485
-0.00246978
0.00122954
-0.00267704
0.00136365
-0.0028317
0.00147695
-0.00294119
0.00157109
-0.00301438
0.00164877
-0.00305999
0.00171305
-0.00308569
0.00176686
-0.00309773
0.00181278
-0.00310091
0.00185289
-0.00309873
0.00188885
-0.00309369
0.00192189
-0.00308757
-0.00308185
0.00195293
2.72778e-05
-0.000130762
0.000104431
-0.000474968
0.000224887
-0.000873332
0.000378252
-0.00129222
0.000551155
-0.00169888
0.000729581
-0.00206647
0.000901372
-0.00237785
0.00105784
-0.00262625
0.00119422
-0.00281342
0.00130917
-0.00294665
0.00140384
-0.00303586
0.00148081
-0.00309136
0.00154329
-0.00312247
0.00159444
-0.00313684
0.00163706
-0.00314035
0.00167345
-0.0031373
0.00170539
-0.00313068
0.00173421
-0.00312251
0.00176087
-0.00311423
-0.00310702
0.00178604
2.97533e-05
-0.000160516
0.000111654
-0.000556869
0.000236414
-0.000998093
0.000391045
-0.00144685
0.00056035
-0.00186818
0.000729766
-0.00223589
0.000887832
-0.00253592
0.00102737
-0.00276579
0.00114535
-0.00293141
0.001242
-0.0030433
0.00131957
-0.00311343
0.00138129
-0.00315308
0.00143054
-0.00317172
0.00147042
-0.00317672
0.00150348
-0.00317341
0.00153168
-0.00316551
0.00155649
-0.00315548
0.00157895
-0.00314498
0.0015998
-0.00313507
-0.00312673
0.00161951
3.20411e-05
-0.000192557
0.000117856
-0.000642683
0.000245275
-0.00112551
0.000398832
-0.00160041
0.000561948
-0.0020313
0.000720087
-0.00239403
0.000862958
-0.00267879
0.000985099
-0.00288793
0.00108519
-0.00303149
0.00116476
-0.00312287
0.00122689
-0.00317556
0.00127515
-0.00320133
0.00131292
-0.0032095
0.00134307
-0.00320686
0.00136781
-0.00319815
0.0013888
-0.00318649
0.0014072
-0.00317389
0.00142382
-0.0031616
0.00143922
-0.00315047
-0.00314123
0.00145373
3.40744e-05
-0.000226631
0.000122834
-0.000731443
0.000251166
-0.00125384
0.00040138
-0.00175062
0.000556034
-0.00218595
0.000701164
-0.00253916
0.00082799
-0.00280562
0.000932829
-0.00299277
0.0010159
-0.00311457
0.0010798
-0.00318676
0.00112811
-0.00322388
0.00116454
-0.00323776
0.00119227
-0.00323723
0.00121388
-0.00322847
0.00123125
-0.00321552
0.00124572
-0.00320096
0.00125821
-0.00318637
0.00126933
-0.00317273
0.0012795
-0.00316064
-0.00315068
0.00128895
3.57947e-05
-0.000262426
0.000126428
-0.000822076
0.000253898
-0.00138131
0.000398662
-0.00189538
0.000542963
-0.00233026
0.000673874
-0.00267007
0.000784327
-0.00291607
0.000872366
-0.00308081
0.000939528
-0.00318173
0.000989169
-0.0032364
0.00102517
-0.00325988
0.00105113
-0.00326372
0.00107
-0.0032561
0.00108399
-0.00324246
0.00109467
-0.0032262
0.0011031
-0.00320939
0.00110999
-0.00319326
0.00111582
-0.00317856
0.0011209
-0.00316572
-0.00315516
0.00112538
3.71408e-05
-0.000299567
0.000128499
-0.000913434
0.00025336
-0.00150618
0.000390785
-0.00203281
0.000523241
-0.00246271
0.000639189
-0.00278601
0.000733357
-0.00301024
0.000805366
-0.00315282
0.000857812
-0.00323417
0.000894558
-0.00327315
0.000919552
-0.00328487
0.000936194
-0.00328036
0.000947105
-0.00326701
0.000954158
-0.00324951
0.000958622
-0.00323066
0.000961334
-0.0032121
0.000962844
-0.00319477
0.000963513
-0.00317923
0.000963568
-0.00316577
-0.00315471
0.00096312
3.80706e-05
-0.000337637
0.000128975
-0.00100434
0.000249572
-0.00162677
0.00037804
-0.00216128
0.00049755
-0.00258222
0.000598196
-0.00288666
0.000676472
-0.00308851
0.000733372
-0.00320972
0.000772293
-0.0032731
0.000797374
-0.00329823
0.000812475
-0.00329997
0.000820708
-0.00328859
0.000824353
-0.00327066
0.000824961
-0.00325012
0.000823546
-0.00322925
0.000820755
-0.00320931
0.00081701
-0.00319103
0.000812589
-0.00317481
0.000807663
-0.00316084
-0.00314936
0.000802311
3.855e-05
-0.000376187
0.000127823
-0.00109361
0.000242639
-0.00174159
0.000360818
-0.00227946
0.000466642
-0.00268805
0.000551969
-0.00297199
0.000614949
-0.00315149
0.000657723
-0.00325249
0.000684244
-0.00329962
0.000698737
-0.00331272
0.000704859
-0.0033061
0.000705398
-0.00328913
0.000702292
-0.00326755
0.000696808
-0.00324464
0.000689739
-0.00322218
0.000681583
-0.00320116
0.000672662
-0.00318211
0.000663192
-0.00316534
0.000653306
-0.00315096
-0.00313912
0.000643064
3.85565e-05
-0.000414744
0.000125056
-0.00118011
0.00023274
-0.00184927
0.000339585
-0.0023863
0.000431295
-0.00277976
0.000501531
-0.00304222
0.000549936
-0.0031999
0.000579563
-0.00328212
0.000594704
-0.00331476
0.000599525
-0.00331754
0.000597408
-0.00330398
0.000590798
-0.00328252
0.000581321
-0.00325808
0.000569991
-0.00323331
0.00055742
-0.00320961
0.000543986
-0.00318772
0.000529937
-0.00316806
0.000515442
-0.00315084
0.000500608
-0.00313613
-0.00312399
0.000485484
3.80801e-05
-0.000452824
0.000120728
-0.00126276
0.000220116
-0.00194866
0.00031485
-0.00248103
0.000392282
-0.00285719
0.000447829
-0.00309777
0.00048244
-0.00323451
0.000499849
-0.00329953
0.000504511
-0.00331942
0.000500423
-0.00331345
0.00049065
-0.0032942
0.000477305
-0.00326918
0.000461729
-0.0032425
0.000444722
-0.0032163
0.000426751
-0.00319164
0.000408096
-0.00316907
0.000388947
-0.00314891
0.00036944
-0.00313133
0.000349667
-0.00311635
-0.003104
0.000329669
3.71221e-05
-0.000489946
0.000114923
-0.00134056
0.000205048
-0.00203879
0.000287141
-0.00256313
0.000350337
-0.00292038
0.000391717
-0.00313915
0.000413325
-0.00325612
0.000419373
-0.00330558
0.000414334
-0.00331438
0.000401958
-0.00330108
0.000384982
-0.00327723
0.000365208
-0.0032494
0.000343726
-0.00322102
0.00032116
-0.00319373
0.000297855
-0.00316833
0.000274016
-0.00314523
0.000249786
-0.00312468
0.000225276
-0.00310682
0.00020057
-0.00309165
-0.00307914
0.000175709
3.56943e-05
-0.00052564
0.000107757
-0.00141262
0.000187841
-0.00211887
0.000256977
-0.00263226
0.000306144
-0.00296955
0.000333946
-0.00316695
0.00034332
-0.00326549
0.000338779
-0.00330104
0.000324696
-0.0033003
0.000304535
-0.00328092
0.000280704
-0.0032534
0.000254723
-0.00322342
0.000227469
-0.00319377
0.000199421
-0.00316569
0.000170827
-0.00313974
0.000141828
-0.00311623
0.00011253
-0.00309538
8.30254e-05
-0.00307732
5.3394e-05
-0.00306201
-0.00304943
2.36847e-05
3.38183e-05
-0.000559459
9.93624e-05
-0.00147817
0.000168812
-0.00218832
0.000224858
-0.00268831
0.000260322
-0.00300501
0.00027517
-0.0031818
0.000273038
-0.00326336
0.000258589
-0.00328659
0.000236015
-0.00327772
0.000208466
-0.00325337
0.000178042
-0.00322297
0.00014601
-0.00319139
0.000113075
-0.00316083
7.95954e-05
-0.00313221
4.57407e-05
-0.00310588
1.16005e-05
-0.00308209
-2.27548e-05
-0.00306103
-5.72477e-05
-0.00304283
-9.17944e-05
-0.00302747
-0.00301489
-0.000126335
3.15232e-05
-0.000590982
8.98857e-05
-0.00153653
0.000148278
-0.00224671
0.000191254
-0.00273129
0.000213425
-0.00302719
0.00021595
-0.00318432
0.000202988
-0.0032504
0.000179226
-0.00326283
0.000148617
-0.00324711
0.000113995
-0.00321875
7.71695e-05
-0.00318615
3.91954e-05
-0.00315342
6.33317e-07
-0.00312227
-3.8251e-05
-0.00309332
-7.73499e-05
-0.00306678
-0.000116621
-0.00304282
-0.000156025
-0.00302162
-0.000195499
-0.00300335
-0.000234951
-0.00298802
-0.00297554
-0.000274302
2.88448e-05
-0.000619827
7.94813e-05
-0.00158717
0.000126547
-0.00229378
0.000156596
-0.00276133
0.000165943
-0.00303653
0.000156768
-0.00317515
0.000133594
-0.00322722
0.000101036
-0.00323027
6.27712e-05
-0.00320885
2.13188e-05
-0.00317729
-2.17695e-05
-0.00314306
-6.562e-05
-0.00310957
-0.000109785
-0.0030781
-0.000154067
-0.00304904
-0.000198409
-0.00302244
-0.00024281
-0.00299842
-0.000287263
-0.00297717
-0.000331719
-0.0029589
-0.000376072
-0.00294366
-0.00293139
-0.000420221
2.5824e-05
-0.000645651
6.83068e-05
-0.00162965
0.000103912
-0.00232938
0.000121277
-0.0027787
0.000118307
-0.00303356
9.80344e-05
-0.00315488
6.52118e-05
-0.0031944
2.43074e-05
-0.00318936
-2.13015e-05
-0.00316324
-6.93936e-05
-0.0031292
-0.000118649
-0.00309381
-0.000168343
-0.00305987
-0.000218114
-0.00302833
-0.000267813
-0.00299934
-0.000317416
-0.00297284
-0.000366961
-0.00294887
-0.000416478
-0.00292765
-0.000465938
-0.00290944
-0.00051522
-0.00289438
-0.00288242
-0.000564182
2.25053e-05
-0.000668156
5.65187e-05
-0.00166366
8.06518e-05
-0.00235352
8.56534e-05
-0.0027837
7.08947e-05
-0.00301881
4.01026e-05
-0.00312408
-1.85479e-06
-0.00315244
-5.07133e-05
-0.00314051
-0.000103403
-0.00311055
-0.000157985
-0.00307462
-0.000213343
-0.00303845
-0.000268876
-0.00300434
-0.000324284
-0.00297293
-0.000379444
-0.00294418
-0.000434354
-0.00291793
-0.000489082
-0.00289415
-0.000543704
-0.00287303
-0.00059822
-0.00285492
-0.000652499
-0.0028401
-0.00282859
-0.000706337
1.89362e-05
-0.000687092
4.42707e-05
-0.001689
5.70232e-05
-0.00236627
5.00458e-05
-0.00277672
2.40377e-05
-0.0029928
-1.67203e-05
-0.00308333
-6.73408e-05
-0.00310182
-0.000123803
-0.00308404
-0.000183346
-0.00305101
-0.000244293
-0.00301367
-0.00030571
-0.00297703
-0.0003671
-0.00294295
-0.000428202
-0.00291182
-0.000488903
-0.00288348
-0.0005492
-0.00285763
-0.000609181
-0.00283417
-0.000668971
-0.00281324
-0.00072862
-0.00279527
-0.000787994
-0.00278073
-0.00276979
-0.000846794
1.51652e-05
-0.000702257
3.17105e-05
-0.00170554
3.32647e-05
-0.00236782
1.47408e-05
-0.0027582
-2.1971e-05
-0.00295609
-7.2164e-05
-0.00303313
-0.000131008
-0.00304298
-0.000194753
-0.0030203
-0.00026094
-0.00298482
-0.000328139
-0.00294647
-0.000395579
-0.00290959
-0.000462854
-0.00287567
-0.000529735
-0.00284494
-0.000596096
-0.00281712
-0.000661912
-0.00279182
-0.000727265
-0.00276881
-0.000792319
-0.00274819
-0.000857192
-0.0027304
-0.000921762
-0.00271616
-0.00270596
-0.000985589
1.12417e-05
-0.000713499
1.89789e-05
-0.00171328
9.59439e-06
-0.00235844
-2.0005e-05
-0.0027286
-6.68725e-05
-0.00290922
-0.000125987
-0.00297402
-0.000192637
-0.00297633
-0.000263357
-0.00294958
-0.000335981
-0.0029122
-0.000409309
-0.00287315
-0.000482725
-0.00283617
-0.000555911
-0.00280249
-0.000628668
-0.00277219
-0.000700856
-0.00274493
-0.000772399
-0.00272027
-0.000843336
-0.00269788
-0.000913841
-0.00267768
-0.000984108
-0.00266013
-0.00105405
-0.00264622
-0.0026369
-0.00112311
7.21441e-06
-0.000720713
6.2078e-06
-0.00171227
-1.37899e-05
-0.00233844
-5.39637e-05
-0.00268843
-0.000110438
-0.00285274
-0.000177974
-0.00290648
-0.00025202
-0.00290228
-0.000329407
-0.00287219
-0.000408247
-0.00283336
-0.000487554
-0.00279384
-0.000566865
-0.00275686
-0.000645954
-0.0027234
-0.000724672
-0.00269347
-0.000802879
-0.00266672
-0.000880444
-0.00264271
-0.00095733
-0.00262099
-0.00103369
-0.00260133
-0.0011098
-0.00258402
-0.00118565
-0.00257037
-0.00256166
-0.00126089
3.13078e-06
-0.000723844
-6.48088e-06
-0.00170266
-3.67113e-05
-0.00230821
-8.69357e-05
-0.0026382
-0.000152468
-0.00278721
-0.000227929
-0.00283102
-0.000308965
-0.00282125
-0.000392695
-0.00278846
-0.000477496
-0.00274856
-0.000562587
-0.00270875
-0.00064765
-0.0026718
-0.000732573
-0.00263848
-0.000817291
-0.00260875
-0.000901702
-0.00258231
-0.00098566
-0.00255875
-0.00106905
-0.0025376
-0.00115198
-0.0025184
-0.00123484
-0.00250116
-0.00131785
-0.00248736
-0.00247792
-0.00140159
-9.64433e-07
-0.00072288
-1.89772e-05
-0.00168465
-5.90154e-05
-0.00226817
-0.00011875
-0.00257847
-0.000192791
-0.00271317
-0.000275685
-0.00274813
-0.000363292
-0.00273364
-0.000453011
-0.00269874
-0.000543467
-0.0026581
-0.000634065
-0.00261815
-0.000724636
-0.00258123
-0.000815204
-0.00254791
-0.000905841
-0.00251811
-0.000996584
-0.00249157
-0.00108738
-0.00246796
-0.00117811
-0.00244686
-0.0012688
-0.00242771
-0.00135979
-0.00241017
-0.00145167
-0.00239548
-0.00238242
-0.00154716
-5.03006e-06
-0.00071785
-3.11846e-05
-0.00165849
-8.05715e-05
-0.00221879
-0.000149266
-0.00250977
-0.00023127
-0.00263117
-0.000321105
-0.00265829
-0.00041485
-0.0026399
-0.000510167
-0.00260342
-0.000605897
-0.00256237
-0.000701604
-0.00252244
-0.00079725
-0.00248558
-0.000892991
-0.00245217
-0.000989087
-0.00242202
-0.00108583
-0.00239482
-0.0011835
-0.00237028
-0.00128231
-0.00234806
-0.00138237
-0.00232766
-0.00148425
-0.00230829
-0.00159024
-0.00228949
-0.00228283
-0.00168983
-9.01722e-06
-0.000708832
-4.30015e-05
-0.00162451
-0.000101251
-0.00216054
-0.000178353
-0.00243267
-0.000267785
-0.00254173