/*--------------------------------*- C++ -*----------------------------------*\
  =========                 |
  \\      /  F ield         | OpenFOAM: The Open Source CFD Toolbox
   \\    /   O peration     | Website:  https://openfoam.org
    \\  /    A nd           | Version:  6.0
     \\/     M anipulation  |
\*---------------------------------------------------------------------------*/
FoamFile
{
    version     2.0;
    format      ascii;
    class       surfaceScalarField;
    location    "12";
    object      phi;
}
// * * * * * * * * * * * * * * * * * * * * * * * * * * * * * * * * * * * * * //

dimensions      [0 3 -1 0 0 0 0];

internalField   nonuniform List<scalar> 
7840
(
3.59869e-05
-0.000265396
0.000126951
-0.000830303
0.000254651
-0.00139378
0.00039936
-0.00191068
0.000543253
-0.0023469
0.000673438
-0.00268681
0.000782955
-0.00293208
0.000869967
-0.00309565
0.000936109
-0.00319529
0.000984801
-0.00324875
0.00101995
-0.00327118
0.00104517
-0.00327417
0.00106339
-0.00326586
0.00107681
-0.00325165
0.00108697
-0.00323493
0.00109491
-0.00321773
0.00110136
-0.00320126
0.00110676
-0.00318624
0.00111141
-0.00317311
-0.00316227
0.00111548
3.73124e-05
-0.000302708
0.000128931
-0.000921923
0.000253909
-0.00151876
0.000391152
-0.00204793
0.000523093
-0.00247884
0.00063826
-0.00280198
0.000731493
-0.00302531
0.000802525
-0.00316669
0.000854033
-0.0032468
0.000889927
-0.00328464
0.000914171
-0.00329543
0.000930157
-0.00329015
0.000940491
-0.00327619
0.000947027
-0.00325819
0.000951018
-0.00323892
0.000953288
-0.00322
0.000954377
-0.00320235
0.00095464
-0.00318651
0.000954298
-0.00317277
-0.00316144
0.000953463
3.8219e-05
-0.000340927
0.000129312
-0.00101302
0.00024992
-0.00163937
0.000378096
-0.0021761
0.000497013
-0.00259776
0.000596849
-0.00290182
0.000674212
-0.00310268
0.000730195
-0.00322267
0.000768261
-0.00328486
0.000792579
-0.00330896
0.000807011
-0.00330986
0.00081466
-0.0032978
0.000817786
-0.00327932
0.000817925
-0.00325833
0.000816073
-0.00323707
0.00081287
-0.0032168
0.000808729
-0.00319821
0.000803924
-0.0031817
0.000798622
-0.00316747
-0.00315572
0.000792903
3.86733e-05
-0.0003796
0.000128064
-0.00110241
0.000242792
-0.00175409
0.00036059
-0.0022939
0.000465766
-0.00270293
0.000550276
-0.00298633
0.00061238
-0.00316478
0.000654302
-0.00326459
0.000680045
-0.0033106
0.000693852
-0.00332277
0.000699376
-0.00331538
0.000699388
-0.00329781
0.00069581
-0.00327574
0.000689892
-0.00325241
0.000682417
-0.0032296
0.000673872
-0.00320825
0.000664577
-0.00318891
0.000654741
-0.00317187
0.000644498
-0.00315723
-0.00314513
0.000633906
3.86537e-05
-0.000418254
0.000125203
-0.00118896
0.000232712
-0.0018616
0.000339103
-0.00240029
0.000430133
-0.00279396
0.000499561
-0.00305575
0.000547135
-0.00321235
0.000575974
-0.00329343
0.000590409
-0.00332504
0.000594611
-0.00332697
0.000591953
-0.00331272
0.000584863
-0.00329072
0.000574951
-0.00326583
0.000563217
-0.00324068
0.000550263
-0.00321664
0.000536462
-0.00319445
0.000522056
-0.00317451
0.000507212
-0.00315702
0.000492038
-0.00314205
-0.00312967
0.000476581
3.81507e-05
-0.000456405
0.000120783
-0.00127159
0.000219923
-0.00196074
0.000314149
-0.00249452
0.000390883
-0.0028707
0.000445646
-0.00311052
0.000479473
-0.00324618
0.000496157
-0.00331011
0.000500176
-0.00332906
0.000495525
-0.00332232
0.000485258
-0.00330246
0.000471471
-0.00327694
0.000455489
-0.00324985
0.000438103
-0.00322329
0.000419768
-0.00319831
0.000400764
-0.00317545
0.000381275
-0.00315502
0.000361435
-0.00313718
0.000341337
-0.00312195
-0.00310935
0.000321022
3.71662e-05
-0.000493571
0.000114893
-0.00134931
0.000204707
-0.00205056
0.000286254
-0.00257606
0.00034875
-0.00293319
0.000389374
-0.00315114
0.000410247
-0.00326705
0.000415628
-0.00331549
0.00041
-0.00332343
0.00039711
-0.00330943
0.00037968
-0.00328503
0.000359494
-0.00325675
0.000337631
-0.00322798
0.000314704
-0.00320036
0.000291054
-0.00317466
0.00026688
-0.00315127
0.000242325
-0.00313046
0.000217498
-0.00311236
0.000192481
-0.00309694
-0.00308419
0.000167319
3.57129e-05
-0.000529284
0.000107648
-0.00142125
0.000187371
-0.00213028
0.000255936
-0.00264463
0.000304411
-0.00298167
0.00033149
-0.00317822
0.000340179
-0.00327574
0.000335022
-0.00331034
0.000320398
-0.00330881
0.000299763
-0.00328879
0.000275509
-0.00326077
0.000249141
-0.00323038
0.000221527
-0.00320037
0.000193136
-0.00317197
0.000164211
-0.00314573
0.000134893
-0.00312195
0.000105284
-0.00310085
7.54747e-05
-0.00308255
4.55471e-05
-0.00306701
-0.00305419
1.55496e-05
3.38125e-05
-0.000563096
9.91827e-05
-0.00148662
0.000168232
-0.00219933
0.000223694
-0.00270009
0.00025848
-0.00301645
0.000272641
-0.00319238
0.00026987
-0.00327297
0.000254851
-0.00329532
0.000231777
-0.00328573
0.000203788
-0.0032608
0.000172967
-0.00322995
0.00014057
-0.00319799
0.000107291
-0.00316709
7.34835e-05
-0.00313816
3.93126e-05
-0.00311156
4.86565e-06
-0.00308751
-2.97882e-05
-0.0030662
-6.45716e-05
-0.00304776
-9.94013e-05
-0.00303218
-0.00301938
-0.000134217
3.14948e-05
-0.000594591
8.96436e-05
-0.00154477
0.000147606
-0.00225729
0.000189993
-0.00274248
0.000211507
-0.00303797
0.000213382
-0.00319426
0.000199823
-0.00325941
0.000175532
-0.00327103
0.000144459
-0.00325466
0.000109423
-0.00322577
7.22233e-05
-0.00319275
3.39015e-05
-0.00315966
-4.98905e-06
-0.0031282
-4.41878e-05
-0.00309896
-8.35902e-05
-0.00307216
-0.000123156
-0.00304794
-0.000162846
-0.00302651
-0.000202599
-0.00300801
-0.00024232
-0.00299246
-0.00297976
-0.000281934
2.87958e-05
-0.000623387
7.91855e-05
-0.00159516
0.0001258
-0.00230391
0.000155263
-0.00277194
0.000163977
-0.00304668
0.000154188
-0.00318447
0.000130455
-0.00323568
9.74048e-05
-0.00323798
5.87048e-05
-0.00321596
1.68632e-05
-0.00318393
-2.65812e-05
-0.00314931
-7.07642e-05
-0.00311548
-0.000115244
-0.00308372
-0.000159829
-0.00305438
-0.000204463
-0.00302753
-0.000249146
-0.00300326
-0.000293874
-0.00298178
-0.000338597
-0.00296329
-0.000383209
-0.00294785
-0.00293537
-0.000427607
2.57564e-05
-0.000649143
6.79655e-05
-0.00163737
0.000103107
-0.00233905
0.000119894
-0.00278873
0.000116316
-0.0030431
9.54634e-05
-0.00316361
6.2118e-05
-0.00320233
2.0752e-05
-0.00319661
-2.5266e-05
-0.00316994
-7.37273e-05
-0.00313547
-0.000123323
-0.00309971
-0.000173337
-0.00306547
-0.000223411
-0.00303365
-0.000273401
-0.00300439
-0.000323286
-0.00297764
-0.000373102
-0.00295344
-0.000422884
-0.002932
-0.000472599
-0.00291357
-0.000522129
-0.00289832
-0.00288617
-0.000571329
2.24214e-05
-0.000671565
5.614e-05
-0.00167109
7.98023e-05
-0.00236271
8.42383e-05
-0.00279316
6.88975e-05
-0.00302776
3.75584e-05
-0.00313227
-4.88981e-06
-0.00315989
-5.41824e-05
-0.00314732
-0.000107259
-0.00311686
-0.000162193
-0.00308053
-0.000217877
-0.00304403
-0.000273719
-0.00300963
-0.00032942
-0.00297795
-0.000384861
-0.00294895
-0.000440042
-0.00292246
-0.000495033
-0.00289845
-0.000549908
-0.00287712
-0.000604671
-0.00285881
-0.000659187
-0.0028438
-0.0028321
-0.000713254
1.88381e-05
-0.000690403
4.38618e-05
-0.00169611
5.61419e-05
-0.00237499
4.86141e-05
-0.00278564
2.20506e-05
-0.0030012
-1.92241e-05
-0.003091
-7.03066e-05
-0.0031088
-0.000127179
-0.00309045
-0.00018709
-0.00305695
-0.000248374
-0.00301925
-0.000310106
-0.0029823
-0.000371793
-0.00294794
-0.000433179
-0.00291656
-0.000494152
-0.00288798
-0.000554711
-0.0028619
-0.000614945
-0.00283822
-0.00067498
-0.00281709
-0.000734866
-0.00279893
-0.000794469
-0.0027842
-0.00277308
-0.000853488
1.50552e-05
-0.000705458
3.12784e-05
-0.00171233
3.23627e-05
-0.00237607
1.33056e-05
-0.00276658
-2.39354e-05
-0.00296396
-7.46167e-05
-0.00304032
-0.000133897
-0.00304952
-0.000198031
-0.00302631
-0.000264569
-0.00299042
-0.000332091
-0.00295173
-0.000399836
-0.00291455
-0.000467399
-0.00288037
-0.000534555
-0.0028494
-0.000601181
-0.00282135
-0.00066725
-0.00279583
-0.000732847
-0.00277262
-0.000798138
-0.0027518
-0.00086324
-0.00273382
-0.00092803
-0.00271941
-0.00270904
-0.000992067
1.11218e-05
-0.00071658
1.85296e-05
-0.00171974
8.68121e-06
-0.00236623
-2.14328e-05
-0.00273646
-6.88042e-05
-0.00291659
-0.000128381
-0.00298074
-0.000195443
-0.00298246
-0.000266533
-0.00295522
-0.000339493
-0.00291746
-0.000413133
-0.00287809
-0.000486844
-0.00284084
-0.00056031
-0.00280691
-0.000633335
-0.00277638
-0.00070578
-0.00274891
-0.000777569
-0.00272404
-0.000848743
-0.00270145
-0.000919477
-0.00268106
-0.000989965
-0.00266333
-0.00106012
-0.00264926
-0.00263978
-0.00112938
7.08656e-06
-0.000723666
5.74673e-06
-0.0017184
-1.47062e-05
-0.00234577
-5.53754e-05
-0.0026958
-0.000112329
-0.00285963
-0.000180303
-0.00291277
-0.000254741
-0.00290802
-0.00033248
-0.00287748
-0.000411642
-0.00283829
-0.000491251
-0.00279848
-0.000570847
-0.00276124
-0.000650208
-0.00272755
-0.000729188
-0.0026974
-0.000807645
-0.00267045
-0.000885451
-0.00264624
-0.000962568
-0.00262433
-0.00103915
-0.00260448
-0.00111547
-0.00258701
-0.00119154
-0.0025732
-0.00256434
-0.00126697
2.99679e-06
-0.000726663
-6.94892e-06
-0.00170845
-3.7624e-05
-0.0023151
-8.83241e-05
-0.0026451
-0.000154313
-0.00279364
-0.000230189
-0.00283689
-0.000311597
-0.00282661
-0.000395663
-0.00279342
-0.000480775
-0.00275318
-0.000566156
-0.0027131
-0.000651496
-0.00267591
-0.000736684
-0.00264236
-0.000821657
-0.00261242
-0.000906314
-0.00258579
-0.000990508
-0.00256204
-0.00107413
-0.00254071
-0.00115728
-0.00252134
-0.00124035
-0.00250393
-0.00132356
-0.00248998
-0.00248039
-0.00140752
-1.10292e-06
-0.00072556
-1.94481e-05
-0.00169011
-5.99188e-05
-0.00227463
-0.000120109
-0.00258491
-0.000194584
-0.00271917
-0.000277873
-0.0027536
-0.000365834
-0.00273865
-0.000455875
-0.00270338
-0.000546628
-0.00266243
-0.000637507
-0.00262222
-0.000728346
-0.00258507
-0.000819171
-0.00255153
-0.000910058
-0.00252154
-0.00100104
-0.00249481
-0.00109207
-0.00247101
-0.00118303
-0.00244975
-0.00127394
-0.00243043
-0.00136514
-0.00241273
-0.00145723
-0.00239789
-0.00238468
-0.00155294
-5.17156e-06
-0.000720389
-3.16548e-05
-0.00166363
-8.14611e-05
-0.00222482
-0.000150592
-0.00251577
-0.000233009
-0.00263675
-0.000323219
-0.00266339
-0.000417302
-0.00264457
-0.000512927
-0.00260775
-0.000608942
-0.00256641
-0.00070492
-0.00252624
-0.000800824
-0.00248916
-0.000896814
-0.00245554
-0.000993151
-0.0024252
-0.00109013
-0.00239783
-0.00118803
-0.00237311
-0.00128706
-0.00235072
-0.00138734
-0.00233016
-0.00148944
-0.00231063
-0.00159566
-0.00229167
-0.00228491
-0.00169544
-9.16039e-06
-0.000711228
-4.34681e-05
-0.00162932
-0.000102123
-0.00216617
-0.000179643
-0.00243825
-0.000269468
-0.00254693
-0.000366117
-0.00256674
-0.000465888
-0.0025448
-0.000566686
-0.00250695
-0.000667533
-0.00246557
-0.000768112
-0.00242566
-0.000868449
-0.00238883
-0.000968752
-0.00235524
-0.00106935
-0.0023246
-0.00117071
-0.00229647
-0.00127346
-0.00227036
-0.00137844
-0.00224574
-0.00148652
-0.00222208
-0.00159807
-0.00219907
-0.00171406
-0.00217568
-0.00214477
-0.00185419
-1.30597e-05
-0.000698169
-5.4859e-05
-0.00158752
-0.00012187
-0.00209915
-0.000207235
-0.00235289
-0.000303948
-0.00245021
-0.000406569
-0.00246412
-0.000511608
-0.00243976
-0.000617176
-0.00240139
-0.000722442
-0.0023603
-0.000827157
-0.00232095
-0.00093135
-0.00228463
-0.00103517
-0.00225142
-0.0011388
-0.00222097
-0.00124246
-0.0021928
-0.00134641
-0.00216641
-0.00145083
-0.00214132
-0.00155579
-0.00211712
-0.00166153
-0.00209334
-0.00176874
-0.00206847
-0.00203898
-0.00187453
-1.68315e-05
-0.000681337
-6.57566e-05
-0.00153859
-0.000140622
-0.00202429
-0.0002333
-0.00226021
-0.000336403
-0.00234711
-0.000444554
-0.00235597
-0.000554463
-0.00232985
-0.000664432
-0.00229142
-0.000773754
-0.00225098
-0.000882242
-0.00221246
-0.000989943
-0.00217693
-0.00109699
-0.00214438
-0.00120353
-0.00211443
-0.0013097
-0.00208663
-0.00141558
-0.00206053
-0.00152119
-0.00203571
-0.0016265
-0.0020118
-0.00173147
-0.00198837
-0.00183538
-0.00196456
-0.00193954
-0.00193483
-2.04548e-05
-0.000660882
-7.61224e-05
-0.00148293
-0.000158342
-0.00194207
-0.000257818
-0.00216074
-0.000366838
-0.00223809
-0.000480102
-0.00224271
-0.000594513
-0.00221544
-0.00070854
-0.00217739
-0.00082158
-0.00213794
-0.000933488
-0.00210055
-0.00104431
-0.00206611
-0.00115416
-0.00203453
-0.00126312
-0.00200547
-0.00137127
-0.00197849
-0.0014786
-0.0019532
-0.00158504
-0.00192927
-0.00169045
-0.0019064
-0.00179454
-0.00188427
-0.00189666
-0.00186244
-0.00184047
-0.00199573
-2.39128e-05
-0.00063697
-8.59288e-05
-0.00142091
-0.000175009
-0.00185299
-0.000280787
-0.00205496
-0.000395278
-0.0021236
-0.000513269
-0.00212472
-0.000631847
-0.00209686
-0.000749635
-0.0020596
-0.000866122
-0.00202145
-0.000981207
-0.00198547
-0.00109494
-0.00195237
-0.00120743
-0.00192205
-0.00131872
-0.00189417
-0.00142887
-0.00186834
-0.00153784
-0.00184423
-0.00164557
-0.00182154
-0.00175191
-0.00180005
-0.00185662
-0.00177957
-0.00195928
-0.00175977
-0.00174043
-0.00205932
-2.71924e-05
-0.000609777
-9.51569e-05
-0.00135295
-0.000190613
-0.00175753
-0.000302219
-0.00194335
-0.000421759
-0.00200406
-0.000544118
-0.00200236
-0.000666554
-0.00197443
-0.000787833
-0.00193832
-0.000907528
-0.00190176
-0.00102558
-0.00186741
-0.00114205
-0.0018359
-0.00125704
-0.00180706
-0.00137061
-0.0017806
-0.0014828
-0.00175616
-0.00159358
-0.00173345
-0.0017029
-0.00171222
-0.00181066
-0.00169229
-0.00191672
-0.00167351
-0.00202086
-0.00165563
-0.00163848
-0.0021228
-3.02834e-05
-0.000579494
-0.000103794
-0.00127944
-0.000205154
-0.00165617
-0.000322134
-0.00182637
-0.000446325
-0.00187987
-0.000572714
-0.00187597
-0.000698725
-0.00184842
-0.000823252
-0.0018138
-0.000945947
-0.00177906
-0.00106679
-0.00174657
-0.00118586
-0.00171682
-0.00130327
-0.00168966
-0.00141909
-0.00166478
-0.00153336
-0.00164189
-0.0016461
-0.00162071
-0.00175728
-0.00160104
-0.00186686
-0.00158272
-0.00197476
-0.00156561
-0.00208091
-0.00154948
-0.00153425
-0.00218514
-3.31781e-05
-0.000546316
-0.000111834
-0.00120078
-0.000218636
-0.00154937
-0.000340552
-0.00170446
-0.000469016
-0.0017514
-0.00059912
-0.00174587
-0.000728439
-0.0017191
-0.000855987
-0.00168625
-0.000981489
-0.00165356
-0.00110496
-0.0016231
-0.00122652
-0.00159527
-0.00134626
-0.00156991
-0.0014643
-0.00154674
-0.00158069
-0.0015255
-0.00169547
-0.00150593
-0.00180866
-0.00148785
-0.00192026
-0.00147112
-0.00203025
-0.00145561
-0.00213862
-0.00144111
-0.00142756
-0.00224531
-3.58705e-05
-0.000510445
-0.000119271
-0.00111738
-0.000231064
-0.00143758
-0.000357497
-0.00157802
-0.000489873
-0.00161903
-0.000623388
-0.00161235
-0.00075576
-0.00158673
-0.000886113
-0.00155589
-0.00101424
-0.00152543
-0.00114019
-0.00149715
-0.0012641
-0.00147136
-0.0013861
-0.00144791
-0.0015063
-0.00142654
-0.0016248
-0.001407
-0.00174165
-0.00138907
-0.00185691
-0.00137259
-0.00197061
-0.00135743
-0.00208278
-0.00134344
-0.00219345
-0.00133044
-0.00131841
-0.00230261
-3.83555e-05
-0.00047209
-0.000126102
-0.00102963
-0.000242447
-0.00132123
-0.00037299
-0.00144748
-0.000508929
-0.00148309
-0.000645561
-0.00147572
-0.000780739
-0.00145155
-0.000913684
-0.00142295
-0.00104425
-0.00139487
-0.00117252
-0.00136888
-0.00129865
-0.00134522
-0.0014228
-0.00132376
-0.0015451
-0.00130424
-0.00166565
-0.00128645
-0.00178454
-0.00127018
-0.00190185
-0.00125528
-0.00201765
-0.00124163
-0.00213199
-0.0012291
-0.00224492
-0.0012175
-0.00120687
-0.00235647
-4.06291e-05
-0.000431461
-0.000132325
-0.000937937
-0.000252789
-0.00120077
-0.000387046
-0.00131322
-0.00052621
-0.00134393
-0.000665674
-0.00133626
-0.000803413
-0.00131381
-0.000938737
-0.00128763
-0.00107155
-0.00126206
-0.00120198
-0.00123845
-0.00133019
-0.00121701
-0.00145637
-0.00119759
-0.00158064
-0.00117997
-0.00170316
-0.00116393
-0.00182401
-0.00114932
-0.00194331
-0.00113598
-0.00206113
-0.00112381
-0.00217755
-0.00111267
-0.00229265
-0.00110241
-0.00109306
-0.00240646
-4.26875e-05
-0.000388773
-0.000137937
-0.000842687
-0.000262095
-0.00107661
-0.00039968
-0.00117564
-0.000541737
-0.00120187
-0.000683751
-0.00119424
-0.000823806
-0.00117375
-0.000961293
-0.00115014
-0.00109616
-0.00112718
-0.00122857
-0.00110604
-0.00135871
-0.00108688
-0.00148676
-0.00106954
-0.00161289
-0.00105383
-0.00173724
-0.00103958
-0.00185994
-0.00102662
-0.00198111
-0.00101482
-0.00210083
-0.00100409
-0.00221921
-0.000994294
-0.00233633
-0.000985293
-0.000977149
-0.00245223
-4.45272e-05
-0.000344246
-0.000142937
-0.000744277
-0.00027037
-0.000949177
-0.000410902
-0.00103511
-0.000555524
-0.00105725
-0.000699808
-0.00104996
-0.000841934
-0.00103163
-0.000981362
-0.00101071
-0.00111809
-0.000990459
-0.00125229
-0.000971846
-0.00138417
-0.000954994
-0.00151393
-0.000939773
-0.00164176
-0.000926007
-0.0017678
-0.000913534
-0.00189221
-0.000902215
-0.00201509
-0.000891939
-0.00213657
-0.000882611
-0.00225674
-0.00087412
-0.0023757
-0.000866337
-0.000859335
-0.00249351
-4.6145e-05
-0.000298101
-0.000147321
-0.000643102
-0.000277613
-0.000818885
-0.000420716
-0.000892002
-0.000567581
-0.000910382
-0.000713855
-0.000903683
-0.000857803
-0.000887681
-0.000998946
-0.000869567
-0.00113731
-0.00085209
-0.00127311
-0.000836055
-0.00140655
-0.000821555
-0.00153784
-0.000808473
-0.00166719
-0.000796658
-0.00179476
-0.000785968
-0.00192069
-0.000776285
-0.00204512
-0.00076751
-0.00216817
-0.000759561
-0.00228995
-0.00075234
-0.00241055
-0.000745734
-0.000739821
-0.00253006
-4.7538e-05
-0.000250563
-0.000151086
-0.000539554
-0.000283825
-0.000686146
-0.000429129
-0.000746699
-0.000577914
-0.000761596
-0.000725897
-0.0007557
-0.000871415
-0.000742163
-0.00101404
-0.000726942
-0.00115383
-0.000712297
-0.00129101
-0.000698879
-0.00142581
-0.000686758
-0.00155845
-0.000675834
-0.00168913
-0.000665978
-0.00181802
-0.000657072
-0.00194529
-0.000649015
-0.00207107
-0.000641727
-0.0021955
-0.000635135
-0.00231868
-0.000629155
-0.00244072
-0.000623696
-0.000618831
-0.00256171
-4.87034e-05
-0.00020186
-0.000154229
-0.000434028
-0.000289006
-0.000551369
-0.00043614
-0.000599565
-0.000586526
-0.00061121
-0.000735935
-0.00060629
-0.000882768
-0.00059533
-0.00102664
-0.000583073
-0.00116763
-0.000571304
-0.00130597
-0.000560536
-0.00144192
-0.000550816
-0.00157569
-0.000542062
-0.0017075
-0.000534171
-0.00183752
-0.000527048
-0.00196592
-0.000520611
-0.00209286
-0.000514796
-0.00221845
-0.000509543
-0.00234282
-0.000504784
-0.00246607
-0.000500446
-0.000496594
-0.00258831
-4.96389e-05
-0.000152221
-0.000156748
-0.000326918
-0.000293153
-0.000414965
-0.00044175
-0.000450968
-0.000593416
-0.000459544
-0.00074397
-0.000455736
-0.000891859
-0.000447441
-0.00103673
-0.000438201
-0.00117869
-0.000429346
-0.00131798
-0.000421249
-0.00145485
-0.000413946
-0.00158954
-0.000407372
-0.00172226
-0.000401451
-0.00185319
-0.00039611
-0.00198252
-0.000391287
-0.00211038
-0.000386934
-0.00223692
-0.000383007
-0.00236225
-0.000379452
-0.00248648
-0.000376215
-0.000373351
-0.00260972
-5.03423e-05
-0.000101879
-0.00015864
-0.00021862
-0.000296265
-0.00027734
-0.000445959
-0.000301275
-0.000598585
-0.000306917
-0.000749998
-0.000304323
-0.000898682
-0.000298757
-0.00104431
-0.000292575
-0.001187
-0.000286657
-0.001327
-0.00028125
-0.00146457
-0.000276375
-0.00159995
-0.000271988
-0.00173336
-0.000268039
-0.00186499
-0.000264478
-0.00199501
-0.000261266
-0.00212358
-0.000258368
-0.00225083
-0.000255755
-0.00237689
-0.000253392
-0.00250187
-0.000251242
-0.000249344
-0.00262587
-5.08122e-05
-5.10664e-05
-0.000159903
-0.00010953
-0.000298341
-0.000138901
-0.000448765
-0.000150851
-0.000602032
-0.00015365
-0.000754019
-0.000152337
-0.000903234
-0.000149542
-0.00104936
-0.000146444
-0.00119254
-0.00014348
-0.00133302
-0.000140773
-0.00147106
-0.000138333
-0.00160691
-0.000136139
-0.00174079
-0.000134163
-0.00187288
-0.000132382
-0.00200337
-0.000130776
-0.00213241
-0.000129328
-0.00226014
-0.000128023
-0.00238669
-0.000126843
-0.00251216
-0.000125771
-0.000124825
-0.00263668
-5.10473e-05
-1.90941e-08
-0.000160534
-4.2857e-08
-0.000299379
-5.57944e-08
-0.000450169
-6.15795e-08
-0.000603756
-6.32488e-08
-0.00075603
-6.28811e-08
-0.00090551
-6.16792e-08
-0.00105189
-6.02334e-08
-0.00119532
-5.87868e-08
-0.00133603
-5.74185e-08
-0.00147431
-5.61438e-08
-0.00161039
-5.49582e-08
-0.0017445
-5.38527e-08
-0.00187683
-5.2818e-08
-0.00200756
-5.18457e-08
-0.00213683
-5.09283e-08
-0.00226481
-5.00593e-08
-0.0023916
-4.92329e-08
-0.00251732
-4.84427e-08
-4.76943e-08
-0.0026421
-5.10474e-05
5.10283e-05
-0.000160534
0.000109444
-0.00029938
0.00013879
-0.000450169
0.000150728
-0.000603757
0.000153524
-0.00075603
0.000152211
-0.000905511
0.000149419
-0.0010519
0.000146324
-0.00119532
0.000143363
-0.00133603
0.000140659
-0.00147431
0.000138221
-0.00161039
0.000136029
-0.0017445
0.000134055
-0.00187683
0.000132277
-0.00200756
0.000130673
-0.00213683
0.000129226
-0.00226481
0.000127923
-0.0023916
0.000126745
-0.00251732
0.000125674
0.00012473
-0.0026421
-5.08124e-05
0.000101841
-0.000159903
0.000218535
-0.000298342
0.000277229
-0.000448767
0.000301152
-0.000602034
0.000306791
-0.000754021
0.000304198
-0.000903236
0.000298634
-0.00104937
0.000292455
-0.00119254
0.00028654
-0.00133302
0.000281135
-0.00147106
0.000276263
-0.00160691
0.000271879
-0.00174079
0.000267932
-0.00187288
0.000264373
-0.00200337
0.000261162
-0.00213241
0.000258266
-0.00226015
0.000255655
-0.00238669
0.000253294
-0.00251217
0.000251146
0.000249249
-0.00263669
-5.03427e-05
0.000152183
-0.000158641
0.000326834
-0.000296267
0.000414854
-0.000445961
0.000450846
-0.000598588
0.000459419
-0.000750002
0.000455611
-0.000898686
0.000447318
-0.00104431
0.000438082
-0.001187
0.000429229
-0.001327
0.000421135
-0.00146457
0.000413834
-0.00159996
0.000407263
-0.00173337
0.000401344
-0.001865
0.000396004
-0.00199502
0.000391184
-0.00212359
0.000386833
-0.00225084
0.000382907
-0.0023769
0.000379354
-0.00250187
0.000376119
0.000373256
-0.00262588
-4.96394e-05
0.000201823
-0.00015675
0.000433944
-0.000293156
0.00055126
-0.000441753
0.000599444
-0.00059342
0.000611086
-0.000743975
0.000606166
-0.000891864
0.000595208
-0.00103674
0.000582953
-0.0011787
0.000571188
-0.00131798
0.000560422
-0.00145485
0.000550704
-0.00158954
0.000541953
-0.00172226
0.000534065
-0.0018532
0.000526943
-0.00198253
0.000520508
-0.00211039
0.000514694
-0.00223693
0.000509444
-0.00236226
0.000504686
-0.00248649
0.00050035
0.0004965
-0.00260973
-4.87042e-05
0.000250527
-0.000154231
0.000539472
-0.000289009
0.000686037
-0.000436144
0.000746579
-0.000586531
0.000761473
-0.000735942
0.000755576
-0.000882775
0.000742041
-0.00102665
0.000726824
-0.00116764
0.000712181
-0.00130598
0.000698766
-0.00144193
0.000686648
-0.0015757
0.000675726
-0.00170751
0.000665872
-0.00183753
0.000656968
-0.00196594
0.000648913
-0.00209287
0.000641626
-0.00221846
0.000635036
-0.00234283
0.000629058
-0.00246608
0.0006236
0.000618736
-0.00258832
-4.75389e-05
0.000298066
-0.000151088
0.000643021
-0.000283829
0.000818778
-0.000429134
0.000891884
-0.000577921
0.000910259
-0.000725905
0.00090356
-0.000871424
0.00088756
-0.00101405
0.00086945
-0.00115384
0.000851975
-0.00129102
0.000835943
-0.00142582
0.000821445
-0.00155846
0.000808365
-0.00168914
0.000796552
-0.00181803
0.000785865
-0.0019453
0.000776183
-0.00207109
0.00076741
-0.00219551
0.000759463
-0.0023187
0.000752243
-0.00244074
0.000745638
0.000739727
-0.00256173
-4.61461e-05
0.000344212
-0.000147324
0.000744198
-0.000277618
0.000949073
-0.000420723
0.00103499
-0.000567589
0.00105713
-0.000713864
0.00104984
-0.000857813
0.00103151
-0.000998957
0.00101059
-0.00113733
0.000990345
-0.00127312
0.000971735
-0.00140656
0.000954885
-0.00153786
0.000939666
-0.00166721
0.000925902
-0.00179477
0.000913431
-0.00192071
0.000902114
-0.00204514
0.000891839
-0.00216819
0.000882513
-0.00228997
0.000874024
-0.00241057
0.000866242
0.000859241
-0.00253008
-4.45284e-05
0.00038874
-0.00014294
0.00084261
-0.000270375
0.00107651
-0.000410909
0.00117552
-0.000555533
0.00120175
-0.000699819
0.00119412
-0.000841946
0.00117364
-0.000981375
0.00115002
-0.0011181
0.00112707
-0.0012523
0.00110593
-0.00138418
0.00108677
-0.00151395
0.00106943
-0.00164178
0.00105373
-0.00176782
0.00103948
-0.00189223
0.00102652
-0.00201511
0.00101472
-0.00213659
0.00100399
-0.00225676
0.000994198
-0.00237572
0.000985198
0.000977056
-0.00249353
-4.26889e-05
0.000431429
-0.000137941
0.000937863
-0.000262102
0.00120067
-0.000399689
0.00131311
-0.000541747
0.00134381
-0.000683763
0.00133614
-0.00082382
0.00131369
-0.000961308
0.00128751
-0.00109618
0.00126194
-0.00122859
0.00123834
-0.00135872
0.0012169
-0.00148678
0.00119748
-0.00161291
0.00117986
-0.00173726
0.00116383
-0.00185997
0.00114922
-0.00198113
0.00113589
-0.00210086
0.00112371
-0.00221924
0.00111258
-0.00233635
0.00110231
0.00109296
-0.00245226
-4.06307e-05
0.00047206
-0.000132329
0.00102956
-0.000252796
0.00132114
-0.000387056
0.00144737
-0.000526222
0.00148297
-0.000665688
0.0014756
-0.000803428
0.00145143
-0.000938754
0.00142284
-0.00107157
0.00139476
-0.001202
0.00136877
-0.00133021
0.00134512
-0.00145639
0.00132366
-0.00158067
0.00130414
-0.00170318
0.00128635
-0.00182404
0.00127008
-0.00194334
0.00125518
-0.00206116
0.00124153
-0.00217758
0.00122901
-0.00229268
0.00121741
0.00120677
-0.00240649
-3.83573e-05
0.000510417
-0.000126107
0.00111731
-0.000242455
0.00143748
-0.000373001
0.00157792
-0.000508942
0.00161892
-0.000645576
0.00161224
-0.000780756
0.00158661
-0.000913703
0.00155578
-0.00104427
0.00152533
-0.00117254
0.00149704
-0.00129868
0.00147125
-0.00142283
0.00144781
-0.00154512
0.00142644
-0.00166567
0.0014069
-0.00178457
0.00138897
-0.00190188
0.00137249
-0.00201768
0.00135733
-0.00213202
0.00134335
-0.00224495
0.00133034
0.00131832
-0.0023565
-3.58724e-05
0.00054629
-0.000119276
0.00120071
-0.000231073
0.00154928
-0.000357509
0.00170435
-0.000489888
0.00175129
-0.000623404
0.00174575
-0.000755778
0.00171899
-0.000886133
0.00168614
-0.00101426
0.00165345
-0.00114021
0.00162299
-0.00126412
0.00159516
-0.00138613
0.00156981
-0.00150633
0.00154664
-0.00162483
0.0015254
-0.00174168
0.00150583
-0.00185694
0.00148775
-0.00197064
0.00147103
-0.00208282
0.00145552
-0.00219349
0.00144102
0.00142747
-0.00230264
-3.31802e-05
0.00057947
-0.00011184
0.00127937
-0.000218645
0.00165609
-0.000340565
0.00182627
-0.000469032
0.00187976
-0.000599138
0.00187586
-0.000728459
0.00184831
-0.000856009
0.00181369
-0.000981513
0.00177896
-0.00110499
0.00174647
-0.00122654
0.00171672
-0.00134629
0.00168956
-0.00146433
0.00166468
-0.00158072
0.00164179
-0.00169551
0.00162061
-0.0018087
0.00160094
-0.00192029
0.00158262
-0.00203029
0.00156552
-0.00213866
0.00154939
0.00153416
-0.00224535
-3.02857e-05
0.000609756
-0.000103801
0.00135289
-0.000205165
0.00175745
-0.000322148
0.00194325
-0.000446342
0.00200396
-0.000572734
0.00200225
-0.000698748
0.00197432
-0.000823277
0.00193822
-0.000945973
0.00190165
-0.00106682
0.00186731
-0.00118589
0.0018358
-0.0013033
0.00180697
-0.00141912
0.0017805
-0.0015334
0.00175606
-0.00164614
0.00173335
-0.00175732
0.00171212
-0.0018669
0.0016922
-0.0019748
0.00167342
-0.00208095
0.00165554
0.00163839
-0.00218518
-2.71948e-05
0.000636951
-9.51637e-05
0.00142086
-0.000190625
0.00185291
-0.000302235
0.00205486
-0.000421778
0.0021235
-0.00054414
0.00212461
-0.000666579
0.00209676
-0.00078786
0.0020595
-0.000907557
0.00202135
-0.00102561
0.00198537
-0.00114209
0.00195227
-0.00125708
0.00192196
-0.00137065
0.00189407
-0.00148284
0.00186825
-0.00159362
0.00184414
-0.00170294
0.00182145
-0.00181071
0.00179996
-0.00191676
0.00177948
-0.0020209
0.00175968
0.00174034
-0.00212285
-2.39155e-05
0.000660866
-8.59361e-05
0.00148288
-0.000175021
0.001942
-0.000280804
0.00216065
-0.000395299
0.00223799
-0.000513293
0.00224261
-0.000631873
0.00221534
-0.000749664
0.00217729
-0.000866153
0.00213784
-0.000981241
0.00210045
-0.00109498
0.00206601
-0.00120746
0.00203444
-0.00131876
0.00200537
-0.00142891
0.00197839
-0.00153788
0.00195311
-0.00164561
0.00192918
-0.00175195
0.00190631
-0.00185666
0.00188418
-0.00195933
0.00186235
0.00184038
-0.00205937
-2.04576e-05
0.000681324
-7.61303e-05
0.00153855
-0.000158356
0.00202422
-0.000257836
0.00226013
-0.00036686
0.00234702
-0.000480128
0.00235588
-0.000594542
0.00232975
-0.000708572
0.00229132
-0.000821613
0.00225088
-0.000933524
0.00221236
-0.00104435
0.00217684
-0.0011542
0.00214429
-0.00126316
0.00211434
-0.00137131
0.00208654
-0.00147864
0.00206044
-0.00158509
0.00203562
-0.0016905
0.00201172
-0.00179459
0.00198828
-0.00189672
0.00196447
0.00193945
-0.00199579
-1.68344e-05
0.000698158
-6.57649e-05
0.00158748
-0.000140637
0.00209909
-0.00023332
0.00235281
-0.000336427
0.00245013
-0.000444581
0.00246403
-0.000554494
0.00243967
-0.000664466
0.00240129
-0.00077379
0.00236021
-0.00088228
0.00232085
-0.000989984
0.00228454
-0.00109703
0.00225133
-0.00120358
0.00222088
-0.00130975
0.00219271
-0.00141563
0.00216633
-0.00152124
0.00214123
-0.00162656
0.00211703
-0.00173152
0.00209325
-0.00183544
0.00206839
0.0020389
-0.00193489
-1.30628e-05
0.000711221
-5.48678e-05
0.00162929
-0.000121885
0.00216611
-0.000207256
0.00243818
-0.000303974
0.00254684
-0.000406599
0.00256665
-0.000511641
0.00254471
-0.000617212
0.00250686
-0.000722481
0.00246547
-0.000827198
0.00242557
-0.000931393
0.00238874
-0.00103521
0.00235515
-0.00113885
0.00232451
-0.00124251
0.00229638
-0.00134646
0.00227027
-0.00145088
0.00224566
-0.00155585
0.002222
-0.00166159
0.00219899
-0.0017688
0.0021756
0.00214469
-0.00187459
-9.16361e-06
0.000720384
-4.34774e-05
0.0016636
-0.000102139
0.00222477
-0.000179665
0.00251571
-0.000269495
0.00263667
-0.000366148
0.00266331
-0.000465923
0.00264448
-0.000566724
0.00260766
-0.000667575
0.00256632
-0.000768156
0.00252615
-0.000868496
0.00248908
-0.000968801
0.00245546
-0.0010694
0.00242512
-0.00117077
0.00239774
-0.00127352
0.00237303
-0.0013785
0.00235064
-0.00148658
0.00233007
-0.00159813
0.00231055
-0.00171413
0.00229159
0.00228483
-0.00185426
-5.1749e-06
0.000725559
-3.16646e-05
0.00169009
-8.1478e-05
0.00227458
-0.000150615
0.00258484
-0.000233038
0.0027191
-0.000323253
0.00275352
-0.000417339
0.00273857
-0.000512968
0.00270329
-0.000608986
0.00266234
-0.000704967
0.00262213
-0.000800873
0.00258498
-0.000896867
0.00255145
-0.000993206
0.00252146
-0.00109019