/*--------------------------------*- C++ -*----------------------------------*\
  =========                 |
  \\      /  F ield         | OpenFOAM: The Open Source CFD Toolbox
   \\    /   O peration     | Website:  https://openfoam.org
    \\  /    A nd           | Version:  6.0
     \\/     M anipulation  |
\*---------------------------------------------------------------------------*/
FoamFile
{
    version     2.0;
    format      ascii;
    class       volVectorField;
    location    "12";
    object      U;
}
// * * * * * * * * * * * * * * * * * * * * * * * * * * * * * * * * * * * * * //

dimensions      [0 1 -1 0 0 0 0];

internalField   nonuniform List<vector> 
4000
(
(0.0987559 0.0075769 6.3273e-20)
(0.31323 0.039472 -3.44692e-20)
(0.530599 0.0942036 4.06302e-20)
(0.733275 0.156272 -3.02439e-20)
(0.907259 0.215591 -1.35734e-20)
(1.04531 0.266187 4.11295e-21)
(1.14692 0.305236 -1.33248e-20)
(1.21627 0.332535 4.7919e-20)
(1.25981 0.349532 -3.99175e-20)
(1.28429 0.358383 9.37343e-21)
(1.29569 0.361283 -6.98153e-21)
(1.29869 0.360124 -4.5522e-20)
(1.29668 0.356366 4.41699e-20)
(1.29193 0.351049 1.68299e-20)
(1.28593 0.344872 -1.6735e-20)
(1.27955 0.338279 3.931e-20)
(1.27335 0.331531 -5.74849e-22)
(1.26765 0.324808 -3.81457e-20)
(1.26265 0.318495 2.82506e-20)
(1.25854 0.312495 8.92732e-21)
(0.113042 0.0125997 -2.21788e-20)
(0.347955 0.0548848 6.428e-20)
(0.577064 0.118718 7.43554e-20)
(0.783114 0.186878 -3.51211e-20)
(0.953599 0.248813 6.10852e-20)
(1.08371 0.29906 9.67349e-20)
(1.17546 0.335774 -5.34883e-21)
(1.23503 0.359751 -1.66467e-20)
(1.27005 0.373217 8.21336e-20)
(1.28779 0.378802 4.00746e-20)
(1.29423 0.378925 -7.28757e-21)
(1.29379 0.375522 5.98139e-20)
(1.28951 0.369998 -6.41993e-20)
(1.28335 0.363303 1.00016e-19)
(1.27649 0.356041 -1.66843e-20)
(1.26965 0.348582 4.78855e-20)
(1.26322 0.341125 8.65768e-21)
(1.25744 0.333825 3.42829e-20)
(1.25244 0.327062 -3.26182e-20)
(1.24837 0.320607 7.90927e-21)
(0.127516 0.0187261 -3.45208e-20)
(0.38196 0.0726835 8.16038e-20)
(0.621022 0.145823 6.07016e-20)
(0.828448 0.21953 -9.21797e-21)
(0.993861 0.283212 9.47923e-20)
(1.11523 0.332274 -7.09922e-20)
(1.19712 0.366043 -5.59579e-21)
(1.24749 0.386367 6.26143e-20)
(1.27491 0.396198 1.98736e-20)
(1.28691 0.398567 2.7888e-20)
(1.28931 0.396036 -4.12135e-20)
(1.28621 0.390525 1.07631e-19)
(1.28028 0.383356 2.01443e-20)
(1.27314 0.375372 -9.54362e-20)
(1.26576 0.367086 1.397e-19)
(1.25866 0.358795 -1.64907e-19)
(1.25215 0.350646 -7.58264e-20)
(1.24641 0.342777 1.25708e-20)
(1.24148 0.335562 7.36341e-20)
(1.23751 0.328637 -1.39157e-19)
(0.141943 0.0259631 -7.73674e-20)
(0.41466 0.092749 -1.82706e-19)
(0.661763 0.175221 -1.58209e-19)
(0.868692 0.253814 -2.15419e-19)
(1.02776 0.318365 -1.22399e-19)
(1.13994 0.365476 -2.53876e-19)
(1.21224 0.395801 3.22678e-20)
(1.25417 0.41224 -1.35106e-19)
(1.27495 0.418411 -1.48738e-20)
(1.28216 0.417653 2.2257e-20)
(1.28138 0.412599 -4.90244e-20)
(1.2763 0.405111 6.15014e-20)
(1.26921 0.396401 1.09631e-19)
(1.26147 0.387202 -1.53941e-19)
(1.2538 0.377938 2.49988e-20)
(1.24663 0.368838 7.18546e-20)
(1.24017 0.360009 1.20417e-19)
(1.23455 0.351573 -1.03855e-19)
(1.22976 0.343903 -5.02505e-21)
(1.22596 0.336493 1.22465e-19)
(0.156075 0.0342878 -1.45756e-19)
(0.445492 0.114897 4.00308e-19)
(0.698662 0.206556 -7.04298e-20)
(0.903401 0.289287 9.38786e-20)
(1.05517 0.353849 -9.18685e-20)
(1.158 0.398335 2.82496e-19)
(1.22122 0.424822 -4.48753e-20)
(1.25556 0.437239 2.66166e-20)
(1.27066 0.43978 -1.37713e-20)
(1.274 0.436012 4.40452e-20)
(1.27078 0.428573 2.85332e-20)
(1.26429 0.41923 3.63793e-20)
(1.25648 0.409069 -1.02982e-19)
(1.24842 0.398716 1.51262e-19)
(1.24069 0.388508 -1.15092e-19)
(1.23358 0.378618 2.21488e-20)
(1.22728 0.369115 -7.41087e-20)
(1.22186 0.360118 1.60703e-20)
(1.21728 0.351986 1.82327e-20)
(1.21371 0.344084 -1.67916e-19)
(0.169666 0.0436466 1.03156e-20)
(0.473934 0.138884 -2.01456e-19)
(0.731197 0.239424 1.11498e-19)
(0.932264 0.32549 -3.88958e-19)
(1.07606 0.38925 1.8864e-19)
(1.16968 0.430534 -3.23703e-19)
(1.22446 0.452894 -2.53472e-19)
(1.25212 0.46123 -9.70496e-21)
(1.26249 0.460222 -8.62583e-20)
(1.26278 0.453579 -2.69671e-19)
(1.25779 0.443892 -3.40526e-20)
(1.25039 0.432805 -2.60237e-19)
(1.24221 0.421274 4.68936e-20)
(1.23408 0.409817 -3.77963e-20)
(1.22645 0.398695 2.22651e-20)
(1.21955 0.38803 -1.77195e-19)
(1.21349 0.377861 8.42163e-21)
(1.20834 0.368307 3.50855e-20)
(1.20403 0.359711 -8.33802e-20)
(1.20075 0.351312 7.24996e-20)
(0.182472 0.0539559 -8.25333e-20)
(0.499518 0.164413 3.68093e-19)
(0.758949 0.273381 3.00069e-21)
(0.955094 0.361956 -3.19224e-19)
(1.09053 0.424167 2.4182e-19)
(1.17526 0.461774 1.01964e-19)
(1.22238 0.479815 2.05568e-20)
(1.24429 0.484079 -1.72838e-19)
(1.25081 0.479637 2.80847e-19)
(1.24881 0.470266 -1.65695e-19)
(1.24262 0.458466 5.92991e-20)
(1.23473 0.445739 2.81414e-19)
(1.22648 0.43291 -2.54017e-19)
(1.2185 0.420393 2.79911e-19)
(1.21113 0.408384 -1.81673e-19)
(1.20453 0.396959 -3.55425e-20)
(1.19881 0.386135 4.34387e-20)
(1.19401 0.376031 5.55569e-20)
(1.19003 0.366971 7.69455e-20)
(1.18709 0.358081 4.61551e-20)
(0.194265 0.0651034 3.29614e-20)
(0.521837 0.191142 -3.3076e-19)
(0.781605 0.307963 5.8621e-20)
(0.971817 0.398216 7.70472e-19)
(1.09875 0.458211 -7.09152e-20)
(1.17509 0.49177 2.14683e-19)
(1.21538 0.505386 1.34235e-19)
(1.23245 0.505644 2.21726e-20)
(1.23595 0.497912 -1.56846e-19)
(1.23233 0.485968 2.57376e-19)
(1.22545 0.472186 -3.08157e-20)
(1.21744 0.457917 3.94184e-19)
(1.20937 0.443855 1.52899e-19)
(1.20173 0.430323 9.64614e-20)
(1.19475 0.417455 -2.00994e-19)
(1.18856 0.405287 4.24949e-20)
(1.18327 0.393821 1.57329e-19)
(1.17887 0.383176 4.14001e-20)
(1.17528 0.373658 -1.9239e-19)
(1.17276 0.36429 -4.83075e-20)
(0.204834 0.0769507 -1.83803e-19)
(0.54056 0.218694 5.92819e-19)
(0.798961 0.342687 -3.22782e-19)
(0.982457 0.433813 -2.9771e-19)
(1.10094 0.491013 -2.59596e-19)
(1.16951 0.520252 -2.1954e-19)
(1.20385 0.529414 -2.71691e-19)
(1.21697 0.525781 3.41352e-19)
(1.21821 0.514923 -2.4469e-19)
(1.21355 0.500564 -1.9959e-20)
(1.20642 0.484928 -1.80193e-21)
(1.1986 0.469209 -4.71615e-20)
(1.19095 0.453979 -1.22378e-19)
(1.18381 0.439476 -1.37404e-19)
(1.17735 0.425778 -7.36971e-21)
(1.17167 0.412889 -3.08075e-20)
(1.16687 0.400798 -7.67134e-20)
(1.16295 0.389629 -2.40639e-20)
(1.15981 0.37966 2.59317e-20)
(1.15777 0.369838 -1.66288e-19)
(0.213992 0.0893365 3.21532e-19)
(0.55543 0.246669 3.32893e-19)
(0.810908 0.37707 -2.06952e-19)
(0.987125 0.468302 1.27454e-19)
(1.0974 0.522221 2.2117e-19)
(1.15891 0.54696 -4.63467e-20)
(1.18816 0.551711 5.45151e-20)
(1.19816 0.544338 6.22006e-20)
(1.19783 0.530534 1.03582e-19)
(1.19266 0.513921 -1.22067e-19)
(1.18566 0.496555 5.96502e-20)
(1.17832 0.479478 -4.16664e-20)
(1.17128 0.463144 1.86197e-19)
(1.16479 0.447715 8.25051e-20)
(1.15897 0.433221 -1.86766e-19)
(1.1539 0.419638 1.03477e-19)
(1.14967 0.406944 5.16216e-20)
(1.1463 0.395268 -9.57103e-20)
(1.14367 0.384864 2.60394e-19)
(1.14217 0.374624 -1.92172e-19)
(0.221581 0.102081 -2.36393e-19)
(0.566268 0.274648 -3.07275e-19)
(0.817431 0.410633 2.15859e-19)
(0.986005 0.501257 -1.98988e-19)
(1.08844 0.551503 -1.78968e-20)
(1.14366 0.571652 -2.20421e-19)
(1.16868 0.572092 1.8246e-19)
(1.17632 0.561163 3.39816e-19)
(1.17505 0.544604 -4.73125e-19)
(1.16983 0.525899 2.44463e-20)
(1.16329 0.506927 1.89948e-20)
(1.15666 0.488578 -9.61426e-20)
(1.15042 0.471206 6.60209e-20)
(1.14474 0.4549 -2.84788e-20)
(1.13967 0.439648 1.91188e-19)
(1.1353 0.425403 -2.06328e-19)
(1.13172 0.412132 -7.24489e-20)
(1.12895 0.39997 1.88748e-19)
(1.1269 0.389151 -2.84717e-19)
(1.12602 0.378538 1.79859e-19)
(0.227476 0.114989 4.91467e-19)
(0.572973 0.302209 4.3546e-19)
(0.818603 0.442909 -7.30416e-20)
(0.979343 0.532277 -9.37829e-21)
(1.07442 0.578552 -2.22743e-19)
(1.12412 0.594097 9.47571e-20)
(1.14573 0.590378 4.69971e-19)
(1.15173 0.576102 -4.13489e-19)
(1.15006 0.556989 2.63478e-19)
(1.1452 0.536353 -2.35522e-20)
(1.13942 0.515894 1.62862e-19)
(1.13372 0.496364 -3.98225e-20)
(1.12845 0.478018 9.864e-20)
(1.1237 0.460888 1.28988e-19)
(1.11951 0.444921 -7.11353e-20)
(1.11593 0.430047 8.85739e-20)
(1.11307 0.416229 -1.27218e-19)
(1.11098 0.403603 3.25265e-19)
(1.10958 0.392388 -2.05056e-19)
(1.10939 0.381452 1.47736e-19)
(0.231582 0.127855 -2.40317e-19)
(0.575517 0.328932 -4.48411e-19)
(0.814567 0.473456 -3.09845e-19)
(0.967435 0.560987 -2.26167e-20)
(1.05572 0.603082 7.43606e-20)
(1.10069 0.614083 -4.07351e-20)
(1.11966 0.606401 -2.66646e-19)
(1.12466 0.589006 -1.17398e-19)
(1.12307 0.567543 -2.15762e-19)
(1.11891 0.545138 -1.07229e-19)
(1.11414 0.523313 5.36621e-20)
(1.10956 0.502689 -2.56313e-19)
(1.10542 0.483437 -6.10119e-20)
(1.10175 0.465535 -6.05378e-20)
(1.09854 0.448899 -1.92413e-19)
(1.09585 0.433436 8.5241e-20)
(1.0938 0.419099 9.8875e-22)
(1.09244 0.406026 8.07427e-20)
(1.09177 0.394425 -3.38363e-20)
(1.09234 0.383217 -1.23041e-19)
(0.233842 0.140471 5.5541e-19)
(0.573945 0.354408 4.83296e-19)
(0.805538 0.501855 6.00814e-19)
(0.950623 0.587045 -6.23963e-20)
(1.03271 0.624835 -2.18806e-19)
(1.07372 0.631415 6.47437e-19)
(1.09076 0.62 -3.23409e-19)
(1.09534 0.599732 3.59544e-19)
(1.09425 0.576129 -6.6507e-20)
(1.0911 0.552116 2.21811e-19)
(1.08755 0.529043 2.48183e-20)
(1.08426 0.507411 1.07571e-19)
(1.08139 0.48732 -2.42393e-20)
(1.07893 0.468702 1.09197e-19)
(1.07684 0.451443 -8.96299e-20)
(1.07514 0.43543 5.39966e-21)
(1.07397 0.420605 4.54042e-20)
(1.07342 0.407096 7.33455e-20)
(1.07354 0.395112 -1.13285e-20)
(1.07491 0.383687 3.97666e-20)
(0.234234 0.152626 -1.70617e-19)
(0.568365 0.378249 -4.79409e-19)
(0.791786 0.527723 -2.91669e-19)
(0.92928 0.610141 -5.10499e-19)
(1.0058 0.643581 5.49214e-19)
(1.04358 0.645916 -3.87684e-19)
(1.05936 0.63103 2.46129e-19)
(1.06402 0.608147 -8.59031e-20)
(1.0638 0.582616 -1.0492e-19)
(1.0619 0.557157 -7.42158e-20)
(1.05976 0.532953 3.8691e-20)
(1.0579 0.510398 5.01515e-20)
(1.05643 0.489531 3.96711e-20)
(1.05531 0.470248 -5.56177e-20)
(1.05445 0.452411 -3.84288e-20)
(1.05387 0.435887 1.25378e-19)
(1.05367 0.420603 -1.62861e-20)
(1.054 0.406668 -4.62866e-20)
(1.05497 0.394311 4.40671e-21)
(1.05716 0.382749 -6.17074e-21)
(0.232771 0.164113 7.54029e-19)
(0.558949 0.40009 3.5391e-19)
(0.773632 0.550711 3.31015e-19)
(0.903808 0.630003 -1.96322e-19)
(0.975402 0.659116 2.40418e-20)
(1.01066 0.657433 2.7892e-19)
(1.02576 0.639364 3.67076e-20)
(1.03093 0.614132 7.6273e-20)
(1.03188 0.586891 8.34604e-20)
(1.03145 0.560148 5.43807e-21)
(1.03086 0.53493 4.19715e-20)
(1.03055 0.511535 -9.48739e-21)
(1.03059 0.489951 -2.32359e-20)
(1.03092 0.470047 -5.99426e-20)
(1.03143 0.451666 1.72816e-20)
(1.03209 0.43466 4.0401e-21)
(1.03298 0.418937 -6.00605e-21)
(1.03426 0.404577 3.81128e-21)
(1.03613 0.391853 1.00099e-20)
(1.0392 0.380256 -1.51339e-21)
(0.229498 0.174737 -5.3904e-19)
(0.545918 0.4196 -4.6564e-19)
(0.751439 0.570512 2.2285e-19)
(0.874633 0.646393 -2.74128e-19)
(0.941931 0.671269 -2.04626e-20)
(0.975295 0.665834 3.59814e-20)
(0.990245 0.64489 -4.28541e-20)
(0.996316 0.617588 -3.64504e-20)
(0.998693 0.588857 -7.3546e-20)
(0.999885 0.560995 -4.68055e-20)
(1.00095 0.534881 -1.56543e-20)
(1.00227 0.51073 -2.08437e-20)
(1.0039 0.488483 9.68687e-21)
(1.00577 0.467992 -9.45527e-21)
(1.00778 0.449088 8.23689e-21)
(1.00984 0.431614 -2.2258e-20)
(1.01196 0.415456 -2.57843e-20)
(1.01431 0.400638 -2.99728e-20)
(1.01722 0.387466 8.35665e-22)
(1.02143 0.375843 4.93976e-20)
(0.224492 0.184313 5.00309e-19)
(0.529541 0.436481 1.79292e-20)
(0.725604 0.586859 -4.8052e-20)
(0.842195 0.659114 5.66649e-20)
(0.905807 0.679898 1.88379e-19)
(0.937868 0.671013 -1.38112e-19)
(0.953123 0.64752 5.35378e-20)
(0.960408 0.618433 -7.54087e-20)
(0.964411 0.588439 1.27539e-20)
(0.96735 0.559628 -1.6322e-20)
(0.97015 0.532741 -2.55303e-20)
(0.973139 0.507915 -2.48394e-20)
(0.976388 0.485053 2.40152e-20)
(0.979862 0.463993 -1.26731e-20)
(0.983471 0.444563 -1.2264e-19)
(0.98709 0.426618 1.16366e-19)
(0.990641 0.410018 -7.5641e-20)
(0.994291 0.394656 -4.99029e-20)
(0.998632 0.380761 5.68068e-20)
(1.00447 0.368873 -7.20834e-20)
(0.217859 0.192671 -1.05332e-19)
(0.510127 0.450473 1.12424e-19)
(0.696553 0.59953 7.45327e-20)
(0.806949 0.668005 -1.12478e-19)
(0.867453 0.684892 5.11896e-20)
(0.898739 0.672888 -8.94577e-20)
(0.914695 0.647188 -1.36905e-20)
(0.923452 0.616612 5.57206e-21)
(0.929235 0.585591 -7.65451e-21)
(0.934 0.556011 -7.69497e-20)
(0.938557 0.528482 1.16892e-20)
(0.943204 0.503062 -3.79572e-21)
(0.948038 0.479616 9.37592e-20)
(0.953081 0.45796 -2.52634e-19)
(0.958298 0.437927 2.35044e-19)
(0.963565 0.419399 1.27308e-19)
(0.968747 0.402231 -3.01438e-20)
(0.974098 0.386102 1.93542e-20)
(0.980502 0.37102 2.26381e-19)
(0.988261 0.358511 -9.37357e-20)
(0.209732 0.199664 -3.20123e-20)
(0.488018 0.46136 7.91519e-20)
(0.664731 0.608345 -8.64473e-20)
(0.769356 0.672942 1.15681e-19)
(0.827295 0.686169 -1.71843e-20)
(0.858277 0.671403 -4.86871e-21)
(0.875268 0.643852 1.39489e-20)
(0.885708 0.612094 -4.83166e-20)
(0.893383 0.580299 4.89928e-20)
(0.900017 0.550155 3.75718e-20)
(0.906317 0.522146 2.25409e-20)
(0.912553 0.496252 1.19116e-21)
(0.918841 0.472281 8.63489e-20)
(0.925256 0.449996 -8.91615e-20)
(0.931834 0.429192 1.04496e-19)
(0.938502 0.409737 -2.16826e-19)
(0.945174 0.391433 2.44569e-19)
(0.952293 0.373652 -2.10795e-19)
(0.960838 0.35614 -1.38423e-19)
(0.969685 0.342336 2.41263e-19)
(0.200264 0.205163 4.11258e-20)
(0.463582 0.468964 -3.68662e-21)
(0.630599 0.613167 8.18792e-21)
(0.729885 0.673838 -2.15897e-20)
(0.785761 0.683675 -4.94536e-21)
(0.816851 0.666521 7.78566e-21)
(0.835162 0.637485 -1.24509e-19)
(0.847452 0.604866 8.27071e-20)
(0.857103 0.57257 8.68778e-20)
(0.865631 0.542101 -1.25928e-19)
(0.873649 0.513835 1.52689e-19)
(0.881394 0.487687 -5.7302e-20)
(0.888969 0.463409 1.17475e-19)
(0.896452 0.440708 -1.86558e-19)
(0.903889 0.419293 3.89538e-19)
(0.911243 0.398912 -8.64769e-20)
(0.918538 0.37916 -2.37902e-20)
(0.926445 0.35879 2.59588e-19)
(0.935747 0.335878 -1.25922e-19)
(0.941481 0.312943 5.87564e-20)
(0.189625 0.209064 -3.32363e-20)
(0.437202 0.473151 1.18259e-20)
(0.594626 0.613901 -2.90608e-20)
(0.689003 0.670639 2.36962e-20)
(0.743276 0.677383 -1.50462e-20)
(0.774834 0.658226 -1.37691e-19)
(0.794699 0.628077 2.08746e-19)
(0.808974 0.594921 1.52214e-20)
(0.820669 0.562402 -2.29564e-20)
(0.831118 0.531863 5.31991e-21)
(0.840858 0.50359 7.34151e-20)
(0.850094 0.477464 1.27372e-19)
(0.858906 0.453231 7.54721e-20)
(0.86733 0.430613 -1.80737e-19)
(0.875353 0.409358 -5.34606e-20)
(0.882911 0.389276 -6.83132e-21)
(0.890109 0.370104 3.54744e-20)
(0.897539 0.351157 5.48647e-21)
(0.905153 0.33173 3.92505e-19)
(0.908305 0.313944 -2.73585e-19)
(0.177999 0.21128 1.1274e-19)
(0.409274 0.473824 -3.60234e-21)
(0.557281 0.610488 -9.93605e-20)
(0.647173 0.663323 2.99604e-19)
(0.700259 0.667289 7.04119e-20)
(0.732593 0.646521 -1.96039e-19)
(0.754204 0.615629 1.87511e-19)
(0.770568 0.582255 -4.52924e-20)
(0.784357 0.549791 1.6971e-19)
(0.796752 0.519426 8.03603e-20)
(0.808233 0.491372 -3.71427e-19)
(0.818996 0.465479 -4.2224e-20)
(0.829125 0.441486 5.21941e-19)
(0.838654 0.419123 -6.39813e-19)
(0.847564 0.398149 5.9172e-19)
(0.855784 0.378367 2.06164e-19)
(0.863379 0.359501 -7.30099e-19)
(0.870753 0.340979 3.54584e-19)
(0.87773 0.322498 -7.18627e-20)
(0.880824 0.306443 8.48188e-20)
(0.165579 0.21175 -2.467e-19)
(0.380201 0.470927 -2.56907e-19)
(0.519035 0.602912 1.75152e-19)
(0.604853 0.6519 -2.27899e-19)
(0.657122 0.653415 -6.39135e-19)
(0.690491 0.631426 -2.51034e-20)
(0.713998 0.600155 -1.91101e-19)
(0.732525 0.566882 6.54673e-21)
(0.748441 0.534747 -3.85302e-19)
(0.762791 0.504802 -3.92315e-19)
(0.776016 0.477201 -2.6954e-19)
(0.788304 0.451773 -1.14911e-20)
(0.79975 0.428264 -6.63474e-19)
(0.810403 0.406421 -7.42157e-21)
(0.820266 0.386033 3.24417e-19)
(0.829307 0.366939 -3.22143e-19)
(0.837602 0.348922 -2.49957e-19)
(0.845479 0.331549 2.40748e-19)
(0.852757 0.314637 -1.72287e-19)
(0.856581 0.300073 3.3102e-20)
(0.152567 0.210437 2.07697e-19)
(0.350386 0.464441 1.61027e-19)
(0.480349 0.591189 -8.39985e-21)
(0.562489 0.63641 -1.41685e-19)
(0.614266 0.635806 3.32111e-19)
(0.648879 0.612982 5.44591e-19)
(0.674395 0.581687 -5.74389e-20)
(0.695134 0.548818 8.26574e-21)
(0.713192 0.517272 1.0446e-19)
(0.729507 0.487978 2.43357e-19)
(0.74449 0.461038 3.54573e-19)
(0.758335 0.436269 -2.88733e-19)
(0.771149 0.413422 2.82851e-19)
(0.783 0.392257 -9.89523e-20)
(0.793912 0.372576 3.31212e-19)
(0.803884 0.354227 -1.29173e-19)
(0.81302 0.337019 -3.22366e-19)
(0.821652 0.320611 1.92913e-19)
(0.829626 0.304937 -2.76948e-19)
(0.834451 0.291585 -3.141e-19)
(0.139164 0.207323 9.96376e-20)
(0.320227 0.454385 1.77535e-19)
(0.441673 0.575376 -1.86155e-19)
(0.520512 0.616925 6.13881e-21)
(0.572078 0.614534 3.2085e-20)
(0.6081 0.591249 2.64653e-19)
(0.635696 0.560272 -3.89389e-19)
(0.658666 0.528097 3.69526e-19)
(0.678863 0.497389 -3.67756e-20)
(0.697134 0.468963 1.00831e-19)
(0.713871 0.442878 1.64136e-19)
(0.729281 0.418943 -3.1317e-19)
(0.743491 0.396918 1.48888e-19)
(0.756594 0.376576 1.41884e-19)
(0.768639 0.357732 5.2546e-20)
(0.779656 0.340243 -2.68975e-19)
(0.789777 0.323931 9.05856e-19)
(0.799325 0.308506 -5.08063e-19)
(0.808144 0.293935 9.21253e-19)
(0.814027 0.281532 -5.99253e-20)
(0.125573 0.202413 7.45542e-20)
(0.290112 0.440812 4.25872e-19)
(0.403442 0.555559 1.53147e-19)
(0.479337 0.593544 3.14681e-19)
(0.530928 0.589693 8.34498e-20)
(0.568478 0.56631 -5.06817e-19)
(0.598192 0.535975 7.87068e-19)
(0.623385 0.504772 4.09146e-19)
(0.645696 0.475135 1.74539e-20)
(0.665897 0.447778 5.29952e-19)
(0.684371 0.422724 8.68418e-20)
(0.701338 0.39978 5.5376e-20)
(0.716951 0.37871 3.16658e-19)
(0.731324 0.359299 -1.18864e-19)
(0.744533 0.341372 -1.2423e-19)
(0.756639 0.324789 7.37798e-19)
(0.767798 0.309386 -6.15426e-19)
(0.778322 0.294908 2.38459e-20)
(0.788049 0.281341 7.79287e-19)
(0.795015 0.269762 -8.08728e-22)
(0.111994 0.195733 -9.2009e-19)
(0.260419 0.42381 -1.51234e-19)
(0.366074 0.53186 -2.08376e-19)
(0.439357 0.566397 -1.60295e-19)
(0.491169 0.561403 -4.08941e-19)
(0.530324 0.538267 1.39937e-19)
(0.562157 0.508884 -1.96713e-19)
(0.589539 0.478911 5.83424e-20)
(0.613917 0.450565 -2.84816e-19)
(0.636003 0.424464 -2.68e-19)
(0.656178 0.400604 5.74073e-20)
(0.674679 0.378789 -4.35195e-19)
(0.691681 0.358795 3.48743e-19)
(0.707322 0.340415 -1.26041e-19)
(0.721703 0.323483 3.93247e-19)
(0.73491 0.307862 -8.48719e-19)
(0.747116 0.293394 -1.61354e-19)
(0.75862 0.279857 -3.04632e-19)
(0.769255 0.267239 -8.17115e-19)
(0.77729 0.256413 -1.31722e-19)
(0.0986195 0.187327 1.49372e-19)
(0.231507 0.403496 -1.6556e-20)
(0.329965 0.504432 -2.33866e-19)
(0.400948 0.53564 8.27607e-20)
(0.453133 0.529809 -1.67323e-19)
(0.493929 0.507247 -2.01728e-21)
(0.527851 0.479105 2.27292e-19)
(0.55736 0.450606 -3.39825e-19)
(0.583736 0.423754 1.32104e-19)
(0.607644 0.399082 -7.65627e-20)
(0.629465 0.376565 2.11299e-20)
(0.649454 0.356009 -3.80051e-19)
(0.66781 0.337198 -4.61804e-19)
(0.684691 0.319937 -1.75743e-20)
(0.700222 0.304066 5.14288e-19)
(0.714511 0.289453 2.37937e-20)
(0.727743 0.275951 6.50241e-19)
(0.740199 0.26336 -9.48076e-19)
(0.751717 0.251667 5.03937e-19)
(0.760795 0.241569 8.68998e-19)
(0.0856365 0.177259 -1.32828e-19)
(0.203719 0.380017 7.13311e-20)
(0.295487 0.473455 4.64549e-19)
(0.364458 0.501455 1.15027e-19)
(0.417132 0.495078 -1.54711e-19)
(0.459569 0.473398 1.22354e-19)
(0.495516 0.446767 4.80848e-19)
(0.527066 0.419968 -3.90605e-19)
(0.555351 0.394798 3.62126e-20)
(0.580998 0.371717 -1.42476e-19)
(0.604391 0.35068 5.14952e-19)
(0.625806 0.331499 3.67822e-19)
(0.645461 0.31397 -5.34316e-20)
(0.663536 0.29791 -5.57535e-19)
(0.680174 0.283165 2.98194e-20)
(0.695503 0.26961 -6.87195e-20)
(0.709716 0.257107 3.2763e-19)
(0.723075 0.24548 5.32563e-19)
(0.735437 0.23471 4.64731e-19)
(0.745516 0.225338 -7.77113e-19)
(0.0732219 0.165609 -8.37481e-20)
(0.177376 0.35355 3.5699e-19)
(0.262989 0.43914 -3.47476e-19)
(0.330214 0.464051 4.84443e-19)
(0.383453 0.457401 -2.627e-19)
(0.427496 0.436889 1.89279e-19)
(0.465378 0.412018 4.79151e-19)
(0.498858 0.387126 -5.76801e-19)
(0.528944 0.363814 2.62778e-19)
(0.556228 0.34247 3.32373e-19)
(0.581105 0.32304 -4.51366e-19)
(0.603866 0.305343 -3.16313e-20)
(0.624748 0.289188 -3.61473e-19)
(0.643952 0.274404 5.8042e-19)
(0.661637 0.260848 -3.14382e-19)
(0.677948 0.2484 3.37567e-19)
(0.693082 0.236934 -6.08092e-20)
(0.707285 0.226296 2.08743e-19)
(0.720436 0.216456 4.76873e-20)
(0.731465 0.20783 -1.21664e-19)
(0.0615419 0.152474 -2.57775e-19)
(0.152776 0.324296 -5.91521e-19)
(0.232792 0.401721 1.55647e-19)
(0.298515 0.423659 -4.99097e-19)
(0.352365 0.41699 -4.72981e-19)
(0.397944 0.397908 -3.40138e-19)
(0.437643 0.375027 2.64932e-19)
(0.472923 0.352232 2.03624e-19)
(0.504681 0.330935 -1.29134e-21)
(0.533487 0.311464 -1.77471e-19)
(0.559741 0.293756 -3.20489e-19)
(0.583752 0.277643 2.88733e-19)
(0.605777 0.262947 -9.94737e-20)
(0.62603 0.24951 -4.91283e-19)
(0.644689 0.237202 3.19521e-19)
(0.661912 0.22591 -2.40026e-19)
(0.677896 0.21552 -9.77031e-20)
(0.692873 0.205899 -2.7354e-19)
(0.706755 0.197009 -2.47343e-19)
(0.718672 0.189156 6.40597e-20)
(0.0507502 0.137967 2.25079e-19)
(0.130193 0.292482 1.16391e-19)
(0.20519 0.36146 1.7835e-19)
(0.269635 0.380532 -6.0959e-19)
(0.324108 0.374077 6.52556e-19)
(0.371127 0.356663 2.53144e-21)
(0.412502 0.335978 5.15426e-21)
(0.44943 0.315452 -3.97317e-19)
(0.482716 0.296315 3.70832e-19)
(0.512911 0.278838 -2.58172e-19)
(0.540423 0.262958 7.75206e-20)
(0.565577 0.248518 -3.45487e-19)
(0.588646 0.235358 -1.64297e-19)
(0.609858 0.223336 -7.83395e-20)
(0.629406 0.212331 5.9108e-19)
(0.647459 0.202242 -2.90047e-19)
(0.664215 0.192967 -2.61714e-19)
(0.679891 0.184393 2.68887e-19)
(0.694438 0.176474 -2.20734e-19)
(0.707171 0.169429 1.72027e-19)
(0.040987 0.122215 4.80062e-19)
(0.109876 0.258353 -2.89978e-19)
(0.180448 0.318635 4.33488e-20)
(0.243819 0.334944 5.07531e-19)
(0.298899 0.328912 2.01654e-19)
(0.347236 0.313379 2.49813e-19)
(0.390123 0.295074 2.48647e-19)
(0.428532 0.27697 5.27131e-19)
(0.463187 0.26012 -1.2073e-19)
(0.494626 0.244748 2.88351e-19)
(0.523264 0.230789 4.18755e-19)
(0.549442 0.218104 1.54188e-19)
(0.573446 0.206551 2.79025e-19)
(0.595517 0.196002 1.01174e-19)
(0.615859 0.186352 5.93527e-20)
(0.634654 0.17751 -4.30975e-20)
(0.652097 0.169389 3.45573e-19)
(0.668393 0.16189 2.12862e-19)
(0.683532 0.154967 -1.93588e-19)
(0.697002 0.148767 1.82559e-19)
(0.0323776 0.105356 -3.19035e-19)
(0.0920423 0.222178 3.58002e-20)
(0.158798 0.27355 -9.21176e-20)
(0.221282 0.287185 -2.79973e-19)
(0.27693 0.281761 -1.48101e-19)
(0.326439 0.268297 -2.69401e-19)
(0.370657 0.252531 1.25382e-19)
(0.410362 0.236984 -4.84221e-19)
(0.446215 0.222533 2.85973e-19)
(0.478741 0.209361 -3.95297e-19)
(0.508365 0.197406 -2.45305e-19)
(0.535437 0.186548 -3.24557e-19)
(0.560258 0.176663 7.43369e-20)
(0.583079 0.167642 -7.33798e-20)
(0.604115 0.159393 8.74926e-20)
(0.623556 0.151839 4.703e-20)
(0.641596 0.144905 9.3431e-20)
(0.658429 0.138509 -7.82982e-19)
(0.674086 0.132605 3.89529e-19)
(0.688203 0.127287 -2.33594e-19)
(0.0250313 0.087541 1.05623e-19)
(0.0768842 0.184242 2.13227e-19)
(0.140443 0.226521 -1.39087e-19)
(0.202213 0.237564 3.43578e-19)
(0.258367 0.232905 -5.49843e-20)
(0.308883 0.221669 3.97624e-19)
(0.354234 0.208581 7.69587e-20)
(0.39504 0.195703 -8.06312e-20)
(0.431907 0.183747 2.93575e-19)
(0.465354 0.172857 2.24268e-19)
(0.495811 0.162977 8.32013e-20)
(0.523642 0.154007 1.09312e-19)
(0.549153 0.145844 5.47807e-20)
(0.572609 0.138398 -2.32593e-19)
(0.594233 0.131591 -3.23137e-20)
(0.61422 0.12536 2.42593e-19)
(0.632762 0.119643 -1.65796e-19)
(0.650047 0.114376 -7.81088e-21)
(0.666142 0.109512 -3.46795e-19)
(0.680812 0.105109 6.98384e-19)
(0.0190409 0.0689302 2.83564e-19)
(0.0645621 0.144843 -3.40235e-19)
(0.125553 0.177881 1.59665e-19)
(0.186767 0.186399 -2.25687e-19)
(0.243349 0.182638 1.99217e-19)
(0.294689 0.173761 -3.45748e-19)
(0.340962 0.163463 -2.53182e-19)
(0.382662 0.153349 1.89485e-20)
(0.420352 0.143967 -3.44909e-19)
(0.454545 0.135426 -2.15186e-19)
(0.485678 0.12768 -3.72381e-19)
(0.514123 0.120649 -1.23937e-20)
(0.540195 0.114253 -1.44503e-19)
(0.564165 0.10842 3.65769e-19)
(0.586264 0.10309 2.5193e-19)
(0.606692 0.0982113 -8.46565e-20)
(0.62564 0.0937375 -7.64787e-20)
(0.643289 0.0896184 -3.44018e-21)
(0.659738 0.0858144 9.46171e-21)
(0.674859 0.0823576 1.38054e-19)
(0.0144815 0.0496918 -7.09353e-20)
(0.0552059 0.104294 -2.4285e-19)
(0.114265 0.127977 -1.51416e-19)
(0.175072 0.134022 -9.47491e-20)
(0.231986 0.131262 -1.96325e-19)
(0.283957 0.124847 3.36393e-19)
(0.330931 0.117428 -3.60946e-20)
(0.373308 0.11015 -8.09689e-20)
(0.411622 0.103405 3.2832e-21)
(0.446381 0.0972653 2.37754e-19)
(0.478026 0.0916993 -2.25822e-19)
(0.506935 0.0866483 2.20848e-19)
(0.533431 0.0820541 1.03621e-19)
(0.55779 0.0778653 -1.88851e-19)
(0.580249 0.0740383 4.1291e-20)
(0.601012 0.0705362 1.21352e-19)
(0.620265 0.0673259 4.21912e-20)
(0.63819 0.0643717 -2.93784e-20)
(0.654907 0.0616431 -2.55056e-19)
(0.670371 0.0591563 2.03075e-19)
(0.0114099 0.0300006 6.40137e-20)
(0.0489134 0.0629169 7.76742e-20)
(0.106681 0.0771611 2.18396e-20)
(0.167222 0.0807737 -1.64448e-20)
(0.224364 0.0790877 4.69027e-20)
(0.27676 0.075209 7.1721e-20)
(0.324207 0.0707321 2.71981e-20)
(0.367039 0.0663444 3.31845e-20)
(0.405771 0.0622789 -7.05243e-20)
(0.440909 0.0585797 1.32151e-19)
(0.472898 0.0552266 -3.12116e-20)
(0.502119 0.0521842 -2.52199e-21)
(0.528901 0.0494173 3.16713e-20)
(0.553521 0.0468949 3.57085e-20)
(0.576221 0.0445906 -9.59218e-20)
(0.597208 0.0424823 6.31269e-20)
(0.616666 0.0405501 4.13896e-20)
(0.634775 0.0387727 3.53371e-20)
(0.651673 0.0371309 7.57217e-20)
(0.667368 0.0356317 3.13307e-20)
(0.00986443 0.0100358 -1.31102e-20)
(0.0457504 0.0210394 2.72452e-20)
(0.102872 0.0257964 -3.81202e-20)
(0.16328 0.0269995 2.39569e-20)
(0.220539 0.026433 1.40605e-20)
(0.273149 0.025135 6.29905e-21)
(0.320833 0.0236382 1.48716e-20)
(0.363894 0.0221717 -4.26311e-20)
(0.402836 0.0208132 2.71931e-20)
(0.438165 0.0195772 9.505e-21)
(0.470326 0.0184569 -5.54906e-22)
(0.499705 0.0174405 5.83639e-20)
(0.526629 0.0165162 -1.77148e-20)
(0.55138 0.0156736 -1.69636e-20)
(0.574201 0.014904 -1.62986e-20)
(0.5953 0.0141998 2.528e-21)
(0.614862 0.0135545 -2.17695e-20)
(0.633063 0.012961 4.16101e-21)
(0.650052 0.0124128 8.18024e-22)
(0.665864 0.0119118 -2.7618e-21)
(0.00986415 -0.0100205 8.32628e-21)
(0.0457498 -0.0210051 -4.43129e-20)
(0.102871 -0.0257518 5.28223e-20)
(0.16328 -0.0269503 -3.96973e-20)
(0.220538 -0.0263824 -1.85249e-20)
(0.273148 -0.0250847 5.54652e-20)
(0.320832 -0.0235888 4.62033e-21)
(0.363893 -0.0221235 1.28459e-21)
(0.402836 -0.0207661 2.58993e-20)
(0.438165 -0.0195313 1.33839e-20)
(0.470326 -0.018412 -1.0578e-20)
(0.499704 -0.0173965 -3.70844e-20)
(0.526628 -0.0164731 3.53174e-21)
(0.55138 -0.0156314 -3.22675e-21)
(0.574201 -0.0148625 3.45607e-20)
(0.5953 -0.0141591 -2.07941e-20)
(0.614862 -0.0135145 2.85073e-20)
(0.633062 -0.0129217 -4.27268e-20)
(0.650052 -0.0123741 5.00414e-23)
(0.665863 -0.0118736 -8.98877e-21)
(0.0114091 -0.0299854 -2.76591e-20)
(0.0489116 -0.0628828 1.39511e-19)
(0.106679 -0.0771166 9.40008e-20)
(0.167219 -0.0807246 6.21933e-20)
(0.224362 -0.0790372 7.76295e-20)
(0.276758 -0.0751588 -1.88776e-20)
(0.324205 -0.0706828 8.60121e-20)
(0.367037 -0.0662963 1.75869e-20)
(0.405769 -0.062232 -7.71279e-21)
(0.440908 -0.0585339 -6.13766e-20)
(0.472896 -0.0551818 6.36257e-20)
(0.502118 -0.0521403 -8.63905e-20)
(0.528899 -0.0493742 6.27562e-20)
(0.55352 -0.0468527 7.1863e-20)
(0.57622 -0.0445492 9.50153e-20)
(0.597206 -0.0424416 -6.24592e-20)
(0.616665 -0.0405101 1.76062e-20)
(0.634774 -0.0387333 6.58685e-20)
(0.651672 -0.0370922 -6.22964e-20)
(0.667367 -0.0355936 4.69784e-20)
(0.0144801 -0.0496768 -2.67295e-19)
(0.0552029 -0.104261 -1.34215e-19)
(0.114261 -0.127932 -1.49255e-19)
(0.175068 -0.133973 -1.17545e-20)
(0.231983 -0.131211 -8.04989e-20)
(0.283953 -0.124797 -9.8677e-20)
(0.330928 -0.117379 1.74318e-19)
(0.373305 -0.110103 8.87866e-20)
(0.411619 -0.103358 1.09294e-19)
(0.446378 -0.0972196 -1.18794e-19)
(0.478023 -0.0916546 8.79997e-20)
(0.506932 -0.0866045 1.07291e-19)
(0.533429 -0.0820112 3.77944e-20)
(0.557788 -0.0778232 -3.59248e-20)
(0.580247 -0.0739969 7.68764e-21)
(0.601009 -0.0704956 -1.55266e-20)
(0.620263 -0.067286 -1.51621e-19)
(0.638188 -0.0643324 2.35387e-20)
(0.654905 -0.0616044 1.47224e-19)
(0.670369 -0.0591182 -1.97734e-19)
(0.019039 -0.0689154 -8.7836e-20)
(0.064558 -0.14481 1.30354e-19)
(0.125548 -0.177838 3.01259e-20)
(0.186762 -0.186351 -5.62459e-20)
(0.243344 -0.182588 -1.59121e-19)
(0.294684 -0.173711 -3.40875e-19)
(0.340958 -0.163414 -3.2433e-19)
(0.382657 -0.153301 -2.32705e-20)
(0.420348 -0.143921 -1.88531e-19)
(0.454541 -0.13538 -2.81878e-19)
(0.485675 -0.127635 2.18539e-19)
(0.514119 -0.120606 -3.22287e-19)
(0.540191 -0.11421 6.39234e-20)
(0.564162 -0.108378 -2.05568e-20)
(0.586261 -0.103049 -6.74176e-20)
(0.606689 -0.0981708 -8.51263e-20)
(0.625637 -0.0936977 1.38196e-19)
(0.643287 -0.0895792 1.10343e-19)
(0.659735 -0.0857758 1.89562e-19)
(0.674856 -0.0823197 -2.83697e-19)
(0.0250289 -0.0875266 4.76913e-20)
(0.076879 -0.184209 4.6282e-19)
(0.140436 -0.226478 1.32468e-19)
(0.202206 -0.237516 3.20281e-19)
(0.258361 -0.232856 -1.19675e-19)
(0.308876 -0.22162 1.84132e-19)
(0.354228 -0.208533 -5.77864e-20)
(0.395034 -0.195656 3.73189e-19)
(0.431902 -0.183701 -1.91929e-19)
(0.465349 -0.172811 2.26184e-19)
(0.495807 -0.162933 1.96281e-19)
(0.523637 -0.153964 2.09736e-19)
(0.549149 -0.145802 -1.87624e-19)
(0.572605 -0.138356 1.60876e-19)
(0.594229 -0.13155 -2.23648e-19)
(0.614216 -0.12532 -6.14422e-20)
(0.632758 -0.119603 -1.47057e-19)
(0.650044 -0.114337 -6.24066e-20)
(0.666138 -0.109473 2.47492e-19)
(0.680808 -0.105072 -4.09697e-19)
(0.0323747 -0.105342 -1.91286e-19)
(0.0920361 -0.222146 -2.25037e-20)
(0.15879 -0.273507 -7.61956e-20)
(0.221274 -0.287138 -2.68002e-19)
(0.276922 -0.281712 4.57286e-20)
(0.326431 -0.268248 -4.19415e-19)
(0.37065 -0.252483 -1.76083e-19)
(0.410355 -0.236937 -1.35917e-20)
(0.446209 -0.222487 -4.42803e-19)
(0.478735 -0.209316 -1.3731e-19)