/*--------------------------------*- C++ -*----------------------------------*\
  =========                 |
  \\      /  F ield         | OpenFOAM: The Open Source CFD Toolbox
   \\    /   O peration     | Website:  https://openfoam.org
    \\  /    A nd           | Version:  6.0
     \\/     M anipulation  |
\*---------------------------------------------------------------------------*/
FoamFile
{
    version     2.0;
    format      ascii;
    class       volScalarField;
    location    "63";
    object      p;
}
// * * * * * * * * * * * * * * * * * * * * * * * * * * * * * * * * * * * * * //

dimensions      [0 2 -2 0 0 0 0];

internalField   nonuniform List<scalar> 
8000
(
-0.310801
-0.311736
-0.312327
-0.312728
-0.313037
-0.313269
-0.313439
-0.31356
-0.313641
-0.313691
-0.313715
-0.313721
-0.313716
-0.313708
-0.313705
-0.313717
-0.313752
-0.313775
-0.313765
-0.314131
-0.310796
-0.311825
-0.31247
-0.312906
-0.313241
-0.313494
-0.313679
-0.313809
-0.313892
-0.313937
-0.313948
-0.313932
-0.313895
-0.313844
-0.313785
-0.313729
-0.313681
-0.313606
-0.313486
-0.313708
-0.310925
-0.312047
-0.312744
-0.313211
-0.313569
-0.313837
-0.31403
-0.314162
-0.314241
-0.314273
-0.314263
-0.314216
-0.314138
-0.314034
-0.31391
-0.313775
-0.313634
-0.313452
-0.313212
-0.313286
-0.311213
-0.312424
-0.313167
-0.31366
-0.314036
-0.314314
-0.314511
-0.31464
-0.314708
-0.314721
-0.314683
-0.314598
-0.314471
-0.314305
-0.314107
-0.313884
-0.313641
-0.313345
-0.312977
-0.312902
-0.311684
-0.312974
-0.313758
-0.314272
-0.314659
-0.314942
-0.315138
-0.315258
-0.315312
-0.315301
-0.31523
-0.3151
-0.314916
-0.314681
-0.314399
-0.31408
-0.313727
-0.313308
-0.312805
-0.312582
-0.31236
-0.313717
-0.314532
-0.31506
-0.315453
-0.315737
-0.315927
-0.316036
-0.31607
-0.316032
-0.315923
-0.315744
-0.315496
-0.315184
-0.31481
-0.314385
-0.313913
-0.313361
-0.312715
-0.312347
-0.313263
-0.314669
-0.315505
-0.316038
-0.316432
-0.316711
-0.316892
-0.316987
-0.317
-0.316932
-0.316781
-0.316548
-0.316231
-0.315833
-0.315358
-0.314816
-0.314213
-0.313517
-0.312717
-0.312206
-0.314413
-0.315844
-0.316686
-0.317216
-0.317604
-0.317874
-0.318044
-0.318123
-0.318114
-0.318014
-0.317821
-0.317529
-0.317138
-0.316647
-0.31606
-0.315387
-0.314638
-0.313781
-0.31281
-0.312157
-0.315821
-0.317251
-0.318083
-0.3186
-0.318974
-0.319232
-0.319387
-0.31945
-0.319418
-0.319288
-0.319051
-0.3187
-0.31823
-0.317638
-0.316926
-0.316107
-0.315191
-0.31415
-0.312984
-0.312183
-0.317494
-0.318892
-0.319696
-0.320189
-0.320542
-0.320781
-0.32092
-0.320966
-0.320914
-0.320755
-0.320476
-0.320066
-0.319514
-0.318813
-0.317965
-0.31698
-0.315873
-0.314614
-0.313215
-0.312253
-0.319433
-0.320765
-0.321521
-0.321977
-0.322299
-0.322513
-0.322633
-0.322661
-0.32259
-0.322405
-0.322088
-0.32162
-0.320986
-0.320171
-0.319173
-0.318002
-0.316673
-0.315154
-0.313468
-0.312316
-0.321629
-0.322861
-0.323547
-0.323949
-0.324228
-0.32441
-0.324505
-0.324514
-0.324423
-0.324214
-0.323862
-0.323341
-0.322625
-0.321693
-0.320535
-0.319155
-0.317569
-0.315739
-0.313693
-0.312302
-0.324067
-0.325164
-0.325757
-0.326088
-0.326309
-0.326445
-0.326506
-0.326489
-0.326377
-0.326144
-0.325758
-0.325185
-0.324389
-0.323338
-0.322009
-0.3204
-0.31852
-0.316318
-0.31382
-0.312115
-0.326726
-0.327656
-0.328131
-0.32837
-0.328513
-0.328586
-0.328598
-0.328543
-0.3284
-0.328136
-0.327713
-0.327086
-0.326208
-0.325035
-0.323526
-0.321668
-0.319458
-0.316822
-0.31376
-0.311627
-0.329582
-0.330316
-0.330648
-0.330769
-0.330809
-0.330795
-0.330736
-0.330623
-0.33043
-0.33012
-0.329647
-0.328957
-0.327989
-0.326685
-0.324986
-0.322858
-0.320281
-0.317147
-0.313399
-0.310678
-0.332613
-0.333126
-0.333288
-0.333263
-0.333169
-0.333037
-0.332876
-0.332675
-0.332405
-0.332023
-0.331477
-0.330701
-0.329626
-0.328174
-0.326267
-0.323846
-0.320869
-0.317183
-0.312628
-0.309111
-0.335799
-0.336073
-0.336037
-0.335834
-0.33557
-0.335283
-0.334981
-0.334653
-0.334268
-0.333779
-0.333125
-0.332234
-0.331022
-0.329398
-0.327262
-0.324527
-0.321125
-0.316857
-0.311411
-0.306839
-0.339134
-0.339151
-0.33889
-0.338474
-0.338001
-0.337515
-0.337029
-0.336531
-0.335988
-0.335349
-0.334547
-0.333503
-0.332124
-0.330302
-0.327915
-0.324845
-0.320986
-0.316095
-0.309647
-0.303636
-0.342622
-0.342369
-0.341855
-0.34119
-0.340466
-0.339737
-0.339021
-0.338306
-0.33756
-0.336729
-0.335744
-0.334521
-0.33296
-0.330945
-0.328336
-0.324975
-0.320688
-0.315104
-0.307328
-0.299151
-0.346287
-0.345748
-0.344954
-0.344002
-0.342986
-0.341971
-0.340982
-0.340009
-0.33902
-0.337963
-0.33677
-0.335361
-0.333648
-0.33153
-0.328894
-0.325613
-0.32152
-0.316144
-0.308223
-0.299055
-0.350168
-0.349327
-0.348221
-0.346947
-0.345603
-0.344264
-0.342962
-0.341695
-0.340431
-0.339122
-0.337705
-0.336116
-0.334289
-0.332173
-0.329746
-0.327043
-0.324195
-0.321431
-0.319732
-0.324935
-0.354323
-0.353154
-0.351708
-0.350079
-0.348372
-0.346677
-0.345034
-0.343444
-0.34188
-0.340298
-0.338642
-0.336862
-0.334916
-0.33279
-0.330518
-0.328208
-0.326079
-0.324492
-0.324248
-0.329037
-0.358823
-0.357292
-0.355473
-0.353461
-0.351364
-0.349287
-0.347281
-0.345349
-0.343466
-0.341593
-0.33968
-0.337687
-0.33559
-0.333398
-0.331168
-0.329021
-0.327161
-0.325872
-0.32556
-0.328054
-0.363746
-0.361809
-0.359583
-0.357161
-0.354653
-0.352178
-0.349792
-0.347502
-0.345283
-0.343097
-0.340898
-0.33865
-0.336339
-0.333978
-0.331624
-0.329375
-0.327375
-0.325789
-0.324801
-0.325144
-0.369172
-0.366775
-0.364108
-0.361253
-0.358316
-0.355429
-0.35265
-0.349986
-0.347409
-0.344876
-0.342344
-0.339775
-0.337154
-0.334494
-0.331835
-0.329244
-0.326807
-0.324601
-0.322704
-0.321222
-0.375176
-0.372258
-0.369114
-0.365806
-0.362426
-0.359114
-0.355927
-0.352866
-0.349895
-0.346966
-0.34403
-0.341047
-0.338001
-0.334897
-0.331763
-0.328643
-0.325584
-0.322621
-0.319797
-0.316955
-0.381824
-0.378317
-0.37466
-0.37088
-0.367044
-0.363292
-0.359676
-0.356181
-0.352764
-0.349365
-0.345931
-0.342422
-0.338819
-0.335128
-0.331372
-0.327586
-0.323804
-0.320048
-0.316352
-0.312495
-0.389167
-0.385
-0.380796
-0.376526
-0.372218
-0.368005
-0.363924
-0.359943
-0.356003
-0.352037
-0.347989
-0.343823
-0.339529
-0.335119
-0.330623
-0.32608
-0.321526
-0.316992
-0.312507
-0.307889
-0.397235
-0.392341
-0.387559
-0.382781
-0.377981
-0.373274
-0.368676
-0.364131
-0.359566
-0.354911
-0.350114
-0.345155
-0.340039
-0.334797
-0.329473
-0.324118
-0.318778
-0.313495
-0.308295
-0.30306
-0.406038
-0.400356
-0.394967
-0.389665
-0.384344
-0.379094
-0.373901
-0.368688
-0.36337
-0.357882
-0.352193
-0.346305
-0.340252
-0.334089
-0.327878
-0.321685
-0.315565
-0.309566
-0.303711
-0.297935
-0.415561
-0.409038
-0.403021
-0.397173
-0.391292
-0.385429
-0.379538
-0.373522
-0.367298
-0.360822
-0.354095
-0.347155
-0.340072
-0.332925
-0.325798
-0.318764
-0.311882
-0.305201
-0.298734
-0.292451
-0.425762
-0.418359
-0.411697
-0.405278
-0.398778
-0.392205
-0.385482
-0.378504
-0.371205
-0.363582
-0.355681
-0.347589
-0.339409
-0.331246
-0.323197
-0.315337
-0.307722
-0.300392
-0.293347
-0.286575
-0.436565
-0.428259
-0.420941
-0.413916
-0.40672
-0.399312
-0.391594
-0.383471
-0.374922
-0.366001
-0.356813
-0.347495
-0.338183
-0.329
-0.320044
-0.311387
-0.303073
-0.295131
-0.287539
-0.280296
-0.447863
-0.438648
-0.430666
-0.422987
-0.414992
-0.406593
-0.397692
-0.388234
-0.378265
-0.367915
-0.357357
-0.346772
-0.336322
-0.326137
-0.316309
-0.306895
-0.297924
-0.289406
-0.281299
-0.273609
-0.459511
-0.449399
-0.440743
-0.432347
-0.423422
-0.413851
-0.403565
-0.392582
-0.381042
-0.369164
-0.357186
-0.345327
-0.333761
-0.322613
-0.31196
-0.301838
-0.292256
-0.283205
-0.274617
-0.266513
-0.471324
-0.460345
-0.451005
-0.441806
-0.431794
-0.42085
-0.408974
-0.396293
-0.383063
-0.369595
-0.356185
-0.343075
-0.330438
-0.318382
-0.306961
-0.296185
-0.286044
-0.276504
-0.267475
-0.258998
-0.483076
-0.471277
-0.461236
-0.451129
-0.439853
-0.427325
-0.413664
-0.399142
-0.384142
-0.369063
-0.354245
-0.339935
-0.326292
-0.313396
-0.30127
-0.289902
-0.279254
-0.269276
-0.259848
-0.251047
-0.494504
-0.481946
-0.47118
-0.460039
-0.447305
-0.432989
-0.417376
-0.40091
-0.384107
-0.367438
-0.351267
-0.335831
-0.32126
-0.3076
-0.294842
-0.282944
-0.27185
-0.261485
-0.251707
-0.242635
-0.505308
-0.492064
-0.480538
-0.468222
-0.453836
-0.437546
-0.419853
-0.40139
-0.382795
-0.364595
-0.347156
-0.330687
-0.315278
-0.300938
-0.287624
-0.275265
-0.263786
-0.253092
-0.243016
-0.233732
-0.515156
-0.501311
-0.488982
-0.47534
-0.459115
-0.4407
-0.420849
-0.400387
-0.38006
-0.360423
-0.341823
-0.324428
-0.308282
-0.293352
-0.279561
-0.266815
-0.255017
-0.244053
-0.233735
-0.224301
-0.523697
-0.509341
-0.496156
-0.481036
-0.462813
-0.442167
-0.420135
-0.397727
-0.375768
-0.354818
-0.335184
-0.316981
-0.300206
-0.284782
-0.2706
-0.257542
-0.245496
-0.234326
-0.223826
-0.214308
-0.530559
-0.515786
-0.50169
-0.484954
-0.464606
-0.441681
-0.417505
-0.393254
-0.369801
-0.347685
-0.327158
-0.308278
-0.290987
-0.27517
-0.260686
-0.247398
-0.235178
-0.223869
-0.213251
-0.203717
-0.53537
-0.520276
-0.505216
-0.486744
-0.464197
-0.439003
-0.412778
-0.386831
-0.362055
-0.33894
-0.317675
-0.298253
-0.280567
-0.264461
-0.249771
-0.236338
-0.224022
-0.212645
-0.201976
-0.192495
-0.537764
-0.522445
-0.506371
-0.48608
-0.461313
-0.433926
-0.4058
-0.378344
-0.352438
-0.328508
-0.306667
-0.286847
-0.26889
-0.252607
-0.237808
-0.224321
-0.211991
-0.20062
-0.189973
-0.180618
-0.537392
-0.521941
-0.504821
-0.482666
-0.455721
-0.426274
-0.396444
-0.367699
-0.340878
-0.316326
-0.29408
-0.274009
-0.255911
-0.239565
-0.224762
-0.211314
-0.199056
-0.187771
-0.17722
-0.168065
-0.533931
-0.51844
-0.50026
-0.476249
-0.447226
-0.41591
-0.384613
-0.354825
-0.327315
-0.302344
-0.279869
-0.259699
-0.241593
-0.225304
-0.210603
-0.197293
-0.185197
-0.174079
-0.163704
-0.154824
-0.527097
-0.511659
-0.49243
-0.466618
-0.43568
-0.402733
-0.370239
-0.33967
-0.31171
-0.286526
-0.263999
-0.243886
-0.225909
-0.209799
-0.195312
-0.182241
-0.1704
-0.159535
-0.149419
-0.140892
-0.516652
-0.501356
-0.481119
-0.453619
-0.420979
-0.386682
-0.353283
-0.322207
-0.294039
-0.268851
-0.246452
-0.226552
-0.208844
-0.193037
-0.178878
-0.166151
-0.154663
-0.144139
-0.134368
-0.12627
-0.502411
-0.487349
-0.466177
-0.437149
-0.403069
-0.36773
-0.333736
-0.302433
-0.274299
-0.249313
-0.227222
-0.207692
-0.190392
-0.175017
-0.161301
-0.149027
-0.137989
-0.127902
-0.118565
-0.110972
-0.484248
-0.469511
-0.447508
-0.417161
-0.38194
-0.34589
-0.311617
-0.280366
-0.252505
-0.227926
-0.206317
-0.187313
-0.170561
-0.155744
-0.142592
-0.13088
-0.120396
-0.110842
-0.102034
-0.0950251
-0.462098
-0.44778
-0.425084
-0.393664
-0.357628
-0.32121
-0.286974
-0.256049
-0.228692
-0.204717
-0.183762
-0.165435
-0.149368
-0.135236
-0.122765
-0.111727
-0.101905
-0.0929883
-0.0848111
-0.078472
-0.435962
-0.422158
-0.398933
-0.366719
-0.330214
-0.293774
-0.259884
-0.229548
-0.202917
-0.179733
-0.159595
-0.14209
-0.12684
-0.113517
-0.101843
-0.0915913
-0.0825381
-0.0743684
-0.0669337
-0.0613587
-0.405905
-0.392712
-0.369148
-0.336443
-0.299821
-0.2637
-0.230453
-0.200955
-0.175256
-0.153037
-0.133868
-0.11732
-0.103012
-0.0906142
-0.0798508
-0.0704947
-0.0623191
-0.0550102
-0.0484364
-0.0437111
-0.372057
-0.359573
-0.335878
-0.302999
-0.266613
-0.231139
-0.198816
-0.170386
-0.145808
-0.124714
-0.106649
-0.0911807
-0.0779265
-0.0665612
-0.0568131
-0.0484573
-0.0412683
-0.0349396
-0.0293443
-0.0255215
-0.334606
-0.322931
-0.299326
-0.266595
-0.230791
-0.196276
-0.165135
-0.137983
-0.114695
-0.0948644
-0.0780227
-0.0637366
-0.0516309
-0.0413889
-0.0327477
-0.0254894
-0.0193954
-0.0141702
-0.00966648
-0.0067877
-0.293799
-0.28303
-0.259745
-0.227485
-0.192593
-0.159326
-0.129603
-0.103914
-0.0820643
-0.0636147
-0.0480925
-0.0350702
-0.0241845
-0.0151338
-0.00767076
-0.00159025
0.00331338
0.00731781
0.0105927
0.0123623
-0.249936
-0.240167
-0.217434
-0.185958
-0.152288
-0.120534
-0.0924392
-0.0683756
-0.0480872
-0.0311139
-0.0169837
-0.00528129
0.00433836
0.0121541
0.0183894
0.023233
0.0268733
0.0295304
0.0313088
0.031519
-0.203362
-0.194682
-0.172728
-0.142336
-0.110176
-0.0801728
-0.0538907
-0.0315903
-0.0129638
0.00246409
0.0151593
0.0255203
0.033867
0.0404442
0.0454401
0.0490216
0.0513343
0.052418
0.052145
0.0502106
-0.154458
-0.146953
-0.125999
-0.0969699
-0.0665819
-0.0385417
-0.0142328
0.00618744
0.0230728
0.03691
0.0481598
0.0572059
0.0643441
0.0697832
0.0736733
0.0761484
0.0772354
0.0765664
0.0736535
0.0695103
-0.103643
-0.0973868
-0.0776397
-0.0502327
-0.021851
0.00403928
0.0262344
0.0446726
0.0597478
0.0719578
0.0817632
0.0895452
0.095596
0.100123
0.103288
0.105244
0.105886
0.104339
0.0998786
0.0953581
-0.0513577
-0.0464158
-0.0280658
-0.0025122
0.0236571
0.0472356
0.0671946
0.0835588
0.0967551
0.107289
0.115622
0.122138
0.127143
0.130886
0.133613
0.135607
0.136836
0.136284
0.133683
0.137526
0.00194887
0.00551812
0.0222992
0.0457956
0.0695764
0.0907068
0.108326
0.122536
0.133787
0.142586
0.149387
0.154568
0.158434
0.161243
0.163261
0.164755
0.165708
0.165632
0.165447
0.17149
0.0558089
0.0579601
0.0730238
0.0942913
0.11554
0.134114
0.149312
0.161302
0.170551
0.177563
0.182779
0.186568
0.189229
0.191018
0.192189
0.192965
0.193324
0.192963
0.192814
0.197711
0.109753
0.110454
0.123678
0.142579
0.161186
0.177124
0.189843
0.199565
0.206768
0.211944
0.215519
0.217845
0.219207
0.21985
0.220005
0.219872
0.219443
0.218488
0.217772
0.221125
0.163317
0.162548
0.173837
0.19027
0.206161
0.219417
0.229624
0.237054
0.242186
0.245498
0.247396
0.248211
0.248211
0.247619
0.246641
0.245447
0.244018
0.24215
0.240546
0.242465
0.21604
0.213797
0.223087
0.236987
0.250125
0.260683
0.268376
0.273512
0.276571
0.278011
0.278216
0.277497
0.276099
0.274225
0.272058
0.269742
0.267239
0.264371
0.261804
0.26235
0.267478
0.263771
0.271026
0.282366
0.29275
0.300628
0.305831
0.308701
0.309708
0.309291
0.307813
0.30556
0.302757
0.299586
0.296209
0.292744
0.289145
0.28526
0.281727
0.280977
0.3172
0.312054
0.317269
0.32606
0.333726
0.338973
0.34174
0.342394
0.341395
0.339161
0.336032
0.332272
0.328084
0.323633
0.31906
0.314461
0.309787
0.304913
0.30044
0.298459
0.364794
0.358249
0.36145
0.367738
0.372756
0.375454
0.375866
0.374379
0.371443
0.367454
0.362728
0.357508
0.351978
0.346285
0.340553
0.334859
0.329155
0.323339
0.317967
0.314821
0.40987
0.401982
0.403224
0.40709
0.409563
0.409821
0.407986
0.404458
0.399675
0.394012
0.387762
0.381149
0.374339
0.367462
0.360625
0.353893
0.347217
0.340518
0.334295
0.33005
0.452062
0.442901
0.442267
0.443824
0.443886
0.441842
0.437889
0.432441
0.425921
0.418683
0.411001
0.403077
0.395064
0.387075
0.379203
0.371499
0.36392
0.356403
0.349384
0.34411
0.491031
0.48068
0.478279
0.477672
0.475485
0.4713
0.465383
0.458154
0.450024
0.441327
0.432317
0.423181
0.414053
0.405036
0.396207
0.387609
0.379202
0.370936
0.363182
0.356954
0.526466
0.515022
0.510988
0.508388
0.504139
0.497997
0.490287
0.481435
0.471837
0.461811
0.451592
0.44135
0.431209
0.421256
0.411559
0.40215
0.392996
0.384055
0.375629
0.36853
0.558084
0.545657
0.540145
0.535749
0.529647
0.521753
0.512439
0.502136
0.491227
0.480012
0.468713
0.457485
0.446439
0.435652
0.42518
0.41505
0.405234
0.395695
0.386668
0.378786
0.585637
0.572345
0.565531
0.559556
0.551834
0.542407
0.531694
0.520123
0.508071
0.495821
0.483579
0.471492
0.459658
0.448145
0.436999
0.426243
0.415852
0.405795
0.396242
0.387674
0.608906
0.594881
0.586957
0.57964
0.570543
0.55982
0.547923
0.535283
0.522264
0.509139
0.496102
0.483289
0.47079
0.458664
0.44695
0.435666
0.424792
0.414299
0.4043
0.39515
0.62771
0.613089
0.604262
0.595856
0.585646
0.573874
0.56102
0.547515
0.533715
0.519884
0.506205
0.492805
0.479769
0.467148
0.454976
0.443266
0.432003
0.421159
0.410798
0.401174
0.641901
0.626829
0.617317
0.608088
0.597036
0.584473
0.570898
0.556741
0.542352
0.527988
0.513825
0.499983
0.486541
0.473548
0.46103
0.449
0.437444
0.426335
0.4157
0.405716
0.651368
0.635994
0.626026
0.616248
0.604636
0.591546
0.57749
0.5629
0.548119
0.5334
0.518914
0.504778
0.491067
0.477825
0.465077
0.452832
0.441082
0.429796
0.418977
0.408753
0.656038
0.640515
0.630324
0.620277
0.608391
0.595045
0.580754
0.565951
0.550979
0.536086
0.521442
0.507161
0.493317
0.479953
0.467092
0.454742
0.442895
0.431522
0.420612
0.410268
0.655873
0.640357
0.630178
0.620146
0.608277
0.594945
0.580667
0.565875
0.550913
0.536028
0.521391
0.507118
0.493279
0.47992
0.467063
0.454717
0.442873
0.431503
0.420596
0.410255
0.650875
0.635521
0.62559
0.615858
0.604293
0.591247
0.577229
0.562672
0.547921
0.533227
0.518764
0.504647
0.490953
0.477726
0.464991
0.452758
0.441017
0.42974
0.418929
0.408713
0.641083
0.626043
0.616594
0.607442
0.596468
0.583977
0.570465
0.556364
0.542024
0.527702
0.513576
0.499767
0.486353
0.473384
0.460888
0.448877
0.437337
0.426242
0.41562
0.40565
0.626573
0.611998
0.603256
0.594958
0.584856
0.573185
0.56042
0.546993
0.53326
0.519488
0.50586
0.492506
0.479508
0.466922
0.45478
0.443097
0.431857
0.421032
0.410689
0.401084
0.607458
0.593492
0.585676
0.578497
0.569538
0.558943
0.54716
0.534619
0.521686
0.508637
0.495666
0.48291
0.470461
0.458379
0.446703
0.435453
0.424608
0.41414
0.404164
0.395037
0.583889
0.570668
0.563985
0.558176
0.550621
0.54135
0.530774
0.519324
0.507376
0.495218
0.483056
0.471038
0.459265
0.447804
0.436705
0.42599
0.415634
0.405607
0.396082
0.387542
0.556049
0.543704
0.538344
0.534141
0.528237
0.520524
0.511371
0.501209
0.490422
0.479315
0.468108
0.456962
0.445987
0.435262
0.424844
0.414761
0.404986
0.395482
0.386487
0.378637
0.524159
0.512808
0.508947
0.506567
0.502541
0.496606
0.48908
0.480389
0.470931
0.461026
0.450913
0.440764
0.430704
0.420821
0.411185
0.40183
0.392723
0.383822
0.375431
0.368368
0.48847
0.478222
0.476014
0.475651
0.473713
0.469759
0.464048
0.456999
0.449025
0.440464
0.431572
0.422539
0.413502
0.404563
0.395802
0.387264
0.378909
0.370688
0.362971
0.356783
0.449267
0.440218
0.439794
0.441619
0.441955
0.440164
0.436438
0.431187
0.424839
0.417751
0.410199
0.402389
0.394474
0.386571
0.378774
0.371136
0.363613
0.356144
0.349167
0.343935
0.406863
0.399096
0.400564
0.404718
0.407488
0.408022
0.406432
0.403118
0.398522
0.393021
0.386913
0.380422
0.373719
0.366936
0.36018
0.353518
0.346903
0.340256
0.334077
0.329876
0.3616
0.355185
0.358625
0.36522
0.370556
0.373549
0.374225
0.372968
0.370232
0.366417
0.361842
0.356753
0.351338
0.345745
0.340099
0.334481
0.328841
0.32308
0.317755
0.314654
0.313847
0.308837
0.314303
0.323418
0.33142
0.336981
0.340028
0.340926
0.34014
0.338091
0.335122
0.331501
0.327434
0.323088
0.318607
0.314087
0.309482
0.304665
0.30024
0.298305
0.263996
0.260431
0.267946
0.279624
0.290361
0.298569
0.304066
0.307193
0.308423
0.308201
0.306891
0.304784
0.302108
0.299047
0.295766
0.292384
0.288856
0.285031
0.281548
0.280844
0.212461
0.210364
0.219921
0.234171
0.247675
0.258577
0.266576
0.271982
0.275273
0.276915
0.277296
0.276729
0.275462
0.273702
0.271635
0.269404
0.266976
0.26417
0.261654
0.262246
0.159675
0.159056
0.170617
0.187408
0.203676
0.217287
0.227812
0.235519
0.240892
0.244413
0.246491
0.247464
0.247599
0.247124
0.246248
0.245143
0.243789
0.241985
0.240433
0.242398
0.106086
0.106938
0.120436
0.1397
0.158692
0.174994
0.188039
0.198046
0.205496
0.210886
0.214646
0.217132
0.218633
0.219395
0.219654
0.219611
0.219259
0.21837
0.217707
0.221105
0.0521546
0.0544586
0.0697956
0.0914279
0.113066
0.13201
0.14754
0.159819
0.16932
0.176549
0.181953
0.185904
0.188705
0.190615
0.191891
0.192757
0.193194
0.1929
0.192804
0.197745
-0.00165119
0.00207093
0.0191217
0.042981
0.0671526
0.0886556
0.10661
0.121112
0.132617
0.141635
0.148624
0.153968
0.157974
0.160904
0.163026
0.16461
0.16564
0.165631
0.165502
0.171592
-0.0548604
-0.0497668
-0.0311536
-0.00524263
0.0213151
0.0452656
0.0655597
0.0822172
0.0956671
0.106419
0.11494
0.121617
0.126761
0.130623
0.133453
0.135537
0.136844
0.13636
0.133818
0.13771
-0.107004
-0.100598
-0.0805968
-0.0528418
-0.0240781
0.0021804
0.024708
0.0434373
0.0587638
0.0711896
0.08118
0.0891205
0.0953071
0.0999502
0.103216
0.105259
0.105978
0.104497
0.100084
0.0956167
-0.157631
-0.149978
-0.128782
-0.0994191
-0.0686594
-0.0402584
-0.0156229
0.00508341
0.0222153
0.0362637
0.0476935
0.0568931
0.0641616
0.0697108
0.0736935
0.0762465
0.0773992
0.0767811
0.0738957
0.0697709
-0.206298
-0.197475
-0.175295
-0.144585
-0.112068
-0.0817152
-0.0551155
-0.0325371
-0.0136713
0.00196048
0.0148287
0.0253359
0.0338054
0.0404848
0.0455646
0.0492138
0.0515805
0.0527039
0.0524507
0.0505175
-0.252588
-0.24268
-0.219737
-0.187965
-0.153957
-0.121869
-0.0934691
-0.0691383
-0.0486207
-0.0314529
-0.0171587
-0.00531902
0.00441467
0.012324
0.0186347
0.0235377
0.0272232
0.0299123
0.0317091
0.0319259
-0.296117
-0.285214
-0.261739
-0.229209
-0.194001
-0.160419
-0.130407
-0.104465
-0.0823989
-0.0637665
-0.0480914
-0.0349424
-0.0239528
-0.0148182
-0.00728886
-0.00115758
0.00378307
0.00781188
0.0111006
0.0128811
-0.336541
-0.324736
-0.300964
-0.267991
-0.231899
-0.197092
-0.165683
-0.138294
-0.114806
-0.094806
-0.0778247
-0.0634244
-0.0512266
-0.0409119
-0.032215
-0.0249158
-0.0187941
-0.0135535
-0.00904449
-0.00616028
-0.37356
-0.360953
-0.337113
-0.304023
-0.26738
-0.231643
-0.199074
-0.170429
-0.145668
-0.124422
-0.106233
-0.0906648
-0.0773321
-0.065907
-0.0561152
-0.04773
-0.0405239
-0.0341898
-0.0285991
-0.0247814
-0.40693
-0.393617
-0.369933
-0.337052
-0.300208
-0.263855
-0.23039
-0.200701
-0.17484
-0.152488
-0.133212
-0.116581
-0.10221
-0.0897666
-0.078973
-0.0696
-0.0614192
-0.0541159
-0.0475568
-0.0428469
-0.436461
-0.422542
-0.399222
-0.366869
-0.33018
-0.293544
-0.259466
-0.228967
-0.202198
-0.178902
-0.158678
-0.141108
-0.125812
-0.112459
-0.10077
-0.0905153
-0.0814698
-0.0733177
-0.0659084
-0.0603587
-0.462028
-0.447599
-0.424832
-0.393311
-0.357134
-0.320559
-0.286169
-0.255111
-0.227644
-0.203581
-0.182562
-0.164191
-0.148096
-0.133952
-0.121482
-0.110456
-0.100656
-0.0917701
-0.0836305
-0.0773275
-0.483568
-0.468724
-0.446674
-0.416265
-0.380947
-0.344782
-0.310393
-0.279042
-0.2511
-0.226461
-0.204812
-0.185786
-0.169027
-0.154217
-0.141083
-0.1294
-0.118955
-0.109447
-0.10069
-0.0937293
-0.501084
-0.485919
-0.464721
-0.435671
-0.401539
-0.366129
-0.332061
-0.300694
-0.272512
-0.247495
-0.225389
-0.205862
-0.188578
-0.17323
-0.159554
-0.147327
-0.136344
-0.126318
-0.117048
-0.109519
-0.514647
-0.499251
-0.479008
-0.451523
-0.418877
-0.384555
-0.351126
-0.320025
-0.291843
-0.266654
-0.244271
-0.224399
-0.206731
-0.190976
-0.176876
-0.164217
-0.152802
-0.142359
-0.132671
-0.124653
-0.524386
-0.50885
-0.489632
-0.463871
-0.432971
-0.400048
-0.367568
-0.337015
-0.309079
-0.283928
-0.261447
-0.241391
-0.22348
-0.207446
-0.193041
-0.18006
-0.168314
-0.157548
-0.147534
-0.139106
-0.530493
-0.514907
-0.496752
-0.472822
-0.443882
-0.412636
-0.3814
-0.351671
-0.324224
-0.299322
-0.276925
-0.256842
-0.23883
-0.222643
-0.208049
-0.194852
-0.182873
-0.171876
-0.161624
-0.152864
-0.533214
-0.517669
-0.500584
-0.478537
-0.451714
-0.422384
-0.392662
-0.36402
-0.337301
-0.312856
-0.290723
-0.27077
-0.252796
-0.23658
-0.221911
-0.2086
-0.196484
-0.185342
-0.174938
-0.165923
-0.532838
-0.517427
-0.501395
-0.481232
-0.456624
-0.429396
-0.401424
-0.374115
-0.348353
-0.324568
-0.302875
-0.283206
-0.265404
-0.24928
-0.234644
-0.221321
-0.209158
-0.197957
-0.18748
-0.178289
-0.529695
-0.514513
-0.499496
-0.481167
-0.458808
-0.433814
-0.407786
-0.382029
-0.357439
-0.334508
-0.313427
-0.29419
-0.276691
-0.260776
-0.246277
-0.233038
-0.220917
-0.209736
-0.199264
-0.189973
-0.524142
-0.509284
-0.495232
-0.478646
-0.458509
-0.435817
-0.411878
-0.387858
-0.364633
-0.342739
-0.322433
-0.303773
-0.286704
-0.271108
-0.256848
-0.243784
-0.231788
-0.220703
-0.21031
-0.200994
-0.516552
-0.502114
-0.488969
-0.474003
-0.456003
-0.435617
-0.413857
-0.391719
-0.370026
-0.349336
-0.329959
-0.312013
-0.295493
-0.280325
-0.266398
-0.253596
-0.241806
-0.230891
-0.220646
-0.211376
-0.507303
-0.493382
-0.481086
-0.467592
-0.451598
-0.433461
-0.413909
-0.393751
-0.373724
-0.354385
-0.336078
-0.318974
-0.303118
-0.288478
-0.274976
-0.262519
-0.25101
-0.240334
-0.230303
-0.221151
-0.496771
-0.483458
-0.471958
-0.459781
-0.445623
-0.429619
-0.412245
-0.394112
-0.375849
-0.357979
-0.340867
-0.324724
-0.30964
-0.295624
-0.282633
-0.270599
-0.259443
-0.249072
-0.239318
-0.23035
-0.485316
-0.472694
-0.461947
-0.450931
-0.438415
-0.424384
-0.409099
-0.392982
-0.376535
-0.360224
-0.344412
-0.329334
-0.315121
-0.301819
-0.289421
-0.277883
-0.267149
-0.257144
-0.247726
-0.239008
-0.47327
-0.461416
-0.451386
-0.441386
-0.43031
-0.418057
-0.404723
-0.390558
-0.375931
-0.361233
-0.346799
-0.332877
-0.319623
-0.30712
-0.295389
-0.284418
-0.274169
-0.26459
-0.255562
-0.247156
-0.460937
-0.449913
-0.440577
-0.431465
-0.421631
-0.410942
-0.39938
-0.387053
-0.374202
-0.361128
-0.348123
-0.335425
-0.323208
-0.311577
-0.300586
-0.290245
-0.280542
-0.271443
-0.262857
-0.254819
-0.448582
-0.438436
-0.429778
-0.42145
-0.412675
-0.403331
-0.393336
-0.382692
-0.371525
-0.360044
-0.348483
-0.337054
-0.325932
-0.315239
-0.305051
-0.295401
-0.2863
-0.277733
-0.269634
-0.262017
-0.436431
-0.427194
-0.419206
-0.411576
-0.403701
-0.395495
-0.386851
-0.377703
-0.368088
-0.358126
-0.347985
-0.337842
-0.327854
-0.31815
-0.308819
-0.299915
-0.291467
-0.28348
-0.275911
-0.26876
-0.424668
-0.416353
-0.409028
-0.402034
-0.394928
-0.387671
-0.380167
-0.372314
-0.364086
-0.35553
-0.346748
-0.33787
-0.329031
-0.320349
-0.311919
-0.303808
-0.296059
-0.288695
-0.281695
-0.275045
-0.413436
-0.406039
-0.399372
-0.392968
-0.386526
-0.380061
-0.3735
-0.366739
-0.359714
-0.352418
-0.344897
-0.337232
-0.329524
-0.321875
-0.314374
-0.307093
-0.300085
-0.293384
-0.286986
-0.280866
-0.402839
-0.39634
-0.390321
-0.384475
-0.378619
-0.372817
-0.367031
-0.361171
-0.35516
-0.348958
-0.342568
-0.336028
-0.329403
-0.32277
-0.316207
-0.309781
-0.303546
-0.297543
-0.291781
-0.286213
-0.392949
-0.387311
-0.381927
-0.376614
-0.371289
-0.366051
-0.3609
-0.355772
-0.350595
-0.345314
-0.339904
-0.33437
-0.328747
-0.323085
-0.317443
-0.311879
-0.30644
-0.301167
-0.296079
-0.291083
-0.383806
-0.378981
-0.37421
-0.369411
-0.364575
-0.35983
-0.355207
-0.350671
-0.346165
-0.341636
-0.337046
-0.33238
-0.327649
-0.32288
-0.318115
-0.313398
-0.308767
-0.304254
-0.299881
-0.295494
-0.375425
-0.371355
-0.36717
-0.362865
-0.358488
-0.354184
-0.35001
-0.345957
-0.341988
-0.338059
-0.334131
-0.330183
-0.32621
-0.322227
-0.318264
-0.314354
-0.310524
-0.306796
-0.303198
-0.299495
-0.3678
-0.364421
-0.360788
-0.356956
-0.353014
-0.349116
-0.345335
-0.341684
-0.338145
-0.334687
-0.331278
-0.327897
-0.324537
-0.321211
-0.317942
-0.314764
-0.311706
-0.308781
-0.306024
-0.303149
-0.360911
-0.358153
-0.355034
-0.35165
-0.348122
-0.344604
-0.341178
-0.337872
-0.334685
-0.331597
-0.328586
-0.325634
-0.32274
-0.319919
-0.317206
-0.314648
-0.312291
-0.310164
-0.308318
-0.306525
-0.354724
-0.352516
-0.349868
-0.346907
-0.343772
-0.340612
-0.337515
-0.334518
-0.331628
-0.328836
-0.326126
-0.323484
-0.320916
-0.318444
-0.316121
-0.314021
-0.312234
-0.310842
-0.309938
-0.309569
-0.349197
-0.347469
-0.345248
-0.34268
-0.339915
-0.337095
-0.334308
-0.331594
-0.328967
-0.326421
-0.323942
-0.321518
-0.319153
-0.316876
-0.314754
-0.312898
-0.311462
-0.31063
-0.31061
-0.312117
-0.344279
-0.342965
-0.341126
-0.33892
-0.336501
-0.334003
-0.331508
-0.329061
-0.326674
-0.324343
-0.32205
-0.319778
-0.317521
-0.315302
-0.313186
-0.311307
-0.309885
-0.309232
-0.309798
-0.313484
-0.33992
-0.338958
-0.337457
-0.335579
-0.33348
-0.331282
-0.329064
-0.326867
-0.324706
-0.322571
-0.320439
-0.318281
-0.316071
-0.313806
-0.311523
-0.309333
-0.307472
-0.30633
-0.306773
-0.312715
-0.336065
-0.3354
-0.334194
-0.332611
-0.330803
-0.328881
-0.326919
-0.324958
-0.323007
-0.321056
-0.319072
-0.317011
-0.314822
-0.312458
-0.309889
-0.307142
-0.304339
-0.301715
-0.300298
-0.306336
-0.332663
-0.332246
-0.331295
-0.329972
-0.328423
-0.326752
-0.325024
-0.323277
-0.321521
-0.31974
-0.317896
-0.31593
-0.313764
-0.311295
-0.308393
-0.304899
-0.300597
-0.29494
-0.28646
-0.276449
-0.329667
-0.329454
-0.32872
-0.327623
-0.326304
-0.324854
-0.323334
-0.321779
-0.320197
-0.318572
-0.316864
-0.31501
-0.312919
-0.310472
-0.30751
-0.303838
-0.299232
-0.293235
-0.284746
-0.275733
-0.327033
-0.326986
-0.326435
-0.325533
-0.324412
-0.323155
-0.321816
-0.320428
-0.318999
-0.317514
-0.315935
-0.314205
-0.31224
-0.309934
-0.307153
-0.303752
-0.299596
-0.294388
-0.287453
-0.281136
-0.324722
-0.324809
-0.324411
-0.323674
-0.322724
-0.321633
-0.32045
-0.319205
-0.317907
-0.316543
-0.315082
-0.313473
-0.311648
-0.309523
-0.306996
-0.303974
-0.300386
-0.296017
-0.290473
-0.286209
-0.322703
-0.322894
-0.322622
-0.322025
-0.321221
-0.320272
-0.319224
-0.318104
-0.31692
-0.315663
-0.314308
-0.312816
-0.311135
-0.309204
-0.306955
-0.304343
-0.301347
-0.297833
-0.29361
-0.29096
-0.320944
-0.321214
-0.321045
-0.320567
-0.319889
-0.319066
-0.318136
-0.317127
-0.316047
-0.314891
-0.313641
-0.312269
-0.310741
-0.309017
-0.307064
-0.304875
-0.302472
-0.299784
-0.296748
-0.295331
-0.319417
-0.319746
-0.319661
-0.319285
-0.318717
-0.318005
-0.317185
-0.316281
-0.315303
-0.314249
-0.31311
-0.311869
-0.310507
-0.309005
-0.307356
-0.305582
-0.303732
-0.301777
-0.29971
-0.299177
-0.318098
-0.318467
-0.318451
-0.318163
-0.317694
-0.317085
-0.316368
-0.315567
-0.314693
-0.31375
-0.312733
-0.311636
-0.310453
-0.309183
-0.307837
-0.306453
-0.305094
-0.303748
-0.302424
-0.302491
-0.316959
-0.317356
-0.317397
-0.317187
-0.316808
-0.316296
-0.31568
-0.314983
-0.314218
-0.313393
-0.312508
-0.311567
-0.310572
-0.309535
-0.308477
-0.307445
-0.306502
-0.305641
-0.304862
-0.305319
-0.315976
-0.316391
-0.316481
-0.31634
-0.316045
-0.315626
-0.31511
-0.314518
-0.313867
-0.313164
-0.312419
-0.311638
-0.310832
-0.310018
-0.309223
-0.308495
-0.307892
-0.307402
-0.307011
-0.307712
-0.315125
-0.315554
-0.315687
-0.31561
-0.315392
-0.315062
-0.314643
-0.314157
-0.31362
-0.313042
-0.312436
-0.311812
-0.311185
-0.310575
-0.310011
-0.309536
-0.309201
-0.308987
-0.308866
-0.309715
-0.314384
-0.314826
-0.314998
-0.31498
-0.314836