/*--------------------------------*- C++ -*----------------------------------*\
  =========                 |
  \\      /  F ield         | OpenFOAM: The Open Source CFD Toolbox
   \\    /   O peration     | Website:  https://openfoam.org
    \\  /    A nd           | Version:  6.0
     \\/     M anipulation  |
\*---------------------------------------------------------------------------*/
FoamFile
{
    version     2.0;
    format      ascii;
    class       surfaceScalarField;
    location    "63";
    object      phi;
}
// * * * * * * * * * * * * * * * * * * * * * * * * * * * * * * * * * * * * * //

dimensions      [0 3 -1 0 0 0 0];

internalField   nonuniform List<scalar> 
15760
(
-2.59254e-06
-1.03109e-05
1.29034e-05
-9.15134e-06
-2.88952e-05
3.5454e-05
-1.86279e-05
-4.55056e-05
5.49822e-05
-3.01243e-05
-6.01191e-05
7.16155e-05
-4.28918e-05
-7.28685e-05
8.5636e-05
-5.63199e-05
-8.40256e-05
9.74536e-05
-6.99236e-05
-9.39253e-05
0.000107529
-8.33318e-05
-0.000102911
0.00011632
-9.6277e-05
-0.000111302
0.000124247
-0.000108587
-0.00011937
0.000131679
-0.000120175
-0.000127334
0.000138922
-0.000131038
-0.00013536
0.000146223
-0.000141241
-0.000143569
0.000153772
-0.000150917
-0.000152037
0.000161713
-0.000160255
-0.000160812
0.000170149
-0.000169487
-0.000169912
0.000179145
-0.000178884
-0.000179336
0.000188733
-0.000188738
-0.00018906
0.000198914
-0.000199355
-0.000199047
0.000209664
-0.000209262
0.000220957
-0.00021105
-2.88968e-06
-7.42122e-06
-1.01397e-05
-2.16451e-05
-2.05769e-05
-3.50684e-05
-3.32211e-05
-4.7475e-05
-4.72685e-05
-5.88211e-05
-6.2072e-05
-6.9222e-05
-7.71221e-05
-7.88752e-05
-9.20308e-05
-8.80028e-05
-0.000106519
-9.68141e-05
-0.000120405
-0.000105484
-0.000133596
-0.000114142
-0.000146084
-0.000122873
-0.000157931
-0.000131721
-0.000169269
-0.000140699
-0.000180285
-0.000149796
-0.000191213
-0.000158985
-0.000202322
-0.000168228
-0.000213901
-0.000177481
-0.00022625
-0.000186697
-0.00019584
-0.000239672
-3.19223e-06
-4.22899e-06
-1.11374e-05
-1.36999e-05
-2.25313e-05
-2.36745e-05
-3.63085e-05
-3.36979e-05
-5.16078e-05
-4.35217e-05
-6.77429e-05
-5.3087e-05
-8.41757e-05
-6.24424e-05
-0.000100496
-7.16822e-05
-0.000116406
-8.09041e-05
-0.000131707
-9.01831e-05
-0.00014629
-9.95586e-05
-0.000160131
-0.000109032
-0.000173281
-0.000118571
-0.000185861
-0.00012812
-0.000198051
-0.000137605
-0.000210085
-0.000146951
-0.000222232
-0.00015608
-0.000234787
-0.000164926
-0.000248052
-0.000173432
-0.00018156
-0.000262331
-3.48757e-06
-7.41427e-07
-1.2103e-05
-5.08448e-06
-2.44117e-05
-1.13658e-05
-3.9264e-05
-1.88456e-05
-5.57423e-05
-2.70434e-05
-7.31205e-05
-3.57088e-05
-9.08305e-05
-4.47324e-05
-0.000108436
-5.40764e-05
-0.000125615
-6.37256e-05
-0.000142142
-7.36557e-05
-0.000157885
-8.3816e-05
-0.000172792
-9.41246e-05
-0.000186892
-0.000104471
-0.000200286
-0.000114726
-0.000213142
-0.000124749
-0.000225686
-0.000134407
-0.00023819
-0.000143576
-0.000250958
-0.000152159
-0.000264309
-0.000160082
-0.000167307
-0.000278562
-3.76153e-06
3.0201e-06
-1.29907e-05
4.14473e-06
-2.61299e-05
1.77329e-06
-4.19512e-05
-3.02425e-06
-5.9485e-05
-9.50961e-06
-7.7968e-05
-1.72258e-05
-9.68022e-05
-2.58981e-05
-0.000115524
-3.53545e-05
-0.000133782
-4.5468e-05
-0.00015132
-5.61177e-05
-0.00016797
-6.7166e-05
-0.000183645
-7.84492e-05
-0.000198338
-8.97779e-05
-0.000212119
-0.000100945
-0.000225132
-0.000111736
-0.000237591
-0.000121948
-0.000249767
-0.0001314
-0.000261978
-0.000139947
-0.00027457
-0.00014749
-0.00015398
-0.000287898
-3.99869e-06
7.01879e-06
-1.37505e-05
1.38966e-05
-2.75894e-05
1.56121e-05
-4.42203e-05
1.36067e-05
-6.26292e-05
8.89924e-06
-8.20207e-05
2.16567e-06
-0.00010177
-6.14862e-06
-0.000121387
-1.57376e-05
-0.000140489
-2.63662e-05
-0.000158784
-3.78226e-05
-0.000176062
-4.9888e-05
-0.00019219
-6.23214e-05
-0.000207112
-7.48561e-05
-0.000220852
-8.72047e-05
-0.000233517
-9.90715e-05
-0.000245295
-0.000110169
-0.000256455
-0.00012024
-0.000267328
-0.000129074
-0.000278296
-0.000136521
-0.000142506
-0.00028977
-4.18272e-06
1.12015e-05
-1.43296e-05
2.40434e-05
-2.86877e-05
2.99703e-05
-4.59103e-05
3.08292e-05
-6.49492e-05
2.79382e-05
-8.49852e-05
2.22016e-05
-0.000105372
1.42384e-05
-0.000125596
4.48639e-06
-0.000145245
-6.71732e-06
-0.000163989
-1.90783e-05
-0.000181572
-3.23057e-05
-0.000197803
-4.60899e-05
-0.000212567
-6.00921e-05
-0.000225826
-7.39456e-05
-0.000237632
-8.7266e-05
-0.000248132
-9.96692e-05
-0.000257575
-0.000110797
-0.000266306
-0.000120344
-0.00027475
-0.000128077
-0.00013386
-0.000283396
-4.29725e-06
1.54988e-05
-1.46746e-05
3.44207e-05
-2.93202e-05
4.46159e-05
-4.68535e-05
4.83626e-05
-6.62057e-05
4.72904e-05
-8.65426e-05
4.25386e-05
-0.000107205
3.49005e-05
-0.00012766
2.49418e-05
-0.000147472
1.30943e-05
-0.000166274
-2.75643e-07
-0.000183762
-1.48179e-05
-0.000199686
-3.01666e-05
-0.000213856
-4.59217e-05
-0.000226158
-6.16434e-05
-0.000236568
-7.68567e-05
-0.000245168
-9.10683e-05
-0.000252171
-0.000103795
-0.000257916
-0.000114599
-0.00026288
-0.000123113
-0.000129089
-0.000267651
-4.32705e-06
1.98258e-05
-1.47352e-05
4.48289e-05
-2.93857e-05
5.92663e-05
-4.68842e-05
6.58611e-05
-6.61548e-05
6.65609e-05
-8.63587e-05
6.27426e-05
-0.000106831
5.53729e-05
-0.000127031
4.51414e-05
-0.000146503
3.25661e-05
-0.000164852
1.80738e-05
-0.000181729
2.05914e-06
-0.000196823
-1.50723e-05
-0.000209869
-3.28761e-05
-0.000220659
-5.08528e-05
-0.000229073
-6.84433e-05
-0.000235102
-8.50388e-05
-0.000238889
-0.000100008
-0.000240749
-0.000112738
-0.000241198
-0.000122664
-0.000129342
-0.000240946
-4.25954e-06
2.40853e-05
-1.44687e-05
5.5038e-05
-2.87951e-05
7.35927e-05
-4.58506e-05
8.29166e-05
-6.45643e-05
8.52746e-05
-8.41023e-05
8.22806e-05
-0.000103802
7.5073e-05
-0.000123122
6.44612e-05
-0.000141598
5.10423e-05
-0.000158817
3.52927e-05
-0.000174395
1.7637e-05
-0.000187969
-1.4988e-06
-0.000199197
-2.16476e-05
-0.000207778
-4.2272e-05
-0.000213475
-6.27461e-05
-0.000216162
-8.23517e-05
-0.000215875
-0.000100296
-0.000212865
-0.000115747
-0.000207664
-0.000127866
-0.000135891
-0.000201115
-4.08668e-06
2.8172e-05
-1.38451e-05
6.47965e-05
-2.74813e-05
8.72289e-05
-4.36299e-05
9.90652e-05
-6.12346e-05
0.000102879
-7.94723e-05
0.000100518
-9.76892e-05
9.32899e-05
-0.000115348
8.21204e-05
-0.000131988
6.7682e-05
-0.000147188
5.04929e-05
-0.000160547
3.09954e-05
-0.000171664
9.61835e-06
-0.000180139
-1.3172e-05
-0.000185583
-3.68288e-05
-0.00018764
-6.06889e-05
-0.000186044
-8.39477e-05
-0.000180686
-0.000105654
-0.000171703
-0.000124729
-0.000159596
-0.000139973
-0.000150148
-0.00014534
-3.80672e-06
3.19787e-05
-1.28532e-05
7.38429e-05
-2.54097e-05
9.97855e-05
-4.01453e-05
0.000113801
-5.6023e-05
0.000118757
-7.22317e-05
0.000116727
-8.81266e-05
0.000109185
-0.000103179
9.7173e-05
-0.000116936
8.14383e-05
-0.000128981
6.25384e-05
-0.000138913
4.09278e-05
-0.000146321
1.70263e-05
-0.000150773
-8.72052e-06
-0.000151816
-3.57861e-05
-0.000148996
-6.35081e-05
-0.000141908
-9.10364e-05
-0.000130269
-0.000117293
-0.000114049
-0.000140949
-9.36466e-05
-0.000160375
-0.000173663
-7.01316e-05
-3.4256e-06
3.54043e-05
-1.15038e-05
8.19211e-05
-2.25863e-05
0.000110868
-3.53806e-05
0.000126595
-4.88671e-05
0.000132244
-6.22417e-05
0.000130102
-7.4863e-05
0.000121806
-8.62067e-05
0.000108517
-9.58265e-05
9.10581e-05
-0.00010332
7.00324e-05
-0.000108302
4.59094e-05
-0.000110375
1.90995e-05
-0.000109115
-9.98127e-06
-0.000104053
-4.08477e-05
-9.46853e-05
-7.28758e-05
-8.04989e-05
-0.000105223
-6.10485e-05
-0.000136743
-3.60959e-05
-0.000165902
-5.85404e-06
-0.000190617
-0.000208109
2.85926e-05
-2.95746e-06
3.83618e-05
-9.83266e-06
8.87963e-05
-1.90626e-05
0.000120098
-2.93888e-05
0.000136921
-3.98004e-05
0.000142655
-4.94883e-05
0.00013979
-5.78016e-05
0.000130119
-6.42078e-05
0.000114923
-6.82592e-05
9.51095e-05
-6.95637e-05
7.13369e-05
-6.77582e-05
4.4104e-05
-6.24841e-05
1.38255e-05
-5.3363e-05
-1.91024e-05
-3.99738e-05
-5.42369e-05
-2.18365e-05
-9.10131e-05
1.58501e-06
-0.000128644
3.0836e-05
-0.000165994
6.63478e-05
-0.000201414
0.000108162
-0.000232431
-0.00025526
0.000155312
-2.42378e-06
4.07856e-05
-7.89724e-06
9.42698e-05
-1.49318e-05
0.000127132
-2.22896e-05
0.000144279
-2.89526e-05
0.000149318
-3.40893e-05
0.000144926
-3.7019e-05
0.000133049
-3.71807e-05
0.000115085
-3.41062e-05
9.2035e-05
-2.73987e-05
6.46293e-05
-1.6713e-05
3.34182e-05
-1.73689e-06
-1.15063e-06
1.78301e-05
-3.86694e-05
4.23029e-05
-7.87096e-05
7.20417e-05
-0.000120752
0.00010748
-0.000164083
0.000149126
-0.00020764
0.000197494
-0.000249782
0.000252877
-0.000287814
-0.000316963
0.00031458
-1.85103e-06
4.26366e-05
-5.77045e-06
9.81892e-05
-1.03174e-05
0.000131679
-1.42525e-05
0.000148214
-1.65294e-05
0.000151595
-1.62713e-05
0.000144668
-1.27433e-05
0.000129521
-5.32942e-06
0.000107671
6.48582e-06
8.02198e-05
2.31297e-05
4.79855e-05
4.49497e-05
1.15982e-05
7.22208e-05
-2.84218e-05
0.000105156
-7.16042e-05
0.000143921
-0.000117475
0.000188672
-0.000165502
0.000239592
-0.000215003
0.000296947
-0.000264995
0.000361103
-0.000313938
0.00043244
-0.00035915
-0.000395114
0.00051059
-1.26676e-06
4.39033e-05
-3.52897e-06
0.000100451
-5.35186e-06
0.000133502
-5.46496e-06
0.000148327
-2.76801e-06
0.000148898
3.68648e-06
0.000138214
1.4714e-05
0.000118494
3.10143e-05
9.13704e-05
5.31809e-05
5.80531e-05
8.17027e-05
1.94637e-05
0.00011696
-2.3659e-05
0.000159216
-7.06781e-05
0.00020861
-0.000120998
0.000265154
-0.000174019
0.000328741
-0.00022909
0.00039919
-0.000285451
0.000476303
-0.000342108
0.000559948
-0.000397583
0.000650147
-0.000449349
-0.000491671
0.000746705
-6.94765e-07
4.45981e-05
-1.23863e-06
0.000100995
-1.49073e-07
0.000132413
3.91097e-06
0.000144267
1.21241e-05
0.000140685
2.55345e-05
0.000124803
4.50642e-05
9.8964e-05
7.15234e-05
6.49111e-05
0.000105611
2.39651e-05
0.000147908
-2.28329e-05
0.000198857
-7.46083e-05
0.000258744
-0.000130565
0.000327665
-0.000189919
0.000405498
-0.000251852
0.000491879
-0.000315471
0.000586196
-0.000379769
0.000687627
-0.00044354
0.000795209
-0.000505166
0.00090794
-0.00056208
-0.000609174
0.00102544
-1.4994e-07
4.4748e-05
1.06091e-06
9.97844e-05
5.22491e-06
0.000128249
1.37851e-05
0.000135707
2.80363e-05
0.000126434
4.91442e-05
0.000103695
7.81595e-05
6.99487e-05
0.000116022
2.70486e-05
0.000163554
-2.35668e-05
0.000221443
-8.0722e-05
0.000290217
-0.000143382
0.00037021
-0.000210558
0.000461522
-0.000281231
0.000563967
-0.000354297
0.000677007
-0.000428511
0.000799676
-0.000502437
0.000930495
-0.000574358
0.00106739
-0.00064206
0.00120766
-0.000702347
-0.000751616
0.0013501
3.65856e-07
4.43822e-05
3.36885e-06
9.67814e-05
1.07762e-05
0.000120841
2.41778e-05
0.000122305
4.50101e-05
0.000105602
7.45814e-05
7.41241e-05
0.000114083
3.04466e-05
0.000164589
-2.34571e-05
0.000227037
-8.60148e-05
0.000302207
-0.000155892
0.000390694
-0.000231869
0.000492877
-0.000312741
0.000608898
-0.000397251
0.000738634
-0.000484034
0.000881677
-0.000571554
0.00103727
-0.000658032
0.00120417
-0.000741252
0.00137997
-0.000817868
0.00155864
-0.000881011
-0.000914076
0.0017211
8.65399e-07
4.35168e-05
5.72917e-06
9.19177e-05
1.65953e-05
0.000109975
3.52393e-05
0.000103661
6.32652e-05
7.75758e-05
0.000102136
3.52534e-05
0.00015318
-2.05976e-05
0.000217578
-8.78551e-05
0.000296333
-0.00016477
0.000390238
-0.000249797
0.000499845
-0.000341476
0.000625451
-0.000438346
0.000767105
-0.000538905
0.000924667
-0.000641596
0.00109793
-0.000744818
0.00128687
-0.000846968
0.00149208
-0.000946466
0.0017159
-0.00104168
0.00196584
-0.00113095
-0.00120806
0.00225982
1.37837e-06
4.21384e-05
8.23359e-06
8.50624e-05
2.28583e-05
9.53504e-05
4.72471e-05
7.92726e-05
8.31884e-05
4.16345e-05
0.000132297
-1.3855e-05
0.000196007
-8.43075e-05
0.000275539
-0.000167387
0.000371851
-0.000261082
0.000485587
-0.000363534
0.00061704
-0.000472929
0.000766134
-0.00058744
0.000932446
-0.000705218
0.00111527
-0.000824422
0.00131374
-0.000943287
0.00152699
-0.00106022
0.00175443
-0.0011739
0.00199619
-0.00128344
0.00225361
-0.00138837
-0.00148115
0.0025267
1.94445e-06
4.0194e-05
1.10057e-05
7.60012e-05
2.9801e-05
7.65552e-05
6.05649e-05
4.85087e-05
0.000105272
-3.07256e-06
0.00016566
-7.4243e-05
0.000243201
-0.000161848
0.000339038
-0.000263225
0.000453914
-0.000375957
0.000588096
-0.000497716
0.000741342
-0.000626175
0.000912887
-0.000758985
0.00110149
-0.000893816
0.00130549
-0.00102842
0.00152296
-0.00116076
0.0017518
-0.00128905
0.00198986
-0.00141196
0.00223502
-0.00152861
0.00248511
-0.00163847
-0.00173453
0.00273849
2.61062e-06
3.75833e-05
1.41886e-05
6.44232e-05
3.76888e-05
5.3055e-05
7.5588e-05
1.06095e-05
0.000130022
-5.75069e-05
0.000202788
-0.000147009
0.000295277
-0.000254337
0.000408381
-0.000376329
0.000542392
-0.000509968
0.000696933
-0.000652257
0.000870929
-0.000800171
0.00106264
-0.000950698
0.00126976
-0.00110093
0.00148952
-0.00124819
0.00171889
-0.00139013
0.00195469
-0.00152485
0.00219371
-0.00165098
0.00243277
-0.00176767
0.00266882
-0.00187452
-0.00196638
0.00290067
3.42392e-06
3.41594e-05
1.79226e-05
4.99246e-05
4.67739e-05
2.42036e-05
9.26706e-05
-3.52872e-05
0.000157849
-0.000122685
0.00024405
-0.000233209
0.000352408
-0.000362696
0.000483328
-0.000507248
0.000636372
-0.000663013
0.000810223
-0.000826108
0.00100271
-0.000992656
0.00121092
-0.00115891
0.00143139
-0.0013214
0.00166031
-0.00147711
0.00189376
-0.00162358
0.00212791
-0.001759
0.00235916
-0.00188224
0.00258424
-0.00199275
0.0028003
-0.00209057
-0.00217261
0.00300653
4.42526e-06
2.97342e-05
2.23258e-05
3.20241e-05
5.72549e-05
-1.07255e-05
0.000112058
-9.009e-05
0.000188962
-0.00019959
0.000289479
-0.000333727
0.00041425
-0.000487467
0.000562901
-0.000655899
0.000733967
-0.000834079
0.000924919
-0.00101706
0.00113231
-0.00120004
0.001352
-0.0013786
0.00157948
-0.00154888
0.00181017
-0.0017078
0.0020397
-0.00185311
0.00226416
-0.00198346
0.00248022
-0.00209829
0.00268521
-0.00219774
0.00287717
-0.00228253
-0.00235145
0.00305601
5.64477e-06
2.40894e-05
2.74783e-05
1.01906e-05
6.92446e-05
-5.24919e-05
0.000133833
-0.000154679
0.000223297
-0.000289053
0.000338683
-0.000449113
0.000479846
-0.00062863
0.000645321
-0.000821374
0.000832334
-0.00102109
0.00103696
-0.00122169
0.00125445
-0.00141753
0.00147957
-0.00160372
0.00170708
-0.00177639
0.00193209
-0.00193281
0.00215033
-0.00207136
0.00235838
-0.00219152
0.00255373
-0.00229364
0.00273476
-0.00237877
0.00290069
-0.00244846
-0.00250299
0.00305222
7.09943e-06
1.699e-05
3.34136e-05
-1.61236e-05
8.27526e-05
-0.000101831
0.000157891
-0.000229817
0.00026048
-0.000391643
0.000390814
-0.000579447
0.000547634
-0.00078545
0.000728087
-0.00100183
0.000927892
-0.0012209
0.0011417
-0.00143549
0.00136358
-0.00163941
0.0015876
-0.00182774
0.00180826
-0.00199705
0.00202089
-0.00214544
0.00222191
-0.00227237
0.00240885
-0.00237846
0.00258036
-0.00246515
0.00273605
-0.00253446
0.00287631
-0.00258872
-0.00262933
0.00300266
8.79281e-06
8.19715e-06
4.0116e-05
-4.74468e-05
9.76791e-05
-0.000159394
0.000183928
-0.000316065
0.000299832
-0.000507547
0.000444599
-0.000724215
0.000615538
-0.000956389
0.000808181
-0.00119447
0.00101668
-0.00142939
0.00123441
-0.00165323
0.00145466
-0.00185966
0.00167124
-0.00204432
0.00187899
-0.0022048
0.00207403
-0.00234048
0.00225387
-0.00245221
0.00241728
-0.00254187
0.00256417
-0.00261204
0.00269529
-0.00266558
0.002812
-0.00270542
-0.00273371
0.00291637
1.07164e-05
-2.51923e-06
4.75237e-05
-8.42541e-05
0.000113821
-0.000225691
0.000211459
-0.000413704
0.000340399
-0.000636487
0.000498421
-0.000882237
0.000681135
-0.0011391
0.000882357
-0.00139569
0.0010948
-0.00164184
0.00131092
-0.00186935
0.00152373
-0.00207247
0.0017274
-0.00224799
0.00191763
-0.00239503
0.00209173
-0.00251459
0.00224854
-0.00260901
0.00238813
-0.00268147
0.00251153
-0.00273544
0.00262037
-0.00277442
0.00271662
-0.00280167
-0.00281974
0.00280264
1.28512e-05
-1.53705e-05
5.55334e-05
-0.000126936
0.000130882
-0.00030104
0.000239842
-0.000522663
0.000381012
-0.000777657
0.000550437
-0.00105166
0.000741865
-0.00133053
0.00094747
-0.0016013
0.00115885
-0.00185322
0.00136807
-0.00207857
0.00156844
-0.00227284
0.00175504
-0.00243459
0.00192484
-0.00256482
0.00207656
-0.00266631
0.00221037
-0.00274282
0.00232746
-0.00279856
0.00242971
-0.00283769
0.0025193
-0.002864
0.00259846
-0.00288083
-0.00289084
0.00266956
1.51695e-05
-3.05399e-05
6.40054e-05
-0.000175772
0.000148487
-0.000385521
0.000268306
-0.000642483
0.000420358
-0.000929708
0.000598716
-0.00123002
0.000795261
-0.00152707
0.00100079
-0.00180682
0.00120627
-0.00205871
0.00140397
-0.00227627
0.00158809
-0.00245695
0.00175501
-0.00260151
0.00190317
-0.00271299
0.00203269
-0.00279583
0.00214488
-0.00285502
0.0022418
-0.00289548
0.00232579
-0.00292168
0.00239927
-0.00293748
0.00246448
-0.00294604
-0.00294993
0.00252357
1.76352e-05
-4.81751e-05
7.27683e-05
-0.000230905
0.000166195
-0.000478948
0.000295999
-0.000772287
0.000457067
-0.00109078
0.000641396
-0.00141435
0.000839165
-0.00172484
0.00104023
-0.00200789
0.00123555
-0.00225403
0.00141815
-0.00245886
0.00158354
-0.00262235
0.00172965
-0.00274761
0.00185638
-0.00283971
0.00196504
-0.00290449
0.00205782
-0.0029478
0.00213726
-0.00297491
0.00220592
-0.00299034
0.00226616
-0.00299773
0.00232006
-0.00299994
-0.0029993
0.00236943
2.02046e-05
-6.83798e-05
8.16235e-05
-0.000292324
0.00018352
-0.000580844
0.000322024
-0.00091079
0.000489803
-0.00125856
0.00067682
-0.00160137
0.000871908
-0.00191993
0.00106455
-0.00220053
0.00124627
-0.00243574
0.00141134
-0.00262393
0.00155685
-0.00276786
0.00168226
-0.00287302
0.00178876
-0.00294621
0.00187859
-0.00299433
0.00195446
-0.00302366
0.0020191
-0.00303956
0.00207505
-0.00304629
0.00212445
-0.00304713
0.00216909
-0.00304457
-0.00304065
0.00221044
2.28266e-05
-9.12063e-05
9.03501e-05
-0.000359848
0.000199947
-0.000690441
0.000345496
-0.00105634
0.000517353
-0.00143041
0.000703668
-0.00178768
0.000892419
-0.00210868
0.00107332
-0.00238143
0.00123897
-0.0026014
0.00138523
-0.00277019
0.00151079
-0.00289342
0.00161651
-0.00297875
0.0017046
-0.0030343
0.00177788
-0.00306761
0.0018393
-0.00308508
0.00189155
-0.00309181
0.00193696
-0.00309169
0.00197738
-0.00308755
0.00201428
-0.00308148
-0.00307518
0.00204881
2.54432e-05
-0.00011665
9.87124e-05
-0.000433117
0.00021496
-0.000806688
0.000365594
-0.00120697
0.000538716
-0.00160353
0.000721037
-0.00197
0.000900259
-0.00228791
0.00106688
-0.00254805
0.001215
-0.00274952
0.00134213
-0.00289732
0.0014485
-0.00299979
0.0015361
-0.00306635
0.00160783
-0.00310603
0.00166681
-0.00312659
0.00171597
-0.00313424
0.00175783
-0.00313367
0.00179439
-0.00312825
0.0018272
-0.00312037
0.00185744
-0.00311172
-0.00310369
0.00188595
2.79912e-05
-0.000144641
0.000106469
-0.000511595
0.000228065
-0.000928284
0.000381609
-0.00136052
0.000553154
-0.00177508
0.000728474
-0.00214532
0.000895581
-0.00245501
0.00104623
-0.0026987
0.0011762
-0.00287948
0.00128464
-0.00300577
0.0013731
-0.00308824
0.00144439
-0.00313764
0.0015018
-0.00316344
0.00154851
-0.0031733
0.00158726
-0.003173
0.00162029
-0.00316669
0.00164926
-0.00315723
0.00167545
-0.00314656
0.00169974
-0.00313601
-0.0031267
0.00172276
3.0404e-05
-0.000175045
0.000113385
-0.000594576
0.000238822
-0.00105372
0.000392987
-0.00151468
0.000560236
-0.00194233
0.000725967
-0.00231105
0.000879035
-0.00260808
0.00101277
-0.00283244
0.00112468
-0.00299139
0.0012154
-0.00309649
0.00128749
-0.00316032
0.0013443
-0.00319445
0.00138927
-0.00320841
0.00142542
-0.00320946
0.00145524
-0.00320282
0.00148061
-0.00319206
0.00150291
-0.00317953
0.00152313
-0.00316678
0.00154195
-0.00315482
-0.00314456
0.0015598
3.26146e-05
-0.000207659
0.00011924
-0.000681201
0.000246864
-0.00118134
0.000399354
-0.00166717
0.000559832
-0.00210281
0.000713884
-0.0024651
0.000851638
-0.00274584
0.000968161
-0.00294896
0.00106261
-0.00308584
0.00113687
-0.00317075
0.00119422
-0.00321767
0.00123828
-0.00323851
0.00127241
-0.00324254
0.00129941
-0.00323645
0.00132141
-0.00322482
0.00133998
-0.00321063
0.00135623
-0.00319578
0.00137091
-0.00318146
0.00138454
-0.00316845
-0.00315744
0.00139742
3.45582e-05
-0.000242218
0.000123842
-0.000770484
0.000251916
-0.00130942
0.000400528
-0.00181579
0.000552091
-0.00225437
0.000692895
-0.00260591
0.000814643
-0.00286758
0.000914165
-0.00304848
0.000992095
-0.00316377
0.00105128
-0.00322994
0.00109544
-0.00326183
0.00112826
-0.00327133
0.0011529
-0.00326718
0.00117182
-0.00325538
0.00118684
-0.00323984
0.00119922
-0.00322301
0.00120983
-0.00320638
0.00121924
-0.00319088
0.00122785
-0.00317706
-0.00316545
0.00123586
3.61793e-05
-0.000278397
0.000127044
-0.000861349
0.000253821
-0.0014362
0.000396526
-0.00195849
0.000537409
-0.00239525
0.000663898
-0.0027324
0.000769431
-0.00297312
0.000852524
-0.00313157
0.000915048
-0.0032263
0.000960541
-0.00327543
0.000992934
-0.00329422
0.0010158
-0.00329419
0.001032
-0.00328338
0.00104367
-0.00326705
0.0010523
-0.00324847
0.00105889
-0.00322961
0.00106412
-0.00321161
0.00106844
-0.00319519
0.00107211
-0.00318073
-0.00316864
0.00107531
3.74193e-05
-0.000315816
0.00012872
-0.00095265
0.000252491
-0.00155997
0.000387489
-0.00209349
0.000516318
-0.00252408
0.000627863
-0.00284394
0.000717351
-0.0030626
0.000784814
-0.00319904
0.000833109
-0.00327459
0.000866209
-0.00330853
0.000888067
-0.00331608
0.000902023
-0.00330815
0.000910615
-0.00329197
0.000915638
-0.00327207
0.000918295
-0.00325113
0.000919375
-0.00323069
0.000919395
-0.00321164
0.000918696
-0.00319449
0.000917489
-0.00317953
-0.00316703
0.00091588
3.82394e-05
-0.000354056
0.000128808
-0.00104322
0.000247969
-0.00167913
0.00037373
-0.00221925
0.000489508
-0.00263986
0.000585858
-0.00294029
0.000659741
-0.00313649
0.0007125
-0.0032518
0.000747719
-0.00330981
0.000769594
-0.00333041
0.000781954
-0.00332844
0.000787839
-0.00331403
0.000789445
-0.00329358
0.000788253
-0.00327088
0.000785222
-0.00324809
0.000780961
-0.00322643
0.000775868
-0.00320654
0.000770204
-0.00318882
0.000764131
-0.00317345
-0.00316063
0.000757723
3.86086e-05
-0.000392664
0.000127288
-0.0011319
0.000240375
-0.00179222
0.000355649
-0.00233452
0.000457721
-0.00274193
0.000538921
-0.00302149
0.000597821
-0.00319539
0.000636842
-0.00329082
0.000660065
-0.00333303
0.00067173
-0.00334207
0.00067544
-0.00333215
0.000673903
-0.00331249
0.000668984
-0.00328866
0.000661884
-0.00326378
0.000653354
-0.00323956
0.000643861
-0.00321693
0.00063371
-0.00319639
0.000623103
-0.00317822
0.000612166
-0.00316252
-0.00314942
0.000600956
3.85073e-05
-0.000431171
0.00012418
-0.00121757
0.000229898
-0.00189793
0.000333716
-0.00243834
0.000421723
-0.00282994
0.000488039
-0.00308781
0.000532681
-0.00324003
0.000558915
-0.00331705
0.000571115
-0.00334523
0.000573427
-0.00334438
0.000569168
-0.00332789
0.000560705
-0.00330403
0.000549595
-0.00327755
0.000536799
-0.00325098
0.000522894
-0.00322566
0.000508235
-0.00320227
0.000493054
-0.00318121
0.000477512
-0.00316268
0.00046171
-0.00314671
-0.0031334
0.000445694
3.79279e-05
-0.000469099
0.000119544
-0.00129919
0.000216785
-0.00199517
0.000308433
-0.00252999
0.00038226
-0.00290376
0.000434118
-0.00313967
0.000465272
-0.00327118
0.000479617
-0.0033314
0.000481647
-0.00334726
0.000475317
-0.00333805
0.000463624
-0.0033162
0.000448606
-0.00328901
0.000431544
-0.00326049
0.000413195
-0.00323263
0.000393996
-0.00320646
0.00037421
-0.00318249
0.000354015
-0.00316101
0.000333538
-0.0031422
0.000312869
-0.00312604
-0.00311258
0.000292046
3.68738e-05
-0.000505973
0.000113469
-0.00137578
0.000201315
-0.00208302
0.000280317
-0.00260899
0.000340042
-0.00296349
0.000377971
-0.0031776
0.00039641
-0.00328962
0.000399688
-0.00333467
0.00039228
-0.00333985
0.000377887
-0.00332366
0.000359173
-0.00329748
0.000337872
-0.00326771
0.000315026
-0.00323764
0.000291221
-0.00320883
0.000266778
-0.00318202
0.000241889
-0.0031576
0.000216687
-0.00313581
0.000191276
-0.00311679
0.000165736
-0.0031005
-0.00308695
0.000140109
3.53583e-05
-0.000541331
0.000106072
-0.0014465
0.000183792
-0.00216074
0.000249872
-0.00267507
0.000295725
-0.00300934
0.000320312
-0.00320218
0.000326784
-0.00329609
0.000319729
-0.00332762
0.000303503
-0.00332363
0.00028151
-0.00330167
0.00025609
-0.00327206
0.000228704
-0.00324033
0.000200188
-0.00320912
0.000170988
-0.00317963
0.000141334
-0.00315236
0.000111356
-0.00312762
8.11512e-05
-0.00310561
5.08055e-05
-0.00308644
2.03966e-05
-0.0030701
-0.00305652
-1.00287e-05
3.34039e-05
-0.000574735
9.74848e-05
-0.00151058
0.000164525
-0.00222778
0.000217584
-0.00272813
0.000249902
-0.00304166
0.000261762
-0.00321404
0.000256969
-0.0032913
0.000240229
-0.00331088
0.000215702
-0.0032991
0.000186476
-0.00327244
0.000154587
-0.00324017
0.000121251
-0.00320699
8.71385e-05
-0.00317501
5.25818e-05
-0.00314507
1.77358e-05
-0.00311752
-1.73209e-05
-0.00309256
-5.25253e-05
-0.0030704
-8.78047e-05
-0.00305116
-0.000123079
-0.00303482
-0.00302131
-0.00015829
3.10404e-05
-0.000605776
8.78538e-05
-0.00156739
0.000143824
-0.00228375
0.000183903
-0.00276821
0.000203102
-0.00306086
0.000202853
-0.00321379
0.000187446
-0.00327589
0.000161586
-0.00328502
0.000129185
-0.0032667
9.30136e-05
-0.00323627
5.48254e-05
-0.00320199
1.56318e-05
-0.0031678
-2.40361e-05
-0.00313534
-6.39323e-05
-0.00310518
-0.000103963
-0.00307749
-0.000144094
-0.00305243
-0.000184295
-0.0030302
-0.000224507
-0.00301095
-0.000264641
-0.00299469
-0.00298133
-0.000304621
2.83037e-05
-0.000634079
7.73304e-05
-0.00161642
0.000121988
-0.00232841
0.000149246
-0.00279547
0.000155793
-0.00306741
0.000144042
-0.00320204
0.000118615
-0.00325047
8.4126e-05
-0.00325053
4.42033e-05
-0.00322678
1.30843e-06
-0.00319337
-4.30576e-05
-0.00315762
-8.80572e-05
-0.0031228
-0.000133266
-0.00309013
-0.000178505
-0.00305994
-0.000223725
-0.00303227
-0.000268936
-0.00300722
-0.000314138
-0.002985
-0.000359288
-0.0029658
-0.000404282
-0.00294969
-0.00293659
-0.000449022
2.52343e-05
-0.000659314
6.60689e-05
-0.00165725
9.93022e-05
-0.00236164
0.000113991
-0.00281016
0.000108387
-0.0030618
8.57202e-05
-0.00317938
5.08134e-05
-0.00321556
8.12052e-06
-0.00320784
-3.90321e-05
-0.00317962
-8.84779e-05
-0.00314393
-0.00013894
-0.00310716
-0.000189725
-0.00307201
-0.000240489
-0.00303937
-0.000291095
-0.00300933
-0.00034153
-0.00298183
-0.000391841
-0.00295691
-0.000442064
-0.00293478
-0.000492176
-0.00291569
-0.00054206
-0.00289981
-0.00288708
-0.000591578
2.18765e-05
-0.00068119
5.42225e-05
-0.0016896
7.60347e-05
-0.00238345
7.84808e-05
-0.0028126
6.1246e-05
-0.00304457
2.82247e-05
-0.00314635
-1.56683e-05
-0.00317167
-6.61931e-05
-0.00315731
-0.000120331
-0.00312549
-0.000176192
-0.00308807
-0.000232699
-0.00305065
-0.000289274
-0.00301544
-0.000345632
-0.00298301
-0.000401659
-0.0029533
-0.000457362
-0.00292613
-0.000512816
-0.00290146
-0.000568105
-0.00287949
-0.000623236
-0.00286056
-0.000678081
-0.00284496
-0.00283272
-0.000732442
1.82769e-05
-0.000699467
4.1941e-05
-0.00171326
5.24358e-05
-0.00239395
4.30238e-05
-0.00280319
1.46888e-05
-0.00301623
-2.81498e-05
-0.00310352
-8.05758e-05
-0.00311924
-0.0001386
-0.00309929
-0.00019951
-0.00306458
-0.000261675
-0.0030259
-0.000324193
-0.00298813
-0.000386585
-0.00295305
-0.000448603
-0.00292099
-0.000510138
-0.00289177
-0.000571195
-0.00286507
-0.00063187
-0.00284078
-0.000692294
-0.00281906
-0.000752525
-0.00280033
-0.000812434
-0.00278506
-0.00277342
-0.000871725
1.44834e-05
-0.000713951
2.93685e-05
-0.00172815
2.87364e-05
-0.00239332
7.89732e-06
-0.00278235
-3.10024e-05
-0.00297733
-8.31422e-05
-0.00305138
-0.000143678
-0.00305871
-0.000208894
-0.00303407
-0.00027638
-0.00299709
-0.000344745
-0.00295754
-0.000413247
-0.00291963
-0.000481494
-0.0028848
-0.000549264
-0.00285322
-0.000616437
-0.0028246
-0.000682989
-0.00279852
-0.00074901
-0.00277476
-0.000814672
-0.0027534
-0.000880101
-0.0027349
-0.000945179
-0.00271998
-0.00270913
-0.00100947
1.05445e-05
-0.000724495
1.66426e-05
-0.00173424
5.14845e-06
-0.00238182
-2.665e-05
-0.00275055
-7.55767e-05
-0.00292841
-0.000136518
-0.00299043
-0.000204759
-0.00299046
-0.000276872
-0.00296196
-0.000350737
-0.00292323
-0.000425187
-0.00288309
-0.000499634
-0.00284518
-0.000573768
-0.00281067
-0.000647397
-0.00277959
-0.000720383
-0.00275161
-0.000792649
-0.00272625
-0.000864239
-0.00270317
-0.000935334
-0.00268231
-0.00100614
-0.0026641
-0.00107656
-0.00264955
-0.00263963
-0.00114606
6.50821e-06
-0.000731003
3.89201e-06
-0.00173163
-1.81356e-05
-0.00235979
-6.03971e-05
-0.00270829
-0.000118812
-0.00286999
-0.000188066
-0.00292118
-0.000263616
-0.00291492
-0.000342327
-0.00288325
-0.000422356
-0.0028432
-0.00050275
-0.00280269
-0.000583063
-0.00276487
-0.000663083
-0.00273065
-0.000742664
-0.00270001
-0.000821663
-0.00267261
-0.00089995
-0.00264797
-0.000977486
-0.00262564
-0.00105442
-0.00260537
-0.00113106
-0.00258746
-0.00120738
-0.00257323
-0.00256397
-0.00128304
2.4211e-06
-0.000733424
-8.76395e-06
-0.00172044
-4.09434e-05
-0.00232762
-9.31489e-05
-0.00265609
-0.000160512
-0.00280263
-0.000237595
-0.0028441
-0.000320054
-0.00283246
-0.000405049
-0.00279825
-0.000490994
-0.00275725
-0.000577138
-0.00271655
-0.000663182
-0.00267883
-0.000749022
-0.00264481
-0.000834598
-0.00261444
-0.000919808
-0.0025874
-0.0010045
-0.00256328
-0.00108855
-0.00254158
-0.00117207
-0.00252185
-0.00125545
-0.00250408
-0.00133892
-0.00248977
-0.00247977
-0.00142312
-1.67279e-06
-0.000731752
-2.12177e-05
-0.0017009
-6.31242e-05
-0.00228571
-0.000124739
-0.00259447
-0.000200509
-0.00272686
-0.000284937
-0.00275967
-0.000373896
-0.0027435
-0.000464825
-0.00270732
-0.000556383
-0.00266569
-0.000648004
-0.00262493
-0.000739534
-0.0025873
-0.000831008
-0.00255333
-0.000922505
-0.00252294
-0.00101406
-0.00249585
-0.00110562
-0.00247172
-0.00119705
-0.00245014
-0.00128837
-0.00243053
-0.00137994
-0.00241252
-0.00147232
-0.00239739
-0.00238379
-0.0015683
-5.73296e-06
-0.000726019
-3.33748e-05
-0.00167326
-8.45502e-05
-0.00223453
-0.000155029
-0.00252399
-0.000238669
-0.00264322
-0.000329957
-0.00266838
-0.000424989
-0.00264846
-0.000521465
-0.00261085
-0.000618258
-0.0025689
-0.000714957
-0.00252823
-0.000811538
-0.00249072
-0.000908171
-0.0024567
-0.00100512
-0.00242599
-0.00110269
-0.00239828
-0.00120117
-0.00237325
-0.00130074
-0.00235057
-0.00140154
-0.00232973