/*--------------------------------*- C++ -*----------------------------------*\
  =========                 |
  \\      /  F ield         | OpenFOAM: The Open Source CFD Toolbox
   \\    /   O peration     | Website:  https://openfoam.org
    \\  /    A nd           | Version:  6.0
     \\/     M anipulation  |
\*---------------------------------------------------------------------------*/
FoamFile
{
    version     2.0;
    format      ascii;
    class       volScalarField;
    location    "114";
    object      p;
}
// * * * * * * * * * * * * * * * * * * * * * * * * * * * * * * * * * * * * * //

dimensions      [0 2 -2 0 0 0 0];

internalField   nonuniform List<scalar> 
12500
(
-0.480723
-0.482453
-0.483466
-0.484187
-0.484935
-0.485811
-0.486863
-0.488094
-0.489481
-0.49098
-0.492542
-0.494116
-0.495653
-0.497109
-0.498445
-0.499629
-0.500639
-0.50146
-0.502089
-0.502527
-0.502768
-0.502832
-0.502944
-0.503279
-0.501893
-0.491746
-0.493264
-0.494214
-0.494977
-0.495849
-0.496927
-0.498252
-0.499819
-0.501593
-0.503521
-0.505542
-0.507595
-0.509621
-0.511564
-0.513374
-0.51501
-0.516438
-0.517634
-0.518586
-0.519288
-0.519723
-0.519909
-0.520084
-0.520431
-0.518832
-0.502806
-0.504063
-0.50492
-0.505708
-0.50669
-0.50796
-0.50955
-0.511445
-0.513598
-0.515947
-0.51842
-0.520943
-0.523448
-0.525865
-0.528136
-0.530205
-0.532029
-0.533572
-0.534814
-0.535738
-0.536322
-0.536578
-0.536753
-0.537041
-0.535218
-0.51381
-0.514755
-0.515491
-0.516282
-0.517356
-0.5188
-0.520638
-0.522844
-0.525362
-0.528116
-0.531024
-0.534002
-0.536969
-0.539844
-0.542556
-0.545039
-0.547236
-0.5491
-0.550601
-0.551712
-0.552404
-0.552686
-0.552806
-0.552978
-0.550935
-0.524654
-0.525247
-0.525831
-0.526601
-0.527742
-0.529335
-0.531395
-0.533887
-0.536743
-0.539877
-0.543196
-0.546604
-0.550008
-0.553318
-0.556448
-0.55932
-0.561865
-0.564024
-0.565754
-0.567021
-0.567786
-0.568054
-0.568071
-0.568075
-0.565823
-0.535234
-0.53544
-0.535845
-0.536566
-0.537744
-0.539454
-0.541702
-0.544444
-0.547601
-0.551079
-0.554773
-0.558576
-0.562385
-0.566096
-0.569612
-0.572843
-0.575707
-0.578133
-0.580063
-0.581453
-0.58226
-0.582479
-0.582348
-0.582132
-0.579683
-0.545448
-0.545243
-0.545443
-0.546086
-0.547266
-0.549053
-0.551445
-0.554391
-0.557803
-0.561576
-0.565597
-0.56975
-0.573917
-0.577987
-0.581849
-0.585402
-0.588549
-0.591207
-0.593305
-0.594788
-0.595604
-0.595739
-0.595417
-0.594928
-0.592286
-0.555199
-0.554572
-0.554547
-0.555082
-0.556225
-0.558041
-0.560526
-0.563619
-0.567227
-0.571236
-0.575525
-0.579967
-0.584437
-0.588811
-0.592969
-0.596795
-0.600182
-0.603032
-0.605262
-0.606802
-0.607593
-0.607611
-0.607055
-0.606236
-0.603397
-0.564403
-0.563356
-0.563091
-0.563487
-0.564551
-0.566345
-0.568862
-0.572038
-0.575772
-0.579948
-0.584434
-0.589096
-0.593801
-0.598414
-0.602804
-0.606846
-0.610419
-0.613412
-0.61573
-0.617289
-0.618019
-0.617884
-0.617052
-0.615846
-0.612789
-0.572992
-0.571541
-0.571026
-0.571256
-0.572197
-0.573914
-0.576398
-0.579584
-0.583369
-0.587631
-0.592233
-0.597036
-0.601897
-0.606673
-0.611224
-0.615413
-0.61911
-0.62219
-0.624544
-0.626076
-0.626704
-0.626378
-0.625227
-0.623574
-0.620267
-0.580914
-0.579092
-0.578325
-0.578363
-0.57914
-0.580723
-0.583106
-0.586225
-0.589979
-0.594241
-0.598874
-0.603731
-0.608662
-0.613518
-0.618149
-0.622411
-0.62616
-0.629262
-0.631593
-0.633045
-0.633523
-0.632962
-0.631448
-0.629285
-0.625681
-0.588143
-0.585992
-0.584979
-0.584805
-0.585379
-0.586773
-0.588988
-0.591964
-0.595602
-0.599778
-0.60435
-0.60917
-0.614083
-0.618931
-0.623559
-0.627811
-0.631536
-0.634588
-0.636831
-0.638142
-0.638414
-0.637568
-0.635643
-0.632904
-0.628937
-0.594675
-0.592249
-0.591003
-0.590602
-0.590939
-0.592094
-0.594077
-0.596836
-0.600277
-0.60428
-0.608704
-0.613398
-0.618203
-0.622956
-0.627495
-0.631656
-0.635277
-0.638203
-0.640286
-0.641388
-0.64139
-0.640199
-0.637806
-0.63442
-0.630007
-0.600529
-0.59789
-0.59643
-0.595794
-0.595868
-0.596741
-0.598435
-0.600908
-0.604078
-0.607828
-0.612021
-0.616505
-0.621118
-0.625693
-0.630061
-0.634049
-0.637487
-0.64021
-0.642056
-0.642876
-0.642536
-0.640931
-0.638005
-0.633892
-0.62893
-0.605747
-0.602961
-0.601313
-0.60044
-0.600231
-0.600787
-0.602145
-0.604277
-0.60711
-0.610538
-0.614427
-0.618625
-0.622971
-0.627291
-0.631411
-0.635149
-0.638328
-0.64077
-0.642301
-0.64276
-0.641999
-0.6399
-0.636368
-0.631443
-0.625811
-0.610393
-0.607527
-0.605717
-0.604612
-0.604111
-0.604327
-0.605313
-0.607059
-0.609504
-0.612552
-0.616076
-0.619925
-0.623937
-0.627936
-0.631738
-0.635157
-0.638002
-0.640085
-0.641222
-0.641237
-0.639971
-0.637293
-0.633076
-0.627255
-0.620818
-0.614549
-0.611665
-0.609724
-0.608396
-0.607599
-0.607462
-0.608055
-0.609384
-0.611405
-0.61403
-0.617142
-0.620592
-0.624216
-0.627834
-0.631258
-0.63429
-0.63673
-0.63838
-0.639041
-0.638527
-0.636667
-0.633323
-0.628341
-0.621553
-0.614177
-0.618313
-0.615467
-0.613422
-0.611884
-0.610796
-0.610303
-0.610494
-0.61139
-0.612964
-0.61514
-0.617806
-0.620819
-0.624011
-0.627201
-0.630189
-0.632772
-0.634737
-0.635875
-0.635978
-0.634848
-0.632307
-0.628213
-0.622398
-0.614594
-0.606168
-0.621797
-0.619031
-0.616905
-0.615173
-0.613805
-0.612964
-0.612754
-0.613216
-0.614334
-0.616047
-0.618248
-0.620795
-0.623522
-0.626238
-0.628739
-0.63081
-0.632229
-0.632776
-0.632235
-0.630403
-0.627098
-0.622178
-0.615479
-0.606651
-0.597106
-0.625119
-0.622461
-0.620274
-0.618362
-0.61673
-0.615554
-0.614956
-0.614992
-0.61566
-0.616907
-0.618632
-0.620694
-0.622925
-0.625127
-0.627088
-0.628583
-0.629381
-0.629254
-0.627983
-0.625363
-0.621216
-0.615412
-0.607802
-0.597988
-0.587318
-0.628404
-0.625865
-0.623628
-0.621549
-0.61967
-0.61818
-0.617214
-0.616841
-0.617071
-0.617857
-0.619102
-0.620665
-0.622371
-0.624017
-0.625382
-0.626232
-0.626329
-0.625442
-0.623352
-0.619864
-0.614812
-0.608084
-0.599567
-0.588851
-0.577121
-0.631772
-0.629348
-0.627063
-0.624829
-0.62272
-0.620938
-0.619628
-0.618869
-0.618679
-0.619013
-0.619775
-0.620823
-0.621973
-0.623017
-0.623724
-0.623853
-0.623164
-0.621426
-0.618432
-0.614002
-0.607995
-0.600333
-0.590954
-0.579468
-0.566818
-0.635343
-0.633009
-0.63067
-0.628289
-0.625968
-0.623917
-0.622288
-0.621167
-0.620572
-0.620463
-0.620738
-0.62125
-0.621808
-0.622196
-0.622175
-0.621502
-0.619937
-0.617258
-0.613271
-0.607824
-0.600811
-0.592202
-0.582008
-0.569877
-0.556532
-0.639224
-0.636939
-0.634533
-0.632007
-0.629487
-0.627188
-0.625264
-0.6238
-0.622817
-0.622267
-0.622044
-0.621992
-0.621913
-0.621583
-0.620761
-0.619201
-0.616671
-0.612962
-0.6079
-0.601358
-0.593263
-0.583623
-0.572487
-0.559547
-0.545737
-0.643505
-0.641218
-0.638722
-0.63605
-0.63334
-0.630808
-0.628606
-0.626816
-0.62545
-0.624454
-0.623713
-0.62306
-0.622292
-0.621178
-0.619476
-0.616948
-0.613376
-0.608569
-0.60238
-0.594705
-0.585492
-0.574738
-0.56239
-0.548132
-0.534
-0.648264
-0.64591
-0.643297
-0.64047
-0.637573
-0.634817
-0.632348
-0.630238
-0.628487
-0.627029
-0.625738
-0.624439
-0.62292
-0.62095
-0.618294
-0.614728
-0.610054
-0.604114
-0.596791
-0.588022
-0.577785
-0.566091
-0.552914
-0.538441
-0.524509
-0.653554
-0.651065
-0.648301
-0.645306
-0.642218
-0.63924
-0.636505
-0.634069
-0.631919
-0.629973
-0.628091
-0.626089
-0.623754
-0.620857
-0.617177
-0.612514
-0.6067
-0.599615
-0.591187
-0.581393
-0.57026
-0.557848
-0.544237
-0.529714
-0.515344
-0.659414
-0.656718
-0.653765
-0.650583
-0.647294
-0.644086
-0.641076
-0.6383
-0.635724
-0.63325
-0.630725
-0.627959
-0.624737
-0.620844
-0.616081
-0.610277
-0.603306
-0.595089
-0.585601
-0.574865
-0.562944
-0.549937
-0.535959
-0.521262
-0.506574
-0.665861
-0.662888
-0.659708
-0.656317
-0.652808
-0.649354
-0.64605
-0.642907
-0.639868
-0.636816
-0.633587
-0.629987
-0.625808
-0.620856
-0.61496
-0.60799
-0.599863
-0.590548
-0.580065
-0.568476
-0.555881
-0.5424
-0.528168
-0.513415
-0.498689
-0.672901
-0.669585
-0.666138
-0.662511
-0.65876
-0.655037
-0.65141
-0.647861
-0.64431
-0.64062
-0.636618
-0.632111
-0.626908
-0.62084
-0.613776
-0.605629
-0.596365
-0.586001
-0.574598
-0.562251
-0.549082
-0.535229
-0.520827
-0.506095
-0.491438
-0.680526
-0.676808
-0.673056
-0.669165
-0.665145
-0.661122
-0.657133
-0.653131
-0.649007
-0.644609
-0.639758
-0.634269
-0.627977
-0.620746
-0.61249
-0.603172
-0.592808
-0.581455
-0.569212
-0.556198
-0.542551
-0.528413
-0.513916
-0.499268
-0.484766
-0.688722
-0.684549
-0.680458
-0.676274
-0.671954
-0.667594
-0.663197
-0.658681
-0.653914
-0.648728
-0.642946
-0.636402
-0.628959
-0.620529
-0.611073
-0.600604
-0.589185
-0.576912
-0.56391
-0.550315
-0.536271
-0.521916
-0.507375
-0.492838
-0.478515
-0.697467
-0.692795
-0.688334
-0.683829
-0.679175
-0.674434
-0.669573
-0.664474
-0.658981
-0.65292
-0.646123
-0.638449
-0.629805
-0.620149
-0.609496
-0.597909
-0.585491
-0.572369
-0.558686
-0.544588
-0.530214
-0.515694
-0.501138
-0.486722
-0.472581
-0.706733
-0.701526
-0.696669
-0.691816
-0.686792
-0.681621
-0.676229
-0.670466
-0.664157
-0.657127
-0.649227
-0.640355
-0.630464
-0.619569
-0.607736
-0.595073
-0.581717
-0.567818
-0.553528
-0.538992
-0.524342
-0.509693
-0.495139
-0.480837
-0.466858
-0.716489
-0.710719
-0.705443
-0.700217
-0.694783
-0.689124
-0.683126
-0.676608
-0.669382
-0.661284
-0.652196
-0.642062
-0.630892
-0.618756
-0.605769
-0.59208
-0.57785
-0.563244
-0.548413
-0.533497
-0.518613
-0.503858
-0.489311
-0.475108
-0.461265
-0.726696
-0.72034
-0.71463
-0.709005
-0.703117
-0.696906
-0.690215
-0.68284
-0.674589
-0.665322
-0.654965
-0.643516
-0.631045
-0.617677
-0.603574
-0.588914
-0.573876
-0.558627
-0.543315
-0.528066
-0.512979
-0.498134
-0.483591
-0.469469
-0.455734
-0.737305
-0.73035
-0.724192
-0.718141
-0.711751
-0.704913
-0.697434
-0.68909
-0.679704
-0.669169
-0.657466
-0.644659
-0.630879
-0.616302
-0.601128
-0.585556
-0.569773
-0.553942
-0.538201
-0.522657
-0.507393
-0.492466
-0.477922
-0.463859
-0.450205
-0.748258
-0.740696
-0.734082
-0.727577
-0.72063
-0.713082
-0.704707
-0.695277
-0.684641
-0.672744
-0.659632
-0.645438
-0.630353
-0.614599
-0.598404
-0.58198
-0.565514
-0.549158
-0.533033
-0.517227
-0.501803
-0.486801
-0.472249
-0.458225
-0.44463
-0.759485
-0.751316
-0.744237
-0.737248
-0.729681
-0.721328
-0.711943
-0.701307
-0.68931
-0.675965
-0.661393
-0.645797
-0.629424
-0.612535
-0.595375
-0.578161
-0.56107
-0.54424
-0.52777
-0.511729
-0.49616
-0.481085
-0.466519
-0.452517
-0.438964
-0.770901
-0.762132
-0.754582
-0.747072
-0.738815
-0.729556
-0.719038
-0.707073
-0.693611
-0.678745
-0.662678
-0.64568
-0.62805
-0.610074
-0.592009
-0.574065
-0.556405
-0.539146
-0.522366
-0.506114
-0.490413
-0.475269
-0.460683
-0.446692
-0.433168
-0.782406
-0.773049
-0.765023
-0.756953
-0.747925
-0.737649
-0.725875
-0.712462
-0.697442
-0.680998
-0.663416
-0.645032
-0.626185
-0.607179
-0.588271
-0.569657
-0.55148
-0.533834
-0.516776
-0.500333
-0.484511
-0.469302
-0.454695
-0.440703
-0.427204
-0.793885
-0.78396
-0.775452
-0.766775
-0.756889
-0.74548
-0.732325
-0.717354
-0.700696
-0.682634
-0.663536
-0.643797
-0.623784
-0.60381
-0.584121
-0.564895
-0.54625
-0.528257
-0.51095
-0.494336
-0.478405
-0.463136
-0.448507
-0.43451
-0.421033
-0.805207
-0.79474
-0.785743
-0.776406
-0.765569
-0.752906
-0.73825
-0.721623
-0.703266
-0.683565
-0.662969
-0.641918
-0.620799
-0.599923
-0.579518
-0.559736
-0.540671
-0.522367
-0.504838
-0.488073
-0.472046
-0.456724
-0.442076
-0.428072
-0.414621
-0.816226
-0.80525
-0.795754
-0.785699
-0.77381
-0.759777
-0.743508
-0.725143
-0.705045
-0.683705
-0.661644
-0.639338
-0.617182
-0.595473
-0.574414
-0.554132
-0.534692
-0.516115
-0.498391
-0.481494
-0.465385
-0.45002
-0.435358
-0.42135
-0.407932
-0.826783
-0.815334
-0.80533
-0.794492
-0.78145
-0.765931
-0.747951
-0.727785
-0.705927
-0.68297
-0.659494
-0.636002
-0.612882
-0.59041
-0.568763
-0.548036
-0.528265
-0.509449
-0.491559
-0.474551
-0.458375
-0.442979
-0.428311
-0.414305
-0.400931
-0.836706
-0.824826
-0.814301
-0.802613
-0.788315
-0.771207
-0.751434
-0.729426
-0.705812
-0.681278
-0.656453
-0.631851
-0.607846
-0.584686
-0.562515
-0.541396
-0.52134
-0.502321
-0.484291
-0.467195
-0.450971
-0.435559
-0.420897
-0.4069
-0.393586
-0.845815
-0.833549
-0.822488
-0.809878
-0.794229
-0.775438
-0.753811
-0.729945
-0.704601
-0.67855
-0.652456
-0.62683
-0.602023
-0.57825
-0.55562
-0.534164
-0.513867
-0.49468
-0.476542
-0.459381
-0.443129
-0.427718
-0.413076
-0.399102
-0.385863
-0.853919
-0.841316
-0.829703
-0.816102
-0.799011
-0.778461
-0.754944
-0.729228
-0.702204
-0.674713
-0.647441
-0.620883
-0.595361
-0.571052
-0.548028
-0.52629
-0.505796
-0.48648
-0.468264
-0.451067
-0.434809
-0.419419
-0.404814
-0.390877
-0.377735
-0.860827
-0.847938
-0.835755
-0.821095
-0.802484
-0.78012
-0.754699
-0.727167
-0.698534
-0.669697
-0.641347
-0.613957
-0.58781
-0.563042
-0.53969
-0.517725
-0.497082
-0.477676
-0.459416
-0.44221
-0.425973
-0.410627
-0.396078
-0.382195
-0.369173
-0.866343
-0.853219
-0.840449
-0.824668
-0.804473
-0.780263
-0.752953
-0.723664
-0.693514
-0.663438
-0.63412
-0.606001
-0.57932
-0.554173
-0.53056
-0.508426
-0.487681
-0.468226
-0.449957
-0.432774
-0.416585
-0.401308
-0.386836
-0.373029
-0.360152
-0.870276
-0.85697
-0.843594
-0.826639
-0.804816
-0.778751
-0.749592
-0.71863
-0.687071
-0.655876
-0.625707
-0.596965
-0.569845
-0.544399
-0.520595
-0.498348
-0.477552
-0.458091
-0.439852
-0.422726
-0.406615
-0.391433
-0.377064
-0.363354
-0.350648
-0.872433
-0.858998
-0.845004
-0.826832
-0.803355
-0.775456
-0.744515
-0.711984
-0.679142
-0.646957
-0.616061
-0.586807
-0.559342
-0.533679
-0.509753
-0.487454
-0.466658
-0.447237
-0.429068
-0.412034
-0.396034
-0.380978
-0.366737
-0.35315
-0.340645
-0.872635
-0.859124
-0.844502
-0.825084
-0.799951
-0.770262
-0.737632
-0.703657
-0.669672
-0.636634
-0.605138
-0.575484
-0.547773
-0.521976
-0.497998
-0.475709
-0.454967
-0.435633
-0.417576
-0.400674
-0.384821
-0.369922
-0.355837
-0.3424
-0.330125
-0.870712
-0.857177
-0.841924
-0.821245
-0.794478
-0.763071
-0.728869
-0.693592
-0.658613
-0.624869
-0.592903
-0.562963
-0.535103
-0.509257
-0.485301
-0.463084
-0.442451
-0.423255
-0.405355
-0.388624
-0.372954
-0.358247
-0.344349
-0.331091
-0.319077
-0.866508
-0.853001
-0.837118
-0.815184
-0.786827
-0.753801
-0.718163
-0.681743
-0.64593
-0.611627
-0.579324
-0.549215
-0.521305
-0.495494
-0.471633
-0.449554
-0.429089
-0.410081
-0.392384
-0.375868
-0.360421
-0.345941
-0.332261
-0.319214
-0.307495
-0.859883
-0.846455
-0.829952
-0.806785
-0.77691
-0.742384
-0.705467
-0.668072
-0.631592
-0.596884
-0.564378
-0.534215
-0.506355
-0.480666
-0.456975
-0.4351
-0.414862
-0.396096
-0.378652
-0.362395
-0.347211
-0.332996
-0.319569
-0.306765
-0.295374
-0.850716
-0.837416
-0.820314
-0.795955
-0.764655
-0.728772
-0.690747
-0.652558
-0.615582
-0.580622
-0.548049
-0.517948
-0.490238
-0.464757
-0.441313
-0.419709
-0.399758
-0.38129
-0.364149
-0.348197
-0.33332
-0.319409
-0.306271
-0.293745
-0.282715
-0.838906
-0.825784
-0.808113
-0.782621
-0.750013
-0.712934
-0.673985
-0.635189
-0.597891
-0.562834
-0.530328
-0.500404
-0.472943
-0.447758
-0.424638
-0.403374
-0.383773
-0.365659
-0.348872
-0.333274
-0.318748
-0.305181
-0.29237
-0.280158
-0.269524
-0.824374
-0.81148
-0.793278
-0.766735
-0.732952
-0.694854
-0.655176
-0.615964
-0.578519
-0.54352
-0.511213
-0.481581
-0.454469
-0.429666
-0.406947
-0.386093
-0.366905
-0.349203
-0.332825
-0.317629
-0.3035
-0.29032
-0.277873
-0.266014
-0.25581
-0.807065
-0.794448
-0.775766
-0.748267
-0.713463
-0.674536
-0.634331
-0.594896
-0.557478
-0.522689
-0.490711
-0.461483
-0.434818
-0.410485
-0.388244
-0.36787
-0.349159
-0.331927
-0.316012
-0.30127
-0.287585
-0.274836
-0.262795
-0.251327
-0.241589
-0.786948
-0.774657
-0.755556
-0.727213
-0.691556
-0.652
-0.611473
-0.572008
-0.534789
-0.500358
-0.468838
-0.440124
-0.414003
-0.390224
-0.368538
-0.348715
-0.330545
-0.313844
-0.298446
-0.284209
-0.271017
-0.258744
-0.247152
-0.236116
-0.226879
-0.764017
-0.752099
-0.732649
-0.703592
-0.667262
-0.627282
-0.58664
-0.547336
-0.510484
-0.476554
-0.445615
-0.417523
-0.39204
-0.368899
-0.347845
-0.328641
-0.311077
-0.294966
-0.280143
-0.266465
-0.253815
-0.242065
-0.230966
-0.220406
-0.211705
-0.738289
-0.726795
-0.707075
-0.677442
-0.640628
-0.600436
-0.559884
-0.520927
-0.484603
-0.451314
-0.421075
-0.393708
-0.368953
-0.346533
-0.326185
-0.30767
-0.290775
-0.275315
-0.261122
-0.248056
-0.235999
-0.224821
-0.214263
-0.204223
-0.196094
-0.709809
-0.698786
-0.678885
-0.648826
-0.611724
-0.571528
-0.531269
-0.492838
-0.457199
-0.424682
-0.395256
-0.368712
-0.344773
-0.323152
-0.303582
-0.285823
-0.269661
-0.25491
-0.241406
-0.229005
-0.217595
-0.20704
-0.197071
-0.1876
-0.180078
-0.678645
-0.668141
-0.648152
-0.617825
-0.580633
-0.540643
-0.500872
-0.46314
-0.428331
-0.396712
-0.368206
-0.342578
-0.319536
-0.298789
-0.280067
-0.263127
-0.24776
-0.233778
-0.221017
-0.209338
-0.198628
-0.188748
-0.179423
-0.170571
-0.163691
-0.644888
-0.63495
-0.614974
-0.58454
-0.547458
-0.507878
-0.468782
-0.431913
-0.398072
-0.367466
-0.339979
-0.315353
-0.293286
-0.273482
-0.255671
-0.239613
-0.225097
-0.211941
-0.199981
-0.189079
-0.179125
-0.169976
-0.161351
-0.153174
-0.146975
-0.608652
-0.599327
-0.579467
-0.549093
-0.512317
-0.473344
-0.435102
-0.399248
-0.366503
-0.337017
-0.310639
-0.287093
-0.26607
-0.247272
-0.230431
-0.21531
-0.201701
-0.189424
-0.178319
-0.168251
-0.159109
-0.150751
-0.142891
-0.135454
-0.129982
-0.570074
-0.561406
-0.541769
-0.511621
-0.475344
-0.437166
-0.399945
-0.365247
-0.333715
-0.305446
-0.280259
-0.257862
-0.237943
-0.220207
-0.204387
-0.190251
-0.177597
-0.166249
-0.15605
-0.146869
-0.138598
-0.131095
-0.124071
-0.117453
-0.112769
-0.529309
-0.521342
-0.502035
-0.472277
-0.436685
-0.39948
-0.363436
-0.330023
-0.29981
-0.272844
-0.248917
-0.22773
-0.208968
-0.192338
-0.17758
-0.16447
-0.15281
-0.142432
-0.133185
-0.124942
-0.117599
-0.111017
-0.104912
-0.0992078
-0.0953682
-0.486532
-0.479307
-0.460438
-0.43123
-0.3965
-0.360435
-0.32571
-0.293699
-0.264899
-0.239311
-0.216706
-0.196778
-0.179212
-0.163723
-0.150057
-0.137999
-0.127361
-0.117982
-0.109721
-0.102458
-0.096095
-0.0905
-0.0854055
-0.080713
-0.0777497
-0.441935
-0.43549
-0.417163
-0.388662
-0.354962
-0.32019
-0.286914
-0.256411
-0.229105
-0.204959
-0.183727
-0.165096
-0.148756
-0.134429
-0.121872
-0.110878
-0.101272
-0.0929032
-0.0856434
-0.0793847
-0.0740385
-0.0694872
-0.0654855
-0.0619019
-0.0598682
-0.395724
-0.390094
-0.372412
-0.344764
-0.31225
-0.278914
-0.247204
-0.2183
-0.19256
-0.169911
-0.150091
-0.132786
-0.117691
-0.104536
-0.093089
-0.083155
-0.074572
-0.0672051
-0.0609426
-0.0556945
-0.0513859
-0.0479177
-0.0450912
-0.0427849
-0.0419441
-0.348117
-0.343334
-0.326395
-0.29974
-0.268557
-0.236784
-0.206745
-0.17952
-0.155407
-0.1343
-0.115924
-0.0999641
-0.0861223
-0.0741359
-0.0637843
-0.054886
-0.0472942
-0.0408939
-0.0356
-0.0313514
-0.0280928
-0.0257607
-0.0242955
-0.0237425
-0.0247304
-0.299344
-0.295436
-0.279332
-0.253801
-0.22408
-0.193984
-0.165707
-0.140232
-0.117799
-0.0982699
-0.081362
-0.0667602
-0.0541706
-0.0433382
-0.0340509
-0.0261372
-0.0194636
-0.0139355
-0.00950019
-0.00613367
-0.00381075
-0.00256529
-0.00270521
-0.00468098
-0.00812416
-0.249642
-0.246632
-0.231449
-0.207161
-0.179022
-0.150706
-0.12427
-0.100605
-0.0798948
-0.061976
-0.0465566
-0.0333221
-0.0219822
-0.0122865
-0.00402576
0.00296997
0.00883403
0.013659
0.0174928
0.0203646
0.0223182
0.0232037
0.0221526
0.0182625
0.0137719
-0.199258
-0.197165
-0.18298
-0.160042
-0.13359
-0.10714
-0.0826145
-0.0608105
-0.0418605
-0.025579
-0.011667
0.000188811
0.010275
0.0188394
0.026091
0.0322043
0.037324
0.0415637
0.0450133
0.0477903
0.0500835
0.0518219
0.0518671
0.0495481
0.0536544
-0.148431
-0.14727
-0.134156
-0.112665
-0.0879913
-0.063483
-0.0409234
-0.021022
-0.00386325
0.0107579
0.0231447
0.0336078
0.0424293
0.0498527
0.0560849
0.0613009
0.065649
0.0692528
0.0722245
0.0747137
0.076918
0.0787923
0.0796817
0.0800949
0.0868662
-0.0974117
-0.0971947
-0.0852122
-0.0652514
-0.0424336
-0.0199278
0.000620905
0.0185878
0.0339315
0.0468736
0.0577196
0.0667758
0.0743183
0.0805852
0.0857797
0.0900752
0.0936205
0.0965433
0.0989636
0.101029
0.102907
0.104547
0.105479
0.106293
0.11242
-0.0464482
-0.0471812
-0.0363834
-0.0180227
0.00287747
0.0233341
0.0418394
0.0578495
0.0713622
0.0826125
0.0919055
0.0995415
0.105789
0.110879
0.115007
0.118343
0.121031
0.123197
0.124957
0.126451
0.127826
0.129045
0.129709
0.130289
0.135253
0.00421351
0.00252935
0.0120996
0.0288045
0.0477401
0.0661151
0.0825571
0.0965989
0.108273
0.117826
0.12556
0.131767
0.136707
0.140602
0.14364
0.145981
0.147763
0.149104
0.150111
0.150909
0.151622
0.152203
0.152293
0.152327
0.156203
0.0543314
0.0516997
0.0600097
0.0750174
0.091957
0.108233
0.122605
0.134678
0.144517
0.152374
0.15855
0.163326
0.166952
0.169641
0.171569
0.17289
0.17373
0.174198
0.174392
0.17442
0.174388
0.174235
0.173629
0.173007
0.175837
0.103669
0.100098
0.107126
0.120409
0.135337
0.149511
0.161819
0.171935
0.179951
0.186125
0.190752
0.194103
0.196418
0.197897
0.198709
0.198993
0.198869
0.198435
0.197778
0.196994
0.19617
0.195234
0.19389
0.19258
0.194415
0.151994
0.147497
0.153232
0.164779
0.177695
0.189779
0.200043
0.208225
0.214442
0.218955
0.222052
0.223994
0.225009
0.225286
0.224983
0.224229
0.223135
0.221788
0.220267
0.218655
0.217024
0.215298
0.213214
0.211218
0.212101
0.199085
0.19368
0.198121
0.207934
0.218854
0.228874
0.237128
0.243411
0.247863
0.250747
0.252342
0.2529
0.252636
0.251728
0.250324
0.248543
0.246485
0.244231
0.241848
0.239412
0.23698
0.234477
0.231671
0.229005
0.22898
0.244726
0.238437
0.241594
0.24969
0.258644
0.266641
0.27293
0.277361
0.280093
0.28139
0.281522
0.28073
0.279217
0.277152
0.274669
0.271882
0.268879
0.265734
0.262506
0.259262
0.25605
0.252795
0.249295
0.245984
0.245089
0.288712
0.281566
0.283459
0.289869
0.296902
0.302931
0.307313
0.30995
0.311018
0.310779
0.309495
0.307396
0.304675
0.301487
0.297959
0.294195
0.290275
0.286265
0.282219
0.278194
0.274231
0.270256
0.266097
0.262167
0.26044
0.330847
0.322875
0.323537
0.328304
0.333476
0.337604
0.34015
0.341062
0.34053
0.338816
0.336172
0.332818
0.328934
0.324667
0.320135
0.315431
0.31063
0.30579
0.300959
0.296186
0.291505
0.286849
0.282066
0.277548
0.275027
0.370944
0.362185
0.361654
0.364837
0.368219
0.370527
0.371317
0.370583
0.368527
0.365406
0.361466
0.356915
0.351923
0.346628
0.341138
0.335539
0.329899
0.324268
0.318691
0.313209
0.307849
0.302551
0.297184
0.292108
0.288831
0.40883
0.399324
0.397652
0.399319
0.400996
0.401575
0.400702
0.39841
0.394911
0.390461
0.385296
0.379613
0.373575
0.367308
0.360912
0.354468
0.348035
0.341659
0.335379
0.329229
0.323233
0.317334
0.311423
0.305822
0.30183
0.444341
0.434135
0.43138
0.431612
0.431681
0.430632
0.428197
0.424443
0.419593
0.413897
0.407584
0.400842
0.393823
0.386646
0.379404
0.372168
0.364994
0.357922
0.350984
0.344213
0.337625
0.331169
0.324754
0.318662
0.313997
0.477328
0.46647
0.4627
0.461587
0.460154
0.45759
0.453704
0.448593
0.442488
0.435637
0.428259
0.420534
0.412606
0.404586
0.396559
0.38859
0.38073
0.373013
0.365469
0.358123
0.350989
0.344021
0.337143
0.330597
0.325305
0.507651
0.496195
0.491485
0.489128
0.48631
0.482352
0.47713
0.470774
0.463518
0.455607
0.447254
0.438629
0.429868
0.421074
0.412328
0.403689
0.3952
0.386894
0.378795
0.370924
0.363291
0.355857
0.348559
0.341596
0.335725
0.535187
0.523188
0.517619
0.514129
0.510051
0.504826
0.498395
0.49091
0.482613
0.473744
0.464507
0.455068
0.445554
0.436062
0.426666
0.41742
0.408364
0.399526
0.390927
0.382582
0.3745
0.366647
0.35897
0.351629
0.345231
0.559822
0.547342
0.541002
0.536495
0.531289
0.524934
0.517424
0.508934
0.499709
0.489987
0.479965
0.469801
0.459617
0.449503
0.439529
0.429744
0.420184
0.410874
0.401829
0.393064
0.384583
0.376359
0.368348
0.36067
0.353799
0.581459
0.56856
0.561543
0.556143
0.549949
0.542605
0.534153
0.524785
0.514751
0.504284
0.493577
0.482782
0.472014
0.461359
0.450881
0.440626
0.430627
0.420905
0.411473
0.402342
0.393514
0.384967
0.376665
0.368693
0.361406
0.600014
0.586761
0.579166
0.573002
0.565965
0.557778
0.548525
0.538411
0.52769
0.516591
0.505303
0.493971
0.482707
0.471593
0.460688
0.450035
0.439663
0.429591
0.419831
0.410389
0.401267
0.392448
0.383899
0.375677
0.368033
0.615419
0.601879
0.593808
0.587015
0.579284
0.570406
0.560495
0.54977
0.538486
0.52687
0.515106
0.503336
0.491667
0.480177
0.468922
0.457943
0.447267
0.43691
0.426881
0.417185
0.407823
0.39878
0.39003
0.381602
0.373664
0.627619
0.61386
0.605418
0.598134
0.589864
0.580448
0.570026
0.558828
0.547108
0.535092
0.52296
0.510851
0.498868
0.487087
0.475562
0.464331
0.453419
0.442841
0.432604
0.422712
0.413163
0.403947
0.395042
0.386455
0.378285
0.636573
0.622666
0.613961
0.606327
0.597673
0.587875
0.577093
0.56556
0.553533
0.541235
0.528844
0.516496
0.504292
0.492307
0.480592
0.469184
0.458105
0.447371
0.436988
0.426957
0.417276
0.407938
0.398924
0.390223
0.381888
0.642258
0.628273
0.619415
0.611574
0.602693
0.592672
0.581679
0.569952
0.557746
0.545285
0.532745
0.520259
0.507929
0.495825
0.484001
0.47249
0.461316
0.450491
0.440023
0.429911
0.420154
0.410744
0.401666
0.3929
0.384464
0.644665
0.630673
0.621771
0.613865
0.604916
0.59483
0.583778
0.571997
0.559743
0.547238
0.534658
0.522137
0.509773
0.497638
0.485785
0.474247
0.463047
0.452198
0.441706
0.431572
0.421793
0.412362
0.403267
0.394482
0.386013
0.643799
0.629871
0.621034
0.613208
0.604348
0.594355
0.583393
0.571699
0.559526
0.547097
0.534587
0.522131
0.509827
0.497748
0.485946
0.474456
0.4633
0.452492
0.442039
0.43194
0.422194
0.412793
0.403726
0.394971
0.386535
0.639682
0.625889
0.617226
0.60962
0.601006
0.591262
0.580541
0.569072
0.557109
0.544874
0.532543
0.520252
0.508101
0.496164
0.484493
0.473125
0.462083
0.451381
0.441027
0.431022
0.421363
0.412043
0.40305
0.394372
0.386033
0.63235
0.618761
0.610378
0.603132
0.594918
0.585578
0.575244
0.564139
0.552512
0.540588
0.528543
0.516517
0.50461
0.4929
0.48144
0.470268
0.459408
0.448877
0.438683
0.428828
0.41931
0.410121
0.401247
0.392692
0.384517
0.621854
0.608537
0.600539
0.593788
0.586125
0.57734
0.567538
0.556931
0.545766
0.534267
0.522615
0.510951
0.499379
0.487979
0.476807
0.465904
0.455295
0.444998
0.435022
0.425374
0.416051
0.407042
0.398331
0.389944
0.381996
0.608261
0.595283
0.587769
0.581645
0.574679
0.566596
0.557467
0.547491
0.536909
0.525948
0.514792
0.503585
0.492437
0.481429
0.470622
0.460057
0.449765
0.439764
0.430067
0.42068
0.411604
0.402824
0.394321
0.386146
0.378485
0.591652
0.579077
0.572143
0.566771
0.560643
0.553404
0.545086
0.535868
0.525988
0.515674
0.505114
0.494458
0.483819
0.473283
0.462915
0.452759
0.442848
0.433204
0.423841
0.41477
0.405992
0.397489
0.389237
0.381318
0.374004
0.572122
0.560011
0.553748
0.549248
0.544092
0.537835
0.530458
0.522121
0.513058
0.503496
0.49363
0.483615
0.473568
0.463582
0.453723
0.444043
0.434576
0.425348
0.416376
0.407673
0.399243
0.391064
0.383104
0.375482
0.368571
0.54978
0.538192
0.532685
0.529169
0.525111
0.519966
0.513657
0.506319
0.498182
0.489474
0.480395
0.471106
0.461732
0.452369
0.44309
0.43395
0.424988
0.416232
0.407704
0.39942
0.391387
0.383577
0.375952
0.368666
0.362212
0.524748
0.513739
0.509066
0.506637
0.503798
0.499885
0.494763
0.488537
0.48143
0.473672
0.46547
0.456989
0.448364
0.439695
0.431061
0.422523
0.414123
0.405895
0.397863
0.390047
0.382457
0.375061
0.367811
0.360899
0.354952
0.497164
0.486785
0.483016
0.48177
0.480258
0.477692
0.473867
0.468859
0.46288
0.456163
0.448921
0.441327
0.433521
0.425614
0.417688
0.40981
0.402028
0.394379
0.386891
0.37959
0.372489
0.36555
0.358715
0.352213
0.34682
0.467175
0.457475
0.454673
0.454694
0.454608
0.453494
0.451068
0.447375
0.442616
0.437025
0.430821
0.424186
0.417268
0.410184
0.403024
0.395861
0.388748
0.381727
0.37483
0.368089
0.36152
0.355079
0.348697
0.342639
0.337846
0.434942
0.425964
0.424185
0.425545
0.426974
0.427405
0.426473
0.424185
0.420728
0.416341
0.411248
0.405639
0.39967
0.393467
0.387127
0.380729
0.374333
0.367985
0.361724
0.355584
0.349586
0.343685
0.337793
0.332212
0.328058
0.400637
0.392422
0.39171
0.394472
0.397491
0.39955
0.400195
0.399392
0.397315
0.394202
0.390284
0.385761
0.380798
0.375527
0.370056
0.36447
0.358834
0.3532
0.347613
0.342112
0.336726
0.331402
0.326037
0.320962
0.317487
0.364444
0.357027
0.357418
0.361632
0.366304
0.370061
0.372356
0.373108
0.372478
0.370701
0.368017
0.364633
0.360724
0.356433
0.351873
0.347138
0.3423
0.337417
0.332539
0.327713
0.322973
0.318262
0.313458
0.308919
0.306158
0.326556
0.319968
0.321489
0.32719
0.333565
0.339078
0.343084
0.345452
0.346325
0.345939
0.344538
0.342339
0.339527
0.336253
0.332641
0.32879
0.324782
0.320681
0.316541
0.31242
0.308356
0.304292
0.300082
0.296105
0.294093
0.287177
0.281444
0.28411
0.291321
0.299434
0.306748
0.312513
0.316547
0.318971
0.320019
0.319942
0.318966
0.317285
0.315059
0.312422
0.309482
0.306328
0.303032
0.299654
0.29626
0.292898
0.289509
0.285922
0.282531
0.281304
0.246519
0.241663
0.24548
0.25421
0.264081
0.273225
0.280785
0.286522
0.290534
0.293052
0.29433
0.294605
0.29408
0.292926
0.291284
0.289272
0.286987
0.284509
0.281907
0.279254
0.276611
0.273918
0.270979
0.268195
0.267786
0.204801
0.20084
0.205803
0.216046
0.22768
0.238671
0.248048
0.255513
0.261139
0.26515
0.267806
0.269351
0.269999
0.269929
0.269292
0.268216
0.266804
0.265147
0.263323
0.261413
0.259491
0.257505
0.255229
0.253065
0.253512
0.162252
0.159197
0.165292
0.177027
0.190414
0.203251
0.214455
0.223662
0.230916
0.236436
0.240482
0.243307
0.245133
0.246151
0.246519
0.246374
0.245829
0.244981
0.243919
0.242737
0.241523
0.240233
0.238617
0.237073
0.238414
0.119105
0.116964
0.124164
0.137358
0.152472
0.167141
0.180165
0.191115
0.200002
0.207033
0.212472
0.216578
0.219581
0.22168
0.223043
0.223812
0.224111
0.224045
0.22371
0.223214
0.222664
0.222027
0.221029
0.220075
0.222352
0.0755967
0.074373
0.0826438
0.0972478
0.114046
0.130518
0.145345
0.158026
0.168539
0.177076
0.183902
0.18928
0.193449
0.196614
0.198951
0.200609
0.201716
0.202386
0.202722
0.202845
0.202882
0.202807
0.202317
0.201852
0.205098
0.0319699
0.0316619
0.0409584
0.0569102
0.0753355
0.0935657
0.110163
0.124554
0.136674
0.146703
0.154902
0.161538
0.166856