/*--------------------------------*- C++ -*----------------------------------*\
  =========                 |
  \\      /  F ield         | OpenFOAM: The Open Source CFD Toolbox
   \\    /   O peration     | Website:  https://openfoam.org
    \\  /    A nd           | Version:  6.0
     \\/     M anipulation  |
\*---------------------------------------------------------------------------*/
FoamFile
{
    version     2.0;
    format      ascii;
    class       surfaceScalarField;
    location    "114";
    object      phi;
}
// * * * * * * * * * * * * * * * * * * * * * * * * * * * * * * * * * * * * * //

dimensions      [0 3 -1 0 0 0 0];

internalField   nonuniform List<scalar> 
24700
(
-3.16173e-06
9.24448e-05
-8.9283e-05
-1.15603e-05
0.000214096
-0.000205697
-2.42608e-05
0.000287938
-0.000275238
-4.03871e-05
0.000325708
-0.000309582
-5.9134e-05
0.000336965
-0.000318219
-7.9785e-05
0.000329312
-0.000308662
-0.000101709
0.000308576
-0.000286652
-0.000124344
0.000279055
-0.00025642
-0.000147181
0.000243802
-0.000220965
-0.000169745
0.000204893
-0.000182329
-0.000191585
0.000163672
-0.000141833
-0.000212263
0.000120966
-0.000100287
-0.000231359
7.72438e-05
-5.81481e-05
-0.000248469
3.27527e-05
-1.56422e-05
-0.00026322
-1.23969e-05
2.7148e-05
-0.00027528
-5.81657e-05
7.02252e-05
-0.000284376
-0.000104544
0.00011364
-0.000290318
-0.000151524
0.000157465
-0.000293021
-0.000199083
0.000201786
-0.000292532
-0.000247176
0.000246688
-0.000289056
-0.000295724
0.000292248
-0.000282972
-0.000344611
0.000338527
-0.000274851
-0.000393685
0.000385565
-0.000265481
-0.0004428
0.00043343
-0.000491794
0.000482178
-0.000255866
-2.66618e-06
9.5111e-05
-1.00332e-05
0.000221463
-2.14673e-05
0.000299372
-3.62781e-05
0.000340519
-5.37632e-05
0.000354451
-7.32516e-05
0.000348801
-9.41221e-05
0.000329446
-0.000115804
0.000300737
-0.000137769
0.000265767
-0.000159522
0.000226646
-0.000180593
0.000184744
-0.000200534
0.000140906
-0.000218913
9.56228e-05
-0.000235325
4.91651e-05
-0.000249398
1.67627e-06
-0.000260806
-4.6758e-05
-0.000269285
-9.60641e-05
-0.00027466
-0.000146149
-0.00027686
-0.000196882
-0.000275955
-0.000248081
-0.000272171
-0.000299508
-0.000265914
-0.000350868
-0.000257782
-0.000401817
-0.000248586
-0.000451996
-0.000501038
-0.000239342
-2.06912e-06
9.71801e-05
-8.15842e-06
0.000227552
-1.79731e-05
0.000309187
-3.10363e-05
0.000353582
-4.67672e-05
0.000370182
-6.45543e-05
0.000366588
-8.37966e-05
0.000348688
-0.000103922
0.000320862
-0.000124392
0.000286237
-0.000144699
0.000246954
-0.000164365
0.00020441
-0.000182938
0.000159479
-0.000199991
0.000112675
-0.000215125
6.42993e-05
-0.00022798
1.45313e-05
-0.000238243
-3.64952e-05
-0.000245664
-8.86428e-05
-0.000250078
-0.000141736
-0.000251425
-0.000195536
-0.000249776
-0.00024973
-0.000245361
-0.000303923
-0.000238585
-0.000357644
-0.000230045
-0.000410357
-0.000220552
-0.000461488
-0.000510469
-0.000211122
-1.38094e-06
9.8561e-05
-5.96255e-06
0.000232134
-1.38188e-05
0.000317043
-2.47095e-05
0.000364473
-3.81949e-05
0.000383667
-5.37378e-05
0.000382131
-7.07692e-05
0.00036572
-8.87253e-05
0.000338818
-0.000107066
0.000304578
-0.000125281
0.000265169
-0.000142893
0.000222022
-0.000159455
0.000176041
-0.000174554
0.000127774
-0.000187809
7.7554e-05
-0.000198878
2.56005e-05
-0.000207467
-2.79058e-05
-0.000213342
-8.27677e-05
-0.000216344
-0.000138734
-0.00021641
-0.00019547
-0.000213598
-0.000252542
-0.000208111
-0.00030941
-0.000200323
-0.000365433
-0.000190798
-0.000419881
-0.000180319
-0.000471967
-0.000520898
-0.00016989
-6.18205e-07
9.91792e-05
-3.49246e-06
0.000235008
-9.08359e-06
0.000322634
-1.7406e-05
0.000372795
-2.8178e-05
0.000394439
-4.09519e-05
0.000394905
-5.52034e-05
0.000379971
-7.03878e-05
0.000354003
-8.59727e-05
0.000320162
-0.000101454
0.00028065
-0.000116362
0.000236931
-0.000130266
0.000189945
-0.000142772
0.00014028
-0.000153524
8.83059e-05
-0.000162206
3.42825e-05
-0.000168546
-2.15654e-05
-0.000172325
-7.8989e-05
-0.000173385
-0.000137673
-0.00017165
-0.000197205
-0.000167144
-0.000257048
-0.000160019
-0.000316535
-0.000150584
-0.000374867
-0.000139338
-0.000431128
-0.000127006
-0.000484298
-0.000533333
-0.000114571
1.96468e-07
9.89828e-05
-8.144e-07
0.000236019
-3.88424e-06
0.000325704
-9.29231e-06
0.000378203
-1.69288e-05
0.000402075
-2.64493e-05
0.000404425
-3.73876e-05
0.000390909
-4.92294e-05
0.000365844
-6.14596e-05
0.000332393
-7.35874e-05
0.000292778
-8.516e-05
0.000248503
-9.57666e-05
0.000200552
-0.000105039
0.000149553
-0.000112652
9.59183e-05
-0.000118317
3.99475e-05
-0.000121787
-1.80949e-05
-0.000122858
-7.79186e-05
-0.00012137
-0.000139161
-0.000117223
-0.000201351
-0.000110395
-0.000263877
-0.000100963
-0.000325967
-8.91456e-05
-0.000386685
-7.53412e-05
-0.000444933
-6.01955e-05
-0.000499444
-0.000548869
-4.466e-05
1.03653e-06
9.79462e-05
1.99061e-06
0.000235065
1.63156e-06
0.000326063
-5.85626e-07
0.000380421
-4.73168e-06
0.000406221
-1.05781e-05
0.000410272
-1.77288e-05
0.00039806
-2.57117e-05
0.000373827
-3.40383e-05
0.000340719
-4.22391e-05
0.000300978
-4.98826e-05
0.000256147
-5.65833e-05
0.000207252
-6.20021e-05
0.000154971
-6.58437e-05
9.97598e-05
-6.78518e-05
4.19557e-05
-6.78046e-05
-1.81421e-05
-6.55107e-05
-8.02124e-05
-6.0809e-05
-0.000143863
-5.3573e-05
-0.000208587
-4.37234e-05
-0.000273726
-3.12538e-05
-0.000338436
-1.62698e-05
-0.000401669
9.51624e-07
-0.000462154
1.98694e-05
-0.000518362
-0.000568567
3.95673e-05
1.87221e-06
9.6074e-05
4.82942e-06
0.000232108
7.29007e-06
0.000323603
8.45298e-06
0.000379258
8.06406e-06
0.00040661
6.22684e-06
0.000412109
3.25566e-06
0.000401031
-4.30331e-07
0.000377513
-4.3786e-06
0.000344667
-8.14773e-06
0.000304748
-1.13323e-05
0.000259331
-1.3574e-05
0.000209494
-1.45632e-05
0.000155961
-1.40359e-05
9.92324e-05
-1.17655e-05
3.96853e-05
-7.5549e-06
-2.23526e-05
-1.22775e-06
-8.65396e-05
7.37865e-06
-0.000152469
1.84154e-05
-0.000219624
3.20156e-05
-0.000287327
4.82731e-05
-0.000354694
6.72001e-05
-0.000420596
8.8655e-05
-0.000483609
0.000112218
-0.000541924
-0.000593361
0.000137012
2.67244e-06
9.34016e-05
7.60199e-06
0.000227178
1.29005e-05
0.000318304
1.75308e-05
0.000374627
2.10598e-05
0.000403081
2.3461e-05
0.000409708
2.49574e-05
0.000399535
2.59053e-05
0.000376565
2.67125e-05
0.00034386
2.7786e-05
0.000303674
2.95017e-05
0.000257616
3.21896e-05
0.000206806
3.61307e-05
0.00015202
4.15607e-05
9.38024e-05
4.8679e-05
3.2567e-05
5.76596e-05
-3.13333e-05
6.86642e-05
-9.75442e-05
8.18537e-05
-0.000165659
9.73969e-05
-0.000235167
0.000115471
-0.000305401
0.000136248
-0.000375471
0.00015985
-0.000444198
0.000186272
-0.000510031
0.000215223
-0.000570875
-0.000624006
0.000245869
3.40673e-06
8.99949e-05
1.02073e-05
0.000220378
1.82655e-05
0.000310246
2.63392e-05
0.000366554
3.38278e-05
0.000395593
4.05745e-05
0.000402961
4.67048e-05
0.000393404
5.25033e-05
0.000370767
5.83251e-05
0.000338038
6.45373e-05
0.000297462
7.14832e-05
0.00025067
7.94646e-05
0.000198825
8.87363e-05
0.000142748
9.95096e-05
8.3029e-05
0.000111961
2.01152e-05
0.000126246
-4.56183e-05
0.000142512
-0.00011381
0.000160915
-0.000184061
0.000181632
-0.000255884
0.000204869
-0.000328639
0.000230856
-0.000401458
0.000259808
-0.000473149
0.000291839
-0.000542062
0.000326788
-0.000605824
-0.000661084
0.000363865
4.04712e-06
8.59477e-05
1.25497e-05
0.000211875
2.31933e-05
0.000299602
3.45714e-05
0.000355175
4.59352e-05
0.000384229
5.70027e-05
0.000391894
6.77991e-05
0.000382608
7.85312e-05
0.000360035
8.94949e-05
0.000327075
0.000101012
0.000285944
0.000113392
0.00023829
0.000126908
0.000185309
0.000141793
0.000127863
0.000158239
6.65833e-05
0.000176406
1.94818e-06
0.000196435
-6.56476e-05
0.000218463
-0.000135838
0.000242638
-0.000208237
0.000269138
-0.000282383
0.000298178
-0.00035768
0.000330021
-0.0004333
0.000364942
-0.00050807
0.000403152
-0.000580273
0.000444606
-0.000647277
-0.000705033
0.000488555
4.56998e-06
8.13778e-05
1.45448e-05
0.0002019
2.751e-05
0.000286637
4.19425e-05
0.000340743
5.69717e-05
0.0003692
7.22015e-05
0.000376664
8.75586e-05
0.000367251
0.000103169
0.000344425
0.000119264
0.000310979
0.000136119
0.00026909
0.000154006
0.000220403
0.000173173
0.000166142
0.000193833
0.000107202
0.000216167
4.42494e-05
0.000240326
-2.22104e-05
0.000266443
-9.17648e-05
0.000294648
-0.000164044
0.000325083
-0.000238671
0.000357914
-0.000315214
0.000393352
-0.000393118
0.000431661
-0.000471609
0.00047314
-0.000549549
0.000518059
-0.000625192
0.000566461
-0.000695679
-0.000756211
0.000617639
4.95741e-06
7.64203e-05
1.6125e-05
0.000190733
3.10708e-05
0.000271691
4.82085e-05
0.000323605
6.65779e-05
0.00035083
8.56858e-05
0.000357556
0.000105367
0.00034757
0.000125667
0.000324124
0.000146755
0.000289892
0.000168853
0.000246991
0.0001922
0.000197056
0.000217021
0.000141321
0.000243516
8.07076e-05
0.000271859
1.59065e-05
0.0003022
-5.25517e-05
0.000334674
-0.000124239
0.000369408
-0.000198778
0.000406537
-0.000275799
0.00044621
-0.000354888
0.000488614
-0.000435523
0.000533985
-0.000516979
0.000582603
-0.000598167
0.000634749
-0.000677338
0.00069052
-0.000751451
-0.000814929
0.000749238
5.19837e-06
7.1222e-05
1.72446e-05
0.000178686
3.37714e-05
0.000255165
5.31853e-05
0.000304191
7.44733e-05
0.000329542
9.70677e-05
0.000334961
0.000120723
0.000323914
0.000145413
0.000299435
0.000171241
0.000264063
0.000198387
0.000219846
0.000227054
0.000168389
0.00025745
0.000110925
0.000289768
4.83892e-05
0.000324185
-1.851e-05
0.000360856
-8.92232e-05
0.000399924
-0.000163306
0.000441517
-0.000240372
0.000485761
-0.000320043
0.000532782
-0.000401909
0.000582723
-0.000485463
0.000635758
-0.000570014
0.000692105
-0.000654514
0.000752002
-0.000737235
0.00081555
-0.000814999
-0.000881469
0.00088209
5.2894e-06
6.59326e-05
1.78825e-05
0.000166093
3.55554e-05
0.000237492
5.67636e-05
0.000282983
8.04812e-05
0.000305825
0.000106093
0.00030935
0.000133291
0.000296716
0.000161986
0.00027074
0.00019223
0.000233819
0.00022416
0.000187916
0.000257955
0.000134594
0.000293811
7.50692e-05
0.000331923
1.02775e-05
0.000372475
-5.90617e-05
0.000415636
-0.000132384
0.000461558
-0.000209228
0.000510371
-0.000289185
0.000562185
-0.000371857
0.00061709
-0.000456813
0.000675161
-0.000543535
0.000736479
-0.000631332
0.000801151
-0.000719185
0.000869309
-0.000805393
0.000941009
-0.000886699
-0.000956055
0.00101559
5.23489e-06
6.06977e-05
1.80447e-05
0.000153283
3.6421e-05
0.000219115
5.89214e-05
0.000260483
8.45484e-05
0.000280198
0.000112669
0.000281229
0.000142937
0.000266448
0.000175218
0.00023846
0.000209523
0.000199514
0.000245959
0.000151479
0.000284693
9.58605e-05
0.000325916
3.38463e-05
0.000369831
-3.36376e-05
0.000416636
-0.000105867
0.000466516
-0.000182264
0.000519629
-0.000262341
0.000576097
-0.000345654
0.000636001
-0.000431762
0.000699371
-0.000520183
0.000766188
-0.000610351
0.000836399
-0.000701544
0.000909952
-0.000792737
0.000986816
-0.000882257
0.00106694
-0.000966824
-0.00103878
0.00114967
5.04716e-06
5.56505e-05
1.77652e-05
0.000140565
3.64233e-05
0.000200457
5.97306e-05
0.000237175
8.67579e-05
0.00025317
0.000116889
0.000251098
0.000149764
0.000233573
0.000185225
0.000202998
0.000223264
0.000161475
0.000263975
0.000110768
0.000307518
5.23169e-05
0.000354095
-1.27305e-05
0.000403922
-8.3464e-05
0.00045721
-0.000159156
0.000514153
-0.000239207
0.000574902
-0.000323089
0.000639552
-0.000410304
0.000708128
-0.000500337
0.000780566
-0.000592621
0.000856717
-0.000686502
0.000936354
-0.000781182
0.00101922
-0.000875601
0.00110507
-0.000968105
0.00119369
-0.00105545
-0.00112951
0.00128441
4.74606e-06
5.09045e-05
1.7105e-05
0.000128206
3.56744e-05
0.000181888
5.93579e-05
0.000213492
8.73329e-05
0.000225196
0.000119033
0.000219398
0.000154117
0.000198489
0.000192431
0.000164684
0.000233965
0.00011994
0.00027882
6.5914e-05
0.000327166
3.97089e-06
0.000379218
-6.47827e-05
0.000435206
-0.000139452
0.000495349
-0.000219299
0.000559828
-0.000303686
0.000628763
-0.000392024
0.000702187
-0.000483729
0.000780026
-0.000578176
0.000862082
-0.000674677
0.000948028
-0.000772448
0.00103743
-0.000870582
0.00112978
-0.00096795
0.00122458
-0.00106291
0.00132143
-0.0011523
-0.00122774
0.00141966
4.35836e-06
4.65461e-05
1.61501e-05
0.000116415
3.43394e-05
0.000163699
5.80596e-05
0.000189772
8.66298e-05
0.000196625
0.000119568
0.000186461
0.000156581
0.000161475
0.000197548
0.000123717
0.000242484
7.5005e-05
0.000291508
1.68897e-05
0.000344813
-4.93343e-05
0.000402629
-0.000122598
0.000465188
-0.000202011
0.000532693
-0.000286804
0.000605285
-0.000376278
0.000683008
-0.000469747
0.000765783
-0.000566503
0.000853382
-0.000665776
0.000945422
-0.000766716
0.00104136
-0.000868383
0.0011405
-0.000969728
0.00124209
-0.00106954
0.00134538
-0.00116619
0.00144974
-0.00125666
-0.00133251
0.00155451
3.91667e-06
4.26294e-05
1.50076e-05
0.000105324
3.26279e-05
0.000146078
5.61681e-05
0.000166232
8.51194e-05
0.000167674
0.000119115
0.000152465
0.000157944
0.000122646
0.00020154
8.0121e-05
0.000249965
2.65804e-05
0.000303372
-3.6518e-05
0.000361977
-0.000107939
0.000426011
-0.000186633
0.000495689
-0.000271688
0.000571159
-0.000362274
0.000652469
-0.000457588
0.000739532
-0.00055681
0.000832091
-0.000659063
0.000929711
-0.000763395
0.00103176
-0.00086877
0.00113745
-0.000974069
0.00124582
-0.0010781
0.00135586
-0.00117958
0.00146656
-0.0012769
0.00157715
-0.00136724
-0.00144233
0.00168697
3.45776e-06
3.91717e-05
1.37994e-05
9.49819e-05
3.07818e-05
0.000129096
5.4071e-05
0.000142942
8.33554e-05
0.00013839
0.000118411
0.000117409
0.000159133
8.19243e-05
0.000205537
3.37176e-05
0.00025774
-2.56233e-05
0.000315936
-9.47136e-05
0.000380348
-0.000172351
0.000451187
-0.000257472
0.000528604
-0.000349105
0.000612641
-0.000446311
0.000703189
-0.000548137
0.000799957
-0.000653578
0.000902448
-0.000761554
0.00100995
-0.000870901
0.00112157
-0.000980382
0.00123621
-0.00108871
0.00135267
-0.00119457
0.00146971
-0.00129662
0.00158615
-0.00139334
0.00170109
-0.00148218
-0.00155518
0.00181394
3.02036e-06
3.61513e-05
1.26549e-05
8.53474e-05
2.90586e-05
0.000112692
5.21832e-05
0.000119818
8.19317e-05
0.000108641
0.000118244
8.10962e-05
0.000161141
3.90277e-05
0.00021073
-1.58711e-05
0.00026719
-8.20836e-05
0.000330738
-0.000158262
0.000401581
-0.000243194
0.000479864
-0.000335755
0.000565617
-0.000434857
0.000658703
-0.000539398
0.000758786
-0.000648219
0.000865297
-0.000760089
0.000977435
-0.000873692
0.00109418
-0.000987641
0.0012143
-0.00110051
0.00133647
-0.00121087
0.00145925
-0.00131734
0.00158122
-0.00141859
0.00170112
-0.00151324
0.00181802
-0.00159908
-0.00166858
0.00193143
2.6424e-06
3.35089e-05
1.17009e-05
7.62889e-05
2.7712e-05
9.66813e-05
5.09134e-05
9.66164e-05
8.1432e-05
7.81224e-05
0.000119384
4.31445e-05
0.000164922
-6.51039e-06
0.000218246
-6.91957e-05
0.000279584
-0.000143421
0.000349146
-0.000227824
0.000427077
-0.000321124
0.000513393
-0.000422071
0.000607932
-0.000529397
0.000710305
-0.000641771
0.000819869
-0.000757783
0.000935718
-0.000875938
0.0010567
-0.000994671
0.00118144
-0.00111239
0.00130844
-0.00122751
0.00143608
-0.00133852
0.00156278
-0.00144404
0.00168704
-0.00154285
0.00180762
-0.00163382
0.00192366
-0.00171512
-0.00177974
0.00203481
2.35795e-06
3.1151e-05
1.10519e-05
6.7595e-05
2.69711e-05
8.07621e-05
5.06298e-05
7.29576e-05
8.23781e-05
4.63741e-05
0.000122508
3.01499e-06
0.0001713
-5.53023e-05
0.000229029
-0.000126925
0.000295938
-0.00021033
0.000372186
-0.000304072
0.00045779
-0.000406728
0.000552567
-0.000516849
0.000656084
-0.000632913
0.000767624
-0.00075331
0.000886176
-0.000876335
0.00101045
-0.00100022
0.00113894
-0.00112315
0.00126992
-0.00124337
0.00140162
-0.00135921
0.00153224
-0.00146913
0.00166005
-0.00157185
0.00178354
-0.00166634
0.00190154
-0.00175182
0.00201343
-0.00182702
-0.00188554
0.00211923
2.1944e-06
2.89566e-05
1.08007e-05
5.89887e-05
2.70216e-05
6.45413e-05
5.16288e-05
4.83504e-05
8.51838e-05
1.28191e-05
0.00012814
-3.99415e-05
0.000180886
-0.000108048
0.000243737
-0.000189776
0.0003169
-0.000283494
0.00040042
-0.000387591
0.000494111
-0.00050042
0.000597513
-0.000620251
0.000709847
-0.000745247
0.000830007
-0.00087347
0.00095658
-0.00100291
0.00108789
-0.00113152
0.00122206
-0.00125733
0.00135713
-0.00137844
0.00149111
-0.00149318
0.00162209
-0.00160011
0.00174832
-0.00169808
0.00186824
-0.00178626
0.00198045
-0.00186404
0.00208367
-0.00193024
-0.00198114
0.00217927
2.16985e-06
2.67867e-05
1.10111e-05
5.01474e-05
2.79918e-05
4.75605e-05
5.41129e-05
2.22294e-05
9.01229e-05
-2.31909e-05
0.00013661
-8.64287e-05
0.00019403
-0.000165468
0.000262689
-0.000258435
0.000342695
-0.0003635
0.000433898
-0.000478794
0.000535834
-0.000602357
0.000647687
-0.000732104
0.000768273
-0.000865833
0.000896061
-0.00100126
0.00102923
-0.00113607
0.00116573
-0.00126803
0.00130343
-0.00139503
0.00144017
-0.00151519
0.00157391
-0.00162692
0.0017028
-0.001729
0.00182526
-0.00182053
0.00193999
-0.00190099
0.00204603
-0.00197008
0.00214341
-0.00202762
-0.00207187
0.00223414
2.29369e-06
2.4493e-05
1.17164e-05
4.07247e-05
2.99481e-05
2.93288e-05
5.81809e-05
-6.00342e-06
9.73149e-05
-6.2325e-05
0.000148031
-0.000137145
0.000210799
-0.000228236
0.00028585
-0.000333485
0.000373114
-0.000450764
0.000472168
-0.000577849
0.000582192
-0.00071238
0.000701948
-0.00085186
0.000829808
-0.000993693
0.00096381
-0.00113526
0.00110175
-0.00127401
0.00124129
-0.00140757
0.0013801
-0.00153384
0.00151598
-0.00165107
0.00164695
-0.0017579
0.00177137
-0.00185341
0.00188794
-0.00193711
0.00199582
-0.00200887
0.00209466
-0.00206892
0.00218469
-0.00211765
-0.00215402
0.00226684
2.56463e-06
2.19284e-05
1.29174e-05
3.0372e-05
3.28932e-05
9.35294e-06
6.38299e-05
-3.69401e-05
0.000106732
-0.000105227
0.000162318
-0.00019273
0.000231006
-0.000296924
0.000312871
-0.000415351
0.000407587
-0.00054548
0.000514376
-0.000684638
0.00063199
-0.000829994
0.00075873
-0.0009786
0.000892512
-0.00112747
0.00103096
-0.00127371
0.00117157
-0.00141461
0.00131179
-0.0015478
0.00144924
-0.00167129
0.00158179
-0.00178361
0.00170764
-0.00188375
0.00182545
-0.00197122
0.00193429
-0.00204595
0.00203369
-0.00210827
0.00212357
-0.0021588
0.00220424
-0.00219832
-0.0022265
0.00227672
2.97399e-06
1.89544e-05
1.45893e-05
1.87567e-05
3.67781e-05
-1.28359e-05
7.09715e-05
-7.11335e-05
0.000118222
-0.000152478
0.000179218
-0.000253726
0.00025425
-0.000371956
0.000343155
-0.000504256
0.000445261
-0.000647587
0.000559365
-0.000798741
0.00068374
-0.000954369
0.000816207
-0.00111107
0.000954246
-0.00126551
0.00109514
-0.00141461
0.00123616
-0.00155563
0.00137468
-0.00168632
0.0015084
-0.00180501
0.00163538
-0.00191058
0.00175414
-0.00200251
0.0018637
-0.00208078
0.00196355
-0.0021458
0.00205361
-0.00219833
0.00213419
-0.00223938
0.00220589
-0.00227002
-0.00229057
0.00226996
3.50776e-06
1.54466e-05
1.66888e-05
5.57564e-06
4.15152e-05
-3.76623e-05
7.94538e-05
-0.000109072
0.00013154
-0.000204564
0.000198356
-0.000320542
0.000279981
-0.000453581
0.000375925
-0.0006002
0.000485095
-0.000756757
0.000605798
-0.000919444
0.000735803
-0.00108437
0.000872463
-0.00124773
0.00101288
-0.00140593
0.00115408
-0.00155582
0.00129325
-0.00169479
0.00142782
-0.0018209
0.00155569
-0.00193288
0.00167524
-0.00203014
0.0017854
-0.00211267
0.00188559
-0.00218097
0.00197574
-0.00223595
0.00205615
-0.00227874
0.00212744
-0.00231067
0.00219046
-0.00233304
-0.00234661
0.0022465
4.14933e-06
1.12973e-05
1.91619e-05
-9.4369e-06
4.69936e-05
-6.5494e-05
8.90852e-05
-0.000151164
0.000146382
-0.000261861
0.00021928
-0.000393441
0.000307556
-0.000541856
0.000410308
-0.000702952
0.000525952
-0.0008724
0.000652266
-0.00104576
0.000786515
-0.00121862
0.000925631
-0.00138684
0.00106642
-0.00154672
0.0012058
-0.00169519
0.00134097
-0.00182996
0.0014696
-0.00194952
0.00158988
-0.00205317
0.00170062
-0.00214088
0.00180118
-0.00221323
0.00189144
-0.00227123
0.00197171
-0.00231622
0.00204264
-0.00234967
0.0021051
-0.00237313
0.00216014
-0.00238808
-0.00239553
0.00220905
4.88207e-06
6.41525e-06
2.19516e-05
-2.65065e-05
5.30934e-05
-9.66357e-05
9.96561e-05
-0.000197727
0.000162418
-0.000324622
0.000241499
-0.000472522
0.000336285
-0.000636642
0.000445385
-0.000812053
0.000566668
-0.000993683
0.000697371
-0.00117646
0.000834288
-0.00135554
0.000974008
-0.00152656
0.00111317
-0.00168588
0.0012487
-0.00183072
0.00137799
-0.00195925
0.00149902
-0.00207056
0.00161042
-0.00216457
0.00171146
-0.00224191
0.00180195
-0.00230372
0.00188219
-0.00235147
0.00195283
-0.00238686
0.0020148
-0.00241163
0.00206915
-0.00242747
0.00211701
-0.00243594
-0.00243816
0.00215965
5.69096e-06
7.24289e-07
2.50034e-05
-4.5819e-05
5.96952e-05
-0.000131327
0.000110954
-0.000248985
0.000179306
-0.000392975
0.000264509
-0.000557724
0.000365468
-0.000737601
0.000480238
-0.000926823
0.000606109
-0.00111955
0.000739793
-0.00131014
0.000877681
-0.00149343
0.00101613
-0.00166502
0.00115175
-0.0018215
0.00128163
-0.0019606
0.00140347
-0.00208109
0.00151569
-0.00218277
0.00161739
-0.00226627
0.0017083
-0.00233283
0.0017887
-0.00238411
0.00185923
-0.00242201
0.00192084
-0.00244847
0.00197462
-0.00246541
0.00202172
-0.00247458
0.00206331
-0.00247753
-0.00247543
0.00210058
6.56343e-06
-5.83914e-06
2.82675e-05
-6.75231e-05
6.66855e-05
-0.000169745
0.000122769
-0.000305069
0.000196711
-0.000466916
0.000287809
-0.000648823
0.000394414
-0.000844207
0.000513976
-0.00104638
0.000643205
-0.00124878
0.000778337
-0.00144528
0.00091546
-0.00163055
0.00105084
-0.00180039
0.0011812
-0.00195186
0.00130391
-0.00208331
0.00141713
-0.0021943
0.00151974
-0.00228539
0.00161135
-0.00235789
0.00169217
-0.00241364
0.00176282
-0.00245476
0.00182426
-0.00248345
0.00187762
-0.00250183
0.00192409
-0.00251188
0.00196487
-0.00251535
0.00200108
-0.00251374
-0.00250814
0.00203379
7.48928e-06
-1.33284e-05
3.16993e-05
-9.17331e-05
7.39571e-05
-0.000212003
0.000134902
-0.000366014
0.000214299
-0.000546313
0.000310907
-0.00074543
0.000422454
-0.000955755
0.00054576
-0.00116969
0.000676983
-0.00138001
0.00081197
-0.00158026
0.000946632
-0.00176521
0.00107729
-0.00193105
0.00120092
-0.0020755
0.00131532
-0.00219772
0.00141913
-0.00229811
0.00151177
-0.00237802
0.00159331
-0.00243944
0.00166437
-0.0024847
0.0017259
-0.00251629
0.00177904
-0.00253659
0.00182504
-0.00254783
0.00186514
-0.00255197
0.00190048
-0.0025507
0.00193212
-0.00254538
-0.00253703
0.001961
8.45994e-06
-2.17884e-05
3.52576e-05
-0.000118531
8.1407e-05
-0.000258153
0.000147152
-0.000431759
0.000231745
-0.000630906
0.000333323
-0.000847009
0.00044895
-0.00107138
0.000574817
-0.00129556
0.000706595
-0.00151178
0.000839854
-0.00171352
0.000970475
-0.00189583
0.00109498
-0.00205555
0.00121074
-0.00219125
0.00131603
-0.00230301
0.00141004
-0.00239212
0.00149269
-0.00246067
0.0015645
-0.00251125
0.00162641
-0.00254661
0.00167958
-0.00256946
0.00172531
-0.00258232
0.00176487
-0.00258739
0.00179946
-0.00258657
0.00183018
-0.00258141
0.00185795
-0.00257316
-0.00256268
0.0018836
9.46751e-06
-3.12559e-05
3.89023e-05
-0.000147966
8.89329e-05
-0.000308183
0.000159323
-0.000502149
0.000248726
-0.000720309
0.000354596
-0.000952879
0.000473306
-0.00119009
0.00060046
-0.00142271
0.000731336
-0.00164266
0.000861364
-0.00184355
0.000986545
-0.00202102
0.00110374
-0.00217275
0.00121079
-0.00229831
0.00130655
-0.00239877
0.00139071
-0.00247627
0.00146366
-0.00253362
0.00152629
-0.00257388
0.00157979
-0.00260011
0.00162547
-0.00261515
0.00166468
-0.00262152
0.00169866
-0.00262137
0.00172855
-0.00261646
0.00175533
-0.00260819
0.00177982
-0.00259765
-0.00258556
0.0018027
1.05038e-05
-4.17597e-05
4.25923e-05
-0.000180054
9.64303e-05
-0.000362021
0.000171216
-0.000576935
0.000264926
-0.000814019
0.000374285
-0.00106224
0.000494984
-0.00131079
0.000622109
-0.00154984
0.000750666
-0.00177122
0.000876096
-0.00196898
0.000994664
-0.00213958
0.00110368
-0.00228176
0.00120153
-0.00239616
0.00128763
-0.00248486
0.00136215
-0.0025508
0.00142592
-0.00259738
0.00148008
-0.00262804
0.00152599
-0.00264602
0.00156505
-0.0026542
0.00159857
-0.00265504
0.00162775
-0.00265055
0.00165361
-0.00264232
0.00167702
-0.0026316
0.00169869
-0.00261932
-0.00260604
0.00171917
1.15596e-05
-5.33193e-05
4.62835e-05
-0.000214778
0.00010379
-0.000419528
0.00018263
-0.000655774
0.000280036
-0.000911425
0.000391981
-0.00117418
0.000513513
-0.00143232
0.000639301
-0.00167562
0.00076422
-0.00189614
0.000883869
-0.00208863
0.000994904
-0.00225062
0.00109516
-0.00238202
0.00118361
-0.00248462
0.00126019
-0.00256143
0.00132552
-0.00261614
0.00138074
-0.0026526
0.00142721
-0.00267451
0.00146637
-0.00268518
0.00149961
-0.00268745
0.0015282
-0.00268363
0.00155324
-0.00267558
0.00157563
-0.00266472
0.00159613
-0.0026521
0.00161531
-0.0026385
-0.00262437
0.00163364
1.26242e-05
-6.59434e-05
4.99281e-05
-0.000252082
0.000110901
-0.000480501
0.000193364
-0.000738238
0.000293761
-0.00101182
0.000407317
-0.00128774
0.000528508
-0.00155351
0.000651706
-0.00179882
0.000771806
-0.00201624
0.000884705
-0.00220153
0.000987547
-0.00235346
0.00107875
-0.00247322
0.00115784
-0.00256371
0.00122524
-0.00262883
0.00128196
-0.00267286
0.00132935
-0.0027
0.00136891
-0.00271407
0.0014021
-0.00271837
0.00143027
-0.00271561
0.00145458
-0.00270794
0.00147602
-0.00269702
0.00149539
-0.00268408
0.00151331
-0.00267002
0.00153026
-0.00265546
-0.00264072
0.00154661
1.36853e-05
-7.96287e-05
5.34753e-05
-0.000291872
0.000117646
-0.000544671
0.000203224
-0.000823815
0.000305833
-0.00111443
0.000419983
-0.00140189
0.000539677
-0.00167321
0.000659129
-0.00191827
0.000773401
-0.00213051
0.000878805
-0.00230693
0.000973043
-0.0024477
0.00105512
-0.00255529
0.0011251
-0.00263369
0.00118382
-0.00268755
0.00123258
-0.00272162
0.00127289
-0.00274031
0.0013063
-0.00274748
0.00133423
-0.00274631
0.00135795
-0.00273933
0.00137853
-0.00272852
0.00139681
-0.00271531
0.00141349
-0.00270076
0.00142908
-0.00268561
0.00144397
-0.00267035
-0.0026552
0.00145845
1.47296e-05
-9.43583e-05
5.68717e-05
-0.000334014
0.000123911
-0.000611711
0.000212024
-0.000911928
0.000316011
-0.00121842
0.000429731
-0.00151561
0.000546827
-0.0017903
0.000661507
-0.00203295
0.000769131
-0.00223813
0.000866518
-0.00240432
0.000951964
-0.00253314
0.00102505
-0.00262837
0.00108631
-0.00269495
0.00113693
-0.00273817
0.00117841
-0.0027631
0.00121236
-0.00277426
0.0012403
-0.00277542
0.0012636
-0.00276961
0.00128342
-0.00275915
0.00130069
-0.00274579
0.00131615
-0.00273077
0.00133038
-0.00271499
0.00134381
-0.00269903
0.00135675
-0.00268328
-0.00266787
0.00136941
1.57424e-05
-0.000110101
6.00631e-05
-0.000378335
0.000129585
-0.000681233
0.000219598
-0.00100194
0.000324099
-0.00132292
0.000436382
-0.00162789
0.000549869
-0.00190379
0.000658899
-0.00214198
0.000759248
-0.00233848
0.000848304
-0.00249338
0.000924965
-0.00260981
0.000989337
-0.00269275
0.00104237
-0.00274799
0.00108552
-0.00278131
0.0011204
-0.00279799
0.00114865
-0.00280251
0.00117174
-0.00279851
0.00119093
-0.0027888
0.00120727
-0.00277549
0.00122157
-0.00276009
0.00123447
-0.00274366
0.00124642
-0.00272695
0.0012578
-0.00271041
0.00126883
-0.00269432
-0.00267874
0.0012797
1.67085e-05
-0.000126809
6.29961e-05
-0.000424622
0.000134565
-0.000752802
0.0002258
-0.00109318
0.000329943
-0.00142706
0.000439831
-0.00173778
0.000548805
-0.00201277
0.000651471
-0.00224465
0.000744105
-0.00243111
0.0008247
-0.00257397
0.000892734
-0.00267784
0.000948788
-0.0027488
0.000994147
-0.00279335
0.00103044
-0.0028176
0.00105936
-0.00282691
0.0010825
-0.00282566
0.00110126
-0.00281727
0.00111679
-0.00280433
0.00112999
-0.00278869
0.00114158
-0.00277167
0.00115207
-0.00275416
0.00116187
-0.00273674
0.00117125
-0.00271978
0.00118041
-0.00270347
-0.00268781
0.00118948
1.7613e-05
-0.000144422
6.56196e-05
-0.000472629
0.000138758
-0.000825941
0.000230512
-0.00118493
0.000333441
-0.00152999
0.000440046
-0.00184438
0.000543729
-0.00211645
0.000639475
-0.00234039
0.000724127
-0.00251577
0.000796287
-0.00264613
0.000855971
-0.00273752
0.000904167
-0.002797
0.000942413
-0.00283159
0.000972452
-0.00284764
0.000995989
-0.00285045
0.00101455
-0.00284422
0.00102942
-0.00283214
0.00104162
-0.00281653
0.00105195
-0.00279902
0.00106101
-0.00278073
0.00106923
-0.00276238
0.00107693
-0.00274445
0.00108434
-0.0027272
0.00109162
-0.00271075
-0.00269506
0.00109886
1.84407e-05
-0.000162863
6.78868e-05
-0.000522075
0.000142084
-0.000900138
0.000233646
-0.00127649
0.000334537
-0.00163088
0.00043706
-0.00194691
0.000534806
-0.0022142
0.000623233
-0.00242882
0.000699786
-0.00259232
0.00076366
-0.00271001
0.000815352
-0.00278921
0.000856184
-0.00283783
0.000887876
-0.00286328
0.000912222
-0.00287198
0.00093089
-0.00286911
0.000945309
-0.00285864
0.000956643
-0.00284347
0.000965795
-0.00282568
0.000973447
-0.00280667
0.000980101
-0.00278738
0.000986119
-0.0027684
0.00099176
-0.00275009
0.000997205
-0.00273264
0.00100258
-0.00271612
-0.00270044
0.00100796
1.91779e-05
-0.000182041
6.97562e-05
-0.000572653
0.000144481
-0.000974863
0.000235145
-0.00136715
0.000333227
-0.00172897
0.000430966
-0.00204465
0.000522261
-0.00230549
0.000603112
-0.00250967
0.000671578
-0.00266079
0.000727407
-0.00276584
0.000771517
-0.00283332
0.000805489
-0.0028718
0.000831156
-0.00288895
0.000850314
-0.00289114
0.000864555
-0.00288335
0.000875198
-0.00286928
0.000883282
-0.00285156
0.000889591
-0.00283199
0.000894704
-0.00281179
0.00089904
-0.00279172
0.000902896
-0.00277226
0.000906483
-0.00275367
0.000909946
-0.0027361
0.000913383
-0.00271956
-0.00270392
0.00091686
1.98114e-05
-0.000201852
7.11926e-05
-0.000624035
0.000145903
-0.00104957
0.000234982
-0.00145623
0.000329549
-0.00182353
0.000421907
-0.002137
0.000506365
-0.00238995
0.000579508
-0.00258281
0.00064
-0.00272128
0.000688093
-0.00281393
0.000725055
-0.00287029
0.000752658
-0.00289941
0.000772789
-0.00290908
0.000787203
-0.00290556
0.000797394
-0.00289354
0.000804559
-0.00287645
0.000809614
-0.00285661
0.000813232
-0.00283561
0.000815903
-0.00281446
0.000817971
-0.00279379
0.000819681
-0.00277397
0.000821204
-0.0027552
0.000822659
-0.00273756
0.000824122
-0.00272102
-0.00270544
0.000825649
2.033e-05
-0.000222182
7.21683e-05
-0.000675873
0.00014632
-0.00112372
0.000233163
-0.00154308
0.000323581
-0.00191395
0.000410067
-0.00222349
0.000487418
-0.0024673
0.000552828
-0.00264822
0.000605538