/*--------------------------------*- C++ -*----------------------------------*\
  =========                 |
  \\      /  F ield         | OpenFOAM: The Open Source CFD Toolbox
   \\    /   O peration     | Website:  https://openfoam.org
    \\  /    A nd           | Version:  6.0
     \\/     M anipulation  |
\*---------------------------------------------------------------------------*/
FoamFile
{
    version     2.0;
    format      ascii;
    class       surfaceScalarField;
    location    "16.6";
    object      phi;
}
// * * * * * * * * * * * * * * * * * * * * * * * * * * * * * * * * * * * * * //

dimensions      [0 3 -1 0 0 0 0];

internalField   nonuniform List<scalar> 
15760
(
-3.11553e-06
3.1028e-06
1.27214e-08
-1.09738e-05
7.79712e-06
6.11891e-08
-2.24248e-05
1.13262e-05
1.24811e-07
-3.65483e-05
1.39268e-05
1.96683e-07
-5.2618e-05
1.57979e-05
2.71715e-07
-7.00745e-05
1.711e-05
3.46617e-07
-8.85027e-05
1.80087e-05
4.19512e-07
-0.000107611
1.86183e-05
4.89552e-07
-0.000127212
1.90448e-05
5.5658e-07
-0.000147211
1.93786e-05
6.20856e-07
-0.00016759
1.96962e-05
6.82852e-07
-0.000188396
2.0062e-05
7.43105e-07
-0.000209726
2.05287e-05
8.02113e-07
-0.000231725
2.11381e-05
8.60274e-07
-0.000254564
2.19212e-05
9.17859e-07
-0.000278437
2.28985e-05
9.75001e-07
-0.00030355
2.40804e-05
1.03169e-06
-0.000330104
2.5467e-05
1.08781e-06
-0.000358299
2.70518e-05
1.1431e-06
2.88289e-05
1.19728e-06
-0.000388325
-3.09156e-06
6.19437e-06
-1.08902e-05
1.55957e-05
-2.22495e-05
2.26855e-05
-3.6249e-05
2.79264e-05
-5.21597e-05
3.17086e-05
-6.94178e-05
3.4368e-05
-8.76017e-05
3.61925e-05
-0.000106412
3.74285e-05
-0.000125654
3.82868e-05
-0.000145223
3.89479e-05
-0.000165092
3.95655e-05
-0.0001853
4.02695e-05
-0.000205938
4.11671e-05
-0.000227144
4.23443e-05
-0.000249089
4.38656e-05
-0.000271965
4.57751e-05
-0.000295981
4.80958e-05
-0.000321344
5.083e-05
-0.000348258
5.39662e-05
5.74923e-05
-0.000376922
-3.0441e-06
9.23846e-06
-1.07238e-05
2.32755e-05
-2.19002e-05
3.38619e-05
-3.56527e-05
4.16789e-05
-5.12474e-05
4.73033e-05
-6.81118e-05
5.12325e-05
-8.58127e-05
5.38934e-05
-0.000104036
5.56518e-05
-0.00012257
5.68212e-05
-0.000141294
5.76712e-05
-0.000160161
5.84325e-05
-0.000179193
5.93014e-05
-0.000198468
6.04426e-05
-0.000218113
6.19895e-05
-0.000238293
6.40453e-05
-0.000259201
6.66827e-05
-0.000281047
6.99427e-05
-0.000304053
7.38353e-05
-0.000328434
7.83471e-05
8.3461e-05
-0.000354402
-2.97692e-06
1.22154e-05
-1.04863e-05
3.07849e-05
-2.13993e-05
4.47749e-05
-3.47954e-05
5.5075e-05
-4.99343e-05
6.24422e-05
-6.62319e-05
6.75301e-05
-8.32382e-05
7.08997e-05
-0.000100618
7.3032e-05
-0.000118137
7.43401e-05
-0.000135646
7.518e-05
-0.000153073
7.58589e-05
-0.000170412
7.66409e-05
-0.000187721
7.77509e-05
-0.000205107
7.93755e-05
-0.000222725
8.16636e-05
-0.000240767
8.47246e-05
-0.000259451
8.86271e-05
-0.000279013
9.33969e-05
-0.000299691
9.90259e-05
0.000105495
-0.000321725
-2.89502e-06
1.51104e-05
-1.0193e-05
3.80828e-05
-2.07763e-05
5.53582e-05
-3.37247e-05
6.80234e-05
-4.82909e-05
7.70084e-05
-6.38771e-05
8.31163e-05
-8.00137e-05
8.70362e-05
-9.63402e-05
8.93586e-05
-0.000112591
9.05909e-05
-0.000128583
9.1172e-05
-0.000144208
9.14835e-05
-0.000159424
9.18579e-05
-0.000174257
9.25835e-05
-0.000188788
9.39067e-05
-0.000203155
9.60308e-05
-0.000217545
9.91145e-05
-0.000232185
0.000103267
-0.000247331
0.000108543
-0.000263258
0.000114953
0.000122481
-0.000280244
-2.80385e-06
1.79143e-05
-9.86026e-06
4.51392e-05
-2.00626e-05
6.55605e-05
-3.24913e-05
8.04522e-05
-4.63925e-05
9.09095e-05
-6.11545e-05
9.78783e-05
-7.62866e-05
0.000102168
-9.14003e-05
0.000104472
-0.000106194
0.000105385
-0.000120445
0.000105423
-0.000134
0.000105038
-0.000146771
0.000104629
-0.000158739
0.000104551
-0.000169949
0.000105117
-0.000180512
0.000106594
-0.000190604
0.000109206
-0.000200459
0.000113122
-0.000210362
0.000118446
-0.000220633
0.000125224
0.000133461
-0.000231613
-2.7084e-06
2.06227e-05
-9.50308e-06
5.19339e-05
-1.92864e-05
7.53439e-05
-3.11404e-05
9.23061e-05
-4.43058e-05
0.000104075
-5.81592e-05
0.000111732
-7.219e-05
0.000116199
-8.59811e-05
0.000118263
-9.91946e-05
0.000118599
-0.000111561
0.00011779
-0.000122876
0.000116352
-0.000132996
0.000114749
-0.000141845
0.0001134
-0.000149417
0.000112688
-0.000155782
0.00011296
-0.000161095
0.000114519
-0.000165591
0.000117618
-0.000169585
0.00012244
-0.000173461
0.0001291
0.000137648
-0.000177648
-2.61236e-06
2.3235e-05
-9.13193e-06
5.84535e-05
-1.84669e-05
8.46788e-05
-2.97013e-05
0.000103541
-4.2074e-05
0.000116448
-5.4953e-05
0.000124611
-6.78119e-05
0.000129058
-8.02085e-05
0.00013066
-9.1769e-05
0.000130159
-0.000102178
0.000128199
-0.000111175
0.000125349
-0.000118552
0.000122126
-0.000124163
0.000119012
-0.000127936
0.000116461
-0.000129882
0.000114906
-0.000130114
0.000114752
-0.000128859
0.000116362
-0.000126459
0.000120039
-0.000123372
0.000126014
0.000134426
-0.000120151
-2.51742e-06
2.57524e-05
-8.7506e-06
6.46867e-05
-1.76091e-05
9.35373e-05
-2.81797e-05
0.000114111
-3.97027e-05
0.000127971
-5.15435e-05
0.000136452
-6.3166e-05
0.000140681
-7.41095e-05
0.000141603
-8.39706e-05
0.00014002
-9.23917e-05
0.00013662
-9.90551e-05
0.000132012
-0.000103685
0.000126756
-0.000106057
0.000121383
-0.000106012
0.000116416
-0.000103483
0.000112377
-9.85165e-05
0.000109786
-9.1305e-05
0.00010915
-8.22074e-05
0.000110942
-7.17648e-05
0.000115571
0.00012335
-6.0688e-05
-2.42283e-06
2.81753e-05
-8.3547e-06
7.06185e-05
-1.67008e-05
0.000101883
-2.65509e-05
0.000123961
-3.715e-05
0.00013857
-4.78672e-05
0.000147169
-5.81652e-05
0.000150979
-6.75745e-05
0.000151013
-7.56722e-05
0.000148118
-8.20677e-05
0.000143015
-8.63944e-05
0.000136339
-8.83102e-05
0.000128672
-8.75064e-05
0.00012058
-8.37269e-05
0.000112637
-7.67992e-05
0.000105449
-6.66748e-05
9.96612e-05
-5.34773e-05
9.59529e-05
-3.7554e-05
9.50186e-05
-1.95228e-05
9.75402e-05
0.000104118
-2.91082e-07
-2.32539e-06
3.05007e-05
-7.93146e-06
7.62246e-05
-1.5712e-05
0.000109664
-2.47578e-05
0.000133007
-3.43211e-05
0.000148133
-4.37801e-05
0.000156628
-5.26051e-05
0.000159803
-6.03289e-05
0.000158737
-6.65233e-05
0.000154312
-7.07795e-05
0.000147272
-7.26972e-05
0.000138257
-7.18799e-05
0.000127855
-6.79413e-05
0.000116641
-6.05238e-05
0.000105219
-4.93332e-05
9.42586e-05
-3.41919e-05
8.452e-05
-1.51113e-05
7.68723e-05
7.62054e-06
7.22868e-05
3.33365e-05
7.18242e-05
7.6549e-05
6.09054e-05
-2.21995e-06
3.27206e-05
-7.46098e-06
8.14657e-05
-1.45964e-05
0.000116799
-2.27136e-05
0.000141124
-3.10712e-05
0.000156491
-3.90591e-05
0.000164616
-4.61617e-05
0.000166906
-5.19249e-05
0.0001645
-5.59294e-05
0.000158317
-5.77677e-05
0.00014911
-5.7028e-05
0.000137517
-5.32836e-05
0.00012411
-4.6092e-05
0.000109449
-3.50075e-05
9.4135e-05
-1.96134e-05
7.88645e-05
4.19154e-07
6.44874e-05
2.52385e-05
5.20529e-05
5.46805e-05
4.28447e-05
8.80891e-05
3.84156e-05
4.05289e-05
0.000124109
-2.10027e-06
3.48209e-05
-6.91889e-06
8.62843e-05
-1.32969e-05
0.000123177
-2.03094e-05
0.000148137
-2.7216e-05
0.000163397
-3.34158e-05
0.000170816
-3.84083e-05
0.000171899
-4.17583e-05
0.00016785
-4.3067e-05
0.000159625
-4.1947e-05
0.00014799
-3.80014e-05
0.000133571
-3.08071e-05
0.000116916
-1.99046e-05
9.85469e-05
-4.79892e-06
7.90293e-05
1.50209e-05
5.90446e-05
4.00295e-05
3.94788e-05
7.05645e-05
2.15179e-05
0.000106658
6.75087e-06
0.000147764
-2.69032e-06
-4.06298e-06
0.000192356
-1.96015e-06
3.6781e-05
-6.27969e-06
9.06038e-05
-1.17518e-05
0.000128649
-1.74256e-05
0.000153811
-2.25495e-05
0.000168521
-2.6522e-05
0.000174788
-2.88505e-05
0.000174227
-2.91153e-05
0.000168115
-2.69413e-05
0.000157451
-2.19726e-05
0.000143021
-1.38509e-05
0.00012545
-2.19417e-06
0.000105259
1.34212e-05
8.29315e-05
3.34744e-05
5.89761e-05
5.85011e-05
3.40179e-05
8.90653e-05
8.91456e-06
0.000125676
-1.50927e-05
0.00016861
-3.61833e-05
0.000217558
-5.16378e-05
-5.74679e-05
0.000270962
-1.79451e-06
3.85755e-05
-5.52011e-06
9.43294e-05
-9.90203e-06
0.000133031
-1.39442e-05
0.000157853
-1.68645e-05
0.000171441
-1.80423e-05
0.000175966
-1.6975e-05
0.00017316
-1.3243e-05
0.000164383
-6.48384e-06
0.000150692
3.62937e-06
0.000132908
1.74064e-05
0.000111673
3.51587e-05
8.75068e-05
5.72203e-05
6.087e-05
8.39714e-05
3.2225e-05
0.000115862
2.12704e-06
0.000153422
-2.86454e-05
0.000197226
-5.88962e-05
0.000247762
-8.67196e-05
0.00030507
-0.000108946
-0.000120209
0.000367811
-1.59997e-06
4.01755e-05
-4.6211e-06
9.73506e-05
-7.69586e-06
0.000136106
-9.75797e-06
0.000159915
-9.96959e-06
0.000171653
-7.66371e-06
0.00017366
-2.29899e-06
0.000167795
6.57291e-06
0.000155511
1.93293e-05
0.000137936
3.62908e-05
0.000115947
5.77308e-05
9.02326e-05
8.38847e-05
6.13529e-05
0.000114962
2.97922e-05
0.00015117
-3.98253e-06
0.000192743
-3.94459e-05
0.000239991
-7.58935e-05
0.000293333
-0.000112238
0.000353278
-0.000146665
0.000420201
-0.000175868
-0.000193282
0.000493274
-1.3747e-06
4.15502e-05
-3.56756e-06
9.95434e-05
-5.08892e-06
0.000137627
-4.77348e-06
0.000159599
-1.69695e-06
0.000168576
4.88754e-06
0.000167076
1.55966e-05
0.000157086
3.09475e-05
0.00014016
5.13744e-05
0.000117509
7.72337e-05
9.00874e-05
0.000108802
5.86647e-05
0.000146266
2.38885e-05
0.000189721
-1.36623e-05
0.000239164
-5.34264e-05
0.000294521
-9.48029e-05
0.000355688
-0.00013706
0.000422614
-0.000179165
0.000495411
-0.000219461
0.00057442
-0.000254877
-0.000278411
0.000659548
-1.11729e-06
4.26675e-05
-2.34519e-06
0.000100771
-2.03916e-06
0.000137321
1.09642e-06
0.000156464
8.10532e-06
0.000161568
1.98505e-05
0.00015533
3.70641e-05
0.000139872
6.03765e-05
0.000116847
9.03279e-05
8.75576e-05
0.000127365
5.30506e-05
0.000171824
1.42055e-05
0.000223908
-2.81958e-05
0.000283653
-7.34073e-05
0.000350893
-0.000120666
0.000425232
-0.000169142
0.000506043
-0.000217872
0.000592522
-0.000265643
0.000683818
-0.000310757
0.000779347
-0.000350406
-0.000378921
0.000879857
-8.24761e-07
4.34922e-05
-9.35005e-07
0.000100882
1.50336e-06
0.000134883
7.94781e-06
0.000150019
1.95941e-05
0.000149921
3.7456e-05
0.000137469
6.2418e-05
0.00011491
9.52633e-05
8.40021e-05
0.000136682
4.61393e-05
0.000187259
2.47286e-06
0.000247457
-4.59922e-05
0.000317573
-9.83122e-05
0.000397696
-0.00015353
0.000487638
-0.000210608
0.000586849
-0.000268352
0.000694309
-0.000325332
0.000808421
-0.000379755
0.000926902
-0.000429238
0.00104698
-0.00047048
-0.00050136
0.00116941
-4.90396e-07
4.39826e-05
6.93199e-07
9.9698e-05
5.60861e-06
0.000129968
1.59049e-05
0.000139723
3.2959e-05
0.000132867
5.79632e-05
0.000112464
9.19804e-05
8.08931e-05
0.000135969
4.00134e-05
0.000190788
-8.6795e-06
0.000257184
-6.39235e-05
0.000335773
-0.000124581
0.000427013
-0.000189552
0.000531175
-0.000257693
0.000648313
-0.000327745
0.00077821
-0.000398249
0.000920289
-0.000467411
0.00107338
-0.000532849
0.00123495
-0.0005908
0.00139818
-0.000633716
-0.000645078
0.0015419
-1.02546e-07
4.40852e-05
2.58499e-06
9.70104e-05
1.03753e-05
0.000122177
2.51347e-05
0.000124964
4.84434e-05
0.000109559
8.16888e-05
7.92189e-05
0.000126117
3.64647e-05
0.000182853
-1.67225e-05
0.000252895
-7.87219e-05
0.000337103
-0.000148131
0.000436177
-0.000223655
0.000550656
-0.000304031
0.000680935
-0.000387972
0.000827332
-0.000474142
0.00099023
-0.000561147
0.00117037
-0.000647552
0.0013694
-0.000731875
0.00159112
-0.000812522
0.00184541
-0.00088801
-0.000954089
0.00215442
3.58879e-07
4.37263e-05
4.80774e-06
9.25616e-05
1.5939e-05
0.000111046
3.5856e-05
0.000105047
6.63542e-05
7.90603e-05
0.000109015
3.65582e-05
0.000165246
-1.9766e-05
0.000236284
-8.77609e-05
0.000323178
-0.000165616
0.000426756
-0.000251709
0.000547604
-0.000344503
0.000686055
-0.000442482
0.000842217
-0.000544134
0.00101604
-0.000647962
0.00120742
-0.000752534
0.00141644
-0.000856573
0.00164364
-0.000959067
0.00189051
-0.0010594
0.00215986
-0.00115735
-0.00124517
0.00245094
9.17759e-07
4.28085e-05
7.44154e-06
8.60378e-05
2.2459e-05
9.60286e-05
4.83198e-05
7.91859e-05
8.7033e-05
4.03471e-05
0.000140349
-1.67575e-05
0.000209779
-8.91958e-05
0.000296573
-0.000174556
0.000401678
-0.000270721
0.000525683
-0.000375714
0.000668786
-0.000487607
0.000830786
-0.000604481
0.0010111
-0.000724445
0.00120881
-0.000845675
0.00142278
-0.000966503
0.00165171
-0.00108551
0.00189428
-0.00120163
0.00214911
-0.00131423
0.0024147
-0.00142295
-0.00151951
0.00268904
1.60239e-06
4.12061e-05
1.05764e-05
7.70637e-05
3.0107e-05
7.6498e-05
6.27856e-05
4.65073e-05
0.000110811
-7.67808e-06
0.000176046
-8.19926e-05
0.000260006
-0.000173156
0.0003638
-0.00027835
0.000488062
-0.000394982
0.000632884
-0.000520536
0.000797781
-0.000652504
0.0009817
-0.0007884
0.00118306
-0.000925804
0.00139984
-0.00106245
0.00162968
-0.00119635
0.00186999
-0.00132581
0.00211798
-0.00144962
0.00237072
-0.00156698
0.00262519
-0.00167741
-0.00177419
0.00287987
2.44162e-06
3.87645e-05
1.43009e-05
6.52045e-05
3.90439e-05
5.1755e-05
7.94787e-05
6.0725e-06
0.000137939
-6.61388e-05
0.000216304
-0.000160357
0.000315937
-0.000272788
0.000437595
-0.000400008
0.000581338
-0.000538725
0.000746467
-0.000685665
0.000931526
-0.000837563
0.00113436
-0.000991229
0.00135221
-0.00114366
0.00158191
-0.00129216
0.00182001
-0.00143445
0.00206295
-0.00156875
0.00230717
-0.00169384
0.00254918
-0.00180899
0.00278571
-0.00191395
-0.00200406
0.00301558
3.46163e-06
3.53029e-05
1.86907e-05
4.99754e-05
4.93959e-05
2.10498e-05
9.85474e-05
-4.3079e-05
0.000168521
-0.000136113
0.00026106
-0.000252896
0.000377164
-0.000388892
0.00051697
-0.000539814
0.000679664
-0.000701419
0.000863469
-0.00086947
0.00106572
-0.00103981
0.00128301
-0.00120852
0.00151144
-0.00137209
0.00174684
-0.00152755
0.00198502
-0.00167262
0.00222198
-0.00180571
0.00245406
-0.00192593
0.00267805
-0.00203298
0.00289127
-0.00212717
-0.0022059
0.00309312
4.68316e-06
3.06197e-05
2.37995e-05
3.08591e-05
6.12333e-05
-1.6384e-05
0.000120026
-0.000101872
0.000202453
-0.000218539
0.000309911
-0.000360355
0.000442768
-0.000521749
0.00060023
-0.000697276
0.000780311
-0.000881501
0.000979917
-0.00106908
0.00119505
-0.00125494
0.0014211
-0.00143458
0.00165321
-0.0016042
0.00188659
-0.00176093
0.00211682
-0.00190286
0.00234007
-0.00202896
0.00255321
-0.00213906
0.00275388
-0.00223365
0.00294048
-0.00231377
-0.00237859
0.00311316
6.11978e-06
2.44999e-05
2.96516e-05
7.32727e-06
7.45554e-05
-6.12879e-05
0.000143809
-0.000171125
0.000239387
-0.000314117
0.000362076
-0.000483043
0.000511291
-0.000670964
0.000684999
-0.000870983
0.000879789
-0.00107629
0.00109112
-0.00128041
0.00131372
-0.00147754
0.00154202
-0.00166287
0.00177059
-0.00183277
0.00199457
-0.00198492
0.00220989
-0.00211818
0.00241344
-0.00223251
0.00260311
-0.00232873
0.00277772
-0.00240826
0.00293691
-0.00247296
-0.0025234
0.00308173
7.77699e-06
1.67229e-05
3.62382e-05
-2.1134e-05
8.92816e-05
-0.000114331
0.000169635
-0.000251479
0.000278719
-0.000423201
0.00041639
-0.000620715
0.000580786
-0.000835361
0.000768356
-0.00105855
0.000974124
-0.00128206
0.00119216
-0.00149845
0.00141616
-0.00170154
0.00164002
-0.00188673
0.00185833
-0.00205108
0.00206671
-0.00219329
0.00226196
-0.00231343
0.00244212
-0.00241267
0.00260631
-0.00249293
0.00275462
-0.00255657
0.00288782
-0.00260616
-0.00264327
0.00300769
9.65199e-06
7.07096e-06
4.35159e-05
-5.49979e-05
0.000105247
-0.000176062
0.000197087
-0.000343319
0.000319592
-0.000545706
0.000471352
-0.000772475
0.000648922
-0.00101293
0.000847057
-0.00125669
0.00105925
-0.00149425
0.00127842
-0.00171762
0.0014977
-0.00192082
0.00171101
-0.00210004
0.00191352
-0.0022536
0.00210186
-0.00238162
0.00227407
-0.00248564
0.00242949
-0.00256809
0.00256851
-0.00263194
0.00269224
-0.00268031
0.00280232
-0.00271623
-0.00274192
0.00290097
1.17336e-05
-4.6626e-06
5.14053e-05
-9.46696e-05
0.000122203
-0.00024686
0.000225594
-0.00044671
0.00036093
-0.000681042
0.000525199
-0.000936745
0.000713151
-0.00120088
0.00091783
-0.00146137
0.00113141
-0.00170783
0.00134614
-0.00193235
0.00155512
-0.0021298
0.00175291
-0.00229783
0.00193577
-0.00243646
0.00210164
-0.0025475
0.00224995
-0.00263395
0.00238128
-0.00269942
0.00249704
-0.0027477
0.00259911
-0.00278237
0.00268956
-0.00280669
-0.00282316
0.00277079
1.40019e-05
-1.86645e-05
5.97919e-05
-0.00014046
0.000139821
-0.00032689
0.000254454
-0.000561342
0.000401484
-0.000828072
0.000576022
-0.00111128
0.000770922
-0.00139578
0.000977685
-0.00166813
0.0011876
-0.00191774
0.00139277
-0.00213753
0.00158693
-0.00232396
0.00176576
-0.00247666
0.0019269
-0.0025976
0.00206974
-0.00269033
0.00219498
-0.00275919
0.00230422
-0.00280866
0.00239956
-0.00284304
0.00248327
-0.00286608
0.00255758
-0.002881
-0.00289034
0.00262476
1.64282e-05
-3.50927e-05
6.85263e-05
-0.000192558
0.0001577
-0.000416063
0.000282855
-0.000686497
0.000439904
-0.000985121
0.000621903
-0.00129328
0.000819894
-0.00159377
0.0010242
-0.00187244
0.00122577
-0.00211931
0.00141722
-0.00232897
0.00159337
-0.00250012
0.00175137
-0.00263465
0.00189036
-0.00273659
0.00201105
-0.00281102
0.00211517
-0.00286331
0.00220501
-0.00289851
0.00228302
-0.00292105
0.00235156
-0.00293462
0.00241277
-0.00294221
-0.00294621
0.00246863
1.89748e-05
-5.40675e-05
7.74268e-05
-0.00025101
0.000175376
-0.000514013
0.000309919
-0.000821039
0.000474824
-0.00115003
0.000661067
-0.00147953
0.000858147
-0.00179085
0.00105572
-0.00207001
0.00124503
-0.00230861
0.0014197
-0.00250365
0.00157606
-0.00265647
0.00171279
-0.00277138
0.00183044
-0.00285424
0.0019308
-0.00291138
0.00201631
-0.00294882
0.00208959
-0.00297179
0.00215318
-0.00298463
0.00220931
-0.00299075
0.00225987
-0.00299276
-0.00299283
0.00230649
2.15946e-05
-7.56621e-05
8.62835e-05
-0.000315699
0.000192347
-0.000620076
0.000334747
-0.00096344
0.000504961
-0.00132024
0.000692023
-0.00166659
0.000884327
-0.00198316
0.00107147
-0.00225715
0.00124554
-0.00248268
0.00140161
-0.00265972
0.00153761
-0.00279248
0.00165373
-0.0028875
0.00175168
-0.00295219
0.00183399
-0.0029937
0.00190348
-0.00301831
0.00196286
-0.00303117
0.00201452
-0.00303629
0.00206043
-0.00303667
0.00210219
-0.00303452
-0.00303172
0.00214108
2.42324e-05
-9.98945e-05
9.48653e-05
-0.000386332
0.000208089
-0.0007333
0.000356477
-0.00111183
0.000529203
-0.00149297
0.00071367
-0.00185105
0.000897719
-0.00216721
0.00107149
-0.00243092
0.00122836
-0.00263956
0.00136509
-0.00279645
0.00148117
-0.00290856
0.00157807
-0.0029844
0.00165834
-0.00303246
0.00172496
-0.00306032
0.00178086
-0.0030742
0.0018286
-0.00307891
0.00187032
-0.00307801
0.00190769
-0.00307403
0.00194198
-0.00306882
-0.00306391
0.00197417
2.68262e-05
-0.000126721
0.000102929
-0.000462435
0.000222092
-0.000852463
0.00037434
-0.00126408
0.000546686
-0.00166531
0.000725359
-0.00202973
0.000898244
-0.00234009
0.00105653
-0.00258921
0.00119523
-0.00277825
0.00131274
-0.00291396
0.00141
-0.00300582
0.00148945
-0.00306384
0.00155418
-0.00309719
0.00160733
-0.00311347
0.0016517
-0.00311858
0.00168963
-0.00311684
0.00172292
-0.0031113
0.00175294
-0.00310405
0.00178069
-0.00309657
-0.00309009
0.00180687
2.93093e-05
-0.00015603
0.000110233
-0.000543358
0.000233885
-0.000976115
0.000387705
-0.0014179
0.000556845
-0.00183445
0.000726902
-0.00219978
0.000886376
-0.00249957
0.0010279
-0.00273074
0.00114822
-0.00289857
0.0012473
-0.00301304
0.00132723
-0.00308575
0.00139112
-0.00312773
0.00144232
-0.00314839
0.00148391
-0.00315505
0.00151845
-0.00315312
0.00154795
-0.00314634
0.00157392
-0.00313727
0.00159744
-0.00312757
0.00161925
-0.00311838
-0.00311071
0.00163987
3.16132e-05
-0.000187643
0.000116545
-0.00062829
0.000243061
-0.00110263
0.000396119
-0.00157095
0.000559428
-0.00199776
0.000718531
-0.00235889
0.000863026
-0.00264406
0.000987231
-0.00285494
0.00108958
-0.00300092
0.00117141
-0.00309487
0.00123565
-0.00314999
0.00128581
-0.0031779
0.00132526
-0.00318783
0.00135686
-0.00318665
0.00138288
-0.00317914
0.001405
-0.00316846
0.00142442
-0.00315669
0.00144199
-0.00314513
0.00145826
-0.00313466
-0.00312605
0.00147361
3.36709e-05
-0.000221314
0.000121658
-0.000716277
0.000249306
-0.00123028
0.000399321
-0.00172097
0.000554482
-0.00215292
0.000700823
-0.00250523
0.0008294
-0.00277264
0.000936297
-0.00296184
0.00102151
-0.00308613
0.00108746
-0.00316082
0.00113765
-0.00320019
0.00117573
-0.00321597
0.00120491
-0.00321702
0.00122778
-0.00320953
0.00124627
-0.00319762
0.00126174
-0.00318393
0.00127514
-0.00317009
0.00128712
-0.00315711
0.00129811
-0.00314564
-0.00313628
0.00130834
3.54229e-05
-0.000256737
0.000125408
-0.000806262
0.000252416
-0.00135729
0.000397258
-0.00186581
0.000542327
-0.00229799
0.000674624
-0.00263753
0.000786885
-0.0028849
0.00087692
-0.00305187
0.000946071
-0.00315528
0.000997564
-0.00321231
0.00103522
-0.00323784
0.00106263
-0.00324338
0.00108276
-0.00323715
0.00109786
-0.00322462
0.00110952
-0.00320929
0.00111885
-0.00319327
0.00112659
-0.00317783
0.00113322
-0.00316374
0.00113905
-0.00315148
-0.00314149
0.00114426
3.68073e-05
-0.000293544
0.00012765
-0.000897105
0.000252266
-0.0014819
0.000390018
-0.00200356
0.000523447
-0.00243142
0.000640893
-0.00275497
0.000736868
-0.00298087
0.000810775
-0.00312578
0.000865047
-0.00320955
0.000903453
-0.00325072
0.00092991
-0.0032643
0.000947824
-0.0032613
0.000959847
-0.00324917
0.000967888
-0.00323266
0.000973247
-0.00321465
0.000976788
-0.00319681
0.000979078
-0.00318012
0.000980492
-0.00316516
0.000981264
-0.00315225
-0.00314174
0.000981511
3.77806e-05
-0.000331325
0.000128306
-0.000987631
0.000248864
-0.00160246
0.000377871
-0.00213257
0.000498509
-0.00255206
0.000600711
-0.00285717
0.000680751
-0.00306091
0.000739431
-0.00318446
0.000780016
-0.00325014
0.000806583
-0.00327729
0.000822981
-0.0032807
0.000832345
-0.00327066
0.000836985
-0.00325381
0.000838488
-0.00323417
0.000837895
-0.00321405
0.000835875
-0.00319479
0.000832863
-0.00317711
0.000829147
-0.00316144
0.000824903
-0.00314801
-0.00313705
0.000820213
3.83073e-05
-0.000369632
0.000127338
-0.00107666
0.000242302
-0.00171742
0.000361197
-0.00225147
0.000468256
-0.00265912
0.000555153
-0.00294407
0.000619829
-0.00312559
0.000664256
-0.00322889
0.000692288
-0.00327817
0.000708114
-0.00329311
0.000715396
-0.00328798
0.00071695
-0.00327221
0.000714748
-0.00325161
0.000710086
-0.00322951
0.000703783
-0.00320775
0.000696351
-0.00318735
0.000688125
-0.00316888
0.000679326
-0.00315264
0.000670091
-0.00313877
-0.00312744
0.000660481
3.83635e-05
-0.000407996
0.000124752
-0.00116305
0.000232752
-0.00182542
0.000340452
-0.00235917
0.000433465
-0.00275213
0.000505254
-0.00301586
0.00055527
-0.00317561
0.000586423
-0.00326004
0.000602936
-0.00329468
0.000608958
-0.00329913
0.000607887
-0.00328691
0.0006022
-0.00326653
0.000593554
-0.00324296
0.000582989
-0.00321894
0.000571139
-0.0031959
0.000558392
-0.00317461
0.000545005
-0.00315549
0.000531151
-0.00313879
0.000516941
-0.00312456
-0.00311292
0.000502422
3.79378e-05
-0.000445933
0.000120599
-0.00124571
0.000220447
-0.00192527
0.000316143
-0.00245486
0.000394911
-0.0028309
0.000451972
-0.00307292
0.0004881
-0.00321173
0.000506916
-0.00327886
0.000512826
-0.00330059
0.000509826
-0.00329613
0.000501006
-0.00327809
0.00048851
-0.00325403
0.000473707
-0.00322816
0.000457421
-0.00320265
0.000440132
-0.00317861
0.000422133
-0.00315661
0.000403618
-0.00313698
0.000384726
-0.00311989
0.00036555
-0.00310539
-0.0030935
0.000346134
3.70302e-05
-0.000482964
0.000114959
-0.00132364
0.000205665
-0.00201598
0.000288795
-0.00253799
0.000353336
-0.00289544
0.000396175
-0.00311576
0.000419204
-0.00323476
0.000426548
-0.0032862
0.000422649
-0.00329669
0.000411268
-0.00328475
0.00039517
-0.00326199
0.000376184
-0.00323505
0.000355429
-0.0032074
0.000333546
-0.00318077
0.000310892
-0.00315596
0.000287681
-0.0031334
0.000264059
-0.00311335
0.00024014
-0.00309598
0.000216009
-0.00308126
-0.0030692
0.000191706
3.56515e-05
-0.000518615
0.000107945
-0.00139593
0.000188708
-0.00209674
0.000258933
-0.00260822
0.000309432
-0.00294594
0.000338629
-0.00314496
0.000349331
-0.00324546
0.000345985
-0.00328285
0.00033295
-0.00328366
0.000313705
-0.00326551
0.00029069
-0.00323897
0.000265448
-0.0032098
0.000238884
-0.00318084
0.000211487
-0.00315337
0.000183518
-0.00312799
0.000155123
-0.003105
0.00012641
-0.00308464
9.74727e-05
-0.00306704
6.83936e-05
-0.00305218
-0.00304003
3.92197e-05
3.38221e-05
-0.000552437
9.96869e-05
-0.0014618
0.000169894
-0.00216695
0.000227058
-0.00266538
0.000263826
-0.00298271
0.000280001
-0.00316113
0.000279109
-0.00324457
0.000265765
-0.00326951
0.000244159
-0.00326205
0.000217462
-0.00323881
0.000187802
-0.00320931
0.000156472
-0.00317847
0.000124194
-0.00314856
9.13386e-05
-0.00312052
5.80846e-05
-0.00309474
2.45252e-05
-0.00307144
-9.2667e-06
-0.00305085
-4.32123e-05
-0.00303309
-7.7228e-05
-0.00301816
-0.003006
-0.000111255
3.15706e-05
-0.000584008
9.03314e-05
-0.00152056
0.00014954
-0.00222616
0.000193645
-0.00270949
0.000217083
-0.00300615
0.000220866
-0.00316492
0.000209062
-0.00323277
0.000186326
-0.00324677
0.000156618
-0.00323234
0.000122794
-0.00320499
8.66906e-05
-0.00317321
4.93848e-05
-0.00314117
1.14523e-05
-0.00311063
-2.68309e-05
-0.00308224
-6.5351e-05
-0.00305622
-0.000104062
-0.00303273
-0.000142923
-0.00301199
-0.00018187
-0.00299415
-0.00022081
-0.00297922
-0.00296714
-0.000259668
2.89323e-05
-0.00061294
8.00323e-05
-0.00157166
0.000127956
-0.00227408
0.000159131
-0.00274066
0.000169702
-0.00301672
0.000161717
-0.00315693
0.000139625
-0.00321068
0.000108025
-0.00321517
7.06029e-05
-0.00319492
2.99037e-05
-0.00316429
-1.2497e-05
-0.00313081
-5.57071e-05
-0.00309796
-9.92657e-05
-0.00306707
-0.000142968
-0.00303853
-0.000186752
-0.00301243
-0.000230611
-0.00298887
-0.000274539
-0.00296806
-0.000318487
-0.0029502
-0.000362349
-0.00293536
-0.00292347
-0.000406023
2.59476e-05
-0.000638888
6.89472e-05
-0.00161466
0.000105439
-0.00231057
0.000123915
-0.00275914
0.000122122
-0.00301492
0.000102973
-0.00313778
7.11662e-05
-0.00317887
3.11587e-05
-0.00317517
-1.36561e-05
-0.00315011
-6.10328e-05
-0.00311691
-0.00010963
-0.00308221
-0.000158708
-0.00304888
-0.000207893
-0.00301789
-0.000257031
-0.0029894
-0.000306094
-0.00296337
-0.000355115
-0.00293985
-0.000404126
-0.00291905
-0.000453094
-0.00290123
-0.000501902
-0.00288655
-0.00287496
-0.000550407
2.2661e-05
-0.000661549
5.72336e-05
-0.00164923
8.22684e-05
-0.00233561
8.83605e-05
-0.00276523
7.47286e-05
-0.00300129
4.49988e-05
-0.00310805
3.99577e-06
-0.00313787
-4.40185e-05
-0.00312715
-9.5956e-05
-0.00309817
-0.000149854
-0.00306301
-0.000204579
-0.00302749
-0.000259517
-0.00299394
-0.000314357
-0.00296304
-0.000368974
-0.00293478
-0.000423361
-0.00290898
-0.000477582
-0.00288563
-0.000531713
-0.00286492
-0.000585753
-0.00284719
-0.000639573
-0.00283273
-0.00282157
-0.000692971
1.91197e-05
-0.000680668
4.5046e-05
-0.00167516
5.87056e-05
-0.00234927
5.27913e-05
-0.00275931
2.78603e-05
-0.00297636
-1.18933e-05
-0.0030683
-6.16142e-05
-0.00308815
-0.000117279
-0.00307149
-0.000176105
-0.00303934
-0.000236397
-0.00300272
-0.000297203
-0.00296668
-0.000358014
-0.00293313
-0.000418566
-0.00290249
-0.000478739
-0.00287461
-0.000538527
-0.00284919
-0.000598017
-0.00282614
-0.000657331
-0.00280561
-0.000716519
-0.002788
-0.000775448
-0.0027738
-0.00276319
-0.000833822
1.53725e-05
-0.000696041
3.25332e-05
-0.00169232
3.49917e-05
-0.00235173
1.74995e-05
-0.00274182
-1.81842e-05
-0.00294068
-6.74264e-05
-0.00301906
-0.00012542
-0.00303015
-0.000188408
-0.0030085
-0.00025391
-0.00297384
-0.000320478
-0.00293616
-0.000387326
-0.00289983
-0.000454039
-0.00286642
-0.000520383
-0.00283615
-0.000586231
-0.00280876
-0.000651552
-0.00278387
-0.000716428
-0.00276126
-0.00078102
-0.00274101
-0.000845445
-0.00272358
-0.000909583
-0.00270967
-0.00269978
-0.000972998
1.14689e-05
-0.00070751
1.98374e-05
-0.00170069
1.13478e-05
-0.00234324
-1.72539e-05
-0.00271322
-6.3141e-05
-0.00289479
-0.000121355
-0.00296084
-0.000187198
-0.00296431
-0.000257197
-0.0029385
-0.000329165
-0.00290187
-0.000401883
-0.00286344
-0.000474725
-0.00282699
-0.000547364
-0.00279378
-0.000619597
-0.00276392
-0.000691283
-0.00273707
-0.000762344
-0.00271281
-0.000832817
-0.00269079
-0.000902872
-0.00267096
-0.000972704
-0.00265374
-0.00104222
-0.00264015
-0.00263112
-0.00111088
7.4578e-06
-0.000714968
7.09163e-06
-0.00170032
-1.20257e-05
-0.00232412
-5.12375e-05
-0.00267401
-0.000106777
-0.00283925
-0.000173458
-0.00289416
-0.000246739
-0.00289103
-0.000323436
-0.0028618
-0.000401645
-0.00282366
-0.000480364
-0.00278472
-0.000559116
-0.00274824
-0.000637671
-0.00271522
-0.000715878
-0.00268571
-0.000793592
-0.00265936
-0.000870685
-0.00263572
-0.000947117
-0.00261436
-0.00102303
-0.00259504
-0.00109872
-0.00257806
-0.00117416
-0.00256471
-0.00255628
-0.001249
3.3869e-06
-0.000718355
-5.58089e-06
-0.00169135
-3.49496e-05
-0.00229475
-8.42481e-05
-0.00262471
-0.00014889
-0.00277461
-0.000223539
-0.00281951
-0.000303845
-0.00281072
-0.000386916
-0.00277873
-0.00047111
-0.00273947
-0.000555631
-0.0027002
-0.000640152
-0.00266372
-0.000724554
-0.00263082
-0.00080877
-0.00260149
-0.000892698
-0.00257543
-0.00097619
-0.00255223
-0.00105913
-0.00253142
-0.00114163
-0.00251255
-0.00122406
-0.00249563
-0.00130665
-0.00248211
-0.00247295
-0.00138999
-6.9873e-07
-0.000717656
-1.8069e-05
-0.00167398
-5.7267e-05
-0.00225555
-0.000116112
-0.00256586
-0.000189304
-0.00270142
-0.000271425
-0.00273739
-0.000358337
-0.00272381
-0.000447424
-0.00268965
-0.000537295
-0.0026496
-0.000627342
-0.00261015
-0.000717387
-0.00257367
-0.000807448
-0.00254076
-0.000897595
-0.00251135
-0.000987862
-0.00248516
-0.0010782
-0.00246189
-0.00116848
-0.00244113
-0.00125873
-0.0024223
-0.00134929
-0.00240506
-0.00144074
-0.00239066
-0.00237788
-0.00153581
-4.75762e-06
-0.000712898
-3.02751e-05
-0.00164846
-7.88454e-05
-0.00220698
-0.000146686
-0.00249802
-0.000227881
-0.00262022
-0.00031698
-0.00264829
-0.000410061
-0.00263073
-0.000504773
-0.00259493
-0.000599939
-0.00255443
-0.000695115
-0.00251497
-0.000790251
-0.00247854
-0.000885502
-0.00244551
-0.000981121
-0.00241573
-0.0010774
-0.00238888
-0.00117462
-0.00236468
-0.00127298
-0.00234277
-0.0013726
-0.00232268
-0.00147404
-0.00230362
-0.00157958
-0.00228513
-0.00227867
-0.00167879
-8.74063e-06
-0.000704158
-4.20965e-05
-0.00161511
-9.95546e-05
-0.00214952
-0.000175838
-0.00242174
-0.000264498
-0.00253156