1.275 	2.15223e-18 	-2.76991e-20 	-0.403665
1.825 	2.15223e-18 	-1.39322e-20 	-0.382956
2.375 	2.15223e-18 	1.38775e-18 	-0.228817
2.925 	2.15223e-18 	2.78958e-18 	-0.0896872
3.475 	2.15223e-18 	4.53849e-18 	-0.0116848
4.025 	2.15223e-18 	6.28755e-18 	0.042345
4.575 	2.15223e-18 	6.30203e-18 	0.0481566
5.125 	2.15223e-18 	6.31666e-18 	0.0449997
5.675 	2.15223e-18 	6.33144e-18 	0.036422
6.225 	2.15223e-18 	4.61166e-18 	0.0301741
