/*--------------------------------*- C++ -*----------------------------------*\
  =========                 |
  \\      /  F ield         | OpenFOAM: The Open Source CFD Toolbox
   \\    /   O peration     | Website:  https://openfoam.org
    \\  /    A nd           | Version:  6.0
     \\/     M anipulation  |
\*---------------------------------------------------------------------------*/
FoamFile
{
    version     2.0;
    format      ascii;
    class       volVectorField;
    location    "12.5";
    object      U;
}
// * * * * * * * * * * * * * * * * * * * * * * * * * * * * * * * * * * * * * //

dimensions      [0 1 -1 0 0 0 0];

internalField   nonuniform List<vector> 
8000
(
(-0.000624621 0.000716996 -3.85901e-21)
(-0.00335129 0.001769 2.06286e-20)
(-0.00834615 0.00251535 -2.50965e-20)
(-0.0144683 0.00303645 1.91131e-20)
(-0.021146 0.00338949 9.31082e-21)
(-0.0280713 0.00361909 -2.79604e-20)
(-0.0350297 0.00376202 -2.47277e-21)
(-0.0418881 0.00384856 -8.79834e-22)
(-0.0485778 0.00390358 -1.45305e-20)
(-0.0550767 0.00394752 -7.87795e-21)
(-0.0613953 0.00399708 5.86952e-21)
(-0.0675676 0.00406563 2.23487e-20)
(-0.0736425 0.00416354 -1.66317e-21)
(-0.0796769 0.00429839 2.40597e-21)
(-0.0857333 0.00447508 -2.25537e-20)
(-0.091887 0.00469574 1.39071e-20)
(-0.0982091 0.00496006 -1.99587e-20)
(-0.104636 0.0052678 3.02129e-20)
(-0.110967 0.00561971 -3.35512e-23)
(-0.118104 0.00599632 6.59164e-21)
(-0.000727212 0.0021182 1.2815e-20)
(-0.00358222 0.00521058 -6.55023e-20)
(-0.0086309 0.0073881 -4.52548e-20)
(-0.0147554 0.00889238 -3.07398e-20)
(-0.0213958 0.00989559 -3.95548e-20)
(-0.0282507 0.0105317 8.69717e-21)
(-0.0351105 0.0109107 -4.56788e-20)
(-0.0418449 0.0111229 -1.02701e-20)
(-0.0483871 0.011242 3.22999e-21)
(-0.054716 0.0113289 3.41626e-20)
(-0.0608431 0.011433 -3.72939e-20)
(-0.0668027 0.0115943 5.18994e-20)
(-0.0726447 0.0118438 -3.88889e-20)
(-0.0784271 0.0122044 -4.61568e-20)
(-0.0842139 0.0126913 -6.36895e-20)
(-0.0900826 0.0133113 4.06332e-20)
(-0.0961075 0.0140642 -1.32035e-20)
(-0.102227 0.0149497 -4.8041e-20)
(-0.108238 0.015971 4.54365e-20)
(-0.115045 0.0170694 -3.39634e-20)
(-0.000929565 0.0034808 1.25296e-19)
(-0.00403936 0.00856331 6.49101e-20)
(-0.00919735 0.0121386 7.30062e-20)
(-0.01533 0.0146013 6.07741e-21)
(-0.0219 0.0162341 4.0358e-20)
(-0.0286193 0.0172575 5.03805e-20)
(-0.0352875 0.0178529 -9.15713e-20)
(-0.0417801 0.0181689 -4.85156e-20)
(-0.0480341 0.0183277 -6.32216e-20)
(-0.0540306 0.0184299 6.74872e-20)
(-0.0597822 0.0185579 -5.15696e-20)
(-0.0653247 0.0187788 -6.64012e-20)
(-0.0707093 0.0191454 -2.41867e-20)
(-0.0759964 0.0196974 2.2984e-20)
(-0.0812528 0.0204617 -6.44144e-21)
(-0.0865604 0.0214518 9.19508e-21)
(-0.0919998 0.0226689 1.07017e-19)
(-0.0975146 0.0241143 -1.49638e-20)
(-0.102895 0.0257953 -1.09025e-19)
(-0.109056 0.0276135 1.44688e-19)
(-0.00122671 0.0047823 4.36249e-20)
(-0.00471421 0.0117744 -6.15855e-20)
(-0.010039 0.0166932 -1.54587e-20)
(-0.0161901 0.0200738 2.89014e-20)
(-0.022663 0.0223025 8.20683e-20)
(-0.029189 0.0236819 1.79711e-19)
(-0.0355813 0.0244613 1.75643e-19)
(-0.0417243 0.0248458 1.46099e-20)
(-0.0475606 0.0250042 1.07772e-19)
(-0.0530742 0.0250762 1.65015e-19)
(-0.0582797 0.0251775 -1.31943e-19)
(-0.0632144 0.0254029 1.95257e-19)
(-0.0679315 0.0258286 -4.43152e-20)
(-0.0724943 0.0265135 1.11269e-20)
(-0.0769742 0.0274993 4.63233e-20)
(-0.0814593 0.0288089 6.16495e-20)
(-0.08604 0.0304479 -9.69017e-20)
(-0.0906688 0.0324218 -8.09993e-20)
(-0.0951277 0.0347456 -1.43595e-19)
(-0.100344 0.0372803 2.10191e-19)
(-0.00161189 0.00600422 -2.27851e-20)
(-0.0055949 0.014799 -2.33308e-19)
(-0.0111464 0.020988 -6.90212e-20)
(-0.017332 0.0252311 -1.68203e-19)
(-0.0236892 0.0280096 6.3583e-20)
(-0.0299741 0.0297024 -1.00301e-19)
(-0.036018 0.0306225 3.45101e-20)
(-0.0417173 0.0310278 -2.12531e-19)
(-0.0470215 0.0311316 1.12142e-19)
(-0.0519189 0.0311116 -1.33771e-19)
(-0.0564263 0.0311162 -1.19019e-19)
(-0.0605823 0.0312691 -1.33344e-19)
(-0.0644424 0.0316721 1.21102e-19)
(-0.0680732 0.0324062 -1.08809e-19)
(-0.0715516 0.0335318 1.51561e-19)
(-0.0749741 0.0350862 4.38883e-20)
(-0.0784442 0.0370838 1.0873e-19)
(-0.0819276 0.0395388 4.7816e-20)
(-0.0851989 0.0424794 -1.89262e-19)
(-0.0892022 0.0457264 3.10099e-19)
(-0.00207723 0.007133 1.00532e-19)
(-0.00666695 0.0176021 7.70866e-21)
(-0.0125067 0.0249711 4.14082e-20)
(-0.018749 0.030008 1.44474e-19)
(-0.0249802 0.0332793 -2.21099e-20)
(-0.0309873 0.0352332 2.34653e-19)
(-0.0366236 0.0362411 1.04181e-19)
(-0.0418004 0.0366095 8.75408e-21)
(-0.0464763 0.036593 2.68e-19)
(-0.0506445 0.036405 8.78673e-20)
(-0.0543242 0.0362261 4.16914e-20)
(-0.0575553 0.0362091 1.32341e-19)
(-0.0603946 0.0364835 1.21381e-19)
(-0.0629124 0.0371562 2.21771e-19)
(-0.0651913 0.0383118 -1.98235e-19)
(-0.0673377 0.0400081 2.80667e-19)
(-0.0694715 0.0422754 3.8908e-21)
(-0.0715772 0.0451438 -3.59249e-19)
(-0.0734259 0.0486627 4.66185e-19)
(-0.0759821 0.0526153 1.94686e-19)
(-0.00261443 0.00816032 -5.92434e-20)
(-0.00791405 0.0201593 -1.07573e-19)
(-0.0141037 0.028604 -2.23789e-19)
(-0.0204292 0.0343544 -6.63153e-21)
(-0.0265316 0.0380522 3.82034e-20)
(-0.0322338 0.0402078 -2.85785e-19)
(-0.0374156 0.0412442 -2.12052e-19)
(-0.0420064 0.0415115 -3.03243e-20)
(-0.0459761 0.0413013 -2.68331e-19)
(-0.0493235 0.0408594 -1.85854e-19)
(-0.0520704 0.0403965 -5.41737e-20)
(-0.0542573 0.0400945 -1.74504e-19)
(-0.0559415 0.040112 -2.80458e-21)
(-0.0571955 0.0405859 -2.31946e-19)
(-0.0581076 0.0416309 9.77216e-20)
(-0.0587949 0.0433337 -1.11463e-19)
(-0.0593968 0.0457502 8.56014e-20)
(-0.0599227 0.048937 -1.08708e-19)
(-0.0601471 0.0529775 -3.11323e-19)
(-0.0610622 0.0576237 -9.48073e-20)
(-0.00321539 0.00908278 -2.18393e-20)
(-0.00931856 0.0224561 -2.37029e-20)
(-0.0159173 0.0318612 1.87651e-19)
(-0.0223534 0.0382356 -3.05384e-19)
(-0.0283279 0.0422872 4.48018e-20)
(-0.0337046 0.0445804 -1.7641e-19)
(-0.0383942 0.0455834 8.33676e-20)
(-0.0423477 0.0456838 3.74787e-19)
(-0.0455484 0.0452044 -2.40115e-20)
(-0.0480026 0.0444191 -2.79698e-19)
(-0.0497344 0.0435648 5.0842e-20)
(-0.050784 0.0428509 9.82706e-21)
(-0.0512078 0.0424654 -5.75355e-20)
(-0.0510787 0.0425781 5.72845e-21)
(-0.0504892 0.0433403 5.05559e-19)
(-0.0495667 0.0448776 -7.19578e-20)
(-0.0484722 0.0472844 -1.40595e-19)
(-0.0472464 0.0506592 -2.52574e-19)
(-0.0456786 0.0551378 2.57614e-19)
(-0.0448005 0.0604545 1.11483e-19)
(-0.00387253 0.00990104 1.10147e-19)
(-0.0108616 0.0244872 -1.44133e-19)
(-0.0179221 0.0347289 2.03746e-19)
(-0.0244927 0.0416312 2.05069e-19)
(-0.0303384 0.0459596 1.89023e-19)
(-0.0353692 0.0483257 3.83295e-19)
(-0.0395313 0.0492358 2.47882e-19)
(-0.0428014 0.0491078 -5.32693e-19)
(-0.0451791 0.0482894 2.72461e-19)
(-0.0466798 0.0470761 2.13842e-19)
(-0.0473304 0.045726 -2.99857e-21)
(-0.0471704 0.0444715 2.39478e-19)
(-0.0462531 0.043528 1.86821e-19)
(-0.0446493 0.0430995 -1.01606e-19)
(-0.0424529 0.043379 3.43669e-19)
(-0.0398 0.0445415 -4.261e-19)
(-0.0368739 0.0467356 1.70687e-19)
(-0.0337525 0.050123 2.1975e-19)
(-0.0302551 0.0549183 -5.14318e-20)
(-0.027473 0.0608621 4.42663e-19)
(-0.00457894 0.0106185 2.21483e-19)
(-0.012523 0.0262529 1.14633e-20)
(-0.0200864 0.0372021 -7.94603e-20)
(-0.0268049 0.0445319 -8.39024e-20)
(-0.0325117 0.0490594 -3.8851e-19)
(-0.0371678 0.0514368 5.50086e-20)
(-0.0407601 0.0522019 1.55878e-19)
(-0.043295 0.0517957 -7.49545e-20)
(-0.0447923 0.0505833 6.18302e-20)
(-0.0452787 0.0488744 -1.64105e-20)
(-0.0447859 0.0469403 -8.08091e-20)
(-0.043352 0.0450299 7.66616e-20)
(-0.0410259 0.0433804 -3.33772e-19)
(-0.0378732 0.0422275 3.19879e-19)
(-0.0339855 0.0418082 -2.77293e-19)
(-0.0295043 0.0423555 8.5666e-20)
(-0.0246338 0.0440895 1.9508e-19)
(-0.0194941 0.0472615 -4.06324e-20)
(-0.0139523 0.0522027 -1.35202e-19)
(-0.009192 0.0586977 -9.18802e-20)
(-0.00532809 0.0112398 -2.75896e-19)
(-0.0142802 0.0277573 -1.80854e-20)
(-0.0223706 0.0392813 5.80815e-20)
(-0.0292326 0.046936 1.49243e-19)
(-0.0347714 0.0515863 -2.10713e-19)
(-0.0390045 0.0539203 -1.83847e-19)
(-0.0419642 0.0545008 4.29107e-19)
(-0.0436916 0.0537854 -2.37101e-19)
(-0.0442308 0.0521491 -1.52945e-19)
(-0.0436236 0.0499069 -2.19457e-19)
(-0.0419084 0.0473346 1.45289e-19)
(-0.0391236 0.0446872 -3.95186e-21)
(-0.0353132 0.0422146 -2.71352e-19)
(-0.0305352 0.0401761 -4.44046e-19)
(-0.0248747 0.0388492 3.38285e-19)
(-0.0184743 0.0385287 -2.74238e-19)
(-0.0115558 0.0395212 3.88972e-19)
(-0.00428389 0.0421982 -1.09003e-19)
(0.00340809 0.047056 2.30021e-19)
(0.0101958 0.0539816 -7.76913e-19)
(-0.00611343 0.0117692 -5.58786e-19)
(-0.0161076 0.0290044 3.66261e-19)
(-0.0247253 0.0409681 4.98108e-20)
(-0.0316996 0.0488445 9.62758e-21)
(-0.0370121 0.0535448 -2.25649e-19)
(-0.0407412 0.0557897 3.31805e-19)
(-0.04297 0.0561625 3.62367e-20)
(-0.0437787 0.055132 -6.80474e-20)
(-0.0432403 0.053076 -2.18282e-19)
(-0.041416 0.0503069 2.35989e-19)
(-0.0383553 0.0470947 5.98264e-19)
(-0.0340998 0.0436886 -1.32208e-19)
(-0.0286905 0.0403377 2.9858e-19)
(-0.0221774 0.037311 -3.52797e-19)
(-0.0146369 0.0349146 -3.38262e-19)
(-0.00620762 0.0334993 2.03523e-19)
(0.00287536 0.0334654 3.36583e-19)
(0.012404 0.0353322 -1.09033e-18)
(0.0223634 0.0398208 1.27923e-19)
(0.0312228 0.0470029 1.73261e-19)
(-0.00692773 0.0122094 4.13783e-19)
(-0.0179748 0.0299957 1.36007e-19)
(-0.0270903 0.0422619 7.0838e-19)
(-0.0341103 0.0502564 3.64122e-20)
(-0.0390972 0.0549378 -7.87539e-20)
(-0.0421952 0.057058 -3.74917e-19)
(-0.0435417 0.0572185 3.18857e-19)
(-0.0432608 0.0558953 5.71854e-19)
(-0.0414587 0.0534644 3.8101e-19)
(-0.0382209 0.050229 2.74917e-19)
(-0.0336133 0.0464446 2.36916e-19)
(-0.0276866 0.0423428 -4.25751e-19)
(-0.0204836 0.0381559 -1.33457e-19)
(-0.0120503 0.0341432 -9.8097e-20)
(-0.00245532 0.0306177 1.05225e-18)
(0.00816854 0.0279671 -3.66258e-21)
(0.0195772 0.0266756 -2.62292e-19)
(0.0315235 0.0274263 -8.28374e-20)
(0.0439063 0.0312273 7.52825e-19)
(0.0549088 0.0384413 9.67876e-20)
(-0.00776249 0.0125611 -2.04615e-20)
(-0.0198464 0.0307285 -3.91192e-19)
(-0.0293932 0.0431568 -5.81735e-19)
(-0.036348 0.0511649 -1.61784e-19)
(-0.0408585 0.0557615 8.93181e-20)
(-0.043138 0.0577304 1.92561e-20)
(-0.0433817 0.0576909 5.09975e-19)
(-0.0417601 0.0561251 -6.32504e-19)
(-0.0384163 0.0534055 -2.40563e-19)
(-0.0334652 0.0498232 -4.84719e-19)
(-0.0269952 0.0456138 -4.12833e-19)
(-0.0190738 0.0409826 -3.6537e-19)
(-0.00975512 0.0361307 9.13301e-20)
(0.000909194 0.0312862 -1.18505e-19)
(0.0128508 0.0267399 5.07907e-19)
(0.0259383 0.0228816 -2.78622e-19)
(0.0399183 0.0202458 -8.72807e-19)
(0.0545109 0.0196665 -1.7609e-19)
(0.0695425 0.0224893 4.30644e-19)
(0.0828308 0.029488 -3.73975e-19)
(-0.00860742 0.0128221 -6.60154e-20)
(-0.0216802 0.031195 4.78222e-19)
(-0.0315486 0.0436406 -6.09762e-19)
(-0.038275 0.0515556 1.40977e-19)
(-0.0420966 0.0560024 -2.90146e-19)
(-0.0432982 0.0577992 6.46158e-19)
(-0.042134 0.0575849 -4.61761e-19)
(-0.0388225 0.055849 5.28246e-19)
(-0.0335458 0.0529624 -5.00713e-19)
(-0.0264514 0.0492058 2.1364e-19)
(-0.017657 0.0447956 -1.03698e-19)
(-0.00725634 0.0399084 -2.60154e-19)
(0.00467177 0.0347066 -3.21325e-19)
(0.0180541 0.0293706 3.20249e-19)
(0.0328051 0.0241393 -2.68099e-19)
(0.04878 0.0193586 -5.8597e-19)
(0.0657058 0.0155536 6.10098e-19)
(0.0832718 0.0136515 -7.77733e-19)
(0.101272 0.0153453 3.50338e-19)
(0.117116 0.0219285 1.09343e-20)
(-0.00945013 0.0129884 -5.97981e-19)
(-0.0234267 0.0313828 -6.45396e-19)
(-0.0334579 0.0436953 7.43995e-20)
(-0.0397327 0.0514066 -6.21988e-19)
(-0.0425823 0.0556374 -5.52361e-20)
(-0.0423643 0.0572437 -4.57407e-19)
(-0.0393916 0.0568865 -1.04898e-19)
(-0.0339299 0.0550668 -3.065e-19)
(-0.0262003 0.0521585 2.8342e-21)
(-0.0163854 0.0484382 -1.34033e-19)
(-0.00463696 0.0441107 9.52673e-21)
(0.00891435 0.0393306 -3.86229e-19)
(0.0241497 0.0342258 4.2566e-19)
(0.0409519 0.0289249 -6.03662e-19)
(0.0591909 0.0235973 2.13822e-19)
(0.0786796 0.0185034 8.01784e-21)
(0.0990986 0.014082 -3.39954e-19)
(0.120092 0.0112451 8.43095e-19)
(0.141487 0.0119657 -2.00824e-19)
(0.160336 0.0181044 -1.30466e-19)
(-0.0102759 0.0130545 6.71027e-19)
(-0.0250284 0.0312765 3.62235e-19)
(-0.0350077 0.043299 3.36859e-19)
(-0.0405407 0.0506922 5.02861e-20)
(-0.0420572 0.0546388 4.55346e-19)
(-0.0399877 0.0560358 6.56179e-19)
(-0.0347025 0.0555696 5.37058e-19)
(-0.0265121 0.0537569 4.81063e-20)
(-0.0156751 0.0509814 3.93223e-19)
(-0.00240969 0.0475252 6.07468e-19)
(0.0130938 0.0435935 -1.57485e-19)
(0.030659 0.0393347 2.64405e-19)
(0.0501105 0.0348588 2.13509e-19)
(0.0712625 0.0302587 2.17255e-19)
(0.0939056 0.0256398 1.28334e-18)
(0.117769 0.0211612 -4.80969e-19)
(0.142442 0.0171104 -2.91714e-20)
(0.167475 0.0142393 5.56384e-19)
(0.192788 0.0146325 -3.15235e-19)
(0.215321 0.020666 1.55858e-19)
(-0.0110673 0.0130141 -5.42428e-19)
(-0.0264184 0.0308595 3.4643e-20)
(-0.036068 0.0424302 -4.33864e-19)
(-0.0404947 0.0493888 -5.64369e-20)
(-0.0402316 0.0529828 3.17498e-19)
(-0.0357826 0.0541524 -9.45207e-19)
(-0.0275732 0.0536116 -7.05743e-22)
(-0.015956 0.0518966 4.39811e-19)
(-0.00122548 0.0494072 4.13081e-19)
(0.0163643 0.0464401 -1.81934e-19)
(0.0365809 0.0432152 5.99472e-20)
(0.0591937 0.0398944 1.3904e-19)
(0.083956 0.0365969 -6.59091e-20)
(0.110588 0.0334134 -7.37979e-19)
(0.138763 0.0304243 1.86851e-19)
(0.168074 0.0277194 5.13388e-19)
(0.19795 0.0254293 -7.31183e-19)
(0.227759 0.024031 3.56276e-19)
(0.257519 0.0255098 9.53219e-20)
(0.284563 0.0326149 4.81377e-19)
(-0.0118038 0.0128612 -7.99461e-20)
(-0.0275187 0.0301168 -3.79815e-19)
(-0.0364894 0.0410719 1.74792e-19)
(-0.0393628 0.0474824 8.37571e-22)
(-0.0367815 0.050661 -7.61384e-19)
(-0.0293233 0.0515917 1.1885e-19)
(-0.0174681 0.0510167 -2.25516e-20)
(-0.00160971 0.049493 1.5364e-19)
(0.0179213 0.0474395 -7.03229e-19)
(0.0408328 0.045174 -4.92627e-20)
(0.0668455 0.042941 -1.65133e-19)
(0.0956676 0.0409327 1.46946e-19)
(0.12697 0.0393051 4.9581e-19)
(0.160364 0.0381914 -7.6689e-20)
(0.195375 0.0377157 2.97103e-20)
(0.231404 0.0379977 1.94719e-19)
(0.267616 0.0391344 -4.82606e-20)
(0.303004 0.0414357 3.91368e-19)
(0.337438 0.0468432 -2.28349e-19)
(0.369182 0.0582639 -3.56465e-19)
(-0.0124608 0.0125899 7.42446e-20)
(-0.0282373 0.0290362 1.81829e-20)
(-0.0360991 0.0392164 1.52257e-19)
(-0.036881 0.0449765 3.7285e-19)
(-0.0313429 0.0476927 2.09208e-19)
(-0.02014 0.0483913 2.18105e-20)
(-0.00380836 0.0478406 -2.49668e-19)
(0.0172131 0.0466163 6.4014e-20)
(0.0425517 0.0451547 3.36572e-19)
(0.0718687 0.0437925 -5.70305e-19)
(0.104829 0.0427979 4.30298e-19)
(0.141073 0.0423948 -3.24185e-19)
(0.180193 0.0427843 2.74989e-19)
(0.22171 0.0441652 -5.92937e-19)
(0.265048 0.0467597 6.51916e-19)
(0.309484 0.0508303 -6.97016e-19)
(0.354005 0.0566791 -1.80887e-19)
(0.397218 0.0649334 5.6628e-19)
(0.438058 0.0781347 -1.92011e-19)
(0.473404 0.0988501 8.45822e-20)
(-0.0130084 0.0121947 -5.61346e-20)
(-0.0284658 0.0276104 5.29828e-19)
(-0.0346968 0.0368689 -2.22246e-21)
(-0.0327483 0.0418988 -3.28906e-19)
(-0.0235085 0.0441353 -2.21137e-19)
(-0.00771686 0.0446433 4.05174e-19)
(0.0140252 0.044212 -1.6048e-19)
(0.041221 0.04343 -2.02148e-20)
(0.0734369 0.042742 3.34428e-19)
(0.110264 0.0424913 -4.15484e-19)
(0.151283 0.0429515 4.5518e-20)
(0.196046 0.0443519 -5.39982e-19)
(0.244056 0.0469015 2.84192e-19)
(0.294765 0.0508152 -8.12802e-19)
(0.347589 0.0563488 1.2936e-18)
(0.401917 0.0638451 -2.37269e-19)
(0.457149 0.0738343 2.45551e-19)
(0.512942 0.0875535 -6.38128e-19)
(0.569643 0.108111 5.93847e-21)
(0.618925 0.13284 7.10448e-19)
(-0.013409 0.0116703 -1.69967e-19)
(-0.0280753 0.0258376 1.46795e-19)
(-0.0320513 0.0340504 -5.4093e-19)
(-0.0266248 0.0383065 8.00115e-19)
(-0.0128275 0.0400918 -5.77672e-19)
(0.00850228 0.0405039 2.98281e-20)
(0.0366787 0.0403455 -6.23012e-19)
(0.071119 0.0402076 4.45455e-19)
(0.11129 0.0405291 -6.36555e-20)
(0.156663 0.0416387 -3.93132e-19)
(0.206679 0.0437846 -2.29338e-19)
(0.260732 0.0471566 2.42394e-19)
(0.318166 0.0519049 1.60122e-19)
(0.378286 0.0581566 -7.07995e-19)
(0.440395 0.0660325 2.55818e-19)
(0.503842 0.0756589 -3.76156e-19)
(0.568082 0.0871848 4.54684e-20)
(0.63288 0.100951 -3.17132e-19)
(0.698855 0.118089 1.26528e-19)
(0.759144 0.135771 -4.70096e-19)
(-0.0136164 0.0110113 4.83907e-19)
(-0.0269145 0.023723 -2.93173e-19)
(-0.0278992 0.0308003 2.41559e-19)
(-0.0181328 0.0342887 -3.04961e-19)
(0.00118681 0.0357132 5.11103e-19)
(0.0290987 0.0361954 -8.92174e-21)
(0.0647975 0.0365407 -6.22482e-20)
(0.107566 0.0373283 -4.61703e-20)
(0.156708 0.0389718 2.84088e-19)
(0.211499 0.0417594 4.83031e-19)
(0.271154 0.0458808 -2.85318e-19)
(0.334818 0.051446 2.77295e-19)
(0.401575 0.0585004 5.06005e-19)
(0.470483 0.067036 -3.54843e-19)
(0.540614 0.0769994 -7.18426e-19)
(0.611107 0.088292 1.31183e-18)
(0.681223 0.100757 -2.34473e-19)
(0.750421 0.114209 -7.56192e-20)
(0.818714 0.12889 8.06097e-19)
(0.881587 0.14464 -1.73041e-19)
(-0.0135736 0.0102133 -7.87502e-19)
(-0.0248086 0.0212803 -5.24208e-19)
(-0.0219468 0.0271779 -2.01231e-19)
(-0.00686509 0.0299681 3.88309e-19)
(0.0190413 0.0311983 -8.76818e-19)
(0.0546491 0.0320012 4.54201e-19)
(0.0989782 0.0331695 5.75755e-20)
(0.151103 0.0352498 5.82341e-20)
(0.210078 0.0386047 -5.95153e-19)
(0.274882 0.0434495 -2.10167e-19)
(0.3444 0.0498785 -3.70338e-19)
(0.417432 0.0578842 3.57529e-19)
(0.492727 0.0673734 1.01129e-19)
(0.569028 0.0781818 1.94389e-20)
(0.645138 0.0900849 4.6313e-19)
(0.71997 0.102804 -4.69878e-19)
(0.792596 0.116002 -1.92189e-20)
(0.862285 0.1293 1.30172e-20)
(0.928624 0.142478 6.52022e-20)
(0.989419 0.157438 3.55717e-19)
(-0.013213 0.00927379 2.50687e-19)
(-0.0215604 0.0185344 6.45582e-19)
(-0.0138761 0.0232653 5.18053e-19)
(0.00760208 0.0255024 -1.78629e-19)
(0.0412368 0.026791 6.21512e-19)
(0.0856828 0.0282568 -5.23597e-20)
(0.139704 0.0306558 -7.3789e-20)
(0.202069 0.0344729 4.39268e-20)
(0.271465 0.0399829 6.01196e-19)
(0.346463 0.0472876 3.53252e-19)
(0.425519 0.0563441 1.03184e-19)
(0.507017 0.06699 6.47753e-21)
(0.589331 0.0789685 -6.82671e-19)
(0.670902 0.0919523 5.93169e-19)
(0.750315 0.105567 1.01129e-19)
(0.826358 0.119407 -1.67237e-19)
(0.898058 0.133051 -7.19498e-19)
(0.964709 0.146091 -5.94141e-20)
(1.02581 0.158061 2.81829e-19)
(1.08111 0.172106 -5.6329e-20)
(-0.0124561 0.00819409 -6.35708e-19)
(-0.0169537 0.0155251 2.6598e-19)
(-0.00335418 0.0191712 -1.29894e-18)
(0.0256893 0.0210849 5.32209e-19)
(0.0682348 0.0227773 -4.24516e-19)
(0.12263 0.0253385 3.1303e-19)
(0.187274 0.0294536 -4.86496e-19)
(0.2605 0.0355028 4.4657e-20)
(0.340505 0.043625 -2.50935e-20)
(0.42534 0.0537584 1.3087e-19)
(0.512961 0.0656778 1.8881e-19)
(0.60131 0.0790339 -3.56771e-19)
(0.688428 0.0933929 1.89052e-19)
(0.772548 0.108276 1.73175e-19)
(0.852186 0.123196 7.44712e-19)
(0.926185 0.137683 -3.24246e-19)
(0.993738 0.151307 -2.13392e-19)
(1.05439 0.163722 3.57886e-19)
(1.10788 0.174428 1.88218e-19)
(1.15512 0.187019 -3.58056e-19)
(-0.0112152 0.00698177 5.56546e-19)
(-0.0107595 0.012312 5.36588e-19)
(0.00995334 0.0150345 1.54947e-19)
(0.04779 0.0169469 6.52582e-19)
(0.100419 0.0194816 3.20793e-19)
(0.165767 0.0236521 -5.78395e-19)
(0.241729 0.0300226 8.76298e-19)
(0.326061 0.0388113 -4.31281e-19)
(0.416342 0.0499606 4.30574e-19)
(0.510025 0.06319 5.56931e-19)
(0.604548 0.0780517 -3.18243e-19)
(0.697476 0.0939908 6.05105e-20)
(0.786638 0.110405 3.36299e-19)
(0.870248 0.1267 2.36454e-19)
(0.946964 0.142331 5.4266e-19)
(1.01591 0.156835 -2.18128e-19)
(1.07666 0.169848 -2.77136e-20)
(1.12919 0.181135 3.38482e-19)
(1.17369 0.190323 -7.32681e-20)
(1.2117 0.200908 8.81752e-24)
(-0.00939577 0.00565318 -2.87233e-19)
(-0.00274375 0.00897886 -1.05568e-18)
(0.026366 0.011029 2.48691e-19)
(0.0742429 0.0133586 -1.8936e-19)
(0.138054 0.0172617 -4.37391e-19)
(0.21516 0.0236174 -3.1256e-19)
(0.302794 0.0328017 -1.93121e-19)
(0.397988 0.044798 4.68911e-19)
(0.49761 0.0592849 -2.78486e-19)
(0.598495 0.0757119 -2.85331e-19)
(0.697636 0.0933843 -3.60345e-19)
(0.792372 0.111549 -5.94714e-20)
(0.880547 0.129475 -4.07341e-20)
(0.960594 0.146513 -8.29758e-19)
(1.03156 0.16214 4.0057e-19)
(1.09306 0.175973 -5.27093e-19)
(1.14521 0.187781 1.63881e-19)
(1.18851 0.197476 -1.24834e-18)
(1.22365 0.204901 3.76692e-19)
(1.25246 0.213137 4.72204e-19)
(-0.00689932 0.00423583 -7.21738e-20)
(0.0073221 0.00563814 5.14619e-19)
(0.0461695 0.00736647 3.30215e-20)
(0.105302 0.0106276 7.94489e-20)
(0.181246 0.0164995 -1.61561e-19)
(0.270625 0.0256494 -2.71738e-21)
(0.369843 0.0381791 -4.18703e-21)
(0.47509 0.0537545 -9.76095e-20)
(0.582491 0.0717249 3.46279e-19)
(0.688338 0.0912369 1.33747e-19)
(0.789356 0.111354 6.06797e-19)
(0.882909 0.13117 -1.65306e-19)
(0.967127 0.149895 1.15144e-19)
(1.04093 0.166913 -1.46396e-20)
(1.10396 0.181802 3.18091e-19)
(1.15648 0.194335 1.93809e-19)
(1.19921 0.204456 4.64837e-19)
(1.23314 0.212242 -7.49464e-19)
(1.25943 0.217766 9.40286e-19)
(1.27997 0.223588 -2.97458e-19)
(-0.0036272 0.00277029 -6.70212e-19)
(0.0196498 0.00243382 -2.0945e-19)
(0.0695953 0.00429696 1.63541e-19)
(0.141108 0.00909405 1.03155e-19)
(0.229906 0.017588 1.0595e-19)
(0.33169 0.030135 1.07309e-19)
(0.441888 0.0464621 -2.68807e-19)
(0.55579 0.065834 -1.11025e-19)
(0.66884 0.0872231 3.452e-20)
(0.776976 0.109473 -3.28992e-19)
(0.876929 0.131453 -1.48554e-19)
(0.966397 0.152183 8.97225e-19)
(1.04409 0.170913 -2.31603e-19)
(1.10962 0.187154 -3.18022e-19)
(1.16339 0.200664 -1.50031e-19)
(1.20631 0.211417 1.04382e-19)
(1.23967 0.21955 1.26123e-19)
(1.26489 0.225302 -6.03939e-19)
(1.28341 0.228935 8.7164e-19)
(1.29709 0.232504 -7.54463e-19)
(0.000515242 0.00131141 -7.56322e-20)
(0.0344215 -0.00045778 2.16319e-20)
(0.0967992 0.00210616 -2.77836e-20)
(0.181658 0.00912091 4.05078e-19)
(0.283721 0.0209121 2.24623e-20)
(0.397589 0.0374057 1.48881e-19)
(0.517615 0.0578481 -3.09543e-19)
(0.638224 0.0810332 -1.12589e-20)
(0.754364 0.105544 4.29842e-19)
(0.861915 0.129965 5.97889e-20)
(0.957954 0.153062 -3.73901e-19)
(1.04083 0.173894 -3.28697e-20)
(1.11007 0.191855 -3.05912e-19)
(1.16613 0.206667 3.05009e-19)
(1.21015 0.21832 4.21883e-19)
(1.24368 0.227005 -4.64414e-20)
(1.26841 0.233043 -5.62046e-20)
(1.28604 0.236803 1.71419e-19)
(1.29816 0.238678 -5.48906e-19)
(1.30648 0.240296 4.84074e-19)
(0.005614 -7.12765e-05 7.62167e-20)
(0.051776 -0.00282962 -4.90949e-19)
(0.12784 0.00110837 1.31329e-19)
(0.226784 0.0110789 -4.08076e-19)
(0.342144 0.0268251 1.40393e-19)
(0.467278 0.0477112 -5.21419e-19)
(0.595451 0.0724044 2.10382e-19)
(0.720385 0.0991925 -6.705e-20)
(0.836833 0.126304 -2.75754e-21)
(0.940988 0.152162 6.84189e-20)
(1.03063 0.17555 -2.48955e-19)
(1.10503 0.195686 -3.5493e-19)
(1.16466 0.212208 -7.25046e-20)
(1.21084 0.225104 -3.25414e-20)
(1.24538 0.234613 -8.24707e-20)
(1.2703 0.241132 -2.67826e-20)
(1.28755 0.245126 -8.01304e-20)
(1.29894 0.247053 -6.93545e-20)
(1.30602 0.247379 -2.05452e-19)
(1.31036 0.247394 3.25325e-19)
(0.0117415 -0.001294 1.82787e-19)
(0.0717958 -0.00444816 -2.03072e-19)
(0.162663 0.0016356 4.37248e-19)
(0.276137 0.0153273 -1.88922e-19)
(0.404395 0.0356243 5.05003e-19)
(0.539479 0.0611963 7.36558e-21)
(0.673674 0.0900616 2.53708e-19)
(0.800286 0.120016 -6.81294e-20)
(0.914272 0.149027 2.83375e-19)
(1.01254 0.175489 2.03019e-20)
(1.09387 0.198345 6.7317e-19)
(1.15862 0.217086 -4.64287e-19)
(1.20823 0.231656 6.27179e-20)
(1.24481 0.242332 1.19356e-19)
(1.27067 0.24959 6.21791e-19)
(1.2881 0.25399 -2.23297e-19)
(1.29917 0.256097 -4.41281e-20)
(1.30563 0.256411 -2.32831e-19)
(1.30893 0.255423 -2.42183e-20)
(1.31041 0.254166 1.16253e-19)
(0.0189514 -0.00226013 -8.75025e-20)
(0.0944943 -0.00506023 2.53131e-19)
(0.201082 0.00402323 -2.59661e-19)
(0.329183 0.0221929 1.02363e-19)
(0.469489 0.047528 -1.22818e-19)
(0.612755 0.0778886 4.5035e-19)
(0.750535 0.110622 -6.29051e-20)
(0.87612 0.143108 1.54299e-19)
(0.985114 0.173196 -9.10356e-20)
(1.07549 0.199413 -2.49899e-21)
(1.14726 0.220995 1.03512e-19)
(1.20189 0.237783 -8.01605e-20)
(1.24172 0.250064 2.07727e-19)
(1.26945 0.258388 -1.03609e-19)
(1.28772 0.263425 -4.54438e-19)
(1.29894 0.26585 4.51359e-19)
(1.3051 0.266278 -2.02839e-19)
(1.30781 0.26521 1.61908e-19)
(1.30835 0.263135 2.79955e-19)
(1.30785 0.260883 1.14942e-19)
(0.0272736 -0.00286242 2.17851e-19)
(0.119805 -0.00440213 -4.49049e-19)
(0.242777 0.00859332 8.58559e-20)
(0.385216 0.0319487 -6.23897e-20)
(0.53628 0.0626583 -2.52063e-19)
(0.685605 0.0976969 -1.9782e-19)
(0.824387 0.133782 -3.8959e-20)
(0.946386 0.168019 -3.52473e-19)
(1.04827 0.198316 -2.15142e-20)
(1.12937 0.223493 -6.54474e-20)
(1.19097 0.243183 -1.77435e-19)
(1.23562 0.257627 -3.94647e-20)
(1.26636 0.26744 -1.35548e-19)
(1.28629 0.273412 -2.25708e-19)
(1.29819 0.27635 2.30782e-19)
(1.30441 0.276994 3.15471e-20)
(1.30679 0.275961 6.28541e-20)
(1.30674 0.273725 -2.64879e-19)
(1.30532 0.270757 -6.76227e-21)
(1.30348 0.267726 -4.0747e-19)
(0.0367094 -0.00298621 2.38393e-19)
(0.147577 -0.00221061 1.59138e-19)
(0.287292 0.015637 -2.56994e-19)
(0.443376 0.0447947 4.01296e-19)
(0.603523 0.0810322 -4.33771e-20)
(0.756553 0.120423 1.49999e-19)
(0.893794 0.159169 5.19507e-20)
(1.00996 0.194291 1.8389e-19)
(1.10316 0.223948 -1.44007e-19)
(1.17418 0.247392 4.79443e-20)
(1.22561 0.264723 -4.59792e-20)
(1.26084 0.276584 -2.01163e-20)
(1.28347 0.283886 3.83872e-20)
(1.29677 0.287597 -7.06058e-20)
(1.3035 0.288608 -2.16199e-20)
(1.30582 0.287673 -6.62142e-20)
(1.30537 0.285381 -1.07481e-19)
(1.30333 0.282158 6.9439e-20)
(1.30056 0.27845 -9.49485e-20)
(1.29782 0.274791 4.10488e-19)
(0.0472282 -0.00251341 -1.18888e-19)
(0.177565 0.00176487 -3.37236e-19)
(0.334044 0.0253972 -4.49197e-20)
(0.502695 0.0608448 -1.23492e-20)
(0.669946 0.102562 -1.51291e-19)
(0.824246 0.14578 -2.48496e-19)
(0.957597 0.186371 8.12988e-20)
(1.06613 0.221491 -1.11718e-19)
(1.1496 0.249733 -1.25062e-19)
(1.21033 0.270884 6.96394e-20)
(1.25199 0.285536 -5.25905e-20)
(1.27871 0.294707 -1.06299e-19)
(1.29433 0.299547 -3.49134e-21)
(1.30216 0.301141 7.1991e-20)
(1.30479 0.300412 -7.3293e-20)
(1.30415 0.298088 1.01707e-19)
(1.30164 0.294706 2.74128e-20)
(1.29819 0.290637 6.88354e-20)
(1.29452 0.286305 1.33869e-19)
(1.29119 0.282118 -1.14638e-19)
(0.0587644 -0.00132714 1.13487e-19)
(0.20944 0.00774948 -9.8627e-21)
(0.382345 0.038054 5.11108e-20)
(0.562133 0.0801186 -6.92524e-20)
(0.734315 0.127063 5.79121e-21)
(0.887514 0.173421 2.40514e-19)
(1.01495 0.214972 -1.5792e-19)
(1.11453 0.249237 6.69147e-20)
(1.18778 0.275396 5.90053e-20)
(1.23843 0.293831 -1.656e-19)
(1.27109 0.305616 1.55576e-19)
(1.29032 0.312091 1.39774e-21)
(1.30007 0.314579 -1.09492e-19)
(1.3035 0.314223 1.31939e-19)
(1.30296 0.311931 -5.2334e-20)
(1.30013 0.308382 3.99954e-20)
(1.29613 0.304044 -4.47394e-20)
(1.29173 0.299233 -1.79404e-20)
(1.28746 0.294355 -1.56243e-19)
(1.28376 0.289697 4.78972e-20)
(0.0712166 0.000683095 -3.81546e-20)
(0.24279 0.0159307 1.02643e-19)
(0.431423 0.0537123 1.60461e-20)
(0.620636 0.10254 6.72062e-20)
(0.7955 0.15427 3.2112e-20)
(0.945416 0.20296 1.50589e-20)
(1.06532 0.244571 8.52656e-20)
(1.15512 0.277203 -1.03265e-20)
(1.21811 0.300735 3.75913e-20)
(1.25926 0.316163 6.03642e-20)
(1.28385 0.325 2.91186e-20)
(1.29668 0.328844 2.09025e-20)
(1.30162 0.329121 8.47386e-20)
(1.3016 0.326981 -8.20306e-20)
(1.29868 0.323286 1.75978e-20)
(1.29425 0.318642 -1.64854e-20)
(1.28923 0.313448 2.54826e-20)
(1.28419 0.307967 2.13495e-20)
(1.27955 0.302593 4.45445e-20)
(1.27562 0.297493 1.83843e-21)
(0.0844485 0.00361622 2.26271e-20)
(0.277131 0.0264474 2.0669e-20)
(0.480457 0.072395 -2.86415e-20)
(0.677178 0.127944 1.79016e-20)
(0.852515 0.183855 1.01219e-20)
(0.997254 0.233999 -3.14996e-20)
(1.10844 0.274799 1.03905e-20)
(1.1881 0.305121 1.88915e-21)
(1.24116 0.325608 1.79165e-20)
(1.2736 0.337852 -4.80638e-20)
(1.29116 0.343744 -1.49932e-22)
(1.29866 0.345063 1.33192e-20)
(1.29975 0.343282 -1.06158e-20)
(1.29708 0.339513 1.07379e-20)
(1.29241 0.334545 2.80255e-20)
(1.28686 0.328907 -1.5951e-20)
(1.28114 0.322927 4.43992e-21)
(1.27571 0.316823 1.74742e-20)
(1.27085 0.310983 -2.87876e-20)
(1.26682 0.305446 1.38295e-20)
(0.0982918 0.00755448 6.29006e-20)
(0.311929 0.0393808 -3.42619e-20)
(0.528608 0.0940394 4.0383e-20)
(0.730806 0.156082 -3.00592e-20)
(0.904548 0.215442 -1.34904e-20)
(1.04256 0.266137 4.08684e-21)
(1.14427 0.305323 -1.32436e-20)
(1.21381 0.332772 4.76283e-20)
(1.25755 0.349914 -3.96751e-20)
(1.28223 0.358892 9.31597e-21)
(1.29381 0.361899 -6.93915e-21)
(1.29695 0.360826 -4.52449e-20)
(1.29505 0.357135 4.39006e-20)
(1.2904 0.35187 1.6727e-20)
(1.28447 0.345734 -1.66332e-20)
(1.27816 0.339175 3.90702e-20)
(1.27202 0.332456 -5.71239e-22)
(1.26637 0.325757 -3.7914e-20)
(1.26141 0.319464 2.80801e-20)
(1.25734 0.313485 8.87233e-21)
(0.112549 0.0125589 -2.20476e-20)
(0.34661 0.0547485 6.3904e-20)
(0.575052 0.1185 7.39146e-20)
(0.780673 0.18664 -3.49102e-20)
(0.950968 0.248628 6.07209e-20)
(1.08108 0.298986 9.61558e-20)
(1.17296 0.335844 -5.31493e-21)
(1.23272 0.359972 -1.65451e-20)
(1.26793 0.373578 8.16408e-20)
(1.28585 0.379283 3.9833e-20)
(1.29244 0.379504 -7.24291e-21)
(1.29213 0.376178 5.945e-20)
(1.28795 0.370714 -6.38064e-20)
(1.28187 0.364065 9.94013e-20)
(1.27509 0.356842 -1.6582e-20)
(1.2683 0.349414 4.75878e-20)
(1.26192 0.341984 8.60273e-21)
(1.25619 0.334707 3.40702e-20)
(1.25123 0.327965 -3.24168e-20)
(1.2472 0.32153 7.85668e-21)
(0.127 0.0186653 -3.43168e-20)
(0.380585 0.0725003 8.11481e-20)
(0.619009 0.145551 6.03571e-20)
(0.826053 0.219245 -9.16446e-21)
(0.991325 0.282993 9.4242e-20)
(1.11273 0.332177 -7.05649e-20)
(1.19476 0.366094 -5.56164e-21)
(1.24532 0.386567 6.22465e-20)
(1.27292 0.396532 1.97592e-20)
(1.28508 0.399013 2.77208e-20)
(1.28762 0.396571 -4.09644e-20)
(1.28463 0.39113 1.06973e-19)
(1.27878 0.384015 2.00186e-20)
(1.27172 0.376075 -9.48471e-20)
(1.26439 0.367825 1.38824e-19)
(1.25735 0.359564 -1.63869e-19)
(1.25089 0.351441 -7.53435e-20)
(1.24519 0.343594 1.24898e-20)
(1.2403 0.3364 7.31676e-20)
(1.23638 0.329495 -1.3825e-19)
(0.141408 0.0258811 -7.69374e-20)
(0.413268 0.0925184 -1.81676e-19)
(0.659766 0.174896 -1.57299e-19)
(0.86636 0.253485 -2.14188e-19)
(1.02533 0.318114 -1.21688e-19)
(1.13757 0.365356 -2.52403e-19)
(1.21002 0.395831 3.20795e-20)
(1.25212 0.412416 -1.34309e-19)
(1.27307 0.418714 -1.47828e-20)
(1.28043 0.41806 2.21238e-20)