/*--------------------------------*- C++ -*----------------------------------*\
  =========                 |
  \\      /  F ield         | OpenFOAM: The Open Source CFD Toolbox
   \\    /   O peration     | Website:  https://openfoam.org
    \\  /    A nd           | Version:  6.0
     \\/     M anipulation  |
\*---------------------------------------------------------------------------*/
FoamFile
{
    version     2.0;
    format      ascii;
    class       volVectorField;
    location    "68";
    object      U;
}
// * * * * * * * * * * * * * * * * * * * * * * * * * * * * * * * * * * * * * //

dimensions      [0 1 -1 0 0 0 0];

internalField   nonuniform List<vector> 
4000
(
(0.108782 0.00787395 6.67141e-20)
(0.338376 0.0403699 -3.63995e-20)
(0.566261 0.0951523 4.2899e-20)
(0.774733 0.156179 -3.19016e-20)
(0.950235 0.213334 -1.42401e-20)
(1.08658 0.260966 4.36873e-21)
(1.18453 0.296714 -1.38831e-20)
(1.24942 0.320786 4.97075e-20)
(1.28848 0.334913 -4.12014e-20)
(1.30894 0.341384 9.66871e-21)
(1.31693 0.342413 -7.18889e-21)
(1.31712 0.339844 -4.60932e-20)
(1.31283 0.335055 4.45033e-20)
(1.30621 0.329003 1.67436e-20)
(1.29862 0.322315 -1.6605e-20)
(1.29089 0.315382 3.86645e-20)
(1.28348 0.30842 -6.82894e-22)
(1.27669 0.301586 -3.69041e-20)
(1.27065 0.295232 2.71043e-20)
(1.26551 0.289202 8.38428e-21)
(0.123245 0.0132646 -2.34251e-20)
(0.373028 0.0565839 6.75565e-20)
(0.611924 0.120547 7.8147e-20)
(0.822832 0.187523 -3.68933e-20)
(0.994002 0.247093 6.40139e-20)
(1.12189 0.294243 1.00938e-19)
(1.20985 0.32764 -5.63005e-21)
(1.26513 0.348487 -1.71647e-20)
(1.29606 0.359251 8.45396e-20)
(1.31023 0.362654 4.1035e-20)
(1.31371 0.361097 -7.29537e-21)
(1.31088 0.356442 6.05726e-20)
(1.30466 0.350008 -6.42323e-20)
(1.29689 0.342662 9.99138e-20)
(1.28867 0.334942 -1.65542e-20)
(1.28062 0.327168 4.68922e-20)
(1.27312 0.319505 8.21964e-21)
(1.26636 0.312088 3.29087e-20)
(1.26041 0.305267 -3.13111e-20)
(1.2554 0.298759 7.56662e-21)
(0.137805 0.019763 -3.63536e-20)
(0.406729 0.075156 8.52291e-20)
(0.654794 0.148461 6.33868e-20)
(0.866193 0.220825 -9.59322e-21)
(1.0316 0.28196 9.85692e-20)
(1.15039 0.327828 -7.40417e-20)
(1.2285 0.358302 -5.45455e-21)
(1.27484 0.375615 6.45346e-20)
(1.29857 0.382919 2.03512e-20)
(1.30743 0.383291 2.84617e-20)
(1.30729 0.379244 -4.18823e-20)
(1.30215 0.372615 1.08443e-19)
(1.29455 0.36463 1.99162e-20)
(1.28603 0.356057 -9.50687e-20)
(1.27745 0.347347 1.37773e-19)
(1.26929 0.338755 -1.61542e-19)
(1.26182 0.3304 -7.31971e-20)
(1.25518 0.322402 1.25467e-20)
(1.2494 0.315111 7.03447e-20)
(1.24457 0.308109 -1.3211e-19)
(0.152222 0.0273672 -8.08327e-20)
(0.438906 0.095949 -1.90965e-19)
(0.694201 0.178585 -1.65655e-19)
(0.904295 0.255666 -2.24325e-19)
(1.0628 0.317513 -1.27288e-19)
(1.1722 0.361372 -2.62961e-19)
(1.24083 0.388456 3.34768e-20)
(1.27903 0.402022 -1.3857e-19)
(1.29652 0.405837 -1.52666e-20)
(1.30102 0.403252 2.27078e-20)
(1.29805 0.396828 -4.95537e-20)
(1.29122 0.38833 6.14213e-20)
(1.28271 0.378879 1.08809e-19)
(1.27376 0.369135 -1.53048e-19)
(1.26504 0.359469 2.42749e-20)
(1.25692 0.350074 6.98208e-20)
(1.24959 0.341033 1.16126e-19)
(1.24316 0.332457 -1.00174e-19)
(1.23759 0.32469 -4.65883e-21)
(1.233 0.317178 1.1585e-19)
(0.166253 0.0360459 -1.51697e-19)
(0.469016 0.118763 4.17076e-19)
(0.729565 0.210549 -7.31898e-20)
(0.936749 0.291602 9.74255e-20)
(1.08753 0.353329 -9.4717e-20)
(1.1875 0.394541 2.91616e-19)
(1.24722 0.417869 -4.61645e-20)
(1.27818 0.427558 2.75156e-20)
(1.29038 0.427912 -1.36119e-20)
(1.29138 0.42247 4.468e-20)
(1.28629 0.413785 2.88033e-20)
(1.27831 0.40352 3.60884e-20)
(1.26926 0.392675 -1.02488e-19)
(1.26015 0.381808 1.49283e-19)
(1.25148 0.371211 -1.13172e-19)
(1.24352 0.361026 2.11774e-20)
(1.23644 0.351304 -7.19117e-20)
(1.23028 0.342153 1.49964e-20)
(1.22498 0.333905 1.67694e-20)
(1.22069 0.325877 -1.57898e-19)
(0.179652 0.0457372 1.03251e-20)
(0.496561 0.14334 -2.08968e-19)
(0.760407 0.243941 1.1608e-19)
(0.963296 0.328171 -4.02413e-19)
(1.1058 0.388998 1.95196e-19)
(1.19657 0.427018 -3.32865e-19)
(1.24809 0.446321 -2.59182e-19)
(1.27272 0.452081 -9.82831e-21)
(1.28055 0.449043 -8.75424e-20)
(1.27883 0.440864 -2.71979e-19)
(1.27225 0.430037 -3.38542e-20)
(1.26357 0.4181 -2.59184e-19)
(1.25431 0.405928 4.70007e-20)
(1.24526 0.393979 -3.71003e-20)
(1.23679 0.382475 2.17315e-20)
(1.22913 0.371513 -1.70919e-19)
(1.22237 0.361116 9.43709e-21)
(1.21655 0.351395 3.4347e-20)
(1.21158 0.342665 -7.79274e-20)
(1.20764 0.334118 6.80197e-20)
(0.192184 0.0563501 -8.56972e-20)
(0.521097 0.169373 3.80946e-19)
(0.78635 0.278315 3.39771e-21)
(0.983791 0.364908 -3.28676e-19)
(1.11773 0.424118 2.48733e-19)
(1.1997 0.4585 1.04189e-19)
(1.24382 0.473601 2.15082e-20)
(1.26305 0.47544 -1.7468e-19)
(1.26738 0.469117 2.84139e-19)
(1.26365 0.458334 -1.65875e-19)
(1.25611 0.445483 6.0135e-20)
(1.24712 0.431965 2.79357e-19)
(1.23793 0.418527 -2.50503e-19)
(1.22913 0.405535 2.7408e-19)
(1.22102 0.393148 -1.77895e-19)
(1.21374 0.381422 -3.48282e-20)
(1.20739 0.370361 4.15364e-20)
(1.20197 0.360077 5.2143e-20)
(1.19739 0.350867 7.17357e-20)
(1.19386 0.341809 4.30679e-20)
(0.203628 0.0677659 3.34726e-20)
(0.542247 0.196513 -3.40591e-19)
(0.807122 0.313201 6.09169e-20)
(0.998193 0.401346 7.91171e-19)
(1.12351 0.458302 -7.30127e-20)
(1.19723 0.488699 2.18132e-19)
(1.23481 0.499503 1.36396e-19)
(1.24953 0.497486 2.29208e-20)
(1.25115 0.488011 -1.57555e-19)
(1.24606 0.474763 2.58192e-19)
(1.23803 0.460006 -2.98312e-20)
(1.22908 0.444994 3.89985e-19)
(1.22019 0.430351 1.49436e-19)
(1.21183 0.416355 9.30571e-20)
(1.20419 0.403111 -1.94082e-19)
(1.19739 0.390639 4.12495e-20)
(1.19152 0.378928 1.49466e-19)
(1.18657 0.368093 3.8033e-20)
(1.18244 0.358409 -1.79564e-19)
(1.17938 0.348856 -4.45615e-20)
(0.213782 0.0798408 -1.8927e-19)
(0.559705 0.224377 6.08949e-19)
(0.822551 0.34812 -3.31353e-19)
(1.00656 0.43703 -3.04353e-19)
(1.12339 0.491181 -2.65275e-19)
(1.18952 0.51734 -2.23231e-19)
(1.22143 0.523826 -2.74736e-19)
(1.23251 0.518063 3.43964e-19)
(1.23215 0.505589 -2.44933e-19)
(1.22626 0.490024 -1.97027e-20)
(1.21815 0.473478 -2.0369e-21)
(1.20953 0.457057 -4.67431e-20)
(1.20116 0.441268 -1.19842e-19)
(1.19338 0.426311 -1.32992e-19)
(1.18633 0.412239 -7.08772e-21)
(1.18011 0.399042 -2.93973e-20)
(1.17479 0.3867 -7.18508e-20)
(1.17038 0.375332 -2.19122e-20)
(1.16675 0.365186 2.42663e-20)
(1.16422 0.355164 -1.50805e-19)
(0.222469 0.0924095 3.27747e-19)
(0.573243 0.252563 3.40661e-19)
(0.832562 0.382589 -2.11068e-19)
(1.00901 0.471517 1.30669e-19)
(1.11765 0.522402 2.24079e-19)
(1.17693 0.54416 -4.59511e-20)
(1.20404 0.546375 5.5328e-20)
(1.21228 0.537012 6.19543e-20)
(1.21061 0.52171 1.0297e-19)
(1.2044 0.503977 -1.20504e-19)
(1.19658 0.48576 5.89656e-20)
(1.18855 0.468014 -4.03228e-20)
(1.18089 0.451141 1.79834e-19)
(1.17384 0.435267 7.76138e-20)
(1.16749 0.420401 -1.77833e-19)
(1.16194 0.406509 9.7202e-20)
(1.15725 0.393559 4.80352e-20)
(1.15343 0.381677 -8.71437e-20)
(1.15036 0.371087 2.34977e-19)
(1.14844 0.360635 -1.7289e-19)
(0.229541 0.105289 -2.40541e-19)
(0.582705 0.280651 -3.12292e-19)
(0.837165 0.416132 2.19094e-19)
(1.00577 0.504387 -2.0192e-19)
(1.10663 0.551635 -1.92077e-20)
(1.15982 0.568915 -2.20587e-19)
(1.18298 0.566959 1.83627e-19)
(1.18913 0.554175 3.37043e-19)
(1.18673 0.536227 -4.69004e-19)
(1.18066 0.51648 2.4174e-20)
(1.17344 0.496707 1.82288e-20)
(1.16622 0.477723 -9.30301e-20)
(1.15945 0.459828 6.48248e-20)
(1.15327 0.443086 -2.69464e-20)
(1.14774 0.427466 1.78114e-19)
(1.14293 0.41291 -1.91694e-19)
(1.13895 0.399382 -6.50651e-20)
(1.13579 0.38701 1.70031e-19)
(1.13335 0.375997 -2.50456e-19)
(1.13209 0.365165 1.57846e-19)
(0.234883 0.118282 4.98751e-19)
(0.588013 0.308222 4.41427e-19)
(0.836453 0.448289 -7.43481e-20)
(0.99707 0.535241 -9.30825e-21)
(1.09067 0.578574 -2.24404e-19)
(1.13857 0.591371 9.56537e-20)
(1.15858 0.585397 4.6692e-19)
(1.16333 0.569394 -4.10015e-19)
(1.16073 0.548991 2.58242e-19)
(1.15516 0.527385 -2.25855e-20)
(1.14881 0.506173 1.57142e-19)
(1.14262 0.486036 -3.95336e-20)
(1.1369 0.467186 9.37048e-20)
(1.13172 0.449628 1.19733e-19)
(1.12712 0.433298 -6.7362e-20)
(1.12316 0.418116 8.02936e-20)
(1.11995 0.404039 -1.10909e-19)
(1.1175 0.391201 2.83194e-19)
(1.11577 0.379788 -1.73921e-19)
(1.11524 0.368629 1.24247e-19)
(0.238412 0.131184 -2.41413e-19)
(0.589161 0.334858 -4.51546e-19)
(0.83059 0.478621 -3.12023e-19)
(0.983232 0.563709 -2.18927e-20)
(1.07015 0.602933 7.4226e-20)
(1.11354 0.611314 -4.03374e-20)
(1.13115 0.601515 -2.64639e-19)
(1.13512 0.582516 -1.15147e-19)
(1.13278 0.559858 -2.09672e-19)
(1.12805 0.536548 -1.0097e-19)
(1.12282 0.514013 5.08377e-20)
(1.11783 0.49281 -2.41499e-19)
(1.11331 0.473072 -5.50215e-20)
(1.10927 0.454755 -5.33892e-20)
(1.10571 0.437762 -1.70572e-19)
(1.10269 0.421993 7.56402e-20)
(1.10032 0.4074 3.11136e-21)
(1.09866 0.394113 6.69877e-20)
(1.09769 0.382312 -2.87101e-20)
(1.09797 0.370881 -9.42966e-20)
(0.240079 0.143786 5.57399e-19)
(0.58621 0.360157 4.86585e-19)
(0.819802 0.506718 5.99618e-19)
(0.964598 0.589453 -6.24245e-20)
(1.04545 0.624458 -2.14912e-19)
(1.08509 0.628548 6.39937e-19)
(1.10101 0.615154 -3.15886e-19)
(1.10475 0.593398 3.48929e-19)
(1.10306 0.568686 -6.35052e-20)
(1.09946 0.54383 2.12058e-19)
(1.09555 0.520088 2.39675e-20)
(1.09193 0.497906 9.79782e-20)
(1.08875 0.477347 -2.17514e-20)
(1.08597 0.458327 9.58705e-20)
(1.08358 0.44072 -7.33627e-20)
(1.08159 0.424407 7.48864e-21)
(1.08014 0.409328 3.7284e-20)
(1.07933 0.395608 5.62928e-20)
(1.0792 0.383425 -6.09018e-21)
(1.08033 0.371779 2.48564e-20)
(0.239872 0.155877 -1.70372e-19)
(0.579284 0.383734 -4.76924e-19)
(0.804372 0.532201 -2.90238e-19)
(0.941545 0.612169 -5.05603e-19)
(1.01697 0.642917 5.4034e-19)
(1.0536 0.642898 -3.76365e-19)
(1.06845 0.626166 2.37398e-19)
(1.07244 0.601905 -8.39958e-20)
(1.07176 0.575349 -9.85889e-20)
(1.06953 0.549104 -6.9106e-20)
(1.06711 0.524272 3.63211e-20)
(1.06499 0.501194 4.26683e-20)
(1.06327 0.47988 2.96117e-20)
(1.06189 0.460211 -4.58321e-20)
(1.06077 0.442037 -2.51916e-20)
(1.05994 0.425221 8.35577e-20)
(1.0595 0.409687 -1.7358e-20)
(1.05961 0.395543 -1.90464e-20)
(1.06036 0.38299 6.89742e-21)
(1.06235 0.371213 7.61749e-21)
(0.237811 0.167255 7.45174e-19)
(0.568565 0.405231 3.49195e-19)
(0.784629 0.554729 3.27137e-19)
(0.914478 0.631588 -1.92221e-19)
(0.985119 0.658113 2.2404e-20)
(1.01941 0.65421 2.70867e-19)
(1.03377 0.634425 3.40737e-20)
(1.03844 0.607922 6.79208e-20)
(1.03906 0.579734 7.28032e-20)
(1.03838 0.55226 1.12055e-21)
(1.03759 0.526452 3.11225e-20)
(1.03708 0.502563 -1.06561e-20)
(1.03693 0.480554 -2.12533e-20)
(1.03705 0.460281 -3.53119e-20)
(1.03735 0.441577 1.38393e-20)
(1.0378 0.424289 4.58646e-21)
(1.03848 0.408323 -7.21831e-21)
(1.03957 0.393758 1.38116e-21)
(1.04126 0.380844 2.50518e-20)
(1.04417 0.369041 -2.02228e-20)
(0.23395 0.177724 -5.28388e-19)
(0.554288 0.424324 -4.56435e-19)
(0.760942 0.574001 2.1569e-19)
(0.883821 0.647478 -2.63045e-19)
(0.95031 0.669874 -2.03961e-20)
(0.982894 0.662355 3.0223e-20)
(0.997275 0.639821 -3.97437e-20)
(1.00298 0.611348 -3.58608e-20)
(1.00513 0.581745 -6.2353e-20)
(1.00616 0.553206 -4.04537e-20)
(1.0071 0.526542 -2.12011e-20)
(1.00828 0.501925 -6.80344e-22)
(1.00977 0.479278 5.35875e-21)
(1.01149 0.458436 -2.16126e-21)
(1.01333 0.439224 7.39869e-21)
(1.01521 0.421481 -3.94981e-20)
(1.01716 0.405089 -3.86395e-20)
(1.01933 0.390071 -4.34288e-20)
(1.0221 0.376717 -3.56849e-22)
(1.02617 0.364904 6.95996e-20)
(0.228373 0.187103 4.8355e-19)
(0.536728 0.440721 2.01047e-20)
(0.733713 0.589757 -4.84783e-20)
(0.850016 0.659645 5.63328e-20)
(0.912958 0.678063 1.72943e-19)
(0.944408 0.667228 -1.29863e-19)
(0.959246 0.642267 4.04927e-20)
(0.966288 0.612106 -6.23371e-20)
(0.970158 0.581313 7.93041e-22)
(0.973013 0.551877 -1.01388e-20)
(0.975742 0.524478 -3.62415e-20)
(0.978654 0.499217 -3.26027e-20)
(0.981814 0.475979 3.40095e-20)
(0.985183 0.454589 -1.47588e-20)
(0.988669 0.43487 -1.52484e-19)
(0.99215 0.416671 1.47763e-19)
(0.995553 0.399848 -9.18798e-20)
(0.999061 0.384293 -5.96498e-20)
(1.00328 0.370225 7.26681e-20)
(1.00902 0.358168 -9.06102e-20)
(0.22119 0.195227 -1.02406e-19)
(0.516202 0.454171 1.10166e-19)
(0.703369 0.601782 6.51177e-20)
(0.813515 0.667934 -9.78676e-20)
(0.873484 0.682572 4.05401e-20)
(0.904314 0.668751 -7.22106e-20)
(0.919989 0.641701 -1.49357e-20)
(0.928613 0.610144 1.08097e-20)
(0.934346 0.578393 -5.12881e-21)
(0.939094 0.54824 -9.26689e-20)
(0.943635 0.520238 1.8692e-20)
(0.948254 0.494414 9.9188e-22)
(0.953046 0.470618 1.11839e-19)
(0.958029 0.448655 -2.93686e-19)
(0.963169 0.428351 2.73585e-19)
(0.968339 0.409587 1.47172e-19)
(0.973407 0.392211 -3.21303e-20)
(0.978644 0.375895 2.33889e-20)
(0.984956 0.360646 2.64991e-19)
(0.992639 0.347989 -1.10401e-19)
(0.212538 0.20195 -2.9868e-20)
(0.493056 0.464461 7.24019e-20)
(0.670358 0.609902 -7.3823e-20)
(0.77478 0.672227 9.79163e-20)
(0.832312 0.683322 -2.59282e-20)
(0.862977 0.666869 1.12306e-20)
(0.879811 0.638083 1.99222e-20)
(0.890213 0.605435 -6.08687e-20)
(0.897912 0.572978 6.10641e-20)
(0.904586 0.542312 4.46349e-20)
(0.910918 0.513869 2.47254e-20)
(0.91717 0.487603 2.4695e-21)
(0.923455 0.463306 9.68102e-20)
(0.929851 0.440736 -9.88936e-20)
(0.936393 0.41968 1.16966e-19)
(0.943006 0.400004 -2.43896e-19)
(0.949604 0.381505 2.74472e-19)
(0.956645 0.363543 -2.36257e-19)
(0.965115 0.345865 -1.58028e-19)
(0.973881 0.331921 2.7321e-19)
(0.202576 0.207149 3.05385e-20)
(0.46766 0.471422 -1.18234e-20)
(0.635141 0.613986 -7.23759e-22)
(0.734274 0.672439 -3.43329e-20)
(0.789864 0.680263 3.18932e-21)
(0.820766 0.661549 6.71469e-21)
(0.839027 0.63139 -1.46832e-19)
(0.851364 0.597969 9.75508e-20)
(0.861104 0.565076 9.95064e-20)
(0.869724 0.534137 -1.41721e-19)
(0.877817 0.505479 1.68958e-19)
(0.885613 0.478992 -6.39906e-20)
(0.893218 0.454417 1.28554e-19)
(0.900711 0.431452 -2.04807e-19)
(0.908143 0.409801 4.27143e-19)
(0.915476 0.389211 -9.57532e-20)
(0.922735 0.369267 -2.64634e-20)
(0.930592 0.34871 2.83351e-19)
(0.939802 0.32562 -1.37659e-19)
(0.945371 0.30253 6.26638e-20)
(0.191477 0.21072 -4.99514e-20)
(0.440402 0.474927 4.66601e-20)
(0.598186 0.613944 -3.2094e-20)
(0.692465 0.668522 3.63212e-20)
(0.746564 0.67337 -1.99814e-20)
(0.77805 0.65278 -1.54319e-19)
(0.797962 0.621615 2.35075e-19)
(0.812358 0.587741 1.65204e-20)
(0.824199 0.554693 -2.53727e-20)
(0.834785 0.523735 5.40865e-21)
(0.844638 0.495114 7.94066e-20)
(0.853957 0.468687 1.37156e-19)
(0.862826 0.44419 8.1796e-20)
(0.871283 0.421338 -1.9513e-19)
(0.879318 0.399877 -5.67782e-20)
(0.886876 0.379613 -8.70716e-21)
(0.894065 0.36028 3.74092e-20)
(0.90148 0.34119 5.34657e-21)
(0.909043 0.321643 4.21674e-19)
(0.912101 0.303754 -2.94669e-19)
(0.179425 0.212583 1.43476e-19)
(0.411679 0.474882 -1.51844e-20)
(0.559962 0.609724 -1.10216e-19)
(0.649813 0.660458 3.46507e-19)
(0.702829 0.662645 7.3106e-20)
(0.735195 0.640565 -2.15159e-19)
(0.756938 0.608762 2.03552e-19)
(0.773488 0.574755 -4.73223e-20)
(0.787474 0.541826 1.81523e-19)
(0.800045 0.511095 8.42961e-20)
(0.811674 0.482736 -3.98291e-19)
(0.822551 0.456581 -4.57459e-20)
(0.832764 0.432358 5.56631e-19)
(0.84235 0.409793 -6.81794e-19)
(0.851291 0.388641 6.30567e-19)
(0.859522 0.368703 2.19084e-19)
(0.867116 0.349697 -7.77824e-19)
(0.874475 0.331054 3.76677e-19)
(0.881408 0.312481 -7.70668e-20)
(0.884439 0.296361 9.06111e-20)
(0.166619 0.212679 -2.82086e-19)
(0.381893 0.471238 -2.91482e-19)
(0.520938 0.601312 1.98646e-19)
(0.606773 0.64826 -2.53214e-19)
(0.659068 0.648112 -6.97985e-19)
(0.692561 0.624931 -2.47093e-20)
(0.716275 0.59285 -2.0692e-19)
(0.735046 0.559024 8.743e-21)
(0.751201 0.526489 -4.10379e-19)
(0.765765 0.496231 -4.17258e-19)
(0.779168 0.468371 -2.84826e-19)
(0.791598 0.442721 -1.18711e-20)
(0.803153 0.419018 -7.02725e-19)
(0.813886 0.397007 -6.44125e-21)
(0.823803 0.376473 3.43024e-19)
(0.832876 0.357252 -3.40941e-19)
(0.841187 0.339125 -2.6354e-19)
(0.849062 0.321659 2.53815e-19)
(0.856305 0.30468 -1.81855e-19)
(0.860086 0.290063 3.51706e-20)
(0.153258 0.210973 2.30536e-19)
(0.351448 0.463981 1.78671e-19)
(0.481573 0.588732 -7.75891e-21)
(0.563788 0.631974 -1.50065e-19)
(0.61568 0.629821 3.60353e-19)
(0.6505 0.605919 5.8239e-19)
(0.676288 0.573914 -6.07017e-20)
(0.69732 0.540571 1.01478e-20)
(0.715657 0.508689 1.12579e-19)
(0.732217 0.479136 2.58128e-19)
(0.747405 0.451983 3.74553e-19)
(0.761416 0.427033 -3.03774e-19)
(0.774361 0.40403 2.98929e-19)
(0.786312 0.38273 -1.03405e-19)
(0.797297 0.362934 3.48848e-19)
(0.807319 0.344487 -1.35863e-19)
(0.816488 0.327197 -3.37888e-19)
(0.825132 0.310724 2.03088e-19)
(0.833084 0.29501 -2.90199e-19)
(0.837888 0.281626 -3.30332e-19)
(0.139546 0.207452 1.05454e-19)
(0.32074 0.453134 1.90222e-19)
(0.442316 0.572042 -1.99723e-19)
(0.521288 0.611674 8.31494e-21)
(0.57305 0.607845 3.44978e-20)
(0.609352 0.583596 2.78888e-19)
(0.637277 0.552004 -4.10967e-19)
(0.660584 0.519434 3.89878e-19)
(0.681092 0.488453 -3.81316e-20)
(0.699635 0.45982 1.06294e-19)
(0.716602 0.433569 1.71836e-19)
(0.7322 0.409495 -3.27762e-19)
(0.746563 0.387352 1.56619e-19)
(0.759784 0.36691 1.48866e-19)
(0.77192 0.347983 5.4951e-20)
(0.783004 0.330426 -2.8159e-19)
(0.793172 0.31406 9.4847e-19)
(0.802745 0.298596 -5.31151e-19)
(0.811558 0.284009 9.64705e-19)
(0.817437 0.271593 -6.26893e-20)
(0.125687 0.202123 7.71783e-20)
(0.290158 0.438756 4.51544e-19)
(0.4036 0.551334 1.60982e-19)
(0.479683 0.587463 3.33818e-19)
(0.531545 0.582283 8.74495e-20)
(0.56944 0.558044 -5.32878e-19)
(0.599533 0.527189 8.25847e-19)
(0.625099 0.495666 4.2741e-19)
(0.64775 0.46582 1.77926e-20)
(0.668247 0.43831 5.53044e-19)
(0.686972 0.413136 8.96621e-20)
(0.704147 0.390094 5.78705e-20)
(0.71993 0.368945 3.3014e-19)
(0.734439 0.34947 -1.23494e-19)
(0.747755 0.331493 -1.29829e-19)
(0.759943 0.314873 7.68299e-19)
(0.771163 0.299443 -6.41607e-19)
(0.781726 0.284953 2.49389e-20)
(0.791459 0.271392 8.11963e-19)
(0.798438 0.25982 -8.05737e-22)
(0.111878 0.195014 -9.71662e-19)
(0.260077 0.420935 -1.62569e-19)
(0.365839 0.526734 -2.21173e-19)
(0.439368 0.559474 -1.69255e-19)
(0.491517 0.553257 -4.28987e-19)
(0.531074 0.529373 1.47016e-19)
(0.563329 0.49956 -2.04902e-19)
(0.591115 0.469343 5.98321e-20)
(0.615857 0.440848 -2.96602e-19)
(0.63826 0.414648 -2.80068e-19)
(0.658704 0.390715 5.84386e-20)
(0.677429 0.368847 -4.52837e-19)
(0.694617 0.348812 3.61717e-19)
(0.710408 0.330404 -1.30526e-19)
(0.72491 0.313454 4.08758e-19)
(0.738213 0.297825 -8.81955e-19)
(0.750493 0.283359 -1.67432e-19)
(0.762047 0.269835 -3.16321e-19)
(0.7727 0.257244 -8.49338e-19)
(0.780764 0.246444 -1.3699e-19)
(0.0983153 0.186172 1.58353e-19)
(0.230856 0.399795 -1.8396e-20)
(0.329428 0.498395 -2.44885e-19)
(0.400711 0.527866 8.64107e-20)
(0.453296 0.520916 -1.74371e-19)
(0.494544 0.49771 -2.07543e-21)
(0.528923 0.469228 2.36856e-19)
(0.558863 0.440557 -3.53418e-19)
(0.585624 0.413618 1.37767e-19)
(0.609865 0.3889 -7.94741e-20)
(0.63197 0.366358 2.15132e-20)
(0.652198 0.34579 -3.94115e-19)
(0.670753 0.326977 -4.78897e-19)
(0.687798 0.309724 -1.80788e-20)
(0.703461 0.293869 5.33047e-19)
(0.717857 0.279279 2.48864e-20)
(0.731174 0.265806 6.73895e-19)
(0.743688 0.253253 -9.82037e-19)
(0.755236 0.24161 5.2252e-19)
(0.764355 0.231557 9.0125e-19)
(0.085183 0.175663 -1.38733e-19)
(0.202835 0.375485 7.46598e-20)
(0.294737 0.466503 4.84449e-19)
(0.364063 0.492823 1.19368e-19)
(0.417191 0.48543 -1.61183e-19)
(0.460123 0.463207 1.26954e-19)
(0.496559 0.436323 4.98689e-19)
(0.528561 0.409424 -4.04846e-19)
(0.557247 0.384228 3.74278e-20)
(0.583241 0.361153 -1.47266e-19)
(0.606931 0.340138 5.32352e-19)
(0.628597 0.320989 3.79792e-19)
(0.648461 0.303499 -5.53102e-20)
(0.66671 0.287482 -5.76083e-19)
(0.68349 0.272786 3.08049e-20)
(0.698936 0.259284 -7.07937e-20)
(0.713242 0.246838 3.38385e-19)
(0.726668 0.235275 5.50093e-19)
(0.739067 0.224576 4.80286e-19)
(0.749198 0.21527 -8.03745e-19)
(0.0726581 0.163568 -8.69594e-20)
(0.176334 0.348184 3.7069e-19)
(0.262112 0.431271 -3.61332e-19)
(0.329747 0.454558 5.01929e-19)
(0.38349 0.446991 -2.72591e-19)
(0.428065 0.426036 1.95654e-19)
(0.46646 0.400997 4.95499e-19)
(0.50041 0.376076 -5.95431e-19)
(0.530909 0.352797 2.70999e-19)
(0.558552 0.331513 3.42581e-19)
(0.583735 0.312152 -4.65525e-19)
(0.606755 0.294531 -3.29884e-20)
(0.627856 0.278453 -3.72776e-19)
(0.647241 0.263749 5.97942e-19)
(0.665076 0.250275 -3.23992e-19)
(0.681511 0.237911 3.47982e-19)
(0.696745 0.22653 -6.29107e-20)
(0.71102 0.215981 2.14856e-19)
(0.724217 0.206235 4.88857e-20)
(0.735306 0.197695 -1.25545e-19)
(0.0609062 0.149986 -2.66501e-19)
(0.151649 0.318095 -6.12728e-19)
(0.231873 0.392935 1.61417e-19)
(0.298059 0.413304 -5.16362e-19)
(0.352458 0.405816 -4.88435e-19)
(0.398602 0.386387 -3.50663e-19)
(0.438834 0.363421 2.73235e-19)
(0.474596 0.340668 2.09853e-19)
(0.506777 0.319464 -1.43199e-21)
(0.535949 0.300105 -1.82873e-19)
(0.562516 0.282515 -3.29408e-19)
(0.586793 0.266519 2.96675e-19)
(0.609042 0.25194 -1.02433e-19)
(0.629483 0.238621 -5.05271e-19)
(0.648297 0.226428 3.28535e-19)
(0.665649 0.21525 -2.46952e-19)
(0.681738 0.204973 -1.00552e-19)
(0.696791 0.195466 -2.81227e-19)
(0.710724 0.186693 -2.5471e-19)
(0.722705 0.178947 6.59879e-20)
(0.0500803 0.135032 2.32862e-19)
(0.129053 0.285447 1.20629e-19)
(0.204311 0.351758 1.8428e-19)
(0.269273 0.369316 -6.28285e-19)
(0.324336 0.362138 6.72488e-19)
(0.371946 0.344473 3.15827e-21)
(0.413869 0.323784 5.54228e-21)
(0.451289 0.303369 -4.08535e-19)
(0.485004 0.284384 3.81015e-19)
(0.51557 0.267072 -2.65036e-19)
(0.543399 0.251357 7.99365e-20)
(0.568823 0.237078 -3.54634e-19)
(0.59212 0.224076 -1.68422e-19)
(0.613523 0.212206 -8.02244e-20)
(0.63323 0.20135 6.06595e-19)
(0.651414 0.191406 -2.97814e-19)
(0.668277 0.182274 -2.68431e-19)
(0.684032 0.173839 2.762e-19)
(0.698634 0.166059 -2.26654e-19)
(0.711434 0.159144 1.76788e-19)
(0.0403199 0.118834 4.94192e-19)
(0.108792 0.250489 -2.98278e-19)
(0.179689 0.308022 4.48204e-20)
(0.243631 0.32287 5.22149e-19)
(0.299338 0.316209 2.06809e-19)
(0.348287 0.30052 2.56426e-19)
(0.391734 0.282291 2.55141e-19)
(0.43064 0.264366 5.40623e-19)
(0.465728 0.247727 -1.23991e-19)
(0.497539 0.232572 2.95485e-19)
(0.526497 0.218825 4.29008e-19)
(0.552946 0.206346 1.57856e-19)
(0.577179 0.194989 2.85801e-19)
(0.599442 0.184631 1.0356e-19)
(0.619944 0.175163 6.0979e-20)
(0.638871 0.166498 -4.43055e-20)
(0.656421 0.158547 3.53949e-19)
(0.672797 0.151214 2.18027e-19)
(0.687994 0.144452 -1.98385e-19)
(0.701529 0.138404 1.87067e-19)
(0.0317496 0.10153 -3.28009e-19)
(0.091084 0.213489 3.71592e-20)
(0.158239 0.262031 -9.46579e-20)
(0.221349 0.27426 -2.87235e-19)
(0.277657 0.268299 -1.52198e-19)
(0.327794 0.25477 -2.76128e-19)
(0.372579 0.239162 1.28062e-19)
(0.412784 0.22386 -4.95794e-19)
(0.44907 0.209679 2.92374e-19)
(0.481968 0.196776 -4.0451e-19)
(0.511909 0.185081 -2.5101e-19)
(0.539252 0.174471 -3.31847e-19)
(0.5643 0.164824 7.59492e-20)
(0.587313 0.15603 -7.50714e-20)
(0.608508 0.147998 8.94765e-20)
(0.62808 0.140651 4.80139e-20)
(0.646225 0.133916 9.54035e-20)
(0.663137 0.127712 -8.00475e-19)
(0.678851 0.121993 3.98151e-19)
(0.693032 0.11685 -2.3906e-19)
(0.0244783 0.0832736 1.08201e-19)
(0.0761186 0.174733 2.18457e-19)
(0.140162 0.214104 -1.42398e-19)
(0.202612 0.223793 3.5185e-19)
(0.259456 0.218691 -5.63904e-20)
(0.310613 0.207481 4.06653e-19)
(0.356535 0.194629 7.83471e-20)
(0.397839 0.182063 -8.23497e-20)
(0.435136 0.170436 2.99659e-19)
(0.468952 0.159867 2.28913e-19)
(0.499724 0.150295 8.48013e-20)
(0.527821 0.141617 1.11642e-19)
(0.553557 0.133732 5.5967e-20)
(0.577201 0.126549 -2.37156e-19)
(0.59898 0.119994 -3.29646e-20)
(0.619095 0.114001 2.47516e-19)
(0.637738 0.108512 -1.69172e-19)
(0.6551 0.103463 -7.83619e-21)
(0.671249 0.098808 -3.53858e-19)
(0.685977 0.0946038 7.13434e-19)
(0.0185982 0.0642246 2.89689e-19)
(0.0640557 0.134523 -3.48163e-19)
(0.125628 0.164575 1.63147e-19)
(0.187577 0.171792 -2.30754e-19)
(0.244874 0.167679 2.03324e-19)
(0.296864 0.158919 -3.52896e-19)
(0.343709 0.148936 -2.58358e-19)
(0.385902 0.139201 1.91693e-20)
(0.424016 0.130205 -3.51646e-19)
(0.458572 0.122037 -2.19348e-19)
(0.490014 0.114647 -3.79585e-19)
(0.518719 0.107952 -1.25074e-20)
(0.54501 0.101874 -1.47008e-19)
(0.569163 0.096342 3.72573e-19)
(0.591412 0.0912971 2.56605e-19)
(0.611962 0.0866891 -8.62081e-20)
(0.631006 0.0824722 -7.77941e-20)
(0.648727 0.0785976 -3.40327e-21)
(0.665228 0.0750273 9.63677e-21)
(0.680398 0.0717922 1.40757e-19)
(0.0141838 0.0445524 -7.25246e-20)
(0.0550244 0.0931701 -2.47726e-19)
(0.114771 0.113791 -1.54457e-19)
(0.176369 0.118589 -9.66278e-20)
(0.234022 0.115569 -2.00079e-19)
(0.286647 0.109362 3.42893e-19)
(0.334189 0.102336 -3.66219e-20)
(0.377052 0.0955036 -8.24851e-20)
(0.415782 0.0892024 3.45309e-21)
(0.450895 0.0834887 2.42022e-19)
(0.48284 0.0783254 -2.29735e-19)
(0.512002 0.0736543 2.24682e-19)
(0.53871 0.0694185 1.05497e-19)
(0.563243 0.0655681 -1.92025e-19)
(0.585845 0.0620609 4.19622e-20)
(0.606721 0.0588612 1.23404e-19)
(0.626064 0.055937 4.29615e-20)
(0.644054 0.0532541 -2.98058e-20)
(0.660818 0.050784 -2.59389e-19)
(0.676319 0.0485424 2.06751e-19)
(0.0112918 0.0244322 6.51739e-20)
(0.0491223 0.0509983 7.91598e-20)
(0.107695 0.0621072 2.2308e-20)
(0.169083 0.0645277 -1.6709e-20)
(0.226984 0.0626747 4.77853e-20)
(0.280036 0.059094 7.30252e-20)
(0.328043 0.0550875 2.77079e-20)
(0.371351 0.0512114 3.37399e-20)
(0.410488 0.0476486 -7.16062e-20)
(0.445969 0.0444274 1.34264e-19)
(0.478247 0.0415248 -3.16844e-20)
(0.507711 0.0389062 -2.57897e-21)
(0.534693 0.0365383 3.21752e-20)
(0.559478 0.0343918 3.62713e-20)
(0.582311 0.0324419 -9.73289e-20)
(0.603402 0.030668 6.40477e-20)
(0.62294 0.0290514 4.20354e-20)
(0.641106 0.0275724 3.58712e-20)
(0.658043 0.0262142 7.68647e-20)
(0.673763 0.0249838 3.18588e-20)
(0.00996017 0.00404396 -1.3317e-20)
(0.0464145 0.00833677 2.76581e-20)
(0.104469 0.00988713 -3.86983e-20)
(0.165782 0.0099544 2.43148e-20)
(0.223816 0.00931395 1.42646e-20)
(0.27708 0.00840477 6.41975e-21)
(0.325313 0.00745647 1.50823e-20)
(0.368837 0.00656811 -4.32421e-20)
(0.408171 0.00577041 2.76001e-20)
(0.443829 0.00506484 9.64938e-21)
(0.476266 0.00444299 -5.64473e-22)
(0.505873 0.00389455 5.91494e-20)
(0.532986 0.00340993 -1.79579e-20)
(0.55789 0.00298086 -1.71963e-20)
(0.580832 0.00260039 -1.65031e-20)
(0.602023 0.00226273 2.55275e-21)
(0.621653 0.00196271 -2.2051e-20)
(0.639902 0.00169509 4.19727e-21)
(0.656921 0.00145582 8.29236e-22)
(0.672741 0.00124709 -2.80598e-21)
(0.0102079 -0.0164296 8.43881e-21)
(0.0469342 -0.0344808 -4.48851e-20)
(0.105127 -0.0425026 5.35041e-20)
(0.166498 -0.0447788 -4.02045e-20)
(0.224547 -0.0441906 -1.87569e-20)
(0.277804 -0.0424126 5.61331e-20)
(0.326024 -0.0402896 4.67841e-21)
(0.369531 -0.0381794 1.30665e-21)
(0.408848 -0.0362029 2.61779e-20)
(0.44449 -0.034385 1.35262e-20)
(0.476911 -0.0327194 -1.06976e-20)
(0.506503 -0.0311917 -3.75177e-20)
(0.533601 -0.0297877 3.58146e-21)
(0.558491 -0.0284947 -3.25191e-21)
(0.581419 -0.0273017 3.49386e-20)
(0.602596 -0.0261995 -2.10176e-20)
(0.622213 -0.0251798 2.88234e-20)
(0.64045 -0.0242334 -4.31876e-20)
(0.657458 -0.0233511 5.0163e-23)
(0.673259 -0.022535 -9.09461e-21)
(0.0120351 -0.0368051 -2.79722e-20)
(0.0506815 -0.0771193 1.40872e-19)
(0.10967 -0.0946939 9.49071e-20)
(0.171232 -0.0993191 6.28428e-20)
(0.229176 -0.0975156 7.83721e-20)
(0.282209 -0.0930643 -1.91823e-20)
(0.330174 -0.0878821 8.68281e-20)
(0.373433 -0.0827834 1.77464e-20)
(0.412521 -0.0780413 -7.81385e-21)
(0.447953 -0.0737075 -6.2041e-20)
(0.480183 -0.0697608 6.423e-20)
(0.509601 -0.0661627 -8.71851e-20)
(0.536538 -0.0628752 6.33102e-20)
(0.561281 -0.0598644 7.24955e-20)
(0.584071 -0.0571017 9.58754e-20)
(0.605121 -0.054563 -6.30185e-20)
(0.62462 -0.0522263 1.77345e-20)
(0.642751 -0.050068 6.6472e-20)
(0.659654 -0.0480661 -6.28885e-20)
(0.675318 -0.0462287 4.7439e-20)
(0.0154226 -0.0568996 -2.69239e-19)
(0.057624 -0.119245 -1.3528e-19)
(0.118064 -0.14632 -1.5042e-19)
(0.179952 -0.153315 -1.18187e-20)
(0.237676 -0.150339 -8.1127e-20)
(0.29027 -0.143257 -9.9758e-20)
(0.337742 -0.135053 1.75511e-19)
(0.380523 -0.126997 8.95432e-20)
(0.41917 -0.119516 1.09991e-19)
(0.454201 -0.112689 -1.1987e-19)
(0.486067 -0.106481 8.87151e-20)
(0.515152 -0.10083 1.07972e-19)
(0.541786 -0.0956735 3.79087e-20)
(0.566248 -0.0909583 -3.61561e-20)
(0.588778 -0.0866377 7.76389e-21)
(0.609586 -0.0826726 -1.5678e-20)
(0.628862 -0.0790276 -1.52793e-19)
(0.646795 -0.0756642 2.36414e-20)
(0.663502 -0.0725492 1.4836e-19)
(0.678911 -0.0697014 -1.99485e-19)
(0.0203325 -0.0765331 -8.79573e-20)
(0.0676968 -0.160528 1.31469e-19)
(0.13024 -0.197017 3.04112e-20)
(0.192596 -0.206418 -5.62049e-20)
(0.249992 -0.202341 -1.59801e-19)
(0.301938 -0.192702 -3.4277e-19)
(0.348684 -0.181537 -3.26065e-19)
(0.390762 -0.170576 -2.32226e-20)
(0.42876 -0.160399 -1.89532e-19)
(0.463201 -0.151117 -2.8333e-19)
(0.494532 -0.142681 2.19907e-19)
(0.52313 -0.135005 -3.2407e-19)
(0.549317 -0.128006 6.40382e-20)
(0.573368 -0.121609 -2.07106e-20)
(0.595519 -0.115749 -6.78029e-20)
(0.615972 -0.110375 -8.55676e-20)
(0.634923 -0.105436 1.38787e-19)
(0.652563 -0.100879 1.10792e-19)
(0.668985 -0.0966623 1.90568e-19)
(0.684025 -0.0928222 -2.85524e-19)
(0.0267082 -0.0955302 4.78354e-20)
(0.0808027 -0.200645 4.6364e-19)
(0.146096 -0.246429 1.32742e-19)
(0.20907 -0.258286 3.21105e-19)
(0.266039 -0.253209 -1.19629e-19)
(0.317139 -0.241113 1.84705e-19)
(0.362933 -0.227075 -5.74984e-20)
(0.404089 -0.213281 3.74254e-19)
(0.441236 -0.200471 -1.92189e-19)
(0.474904 -0.188786 2.26898e-19)
(0.505532 -0.178167 1.96995e-19)
(0.533491 -0.168507 2.10203e-19)
(0.559094 -0.1597 -1.8823e-19)
(0.582607 -0.151651 1.61109e-19)
(0.60426 -0.14428 -2.24256e-19)
(0.624249 -0.13752 -6.16342e-20)
(0.642773 -0.131308 -1.47449e-19)
(0.660029 -0.125574 -6.27498e-20)
(0.676078 -0.12027 2.48196e-19)
(0.69064 -0.115462 -4.11587e-19)
(0.0344749 -0.113721 -1.90447e-19)
(0.0968131 -0.239284 -2.30601e-20)
(0.165498 -0.29421 -7.58993e-20)
(0.229247 -0.308587 -2.67711e-19)
(0.285708 -0.302638 4.63327e-20)
(0.335774 -0.288214 -4.19061e-19)
(0.380402 -0.271414 -1.75525e-19)
(0.420425 -0.25488 -1.34282e-20)
(0.456526 -0.239514 -4.42459e-19)
(0.489243 -0.225494 -1.37169e-19)