/*--------------------------------*- C++ -*----------------------------------*\
  =========                 |
  \\      /  F ield         | OpenFOAM: The Open Source CFD Toolbox
   \\    /   O peration     | Website:  https://openfoam.org
    \\  /    A nd           | Version:  6.0
     \\/     M anipulation  |
\*---------------------------------------------------------------------------*/
FoamFile
{
    version     2.0;
    format      ascii;
    class       volScalarField;
    location    "109";
    object      p;
}
// * * * * * * * * * * * * * * * * * * * * * * * * * * * * * * * * * * * * * //

dimensions      [0 2 -2 0 0 0 0];

internalField   nonuniform List<scalar> 
12500
(
-0.496945
-0.496786
-0.496599
-0.496396
-0.49633
-0.496545
-0.497134
-0.498132
-0.499534
-0.501312
-0.503422
-0.505817
-0.508449
-0.511273
-0.514249
-0.517341
-0.520516
-0.523746
-0.527007
-0.530277
-0.533519
-0.536717
-0.540043
-0.543681
-0.545793
-0.505362
-0.50484
-0.504457
-0.504156
-0.504049
-0.504283
-0.504946
-0.506074
-0.507661
-0.509675
-0.512073
-0.514801
-0.517807
-0.52104
-0.524453
-0.528002
-0.531647
-0.535353
-0.539086
-0.542818
-0.546505
-0.550123
-0.553843
-0.557866
-0.560333
-0.513343
-0.51246
-0.511877
-0.51147
-0.511314
-0.511553
-0.512275
-0.513513
-0.515262
-0.51749
-0.520147
-0.523179
-0.526526
-0.530132
-0.533943
-0.537908
-0.541977
-0.546106
-0.550256
-0.554387
-0.558452
-0.562418
-0.566446
-0.570755
-0.573505
-0.520831
-0.519595
-0.518808
-0.518287
-0.518069
-0.518295
-0.519054
-0.520377
-0.52226
-0.524668
-0.527551
-0.530848
-0.534496
-0.538433
-0.542597
-0.546929
-0.551372
-0.555872
-0.56038
-0.56485
-0.569225
-0.573467
-0.577722
-0.582223
-0.585191
-0.527778
-0.526201
-0.525211
-0.524567
-0.524271
-0.524462
-0.52523
-0.526606
-0.528586
-0.531135
-0.534199
-0.537717
-0.541619
-0.545837
-0.550303
-0.554949
-0.55971
-0.564524
-0.569331
-0.574077
-0.5787
-0.58315
-0.587556
-0.592162
-0.595289
-0.53415
-0.532252
-0.53106
-0.530282
-0.52989
-0.530021
-0.530764
-0.532155
-0.534188
-0.53683
-0.540025
-0.543709
-0.54781
-0.552252
-0.556961
-0.561863
-0.566882
-0.571949
-0.576995
-0.581956
-0.586764
-0.591359
-0.595848
-0.60048
-0.603716
-0.539922
-0.53773
-0.536343
-0.535423
-0.534915
-0.534956
-0.535637
-0.536997
-0.539033
-0.541712
-0.54498
-0.54877
-0.553005
-0.557608
-0.562495
-0.567586
-0.572799
-0.578055
-0.583276
-0.588391
-0.593324
-0.598005
-0.602517
-0.607104
-0.610405
-0.545086
-0.542635
-0.541061
-0.539991
-0.539348
-0.539268
-0.539847
-0.541126
-0.543108
-0.545764
-0.54904
-0.552867
-0.557168
-0.56186
-0.566854
-0.572064
-0.577401
-0.582778
-0.58811
-0.593315
-0.598312
-0.603024
-0.607503
-0.611983
-0.615307
-0.549645
-0.546976
-0.54523
-0.544006
-0.543208
-0.542977
-0.54341
-0.544558
-0.546428
-0.548995
-0.552209
-0.556001
-0.560294
-0.564999
-0.570025
-0.575279
-0.580667
-0.586094
-0.591468
-0.5967
-0.601701
-0.606386
-0.61078
-0.615095
-0.618404
-0.553619
-0.550781
-0.54888
-0.5475
-0.546532
-0.546119
-0.546366
-0.547331
-0.549028
-0.55144
-0.554522
-0.558206
-0.562413
-0.567055
-0.572036
-0.577258
-0.582622
-0.588027
-0.593373
-0.598565
-0.603507
-0.608107
-0.612362
-0.616454
-0.619702
-0.557039
-0.554086
-0.552054
-0.550519
-0.549368
-0.548748
-0.548771
-0.549503
-0.550971
-0.553166
-0.556046
-0.55955
-0.563598
-0.568101
-0.572962
-0.578077
-0.583343
-0.588654
-0.593902
-0.598986
-0.603804
-0.608258
-0.612314
-0.616117
-0.619246
-0.559954
-0.556941
-0.554804
-0.553121
-0.551779
-0.55093
-0.550696
-0.551155
-0.552343
-0.554261
-0.556878
-0.560135
-0.563956
-0.568251
-0.572922
-0.577861
-0.582961
-0.588108
-0.593191
-0.598099
-0.602724
-0.606962
-0.61075
-0.614182
-0.617111
-0.56242
-0.559407
-0.557193
-0.55537
-0.553834
-0.552743
-0.552228
-0.552378
-0.553245
-0.55484
-0.55714
-0.560095
-0.56363
-0.567657
-0.572077
-0.576779
-0.58165
-0.586572
-0.591424
-0.596089
-0.600448
-0.604392
-0.607828
-0.610785
-0.613398
-0.56451
-0.561552
-0.55929
-0.55734
-0.555613
-0.554272
-0.553459
-0.553279
-0.553795
-0.555031
-0.556975
-0.559583
-0.562787
-0.5665
-0.570619
-0.575033
-0.579623
-0.584263
-0.588825
-0.593178
-0.597196
-0.600757
-0.60374
-0.606094
-0.608232
-0.566303
-0.563453
-0.561171
-0.559109
-0.557197
-0.555606
-0.554491
-0.553968
-0.554116
-0.554973
-0.556536
-0.55877
-0.561612
-0.564975
-0.568759
-0.572846
-0.57711
-0.58142
-0.585633
-0.589608
-0.593203
-0.596283
-0.598697
-0.600295
-0.601757
-0.56789
-0.565193
-0.562915
-0.560756
-0.558669
-0.556836
-0.555423
-0.554558
-0.554336
-0.554807
-0.55598
-0.557828
-0.560291
-0.563286
-0.56671
-0.57044
-0.574344
-0.578277
-0.582087
-0.585614
-0.588699
-0.591192
-0.592908
-0.593587
-0.594141
-0.569371
-0.56686
-0.564607
-0.562363
-0.560116
-0.558054
-0.556355
-0.555161
-0.55458
-0.554674
-0.555462
-0.556924
-0.559006
-0.561625
-0.564674
-0.568025
-0.571536
-0.575051
-0.578399
-0.581405
-0.583888
-0.58568
-0.586569
-0.586173
-0.585579
-0.570848
-0.568544
-0.56633
-0.564015
-0.561622
-0.559349
-0.557384
-0.555883
-0.554965
-0.554702
-0.555122
-0.556213
-0.557921
-0.560164
-0.562829
-0.565781
-0.568867
-0.571915
-0.574739
-0.577144
-0.578929
-0.579909
-0.579849
-0.578255
-0.576299
-0.572431
-0.57034
-0.568169
-0.565792
-0.563268
-0.560806
-0.558602
-0.556824
-0.555599
-0.555009
-0.555088
-0.555827
-0.557175
-0.559044
-0.561316
-0.563847
-0.566469
-0.568995
-0.571225
-0.572943
-0.573933
-0.573995
-0.572885
-0.570023
-0.566554
-0.574228
-0.572339
-0.570209
-0.567776
-0.565136
-0.562508
-0.560095
-0.558073
-0.556577
-0.555695
-0.555463
-0.555874
-0.556874
-0.558369
-0.560235
-0.562313
-0.564422
-0.566362
-0.567916
-0.568857
-0.568957
-0.568011
-0.565783
-0.561647
-0.556605
-0.576346
-0.57463
-0.57253
-0.570043
-0.567301
-0.564528
-0.561938
-0.559708
-0.557979
-0.556839
-0.556326
-0.556429
-0.557088
-0.558204
-0.559637
-0.561219
-0.562755
-0.564031
-0.564822
-0.564894
-0.56402
-0.562
-0.558626
-0.553275
-0.546704
-0.578883
-0.577297
-0.575207
-0.572663
-0.569828
-0.566934
-0.564195
-0.561792
-0.559864
-0.558497
-0.557727
-0.557533
-0.55785
-0.558565
-0.559528
-0.560557
-0.561446
-0.561971
-0.561904
-0.561019
-0.5591
-0.55597
-0.551471
-0.545029
-0.537085
-0.581925
-0.580412
-0.578304
-0.575697
-0.572776
-0.569777
-0.566915
-0.564367
-0.562268
-0.560698
-0.559683
-0.559194
-0.559152
-0.559433
-0.559872
-0.560277
-0.560432
-0.560112
-0.559091
-0.557158
-0.554123
-0.54985
-0.544252
-0.536828
-0.527751
-0.585544
-0.584035
-0.581877
-0.579194
-0.576189
-0.573097
-0.570129
-0.567457
-0.565206
-0.563444
-0.562184
-0.561385
-0.560953
-0.56075
-0.5606
-0.5603
-0.559631
-0.558372
-0.556306
-0.553239
-0.549005
-0.543502
-0.536679
-0.528081
-0.518048
-0.589793
-0.588212
-0.585965
-0.583191
-0.580096
-0.576915
-0.573852
-0.571066
-0.568668
-0.566711
-0.565193
-0.564054
-0.563186
-0.562437
-0.561622
-0.560534
-0.558958
-0.556683
-0.553512
-0.549271
-0.543818
-0.537047
-0.52881
-0.518592
-0.507838
-0.594704
-0.592975
-0.590597
-0.587709
-0.584513
-0.58124
-0.578081
-0.57518
-0.572628
-0.570459
-0.568652
-0.56713
-0.565767
-0.5644
-0.56284
-0.560885
-0.558331
-0.55499
-0.550695
-0.545314
-0.538746
-0.530924
-0.521753
-0.511244
-0.501241
-0.600296
-0.598341
-0.595788
-0.59276
-0.589446
-0.586069
-0.582803
-0.579772
-0.577045
-0.574635
-0.572495
-0.570531
-0.568603
-0.566541
-0.564158
-0.561262
-0.557673
-0.553234
-0.547822
-0.541351
-0.533776
-0.525093
-0.515324
-0.504636
-0.494088
-0.606569
-0.604316
-0.601544
-0.598346
-0.594891
-0.591389
-0.587996
-0.584811
-0.581877
-0.579179
-0.57665
-0.574176
-0.571605
-0.568767
-0.565483
-0.561583
-0.556918
-0.551371
-0.544864
-0.53736
-0.528866
-0.519421
-0.509097
-0.498047
-0.486977
-0.613514
-0.610898
-0.607863
-0.604464
-0.600841
-0.597187
-0.593638
-0.590264
-0.587077
-0.584036
-0.581048
-0.577985
-0.574688
-0.570993
-0.566738
-0.561782
-0.556015
-0.549366
-0.541803
-0.533336
-0.524011
-0.513904
-0.503108
-0.491774
-0.48041
-0.621116
-0.618079
-0.614741
-0.61111
-0.607287
-0.603451
-0.599709
-0.5961
-0.592604
-0.58915
-0.585624
-0.581885
-0.577775
-0.573144
-0.567855
-0.561806
-0.554929
-0.5472
-0.538632
-0.529275
-0.519208
-0.508526
-0.497335
-0.485784
-0.474244
-0.629356
-0.625848
-0.622171
-0.618276
-0.614223
-0.610168
-0.60619
-0.602291
-0.598418
-0.59447
-0.590316
-0.585808
-0.580797
-0.575154
-0.56878
-0.561613
-0.553633
-0.54486
-0.535349
-0.52518
-0.514455
-0.503282
-0.49177
-0.480064
-0.468441
-0.638214
-0.634194
-0.630146
-0.62596
-0.621643
-0.617331
-0.613066
-0.608812
-0.604481
-0.599948
-0.595067
-0.589691
-0.583692
-0.57697
-0.56947
-0.561175
-0.552113
-0.542343
-0.531955
-0.521051
-0.509745
-0.498151
-0.486372
-0.47455
-0.462881
-0.64767
-0.643102
-0.638659
-0.634155
-0.629543
-0.624929
-0.620318
-0.615633
-0.610754
-0.605531
-0.599816
-0.593473
-0.586402
-0.578544
-0.56989
-0.560472
-0.55036
-0.539649
-0.528451
-0.516884
-0.505067
-0.493108
-0.481103
-0.469185
-0.457484
-0.6577
-0.652557
-0.647697
-0.642854
-0.637913
-0.632949
-0.627924
-0.622721
-0.617188
-0.611164
-0.604503
-0.597094
-0.588875
-0.579836
-0.570015
-0.559491
-0.54837
-0.536776
-0.524835
-0.512673
-0.500402
-0.488123
-0.475919
-0.463912
-0.452174
-0.66828
-0.662541
-0.657248
-0.652044
-0.64674
-0.641369
-0.635852
-0.630031
-0.62373
-0.616783
-0.609064
-0.600496
-0.591064
-0.580811
-0.569823
-0.558221
-0.546141
-0.533724
-0.521105
-0.508405
-0.495729
-0.483164
-0.470778
-0.45868
-0.446893
-0.679377
-0.673025
-0.667289
-0.661703
-0.655997
-0.650157
-0.644057
-0.637506
-0.630312
-0.622319
-0.613431
-0.603619
-0.592923
-0.581438
-0.569297
-0.556655
-0.543669
-0.53049
-0.517251
-0.504065
-0.491024
-0.478198
-0.465641
-0.453447
-0.441595
-0.690951
-0.683974
-0.677787
-0.6718
-0.665646
-0.659263
-0.652479
-0.645075
-0.636857
-0.627693
-0.617533
-0.606405
-0.594408
-0.581688
-0.56842
-0.554783
-0.540948
-0.527065
-0.51326
-0.499633
-0.486259
-0.473192
-0.460471
-0.448173
-0.436243
-0.702948
-0.695342
-0.688698
-0.682287
-0.675634
-0.668623
-0.661041
-0.652652
-0.643275
-0.632821
-0.621297
-0.608796
-0.595477
-0.581535
-0.567175
-0.552594
-0.537966
-0.523435
-0.509113
-0.495083
-0.481404
-0.468112
-0.455232
-0.442824
-0.430806
-0.715301
-0.707067
-0.699963
-0.693101
-0.685888
-0.678152
-0.669649
-0.660137
-0.64947
-0.637615
-0.624649
-0.610735
-0.59609
-0.58095
-0.565542
-0.550072
-0.534708
-0.51958
-0.504785
-0.490387
-0.476426
-0.462923
-0.449889
-0.437365
-0.425253
-0.727926
-0.719072
-0.711505
-0.70416
-0.696317
-0.68775
-0.678191
-0.667418
-0.655334
-0.64198
-0.627512
-0.612165
-0.596206
-0.579904
-0.5635
-0.547197
-0.531151
-0.515475
-0.500247
-0.485511
-0.47129
-0.457588
-0.444405
-0.431765
-0.419558
-0.740725
-0.731265
-0.723232
-0.715366
-0.706812
-0.697295
-0.686545
-0.674373
-0.660755
-0.645822
-0.629813
-0.613029
-0.595783
-0.578365
-0.561021
-0.543942
-0.527268
-0.51109
-0.495465
-0.480419
-0.465958
-0.452071
-0.438746
-0.425989
-0.413692
-0.75358
-0.743534
-0.735033
-0.7266
-0.717244
-0.706654
-0.694571
-0.680871
-0.66562
-0.649047
-0.631476
-0.61327
-0.594778
-0.576299
-0.558074
-0.540277
-0.523026
-0.50639
-0.490403
-0.475074
-0.46039
-0.446332
-0.432874
-0.420005
-0.407625
-0.766358
-0.755754
-0.746778
-0.737725
-0.727469
-0.715674
-0.702124
-0.686778
-0.669812
-0.651559
-0.632428
-0.612833
-0.593146
-0.573668
-0.554624
-0.536167
-0.518388
-0.501335
-0.48502
-0.469433
-0.454548
-0.440332
-0.426753
-0.413778
-0.401326
-0.778907
-0.767778
-0.758321
-0.748589
-0.737325
-0.724196
-0.709051
-0.691958
-0.673217
-0.653269
-0.632598
-0.611661
-0.590841
-0.57043
-0.550631
-0.531571
-0.513314
-0.495885
-0.479273
-0.463454
-0.448388
-0.434032
-0.420344
-0.407273
-0.394765
-0.791065
-0.77945
-0.769501
-0.759021
-0.746641
-0.73205
-0.715194
-0.696274
-0.675722
-0.654085
-0.631916
-0.609698
-0.587816
-0.566542
-0.546053
-0.526447
-0.507761
-0.489994
-0.473119
-0.457095
-0.441869
-0.427393
-0.413611
-0.400457
-0.38791
-0.802652
-0.790594
-0.780142
-0.768842
-0.755234
-0.739062
-0.720396
-0.699592
-0.677219
-0.653923
-0.630313
-0.606888
-0.58402
-0.561958
-0.540846
-0.52075
-0.501682
-0.483619
-0.466514
-0.450312
-0.434951
-0.420374
-0.406517
-0.393294
-0.380729
-0.81348
-0.801027
-0.790055
-0.777859
-0.762916
-0.745055
-0.724504
-0.701784
-0.677604
-0.652702
-0.627724
-0.603174
-0.579404
-0.556629
-0.534961
-0.514434
-0.495033
-0.476714
-0.459413
-0.443063
-0.427593
-0.412938
-0.399025
-0.385752
-0.373192
-0.823352
-0.810554
-0.799043
-0.785876
-0.769496
-0.749857
-0.727369
-0.702728
-0.676782
-0.650343
-0.624085
-0.598503
-0.573918
-0.550509
-0.528353
-0.507453
-0.487768
-0.469235
-0.451775
-0.435308
-0.419757
-0.405049
-0.391102
-0.377798
-0.365268
-0.832065
-0.818974
-0.806907
-0.792692
-0.774785
-0.7533
-0.728847
-0.702311
-0.674661
-0.646775
-0.619337
-0.592821
-0.567511
-0.54355
-0.520975
-0.499761
-0.479843
-0.461139
-0.443557
-0.427008
-0.411405
-0.396672
-0.382715
-0.369403
-0.356931
-0.839416
-0.826086
-0.81344
-0.798109
-0.778601
-0.755222
-0.728809
-0.700426
-0.671159
-0.64193
-0.613422
-0.586076
-0.560137
-0.535705
-0.512782
-0.491314
-0.471215
-0.452386
-0.434722
-0.418126
-0.402504
-0.387775
-0.373834
-0.360539
-0.348154
-0.845202
-0.831687
-0.818443
-0.801933
-0.780766
-0.755476
-0.727132
-0.696979
-0.666201
-0.635748
-0.606287
-0.57822
-0.551749
-0.526929
-0.503731
-0.482071
-0.461845
-0.442937
-0.425235
-0.408629
-0.393022
-0.378329
-0.364433
-0.351181
-0.338914
-0.849222
-0.835576
-0.821716
-0.803977
-0.781115
-0.753922
-0.723708
-0.691886
-0.659719
-0.628172
-0.597883
-0.569209
-0.542304
-0.517183
-0.493782
-0.471994
-0.451696
-0.43276
-0.415062
-0.398487
-0.382932
-0.368309
-0.354487
-0.341307
-0.32919
-0.851287
-0.837563
-0.823074
-0.804067
-0.779499
-0.75044
-0.718443
-0.685073
-0.651656
-0.619155
-0.588168
-0.559003
-0.531764
-0.506428
-0.482899
-0.461049
-0.440737
-0.421823
-0.404176
-0.387674
-0.372211
-0.357692
-0.343977
-0.330899
-0.318966
-0.851216
-0.837467
-0.82234
-0.802045
-0.775784
-0.744924
-0.711255
-0.676478
-0.641963
-0.608654
-0.577103
-0.547564
-0.520094
-0.494631
-0.471052
-0.449206
-0.428939
-0.410102
-0.392554
-0.376169
-0.360837
-0.34646
-0.332885
-0.319943
-0.308228
-0.848844
-0.835122
-0.819356
-0.797768
-0.769853
-0.737283
-0.702077
-0.666052
-0.630601
-0.596636
-0.564658
-0.534864
-0.507266
-0.481766
-0.458213
-0.43644
-0.41628
-0.397574
-0.380176
-0.363954
-0.348796
-0.334601
-0.321202
-0.308428
-0.296968
-0.844021
-0.830378
-0.813978
-0.791114
-0.761608
-0.727446
-0.690858
-0.653756
-0.617538
-0.583075
-0.550807
-0.520879
-0.493257
-0.467808
-0.444361
-0.422731
-0.402741
-0.384223
-0.367027
-0.351017
-0.336078
-0.322104
-0.308917
-0.296349
-0.285179
-0.836619
-0.823104
-0.806086
-0.781981
-0.750974
-0.71536
-0.677563
-0.639565
-0.602755
-0.567951
-0.535534
-0.505592
-0.478049
-0.452744
-0.429482
-0.408067
-0.38831
-0.37004
-0.353099
-0.337349
-0.322675
-0.308966
-0.29603
-0.283705
-0.272861
-0.826528
-0.813191
-0.795581
-0.770291
-0.737894
-0.700989
-0.662168
-0.623465
-0.586242
-0.551257
-0.518828
-0.488992
-0.461632
-0.436561
-0.413566
-0.392437
-0.37298
-0.355017
-0.338387
-0.32295
-0.308587
-0.295185
-0.282541
-0.270497
-0.260018
-0.813663
-0.800552
-0.782387
-0.755987
-0.722334
-0.684315
-0.644668
-0.605455
-0.567998
-0.532991
-0.500688
-0.471076
-0.444004
-0.419257
-0.396609
-0.375841
-0.35675
-0.339155
-0.322892
-0.307819
-0.293817
-0.280768
-0.268457
-0.256735
-0.246656
-0.797961
-0.785126
-0.766453
-0.739037
-0.70428
-0.665339
-0.62507
-0.585545
-0.548034
-0.513161
-0.481119
-0.451849
-0.425166
-0.400835
-0.378616
-0.358281
-0.339623
-0.322458
-0.30662
-0.291964
-0.278373
-0.265724
-0.253789
-0.24243
-0.23279
-0.779386
-0.766875
-0.747752
-0.719431
-0.683739
-0.644078
-0.603398
-0.563759
-0.52637
-0.491785
-0.460137
-0.431323
-0.405129
-0.381303
-0.359593
-0.339765
-0.321608
-0.304936
-0.289581
-0.275397
-0.262267
-0.250065
-0.238552
-0.2276
-0.218437
-0.757928
-0.745788
-0.726284
-0.697185
-0.660738
-0.620567
-0.579688
-0.540131
-0.503037
-0.468889
-0.437763
-0.409517
-0.383911
-0.360677
-0.339555
-0.320307
-0.302719
-0.286602
-0.271789
-0.258133
-0.245517
-0.233812
-0.222767
-0.212267
-0.203617
-0.7336
-0.72188
-0.702072
-0.672334
-0.635326
-0.594859
-0.553991
-0.514708
-0.478076
-0.444509
-0.414029
-0.386458
-0.361534
-0.338978
-0.318522
-0.299926
-0.282973
-0.267475
-0.253262
-0.24019
-0.228142
-0.216984
-0.206457
-0.196457
-0.188358
-0.706442
-0.695189
-0.675165
-0.64494
-0.607567
-0.56702
-0.52637
-0.487547
-0.451538
-0.418689
-0.388973
-0.362179
-0.338028
-0.316232
-0.296519
-0.278644
-0.262392
-0.247574
-0.234022
-0.221591
-0.210165
-0.199607
-0.189649
-0.180198
-0.172689
-0.67652
-0.665783
-0.645636
-0.615082
-0.577548
-0.537134
-0.496904
-0.458718
-0.423485
-0.391483
-0.362641
-0.336722
-0.313431
-0.292472
-0.273573
-0.256487
-0.241
-0.226924
-0.21409
-0.202357
-0.19161
-0.181707
-0.172374
-0.163525
-0.156642
-0.643923
-0.633748
-0.613579
-0.582861
-0.545369
-0.505298
-0.465681
-0.428302
-0.393987
-0.362954
-0.33509
-0.310134
-0.287783
-0.267735
-0.249717
-0.233484
-0.218823
-0.205547
-0.193491
-0.182514
-0.172502
-0.163312
-0.154663
-0.146474
-0.140257
-0.608765
-0.599198
-0.579111
-0.548398
-0.511149
-0.471623
-0.432804
-0.39639
-0.363127
-0.333174
-0.306382
-0.282473
-0.261134
-0.242063
-0.224987
-0.209665
-0.195886
-0.183467
-0.172244
-0.162081
-0.152864
-0.144449
-0.136548
-0.129086
-0.123585
-0.571179
-0.562266
-0.542369
-0.511829
-0.475022
-0.436236
-0.398388
-0.363085
-0.330996
-0.302225
-0.27659
-0.2538
-0.233538
-0.215501
-0.199422
-0.185062
-0.172216
-0.160705
-0.150369
-0.141075
-0.132712
-0.125136
-0.118059
-0.111403
-0.106681
-0.531324
-0.523106
-0.503509
-0.473311
-0.437135
-0.399272
-0.362557
-0.328502
-0.297697
-0.270197
-0.245795
-0.224188
-0.205056
-0.188103
-0.173063
-0.159707
-0.147836
-0.137276
-0.127875
-0.119503
-0.112052
-0.105383
-0.0992118
-0.093459
-0.0895728
-0.489372
-0.481891
-0.462702
-0.43301
-0.39765
-0.360883
-0.325449
-0.292763
-0.26334
-0.237192
-0.214087
-0.193716
-0.175759
-0.159926
-0.145958
-0.133636
-0.122768
-0.11319
-0.104758
-0.0973501
-0.0908651
-0.0851696
-0.0799961
-0.0752449
-0.0722264
-0.445516
-0.438812
-0.420138
-0.391111
-0.356739
-0.321229
-0.287211
-0.256003
-0.228051
-0.203322
-0.181569
-0.162476
-0.145727
-0.131037
-0.118161
-0.106886
-0.0970333
-0.0884501
-0.0810044
-0.0745859
-0.0691039
-0.0644388
-0.0603455
-0.0566917
-0.0545937
-0.399963
-0.39407
-0.376017
-0.347808
-0.314586
-0.280478
-0.248
-0.218368
-0.191962
-0.168711
-0.148353
-0.130569
-0.11505
-0.101517
-0.0897354
-0.0795059
-0.0706625
-0.0630669
-0.0566047
-0.0511836
-0.0467264
-0.0431322
-0.0402016
-0.0378135
-0.0369029
-0.352933
-0.347884
-0.330551
-0.303304
-0.271383
-0.238812
-0.207982
-0.180012
-0.155216
-0.133493
-0.114565
-0.0981133
-0.0838332
-0.0714567
-0.0607583
-0.051552
-0.0436873
-0.0370459
-0.0315401
-0.0271065
-0.0236878
-0.0212182
-0.0196372
-0.0189929
-0.0199142
-0.304657
-0.30048
-0.283962
-0.257812
-0.227328
-0.196414
-0.16733
-0.141096
-0.117968
-0.0978122
-0.0803423
-0.0652382
-0.0522001
-0.0409674
-0.0313228
-0.0230905
-0.0161329
-0.0103521
-0.00569253
-0.00212813
0.000368567
0.00176694
0.00175945
-0.000113911
-0.0034942
-0.255374
-0.252093
-0.23648
-0.21155
-0.182629
-0.153478
-0.126224
-0.101791
-0.0803783
-0.0618253
-0.0458368
-0.0320927
-0.0202969
-0.0101931
-0.00156709
0.00575579
0.011913
0.0170008
0.0210704
0.0241537
0.0262981
0.0273587
0.0264677
0.0227051
0.0182939
-0.205333
-0.202967
-0.188338
-0.164741
-0.137492
-0.110198
-0.0848469
-0.06227
-0.0426136
-0.0256941
-0.0112089
0.00116074
0.0117077
0.0206853
0.0283077
0.0347541
0.0401732
0.0446825
0.0483751
0.0513716
0.0538644
0.0557876
0.056005
0.0538337
0.0580504
-0.154774
-0.153341
-0.13977
-0.117608
-0.0921275
-0.0667703
-0.043383
-0.0227079
-0.00484246
0.0104171
0.023378
0.0343566
0.043641
0.0514805
0.0580868
0.0636398
0.0682916
0.0721696
0.0753891
0.0781027
0.0805109
0.0825724
0.0836359
0.0842058
0.0911036
-0.103951
-0.103462
-0.0910158
-0.070375
-0.0467457
-0.0233905
-0.00201628
0.016721
0.0327682
0.046346
0.0577641
0.0673347
0.0753397
0.0820231
0.0875929
0.092227
0.0960782
0.0992779
0.101949
0.104243
0.106329
0.108159
0.109267
0.110237
0.116487
-0.0531141
-0.0535772
-0.0423104
-0.0232654
-0.00155401
0.0197477
0.0390723
0.0558458
0.0700554
0.0819356
0.0917959
0.0999425
0.10665
0.112154
0.116657
0.120331
0.123325
0.125767
0.12778
0.129502
0.131087
0.132497
0.133339
0.134075
0.139163
-0.00251224
-0.00392921
0.00611223
0.0235014
0.0432434
0.062455
0.0797059
0.0945005
0.106862
0.117036
0.12533
0.132041
0.137436
0.141741
0.14515
0.147827
0.149913
0.151529
0.152787
0.153813
0.154734
0.155505
0.155769
0.155957
0.159958
0.0476102
0.0452419
0.0540225
0.0697102
0.087447
0.104547
0.119713
0.132525
0.143039
0.151506
0.158231
0.163503
0.167577
0.170669
0.172963
0.174615
0.175755
0.176495
0.176937
0.177191
0.177365
0.177399
0.176966
0.176493
0.179449
0.0970135
0.0937013
0.101196
0.115152
0.130863
0.145844
0.15893
0.169767
0.178442
0.185212
0.190376
0.194212
0.196965
0.19884
0.200009
0.200619
0.200789
0.200623
0.20021
0.199647
0.199024
0.198274
0.197097
0.195934
0.197895
0.145464
0.14122
0.147415
0.159623
0.173305
0.186176
0.197196
0.20608
0.212937
0.218029
0.221648
0.224062
0.225504
0.226166
0.226212
0.225776
0.224969
0.223884
0.222601
0.221205
0.219771
0.218226
0.216305
0.214453
0.215462
0.192736
0.187578
0.19247
0.202928
0.214593
0.225376
0.234361
0.241323
0.246394
0.249838
0.251939
0.252954
0.253103
0.252569
0.251503
0.25003
0.248252
0.246251
0.2441
0.241874
0.239633
0.237306
0.234658
0.232133
0.232232
0.238612
0.232561
0.236157
0.244879
0.254554
0.263287
0.27028
0.275364
0.278692
0.280528
0.281147
0.280795
0.279681
0.277975
0.27582
0.273329
0.270596
0.267696
0.264692
0.261651
0.258624
0.255539
0.252192
0.249017
0.248245
0.282883
0.275965
0.278284
0.285298
0.293024
0.299758
0.304815
0.308078
0.309715
0.309992
0.309175
0.307497
0.305157
0.302315
0.299101
0.295621
0.29196
0.288186
0.284354
0.280525
0.276739
0.272928
0.268916
0.265117
0.263511
0.325349
0.317597
0.318667
0.324013
0.329847
0.334647
0.337835
0.339342
0.339353
0.33813
0.33593
0.332977
0.329456
0.325519
0.321286
0.316854
0.3123
0.307684
0.303058
0.298472
0.293962
0.289461
0.28482
0.280427
0.278023
0.365823
0.357272
0.357132
0.360865
0.364875
0.367819
0.369218
0.369046
0.367502
0.364846
0.361326
0.357154
0.352507
0.347524
0.342317
0.336976
0.331569
0.326152
0.320769
0.315464
0.310267
0.305116
0.299884
0.294928
0.291765
0.404126
0.394818
0.393515
0.395701
0.39797
0.399147
0.398845
0.397081
0.394063
0.39005
0.385279
0.379953
0.374238
0.368265
0.362136
0.355935
0.349722
0.343548
0.33745
0.331468
0.325625
0.319866
0.314081
0.308595
0.304711
0.440094
0.430072
0.427664
0.428382
0.429002
0.428512
0.426609
0.423347
0.418945
0.413656
0.407711
0.401302
0.394585
0.387682
0.380689
0.37368
0.366712
0.359828
0.353062
0.346447
0.340002
0.333677
0.327381
0.321397
0.316836
0.473572
0.462885
0.459437
0.458775
0.457852
0.455804
0.452409
0.447752
0.442061
0.435586
0.428548
0.421132
0.413483
0.405717
0.39792
0.390162
0.382493
0.374951
0.367566
0.360365
0.353363
0.346517
0.33975
0.333305
0.32811
0.504419
0.493119
0.488705
0.486761
0.48441
0.480923
0.476151
0.47021
0.463333
0.455766
0.447723
0.43938
0.430875
0.422314
0.41378
0.405333
0.39702
0.388875
0.380922
0.373185
0.365674
0.358352
0.351155
0.344285
0.338505
0.532507
0.52065
0.515349
0.512233
0.508576
0.503777
0.497752
0.490642
0.482686
0.474128
0.465173
0.455989
0.446706
0.437425
0.42822
0.419149
0.410253
0.40156
0.393094
0.384871
0.3769
0.369149
0.361565
0.354309
0.347994
0.55772
0.545366
0.539266
0.535091
0.530261
0.524284
0.517135
0.508978
0.500057
0.490611
0.48084
0.470904
0.460926
0.451001
0.441198
0.43157
0.422152
0.412972
0.404047
0.395391
0.38701
0.378877
0.370949
0.363348
0.356552
0.579958
0.567169
0.560362
0.555252
0.549385
0.54237
0.534233
0.525156
0.515388
0.505162
0.494675
0.484079
0.473492
0.463002
0.452675
0.442557
0.432684
0.423076
0.413749
0.404714
0.395975
0.387509
0.37928
0.371377
0.364156
0.599134
0.585975
0.578558
0.57264
0.565881
0.557975
0.548988
0.539122
0.528627
0.517734
0.506634
0.495473
0.484364
0.473391
0.462615
0.45208
0.441816
0.431843
0.422173
0.412815
0.403769
0.395019
0.386534
0.378371
0.370785
0.615176
0.601713
0.593787
0.587196
0.579693
0.571045
0.561353
0.550832
0.539734
0.528288
0.516679
0.505051
0.49351
0.482137
0.47099
0.46011
0.449523
0.439249
0.429296
0.41967
0.410371
0.401386
0.392691
0.384313
0.376423
0.628026
0.614326
0.605997
0.59887
0.590776
0.581539
0.571288
0.560249
0.548675
0.536793
0.524783
0.512785
0.500904
0.489217
0.477778
0.466625
0.455785
0.445273
0.435097
0.42526
0.415763
0.406594
0.397733
0.389185
0.381055
0.63764
0.623775
0.61515
0.607626
0.599097
0.589426
0.578766
0.567347
0.555425
0.543224
0.530922
0.518656
0.506527
0.494611
0.482959
0.471609
0.460584
0.4499
0.439562
0.429573
0.419931
0.410628
0.401647
0.392977
0.384671
0.643992
0.630031
0.621219
0.613442
0.604634
0.594688
0.583768
0.572109
0.559968
0.547567
0.535082
0.522648
0.510365
0.498306
0.486523
0.47505
0.463911
0.453119
0.442681
0.432598
0.422866
0.413481
0.404425
0.39568
0.387264
0.647068
0.633084
0.624193
0.616306
0.607377
0.597314
0.586284
0.574527
0.562297
0.549815
0.537257
0.524757
0.512413
0.500298
0.488463
0.476943
0.46576
0.454927
0.44445
0.43433
0.424564
0.415146
0.406063
0.39729
0.38883
0.646873
0.632934
0.624076
0.616221
0.607329
0.597306
0.586319
0.574603
0.562412
0.549969
0.537448
0.524982
0.512671
0.500588
0.488782
0.477289
0.466131
0.455323
0.444869
0.43477
0.425025
0.415625
0.40656
0.397806
0.389369
0.643423
0.629602
0.620884
0.613202
0.604505
0.594679
0.583883
0.572347
0.560325
0.548039
0.535663
0.523333
0.511148
0.499181
0.487484
0.476093
0.465031
0.454312
0.443942
0.433923
0.424252
0.414922
0.40592
0.397234
0.388885
0.636751
0.623117
0.614647
0.607279
0.59893
0.589456
0.578998
0.567781
0.556055
0.544043
0.53192
0.519825
0.507857
0.496093
0.484585
0.473369
0.462472
0.451907
0.441681
0.431799
0.422257
0.413046
0.404152
0.395579
0.387384
0.626907
0.613528
0.60541
0.598492
0.590642
0.581673
0.571698
0.560935
0.54963
0.538006
0.526244
0.514481
0.502822
0.491343
0.480101
0.469134
0.458469
0.448121
0.438101
0.428411
0.419051
0.410009
0.401269
0.392855
0.384877
0.613953
0.600896
0.59323
0.586894
0.579692
0.571374
0.562025
0.551848
0.541086
0.529965
0.518665
0.507331
0.496068
0.484958
0.474059
0.463412
0.453046
0.442978
0.43322
0.423779
0.414654
0.40583
0.397287
0.389077
0.381377
0.597967
0.585297
0.57818
0.572553
0.566139
0.558616
0.55003
0.540568
0.530469
0.519959
0.509224
0.498411
0.487632
0.476971
0.466489
0.456231
0.446229
0.436502
0.427065
0.417926
0.409087
0.400529
0.392227
0.384263
0.376901
0.579041
0.566819
0.560343
0.555546
0.550056
0.543466
0.535776
0.527153
0.517831
0.508039
0.497967
0.487766
0.477554
0.467419
0.457426
0.447625
0.43805
0.428723
0.419663
0.410879
0.402377
0.394132
0.386114
0.378438
0.37147
0.557281
0.545567
0.539818
0.535964
0.531526
0.526
0.519333
0.511668
0.503234
0.494262
0.484946
0.475444
0.46588
0.456345
0.446912
0.437633
0.428545
0.419677
0.411046
0.40267
0.394552
0.386666
0.378974
0.371626
0.365107
0.532807
0.521657
0.516714
0.513908
0.510643
0.506305
0.50078
0.494186
0.486746
0.478691
0.470222
0.461502
0.452661
0.443799
0.434992
0.426297
0.417756
0.4094
0.401252
0.393331
0.385646
0.378164
0.370838
0.363856
0.357837
0.505751
0.495218
0.491153
0.489492
0.487512
0.484476
0.480206
0.474791
0.468443
0.461397
0.453859
0.446
0.437956
0.429834
0.421715
0.413663
0.405724
0.397933
0.390317
0.3829
0.375693
0.368658
0.361738
0.355159
0.349688
0.476259
0.466392
0.46327
0.462841
0.462245
0.460618
0.457708
0.45357
0.448408
0.442456
0.435928
0.429003
0.421824
0.414506
0.407135
0.399781
0.392496
0.38532
0.378283
0.371414
0.364729
0.358184
0.351709
0.345567
0.340689
0.44449
0.435332
0.43321
0.434087
0.434967
0.434845
0.43339
0.43062
0.426729
0.421951
0.416507
0.410583
0.404333
0.397875
0.391307
0.384703
0.378121
0.371605
0.365191
0.358913
0.352791
0.346777
0.340784
0.335112
0.330868
0.410611
0.402204
0.401129
0.403378
0.405811
0.407279
0.407363
0.406044
0.403501
0.399969
0.395675
0.390815
0.385549
0.380007
0.374291
0.368483
0.362647
0.356834
0.351083
0.345435
0.339915
0.33447
0.328997
0.323826
0.320255
0.374804
0.367184
0.367194
0.370866
0.374919
0.378049
0.379748
0.379952
0.378826
0.376604
0.37352
0.369778
0.365547
0.360966
0.356146
0.351175
0.346125
0.341051
0.335999
0.331017
0.326135
0.321296
0.316377
0.311736
0.308876
0.337258
0.330459
0.331581
0.336715
0.34244
0.347293
0.350671
0.352461
0.35281
0.351953
0.35013
0.347553
0.344401
0.340822
0.336934
0.332836
0.328604
0.3243
0.319979
0.315692
0.311479
0.307279
0.302948
0.298865
0.296751
0.298176
0.292223
0.294477
0.301099
0.308534
0.315157
0.320263
0.32369
0.325565
0.32612
0.3256
0.324227
0.32219
0.319644
0.316719
0.31352
0.310131
0.306623
0.303055
0.299488
0.29597
0.292439
0.288726
0.285224
0.283891
0.257765
0.252682
0.256075
0.264197
0.273365
0.281792
0.288666
0.29377
0.29721
0.299213
0.300029
0.29989
0.298994
0.297507
0.295565
0.293283
0.290755
0.288057
0.285257
0.282425
0.279619
0.276779
0.273708
0.270809
0.270294
0.216244
0.212048
0.216578
0.226197
0.237108
0.247357
0.256024
0.262833
0.267866
0.271343
0.273521
0.274638
0.274901
0.274486
0.273539
0.272183
0.270521
0.268637
0.266607
0.264513
0.262424
0.260285
0.257873
0.255591
0.25593
0.173837
0.170541
0.176196
0.187296
0.199942
0.212017
0.222489
0.23102
0.237662
0.242631
0.246184
0.248568
0.249999
0.250662
0.250711
0.250279
0.249476
0.248396
0.247124
0.245753
0.244368
0.242922
0.241165
0.239501
0.240733
0.130774
0.128387
0.135144
0.147695
0.162054
0.175944
0.188219
0.198476
0.206734
0.213201
0.218134
0.221788
0.224386
0.226122
0.227159
0.227637
0.227673
0.22737
0.226822
0.226133
0.225409
0.224613
0.223472
0.222395
0.224562
0.0872913
0.0858178
0.0936439
0.1076
0.123634
0.139314
0.153377
0.165351
0.175222
0.183183
0.189494
0.194411
0.198168
0.200965
0.202971
0.204332
0.205174
0.205604
0.205725
0.205654
0.205515
0.20528
0.204645
0.204052
0.20719
0.0436273
0.0430665
0.0519199
0.0672232
0.0848791
0.102309
0.118132
0.131804
0.143273
0.152717
0.160393
0.166562
0.171463
0.1753