1.275 	2.15223e-18 	-2.76991e-20 	-0.316184 	0.0100941 	-3.52413e-22
1.825 	2.15223e-18 	-1.39322e-20 	-0.545794 	-0.000458433 	5.1486e-21
2.375 	2.15223e-18 	-2.66896e-23 	-0.313296 	-0.0068974 	-1.86825e-21
