/*--------------------------------*- C++ -*----------------------------------*\
  =========                 |
  \\      /  F ield         | OpenFOAM: The Open Source CFD Toolbox
   \\    /   O peration     | Website:  https://openfoam.org
    \\  /    A nd           | Version:  6.0
     \\/     M anipulation  |
\*---------------------------------------------------------------------------*/
FoamFile
{
    version     2.0;
    format      ascii;
    class       volScalarField;
    location    "0.5";
    object      p;
}
// * * * * * * * * * * * * * * * * * * * * * * * * * * * * * * * * * * * * * //

dimensions      [0 2 -2 0 0 0 0];

internalField   nonuniform List<scalar> 
8000
(
-0.0474435
-0.0490377
-0.0448383
-0.0359403
-0.0232865
-0.00775558
0.0094452
0.0270127
0.0437949
0.0589268
0.0718718
0.0823933
0.0904904
0.0963225
0.100141
0.102238
0.102903
0.102409
0.101077
0.0990745
-0.051206
-0.0527145
-0.0485125
-0.0396625
-0.0270698
-0.0115849
0.00560532
0.0232066
0.0400658
0.0553109
0.0683953
0.0790733
0.087336
0.093337
0.0973239
0.0995849
0.10041
0.100069
0.0988825
0.0970149
-0.0586785
-0.0600154
-0.0558068
-0.0470501
-0.0345765
-0.0191805
-0.00200917
0.0156607
0.0326737
0.0481433
0.061504
0.0724916
0.0810818
0.0874166
0.0917354
0.094321
0.0954599
0.0954207
0.0945226
0.0929212
-0.0697513
-0.0708346
-0.0666137
-0.0579906
-0.0456878
-0.0304171
-0.0132676
0.00450907
0.0217534
0.0375573
0.0513272
0.0627715
0.0718436
0.0786687
0.0834743
0.0865357
0.0881348
0.0885375
0.0880615
0.0868499
-0.0842669
-0.0850193
-0.0807785
-0.0723228
-0.0602327
-0.0451138
-0.0279805
-0.0100533
0.00750171
0.0237474
0.0380533
0.0500928
0.0597905
0.06725
0.0726846
0.0763599
0.0785522
0.0795246
0.0795929
0.0788833
-0.102026
-0.102378
-0.0981067
-0.0898427
-0.0779953
-0.0630416
-0.045908
-0.0277795
-0.00983251
0.00695958
0.0219212
0.0346835
0.0451369
0.0533603
0.05955
0.0639613
0.0668639
0.0685183
0.0692381
0.0691288
-0.122799
-0.122686
-0.118372
-0.110314
-0.0987247
-0.0839345
-0.066771
-0.0483822
-0.0299591
-0.012519
0.00320982
0.0168104
0.0281348
0.0372347
0.0442883
0.0495395
0.0532518
0.055683
0.0571448
0.0577175
-0.146332
-0.145701
-0.141328
-0.133479
-0.122147
-0.107501
-0.0902632
-0.0715452
-0.0525584
-0.0343718
-0.0177728
-0.00323126
0.0090639
0.0191355
0.0271432
0.0333199
0.0379227
0.0412072
0.0434836
0.0448023
-0.172359
-0.171167
-0.166717
-0.159069
-0.147975
-0.133436
-0.116063
-0.0969362
-0.0772942
-0.0582651
-0.0407011
-0.0251286
-0.0117785
-0.000656868
0.00837764
0.0155472
0.0211034
0.0253001
0.0284457
0.030557
-0.200613
-0.198825
-0.194279
-0.186811
-0.175921
-0.161431
-0.143846
-0.124218
-0.103824
-0.0838592
-0.0652435
-0.0485616
-0.0340866
-0.0218525
-0.0117348
-0.00352107
0.0030351
0.00818676
0.0122403
0.015175
-0.23083
-0.228422
-0.223759
-0.216441
-0.205702
-0.191184
-0.17329
-0.153058
-0.131812
-0.110818
-0.0910712
-0.0732124
-0.0575556
-0.0441603
-0.0329171
-0.023622
-0.0160327
-0.00989622
-0.00490915
-0.00113229
-0.262759
-0.259717
-0.254915
-0.247705
-0.237047
-0.222402
-0.204087
-0.183135
-0.16093
-0.138818
-0.117867
-0.0987735
-0.0818894
-0.0672963
-0.0548972
-0.0444946
-0.0358492
-0.0287077
-0.0227707
-0.0181396
-0.296164
-0.29248
-0.287518
-0.280365
-0.269698
-0.254811
-0.235942
-0.214144
-0.19087
-0.167551
-0.14533
-0.124954
-0.106808
-0.0909912
-0.0774155
-0.0658878
-0.0561708
-0.0480099
-0.0411115
-0.0356155
-0.330825
-0.326501
-0.321354
-0.314195
-0.303414
-0.288147
-0.26858
-0.245799
-0.221343
-0.196734
-0.173183
-0.151487
-0.132055
-0.114998
-0.100233
-0.0875698
-0.0767706
-0.0675795
-0.0597091
-0.0533349
-0.366541
-0.361581
-0.356225
-0.348985
-0.337969
-0.322167
-0.30174
-0.277833
-0.252083
-0.226104
-0.201176
-0.178131
-0.157399
-0.139095
-0.123139
-0.109338
-0.0974513
-0.0872216
-0.0783681
-0.0710984
-0.403125
-0.397539
-0.391944
-0.38454
-0.373148
-0.356641
-0.335181
-0.310001
-0.282848
-0.255429
-0.229083
-0.204674
-0.182639
-0.163094
-0.145954
-0.131021
-0.118052
-0.106784
-0.0969417
-0.0887573
-0.440403
-0.434203
-0.428336
-0.42067
-0.408747
-0.391349
-0.368678
-0.342078
-0.313418
-0.284498
-0.256709
-0.230932
-0.207604
-0.186834
-0.168526
-0.152476
-0.138436
-0.126143
-0.115319
-0.106206
-0.478212
-0.47141
-0.465234
-0.457196
-0.444571
-0.426085
-0.402019
-0.373855
-0.343595
-0.313128
-0.283883
-0.25675
-0.232154
-0.210188
-0.19074
-0.173595
-0.158498
-0.145177
-0.133354
-0.123295
-0.516393
-0.509003
-0.502472
-0.49394
-0.48043
-0.460652
-0.435007
-0.405143
-0.373202
-0.341154
-0.310456
-0.281994
-0.256172
-0.233062
-0.212532
-0.194348
-0.178234
-0.16388
-0.150969
-0.139915
-0.554792
-0.546826
-0.53989
-0.53073
-0.516139
-0.494858
-0.467454
-0.435765
-0.402075
-0.368425
-0.336288
-0.306534
-0.279541
-0.255358
-0.233838
-0.214736
-0.197762
-0.182549
-0.168734
-0.156891
-0.593254
-0.584725
-0.577325
-0.567388
-0.551512
-0.528518
-0.499182
-0.465555
-0.430059
-0.394798
-0.361244
-0.330237
-0.302124
-0.276928
-0.254492
-0.234577
-0.216914
-0.201207
-0.187431
-0.176558
-0.631619
-0.622538
-0.614605
-0.603735
-0.586364
-0.56145
-0.530021
-0.494356
-0.457014
-0.420141
-0.385193
-0.352969
-0.323774
-0.2976
-0.27427
-0.253536
-0.23513
-0.218789
-0.20458
-0.19306
-0.669723
-0.660101
-0.65156
-0.639589
-0.620509
-0.593475
-0.559806
-0.522022
-0.482807
-0.444332
-0.408018
-0.374612
-0.344367
-0.317238
-0.293023
-0.271457
-0.252259
-0.235162
-0.220175
-0.207514
-0.707396
-0.697238
-0.688006
-0.67476
-0.653759
-0.624415
-0.58838
-0.548414
-0.507315
-0.467257
-0.429611
-0.395059
-0.363796
-0.335735
-0.310644
-0.288238
-0.268217
-0.2503
-0.234458
-0.220747
-0.744454
-0.733768
-0.723754
-0.709052
-0.685922
-0.654098
-0.615589
-0.5734
-0.530423
-0.488814
-0.449879
-0.414221
-0.381978
-0.353015
-0.32707
-0.303836
-0.283
-0.264266
-0.247581
-0.232888
-0.780706
-0.769495
-0.758601
-0.742261
-0.716806
-0.682349
-0.641285
-0.596858
-0.552026
-0.508911
-0.468736
-0.432023
-0.398844
-0.369018
-0.342255
-0.318228
-0.29661
-0.277102
-0.259631
-0.244059
-0.81595
-0.804216
-0.792339
-0.774179
-0.746215
-0.708997
-0.665326
-0.618666
-0.572023
-0.52746
-0.486107
-0.448397
-0.414335
-0.383696
-0.356163
-0.331391
-0.309042
-0.288818
-0.270623
-0.254257
-0.849972
-0.837716
-0.824747
-0.804591
-0.773951
-0.733874
-0.687573
-0.638713
-0.590322
-0.544383
-0.501921
-0.46328
-0.428397
-0.397004
-0.368758
-0.343299
-0.320282
-0.299406
-0.280555
-0.263485
-0.882548
-0.869768
-0.855599
-0.833276
-0.79982
-0.756815
-0.707891
-0.656889
-0.60683
-0.559601
-0.516113
-0.476615
-0.440979
-0.408898
-0.380003
-0.353921
-0.330303
-0.308843
-0.289405
-0.271713
-0.913446
-0.900139
-0.884659
-0.860014
-0.823624
-0.777659
-0.726151
-0.673091
-0.621464
-0.573041
-0.528616
-0.488343
-0.45203
-0.419332
-0.389858
-0.363224
-0.339073
-0.317101
-0.297143
-0.278914
-0.942425
-0.928588
-0.91169
-0.884582
-0.845174
-0.796249
-0.742229
-0.687219
-0.634139
-0.584634
-0.539369
-0.498409
-0.4615
-0.428261
-0.398282
-0.371167
-0.346557
-0.324143
-0.303732
-0.285048
-0.96924
-0.95487
-0.936451
-0.906761
-0.864283
-0.812437
-0.756009
-0.699179
-0.644778
-0.594309
-0.548312
-0.506759
-0.469339
-0.43564
-0.405232
-0.377712
-0.352715
-0.329929
-0.309134
-0.290076
-0.993642
-0.978736
-0.958702
-0.926334
-0.880772
-0.826082
-0.767378
-0.708881
-0.653306
-0.602004
-0.555387
-0.513339
-0.4755
-0.441423
-0.410666
-0.382816
-0.357507
-0.334422
-0.313309
-0.293958
-1.01538
-0.99994
-0.978208
-0.943095
-0.894472
-0.83705
-0.776234
-0.716243
-0.659653
-0.607655
-0.560538
-0.518101
-0.479934
-0.445568
-0.414543
-0.386442
-0.360896
-0.337581
-0.316219
-0.296655
-1.03422
-1.01824
-0.99474
-0.956846
-0.905226
-0.845222
-0.782483
-0.721187
-0.663753
-0.611207
-0.563714
-0.520996
-0.482601
-0.448033
-0.416825
-0.388552
-0.362845
-0.339372
-0.317827
-0.298132
-1.0499
-1.0334
-1.00808
-0.967403
-0.91289
-0.850487
-0.786038
-0.723644
-0.665546
-0.612605
-0.564866
-0.521982
-0.483458
-0.448783
-0.417476
-0.389112
-0.363322
-0.339761
-0.318102
-0.298356
-1.06221
-1.04519
-1.01802
-0.974598
-0.917334
-0.852747
-0.786825
-0.723551
-0.664978
-0.611801
-0.563952
-0.521017
-0.48247
-0.447782
-0.416466
-0.388094
-0.362298
-0.338722
-0.317017
-0.2973
-1.07093
-1.0534
-1.02438
-0.978281
-0.918446
-0.85192
-0.784776
-0.720853
-0.662
-0.60875
-0.560931
-0.518068
-0.479606
-0.445003
-0.413769
-0.385474
-0.35975
-0.336231
-0.31455
-0.294942
-1.07585
-1.05785
-1.02699
-0.978322
-0.916133
-0.847937
-0.779839
-0.715502
-0.65657
-0.603416
-0.555768
-0.513102
-0.474837
-0.440421
-0.409361
-0.38123
-0.35566
-0.332272
-0.310686
-0.291267
-1.0768
-1.05836
-1.0257
-0.974615
-0.910319
-0.840743
-0.771969
-0.70746
-0.64865
-0.595762
-0.548434
-0.506093
-0.46814
-0.434016
-0.403227
-0.375349
-0.350015
-0.326832
-0.305414
-0.286266
-1.07362
-1.05479
-1.0204
-0.967076
-0.900952
-0.8303
-0.761134
-0.696697
-0.638214
-0.585764
-0.538902
-0.497018
-0.459496
-0.425772
-0.395354
-0.367821
-0.342808
-0.319907
-0.298731
-0.279936
-1.06618
-1.04702
-1.01099
-0.955649
-0.887997
-0.816588
-0.747319
-0.683196
-0.625243
-0.573402
-0.527157
-0.485863
-0.448892
-0.41568
-0.385735
-0.358642
-0.334038
-0.311498
-0.290644
-0.272283
-1.05439
-1.03495
-0.997425
-0.940304
-0.871446
-0.799606
-0.73052
-0.666954
-0.609729
-0.558668
-0.513189
-0.47262
-0.436325
-0.403737
-0.37437
-0.347817
-0.323711
-0.301615
-0.281164
-0.263321
-1.03817
-1.01854
-0.979666
-0.921041
-0.851315
-0.779373
-0.710756
-0.647981
-0.591682
-0.541568
-0.497004
-0.457295
-0.421799
-0.389952
-0.361272
-0.335357
-0.311843
-0.290276
-0.270316
-0.253076
-1.01751
-0.99777
-0.957721
-0.897889
-0.827643
-0.755929
-0.688063
-0.62631
-0.571129
-0.522127
-0.478624
-0.439909
-0.405337
-0.374346
-0.346461
-0.321287
-0.29846
-0.27751
-0.258132
-0.24158
-0.992406
-0.972649
-0.931626
-0.870904
-0.800495
-0.729339
-0.6625
-0.601996
-0.548119
-0.50039
-0.458093
-0.420504
-0.386978
-0.356958
-0.329977
-0.305647
-0.283601
-0.26336
-0.244659
-0.228878
-0.962902
-0.943231
-0.901455
-0.840174
-0.769964
-0.699692
-0.63415
-0.575114
-0.522725
-0.476428
-0.435477
-0.399143
-0.366784
-0.337849
-0.311878
-0.288493
-0.267323
-0.247883
-0.229952
-0.21502
-0.929078
-0.909603
-0.86731
-0.805815
-0.736167
-0.667101
-0.60312
-0.545768
-0.495045
-0.450334
-0.410868
-0.375915
-0.34484
-0.3171
-0.292245
-0.269902
-0.249701
-0.231151
-0.214083
-0.200071
-0.891053
-0.871886
-0.829329
-0.767971
-0.699245
-0.6317
-0.569538
-0.514078
-0.465197
-0.422224
-0.384378
-0.35093
-0.321253
-0.294815
-0.271175
-0.249969
-0.230826
-0.213253
-0.197135
-0.184108
-0.848978
-0.830239
-0.787677
-0.726813
-0.659365
-0.593645
-0.533549
-0.480184
-0.433315
-0.392228
-0.356134
-0.324311
-0.296143
-0.271109
-0.24878
-0.228801
-0.210798
-0.194287
-0.179198
-0.16721
-0.80304
-0.784851
-0.742554
-0.682535
-0.61671
-0.553108
-0.495315
-0.444238
-0.399544
-0.360486
-0.326271
-0.296189
-0.269634
-0.246102
-0.225174
-0.206505
-0.189723
-0.17435
-0.16036
-0.149456
-0.753461
-0.735945
-0.694183
-0.635357
-0.571485
-0.510275
-0.455007
-0.406398
-0.364033
-0.327137
-0.294922
-0.266689
-0.241849
-0.21991
-0.200468
-0.183186
-0.167698
-0.153536
-0.140708
-0.13092
-0.700495
-0.683777
-0.642818
-0.585518
-0.523909
-0.465346
-0.412803
-0.366827
-0.326928
-0.292316
-0.26221
-0.235927
-0.212894
-0.192634
-0.174758
-0.158939
-0.144818
-0.131939
-0.120331
-0.111688
-0.644427
-0.62863
-0.588736
-0.53328
-0.474219
-0.418532
-0.368893
-0.325691
-0.288377
-0.256153
-0.22825
-0.204002
-0.182857
-0.164353
-0.148118
-0.133836
-0.121159
-0.109643
-0.0993249
-0.0918649
-0.585573
-0.570816
-0.53224
-0.478922
-0.422669
-0.370057
-0.323474
-0.283164
-0.248531
-0.218777
-0.193148
-0.171003
-0.151808
-0.135124
-0.120594
-0.107918
-0.0967633
-0.0867001
-0.0777604
-0.0715426
-0.524273
-0.510671
-0.473653
-0.422744
-0.369528
-0.320162
-0.276757
-0.239432
-0.207551
-0.180322
-0.157016
-0.137016
-0.119811
-0.104988
-0.0922095
-0.0811941
-0.0716249
-0.063101
-0.0556548
-0.0507894
-0.460897
-0.448559
-0.41332
-0.365064
-0.315082
-0.269102
-0.228972
-0.194696
-0.165613
-0.140943
-0.119982
-0.102143
-0.0869454
-0.0740027
-0.0630045
-0.0536862
-0.0457542
-0.0388697
-0.033107
-0.0298025
-0.395834
-0.384859
-0.351604
-0.306215
-0.259634
-0.217152
-0.180367
-0.149182
-0.122918
-0.100812
-0.0821901
-0.0664971
-0.0532894
-0.0422183
-0.033008
-0.0254163
-0.0191974
-0.0141613
-0.0104901
-0.00909109
-0.329494
-0.319972
-0.288882
-0.246548
-0.203502
-0.164603
-0.13121
-0.103137
-0.0796933
-0.0601339
-0.043813
-0.0302074
-0.0189098
-0.00961462
-0.00208648
0.00388232
0.00842266
0.0113979
0.0124357
0.0115843
-0.262299
-0.254308
-0.225545
-0.18642
-0.147018
-0.111763
-0.0817906
-0.0568379
-0.0362045
-0.019164
-0.00509278
0.00651114
0.0160351
0.0237677
0.029945
0.0347835
0.0382774
0.0398122
0.0388634
0.0368899
-0.194688
-0.188291
-0.161991
-0.126201
-0.0905225
-0.0589502
-0.0324119
-0.0105782
0.00725467
0.0217944
0.0336441
0.0432912
0.0511192
0.0574357
0.0625419
0.0667597
0.070082
0.0715482
0.0709545
0.0763169
-0.127091
-0.122344
-0.0986172
-0.0662601
-0.0343574
-0.00648546
0.01662
0.0353445
0.0503886
0.0624373
0.0720682
0.079747
0.0858424
0.0906614
0.0945113
0.0976855
0.100151
0.101357
0.1022
0.109106
-0.0599524
-0.056893
-0.0358266
-0.00696743
0.0211352
0.0453114
0.0650021
0.0806387
0.0929134
0.102486
0.109906
0.115617
0.119972
0.123264
0.125782
0.127766
0.129164
0.129605
0.130069
0.13568
0.00628872
0.00763692
0.0259851
0.0513124
0.0756191
0.0961275
0.112439
0.125022
0.134555
0.141668
0.146883
0.150615
0.153195
0.154898
0.155987
0.156669
0.156904
0.156403
0.156036
0.160007
0.0711999
0.070829
0.0864289
0.108223
0.128767
0.14566
0.158649
0.16823
0.175064
0.179751
0.182781
0.18454
0.185333
0.185413
0.185011
0.184304
0.183238
0.181572
0.180132
0.182557
0.134358
0.132276
0.145126
0.163418
0.180264
0.193619
0.203362
0.210012
0.214207
0.216517
0.217398
0.217208
0.216228
0.214684
0.212781
0.210668
0.208278
0.205403
0.202842
0.203767
0.195354
0.191584
0.201713
0.216565
0.229806
0.239726
0.246324
0.250133
0.251769
0.251768
0.250557
0.248464
0.245744
0.2426
0.239212
0.235704
0.232
0.227928
0.224259
0.223752
0.253792
0.248375
0.255837
0.267347
0.277105
0.283719
0.287294
0.288373
0.287548
0.285324
0.282096
0.278165
0.273761
0.269066
0.264239
0.259378
0.254408
0.249187
0.244443
0.242567
0.309296
0.302288
0.307168
0.315461
0.321887
0.325348
0.326045
0.324525
0.321357
0.317013
0.31186
0.306174
0.300162
0.293985
0.287781
0.28163
0.275458
0.269151
0.263382
0.260202
0.36151
0.352981
0.35539
0.360624
0.363896
0.364381
0.362364
0.358395
0.353017
0.346676
0.339708
0.332366
0.324835
0.31726
0.309757
0.302393
0.295096
0.287774
0.281037
0.276623
0.4101
0.400135
0.40021
0.402569
0.40289
0.400599
0.396053
0.389801
0.382365
0.374161
0.365502
0.356616
0.34767
0.338792
0.330081
0.321589
0.313252
0.304994
0.29735
0.291779
0.454755
0.443455
0.441356
0.44105
0.438648
0.433799
0.426926
0.418575
0.409247
0.39933
0.389114
0.378809
0.368563
0.358487
0.348666
0.339142
0.329854
0.320741
0.31226
0.305616
0.495191
0.482669
0.47858
0.475844
0.470966
0.463797
0.454814
0.444562
0.433519
0.422051
0.410427
0.398836
0.387412
0.376253
0.365428
0.354971
0.344828
0.334946
0.3257
0.318075
0.531152
0.517533
0.511656
0.506746
0.499659
0.490424
0.479565
0.467622
0.455053
0.442206
0.429329
0.416595
0.404125
0.392003
0.380288
0.369003
0.358103
0.34754
0.33761
0.329105
0.562409
0.547829
0.540385
0.533576
0.524564
0.513532
0.501041
0.487628
0.473734
0.459688
0.445722
0.431996
0.418617
0.405659
0.39317
0.381169
0.369614
0.358459
0.347932
0.338654
0.588765
0.573368
0.564595
0.556177
0.54554
0.532991
0.519124
0.504472
0.489461
0.474404
0.45952
0.444958
0.430813
0.417151
0.404011
0.391406
0.3793
0.367649
0.356614
0.34668
0.610052
0.593993
0.58414
0.574419
0.562467
0.548691
0.533713
0.51806
0.502147
0.486275
0.47065
0.455412
0.44065
0.426419
0.412754
0.399662
0.387112
0.37506
0.363612
0.353145
0.626137
0.609575
0.598903
0.588194
0.575247
0.560545
0.544727
0.528318
0.511723
0.495235
0.479051
0.463303
0.448074
0.433415
0.419352
0.405892
0.393008
0.380653
0.368891
0.358019
0.636916
0.620016
0.608794
0.597423
0.583808
0.568485
0.552105
0.535188
0.518137
0.501236
0.484677
0.468588
0.453046
0.438099
0.423771
0.410065
0.396957
0.384399
0.372425
0.36128
0.642323
0.625253
0.613754
0.60205
0.588101
0.572467
0.555804
0.538634
0.521354
0.504245
0.487499
0.471238
0.45554
0.440449
0.425987
0.412158
0.398937
0.386277
0.374197
0.362914
0.642323
0.625253
0.613754
0.602051
0.588102
0.572467
0.555805
0.538634
0.521354
0.504246
0.487499
0.471239
0.455541
0.44045
0.425988
0.412159
0.398938
0.386278
0.374198
0.362915
0.636917
0.620016
0.608794
0.597423
0.583809
0.568487
0.552106
0.53519
0.51814
0.501238
0.48468
0.46859
0.453049
0.438103
0.423774
0.410069
0.39696
0.384402
0.372428
0.361283
0.626137
0.609575
0.598903
0.588196
0.575249
0.560548
0.54473
0.528321
0.511727
0.495239
0.479055
0.463308
0.448079
0.43342
0.419357
0.405898
0.393014
0.380658
0.368896
0.358024
0.610053
0.593994
0.584142
0.574421
0.56247
0.548695
0.533718
0.518065
0.502152
0.48628
0.470656
0.455419
0.440657
0.426427
0.412761
0.399669
0.38712
0.375068
0.363619
0.353152
0.588767
0.573371
0.564598
0.556181
0.545544
0.532996
0.51913
0.504478
0.489468
0.474412
0.459529
0.444966
0.430823
0.417161
0.404021
0.391416
0.37931
0.367659
0.356623
0.346689
0.562413
0.547832
0.540389
0.53358
0.52457
0.513538
0.501048
0.487636
0.473743
0.459698
0.445732
0.432007
0.418629
0.405671
0.393183
0.381181
0.369626
0.358471
0.347943
0.338665
0.531157
0.517538
0.511662
0.506752
0.499666
0.490432
0.479574
0.467632
0.455064
0.442218
0.429341
0.416608
0.404139
0.392017
0.380302
0.369018
0.358118
0.347554
0.337624
0.329118
0.495199
0.482677
0.478588
0.475852
0.470975
0.463806
0.454825
0.444574
0.433532
0.422065
0.410441
0.398851
0.387428
0.376269
0.365445
0.354988
0.344845
0.334962
0.325716
0.318091
0.454765
0.443466
0.441367
0.441061
0.438659
0.433811
0.426939
0.418589
0.409262
0.399346
0.389132
0.378827
0.368581
0.358506
0.348685
0.339161
0.329873
0.32076
0.312277
0.305633
0.410114
0.400149
0.400224
0.402582
0.402904
0.400613
0.396068
0.389818
0.382383
0.37418
0.365521
0.356636
0.347691
0.338813
0.330102
0.321611
0.313273
0.305015
0.29737
0.291799
0.361528
0.352998
0.355407
0.360641
0.363913
0.364399
0.362383
0.358414
0.353038
0.346697
0.33973
0.332388
0.324858
0.317283
0.309781
0.302416
0.295119
0.287797
0.281059
0.276645
0.309318
0.302309
0.307188
0.315482
0.321907
0.325369
0.326067
0.324547
0.32138
0.317037
0.311885
0.3062
0.300188
0.294011
0.287807
0.281656
0.275484
0.269176
0.263407
0.260226
0.253818
0.248401
0.255862
0.267371
0.277129
0.283743
0.287319
0.288399
0.287575
0.285351
0.282123
0.278193
0.273789
0.269095
0.264268
0.259407
0.254436
0.249214
0.24447
0.242593
0.195385
0.191614
0.201741
0.216594
0.229834
0.239754
0.246353
0.250162
0.251798
0.251798
0.250588
0.248495
0.245775
0.242631
0.239244
0.235735
0.232031
0.227958
0.224288
0.223781
0.134394
0.13231
0.14516
0.163451
0.180296
0.193651
0.203395
0.210044
0.21424
0.21655
0.217431
0.217242
0.216262
0.214718
0.212815
0.210702
0.208311
0.205435
0.202874
0.203798
0.0712396
0.0708675
0.0864664
0.10826
0.128804
0.145697
0.158686
0.168266
0.1751
0.179788
0.182817
0.184576
0.18537
0.18545
0.185048
0.18434
0.183274
0.181607
0.180167
0.18259
0.00633297
0.00767986
0.0260271
0.051354
0.0756607
0.0961687
0.11248
0.125062
0.134595
0.141708
0.146923
0.150655
0.153234
0.154938
0.156026
0.156709
0.156942
0.156441
0.156073
0.160042
-0.0599036
-0.0568456
-0.0357801
-0.00692128
0.0211812
0.045357
0.065047
0.0806829
0.092957
0.102529
0.109949
0.115661
0.120014
0.123307
0.125825
0.127808
0.129205
0.129646
0.130109
0.135718
-0.127038
-0.122292
-0.0985664
-0.0662095
-0.034307
-0.00643558
0.0166691
0.0353927
0.0504361
0.0624843
0.072115
0.0797934
0.0858884
0.0907071
0.0945566
0.0977302
0.100195
0.1014
0.102243
0.109147
-0.19463
-0.188235
-0.161935
-0.126146
-0.0904677
-0.058896
-0.0323586
-0.0105259
0.00730607
0.0218452
0.0336944
0.043341
0.0511685
0.0574845
0.0625902
0.0668073
0.0701289
0.0715944
0.0710005
0.0763619
-0.262237
-0.254248
-0.225486
-0.186361
-0.146959
-0.111705
-0.081733
-0.0567815
-0.0361492
-0.0191094
-0.00503881
0.00656447
0.0160878
0.0238198
0.0299966
0.0348345
0.0383278
0.0398619
0.0389129
0.0369397
-0.329426
-0.319906
-0.288818
-0.246483
-0.203438
-0.16454
-0.131148
-0.103077
-0.0796339
-0.0600755
-0.0437553
-0.0301504
-0.0188535
-0.00955898
-0.00203141
0.00393675
0.0084765
0.0114512
0.0124884
0.0116373
-0.395762
-0.384789
-0.351535
-0.306146
-0.259565
-0.217084
-0.1803
-0.149117
-0.122854
-0.10075
-0.0821286
-0.0664365
-0.0532296
-0.0421592
-0.0329496
-0.0253587
-0.0191406
-0.0141052
-0.010435
-0.00903613
-0.460819
-0.448484
-0.413246
-0.36499
-0.315008
-0.26903
-0.228901
-0.194627
-0.165546
-0.140877
-0.119917
-0.102079
-0.0868822
-0.0739405
-0.0629431
-0.0536256
-0.0456947
-0.0388113
-0.0330498
-0.0297457
-0.524189
-0.510591
-0.473573
-0.422664
-0.369449
-0.320084
-0.276682
-0.239358
-0.207479
-0.180253
-0.156948
-0.136948
-0.119745
-0.104923
-0.0921453
-0.081131
-0.071563
-0.0630405
-0.0555956
-0.0507307
-0.585483
-0.570729
-0.532154
-0.478836
-0.422585
-0.369975
-0.323393
-0.283086
-0.248456
-0.218703
-0.193076
-0.170932
-0.151738
-0.135056
-0.120527
-0.107853
-0.0966992
-0.0866374
-0.0776992
-0.071482
-0.644331
-0.628537
-0.588645
-0.533188
-0.474129
-0.418444
-0.368808
-0.325609
-0.288298
-0.256076
-0.228174
-0.203929
-0.182784
-0.164283
-0.148049
-0.133768
-0.121093
-0.109579
-0.0992617
-0.0918023
-0.700393
-0.683678
-0.64272
-0.58542
-0.523813
-0.465253
-0.412714
-0.366741
-0.326845
-0.292236
-0.262132
-0.23585
-0.212819
-0.192561
-0.174686
-0.158869
-0.144749
-0.131872
-0.120265
-0.111624
-0.753352
-0.735839
-0.694078
-0.635253
-0.571382
-0.510177
-0.454913
-0.406308
-0.363946
-0.327053
-0.29484
-0.26661
-0.241772
-0.219834
-0.200394
-0.183115
-0.167628
-0.153468
-0.14064
-0.130853
-0.802923
-0.784737
-0.742441
-0.682424
-0.616602
-0.553004
-0.495217
-0.444144
-0.399454
-0.360399
-0.326187
-0.296107
-0.269554
-0.246024
-0.225098
-0.206431
-0.18965
-0.174279
-0.160291
-0.149387
-0.848853
-0.830117
-0.787557
-0.726694
-0.65925
-0.593536
-0.533446
-0.480086
-0.433221
-0.392138
-0.356047
-0.324226
-0.29606
-0.271028
-0.248702
-0.228724
-0.210724
-0.194214
-0.179126
-0.167139
-0.89092
-0.871757
-0.8292
-0.767844
-0.699123
-0.631585
-0.56943
-0.513976
-0.465099
-0.422131
-0.384287
-0.350842
-0.321167
-0.294732
-0.271094
-0.249891
-0.230749
-0.213179
-0.197061
-0.184035
-0.928936
-0.909464
-0.867173
-0.805679
-0.736037
-0.66698
-0.603008
-0.545662
-0.494944
-0.450238
-0.410774
-0.375825
-0.344752
-0.317015
-0.292162
-0.269821
-0.249622
-0.231074
-0.214008
-0.199997
-0.962751
-0.943084
-0.901308
-0.840029
-0.769826
-0.699565
-0.634033
-0.575005
-0.522621
-0.476329
-0.435381
-0.39905
-0.366693
-0.337761
-0.311793
-0.28841
-0.267242
-0.247804
-0.229875
-0.214944
-0.992246
-0.972492
-0.93147
-0.870749
-0.800348
-0.729204
-0.662377
-0.601882
-0.548012
-0.500288
-0.457994
-0.420408
-0.386885
-0.356868
-0.329889
-0.305562
-0.283518
-0.26328
-0.244581
-0.228801
-1.01734
-0.997603
-0.957554
-0.897724
-0.827487
-0.755787
-0.687934
-0.626193
-0.571019
-0.522022
-0.478523
-0.439812
-0.405242
-0.374254
-0.346371
-0.3212
-0.298376
-0.277429
-0.258053
-0.241503
-1.03799
-1.01837
-0.979489
-0.920867
-0.851151
-0.779224
-0.710622
-0.647859
-0.591569
-0.541461
-0.496901
-0.457196
-0.421703
-0.389858
-0.361181
-0.335269
-0.311759
-0.290194
-0.270236
-0.252997
-1.0542
-1.03477
-0.997238
-0.94012
-0.871273
-0.79945
-0.730381
-0.666828
-0.609614
-0.558559
-0.513085
-0.47252
-0.436228
-0.403643
-0.374279
-0.347729
-0.323627
-0.301533
-0.281084
-0.263242
-1.06598
-1.04682
-1.0108
-0.955454
-0.887814
-0.816425
-0.747175
-0.683068
-0.625126
-0.573292
-0.527052
-0.485763
-0.448795
-0.415586
-0.385644
-0.358555
-0.333954
-0.311416
-0.290564
-0.272204
-1.07341
-1.05459
-1.02019
-0.966871
-0.90076
-0.830129
-0.760985
-0.696566
-0.638096
-0.585654
-0.538798
-0.496919
-0.459399
-0.425679
-0.395264
-0.367734
-0.342725
-0.319826
-0.298652
-0.279858
-1.07659
-1.05815
-1.02548
-0.9744
-0.910119
-0.840565
-0.771815
-0.707327
-0.648532
-0.595653
-0.548331
-0.505995
-0.468045
-0.433924
-0.403138
-0.375264
-0.349933
-0.326752
-0.305335
-0.286189
-1.07563
-1.05763
-1.02676
-0.978099
-0.915924
-0.847753
-0.779682
-0.715367
-0.656451
-0.603308
-0.555668
-0.513006
-0.474744
-0.440331
-0.409274
-0.381146
-0.355579
-0.332193
-0.310609
-0.291191
-1.0707
-1.05318
-1.02415
-0.978049
-0.918229
-0.85173
-0.784615
-0.720717
-0.661883
-0.608645
-0.560833
-0.517975
-0.479516
-0.444916
-0.413684
-0.385392
-0.359671
-0.336154
-0.314475
-0.294867
-1.06198
-1.04496
-1.01778
-0.974358
-0.917109
-0.85255
-0.78666
-0.723415
-0.664862
-0.611698
-0.563857
-0.520928
-0.482384
-0.447698
-0.416384
-0.388015
-0.36222
-0.338646
-0.316943
-0.297226
-1.04967
-1.03316
-1.00783
-0.967155
-0.912657
-0.850284
-0.785871
-0.723508
-0.665432
-0.612506
-0.564776
-0.521896
-0.483375
-0.448702
-0.417397
-0.389035
-0.363247
-0.339688
-0.31803
-0.298284
-1.03398
-1.018
-0.994487
-0.956591
-0.904987
-0.845014
-0.782313
-0.721051
-0.663642
-0.611112
-0.563628
-0.520916
-0.482523
-0.447957
-0.416749
-0.388478
-0.362773
-0.3393
-0.317757
-0.298062
-1.01514
-0.999694
-0.977951
-0.942835
-0.894227
-0.836838
-0.776062
-0.716108
-0.659546
-0.607566
-0.560458
-0.518026
-0.479862
-0.445496
-0.414472
-0.386372
-0.360827
-0.337512
-0.316151
-0.296587
-0.9934
-0.978489
-0.958443
-0.92607
-0.880522
-0.825866
-0.767205
-0.708748
-0.653203
-0.60192
-0.555314
-0.513271
-0.475433
-0.441357
-0.4106
-0.38275
-0.357441
-0.334355
-0.313243
-0.293891
-0.968998
-0.954622
-0.936191
-0.906494
-0.86403
-0.812219
-0.755835
-0.699048
-0.644679
-0.594231
-0.548246
-0.506697
-0.469279
-0.43558
-0.405171
-0.37765
-0.352652
-0.329866
-0.309071
-0.290011
-0.942185
-0.928342
-0.91143
-0.884315
-0.84492
-0.79603
-0.742056
-0.68709
-0.634045
-0.584562
-0.53931
-0.498354
-0.461446
-0.428207
-0.398226
-0.37111
-0.346498
-0.324082
-0.303671
-0.284986
-0.913209
-0.899895
-0.884402
-0.859748
-0.82337
-0.777439
-0.725978
-0.672965
-0.621374
-0.572976
-0.528563
-0.488295
-0.451983
-0.419284
-0.389807
-0.363171
-0.339018
-0.317044
-0.297084
-0.278854
-0.882316
-0.869528
-0.855345
-0.833013
-0.799567
-0.756596
-0.707719
-0.656766
-0.606745
-0.559541
-0.516066
-0.476574
-0.440938
-0.408855
-0.379957
-0.353872
-0.330251
-0.308789
-0.289348
-0.271655
-0.849745
-0.837481
-0.824499
-0.804333
-0.773702
-0.733657
-0.687403
-0.638592
-0.590241
-0.544329
-0.501882
-0.463246
-0.428362
-0.396967
-0.368717
-0.343253
-0.320233
-0.299353
-0.2805
-0.263428
-0.81573
-0.803989
-0.792097
-0.773927
-0.74597
-0.708783
-0.66516
-0.618549
-0.571948
-0.527412
-0.486074
-0.448369
-0.414306
-0.383664
-0.356126
-0.331349
-0.308996
-0.288767
-0.27057
-0.254202
-0.780494
-0.769275
-0.758368
-0.742017
-0.716568
-0.682139
-0.641122
-0.596744
-0.551954
-0.508868
-0.468708
-0.432001
-0.398821
-0.368991
-0.342222
-0.31819
-0.296567
-0.277054
-0.259579
-0.244004
-0.74425
-0.733556
-0.723529
-0.708817
-0.685692
-0.653894
-0.61543
-0.573291
-0.530356
-0.488776
-0.449857
-0.414205
-0.381961
-0.352993
-0.327042
-0.303802
-0.282959
-0.264221
-0.247531
-0.232834
-0.707201
-0.697036
-0.687792
-0.674535
-0.653537
-0.624219
-0.588226
-0.548308
-0.507252
-0.467224
-0.429595
-0.395048
-0.363784
-0.335718
-0.31062
-0.288206
-0.268179
-0.250256
-0.234409
-0.220694
-0.669538
-0.659908
-0.651357
-0.639376
-0.620298
-0.593286
-0.559658
-0.521921
-0.482748
-0.444303
-0.408006
-0.374605
-0.344359
-0.317225
-0.293003
-0.271429
-0.252224
-0.235121
-0.220128
-0.207463
-0.631444
-0.622357
-0.614414
-0.603535
-0.586165
-0.561271
-0.52988
-0.49426
-0.45696
-0.420117
-0.385185
-0.352967
-0.32377
-0.297591
-0.274253
-0.253511
-0.235097
-0.21875
-0.204534
-0.19301
-0.593089
-0.584555
-0.577146
-0.567201
-0.551326
-0.528351
-0.499049
-0.465464
-0.430008
-0.394777
-0.361239
-0.330238
-0.302123
-0.276922
-0.254478
-0.234554
-0.216883
-0.201169
-0.187388
-0.17651
-0.554639
-0.546668
-0.539725
-0.530557
-0.515967
-0.494702
-0.467329
-0.43568
-0.402027
-0.368406
-0.336286
-0.306538
-0.279544
-0.255355
-0.233826
-0.214715
-0.197733
-0.182514
-0.168694
-0.156848
-0.516253
-0.508857
-0.50232
-0.493782
-0.480272
-0.460508
-0.434891
-0.405064
-0.373158
-0.341137
-0.310456
-0.281999
-0.256176
-0.233061
-0.212523
-0.194329
-0.178207
-0.163846
-0.150929
-0.139872
-0.478084
-0.471277
-0.465096
-0.457052
-0.444428
-0.425954
-0.401913
-0.373782
-0.343555
-0.313113
-0.283884
-0.256757
-0.23216
-0.210188
-0.190733
-0.173578
-0.158471
-0.145144
-0.133314
-0.12325
-0.440288
-0.434083
-0.428212
-0.420542
-0.408619
-0.391231
-0.368582
-0.342011
-0.313381
-0.284485
-0.256711
-0.230941
-0.207612
-0.186836
-0.16852
-0.15246
-0.138411
-0.12611
-0.115279
-0.10616
-0.403023
-0.397433
-0.391834
-0.384426
-0.373034
-0.356536
-0.335096
-0.309942
-0.282815
-0.255418
-0.229087
-0.204684
-0.182648
-0.163099
-0.14595
-0.131007
-0.118028
-0.106752
-0.0969034
-0.0887133
-0.366452
-0.361488
-0.356129
-0.348887
-0.33787
-0.322077
-0.301665
-0.277782
-0.252056
-0.226097
-0.201182
-0.178143
-0.15741
-0.139102
-0.123138
-0.109326
-0.0974307
-0.0871929
-0.0783324
-0.0710568
-0.330749
-0.326421
-0.321272
-0.31411
-0.30333
-0.28807
-0.268517
-0.245756
-0.221321
-0.19673
-0.173192
-0.151502
-0.132068
-0.115006
-0.100234
-0.0875617
-0.0767535
-0.0675544
-0.0596771
-0.053297
-0.2961
-0.292413
-0.287448
-0.280294
-0.269628
-0.254747
-0.235891
-0.214111
-0.190855
-0.167553
-0.145342
-0.124972
-0.106825
-0.0910031
-0.0774199
-0.0658835
-0.0561578
-0.0479892
-0.0410842
-0.0355825
-0.262707
-0.259661
-0.254858
-0.247647
-0.23699
-0.222351
-0.204047
-0.183111
-0.160922
-0.138825
-0.117883
-0.0987943
-0.0819095
-0.0673118
-0.0549055
-0.0444946
-0.0358409
-0.028692
-0.0227488
-0.0181124
-0.230788
-0.228377
-0.223713
-0.216395
-0.205657
-0.191145
-0.173261
-0.153043
-0.131811
-0.11083
-0.091092
-0.073237
-0.0575794
-0.0441796
-0.0329296
-0.0236265
-0.0160293
-0.00988591
-0.00489305
-0.00111129
-0.200581
-0.19879
-0.194243
-0.186775
-0.175888
-0.161403
-0.143827
-0.124211
-0.103831
-0.0838765
-0.0652685