/*--------------------------------*- C++ -*----------------------------------*\
  =========                 |
  \\      /  F ield         | OpenFOAM: The Open Source CFD Toolbox
   \\    /   O peration     | Website:  https://openfoam.org
    \\  /    A nd           | Version:  6.0
     \\/     M anipulation  |
\*---------------------------------------------------------------------------*/
FoamFile
{
    version     2.0;
    format      ascii;
    class       volScalarField;
    location    "21.9";
    object      p;
}
// * * * * * * * * * * * * * * * * * * * * * * * * * * * * * * * * * * * * * //

dimensions      [0 2 -2 0 0 0 0];

internalField   nonuniform List<scalar> 
8000
(
-0.266161
-0.267198
-0.267873
-0.268359
-0.268764
-0.269105
-0.269396
-0.269652
-0.26988
-0.270089
-0.270283
-0.270467
-0.270645
-0.270822
-0.271003
-0.271195
-0.271401
-0.271592
-0.271754
-0.272221
-0.266275
-0.267307
-0.267977
-0.268459
-0.268858
-0.269193
-0.269477
-0.269725
-0.269946
-0.270147
-0.270333
-0.270508
-0.270677
-0.270845
-0.271016
-0.271199
-0.271397
-0.271579
-0.271732
-0.272193
-0.266515
-0.267537
-0.268197
-0.268669
-0.269057
-0.269379
-0.26965
-0.269884
-0.27009
-0.270275
-0.270444
-0.270603
-0.270754
-0.270904
-0.271057
-0.271223
-0.271404
-0.27157
-0.271705
-0.272156
-0.26688
-0.267886
-0.268533
-0.268988
-0.269359
-0.269662
-0.269913
-0.270125
-0.270309
-0.27047
-0.270614
-0.270747
-0.270871
-0.270994
-0.271119
-0.271257
-0.271413
-0.271555
-0.271664
-0.2721
-0.267368
-0.268354
-0.268982
-0.269417
-0.269764
-0.270041
-0.270264
-0.270447
-0.2706
-0.270728
-0.270838
-0.270934
-0.271022
-0.271106
-0.271193
-0.271294
-0.271413
-0.271521
-0.271595
-0.272011
-0.267978
-0.268941
-0.269545
-0.269954
-0.27027
-0.270515
-0.270702
-0.270847
-0.27096
-0.271046
-0.271111
-0.27116
-0.271199
-0.271233
-0.271269
-0.271319
-0.27139
-0.271453
-0.271482
-0.271872
-0.26871
-0.269645
-0.270221
-0.270598
-0.270878
-0.271081
-0.271225
-0.271324
-0.271387
-0.27142
-0.27143
-0.27142
-0.271397
-0.271366
-0.271337
-0.271321
-0.27133
-0.271333
-0.271305
-0.271663
-0.269565
-0.270469
-0.271011
-0.271349
-0.271585
-0.271741
-0.271833
-0.271876
-0.271879
-0.27185
-0.271792
-0.271711
-0.271611
-0.271501
-0.271389
-0.271291
-0.27122
-0.271147
-0.271045
-0.271365
-0.270543
-0.271412
-0.271915
-0.272208
-0.272393
-0.272493
-0.272525
-0.272504
-0.272439
-0.272336
-0.2722
-0.272034
-0.271844
-0.271637
-0.271423
-0.271222
-0.27105
-0.270878
-0.270683
-0.270955
-0.27165
-0.272478
-0.272936
-0.273177
-0.273303
-0.273339
-0.273303
-0.27321
-0.273069
-0.272884
-0.272658
-0.272395
-0.2721
-0.271778
-0.271443
-0.271114
-0.270814
-0.270515
-0.2702
-0.27041
-0.27289
-0.27367
-0.274076
-0.274257
-0.274316
-0.27428
-0.274169
-0.273997
-0.273772
-0.273498
-0.273175
-0.272805
-0.272391
-0.271938
-0.271459
-0.270976
-0.270515
-0.270054
-0.26958
-0.269706
-0.274269
-0.274994
-0.275338
-0.27545
-0.275434
-0.275319
-0.275125
-0.274869
-0.274555
-0.274187
-0.273762
-0.273278
-0.272735
-0.272136
-0.271491
-0.270825
-0.270166
-0.269494
-0.268807
-0.268813
-0.275796
-0.276454
-0.276726
-0.27676
-0.276659
-0.276456
-0.276173
-0.275827
-0.275421
-0.274956
-0.274426
-0.273825
-0.273148
-0.272392
-0.271563
-0.270684
-0.269785
-0.268844
-0.267868
-0.267695
-0.277481
-0.278059
-0.278247
-0.278189
-0.277992
-0.277691
-0.277312
-0.27687
-0.27637
-0.275808
-0.275174
-0.274457
-0.273645
-0.272727
-0.271702
-0.270584
-0.269401
-0.268122
-0.266753
-0.266307
-0.279333
-0.279817
-0.279905
-0.279742
-0.279434
-0.279024
-0.278539
-0.277995
-0.277396
-0.276736
-0.276001
-0.275172
-0.27423
-0.273152
-0.271924
-0.270548
-0.26904
-0.267348
-0.265455
-0.264592
-0.281365
-0.281737
-0.28171
-0.281423
-0.280988
-0.280453
-0.279848
-0.279192
-0.278488
-0.277727
-0.276891
-0.275956
-0.27489
-0.27366
-0.272232
-0.27059
-0.268729
-0.266556
-0.263992
-0.262511
-0.283593
-0.283834
-0.28367
-0.283239
-0.282656
-0.281976
-0.281235
-0.280452
-0.279631
-0.278761
-0.277822
-0.276782
-0.275601
-0.274231
-0.272618
-0.270721
-0.268504
-0.265823
-0.262469
-0.260108
-0.286036
-0.286125
-0.2858
-0.285201
-0.284445
-0.283596
-0.282695
-0.281766
-0.280811
-0.279821
-0.278772
-0.277626
-0.276338
-0.274844
-0.273071
-0.270944
-0.268389
-0.265196
-0.260934
-0.257285
-0.288718
-0.28863
-0.288119
-0.287323
-0.286367
-0.285321
-0.284236
-0.283136
-0.282028
-0.280902
-0.279734
-0.278487
-0.277111
-0.275537
-0.273671
-0.271399
-0.268577
-0.264842
-0.259346
-0.253623
-0.291673
-0.291379
-0.290651
-0.289629
-0.288441
-0.28717
-0.285871
-0.284576
-0.283294
-0.282019
-0.280733
-0.279407
-0.278005
-0.27648
-0.274769
-0.272793
-0.270418
-0.267173
-0.261825
-0.255449
-0.294938
-0.294406
-0.293429
-0.292148
-0.290696
-0.28917
-0.287633
-0.28612
-0.284646
-0.283212
-0.281811
-0.280434
-0.279078
-0.277756
-0.27652
-0.275499
-0.27494
-0.275252
-0.277937
-0.289892
-0.298563
-0.297753
-0.296491
-0.294918
-0.293173
-0.291365
-0.289565
-0.287814
-0.286135
-0.284535
-0.283019
-0.281598
-0.280299
-0.279181
-0.278361
-0.27805
-0.278603
-0.280552
-0.285044
-0.296677
-0.3026
-0.301468
-0.299882
-0.297985
-0.295918
-0.293804
-0.291723
-0.289722
-0.287829
-0.286059
-0.284429
-0.282963
-0.281711
-0.280757
-0.28024
-0.280379
-0.28149
-0.283982
-0.28843
-0.297331
-0.30711
-0.305602
-0.303653
-0.3014
-0.298987
-0.296548
-0.294173
-0.291913
-0.2898
-0.287856
-0.286103
-0.284576
-0.283331
-0.282457
-0.282082
-0.282383
-0.283582
-0.285923
-0.289652
-0.295862
-0.312153
-0.31021
-0.307856
-0.305219
-0.302436
-0.299658
-0.296979
-0.294452
-0.292112
-0.289981
-0.288084
-0.286454
-0.285142
-0.284224
-0.283796
-0.283976
-0.284888
-0.286633
-0.289299
-0.293076
-0.317788
-0.315345
-0.312545
-0.309496
-0.306326
-0.303196
-0.300203
-0.297399
-0.294816
-0.292472
-0.290385
-0.288581
-0.287099
-0.285989
-0.285311
-0.285129
-0.285493
-0.286417
-0.287924
-0.28975
-0.324069
-0.321057
-0.317771
-0.314285
-0.310712
-0.307218
-0.303898
-0.300799
-0.297942
-0.295336
-0.29299
-0.290915
-0.289133
-0.287672
-0.286562
-0.285827
-0.285475
-0.285483
-0.285849
-0.286156
-0.33104
-0.32739
-0.323578
-0.319636
-0.315644
-0.311771
-0.308104
-0.304676
-0.301494
-0.298553
-0.295849
-0.29338
-0.291154
-0.289182
-0.287478
-0.286047
-0.284883
-0.283956
-0.283257
-0.282399
-0.338733
-0.334377
-0.330007
-0.325589
-0.321163
-0.316888
-0.31284
-0.30903
-0.305446
-0.302068
-0.298881
-0.295875
-0.293053
-0.290421
-0.287988
-0.28576
-0.283731
-0.281886
-0.280214
-0.278421
-0.347166
-0.342042
-0.337082
-0.332173
-0.327293
-0.322585
-0.318102
-0.313829
-0.309736
-0.305792
-0.301975
-0.29828
-0.294712
-0.291287
-0.288022
-0.28493
-0.282018
-0.279285
-0.27672
-0.274131
-0.356335
-0.350388
-0.344817
-0.339401
-0.334039
-0.328849
-0.323851
-0.319007
-0.314269
-0.309603
-0.304998
-0.30046
-0.296014
-0.291689
-0.287517
-0.283526
-0.279732
-0.276146
-0.272754
-0.269446
-0.366213
-0.3594
-0.353202
-0.347261
-0.341378
-0.335633
-0.330013
-0.324456
-0.31891
-0.313355
-0.307801
-0.302281
-0.296844
-0.291542
-0.286422
-0.281521
-0.276863
-0.272462
-0.268299
-0.264315
-0.376745
-0.369038
-0.362202
-0.355715
-0.349253
-0.342853
-0.33647
-0.330031
-0.323498
-0.316882
-0.310228
-0.303609
-0.297102
-0.290778
-0.284697
-0.278898
-0.273406
-0.268232
-0.263345
-0.25872
-0.387843
-0.379229
-0.371751
-0.364685
-0.357565
-0.350379
-0.343063
-0.335553
-0.327848
-0.320007
-0.31213
-0.304326
-0.296701
-0.289342
-0.28231
-0.275643
-0.269358
-0.263457
-0.257891
-0.252661
-0.399385
-0.389869
-0.381746
-0.374054
-0.36617
-0.358037
-0.349595
-0.340815
-0.331759
-0.322557
-0.313361
-0.304323
-0.295568
-0.287187
-0.279237
-0.271744
-0.264714
-0.258135
-0.251938
-0.246145
-0.411208
-0.400813
-0.392042
-0.383659
-0.374876
-0.36561
-0.355834
-0.34559
-0.33503
-0.32436
-0.313792
-0.303506
-0.293636
-0.28427
-0.275449
-0.267185
-0.259464
-0.252261
-0.245483
-0.239178
-0.423108
-0.411875
-0.402449
-0.393289
-0.383446
-0.372844
-0.361527
-0.349647
-0.337461
-0.32526
-0.313302
-0.301788
-0.290847
-0.280549
-0.270918
-0.261942
-0.253592
-0.24582
-0.238514
-0.231754
-0.434843
-0.422829
-0.412733
-0.402688
-0.391606
-0.379458
-0.366409
-0.352753
-0.338864
-0.32511
-0.311785
-0.299091
-0.287141
-0.275982
-0.265609
-0.255988
-0.247071
-0.238792
-0.231015
-0.223861
-0.44613
-0.433407
-0.422617
-0.411561
-0.399047
-0.385153
-0.370213
-0.354684
-0.339062
-0.323778
-0.309141
-0.295341
-0.282462
-0.27052
-0.259481
-0.249287
-0.239871
-0.231148
-0.222959
-0.215477
-0.456654
-0.443304
-0.431788
-0.419578
-0.405443
-0.389626
-0.372678
-0.355233
-0.337896
-0.321143
-0.30528
-0.290466
-0.276752
-0.264114
-0.252491
-0.241799
-0.231955
-0.222853
-0.214316
-0.206575
-0.466073
-0.452187
-0.439902
-0.426391
-0.410458
-0.392582
-0.373561
-0.354208
-0.335223
-0.317097
-0.300116
-0.284398
-0.26995
-0.256712
-0.244591
-0.233481
-0.223283
-0.213873
-0.205053
-0.197123
-0.474024
-0.459698
-0.446595
-0.431638
-0.413762
-0.393739
-0.372638
-0.351441
-0.330913
-0.311542
-0.293572
-0.277071
-0.262
-0.248262
-0.235734
-0.22429
-0.213817
-0.204169
-0.195135
-0.18709
-0.480136
-0.465469
-0.451496
-0.434965
-0.415038
-0.392839
-0.369711
-0.346783
-0.324856
-0.304389
-0.285574
-0.268422
-0.252846
-0.238714
-0.225875
-0.214186
-0.203518
-0.193708
-0.184532
-0.176446
-0.48404
-0.469131
-0.454239
-0.436031
-0.414
-0.389657
-0.364611
-0.340108
-0.316955
-0.295562
-0.276057
-0.258394
-0.242438
-0.228022
-0.214972
-0.20313
-0.192353
-0.182458
-0.173216
-0.165164
-0.485377
-0.470324
-0.454475
-0.434523
-0.41039
-0.383997
-0.357196
-0.331313
-0.30713
-0.284997
-0.264967
-0.246938
-0.23073
-0.216146
-0.202991
-0.191091
-0.180294
-0.170396
-0.161165
-0.153225
-0.483814
-0.468713
-0.451883
-0.430166
-0.403995
-0.375705
-0.347355
-0.320315
-0.295319
-0.272639
-0.252257
-0.234012
-0.217687
-0.203054
-0.189902
-0.178045
-0.167319
-0.157503
-0.148364
-0.140615
-0.47905
-0.463995
-0.446183
-0.422729
-0.394644
-0.364661
-0.335007
-0.307057
-0.281476
-0.258451
-0.237892
-0.219586
-0.203279
-0.188722
-0.175685
-0.163974
-0.153415
-0.143768
-0.134807
-0.127328
-0.470829
-0.455911
-0.437143
-0.412032
-0.382213
-0.350787
-0.320101
-0.291503
-0.265572
-0.242407
-0.221851
-0.20364
-0.187492
-0.173135
-0.160328
-0.14887
-0.138576
-0.12919
-0.120495
-0.113364
-0.458943
-0.444254
-0.424586
-0.397947
-0.366625
-0.334041
-0.302617
-0.273641
-0.247599
-0.224501
-0.204124
-0.186167
-0.170317
-0.156289
-0.143831
-0.132734
-0.122806
-0.113776
-0.105439
-0.0987335
-0.443244
-0.428875
-0.408393
-0.380407
-0.347851
-0.314421
-0.282563
-0.253484
-0.227567
-0.204739
-0.184719
-0.167171
-0.151761
-0.13819
-0.126199
-0.115576
-0.106119
-0.0975437
-0.0896593
-0.0834616
-0.423643
-0.409686
-0.388508
-0.359395
-0.325911
-0.291963
-0.259979
-0.231067
-0.205507
-0.183146
-0.163655
-0.146668
-0.131836
-0.118851
-0.107448
-0.0974106
-0.0885323
-0.0805178
-0.0731894
-0.0675869
-0.400116
-0.386665
-0.364939
-0.334955
-0.300868
-0.266736
-0.234932
-0.20645
-0.181468
-0.159764
-0.140967
-0.124689
-0.110569
-0.0982932
-0.0875961
-0.0782587
-0.0700686
-0.0627245
-0.0560643
-0.0511524
-0.372707
-0.359855
-0.337752
-0.30718
-0.272831
-0.238849
-0.20752
-0.179719
-0.155524
-0.134654
-0.116705
-0.101272
-0.0879907
-0.0765443
-0.0666671
-0.0581402
-0.050748
-0.044189
-0.0383159
-0.0341817
-0.34152
-0.329362
-0.307077
-0.276218
-0.241949
-0.208443
-0.177871
-0.150982
-0.127768
-0.107893
-0.0909317
-0.07647
-0.0641418
-0.0536339
-0.0446835
-0.0370737
-0.0305894
-0.0249357
-0.0199679
-0.0166665
-0.306724
-0.295355
-0.273097
-0.242262
-0.208411
-0.175693
-0.146138
-0.120376
-0.0983155
-0.0795806
-0.0637289
-0.0503451
-0.039068
-0.0295921
-0.0216627
-0.015069
-0.00960248
-0.00497795
-0.00102977
0.00139345
-0.268546
-0.25806
-0.236047
-0.205549
-0.172445
-0.140804
-0.112508
-0.0880632
-0.0673096
-0.0498375
-0.0351968
-0.0229766
-0.0128263
-0.00445403
0.00238029
0.0078751
0.0122267
0.0157038
0.0184941
0.0198726
-0.227266
-0.217755
-0.19621
-0.166356
-0.134309
-0.104015
-0.0771919
-0.0542339
-0.0349171
-0.0188086
-0.00545693
0.00553838
0.0145113
0.0217323
0.0274186
0.0317529
0.0349151
0.0371188
0.0384883
0.0383803
-0.183213
-0.174763
-0.153908
-0.124995
-0.0942939
-0.0655903
-0.0404324
-0.0191057
-0.00133263
0.0133366
0.0253499
0.0350926
0.0428754
0.0489365
0.0534592
0.0566048
0.0585129
0.0592238
0.0586341
0.0564739
-0.136755
-0.129448
-0.109499
-0.0818057
-0.0527172
-0.0258226
-0.00249787
0.0170734
0.0332161
0.0463938
0.0570508
0.0655597
0.0722084
0.0772013
0.0806847
0.0827883
0.0835386
0.0825826
0.0794629
0.0751897
-0.0882974
-0.0822071
-0.0633675
-0.037154
-0.0099174
0.0149743
0.0363177
0.0540243
0.0684604
0.080103
0.0893974
0.0967147
0.10234
0.106477
0.109284
0.110908
0.111252
0.109475
0.10488
0.100242
-0.0382693
-0.03346
-0.0159198
0.00857953
0.0337519
0.0564712
0.0757033
0.0914461
0.104101
0.114153
0.122051
0.128169
0.132807
0.136206
0.138608
0.140288
0.14122
0.140431
0.137661
0.141133
0.0128878
0.0163589
0.0324274
0.0550045
0.0779295
0.0983323
0.115342
0.129034
0.139835
0.148233
0.154671
0.159518
0.163071
0.165585
0.167318
0.168531
0.169213
0.168896
0.168467
0.174083
0.0647136
0.0668013
0.0812479
0.101726
0.122252
0.140222
0.15492
0.166489
0.175374
0.182061
0.186982
0.190496
0.192898
0.194438
0.195364
0.195895
0.196016
0.195435
0.195053
0.199567
0.116745
0.117416
0.130116
0.14835
0.16636
0.18181
0.194131
0.203523
0.210441
0.215364
0.218708
0.220817
0.221972
0.222411
0.222363
0.222024
0.221389
0.220237
0.219311
0.22234
0.16852
0.167755
0.178609
0.194491
0.209903
0.222777
0.232682
0.239865
0.244788
0.247914
0.249641
0.250295
0.250137
0.249386
0.248247
0.246887
0.245288
0.243256
0.241474
0.243118
0.219583
0.217376
0.226314
0.239773
0.25254
0.262815
0.270293
0.275261
0.278179
0.279496
0.279588
0.278758
0.277249
0.275261
0.272974
0.270529
0.267893
0.264895
0.262182
0.262498
0.26949
0.265849
0.272831
0.283831
0.293945
0.301629
0.306698
0.30947
0.310401
0.309919
0.30838
0.306065
0.303195
0.299951
0.296493
0.292936
0.28924
0.285257
0.281609
0.28067
0.31781
0.312759
0.317775
0.326318
0.333804
0.338941
0.341646
0.342267
0.34125
0.339005
0.335863
0.332084
0.327872
0.323386
0.318767
0.314112
0.309373
0.304431
0.299873
0.29774
0.364133
0.357709
0.360779
0.366903
0.371823
0.374484
0.3749
0.373439
0.370538
0.366585
0.36189
0.356692
0.351175
0.345483
0.339738
0.33402
0.328281
0.322424
0.316993
0.313729
0.408066
0.400324
0.401495
0.405273
0.40772
0.408008
0.406235
0.402785
0.398084
0.3925
0.386321
0.379767
0.373003
0.366159
0.35934
0.352611
0.345927
0.339212
0.332955
0.328622
0.449244
0.44025
0.439599
0.441135
0.441236
0.439278
0.43544
0.430116
0.42372
0.416598
0.409021
0.401189
0.393252
0.385324
0.377496
0.369821
0.362259
0.354748
0.347715
0.342381
0.487325
0.47716
0.47479
0.474219
0.472127
0.468078
0.462319
0.455255
0.447284
0.438737
0.429863
0.420846
0.411821
0.402889
0.394128
0.385581
0.377211
0.368971
0.361222
0.354957
0.521996
0.510753
0.506791
0.504277
0.500169
0.494207
0.486693
0.478038
0.46863
0.458782
0.448724
0.438626
0.42861
0.418764
0.409154
0.399815
0.390716
0.381818
0.373414
0.366299
0.552973
0.54076
0.535353
0.531084
0.525163
0.517482
0.508395
0.498316
0.487623
0.476609
0.465493
0.454429
0.443526
0.432864
0.422497
0.412453
0.402706
0.393223
0.384233
0.376354
0.580004
0.566937
0.560256
0.55444
0.546928
0.537742
0.527279
0.515956
0.504139
0.492108
0.480067
0.468159
0.456484
0.445109
0.434082
0.423425
0.413116
0.403126
0.393622
0.385071
0.60287
0.589076
0.581306
0.574172
0.565308
0.554846
0.543217
0.53084
0.518071
0.505179
0.492355
0.479734
0.467405
0.455429
0.443844
0.432669
0.421887
0.411469
0.401529
0.392407
0.621386
0.607001
0.598341
0.590135
0.580172
0.568674
0.556099
0.542868
0.529328
0.515739
0.502282
0.489083
0.476224
0.463761
0.451725
0.440132
0.428967
0.418205
0.407909
0.398323
0.635404
0.620569
0.611232
0.60221
0.591413
0.57913
0.565839
0.55196
0.537837
0.523719
0.509782
0.496146
0.482887
0.470055
0.457678
0.445768
0.434315
0.423292
0.412727
0.402788
0.64481
0.629673
0.61988
0.610308
0.59895
0.586139
0.572367
0.558055
0.543539
0.529067
0.514808
0.500878
0.487351
0.474272
0.461666
0.449544
0.437898
0.4267
0.415953
0.405776
0.649529
0.63424
0.624217
0.61437
0.60273
0.589654
0.575641
0.561111
0.546398
0.531748
0.517328
0.50325
0.489588
0.476385
0.463665
0.451436
0.439693
0.428408
0.417569
0.407273
0.649523
0.634234
0.624212
0.614364
0.602725
0.58965
0.575637
0.561106
0.546394
0.531744
0.517324
0.503247
0.489585
0.476382
0.463661
0.451433
0.43969
0.428405
0.417566
0.40727
0.644793
0.629656
0.619863
0.610293
0.598936
0.586126
0.572354
0.558043
0.543528
0.529056
0.514797
0.500868
0.487341
0.474262
0.461656
0.449535
0.437888
0.426691
0.415944
0.405768
0.635375
0.620541
0.611205
0.602184
0.591389
0.579107
0.565817
0.55194
0.537817
0.5237
0.509764
0.496128
0.48287
0.470038
0.457662
0.445753
0.4343
0.423277
0.412712
0.402774
0.621346
0.606962
0.598304
0.590099
0.580138
0.568642
0.556069
0.542839
0.529301
0.515712
0.502256
0.489058
0.476201
0.463738
0.451703
0.44011
0.428946
0.418184
0.407889
0.398304
0.602818
0.589026
0.581257
0.574126
0.565265
0.554805
0.543178
0.530803
0.518035
0.505145
0.492323
0.479703
0.467375
0.455399
0.443815
0.432641
0.421859
0.411443
0.401503
0.392382
0.579941
0.566875
0.560196
0.554384
0.546875
0.537692
0.527231
0.51591
0.504095
0.492066
0.480027
0.46812
0.456447
0.445073
0.434047
0.423391
0.413083
0.403093
0.39359
0.385041
0.552899
0.540687
0.535283
0.531017
0.5251
0.517423
0.508338
0.498263
0.487571
0.47656
0.465445
0.454383
0.443482
0.432821
0.422455
0.412413
0.402667
0.393185
0.384195
0.376317
0.52191
0.510669
0.50671
0.504201
0.500097
0.494138
0.486628
0.477976
0.468571
0.458725
0.448669
0.438574
0.428559
0.418715
0.409106
0.399769
0.390671
0.381773
0.373371
0.366257
0.487229
0.477065
0.474699
0.474133
0.472045
0.468001
0.462246
0.455185
0.447217
0.438673
0.429801
0.420786
0.411764
0.402833
0.394074
0.385528
0.37716
0.368921
0.361173
0.35491
0.449136
0.440144
0.439497
0.441039
0.441145
0.439192
0.435358
0.430038
0.423645
0.416527
0.408952
0.401123
0.393188
0.385262
0.377436
0.369763
0.362202
0.354692
0.347661
0.342328
0.407947
0.400207
0.401383
0.405166
0.40762
0.407912
0.406145
0.402699
0.398002
0.392421
0.386245
0.379693
0.372932
0.36609
0.359273
0.352546
0.345864
0.339151
0.332895
0.328564
0.364003
0.357582
0.360656
0.366787
0.371713
0.37438
0.374801
0.373345
0.370448
0.366499
0.361807
0.356612
0.351098
0.345408
0.339666
0.333949
0.328212
0.322357
0.316928
0.313666
0.317669
0.312621
0.317642
0.326192
0.333685
0.338828
0.341539
0.342165
0.341153
0.338911
0.335773
0.331998
0.327788
0.323305
0.318689
0.314035
0.309299
0.304359
0.299802
0.297671
0.269338
0.265701
0.272688
0.283696
0.293816
0.301508
0.306583
0.30936
0.310296
0.309818
0.308283
0.305971
0.303105
0.299864
0.296408
0.292854
0.289159
0.285179
0.281532
0.280596
0.219421
0.217217
0.226161
0.239628
0.252403
0.262685
0.270169
0.275143
0.278067
0.279388
0.279483
0.278657
0.277152
0.275167
0.272883
0.27044
0.267807
0.264811
0.2621
0.262419
0.168348
0.167586
0.178446
0.194337
0.209757
0.222638
0.23255
0.239739
0.244667
0.247798
0.24953
0.250187
0.250033
0.249286
0.24815
0.246792
0.245196
0.243166
0.241386
0.243033
0.116563
0.117237
0.129943
0.148186
0.166205
0.181663
0.193991
0.203389
0.210314
0.215242
0.21859
0.220703
0.221862
0.222304
0.222259
0.221923
0.22129
0.220141
0.219217
0.222249
0.0645218
0.0666125
0.081066
0.101553
0.122088
0.140066
0.154772
0.166348
0.175239
0.181931
0.186856
0.190375
0.192781
0.194325
0.195254
0.195788
0.195912
0.195333
0.194953
0.199471
0.0126864
0.0161607
0.0322362
0.0548225
0.0777571
0.0981687
0.115187
0.128885
0.139692
0.148096
0.154539
0.15939
0.162948
0.165465
0.167202
0.168418
0.169103
0.168788
0.168361
0.173981
-0.0384799
-0.0336674
-0.01612
0.00838886
0.0335711
0.0562996
0.0755399
0.0912901
0.103951
0.114009
0.121912
0.128035
0.132677
0.136079
0.138485
0.140168
0.141103
0.140317
0.137548
0.141023
-0.0885169
-0.0824233
-0.0635763
-0.0373531
-0.0101064
0.0147949
0.0361468
0.053861
0.0683039
0.0799523
0.089252
0.096574
0.102204
0.106344
0.109154
0.110782
0.111128
0.109353
0.104759
0.100123
-0.136983
-0.129673
-0.109716
-0.082013
-0.0529141
-0.0260096
-0.00267604
0.0169031
0.0330526
0.0462364
0.0568989
0.0654125
0.0720655
0.0770621
0.0805488
0.0826554
0.0834081
0.0824543
0.0793359
0.0750633
-0.183449
-0.174996
-0.154133
-0.12521
-0.0944984
-0.0657847
-0.0406177
-0.0192829
-0.00150273
0.0131728
0.0251916
0.0349392
0.0427263
0.0487913
0.0533174
0.056466
0.0583767
0.0590899
0.058502
0.0563427
-0.227509
-0.217995
-0.196443
-0.166579
-0.134521
-0.104216
-0.077384
-0.0544178
-0.0350937
-0.0189787
-0.00562135
0.005379
0.0143564
0.0215813
0.0272712
0.0316087
0.0347736
0.0369798
0.0383515
0.0382449
-0.268796
-0.258308
-0.236287
-0.205779
-0.172664
-0.141012
-0.112706
-0.0882534
-0.0674923
-0.0500136
-0.0353671
-0.0231417
-0.0129868
-0.00461044
0.00222754
0.00772562
0.0120802
0.0155599
0.0183527
0.0197329
-0.306981
-0.295609
-0.273343
-0.242498
-0.208637
-0.175907
-0.146343
-0.120572
-0.0985041
-0.0797625
-0.0639048
-0.0505157
-0.0392339
-0.0297538
-0.0218206
-0.0152234
-0.00975385
-0.00512648
-0.00117571
0.00124946
-0.341783
-0.329622
-0.30733
-0.276461
-0.24218
-0.208664
-0.178081
-0.151184
-0.127962
-0.10808
-0.091113
-0.0766459
-0.0643129
-0.0538006
-0.0448463
-0.037233
-0.0307454
-0.0250887
-0.0201182
-0.0168147
-0.372975
-0.36012
-0.338011
-0.307428
-0.273068
-0.239076
-0.207737
-0.179926
-0.155724
-0.134846
-0.116891
-0.101453
-0.0881667
-0.0767158
-0.0668346
-0.0583041
-0.0509085
-0.0443464
-0.0384705
-0.034334
-0.400389
-0.386935
-0.365202
-0.335208
-0.30111
-0.266968
-0.235154
-0.206663
-0.181673
-0.159961
-0.141159
-0.124874
-0.110749
-0.0984693
-0.087768
-0.078427
-0.0702334
-0.0628862
-0.056223
-0.0513088
-0.423919
-0.40996
-0.388775
-0.359653
-0.326158
-0.292199
-0.260205
-0.231284
-0.205716
-0.183348
-0.163851
-0.146859
-0.132021
-0.119031
-0.107624
-0.0975832
-0.0887014
-0.0806836
-0.0733522
-0.0677472
-0.443523
-0.429152
-0.408664
-0.380668
-0.348102
-0.314662
-0.282794
-0.253706
-0.227781
-0.204945
-0.18492
-0.167365
-0.15195
-0.138374
-0.12638
-0.115752
-0.106292
-0.0977136
-0.0898261
-0.0836258
-0.459225
-0.444534
-0.424859
-0.398213
-0.36688
-0.334286
-0.302852
-0.273867
-0.247817
-0.224711
-0.204329
-0.186366
-0.170511
-0.156478
-0.144015
-0.132915
-0.122983
-0.11395
-0.105609
-0.0989016
-0.471112
-0.456192
-0.437419
-0.412299
-0.382471
-0.351035
-0.32034
-0.291732
-0.265794
-0.242622
-0.222059
-0.203843
-0.187689
-0.173327
-0.160517
-0.149054
-0.138757
-0.129367
-0.12067
-0.113536
-0.479335
-0.464276
-0.44646
-0.422999
-0.394905
-0.364912
-0.335249
-0.307289
-0.281701
-0.258669
-0.238104
-0.219792
-0.20348
-0.188918
-0.175877
-0.164162
-0.1536
-0.143949
-0.134986
-0.127504
-0.484098
-0.468995
-0.45216
-0.430437
-0.404258
-0.375958
-0.347599
-0.32055
-0.295547
-0.27286
-0.252472
-0.234221
-0.217891
-0.203254
-0.190097
-0.178237
-0.167508
-0.157688
-0.148547
-0.140795
-0.485661
-0.470605
-0.454752
-0.434794
-0.410654
-0.384252
-0.357442
-0.331551
-0.307361
-0.285221
-0.265185
-0.24715
-0.230938
-0.216349
-0.20319
-0.191287
-0.180486
-0.170585
-0.161351
-0.153409
-0.484322
-0.469411
-0.454516
-0.436302
-0.414263
-0.389912
-0.364859
-0.340348
-0.317188
-0.295789
-0.276278
-0.258609
-0.242649
-0.228228
-0.215175
-0.203329
-0.192549
-0.182651
-0.173406
-0.165352
-0.480417
-0.465747
-0.451771
-0.435235
-0.415302
-0.393096
-0.36996
-0.347025
-0.325091
-0.304618
-0.285797
-0.26864
-0.25306
-0.238923
-0.226081
-0.214388
-0.203717
-0.193904
-0.184726
-0.176637
-0.474302
-0.459974
-0.446868
-0.431907
-0.414024
-0.393995
-0.372887
-0.351684
-0.331149
-0.311772
-0.293797
-0.277291
-0.262216
-0.248474
-0.235943
-0.224496
-0.21402
-0.204369
-0.195333
-0.187285
-0.466348
-0.45246
-0.440172
-0.426657
-0.41072
-0.392838
-0.37381
-0.354452
-0.33546
-0.317329
-0.300343
-0.284621
-0.270169
-0.256927
-0.244802
-0.23369
-0.223489
-0.214076
-0.205254
-0.197322
-0.456925
-0.443573
-0.432055
-0.419842
-0.405703
-0.389881
-0.372927
-0.355476
-0.338135
-0.321376
-0.305509
-0.290691
-0.276972
-0.264332
-0.252705
-0.242011
-0.232164
-0.22306
-0.214521
-0.206778
-0.446397
-0.433672
-0.42288
-0.411821
-0.399304
-0.385405
-0.370461
-0.354927
-0.339301
-0.324012
-0.309371
-0.295567
-0.282685
-0.27074
-0.259699
-0.249502
-0.240083
-0.231358
-0.223168
-0.215684
-0.435106
-0.42309
-0.412992
-0.402945
-0.39186
-0.379708
-0.366656
-0.352995
-0.339102
-0.325344
-0.312016
-0.299318
-0.287366
-0.276204
-0.265829
-0.256206
-0.247287
-0.239006
-0.231227
-0.224072
-0.423367
-0.412132
-0.402703
-0.393542
-0.383697
-0.373092
-0.361772
-0.349888
-0.337699
-0.325494
-0.313534
-0.302016
-0.291073
-0.280773
-0.271141
-0.262163
-0.253811
-0.246038
-0.238731
-0.231969
-0.411462
-0.401065
-0.392292
-0.383908
-0.375122
-0.365855
-0.356076
-0.34583
-0.335267
-0.324594
-0.314023
-0.303735
-0.293864
-0.284496
-0.275674
-0.267408
-0.259686
-0.252481
-0.245702
-0.239397
-0.399635
-0.390117
-0.381992
-0.374299
-0.366413
-0.358279
-0.349834
-0.341052
-0.331994
-0.32279
-0.313592
-0.304553
-0.295796
-0.287414
-0.279463
-0.27197
-0.264939
-0.258359
-0.252162
-0.246369
-0.388089
-0.379472
-0.371993
-0.364925
-0.357804
-0.350617
-0.343299
-0.335788
-0.328081
-0.320239
-0.31236
-0.304556
-0.29693
-0.289571
-0.282538
-0.275871
-0.269586
-0.263685
-0.258119
-0.252888
-0.376986
-0.369277
-0.362439
-0.355951
-0.349488
-0.343086
-0.336702
-0.330262
-0.323729
-0.317112
-0.310458
-0.303839
-0.297331
-0.291008
-0.284926
-0.279128
-0.273637
-0.268464
-0.263576
-0.258952
-0.36645
-0.359635
-0.353435
-0.347494
-0.341609
-0.335862
-0.330242
-0.324684
-0.319138
-0.313583
-0.308029
-0.302509
-0.297073
-0.291772
-0.286653
-0.281753
-0.277096
-0.272697
-0.268535
-0.264552
-0.356568
-0.350619
-0.345047
-0.339629
-0.334266
-0.329074
-0.324076
-0.319231
-0.314493
-0.309828
-0.305224
-0.300688
-0.296242
-0.291919
-0.28775
-0.28376
-0.279968
-0.276384
-0.272994
-0.269688
-0.347395
-0.342269
-0.337308
-0.332398
-0.327516
-0.322807
-0.318323
-0.31405
-0.309957
-0.306014
-0.302199
-0.298506
-0.29494
-0.291518
-0.288256
-0.285167
-0.282257
-0.279527
-0.276964
-0.274378
-0.338959
-0.334602
-0.33023
-0.32581
-0.321382
-0.317106
-0.313057
-0.309246
-0.305663
-0.302287
-0.299102
-0.296099
-0.29328
-0.290651
-0.288222
-0.285998
-0.283973
-0.282131
-0.280462
-0.278672
-0.331262
-0.327611
-0.323798
-0.319854
-0.315861
-0.311985
-0.308317
-0.304889
-0.301708
-0.298769
-0.296067
-0.293601
-0.291379
-0.289412
-0.287713
-0.286287
-0.285127
-0.284204
-0.28351
-0.282655
-0.324289
-0.321276
-0.317988
-0.314501
-0.310926
-0.307429
-0.304108
-0.301009
-0.298152
-0.295549
-0.293205
-0.291135
-0.289357
-0.287902
-0.286797
-0.286068
-0.285722
-0.285735
-0.286105
-0.286417
-0.318007
-0.315562
-0.312761
-0.30971
-0.306537
-0.303405
-0.30041
-0.297606
-0.295024
-0.292681
-0.290598
-0.288799
-0.287322
-0.286218
-0.285548
-0.285373
-0.285743
-0.286673
-0.288186
-0.290016
-0.312371
-0.310427
-0.308071
-0.305431
-0.302646
-0.299865
-0.297184
-0.294657
-0.292318
-0.290189
-0.288295
-0.28667
-0.285365
-0.284454
-0.284034
-0.284222
-0.285141
-0.286894
-0.289566
-0.293347
-0.307329
-0.305819
-0.303868
-0.301612
-0.299195
-0.296754
-0.294377
-0.292116
-0.290004
-0.288062
-0.286314
-0.284793
-0.283555
-0.282689
-0.282322
-0.282633
-0.283841
-0.286189
-0.289926
-0.29614
-0.30282
-0.301685
-0.300097
-0.298197
-0.296127
-0.29401
-0.291927
-0.289926
-0.288033
-0.286266
-0.28464
-0.283181
-0.281937
-0.280991
-0.280485
-0.280633
-0.281754
-0.284256
-0.288712
-0.297617
-0.298785
-0.297972
-0.296707
-0.29513
-0.293382
-0.291571
-0.28977
-0.288019
-0.286341
-0.284744
-0.283233
-0.281819
-0.280528
-0.279419
-0.27861
-0.278311
-0.278875
-0.280834
-0.285334
-0.296972
-0.295163
-0.294627
-0.293646
-0.292362
-0.290907
-0.289379
-0.28784
-0.286327
-0.284854
-0.283424
-0.282029
-0.280659
-0.279311
-0.278
-0.276776
-0.275767
-0.275221
-0.275544
-0.278238
-0.290198
-0.291901
-0.291602
-0.29087
-0.289845
-0.288653
-0.28738
-0.286081
-0.284786
-0.283506
-0.282236
-0.280955
-0.279637
-0.278244
-0.27673
-0.275032
-0.273069
-0.270708
-0.267478
-0.262142
-0.255779
-0.288949
-0.288855
-0.28834
-0.287541
-0.286581
-0.285534
-0.284448
-0.283349
-0.282244
-0.281122
-0.279961
-0.278723
-0.277357
-0.275794
-0.273941
-0.271683
-0.268876
-0.265156
-0.259673
-0.253965
-0.286269
-0.286351
-0.286022
-0.28542
-0.284662
-0.283811
-0.282911
-0.281983
-0.281032
-0.280047
-0.279004
-0.277868
-0.276589
-0.275108
-0.273349
-0.271235
-0.268696
-0.265519
-0.261271
-0.257641
-0.283827
-0.284061
-0.283892
-0.283459
-0.282874
-0.282193
-0.281452
-0.280671
-0.279855
-0.278991
-0.27806
-0.277029
-0.275859
-0.274501
-0.272903
-0.27102
-0.26882
-0.266156
-0.262818
-0.260479
-0.281599
-0.281964
-0.281932
-0.281642
-0.281206
-0.28067
-0.280067
-0.279414
-0.278714
-0.27796
-0.277132
-0.276207
-0.275153
-0.273935
-0.272522
-0.270896
-0.269052
-0.266897
-0.264351
-0.262894
-0.279565
-0.280041
-0.280125
-0.279959
-0.27965
-0.27924
-0.278757
-0.278217
-0.277623
-0.27697
-0.276244
-0.275426
-0.274495
-0.273431
-0.272218
-0.270858
-0.269369
-0.267695
-0.265821
-0.264983
-0.277709
-0.278279
-0.278463
-0.278403
-0.278205
-0.277905
-0.277528
-0.27709
-0.276596
-0.276041
-0.275417
-0.274711
-0.273911
-0.273007
-0.271997
-0.270896
-0.269732
-0.268472
-0.267122
-0.266702
-0.276019
-0.276669
-0.276937
-0.276968
-0.276866
-0.276664
-0.276385
-0.276043
-0.275644
-0.275186
-0.274666
-0.274076
-0.273411
-0.272669
-0.271856
-0.270995
-0.270114
-0.269193
-0.268236
-0.268089
-0.274483
-0.2752
-0.27554
-0.275651
-0.275635
-0.275521
-0.27533
-0.275078
-0.274771
-0.274411
-0.273995
-0.273522
-0.272992
-0.272407
-0.271778
-0.271129
-0.270489
-0.269836
-0.269169
-0.269201
-0.273093
-0.273867
-0.274268
-0.274448
-0.274508
-0.274473
-0.274365
-0.274198
-0.27398
-0.273713
-0.2734
-0.273041
-0.272639
-0.272201
-0.271737
-0.27127
-0.270828
-0.270386
-0.269931
-0.270083
-0.271841
-0.272662
-0.273117
-0.273357
-0.273483
-0.273521
-0.273488
-0.2734
-0.273265
-0.273088
-0.272871
-0.272619
-0.272336
-0.272028
-0.271707
-0.271395
-0.271112
-0.270832
-0.270536
-0.27077
-0.27072
-0.271582
-0.272083
-0.272375