/*--------------------------------*- C++ -*----------------------------------*\
  =========                 |
  \\      /  F ield         | OpenFOAM: The Open Source CFD Toolbox
   \\    /   O peration     | Website:  https://openfoam.org
    \\  /    A nd           | Version:  6.0
     \\/     M anipulation  |
\*---------------------------------------------------------------------------*/
FoamFile
{
    version     2.0;
    format      ascii;
    class       volVectorField;
    location    "21.9";
    object      U;
}
// * * * * * * * * * * * * * * * * * * * * * * * * * * * * * * * * * * * * * //

dimensions      [0 1 -1 0 0 0 0];

internalField   nonuniform List<vector> 
8000
(
(-0.000494168 0.000495497 -3.51375e-21)
(-0.00269804 0.00123807 1.87818e-20)
(-0.00676547 0.00176359 -2.2844e-20)
(-0.0117546 0.00212192 1.73953e-20)
(-0.0171763 0.00235075 8.47103e-21)
(-0.0227551 0.00248077 -2.54377e-20)
(-0.0282949 0.0025383 -2.24843e-21)
(-0.0336691 0.00254569 -7.98052e-22)
(-0.0388076 0.00252182 -1.32043e-20)
(-0.0436816 0.00248263 -7.15387e-21)
(-0.0482921 0.00244145 5.33501e-21)
(-0.0526618 0.00240935 2.02832e-20)
(-0.0568278 0.00239528 -1.51891e-21)
(-0.0608369 0.0024062 2.17313e-21)
(-0.0647412 0.0024472 -2.043e-20)
(-0.0685994 0.00252149 1.25882e-20)
(-0.0724702 0.00263051 -1.80365e-20)
(-0.0763631 0.00277499 2.7294e-20)
(-0.0802259 0.00295562 -3.05685e-23)
(-0.0844077 0.00316502 5.89487e-21)
(-0.000578862 0.0016239 1.16683e-20)
(-0.00290368 0.00404067 -5.96297e-20)
(-0.00704658 0.00574223 -4.11858e-20)
(-0.0120753 0.00689351 -2.797e-20)
(-0.0175069 0.00762005 -3.59819e-20)
(-0.0230705 0.00802372 7.91896e-21)
(-0.0285735 0.00819117 -4.15369e-20)
(-0.033892 0.00819534 -9.32962e-21)
(-0.0389578 0.00809725 2.94802e-21)
(-0.0437437 0.00794791 3.10464e-20)
(-0.0482517 0.00778979 -3.38663e-20)
(-0.0525054 0.0076578 4.7109e-20)
(-0.0565429 0.00758011 -3.52775e-20)
(-0.0604118 0.00757866 -4.18344e-20)
(-0.0641657 0.00766947 -5.7651e-20)
(-0.0678647 0.00786274 3.6818e-20)
(-0.0715693 0.00816321 -1.19074e-20)
(-0.0752907 0.00857325 -4.33597e-20)
(-0.0789764 0.00909512 4.09976e-20)
(-0.0829781 0.00970644 -3.0461e-20)
(-0.000749974 0.00273669 1.14059e-19)
(-0.0033188 0.006804 5.90703e-20)
(-0.00761374 0.00966314 6.64313e-20)
(-0.012722 0.011592 5.52766e-21)
(-0.0181735 0.0128027 3.67168e-20)
(-0.0237067 0.0134671 4.58276e-20)
(-0.0291364 0.0137315 -8.32775e-20)
(-0.0343442 0.0137185 -4.41013e-20)
(-0.0392658 0.0135309 -5.74345e-20)
(-0.0438769 0.0132543 6.13134e-20)
(-0.0481817 0.0129604 -4.68303e-20)
(-0.0522054 0.0127081 -6.02511e-20)
(-0.0559881 0.0125454 -2.19376e-20)
(-0.0595794 0.01251 2.08419e-20)
(-0.0630352 0.0126298 -5.79424e-21)
(-0.0664186 0.0129229 8.35635e-21)
(-0.0697942 0.0133983 9.67071e-20)
(-0.0731761 0.014061 -1.35801e-20)
(-0.0765114 0.0149156 -9.83077e-20)
(-0.0801585 0.0159245 1.29593e-19)
(-0.00100578 0.00382398 3.96826e-20)
(-0.00393962 0.00950279 -5.60569e-20)
(-0.0084623 0.013489 -1.4062e-20)
(-0.0136899 0.0161703 2.62875e-20)
(-0.0191718 0.0178429 7.46459e-20)
(-0.0246605 0.0187475 1.63433e-19)
(-0.0299821 0.0190881 1.59695e-19)
(-0.0350263 0.0190358 1.32661e-20)
(-0.0397353 0.018734 9.79289e-20)
(-0.0440886 0.0183027 1.49892e-19)
(-0.0480937 0.0178422 -1.19772e-19)
(-0.0517783 0.0174361 1.77256e-19)
(-0.055185 0.0171529 -4.01335e-20)
(-0.058366 0.0170473 1.01259e-20)
(-0.0613809 0.0171607 4.19147e-20)
(-0.0642974 0.0175211 5.56981e-20)
(-0.0671857 0.0181435 -8.76546e-20)
(-0.0700654 0.0190367 -7.31552e-20)
(-0.0728837 0.0202099 -1.29464e-19)
(-0.0760092 0.0216096 1.8845e-19)
(-0.00134383 0.00487694 -2.07328e-20)
(-0.00476041 0.0121139 -2.12229e-19)
(-0.00958487 0.0171853 -6.27746e-20)
(-0.0149709 0.0205845 -1.52975e-19)
(-0.0204935 0.0226893 5.7823e-20)
(-0.0259244 0.0238066 -9.11972e-20)
(-0.0311048 0.024196 3.13609e-20)
(-0.0359358 0.0240753 -1.93153e-19)
(-0.0403674 0.0236269 1.01897e-19)
(-0.044385 0.023004 -1.21516e-19)
(-0.0479997 0.0223354 -1.08067e-19)
(-0.0512424 0.0217294 -1.20998e-19)
(-0.0541584 0.0212763 1.09832e-19)
(-0.0568036 0.0210494 -9.86092e-20)
(-0.0592418 0.0211061 1.37312e-19)
(-0.0615467 0.0214868 3.96832e-20)
(-0.0637965 0.022215 9.82252e-20)
(-0.0660184 0.0233067 4.31071e-20)
(-0.0681611 0.0247777 -1.70681e-19)
(-0.070609 0.0265592 2.77782e-19)
(-0.00176104 0.00588808 9.13924e-20)
(-0.00577351 0.0146168 7.03241e-21)
(-0.0109708 0.0207209 3.76498e-20)
(-0.0165521 0.0247951 1.31374e-19)
(-0.0221246 0.0272958 -2.01135e-20)
(-0.0274844 0.0285928 2.13335e-19)
(-0.0324916 0.0289988 9.46853e-20)
(-0.0370619 0.0287756 7.95968e-21)
(-0.0411554 0.0281425 2.43474e-19)
(-0.0447643 0.0272841 7.97769e-20)
(-0.0479044 0.0263569 3.78445e-20)
(-0.0506097 0.0254941 1.20112e-19)
(-0.0529286 0.0248084 1.10095e-19)
(-0.0549205 0.0243942 2.00985e-19)
(-0.0566544 0.0243276 -1.79643e-19)
(-0.0582111 0.0246653 2.53924e-19)
(-0.0596789 0.0254436 3.32546e-21)
(-0.0610954 0.0266896 -3.24543e-19)
(-0.0624134 0.0284305 4.20706e-19)
(-0.0640403 0.0305823 1.74316e-19)
(-0.00225383 0.00685111 -5.38595e-20)
(-0.00696918 0.0169933 -9.77647e-20)
(-0.0126053 0.0240679 -2.03449e-19)
(-0.0184147 0.0287669 -6.03005e-21)
(-0.0240431 0.0316218 3.47148e-20)
(-0.029316 0.0330622 -2.59791e-19)
(-0.0341174 0.0334502 -1.92735e-19)
(-0.0383802 0.0330883 -2.75708e-20)
(-0.0420772 0.0322296 -2.43789e-19)
(-0.0452086 0.031088 -1.6879e-19)
(-0.0477953 0.0298459 -4.91916e-20)
(-0.0498748 0.0286607 -1.58393e-19)
(-0.0514982 0.0276685 -2.58251e-21)
(-0.0527281 0.0269867 -2.1034e-19)
(-0.0536386 0.0267139 8.84778e-20)
(-0.0543187 0.0269278 -1.00945e-19)
(-0.0548688 0.0276832 7.73228e-20)
(-0.05534 0.0290246 -9.84066e-20)
(-0.0556934 0.0309977 -2.8119e-19)
(-0.056369 0.0335054 -8.54466e-20)
(-0.00281809 0.00776069 -1.98218e-20)
(-0.0083353 0.0192272 -2.15263e-20)
(-0.0144687 0.0272014 1.70575e-19)
(-0.020532 0.0324688 -2.77575e-19)
(-0.0262158 0.0356327 4.07217e-20)
(-0.031381 0.0371788 -1.6034e-19)
(-0.0359394 0.0375145 7.57724e-20)
(-0.0398455 0.0369791 3.4057e-19)
(-0.0430864 0.0358558 -2.18479e-20)
(-0.0456724 0.0343841 -2.54066e-19)
(-0.0476302 0.0327697 4.6165e-20)
(-0.0490003 0.0311927 8.95152e-21)
(-0.0498358 0.0298125 -5.21606e-20)
(-0.050202 0.0287711 5.27921e-21)
(-0.0501775 0.0281933 4.58255e-19)
(-0.0498597 0.0281838 -6.52525e-20)
(-0.0493629 0.0288236 -1.27282e-19)
(-0.0487549 0.0301837 -2.28351e-19)
(-0.0480108 0.0323384 2.32949e-19)
(-0.0476163 0.0351825 1.00446e-19)
(-0.00344911 0.00861202 1.00091e-19)
(-0.00985685 0.0213036 -1.30951e-19)
(-0.0165354 0.0300982 1.85139e-19)
(-0.0228674 0.0358726 1.86375e-19)
(-0.0285956 0.0392985 1.71808e-19)
(-0.0336219 0.0409137 3.48392e-19)
(-0.0378911 0.0411668 2.25292e-19)
(-0.0413827 0.0404291 -4.84117e-19)
(-0.0441017 0.0390091 2.47588e-19)
(-0.0460698 0.0371675 1.94283e-19)
(-0.0473204 0.0351295 -2.75919e-21)
(-0.047897 0.0330945 2.1748e-19)
(-0.0478541 0.0312438 1.69549e-19)
(-0.0472583 0.0297444 -9.223e-20)
(-0.0461912 0.0287507 3.11643e-19)
(-0.0447583 0.0284006 -3.86318e-19)
(-0.0430885 0.0288104 1.54624e-19)
(-0.0412698 0.0300906 1.98837e-19)
(-0.0392979 0.0323594 -4.63265e-20)
(-0.0377228 0.0355125 3.9941e-19)
(-0.00414137 0.00940019 2.01129e-19)
(-0.0115153 0.0232074 1.04296e-20)
(-0.0187721 0.032736 -7.21895e-20)
(-0.0253723 0.0389519 -7.6254e-20)
(-0.0311179 0.0425922 -3.53123e-19)
(-0.0359578 0.0442436 5.00041e-20)
(-0.0398753 0.0443911 1.41679e-19)
(-0.042879 0.043433 -6.81453e-20)
(-0.044995 0.0416978 5.62128e-20)
(-0.0462589 0.0394618 -1.49049e-20)
(-0.0467121 0.036964 -7.34274e-20)
(-0.046402 0.0344187 6.97162e-20)
(-0.0453834 0.0320248 -3.03093e-19)
(-0.0437225 0.029973 2.90566e-19)
(-0.0415025 0.0284484 -2.51676e-19)
(-0.038835 0.0276275 7.77416e-20)
(-0.0358638 0.0276729 1.76897e-19)
(-0.0326992 0.0287503 -3.6799e-20)
(-0.0293651 0.0310436 -1.22392e-19)
(-0.0265014 0.0344658 -8.32179e-20)
(-0.00488819 0.0101198 -2.50537e-19)
(-0.0132876 0.0249225 -1.64865e-20)
(-0.021137 0.0350911 5.27627e-20)
(-0.0279841 0.0416794 1.3566e-19)
(-0.0336978 0.0454876 -1.91522e-19)
(-0.0382802 0.0471478 -1.6713e-19)
(-0.0417581 0.0471772 3.90101e-19)
(-0.0441741 0.0459961 -2.15558e-19)
(-0.0455792 0.0439475 -1.39052e-19)
(-0.046026 0.041317 -1.99523e-19)
(-0.0455665 0.0383507 1.32084e-19)
(-0.0442526 0.0352705 -3.56952e-21)
(-0.0421402 0.0322869 -2.46663e-19)
(-0.0392939 0.0296087 -4.03506e-19)
(-0.0357959 0.0274497 3.07413e-19)
(-0.0317619 0.0260279 -2.49076e-19)
(-0.0273492 0.0255611 3.53133e-19)
(-0.0226911 0.0262896 -9.89281e-20)
(-0.0178466 0.0284926 2.07905e-19)
(-0.0135793 0.0321259 -7.05929e-19)
(-0.00568143 0.0107642 -5.07402e-19)
(-0.0151461 0.026431 3.32708e-19)
(-0.0235788 0.0371377 4.5249e-20)
(-0.0306251 0.0440255 8.75259e-21)
(-0.036228 0.0479561 -2.05153e-19)
(-0.0404491 0.0496041 3.01687e-19)
(-0.0433639 0.0495156 3.29313e-20)
(-0.0450535 0.0481285 -6.18639e-20)
(-0.0455982 0.0457949 -1.98573e-19)
(-0.0450715 0.0428035 2.14648e-19)
(-0.0435392 0.0394002 5.44215e-19)
(-0.0410609 0.0358061 -1.20225e-19)
(-0.0376949 0.0322334 2.71685e-19)
(-0.0335049 0.0289002 -3.20929e-19)
(-0.028571 0.0260411 -3.07734e-19)
(-0.0230099 0.0239123 1.85022e-19)
(-0.0169901 0.0227916 3.05685e-19)
(-0.0106666 0.023012 -9.90555e-19)
(-0.0041367 0.0249856 1.16315e-19)
(0.0016695 0.0287494 1.5819e-19)
(-0.00651122 0.0113261 3.7573e-19)
(-0.0170571 0.0277123 1.23598e-19)
(-0.0260355 0.0388466 6.4387e-19)
(-0.0332008 0.0459564 3.31346e-20)
(-0.0385772 0.049964 -7.16095e-20)
(-0.0422911 0.0515851 -3.41005e-19)
(-0.0444718 0.051392 2.89992e-19)
(-0.0452432 0.0498371 5.2029e-19)
(-0.044719 0.0472775 3.46647e-19)
(-0.0429982 0.0440003 2.50271e-19)
(-0.0401649 0.0402442 2.15765e-19)
(-0.0362912 0.0362206 -3.87447e-19)
(-0.0314424 0.0321324 -1.21366e-19)
(-0.0256843 0.0281928 -8.93967e-20)
(-0.019096 0.0246435 9.57934e-19)
(-0.0117948 0.0217658 -3.27115e-21)
(-0.00395757 0.0198924 -2.38745e-19)
(0.00424356 0.0194599 -7.52677e-20)
(0.0126763 0.0210541 6.85117e-19)
(0.0201949 0.0248453 8.98713e-20)
(-0.00736584 0.0117968 -1.85262e-20)
(-0.0189812 0.0287438 -3.5545e-19)
(-0.0284347 0.0401847 -5.28809e-19)
(-0.0356 0.0474329 -1.47149e-19)
(-0.0405895 0.0514708 8.12533e-20)
(-0.043599 0.0530544 1.7496e-20)
(-0.0448152 0.0527813 4.64026e-19)
(-0.0444083 0.0511168 -5.75501e-19)
(-0.0425293 0.0484217 -2.1891e-19)
(-0.0393069 0.0449783 -4.41181e-19)
(-0.0348495 0.0410143 -3.75778e-19)
(-0.0292483 0.0367243 -3.32754e-19)
(-0.022583 0.0322909 8.32002e-20)
(-0.0149295 0.0279072 -1.08039e-19)
(-0.00637206 0.0238008 4.62935e-19)
(0.00296795 0.0202549 -2.53715e-19)
(0.0129046 0.0176343 -7.95434e-19)
(0.0232544 0.0164724 -1.60482e-19)
(0.0338668 0.0175628 3.92597e-19)
(0.0433324 0.0212694 -3.4213e-19)
(-0.00823175 0.0121675 -5.99486e-20)
(-0.0208731 0.0295012 4.34742e-19)
(-0.0306929 0.0411165 -5.54465e-19)
(-0.0376947 0.0484114 1.28158e-19)
(-0.0420848 0.0524286 -2.63991e-19)
(-0.0441318 0.0539652 5.88037e-19)
(-0.0440822 0.0536439 -4.20282e-19)
(-0.0421548 0.051944 4.80847e-19)
(-0.0385401 0.0492304 -4.55922e-19)
(-0.0334005 0.0457819 1.9454e-19)
(-0.0268742 0.0418151 -9.4408e-20)
(-0.0190796 0.0375058 -2.37057e-19)
(-0.0101223 0.0330101 -2.92931e-19)
(-0.000100915 0.028488 2.91897e-19)
(0.0108808 0.0241309 -2.44475e-19)
(0.0226853 0.0201906 -5.34606e-19)
(0.0351087 0.0170216 5.56576e-19)
(0.0479583 0.0152152 -7.10111e-19)
(0.0610992 0.015781 3.19385e-19)
(0.0728328 0.019326 8.17337e-21)
(-0.00909384 0.0124298 -5.43546e-19)
(-0.0226814 0.0299606 -5.86899e-19)
(-0.0327156 0.0416055 6.76322e-20)
(-0.0393396 0.0488457 -5.66004e-19)
(-0.0428583 0.0527851 -5.03808e-20)
(-0.0436156 0.0542624 -4.16356e-19)
(-0.0419184 0.0539271 -9.55187e-20)
(-0.0380342 0.0522742 -2.79167e-19)
(-0.0321938 0.0496766 2.47823e-21)
(-0.0245953 0.0464146 -1.22154e-19)
(-0.0154115 0.042699 8.67709e-21)
(-0.00479679 0.038692 -3.52026e-19)
(0.00710482 0.034526 3.88027e-19)
(0.0201532 0.0303245 -5.50576e-19)
(0.0342023 0.0262282 1.951e-19)
(0.0490737 0.0224256 7.42931e-21)
(0.0645204 0.0192034 -3.10812e-19)
(0.0803267 0.0171325 7.70758e-19)
(0.0964223 0.0173879 -1.84151e-19)
(0.110855 0.0208219 -1.19482e-19)
(-0.0099357 0.0125762 6.1016e-19)
(-0.0243487 0.0300997 3.29469e-19)
(-0.0343964 0.0416171 3.06479e-19)
(-0.0403708 0.0486918 4.57548e-20)
(-0.0426799 0.0524888 4.14434e-19)
(-0.0417434 0.0538896 5.97367e-19)
(-0.037928 0.053572 4.89115e-19)
(-0.0315482 0.0520498 4.37749e-20)
(-0.0228737 0.0497091 3.58211e-19)
(-0.0121386 0.0468389 5.53505e-19)
(0.000447029 0.043655 -1.43589e-19)
(0.0146859 0.0403188 2.40988e-19)
(0.0303826 0.036953 1.94588e-19)
(0.0473348 0.033657 1.97972e-19)
(0.065325 0.0305262 1.17158e-18)
(0.0840956 0.0276727 -4.39148e-19)
(0.103311 0.0252646 -2.68524e-20)
(0.122681 0.0237395 5.0985e-19)
(0.14224 0.0243062 -2.89193e-19)
(0.159939 0.027975 1.43029e-19)
(-0.0107396 0.0126011 -4.93436e-19)
(-0.0258109 0.0299002 3.16192e-20)
(-0.0356153 0.041123 -3.9502e-19)
(-0.0406035 0.0479137 -5.14206e-20)
(-0.0412905 0.0514983 2.89171e-19)
(-0.0381721 0.0528016 -8.60855e-19)
(-0.0316727 0.0525301 -6.3316e-22)
(-0.022151 0.0512191 4.00634e-19)
(-0.00991283 0.0492727 3.76427e-19)
(0.00477304 0.0469971 -1.65732e-19)
(0.0216586 0.0446254 5.46542e-20)
(0.0404992 0.0423358 1.26765e-19)
(0.0610376 0.0402654 -6.00141e-20)
(0.0829902 0.0385202 -6.7348e-19)
(0.106035 0.0371854 1.70503e-19)
(0.129786 0.0363276 4.69635e-19)
(0.153746 0.0359951 -6.69347e-19)
(0.177448 0.0364032 3.26537e-19)
(0.20101 0.0386302 8.77783e-20)
(0.222632 0.04366 4.44969e-19)
(-0.0114864 0.0125009 -7.28643e-20)
(-0.0269956 0.0293489 -3.45759e-19)
(-0.0362356 0.0401045 1.59104e-19)
(-0.0398273 0.0464908 7.31204e-22)
(-0.0383972 0.0497936 -6.93452e-19)
(-0.0325172 0.0509798 1.08214e-19)
(-0.0226676 0.0507843 -2.05508e-20)
(-0.00924845 0.0497643 1.39996e-19)
(0.00740031 0.0483444 -6.40827e-19)
(0.0269774 0.0468531 -4.49302e-20)
(0.0491971 0.0455504 -1.50574e-19)
(0.073767 0.0446479 1.33935e-19)
(0.100365 0.0443243 4.52263e-19)
(0.128616 0.0447365 -6.99143e-20)
(0.15807 0.0460286 2.71008e-20)
(0.188157 0.0483242 1.7824e-19)
(0.218105 0.0516854 -4.39921e-20)
(0.247045 0.0562484 3.60438e-19)
(0.274901 0.0630985 -2.08644e-19)
(0.300478 0.0728942 -3.31001e-19)
(-0.0121541 0.0122734 6.75823e-20)
(-0.0278189 0.028439 1.6482e-20)
(-0.0360993 0.0385566 1.38652e-19)
(-0.0378007 0.0444249 3.39596e-19)
(-0.0336667 0.0473872 1.90565e-19)
(-0.0243466 0.0484501 1.98838e-20)
(-0.0103767 0.0483738 -2.275e-19)
(0.0078011 0.0477344 5.83203e-20)
(0.0298121 0.0469748 3.06724e-19)
(0.0553204 0.046444 -5.19769e-19)
(0.0840027 0.0464275 3.92233e-19)
(0.115523 0.0471726 -2.95564e-19)
(0.149508 0.0489092 2.50895e-19)
(0.185528 0.0518719 -5.41282e-19)
(0.223059 0.0563241 5.95804e-19)
(0.261431 0.062573 -6.37418e-19)
(0.299683 0.0709652 -1.65951e-19)
(0.336493 0.0821283 5.21916e-19)
(0.370701 0.098027 -1.75902e-19)
(0.399193 0.11869 7.88952e-20)
(-0.012717 0.0119176 -5.11513e-20)
(-0.0281829 0.0271701 4.82716e-19)
(-0.0350227 0.0364898 -2.02527e-21)
(-0.0342452 0.0417459 -2.99662e-19)
(-0.0267193 0.0443343 -2.01534e-19)
(-0.0131763 0.0452972 3.69209e-19)
(0.00578657 0.0454147 -1.46237e-19)
(0.0296783 0.0452752 -1.84227e-20)
(0.058078 0.0453306 3.04766e-19)
(0.090601 0.0459371 -3.78613e-19)
(0.126871 0.0473878 4.15261e-20)
(0.166499 0.049938 -4.92318e-19)
(0.209069 0.053831 2.59349e-19)
(0.254136 0.059326 -7.4235e-19)
(0.301233 0.0667369 1.18335e-18)
(0.349885 0.0764834 -2.16729e-19)
(0.399641 0.089209 2.27046e-19)
(0.45037 0.10633 -5.89272e-19)
(0.502556 0.130868 3.08963e-21)
(0.548243 0.158581 6.73919e-19)
(-0.0131428 0.0114326 -1.54971e-19)
(-0.0279706 0.0255481 1.33896e-19)
(-0.0327916 0.0339324 -4.93079e-19)
(-0.0288418 0.0385153 7.29294e-19)
(-0.0171278 0.0407386 -5.2652e-19)
(0.00152704 0.0416743 2.71723e-20)
(0.0264509 0.0421144 -5.6774e-19)
(0.0570828 0.0426493 4.05922e-19)
(0.0929265 0.0437249 -5.79916e-20)
(0.13351 0.0456837 -3.58242e-19)
(0.178357 0.048794 -2.09092e-19)
(0.22697 0.0532725 2.20919e-19)
(0.278825 0.0593025 1.46188e-19)
(0.333388 0.0670514 -6.47279e-19)
(0.390138 0.0766871 2.33583e-19)
(0.448617 0.0883898 -3.45114e-19)
(0.508493 0.102372 4.18543e-20)
(0.569784 0.119082 -2.94237e-19)
(0.633346 0.139688 1.21739e-19)
(0.691918 0.160172 -4.43208e-19)
(-0.0133907 0.0108168 4.41179e-19)
(-0.0270432 0.0235849 -2.67191e-19)
(-0.0291586 0.0309305 2.20166e-19)
(-0.0212307 0.0348278 -2.77954e-19)
(-0.00442144 0.0367546 4.6592e-19)
(0.0203345 0.0378045 -8.15457e-21)
(0.0522639 0.0387713 -5.67178e-20)
(0.090697 0.0402333 -4.20527e-20)
(0.13501 0.0426125 2.58847e-19)
(0.18458 0.0462126 4.40163e-19)
(0.238752 0.051245 -2.60014e-19)
(0.296832 0.0578477 2.52831e-19)
(0.358091 0.0660978 4.62045e-19)
(0.421786 0.0760215 -3.23965e-19)
(0.487198 0.0875987 -6.58964e-19)
(0.553676 0.100758 1.20578e-18)
(0.62068 0.115361 -2.15221e-19)
(0.687869 0.131241 -7.01189e-20)
(0.755461 0.148728 7.58277e-19)
(0.818226 0.16689 -1.59681e-19)
(-0.0134096 0.0100686 -7.18285e-19)
(-0.0252375 0.0212993 -4.78169e-19)
(-0.0238442 0.0275491 -1.8356e-19)
(-0.0110173 0.030811 3.54131e-19)
(0.0118993 0.0325847 -7.99464e-19)
(0.0438279 0.0339737 4.14004e-19)
(0.0838483 0.0357595 5.24676e-20)
(0.131121 0.0384901 5.3053e-20)
(0.184819 0.0425392 -5.42251e-19)
(0.244076 0.048142 -1.91497e-19)
(0.307966 0.0554192 -3.3762e-19)
(0.3755 0.0643944 3.26121e-19)
(0.44565 0.0750069 9.26778e-20)
(0.517385 0.0871227 1.82136e-20)
(0.589713 0.100541 4.26057e-19)
(0.661732 0.114992 -4.31324e-19)
(0.73266 0.130134 -1.79946e-20)
(0.80187 0.145559 1.06838e-20)
(0.869051 0.161116 5.88433e-20)
(0.931275 0.178343 3.37063e-19)
(-0.0131368 0.00918674 2.28708e-19)
(-0.0223666 0.0187186 5.89061e-19)
(-0.0165409 0.0238729 4.72721e-19)
(0.00221564 0.0266248 -1.62939e-19)
(0.0323392 0.0284745 5.66683e-19)
(0.0725591 0.0305195 -4.77443e-20)
(0.12174 0.0335077 -6.72522e-20)
(0.178786 0.03793 4.00354e-20)
(0.242564 0.0440792 5.47765e-19)
(0.31186 0.0520845 3.21866e-19)
(0.385373 0.0619367 9.39893e-20)
(0.461737 0.0735098 5.75176e-21)
(0.539568 0.0865808 -6.24184e-19)
(0.617523 0.100849 5.42355e-19)
(0.694358 0.115952 9.32104e-20)
(0.768978 0.131481 -1.53283e-19)
(0.84047 0.146987 -6.66537e-19)
(0.908125 0.162012 -5.67224e-20)
(0.971417 0.176092 2.63891e-19)
(1.02951 0.192368 -5.40659e-20)
(-0.0124982 0.00817252 -5.80423e-19)
(-0.0182225 0.0158819 2.42849e-19)
(-0.00692248 0.0200095 -1.18561e-18)
(0.0188895 0.0224612 4.85555e-19)
(0.0573756 0.0247088 -3.87222e-19)
(0.106999 0.0278187 2.85472e-19)
(0.166314 0.0324741 -4.43462e-19)
(0.233854 0.0390705 4.07102e-20)
(0.308061 0.0477753 -2.28578e-20)
(0.387263 0.0585649 1.19282e-19)
(0.469699 0.0712572 1.72322e-19)
(0.553579 0.0855434 -3.25702e-19)
(0.637171 0.101022 1.72458e-19)
(0.718875 0.117234 1.58513e-19)
(0.797302 0.133688 6.85694e-19)
(0.871317 0.149893 -2.97621e-19)
(0.940066 0.165376 -1.98334e-19)
(1.00298 0.179724 3.33804e-19)
(1.05966 0.192373 1.78801e-19)
(1.11064 0.207188 -3.35442e-19)
(-0.0114094 0.00703191 5.08463e-19)
(-0.0125814 0.0128449 4.90287e-19)
(0.00534391 0.0160926 1.41429e-19)
(0.0394067 0.0185457 5.95697e-19)
(0.0874206 0.021607 2.92618e-19)
(0.147483 0.0262747 -5.27494e-19)
(0.217712 0.0331225 7.98924e-19)
(0.296137 0.0423974 -3.93161e-19)
(0.380652 0.0540851 3.92487e-19)
(0.469031 0.0679556 5.07917e-19)
(0.559015 0.0836115 -2.9028e-19)
(0.648414 0.100539 5.51288e-20)
(0.735232 0.11816 3.07684e-19)
(0.81776 0.135883 2.16915e-19)
(0.894648 0.153142 5.00159e-19)
(0.964933 0.16943 -1.99864e-19)
(1.02804 0.184321 -2.44272e-20)
(1.08373 0.197508 3.16583e-19)
(1.13198 0.208508 -6.79598e-20)
(1.17414 0.22125 3.60003e-22)
(-0.00977784 0.00577856 -2.62487e-19)
(-0.00521155 0.00968459 -9.64782e-19)
(0.0205815 0.0122871 2.27184e-19)
(0.0641235 0.0151386 -1.72946e-19)
(0.12278 0.0195181 -3.99199e-19)
(0.194152 0.0263032 -2.84985e-19)
(0.275776 0.035896 -1.76057e-19)
(0.365034 0.0483271 4.27594e-19)
(0.459163 0.0633346 -2.53945e-19)
(0.555343 0.0804297 -2.60045e-19)
(0.650848 0.0989698 -3.29051e-19)
(0.743202 0.118235 -5.43177e-20)
(0.830322 0.1375 -3.67165e-20)
(0.910607 0.156096 -7.61847e-19)
(0.982981 0.173453 3.69756e-19)
(1.04687 0.189126 -4.86191e-19)
(1.10216 0.202805 1.53114e-19)
(1.1491 0.214328 -1.16553e-18)
(1.18813 0.223423 3.51215e-19)
(1.221 0.233654 4.45268e-19)
(-0.0075063 0.00443647 -6.59055e-20)
(0.0041166 0.00650468 4.70738e-19)
(0.0390858 0.00879288 3.0175e-20)
(0.0933209 0.0125351 7.26135e-20)
(0.163614 0.0188144 -1.47628e-19)
(0.246911 0.028316 -2.42117e-21)
(0.340007 0.0411901 -3.78622e-21)
(0.439509 0.0571712 -8.9067e-20)
(0.541942 0.0756834 3.15899e-19)
(0.643927 0.0959395 1.22164e-19)
(0.7424 0.117048 5.54738e-19)
(0.834807 0.138114 -1.51285e-19)
(0.919228 0.15833 1.05702e-19)
(0.994429 0.177029 -1.38089e-20)
(1.05983 0.193722 2.92959e-19)
(1.11543 0.208101 1.79461e-19)
(1.16166 0.220028 4.32997e-19)
(1.19932 0.229514 -6.99654e-19)
(1.22931 0.236532 8.81082e-19)
(1.25349 0.244102 -2.79269e-19)
(-0.00449621 0.00304213 -6.13692e-19)
(0.0156192 0.00343892 -1.91544e-19)
(0.0611041 0.00584673 1.49729e-19)
(0.127175 0.0110622 9.43933e-20)
(0.209897 0.0198797 9.66894e-20)
(0.305388 0.0326994 9.80402e-20)
(0.409546 0.0493236 -2.4534e-19)
(0.518125 0.0691067 -1.01474e-19)
(0.626961 0.0911052 3.14665e-20)
(0.732255 0.114222 -3.00628e-19)
(0.83084 0.137352 -1.36054e-19)
(0.920363 0.159496 8.2233e-19)
(0.999353 0.179856 -2.12115e-19)
(1.06718 0.197863 -2.92716e-19)
(1.12393 0.213192 -1.39142e-19)
(1.17024 0.22573 9.62483e-20)
(1.20714 0.235542 1.17668e-19)
(1.23585 0.242809 -5.6413e-19)
(1.25766 0.247733 8.16963e-19)
(1.27442 0.252762 -7.08333e-19)
(-0.000652014 0.00164608 -6.9489e-20)
(0.0294865 0.000652984 1.99117e-20)
(0.0868146 0.00372104 -2.53614e-20)
(0.165729 0.011071 3.70691e-19)
(0.261392 0.0230932 2.03992e-20)
(0.368918 0.03979 1.3612e-19)
(0.483193 0.0605109 -2.82775e-19)
(0.599117 0.0841557 -1.03156e-20)
(0.711973 0.10939 3.92885e-19)
(0.81779 0.134838 5.47896e-20)
(0.913609 0.159256 -3.42444e-19)
(0.997593 0.181652 -3.00787e-20)
(1.06897 0.201338 -2.81661e-19)
(1.12789 0.217941 2.80366e-19)
(1.17518 0.23136 3.89818e-19)
(1.21209 0.241706 -4.29859e-20)
(1.24014 0.249244 -5.24915e-20)
(1.26087 0.254305 1.59995e-19)
(1.27576 0.257257 -5.14856e-19)
(1.28659 0.260045 4.53377e-19)
(0.00411431 0.000313509 6.97391e-20)
(0.0458691 -0.00165636 -4.50028e-19)
(0.116305 0.0027183 1.2045e-19)
(0.208866 0.0129238 -3.73525e-19)
(0.31763 0.0288083 1.28427e-19)
(0.436552 0.0498483 -4.76962e-19)
(0.559466 0.0748396 1.92387e-19)
(0.680528 0.102182 -6.12388e-20)
(0.794719 0.130168 -2.48131e-21)
(0.898236 0.157229 6.27106e-20)
(0.988678 0.182098 -2.28471e-19)
(1.065 0.203908 -3.26317e-19)
(1.12733 0.222193 -6.69756e-20)
(1.17663 0.236838 -3.00693e-20)
(1.21443 0.247998 -7.6318e-20)
(1.24252 0.256007 -2.48818e-20)
(1.26271 0.261295 -7.44964e-20)
(1.27672 0.264305 -6.46213e-20)
(1.28609 0.265504 -1.9246e-19)
(1.29242 0.266429 3.05511e-19)
(0.00987846 -0.00087602 1.67827e-19)
(0.0648652 -0.0032648 -1.86375e-19)
(0.149554 0.00316141 4.01079e-19)
(0.256296 0.0169763 -1.73096e-19)
(0.377908 0.0373281 4.62623e-19)
(0.507093 0.0630352 6.57103e-21)
(0.636693 0.0922612 2.32341e-19)
(0.760359 0.122904 -6.22125e-20)
(0.873127 0.152963 2.59732e-19)
(0.971748 0.180798 1.88057e-20)
(1.05469 0.205263 6.18678e-19)
(1.12193 0.225732 -4.27132e-19)
(1.17452 0.24204 5.75295e-20)
(1.21422 0.254366 1.0984e-19)
(1.24314 0.263117 5.75875e-19)
(1.2634 0.268813 -2.06924e-19)
(1.27698 0.272006 -4.10508e-20)
(1.28561 0.273199 -2.17627e-19)
(1.29075 0.272906 -2.29729e-20)
(1.29382 0.272344 1.08949e-19)
(0.0166987 -0.00182974 -8.05968e-20)
(0.0865073 -0.00392669 2.32755e-19)
(0.186416 0.00538025 -2.38231e-19)
(0.307543 0.0235568 9.41235e-20)
(0.44131 0.0488822 -1.12467e-19)
(0.579158 0.0793967 4.12884e-19)
(0.713135 0.112595 -5.7489e-20)
(0.83674 0.145933 1.41723e-19)
(0.945487 0.177247 -8.34342e-20)
(1.03705 0.204981 -2.17924e-21)
(1.11101 0.228248 9.53858e-20)
(1.16843 0.246763 -7.39203e-20)
(1.21128 0.260701 1.91777e-19)
(1.24197 0.270535 -9.55998e-20)
(1.263 0.276885 -4.21268e-19)
(1.27664 0.280412 4.18922e-19)
(1.2849 0.281735 -1.88854e-19)
(1.28938 0.281371 1.50817e-19)
(1.2914 0.279843 2.61656e-19)
(1.29218 0.278121 1.07506e-19)
(0.024611 -0.00244381 2.00536e-19)
(0.110752 -0.00338373 -4.13237e-19)
(0.226611 0.00969539 7.90751e-20)
(0.361957 0.032945 -5.73548e-20)
(0.506742 0.0636083 -2.31292e-19)
(0.651268 0.09886 -1.81528e-19)
(0.787112 0.13555 -3.56759e-20)
(0.908067 0.170815 -3.23685e-19)
(1.01055 0.202499 -1.97121e-20)
(1.09345 0.229296 -6.01572e-20)
(1.15761 0.250697 -1.63349e-19)
(1.20513 0.266814 -3.62895e-20)
(1.23876 0.278167 -1.25077e-19)
(1.26139 0.285485 -2.08845e-19)
(1.27569 0.289556 2.13938e-19)
(1.28396 0.291121 2.95286e-20)
(1.28807 0.290818 5.88476e-20)
(1.28945 0.289145 -2.46643e-19)
(1.28924 0.286609 -6.15167e-21)
(1.28845 0.283985 -3.80754e-19)
(0.0336241 -0.00260627 2.19917e-19)
(0.13747 -0.00137552 1.46666e-19)
(0.269724 0.0164007 -2.36427e-19)
(0.418726 0.0453525 3.69202e-19)
(0.572994 0.0815403 -3.97917e-20)
(0.721942 0.121241 1.37905e-19)
(0.857118 0.160755 4.77468e-20)
(0.97309 0.197078 1.69188e-19)
(1.06755 0.228253 -1.32479e-19)
(1.1408 0.253376 4.41648e-20)
(1.19493 0.272395 -4.23996e-20)
(1.23298 0.285836 -1.86705e-20)
(1.25828 0.294535 3.5486e-20)
(1.27396 0.299427 -6.5407e-20)
(1.28272 0.301402 -2.01123e-20)
(1.28676 0.301232 -6.15348e-20)
(1.28773 0.299534 -1.00053e-19)
(1.28687 0.296765 6.45925e-20)
(1.2851 0.293405 -8.86794e-20)
(1.28325 0.290068 3.83189e-19)
(0.0437155 -0.00220092 -1.09842e-19)
(0.166445 0.00234836 -3.11116e-19)
(0.31521 0.0257457 -4.14138e-20)
(0.476917 0.0609072 -1.12599e-20)
(0.638804 0.102607 -1.39348e-19)
(0.789789 0.146265 -2.28789e-19)
(0.921906 0.187796 7.48991e-20)
(1.03096 0.224272 -1.0292e-19)
(1.11619 0.254126 -1.15352e-19)
(1.17938 0.276968 6.42718e-20)
(1.22375 0.293246 -4.85797e-20)
(1.25311 0.30388 -9.83282e-20)
(1.27112 0.309968 -3.33671e-21)
(1.28101 0.312586 6.66047e-20)
(1.28536 0.312672 -6.798e-20)
(1.28615 0.310983 9.43382e-20)
(1.28482 0.308091 2.53706e-20)
(1.28236 0.304395 6.39761e-20)
(1.27953 0.300351 1.24756e-19)
(1.27697 0.296429 -1.06884e-19)
(0.0548288 -0.00111177 1.04931e-19)
(0.197371 0.00801583 -9.29323e-21)
(0.362413 0.0379206 4.70628e-20)
(0.535516 0.0796447 -6.38853e-20)
(0.702931 0.12664 5.24471e-21)
(0.853584 0.173587 2.21677e-19)
(0.980535 0.216247 -1.45636e-19)
(1.0812 0.251996 6.16958e-20)
(1.15654 0.27982 5.44075e-20)
(1.20973 0.299922 -1.52966e-19)
(1.24499 0.313243 1.43772e-19)
(1.26663 0.321051 1.27293e-21)
(1.27847 0.324642 -1.01364e-19)
(1.28367 0.325169 1.22194e-19)
(1.28458 0.323568 -4.8508e-20)
(1.28295 0.320553 3.7101e-20)
(1.27994 0.316626 -4.14935e-20)
(1.27639 0.312131 -1.65896e-20)
(1.27285 0.3075 -1.45376e-19)
(1.26983 0.303072 4.45234e-20)
(0.0668722 0.000771884 -3.53935e-20)
(0.229859 0.0158199 9.49578e-20)
(0.410587 0.053043 1.48009e-20)
(0.593474 0.101505 6.20953e-20)
(0.764215 0.153383 2.96255e-20)
(0.912319 0.202824 1.38867e-20)
(1.03237 0.245697 7.87441e-20)
(1.12368 0.279909 -9.55862e-21)
(1.18893 0.305122 3.47299e-20)
(1.23259 0.322161 5.5814e-20)
(1.25961 0.332429 2.69405e-20)
(1.27459 0.337475 1.93445e-20)
(1.28135 0.338723 7.8457e-20)
(1.28283 0.337346 -7.59479e-20)
(1.28113 0.334241 1.63055e-20)
(1.27772 0.330054 -1.52709e-20)
(1.27355 0.325214 2.36319e-20)
(1.26925 0.320011 1.98023e-20)
(1.26526 0.31486 4.13671e-20)
(1.26196 0.309968 1.74395e-21)
(0.0797185 0.00355028 2.09814e-20)
(0.263447 0.0259072 1.91648e-20)
(0.458929 0.07115 -2.6528e-20)
(0.649762 0.126338 1.65762e-20)
(0.821631 0.182516 9.36481e-21)
(0.965223 0.233573 -2.91319e-20)
(1.07707 0.275768 9.61493e-21)
(1.15852 0.307731 1.7325e-21)
(1.2139 0.329884 1.65862e-20)
(1.24874 0.343663 -4.4475e-20)
(1.26851 0.350874 -1.38259e-22)
(1.27789 0.353272 1.23301e-20)
(1.28056 0.352345 -9.82536e-21)
(1.27917 0.34924 9.94169e-21)
(1.27554 0.344785 2.5949e-20)
(1.27087 0.339546 -1.47657e-20)
(1.2659 0.333882 4.10972e-21)
(1.26112 0.328031 1.61825e-20)
(1.25686 0.322399 -2.6683e-20)
(1.2534 0.317061 1.28073e-20)
(0.0932081 0.00730805 5.85036e-20)
(0.297615 0.0383688 -3.18135e-20)
(0.506606 0.092194 3.74589e-20)
(0.703408 0.153909 -2.78714e-20)
(0.874318 0.21367 -1.25007e-20)
(1.01176 0.26543 3.77841e-21)
(1.11453 0.306117 -1.22708e-20)
(1.18602 0.335237 4.41349e-20)
(1.23205 0.354007 -3.67533e-20)
(1.25896 0.364431 8.62423e-21)
(1.27251 0.368646 -6.42725e-21)
(1.27731 0.36854 -4.18735e-20)
(1.27676 0.365604 4.06188e-20)
(1.27321 0.360924 1.54664e-20)
(1.26819 0.355243 -1.53876e-20)
(1.26264 0.349044 3.61236e-20)
(1.25716 0.342616 -5.3037e-22)
(1.25211 0.336156 -3.50499e-20)
(1.2477 0.330063 2.59678e-20)
(1.24418 0.324279 8.18588e-21)
(0.107152 0.0121096 -2.05e-20)
(0.331801 0.0532337 5.94558e-20)
(0.552794 0.116044 6.8693e-20)
(0.753539 0.183914 -3.24057e-20)
(0.921597 0.246444 5.63878e-20)
(1.05162 0.298005 8.92346e-20)
(1.14483 0.336441 -4.91182e-21)
(1.20661 0.362244 -1.5319e-20)
(1.24402 0.377419 7.56867e-20)
(1.26398 0.384477 3.69036e-20)
(1.27232 0.385801 -6.69576e-21)
(1.27344 0.383344 5.50143e-20)
(1.27043 0.378555 -5.89963e-20)
(1.26531 0.37243 9.18627e-20)
(1.25931 0.36562 -1.53257e-20)
(1.2532 0.358525 4.38982e-20)
(1.24743 0.351371 7.91069e-21)
(1.24225 0.344325 3.14167e-20)
(1.23781 0.33778 -2.99063e-20)
(1.23428 0.331544 7.1939e-21)
(0.121334 0.0179947 -3.19052e-20)
(0.365424 0.0704636 7.57478e-20)
(0.596703 0.142488 5.62688e-20)
(0.799399 0.215989 -8.5251e-21)
(0.962968 0.280419 8.76616e-20)
(1.08467 0.330922 -6.54541e-20)
(1.16821 0.366469 -5.12902e-21)
(1.22078 0.388599 5.78066e-20)
(1.25043 0.400065 1.83678e-20)
(1.26443 0.403805 2.56899e-20)
(1.26851 0.40237 -3.79328e-20)
(1.26677 0.397716 9.88962e-20)
(1.26194 0.39121 1.84619e-20)
(1.25571 0.383748 -8.75946e-20)
(1.24909 0.375882 1.27958e-19)
(1.24266 0.367937 -1.50973e-19)
(1.23675 0.360082 -6.92971e-20)
(1.23156 0.352463 1.14856e-20)
(1.22716 0.345468 6.73037e-20)
(1.22372 0.338766 -1.26839e-19)
(0.135525 0.0249757 -7.18437e-20)
(0.397897 0.0899528 -1.69464e-19)
(0.637607 0.171244 -1.46509e-19)
(0.840367 0.249728 -1.99505e-19)
(0.998101 0.315172 -1.13186e-19)
(1.11093 0.363828 -2.34709e-19)
(1.18498 0.39596 2.98204e-20)
(1.22903 0.414167 -1.24645e-19)