/*--------------------------------*- C++ -*----------------------------------*\
  =========                 |
  \\      /  F ield         | OpenFOAM: The Open Source CFD Toolbox
   \\    /   O peration     | Website:  https://openfoam.org
    \\  /    A nd           | Version:  6.0
     \\/     M anipulation  |
\*---------------------------------------------------------------------------*/
FoamFile
{
    version     2.0;
    format      ascii;
    class       surfaceScalarField;
    location    "40";
    object      phi;
}
// * * * * * * * * * * * * * * * * * * * * * * * * * * * * * * * * * * * * * //

dimensions      [0 3 -1 0 0 0 0];

internalField   nonuniform List<scalar> 
7840
(
3.45706e-05
-0.000244789
0.000122989
-0.000772684
0.000248711
-0.0013058
0.000393352
-0.00180187
0.000539681
-0.0022276
0.000674613
-0.0025659
0.000790492
-0.00281571
0.000884638
-0.00298714
0.000957962
-0.00309569
0.00101339
-0.0031577
0.0010546
-0.0031876
0.00108513
-0.00319678
0.00110798
-0.00319349
0.00112548
-0.00318335
0.00113929
-0.00316998
0.00115057
-0.0031556
0.00116012
-0.00314159
0.00116846
-0.00312878
0.00117595
-0.0031177
-0.00310887
0.00118275
3.6029e-05
-0.000280818
0.000125578
-0.000862233
0.000249373
-0.00142959
0.000387477
-0.00193997
0.000522654
-0.00236278
0.000643034
-0.00268628
0.000742686
-0.00291537
0.000820548
-0.003065
0.000878683
-0.00315383
0.000920641
-0.00319966
0.000950247
-0.00321721
0.000970914
-0.00321744
0.000985348
-0.00320792
0.000995528
-0.00319353
0.00100283
-0.00317728
0.00100816
-0.00316094
0.00101215
-0.00314558
0.00101518
-0.00313182
0.00101752
-0.00312004
-0.00311064
0.00101929
3.7089e-05
-0.000317907
0.000126607
-0.000951751
0.00024679
-0.00154978
0.000376636
-0.00206982
0.0004994
-0.00248554
0.000604714
-0.0027916
0.000688395
-0.00299905
0.000750818
-0.00312743
0.000794949
-0.00319796
0.000824711
-0.00322942
0.000843914
-0.00323641
0.000855728
-0.00322926
0.000862529
-0.00321473
0.000865977
-0.00319698
0.000867171
-0.00317847
0.000866829
-0.0031606
0.000865417
-0.00314416
0.000863244
-0.00312964
0.000860501
-0.0031173
-0.00310742
0.000857274
3.7712e-05
-0.000355619
0.000126025
-0.00104006
0.000241032
-0.00166478
0.000361175
-0.00218996
0.000470638
-0.002595
0.00056073
-0.00288169
0.000628942
-0.00306726
0.000676873
-0.00317536
0.000708145
-0.00322923
0.000726847
-0.00324812
0.000736645
-0.00324621
0.000740404
-0.00323302
0.000740169
-0.00321449
0.000737301
-0.00319411
0.000732668
-0.00317384
0.000726823
-0.00315475
0.000720121
-0.00313746
0.000712802
-0.00312233
0.000705012
-0.00310951
-0.00309922
0.000696811
3.78715e-05
-0.000393491
0.000123828
-0.00112602
0.000232247
-0.0017732
0.000341531
-0.00229924
0.000437136
-0.00269061
0.000512127
-0.00295668
0.000565532
-0.00312066
0.000599943
-0.00320977
0.000619412
-0.0032487
0.000628036
-0.00325675
0.000629241
-0.00324741
0.000625565
-0.00322934
0.000618733
-0.00320766
0.000609844
-0.00318522
0.000599573
-0.00316357
0.000588338
-0.00314352
0.000576414
-0.00312554
0.000563985
-0.0031099
0.000551168
-0.00309669
-0.00308606
0.00053801
3.75529e-05
-0.000431044
0.000120054
-0.00120852
0.000220655
-0.0018738
0.000318198
-0.00239679
0.000399672
-0.00277208
0.000459888
-0.0030169
0.000499232
-0.00316001
0.000521067
-0.0032316
0.000529679
-0.00325731
0.000529048
-0.00325612
0.000522307
-0.00324067
0.000511666
-0.0032187
0.000498557
-0.00319455
0.000483854
-0.00317052
0.000468071
-0.00314779
0.000451523
-0.00312697
0.000434417
-0.00310843
0.0004169
-0.00309238
0.000399072
-0.00307886
-0.00306796
0.00038097
3.67534e-05
-0.000467797
0.000114778
-0.00128655
0.000206521
-0.00196555
0.000291697
-0.00248196
0.000358997
-0.00283938
0.000404904
-0.0030628
0.000430968
-0.00318607
0.000441107
-0.00324174
0.000439686
-0.00325589
0.000430478
-0.00324691
0.000416299
-0.00322649
0.000399045
-0.00320145
0.000379889
-0.00317539
0.000359513
-0.00315015
0.000338304
-0.00312658
0.000316491
-0.00310516
0.000294231
-0.00308617
0.000271643
-0.00306979
0.000248813
-0.00305603
-0.00304493
0.000225783
3.54814e-05
-0.000503278
0.000108103
-0.00135917
0.000190142
-0.00204758
0.000262553
-0.00255437
0.000315818
-0.00289265
0.000347972
-0.00309496
0.000361527
-0.00319963
0.000360771
-0.00324099
0.000350021
-0.00324514
0.000332786
-0.00322967
0.000311561
-0.00320527
0.000287951
-0.00317784
0.000262909
-0.00315035
0.000236958
-0.00312419
0.00021038
-0.0031
0.000183336
-0.00307811
0.000155941
-0.00305878
0.000128293
-0.00304214
0.000100474
-0.00302821
-0.00301698
7.25299e-05
3.37551e-05
-0.000537034
0.000100157
-0.00142557
0.000171833
-0.00211926
0.000231275
-0.00261382
0.00027078
-0.00293215
0.000289787
-0.00311396
0.000291573
-0.00320141
0.000280636
-0.00323005
0.000261149
-0.00322566
0.000236327
-0.00320485
0.000208352
-0.00317729
0.000178572
-0.00314806
0.000147752
-0.00311953
0.00011629
-0.00309273
8.43816e-05
-0.00306809
5.21308e-05
-0.00304586
1.9616e-05
-0.00302626
-1.30817e-05
-0.00300945
-4.5878e-05
-0.00299542
-0.00298414
-7.87158e-05
3.16014e-05
-0.000568635
9.10818e-05
-0.00148505
0.000151911
-0.00218009
0.000198346
-0.00266025
0.000224466
-0.00295827
0.00023095
-0.00312045
0.000221659
-0.00319212
0.000201168
-0.00320956
0.00017344
-0.00319793
0.000141377
-0.00317279
0.000106873
-0.00314279
7.10513e-05
-0.00311224
3.4523e-05
-0.003083
-2.4134e-06
-0.0030558
-3.96299e-05
-0.00303088
-7.70719e-05
-0.00300842
-0.000114695
-0.00298864
-0.000152432
-0.00297171
-0.000190193
-0.00295766
-0.00294643
-0.000227902
2.9054e-05
-0.000597689
8.10305e-05
-0.00153703
0.00013069
-0.00222975
0.000164214
-0.00269378
0.000177394
-0.00297145
0.000171978
-0.00311503
0.000152249
-0.00317239
0.000122751
-0.00318006
8.71889e-05
-0.00316237
4.81578e-05
-0.00313376
7.28496e-06
-0.00310192
-3.44963e-05
-0.00307045
-7.66969e-05
-0.0030408
-0.000119094
-0.0030134
-0.000161612
-0.00298836
-0.00020424
-0.00296579
-0.000246967
-0.00294591
-0.000289742
-0.00292893
-0.000332462
-0.00291494
-0.00290387
-0.000375027
2.61527e-05
-0.000623842
7.01605e-05
-0.00158103
0.00010847
-0.00226806
0.00012929
-0.0027146
0.000130021
-0.00297218
0.000113314
-0.00309833
8.37309e-05
-0.00314281
4.57005e-05
-0.00314203
2.64442e-06
-0.00311931
-4.31423e-05
-0.00308797
-9.02709e-05
-0.00305479
-0.000137967
-0.00302276
-0.000185834
-0.00299293
-0.000233704
-0.00296553
-0.000281537
-0.00294052
-0.000329362
-0.00291797
-0.000377206
-0.00289807
-0.000425037
-0.0028811
-0.000472738
-0.00286724
-0.00285644
-0.00052017
2.29412e-05
-0.000646783
5.86301e-05
-0.00161672
8.55372e-05
-0.00229497
9.39469e-05
-0.00272301
8.27477e-05
-0.00296098
5.53368e-05
-0.00307091
1.64336e-05
-0.00310391
-2.97124e-05
-0.00309588
-7.99778e-05
-0.00306904
-0.000132352
-0.0030356
-0.000185659
-0.00300148
-0.000239255
-0.00296916
-0.000292813
-0.00293938
-0.000346195
-0.00291215
-0.000399384
-0.00288733
-0.000452442
-0.00286491
-0.000505438
-0.00284507
-0.000558373
-0.00282817
-0.000611119
-0.00281449
-0.00280408
-0.000663476
1.94665e-05
-0.000666249
4.65952e-05
-0.00164385
6.21583e-05
-0.00231053
5.85203e-05
-0.00271937
3.5928e-05
-0.00293839
-1.62245e-06
-0.00303336
-4.93559e-05
-0.00305617
-0.000103248
-0.00304199
-0.000160477
-0.00301182
-0.000219301
-0.00297677
-0.000278732
-0.00294205
-0.000338238
-0.00290966
-0.000397538
-0.00288008
-0.000456505
-0.00285318
-0.000515127
-0.00282871
-0.000573484
-0.00280655
-0.000631694
-0.00278686
-0.000689805
-0.00277006
-0.000747689
-0.00275661
-0.00274672
-0.000805053
1.57774e-05
-0.000682027
3.42069e-05
-0.00166228
3.85806e-05
-0.0023149
2.33124e-05
-0.0027041
-1.01271e-05
-0.00290495
-5.72747e-05
-0.00298622
-0.000113382
-0.00300007
-0.000174681
-0.00298069
-0.000238651
-0.00294785
-0.0003038
-0.00291162
-0.000369313
-0.00287654
-0.000434751
-0.00284422
-0.000499872
-0.00281496
-0.00056454
-0.00278851
-0.000628723
-0.00276453
-0.000692493
-0.00274278
-0.00075601
-0.00272335
-0.000819387
-0.00270668
-0.000882507
-0.00269349
-0.00268428
-0.000944944
1.19234e-05
-0.00069395
2.16095e-05
-0.00167197
1.50308e-05
-0.00230832
-1.14069e-05
-0.00267766
-5.51431e-05
-0.00286122
-0.000111363
-0.00293
-0.000175412
-0.00293602
-0.000243797
-0.00291231
-0.00031429
-0.00287735
-0.000385635
-0.00284028
-0.000457175
-0.002805
-0.000528567
-0.00277283
-0.000599602
-0.00274392
-0.000670131
-0.00271798
-0.000740077
-0.00269458
-0.00080947
-0.00267339
-0.000878476
-0.00265434
-0.000947285
-0.00263787
-0.00101581
-0.00262496
-0.00261657
-0.00108352
7.95392e-06
-0.000701904
8.93867e-06
-0.00167295
-8.28502e-06
-0.0022911
-4.5398e-05
-0.00264055
-9.8878e-05
-0.00280774
-0.000163659
-0.00286521
-0.000235229
-0.00286445
-0.00031038
-0.00283716
-0.000387166
-0.00280057
-0.000464552
-0.00276289
-0.000542035
-0.00272751
-0.00061937
-0.00269549
-0.0006964
-0.00266689
-0.000772977
-0.00264141
-0.000848973
-0.00261859
-0.000924344
-0.00259802
-0.000999231
-0.00257945
-0.00107391
-0.00256319
-0.00114838
-0.00255049
-0.00254269
-0.00122226
3.917e-06
-0.000705821
-3.68007e-06
-0.00166535
-3.11825e-05
-0.0022636
-7.84507e-05
-0.00259328
-0.00014112
-0.00274507
-0.000213958
-0.00279238
-0.00029263
-0.00278578
-0.000374215
-0.00275557
-0.000457035
-0.00271775
-0.000540262
-0.00267967
-0.000623545
-0.00264423
-0.000706754
-0.00261228
-0.000789814
-0.00258383
-0.000872621
-0.0025586
-0.000955028
-0.00253618
-0.00103692
-0.00251613
-0.00111839
-0.00249799
-0.00119982
-0.00248176
-0.00128142
-0.00246889
-0.00246033
-0.00136378
-1.41764e-07
-0.000705679
-1.6133e-05
-0.00164936
-5.35002e-05
-0.00222623
-0.000110385
-0.0025364
-0.000181689
-0.00267376
-0.000262082
-0.00271198
-0.000347429
-0.00270043
-0.000435089
-0.00266791
-0.000523632
-0.0026292
-0.000612423
-0.00259088
-0.000701264
-0.00255539
-0.000790159
-0.00252339
-0.000879172
-0.00249482
-0.000968333
-0.00246944
-0.00105759
-0.00244693
-0.00114682
-0.00242689
-0.00123604
-0.00240877
-0.00132558
-0.00239222
-0.00141601
-0.00237846
-0.00236631
-0.00151004
-4.18028e-06
-0.000701499
-2.83202e-05
-0.00162522
-7.51011e-05
-0.00217945
-0.000141052
-0.00247045
-0.000220441
-0.00259437
-0.000307887
-0.00262454
-0.000399471
-0.00260885
-0.000492809
-0.00257458
-0.000586695
-0.00253532
-0.000680655
-0.00249692
-0.000774624
-0.00246142
-0.000868742
-0.00242927
-0.000963257
-0.0024003
-0.00105845
-0.00237424
-0.0011546
-0.00235078
-0.00125191
-0.00232958
-0.00135049
-0.00231019
-0.00145089
-0.00229182
-0.00155534
-0.00227401
-0.00226801
-0.00165364
-8.14893e-06
-0.00069335
-4.01368e-05
-0.00159324
-9.58514e-05
-0.00212374
-0.000170315
-0.00239598
-0.000257246
-0.00250744
-0.000351257
-0.00253053
-0.000448637
-0.00251147
-0.000547238
-0.00247597
-0.000646035
-0.00243652
-0.000744669
-0.00239828
-0.000843143
-0.00236295
-0.000941647
-0.00233076
-0.0010405
-0.00230145
-0.00114016
-0.00227459
-0.00124123
-0.0022497
-0.00134454
-0.00222627
-0.00145097
-0.00220377
-0.0015609
-0.00218188
-0.0016753
-0.00215961
-0.00213001
-0.00181329
-1.20363e-05
-0.000681314
-5.15496e-05
-0.00155372
-0.000115709
-0.00205958
-0.000198139
-0.00231355
-0.000292086
-0.0024135
-0.000392187
-0.00243043
-0.000494934
-0.00240872
-0.000598394
-0.00237251
-0.000701686
-0.00233323
-0.00080453
-0.00229544
-0.000906934
-0.00226054
-0.00100903
-0.00222867
-0.00111101
-0.00219947
-0.00121308
-0.00217252
-0.00131548
-0.0021473
-0.00141841
-0.00212334
-0.00152194
-0.00210024
-0.00162629
-0.00207753
-0.00173216
-0.00205374
-0.00202544
-0.00183672
-1.58036e-05
-0.00066551
-6.24844e-05
-0.00150704
-0.000134589
-0.00198747
-0.00022445
-0.00222369
-0.000324907
-0.00231304
-0.000430647
-0.00232469
-0.00053836
-0.00230101
-0.000646304
-0.00226457
-0.000753727
-0.0022258
-0.000860416
-0.00218875
-0.000966399
-0.00215456
-0.0010718
-0.00212327
-0.00117676
-0.00209451
-0.00128141
-0.00206787
-0.00138583
-0.00204288
-0.00149004
-0.00201913
-0.00159401
-0.00199627
-0.00169769
-0.00197385
-0.00180039
-0.00195104
-0.00192703
-0.00189881
-1.94286e-05
-0.000646082
-7.28996e-05
-0.00145357
-0.000152449
-0.00190792
-0.000249221
-0.00212692
-0.000355709
-0.00220655
-0.000466664
-0.00221373
-0.000578969
-0.0021887
-0.00069105
-0.00215249
-0.000802264
-0.00211459
-0.000912445
-0.00207857
-0.00102162
-0.00204538
-0.0011299
-0.00201499
-0.00123736
-0.00198705
-0.00134407
-0.00196116
-0.00145004
-0.00193692
-0.00155518
-0.00191399
-0.00165936
-0.00189209
-0.00176229
-0.00187091
-0.00186334
-0.00185
-0.00182894
-0.00196143
-2.28933e-05
-0.000623188
-8.27644e-05
-0.0013937
-0.000169265
-0.00182142
-0.000272446
-0.00202374
-0.00038451
-0.00209449
-0.000500289
-0.00209795
-0.000616844
-0.00207215
-0.00073276
-0.00203657
-0.000847492
-0.00199986
-0.000960917
-0.00196514
-0.00107308
-0.00193322
-0.00118406
-0.00190401
-0.00129392
-0.00187719
-0.00140271
-0.00185237
-0.00151039
-0.00182923
-0.0016169
-0.00180748
-0.00172209
-0.0017869
-0.00182572
-0.00176728
-0.00192739
-0.00174833
-0.00172981
-0.00202652
-2.61836e-05
-0.000597005
-9.20574e-05
-0.00132783
-0.000185022
-0.00172846
-0.000294132
-0.00191463
-0.000411345
-0.00197727
-0.00053158
-0.00197772
-0.000652072
-0.00195165
-0.000771549
-0.0019171
-0.000889555
-0.00188185
-0.00100601
-0.00184869
-0.00112097
-0.00181826
-0.00123452
-0.00179046
-0.00134673
-0.00176498
-0.00145762
-0.00174148
-0.00156719
-0.00171967
-0.00167536
-0.00169931
-0.00178204
-0.00168022
-0.00188708
-0.00166224
-0.00199029
-0.00164513
-0.00162873
-0.00209137
-2.92884e-05
-0.000567716
-0.000100764
-0.00125635
-0.000199716
-0.0016295
-0.000314295
-0.00180005
-0.000436251
-0.00185532
-0.000560599
-0.00185337
-0.000684738
-0.00182751
-0.000807528
-0.00179431
-0.000928595
-0.00176078
-0.0010479
-0.00172938
-0.00116552
-0.00170064
-0.00128155
-0.00167443
-0.00139607
-0.00165046
-0.00150911
-0.00162844
-0.00162069
-0.00160809
-0.00173078
-0.00158922
-0.00183933
-0.00157167
-0.00194628
-0.00155529
-0.00205154
-0.00153987
-0.00152531
-0.00215495
-3.2199e-05
-0.000535517
-0.000108874
-0.00117967
-0.000213349
-0.00152503
-0.000332954
-0.00168044
-0.000459268
-0.001729
-0.000587405
-0.00172523
-0.000714919
-0.0017
-0.000840791
-0.00166844
-0.000964722
-0.00163685
-0.00108671
-0.00160739
-0.00120687
-0.00158048
-0.00132529
-0.001556
-0.00144208
-0.00153367
-0.00155729
-0.00151322
-0.00167097
-0.00149442
-0.00178312
-0.00147707
-0.00189373
-0.00146105
-0.00200282
-0.00144621
-0.00211035
-0.00143234
-0.00141941
-0.00221625
-3.49087e-05
-0.000500609
-0.000116382
-0.0010982
-0.000225925
-0.00141549
-0.000350128
-0.00155624
-0.000480431
-0.0015987
-0.000612048
-0.00159361
-0.000742676
-0.00156937
-0.000871409
-0.0015397
-0.000998015
-0.00151025
-0.00112254
-0.00148287
-0.0012451
-0.00145793
-0.00136582
-0.00143528
-0.00148483
-0.00141467
-0.00160219
-0.00139586
-0.00171798
-0.00137863
-0.00183224
-0.00136281
-0.00194501
-0.00134828
-0.00205631
-0.0013349
-0.00216618
-0.00132248
-0.00131101
-0.00227458
-3.74117e-05
-0.000463197
-0.000123283
-0.00101233
-0.000237447
-0.00130132
-0.000365836
-0.00142785
-0.000499773
-0.00146477
-0.000634571
-0.00145882
-0.00076806
-0.00143588
-0.000899435
-0.00140833
-0.00102853
-0.00138115
-0.00115542
-0.00135598
-0.00128024
-0.0013331
-0.00140316
-0.00131236
-0.0015243
-0.00129353
-0.00164376
-0.0012764
-0.00176164
-0.00126075
-0.00187799
-0.00124646
-0.00199289
-0.00123338
-0.0021064
-0.0012214
-0.00221855
-0.00121032
-0.00120019
-0.00232938
-3.97032e-05
-0.000423494
-0.000129572
-0.000922461
-0.000247921
-0.00118297
-0.000380093
-0.00129568
-0.000517317
-0.00132754
-0.000655004
-0.00132113
-0.000791104
-0.00129978
-0.000924904
-0.00127453
-0.00105629
-0.00124977
-0.00118538
-0.0012269
-0.00131233
-0.00120615
-0.00143731
-0.00118738
-0.00156047
-0.00117037
-0.00168193
-0.00115493
-0.0018018
-0.00114088
-0.00192018
-0.00112808
-0.00203713
-0.00111642
-0.00215275
-0.00110578
-0.0022671
-0.00109598
-0.00108707
-0.00238022
-4.1779e-05
-0.000381715
-0.000135247
-0.000828993
-0.000257349
-0.00106087
-0.00039291
-0.00116012
-0.000533084
-0.00118737
-0.000673371
-0.00118084
-0.000811833
-0.00116132
-0.000947837
-0.00113852
-0.00108132
-0.00111629
-0.00121242
-0.0010958
-0.00134133
-0.00107724
-0.00146822
-0.00106048
-0.00159327
-0.00104533
-0.00171661
-0.0010316
-0.00183836
-0.00101913
-0.00195863
-0.00100781
-0.00207752
-0.000997532
-0.00219512
-0.000988171
-0.00231151
-0.000979584
-0.000971834
-0.00242675
-4.36351e-05
-0.00033808
-0.000140304
-0.000732324
-0.000265734
-0.000935441
-0.000404296
-0.00102156
-0.000547086
-0.00104458
-0.000689688
-0.00103824
-0.00083026
-0.00102075
-0.000968242
-0.00100054
-0.00110361
-0.000980916
-0.00123654
-0.000962872
-0.00136722
-0.000946553
-0.00149586
-0.000931838
-0.00162264
-0.000918553
-0.00174769
-0.000906538
-0.00187117
-0.000895655
-0.00199319
-0.000885795
-0.00211386
-0.000876863
-0.00223328
-0.00086875
-0.00235154
-0.000861327
-0.000854668
-0.0024687
-4.5268e-05
-0.000292812
-0.00014474
-0.000632853
-0.000273075
-0.000807105
-0.000414256
-0.000880377
-0.000559333
-0.000899499
-0.000703963
-0.00089361
-0.000846392
-0.000878321
-0.000986119
-0.000860815
-0.00112316
-0.000843872
-0.00125771
-0.000828325
-0.00138998
-0.000814283
-0.00152018
-0.000801635
-0.0016485
-0.000790232
-0.00177511
-0.000779936
-0.00190014
-0.000770626
-0.00202372
-0.000762207
-0.00214599
-0.000754598
-0.00226704
-0.0007477
-0.00238696
-0.000741403
-0.000735784
-0.00250585
-4.66744e-05
-0.000246137
-0.00014855
-0.000530977
-0.000279373
-0.000676283
-0.000422794
-0.000736955
-0.000569829
-0.000752465
-0.0007162
-0.000747239
-0.000860229
-0.000734293
-0.00100147
-0.000719578
-0.00113996
-0.000705378
-0.00127592
-0.000692369
-0.00140957
-0.000680631
-0.00154113
-0.00067007
-0.00167081
-0.000660559
-0.00179876
-0.000651981
-0.00192515
-0.000644237
-0.00205011
-0.000637246
-0.00217377
-0.000630937
-0.00229624
-0.000625228
-0.00241762
-0.000620027
-0.000615406
-0.002538
-4.78513e-05
-0.000198286
-0.000151732
-0.000427097
-0.000284625
-0.000543389
-0.00042991
-0.00059167
-0.000578576
-0.000603799
-0.000726402
-0.000599413
-0.000871769
-0.000588925
-0.00101427
-0.000577074
-0.00115399
-0.000565665
-0.00129113
-0.000555225
-0.00142595
-0.000545813
-0.00155867
-0.000537352
-0.00168949
-0.00052974
-0.00181859
-0.000522881
-0.00194613
-0.000516696
-0.00207225
-0.00051112
-0.00219709
-0.000506095
-0.00232077
-0.000501554
-0.00244337
-0.000497423
-0.000493768
-0.00256501
-4.8796e-05
-0.00014949
-0.000154281
-0.000321612
-0.000288829
-0.000408841
-0.000435605
-0.000444895
-0.000585575
-0.000453829
-0.000734567
-0.000450421
-0.000881009
-0.000442483
-0.00102453
-0.000433551
-0.00116523
-0.000424968
-0.00130333
-0.000417121
-0.00143909
-0.000410053
-0.00157274
-0.000403702
-0.00170449
-0.000397993
-0.00183452
-0.000392852
-0.00196299
-0.000388221
-0.00209006
-0.00038405
-0.00221586
-0.000380296
-0.00234051
-0.000376907
-0.00246411
-0.000373828
-0.000371112
-0.00258676
-4.95065e-05
-9.99833e-05
-0.000156196
-0.000214922
-0.000291984
-0.000273053
-0.000439876
-0.000297003
-0.000590825
-0.00030288
-0.000740692
-0.000300554
-0.000887944
-0.000295231
-0.00103224
-0.000289259
-0.00117367
-0.000283529
-0.0013125
-0.000278294
-0.00144897
-0.00027358
-0.00158333
-0.000269347
-0.00171578
-0.000265543
-0.00184651
-0.00026212
-0.00197569
-0.000259039
-0.00210348
-0.000256266
-0.00223
-0.000253773
-0.00235539
-0.000251523
-0.00247973
-0.000249481
-0.000247686
-0.00260316
-4.99809e-05
-5.00024e-05
-0.000157473
-0.000107429
-0.000294088
-0.000136438
-0.000442724
-0.000148368
-0.000594325
-0.000151279
-0.000744776
-0.000150103
-0.000892568
-0.000147438
-0.00103737
-0.000144454
-0.00117931
-0.000141593
-0.00131862
-0.00013898
-0.00145557
-0.000136629
-0.0015904
-0.000134518
-0.00172332
-0.000132622
-0.00185453
-0.000130917
-0.00198418
-0.000129383
-0.00211245
-0.000128003
-0.00223946
-0.000126762
-0.00236534
-0.000125644
-0.00249019
-0.000124631
-0.000123741
-0.00261413
-5.0218e-05
2.15581e-07
-0.000158112
4.64472e-07
-0.000295139
5.89331e-07
-0.000444146
6.38918e-07
-0.000596073
6.48573e-07
-0.000746817
6.40053e-07
-0.000894879
6.24817e-07
-0.00103994
6.08014e-07
-0.00118213
5.91588e-07
-0.00132168
5.76107e-07
-0.00145887
5.61648e-07
-0.00159394
5.48146e-07
-0.0017271
5.35507e-07
-0.00185854
5.23643e-07
-0.00198843
5.12478e-07
-0.00211694
5.01946e-07
-0.00224419
4.91991e-07
-0.00237032
4.82551e-07
-0.00249542
4.73549e-07
4.64996e-07
-0.00261963
-5.02176e-05
5.04332e-05
-0.000158111
0.000108358
-0.000295138
0.000137616
-0.000444144
0.000149645
-0.000596071
0.000152575
-0.000746813
0.000151383
-0.000894876
0.000148687
-0.00103994
0.00014567
-0.00118212
0.000142776
-0.00132168
0.000140132
-0.00145887
0.000137752
-0.00159394
0.000135614
-0.00172709
0.000133693
-0.00185853
0.000131964
-0.00198843
0.000130407
-0.00211693
0.000129006
-0.00224419
0.000127746
-0.00237031
0.000126609
-0.00249542
0.000125578
0.000124671
-0.00261962
-4.99795e-05
0.000100413
-0.00015747
0.000215848
-0.000294083
0.000274229
-0.000442717
0.000298279
-0.000594317
0.000304175
-0.000744767
0.000301833
-0.000892558
0.000296479
-0.00103736
0.000290474
-0.0011793
0.000284711
-0.00131861
0.000279445
-0.00145556
0.000274702
-0.00159039
0.000270442
-0.00172331
0.000266613
-0.00185451
0.000263167
-0.00198417
0.000260064
-0.00211243
0.00025727
-0.00223944
0.000254756
-0.00236532
0.000252487
-0.00249017
0.000250428
0.000248615
-0.00261411
-4.95042e-05
0.000149917
-0.00015619
0.000322534
-0.000291976
0.000410014
-0.000439864
0.000446168
-0.000590811
0.000455122
-0.000740676
0.000451698
-0.000887927
0.000443729
-0.00103222
0.000434764
-0.00117365
0.000426149
-0.00131248
0.000418272
-0.00144895
0.000411175
-0.00158331
0.000404797
-0.00171576
0.000399062
-0.00184649
0.000393898
-0.00197567
0.000389245
-0.00210345
0.000385053
-0.00222998
0.000381279
-0.00235536
0.000377871
-0.00247971
0.000374774
0.000372041
-0.00260313
-4.87929e-05
0.00019871
-0.000154273
0.000428015
-0.000288817
0.000544558
-0.000435588
0.000592939
-0.000585556
0.00060509
-0.000734545
0.000600687
-0.000880986
0.00059017
-0.00102451
0.000578286
-0.0011652
0.000566844
-0.0013033
0.000556374
-0.00143906
0.000546934
-0.00157271
0.000538446
-0.00170446
0.000530808
-0.00183449
0.000523926
-0.00196296
0.000517719
-0.00209003
0.000512122
-0.00221583
0.000507077
-0.00234047
0.000502517
-0.00246407
0.000498369
0.000494696
-0.00258672
-4.78472e-05
0.000246557
-0.000151721
0.000531889
-0.000284608
0.000677445
-0.000429889
0.00073822
-0.000578551
0.000753751
-0.000726374
0.00074851
-0.000871739
0.000735535
-0.00101424
0.000720787
-0.00115395
0.000706555
-0.00129109
0.000693516
-0.00142591
0.00068175
-0.00155863
0.000671162
-0.00168944
0.000661626
-0.00181854
0.000653025
-0.00194608
0.000645259
-0.00207221
0.000638247
-0.00219705
0.000631918
-0.00232072
0.00062619
-0.00244332
0.000620971
0.000616333
-0.00256496
-4.66694e-05
0.000293226
-0.000148537
0.000633756
-0.000279353
0.000808261
-0.000422768
0.000881635
-0.000569798
0.000900781
-0.000716166
0.000894878
-0.000860191
0.00087956
-0.00100143
0.000862021
-0.00113992
0.000845047
-0.00127587
0.00082947
-0.00140952
0.000815399
-0.00154108
0.000802725
-0.00167076
0.000791298
-0.00179871
0.000780978
-0.0019251
0.000771646
-0.00205006
0.000763207
-0.00217372
0.000755578
-0.00229619
0.000748661
-0.00241756
0.000742347
0.00073671
-0.00253794
-4.5262e-05
0.000338488
-0.000144724
0.000733219
-0.000273051
0.000936588
-0.000414225
0.00102281
-0.000559296
0.00104585
-0.000703921
0.0010395
-0.000846346
0.00102198
-0.000986071
0.00100175
-0.00112311
0.000982087
-0.00125766
0.000964014
-0.00138992
0.000947667
-0.00152012
0.000932925
-0.00164844
0.000919616
-0.00177504
0.000907578
-0.00190007
0.000896674
-0.00202366
0.000886793
-0.00214592
0.000877841
-0.00226697
0.00086971
-0.00238689
0.000862269
0.000855593
-0.00250577
-4.36282e-05
0.000382117
-0.000140286
0.000829877
-0.000265706
0.00106201
-0.00040426
0.00116136
-0.000547044
0.00118864
-0.00068964
0.0011821
-0.000830207
0.00116255
-0.000968185
0.00113972
-0.00110355
0.00111745
-0.00123647
0.00109694
-0.00136716
0.00107835
-0.00149579
0.00106156
-0.00162257
0.00104639
-0.00174762
0.00103263
-0.0018711
0.00102015
-0.00199311
0.00100881
-0.00211378
0.000998509
-0.0022332
0.00098913
-0.00235146
0.000980525
0.000972758
-0.00246862
-4.1771e-05
0.000423888
-0.000135227
0.000923332
-0.000257317
0.0011841
-0.000392868
0.00129691
-0.000533035
0.0013288
-0.000673316
0.00132238
-0.000811772
0.00130101
-0.000947772
0.00127572
-0.00108125
0.00125093
-0.00121235
0.00122803
-0.00134125
0.00120725
-0.00146814
0.00118846
-0.00159319
0.00117143
-0.00171652
0.00115597
-0.00183827
0.0011419
-0.00195854
0.00112908
-0.00207743
0.0011174
-0.00219503
0.00110673
-0.00231142
0.00109691
0.00108799
-0.00242666
-3.96942e-05
0.000463582
-0.000129549
0.00101319
-0.000247885
0.00130243
-0.000380045
0.00142907
-0.000517261
0.00146602
-0.000654941
0.00146006
-0.000791035
0.0014371
-0.00092483
0.00140952
-0.00105621
0.00138231
-0.00118529
0.00135711
-0.00131224
0.0013342
-0.00143722
0.00131344
-0.00156038
0.00129459
-0.00168184
0.00127743
-0.00180171
0.00126177
-0.00192008
0.00124745
-0.00203703
0.00123435
-0.00215265
0.00122235
-0.002267
0.00121126
0.00120111
-0.00238011
-3.74017e-05
0.000500983
-0.000123257
0.00109904
-0.000237406
0.00141658
-0.000365783
0.00155745
-0.00049971
0.00159995
-0.0006345
0.00159485
-0.000767982
0.00157059
-0.000899352
0.00154089
-0.00102844
0.0015114
-0.00115532
0.001484
-0.00128015
0.00145903
-0.00140306
0.00143635
-0.0015242
0.00141572
-0.00164366
0.00139689
-0.00176153
0.00137964
-0.00187788
0.0013638
-0.00199278
0.00134925
-0.00210628
0.00133585
-0.00221844
0.00132342
0.00131193
-0.00232926
-3.48976e-05
0.000535881
-0.000116354
0.0011805
-0.000225879
0.00152611
-0.000350069
0.00168164
-0.000480361
0.00173024
-0.000611969
0.00172646
-0.00074259
0.00170121
-0.000871316
0.00166961
-0.000997916
0.001638
-0.00112243
0.00160851
-0.00124499
0.00158158
-0.00136571
0.00155708
-0.00148471
0.00153472
-0.00160207
0.00151425
-0.00171786
0.00149543
-0.00183212
0.00147806
-0.00194488
0.00146201
-0.00205619
0.00144716
-0.00216605
0.00143328
0.00142033
-0.00227444
-3.21868e-05
0.000568068
-0.000108843
0.00125715
-0.000213299
0.00163057
-0.000332888
0.00180123
-0.00045919
0.00185654
-0.000587317
0.00185459
-0.000714822
0.00182871
-0.000840687
0.00179548
-0.000964612
0.00176193
-0.0010866
0.0017305
-0.00120675
0.00170173
-0.00132517
0.0016755
-0.00144195
0.00165151
-0.00155716
0.00162946
-0.00167083
0.0016091
-0.00178298
0.0015902
-0.0018936
0.00157263
-0.00200268
0.00155624
-0.0021102
0.0015408
0.00152623
-0.0022161
-2.9275e-05
0.000597343
-0.000100729
0.00132861
-0.000199661
0.0017295
-0.000314223
0.00191579
-0.000436165
0.00197848
-0.000560502
0.00197892
-0.000684632
0.00195284
-0.000807414
0.00191826
-0.000928474
0.00188299
-0.00104777
0.0018498
-0.00116539
0.00181934
-0.00128141
0.00179152
-0.00139592
0.00176602
-0.00150896
0.0017425
-0.00162054
0.00172067
-0.00173063
0.00170029
-0.00183918
0.00168118
-0.00194612
0.00166319
-0.00205138
0.00164606
0.00162964
-0.00215479
-2.61691e-05
0.000623512
-9.20193e-05
0.00139446
-0.000184961
0.00182244
-0.000294052
0.00202488
-0.00041125
0.00209568
-0.000531473
0.00209915
-0.000651955
0.00207332
-0.000771423
0.00203773
-0.000889421
0.00200098
-0.00100587
0.00196625
-0.00112083
0.0019343
-0.00123437
0.00190507
-0.00134658
0.00187822
-0.00145746
0.00185339
-0.00156702
0.00183023
-0.00167519
0.00180846
-0.00178187
0.00178786
-0.00188691
0.00176823
-0.00199011
0.00174926
0.00173072
-0.0020912
-2.28776e-05
0.00064639
-8.27229e-05
0.0014543
-0.000169198
0.00190891
-0.000272358
0.00212804
-0.000384406
0.00220773
-0.000500171
0.00221491
-0.000616716
0.00218987
-0.000732622
0.00215363
-0.000847346
0.00211571
-0.000960764
0.00207966
-0.00107292
0.00204645
-0.00118389
0.00201604
-0.00129375
0.00198808
-0.00140254
0.00196217
-0.00151022
0.00193791
-0.00161672
0.00191497
-0.00172191
0.00189305
-0.00182554
0.00187185
-0.0019272
0.00185092
0.00182985
-0.00202633
-1.94117e-05
0.000665801
-7.28546e-05
0.00150775
-0.000152377
0.00198844
-0.000249125
0.00222479
-0.000355594
0.0023142
-0.000466535
0.00232585
-0.000578828
0.00230216
-0.000690898
0.00226571
-0.000802104
0.00222691
-0.000912277
0.00218984
-0.00102145
0.00215563
-0.00112972
0.00212431
-0.00123718
0.00209554
-0.00134388
0.00206888
-0.00144984
0.00204387
-0.00155498
0.0020201
-0.00165915
0.00199722
-0.00176209
0.00197479
-0.00186313
0.00195197
0.00192793
-0.00196122
-1.57854e-05
0.000681587
-6.24358e-05
0.0015544
-0.00013451
0.00206051
-0.000224345
0.00231463
-0.000324782
0.00241463
-0.000430506
0.00243158
-0.000538206
0.00240986
-0.000646138
0.00237364
-0.000753552
0.00233433
-0.000860232
0.00229652
-0.000966209
0.0022616
-0.0010716
0.00222971
-0.00117656
0.0022005
-0.0012812
0.00217352
-0.00138562
0.00214829
-0.00148982
0.00212431
-0.00159379
0.00210119
-0.00169747
0.00207847
-0.00180017
0.00205466
0.00202634
-0.00189858
-1.2017e-05
0.000693604
-5.14972e-05
0.00159388
-0.000115624
0.00212464
-0.000198026
0.00239703
-0.00029195
0.00250856
-0.000392033
0.00253166
-0.000494766
0.00251259
-0.000598213
0.00247708
-0.000701495
0.00243761
-0.00080433
0.00239935
-0.000906726
0.002364
-0.00100882
0.0023318
-0.00111079
0.00230247
-0.00121285
0.00227559
-0.00131525
0.00225068
-0.00141817
0.00222724
-0.0015217
0.00220472
-0.00162604
0.00218282
-0.00173191
0.00216053
0.00213091
-0.00183648
-8.12832e-06
0.000701732
-4.00806e-05
0.00162583
-9.57591e-05
0.00218031
-0.000170192
0.00247146
-0.000257098
0.00259546
-0.00035109
0.00262565
-0.000448453
0.00260996
-0.000547042
0.00257567
-0.000645827
0.0025364
-0.000744451
0.00249798
-0.000842916
0.00246246
-0.000941413
0.00243029
-0.00104026
0.00240131
-0.00113991
0.00237523
-0.00124098
0.00235175
-0.00134429
0.00233055
-0.00145071
0.00231114
-0.00156064
0.00229275
-0.00167504
0.00227493
0.00226892
-0.00181305
-4.15846e-06
0.00070589
-2.826e-05
0.00164993
-7.50017e-05
0.00222706
-0.000140919
0.00253738
-0.00022028
0.00267482
-0.000307706
0.00271308
-0.000399271
0.00270152
-0.000492595
0.002669
-0.000586468
0.00263027
-0.000680418
0.00259193
-0.000774377
0.00255642
-0.000868488
0.0025244
-0.000962996
0.00249582
-0.00105819
0.00247042
-0.00115433
0.0024479
-0.00125164
0.00242785