/*--------------------------------*- C++ -*----------------------------------*\
  =========                 |
  \\      /  F ield         | OpenFOAM: The Open Source CFD Toolbox
   \\    /   O peration     | Website:  https://openfoam.org
    \\  /    A nd           | Version:  6.0
     \\/     M anipulation  |
\*---------------------------------------------------------------------------*/
FoamFile
{
    version     2.0;
    format      ascii;
    class       volVectorField;
    location    "40";
    object      U;
}
// * * * * * * * * * * * * * * * * * * * * * * * * * * * * * * * * * * * * * //

dimensions      [0 1 -1 0 0 0 0];

internalField   nonuniform List<vector> 
4000
(
(0.0907877 0.00717955 5.52555e-20)
(0.290668 0.0378174 -3.00014e-20)
(0.495769 0.0911305 3.52833e-20)
(0.689726 0.15255 -2.62339e-20)
(0.859017 0.212369 -1.17394e-20)
(0.995968 0.26453 3.55003e-21)
(1.09907 0.305864 -1.14985e-20)
(1.1714 0.33575 4.13117e-20)
(1.21847 0.355293 -3.43388e-20)
(1.24644 0.366425 8.0481e-21)
(1.26092 0.371245 -5.99989e-21)
(1.26651 0.371632 -3.88723e-20)
(1.2666 0.36909 3.7646e-20)
(1.26357 0.364722 1.4276e-20)
(1.25896 0.359289 -1.42015e-20)
(1.25376 0.353293 3.32424e-20)
(1.24857 0.347033 -5.16035e-22)
(1.24378 0.340718 -3.21149e-20)
(1.23961 0.334751 2.3754e-20)
(1.23631 0.329092 7.43067e-21)
(0.104553 0.0118815 -1.93604e-20)
(0.324543 0.0524291 5.61481e-20)
(0.541729 0.114665 6.47885e-20)
(0.739869 0.182264 -3.05135e-20)
(0.906605 0.244926 5.30909e-20)
(1.0364 0.296968 8.38386e-20)
(1.13011 0.336106 -4.59979e-21)
(1.19279 0.362693 -1.42988e-20)
(1.23121 0.378626 7.074e-20)
(1.25215 0.386354 3.44133e-20)
(1.26132 0.388236 -6.18892e-21)
(1.26314 0.386227 5.10745e-20)
(1.26068 0.381791 -5.45368e-20)
(1.256 0.375947 8.48417e-20)
(1.25037 0.369363 -1.41296e-20)
(1.24457 0.362457 4.02458e-20)
(1.23905 0.355463 7.16861e-21)
(1.23411 0.348557 2.86433e-20)
(1.22989 0.342135 -2.72819e-20)
(1.22659 0.336023 6.49992e-21)
(0.118578 0.0176562 -3.01181e-20)
(0.357922 0.0693921 7.17078e-20)
(0.585516 0.140793 5.31936e-20)
(0.785857 0.214058 -8.03059e-21)
(0.948379 0.278697 8.25392e-20)
(1.07006 0.329752 -6.14467e-20)
(1.15422 0.366042 -4.6887e-21)
(1.20771 0.38896 5.41794e-20)
(1.23833 0.401161 1.72135e-20)
(1.25322 0.405532 2.39471e-20)
(1.25804 0.404611 -3.52785e-20)
(1.2569 0.400364 9.16072e-20)
(1.25254 0.394181 1.69644e-20)
(1.2467 0.386976 -8.078e-20)
(1.24041 0.379321 1.17427e-19)
(1.23425 0.371554 -1.38223e-19)
(1.22859 0.363854 -6.30777e-20)
(1.22362 0.356373 1.05441e-20)
(1.21943 0.3495 6.1109e-20)
(1.21619 0.342924 -1.14659e-19)
(0.132634 0.0245181 -6.80369e-20)
(0.390223 0.0886069 -1.60325e-19)
(0.6264 0.169236 -1.38432e-19)
(0.827055 0.24753 -1.88263e-19)
(0.983987 0.313256 -1.0657e-19)
(1.09696 0.362527 -2.20669e-19)
(1.17171 0.39543 2.80346e-20)
(1.21667 0.414421 -1.16572e-19)
(1.24041 0.42285 -1.27471e-20)
(1.25021 0.423957 1.91117e-20)
(1.25155 0.420383 -4.18128e-20)
(1.24817 0.41405 5.19391e-20)
(1.24247 0.406245 9.22346e-20)
(1.23587 0.397772 -1.29739e-19)
(1.22918 0.389106 2.06021e-20)
(1.22287 0.380514 5.96494e-20)
(1.2172 0.372127 9.957e-20)
(1.21231 0.364081 -8.58886e-20)
(1.20823 0.356754 -4.09145e-21)
(1.20512 0.349704 1.0015e-19)
(0.146481 0.0324523 -1.28374e-19)
(0.42088 0.109908 3.51581e-19)
(0.663728 0.199656 -6.20214e-20)
(0.862964 0.282246 8.19639e-20)
(1.01323 0.348184 -8.01877e-20)
(1.11723 0.39496 2.45833e-19)
(1.18295 0.424049 -3.89102e-20)
(1.22017 0.438951 2.32057e-20)
(1.23797 0.443636 -1.15142e-20)
(1.24361 0.441605 3.77365e-20)
(1.24225 0.435531 2.43211e-20)
(1.23725 0.427254 3.04326e-20)
(1.23065 0.417938 -8.66663e-20)
(1.22362 0.408271 1.26303e-19)
(1.21678 0.398641 -9.58372e-20)
(1.21047 0.389251 1.7907e-20)
(1.20491 0.38019 -6.10512e-20)
(1.20017 0.371584 1.28602e-20)
(1.19626 0.363802 1.44228e-20)
(1.19335 0.356269 -1.35435e-19)
(0.159873 0.0414134 9.37628e-21)
(0.449363 0.133069 -1.77092e-19)
(0.696944 0.231662 9.76718e-20)
(0.893225 0.317752 -3.40546e-19)
(1.03605 0.383067 1.64729e-19)
(1.13107 0.426736 -2.81993e-19)
(1.18834 0.451692 -2.19583e-19)
(1.21869 0.462433 -8.35629e-21)
(1.2315 0.463452 -7.41393e-20)
(1.23382 0.458429 -2.29709e-19)
(1.23045 0.45001 -2.84897e-20)
(1.22435 0.439917 -2.18522e-19)
(1.21725 0.429184 3.96822e-20)
(1.21005 0.418388 -3.11904e-20)
(1.20324 0.407832 1.82313e-20)
(1.19708 0.397663 -1.44229e-19)
(1.19172 0.387938 7.99368e-21)
(1.18723 0.378779 2.9045e-20)
(1.18355 0.37054 -6.60293e-20)
(1.18088 0.362523 5.77228e-20)
(0.17257 0.0513261 -7.28551e-20)
(0.475188 0.157809 3.24019e-19)
(0.725595 0.264826 2.27206e-21)
(0.917602 0.353585 -2.80101e-19)
(1.0525 0.417503 2.11022e-19)
(1.13877 0.457559 8.83941e-20)
(1.18829 0.478166 1.7994e-20)
(1.21268 0.484744 -1.48095e-19)
(1.22138 0.482217 2.40426e-19)
(1.22116 0.474361 -1.39868e-19)
(1.21639 0.463746 5.09965e-20)
(1.20966 0.451956 2.34902e-19)
(1.20236 0.439891 -2.10116e-19)
(1.19523 0.428018 2.3014e-19)
(1.18862 0.416568 -1.4907e-19)
(1.18272 0.40564 -2.92838e-20)
(1.17765 0.395263 3.51068e-20)
(1.17347 0.385559 4.37429e-20)
(1.17009 0.376862 5.99234e-20)
(1.16774 0.368365 3.62019e-20)
(0.18434 0.062086 2.9113e-20)
(0.497932 0.1838 -2.91568e-19)
(0.749333 0.298687 5.17567e-20)
(0.935981 0.38928 6.75313e-19)
(1.0627 0.451107 -6.23626e-20)
(1.14065 0.487149 1.86185e-19)
(1.18321 0.503282 1.15839e-19)
(1.20254 0.505757 1.93942e-20)
(1.20798 0.499833 -1.33079e-19)
(1.20591 0.489311 2.17856e-19)
(1.20028 0.476644 -2.47828e-20)
(1.19329 0.463267 3.26441e-19)
(1.18608 0.449944 1.24567e-19)
(1.17921 0.437045 7.73039e-20)
(1.17294 0.424733 -1.60984e-19)
(1.1674 0.413064 3.39049e-20)
(1.16272 0.40205 1.23837e-19)
(1.15891 0.39181 3.1231e-20)
(1.15589 0.382661 -1.48449e-19)
(1.15392 0.373696 -3.68076e-20)
(0.19497 0.073562 -1.62245e-19)
(0.517242 0.210676 5.22523e-19)
(0.767916 0.332773 -2.84312e-19)
(0.94835 0.424381 -2.61135e-19)
(1.06686 0.483509 -2.26842e-19)
(1.13705 0.515239 -1.90553e-19)
(1.1735 0.526855 -2.33742e-19)
(1.18865 0.525341 2.91638e-19)
(1.1916 0.51619 -2.06587e-19)
(1.18831 0.503171 -1.64339e-20)
(1.18226 0.488592 -1.96997e-21)
(1.17535 0.47373 -3.90226e-20)
(1.16848 0.459221 -9.92398e-20)
(1.16205 0.445343 -1.09349e-19)
(1.15624 0.4322 -5.83609e-21)
(1.15118 0.419814 -2.41479e-20)
(1.14695 0.408179 -5.81563e-20)
(1.14359 0.397418 -1.73303e-20)
(1.14099 0.387824 2.04326e-20)
(1.13947 0.378414 -1.21343e-19)
(0.204267 0.0855994 2.83953e-19)
(0.532839 0.238044 2.93211e-19)
(0.781206 0.366603 -1.81794e-19)
(0.954791 0.458443 1.1202e-19)
(1.06527 0.514361 1.92375e-19)
(1.12835 0.541577 -3.89694e-20)
(1.15954 0.548707 4.73297e-20)
(1.17135 0.543354 5.20721e-20)
(1.17252 0.531165 8.62598e-20)
(1.16854 0.51582 -1.00244e-19)
(1.1625 0.499463 4.91852e-20)
(1.15595 0.483213 -3.2564e-20)
(1.14962 0.467586 1.46895e-19)
(1.14379 0.452777 6.18754e-20)
(1.13857 0.438839 -1.43374e-19)
(1.13407 0.425761 7.74182e-20)
(1.13039 0.413527 3.87059e-20)
(1.12754 0.402263 -6.77673e-20)
(1.12541 0.392239 1.84706e-19)
(1.1244 0.382417 -1.34438e-19)
(0.212066 0.0980237 -2.08755e-19)
(0.544521 0.265493 -2.705e-19)
(0.789158 0.399699 1.88461e-19)
(0.955462 0.491041 -1.73995e-19)
(1.05821 0.543332 -1.65512e-20)
(1.11492 0.565924 -1.87597e-19)
(1.1417 0.568661 1.56497e-19)
(1.15094 0.559655 2.82285e-19)
(1.15097 0.544626 -3.92149e-19)
(1.14679 0.527125 2.02363e-20)
(1.14109 0.50912 1.48043e-20)
(1.13517 0.491577 -7.55236e-20)
(1.12958 0.474899 5.37397e-20)
(1.12449 0.45921 -2.14567e-20)
(1.11998 0.444515 1.38292e-19)
(1.11614 0.430777 -1.48894e-19)
(1.11307 0.417969 -4.85265e-20)
(1.11079 0.406222 1.29911e-19)
(1.10922 0.395786 -1.85779e-19)
(1.10879 0.385596 1.17424e-19)
(0.218233 0.110645 4.32621e-19)
(0.552166 0.292605 3.81395e-19)
(0.791815 0.431598 -6.426e-20)
(0.950589 0.521774 -8.02082e-21)
(1.04605 0.570115 -1.92275e-19)
(1.09713 0.588056 8.19749e-20)
(1.12032 0.586545 3.9305e-19)
(1.12772 0.574099 -3.43889e-19)
(1.12717 0.556436 2.12297e-19)
(1.12321 0.536948 -1.78363e-20)
(1.11816 0.517422 1.25914e-19)
(1.1131 0.498678 -3.37194e-20)
(1.10841 0.481018 7.35738e-20)
(1.1042 0.4645 9.06772e-20)
(1.10053 0.44909 -5.36786e-20)
(1.09745 0.434725 5.91752e-20)
(1.09507 0.421372 -7.71258e-20)
(1.09343 0.409163 1.99417e-19)
(1.09247 0.398333 -1.17991e-19)
(1.09269 0.387823 8.41401e-20)
(0.222668 0.123261 -2.09334e-19)
(0.555726 0.318961 -3.9037e-19)
(0.789302 0.461852 -2.6927e-19)
(0.940453 0.550265 -1.82302e-20)
(1.02913 0.594428 6.32078e-20)
(1.07537 0.607763 -3.47613e-20)
(1.09573 0.602198 -2.23482e-19)
(1.10195 0.586543 -9.52105e-20)
(1.10133 0.566457 -1.69718e-19)
(1.09795 0.54515 -7.64868e-20)
(1.09382 0.524227 3.90824e-20)
(1.0898 0.504372 -1.84608e-19)
(1.08618 0.485797 -3.86062e-20)
(1.083 0.468505 -3.57741e-20)
(1.08027 0.452424 -1.17476e-19)
(1.07805 0.43747 5.14638e-20)
(1.07643 0.4236 5.41713e-21)
(1.0755 0.410946 4.20638e-20)
(1.07524 0.399731 -1.78858e-20)
(1.07618 0.38895 -4.97251e-20)
(0.225304 0.135666 4.83712e-19)
(0.555224 0.344154 4.21078e-19)
(0.78181 0.490045 5.15511e-19)
(0.92538 0.576171 -5.37381e-20)
(1.00786 0.616013 -1.79794e-19)
(1.05 0.624855 5.39041e-19)
(1.06826 0.615464 -2.5998e-19)
(1.07389 0.596849 2.82934e-19)
(1.07363 0.574556 -4.9655e-20)
(1.07114 0.551596 1.65863e-19)
(1.06815 0.529397 1.9261e-20)
(1.06536 0.508519 6.84688e-20)
(1.06295 0.489096 -1.45846e-20)
(1.06094 0.471084 6.18133e-20)
(1.05928 0.454378 -3.85401e-20)
(1.05801 0.438874 8.93528e-21)
(1.05724 0.424516 2.03123e-20)
(1.05709 0.411427 2.5829e-20)
(1.05759 0.399832 1.36539e-21)
(1.05929 0.388832 2.79867e-21)
(0.22611 0.147652 -1.47698e-19)
(0.550753 0.367794 -4.10508e-19)
(0.769594 0.515787 -2.48928e-19)
(0.905735 0.59918 -4.30561e-19)
(0.982615 0.634639 4.54831e-19)
(1.0214 0.639157 -3.08553e-19)
(1.03823 0.626202 1.91062e-19)
(1.04378 0.604888 -6.95525e-20)
(1.04427 0.580605 -7.40435e-20)
(1.04293 0.556158 -5.06897e-20)
(1.04127 0.532803 2.71206e-20)
(1.03985 0.510987 2.33648e-20)
(1.03879 0.49078 7.68135e-21)
(1.03806 0.472097 -2.31686e-20)
(1.0376 0.454811 -4.7844e-22)
(1.0374 0.438795 5.34143e-21)
(1.03758 0.423976 -1.66223e-20)
(1.03827 0.410461 2.39585e-20)
(1.03959 0.398493 9.07634e-21)
(1.04208 0.387351 2.46235e-20)
(0.22509 0.159012 6.40309e-19)
(0.542465 0.389514 2.97855e-19)
(0.752959 0.538728 2.78939e-19)
(0.881912 0.619017 -1.61582e-19)
(0.953818 0.650103 1.76889e-20)
(0.989933 0.650517 2.2279e-19)
(1.00593 0.634286 2.51089e-20)
(1.01186 0.610544 4.37525e-20)
(1.01341 0.584493 4.3101e-20)
(1.01345 0.558723 -7.58173e-21)
(1.01327 0.53433 6.09729e-21)
(1.01334 0.51166 -1.16586e-20)
(1.01374 0.490727 -1.47271e-20)
(1.01442 0.471417 1.35366e-20)
(1.01528 0.453583 5.44686e-21)
(1.01629 0.437082 4.61013e-21)
(1.01752 0.421823 -8.61331e-21)
(1.01913 0.407883 -1.74776e-21)
(1.02132 0.395545 4.57954e-20)
(1.02466 0.384357 -4.45799e-20)
(0.222283 0.169549 -4.5022e-19)
(0.53057 0.408979 -3.86912e-19)
(0.732257 0.558555 1.79168e-19)
(0.854329 0.635441 -2.14355e-19)
(0.921881 0.662234 -1.77191e-20)
(0.955974 0.658806 1.61316e-20)
(0.971678 0.639608 -2.92229e-20)
(0.978375 0.613719 -3.02922e-20)
(0.981246 0.586124 -3.28378e-20)
(0.982839 0.559198 -2.31919e-20)
(0.984257 0.533887 -3.00667e-20)
(0.985896 0.510446 3.93712e-20)
(0.987835 0.488841 -3.92977e-21)
(0.990014 0.468937 1.10363e-20)
(0.992327 0.450574 4.28162e-21)
(0.994692 0.433602 -6.69562e-20)
(0.99712 0.417905 -5.69978e-20)
(0.999767 0.403507 -6.10991e-20)
(1.00296 0.390719 -1.40523e-21)
(1.0074 0.379493 9.38922e-20)
(0.217758 0.17908 4.04732e-19)
(0.515322 0.425888 2.02375e-20)
(0.707876 0.574998 -4.30083e-20)
(0.823423 0.648253 4.8791e-20)
(0.887223 0.670888 1.2686e-19)
(0.919886 0.663918 -1.00373e-19)
(0.935762 0.642079 1.12904e-20)
(0.943558 0.614332 -3.01652e-20)
(0.947965 0.585421 -2.33585e-20)
(0.951235 0.557512 3.31696e-21)
(0.954327 0.531405 -5.43738e-20)
(0.957589 0.507274 -4.51005e-20)
(0.961103 0.485045 5.01224e-20)
(0.96484 0.464565 -1.79441e-20)
(0.968711 0.445672 -1.9454e-19)
(0.972596 0.428223 1.91588e-19)
(0.976416 0.412083 -1.13432e-19)
(0.980333 0.397146 -7.15835e-20)
(0.98491 0.383643 9.15612e-20)
(0.990917 0.372145 -1.12712e-19)
(0.211614 0.187434 -8.65543e-20)
(0.497022 0.439976 9.41408e-20)
(0.680232 0.58783 4.37195e-20)
(0.789645 0.657289 -6.40607e-20)
(0.850266 0.675953 1.84629e-20)
(0.882035 0.665769 -3.34855e-20)
(0.898489 0.641634 -1.54608e-20)
(0.907655 0.612326 2.00962e-20)
(0.913761 0.582338 5.55027e-22)
(0.918795 0.553626 -1.15663e-19)
(0.923593 0.526854 3.10108e-20)
(0.92847 0.502116 1.02494e-20)
(0.933529 0.479292 1.37591e-19)
(0.938795 0.458211 -3.48071e-19)
(0.944235 0.43871 3.24195e-19)
(0.949728 0.420677 1.71841e-19)
(0.955143 0.40397 -3.37906e-20)
(0.960719 0.388279 2.8326e-20)
(0.967307 0.373617 3.08692e-19)
(0.975189 0.361504 -1.28885e-19)
(0.203976 0.194459 -2.3558e-20)
(0.476001 0.451021 5.45994e-20)
(0.649764 0.596864 -4.60497e-20)
(0.753453 0.662421 5.93091e-20)
(0.811439 0.677345 -3.8837e-20)
(0.84279 0.664303 3.87321e-20)
(0.860169 0.638228 2.95815e-20)
(0.870925 0.607671 -7.94572e-20)
(0.878851 0.576859 7.94169e-20)
(0.885697 0.547549 5.49966e-20)
(0.892192 0.520274 2.70851e-20)
(0.898621 0.495044 4.75097e-21)
(0.905102 0.471683 1.09491e-19)
(0.91171 0.449967 -1.09967e-19)
(0.91848 0.429695 1.31365e-19)
(0.925345 0.410737 -2.75592e-19)
(0.93222 0.392906 3.0761e-19)
(0.939531 0.375592 -2.64093e-19)
(0.948225 0.358548 -1.79263e-19)
(0.957215 0.345152 3.05056e-19)
(0.194994 0.200027 1.21068e-20)
(0.452618 0.458843 -2.29488e-20)
(0.616929 0.601961 -1.47659e-20)
(0.715314 0.663558 -5.20571e-20)
(0.771167 0.675009 1.6754e-20)
(0.802523 0.659482 4.59619e-21)
(0.82112 0.631837 -1.75391e-19)
(0.833643 0.600351 1.16946e-19)
(0.84348 0.568988 1.15722e-19)
(0.852169 0.539318 -1.6095e-19)
(0.860343 0.511759 1.87519e-19)
(0.868246 0.486253 -7.19919e-20)
(0.875986 0.46257 1.40458e-19)
(0.883639 0.440424 -2.24646e-19)
(0.891252 0.419531 4.67194e-19)
(0.898789 0.399646 -1.06053e-19)
(0.906272 0.380372 -2.93233e-20)
(0.914356 0.360494 3.06509e-19)
(0.923817 0.338123 -1.49372e-19)
(0.929827 0.315695 6.51856e-20)
(0.184832 0.204029 -7.00538e-20)
(0.427253 0.4633 9.51944e-20)
(0.58219 0.60302 -3.37291e-20)
(0.675694 0.660644 5.40005e-20)
(0.729876 0.668915 -2.62125e-20)
(0.761604 0.651289 -1.71323e-19)
(0.781665 0.622445 2.63223e-19)
(0.796099 0.590356 1.77899e-20)
(0.807921 0.558722 -2.79985e-20)
(0.818484 0.528944 4.8829e-21)
(0.828341 0.501349 8.49821e-20)
(0.837704 0.475841 1.46263e-19)
(0.846654 0.452179 8.81146e-20)
(0.855227 0.430093 -2.09155e-19)
(0.86341 0.409335 -5.94883e-20)
(0.871141 0.389718 -1.11666e-20)
(0.878516 0.370983 3.87982e-20)
(0.88611 0.352462 4.99466e-21)
(0.893888 0.333457 4.46774e-19)
(0.897313 0.316042 -3.12065e-19)
(0.173669 0.206378 1.76206e-19)
(0.400295 0.46429 -3.12093e-20)
(0.546017 0.599977 -1.18327e-19)
(0.635056 0.653653 3.92378e-19)
(0.687986 0.659057 7.30227e-20)
(0.720402 0.639723 -2.31403e-19)
(0.742127 0.610054 2.15805e-19)
(0.758583 0.577683 -4.8142e-20)
(0.772446 0.546055 1.90893e-19)
(0.784912 0.516413 8.66566e-20)
(0.796475 0.489006 -4.21844e-19)
(0.807333 0.463704 -4.92584e-20)
(0.817572 0.440259 5.86488e-19)
(0.827226 0.418407 -7.17754e-19)
(0.836274 0.397911 6.6397e-19)
(0.844649 0.378577 2.29745e-19)
(0.852409 0.360137 -8.18209e-19)
(0.859944 0.342031 3.94808e-19)
(0.867089 0.323955 -8.15159e-20)
(0.870432 0.308234 9.48812e-20)
(0.161696 0.207008 -3.108e-19)
(0.372143 0.461753 -3.19799e-19)
(0.508875 0.592812 2.18701e-19)
(0.593856 0.642592 -2.72577e-19)
(0.64591 0.645455 -7.41504e-19)
(0.67928 0.624805 -2.33622e-20)
(0.702827 0.594676 -2.19573e-19)
(0.721386 0.562341 1.18874e-20)
(0.737327 0.530992 -4.28588e-19)
(0.75171 0.501732 -4.36127e-19)
(0.764983 0.474746 -2.95702e-19)
(0.777338 0.44988 -1.21413e-20)
(0.788869 0.426892 -7.33719e-19)
(0.799623 0.405533 -5.0368e-21)
(0.809602 0.385596 3.57573e-19)
(0.818776 0.366921 -3.55891e-19)
(0.827214 0.349299 -2.7392e-19)
(0.835237 0.332304 2.63664e-19)
(0.84267 0.315757 -1.89347e-19)
(0.846719 0.301501 3.65178e-20)
(0.14911 0.205879 2.45846e-19)
(0.343198 0.455666 1.91078e-19)
(0.471226 0.581537 -6.53596e-21)
(0.552542 0.627499 -1.5335e-19)
(0.604047 0.628152 3.78589e-19)
(0.638589 0.606573 6.04959e-19)
(0.664078 0.576339 -6.24006e-20)
(0.684794 0.544346 1.20842e-20)
(0.702835 0.513538 1.19013e-19)
(0.719147 0.484889 2.68665e-19)
(0.734147 0.45853 3.88787e-19)
(0.74803 0.434293 -3.13922e-19)
(0.760903 0.411938 3.11119e-19)
(0.772831 0.391231 -1.06146e-19)
(0.783839 0.371976 3.6207e-19)
(0.793923 0.354023 -1.40787e-19)
(0.803184 0.337186 -3.49041e-19)
(0.811943 0.321131 2.10654e-19)
(0.820054 0.305791 -2.99776e-19)
(0.825078 0.292719 -3.41221e-19)
(0.136112 0.202972 1.06591e-19)
(0.313855 0.446042 1.95473e-19)
(0.433518 0.566204 -2.05984e-19)
(0.511543 0.608441 1.01364e-20)
(0.562787 0.607216 3.53815e-20)
(0.598671 0.585084 2.84617e-19)
(0.626181 0.55509 -4.21625e-19)
(0.64908 0.52373 4.01067e-19)
(0.66922 0.493711 -3.8167e-20)
(0.687454 0.465889 1.09883e-19)
(0.704179 0.44035 1.76637e-19)
(0.7196 0.416916 -3.36677e-19)
(0.733845 0.395354 1.61908e-19)
(0.747002 0.375441 1.53647e-19)
(0.75912 0.356995 5.66261e-20)
(0.770228 0.339876 -2.9056e-19)
(0.780451 0.32391 9.78873e-19)
(0.790107 0.308812 -5.47508e-19)
(0.799045 0.294549 9.95913e-19)
(0.805102 0.282405 -6.45576e-20)
(0.122902 0.198289 7.64522e-20)
(0.284501 0.432931 4.59204e-19)
(0.396187 0.546897 1.62401e-19)
(0.471276 0.585516 3.40734e-19)
(0.522499 0.58274 8.835e-20)
(0.559853 0.560419 -5.43242e-19)
(0.589427 0.530992 8.42059e-19)
(0.614506 0.500542 4.35808e-19)
(0.636723 0.471546 1.81974e-20)
(0.656856 0.444753 5.64959e-19)
(0.675291 0.420209 9.08615e-20)
(0.692244 0.397733 5.92685e-20)
(0.707868 0.377095 3.38218e-19)
(0.722272 0.358086 -1.26273e-19)
(0.735534 0.340531 -1.3371e-19)
(0.747709 0.324294 7.88703e-19)
(0.75895 0.309212 -6.59631e-19)
(0.769563 0.295037 2.55868e-20)
(0.77939 0.281753 8.3496e-19)
(0.786507 0.270415 -7.84102e-22)
(0.109677 0.191853 -9.83039e-19)
(0.255513 0.416416 -1.67505e-19)
(0.35965 0.523734 -2.25486e-19)
(0.432135 0.55885 -1.71869e-19)
(0.483537 0.554842 -4.34955e-19)
(0.522443 0.53268 1.48949e-19)
(0.554089 0.50413 -2.08182e-19)
(0.581317 0.474851 5.96086e-20)
(0.605569 0.447097 -3.01314e-19)
(0.62756 0.421518 -2.85932e-19)
(0.647669 0.398132 5.88068e-20)
(0.666133 0.376753 -4.62372e-19)
(0.683123 0.357161 3.68829e-19)
(0.698774 0.339153 -1.33247e-19)
(0.713187 0.322566 4.18766e-19)
(0.726443 0.307265 -9.03528e-19)
(0.738712 0.293096 -1.71425e-19)
(0.750286 0.279839 -3.24353e-19)
(0.761004 0.267481 -8.72128e-19)
(0.76917 0.256878 -1.40533e-19)
(0.0966319 0.183706 1.60558e-19)
(0.22725 0.396611 -1.93772e-20)
(0.324304 0.496863 -2.4661e-19)
(0.394496 0.528597 8.70274e-20)
(0.446234 0.523664 -1.75981e-19)
(0.486735 0.50199 -2.3547e-21)
(0.520427 0.474607 2.40044e-19)
(0.549747 0.446744 -3.58081e-19)
(0.575968 0.420435 1.40013e-19)
(0.599754 0.396246 -8.09123e-20)
(0.621486 0.374165 2.17747e-20)
(0.641416 0.354011 -4.01093e-19)
(0.659739 0.335571 -4.88433e-19)
(0.676611 0.318653 -1.84755e-20)
(0.692154 0.303101 5.44646e-19)
(0.706474 0.288784 2.56256e-20)
(0.71975 0.275555 6.90079e-19)
(0.732258 0.263222 -1.00572e-18)
(0.743844 0.251769 5.35527e-19)
(0.753033 0.241877 9.22703e-19)
(0.0839508 0.173909 -1.39277e-19)
(0.200054 0.373661 7.48346e-20)
(0.290522 0.466464 4.867e-19)
(0.358708 0.494936 1.20076e-19)
(0.410901 0.489371 -1.6215e-19)
(0.453002 0.468494 1.27878e-19)
(0.488683 0.442552 5.03713e-19)
(0.520012 0.416329 -4.086e-19)
(0.548116 0.391656 3.80082e-20)
(0.573618 0.369015 -1.49273e-19)
(0.596901 0.348378 5.40182e-19)
(0.618236 0.329566 3.86118e-19)
(0.637839 0.312377 -5.59576e-20)
(0.655886 0.296631 -5.87037e-19)
(0.672518 0.282178 3.09606e-20)
(0.687861 0.268893 -7.25764e-20)
(0.702102 0.256641 3.45536e-19)
(0.715498 0.24525 5.62661e-19)
(0.727911 0.234698 4.91974e-19)
(0.738083 0.225516 -8.21793e-19)
(0.0718107 0.162541 -8.69695e-20)
(0.174247 0.347739 3.71309e-19)
(0.258653 0.432744 -3.62323e-19)
(0.3251 0.458074 5.03473e-19)
(0.37783 0.452152 -2.74116e-19)
(0.421499 0.43236 1.96317e-19)
(0.459082 0.408109 4.99324e-19)
(0.492315 0.383737 -6.00438e-19)
(0.522195 0.360872 2.73648e-19)
(0.549313 0.339928 3.46749e-19)
(0.57406 0.32086 -4.71665e-19)
(0.596723 0.303498 -3.37473e-20)
(0.617536 0.287651 -3.79219e-19)
(0.636695 0.273153 6.0803e-19)
(0.654358 0.259861 -3.30174e-19)
(0.670667 0.247659 3.54768e-19)
(0.685814 0.23642 -6.43993e-20)
(0.70004 0.225996 2.19473e-19)
(0.713229 0.216355 5.00179e-20)
(0.724334 0.207902 -1.28303e-19)
(0.0603776 0.149698 -2.66193e-19)
(0.150129 0.319043 -6.13214e-19)
(0.22902 0.395936 1.61422e-19)
(0.29397 0.418241 -5.17794e-19)
(0.347286 0.412217 -4.90474e-19)
(0.392461 0.393774 -3.52663e-19)
(0.431832 0.371443 2.74992e-19)
(0.46684 0.349113 2.11615e-19)
(0.498371 0.328217 -1.54305e-21)
(0.526992 0.309103 -1.84784e-19)
(0.553098 0.291721 -3.33326e-19)
(0.576996 0.275908 3.00898e-19)
(0.598935 0.261489 -1.03601e-19)
(0.619129 0.248309 -5.13482e-19)
(0.637751 0.236238 3.34702e-19)
(0.654957 0.225166 -2.51464e-19)
(0.670941 0.214981 -1.02599e-19)
(0.685928 0.205551 -2.87217e-19)
(0.699836 0.196839 -2.60504e-19)
(0.711814 0.189143 6.73587e-20)
(0.0498053 0.135491 2.32572e-19)
(0.127972 0.287798 1.20634e-19)
(0.201917 0.356296 1.84523e-19)
(0.265595 0.375687 -6.29192e-19)
(0.319511 0.369795 6.74174e-19)
(0.3661 0.352942 3.25698e-21)
(0.407122 0.33274 5.53542e-21)
(0.443757 0.312623 -4.11614e-19)
(0.476798 0.293839 3.8455e-19)
(0.506791 0.276679 -2.67539e-19)
(0.53414 0.261087 8.09854e-20)
(0.559166 0.246913 -3.59557e-19)
(0.582135 0.233998 -1.71246e-19)
(0.603274 0.222203 -8.19342e-20)
(0.622772 0.211408 6.17284e-19)
(0.640796 0.201514 -3.0317e-19)
(0.65754 0.192421 -2.738e-19)
(0.673216 0.184016 2.82071e-19)
(0.687777 0.176255 -2.31707e-19)
(0.700557 0.16935 1.80622e-19)
(0.0402338 0.120044 4.93446e-19)
(0.108025 0.254249 -2.97993e-19)
(0.177609 0.314105 4.46907e-20)
(0.240219 0.330683 5.22666e-19)
(0.294725 0.325135 2.07446e-19)
(0.342608 0.310086 2.57599e-19)
(0.385121 0.292197 2.56561e-19)
(0.423218 0.274448 5.44619e-19)
(0.457613 0.257904 -1.24957e-19)
(0.488836 0.242807 2.98413e-19)
(0.517298 0.229099 4.34097e-19)
(0.543334 0.216646 1.60066e-19)
(0.567226 0.205306 2.90179e-19)
(0.589212 0.194955 1.05408e-19)
(0.609494 0.185488 6.21628e-20)
(0.628248 0.176816 -4.50046e-20)
(0.645668 0.168853 3.61263e-19)
(0.661955 0.161501 2.23017e-19)
(0.6771 0.154715 -2.02652e-19)
(0.690604 0.148638 1.91193e-19)
(0.0317887 0.103497 -3.2751e-19)
(0.0905099 0.218662 3.70436e-20)
(0.156332 0.269662 -9.47099e-20)
(0.21806 0.28352 -2.87698e-19)
(0.273118 0.278502 -1.52675e-19)
(0.322154 0.265444 -2.77428e-19)
(0.36598 0.250031 1.28873e-19)
(0.405359 0.234783 -4.99437e-19)
(0.440938 0.220593 2.95059e-19)
(0.473236 0.207654 -4.08482e-19)
(0.502671 0.195913 -2.53937e-19)
(0.529591 0.185251 -3.36394e-19)
(0.554289 0.175548 7.70932e-20)
(0.577015 0.166695 -7.61266e-20)
(0.597981 0.158603 9.1263e-20)
(0.617373 0.151193 4.9186e-20)
(0.63538 0.144393 9.77866e-20)
(0.652196 0.138123 -8.17762e-19)
(0.66785 0.132335 4.07182e-19)
(0.681992 0.127122 -2.44146e-19)
(0.0245797 0.085997 1.08143e-19)
(0.0756168 0.181319 2.18504e-19)
(0.138288 0.223283 -1.42651e-19)
(0.199305 0.234502 3.52325e-19)
(0.254858 0.230173 -5.67289e-20)
(0.304884 0.219268 4.08444e-19)
(0.349829 0.206469 7.89372e-20)
(0.390296 0.193836 -8.30997e-20)
(0.426878 0.182095 3.02413e-19)
(0.460087 0.171396 2.31528e-19)
(0.490346 0.161693 8.5947e-20)
(0.518015 0.152885 1.13144e-19)
(0.543396 0.144872 5.68134e-20)
(0.566748 0.137564 -2.41268e-19)
(0.588293 0.130886 -3.36913e-20)
(0.608223 0.124774 2.52447e-19)
(0.626726 0.119168 -1.72575e-19)
(0.643987 0.114004 -7.90976e-21)
(0.660071 0.109236 -3.62181e-19)
(0.674757 0.104921 7.29902e-19)
(0.0186995 0.067705 2.89828e-19)
(0.0635075 0.14252 -3.48333e-19)
(0.123647 0.175299 1.6337e-19)
(0.184113 0.183947 -2.31425e-19)
(0.240083 0.180441 2.04122e-19)
(0.290921 0.171821 -3.54808e-19)
(0.336778 0.161749 -2.60092e-19)
(0.378128 0.151827 1.94988e-20)
(0.415524 0.142613 -3.55143e-19)
(0.44947 0.134222 -2.21882e-19)
(0.480398 0.126615 -3.84692e-19)
(0.508673 0.119712 -1.30319e-20)
(0.534607 0.113433 -1.49709e-19)
(0.558467 0.10771 3.78996e-19)
(0.580481 0.102481 2.61592e-19)
(0.600846 0.0976958 -8.778e-20)
(0.619748 0.0933093 -7.94137e-20)
(0.637368 0.0892715 -3.52101e-21)
(0.653802 0.0855433 9.79712e-21)
(0.668931 0.0821553 1.44085e-19)
(0.0142234 0.0487879 -7.24842e-20)
(0.0543122 0.102574 -2.48207e-19)
(0.112548 0.126055 -1.5487e-19)
(0.172609 0.132187 -9.69782e-20)
(0.228905 0.129606 -2.01152e-19)
(0.280365 0.123376 3.45058e-19)
(0.326914 0.116119 -3.68671e-20)
(0.368933 0.108981 -8.3173e-20)
(0.406947 0.102357 3.39887e-21)
(0.441452 0.0963274 2.44993e-19)
(0.472886 0.0908619 -2.32959e-19)
(0.50162 0.0859036 2.28109e-19)
(0.527973 0.0813952 1.07238e-19)
(0.552218 0.077286 -1.95634e-19)
(0.574586 0.0735327 4.27921e-20)
(0.59528 0.0700991 1.26117e-19)
(0.614485 0.0669523 4.40451e-20)
(0.632375 0.0640574 -3.04175e-20)
(0.649073 0.0613841 -2.65949e-19)
(0.66454 0.0589476 2.11847e-19)
(0.0112086 0.0294198 6.53593e-20)
(0.0481293 0.0618019 7.9402e-20)
(0.105093 0.0759032 2.23407e-20)
(0.16489 0.0795586 -1.68535e-20)
(0.22141 0.0779784 4.79658e-20)
(0.273288 0.0742116 7.34594e-20)
(0.320303 0.0698345 2.78635e-20)
(0.362773 0.0655331 3.40185e-20)
(0.401201 0.0615437 -7.26087e-20)
(0.436082 0.0579131 1.36047e-19)
(0.467855 0.0546228 -3.21864e-20)
(0.496898 0.0516384 -2.62294e-21)
(0.523532 0.0489252 3.27581e-20)
(0.548034 0.0464526 3.69586e-20)
(0.57064 0.0441945 -9.95226e-20)
(0.591555 0.0421291 6.54064e-20)
(0.610962 0.0402368 4.29674e-20)
(0.629034 0.0384966 3.67216e-20)
(0.64591 0.0368896 7.88908e-20)
(0.661604 0.0354221 3.26993e-20)
(0.00969322 0.00977941 -1.33836e-20)
(0.0450248 0.0205322 2.78206e-20)
(0.101353 0.0252047 -3.89538e-20)
(0.161019 0.0264073 2.44892e-20)
(0.217652 0.0258729 1.44035e-20)
(0.269742 0.0246147 6.46779e-21)
(0.316992 0.0231554 1.52589e-20)
(0.359687 0.0217226 -4.37781e-20)
(0.398322 0.0203942 2.79362e-20)
(0.433392 0.0191856 9.76096e-21)
(0.465335 0.0180904 -5.95659e-22)
(0.494533 0.0170973 6.02546e-20)
(0.521308 0.0161945 -1.82709e-20)
(0.54594 0.015372 -1.75316e-20)
(0.568666 0.014621 -1.68864e-20)
(0.589691 0.0139342 2.61553e-21)
(0.609199 0.0133051 -2.26362e-20)
(0.627362 0.0127268 4.31044e-21)
(0.644327 0.0121928 8.52568e-22)
(0.660136 0.0117048 -2.87743e-21)
(0.00969654 -0.00995184 8.50137e-21)
(0.0450317 -0.0209037 -4.52515e-20)
(0.101362 -0.0256761 5.39774e-20)
(0.161028 -0.0269184 -4.05852e-20)
(0.217661 -0.0263918 -1.89726e-20)
(0.269751 -0.0251267 5.68125e-20)
(0.317 -0.0236552 4.74496e-21)
(0.359696 -0.022209 1.33557e-21)
(0.39833 -0.0208674 2.66532e-20)
(0.433399 -0.0196464 1.38036e-20)
(0.465343 -0.0185397 -1.08808e-20)
(0.49454 -0.0175358 -3.82876e-20)
(0.521315 -0.0166229 3.61048e-21)
(0.545946 -0.0157909 -3.36645e-21)
(0.568672 -0.015031 3.58134e-20)
(0.589698 -0.0143357 -2.15725e-20)
(0.609205 -0.0136987 2.96377e-20)
(0.627368 -0.0131128 -4.44421e-20)
(0.644333 -0.0125716 5.19612e-23)
(0.660142 -0.0120767 -9.37381e-21)
(0.0112185 -0.0295916 -2.82408e-20)
(0.04815 -0.0621724 1.42511e-19)
(0.105119 -0.0763735 9.61015e-20)
(0.164917 -0.0800686 6.36486e-20)
(0.221437 -0.0784962 7.95474e-20)
(0.273315 -0.0747228 -1.9267e-20)
(0.320329 -0.0703335 8.82973e-20)
(0.362798 -0.0660188 1.81328e-20)
(0.401224 -0.0620163 -7.8463e-21)
(0.436105 -0.0583733 -6.314e-20)
(0.467877 -0.0550715 6.5606e-20)
(0.496919 -0.0520763 -8.91799e-20)
(0.523553 -0.049353 6.48752e-20)
(0.548054 -0.0468709 7.44134e-20)
(0.57066 -0.044604 9.85833e-20)
(0.591575 -0.0425302 -6.47156e-20)
(0.610981 -0.0406299 1.83672e-20)
(0.629052 -0.0388822 6.86161e-20)
(0.645928 -0.037268 -6.48921e-20)
(0.661622 -0.0357937 4.8969e-20)
(0.0142399 -0.0489585 -2.73063e-19)
(0.0543465 -0.102942 -1.37241e-19)
(0.11259 -0.126523 -1.52681e-19)
(0.172654 -0.132695 -1.20507e-20)
(0.228951 -0.130122 -8.24279e-20)
(0.280409 -0.123885 -1.01128e-19)
(0.326957 -0.116616 1.78852e-19)
(0.368975 -0.109465 9.12589e-20)
(0.406986 -0.102828 1.12626e-19)
(0.441491 -0.0967863 -1.22316e-19)
(0.472923 -0.0913094 9.07361e-20)
(0.501656 -0.0863404 1.1091e-19)
(0.528008 -0.0818219 3.91316e-20)
(0.552252 -0.0777033 -3.71951e-20)
(0.574619 -0.0739411 8.07036e-21)
(0.595313 -0.0704991 -1.60211e-20)
(0.614516 -0.0673444 -1.577e-19)
(0.632406 -0.064442 2.43703e-20)
(0.649104 -0.0617616 1.53471e-19)
(0.664569 -0.0593182 -2.06213e-19)
(0.0187224 -0.0678737 -8.99286e-20)
(0.0635552 -0.142885 1.33183e-19)
(0.123706 -0.175764 3.08676e-20)
(0.184176 -0.184452 -5.76502e-20)
(0.240146 -0.180954 -1.63122e-19)
(0.290983 -0.172328 -3.49787e-19)
(0.336838 -0.162244 -3.33208e-19)
(0.378185 -0.152308 -2.40741e-20)
(0.415579 -0.143082 -1.94171e-19)
(0.449524 -0.134679 -2.90629e-19)
(0.48045 -0.12706 2.25644e-19)
(0.508723 -0.120147 -3.32824e-19)
(0.534656 -0.113858 6.64487e-20)
(0.558515 -0.108125 -2.1127e-20)
(0.580527 -0.102887 -7.00352e-20)
(0.600891 -0.0980944 -8.86622e-20)
(0.619793 -0.0937 1.43711e-19)
(0.637411 -0.0896547 1.15003e-19)
(0.653844 -0.0859194 1.97853e-19)
(0.668972 -0.0825246 -2.96097e-19)
(0.0246088 -0.0861634 4.87647e-20)
(0.0756776 -0.18168 4.74092e-19)
(0.138363 -0.223743 1.35852e-19)
(0.199386 -0.235002 3.28577e-19)
(0.254939 -0.230682 -1.22834e-19)
(0.304963 -0.219771 1.89212e-19)
(0.349906 -0.20696 -5.96303e-20)
(0.390369 -0.194315 3.84271e-19)
(0.426949 -0.182561 -1.97862e-19)
(0.460155 -0.171851 2.33315e-19)
(0.490413 -0.162136 2.02707e-19)
(0.518079 -0.153317 2.17096e-19)
(0.543458 -0.145294 -1.94344e-19)
(0.566809 -0.137978 1.67025e-19)
(0.588353 -0.131291 -2.32209e-19)
(0.608281 -0.125171 -6.3954e-20)
(0.626782 -0.119557 -1.53339e-19)
(0.644042 -0.114385 -6.51759e-20)
(0.660126 -0.109611 2.58475e-19)
(0.674809 -0.105289 -4.28068e-19)
(0.0318239 -0.10366 -1.96347e-19)
(0.0905835 -0.219018 -2.27493e-20)
(0.156423 -0.270117 -7.82968e-20)
(0.218158 -0.284015 -2.75261e-19)
(0.273217 -0.279006 4.6755e-20)
(0.32225 -0.265943 -4.31487e-19)
(0.366073 -0.250519 -1.81627e-19)
(0.405448 -0.235258 -1.40801e-20)
(0.441024 -0.221055 -4.57259e-19)
(0.473319 -0.208105 -1.42185e-19)