/*--------------------------------*- C++ -*----------------------------------*\
  =========                 |
  \\      /  F ield         | OpenFOAM: The Open Source CFD Toolbox
   \\    /   O peration     | Website:  https://openfoam.org
    \\  /    A nd           | Version:  6.0
     \\/     M anipulation  |
\*---------------------------------------------------------------------------*/
FoamFile
{
    version     2.0;
    format      ascii;
    class       volVectorField;
    location    "59";
    object      U;
}
// * * * * * * * * * * * * * * * * * * * * * * * * * * * * * * * * * * * * * //

dimensions      [0 1 -1 0 0 0 0];

internalField   nonuniform List<vector> 
12500
(
(-0.000316096 -0.00574904 -8.01828e-22)
(-0.00202777 -0.017895 1.11379e-20)
(-0.0054369 -0.0300672 -1.61359e-20)
(-0.0097597 -0.0417493 7.3964e-21)
(-0.0145694 -0.0526349 4.37338e-22)
(-0.0195976 -0.0625962 -9.02638e-22)
(-0.0246251 -0.0716283 -1.33899e-20)
(-0.0294808 -0.079805 7.33801e-21)
(-0.0340352 -0.0872448 4.85223e-21)
(-0.0381924 -0.0940852 4.91177e-21)
(-0.0418836 -0.100465 -8.29713e-21)
(-0.0450635 -0.106513 4.81539e-21)
(-0.0477068 -0.112342 -2.2629e-21)
(-0.0498062 -0.11805 3.83263e-21)
(-0.0513695 -0.123717 -9.74522e-21)
(-0.0524183 -0.129413 1.40282e-20)
(-0.0529858 -0.135194 -2.66445e-21)
(-0.0531152 -0.141113 -9.89161e-21)
(-0.0528573 -0.147217 5.06413e-21)
(-0.0522707 -0.153553 -4.81731e-21)
(-0.0514261 -0.160167 4.29642e-21)
(-0.0504015 -0.167106 5.65284e-21)
(-0.0492082 -0.174415 5.72212e-22)
(-0.0477648 -0.182149 -1.61394e-20)
(-0.0466328 -0.190394 8.48671e-21)
(-0.000243485 -0.00470994 1.4784e-20)
(-0.00190565 -0.0152898 -3.81179e-20)
(-0.00545774 -0.0263366 1.12095e-20)
(-0.0100312 -0.0372419 7.48668e-21)
(-0.0151614 -0.0476342 -5.95848e-21)
(-0.0205599 -0.0573368 -3.38257e-20)
(-0.0259909 -0.0663053 1.00374e-20)
(-0.03127 -0.0745812 -1.89347e-20)
(-0.0362579 -0.0822557 2.26e-20)
(-0.0408509 -0.0894425 -3.01129e-20)
(-0.0449743 -0.0962586 1.60196e-20)
(-0.0485786 -0.102812 5.19508e-21)
(-0.0516357 -0.109198 -1.29933e-20)
(-0.0541366 -0.115494 -5.69864e-21)
(-0.0560885 -0.121762 4.18421e-20)
(-0.0575132 -0.128053 -3.69361e-20)
(-0.0584449 -0.134408 8.84288e-21)
(-0.0589284 -0.140864 1.52231e-20)
(-0.0590164 -0.147452 -3.41554e-21)
(-0.0587691 -0.154205 2.43399e-20)
(-0.0582582 -0.161157 4.41359e-21)
(-0.0575603 -0.168342 -1.64046e-21)
(-0.0566926 -0.175794 -3.05734e-20)
(-0.0555955 -0.183552 2.80177e-20)
(-0.0547682 -0.191704 -5.3388e-20)
(-0.000245204 -0.00353845 4.75062e-20)
(-0.00196316 -0.0123699 1.57618e-20)
(-0.00572347 -0.0221711 -2.06983e-20)
(-0.0105828 -0.0322207 8.90571e-21)
(-0.0160456 -0.0420697 8.25843e-21)
(-0.0218083 -0.0514838 3.13976e-20)
(-0.0276226 -0.0603727 -3.98588e-20)
(-0.033294 -0.0687411 -6.52809e-21)
(-0.0386756 -0.0766499 -2.66272e-20)
(-0.0436577 -0.0841867 -2.21686e-20)
(-0.0481612 -0.0914454 2.84834e-20)
(-0.0521329 -0.098513 -9.53699e-20)
(-0.0555425 -0.105463 -3.01947e-21)
(-0.0583793 -0.112355 -5.70183e-20)
(-0.0606497 -0.119232 -6.6804e-21)
(-0.0623757 -0.126126 8.03492e-21)
(-0.0635922 -0.13306 -4.39729e-20)
(-0.0643453 -0.140054 -2.74372e-20)
(-0.0646897 -0.147125 -3.23507e-20)
(-0.0646877 -0.154292 5.05584e-20)
(-0.0644122 -0.161575 1.83434e-20)
(-0.0639397 -0.168999 -8.18834e-20)
(-0.0632949 -0.176585 -3.92519e-20)
(-0.0624414 -0.184366 -4.37506e-20)
(-0.0618137 -0.192431 1.17894e-19)
(-0.000330661 -0.00224554 -1.40713e-21)
(-0.00221687 -0.0091624 -3.64808e-20)
(-0.00624638 -0.017608 -1.76416e-20)
(-0.0114168 -0.0267293 1.09584e-20)
(-0.017211 -0.0359879 6.75886e-20)
(-0.023317 -0.0450839 -3.03617e-20)
(-0.0294788 -0.0538756 6.48202e-20)
(-0.0354959 -0.0623268 6.17111e-20)
(-0.0412164 -0.0704656 3.74626e-20)
(-0.0465267 -0.0783518 -5.0689e-22)
(-0.0513445 -0.0860551 7.52935e-20)
(-0.0556142 -0.0936407 1.30499e-20)
(-0.059303 -0.101162 5.72699e-20)
(-0.0623989 -0.108657 1.31441e-19)
(-0.0649074 -0.116151 -1.52181e-19)
(-0.0668499 -0.123657 2.28389e-19)
(-0.0682618 -0.13118 4.94617e-20)
(-0.06919 -0.138722 -1.09272e-19)
(-0.0696911 -0.146283 -1.53296e-20)
(-0.0698294 -0.153867 3.94082e-20)
(-0.0696794 -0.161484 -1.97376e-20)
(-0.0693181 -0.169146 -1.17836e-20)
(-0.0687796 -0.176868 -1.141e-20)
(-0.0680511 -0.184676 -4.58678e-20)
(-0.0675021 -0.192661 1.60812e-19)
(-0.000507362 -0.000847473 2.48779e-20)
(-0.00267863 -0.00570561 -1.15418e-19)
(-0.007032 -0.0126988 1.40055e-19)
(-0.012527 -0.020826 -5.56564e-20)
(-0.0186369 -0.0294496 6.67346e-20)
(-0.0250493 -0.0381972 5.45235e-20)
(-0.0315064 -0.0468709 2.0682e-20)
(-0.0378059 -0.0553904 1.21042e-21)
(-0.0437943 -0.0637488 1.1605e-19)
(-0.0493562 -0.0719773 8.03413e-20)
(-0.0544076 -0.0801208 -3.19041e-20)
(-0.0588911 -0.0882228 -2.05256e-20)
(-0.0627723 -0.096316 8.71417e-20)
(-0.0660375 -0.104419 1.6354e-20)
(-0.068691 -0.112538 4.45011e-20)
(-0.0707531 -0.120667 1.0589e-19)
(-0.0722589 -0.128791 -9.09883e-20)
(-0.0732556 -0.136895 7.31044e-20)
(-0.0738009 -0.14496 -1.57897e-19)
(-0.0739611 -0.152976 1.32246e-19)
(-0.0738122 -0.160938 8.29159e-22)
(-0.0734325 -0.168849 -1.04917e-19)
(-0.0728665 -0.176715 4.20454e-20)
(-0.0721259 -0.18456 9.51247e-20)
(-0.0715168 -0.192475 -1.3981e-19)
(-0.00078022 0.000634047 1.28968e-19)
(-0.00335427 -0.00204944 -1.37098e-19)
(-0.00807769 -0.00750915 -2.18825e-20)
(-0.0138976 -0.0145841 2.79389e-20)
(-0.0202922 -0.02253 -6.00064e-20)
(-0.0269574 -0.0308971 -9.33834e-20)
(-0.0336403 -0.0394273 -7.77375e-20)
(-0.0401415 -0.047994 -1.87225e-20)
(-0.0463093 -0.0565539 -1.33368e-19)
(-0.052029 -0.0651089 1.06805e-19)
(-0.0572165 -0.0736798 -1.65001e-19)
(-0.0618135 -0.0822883 8.36245e-20)
(-0.0657844 -0.0909478 -2.72726e-20)
(-0.0691137 -0.0996582 6.3884e-20)
(-0.0718039 -0.108406 -1.60544e-19)
(-0.073874 -0.117167 7.81237e-20)
(-0.0753573 -0.125907 6.01055e-21)
(-0.0763008 -0.13459 3.44339e-20)
(-0.0767623 -0.143182 2.07048e-19)
(-0.0768096 -0.151652 4.5832e-20)
(-0.0765201 -0.159981 -4.17453e-21)
(-0.0759738 -0.16816 1.30167e-20)
(-0.0752265 -0.176188 8.52868e-20)
(-0.0743149 -0.184086 2.43227e-20)
(-0.0734867 -0.191944 7.90706e-20)
(-0.00115088 0.00217244 -8.03256e-20)
(-0.00424248 0.00174594 1.14222e-19)
(-0.00937173 -0.00211737 7.23381e-21)
(-0.015503 -0.0080903 -1.39678e-19)
(-0.0221355 -0.0153179 2.94281e-19)
(-0.0289828 -0.0232697 -9.494e-20)
(-0.0358043 -0.0316253 1.38932e-19)
(-0.0424084 -0.0402102 1.26905e-19)
(-0.0486488 -0.0489441 -1.04907e-19)
(-0.054414 -0.0577998 -1.52756e-19)
(-0.0596214 -0.0667743 4.18751e-20)
(-0.064213 -0.0758691 -4.4239e-20)
(-0.0681523 -0.0850791 -1.94835e-19)
(-0.0714223 -0.0943871 2.37041e-19)
(-0.0740231 -0.103762 -1.13527e-19)
(-0.0759712 -0.11316 -7.79947e-20)
(-0.0772978 -0.122529 1.15526e-21)
(-0.0780481 -0.131814 6.4055e-20)
(-0.0782792 -0.140958 2.60023e-20)
(-0.0780594 -0.149913 -1.02069e-19)
(-0.0774671 -0.158641 1.16649e-19)
(-0.0765845 -0.167118 -2.01212e-19)
(-0.0754789 -0.175334 1.22916e-19)
(-0.0742133 -0.183309 -9.30285e-20)
(-0.0729851 -0.191128 2.54038e-20)
(-0.00161723 0.00373681 1.17753e-19)
(-0.00533394 0.00561115 -9.06952e-20)
(-0.0108928 0.00338652 -5.77006e-20)
(-0.0173078 -0.00144419 -1.02024e-19)
(-0.0241156 -0.00791514 -1.86349e-19)
(-0.0310577 -0.0154142 -1.37597e-19)
(-0.0379128 -0.0235577 8.61207e-20)
(-0.0445026 -0.0321232 -1.30359e-19)
(-0.0506897 -0.0409933 1.65303e-19)
(-0.0563683 -0.0501123 -2.69186e-19)
(-0.0614591 -0.0594543 1.19613e-19)
(-0.0659055 -0.0690023 2.52378e-19)
(-0.0696708 -0.0787349 -3.54661e-19)
(-0.0727364 -0.0886192 5.06915e-20)
(-0.0751 -0.0986082 6.59095e-20)
(-0.0767748 -0.108642 6.32327e-20)
(-0.0777889 -0.11865 -6.79116e-20)
(-0.0781843 -0.128555 -1.64903e-20)
(-0.0780163 -0.138281 -5.03015e-20)
(-0.0773526 -0.147757 -4.12742e-20)
(-0.0762723 -0.156924 -2.26778e-19)
(-0.0748595 -0.16574 -1.52379e-20)
(-0.0731933 -0.174181 2.49232e-21)
(-0.0713643 -0.182262 -1.01153e-19)
(-0.0695323 -0.190061 1.03982e-19)
(-0.002173 0.00529295 3.66158e-21)
(-0.00661095 0.00946966 3.72231e-20)
(-0.0126101 0.00890319 3.88907e-20)
(-0.0192668 0.0052441 2.22367e-20)
(-0.0261724 -0.000434764 1.90328e-19)
(-0.0331062 -0.00744129 1.79159e-19)
(-0.0398731 -0.0153297 -1.45441e-19)
(-0.0463131 -0.0238297 -4.47041e-20)
(-0.0523013 -0.0327876 -3.94412e-20)
(-0.0577405 -0.0421201 2.03326e-19)
(-0.0625562 -0.0517801 7.33193e-20)
(-0.0666946 -0.061734 -1.06121e-19)
(-0.0701196 -0.0719463 -9.00907e-20)
(-0.0728113 -0.0823711 2.16814e-19)
(-0.0747649 -0.0929484 -5.3609e-20)
(-0.07599 -0.103603 -6.50433e-20)
(-0.0765104 -0.114249 -9.02255e-20)
(-0.076364 -0.124789 -7.03411e-20)
(-0.075603 -0.135124 -8.95197e-20)
(-0.0742935 -0.145161 -5.80047e-20)
(-0.0725142 -0.154814 2.40987e-19)
(-0.0703516 -0.164017 -1.18657e-19)
(-0.0678963 -0.172729 7.967e-20)
(-0.0652675 -0.180953 -2.10088e-19)
(-0.0626061 -0.188756 8.52677e-20)
(-0.00280772 0.00680468 -1.06437e-19)
(-0.00804742 0.0132403 -2.80574e-20)
(-0.0144834 0.0143267 -2.1724e-19)
(-0.0213267 0.0118562 -1.04482e-19)
(-0.0282392 0.00700032 -2.05838e-19)
(-0.035047 0.000526925 -2.15163e-20)
(-0.041588 -0.0070585 1.10404e-19)
(-0.0477254 -0.0154393 -6.76892e-20)
(-0.0533503 -0.0244269 1.45251e-19)
(-0.058376 -0.0339114 -3.53426e-19)
(-0.0627353 -0.0438264 -1.04464e-20)
(-0.0663784 -0.0541235 6.26467e-20)
(-0.0692706 -0.064756 -7.94963e-20)
(-0.0713916 -0.0756682 7.22687e-20)
(-0.0727343 -0.0867901 -5.5732e-20)
(-0.0733046 -0.0980356 -1.19032e-19)
(-0.0731216 -0.109303 2.16272e-19)
(-0.0722184 -0.12048 1.33795e-19)
(-0.0706428 -0.131445 -2.81719e-20)
(-0.0684579 -0.142077 8.79106e-20)
(-0.0657423 -0.152264 -1.73239e-19)
(-0.0625841 -0.16191 2.47856e-19)
(-0.0590849 -0.170945 -3.37782e-19)
(-0.055394 -0.179356 6.91399e-20)
(-0.051658 -0.187188 -1.2918e-19)
(-0.00350686 0.00823542 5.90505e-21)
(-0.0096095 0.0168404 -9.59391e-20)
(-0.0164648 0.0195478 1.41257e-19)
(-0.0234276 0.0182684 2.90092e-19)
(-0.0302445 0.0142599 -5.06719e-21)
(-0.0367963 0.00835907 3.29422e-20)
(-0.0429599 0.00112713 -1.24809e-19)
(-0.0486261 -0.00707552 5.7946e-20)
(-0.0537048 -0.0160266 4.03227e-19)
(-0.0581227 -0.0255916 -9.13691e-20)
(-0.0618215 -0.035686 -1.08461e-19)
(-0.0647566 -0.046249 4.09365e-19)
(-0.0668963 -0.0572252 1.3435e-19)
(-0.0682208 -0.0685522 6.37823e-20)
(-0.0687214 -0.0801541 6.57809e-20)
(-0.0684009 -0.0919376 1.77911e-19)
(-0.067274 -0.103791 -6.77803e-20)
(-0.0653683 -0.115587 1.81148e-19)
(-0.0627268 -0.127184 2.43733e-19)
(-0.0594092 -0.138437 -2.06324e-19)
(-0.0554928 -0.149202 3.05878e-19)
(-0.0510685 -0.159345 1.08546e-19)
(-0.0462471 -0.168762 -4.10693e-19)
(-0.0412093 -0.177405 5.9228e-19)
(-0.0361387 -0.185297 -4.77589e-19)
(-0.00425237 0.00954991 -2.74082e-19)
(-0.0112567 0.0201891 1.48967e-19)
(-0.0185 0.0244579 -1.00235e-19)
(-0.025505 0.0243554 -9.48861e-20)
(-0.0321146 0.0212094 -1.0326e-19)
(-0.0382707 0.0159164 -1.11867e-19)
(-0.0438943 0.00908795 3.04005e-20)
(-0.0489071 0.00112492 2.92425e-19)
(-0.0532411 -0.00771886 -6.21012e-20)
(-0.0568381 -0.0172853 -1.63325e-19)
(-0.0596503 -0.0274736 -1.00307e-19)
(-0.0616405 -0.0382122 -4.07542e-20)
(-0.0627811 -0.0494393 1.22729e-19)
(-0.0630541 -0.0610894 -7.75765e-20)
(-0.0624507 -0.0730842 -2.53226e-19)
(-0.0609717 -0.0853277 -2.79626e-19)
(-0.0586282 -0.0977035 1.11749e-19)
(-0.0554433 -0.110074 -2.06764e-19)
(-0.051455 -0.122283 1.8009e-19)
(-0.0467195 -0.134161 -5.06607e-19)
(-0.0413133 -0.145531 3.87646e-19)
(-0.0353302 -0.156219 -5.10371e-19)
(-0.0288893 -0.166072 -8.50714e-21)
(-0.0222024 -0.174995 -1.68322e-19)
(-0.0155283 -0.182977 4.96955e-19)
(-0.00502345 0.0107161 4.21522e-19)
(-0.0129435 0.0232109 6.21505e-20)
(-0.0205304 0.0289529 -4.09787e-20)
(-0.0274924 0.0299942 -1.70111e-20)
(-0.0337767 0.0277134 3.20426e-19)
(-0.0393908 0.0230559 1.04777e-19)
(-0.0443034 0.0166766 9.54488e-20)
(-0.0484704 0.00901299 -7.63537e-20)
(-0.0518479 0.00034821 2.95437e-19)
(-0.054395 -0.00913759 -1.44786e-19)
(-0.0560761 -0.0193282 9.33507e-20)
(-0.0568625 -0.0301429 2.39838e-19)
(-0.0567326 -0.0415153 -1.35411e-19)
(-0.0556721 -0.053379 1.48007e-19)
(-0.0536738 -0.0656574 1.39948e-19)
(-0.0507383 -0.0782563 4.75466e-20)
(-0.046875 -0.0910598 -1.16846e-19)
(-0.0421043 -0.103927 3.24945e-19)
(-0.0364604 -0.116693 -2.96734e-20)
(-0.0299968 -0.129167 -3.32901e-20)
(-0.0227902 -0.141143 3.8616e-19)
(-0.0149385 -0.152405 -2.72268e-19)
(-0.00656789 -0.162738 4.582e-19)
(0.00208067 -0.171982 -3.75997e-19)
(0.0106284 -0.180085 4.85853e-19)
(-0.00579767 0.011707 -2.04859e-19)
(-0.0146215 0.0258395 4.59663e-20)
(-0.0224957 0.0329378 -4.7793e-20)
(-0.0293236 0.0350686 -2.24146e-19)
(-0.035161 0.0336399 1.29563e-20)
(-0.0400831 0.0296338 1.28699e-19)
(-0.0441091 0.0237408 -5.22351e-19)
(-0.0472312 0.0164303 3.90994e-19)
(-0.0494315 0.00801217 -3.80845e-19)
(-0.0506878 -0.00131264 -2.40274e-19)
(-0.0509784 -0.0114134 2.16786e-19)
(-0.0502848 -0.0222006 -4.70054e-19)
(-0.0485929 -0.0336044 3.96816e-19)
(-0.045894 -0.0455594 -1.25715e-19)
(-0.0421849 -0.0579931 -3.60305e-19)
(-0.0374688 -0.0708174 8.8721e-20)
(-0.0317563 -0.0839224 -8.28691e-20)
(-0.0250674 -0.0971707 3.09657e-20)
(-0.0174355 -0.110395 -1.12061e-19)
(-0.00891321 -0.123394 -3.72301e-19)
(0.000420471 -0.135938 8.331e-20)
(0.0104611 -0.147766 1.18775e-21)
(0.0210769 -0.1586 -3.79042e-19)
(0.0320014 -0.168192 2.66768e-19)
(0.0426877 -0.176436 -2.27867e-19)
(-0.00655225 0.0125019 8.32587e-20)
(-0.0162417 0.0280208 1.53933e-19)
(-0.0243363 0.0363306 2.14961e-19)
(-0.0309351 0.0394735 1.11074e-19)
(-0.0362026 0.0388651 -1.08693e-19)
(-0.0402821 0.0355108 2.59824e-19)
(-0.0432444 0.0301282 1.92862e-19)
(-0.0451195 0.0232136 -6.93639e-20)
(-0.0459167 0.0151007 2.51643e-19)
(-0.0456343 0.00601 -2.58922e-19)
(-0.0442656 -0.00391369 -7.57759e-20)
(-0.0418038 -0.0145721 7.71581e-20)
(-0.0382441 -0.0258922 1.54798e-19)
(-0.0335857 -0.0378098 1.50906e-21)
(-0.0278322 -0.0502581 9.85606e-20)
(-0.0209922 -0.0631576 1.80678e-19)
(-0.0130811 -0.0764089 -3.07649e-19)
(-0.00412293 -0.0898848 3.82608e-19)
(0.00584626 -0.103424 1.29793e-19)
(0.0167711 -0.116825 4.52137e-20)
(0.0285671 -0.129843 -4.62261e-19)
(0.0411199 -0.142184 6.63286e-20)
(0.0542919 -0.1535 1.0055e-19)
(0.0677994 -0.163436 -2.28335e-20)
(0.0808775 -0.171824 1.11472e-19)
(-0.00726544 0.0130881 7.12618e-21)
(-0.0177573 0.0297159 -3.97014e-19)
(-0.0259954 0.0390663 -9.27009e-21)
(-0.0322676 0.0431197 -1.00128e-19)
(-0.0368425 0.0432782 -6.59763e-19)
(-0.0399303 0.0405571 5.70802e-19)
(-0.0416529 0.0356922 -4.06764e-19)
(-0.042079 0.0292011 -1.98893e-20)
(-0.0412464 0.0214384 -1.93376e-19)
(-0.0391745 0.0126426 3.35411e-19)
(-0.0358733 0.00297243 -3.61848e-19)
(-0.0313492 -0.00746473 -1.70025e-19)
(-0.0256086 -0.0185915 4.3885e-21)
(-0.0186608 -0.0303447 -3.70259e-19)
(-0.010519 -0.0426626 5.05599e-19)
(-0.00120108 -0.0554755 -5.8649e-19)
(0.00926844 -0.0686969 9.58361e-22)
(0.020857 -0.0822146 9.03271e-20)
(0.0335205 -0.0958819 -2.24649e-19)
(0.047196 -0.109507 2.1668e-19)
(0.061789 -0.122844 -3.08241e-19)
(0.0771701 -0.135579 -2.02075e-19)
(0.0931951 -0.147301 3.74869e-19)
(0.109575 -0.157532 -4.0659e-19)
(0.125281 -0.166035 -7.96199e-21)
(-0.00791787 0.013461 -3.37376e-19)
(-0.0191251 0.0309026 3.8662e-19)
(-0.0274211 0.0410995 -1.18971e-19)
(-0.0332666 0.0459377 2.29893e-19)
(-0.0370274 0.0467867 2.48067e-19)
(-0.0389764 0.0446586 -2.18722e-19)
(-0.0392859 0.0402989 -1.46495e-19)
(-0.0380632 0.0342406 -1.75138e-19)
(-0.0353752 0.0268559 1.60242e-19)
(-0.0312638 0.0183996 -1.0219e-20)
(-0.0257566 0.00904413 2.35165e-19)
(-0.0188749 -0.00109318 2.32517e-19)
(-0.0106386 -0.0119294 -2.78846e-19)
(-0.0010693 -0.0234 5.49214e-19)
(0.0098071 -0.0354473 -3.64678e-19)
(0.0219593 -0.0480099 -6.38522e-20)
(0.035349 -0.0610144 7.13356e-19)
(0.0499294 -0.0743662 -3.30073e-19)
(0.065642 -0.0879382 2.10182e-19)
(0.0824103 -0.101559 4.09789e-19)
(0.100124 -0.114995 -2.6572e-19)
(0.118632 -0.127933 2.80689e-20)
(0.13778 -0.139912 -1.72712e-20)
(0.157289 -0.150326 -1.06716e-19)
(0.175838 -0.158863 2.00204e-19)
(-0.00849368 0.0136248 7.74695e-20)
(-0.0203081 0.0315764 -2.46498e-19)
(-0.0285674 0.0424066 1.34944e-19)
(-0.0338831 0.0478812 -1.45951e-21)
(-0.0367076 0.0493205 1.01479e-19)
(-0.0373721 0.0477229 -1.75164e-19)
(-0.0360969 0.0438347 1.00213e-19)
(-0.0330274 0.0381986 2.73512e-19)
(-0.0282601 0.0312008 -8.47248e-21)
(-0.0218604 0.0231105 -1.41161e-19)
(-0.013875 0.0141134 1.42619e-19)
(-0.00434178 0.00433771 -2.81964e-21)
(0.00670411 -0.00612636 -4.52842e-19)
(0.0192255 -0.0172109 1.68152e-19)
(0.0331805 -0.0288587 3.74661e-20)
(0.0485201 -0.0410142 -6.64005e-20)
(0.0651868 -0.0536148 -1.17355e-19)
(0.0831132 -0.0665823 4.50342e-19)
(0.102219 -0.0798122 1.10186e-19)
(0.122407 -0.0931586 -2.34787e-19)
(0.143543 -0.106417 -2.76002e-20)
(0.165447 -0.11929 3.20612e-19)
(0.187948 -0.131296 -1.4994e-19)
(0.210799 -0.141701 6.3128e-20)
(0.232373 -0.150116 4.31063e-20)
(-0.00898135 0.0135911 -1.55516e-19)
(-0.0212764 0.0317499 1.54013e-19)
(-0.0293943 0.0429861 -8.6985e-20)
(-0.0340713 0.0489286 -2.79459e-19)
(-0.0358343 0.0508367 -2.57394e-19)
(-0.0350666 0.0496851 -1.14921e-19)
(-0.0320338 0.0462139 -9.48603e-20)
(-0.0269185 0.04097 -2.81552e-19)
(-0.0198472 0.0343495 -1.13914e-19)
(-0.0109092 0.0266342 1.038e-19)
(-0.000172227 0.0180224 -1.48853e-19)
(0.0123076 0.00865355 -1.57987e-19)
(0.026477 -0.00137299 -1.48786e-19)
(0.0422804 -0.011983 2.71528e-19)
(0.0596557 -0.0231167 -5.70245e-19)
(0.0785314 -0.0347198 3.26637e-19)
(0.0988248 -0.0467365 -5.593e-19)
(0.12044 -0.0591017 -8.63421e-20)
(0.143268 -0.071731 -3.07207e-19)
(0.167179 -0.0845069 -7.15948e-20)
(0.192008 -0.0972605 -8.72841e-20)
(0.217535 -0.109734 -2.89804e-19)
(0.243563 -0.121454 -3.06922e-20)
(0.2699 -0.131565 1.74671e-19)
(0.294638 -0.139608 -4.46792e-19)
(-0.00937405 0.0133786 1.33811e-19)
(-0.0220072 0.0314514 1.7488e-19)
(-0.0298671 0.0428585 6.11724e-19)
(-0.0337868 0.0490846 -1.07703e-19)
(-0.0343545 0.0513211 2.55904e-19)
(-0.0319994 0.0505123 6.11031e-19)
(-0.0270293 0.0473854 -1.6662e-19)
(-0.0196624 0.0424867 2.26157e-19)
(-0.0100549 0.0362187 1.32351e-19)
(0.00167837 0.0288733 2.40484e-19)
(0.0154478 0.0206605 -4.86372e-20)
(0.0311762 0.0117312 3.24477e-20)
(0.0487895 0.00219543 -8.59832e-20)
(0.0682096 -0.00786377 4.61128e-19)
(0.0893496 -0.0183802 5.8841e-20)
(0.11211 -0.0292966 4.30174e-19)
(0.136374 -0.0405584 -1.10292e-19)
(0.162012 -0.0521077 3.94229e-19)
(0.188871 -0.0638755 5.5173e-20)
(0.216781 -0.07577 1.99776e-19)
(0.245534 -0.0876603 -8.58035e-20)
(0.27486 -0.099342 -1.39622e-20)
(0.304516 -0.11038 4.699e-19)
(0.334384 -0.119821 2.85065e-19)
(0.362356 -0.127126 -1.17344e-19)
(-0.00966946 0.0130107 -3.24638e-19)
(-0.0224842 0.0307215 -3.28614e-19)
(-0.0299545 0.0420634 -3.43399e-19)
(-0.0329829 0.0483791 1.25844e-19)
(-0.0322063 0.0507904 -2.53105e-19)
(-0.0280935 0.0502067 -3.77792e-20)
(-0.0209908 0.0473381 -9.96741e-20)
(-0.0111507 0.0427258 -4.15117e-19)
(0.00124109 0.0367754 -6.54352e-20)
(0.0160437 0.0297865 1.07092e-19)
(0.0331432 0.0219795 -3.37375e-19)
(0.0524388 0.0135168 4.68085e-19)
(0.0738318 0.00452018 -6.3755e-19)
(0.0972168 -0.00491658 1.54054e-19)
(0.122476 -0.0147176 -3.91931e-19)
(0.149473 -0.0248182 -3.18822e-19)
(0.178053 -0.0351596 -1.82381e-20)
(0.208035 -0.0456844 -4.82219e-20)
(0.239217 -0.0563319 3.81315e-20)
(0.271372 -0.0670288 -1.81606e-19)
(0.304235 -0.0776786 -1.25202e-19)
(0.337471 -0.0881351 1.5307e-19)
(0.370768 -0.0980306 -4.21999e-19)
(0.40409 -0.10634 1.36501e-19)
(0.435265 -0.112415 9.20725e-20)
(-0.00986899 0.0125136 -5.76345e-20)
(-0.0226959 0.0296102 -9.55958e-20)
(-0.0296256 0.0406565 3.71071e-19)
(-0.0316065 0.0468652 1.38094e-19)
(-0.0293126 0.049291 1.83063e-19)
(-0.0232471 0.0488074 -2.44656e-19)
(-0.013791 0.0461044 2.57649e-22)
(-0.00122959 0.0417148 -1.99165e-19)
(0.014222 0.0360441 3.68204e-19)
(0.0323957 0.0293977 1.20841e-19)
(0.0531508 0.0220049 1.36556e-19)
(0.0763591 0.0140392 -5.40712e-19)
(0.101892 0.00563405 6.69261e-19)
(0.12961 -0.00310436 -2.00899e-19)
(0.159357 -0.0120883 -1.44286e-19)
(0.190952 -0.0212421 4.32938e-19)
(0.224187 -0.0304977 1.93531e-19)
(0.258823 -0.0397922 -4.89359e-19)
(0.294593 -0.0490647 -2.03745e-19)
(0.331198 -0.0582514 6.14955e-19)
(0.368299 -0.0672803 -4.67709e-19)
(0.405483 -0.0760602 2.8101e-19)
(0.442341 -0.084314 1.55079e-19)
(0.4789 -0.0909721 -1.99378e-19)
(0.513123 -0.0951832 -1.85296e-19)
(-0.00997654 0.0119141 -2.12253e-19)
(-0.0226326 0.0281724 3.29596e-19)
(-0.0288462 0.0387057 1.40251e-19)
(-0.029593 0.0446157 -2.02471e-19)
(-0.025576 0.0468973 -3.2291e-20)
(-0.0173274 0.0463896 -2.12593e-19)
(-0.00526048 0.0437609 -8.49096e-20)
(0.0103083 0.0395336 9.56713e-20)
(0.0291339 0.0341109 -2.35676e-20)
(0.0510187 0.0278015 1.81636e-19)
(0.0757918 0.0208421 -1.58102e-19)
(0.103292 0.0134157 4.37997e-19)
(0.133352 0.0056675 -5.44626e-19)
(0.165793 -0.00228419 3.39814e-19)
(0.200406 -0.0103388 4.23533e-19)
(0.236956 -0.0184078 -6.12646e-19)
(0.275169 -0.0264105 -1.86193e-19)
(0.314736 -0.0342723 3.14348e-19)
(0.355307 -0.0419235 -1.93258e-19)
(0.396496 -0.049297 1.86179e-19)
(0.437875 -0.0563293 -4.49902e-19)
(0.478928 -0.0629701 7.55514e-20)
(0.519123 -0.0690411 2.90174e-19)
(0.558523 -0.073429 -4.64018e-19)
(0.595466 -0.0748907 1.25622e-19)
(-0.00999669 0.0112376 -1.96228e-19)
(-0.0222836 0.0264635 6.14739e-19)
(-0.0275748 0.0362856 1.17818e-19)
(-0.0268629 0.0417187 -3.18586e-19)
(-0.0208738 0.043708 2.28321e-19)
(-0.0101664 0.0430616 1.16323e-19)
(0.00481614 0.0404269 1.85998e-19)
(0.0237263 0.0363144 -1.16151e-20)
(0.0462876 0.0311231 -1.91325e-20)
(0.0722688 0.0251629 -4.08327e-20)
(0.101462 0.0186754 -1.7895e-19)
(0.133665 0.0118515 -6.59204e-21)
(0.168663 0.00484549 4.18762e-19)
(0.20622 -0.00221391 -6.88803e-19)
(0.246068 -0.00921508 4.90154e-19)
(0.287901 -0.0160573 9.95314e-20)
(0.331368 -0.0226466 1.7596e-19)
(0.376078 -0.0288924 -9.00909e-20)
(0.42159 -0.0347062 8.00488e-19)
(0.46742 -0.0399986 -4.94018e-19)
(0.513026 -0.0446838 3.93694e-19)
(0.557757 -0.0487073 9.16567e-20)
(0.600894 -0.0519195 -2.85748e-19)
(0.64242 -0.0530358 2.41282e-19)
(0.681146 -0.0502916 3.62751e-19)
(-0.00993284 0.0105058 -5.6931e-20)
(-0.0216327 0.024536 -2.16675e-19)
(-0.0257587 0.0334737 -3.69895e-19)
(-0.0233174 0.0382728 -2.10677e-19)
(-0.0150563 0.0398411 -2.93688e-20)
(-0.00155979 0.0389609 -8.31472e-20)
(0.0166988 0.0362603 -3.87103e-19)
(0.0393394 0.0322375 6.41392e-20)
(0.0660494 0.0272854 -4.36987e-19)
(0.0965573 0.0217127 -3.42095e-20)
(0.130608 0.015763 -4.20667e-19)
(0.167944 0.00963118 -1.50141e-19)
(0.208289 0.00347638 8.643e-20)
(0.251333 -0.00256759 -4.10833e-19)
(0.29673 -0.00838401 3.72191e-21)
(0.34409 -0.0138667 -3.54325e-19)
(0.392979 -0.0189142 1.36941e-19)
(0.44292 -0.0234249 -4.93172e-19)
(0.493398 -0.0272898 -8.39856e-20)
(0.543859 -0.0303844 -9.99885e-21)
(0.593696 -0.032566 -8.19505e-20)
(0.642181 -0.0336878 -8.32212e-20)
(0.688441 -0.0334058 -4.1038e-20)
(0.731989 -0.03002 -1.63724e-19)
(0.77064 -0.0218944 -3.44083e-19)
(-0.00978517 0.00973575 1.04359e-19)
(-0.0206556 0.022436 2.74425e-19)
(-0.0233304 0.0303452 3.29462e-19)
(-0.0188364 0.0343817 -2.63101e-19)
(-0.00794538 0.0354284 4.88886e-19)
(0.00873056 0.034248 -2.65353e-19)
(0.0306855 0.0314513 1.44322e-19)
(0.0575016 0.0275241 2.25862e-19)
(0.0888221 0.0228516 2.0581e-19)
(0.124322 0.0177381 1.00426e-19)
(0.163685 0.0124249 1.62175e-19)
(0.206577 0.00710513 9.45606e-20)
(0.252637 0.00193559 6.39847e-19)
(0.301462 -0.00295394 -4.64728e-19)
(0.352604 -0.00745301 5.31393e-19)
(0.405571 -0.011464 -2.19804e-19)
(0.459833 -0.0148961 4.7542e-19)
(0.514832 -0.0176583 -2.22202e-20)
(0.569998 -0.0196504 -9.81394e-20)
(0.624767 -0.0207486 -1.57204e-20)
(0.678602 -0.0207886 3.6423e-19)
(0.731008 -0.0195153 -3.47406e-19)
(0.781696 -0.0162476 2.47365e-19)
(0.83066 -0.00926997 2.63465e-19)
(0.872275 -0.00079332 4.98944e-20)
(-0.00954874 0.00893859 7.21643e-20)
(-0.019316 0.0202012 -3.91775e-19)
(-0.0202054 0.0269705 -1.42218e-19)
(-0.0132784 0.0301504 1.30279e-19)
(0.000661705 0.0306104 -4.0018e-19)
(0.0209696 0.0290997 -7.88623e-20)
(0.0470999 0.0262143 5.49041e-20)
(0.078587 0.0224272 2.17716e-19)
(0.115016 0.0181134 -5.50375e-19)
(0.155991 0.0135688 4.2127e-20)
(0.201107 0.00902658 -1.61338e-19)
(0.249931 0.00467022 -4.91557e-19)
(0.301988 0.000644252 3.34695e-19)
(0.35675 -0.00293757 1.49385e-20)
(0.413643 -0.00598562 -1.06778e-20)
(0.47205 -0.00842868 3.37844e-19)
(0.531325 -0.0102089 -5.94089e-19)
(0.590815 -0.0112768 4.69105e-19)
(0.649881 -0.011586 -8.76825e-20)
(0.70793 -0.0110883 2.65473e-19)
(0.76444 -0.0097318 -4.38688e-19)
(0.818994 -0.00744962 2.4573e-19)
(0.871413 -0.00400727 -4.30226e-19)
(0.921842 0.00122686 4.30524e-19)
(0.965348 0.0056793 -1.40736e-19)
(-0.00921205 0.00811994 4.82665e-19)
(-0.0175639 0.0178602 -7.82328e-20)
(-0.0162813 0.0234125 5.78541e-19)
(-0.00648196 0.025681 2.67943e-19)
(0.0109876 0.0255308 2.18454e-20)
(0.0354386 0.0237026 1.16987e-19)
(0.0662739 0.0207795 2.8332e-20)
(0.102964 0.0172203 4.78099e-19)
(0.145015 0.0133867 1.54378e-19)
(0.191931 0.00956025 -2.08592e-20)
(0.243192 0.00595801 4.14535e-20)
(0.29823 0.00274403 1.59759e-19)
(0.356422 3.87268e-05 1.33514e-19)
(0.417087 -0.00207366 2.85948e-19)
(0.479494 -0.00353893 -3.25968e-19)
(0.542883 -0.00432754 9.77331e-20)
(0.606482 -0.00442982 3.09441e-20)
(0.669534 -0.00385173 1.43987e-19)
(0.731329 -0.00261147 3.83899e-19)
(0.79123 -0.000737737 -2.53456e-19)
(0.848701 0.00172765 1.87899e-20)
(0.903323 0.00472563 -3.39909e-19)
(0.954849 0.00824908 3.14534e-19)
(1.00327 0.0125977 -2.92096e-19)
(1.04478 0.0163092 3.55768e-20)
(-0.00875635 0.00728043 -4.02147e-19)
(-0.0153347 0.0154336 3.07238e-19)
(-0.011439 0.0197269 -4.99528e-19)
(0.00173034 0.0210712 4.30019e-20)
(0.0232664 0.0203327 3.51681e-19)
(0.0524214 0.0182471 -5.85944e-19)
(0.0885276 0.0153842 4.65534e-19)
(0.130968 0.0121864 -7.39174e-19)
(0.179138 0.00899641 1.47222e-19)
(0.232411 0.00607384 3.17176e-20)
(0.290112 0.00360932 2.49382e-19)
(0.351501 0.0017352 -8.28376e-19)
(0.415773 0.000534273 1.4326e-19)
(0.482064 4.71737e-05 1.51433e-19)
(0.549474 0.000279072 -9.03448e-20)
(0.617088 0.00120593 -5.58324e-19)
(0.684012 0.00278035 2.63666e-19)
(0.749404 0.00493685 4.85861e-19)
(0.812503 0.00759588 -5.06971e-19)
(0.872661 0.0106662 3.643e-19)
(0.929355 0.0140437 -4.61712e-19)
(0.9822 0.0176065 3.33011e-19)
(1.03096 0.0212564 -8.67087e-20)
(1.0756 0.0251926 4.94848e-19)
(1.11346 0.0287978 -5.4886e-19)
(-0.00815548 0.00641705 5.72325e-20)
(-0.0125501 0.0129351 4.53198e-20)
(-0.00554455 0.0159626 1.10294e-19)
(0.0115464 0.0164137 3.94936e-19)
(0.0377339 0.0151566 -1.25788e-20)
(0.0721891 0.0129224 8.80743e-20)
(0.114147 0.0102656 3.9372e-19)
(0.162869 0.00760717 1.59104e-19)
(0.217606 0.00526268 -5.26689e-20)
(0.277555 0.00345921 4.47118e-19)
(0.341846 0.00234814 -5.0961e-19)
(0.40953 0.00201571 7.81894e-19)
(0.47959 0.00249231 -3.10282e-19)
(0.550965 0.00376109 5.61327e-19)
(0.622577 0.00576658 -1.89673e-19)
(0.693374 0.00842328 6.88372e-20)
(0.762367 0.011624 8.30451e-20)
(0.828668 0.0152473 -1.56884e-19)
(0.891518 0.0191641 1.3225e-19)
(0.950311 0.0232416 8.45111e-20)
(1.0046 0.0273458 1.13587e-19)
(1.0541 0.0313396 2.32715e-19)
(1.09868 0.0351086 -2.36442e-20)
(1.13838 0.0388056 -1.05007e-19)
(1.17158 0.0423894 2.92654e-19)
(-0.00737644 0.00552475 -3.3458e-19)
(-0.00911929 0.0103754 3.52914e-20)
(0.0015462 0.0121649 -6.35282e-19)
(0.0231572 0.0117978 -1.51531e-19)
(0.0546163 0.0101396 -2.84427e-19)
(0.0949837 0.0079144 -6.07874e-20)
(0.143362 0.00565587 -3.04972e-19)
(0.198852 0.00375481 -1.82779e-19)
(0.260509 0.00248882 2.41771e-19)
(0.327314 0.00203845 -4.03873e-19)
(0.398158 0.00250021 -1.12284e-19)
(0.47185 0.00389817 4.53894e-21)
(0.547145 0.00619518 -7.57481e-19)
(0.622782 0.00930448 3.21431e-19)
(0.697528 0.0131017 -4.67198e-19)
(0.770228 0.0174368 -1.40593e-20)
(0.839853 0.0221462 8.98231e-20)
(0.90553 0.0270622 -1.47476e-19)
(0.96657 0.0320223 -1.28259e-19)
(1.02248 0.0368745 6.11164e-20)
(1.07297 0.0414814 6.66992e-20)
(1.1179 0.0457201 -4.34818e-19)
(1.15732 0.049497 2.46581e-19)
(1.19143 0.0529463 1.17106e-19)
(1.21939 0.0563504 2.50078e-20)
(-0.00638055 0.00459849 3.41393e-19)
(-0.00494247 0.00776489 -3.63597e-19)
(0.00998289 0.00837862 5.10621e-19)
(0.0367496 0.00731172 8.01086e-20)
(0.0741189 0.00541726 -2.44281e-20)
(0.121003 0.00340508 -1.71536e-19)
(0.176329 0.00177859 2.58516e-20)
(0.238987 0.000886233 2.61993e-19)
(0.307789 0.000952401 -3.61699e-19)
(0.381448 0.00209401 3.8035e-19)
(0.458584 0.00433483 -4.03661e-20)
(0.537743 0.00761985 1.84145e-20)
(0.617454 0.0118305 4.92743e-19)
(0.696277 0.0168009 6.5788e-19)
(0.772868 0.0223343 -2.57766e-19)
(0.846031 0.0282196 4.51721e-19)
(0.914768 0.034246 2.2512e-19)
(0.978299 0.0402152 -1.393e-19)
(1.03609 0.0459503 4.30405e-19)
(1.08782 0.0513023 -2.0643e-20)
(1.1334 0.056152 -4.04356e-19)
(1.17293 0.0604095 4.18279e-19)
(1.20664 0.0640201 5.54067e-20)
(1.23491 0.0671164 -2.48989e-19)
(1.25749 0.0701344 7.84184e-20)
(-0.00512499 0.00363509 -4.73608e-19)
(8.57408e-05 0.00511814 4.95338e-19)
(0.0199149 0.00465271 -3.14034e-19)
(0.0524975 0.00304703 -9.75127e-20)
(0.0964157 0.001126 -2.19853e-19)
(0.150389 -0.000426673 3.89229e-19)
(0.213117 -0.001152 -2.25879e-19)
(0.283221 -0.000760852 -1.03686e-19)
(0.359222 0.00089887 -2.96611e-19)
(0.439524 0.00386031 7.77384e-21)
(0.522447 0.00805531 -1.16327e-19)
(0.606278 0.0133339 5.60789e-20)
(0.68934 0.0194854 -5.92698e-19)
(0.770064 0.0262607 1.68992e-19)
(0.847064 0.0333943 -2.0217e-19)
(0.919186 0.0406239 -1.60694e-19)
(0.985544 0.0477079 4.87882e-20)
(1.04554 0.0544368 -2.31053e-19)
(1.09885 0.0606414 -9.55728e-20)
(1.14541 0.066196 2.80177e-19)
(1.18536 0.0710177 1.14127e-19)
(1.21903 0.0750621 -4.87747e-19)
(1.24686 0.0783222 3.52151e-19)
(1.26941 0.0809427 -6.6109e-20)
(1.28681 0.0833917 -1.31683e-19)
(-0.0035646 0.00263495 -1.71592e-19)
(0.0060721 0.00245718 -9.17533e-20)
(0.0314851 0.00104455 -1.8006e-20)
(0.0705545 -0.000897407 1.35375e-19)
(0.121639 -0.00259342 1.46901e-19)
(0.183215 -0.00340315 1.27685e-19)
(0.253691 -0.00293151 1.59428e-19)
(0.33137 -0.000970417 2.43203e-19)
(0.414426 0.002537 3.72108e-19)
(0.500926 0.00751802 3.67708e-19)