1.275 	2.15223e-18 	-2.76991e-20 	-0.13121 	0.0247514 	-2.54831e-22
1.825 	2.15223e-18 	-1.39322e-20 	-0.266598 	0.0307187 	3.51116e-21
2.375 	2.15223e-18 	-2.66896e-23 	-0.284701 	-0.0380369 	-1.58938e-21
