/*--------------------------------*- C++ -*----------------------------------*\
  =========                 |
  \\      /  F ield         | OpenFOAM: The Open Source CFD Toolbox
   \\    /   O peration     | Website:  https://openfoam.org
    \\  /    A nd           | Version:  6.0
     \\/     M anipulation  |
\*---------------------------------------------------------------------------*/
FoamFile
{
    version     2.0;
    format      ascii;
    class       volScalarField;
    location    "70";
    object      p;
}
// * * * * * * * * * * * * * * * * * * * * * * * * * * * * * * * * * * * * * //

dimensions      [0 2 -2 0 0 0 0];

internalField   nonuniform List<scalar> 
4000
(
-0.371
-0.372592
-0.373501
-0.374061
-0.374482
-0.374802
-0.375044
-0.375221
-0.375335
-0.375384
-0.375368
-0.375285
-0.375137
-0.374931
-0.374676
-0.374383
-0.374063
-0.373738
-0.373443
-0.373109
-0.375982
-0.377648
-0.378628
-0.379275
-0.37981
-0.380274
-0.380686
-0.381058
-0.381386
-0.381665
-0.381885
-0.382041
-0.382131
-0.382155
-0.382116
-0.382021
-0.381877
-0.381723
-0.381603
-0.381243
-0.381249
-0.382957
-0.383991
-0.384718
-0.385365
-0.385974
-0.386563
-0.387136
-0.387686
-0.3882
-0.388664
-0.389066
-0.389395
-0.389648
-0.389823
-0.389918
-0.389939
-0.389944
-0.38998
-0.389584
-0.386791
-0.388498
-0.389565
-0.390363
-0.39112
-0.391875
-0.392642
-0.393423
-0.394202
-0.394959
-0.395673
-0.396323
-0.396894
-0.397373
-0.397753
-0.398026
-0.398196
-0.398335
-0.398501
-0.398058
-0.392585
-0.394241
-0.395317
-0.396173
-0.397031
-0.39793
-0.398879
-0.39987
-0.400883
-0.401889
-0.402857
-0.403759
-0.404569
-0.405269
-0.405843
-0.406276
-0.406569
-0.406807
-0.407061
-0.406561
-0.398591
-0.400143
-0.401198
-0.402096
-0.403047
-0.404084
-0.405211
-0.406414
-0.407662
-0.408918
-0.410142
-0.411295
-0.412341
-0.413251
-0.414001
-0.414569
-0.414952
-0.415244
-0.41553
-0.414957
-0.404758
-0.40615
-0.407153
-0.408073
-0.4091
-0.410264
-0.411561
-0.41297
-0.414449
-0.415953
-0.417429
-0.418828
-0.4201
-0.421206
-0.422111
-0.422783
-0.423214
-0.4235
-0.423746
-0.423083
-0.411017
-0.412196
-0.413114
-0.414032
-0.415114
-0.416385
-0.417837
-0.419437
-0.421136
-0.422876
-0.424594
-0.426226
-0.427711
-0.428993
-0.430025
-0.430765
-0.431195
-0.431407
-0.431526
-0.430746
-0.417292
-0.418211
-0.419009
-0.419895
-0.421004
-0.422356
-0.423935
-0.425701
-0.427596
-0.429551
-0.43149
-0.433335
-0.435009
-0.436441
-0.437568
-0.438334
-0.43871
-0.438771
-0.438664
-0.437726
-0.423498
-0.424118
-0.424764
-0.425585
-0.426684
-0.428079
-0.429748
-0.431643
-0.433698
-0.435832
-0.437957
-0.439981
-0.441812
-0.443358
-0.44454
-0.445286
-0.445548
-0.445378
-0.444933
-0.443783
-0.429552
-0.429848
-0.430311
-0.43103
-0.432076
-0.433465
-0.435172
-0.437145
-0.439307
-0.441569
-0.443831
-0.445987
-0.447926
-0.44954
-0.450728
-0.451398
-0.451485
-0.450998
-0.450097
-0.448656
-0.435378
-0.43534
-0.435593
-0.436169
-0.437111
-0.438436
-0.44012
-0.442104
-0.444307
-0.44663
-0.448963
-0.451185
-0.45317
-0.45479
-0.455921
-0.456451
-0.456292
-0.455405
-0.453921
-0.452083
-0.440916
-0.440547
-0.440568
-0.44096
-0.441744
-0.442941
-0.444528
-0.446447
-0.448611
-0.450914
-0.453236
-0.455444
-0.457395
-0.458943
-0.45994
-0.460254
-0.459769
-0.458392
-0.456195
-0.453818
-0.446125
-0.445447
-0.445219
-0.445386
-0.445954
-0.446954
-0.448368
-0.450138
-0.452175
-0.454368
-0.456587
-0.458688
-0.460513
-0.461896
-0.46267
-0.462674
-0.461771
-0.459809
-0.456764
-0.453665
-0.450997
-0.450039
-0.449552
-0.449456
-0.449753
-0.450488
-0.45165
-0.453187
-0.455008
-0.456998
-0.459019
-0.460916
-0.462516
-0.463634
-0.464081
-0.463673
-0.462244
-0.459594
-0.455569
-0.45152
-0.455553
-0.454353
-0.453599
-0.453207
-0.453184
-0.45359
-0.45443
-0.455654
-0.457176
-0.458875
-0.460607
-0.462205
-0.46348
-0.464232
-0.464248
-0.463318
-0.461252
-0.457809
-0.45269
-0.447432
-0.459848
-0.458443
-0.457419
-0.456703
-0.456318
-0.456344
-0.4568
-0.457645
-0.458795
-0.460127
-0.461489
-0.462702
-0.463563
-0.463851
-0.463335
-0.461778
-0.45897
-0.454646
-0.448371
-0.441653
-0.463969
-0.46239
-0.461094
-0.460032
-0.459253
-0.458859
-0.458885
-0.4593
-0.460021
-0.460925
-0.461851
-0.462606
-0.462972
-0.462712
-0.461571
-0.45929
-0.455634
-0.450337
-0.442852
-0.434455
-0.468031
-0.466295
-0.464722
-0.4633
-0.462106
-0.461266
-0.460832
-0.460781
-0.461035
-0.461464
-0.4619
-0.46214
-0.461951
-0.461081
-0.459258
-0.456201
-0.45164
-0.445256
-0.43635
-0.42599
-0.472168
-0.470275
-0.468417
-0.466623
-0.465003
-0.463706
-0.462796
-0.462259
-0.462017
-0.461938
-0.461843
-0.461521
-0.460735
-0.459231
-0.456745
-0.453015
-0.447774
-0.44063
-0.430666
-0.419053
-0.476525
-0.474454
-0.472296
-0.470123
-0.468074
-0.466317
-0.464926
-0.463893
-0.463136
-0.462517
-0.46185
-0.46092
-0.459492
-0.45733
-0.454212
-0.449954
-0.444428
-0.437544
-0.429452
-0.423444
-0.481248
-0.478954
-0.476475
-0.473917
-0.471441
-0.469226
-0.467355
-0.465816
-0.464524
-0.46333
-0.462043
-0.460444
-0.458307
-0.45542
-0.451602
-0.446731
-0.440761
-0.433738
-0.425924
-0.419191
-0.48647
-0.483889
-0.481061
-0.478111
-0.475207
-0.472539
-0.470186
-0.46813
-0.466274
-0.46446
-0.462488
-0.460144
-0.457215
-0.453516
-0.448909
-0.443319
-0.436746
-0.429268
-0.421061
-0.412974
-0.492306
-0.489359
-0.486146
-0.482792
-0.479459
-0.476336
-0.473492
-0.470896
-0.468433
-0.465936
-0.463201
-0.46002
-0.456202
-0.451597
-0.446106
-0.439697
-0.432401
-0.424302
-0.415537
-0.406509
-0.498845
-0.495442
-0.491803
-0.488029
-0.484259
-0.480669
-0.477313
-0.474136
-0.471006
-0.467744
-0.464149
-0.460029
-0.455223
-0.449621
-0.443172
-0.435884
-0.427819
-0.419072
-0.40977
-0.400094
-0.506149
-0.502197
-0.498087
-0.493872
-0.489646
-0.485567
-0.48166
-0.477842
-0.473962
-0.469835
-0.465269
-0.460101
-0.454212
-0.44754
-0.440086
-0.4319
-0.423072
-0.413719
-0.403968
-0.393933
-0.514252
-0.50966
-0.505034
-0.500351
-0.495643
-0.491035
-0.486517
-0.481975
-0.47724
-0.472128
-0.466473
-0.460151
-0.453096
-0.445303
-0.436823
-0.427748
-0.418193
-0.408287
-0.398156
-0.387891
-0.523163
-0.517848
-0.512662
-0.507481
-0.502252
-0.497058
-0.491847
-0.486472
-0.480754
-0.474524
-0.467657
-0.460082
-0.451797
-0.442855
-0.433354
-0.423418
-0.413179
-0.402771
-0.392311
-0.38188
-0.532869
-0.526759
-0.520975
-0.515262
-0.509461
-0.503602
-0.497587
-0.491243
-0.484394
-0.476905
-0.468706
-0.459796
-0.450239
-0.440142
-0.429643
-0.418886
-0.408008
-0.397135
-0.386369
-0.375775
-0.543333
-0.536372
-0.529956
-0.523672
-0.517232
-0.510605
-0.503649
-0.496175
-0.488032
-0.479141
-0.469504
-0.459196
-0.448347
-0.437112
-0.425652
-0.414119
-0.402644
-0.391334
-0.380271
-0.369496
-0.554495
-0.54664
-0.539567
-0.532667
-0.525501
-0.517975
-0.509911
-0.501127
-0.49152
-0.481092
-0.46993
-0.458189
-0.446054
-0.433714
-0.421341
-0.40908
-0.397045
-0.385321
-0.373961
-0.362981
-0.566265
-0.557495
-0.549741
-0.542169
-0.534169
-0.525583
-0.516219
-0.505932
-0.494698
-0.482616
-0.46987
-0.456686
-0.443293
-0.429897
-0.416666
-0.403727
-0.391169
-0.379049
-0.367392
-0.356192
-0.578524
-0.568831
-0.56038
-0.552064
-0.543095
-0.533262
-0.522389
-0.510404
-0.497394
-0.483571
-0.469213
-0.454604
-0.440001
-0.425609
-0.411579
-0.398012
-0.384967
-0.372473
-0.360522
-0.349095
-0.591116
-0.580513
-0.571342
-0.562196
-0.552095
-0.540806
-0.528208
-0.514344
-0.499437
-0.483819
-0.467852
-0.451862
-0.436113
-0.420794
-0.406029
-0.391884
-0.378388
-0.365543
-0.353309
-0.34166
-0.603846
-0.592361
-0.582448
-0.572362
-0.560944
-0.547975
-0.533442
-0.517543
-0.500655
-0.483227
-0.465687
-0.448382
-0.431564
-0.415393
-0.399956
-0.385286
-0.371379
-0.35821
-0.345707
-0.333856
-0.616481
-0.604158
-0.593472
-0.582315
-0.569378
-0.554504
-0.537847
-0.519794
-0.500883
-0.481669
-0.462621
-0.444085
-0.426284
-0.40934
-0.393298
-0.378156
-0.363881
-0.350421
-0.337671
-0.325646
-0.628746
-0.615644
-0.604146
-0.59177
-0.577099
-0.560109
-0.541173
-0.520893
-0.499965
-0.479024
-0.458558
-0.438889
-0.4202
-0.402565
-0.385988
-0.37043
-0.355832
-0.342118
-0.329152
-0.316988
-0.640335
-0.626522
-0.61416
-0.600402
-0.583786
-0.564494
-0.543169
-0.52064
-0.497744
-0.47517
-0.453397
-0.432707
-0.41323
-0.39499
-0.37795
-0.362036
-0.347167
-0.333241
-0.320095
-0.307836
-0.650907
-0.63646
-0.623175
-0.607864
-0.589107
-0.567369
-0.543599
-0.518852
-0.494081
-0.469996
-0.447046
-0.425455
-0.405295
-0.38654
-0.369112
-0.352907
-0.337821
-0.32373
-0.310447
-0.298143
-0.660102
-0.645104
-0.63083
-0.613801
-0.59274
-0.568466
-0.542257
-0.515377
-0.488861
-0.463414
-0.439427
-0.417063
-0.396329
-0.377152
-0.359414
-0.342985
-0.327743
-0.31354
-0.300167
-0.287872
-0.519821
-0.505577
-0.492823
-0.478554
-0.461423
-0.441859
-0.420705
-0.39888
-0.377206
-0.356285
-0.336489
-0.317992
-0.300839
-0.28499
-0.27036
-0.256848
-0.244352
-0.232751
-0.221854
-0.211892
-0.509193
-0.495538
-0.483614
-0.470749
-0.455567
-0.438239
-0.41933
-0.399553
-0.379623
-0.360125
-0.341455
-0.323841
-0.307376
-0.292067
-0.277864
-0.264694
-0.252473
-0.241101
-0.230409
-0.220562
-0.49755
-0.484571
-0.473428
-0.461806
-0.448379
-0.433138
-0.416405
-0.398687
-0.380574
-0.362599
-0.345168
-0.328543
-0.312864
-0.298181
-0.284482
-0.271721
-0.259837
-0.248751
-0.238317
-0.228644
-0.48524
-0.473016
-0.462613
-0.45208
-0.440204
-0.426863
-0.412184
-0.396484
-0.380212
-0.36383
-0.347727
-0.332185
-0.31738
-0.303402
-0.290277
-0.277988
-0.266497
-0.255747
-0.245617
-0.236173
-0.472579
-0.461176
-0.451486
-0.441905
-0.431374
-0.41972
-0.406929
-0.393153
-0.378699
-0.363939
-0.349225
-0.334841
-0.320986
-0.307785
-0.295297
-0.283537
-0.27249
-0.262123
-0.25234
-0.243174
-0.459847
-0.449318
-0.440321
-0.431575
-0.422197
-0.412007
-0.400904
-0.388909
-0.376201
-0.363051
-0.349756
-0.336581
-0.323739
-0.311376
-0.299584
-0.288405
-0.277849
-0.267905
-0.258506
-0.249662
-0.447283
-0.437665
-0.429351
-0.421346
-0.412947
-0.404004
-0.394371
-0.383981
-0.372901
-0.361305
-0.349421
-0.337483
-0.325697
-0.314223
-0.303176
-0.292623
-0.2826
-0.273116
-0.264132
-0.255645
-0.435086
-0.426398
-0.418761
-0.411427
-0.403862
-0.395964
-0.387583
-0.378596
-0.368989
-0.358849
-0.348331
-0.337625
-0.326916
-0.316366
-0.306103
-0.296215
-0.28676
-0.277767
-0.269222
-0.261119
-0.423408
-0.415654
-0.40869
-0.401976
-0.39513
-0.388103
-0.380764
-0.372973
-0.364659
-0.355839
-0.346603
-0.337088
-0.32745
-0.317839
-0.308387
-0.299194
-0.290336
-0.28186
-0.273774
-0.26607
-0.412364
-0.40553
-0.399234
-0.393105
-0.38689
-0.380591
-0.374109
-0.367309
-0.360095
-0.352434
-0.344361
-0.335963
-0.327358
-0.318677
-0.310044
-0.301566
-0.293326
-0.285388
-0.277777
-0.270476
-0.402029
-0.396088
-0.390452
-0.384885
-0.379237
-0.373552
-0.36777
-0.361776
-0.355469
-0.348791
-0.341735
-0.334346
-0.326704
-0.318916
-0.31109
-0.303329
-0.295721
-0.288335
-0.281214
-0.274318
-0.392443
-0.387358
-0.382369
-0.377345
-0.372218
-0.367064
-0.361856
-0.356508
-0.350931
-0.345056
-0.338855
-0.33234
-0.325561
-0.318597
-0.311539
-0.304481
-0.297506
-0.290685
-0.284071
-0.277584
-0.38362
-0.379345
-0.374984
-0.370486
-0.365848
-0.361162
-0.356432
-0.351601
-0.346597
-0.341358
-0.335845
-0.330053
-0.32401
-0.317772
-0.311414
-0.305019
-0.298665
-0.292418
-0.286337
-0.28029
-0.375552
-0.372035
-0.368275
-0.364286
-0.360108
-0.355846
-0.351523
-0.347108
-0.34255
-0.337799
-0.332818
-0.327593
-0.32214
-0.316503
-0.310746
-0.304946
-0.299178
-0.293504
-0.287995
-0.282468
-0.368215
-0.365403
-0.362211
-0.358707
-0.354964
-0.351091
-0.347122
-0.343049
-0.338839
-0.334454
-0.329865
-0.325058
-0.320045
-0.314863
-0.309576
-0.304265
-0.299015
-0.293899
-0.289004
-0.284172
-0.361582
-0.359417
-0.356754
-0.353704
-0.350369
-0.346853
-0.343199
-0.339413
-0.335478
-0.331367
-0.327056
-0.322536
-0.317816
-0.312933
-0.307957
-0.302984
-0.29813
-0.293508
-0.289244
-0.285372
-0.355622
-0.354045
-0.351867
-0.349236
-0.346276
-0.343086
-0.339714
-0.336175
-0.332461
-0.328556
-0.324439
-0.320099
-0.315542
-0.310803
-0.305956
-0.301119
-0.296458
-0.292167
-0.288477
-0.285957
-0.35031
-0.349264
-0.347521
-0.345267
-0.342645
-0.339748
-0.336626
-0.333301
-0.329772
-0.326027
-0.322044
-0.317808
-0.313311
-0.308577
-0.303668
-0.298715
-0.293929
-0.289618
-0.286224
-0.285362
-0.345631
-0.345053
-0.343694
-0.341772
-0.339448
-0.33681
-0.333907
-0.330767
-0.327394
-0.323777
-0.319893
-0.315712
-0.311209
-0.306375
-0.301237
-0.295889
-0.290541
-0.285556
-0.281726
-0.282596
-0.341574
-0.341403
-0.340376
-0.33874
-0.336673
-0.334257
-0.331542
-0.32856
-0.325319
-0.321809
-0.318002
-0.313856
-0.30932
-0.304337
-0.298864
-0.2929
-0.286528
-0.279927
-0.27396
-0.274549
-0.338139
-0.338311
-0.337564
-0.33617
-0.33432
-0.332091
-0.329534
-0.326685
-0.323554
-0.320133
-0.316394
-0.312281
-0.307718
-0.302594
-0.296765
-0.290043
-0.282183
-0.272596
-0.259694
-0.24489
-0.335326
-0.335777
-0.33526
-0.334068
-0.332399
-0.330326
-0.327901
-0.325161
-0.322122
-0.318779
-0.315105
-0.311046
-0.306513
-0.301382
-0.295474
-0.288565
-0.280391
-0.270438
-0.257438
-0.243677
-0.333135
-0.333803
-0.333471
-0.332445
-0.330927
-0.328985
-0.326671
-0.324023
-0.321062
-0.317788
-0.314181
-0.310194
-0.305751
-0.300741
-0.295013
-0.288393
-0.280714
-0.271605
-0.26022
-0.249476
-0.331562
-0.332387
-0.3322
-0.331311
-0.329921
-0.328092
-0.325875
-0.32331
-0.320419
-0.317211
-0.313671
-0.309767
-0.30544
-0.300605
-0.295149
-0.288962
-0.281948
-0.273826
-0.264062
-0.255868
-0.330596
-0.331523
-0.331446
-0.330671
-0.329392
-0.327667
-0.325543
-0.32306
-0.320243
-0.317105
-0.313643
-0.309835
-0.305644
-0.301013
-0.295875
-0.290177
-0.283895
-0.276841
-0.268742
-0.262698
-0.330216
-0.331198
-0.331203
-0.330524
-0.329347
-0.327723
-0.325696
-0.323303
-0.320574
-0.317525
-0.314162
-0.310477
-0.306455
-0.302067
-0.297289
-0.292122
-0.286605
-0.280635
-0.274109
-0.269786
-0.330391
-0.33139
-0.331455
-0.33086
-0.329781
-0.328261
-0.32634
-0.324055
-0.321436
-0.318505
-0.315274
-0.311752
-0.307938
-0.303836
-0.299453
-0.294836
-0.290061
-0.285088
-0.279899
-0.276853
-0.331083
-0.332073
-0.332181
-0.331664
-0.330682
-0.329272
-0.32747
-0.325313
-0.322832
-0.320051
-0.316991
-0.313671
-0.31011
-0.306328
-0.302362
-0.298283
-0.294191
-0.290073
-0.285934
-0.283781
-0.332248
-0.333212
-0.333356
-0.332911
-0.332027
-0.330735
-0.329067
-0.327059
-0.324741
-0.322142
-0.319288
-0.316207
-0.312929
-0.30949
-0.305943
-0.302369
-0.298874
-0.295452
-0.292101
-0.290546
-0.33384
-0.334774
-0.334948
-0.334575
-0.333792
-0.332624
-0.331103
-0.32926
-0.327127
-0.324735
-0.322113
-0.319296
-0.31632
-0.31323
-0.310084
-0.306966
-0.303977
-0.301105
-0.29833
-0.297168
-0.335814
-0.336723
-0.336928
-0.336627
-0.335946
-0.334909
-0.333542
-0.331878
-0.329945
-0.327776
-0.325404
-0.322862
-0.320192
-0.317442
-0.314668
-0.311952
-0.309382
-0.30694
-0.304587
-0.303683
-0.338129
-0.339025
-0.339266
-0.339039
-0.338463
-0.337559
-0.336353
-0.334873
-0.33315
-0.331213
-0.329094
-0.32683
-0.32446
-0.32203
-0.319595
-0.317229
-0.315007
-0.312902
-0.310867
-0.31014
-0.340748
-0.341651
-0.341936
-0.341786
-0.341315
-0.340547
-0.339503
-0.338212
-0.3367
-0.334996
-0.33313
-0.331137
-0.329053
-0.326922
-0.324793
-0.322732
-0.320802
-0.31897
-0.317187
-0.316585
-0.343644
-0.344577
-0.344916
-0.344845
-0.344482
-0.343849
-0.342968
-0.341864
-0.340562
-0.339088
-0.337469
-0.335737
-0.333924
-0.332071
-0.330219
-0.328426
-0.326747
-0.325145
-0.323575
-0.323066
-0.346798
-0.347784
-0.348187
-0.3482
-0.347946
-0.347448
-0.346727
-0.345808
-0.344713
-0.343463
-0.342084
-0.340602
-0.339046
-0.337451
-0.335854
-0.334304
-0.332848
-0.331448
-0.330069
-0.329631
-0.350198
-0.351261
-0.351738
-0.351838
-0.351694
-0.35133
-0.350769
-0.350032
-0.349139
-0.348109
-0.346962
-0.34572
-0.344409
-0.343058
-0.341699
-0.340374
-0.339122
-0.337909
-0.336711
-0.336325
-0.353842
-0.355001
-0.355561
-0.355751
-0.355717
-0.355488
-0.355085
-0.354528
-0.353835
-0.353019
-0.352099
-0.351091
-0.350016
-0.348899
-0.347768
-0.346657
-0.345599
-0.344564
-0.343544
-0.343196
-0.357735
-0.359003
-0.35965
-0.359933
-0.360011
-0.359917
-0.359672
-0.359295
-0.358799
-0.358197
-0.3575
-0.356722
-0.355879
-0.354991
-0.354081
-0.353178
-0.352307
-0.35145
-0.350609
-0.350283
-0.361884
-0.363267
-0.364005
-0.364381
-0.364573
-0.364615
-0.364529
-0.364332
-0.364036
-0.363648
-0.363174
-0.362625
-0.362012
-0.361351
-0.36066
-0.359961
-0.359276
-0.358596
-0.357936
-0.35762
-0.366303
-0.367797
-0.368624
-0.369093
-0.369399
-0.369579
-0.369655
-0.369643
-0.369549
-0.369377
-0.369129
-0.368811
-0.36843
-0.367996
-0.367522
-0.367027
-0.366526
-0.366024
-0.365548
-0.365228
-0.366416
-0.366717
-0.410253
-0.281049
-0.139255
-0.0984918
-0.16767
-0.110109
-0.0644339
-0.111668
-0.136409
-0.11127
-0.0545298
-0.0597438
-0.0794839
-0.073705
-0.0413685
-0.0321057
-0.0145234
-0.0131111
-0.369264
-0.358678
-0.396827
-0.278298
-0.139859
-0.106817
-0.166903
-0.109054
-0.0657142
-0.113022
-0.138148
-0.112431
-0.0543789
-0.0592266
-0.0784256
-0.0727751
-0.0408478
-0.0316928
-0.0143037
-0.0131025
-0.372502
-0.349911
-0.381292
-0.274764
-0.140214
-0.115089
-0.166039
-0.107821
-0.0668927
-0.114134
-0.139753
-0.113464
-0.0542116
-0.0586785
-0.0773467
-0.0718251
-0.0403105
-0.0312549
-0.0140765
-0.013085
-0.376218
-0.340448
-0.363522
-0.27027
-0.140338
-0.123053
-0.165079
-0.106411
-0.0679267
-0.114966
-0.141203
-0.114359
-0.0540411
-0.0581114
-0.0762602
-0.0708629
-0.0397566
-0.0307897
-0.0138368
-0.0130537
-0.38047
-0.330336
-0.343446
-0.26464
-0.14029
-0.130532
-0.164013
-0.104831
-0.068775
-0.115488
-0.142472
-0.115106
-0.0538798
-0.057537
-0.075178
-0.0698959
-0.0391861
-0.030295
-0.0135801
-0.0130034
-0.385278
-0.319636
-0.321081
-0.257721
-0.140164
-0.137429
-0.162825
-0.103085
-0.0693992
-0.115671
-0.143533
-0.115697
-0.053739
-0.0569661
-0.0741108
-0.0689305
-0.038599
-0.029769
-0.0133021
-0.0129299
-0.390621
-0.308422
-0.296559
-0.249393
-0.140088
-0.143714
-0.1615
-0.101182
-0.069766
-0.115494
-0.144361
-0.116124
-0.0536294
-0.0564094
-0.0730683
-0.0679725
-0.0379954
-0.0292105
-0.0129993
-0.0128288
-0.39643
-0.296786
-0.270156
-0.23958
-0.140196
-0.1494
-0.160026
-0.0991332
-0.069848
-0.114944
-0.144928
-0.116378
-0.0535606
-0.0558769
-0.0720588
-0.0670271
-0.0373755
-0.0286182
-0.0126682
-0.0126963
-0.402589
-0.28484
-0.242298
-0.228252
-0.140606
-0.154518
-0.158396
-0.0969482
-0.069625
-0.114017
-0.14521
-0.116452
-0.0535407
-0.0553775
-0.0710897
-0.0660985
-0.0367395
-0.0279913
-0.0123058
-0.012529
-0.408944
-0.272721
-0.213545
-0.21543
-0.141394
-0.159103
-0.156606
-0.0946392
-0.0690856
-0.112717
-0.145182
-0.116342
-0.0535761
-0.0549193
-0.0701669
-0.0651904
-0.036088
-0.0273293
-0.0119094
-0.0123236
-0.415306
-0.260608
-0.184568
-0.201199
-0.142577
-0.163179
-0.154657
-0.0922194
-0.0682276
-0.111056
-0.144824
-0.116042
-0.0536719
-0.0545096
-0.0692956
-0.064306
-0.0354216
-0.0266319
-0.0114762
-0.0120772
-0.421472
-0.24874
-0.156093
-0.185724
-0.144101
-0.166761
-0.152555
-0.0897084
-0.0670544
-0.109053
-0.144119
-0.115549
-0.0538314
-0.0541545
-0.0684795
-0.0634482
-0.0347415
-0.0258994
-0.0110038
-0.0117875
-0.427242
-0.23744
-0.128846
-0.169261
-0.145854
-0.169853
-0.150317
-0.0871337
-0.0655688
-0.106732
-0.143054
-0.114861
-0.0540564
-0.0538589
-0.0677214
-0.0626187
-0.0340494
-0.0251319
-0.01049
-0.0114523
-0.432423
-0.227097
-0.103487
-0.152156
-0.147683
-0.172453
-0.14796
-0.0845081
-0.0637715
-0.104114
-0.141623
-0.113975
-0.0543468
-0.0536267
-0.0670229
-0.0618155
-0.0333458
-0.0243276
-0.00993326
-0.0110698
-0.436793
-0.218019
-0.0805436
-0.134822
-0.14942
-0.174559
-0.145461
-0.0817865
-0.0616901
-0.10122
-0.139822
-0.112891
-0.0547011
-0.0534609
-0.0663851
-0.0610336
-0.0326269
-0.0234835
-0.00933329
-0.0106392
-0.440049
-0.210248
-0.0603585
-0.117709
-0.150912
-0.17616
-0.142745
-0.078894
-0.0594249
-0.0981028
-0.137651
-0.111608
-0.0551156
-0.0533639
-0.0658089
-0.06028
-0.0318897
-0.022608
-0.00868862
-0.0101605
-0.442092
-0.204033
-0.0431584
-0.10125
-0.152034
-0.177234
-0.139863
-0.0759769
-0.0571019
-0.0948634
-0.135126
-0.110125
-0.0555852
-0.0533342
-0.0652897
-0.0595982
-0.0311546
-0.0217378
-0.00799121
-0.00963385
-0.443559
-0.20126
-0.0293086
-0.0857745
-0.152628
-0.177783
-0.13735
-0.0736625
-0.0545706
-0.0914825
-0.132304
-0.108441
-0.0561028
-0.0533477
-0.0648063
-0.059036
-0.030483
-0.0209019
-0.00723491
-0.00905724
-0.444499
-0.204113
-0.0190242
-0.0714783
-0.152561
-0.178032
-0.135792
-0.0722888
-0.051097
-0.0874794
-0.129199
-0.106559
-0.0566617
-0.0533846
-0.0643522
-0.0584417
-0.0298809
-0.0199597
-0.00647149
-0.00842776
-0.439574
-0.205036
-0.010191
-0.0594811
-0.152765
-0.178463
-0.133321
-0.0695477
-0.0462485
-0.0824954
-0.125279
-0.104486
-0.0572831
-0.0537683
-0.0640805
-0.0572493
-0.0290179
-0.0184972
-0.00584742
-0.00778029
-0.382953
-0.175454
0.0367493
-0.00860295
-0.158377
-0.182552
-0.109412
-0.0430731
-0.018192
-0.0520554
-0.0933225
-0.0856238
-0.0626156
-0.0621068
-0.0644747
-0.0477663
-0.0217424
-0.00796134
-0.002794
-0.00455502
-0.254997
-0.124696
-0.00304885
-0.0421064
-0.142745
-0.138703
-0.057695
-0.00516521
0.0214451
0.00602668
-0.0303101
-0.0480686
-0.0591304
-0.0670963
-0.0626399
-0.0377682
-0.00464859
0.0121321
0.0135373
0.000354923
-0.176922
-0.114391
-0.0508798
-0.0524896
-0.0844314
-0.0803826
-0.0338053
-0.00136198
0.030791
0.0467817
0.0296739
-0.00679862
-0.0480844
-0.0574877
-0.0459177
-0.0219542
0.00793611
0.0235384
0.0293784
0.00894571
-0.127463
-0.104098
-0.0571607
-0.0268115
-0.0482772
-0.0646509
-0.0220553
0.0200958
0.0440144
0.0551881
0.0466089
0.0143287
-0.0311756
-0.0376644
-0.0240177
-0.00274129
0.020929
0.032133
0.0403447
0.017869
-0.0941282
-0.0813238
-0.0452953
-0.0260406
-0.0396153
-0.0422719
-0.00732172
0.0264554
0.0464328
0.0542094
0.044795
0.0239186
-0.00777744
-0.0137603
-0.0057341
0.00956763
0.0275477
0.0384972
0.0464437
0.0233834
-0.0674187
-0.061078
-0.042495
-0.0287006
-0.0264912
-0.0239003
-0.000267628
0.0276992
0.0425178
0.0456469
0.0407223
0.0326673
0.0112631
0.000200843
0.00430267
0.0181429
0.0318994
0.0412669
0.0448806
0.0238621
-0.0489287
-0.0477305
-0.0370562
-0.0240604
-0.0165233
-0.0124909
0.00192444
0.022556
0.0358646
0.0404861
0.0392464
0.0337104
0.0186714
0.00956022
0.0126712
0.0227266
0.032169
0.0402897
0.0396142
0.0217571
-0.0357188
-0.0362919
-0.0291385
-0.0185898
-0.011241
-0.00811513
0.00141185
0.0195202
0.033176
0.0368904
0.0339375
0.0296426
0.0224403
0.0162458
0.0169792
0.0238819
0.0309851
0.0370677
0.0331464
0.0179076
-0.0255693
-0.0266277
-0.0217637
-0.0146215
-0.00937056
-0.0051451
0.00415767
0.0189899
0.029077
0.0304519
0.028092
0.0269027
0.0243718
0.0197338
0.0190403
0.0236555
0.0283556
0.0315746
0.0263687
0.0137532
-0.0176727
-0.0188617
-0.0160982
-0.0116723
-0.0067472
-0.00093535
0.00659259
0.0162373
0.0234433
0.0255472
0.0253733
0.0254492
0.0244321
0.0209371
0.0194028
0.0219434
0.0247245
0.0259868
0.0207848
0.0103794
-0.0115208
-0.0129296
-0.0115081
-0.00803264
-0.00336008
0.00161785
0.00669937
0.0134494
0.0200611
0.0233328
0.0237796
0.0234238
0.022776
0.0204235
0.0188325
0.020106
0.0216595
0.0215831
0.0164346
0.00767795
-0.0067115
-0.00813726
-0.00721088
-0.00448096
-0.00104616
0.00265324
0.00682283
0.0125096
0.0183824
0.0214031
0.0214864
0.020843
0.0208053
0.0197875
0.0184953
0.0186511
0.0189464
0.0178284
0.0129815
0.00573517
-0.00277073
-0.00406264
-0.00356818
-0.00178159
0.000639274
0.00376325
0.00760498
0.0122468
0.0166972
0.01899
0.0192079
0.0191033
0.0196611
0.0192513
0.0177955
0.0169372
0.0163531
0.0148743
0.0106345
0.00450604
0.000545303
-0.000702174
-0.000660873
0.000444976
0.00232029
0.00501706
0.00826255
0.0117268
0.0149639
0.0170586
0.0179155
0.0182304
0.0186054
0.0180837
0.0165952
0.0154183
0.0144786
0.0128823
0.00902731
0.00359927
0.00339298
0.00207743
0.0017669
0.00241781
0.00386163
0.0060067
0.00853304
0.0111807
0.0138596
0.0159973
0.0170807
0.0172481
0.0172426
0.0168051
0.0156859
0.0144684
0.0131681
0.0113124
0.00772105
0.0029431
0.00590923
0.0044283
0.00380319
0.00406753
0.00508302
0.00669739
0.00871501
0.0109789
0.0133311
0.0151998
0.0161005
0.0161873
0.0161931
0.0159862
0.0150666
0.0136716
0.0120072
0.009997
0.00677621
0.00256485
0.00821341
0.00640383
0.00544373
0.00535713
0.00601381
0.00727537
0.00900243
0.0109733
0.0129079
0.0144065
0.0152494
0.0155122
0.0155902
0.0153498
0.0143917
0.0129048
0.0111152
0.00910825
0.00617246
0.00231352
0.0102723
0.00798768
0.00668138
0.00631716
0.0067431
0.00779476
0.00927939
0.0109309
0.0125223
0.0138453
0.0147565
0.0151285
0.0151113
0.0147241
0.0137824
0.0123767
0.0105923
0.00854931
0.00572505
0.0021094
0.0119709
0.00912546
0.00752359
0.00698737
0.00727914
0.00817145
0.00944597
0.0108851
0.012323
0.013572
0.0144611
0.0148088
0.0147182
0.0143069
0.013438
0.0120869
0.010262
0.00815222
0.00541564
0.00199326
0.0130401
0.00973625
0.00796358
0.00735084
0.00757011
0.00835983
0.00952287
0.0108892
0.0122832
0.0134666
0.0142768
0.014592
0.0145229
0.0141606
0.0133175
0.0119378
0.0100506
0.0079261
0.0052841
0.00196194
-0.212709
-0.221559
-0.230216
-0.238729
-0.247152
-0.255543
-0.263969
-0.272501
-0.281211
-0.290174
-0.299447
-0.309093
-0.319094
-0.329458
-0.339925
-0.350444
-0.360195
-0.369686
-0.377301
-0.387875
-0.137616
-0.141469
-0.145112
-0.148547
-0.151771
-0.154785
-0.157586
-0.160171
-0.162539
-0.16469
-0.166624
-0.168358
-0.169908
-0.171339
-0.172704
-0.174206
-0.175974
-0.178592
-0.18249
-0.189829
-0.0887246
-0.0921315
-0.0955167
-0.0988859
-0.102243
-0.105594
-0.108944
-0.112298
-0.115661
-0.119038
-0.122429
-0.125837
-0.129257
-0.132681
-0.136086
-0.139451
-0.142721
-0.14589
-0.148957
-0.152299
-0.064022
-0.0662484
-0.0684285
-0.070565
-0.0726601
-0.0747166
-0.0767372
-0.0787248
-0.0806823
-0.0826124
-0.0845184
-0.0864038
-0.088273
-0.090132
-0.0919891
-0.0938593
-0.0957666
-0.0977675
-0.0999852
-0.102767
-0.0443192
-0.0459613
-0.0475975
-0.0492301
-0.0508613
-0.0524933
-0.0541283
-0.0557686
-0.0574163
-0.0590733
-0.0607415
-0.0624228
-0.0641185
-0.06583
-0.0675578
-0.0693031
-0.0710673
-0.0728629
-0.0747244
-0.0768092
-0.0317017
-0.0329083
-0.0341057
-0.0352946
-0.0364757
-0.0376497
-0.0388175
-0.0399799
-0.0411381
-0.0422931
-0.0434462
-0.0445986
-0.0457521
-0.0469084
-0.0480696
-0.0492388
-0.050422
-0.0516315
-0.0529075
-0.0543635
-0.0219599
-0.0228714
-0.0237795
-0.0246848
-0.025588
-0.0264898
-0.0273907
-0.0282914
-0.0291925
-0.0300947
-0.0309984
-0.0319043
-0.0328129
-0.0337246
-0.03464
-0.0355597
-0.0364859
-0.0374229
-0.0383926
-0.0394549
-0.0148386
-0.0155476
-0.0162539
-0.0169578
-0.0176596
-0.0183597
-0.0190584
-0.0197561
-0.0204532
-0.0211502
-0.0218475
-0.0225456
-0.0232449
-0.0239461
-0.0246497
-0.0253562
-0.026068
-0.0267871
-0.0275313
-0.028336
-0.00927898
-0.00983452
-0.0103879
-0.0109394
-0.0114893
-0.012038
-0.0125856
-0.0131324
-0.0136788
-0.014225
-0.0147714
-0.0153183
-0.0158659
-0.0164145
-0.0169647
-0.0175164
-0.0180714
-0.0186305
-0.0192069
-0.0198217
-0.00498709
-0.00542616
-0.0058633
-0.00629866
-0.00673256
-0.00716516
-0.0075966
-0.00802708
-0.00845679
-0.00888592
-0.00931467
-0.00974322
-0.0101718
-0.0106005
-0.0110297
-0.0114593
-0.0118907
-0.012324
-0.012769
-0.0132394
-0.00158737
-0.00193251
-0.00227621
-0.0026186
-0.00295999
-0.00330048
-0.00364017
-0.00397919
-0.00431766
-0.00465571
-0.00499345
-0.00533096
-0.00566834
-0.00600566
-0.00634306
-0.00668051
-0.00701876
-0.00735782
-0.00770484
-0.00806872
0.00113673
0.000867866
0.000599601
0.000331813
6.42343e-05
-0.000203204
-0.000470568
-0.000737935
-0.00100538
-0.00127298
-0.00154077
-0.00180879
-0.00207707
-0.00234561
-0.00261446
-0.00288356
-0.00315338
-0.00342386
-0.00370002
-0.00398846
0.00343688
0.00323321
0.003029
0.00282414
0.00261841
0.00241178
0.00220422
0.0019957
0.00178619
0.00157569
0.00136421
0.00115176
0.000938377
0.000724116
0.000508992
0.000293101
7.61955e-05
-0.00014173
-0.000364118
-0.000596597
0.00545296
0.00530401
0.00515297
0.00499982
0.0048444
0.00468676
0.00452695
0.00436504
0.0042011
0.00403523
0.00386753
0.00369813
0.00352717
0.00335479
0.00318112
0.00300633
0.00283039
0.00265327
0.00247278
0.00228369
0.00746709
0.00736423
0.00725678
0.00714484
0.0070284
0.00690764
0.00678278
0.00665402
0.00652158
0.0063857
0.00624662
0.00610461
0.00595993
0.00581283
0.00566358
0.00551243
0.00535954
0.0052049
0.00504729
0.00488174
0.00953788
0.00946701
0.00938823
0.00930196
0.00920853
0.00910841
0.00900211
0.00889009
0.00877284
0.00865082
0.0085245
0.00839433
0.00826076
0.00812421
0.0079851
0.00784381
0.00770067
0.00755571
0.00740852
0.00725421
0.0123401
0.0122622
0.0121726
0.0120722
0.0119621
0.0118431
0.0117163
0.0115825
0.0114425
0.0112971
0.0111471
0.0109932
0.0108359
0.0106759
0.0105137
0.0103499
0.0101848
0.0100187
0.00985157
0.00967878
0.0157865
0.0156354
0.0154727
0.0153001
0.0151188
0.0149301
0.0147353
0.0145354
0.0143313
0.0141241
0.0139144
0.0137031
0.0134908
0.013278
0.0130654
0.0128534
0.0126424
0.0124324
0.0122242
0.0120132
0.020844
0.0204275
0.0200178
0.0196151
0.0192196
0.0188317
0.0184516
0.0180793
0.017715
0.0173588
0.0170106
0.0166706
0.0163387
0.0160148
0.015699
0.0153911
0.0150912
0.0147987
0.0145144
0.0142339
0.0262969
0.0255233
0.0247844
0.0240782
0.0234028
0.0227565
0.0221377
0.0215449
0.0209768
0.0204319
0.019909
0.019407
0.0189248
0.0184614
0.0180157
0.017587
0.0171743
0.0167766
0.0163942
0.0160226
0.0364428
0.035633
0.0348574
0.0341143
0.0334018
0.0327182
0.032062
0.0314316
0.0308256
0.0302428
0.0296818
0.0291415
0.028621
0.028119
0.0276348
0.0271673
0.0267159
0.0262794
0.0258578
0.0254475
0.0310232
0.030569
0.0301212
0.0296802
0.0292464
0.0288199
0.028401
0.0279898
0.0275865
0.0271911
0.0268038
0.0264244
0.026053
0.0256897
0.0253343
0.0249869
0.0246473
0.0243152
0.0239911
0.0236712
0.0260216
0.0258309
0.0256283
0.0254156
0.025194
0.0249649
0.0247296
0.024489
0.0242442
0.0239961
0.0237455
0.0234932
0.0232398
0.022986
0.0227323
0.0224791
0.0222271
0.0219761
0.0217268
0.0214752
0.0226558
0.0225359
0.022404
0.022261
0.0221082
0.0219464
0.0217766
0.0215996
0.0214165
0.0212278
0.0210345
0.0208372
0.0206365
0.0204331
0.0202276
0.0200204
0.019812
0.0196027
0.0193924
0.0191771
0.0199642
0.019848
0.0197235
0.0195912
0.0194516