/*--------------------------------*- C++ -*----------------------------------*\
  =========                 |
  \\      /  F ield         | OpenFOAM: The Open Source CFD Toolbox
   \\    /   O peration     | Website:  https://openfoam.org
    \\  /    A nd           | Version:  6.0
     \\/     M anipulation  |
\*---------------------------------------------------------------------------*/
FoamFile
{
    version     2.0;
    format      ascii;
    class       surfaceScalarField;
    location    "70";
    object      phi;
}
// * * * * * * * * * * * * * * * * * * * * * * * * * * * * * * * * * * * * * //

dimensions      [0 3 -1 0 0 0 0];

internalField   nonuniform List<scalar> 
7840
(
-4.82769e-06
4.09127e-05
-3.6085e-05
-1.65028e-05
8.24784e-05
-7.08033e-05
-3.29626e-05
9.66818e-05
-8.0222e-05
-5.26249e-05
9.2742e-05
-7.30797e-05
-7.42614e-05
7.73094e-05
-5.56729e-05
-9.6908e-05
5.49547e-05
-3.23081e-05
-0.000119795
2.86677e-05
-5.78093e-06
-0.000142297
2.94841e-07
2.22069e-05
-0.000163903
-2.91004e-05
5.07069e-05
-0.000184204
-5.89563e-05
7.92574e-05
-0.000202886
-8.90099e-05
0.000107691
-0.000219731
-0.00011916
0.000136005
-0.000234625
-0.000149389
0.000164283
-0.000247562
-0.000179715
0.000192652
-0.000258644
-0.000210185
0.000221267
-0.00026808
-0.000240871
0.000250307
-0.000276184
-0.000271864
0.000279967
-0.000283357
-0.000303295
0.000310469
-0.000290082
-0.000335413
0.000342137
-0.000368594
0.000375425
-0.000296912
-5.02183e-06
4.59345e-05
-1.72344e-05
9.4691e-05
-3.45664e-05
0.000114014
-5.54245e-05
0.0001136
-7.85625e-05
0.000100448
-0.000102995
7.93871e-05
-0.000127928
5.36012e-05
-0.000152714
2.50806e-05
-0.000176818
-4.99662e-06
-0.000199804
-3.59699e-05
-0.000221333
-6.74814e-05
-0.000241159
-9.93337e-05
-0.000259143
-0.000131405
-0.000275251
-0.000163607
-0.000289564
-0.000195873
-0.000302272
-0.000228162
-0.000313676
-0.00026046
-0.00032417
-0.000292801
-0.00033423
-0.000325353
-0.000358416
-0.000344408
-5.10205e-06
5.10365e-05
-1.75986e-05
0.000107188
-3.54598e-05
0.000131875
-5.71115e-05
0.000135252
-8.13063e-05
0.000124642
-0.000107046
0.000105127
-0.000133518
8.00736e-05
-0.000160052
5.16147e-05
-0.000186088
2.10387e-05
-0.000211159
-1.08988e-05
-0.00023489
-4.37501e-05
-0.000256998
-7.72259e-05
-0.000277297
-0.000111105
-0.000295712
-0.000145192
-0.000312279
-0.000179306
-0.000327157
-0.000213284
-0.000340622
-0.000246995
-0.000353058
-0.000280365
-0.00036495
-0.000313461
-0.000346493
-0.000376873
-5.03761e-06
5.60742e-05
-1.74948e-05
0.000119645
-3.54466e-05
0.000149827
-5.73742e-05
0.000157179
-8.20502e-05
0.000149318
-0.000108476
0.000131552
-0.000135827
0.000107425
-0.000163414
7.92014e-05
-0.00019065
4.82745e-05
-0.000217036
1.54876e-05
-0.000242156
-1.86307e-05
-0.000265673
-5.37081e-05
-0.000287346
-8.94328e-05
-0.000307032
-0.000125506
-0.000324708
-0.00016163
-0.000340478
-0.000197514
-0.000354579
-0.000232893
-0.000367384
-0.000267561
-0.000379395
-0.00030145
-0.00033465
-0.000391238
-4.80465e-06
6.08788e-05
-1.68439e-05
0.000131684
-3.43677e-05
0.000167351
-5.59536e-05
0.000178765
-8.04185e-05
0.000173783
-0.000106778
0.000157911
-0.000134204
0.000134852
-0.000161994
0.000106991
-0.000189536
7.58172e-05
-0.000216301
4.22521e-05
-0.000241825
6.8931e-06
-0.000265714
-2.98183e-05
-0.000287655
-6.74924e-05
-0.000307424
-0.000105737
-0.000324914
-0.00014414
-0.000340154
-0.000182274
-0.000353326
-0.000219722
-0.000364775
-0.000256111
-0.000375032
-0.000291194
-0.000324885
-0.000384797
-4.38988e-06
6.52687e-05
-1.55969e-05
0.000142891
-3.21178e-05
0.000183871
-5.26684e-05
0.000199316
-7.61357e-05
0.000197251
-0.000101564
0.00018334
-0.000128134
0.000161421
-0.000155133
0.00013399
-0.000181935
0.000102618
-0.000207977
6.82949e-05
-0.000232756
3.16715e-05
-0.000255816
-6.7576e-06
-0.000276766
-4.65427e-05
-0.000295289
-8.72139e-05
-0.000311176
-0.000128253
-0.000324356
-0.000169094
-0.000334931
-0.000209147
-0.000343206
-0.000247836
-0.000349732
-0.000284668
-0.000319309
-0.000355307
-3.79254e-06
6.90612e-05
-1.3743e-05
0.000152842
-2.86607e-05
0.000198789
-4.74387e-05
0.000218094
-6.90584e-05
0.00021887
-9.26091e-05
0.000206891
-0.000117287
0.0001861
-0.000142382
0.000159084
-0.000167256
0.000127492
-0.000191327
9.23658e-05
-0.000214053
5.43977e-05
-0.000234927
1.41166e-05
-0.000253481
-2.79893e-05
-0.000269301
-7.13938e-05
-0.000282063
-0.000115491
-0.000291576
-0.000159581
-0.000297834
-0.00020289
-0.000301074
-0.000244596
-0.000301852
-0.000283889
-0.000320078
-0.000301084
-3.02697e-06
7.20882e-05
-1.13165e-05
0.000161131
-2.40424e-05
0.000211515
-4.03068e-05
0.000234358
-5.92057e-05
0.000237769
-7.98868e-05
0.000227572
-0.000101573
0.000207786
-0.000123562
0.000181073
-0.000145215
0.000149145
-0.000165938
0.000113089
-0.000185167
7.36266e-05
-0.000202354
3.13036e-05
-0.000216968
-1.33754e-05
-0.000228507
-5.98545e-05
-0.000236532
-0.000107466
-0.000240716
-0.000155397
-0.000240919
-0.000202687
-0.000237273
-0.000248242
-0.000230313
-0.000290849
-0.000329319
-0.000221073
-2.12308e-06
7.42113e-05
-8.39943e-06
0.000167408
-1.8398e-05
0.000221513
-3.145e-05
0.00024741
-4.67808e-05
0.0002531
-6.36068e-05
0.000244398
-8.11846e-05
0.000225364
-9.88279e-05
0.000198717
-0.000115904
0.000166221
-0.000131819
0.000129004
-0.000146001
8.78086e-05
-0.000157883
4.3185e-05
-0.000166893
-4.3653e-06
-0.000172463
-5.42844e-05
-0.000174052
-0.000105877
-0.0001712
-0.000158249
-0.000163613
-0.000210274
-0.000151282
-0.000260573
-0.000134671
-0.000307461
-0.000349064
-0.000114925
-1.12532e-06
7.53366e-05
-5.11956e-06
0.000171402
-1.19502e-05
0.000228344
-2.11824e-05
0.000256643
-3.21778e-05
0.000264095
-4.42273e-05
0.000256447
-5.66263e-05
0.000237763
-6.87085e-05
0.000210799
-7.98533e-05
0.000177366
-8.94768e-05
0.000138628
-9.70139e-05
9.53457e-05
-0.0001019
4.80707e-05
-0.000103553
-2.71171e-06
-0.000101373
-5.64648e-05
-9.4749e-05
-0.0001125
-8.31086e-05
-0.000169889
-6.60021e-05
-0.000227381
-4.32496e-05
-0.000283325
-1.5193e-05
-0.000335517
-0.000381194
1.69369e-05
-8.98702e-08
7.54265e-05
-1.64321e-06
0.000172955
-4.99791e-06
0.000231699
-9.94107e-06
0.000261586
-1.59676e-05
0.000270122
-2.24438e-05
0.000262924
-2.87054e-05
0.000244024
-3.41075e-05
0.000216201
-3.80441e-05
0.000181303
-3.99461e-05
0.00014053
-3.92671e-05
9.46668e-05
-3.54638e-05
4.42674e-05
-2.7975e-05
-1.02005e-05
-1.6206e-05
-6.82337e-05
4.73866e-07
-0.00012918
2.27062e-05
-0.000192121
5.10679e-05
-0.000255742
8.59167e-05
-0.000318174
0.000127081
-0.000376682
-0.000427401
0.000173288
9.2014e-07
7.45063e-05
1.83854e-06
0.000172037
2.10727e-06
0.00023143
1.74744e-06
0.000261946
1.14381e-06
0.000270725
8.59535e-07
0.000263208
1.52112e-06
0.000243362
3.75347e-06
0.000213969
8.14972e-06
0.000176907
1.52643e-05
0.000133415
2.5621e-05
8.43101e-05
3.97295e-05
3.01588e-05
5.81079e-05
-2.85789e-05
8.1305e-05
-9.14308e-05
0.000109918
-0.000157794
0.000144593
-0.000226796
0.000185972
-0.000297122
0.000234559
-0.000366761
0.000290375
-0.000432497
-0.000489183
0.000352157
1.841e-06
7.26653e-05
5.12886e-06
0.000168749
8.99597e-06
0.000227563
1.33189e-05
0.000257623
1.83855e-05
0.000265659
2.46997e-05
0.000256894
3.28563e-05
0.000235206
4.34657e-05
0.000203359
5.71137e-05
0.000163259
7.43458e-05
0.000116183
9.56668e-05
6.29891e-05
0.000121551
4.27451e-06
0.000152461
-5.94886e-05
0.000188869
-0.000127839
0.000231288
-0.000200212
0.000280289
-0.000275796
0.00033649
-0.000353323
0.000400459
-0.00043073
0.000472384
-0.000504422
-0.000567855
0.000551055
2.61577e-06
7.00496e-05
8.0482e-06
0.000163316
1.53248e-05
0.000220286
2.42401e-05
0.000248707
3.50184e-05
0.00025488
4.81227e-05
0.00024379
6.41271e-05
0.000219201
8.36371e-05
0.000183849
0.000107241
0.000139655
0.000135486
8.7938e-05
0.000168868
2.96072e-05
0.000207833
-3.469e-05
0.000252783
-0.000104439
0.000304099
-0.000179155
0.000362162
-0.000258275
0.00042739
-0.000341025
0.000500265
-0.000426197
0.000581286
-0.000511751
0.000670716
-0.000593852
-0.000664557
0.000767419
3.2018e-06
6.68478e-05
1.04586e-05
0.00015606
2.08246e-05
0.00020992
3.4086e-05
0.000235446
5.0447e-05
0.000238519
7.03557e-05
0.000223881
9.43838e-05
0.000195173
0.000123146
0.000155087
0.000157248
0.000105553
0.000197251
4.79342e-05
0.000243658
-1.67992e-05
0.000296893
-8.79249e-05
0.000357303
-0.00016485
0.000425159
-0.000247011
0.000500671
-0.000333788
0.000584029
-0.000424382
0.000675448
-0.000517617
0.000775197
-0.0006115
0.000883453
-0.000702108
-0.000780216
0.000999111
3.5774e-06
6.32704e-05
1.22861e-05
0.000147351
2.53453e-05
0.000196861
4.26149e-05
0.000218176
6.43308e-05
0.000216803
9.09615e-05
0.00019725
0.000123102
0.000163033
0.000161397
0.000116792
0.000206488
6.04622e-05
0.000258968
-4.54537e-06
0.000319351
-7.71823e-05
0.000388047
-0.000156621
0.000465337
-0.00024214
0.000551359
-0.000333034
0.000646108
-0.000428537
0.000749459
-0.000527733
0.000861232
-0.00062939
0.000981278
-0.000731547
0.00110947
-0.000830299
-0.000915363
0.00124462
3.74682e-06
5.95235e-05
1.35376e-05
0.00013756
2.8892e-05
0.000181507
4.98282e-05
0.00019724
7.66738e-05
0.000189958
0.000109961
0.000163963
0.000150343
0.000122651
0.000198522
6.86126e-05
0.000255192
3.7928e-06
0.000320985
-7.03384e-05
0.000396427
-0.000152625
0.000481894
-0.000242087
0.000577565
-0.000337811
0.000683394
-0.000438862
0.000799085
-0.000544227
0.000924104
-0.000652753
0.00105775
-0.000763038
0.00119928
-0.000873079
0.00134802
-0.000979039
-0.00106981
0.00150247
3.7422e-06
5.57813e-05
1.43086e-05
0.000126994
3.16415e-05
0.000164174
5.60008e-05
0.000172881
8.78698e-05
0.000158089
0.000127896
0.000123937
0.000176828
7.37188e-05
0.000235451
9.98935e-06
0.000304523
-6.52788e-05
0.000384707
-0.000150522
0.000476508
-0.000244427
0.000580211
-0.000345789
0.000695813
-0.000453413
0.000822982
-0.000566031
0.000961016
-0.000682261
0.00110885
-0.000800587
0.00126513
-0.00091932
0.00142841
-0.00103636
0.00159732
-0.00114795
-0.00124232
0.00176984
3.62217e-06
5.21592e-05
1.47793e-05
0.000115837
3.39359e-05
0.000145017
6.16706e-05
0.000145146
9.86863e-05
0.000121073
0.000145796
7.68267e-05
0.000203879
1.56359e-05
0.000273816
-5.99476e-05
0.000356414
-0.000147877
0.000452321
-0.00024643
0.000561946
-0.000354051
0.00068537
-0.000469214
0.000822286
-0.000590329
0.000971934
-0.00071568
0.00113308
-0.000843404
0.00130399
-0.000971498
0.00148252
-0.00109785
0.00166631
-0.00122015
0.00185327
-0.00133491
-0.00143026
0.00204121
3.46627e-06
4.86929e-05
1.51967e-05
0.000104106
3.62485e-05
0.000123965
6.75827e-05
0.000113812
0.000110178
7.84781e-05
0.000165051
2.19533e-05
0.000233227
-5.25401e-05
0.000315663
-0.000142384
0.000413154
-0.000245368
0.000526231
-0.000359507
0.000655057
-0.000482877
0.000799345
-0.000613502
0.000958303
-0.000749287
0.00113061
-0.000887991
0.00131445
-0.00102724
0.00150752
-0.00116456
0.00170708
-0.00129741
0.00190986
-0.00142294
0.00211143
-0.00153648
-0.00162307
0.00230423
3.36495e-06
4.53279e-05
1.58447e-05
9.16267e-05
3.91246e-05
0.000100685
7.45913e-05
7.83453e-05
0.000123534
2.95353e-05
0.00018719
-4.17021e-05
0.000266702
-0.000132053
0.000363032
-0.000238714
0.000476836
-0.000359172
0.000608342
-0.000491012
0.000757244
-0.000631779
0.000922642
-0.000778899
0.00110302
-0.00092967
0.00129633
-0.0010813
0.00150007
-0.00123098
0.00171154
-0.00137603
0.00192809
-0.00151396
0.00214769
-0.00164253
0.00237093
-0.00175972
-0.00185878
0.00260665
3.41061e-06
4.19173e-05
1.70109e-05
7.80264e-05
4.31112e-05
7.4585e-05
8.35389e-05
3.79176e-05
0.000139898
-2.6824e-05
0.000213614
-0.000115418
0.000305871
-0.00022431
0.000417489
-0.000350332
0.00054878
-0.000490463
0.000699414
-0.000641646
0.000868333
-0.000800698
0.00105374
-0.000964303
0.00125314
-0.00112907
0.00146352
-0.00129167
0.0016815
-0.00144896
0.00190363
-0.00159816
0.00212663
-0.00173697
0.00234779
-0.00186369
0.00256546
-0.00197739
-0.00207374
0.00278041
3.68159e-06
3.82358e-05
1.89427e-05
6.27653e-05
4.86757e-05
4.4852e-05
9.5127e-05
-8.53369e-06
0.000160175
-9.18716e-05
0.000245345
-0.000200588
0.000351711
-0.000330676
0.000479738
-0.000478359
0.000629118
-0.000639844
0.000798667
-0.000811195
0.00098629
-0.000988321
0.00118906
-0.00116707
0.00140337
-0.00134338
0.0016252
-0.0015135
0.00185038
-0.00167415
0.00207491
-0.00182269
0.00229514
-0.0019572
0.002508
-0.00207656
0.00271101
-0.0021804
-0.00226626
0.00290353
4.23559e-06
3.40002e-05
2.18213e-05
4.51796e-05
5.615e-05
1.05232e-05
0.000109822
-6.22057e-05
0.000184893
-0.000166942
0.000282836
-0.000298532
0.000404392
-0.000452232
0.000549387
-0.000623353
0.000716589
-0.000807046
0.000903666
-0.000998271
0.00110727
-0.00119192
0.00132323
-0.00138303
0.00154688
-0.00156703
0.00177339
-0.00174002
0.00199813
-0.0018989
0.00221696
-0.00204152
0.00242644
-0.00216667
0.0026239
-0.00227402
0.00280753
-0.00236403
-0.0024362
0.00297747
5.10407e-06
2.88961e-05
2.57441e-05
2.45396e-05
6.56963e-05
-2.9429e-05
0.000127801
-0.000124311
0.000214135
-0.000253276
0.000325897
-0.000410293
0.000463208
-0.000589544
0.000624937
-0.000785082
0.000808624
-0.000990733
0.00101057
-0.00120021
0.00122607
-0.00140742
0.00144981
-0.00160677
0.0016763
-0.00179352
0.00190031
-0.00196403
0.00211723
-0.00211581
0.00232332
-0.00224761
0.00251588
-0.00235923
0.00269321
-0.00245135
0.00285453
-0.00252535
-0.00258225
0.00300058
6.29287e-06
2.26032e-05
3.07249e-05
1.0759e-07
7.73054e-05
-7.60095e-05
0.000148952
-0.000195958
0.000247544
-0.000351868
0.00037372
-0.000536469
0.000526656
-0.00074248
0.000703943
-0.00096237
0.000901653
-0.00118844
0.00111462
-0.00141318
0.00133688
-0.00162968
0.00156225
-0.00183214
0.00178485
-0.00201613
0.00199958
-0.00217875
0.00220237
-0.00231861
0.00239042
-0.00243566
0.0025621
-0.00253091
0.00271693
-0.00260617
0.00285531
-0.00266372
-0.00270567
0.00297872
7.78741e-06
1.48158e-05
3.67071e-05
-2.88121e-05
9.0821e-05
-0.000130123
0.000172912
-0.000278049
0.000284385
-0.000463341
0.00042499
-0.000677074
0.000592619
-0.000910108
0.000783314
-0.00115307
0.000991553
-0.00139668
0.00121078
-0.0016324
0.00143407
-0.00185297
0.00165482
-0.0020529
0.00186732
-0.00222863
0.00206712
-0.00237855
0.0022512
-0.00250269
0.00241796
-0.00260242
0.00256705
-0.00268001
0.00269915
-0.00273827
0.00281564
-0.00278021
-0.00280862
0.00291859
9.56004e-06
5.25578e-06
4.35838e-05
-6.28359e-05
0.000105976
-0.000192515
0.000199124
-0.000371197
0.000323638
-0.000587855
0.000478024
-0.00083146
0.000658583
-0.00109067
0.000859638
-0.00135412
0.00107411
-0.00161116
0.00129434
-0.00185263
0.0015129
-0.00207153
0.00172333
-0.00226333
0.00192065
-0.00242595
0.00210153
-0.00255942
0.00226426
-0.00266542
0.00240857
-0.00274673
0.00253532
-0.00280675
0.00264611
-0.00284907
0.00274305
-0.00287715
-0.00289411
0.00282854
1.15767e-05
-6.32095e-06
5.12163e-05
-0.000102475
0.000122426
-0.000263724
0.000226896
-0.000475668
0.000364087
-0.000725045
0.000530919
-0.000998293
0.000721869
-0.00128162
0.000929523
-0.00156177
0.00114549
-0.00182712
0.00136143
-0.00206857
0.00157001
-0.00228011
0.0017655
-0.00245882
0.00194409
-0.00260454
0.00210384
-0.00271917
0.00224445
-0.00280603
0.00236688
-0.00286916
0.00247293
-0.00291279
0.00256485
-0.00294099
0.00264509
-0.00295739
-0.00296515
0.00271614
1.38014e-05
-2.01223e-05
5.94476e-05
-0.000148122
0.000139776
-0.000344053
0.000255445
-0.000591337
0.000404398
-0.000873998
0.00058168
-0.00117557
0.00077984
-0.00147978
0.000989888
-0.00177182
0.00120253
-0.00203976
0.00140935
-0.00227539
0.00160367
-0.00247443
0.00178097
-0.00263612
0.0019389
-0.00276247
0.00207699
-0.00285727
0.00219622
-0.00292526
0.00229851
-0.00297145
0.00238629
-0.00300057
0.00246215
-0.00301684
0.00252858
-0.00302383
-0.00302451
0.00258794
1.61969e-05
-3.63192e-05
6.8107e-05
-0.000200032
0.000157594
-0.00043354
0.000283925
-0.000717668
0.000443187
-0.00103326
0.000628347
-0.00136073
0.000830094
-0.00168152
0.00103821
-0.00197994
0.00124305
-0.00224461
0.00143672
-0.00246907
0.00161372
-0.00265142
0.00177103
-0.00279343
0.00190785
-0.00289928
0.00202505
-0.00297447
0.00212463
-0.00302484
0.00220915
-0.00305598
0.00228136
-0.00307279
0.00234389
-0.00307937
0.00239908
-0.00307903
-0.00307444
0.00244901
1.87246e-05
-5.50438e-05
7.70108e-05
-0.000258318
0.000175418
-0.000531948
0.000311459
-0.000853709
0.000479081
-0.00120088
0.000669116
-0.00155077
0.000870633
-0.00188304
0.00107269
-0.002182
0.00126591
-0.00243783
0.00144346
-0.00264661
0.00160135
-0.00280931
0.00173818
-0.00293026
0.00185458
-0.00301569
0.00195253
-0.00307241
0.0020347
-0.00310702
0.00210401
-0.00312528
0.00216322
-0.003132
0.00221481
-0.00313096
0.00226086
-0.00312507
-0.00311666
0.00230308
2.13413e-05
-7.63851e-05
8.59595e-05
-0.000322936
0.000192761
-0.000638749
0.000337163
-0.000998111
0.00051079
-0.00137451
0.000702444
-0.00174242
0.000899987
-0.00208058
0.00109235
-0.00237435
0.00127099
-0.00261647
0.00143054
-0.00280617
0.00156869
-0.00294746
0.00168558
-0.00304716
0.00178304
-0.00311315
0.00186382
-0.00315319
0.00193096
-0.00317416
0.00198745
-0.00318177
0.0020359
-0.00318045
0.0020785
-0.00317356
0.002117
-0.00316357
-0.00315244
0.00215278
2.39984e-05
-0.000100383
9.47387e-05
-0.000393677
0.000209121
-0.000753131
0.000360186
-0.00114918
0.000537179
-0.0015515
0.000727147
-0.00193239
0.00091728
-0.00227072
0.00109698
-0.00255406
0.00125903
-0.00277851
0.00139974
-0.00294688
0.00151846
-0.00306618
0.00161667
-0.00314536
0.00169706
-0.00319354
0.00176286
-0.00321898
0.00181722
-0.00322853
0.00186297
-0.00322752
0.00190246
-0.00321994
0.00193755
-0.00320864
0.00196965
-0.00319568
-0.00318263
0.00199984
2.6641e-05
-0.000127024
0.000103122
-0.000470157
0.000224003
-0.000874012
0.00037975
-0.00130492
0.000557329
-0.00172908
0.000742453
-0.00211752
0.000922237
-0.0024505
0.0010871
-0.00271891
0.00123144
-0.00292285
0.00135333
-0.00306877
0.00145359
-0.00316644
0.00153474
-0.00322651
0.00160008
-0.00325888
0.00165297
-0.00327188
0.0016965
-0.00327205
0.00173321
-0.00326423
0.00176513
-0.00325186
0.00179378
-0.00323729
0.00182028
-0.00322218
-0.00320779
0.00184544
2.92089e-05
-0.000156233
0.000110877
-0.000551826
0.000236938
-0.00100007
0.000395197
-0.00146318
0.000570588
-0.00190447
0.000748022
-0.00229495
0.000915121
-0.0026176
0.00106373
-0.00286752
0.00119003
-0.00304916
0.00129375
-0.00317249
0.00137692
-0.00324962
0.00144282
-0.00329241
0.00149502
-0.00331107
0.00153685
-0.00331371
0.00157115
-0.00330635
0.00160013
-0.00329322
0.00162549
-0.00327721
0.00164844
-0.00326024
0.00166986
-0.0032436
-0.00322826
0.00169032
3.1638e-05
-0.000187871
0.000117779
-0.000637967
0.000247508
-0.0011298
0.000406016
-0.00162169
0.000576593
-0.00207505
0.00074392
-0.00246228
0.000896638
-0.00277032
0.00102829
-0.00299917
0.00113683
-0.0031577
0.00122344
-0.00325909
0.00129109
-0.00331728
0.00134349
-0.00334481
0.00138427
-0.00335185
0.00141657
-0.00334601
0.0014429
-0.00333267
0.00146513
-0.00331545
0.00148464
-0.00329672
0.00150238
-0.00327799
0.00151902
-0.00326023
-0.00324422
0.00153498
3.38625e-05
-0.000221734
0.000123615
-0.00072772
0.000255366
-0.00126155
0.000411873
-0.0017782
0.000575266
-0.00223844
0.00073056
-0.00261757
0.000867812
-0.00290757
0.000982381
-0.00311374
0.00107389
-0.00324921
0.00114467
-0.00332988
0.00119838
-0.00337099
0.0012389
-0.00338533
0.00126973
-0.00338268
0.00129372
-0.00337
0.00131303
-0.00335198
0.0013292
-0.00333163
0.00134334
-0.00331085
0.00135617
-0.00329082
0.0013682
-0.00327226
-0.00325576
0.00137974
3.58217e-05
-0.000257556
0.000128209
-0.000820107
0.00026027
-0.00139361
0.000412632
-0.00193056
0.000566803
-0.00239261
0.00070864
-0.00275941
0.000829877
-0.00302881
0.000927683
-0.00321155
0.00100313
-0.00332466
0.00105947
-0.00338621
0.00110072
-0.00341224
0.00113076
-0.00341537
0.00115284
-0.00340476
0.00116946
-0.00338663
0.00118244
-0.00336496
0.00119304
-0.00334223
0.0012021
-0.00331991
0.00121019
-0.00329892
0.0012177
-0.00327977
-0.0032629
0.00122485
3.74614e-05
0.000131417
0.000262069
0.000408318
0.000551599
0.000679019
0.000784134
0.000865808
0.00092632
0.000969553
0.000999682
0.00102041
0.00103469
0.00104465
0.0010518
0.00105712
0.00106129
0.00106473
0.00106775
0.00107048
3.56233e-05
0.000213401
0.000127253
0.000703736
0.00025788
0.00122261
0.000408181
0.00172532
0.000559874
0.0021733
0.000699097
0.00254245
0.000817843
0.0028251
0.000913456
0.00302656
0.000987097
0.00315972
0.00104203
0.00324007
0.00108222
0.00328246
0.00111149
0.00329925
0.00113299
0.00329989
0.00114917
0.00329106
0.00116174
0.00327725
0.0011719
0.00326132
0.00118046
0.00324505
0.00118795
0.00322953
0.0011947
0.00321541
0.00320322
0.0012009
3.3703e-05
0.000179698
0.000122875
0.000614564
0.000253518
0.00109197
0.000408397
0.00157044
0.000569787
0.00201191
0.000722927
0.00238931
0.000858099
0.00268993
0.000970834
0.00291383
0.00106085
0.0030697
0.00113052
0.0031704
0.00118346
0.00322951
0.00122351
0.0032592
0.00125409
0.00326931
0.00127798
0.00326718
0.00129726
0.00325798
0.0013134
0.00324518
0.00132745
0.003231
0.00134009
0.00321689
0.00135179
0.00320372
0.00319221
0.0013628
3.14936e-05
0.000148205
0.000117169
0.000528889
0.000246038
0.000963099
0.000403289
0.00141319
0.00057231
0.00184289
0.000737954
0.00222366
0.000889051
0.00253883
0.00101929
0.00278359
0.00112674
0.00296225
0.0012126
0.00308455
0.00127985
0.00316226
0.00133214
0.00320691
0.00137305
0.0032284
0.00140565
0.00323458
0.00143237
0.00323126
0.00145502
0.00322252
0.0014749
0.00321112
0.00149293
0.00319886
0.0015097
0.00318694
0.0031763
0.00152561
2.90617e-05
0.000119143
0.000110325
0.000447626
0.000235694
0.000837729
0.000392982
0.0012559
0.000567201
0.00166867
0.000743398
0.00204747
0.000909349
0.00237288
0.00105703
0.00263591
0.0011827
0.00283658
0.00128612
0.00298113
0.00136933
0.00307905
0.00143557
0.00314067
0.00148835
0.00317562
0.00153094
0.00319198
0.00156611
0.00319609
0.00159602
0.00319262
0.00162228
0.00318486
0.00164605
0.00317509
0.00166815
0.00316485
0.00315534
0.00168911
2.64764e-05
9.26667e-05
0.000102562
0.00037154
0.000222839
0.000717453
0.000377803
0.00110094
0.000554501
0.00149197
0.00073877
0.0018632
0.000917856
0.00219379
0.00108228
0.00247149
0.00122651
0.00269235
0.00134864
0.002859
0.00144948
0.00297821
0.00153151
0.00305864
0.00159798
0.00310915
0.0016522
0.00313776
0.00169718
0.00315112
0.0017354
0.00315439
0.00176882
0.00315144
0.0017989
0.00314501
0.00182671
0.00313704
0.00312906
0.00185299
2.38062e-05
6.88606e-05
9.41184e-05
0.000301228
0.0002079
0.000603671
0.000358259
0.00095058
0.000534543
0.00131569
0.000723931
0.00167381
0.000913743
0.00200398
0.00109348
0.00229175
0.00125596
0.00252987
0.00139751
0.00271745
0.00151744
0.00285827
0.00161719
0.0029589
0.00169939
0.00302695
0.00176719
0.00306996
0.0018237
0.00309461
0.00187166
0.00310643
0.00191337
0.00310974
0.0019506
0.00310777
0.00198474
0.00310291
0.00309701
0.00201678
2.11169e-05
4.77436e-05
8.52382e-05
0.000237107
0.000191365
0.000497544
0.000335021
0.000806925
0.000507967
0.00114274
0.000699169
0.00148261
0.000896639
0.00180651
0.00108941
0.00209898
0.001269
0.00235028
0.00143001
0.00255643
0.00157009
0.0027182
0.0016893
0.00283968
0.00178939
0.00292686
0.00187301
0.00298633
0.00194316
0.00302446
0.00200272
0.00304687
0.00205425
0.00305821
0.00209986
0.00306216
0.00214124
0.00306153
0.00305852
0.00217973
1.84692e-05
2.92745e-05
7.61622e-05
0.000179414
0.000173753
0.000399954
0.000308889
0.000671789
0.000475701
0.000975928
0.00066523
0.00129308
0.000866741
0.001605
0.00106944
0.00189628
0.001264
0.00215572
0.00144359
0.00237684
0.00160415
0.00255764
0.00174418
0.00269966
0.00186418
0.00280686
0.00196601
0.0028845
0.00205224
0.00293823
0.00212569
0.00297342
0.00218905
0.00299485
0.00224471
0.0030065
0.00229469
0.00301156
0.00301254
0.00234066
1.59149e-05
1.33595e-05
6.71124e-05
0.000128216
0.000155574
0.000311492
0.000280731
0.000546631
0.000438894
0.000817765
0.000623294
0.00110868
0.000824875
0.00140342
0.00103363
0.00168753
0.00124003
0.00194932
0.0014362
0.00218067
0.00161656
0.00237727
0.00177797
0.00253824
0.00191947
0.00266536
0.00204177
0.0027622
0.00214671
0.00283329
0.00223671
0.00288342
0.00231441
0.00291715
0.00238234
0.00293857
0.00244276
0.00295114
0.00295758
0.00249772
1.34955e-05
-1.35967e-07
5.82812e-05
8.34308e-05
0.000137307
0.000232466
0.000251422
0.000432517
0.000398831
0.000670356
0.000574893
0.000932615
0.000772483
0.00120583
0.000982896
0.00147712
0.00119704
0.00173518
0.00140657
0.00197114
0.00160478
0.00217906
0.00178703
0.00235599
0.00195078
0.00250162
0.00209533
0.00261765
0.00222145
0.00270717
0.00233086
0.00277401
0.00242581
0.0028222
0.00250875
0.00285563
0.00258206
0.00287783
0.00289156
0.00264808
1.12395e-05
-1.13755e-05
4.98214e-05
4.48489e-05
0.000119364
0.000162923
0.000221781
0.0003301
0.000356828
0.000535309
0.000521786
0.000767657
0.000711517
0.0010161
0.000918971
0.00126966
0.00113605
0.0015181
0.0013546
0.00175259
0.00156732
0.00196634
0.0017684
0.00215491
0.00195385
0.00231617
0.00212148
0.00245002
0.00227069
0.00255796
0.00240217
0.00264253
0.00251746
0.00270692
0.00261859
0.0027545
0.00270782
0.00278859
0.00281178
0.00278761
9.16208e-06
-2.05376e-05
4.18409e-05
1.21701e-05
0.000102074
0.00010269
0.000192519
0.000239655
0.000314128
0.0004137
0.000465801
0.000615983
0.000644267
0.00083763
0.00084428
0.00106965
0.00105915
0.00130323
0.00128149
0.00153024
0.00150405
0.00174378
0.00172038
0.00193858
0.00192536
0.00211119
0.00211541
0.00225998
0.0022885
0.00238486
0.00244401
0.00248702
0.00258243
0.0025685
0.00270504
0.00263189
0.00281364
0.00268
0.0027149
0.00291052
7.26534e-06
-2.78029e-05
3.44014e-05
-1.4966e-05
8.56699e-05
5.14215e-05
0.000164206
0.000161118
0.000271816
0.000306091
0.000408679
0.00047912
0.000573141
0.000673168
0.000761712
0.000881081
0.000969321
0.00109562
0.0011898
0.00130976
0.00141652
0.00151706
0.00164302
0.00171208
0.00186356
0.00189065
0.00207351
0.00205002
0.00226956
0.00218881
0.00244971
0.00230687
0.00261315
0.00240505
0.00276011
0.00248493
0.00289154
0.00254857
0.00259715
0.00300929
5.54061e-06
-3.33435e-05
2.75246e-05
-3.695e-05
7.02958e-05
8.6504e-06
0.000137255
9.41591e-05
0.000230771
0.000212575
0.000351955
0.000357936
0.000500453
0.00052467
0.000674332
0.000707202
0.000870142
0.000899813
0.00108318
0.00109673
0.00130788
0.00129236
0.00153834
0.00148162
0.00176883
0.00166017
0.00199419
0.00182466
0.00221016
0.00197283
0.00241357
0.00210346
0.00260232
0.00221631
0.00277534
0.00231191
0.00293244
0.00239147
0.00245484
0.00307474
3.97232e-06
-3.73158e-05
2.12022e-05
-5.41799e-05
5.60214e-05
-2.61687e-05
0.00011194
3.82407e-05
0.000191649
0.000132865
0.000296887
0.000252698
0.000428258
0.000393299
0.000585095
0.000550365
0.000765412
0.000719496
0.000965985
0.000896154
0.00118258
0.00107576
0.0014103
0.0012539
0.00164396
0.00142651
0.00187846
0.00159016
0.00210916
0.00174213
0.00233212
0.00188051
0.00254417
0.00200426
0.00274304
0.00211304
0.00292727
0.00220724
0.00228497
0.00309714
2.54304e-06
-3.98589e-05
1.54113e-05
-6.70481e-05
4.2869e-05
-5.36265e-05
8.8426e-05
-7.31624e-06
0.000154917
6.63746e-05
0.000244443
0.000163172
0.000358259
0.000279483
0.00049664
0.000411984
0.000658793
0.000557343
0.000842844
0.000712103
0.00104592
0.000872682
0.00126435
0.00103546
0.00149391
0.00119696
0.00173011
0.00135396
0.00196852
0.00150372
0.00220499
0.00164405
0.00243581
0.00177343
0.00265784
0.00189102
0.00286849
0.00199659
0.0020862
0.00306726
1.23842e-06
-4.10973e-05
1.01291e-05
-7.59388e-05
3.08423e-05
-7.43397e-05
6.68159e-05
-4.32898e-05
0.000120895
1.2295e-05
0.000195348
8.87187e-05
0.000291808
0.000183023
0.000411184
0.000292608
0.000553569
0.000414958
0.000718187
0.000547485
0.000903397
0.000687473
0.00110677
0.000832093
0.00132524
0.000978489
0.0015553
0.00112389
0.00179325
0.00126577
0.00203535
0.00140195
0.00227802
0.00153076
0.00251792
0.00165112
0.00275195
0.00176255
0.00185899
0.00297916
5.10352e-08
-4.11483e-05
5.34523e-06
-8.1233e-05
1.99503e-05
-8.89447e-05
4.71879e-05
-7.05274e-05
8.98248e-05
-3.03419e-05
0.000150145
2.83986e-05
0.00022995
0.000103218
0.000330515
0.000192043
0.000452519
0.000292954
0.000595985
0.000404019
0.00076025
0.000523207
0.000943987
0.000648356
0.00114527
0.000777202
0.00136173
0.000907437
0.00159068
0.00103682
0.00182935
0.00116328
0.00207501
0.0012851
0.00232509
0.00140104
0.00257716
0.00151048
0.00160628
0.00282987
-1.01799e-06
-4.01303e-05
1.06754e-06
-8.33185e-05
1.02217e-05
-9.80989e-05
2.96243e-05
-8.99301e-05
6.19044e-05
-6.2622e-05
0.000109259
-1.89556e-05
0.0001735
3.89765e-05
0.000256053
0.00010949
0.000357918
0.000191089
0.000479621
0.000282316
0.00062118
0.000381648
0.000782099
0.000487438
0.0009614
0.000597901
0.00115772
0.000711116
0.00136947
0.00082507
0.00159504
0.000937715
0.00183311
0.00104702
0.00208321
0.00115094
0.00234628
0.00124741
0.00132933
0.00262323
-1.95976e-06
-3.81706e-05
-2.67921e-06
-8.2599e-05
1.70551e-06
-0.000102484
1.42184e-05
-0.000102443
3.73151e-05
-8.57187e-05
7.30379e-05
-5.46785e-05
0.0001231
-1.10859e-05
0.000188917
4.36731e-05
0.000271595
0.000108412
0.000371902
0.000182009
0.000490237
0.000263313
0.000626607
0.000351069
0.000780639
0.000443869
0.000951646
0.000540109
0.00113877
0.000637948
0.00134125
0.000735236
0.00155893
0.000829345
0.00179346
0.000916408
0.00205235
0.000988526
0.00102576
0.00235591
-2.75994e-06
-3.54106e-05
-5.85989e-06
-7.94991e-05
-5.53929e-06
-0.000102804
1.06326e-06
-0.000109045
1.62127e-05
-0.000100868
4.17588e-05
-8.02246e-05
7.92472e-05
-4.85743e-05
0.000129975
-7.05429e-06
0.000195001
4.33854e-05
0.000275133
0.000101877
0.000370891
0.000167555
0.000482472
0.000239487
0.000609715
0.000316625
0.000752076
0.000397748
0.000908607
0.000481417
0.00107793
0.000565912
0.00125817
0.000649109
0.00144654
0.000728032
0.00163751
0.000797555
0.000847406
0.00181587
-3.4053e-06
-3.20053e-05
-8.4439e-06
-7.44605e-05
-1.14663e-05
-9.97818e-05
-9.77552e-06
-0.000110736
-1.30096e-06
-0.000109343
1.56008e-05
-9.71263e-05
4.22753e-05
-7.52489e-05
7.98438e-05
-4.46227e-05
0.000129231
-6.00148e-06
0.000191159
3.99485e-05
0.000266123
9.25908e-05
0.00035434
0.00015127
0.000455698
0.000215268
0.000569688
0.000283758
0.000695343
0.000355762
0.000831189
0.000430066
0.000975299
0.000504999
0.00112555
0.000577778
0.0012804
0.000642709
0.000685307