/*--------------------------------*- C++ -*----------------------------------*\
  =========                 |
  \\      /  F ield         | OpenFOAM: The Open Source CFD Toolbox
   \\    /   O peration     | Website:  https://openfoam.org
    \\  /    A nd           | Version:  6.0
     \\/     M anipulation  |
\*---------------------------------------------------------------------------*/
FoamFile
{
    version     2.0;
    format      ascii;
    class       volVectorField;
    location    "43";
    object      U;
}
// * * * * * * * * * * * * * * * * * * * * * * * * * * * * * * * * * * * * * //

dimensions      [0 1 -1 0 0 0 0];

internalField   nonuniform List<vector> 
12500
(
(-0.000276255 0.00264478 -8.04365e-22)
(-0.00151269 0.0070607 1.15506e-20)
(-0.00384592 0.0107478 -1.68482e-20)
(-0.00681275 0.0138103 7.77584e-21)
(-0.0101581 0.0163403 4.67366e-22)
(-0.01372 0.0184232 -9.66655e-22)
(-0.0173683 0.0201379 -1.43403e-20)
(-0.0210055 0.0215552 7.90249e-21)
(-0.0245633 0.0227377 5.24343e-21)
(-0.0279968 0.0237399 5.34059e-21)
(-0.0312798 0.0246082 -9.06376e-21)
(-0.034401 0.0253815 5.28543e-21)
(-0.0373607 0.0260915 -2.49447e-21)
(-0.0401689 0.026764 4.23849e-21)
(-0.0428423 0.027419 -1.08297e-20)
(-0.0454032 0.0280718 1.56725e-20)
(-0.0478771 0.0287337 -2.99142e-21)
(-0.0502923 0.0294125 -1.11164e-20)
(-0.0526772 0.0301131 5.70184e-21)
(-0.0550609 0.0308382 -5.44734e-21)
(-0.0574751 0.0315884 4.87849e-21)
(-0.0599516 0.0323628 6.45085e-21)
(-0.0624792 0.0331598 6.56963e-22)
(-0.0649869 0.0339766 -1.8495e-20)
(-0.0677665 0.0348035 1.03533e-20)
(-0.000377286 0.00321448 1.47432e-20)
(-0.00175474 0.00854862 -3.94638e-20)
(-0.00416037 0.0129438 1.16988e-20)
(-0.00715203 0.0165366 7.85946e-21)
(-0.0104866 0.0194468 -6.29692e-21)
(-0.01401 0.0217847 -3.593e-20)
(-0.0175983 0.023652 1.07255e-20)
(-0.0211588 0.0251407 -2.0326e-20)
(-0.0246271 0.0263325 2.43978e-20)
(-0.027961 0.0272987 -3.26667e-20)
(-0.031136 0.0281011 1.74836e-20)
(-0.0341423 0.028792 5.66636e-21)
(-0.0369813 0.029415 -1.43e-20)
(-0.0396633 0.0300061 -6.32844e-21)
(-0.0422056 0.0305944 4.64195e-20)
(-0.0446307 0.0312027 -4.11343e-20)
(-0.0469644 0.0318484 9.85458e-21)
(-0.049235 0.0325442 1.70645e-20)
(-0.0514714 0.0332985 -3.89713e-21)
(-0.0537028 0.0341162 2.75517e-20)
(-0.0559615 0.0349987 5.02288e-21)
(-0.0582797 0.0359448 -1.80178e-21)
(-0.0606476 0.0369525 -3.48749e-20)
(-0.0629952 0.0380199 3.2117e-20)
(-0.0656088 0.0391269 -6.49622e-20)
(-0.000513318 0.00375829 4.73104e-20)
(-0.00209004 0.00997212 1.62916e-20)
(-0.00461523 0.0150475 -2.14993e-20)
(-0.00766764 0.0191506 9.28499e-21)
(-0.0110165 0.0224264 8.72672e-21)
(-0.0145163 0.0250084 3.3275e-20)
(-0.0180502 0.0270202 -4.24415e-20)
(-0.0215311 0.0285739 -6.93124e-21)
(-0.024899 0.0297694 -2.86152e-20)
(-0.0281149 0.0306944 -2.39594e-20)
(-0.0311569 0.0314254 3.10161e-20)
(-0.0340169 0.0320277 -1.0408e-19)
(-0.0366976 0.0325568 -3.26004e-21)
(-0.0392104 0.0330589 -6.27233e-20)
(-0.0415734 0.033572 -7.39644e-21)
(-0.0438096 0.0341265 8.93675e-21)
(-0.0459456 0.0347463 -4.89319e-20)
(-0.0480105 0.0354492 -3.0654e-20)
(-0.0500341 0.0362474 -3.63362e-20)
(-0.0520465 0.0371483 5.69942e-20)
(-0.0540812 0.0381547 2.0858e-20)
(-0.0561718 0.0392652 -9.28265e-20)
(-0.0583106 0.0404779 -4.4755e-20)
(-0.0604283 0.0417918 -5.00883e-20)
(-0.0628071 0.0431773 1.43092e-19)
(-0.000682482 0.00427601 -1.47136e-21)
(-0.00251431 0.0113295 -3.77028e-20)
(-0.00520511 0.0170548 -1.82049e-20)
(-0.00835386 0.0216447 1.13774e-20)
(-0.0117423 0.025268 7.10472e-20)
(-0.0152341 0.0280798 -3.21778e-20)
(-0.0187201 0.0302244 6.89131e-20)
(-0.0221196 0.0318328 6.58758e-20)
(-0.0253775 0.0330223 4.02317e-20)
(-0.0284586 0.0338965 -6.03401e-22)
(-0.0313442 0.0345459 8.15797e-20)
(-0.0340281 0.0350486 1.41584e-20)
(-0.0365149 0.0354715 6.25484e-20)
(-0.0388173 0.0358711 1.44085e-19)
(-0.0409544 0.0362945 -1.6748e-19)
(-0.0429502 0.03678 2.52264e-19)
(-0.0448327 0.0373582 5.49637e-20)
(-0.046632 0.0380524 -1.21465e-19)
(-0.0483794 0.0388794 -1.72586e-20)
(-0.0501069 0.0398496 4.42728e-20)
(-0.0518498 0.0409677 -2.22298e-20)
(-0.0536441 0.0422327 -1.33301e-20)
(-0.0554848 0.043643 -1.3011e-20)
(-0.0573034 0.0451994 -5.24178e-20)
(-0.0593799 0.0468626 1.94524e-19)
(-0.000883092 0.00476796 2.46616e-20)
(-0.00302356 0.01262 -1.18796e-19)
(-0.00592476 0.0189628 1.44991e-19)
(-0.00920484 0.0240136 -5.80218e-20)
(-0.0126581 0.0279631 6.98475e-20)
(-0.0161578 0.030987 5.72573e-20)
(-0.019603 0.033249 2.18273e-20)
(-0.0229203 0.0348982 1.07957e-21)
(-0.0260598 0.0360683 1.23797e-19)
(-0.028991 0.0368778 8.59624e-20)
(-0.0316983 0.0374308 -3.45613e-20)
(-0.0341784 0.0378179 -2.23073e-20)
(-0.0364376 0.0381172 9.43927e-20)
(-0.0384903 0.0383954 1.7821e-20)
(-0.0403569 0.0387086 4.84485e-20)
(-0.042063 0.0391036 1.16243e-19)
(-0.0436377 0.0396182 -1.00595e-19)
(-0.0451129 0.040282 8.13486e-20)
(-0.0465222 0.0411168 -1.75644e-19)
(-0.0478999 0.0421372 1.47832e-19)
(-0.0492839 0.0433504 9.62834e-22)
(-0.0507138 0.0447566 -1.18219e-19)
(-0.0521882 0.0463552 4.76272e-20)
(-0.0536394 0.0481493 1.08349e-19)
(-0.0553476 0.0500905 -1.68859e-19)
(-0.00111369 0.00523496 1.276e-19)
(-0.00361411 0.0138443 -1.40547e-19)
(-0.00676907 0.0207704 -2.27472e-20)
(-0.0102145 0.0262535 2.88629e-20)
(-0.0137573 0.0305051 -6.26721e-20)
(-0.0172805 0.0337204 -9.81944e-20)
(-0.0206924 0.0360812 -8.20116e-20)
(-0.023927 0.0377539 -1.98474e-20)
(-0.0269409 0.0388876 -1.42317e-19)
(-0.0297081 0.0396149 1.13774e-19)
(-0.0322172 0.040053 -1.77283e-19)
(-0.0344675 0.0403042 8.99011e-20)
(-0.0364676 0.0404575 -2.99125e-20)
(-0.0382337 0.0405897 6.94921e-20)
(-0.0397877 0.0407665 -1.75174e-19)
(-0.0411565 0.0410433 8.50916e-20)
(-0.0423713 0.0414657 6.35711e-21)
(-0.0434659 0.0420705 3.7904e-20)
(-0.0444765 0.0428859 2.29434e-19)
(-0.0454405 0.0439313 5.0937e-20)
(-0.0463996 0.0452178 -4.62771e-21)
(-0.0473977 0.0467478 1.45881e-20)
(-0.0484381 0.0485227 9.62964e-20)
(-0.0494547 0.0505489 2.7492e-20)
(-0.0507303 0.0527691 9.54241e-20)
(-0.00137308 0.00567824 -7.95047e-20)
(-0.00428263 0.0150036 1.171e-19)
(-0.00773299 0.0224774 7.3865e-21)
(-0.0113764 0.0283621 -1.44723e-19)
(-0.0150321 0.0328893 3.06051e-19)
(-0.0185938 0.0362725 -9.94513e-20)
(-0.0219794 0.0387112 1.45881e-19)
(-0.025131 0.0403874 1.34043e-19)
(-0.0280122 0.0414649 -1.11394e-19)
(-0.0306026 0.0420897 -1.62729e-19)
(-0.0328945 0.0423908 4.47103e-20)
(-0.0348909 0.0424818 -4.72939e-20)
(-0.0366025 0.0424625 -2.09836e-19)
(-0.0380473 0.0424194 2.55645e-19)
(-0.0392488 0.0424279 -1.22934e-19)
(-0.0402356 0.0425524 -8.4982e-20)
(-0.0410405 0.0428474 7.77543e-22)
(-0.0417 0.0433578 6.97401e-20)
(-0.042253 0.044119 2.88258e-20)
(-0.0427408 0.0451575 -1.13118e-19)
(-0.0432097 0.0464892 1.29402e-19)
(-0.0437093 0.0481204 -2.25252e-19)
(-0.0442487 0.0500559 1.3779e-19)
(-0.0447643 0.0523069 -1.05741e-19)
(-0.0455455 0.0548074 2.92927e-20)
(-0.00166035 0.00609934 1.15724e-19)
(-0.00502614 0.0161 -9.23248e-20)
(-0.00881137 0.024085 -5.90997e-20)
(-0.0126833 0.0303388 -1.04997e-19)
(-0.0164734 0.0351129 -1.93081e-19)
(-0.0200867 0.0386386 -1.43415e-19)
(-0.0234515 0.0411318 8.9831e-20)
(-0.0265191 0.0427897 -1.36663e-19)
(-0.0292603 0.0437895 1.74203e-19)
(-0.0316609 0.0442891 -2.84652e-19)
(-0.0337178 0.044429 1.26905e-19)
(-0.0354372 0.0443331 2.68944e-19)
(-0.0368326 0.044111 -3.79113e-19)
(-0.0379235 0.0438592 5.42988e-20)
(-0.038735 0.0436625 7.08364e-20)
(-0.0392973 0.0435948 6.86878e-20)
(-0.039645 0.0437202 -7.39924e-20)
(-0.0398169 0.044093 -1.82302e-20)
(-0.0398552 0.0447577 -5.45506e-20)
(-0.0398056 0.0457491 -4.56162e-20)
(-0.0397199 0.0470905 -2.50848e-19)
(-0.0396547 0.0487939 -1.69768e-20)
(-0.0396265 0.0508695 2.75733e-21)
(-0.039576 0.0533355 -1.14105e-19)
(-0.039803 0.0561174 1.24052e-19)
(-0.00197485 0.00649988 3.31556e-21)
(-0.00584181 0.0171358 3.77127e-20)
(-0.00999869 0.0255945 3.95592e-20)
(-0.0141265 0.0321835 2.31147e-20)
(-0.0180697 0.0371742 1.96526e-19)
(-0.021745 0.0408155 1.85537e-19)
(-0.0250922 0.043339 -1.51582e-19)
(-0.0280724 0.0449558 -4.63359e-20)
(-0.0306649 0.0458553 -4.13242e-20)
(-0.0328618 0.0462067 2.14084e-19)
(-0.0346653 0.0461601 7.71132e-20)
(-0.0360851 0.0458491 -1.12711e-19)
(-0.0371374 0.0453923 -9.56815e-20)
(-0.0378433 0.0448954 2.31268e-19)
(-0.0382294 0.0444525 -5.71865e-20)
(-0.0383269 0.0441477 -6.95068e-20)
(-0.038172 0.0440551 -9.72534e-20)
(-0.0378059 0.0442396 -7.58756e-20)
(-0.0372741 0.0447568 -9.70829e-20)
(-0.036627 0.045652 -6.36404e-20)
(-0.035923 0.0469586 2.64977e-19)
(-0.0352271 0.048697 -1.30735e-19)
(-0.034565 0.0508858 8.81952e-20)
(-0.0338837 0.0535529 -2.35113e-19)
(-0.0334995 0.0566166 1.00109e-19)
(-0.00231612 0.00688144 -1.03899e-19)
(-0.00672684 0.0181131 -2.80487e-20)
(-0.0112887 0.0270073 -2.20773e-19)
(-0.015696 0.0338964 -1.06413e-19)
(-0.0198064 0.0390726 -2.11282e-19)
(-0.0235499 0.0428017 -2.21253e-20)
(-0.0268786 0.0453309 1.14413e-19)
(-0.0297646 0.0468839 -7.00081e-20)
(-0.0321962 0.0476614 1.5152e-19)
(-0.034173 0.047842 -3.69643e-19)
(-0.0357029 0.0475846 -1.07195e-20)
(-0.0367994 0.0470309 6.59908e-20)
(-0.0374813 0.0463074 -8.39894e-20)
(-0.0377715 0.0455282 7.66446e-20)
(-0.0376974 0.0447964 -5.87621e-20)
(-0.0372912 0.0442057 -1.26244e-19)
(-0.0365901 0.0438412 2.30903e-19)
(-0.0356371 0.0437798 1.43559e-19)
(-0.0344811 0.0440898 -2.98029e-20)
(-0.0331774 0.04483 9.51717e-20)
(-0.0317917 0.0460469 -1.88174e-19)
(-0.0303989 0.0477731 2.7183e-19)
(-0.0290359 0.0500396 -3.71983e-19)
(-0.0276593 0.0528886 7.67488e-20)
(-0.026609 0.0562324 -1.53533e-19)
(-0.00268381 0.00724527 5.61939e-21)
(-0.00767816 0.0190335 -9.58955e-20)
(-0.0126739 0.0283243 1.42979e-19)
(-0.0173789 0.0354776 2.94975e-19)
(-0.0216651 0.0408072 -4.87513e-21)
(-0.0254771 0.0445967 3.37781e-20)
(-0.0287805 0.0471074 -1.28211e-19)
(-0.0315597 0.0485755 6.03642e-20)
(-0.0338131 0.0492111 4.17534e-19)
(-0.0355487 0.0492012 -9.51518e-20)
(-0.0367804 0.0487117 -1.12727e-19)
(-0.0375264 0.0478907 4.27613e-19)
(-0.037808 0.0468713 1.40039e-19)
(-0.0376499 0.0457746 6.68662e-20)
(-0.0370801 0.0447115 6.86262e-20)
(-0.036131 0.0437853 1.87577e-19)
(-0.0348403 0.043092 -7.22948e-20)
(-0.0332522 0.0427214 1.91487e-19)
(-0.0314185 0.0427566 2.59779e-19)
(-0.0293992 0.0432727 -2.22136e-19)
(-0.027268 0.0443335 3.30769e-19)
(-0.0251109 0.0459885 1.18281e-19)
(-0.0229787 0.0482866 -4.49794e-19)
(-0.0208412 0.0512903 6.51744e-19)
(-0.0190716 0.0549088 -5.56593e-19)
(-0.00307753 0.0075921 -2.64495e-19)
(-0.00869208 0.0198973 1.49532e-19)
(-0.0141453 0.029545 -1.01019e-19)
(-0.0191594 0.0369258 -9.65764e-20)
(-0.0236227 0.0423769 -1.04787e-19)
(-0.0274954 0.0461996 -1.14279e-19)
(-0.0307587 0.0486696 3.1575e-20)
(-0.0334103 0.0500341 3.00888e-19)
(-0.0354602 0.0505119 -6.47977e-20)
(-0.0369256 0.0502963 -1.6928e-19)
(-0.0378276 0.0495587 -1.03727e-19)
(-0.0381891 0.0484518 -4.26013e-20)
(-0.0380348 0.0471133 1.26296e-19)
(-0.037391 0.0456694 -8.09786e-20)
(-0.036286 0.0442375 -2.65005e-19)
(-0.0347519 0.0429288 -2.9319e-19)
(-0.0328263 0.0418502 1.17198e-19)
(-0.0305537 0.0411047 -2.18722e-19)
(-0.0279875 0.0407918 1.90335e-19)
(-0.0251924 0.041006 -5.38824e-19)
(-0.02225 0.0418325 4.14921e-19)
(-0.0192592 0.043344 -5.4991e-19)
(-0.0162866 0.0456144 -1.03788e-20)
(-0.0133201 0.048735 -1.86038e-19)
(-0.0107787 0.052617 5.7522e-19)
(-0.00349667 0.00792192 4.05733e-19)
(-0.00976391 0.0207033 6.16496e-20)
(-0.0156913 0.030667 -4.07914e-20)
(-0.0210179 0.0382381 -1.73318e-20)
(-0.0256499 0.0437787 3.2411e-19)
(-0.0295657 0.0476088 1.05919e-19)
(-0.0327633 0.0500182 9.64993e-20)
(-0.0352556 0.0512643 -7.8006e-20)
(-0.0370654 0.0515735 3.02035e-19)
(-0.0382204 0.051144 -1.49145e-19)
(-0.0387496 0.0501505 9.66478e-20)
(-0.038682 0.0487483 2.46502e-19)
(-0.0380459 0.0470775 -1.40288e-19)
(-0.0368695 0.045267 1.52309e-19)
(-0.0351816 0.0434383 1.44257e-19)
(-0.0330136 0.0417089 4.95299e-20)
(-0.030402 0.0401947 -1.2234e-19)
(-0.0273905 0.0390115 3.3912e-19)
(-0.0240335 0.0382759 -3.16669e-20)
(-0.0203989 0.0381042 -3.66029e-20)
(-0.0165762 0.038608 4.089e-19)
(-0.0126779 0.0398896 -2.91574e-19)
(-0.00878902 0.0420579 4.92096e-19)
(-0.00492071 0.0452444 -4.0901e-19)
(-0.00155364 0.0493699 5.53975e-19)
(-0.00394025 0.00823382 -1.95917e-19)
(-0.0108875 0.0214484 4.49568e-20)
(-0.0172978 0.0316856 -4.72537e-20)
(-0.0229301 0.0394088 -2.2512e-19)
(-0.0277113 0.0450073 1.31727e-20)
(-0.0316399 0.0488204 1.2953e-19)
(-0.0347328 0.0511523 -5.2968e-19)
(-0.0370196 0.0522702 3.97187e-19)
(-0.0385376 0.0524067 -3.88379e-19)
(-0.0393261 0.0517635 -2.4594e-19)
(-0.0394236 0.0505171 2.21325e-19)
(-0.0388659 0.048823 -4.80577e-19)
(-0.0376861 0.046821 4.06108e-19)
(-0.0359149 0.0446403 -1.29588e-19)
(-0.0335819 0.0424033 -3.71091e-19)
(-0.0307179 0.0402307 9.19435e-20)
(-0.0273577 0.0382447 -8.65788e-20)
(-0.0235435 0.0365719 3.27146e-20)
(-0.0193289 0.0353453 -1.1722e-19)
(-0.014784 0.0347045 -3.89688e-19)
(-0.0100051 0.0347912 8.74913e-20)
(-0.00511884 0.0357447 -2.35537e-22)
(-0.000230565 0.0377203 -4.04278e-19)
(0.00462005 0.0409056 2.84476e-19)
(0.00887057 0.0452427 -2.59079e-19)
(-0.0044067 0.00852591 7.92889e-20)
(-0.012055 0.0221274 1.51374e-19)
(-0.0189472 0.0325933 2.13245e-19)
(-0.0248668 0.0404293 1.10338e-19)
(-0.0297641 0.046054 -1.08857e-19)
(-0.0336602 0.0498275 2.61094e-19)
(-0.0365928 0.0520683 1.94118e-19)
(-0.03861 0.0530534 -7.1107e-20)
(-0.039765 0.0530206 2.54659e-19)
(-0.0401103 0.0521743 -2.63067e-19)
(-0.0396952 0.0506908 -7.74599e-20)
(-0.0385638 0.048724 7.88879e-20)
(-0.0367551 0.0464111 1.56681e-19)
(-0.0343036 0.0438779 1.90698e-21)
(-0.0312408 0.0412447 9.97237e-20)
(-0.0275974 0.0386312 1.84668e-19)
(-0.0234066 0.0361618 -3.15257e-19)
(-0.0187085 0.0339701 3.9284e-19)
(-0.013555 0.0322025 1.32781e-19)
(-0.00801634 0.0310208 4.69472e-20)
(-0.00219447 0.030599 -4.79711e-19)
(0.00377046 0.0311201 6.79747e-20)
(0.0097518 0.0327985 1.05731e-19)
(0.0156768 0.035898 -2.54922e-20)
(0.0208764 0.0403994 1.27146e-19)
(-0.00489372 0.0087953 6.12374e-21)
(-0.0132563 0.0227326 -3.89843e-19)
(-0.0206185 0.0333795 -9.83619e-21)
(-0.0267933 0.0412874 -9.96123e-20)
(-0.0317579 0.0469065 -6.58191e-19)
(-0.0355585 0.0506189 5.71326e-19)
(-0.0382554 0.0527584 -4.08578e-19)
(-0.0399172 0.0536113 -2.07185e-20)
(-0.0406141 0.0534207 -1.94689e-19)
(-0.0404135 0.0523927 3.37951e-19)
(-0.0393768 0.0507024 -3.65114e-19)
(-0.0375579 0.0485005 -1.71519e-19)
(-0.0350036 0.0459192 3.5614e-21)
(-0.0317539 0.0430785 -3.7334e-19)
(-0.0278437 0.0400923 5.10896e-19)
(-0.0233054 0.0370751 -5.93491e-19)
(-0.0181719 0.0341478 1.19403e-21)
(-0.0124814 0.031445 9.13711e-20)
(-0.00628352 0.0291209 -2.29231e-19)
(0.000352442 0.027355 2.22904e-19)
(0.00732119 0.0263521 -3.16855e-19)
(0.0144704 0.0263426 -2.09794e-19)
(0.0216527 0.0276122 3.91732e-19)
(0.0287601 0.030526 -4.28271e-19)
(0.0349879 0.0351267 -8.50287e-21)
(-0.00539813 0.00903819 -3.17869e-19)
(-0.0144788 0.0232546 3.7842e-19)
(-0.0222863 0.0340309 -1.17637e-19)
(-0.0286689 0.0419674 2.27724e-19)
(-0.0336344 0.0475482 2.47002e-19)
(-0.0372562 0.0511789 -2.18768e-19)
(-0.0396195 0.0532092 -1.45615e-19)
(-0.0408143 0.0539354 -1.75208e-19)
(-0.0409297 0.0536059 1.61157e-19)
(-0.040049 0.0524282 -1.08523e-20)
(-0.0382469 0.050576 2.36676e-19)
(-0.035589 0.0481959 2.34073e-19)
(-0.0321316 0.0454137 -2.80473e-19)
(-0.0279227 0.0423413 5.5241e-19)
(-0.0230033 0.0390832 -3.6739e-19)
(-0.0174101 0.0357436 -6.3082e-20)
(-0.0111781 0.0324342 7.19316e-19)
(-0.00434614 0.0292826 -3.33939e-19)
(0.0030377 0.0264419 2.13249e-19)
(0.0109055 0.0241002 4.17455e-19)
(0.0191503 0.0224863 -2.71441e-19)
(0.0276101 0.0218757 2.86737e-20)
(0.0361196 0.0226338 -1.87958e-20)
(0.0445381 0.0252538 -1.11896e-19)
(0.0518937 0.0298713 2.21793e-19)
(-0.00591583 0.00925005 7.26229e-20)
(-0.0157075 0.0236818 -2.39581e-19)
(-0.0239212 0.0345314 1.3187e-19)
(-0.0304472 0.0424503 -1.66622e-21)
(-0.0353271 0.0479586 1.00499e-19)
(-0.0386642 0.0514868 -1.73816e-19)
(-0.0405701 0.0534018 9.99642e-20)
(-0.0411576 0.0540105 2.73493e-19)
(-0.0405354 0.053567 -8.34557e-21)
(-0.0388036 0.0522811 -1.40757e-19)
(-0.0360515 0.0503252 1.41997e-19)
(-0.0323579 0.047842 -3.34527e-21)
(-0.0277905 0.0449511 -4.52908e-19)
(-0.022408 0.0417552 1.68462e-19)
(-0.0162609 0.0383473 3.72967e-20)
(-0.009394 0.0348181 -6.57811e-20)
(-0.00184934 0.031264 -1.17766e-19)
(0.0063298 0.0277971 4.52444e-19)
(0.0150929 0.0245582 1.10523e-19)
(0.0243717 0.0217303 -2.37518e-19)
(0.034058 0.0195513 -2.864e-20)
(0.0439823 0.0183298 3.28389e-19)
(0.0539674 0.0185104 -1.5363e-19)
(0.0638504 0.0207391 6.61757e-20)
(0.0724623 0.0252796 4.6897e-20)
(-0.00644176 0.00942588 -1.45317e-19)
(-0.0169245 0.0240016 1.49959e-19)
(-0.0254895 0.034863 -8.50501e-20)
(-0.0320754 0.0427144 -2.74776e-19)
(-0.0367616 0.0481136 -2.54463e-19)
(-0.0396831 0.0515178 -1.13105e-19)
(-0.0409796 0.0533117 -9.42168e-20)
(-0.0407873 0.0538141 -2.79909e-19)
(-0.0392351 0.053286 -1.1358e-19)
(-0.0364402 0.0519401 1.03984e-19)
(-0.0325076 0.0499493 -1.48964e-19)
(-0.0275298 0.0474537 -1.57755e-19)
(-0.0215883 0.0445677 -1.48492e-19)
(-0.0147548 0.0413861 2.70437e-19)
(-0.00709327 0.0379909 -5.69709e-19)
(0.00133799 0.0344575 3.26167e-19)
(0.0104841 0.0308637 -5.59251e-19)
(0.0202898 0.0272993 -8.63691e-20)
(0.0306952 0.0238804 -3.08573e-19)
(0.0416258 0.0207679 -7.21979e-20)
(0.052969 0.0181863 -8.82789e-20)
(0.0645485 0.0164521 -2.9547e-19)
(0.0761825 0.0160712 -3.24363e-20)
(0.0877092 0.0178555 1.81558e-19)
(0.0977443 0.0222314 -4.95344e-19)
(-0.00696996 0.00956051 1.24625e-19)
(-0.0181092 0.0242007 1.69139e-19)
(-0.0269529 0.0350068 5.96363e-19)
(-0.0334944 0.0427367 -1.05337e-19)
(-0.0378547 0.0479875 2.52244e-19)
(-0.0402029 0.0512442 6.04062e-19)
(-0.0407071 0.0529109 -1.65479e-19)
(-0.0395279 0.0533189 2.24964e-19)
(-0.0368142 0.0527373 1.3174e-19)
(-0.0327004 0.0513837 2.39708e-19)
(-0.0273068 0.0494332 -4.81231e-20)
(-0.0207407 0.0470258 3.27077e-20)
(-0.0130981 0.0442739 -8.47172e-20)
(-0.00446652 0.0412674 4.60004e-19)
(0.00507274 0.03808 5.90454e-20)
(0.0154425 0.0347749 4.28835e-19)
(0.0265671 0.0314112 -1.09918e-19)
(0.0383697 0.0280536 3.94092e-19)
(0.0507694 0.0247854 5.54032e-20)
(0.0636739 0.0217285 2.0114e-19)
(0.076957 0.0190665 -8.69528e-20)
(0.0904303 0.0170845 -1.55099e-20)
(0.103913 0.0163067 4.80936e-19)
(0.117284 0.017699 2.96388e-19)
(0.128955 0.0218679 -1.29287e-19)
(-0.00749358 0.00964885 -3.01821e-19)
(-0.0192383 0.0242659 -3.17425e-19)
(-0.0282682 0.0349436 -3.34075e-19)
(-0.0346384 0.042494 1.23243e-19)
(-0.0385149 0.0475542 -2.48916e-19)
(-0.0401025 0.0506384 -3.72833e-20)
(-0.039599 0.0521704 -9.87875e-20)
(-0.0371892 0.0524953 -4.11448e-19)
(-0.0330414 0.0518916 -6.44482e-20)
(-0.0273067 0.0505835 1.06353e-19)
(-0.0201203 0.0487506 -3.3477e-19)
(-0.0116038 0.0465363 4.65721e-19)
(-0.00186871 0.0440545 -6.34209e-19)
(0.00898017 0.0413957 1.53098e-19)
(0.0208413 0.0386311 -3.90393e-19)
(0.0336131 0.0358178 -3.17539e-19)
(0.0471913 0.033003 -1.81045e-20)
(0.0614661 0.0302306 -4.81796e-20)
(0.0763202 0.0275509 3.81272e-20)
(0.0916255 0.0250379 -1.82849e-19)
(0.107223 0.0228103 -1.26782e-19)
(0.122896 0.0210743 1.56113e-19)
(0.138461 0.0203006 -4.32661e-19)
(0.153889 0.0215495 1.40881e-19)
(0.167454 0.0255815 1.04367e-19)
(-0.00800494 0.00968617 -5.35036e-20)
(-0.0202853 0.0241847 -9.20855e-20)
(-0.0293872 0.0346557 3.60614e-19)
(-0.035434 0.0419648 1.34932e-19)
(-0.0386406 0.04679 1.79602e-19)
(-0.0392492 0.0496751 -2.41208e-19)
(-0.037488 0.0510643 4.71646e-22)
(-0.0335653 0.0513169 -1.96936e-19)
(-0.0276687 0.0507219 3.65659e-19)
(-0.0199648 0.0495115 1.19772e-19)
(-0.0106026 0.0478722 1.34763e-19)
(0.000282493 0.0459537 -5.38004e-19)
(0.0125638 0.0438764 6.65524e-19)
(0.0261188 0.0417367 -2.00502e-19)
(0.0408237 0.0396115 -1.43818e-19)
(0.056549 0.0375616 4.31842e-19)
(0.0731554 0.0356341 1.93144e-19)
(0.0904895 0.0338656 -4.90047e-19)
(0.108382 0.0322867 -2.05004e-19)
(0.126646 0.0309307 6.2008e-19)
(0.145061 0.0298446 -4.74702e-19)
(0.163348 0.0291162 2.86038e-19)
(0.181291 0.0290665 1.60156e-19)
(0.199 0.0307251 -2.06375e-19)
(0.21478 0.0349098 -2.07219e-19)
(-0.00849546 0.00966824 -1.96738e-19)
(-0.0212206 0.0239457 3.17401e-19)
(-0.0302556 0.0341274 1.36121e-19)
(-0.0357995 0.0411313 -1.97856e-19)
(-0.0381196 0.0456764 -3.18675e-20)
(-0.0374972 0.0483361 -2.09764e-19)
(-0.0341914 0.049575 -8.39495e-20)
(-0.0284344 0.0497669 9.46776e-20)
(-0.0204316 0.0492115 -2.3818e-20)
(-0.0103645 0.04815 1.80028e-19)
(0.00160498 0.0467773 -1.56948e-19)
(0.0153285 0.045252 4.35893e-19)
(0.0306651 0.0437042 -5.41955e-19)
(0.0474746 0.0422418 3.39065e-19)
(0.0656112 0.040955 4.22386e-19)
(0.0849165 0.0399194 -6.1216e-19)
(0.105213 0.0391982 -1.86756e-19)
(0.126298 0.0388421 3.15538e-19)
(0.147937 0.0388899 -1.95229e-19)
(0.169861 0.0393675 1.88945e-19)
(0.19175 0.0402805 -4.58928e-19)
(0.213209 0.0415992 7.66118e-20)
(0.233911 0.0434171 3.00295e-19)
(0.254115 0.0465776 -4.83987e-19)
(0.272463 0.0517711 1.36568e-19)
(-0.00895552 0.00959136 -1.81873e-19)
(-0.0220108 0.0235395 5.91832e-19)
(-0.0308128 0.0333464 1.14395e-19)
(-0.0356435 0.0399809 -3.11097e-19)
(-0.0368269 0.0442022 2.24178e-19)
(-0.0346855 0.0466132 1.14454e-19)
(-0.0295101 0.0476982 1.83602e-19)
(-0.0215565 0.0478447 -1.20926e-20)
(-0.0110481 0.047363 -1.93141e-20)
(0.00181933 0.0465031 -4.05633e-20)
(0.0168711 0.0454686 -1.77669e-19)
(0.0339462 0.0444276 -5.96189e-21)
(0.0528897 0.0435214 4.17965e-19)
(0.0735447 0.0428722 -6.87472e-19)
(0.095745 0.0425882 4.90633e-19)
(0.119306 0.0427688 9.95818e-20)
(0.144017 0.043508 1.76535e-19)
(0.169629 0.0448964 -9.12116e-20)
(0.195841 0.0470228 8.11337e-19)
(0.222291 0.0499715 -5.03794e-19)
(0.248518 0.0538022 4.03834e-19)
(0.27391 0.0584902 9.53065e-20)
(0.297849 0.0640255 -2.97118e-19)
(0.320541 0.0711465 2.52234e-19)
(0.34134 0.0800135 4.04516e-19)
(-0.00937424 0.00945236 -5.28156e-20)
(-0.022618 0.0229583 -2.08669e-19)
(-0.0309898 0.0323045 -3.59064e-19)
(-0.0348635 0.0385079 -2.05868e-19)
(-0.0346238 0.0423668 -2.89694e-20)
(-0.0306368 0.0445125 -8.2189e-20)
(-0.0232265 0.0454479 -3.82793e-19)
(-0.012673 0.045573 6.37822e-20)
(0.000781204 0.0452072 -4.33803e-19)
(0.016925 0.0446081 -3.37616e-20)
(0.0355695 0.0439865 -4.1918e-19)
(0.0565393 0.0435181 -1.49771e-19)
(0.079664 0.0433535 8.62301e-20)
(0.10477 0.0436269 -4.11794e-19)
(0.131673 0.0444626 3.75114e-21)
(0.160169 0.0459832 -3.56755e-19)
(0.19003 0.0483171 1.38113e-19)
(0.220989 0.0516071 -5.00834e-19)
(0.252728 0.0560228 -8.60723e-20)
(0.284855 0.0617741 -1.19886e-20)
(0.31685 0.0691113 -8.53436e-20)
(0.347957 0.0782969 -8.773e-20)
(0.377186 0.0897823 -4.40644e-20)
(0.403903 0.104886 -1.76683e-19)
(0.426518 0.122424 -3.90775e-19)
(-0.00973916 0.00924854 9.652e-20)
(-0.0229992 0.0221968 2.64465e-19)
(-0.0307093 0.0309983 3.20036e-19)
(-0.0333446 0.0367148 -2.57349e-19)
(-0.031356 0.0401816 4.80309e-19)
(-0.0251562 0.042057 -2.62155e-19)
(-0.0151041 0.0428604 1.43095e-19)
(-0.00150717 0.0430024 2.2404e-19)
(0.0153709 0.0428093 2.04669e-19)
(0.0352994 0.0425439 9.99123e-20)
(0.0580706 0.0424204 1.62067e-19)
(0.0834889 0.0426179 9.45793e-20)
(0.111362 0.0432898 6.41031e-19)
(0.141495 0.0445734 -4.67293e-19)
(0.173681 0.0465975 5.35128e-19)
(0.207701 0.0494912 -2.23004e-19)
(0.243322 0.0533942 4.82701e-19)
(0.280294 0.0584703 -2.29741e-20)
(0.318359 0.0649287 -1.00467e-19)
(0.357256 0.0730543 -1.85295e-20)
(0.396733 0.0832487 3.83642e-19)
(0.43659 0.096135 -3.7695e-19)
(0.476995 0.112993 2.64695e-19)
(0.518589 0.13571 2.94983e-19)
(0.557709 0.158445 6.26232e-20)
(-0.0100356 0.00897734 6.67789e-20)
(-0.0231049 0.0212515 -3.78272e-19)
(-0.0298835 0.0294296 -1.38307e-19)
(-0.0309587 0.0346131 1.27086e-19)
(-0.0268535 0.0376717 -3.93802e-19)
(-0.0180309 0.0392883 -7.80722e-20)
(-0.00488901 0.0399965 5.44132e-20)
(0.0122336 0.0402147 2.15873e-19)
(0.0330455 0.0402734 -5.49015e-19)
(0.0572895 0.0404361 4.18813e-20)
(0.0847286 0.0409161 -1.61747e-19)
(0.115136 0.0418885 -4.93023e-19)
(0.148283 0.0435005 3.37032e-19)
(0.183937 0.0458793 1.44495e-20)
(0.221853 0.0491397 -1.01406e-20)
(0.261779 0.0533905 3.42625e-19)
(0.303455 0.0587418 -6.07541e-19)
(0.346625 0.0653136 4.82314e-19)
(0.391053 0.073246 -8.94166e-20)
(0.436543 0.0827095 2.83029e-19)
(0.482978 0.093911 -4.66979e-19)
(0.530374 0.107123 2.68801e-19)
(0.579149 0.122897 -4.83794e-19)
(0.630158 0.141808 5.0168e-19)
(0.678376 0.157874 -1.59204e-19)
(-0.0102464 0.00863635 4.49014e-19)
(-0.022879 0.0201208 -7.59794e-20)
(-0.0284144 0.0276054 5.63519e-19)
(-0.0275643 0.032224 2.62463e-19)
(-0.0209307 0.0348766 2.11432e-20)
(-0.00903268 0.0362679 1.15847e-19)
(0.0076869 0.0369426 2.81118e-20)
(0.0288507 0.0373237 4.76309e-19)
(0.0541302 0.0377415 1.54025e-19)
(0.0832284 0.0384561 -2.0717e-20)
(0.115864 0.0396729 4.17598e-20)
(0.151759 0.0415554 1.61148e-19)
(0.190628 0.0442339 1.34851e-19)
(0.232175 0.0478127 2.89252e-19)
(0.27609 0.0523757 -3.30622e-19)
(0.322053 0.0579909 1.00101e-19)
(0.369741 0.064714 3.04689e-20)
(0.418839 0.0725918 1.48966e-19)
(0.469058 0.0816629 4.04823e-19)
(0.520157 0.0919554 -2.64642e-19)
(0.571966 0.103475 2.27096e-20)
(0.624406 0.116194 -3.77214e-19)
(0.677613 0.130165 3.58186e-19)
(0.731986 0.145641 -3.48751e-19)
(0.782596 0.158821 3.34932e-20)
(-0.0103511 0.00822346 -3.74562e-19)
(-0.0222575 0.018806 2.97165e-19)
(-0.0261927 0.0255389 -4.86993e-19)
(-0.0230067 0.0295786 4.228e-20)
(-0.0133889 0.0318502 3.46762e-19)
(0.00207852 0.0330765 -5.80715e-19)
(0.0228988 0.0338095 4.62813e-19)
(0.0486445 0.0344721 -7.3755e-19)
(0.0789353 0.0353898 1.4762e-19)
(0.113416 0.0368129 3.16379e-20)
(0.151739 0.0389318 2.50565e-19)
(0.193548 0.041889 -8.3567e-19)
(0.238474 0.0457873 1.44804e-19)
(0.286127 0.0506954 1.53778e-19)
(0.336097 0.0566533 -9.24668e-20)
(0.387963 0.0636748 -5.74998e-19)
(0.441301 0.0717496 2.71509e-19)
(0.495697 0.0808446 5.09399e-19)
(0.550764 0.0909017 -5.39057e-19)
(0.606157 0.101833 3.92092e-19)
(0.661588 0.113509 -5.10192e-19)
(0.716828 0.125743 3.71758e-19)
(0.77174 0.138368 -1.04016e-19)
(0.82637 0.151596 5.95977e-19)
(0.876607 0.163489 -6.92815e-19)
(-0.0103262 0.00773694 5.36263e-20)
(-0.0211687 0.0173112 4.38791e-20)
(-0.0230991 0.0232497 1.08239e-19)
(-0.0171203 0.0267187 3.88583e-19)
(-0.00401935 0.0286613 -1.22138e-20)
(0.0155481 0.029814 8.78298e-20)
(0.0410191 0.0307304 3.92627e-19)
(0.0718997 0.0318281 1.59118e-19)
(0.107737 0.0334215 -5.26096e-20)
(0.148092 0.0357429 4.49841e-19)
(0.192523 0.0389589 -5.13993e-19)
(0.240565 0.0431802 7.91373e-19)
(0.29173 0.0484704 -3.1499e-19)
(0.345501 0.0548513 5.73363e-19)
(0.401339 0.0623072 -1.94182e-19)
(0.458692 0.0707891 7.10185e-20)
(0.517012 0.0802164 8.62893e-20)
(0.575767 0.0904794 -1.67261e-19)
(0.634456 0.101439 1.40366e-19)
(0.692628 0.112923 9.05121e-20)
(0.74989 0.124725 1.25396e-19)
(0.805897 0.136589 2.6727e-19)
(0.860364 0.148266 -2.23499e-20)
(0.913166 0.159935 -1.22876e-19)
(0.961303 0.171079 3.78251e-19)
(-0.0101447 0.00717578 -3.13572e-19)
(-0.0195334 0.015644 3.44052e-20)
(-0.019005 0.0207646 -6.22687e-19)
(-0.00973127 0.023697 -1.49663e-19)
(0.00739082 0.0253935 -2.81735e-19)
(0.0316186 0.0265975 -6.07778e-20)
(0.062305 0.0278582 -3.04805e-19)
(0.0988673 0.0295803 -1.8291e-19)
(0.140753 0.0320581 2.4325e-19)
(0.187409 0.0354964 -4.07641e-19)
(0.238261 0.0400261 -1.13646e-19)
(0.292704 0.0457141 4.43691e-21)
(0.350095 0.0525719 -7.73079e-19)
(0.409762 0.060562 3.2969e-19)
(0.47101 0.0696039 -4.82774e-19)
(0.533144 0.0795795 -1.51104e-20)
(0.595484 0.0903381 9.58891e-20)
(0.657384 0.101701 -1.55943e-19)
(0.718251 0.113465 -1.37106e-19)
(0.77756 0.125406 6.89135e-20)
(0.834859 0.137278 7.74791e-20)
(0.889768 0.148815 -5.0273e-19)
(0.941965 0.159753 2.87425e-19)
(0.991287 0.170232 1.46371e-19)
(1.03581 0.180725 4.17681e-20)
(-0.0097759 0.00654019 3.20922e-19)
(-0.0172658 0.0138167 -3.5537e-19)
(-0.013775 0.0181187 5.01753e-19)
(-0.00066154 0.020578 7.84619e-20)
(0.0210524 0.0221447 -2.42193e-20)
(0.0505189 0.0235612 -1.71592e-19)
(0.0869836 0.025363 2.59479e-20)
(0.129746 0.0279319 2.63294e-19)
(0.178119 0.0315311 -3.64774e-19)
(0.231397 0.0363249 3.84544e-19)
(0.28884 0.0423942 -4.07314e-20)
(0.349661 0.0497475 1.80668e-20)
(0.413035 0.0583304 5.05426e-19)
(0.47811 0.0680345 6.79439e-19)
(0.544029 0.0787062 -2.66651e-19)
(0.609953 0.0901556 4.75379e-19)
(0.675089 0.102165 2.42562e-19)
(0.738708 0.114498 -1.48551e-19)
(0.800169 0.126907 4.73217e-19)
(0.858931 0.139139 -1.75618e-20)
(0.914557 0.150942 -4.58303e-19)
(0.966708 0.162067 4.85967e-19)
(1.01513 0.172282 7.10428e-20)
(1.05972 0.181691 -3.04208e-19)
(1.09946 0.191399 9.63162e-20)
(-0.00918638 0.0058322 -4.46738e-19)
(-0.0142743 0.0118475 4.84495e-19)
(-0.00726928 0.0153568 -3.09607e-19)
(0.0102662 0.0174391 -9.73056e-20)
(0.0371662 0.0190282 -2.18837e-19)
(0.0724537 0.0208545 3.89043e-19)
(0.115237 0.0234282 -2.26953e-19)
(0.164661 0.0270953 -1.04441e-19)
(0.219864 0.0320726 -3.00279e-19)
(0.279949 0.038468 7.82037e-21)
(0.343965 0.0462955 -1.18368e-19)
(0.410916 0.0554887 5.7813e-20)
(0.479772 0.0659134 -6.10718e-19)
(0.549494 0.0773797 1.74574e-19)
(0.619071 0.089656 -2.11477e-19)
(0.687547 0.102482 -1.71165e-19)
(0.754054 0.115581 5.29533e-20)
(0.817837 0.128674 -2.51688e-19)
(0.878271 0.141489 -1.09025e-19)
(0.934872 0.15377 3.13733e-19)
(0.987293 0.165282 1.34117e-19)
(1.03532 0.175818 -5.70633e-19)
(1.07883 0.185198 4.21806e-19)
(1.11786 0.193523 -8.01143e-20)
(1.15208 0.202216 -1.68089e-19)
(-0.00833992 0.00505632 -1.63001e-19)
(-0.0104639 0.00976208 -9.0491e-20)
(0.000652489 0.0125349 -1.82442e-20)
(0.0232228 0.0143714 1.33984e-19)
(0.0559141 0.0161719 1.46618e-19)
(0.0975905 0.0186408 1.28366e-19)
(0.147185 0.0222476 1.60384e-19)
(0.203646 0.0272855 2.45933e-19)
(0.265893 0.0339063 3.77399e-19)
(0.332791 0.0421417 3.74804e-19)
(0.403148 0.0519197 1.98579e-19)
(0.475732 0.0630825 -5.35016e-20)
(0.549304 0.0754028 1.34783e-20)
(0.622652 0.0886028 -1.84123e-20)
(0.69464 0.102373 1.59344e-19)
(0.764245 0.116389 -4.29356e-20)
(0.830589 0.130331 4.76454e-19)
(0.892961 0.143896 -2.1368e-19)
(0.950829 0.156812 3.5983e-21)
(1.00384 0.168842 1.53064e-19)