/*--------------------------------*- C++ -*----------------------------------*\
  =========                 |
  \\      /  F ield         | OpenFOAM: The Open Source CFD Toolbox
   \\    /   O peration     | Website:  https://openfoam.org
    \\  /    A nd           | Version:  6.0
     \\/     M anipulation  |
\*---------------------------------------------------------------------------*/
FoamFile
{
    version     2.0;
    format      ascii;
    class       volScalarField;
    location    "7.1";
    object      p;
}
// * * * * * * * * * * * * * * * * * * * * * * * * * * * * * * * * * * * * * //

dimensions      [0 2 -2 0 0 0 0];

internalField   nonuniform List<scalar> 
8000
(
-0.324333
-0.326969
-0.328623
-0.329862
-0.331031
-0.3322
-0.333412
-0.334695
-0.336062
-0.33751
-0.339036
-0.340633
-0.342294
-0.34401
-0.345784
-0.347632
-0.349521
-0.351231
-0.352806
-0.356226
-0.324813
-0.327375
-0.328988
-0.330204
-0.331354
-0.332507
-0.333705
-0.334978
-0.336333
-0.337772
-0.339288
-0.340875
-0.342525
-0.344231
-0.345994
-0.347833
-0.349714
-0.351418
-0.35298
-0.35639
-0.325757
-0.328174
-0.329709
-0.330876
-0.331988
-0.33311
-0.334282
-0.33553
-0.336864
-0.338281
-0.339777
-0.341343
-0.342972
-0.344658
-0.3464
-0.348218
-0.350083
-0.351775
-0.353309
-0.356698
-0.32712
-0.32933
-0.330751
-0.331846
-0.3329
-0.333973
-0.335104
-0.336315
-0.337613
-0.338996
-0.340458
-0.341991
-0.343587
-0.345238
-0.346946
-0.34873
-0.350568
-0.352238
-0.353729
-0.357082
-0.328838
-0.330788
-0.332064
-0.333065
-0.334042
-0.335049
-0.336121
-0.337278
-0.338525
-0.339858
-0.341271
-0.342754
-0.3443
-0.345901
-0.347558
-0.349292
-0.351086
-0.352723
-0.354153
-0.357448
-0.330831
-0.332486
-0.333591
-0.334478
-0.335358
-0.33628
-0.337274
-0.338358
-0.339534
-0.340799
-0.342143
-0.343557
-0.345034
-0.346564
-0.34815
-0.349814
-0.351545
-0.35313
-0.354481
-0.357693
-0.333019
-0.334356
-0.335273
-0.336028
-0.336791
-0.337608
-0.338502
-0.339491
-0.340574
-0.341746
-0.342999
-0.344321
-0.345705
-0.347142
-0.348634
-0.350202
-0.351848
-0.353362
-0.354613
-0.357713
-0.335319
-0.336333
-0.33705
-0.337657
-0.338286
-0.338974
-0.339747
-0.340615
-0.34158
-0.342635
-0.34377
-0.344974
-0.346239
-0.347556
-0.348926
-0.350374
-0.351906
-0.353325
-0.354459
-0.357421
-0.337654
-0.338357
-0.338871
-0.339317
-0.339793
-0.340333
-0.340958
-0.341681
-0.3425
-0.34341
-0.344399
-0.345457
-0.346574
-0.347743
-0.348964
-0.350261
-0.351652
-0.35295
-0.353946
-0.356748
-0.339964
-0.340379
-0.340693
-0.34097
-0.341277
-0.341646
-0.3421
-0.342651
-0.343297
-0.344033
-0.344848
-0.345732
-0.346673
-0.347665
-0.348707
-0.349824
-0.351042
-0.35219
-0.353028
-0.355651
-0.342202
-0.342367
-0.34249
-0.34259
-0.342713
-0.342893
-0.343153
-0.343506
-0.343953
-0.344489
-0.345104
-0.345787
-0.346527
-0.347315
-0.34815
-0.349056
-0.350068
-0.351032
-0.351684
-0.354112
-0.344344
-0.344302
-0.344246
-0.344167
-0.344095
-0.344068
-0.344113
-0.344245
-0.344471
-0.344786
-0.34518
-0.345641
-0.346158
-0.346719
-0.347321
-0.347988
-0.348758
-0.349496
-0.349922
-0.352126
-0.346387
-0.346183
-0.345964
-0.345703
-0.345427
-0.345178
-0.344991
-0.344887
-0.344875
-0.344952
-0.34511
-0.345337
-0.345617
-0.345937
-0.346288
-0.346688
-0.347179
-0.347636
-0.347769
-0.349693
-0.348348
-0.348029
-0.34766
-0.347216
-0.346728
-0.346247
-0.345817
-0.345464
-0.345202
-0.345034
-0.344951
-0.344939
-0.34498
-0.345053
-0.345142
-0.345254
-0.345424
-0.345533
-0.345269
-0.3468
-0.350269
-0.349872
-0.349365
-0.348736
-0.34803
-0.347309
-0.346628
-0.34602
-0.345506
-0.345092
-0.34477
-0.344525
-0.344332
-0.344163
-0.343988
-0.343797
-0.343607
-0.343288
-0.342479
-0.343418
-0.35221
-0.351759
-0.35112
-0.350304
-0.349374
-0.348409
-0.347472
-0.346608
-0.345845
-0.34519
-0.344639
-0.344172
-0.34376
-0.343362
-0.34293
-0.342427
-0.34184
-0.341011
-0.339485
-0.339542
-0.354244
-0.353752
-0.352979
-0.351969
-0.350811
-0.349598
-0.348405
-0.347288
-0.34628
-0.345395
-0.344626
-0.343953
-0.343338
-0.342726
-0.342049
-0.341233
-0.340226
-0.338825
-0.336435
-0.335249
-0.35646
-0.355919
-0.355002
-0.35379
-0.352397
-0.350933
-0.349487
-0.348122
-0.346877
-0.34577
-0.344796
-0.343931
-0.343129
-0.34232
-0.341409
-0.340282
-0.338828
-0.33679
-0.33339
-0.330523
-0.358949
-0.358335
-0.357256
-0.355828
-0.354193
-0.352476
-0.350778
-0.349169
-0.347697
-0.346379
-0.345213
-0.344172
-0.343204
-0.34223
-0.34113
-0.339746
-0.337882
-0.335149
-0.330459
-0.325251
-0.361806
-0.361076
-0.359806
-0.358145
-0.356258
-0.354285
-0.352337
-0.350491
-0.348798
-0.34728
-0.345935
-0.34474
-0.343648
-0.342588
-0.341459
-0.340121
-0.338379
-0.33575
-0.330831
-0.324523
-0.365118
-0.364214
-0.362717
-0.360803
-0.358651
-0.356418
-0.35422
-0.35214
-0.350232
-0.348519
-0.347004
-0.34567
-0.344485
-0.343412
-0.342415
-0.341485
-0.340675
-0.340097
-0.340371
-0.34671
-0.368965
-0.367816
-0.36605
-0.363856
-0.361425
-0.358923
-0.356473
-0.354161
-0.352039
-0.350132
-0.348444
-0.346963
-0.34567
-0.344551
-0.343609
-0.342892
-0.342524
-0.342733
-0.344049
-0.349564
-0.373416
-0.371943
-0.36986
-0.367356
-0.364626
-0.361845
-0.359138
-0.35659
-0.35425
-0.352141
-0.350263
-0.348608
-0.347163
-0.345923
-0.344905
-0.344165
-0.343813
-0.344018
-0.345045
-0.348247
-0.378525
-0.376644
-0.374192
-0.371348
-0.368297
-0.365223
-0.36225
-0.359456
-0.356885
-0.354551
-0.352451
-0.350571
-0.348895
-0.347419
-0.346155
-0.345137
-0.344431
-0.344113
-0.344303
-0.345381
-0.384336
-0.381963
-0.37909
-0.375871
-0.372476
-0.369092
-0.365837
-0.362781
-0.359952
-0.357355
-0.354975
-0.352789
-0.350777
-0.348925
-0.347233
-0.345714
-0.344393
-0.343284
-0.342445
-0.341758
-0.390886
-0.387937
-0.384592
-0.380965
-0.377201
-0.373486
-0.369927
-0.366577
-0.363447
-0.360525
-0.357782
-0.355185
-0.352707
-0.350328
-0.34804
-0.345845
-0.343748
-0.341745
-0.339872
-0.337851
-0.398199
-0.394597
-0.390731
-0.386666
-0.382509
-0.378436
-0.374541
-0.37085
-0.367353
-0.364017
-0.360799
-0.357662
-0.354573
-0.351517
-0.348488
-0.345492
-0.342534
-0.339617
-0.336769
-0.333719
-0.406294
-0.401966
-0.397539
-0.393008
-0.388431
-0.383969
-0.379689
-0.375588
-0.371629
-0.367761
-0.363933
-0.360107
-0.356261
-0.35239
-0.348505
-0.344625
-0.340769
-0.336957
-0.333217
-0.329346
-0.415178
-0.410061
-0.405038
-0.400019
-0.394992
-0.390095
-0.385362
-0.380754
-0.376209
-0.371663
-0.367069
-0.362399
-0.357654
-0.352853
-0.348027
-0.343217
-0.338458
-0.333785
-0.329224
-0.324649
-0.424846
-0.418886
-0.413241
-0.40771
-0.402198
-0.396804
-0.391522
-0.386279
-0.380993
-0.375603
-0.370075
-0.364413
-0.358646
-0.352825
-0.347006
-0.341248
-0.335601
-0.330106
-0.324785
-0.319566
-0.435272
-0.428427
-0.422141
-0.416077
-0.41003
-0.404053
-0.398097
-0.392059
-0.385853
-0.379436
-0.372812
-0.366023
-0.359139
-0.35224
-0.345406
-0.338707
-0.332199
-0.325922
-0.319889
-0.314059
-0.446406
-0.438647
-0.431709
-0.425084
-0.418436
-0.411761
-0.404972
-0.39795
-0.39063
-0.383007
-0.375138
-0.367116
-0.359049
-0.351046
-0.343201
-0.335587
-0.328255
-0.32124
-0.314536
-0.30812
-0.458167
-0.44948
-0.441883
-0.43466
-0.427319
-0.419801
-0.41199
-0.403778
-0.395145
-0.386151
-0.376916
-0.367587
-0.358307
-0.349203
-0.340373
-0.331882
-0.323772
-0.316062
-0.308727
-0.301754
-0.470439
-0.460827
-0.452564
-0.44469
-0.436539
-0.428
-0.418955
-0.409339
-0.399207
-0.388703
-0.378017
-0.367344
-0.356853
-0.346676
-0.336903
-0.327586
-0.318747
-0.31039
-0.302466
-0.29497
-0.483063
-0.472546
-0.463613
-0.455014
-0.445906
-0.436143
-0.425639
-0.414413
-0.402622
-0.390506
-0.378323
-0.366304
-0.354632
-0.343429
-0.332769
-0.322682
-0.31317
-0.304216
-0.295746
-0.287772
-0.495843
-0.484458
-0.474842
-0.465424
-0.455185
-0.443976
-0.431791
-0.418771
-0.405199
-0.391411
-0.377724
-0.364392
-0.351591
-0.339426
-0.327943
-0.317149
-0.307022
-0.297524
-0.288556
-0.280155
-0.508538
-0.496338
-0.486019
-0.475666
-0.464099
-0.451217
-0.437146
-0.422185
-0.406754
-0.39128
-0.376121
-0.361534
-0.347676
-0.334623
-0.32239
-0.310955
-0.300275
-0.29029
-0.280875
-0.272102
-0.520867
-0.50792
-0.496869
-0.485441
-0.472338
-0.457566
-0.441437
-0.424435
-0.407118
-0.389987
-0.373421
-0.357661
-0.342832
-0.328973
-0.316066
-0.304061
-0.292892
-0.28248
-0.272673
-0.263591
-0.532516
-0.518898
-0.507076
-0.494418
-0.479572
-0.462718
-0.444403
-0.425313
-0.406132
-0.387414
-0.369534
-0.3527
-0.336997
-0.322423
-0.308924
-0.296422
-0.284833
-0.274056
-0.263916
-0.25459
-0.543138
-0.528937
-0.516292
-0.502241
-0.485458
-0.46637
-0.445797
-0.424629
-0.403655
-0.383453
-0.364374
-0.346582
-0.330111
-0.314917
-0.300911
-0.287991
-0.276054
-0.264977
-0.254565
-0.245063
-0.552367
-0.537673
-0.524148
-0.508544
-0.489659
-0.468236
-0.445394
-0.422212
-0.399557
-0.378005
-0.357862
-0.339237
-0.322111
-0.306397
-0.291975
-0.278718
-0.266508
-0.2552
-0.244582
-0.234975
-0.55982
-0.544729
-0.53026
-0.512959
-0.491849
-0.46805
-0.442989
-0.417909
-0.393723
-0.370978
-0.34992
-0.330596
-0.312935
-0.296807
-0.282063
-0.268556
-0.256152
-0.244685
-0.23393
-0.224289
-0.565116
-0.549723
-0.534252
-0.515131
-0.491726
-0.465577
-0.438405
-0.411589
-0.386053
-0.36229
-0.340479
-0.320598
-0.302526
-0.286095
-0.271128
-0.257461
-0.244945
-0.233394
-0.222574
-0.212974
-0.567883
-0.552281
-0.535756
-0.514734
-0.489023
-0.460611
-0.431493
-0.403142
-0.37646
-0.351871
-0.329475
-0.309186
-0.290832
-0.274213
-0.259127
-0.245394
-0.232853
-0.221297
-0.210487
-0.201005
-0.567767
-0.552049
-0.534433
-0.511472
-0.483509
-0.452986
-0.422133
-0.392479
-0.364874
-0.339659
-0.316854
-0.29631
-0.27781
-0.261122
-0.246024
-0.232323
-0.219847
-0.208368
-0.197648
-0.18836
-0.564446
-0.548702
-0.529983
-0.505097
-0.474998
-0.442569
-0.410233
-0.379531
-0.35124
-0.325609
-0.302575
-0.281932
-0.263423
-0.246789
-0.231791
-0.218224
-0.205906
-0.194591
-0.184043
-0.175029
-0.557638
-0.541957
-0.522148
-0.495405
-0.463347
-0.429267
-0.395732
-0.364255
-0.335522
-0.309686
-0.286607
-0.266025
-0.247648
-0.231194
-0.21641
-0.203083
-0.19102
-0.179957
-0.169666
-0.161006
-0.54711
-0.53158
-0.510727
-0.482249
-0.448462
-0.413026
-0.378595
-0.346626
-0.3177
-0.291872
-0.268932
-0.248572
-0.23047
-0.214325
-0.199873
-0.186894
-0.175185
-0.164466
-0.154523
-0.146294
-0.532683
-0.517393
-0.495575
-0.465537
-0.430298
-0.393827
-0.35882
-0.326645
-0.297775
-0.272167
-0.249549
-0.229571
-0.211887
-0.196181
-0.182181
-0.16966
-0.158408
-0.148129
-0.138625
-0.130907
-0.514239
-0.499279
-0.476608
-0.445231
-0.408852
-0.371691
-0.336431
-0.304337
-0.275765
-0.250585
-0.228468
-0.209031
-0.191907
-0.176771
-0.163344
-0.151394
-0.140704
-0.130966
-0.121997
-0.114871
-0.491723
-0.477188
-0.453807
-0.42135
-0.384172
-0.346672
-0.311483
-0.279748
-0.251709
-0.227159
-0.205717
-0.186974
-0.170551
-0.156114
-0.14338
-0.132116
-0.122096
-0.113005
-0.104676
-0.0982298
-0.465147
-0.451131
-0.427213
-0.393968
-0.356346
-0.318861
-0.284058
-0.25295
-0.225669
-0.201937
-0.181335
-0.163435
-0.147847
-0.134234
-0.122312
-0.111847
-0.102608
-0.0942744
-0.086699
-0.0810285
-0.434587
-0.421187
-0.396929
-0.36321
-0.325506
-0.288384
-0.254269
-0.224038
-0.197724
-0.174987
-0.15538
-0.138459
-0.123833
-0.111162
-0.100166
-0.0906103
-0.0822624
-0.0748014
-0.0680993
-0.0632901
-0.400182
-0.387498
-0.363116
-0.329248
-0.291823
-0.255397
-0.222254
-0.193134
-0.167977
-0.146396
-0.12792
-0.112102
-0.0985508
-0.0869318
-0.0769673
-0.0684271
-0.0610795
-0.0546118
-0.0489001
-0.0450022
-0.362133
-0.350264
-0.325986
-0.292301
-0.255506
-0.220092
-0.188181
-0.160383
-0.136554
-0.116269
-0.0990439
-0.0844332
-0.0720518
-0.0615756
-0.0527355
-0.0453086
-0.0390708
-0.0337201
-0.0291109
-0.0261636
-0.320696
-0.309741
-0.285803
-0.252629
-0.2168
-0.18269
-0.152248
-0.125957
-0.103605
-0.0847339
-0.0688572
-0.0555355
-0.0443967
-0.0351319
-0.0274882
-0.021256
-0.0162242
-0.0121086
-0.00873999
-0.00691512
-0.276181
-0.266235
-0.242873
-0.210529
-0.175979
-0.143439
-0.114677
-0.0900567
-0.0693046
-0.0519435
-0.0374877
-0.0255114
-0.0156611
-0.0076516
-0.00125432
0.00372377
0.00747606
0.0102286
0.0120825
0.0123188
-0.228941
-0.220095
-0.197542
-0.16633
-0.133349
-0.102618
-0.0757205
-0.0529084
-0.0338565
-0.018074
-0.00508187
0.0055281
0.0140834
0.0208346
0.0259747
0.0296749
0.0320856
0.033248
0.0330243
0.0310837
-0.179367
-0.171705
-0.150184
-0.120389
-0.0892403
-0.0605298
-0.0356571
-0.0147695
0.00250324
0.0166627
0.0281813
0.0374523
0.0447781
0.0503732
0.0543923
0.0569746
0.05815
0.0575455
0.0546607
0.0505174
-0.127883
-0.121482
-0.101203
-0.0730835
-0.0440015
-0.0174982
0.00520999
0.024072
0.0394971
0.0519974
0.0620442
0.0700276
0.0762462
0.0809125
0.0841944
0.086249
0.0869733
0.085482
0.0810492
0.0765795
-0.0749347
-0.0698607
-0.0510157
-0.0248055
0.00200401
0.0261391
0.0465616
0.0633068
0.0768165
0.0876091
0.0961561
0.10285
0.108004
0.111869
0.1147
0.116783
0.118084
0.117578
0.115007
0.118937
-0.020978
-0.0172894
-5.16664e-05
0.0240457
0.0484074
0.0700394
0.0880741
0.102623
0.114152
0.123179
0.130167
0.135503
0.139497
0.142412
0.144519
0.146088
0.147102
0.147068
0.146921
0.153052
0.0335159
0.0357732
0.0512546
0.0730678
0.0948393
0.113861
0.129428
0.141717
0.151209
0.158418
0.163795
0.167716
0.170485
0.172363
0.173608
0.174445
0.174852
0.174523
0.174405
0.179374
0.0880749
0.0888682
0.102471
0.121863
0.140936
0.157271
0.170313
0.180295
0.187707
0.193051
0.196761
0.199197
0.200648
0.201361
0.201575
0.201489
0.201097
0.200166
0.199471
0.202879
0.142231
0.141541
0.15317
0.170041
0.186344
0.199947
0.210434
0.218086
0.223394
0.226845
0.228854
0.229757
0.229825
0.229287
0.228351
0.227191
0.225785
0.22393
0.222338
0.224299
0.195523
0.193345
0.202936
0.217223
0.230721
0.241578
0.249509
0.254831
0.258035
0.259587
0.259879
0.259226
0.257877
0.25604
0.253901
0.251604
0.249112
0.246246
0.243681
0.244255
0.247504
0.243849
0.251368
0.263045
0.27374
0.281871
0.287272
0.290293
0.291415
0.291084
0.289669
0.287462
0.28469
0.28154
0.278175
0.274716
0.271116
0.267222
0.263681
0.262948
0.297742
0.292635
0.298079
0.30716
0.315088
0.320546
0.323474
0.324245
0.323332
0.32116
0.318071
0.314337
0.310163
0.305717
0.301142
0.296536
0.291849
0.286956
0.282466
0.280491
0.345826
0.339308
0.342703
0.349236
0.354471
0.357339
0.357876
0.356476
0.353599
0.349646
0.34494
0.339727
0.334194
0.328491
0.322744
0.317031
0.311303
0.305459
0.300061
0.296911
0.391366
0.383491
0.384894
0.388962
0.39161
0.392
0.390255
0.386785
0.382035
0.376386
0.370136
0.363512
0.356684
0.349783
0.342918
0.336155
0.329445
0.322709
0.316453
0.312193
0.433994
0.424834
0.424329
0.426049
0.426246
0.424297
0.420403
0.414985
0.408474
0.401229
0.393527
0.385577
0.37753
0.369503
0.361591
0.353846
0.346224
0.338661
0.331601
0.326303
0.473373
0.463011
0.46071
0.460227
0.458137
0.454013
0.448126
0.440901
0.432757
0.424033
0.414986
0.405806
0.396632
0.387564
0.378685
0.370035
0.361576
0.353257
0.345454
0.339194
0.509189
0.497724
0.493761
0.491251
0.487064
0.480951
0.473243
0.464371
0.454738
0.444665
0.434393
0.424094
0.413892
0.403878
0.394119
0.38465
0.375435
0.366434
0.357952
0.350813
0.541163
0.528703
0.523237
0.518897
0.512825
0.504931
0.495593
0.485246
0.474282
0.463004
0.451636
0.440337
0.429219
0.41836
0.407817
0.397618
0.387733
0.378128
0.369039
0.361109
0.569044
0.55571
0.548917
0.542968
0.535245
0.525791
0.515029
0.503395
0.491269
0.478939
0.466616
0.454444
0.442527
0.430932
0.419706
0.408873
0.398407
0.388277
0.378656
0.370034
0.592615
0.578537
0.570613
0.563294
0.554168
0.543393
0.531425
0.518702
0.505592
0.492373
0.479241
0.466332
0.453739
0.441522
0.429721
0.418352
0.407397
0.396825
0.386753
0.377542
0.611693
0.597011
0.588163
0.579729
0.569465
0.557618
0.544673
0.531067
0.517162
0.503222
0.489436
0.47593
0.462791
0.450071
0.437804
0.426003
0.414653
0.403724
0.393285
0.383595
0.626132
0.610989
0.601438
0.592158
0.58103
0.568371
0.554686
0.540412
0.525904
0.511419
0.497137
0.48318
0.469627
0.456527
0.443908
0.43178
0.420132
0.408935
0.398217
0.388163
0.635818
0.620366
0.610342
0.600492
0.588783
0.575579
0.561397
0.546675
0.531762
0.516912
0.502298
0.488038
0.474208
0.460852
0.447997
0.43565
0.423803
0.412425
0.40152
0.39122
0.640678
0.62507
0.614809
0.604672
0.592672
0.579193
0.564762
0.549816
0.5347
0.519666
0.504885
0.490474
0.476504
0.463021
0.450046
0.43759
0.425643
0.414174
0.403175
0.392752
0.640674
0.625066
0.614805
0.604669
0.592668
0.579191
0.56476
0.549813
0.534697
0.519663
0.504883
0.490471
0.476502
0.463019
0.450045
0.437589
0.425641
0.414173
0.403173
0.392751
0.635806
0.620354
0.610331
0.600482
0.588774
0.57557
0.561389
0.546667
0.531755
0.516905
0.502291
0.488032
0.474202
0.460847
0.447991
0.435645
0.423798
0.41242
0.401515
0.391216
0.626112
0.61097
0.60142
0.592141
0.581014
0.568356
0.554672
0.540399
0.525892
0.511407
0.497126
0.48317
0.469618
0.456518
0.443899
0.431771
0.420124
0.408927
0.398209
0.388155
0.611666
0.596984
0.588137
0.579706
0.569443
0.557597
0.544654
0.531049
0.517145
0.503206
0.48942
0.475916
0.462777
0.450058
0.437791
0.425991
0.414641
0.403713
0.393275
0.383585
0.59258
0.578503
0.57058
0.563263
0.55414
0.543367
0.5314
0.518679
0.505571
0.492352
0.479221
0.466314
0.453722
0.441505
0.429705
0.418337
0.407382
0.396811
0.386739
0.377529
0.569001
0.555668
0.548878
0.542931
0.535211
0.525759
0.514999
0.503367
0.491242
0.478914
0.466592
0.454422
0.442505
0.430911
0.419687
0.408854
0.398389
0.388259
0.378639
0.370018
0.541113
0.528654
0.52319
0.518853
0.512785
0.504893
0.495557
0.485213
0.474251
0.462975
0.451608
0.440311
0.429194
0.418336
0.407794
0.397596
0.387712
0.378107
0.369019
0.361091
0.509132
0.497667
0.493708
0.491201
0.487017
0.480908
0.473202
0.464333
0.454702
0.444631
0.434361
0.424063
0.413863
0.40385
0.394093
0.384624
0.375411
0.366411
0.35793
0.350791
0.473308
0.462948
0.46065
0.460171
0.458085
0.453964
0.44808
0.440858
0.432716
0.423995
0.41495
0.405772
0.396599
0.387533
0.378655
0.370007
0.361549
0.353231
0.345428
0.339169
0.433922
0.424764
0.424263
0.425987
0.426188
0.424242
0.420353
0.414938
0.408429
0.401186
0.393487
0.385538
0.377493
0.369469
0.361558
0.353814
0.346193
0.338632
0.331572
0.326276
0.391287
0.383414
0.384821
0.388894
0.391546
0.39194
0.390199
0.386733
0.381986
0.37634
0.370092
0.36347
0.356644
0.349745
0.342882
0.33612
0.329412
0.322677
0.316421
0.312163
0.345741
0.339224
0.342623
0.349161
0.354402
0.357274
0.357815
0.356419
0.353545
0.349596
0.344892
0.339681
0.334151
0.32845
0.322704
0.316993
0.311266
0.305424
0.300027
0.296878
0.297651
0.292546
0.297993
0.307079
0.315014
0.320476
0.323408
0.324184
0.323275
0.321105
0.31802
0.314287
0.310116
0.305672
0.301099
0.296495
0.29181
0.286918
0.28243
0.280456
0.247406
0.243753
0.251276
0.26296
0.27366
0.281796
0.287203
0.290228
0.291353
0.291026
0.289614
0.287409
0.28464
0.281492
0.27813
0.274672
0.271073
0.267181
0.263642
0.26291
0.195419
0.193244
0.202839
0.217132
0.230636
0.241499
0.249434
0.254762
0.257969
0.259525
0.25982
0.259169
0.257824
0.255989
0.253852
0.251557
0.249067
0.246202
0.243639
0.244215
0.142121
0.141434
0.153068
0.169945
0.186254
0.199863
0.210355
0.218012
0.223324
0.226779
0.228791
0.229697
0.229768
0.229232
0.228299
0.227141
0.225737
0.223884
0.222293
0.224256
0.0879606
0.0887562
0.102363
0.121762
0.140842
0.157183
0.17023
0.180217
0.187634
0.192981
0.196695
0.199134
0.200588
0.201304
0.20152
0.201437
0.201046
0.200117
0.199424
0.202834
0.0333967
0.0356564
0.0511427
0.0729623
0.0947405
0.113769
0.129341
0.141635
0.151132
0.158345
0.163726
0.16765
0.170422
0.172303
0.17355
0.174389
0.174798
0.174472
0.174355
0.179326
-0.0211018
-0.0174107
-0.000168044
0.0239358
0.0483044
0.069943
0.0879836
0.102538
0.114071
0.123102
0.130095
0.135434
0.139431
0.142348
0.144458
0.14603
0.147046
0.147014
0.146869
0.153001
-0.0750627
-0.0699862
-0.0511362
-0.0249194
0.00189718
0.026039
0.0464675
0.0632182
0.0767327
0.0875297
0.0960805
0.102778
0.107935
0.111803
0.114637
0.116722
0.118025
0.117521
0.114951
0.118884
-0.128015
-0.121611
-0.101327
-0.0732011
-0.044112
-0.0176018
0.00511262
0.0239802
0.0394103
0.0519149
0.0619658
0.0699526
0.0761743
0.0808435
0.084128
0.0861848
0.0869112
0.0854217
0.0809901
0.0765213
-0.179503
-0.171838
-0.150312
-0.12051
-0.0893541
-0.0606366
-0.0357576
-0.0148642
0.00241351
0.0165774
0.0281001
0.0373746
0.0447036
0.0503016
0.0543232
0.0569077
0.0580852
0.0574823
0.0545987
0.050456
-0.229079
-0.220231
-0.197672
-0.166454
-0.133466
-0.102728
-0.0758238
-0.0530059
-0.033949
-0.0181618
-0.00516567
0.00544791
0.0140064
0.0207605
0.0259032
0.0296057
0.0320184
0.0331825
0.0329602
0.0310205
-0.276322
-0.266374
-0.243007
-0.210656
-0.176099
-0.143551
-0.114783
-0.0901568
-0.0693995
-0.0520337
-0.0375738
-0.0255938
-0.0157403
-0.00772788
-0.00132798
0.00365246
0.00740684
0.0101612
0.0120168
0.0122543
-0.320839
-0.309882
-0.285939
-0.252758
-0.216922
-0.182804
-0.152356
-0.126059
-0.103702
-0.0848263
-0.0689454
-0.0556201
-0.0444779
-0.0352101
-0.0275637
-0.0213291
-0.0162952
-0.0121776
-0.00880723
-0.00698096
-0.362277
-0.350406
-0.326124
-0.292432
-0.25563
-0.220209
-0.188292
-0.160487
-0.136653
-0.116363
-0.099134
-0.0845195
-0.0721348
-0.0616556
-0.0528128
-0.0453834
-0.0391433
-0.0337906
-0.0291795
-0.0262308
-0.400327
-0.387641
-0.363255
-0.32938
-0.291949
-0.255516
-0.222366
-0.19324
-0.168078
-0.146492
-0.128012
-0.11219
-0.0986353
-0.0870133
-0.077046
-0.0685032
-0.0611534
-0.0546836
-0.04897
-0.0450705
-0.434733
-0.421331
-0.39707
-0.363344
-0.325633
-0.288504
-0.254382
-0.224146
-0.197826
-0.175085
-0.155473
-0.138548
-0.123918
-0.111245
-0.100246
-0.0906878
-0.0823375
-0.0748744
-0.0681703
-0.0633594
-0.465294
-0.451276
-0.427354
-0.394103
-0.356474
-0.318982
-0.284173
-0.253059
-0.225772
-0.202035
-0.18143
-0.163526
-0.147934
-0.134318
-0.122393
-0.111925
-0.102684
-0.0943484
-0.086771
-0.0810988
-0.491869
-0.477332
-0.453947
-0.421485
-0.384301
-0.346794
-0.311598
-0.279858
-0.251814
-0.227258
-0.205812
-0.187066
-0.170639
-0.156199
-0.143462
-0.132195
-0.122173
-0.11308
-0.104749
-0.0983009
-0.514384
-0.499423
-0.476748
-0.445366
-0.408981
-0.371813
-0.336547
-0.304447
-0.27587
-0.250686
-0.228564
-0.209123
-0.191996
-0.176857
-0.163427
-0.151475
-0.140782
-0.131042
-0.122071
-0.114943
-0.532828
-0.517536
-0.495714
-0.465671
-0.430426
-0.39395
-0.358936
-0.326756
-0.29788
-0.272268
-0.249646
-0.229664
-0.211976
-0.196268
-0.182265
-0.169741
-0.158486
-0.148206
-0.138699
-0.130979
-0.547253
-0.531721
-0.510866
-0.482383
-0.448591
-0.413148
-0.378711
-0.346737
-0.317806
-0.291974
-0.26903
-0.248666
-0.23056
-0.214412
-0.199958
-0.186976
-0.175264
-0.164543
-0.154598
-0.146368
-0.55778
-0.542097
-0.522286
-0.495538
-0.463474
-0.429389
-0.395848
-0.364365
-0.335628
-0.309787
-0.286704
-0.266119
-0.247738
-0.231281
-0.216495
-0.203166
-0.1911
-0.180035
-0.169742
-0.16108
-0.564586
-0.54884
-0.530118
-0.505228
-0.475124
-0.44269
-0.410349
-0.379642
-0.351346
-0.32571
-0.302673
-0.282026
-0.263514
-0.246877
-0.231876
-0.218307
-0.205987
-0.194669
-0.184119
-0.175103
-0.567904
-0.552185
-0.534567
-0.511602
-0.483634
-0.453105
-0.422248
-0.392588
-0.364979
-0.339761
-0.316952
-0.296404
-0.277901
-0.261209
-0.246109
-0.232406
-0.219927
-0.208447
-0.197724
-0.188435
-0.568017
-0.552414
-0.535886
-0.514861
-0.489146
-0.46073
-0.431607
-0.403251
-0.376565
-0.351972
-0.329572
-0.309279
-0.290923
-0.274301
-0.259212
-0.245477
-0.232934
-0.221376
-0.210564
-0.20108
-0.565248
-0.549853
-0.534379
-0.515256
-0.491847
-0.465693
-0.438517
-0.411697
-0.386157
-0.36239
-0.340575
-0.320692
-0.302616
-0.286183
-0.271214
-0.257544
-0.245026
-0.233473
-0.222651
-0.21305
-0.559948
-0.544855
-0.530385
-0.513081
-0.491967
-0.468165
-0.443099
-0.418016
-0.393826
-0.371077
-0.350016
-0.330689
-0.313025
-0.296895
-0.282149
-0.268639
-0.256233
-0.244764
-0.234007
-0.224365
-0.552491
-0.537796
-0.524269
-0.508663
-0.489775
-0.468349
-0.445503
-0.422317
-0.399659
-0.378103
-0.357957
-0.339329
-0.322201
-0.306484
-0.29206
-0.278801
-0.266589
-0.255279
-0.24466
-0.235051
-0.543258
-0.529056
-0.51641
-0.502357
-0.485572
-0.46648
-0.445904
-0.424733
-0.403755
-0.38355
-0.364469
-0.346674
-0.330201
-0.315004
-0.300996
-0.288074
-0.276135
-0.265056
-0.254644
-0.24514
-0.532632
-0.519013
-0.50719
-0.49453
-0.479682
-0.462825
-0.444508
-0.425415
-0.406231
-0.38751
-0.369627
-0.352791
-0.337086
-0.32251
-0.309009
-0.296505
-0.284915
-0.274136
-0.263995
-0.254667
-0.52098
-0.508031
-0.496979
-0.485549
-0.472445
-0.457671
-0.441539
-0.424535
-0.407215
-0.390082
-0.373513
-0.357751
-0.34292
-0.329059
-0.316151
-0.304144
-0.292974
-0.28256
-0.272752
-0.263669
-0.508646
-0.496445
-0.486125
-0.475771
-0.464203
-0.451318
-0.437246
-0.422283
-0.406849
-0.391373
-0.376212
-0.361624
-0.347764
-0.334709
-0.322474
-0.311038
-0.300357
-0.29037
-0.280955
-0.272181
-0.495947
-0.484561
-0.474944
-0.465526
-0.455285
-0.444074
-0.431888
-0.418866
-0.405292
-0.391502
-0.377814
-0.36448
-0.351677
-0.339511
-0.328027
-0.317232
-0.307104
-0.297605
-0.288637
-0.280234
-0.483164
-0.472646
-0.463711
-0.455111
-0.446003
-0.436238
-0.425733
-0.414506
-0.402713
-0.390595
-0.378411
-0.366391
-0.354717
-0.343514
-0.332853
-0.322765
-0.313252
-0.304297
-0.295827
-0.287852
-0.470535
-0.460922
-0.452659
-0.444783
-0.436632
-0.428092
-0.419045
-0.409429
-0.399296
-0.38879
-0.378103
-0.367429
-0.356938
-0.34676
-0.336986
-0.327668
-0.31883
-0.310472
-0.302547
-0.295051
-0.458261
-0.449572
-0.441974
-0.43475
-0.427408
-0.419889
-0.412077
-0.403865
-0.39523
-0.386236
-0.377001
-0.367671
-0.358391
-0.349287
-0.340456
-0.331965
-0.323855
-0.316144
-0.308809
-0.301836
-0.446496
-0.438735
-0.431796
-0.425171
-0.418521
-0.411846
-0.405056
-0.398034
-0.390713
-0.38309
-0.375221
-0.367198
-0.359131
-0.351128
-0.343283
-0.335669
-0.328338
-0.321323
-0.314619
-0.308203
-0.435358
-0.428512
-0.422225
-0.416161
-0.410113
-0.404135
-0.398178
-0.392139
-0.385933
-0.379516
-0.372892
-0.366103
-0.359219
-0.352321
-0.345487
-0.338789
-0.332281
-0.326006
-0.319973
-0.314143
-0.424929
-0.418968
-0.413322
-0.407791
-0.402277
-0.396882
-0.3916
-0.386357
-0.38107
-0.37568
-0.370152
-0.364491
-0.358725
-0.352904
-0.347087
-0.34133
-0.335684
-0.33019
-0.32487
-0.319652
-0.415258
-0.41014
-0.405116
-0.400096
-0.395068
-0.39017
-0.385436
-0.380828
-0.376283
-0.371737
-0.367143
-0.362475
-0.357731
-0.352931
-0.348108
-0.343299
-0.338542
-0.33387
-0.329311
-0.324737
-0.406371
-0.402043
-0.397615
-0.393083
-0.388504
-0.384041
-0.37976
-0.375659
-0.3717
-0.367832
-0.364005
-0.36018
-0.356336
-0.352467
-0.348585
-0.344707
-0.340854
-0.337043
-0.333305
-0.329437
-0.398274
-0.394671
-0.390805
-0.386738
-0.38258
-0.378506
-0.37461
-0.370918
-0.36742
-0.364084
-0.360868
-0.357732
-0.354646
-0.351593
-0.348567
-0.345574
-0.342619
-0.339705
-0.33686
-0.333811
-0.390958
-0.38801
-0.384663
-0.381035
-0.37727
-0.373552
-0.369993
-0.366641
-0.363511
-0.360589
-0.357847
-0.355253
-0.352777
-0.350402
-0.348118
-0.345927
-0.343834
-0.341835
-0.339966
-0.337947
-0.384408
-0.382034
-0.37916
-0.37594
-0.372543
-0.369156
-0.3659
-0.362842
-0.360012
-0.357415
-0.355037
-0.352854
-0.350845
-0.348998
-0.34731
-0.345797
-0.34448
-0.343377
-0.342542
-0.341858
-0.378595
-0.376714
-0.374261
-0.371415
-0.368362
-0.365285
-0.36231
-0.359515
-0.356943
-0.354609
-0.35251
-0.350633
-0.348961
-0.347491
-0.346232
-0.345221
-0.344521
-0.344209
-0.344404
-0.345486
-0.373486
-0.372013
-0.369928
-0.367423
-0.36469
-0.361906
-0.359197
-0.356647
-0.354306
-0.352196
-0.35032
-0.348668
-0.347227
-0.345993
-0.344982
-0.34425
-0.343905
-0.344118
-0.345152
-0.348358
-0.369036
-0.367887
-0.36612
-0.363923
-0.361489
-0.358983
-0.35653
-0.354216
-0.352093
-0.350186
-0.348499
-0.347021
-0.345734
-0.344621
-0.343687
-0.342979
-0.342621
-0.34284
-0.344164
-0.349684
-0.365191
-0.364286
-0.362788
-0.36087
-0.358715
-0.356478
-0.354276
-0.352195
-0.350285
-0.348572
-0.347059
-0.345728
-0.344548
-0.343482
-0.342494
-0.341576
-0.340777
-0.340212
-0.340497
-0.346844
-0.361882
-0.361151
-0.359878
-0.358215
-0.356324
-0.354347
-0.352395
-0.350546
-0.348851
-0.347333
-0.34599
-0.344798
-0.343712
-0.34266
-0.341541
-0.340216
-0.338488
-0.335874
-0.330974
-0.324683
-0.35903
-0.358414
-0.357331
-0.3559
-0.354261
-0.35254
-0.350837
-0.349226
-0.347752
-0.346435
-0.34527
-0.344233
-0.343272
-0.342305
-0.341216
-0.339845
-0.337996
-0.335281
-0.33061
-0.325422
-0.356545
-0.356002
-0.355081
-0.353865
-0.352468
-0.351
-0.34955
-0.348182
-0.346936
-0.345829
-0.344858
-0.343997
-0.3432
-0.3424
-0.3415
-0.340387
-0.338948
-0.336928
-0.333549
-0.3307
-0.354335
-0.353839
-0.353062
-0.352048
-0.350885
-0.349668
-0.348472
-0.347353
-0.346344
-0.345459
-0.344693
-0.344024
-0.343416
-0.342813
-0.342147
-0.341345
-0.340354
-0.33897
-0.336601
-0.335434
-0.352306
-0.35185
-0.351207
-0.350386
-0.349452
-0.348483
-0.347543
-0.346678
-0.345913
-0.34526
-0.344712
-0.34425
-0.343845
-0.343456
-0.343036
-0.342547
-0.341976
-0.341165
-0.33966
-0.339735
-0.350371
-0.349967
-0.349455
-0.348822
-0.348112
-0.347388
-0.346703
-0.346094
-0.345581
-0.345168
-0.34485
-0.34461
-0.344425
-0.344266
-0.344103
-0.343926
-0.343752
-0.343451
-0.342662
-0.343619
-0.348455
-0.348128
-0.347754
-0.347306
-0.346813
-0.34633
-0.345897
-0.345543
-0.345283
-0.345117
-0.345038
-0.345032
-0.345081
-0.345164
-0.345265
-0.345392
-0.345578
-0.345704
-0.345459
-0.347007
-0.346497
-0.346286
-0.346061
-0.345796
-0.345515
-0.345264
-0.345076
-0.344972
-0.34496
-0.34504
-0.345203
-0.345436
-0.345725
-0.346055
-0.346419
-0.346834
-0.34734
-0.347814
-0.347966
-0.349906
-0.344458
-0.344406
-0.344345
-0.344261
-0.344186
-0.344156
-0.3442
-0.344333
-0.344561
-0.344879
-0.345278
-0.345747
-0.346272
-0.346844
-0.347459
-0.34814
-0.348925
-0.34968
-0.350124
-0.352343
-0.342317
-0.342472
-0.342589
-0.342686
-0.342806
-0.342984
-0.343243
-0.343596
-0.344046
-0.344586
-0.345207
-0.345897
-0.346646
-0.347445
-0.348292
-0.349212
-0.350238
-0.351219
-0.351889
-0.35433
-0.340078
-0.340484
-0.340792
-0.341065
-0.341369
-0.341737
-0.342191
-0.342742
-0.343391
-0.344131
-0.344953
-0.345844
-0.346794
-0.347797
-0.348851
-0.349981
-0.351213
-0.352377
-0.353231
-0.355868
-0.337766
-0.338458
-0.338967
-0.33941