/*--------------------------------*- C++ -*----------------------------------*\
  =========                 |
  \\      /  F ield         | OpenFOAM: The Open Source CFD Toolbox
   \\    /   O peration     | Website:  https://openfoam.org
    \\  /    A nd           | Version:  6.0
     \\/     M anipulation  |
\*---------------------------------------------------------------------------*/
FoamFile
{
    version     2.0;
    format      ascii;
    class       surfaceScalarField;
    location    "7.1";
    object      phi;
}
// * * * * * * * * * * * * * * * * * * * * * * * * * * * * * * * * * * * * * //

dimensions      [0 3 -1 0 0 0 0];

internalField   nonuniform List<scalar> 
15760
(
-7.93077e-06
7.75321e-06
1.77558e-07
-2.70963e-05
1.87292e-05
4.36353e-07
-5.44547e-05
2.6734e-05
6.24301e-07
-8.78416e-05
3.26283e-05
7.5872e-07
-0.000125678
3.69832e-05
8.53273e-07
-0.000166814
4.02167e-05
9.18854e-07
-0.000210415
4.26375e-05
9.63814e-07
-0.000255885
4.44754e-05
9.94232e-07
-0.000302802
4.59031e-05
1.01427e-06
-0.000350881
4.70522e-05
1.02657e-06
-0.000399937
4.80237e-05
1.03265e-06
-0.000449867
4.88962e-05
1.03332e-06
-0.000500628
4.97325e-05
1.02891e-06
-0.00055223
5.05826e-05
1.01957e-06
-0.000604723
5.14873e-05
1.00539e-06
-0.000658189
5.24796e-05
9.86506e-07
-0.000712736
5.35842e-05
9.63199e-07
-0.000768485
5.48124e-05
9.35727e-07
-0.000825558
5.61691e-05
9.04433e-07
5.7699e-05
8.69954e-07
-0.000884127
-7.67423e-06
1.54274e-05
-2.62748e-05
3.73297e-05
-5.28709e-05
5.33302e-05
-8.53609e-05
6.51182e-05
-0.000122199
7.38214e-05
-0.00016225
8.0268e-05
-0.000204685
8.50722e-05
-0.000248902
8.86924e-05
-0.000294473
9.1474e-05
-0.000341101
9.36801e-05
-0.00038859
9.55127e-05
-0.000436823
9.71297e-05
-0.000485747
9.86564e-05
-0.000535359
0.000100194
-0.000585698
0.000101826
-0.000636837
0.000103619
-0.00068888
0.000105627
-0.000741941
0.000107874
-0.000796145
0.000110373
0.000113212
-0.000851658
-7.17523e-06
2.26027e-05
-2.46728e-05
5.48272e-05
-4.97771e-05
7.84346e-05
-8.05077e-05
9.58488e-05
-0.000115385
0.000108698
-0.000153304
0.000118187
-0.000193443
0.000125211
-0.000235195
0.000130444
-0.000278117
0.000134396
-0.000321892
0.000137455
-0.000366301
0.000139922
-0.000411204
0.000142033
-0.000456523
0.000143975
-0.000502232
0.000145904
-0.000548351
0.000147945
-0.000594937
0.000150206
-0.000642081
0.00015277
-0.000689893
0.000155686
-0.000738498
0.000158977
0.000162774
-0.00078806
-6.46631e-06
2.9069e-05
-2.23873e-05
7.07482e-05
-4.53493e-05
0.000101397
-7.35433e-05
0.000124043
-0.000105584
0.000140739
-0.000140413
0.000153015
-0.000177221
0.000162019
-0.000215394
0.000168618
-0.000254471
0.000173473
-0.000294106
0.000177091
-0.000334051
0.000179867
-0.000374131
0.000182112
-0.000414234
0.000184078
-0.000454304
0.000185973
-0.000494331
0.000187972
-0.000534351
0.000190226
-0.00057444
0.000192859
-0.000614705
0.000195951
-0.000655273
0.000199546
0.000203817
-0.000696316
-5.5931e-06
3.46621e-05
-1.95553e-05
8.47104e-05
-3.98376e-05
0.000121679
-6.4841e-05
0.000149046
-9.32988e-05
0.000169197
-0.00012421
0.000183927
-0.000156788
0.000194597
-0.000190413
0.000202243
-0.000224602
0.000207661
-0.000258979
0.000211469
-0.000293259
0.000214146
-0.000327225
0.000216078
-0.000360726
0.000217579
-0.000393666
0.000218913
-0.000426001
0.000220308
-0.000457739
0.000221964
-0.000488941
0.00022406
-0.000519713
0.000226723
-0.000550198
0.000230031
0.000234207
-0.000580587
-4.61077e-06
3.92729e-05
-1.6344e-05
9.64436e-05
-3.355e-05
0.000138885
-5.48632e-05
0.000170359
-7.91526e-05
0.000193487
-0.000105488
0.000210263
-0.00013311
0.000222218
-0.0001614
0.000230532
-0.000189854
0.000236116
-0.000218067
0.000239682
-0.000245711
0.000241791
-0.000272528
0.000242895
-0.000298318
0.00024337
-0.000322941
0.000243536
-0.000346313
0.000243679
-0.00036841
0.000244061
-0.000389275
0.000244926
-0.00040902
0.000246468
-0.000427817
0.000248828
0.000252293
-0.000445903
-3.57971e-06
4.28526e-05
-1.29389e-05
0.000105803
-2.68313e-05
0.000152777
-4.41325e-05
0.000187661
-6.3856e-05
0.00021321
-8.51519e-05
0.000231559
-0.000107297
0.000244363
-0.000129679
0.000252914
-0.000151781
0.000258218
-0.000173169
0.00026107
-0.000193477
0.000262099
-0.0002124
0.000261818
-0.00022969
0.000260659
-0.000245154
0.000259
-0.000258661
0.000257187
-0.000270152
0.000255552
-0.000279647
0.000254421
-0.000287268
0.000254088
-0.00029323
0.000254791
0.000256915
-0.000297852
-2.56104e-06
4.54136e-05
-9.53039e-06
0.000112772
-2.00398e-05
0.000163287
-3.31968e-05
0.000200818
-4.81602e-05
0.000228173
-6.41658e-05
0.000247564
-8.0535e-05
0.000260732
-9.66716e-05
0.00026905
-0.000112054
0.000273601
-0.000126225
0.000275241
-0.000138786
0.000274659
-0.000149387
0.000272419
-0.000157728
0.000269
-0.000163561
0.000264833
-0.000166699
0.000260325
-0.000167033
0.000255886
-0.000164556
0.000251944
-0.00015939
0.000248923
-0.000151814
0.000247214
0.000247366
-0.000142265
-1.61213e-06
4.70257e-05
-6.30028e-06
0.00011746
-1.35219e-05
0.000170508
-2.25919e-05
0.000209888
-3.28057e-05
0.000238387
-4.3487e-05
0.000258245
-5.4009e-05
0.000271254
-6.38014e-05
0.000278843
-7.2348e-05
0.000282147
-7.91811e-05
0.000282074
-8.38751e-05
0.000279353
-8.60419e-05
0.000274586
-8.53304e-05
0.000268288
-8.14314e-05
0.000260934
-7.40912e-05
0.000252985
-6.31353e-05
0.00024493
-4.8506e-05
0.000237314
-3.03161e-05
0.000230733
-8.90484e-06
0.000225803
0.000223341
1.51202e-05
-7.82533e-07
4.78083e-05
-3.40842e-06
0.000120086
-7.58649e-06
0.000174686
-1.28008e-05
0.000215102
-1.84667e-05
0.000244053
-2.39921e-05
0.000263771
-2.88076e-05
0.00027607
-3.23785e-05
0.000282414
-3.42062e-05
0.000283975
-3.38248e-05
0.000281693
-3.07948e-05
0.000276323
-2.46986e-05
0.00026849
-1.51387e-05
0.000258728
-1.74225e-06
0.000247537
1.58233e-05
0.000235419
3.782e-05
0.000222933
6.43869e-05
0.000210747
9.54558e-05
0.000199664
0.000130641
0.000190618
0.000184859
0.000169123
-1.10585e-07
4.79189e-05
-9.80998e-07
0.000120957
-2.4812e-06
0.000176187
-4.21519e-06
0.000216836
-5.69382e-06
0.000245532
-6.40059e-06
0.000264478
-5.82457e-06
0.000275494
-3.47442e-06
0.000280063
1.11902e-06
0.000279381
8.40635e-06
0.000274405
1.88262e-05
0.000265904
3.28126e-05
0.000254503
5.07996e-05
0.000240742
7.322e-05
0.000225117
0.000100493
0.000208146
0.00013299
0.000190436
0.000170972
0.000172766
0.000214466
0.00015617
0.000263085
0.000141999
0.000132167
0.000315777
3.79237e-07
4.75396e-05
8.99295e-07
0.000120437
1.62874e-06
0.000175457
2.90021e-06
0.000215565
5.13876e-06
0.000243293
8.80025e-06
0.000260816
1.43413e-05
0.000269953
2.22071e-05
0.000272198
3.28296e-05
0.000268759
4.66323e-05
0.000260603
6.40391e-05
0.000248497
8.54841e-05
0.000233058
0.000111422
0.000214804
0.000142333
0.000194205
0.000178719
0.00017176
0.000221073
0.000148082
0.00026981
0.000124029
0.000325118
0.000100861
0.000386682
8.04348e-05
6.56187e-05
0.000453231
6.78113e-07
4.68615e-05
2.20044e-06
0.000118914
4.67657e-06
0.000172981
8.43659e-06
0.000211805
1.38787e-05
0.000237851
2.142e-05
0.000253275
3.1475e-05
0.000259898
4.44478e-05
0.000259225
6.07334e-05
0.000252473
8.07236e-05
0.000240612
0.000104818
0.000224402
0.000133436
0.00020444
0.000167033
0.000181207
0.000206113
0.000155126
0.000251234
0.000126639
0.000302998
9.63183e-05
0.000361983
6.50441e-05
0.000428585
3.42596e-05
0.000502655
6.3643e-06
-1.44995e-05
0.000582773
7.93792e-07
4.60677e-05
2.94523e-06
0.000116763
6.70407e-06
0.000169222
1.24599e-05
0.000206049
2.06262e-05
0.000229685
3.16112e-05
0.00024229
4.58092e-05
0.0002457
6.36003e-05
0.000241434
8.53547e-05
0.000230719
0.00011144
0.000214527
0.000142233
0.000193609
0.000178131
0.000168542
0.000219569
0.000139769
0.00026704
0.000107655
0.000321112
7.25665e-05
0.000382436
3.49944e-05
0.000451708
-4.22776e-06
0.000529525
-4.3557e-05
0.000615982
-8.00923e-05
-0.000108163
0.000709645
7.50557e-07
4.53172e-05
3.21175e-06
0.000114302
7.86399e-06
0.00016457
1.52172e-05
0.000198695
2.5746e-05
0.000219156
3.98881e-05
0.000228148
5.80511e-05
0.000227537
8.06214e-05
0.000218863
0.000107972
0.000203368
0.000140471
0.000182028
0.000178488
0.000155593
0.000222402
0.000124628
0.000272615
8.95557e-05
0.000329569
5.0701e-05
0.000393768
8.36661e-06
0.000465809
-3.70463e-05
0.000546377
-8.47961e-05
0.000636165
-0.000133344
0.000735506
-0.000179434
-0.000215796
0.00084314
5.88059e-07
4.47291e-05
3.12965e-06
0.00011176
8.4133e-06
0.000159286
1.71264e-05
0.000189982
2.98542e-05
0.000206428
4.71092e-05
0.000210893
6.93568e-05
0.000205289
9.70336e-05
0.000191187
0.000130558
0.000169843
0.000170338
0.000142248
0.000216765
0.000109165
0.00027022
7.11732e-05
0.000331068
2.87081e-05
0.000399661
-1.78923e-05
0.000476357
-6.83296e-05
0.000561549
-0.000122239
0.000655708
-0.000178954
0.000759376
-0.000237013
0.000872966
-0.000293024
-0.000338346
0.000995516
3.58792e-07
4.43703e-05
2.87167e-06
0.000109247
8.69632e-06
0.000153462
1.87496e-05
0.000179929
3.37777e-05
0.0001914
5.44191e-05
0.000190251
8.1249e-05
0.000178459
0.000114807
0.000157629
0.000155608
0.000129042
0.000204143
9.37132e-05
0.000260869
5.24392e-05
0.00032619
5.85211e-06
0.000400436
-4.55374e-05
0.000483839
-0.000101296
0.000576529
-0.000161019
0.000678541
-0.000224251
0.000789881
-0.000290294
0.000910591
-0.000357722
0.00104073
-0.000423167
-0.000477171
0.00117956
1.2406e-07
4.42462e-05
2.64002e-06
0.000106731
9.11728e-06
0.000146984
2.07471e-05
0.000168299
3.84856e-05
0.000173662
6.31493e-05
0.000165588
9.54766e-05
0.000146132
0.000136161
0.000116944
0.000185862
7.93416e-05
0.000245194
3.43806e-05
0.000314707
-1.7073e-05
0.000394841
-7.42825e-05
0.000485889
-0.000136585
0.000587935
-0.000203342
0.000700811
-0.000273895
0.00082407
-0.000347509
0.000957022
-0.000423247
0.00109885
-0.000499553
0.0012487
-0.000573012
-0.000634076
0.0014056
-5.14806e-08
4.42977e-05
2.64844e-06
0.000104031
1.01042e-05
0.000139529
2.38172e-05
0.000154586
4.49973e-05
0.000152482
7.46854e-05
0.0001359
0.000113828
0.00010699
0.00016331
6.74621e-05
0.000223962
1.869e-05
0.000296535
-3.81933e-05
0.000381669
-0.000102207
0.000479833
-0.000172446
0.000591264
-0.000248016
0.000715889
-0.000327967
0.000853237
-0.000411244
0.00100235
-0.00049662
0.00116171
-0.000582608
0.0013293
-0.00066714
0.00150272
-0.000746434
-0.000811523
0.00168017
-1.06133e-07
4.44039e-05
3.10181e-06
0.000100823
1.20676e-05
0.000130563
2.86275e-05
0.000138026
5.42779e-05
0.000126831
9.03167e-05
9.98607e-05
0.000137921
5.93852e-05
0.000198177
7.20666e-06
0.000272068
-5.52013e-05
0.000360447
-0.000126572
0.000463982
-0.000205742
0.000583105
-0.00029157
0.000717957
-0.000382867
0.000868332
-0.000478341
0.00103363
-0.000576539
0.00121278
-0.000675772
0.00140414
-0.000773964
0.00160501
-0.000868013
0.00180971
-0.000951133
-0.00100298
0.00200117
1.19367e-08
4.43919e-05
4.17531e-06
9.66599e-05
1.536e-05
0.000119378
3.57479e-05
0.000117639
6.71379e-05
9.54412e-05
0.000111093
5.59051e-05
0.000169012
1.46622e-06
0.000242139
-6.59196e-05
0.000331535
-0.000144598
0.000438033
-0.000233069
0.000562176
-0.000329886
0.000704176
-0.000433569
0.000863883
-0.000542575
0.00104081
-0.00065527
0.00123422
-0.000769948
0.00144331
-0.000884863
0.00166761
-0.000998265
0.00190794
-0.00110834
0.00216983
-0.00121303
-0.0013023
0.00246915
3.42735e-07
4.40492e-05
6.00376e-06
9.09989e-05
2.02504e-05
0.000105132
4.56041e-05
9.22849e-05
8.41596e-05
5.68857e-05
0.000137722
2.3425e-06
0.000207854
-6.86655e-05
0.000295858
-0.000153924
0.000402724
-0.000251464
0.00052906
-0.000359405
0.000675024
-0.00047585
0.000840294
-0.000598839
0.00102406
-0.000726341
0.00122508
-0.000856289
0.00144178
-0.000986653
0.00167245
-0.00111553
0.00191544
-0.00124126
0.00216965
-0.00136255
0.00243514
-0.00147852
-0.00158011
0.00271294
9.08355e-07
4.31408e-05
8.66777e-06
8.32395e-05
2.69012e-05
8.68981e-05
5.84438e-05
6.07423e-05
0.000105651
9.67816e-06
0.000170506
-6.25126e-05
0.000254628
-0.000152787
0.000359216
-0.000258512
0.000484969
-0.000377217
0.000632002
-0.000506437
0.000799785
-0.000643633
0.000987134
-0.000786189
0.00119225
-0.00093146
0.00141283
-0.00107686
0.00164617
-0.00121999
0.00188937
-0.00135873
0.00213947
-0.00149135
0.00239356
-0.00161664
0.0026489
-0.00173386
-0.00183569
0.00290448
1.71678e-06
4.14241e-05
1.22001e-05
7.27561e-05
3.53748e-05
6.37234e-05
7.43422e-05
2.17749e-05
0.00013165
-4.76293e-05
0.000209347
-0.00014021
0.000308945
-0.000252384
0.000431318
-0.000380885
0.000576601
-0.0005225
0.00074411
-0.000673947
0.000932325
-0.000831848
0.00113893
-0.000992797
0.00136096
-0.00115348
0.00159492
-0.00131083
0.00183706
-0.00146213
0.00208353
-0.0016052
0.00233057
-0.00173839
0.00257459
-0.00186066
0.00281233
-0.00197159
-0.00206631
0.00304295
2.76475e-06
3.86593e-05
1.6594e-05
5.89269e-05
4.56485e-05
3.46689e-05
9.32222e-05
-2.57989e-05
0.000161946
-0.000116353
0.000253775
-0.000232039
0.000369889
-0.000368498
0.000510561
-0.000521556
0.000675051
-0.000686991
0.000861579
-0.000860475
0.00106738
-0.00103765
0.00128886
-0.00121428
0.00152186
-0.00138647
0.00176187
-0.00155084
0.00200439
-0.00170466
0.00224513
-0.00184595
0.00248023
-0.00197348
0.00270632
-0.00208675
0.00292066
-0.00218593
-0.00226845
0.0031228
4.04276e-06
3.46166e-05
2.1816e-05
4.11537e-05
5.76359e-05
-1.15105e-06
0.000114886
-8.30485e-05
0.000196126
-0.000197594
0.000303004
-0.000338917
0.000436087
-0.000501582
0.000594732
-0.0006802
0.000777014
-0.000869274
0.000979803
-0.00106326
0.00119895
-0.0012568
0.00142962
-0.00144495
0.00166663
-0.00162348
0.00190486
-0.00178907
0.00213956
-0.00193935
0.00236661
-0.002073
0.00258269
-0.00218957
0.00278535
-0.00228941
0.00297294
-0.00237353
-0.00244125
0.00314574
5.53968e-06
2.90769e-05
2.78184e-05
1.88749e-05
7.12078e-05
-4.45404e-05
0.00013904
-0.000150881
0.000233606
-0.00029216
0.000355969
-0.000461279
0.000505769
-0.000651382
0.000681116
-0.000855547
0.000878636
-0.00106679
0.00109371
-0.00127833
0.00132084
-0.00148393
0.00155416
-0.00167827
0.00178791
-0.00185723
0.00201685
-0.00201801
0.00223661
-0.0021591
0.00244381
-0.0022802
0.0026362
-0.00238196
0.00281255
-0.00246575
0.00297251
-0.00253349
-0.00258593
0.00311719
7.24547e-06
2.18314e-05
3.45463e-05
-8.42587e-06
8.6202e-05
-9.61961e-05
0.000165313
-0.000229992
0.000273644
-0.000400491
0.000411359
-0.000598994
0.000576828
-0.000816851
0.000766623
-0.00104534
0.000975757
-0.00127593
0.00119814
-0.00150072
0.00142719
-0.00171298
0.00165645
-0.00190753
0.0018801
-0.00208089
0.00209343
-0.00223133
0.00229294
-0.00235862
0.00247648
-0.00246374
0.00264309
-0.00254857
0.00279283
-0.0026155
0.00292655
-0.0026672
-0.00270547
0.00304608
9.15144e-06
1.268e-05
4.19372e-05
-4.12116e-05
0.000102422
-0.000156681
0.000193247
-0.000320817
0.000315346
-0.000522589
0.000467634
-0.000751282
0.000646891
-0.000996108
0.000847952
-0.0012464
0.00106421
-0.00149219
0.00128836
-0.00172487
0.00151315
-0.00193777
0.00173211
-0.00212648
0.00194001
-0.00228879
0.00213314
-0.00242446
0.00230932
-0.0025348
0.00246776
-0.00262218
0.00260881
-0.00268962
0.00273365
-0.00274033
0.00284398
-0.00277754
-0.00280362
0.00294213
1.12483e-05
1.43168e-06
4.99158e-05
-7.98791e-05
0.000119629
-0.000226394
0.000222289
-0.000423477
0.000357658
-0.000657959
0.000523058
-0.000916682
0.000713425
-0.00118648
0.000921805
-0.00145478
0.00114018
-0.00171057
0.00136045
-0.00194514
0.0015753
-0.00215262
0.00177885
-0.00233003
0.00196697
-0.00247692
0.00213735
-0.00259484
0.00228923
-0.00268668
0.00242316
-0.00275611
0.00254056
-0.00280702
0.0026434
-0.00284318
0.00273389
-0.00286802
-0.00288423
0.0028145
1.35228e-05
-1.20911e-05
5.83853e-05
-0.000124742
0.000137524
-0.000305533
0.000251781
-0.000537734
0.000399387
-0.000805565
0.000575764
-0.00109306
0.000773886
-0.0013846
0.000985147
-0.00166605
0.00120052
-0.00192594
0.0014117
-0.00215631
0.00161192
-0.00235284
0.00179644
-0.00251455
0.00196259
-0.00264307
0.00210953
-0.00274178
0.0022379
-0.00281505
0.0023493
-0.00286751
0.0024459
-0.00290362
0.0025301
-0.00292738
0.00260427
-0.00294219
-0.00295073
0.00267077
1.59546e-05
-2.80457e-05
6.72197e-05
-0.000176007
0.000155746
-0.000394059
0.000280965
-0.000662953
0.000439229
-0.000963829
0.000623859
-0.00127769
0.000825908
-0.00158665
0.00103547
-0.0018756
0.00124306
-0.00213354
0.00144079
-0.00235405
0.00162302
-0.00253507
0.0017865
-0.00267802
0.00193011
-0.00278668
0.00205444
-0.00286612
0.00216123
-0.00292183
0.00225281
-0.00295909
0.00233176
-0.00298257
0.00240059
-0.0029962
0.00246155
-0.00300315
-0.00300592
0.00251673
1.85138e-05
-4.65596e-05
7.62594e-05
-0.000233752
0.00017387
-0.00049167
0.000309001
-0.000798084
0.000475846
-0.00113067
0.000665553
-0.0014674
0.000867502
-0.0017886
0.00107098
-0.00207908
0.0012667
-0.00232925
0.00144777
-0.00253512
0.00161005
-0.00269735
0.00175191
-0.00281988
0.00187373
-0.0029085
0.00197727
-0.00296965
0.00206499
-0.00300956
0.00213967
-0.00303377
0.00220395
-0.00304686
0.00226023
-0.00305248
0.0023105
-0.00305343
-0.00305193
0.00235652
2.11601e-05
-6.77197e-05
8.53126e-05
-0.000297905
0.000191416
-0.000597773
0.000335012
-0.00094168
0.000507946
-0.00130361
0.000699302
-0.00165875
0.000897204
-0.0019865
0.00109075
-0.00227263
0.00127145
-0.00250995
0.00143385
-0.00269753
0.00157549
-0.00283899
0.00169631
-0.00294071
0.00179795
-0.00301014
0.00188298
-0.00305468
0.00195432
-0.0030809
0.00201482
-0.00309426
0.00206701
-0.00309905
0.00211301
-0.00309848
0.00215453
-0.00309494
-0.00309032
0.00219293
2.38429e-05
-9.15626e-05
9.41602e-05
-0.000368222
0.000207876
-0.000711488
0.000358133
-0.00109194
0.00053438
-0.00147985
0.000723922
-0.00184829
0.000914177
-0.00217675
0.00109468
-0.00245313
0.00125823
-0.0026735
0.00140107
-0.00284037
0.00152241
-0.00296032
0.00162355
-0.00304185
0.00170706
-0.00309365
0.00177601
-0.00312363
0.00183345
-0.00313834
0.00188212
-0.00314293
0.0019243
-0.00314122
0.00196177
-0.00313595
0.00199591
-0.00312909
-0.00312219
0.00202778
2.65035e-05
-0.000118066
0.000102566
-0.000444284
0.000222738
-0.00083166
0.000377572
-0.00124677
0.000554227
-0.00165651
0.000738665
-0.00203273
0.000918212
-0.0023563
0.0010834
-0.00261832
0.00122866
-0.00281875
0.00135197
-0.00296368
0.00145405
-0.00306241
0.0015373
-0.00312509
0.00160486
-0.00316121
0.00166001
-0.00317878
0.00170572
-0.00318405
0.00174447
-0.00318168
0.00177821
-0.00317496
0.00180842
-0.00316616
0.00183616
-0.00315683
-0.00314824
0.00186222
2.9077e-05
-0.000147143
0.000110287
-0.000525494
0.00023552
-0.000956894
0.000392661
-0.00140391
0.000566847
-0.0018307
0.00074324
-0.00220912
0.000909676
-0.00252274
0.00105811
-0.00276676
0.00118475
-0.0029454
0.00128926
-0.00306818
0.00137357
-0.00314672
0.00144085
-0.00319236
0.00149454
-0.00321491
0.00153789
-0.00322213
0.00157364
-0.0032198
0.00160394
-0.00321199
0.00163042
-0.00320144
0.00165424
-0.00318998
0.00167623
-0.00317882
-0.00316896
0.00169695
3.14955e-05
-0.000178638
0.000117089
-0.000611087
0.000245797
-0.0010856
0.000402898
-0.00156101
0.000571909
-0.00199971
0.000737785
-0.002375
0.000889389
-0.00267434
0.00102038
-0.00289775
0.00112875
-0.00305376
0.00121559
-0.00315503
0.00128381
-0.00321494
0.001337
-0.00324555
0.00137867
-0.00325658
0.00141189
-0.00325535
0.00143906
-0.00324698
0.00146201
-0.00323494
0.00148205
-0.00322147
0.00150008
-0.00320801
0.00151672
-0.00319547
-0.00318463
0.00153239
3.36914e-05
-0.00021233
0.000122757
-0.000700152
0.000253225
-0.00121607
0.000407967
-0.00171576
0.000569384
-0.00216112
0.000722797
-0.00252841
0.000858499
-0.00281004
0.000971969
-0.00301122
0.00106284
-0.00314463
0.00113341
-0.00322559
0.00118721
-0.00326875
0.00122803
-0.00328637
0.00125926
-0.00328782
0.00128366
-0.00327975
0.0013033
-0.00326662
0.00131969
-0.00325132
0.00133384
-0.00323563
0.00134646
-0.00322063
0.00135803
-0.00320704
-0.00319541
0.00136882
3.56002e-05
-0.00024793
0.000127107
-0.000791659
0.000257559
-0.00134652
0.00040775
-0.00186595
0.000559514
-0.00231289
0.000699051
-0.00266795
0.000818343
-0.00292933
0.000914672
-0.00310755
0.000989116
-0.00321908
0.00104486
-0.00328133
0.00108581
-0.0033097
0.00111575
-0.0033163
0.00113781
-0.00330988
0.00115441
-0.00329635
0.0011673
-0.00327951
0.00117766
-0.00326168
0.0011863
-0.00324427
0.00119377
-0.0032281
0.0012004
-0.00321367
-0.00320142
0.0012064
3.71677e-05
-0.000285098
0.000130003
-0.000884495
0.000258673
-0.00147519
0.000402321
-0.00200959
0.000542775
-0.00245334
0.000667518
-0.00279269
0.00077035
-0.00303217
0.000850238
-0.00318744
0.000909447
-0.00327828
0.000951776
-0.00332366
0.000981288
-0.00333922
0.00100158
-0.00333659
0.00101547
-0.00332377
0.00102504
-0.00330592
0.00103171
-0.00328617
0.00103641
-0.00326639
0.00103979
-0.00324764
0.00104223
-0.00323055
0.00104402
-0.00321546
-0.00320268
0.00104528
3.83373e-05
-0.000323435
0.00013133
-0.000977487
0.000256511
-0.00160037
0.000391873
-0.00214496
0.000519753
-0.00258122
0.000629212
-0.00290215
0.00071588
-0.00311883
0.000780217
-0.00325178
0.00082541
-0.00332348
0.000855628
-0.00335388
0.000874895
-0.00335848
0.00088654
-0.00334823
0.000893046
-0.00333028
0.000896141
-0.00330901
0.000896967
-0.003287
0.000896262
-0.00326568
0.000894509
-0.00324589
0.000892023
-0.00322806
0.000889
-0.00321244
-0.00319922
0.00088554
3.90731e-05
-0.000362508
0.000131041
-0.00106945
0.000251147
-0.00172048
0.000376763
-0.00227057
0.000491182
-0.00269564
0.000585224
-0.00299619
0.000656264
-0.00318987
0.000706032
-0.00330154
0.00073838
-0.00335583
0.000757637
-0.00337314
0.000767659
-0.00336851
0.00077145
-0.00335203
0.000771146
-0.00332998
0.000768163
-0.00330603
0.000763407
-0.00328224
0.000757448
-0.00325972
0.000750657
-0.0032391
0.000743278
-0.00322068
0.000735462
-0.00320462
-0.00319104
0.000727285
3.9347e-05
-0.000401855
0.000129128
-0.00115924
0.000242727
-0.00183408
0.000357424
-0.00238527
0.00045783
-0.00279605
0.000536594
-0.00307496
0.000592697
-0.00324598
0.000628896
-0.00333774
0.000649476
-0.00337641
0.000658761
-0.00338242
0.000660348
-0.00337009
0.000656897
-0.00334857
0.000650208
-0.00332329
0.000641427
-0.00329725
0.000631259
-0.00327207
0.000620143
-0.00324861
0.000608363
-0.00322732
0.000596111
-0.00320843
0.000583506
-0.00319202
-0.00317814
0.000570608
3.9143e-05
-0.000440998
0.000125625
-0.00124572
0.000231464
-0.00193992
0.000334347
-0.00248815
0.000420469
-0.00288217
0.0004843
-0.00313879
0.000526237
-0.00328791
0.00054983
-0.00336134
0.000559603
-0.00338618
0.000559745
-0.00338256
0.000553544
-0.00336389
0.000543313
-0.00333834
0.000530548
-0.00331052
0.00051616
-0.00328286
0.000500693
-0.00325661
0.000484478
-0.00323239
0.000467735
-0.00321057
0.000450616
-0.00319131
0.000433222
-0.00317462
-0.00316052
0.0004156
3.84566e-05
-0.000479455
0.000120602
-0.00132786
0.000217618
-0.00203693
0.00030805
-0.00257858
0.000379848
-0.00295397
0.000429229
-0.00318817
0.000457799
-0.00331648
0.000469685
-0.00337322
0.000469485
-0.00338598
0.000461165
-0.00337424
0.000447682
-0.00335041
0.000431015
-0.00332168
0.000412392
-0.0032919
0.000392529
-0.003263
0.000371834
-0.00323591
0.000350556
-0.00321111
0.000328862
-0.00318888
0.000306878
-0.00316933
0.000284691
-0.00315243
-0.00313818
0.000262345
3.72944e-05
-0.000516749
0.000114158
-0.00140473
0.000201484
-0.00212426
0.000279052
-0.00265615
0.000336668
-0.00301158
0.000372167
-0.00322367
0.000388159
-0.00333248
0.000389152
-0.00337421
0.000379691
-0.00337652
0.000363463
-0.00335801
0.000343086
-0.00333003
0.000320236
-0.00329883
0.000295909
-0.00326757
0.000270656
-0.00323775
0.00024478
-0.00321003
0.000218459
-0.00318479
0.000191821
-0.00316224
0.000164971
-0.00314248
0.000137988
-0.00312545
-0.00311111
0.000110918
3.56725e-05
-0.000552422
0.000106418
-0.00147547
0.000183371
-0.00220121
0.00024786
-0.00272064
0.000291571
-0.00305529
0.000313804
-0.0032459
0.00031797
-0.00333664
0.000308795
-0.00336504
0.000290671
-0.00335839
0.000266976
-0.00333432
0.000239999
-0.00330305
0.000211149
-0.00326998
0.00018122
-0.00323764
0.000150634
-0.00320716
0.000119605
-0.00317901
8.82536e-05
-0.00315344
5.66749e-05
-0.00313066
2.49561e-05
-0.00311076
-6.82313e-06
-0.00309367
-0.00307932
-3.86106e-05
3.36159e-05
-0.000586038
9.75178e-05
-0.00153937
0.000163591
-0.00226729
0.000214952
-0.002772
0.000245133
-0.00308548
0.000254733
-0.0032555
0.000247775
-0.00332968
0.000229066
-0.00334633
0.000202778
-0.00333211
0.000171963
-0.00330351
0.000138607
-0.0032697
0.00010388
-0.00323525
6.84176e-05
-0.00320218
3.25317e-05
-0.00317127
-3.63469e-06
-0.00314284
-4.00081e-05
-0.00311707
-7.65259e-05
-0.00309415
-0.000113113
-0.00307417
-0.000149687
-0.0030571
-0.00304282
-0.000186183
3.11561e-05
-0.000617194
8.76074e-05
-0.00159582
0.000142454
-0.00232213
0.000180769
-0.00281032
0.000197866
-0.00310257
0.000195462
-0.0032531
0.000178025
-0.00331225
0.000150333
-0.00331864
0.00011629
-0.00329806
7.86279e-05
-0.00326584
3.90511e-05
-0.00323012
-1.46892e-06
-0.00319473
-4.24292e-05
-0.00316122
-8.36005e-05
-0.0031301
-0.000124898
-0.00310154
-0.000166291
-0.00307568
-0.000207747
-0.00305269
-0.000249205
-0.00303272
-0.000290569
-0.00301573
-0.00300163
-0.000331761
2.83307e-05
-0.000645524
7.68398e-05
-0.00164433
0.000120255
-0.00236555
0.000145719
-0.00283578
0.000150219
-0.00310707
0.000136422
-0.0032393
0.000109094
-0.00328492
7.28953e-05
-0.00328244
3.14369e-05
-0.00325661
-1.28632e-05
-0.00322154
-5.85483e-05
-0.00318444
-0.000104815
-0.00314846
-0.000151263
-0.00311477
-0.000197725
-0.00308364
-0.00024416
-0.00305511
-0.000290579
-0.00302926
-0.000336981
-0.00300629
-0.000383316
-0.00298638
-0.000429478
-0.00296957
-0.00295575
-0.00047536
2.51812e-05
-0.000670705
6.53695e-05
-0.00168452
9.72761e-05
-0.00239746
0.000110169
-0.00284867
0.000102587
-0.00309949
7.79835e-05
-0.0032147
4.12965e-05
-0.00324823
-2.99477e-06
-0.00323815
-5.15897e-05
-0.00320801
-0.000102365
-0.00317077
-0.000154083
-0.00313272
-0.00020608
-0.00309647
-0.00025803
-0.00306282
-0.000309809
-0.00303186
-0.000361409
-0.00300351
-0.000412876
-0.00297779
-0.000464247
-0.00295492
-0.000515491
-0.00293514
-0.000566483
-0.00291858
-0.00290515
-0.000617081
2.17524e-05
-0.000692458
5.33486e-05
-0.00171612
7.37793e-05
-0.00241789
7.44485e-05
-0.00284934
5.53145e-05
-0.00308036
2.04651e-05
-0.00317985
-2.5096e-05
-0.00320267
-7.71187e-05
-0.00318613
-0.000132615
-0.00315251
-0.000189737
-0.00311365
-0.000247441
-0.00307501
-0.000305175
-0.00303873
-0.000362669
-0.00300533
-0.000419819
-0.00297471
-0.000476636
-0.00294669
-0.000533197
-0.00292123
-0.000589584
-0.00289853
-0.000645798
-0.00287892
-0.000701701
-0.00286268
-0.00284977
-0.000757087
1.80912e-05
-0.000710549
4.09251e-05
-0.00173895
5.00085e-05
-0.00242697
3.88558e-05
-0.00283819
8.70599e-06
-0.00305021
-3.58556e-05
-0.00313529
-8.98455e-05
-0.00314868
-0.000149276
-0.0031267
-0.000211468
-0.00309032
-0.00027483
-0.00305028
-0.000338489
-0.00301135
-0.000401989
-0.00297523
-0.000465094
-0.00294223
-0.000527701
-0.00291211
-0.000589822
-0.00288457
-0.000651554
-0.0028595
-0.000713029
-0.00283705
-0.000774297
-0.00281765
-0.000835218
-0.00280175
-0.0027895
-0.000895485
1.42454e-05
-0.000724794
2.82411e-05
-0.00175295
2.61882e-05
-0.00242492
3.65719e-06
-0.00281566
-3.69701e-05
-0.00300958
-9.0732e-05
-0.00308152
-0.000152735
-0.00308668
-0.000219274
-0.00306016
-0.000287971
-0.00302162
-0.000357473
-0.00298078
-0.000427063
-0.00294176
-0.000496366
-0.00290593
-0.000565172
-0.00287342
-0.000633366
-0.00284391
-0.00070093
-0.00281701
-0.000767958
-0.00279247
-0.000834622
-0.00277039
-0.000901042
-0.00275123
-0.000967087
-0.00273571
-0.00272428
-0.00103231
1.02634e-05
-0.000735058
1.54311e-05
-0.00175812
2.52383e-06
-0.00241201
-3.09088e-05
-0.00278223
-8.14751e-05
-0.00295901
-0.000143943
-0.00301906
-0.000213561
-0.00301706
-0.000286919
-0.0029868
-0.000361929
-0.00294661
-0.000437459
-0.00290525
-0.000512939
-0.00286628
-0.000588078
-0.00283079
-0.000662692
-0.00279881
-0.000736645
-0.00276996
-0.00080987
-0.00274378
-0.000882413
-0.00271993
-0.00095446
-0.00269834
-0.00102621
-0.00267949
-0.00109756
-0.00266436
-0.00265389
-0.00116795
6.19251e-06
-0.00074125
2.62118e-06
-0.00175454
-2.07986e-05
-0.00238859
-6.46302e-05
-0.0027384
-0.000124597
-0.00289905
-0.000195286
-0.00294837
-0.00027213
-0.00294021
-0.000352014
-0.00290691
-0.000433126
-0.0028655
-0.000514542
-0.00282384
-0.000595837
-0.00278499
-0.000676809
-0.00274982
-0.000757322
-0.00271829
-0.000837235
-0.00269004
-0.000916425
-0.00266459
-0.000994859
-0.00264149
-0.0010727
-0.00262051
-0.00115024
-0.00260195
-0.00122745
-0.00258715
-0.00257735
-0.00130399
2.07876e-06
-0.000743329
-1.00725e-05
-0.00174239
-4.36126e-05
-0.00235505
-9.73204e-05
-0.00268469
-0.00016615
-0.00283022
-0.000244582
-0.00286994
-0.000328257
-0.00285654
-0.000414356
-0.00282081
-0.000501324
-0.00277853
-0.000588435
-0.00273673
-0.000675407
-0.00269802
-0.000762147
-0.00266308
-0.0008486
-0.00263184
-0.000934668
-0.00260398
-0.00102021
-0.00257905
-0.0011051
-0.00255659
-0.00118947
-0.00253614
-0.00127372
-0.0025177
-0.00135808
-0.00250279
-0.00249228
-0.00144315
-2.03456e-06
-0.000741295
-2.25454e-05
-0.00172188
-6.57729e-05
-0.00231182
-0.00012882
-0.00262164
-0.000205975
-0.00275306
-0.000291669
-0.00278424
-0.000381771
-0.00276644
-0.00047374
-0.00272885
-0.000566264
-0.00268601
-0.000658797
-0.00264419
-0.000751202
-0.00260561
-0.000843521
-0.00257076
-0.000935837
-0.00253952
-0.00102819
-0.00251162
-0.00112053
-0.00248672
-0.00121275
-0.00246438
-0.00130485
-0.00244403
-0.00139723
-0.00242532
-0.00149047
-0.00240955
-0.00239542
-0.00158732
-6.10777e-06
-0.000735187
-3.47059e-05
-0.00169328
-8.71571e-05
-0.00225937
-0.000158998
-0.0025498
-0.000243943
-0.00266812
-0.000336421
-0.00269176
-0.000432528
-0.00267033
-0.000529983
-0.00263139
-0.000627686
-0.00258831
-0.000725244
-0.00254664
-0.000822645
-0.00250821
-0.000920065
-0.00247334
-0.00101778
-0.00244181
-0.00111608
-0.00241332
-0.00121526
-0.00238753
-0.00131553
-0.00236411
-0.001417
-0.00234256
-0.00152027
-0.00232205
-0.0016277
-0.00230212
-0.0022947
-0.00172843
-1.00932e-05
-0.000725094
-4.64566e-05
-0.00165692
-0.000107643
-0.00219818
-0.000187732
-0.00246971
-0.000279943
-0.0025759
-0.000378733
-0.00259298
-0.000480419
-0.00256864
-0.000582955
-0.00252885
-0.000685408
-0.00248585