/*--------------------------------*- C++ -*----------------------------------*\
  =========                 |
  \\      /  F ield         | OpenFOAM: The Open Source CFD Toolbox
   \\    /   O peration     | Website:  https://openfoam.org
    \\  /    A nd           | Version:  6.0
     \\/     M anipulation  |
\*---------------------------------------------------------------------------*/
FoamFile
{
    version     2.0;
    format      ascii;
    class       volVectorField;
    location    "7.1";
    object      U;
}
// * * * * * * * * * * * * * * * * * * * * * * * * * * * * * * * * * * * * * //

dimensions      [0 1 -1 0 0 0 0];

internalField   nonuniform List<vector> 
8000
(
(-0.00142271 0.00149859 -4.29702e-21)
(-0.00732386 0.00354148 2.29814e-20)
(-0.0178646 0.00490704 -2.80271e-20)
(-0.030584 0.00581477 2.13744e-20)
(-0.0443149 0.00640081 1.04523e-20)
(-0.0584653 0.00675923 -3.13967e-20)
(-0.0726261 0.00695875 -2.79207e-21)
(-0.0865361 0.00704962 -1.0156e-21)
(-0.100046 0.00706876 -1.64874e-20)
(-0.113078 0.00704356 -8.98671e-21)
(-0.125604 0.00699454 6.65089e-21)
(-0.137629 0.00693724 2.55766e-20)
(-0.149176 0.0068836 -1.83643e-21)
(-0.160283 0.00684289 2.82216e-21)
(-0.170999 0.00682215 -2.60676e-20)
(-0.181408 0.00682625 1.61241e-20)
(-0.191566 0.00685882 -2.32711e-20)
(-0.201259 0.00692619 3.52673e-20)
(-0.210207 0.0070346 -3.85881e-23)
(-0.22043 0.00715108 7.89979e-21)
(-0.00161701 0.00458203 1.42661e-20)
(-0.0076762 0.0108565 -7.30206e-20)
(-0.0181547 0.0150747 -5.05958e-20)
(-0.030697 0.0178937 -3.44561e-20)
(-0.044184 0.0197248 -4.4451e-20)
(-0.0580467 0.0208545 9.68708e-21)
(-0.0718903 0.0214926 -5.15314e-20)
(-0.0854613 0.0217931 -1.16915e-20)
(-0.0986138 0.0218692 3.53395e-21)
(-0.111273 0.0218046 3.87378e-20)
(-0.123409 0.021662 -4.25306e-20)
(-0.135028 0.0214886 5.93589e-20)
(-0.146152 0.0213206 -4.46467e-20)
(-0.156817 0.0211862 -5.32308e-20)
(-0.167072 0.0211069 -7.38566e-20)
(-0.177002 0.0210978 4.69368e-20)
(-0.186664 0.0211703 -1.55177e-20)
(-0.195846 0.0213443 -5.62732e-20)
(-0.204251 0.0216399 5.32385e-20)
(-0.213903 0.0219586 -4.05424e-20)
(-0.001995 0.00749975 1.39599e-19)
(-0.00836487 0.0178226 7.25796e-20)
(-0.0187251 0.0248058 8.17291e-20)
(-0.0309232 0.0294998 6.83515e-21)
(-0.0439333 0.0325673 4.52802e-20)
(-0.0572316 0.034473 5.66492e-20)
(-0.0704511 0.0355598 -1.03166e-19)
(-0.0833541 0.0360803 -5.48951e-20)
(-0.0958024 0.036221 -7.19224e-20)
(-0.107724 0.0361206 7.66925e-20)
(-0.119092 0.0358833 -5.88056e-20)
(-0.129908 0.0355879 -7.61732e-20)
(-0.140196 0.0352953 -2.78454e-20)
(-0.14999 0.035053 2.64768e-20)
(-0.159338 0.0348981 -7.66491e-21)
(-0.168324 0.034857 1.04827e-20)
(-0.177011 0.0349502 1.24898e-19)
(-0.185188 0.0352126 -1.72424e-20)
(-0.192531 0.0356825 -1.28031e-19)
(-0.201063 0.0361954 1.73001e-19)
(-0.00253211 0.0101531 4.88718e-20)
(-0.00935081 0.0242282 -6.87205e-20)
(-0.0195486 0.0338316 -1.73906e-20)
(-0.0312575 0.0403374 3.24418e-20)
(-0.0435829 0.0446227 9.22614e-20)
(-0.0560659 0.047309 2.0246e-19)
(-0.0683796 0.0488582 1.98373e-19)
(-0.0803098 0.0496136 1.67087e-20)
(-0.0917307 0.0498302 1.22405e-19)
(-0.102576 0.0496993 1.87943e-19)
(-0.112819 0.0493652 -1.50931e-19)
(-0.122463 0.0489382 2.23354e-19)
(-0.131529 0.0485042 -5.14957e-20)
(-0.14005 0.0481314 1.25319e-20)
(-0.148075 0.0478736 5.38776e-20)
(-0.155686 0.0477706 7.21624e-20)
(-0.162956 0.0478538 -1.12951e-19)
(-0.169677 0.0481761 -9.49424e-20)
(-0.175484 0.0488007 -1.69021e-19)
(-0.1824 0.0494982 2.51263e-19)
(-0.00319461 0.0124613 -2.54332e-20)
(-0.01058 0.0298947 -2.61571e-19)
(-0.020588 0.0419181 -7.76127e-20)
(-0.0316935 0.0501426 -1.89277e-19)
(-0.0431623 0.0556125 7.15575e-20)
(-0.0546156 0.0590779 -1.13244e-19)
(-0.065778 0.0611024 3.91907e-20)
(-0.0764662 0.0621086 -2.41064e-19)
(-0.086571 0.0624137 1.27476e-19)
(-0.0960342 0.0622577 -1.52392e-19)
(-0.104833 0.0618232 -1.36047e-19)
(-0.112971 0.0612514 -1.5322e-19)
(-0.120468 0.0606536 1.39528e-19)
(-0.127357 0.0601195 -1.26038e-19)
(-0.133685 0.0597223 1.75712e-19)
(-0.139537 0.0595174 5.12687e-20)
(-0.144994 0.0595501 1.27514e-19)
(-0.149863 0.0598953 5.63408e-20)
(-0.153724 0.0606511 -2.22982e-19)
(-0.158592 0.0615268 3.7134e-19)
(-0.00394301 0.0143661 1.13052e-19)
(-0.0119885 0.0346856 8.40185e-21)
(-0.021799 0.0488775 4.66314e-20)
(-0.0322242 0.0586941 1.62731e-19)
(-0.042708 0.0652944 -2.4836e-20)
(-0.0529629 0.0695252 2.65147e-19)
(-0.062774 0.0720309 1.18207e-19)
(-0.0719955 0.0733002 9.92962e-21)
(-0.08054 0.0737043 3.05357e-19)
(-0.0883609 0.0735266 1.00736e-19)
(-0.095441 0.0729855 4.79455e-20)
(-0.101785 0.0722517 1.52089e-19)
(-0.107414 0.0714618 1.40114e-19)
(-0.112361 0.0707285 2.5729e-19)
(-0.116671 0.0701461 -2.301e-19)
(-0.120432 0.0697896 3.28187e-19)
(-0.123742 0.0697219 5.59647e-21)
(-0.126421 0.0700458 -4.22077e-19)
(-0.127996 0.0709069 5.4963e-19)
(-0.13046 0.0719619 2.33791e-19)
(-0.00473603 0.0158353 -6.65306e-20)
(-0.0135084 0.0385138 -1.21441e-19)
(-0.0231342 0.054577 -2.52554e-19)
(-0.0328428 0.065823 -7.55557e-21)
(-0.0422614 0.0734723 4.34474e-20)
(-0.0512006 0.0784353 -3.23412e-19)
(-0.0595122 0.0814145 -2.40525e-19)
(-0.0670941 0.08295 -3.42831e-20)
(-0.0738854 0.0834572 -3.05755e-19)
(-0.0798551 0.0832567 -2.12684e-19)
(-0.0849942 0.0825984 -6.21062e-20)
(-0.0893111 0.0816805 -2.00722e-19)
(-0.0928283 0.0806642 -2.96352e-21)
(-0.0955786 0.0796856 -2.68687e-19)
(-0.0976094 0.0788626 1.13965e-19)
(-0.0990102 0.0782937 -1.29873e-19)
(-0.0998947 0.078065 1.00867e-19)
(-0.100111 0.078314 -1.27127e-19)
(-0.0991325 0.0792513 -3.67034e-19)
(-0.098911 0.0804969 -1.12804e-19)
(-0.00553466 0.0168632 -2.49407e-20)
(-0.0150742 0.0413445 -2.70077e-20)
(-0.0245479 0.0589437 2.12026e-19)
(-0.0335431 0.0714193 -3.45609e-19)
(-0.0418655 0.0800038 5.06392e-20)
(-0.0494247 0.0856392 -2.00246e-19)
(-0.0561434 0.0890639 9.45659e-20)
(-0.0619681 0.090854 4.26939e-19)
(-0.0668691 0.0914578 -2.69165e-20)
(-0.070835 0.0912256 -3.20289e-19)
(-0.0738683 0.0904337 5.80039e-20)
(-0.0759832 0.0893038 1.10569e-20)
(-0.0772047 0.0880198 -6.73048e-20)
(-0.0775667 0.0867409 5.65722e-21)
(-0.0771177 0.0856101 5.89244e-19)
(-0.0759495 0.0847541 -8.33592e-20)
(-0.0741935 0.0842885 -1.651e-19)
(-0.0717317 0.0843951 -2.98285e-19)
(-0.0679953 0.0853713 3.03904e-19)
(-0.0648783 0.0868271 1.32779e-19)
(-0.00630592 0.0174695 1.24478e-19)
(-0.0166285 0.0431943 -1.63311e-19)
(-0.0259992 0.0619666 2.30717e-19)
(-0.0343201 0.0754359 2.32368e-19)
(-0.0415604 0.0848062 2.14141e-19)
(-0.0477254 0.0910227 4.34829e-19)
(-0.0528106 0.0948393 2.81894e-19)
(-0.0568145 0.0968523 -6.06952e-19)
(-0.0597432 0.0975319 3.11212e-19)
(-0.0616091 0.0972491 2.45235e-19)
(-0.0624294 0.0962996 -3.36471e-21)
(-0.0622263 0.0949237 2.76582e-19)
(-0.0610286 0.093324 2.17194e-19)
(-0.0588714 0.0916807 -1.17462e-19)
(-0.0558032 0.0901622 4.01516e-19)
(-0.0519172 0.0889264 -4.9809e-19)
(-0.0473616 0.0881264 2.00668e-19)
(-0.0420594 0.0880004 2.59243e-19)
(-0.0354133 0.0889597 -6.09344e-20)
(-0.0292525 0.090646 5.2671e-19)
(-0.00702591 0.0176956 2.51599e-19)
(-0.0181272 0.0441268 1.30835e-20)
(-0.0274552 0.063693 -9.01098e-20)
(-0.0351683 0.0778886 -9.49874e-20)
(-0.0413767 0.0878593 -4.40916e-19)
(-0.0461755 0.0945316 6.23899e-20)
(-0.0496315 0.0986573 1.7745e-19)
(-0.0517981 0.100839 -8.54201e-20)
(-0.052721 0.101557 7.06136e-20)
(-0.05244 0.101193 -1.84578e-20)
(-0.0509906 0.100055 -9.27404e-20)
(-0.0484055 0.0983954 8.81493e-20)
(-0.044718 0.0964283 -3.87118e-19)
(-0.0399642 0.0943503 3.70938e-19)
(-0.0341907 0.0923529 -3.23749e-19)
(-0.0274892 0.0906264 9.97689e-20)
(-0.0200213 0.0893678 2.29602e-19)
(-0.0117548 0.088886 -4.73514e-20)
(-0.00208349 0.0897404 -1.59595e-19)
(0.00722259 0.0916638 -1.08786e-19)
(-0.00768178 0.0176006 -3.13939e-19)
(-0.0195421 0.0442446 -2.03248e-20)
(-0.0288922 0.0642225 6.60471e-20)
(-0.0360792 0.0788524 1.69469e-19)
(-0.0413286 0.0892057 -2.39239e-19)
(-0.0448161 0.0961757 -2.08931e-19)
(-0.0466781 0.100498 4.88592e-19)
(-0.0470233 0.10277 -2.69777e-19)
(-0.0459398 0.103472 -1.74519e-19)
(-0.0434987 0.102989 -2.51453e-19)
(-0.0397565 0.101629 1.66909e-19)
(-0.0347591 0.0996483 -3.77749e-21)
(-0.0285452 0.0972661 -3.12917e-19)
(-0.021151 0.0946867 -5.15967e-19)
(-0.0126191 0.0921175 3.93459e-19)
(-0.00303515 0.0897783 -3.21482e-19)
(0.00743159 0.087913 4.56587e-19)
(0.018769 0.0869151 -1.27772e-19)
(0.0315708 0.0875313 2.73663e-19)
(0.0441 0.0896668 -9.16017e-19)
(-0.00827234 0.0172545 -6.36977e-19)
(-0.020862 0.0436786 4.16809e-19)
(-0.030294 0.063696 5.66176e-20)
(-0.0370364 0.0784538 1.09471e-20)
(-0.0414033 0.0889467 -2.56307e-19)
(-0.0436418 0.0960277 3.76929e-19)
(-0.0439534 0.100409 4.14011e-20)
(-0.042502 0.102674 -7.75541e-20)
(-0.0394199 0.103293 -2.49048e-19)
(-0.0348115 0.102646 2.69634e-19)
(-0.0287574 0.101035 6.8632e-19)
(-0.0213184 0.0987086 -1.51629e-19)
(-0.0125402 0.0958821 3.44372e-19)
(-0.00245868 0.0927562 -4.09192e-19)
(0.00888994 0.0895427 -3.94403e-19)
(0.0214301 0.0864805 2.3724e-19)
(0.0349922 0.0838564 3.96191e-19)
(0.0495239 0.0821561 -1.28423e-18)
(0.065588 0.0823551 1.49817e-19)
(0.0814304 0.0846333 2.02809e-19)
(-0.00880723 0.0167317 4.71867e-19)
(-0.0220904 0.0425751 1.54896e-19)
(-0.031648 0.0622825 8.04852e-19)
(-0.0380085 0.0768592 4.12572e-20)
(-0.0415504 0.0872337 -8.9475e-20)
(-0.0425827 0.0942203 -4.25791e-19)
(-0.0413673 0.0985045 3.62046e-19)
(-0.0381214 0.100651 6.49933e-19)
(-0.0330209 0.101115 4.34386e-19)
(-0.0262048 0.100264 3.13595e-19)
(-0.0177792 0.0983864 2.71022e-19)
(-0.00782174 0.095718 -4.88739e-19)
(0.00361326 0.0924571 -1.54648e-19)
(0.016489 0.0887892 -1.13506e-19)
(0.0307756 0.0849146 1.22274e-18)
(0.04641 0.0810737 -2.79773e-21)
(0.0632273 0.0775794 -3.07719e-19)
(0.0811408 0.0750048 -9.95049e-20)
(0.10067 0.0745879 8.86856e-19)
(0.119978 0.076901 1.10511e-19)
(-0.00930458 0.0161049 -2.34633e-20)
(-0.0232404 0.0410826 -4.45051e-19)
(-0.0329387 0.0601641 -6.60814e-19)
(-0.0389401 0.0742614 -1.83456e-19)
(-0.0416689 0.0842579 1.01216e-19)
(-0.0414879 0.0909376 2.17726e-20)
(-0.0387139 0.0949618 5.78688e-19)
(-0.0336131 0.0968751 -7.18023e-19)
(-0.0264028 0.0971169 -2.73216e-19)
(-0.0172554 0.096036 -5.51925e-19)
(-0.00630252 0.0939058 -4.7167e-19)
(0.0063601 0.0909418 -4.18394e-19)
(0.0206666 0.0873192 1.04558e-19)
(0.0365751 0.0831965 -1.36229e-19)
(0.0540578 0.0787457 5.88549e-19)
(0.0730599 0.0741843 -3.22469e-19)
(0.0934199 0.0698221 -1.02012e-18)
(0.115017 0.0662915 -2.09021e-19)
(0.138329 0.0651072 5.0676e-19)
(0.161368 0.0673519 -4.37186e-19)
(-0.00978733 0.015438 -7.52653e-20)
(-0.0243277 0.0393387 5.43426e-19)
(-0.0341376 0.0575204 -6.92077e-19)
(-0.0397407 0.0708635 1.60154e-19)
(-0.0415947 0.0802357 -3.28694e-19)
(-0.0401102 0.086404 7.31493e-19)
(-0.0356521 0.0900124 -5.22945e-19)
(-0.0285301 0.0915885 5.98865e-19)
(-0.018998 0.0915556 -5.67253e-19)
(-0.00725784 0.0902463 2.43116e-19)
(0.00653491 0.087917 -1.17629e-19)
(0.0222649 0.084763 -2.9627e-19)
(0.0398501 0.0809343 -3.67601e-19)
(0.059235 0.0765561 3.6793e-19)
(0.080381 0.071759 -3.09198e-19)
(0.103227 0.066714 -6.80909e-19)
(0.1276 0.0616877 7.11109e-19)
(0.153333 0.0573182 -9.10827e-19)
(0.180872 0.0553727 4.12835e-19)
(0.208059 0.0575417 1.68408e-20)
(-0.0102784 0.0147813 -6.80184e-19)
(-0.0253605 0.0374588 -7.32568e-19)
(-0.0351931 0.0545143 8.45538e-20)
(-0.040274 0.0668646 -7.03843e-19)
(-0.0410901 0.0753941 -6.18835e-20)
(-0.0380954 0.0808705 -5.17155e-19)
(-0.0316962 0.0839298 -1.18457e-19)
(-0.0222381 0.0850886 -3.46081e-19)
(-0.0100044 0.0847579 4.01346e-21)
(0.00477849 0.083258 -1.51127e-19)
(0.0219331 0.0808325 1.16995e-20)
(0.0413224 0.0776612 -4.38542e-19)
(0.0628399 0.0738731 4.86741e-19)
(0.086401 0.0695635 -6.89646e-19)
(0.111933 0.0648184 2.46793e-19)
(0.139338 0.0597472 1.04935e-20)
(0.168398 0.0545357 -3.9441e-19)
(0.198867 0.0497516 9.86542e-19)
(0.231167 0.0473394 -2.34535e-19)
(0.263063 0.0496554 -1.53113e-19)
(-0.0107953 0.0141678 7.62156e-19)
(-0.02633 0.0355273 4.10852e-19)
(-0.0360195 0.0512801 3.81523e-19)
(-0.0403487 0.0624449 5.69157e-20)
(-0.0398371 0.0699559 5.14809e-19)
(-0.0349797 0.0745993 7.41177e-19)
(-0.0262178 0.0770146 6.05546e-19)
(-0.0139247 0.0777146 5.49166e-20)
(0.00159391 0.0771041 4.43964e-19)
(0.0200918 0.0754972 6.85937e-19)
(0.04137 0.0731317 -1.77518e-19)
(0.0652635 0.0701809 2.99204e-19)
(0.0916271 0.0667642 2.41368e-19)
(0.120323 0.0629587 2.46844e-19)
(0.151207 0.0588165 1.47041e-18)
(0.184103 0.0543885 -5.52051e-19)
(0.218695 0.049759 -3.35551e-20)
(0.254594 0.0453442 6.49749e-19)
(0.292181 0.0431388 -3.7005e-19)
(0.329408 0.0462057 1.81727e-19)
(-0.0113452 0.0136105 -6.14998e-19)
(-0.0272003 0.0335925 3.87479e-20)
(-0.0364882 0.0479153 -4.89864e-19)
(-0.0397128 0.0577556 -6.34366e-20)
(-0.0374371 0.0641263 3.57704e-19)
(-0.030197 0.0678494 -1.06497e-18)
(-0.0184641 0.0695786 -1.13563e-21)
(-0.00263308 0.0698305 4.95417e-19)
(0.0169725 0.0690101 4.64634e-19)
(0.0400868 0.0674319 -2.05159e-19)
(0.0664832 0.0653357 6.7748e-20)
(0.0959549 0.0628989 1.56703e-19)
(0.128294 0.0602456 -7.42772e-20)
(0.163275 0.0574546 -8.38734e-19)
(0.200635 0.0545693 2.12013e-19)
(0.240052 0.0516087 5.91024e-19)
(0.281049 0.0485707 -8.45182e-19)
(0.323006 0.0456692 4.12246e-19)
(0.366196 0.0448183 1.11696e-19)
(0.409195 0.0498993 5.63552e-19)
(-0.0119197 0.0131031 -8.9904e-20)
(-0.0279017 0.0316656 -4.29301e-19)
(-0.0364227 0.0444767 1.97536e-19)
(-0.0380541 0.0529113 1.00055e-21)
(-0.0334192 0.058083 -8.57856e-19)
(-0.0230986 0.0608633 1.34169e-19)
(-0.00759287 0.0619293 -2.53183e-20)
(0.0126822 0.0618076 1.72614e-19)
(0.0373825 0.060908 -7.90174e-19)
(0.0662134 0.0595494 -5.58072e-20)
(0.0989043 0.0579789 -1.86424e-19)
(0.135182 0.0563854 1.64863e-19)
(0.174745 0.0549107 5.60511e-19)
(0.217238 0.0536574 -8.64697e-20)
(0.262228 0.0526978 3.41868e-20)
(0.309176 0.0520773 2.22399e-19)
(0.35734 0.0517862 -5.54927e-20)
(0.405735 0.0519195 4.58031e-19)
(0.454294 0.0543749 -2.62e-19)
(0.502447 0.0640509 -4.13333e-19)
(-0.0124929 0.0126223 8.39524e-20)
(-0.0283262 0.0297238 2.08869e-20)
(-0.0355975 0.040982 1.71864e-19)
(-0.0350055 0.0479885 4.20293e-19)
(-0.0272559 0.0519704 2.35541e-19)
(-0.0129829 0.0538582 2.43556e-20)
(0.00727736 0.0543579 -2.80258e-19)
(0.0330786 0.0540087 7.19829e-20)
(0.0640398 0.0532262 3.77802e-19)
(0.0998132 0.0523323 -6.40176e-19)
(0.140052 0.0515779 4.83319e-19)
(0.184382 0.0511599 -3.64674e-19)
(0.232371 0.0512355 3.10303e-19)
(0.283512 0.0519368 -6.70998e-19)
(0.337196 0.0533881 7.41418e-19)
(0.39269 0.0557191 -7.94355e-19)
(0.449021 0.0590477 -2.08245e-19)
(0.504854 0.0636614 6.5663e-19)
(0.559293 0.0718733 -2.20446e-19)
(0.610122 0.089052 1.01766e-19)
(-0.0130201 0.0121317 -6.32369e-20)
(-0.0283278 0.0277184 5.97058e-19)
(-0.0337431 0.0374161 -2.68271e-21)
(-0.030157 0.0430292 -3.70322e-19)
(-0.0183857 0.0459005 -2.48268e-19)
(0.000866546 0.0470232 4.55154e-19)
(0.0270094 0.0471327 -1.80176e-19)
(0.0595402 0.0467796 -2.26556e-20)
(0.0980044 0.0463794 3.75055e-19)
(0.141954 0.0462472 -4.65826e-19)
(0.190911 0.0466219 5.12844e-20)
(0.244339 0.0476847 -6.06678e-19)
(0.301629 0.0495763 3.20231e-19)
(0.36209 0.0524153 -9.17582e-19)
(0.424967 0.0563238 1.46525e-18)
(0.489454 0.0614603 -2.692e-19)
(0.554726 0.0680791 2.81305e-19)
(0.620103 0.0768953 -7.28694e-19)
(0.685635 0.0905338 6.63708e-21)
(0.742431 0.108807 7.97207e-19)
(-0.0134388 0.0115885 -1.91148e-19)
(-0.0277261 0.0255849 1.64915e-19)
(-0.0305531 0.0337425 -6.08387e-19)
(-0.0230701 0.0380515 8.99541e-19)
(-0.00623773 0.0399611 -6.49018e-19)
(0.0191422 0.0405246 3.35157e-20)
(0.0523895 0.0405027 -6.98838e-19)
(0.0928973 0.0404494 4.99557e-19)
(0.140075 0.0407685 -7.13791e-20)
(0.193299 0.0417499 -4.40923e-19)
(0.251874 0.0435939 -2.57647e-19)
(0.315014 0.0464295 2.72078e-19)
(0.381845 0.0503291 1.80359e-19)
(0.451417 0.0553236 -7.98443e-19)
(0.522743 0.061418 2.88048e-19)
(0.594852 0.0686041 -4.25921e-19)
(0.66685 0.0768724 5.2812e-20)
(0.738057 0.0863132 -3.58674e-19)
(0.808587 0.0977695 1.38557e-19)
(0.872506 0.110646 -5.25349e-19)
(-0.0136723 0.0109492 5.4443e-19)
(-0.0263127 0.0232567 -3.30025e-19)
(-0.025695 0.0299194 2.71786e-19)
(-0.013294 0.0330656 -3.42839e-19)
(0.0097441 0.0342316 5.742e-19)
(0.0424769 0.0345208 -9.96691e-21)
(0.0840782 0.0347085 -6.9801e-20)
(0.133763 0.0353382 -5.18027e-20)
(0.190714 0.0367828 3.1856e-19)
(0.254029 0.0392816 5.41772e-19)
(0.322692 0.042965 -3.20189e-19)
(0.395567 0.0478724 3.11462e-19)
(0.471427 0.0539683 5.69369e-19)
(0.548992 0.0611574 -3.99036e-19)
(0.62699 0.0692975 -8.09748e-19)
(0.704222 0.0782095 1.47982e-18)
(0.779623 0.0876776 -2.63987e-19)
(0.852336 0.0974685 -8.43196e-20)
(0.921987 0.107629 9.00702e-19)
(0.985432 0.119559 -1.9572e-19)
(-0.0136331 0.0101765 -8.853e-19)
(-0.0238586 0.0206787 -5.89259e-19)
(-0.0188208 0.0259175 -2.2607e-19)
(-0.000380326 0.0280943 4.36202e-19)
(0.0300794 0.0288035 -9.84823e-19)
(0.071414 0.0291813 5.09873e-19)
(0.122569 0.0299987 6.4591e-20)
(0.18248 0.0317661 6.51723e-20)
(0.249987 0.0347971 -6.6782e-19)
(0.323793 0.0392467 -2.35979e-19)
(0.402449 0.0451376 -4.15955e-19)
(0.484386 0.0523829 4.0167e-19)
(0.567973 0.0608079 1.13857e-19)
(0.651591 0.0701711 2.2295e-20)
(0.733713 0.0801851 5.2097e-19)
(0.812981 0.0905323 -5.28799e-19)
(0.888258 0.100874 -2.14123e-20)
(0.958683 0.110877 1.55903e-20)
(1.02369 0.120216 7.43695e-20)
(1.08232 0.131629 3.91995e-19)
(-0.0132271 0.00924422 2.81738e-19)
(-0.0201232 0.0178194 7.25414e-19)
(-0.00957754 0.0217372 5.81978e-19)
(0.0161025 0.0231942 -2.00661e-19)
(0.0552319 0.0238042 6.97972e-19)
(0.10638 0.0247096 -5.87613e-20)
(0.168154 0.0266482 -8.2869e-20)
(0.239081 0.0300629 4.91932e-20)
(0.31753 0.0351681 6.74825e-19)
(0.401682 0.0419907 3.96506e-19)
(0.489571 0.0504035 1.15803e-19)
(0.579151 0.060158 7.24296e-21)
(0.668407 0.0709183 -7.67058e-19)
(0.755454 0.0822954 6.66764e-19)
(0.83864 0.0938785 1.13346e-19)
(0.916612 0.105261 -1.87994e-19)
(0.988362 0.11606 -8.04908e-19)
(1.05324 0.125956 -6.55911e-20)
(1.11086 0.134496 3.13136e-19)
(1.16182 0.145032 -6.16784e-20)
(-0.0123568 0.00814092 -7.13893e-19)
(-0.0148604 0.0146815 2.9867e-19)
(0.00238216 0.0174248 -1.45888e-18)
(0.036555 0.0184749 5.97776e-19)
(0.0855888 0.0194164 -4.76799e-19)
(0.147654 0.0213602 3.51656e-19)
(0.220885 0.0249688 -5.46442e-19)
(0.303252 0.0305685 5.00848e-20)
(0.392512 0.0382213 -2.81587e-20)
(0.486231 0.0477746 1.46977e-19)
(0.581883 0.0589081 2.12106e-19)
(0.676981 0.0711847 -4.00737e-19)
(0.769227 0.0841027 2.12506e-19)
(0.856642 0.0971448 1.94493e-19)
(0.937653 0.10982 8.34129e-19)
(1.01114 0.121696 -3.63804e-19)
(1.07646 0.132415 -2.37416e-19)
(1.13337 0.141735 3.97871e-19)
(1.1819 0.14927 2.06451e-19)
(1.22352 0.158376 -3.97202e-19)
(-0.0109237 0.00687136 6.2471e-19)
(-0.00782637 0.0113073 6.02264e-19)
(0.0173894 0.0130824 1.74031e-19)
(0.0613298 0.0141113 7.32859e-19)
(0.121436 0.0158897 3.60389e-19)
(0.195341 0.0194455 -6.49717e-19)
(0.280542 0.0253063 9.84592e-19)
(0.3743 0.0336174 -4.84636e-19)
(0.473642 0.0442245 4.8384e-19)
(0.575473 0.0567411 6.25742e-19)
(0.676747 0.0706196 -3.57533e-19)
(0.774666 0.0852269 6.8011e-20)
(0.866852 0.0999163 3.77348e-19)
(0.95147 0.114089 2.64938e-19)
(1.02728 0.127237 6.06499e-19)
(1.09364 0.138971 -2.44782e-19)
(1.15041 0.149027 -3.18861e-20)
(1.19793 0.157284 3.74653e-19)
(1.23676 0.163526 -8.17009e-20)
(1.26875 0.170769 -2.32699e-22)
(-0.00882972 0.00545697 -3.22352e-19)
(0.00121478 0.00778216 -1.18472e-18)
(0.0357459 0.00887285 2.79173e-19)
(0.0907102 0.0103476 -2.12594e-19)
(0.162928 0.0135404 -4.91304e-19)
(0.249327 0.0193259 -3.51234e-19)
(0.346592 0.0280198 -2.17075e-19)
(0.451135 0.0395071 5.27004e-19)
(0.559192 0.053349 -3.12981e-19)
(0.667043 0.06888 -3.20706e-19)
(0.771268 0.0853134 -4.04633e-19)
(0.868984 0.101843 -6.67278e-20)
(0.958012 0.11773 -4.61127e-20)
(1.03694 0.132366 -9.28747e-19)
(1.10509 0.145304 4.4689e-19)
(1.16247 0.156269 -5.88113e-19)
(1.20959 0.165145 1.81088e-19)
(1.24733 0.171953 -1.38172e-18)
(1.27676 0.17669 4.17236e-19)
(1.29986 0.181876 5.18712e-19)
(-0.00597818 0.00393529 -8.10509e-20)
(0.0124828 0.00423397 5.77148e-19)
(0.0577079 0.00501804 3.70571e-20)
(0.124884 0.00749218 8.91717e-20)
(0.210052 0.0127377 -1.81391e-19)
(0.309244 0.0213861 -3.06401e-21)
(0.418169 0.0334461 -4.74006e-21)
(0.532294 0.0484558 -1.09671e-19)
(0.647088 0.0656317 3.89129e-19)
(0.758356 0.0840091 1.50173e-19)
(0.862556 0.102585 6.80785e-19)
(0.957032 0.12044 -1.85245e-19)
(1.0401 0.136828 1.2876e-19)
(1.11103 0.151216 -1.60233e-20)
(1.1699 0.163298 3.55217e-19)
(1.2174 0.172969 2.15439e-19)
(1.25469 0.180286 5.14233e-19)
(1.28313 0.185424 -8.28098e-19)
(1.30414 0.188567 1.03579e-18)
(1.31969 0.19174 -3.27548e-19)
(-0.00227576 0.0023591 -7.51056e-19)
(0.0261726 0.000830098 -2.34956e-19)
(0.0834673 0.00179214 1.83286e-19)
(0.163916 0.00590276 1.15671e-19)
(0.262594 0.0138793 1.19035e-19)
(0.374446 0.0259993 1.20527e-19)
(0.494076 0.0418569 -3.02052e-19)
(0.615997 0.0605628 -1.24622e-19)
(0.735051 0.080953 3.88605e-20)
(0.846833 0.101782 -3.69233e-19)
(0.948022 0.121898 -1.66408e-19)
(1.03652 0.140361 1.00437e-18)
(1.11142 0.156516 -2.59473e-19)
(1.17285 0.169996 -3.54737e-19)
(1.22167 0.180694 -1.66286e-19)
(1.25928 0.188704 1.16257e-19)
(1.28733 0.194263 1.39074e-19)
(1.30751 0.197675 -6.66187e-19)
(1.32145 0.199266 9.58389e-19)
(1.33099 0.200632 -8.29473e-19)
(0.00236488 0.000795598 -8.45104e-20)
(0.0424429 -0.00222692 2.41289e-20)
(0.113131 -0.000489554 -3.12203e-20)
(0.207718 0.00596647 4.54281e-19)
(0.320113 0.0173606 2.53399e-20)
(0.444004 0.033488 1.6711e-19)
(0.572832 0.0534212 -3.4764e-19)
(0.700266 0.0757845 -1.26003e-20)
(0.820786 0.0990402 4.82371e-19)
(0.930146 0.12173 6.69185e-20)
(1.02561 0.142654 -4.18726e-19)
(1.10596 0.16097 -3.68857e-20)
(1.17124 0.176212 -3.40997e-19)
(1.22249 0.188246 3.40423e-19)
(1.26132 0.197196 4.68769e-19)
(1.28969 0.203356 -5.14727e-20)
(1.30958 0.207115 -6.20018e-20)
(1.32285 0.208876 1.88727e-19)
(1.33115 0.20905 -6.02478e-19)
(1.33615 0.208893 5.3247e-19)
(0.00802132 -0.000674446 8.54793e-20)
(0.0614037 -0.00470511 -5.49698e-19)
(0.146702 -0.00148447 1.46961e-19)
(0.256028 0.00807563 -4.57566e-19)
(0.381933 0.0235416 1.57505e-19)
(0.516732 0.0440894 -5.85e-19)
(0.652755 0.0681794 2.36073e-19)
(0.783074 0.093933 -7.53242e-20)
(0.902185 0.119499 -3.13361e-21)
(1.00641 0.143317 7.65518e-20)
(1.09397 0.164272 -2.78167e-19)
(1.16469 0.181733 -3.95896e-19)
(1.21969 0.195501 -8.0529e-20)
(1.26082 0.205711 -3.61552e-20)
(1.29033 0.212717 -9.14388e-20)
(1.31054 0.216989 -2.95743e-20)
(1.32358 0.219026 -8.85333e-20)
(1.33131 0.219291 -7.65081e-20)
(1.33531 0.21823 -2.25531e-19)
(1.33702 0.216843 3.5646e-19)
(0.0147565 -0.00195768 2.04344e-19)
(0.0831041 -0.00634994 -2.27109e-19)
(0.18406 -0.000838453 4.8931e-19)
(0.3084 0.0126028 -2.11655e-19)
(0.447156 0.0327166 5.65868e-19)
(0.591247 0.0579298 8.46097e-21)
(0.732082 0.0860376 2.84301e-19)
(0.862509 0.114699 -7.65504e-20)
(0.977494 0.141862 3.17093e-19)
(1.07433 0.166013 2.24262e-20)
(1.15242 0.186254 7.50927e-19)
(1.2128 0.202258 -5.17351e-19)
(1.25752 0.21414 7.00606e-20)
(1.28918 0.222309 1.32912e-19)
(1.31042 0.227321 6.88384e-19)
(1.32374 0.229776 -2.47021e-19)
(1.33126 0.230242 -4.869e-20)
(1.33473 0.229196 -2.55596e-19)
(1.33555 0.227091 -2.61828e-20)
(1.33495 0.224736 1.27482e-19)
(0.0226132 -0.00294967 -9.75055e-20)
(0.107519 -0.00689249 2.8257e-19)
(0.224951 0.00179741 -2.9053e-19)
(0.364204 0.019877 1.14282e-19)
(0.514696 0.045091 -1.37671e-19)
(0.666053 0.0750144 5.0418e-19)
(0.809096 0.10678 -7.06458e-20)
(0.93692 0.137688 1.72277e-19)
(1.04542 0.165645 -1.01897e-19)
(1.13318 0.189341 -2.95617e-21)
(1.20095 0.208212 1.15084e-19)
(1.2509 0.222298 -8.90893e-20)
(1.28592 0.232039 2.3052e-19)
(1.30909 0.238087 -1.15118e-19)
(1.32329 0.241158 -5.02348e-19)
(1.331 0.241934 4.98372e-19)
(1.33423 0.241005 -2.23348e-19)
(1.33452 0.238834 1.78144e-19)
(1.33306 0.235862 3.07087e-19)
(1.33087 0.232748 1.26073e-19)
(0.0316092 -0.00353716 2.4291e-19)
(0.134543 -0.00605904 -5.00858e-19)
(0.268985 0.00674943 9.5681e-20)
(0.422648 0.0301626 -6.96688e-20)
(0.583339 0.0607666 -2.8198e-19)
(0.739639 0.0952303 -2.21221e-19)
(0.882243 0.130097 -4.36661e-20)
(1.00501 0.162468 -3.93638e-19)
(1.10517 0.190394 -2.40689e-20)
(1.18281 0.212913 -7.29803e-20)
(1.24001 0.229886 -1.97494e-19)
(1.27997 0.241739 -4.39749e-20)
(1.3062 0.249215 -1.50466e-19)
(1.32206 0.253166 -2.49826e-19)
(1.33046 0.254414 2.54962e-19)
(1.33375 0.253676 3.4493e-20)
(1.33372 0.251527 6.87085e-20)
(1.33169 0.248395 -2.91336e-19)
(1.32864 0.2447 -7.65499e-21)
(1.32538 0.24098 -4.47019e-19)
(0.041732 -0.00360122 2.65191e-19)
(0.163978 -0.00358211 1.77209e-19)
(0.315638 0.0143042 -2.86744e-19)
(0.482802 0.0436427 4.47708e-19)
(0.651804 0.0797364 -4.85515e-20)
(0.810573 0.118361 1.67396e-19)
(0.950227 0.155615 5.79801e-20)
(1.06588 0.188606 2.04888e-19)
(1.1564 0.215712 -1.60465e-19)
(1.22346 0.236441 5.33189e-20)
(1.27038 0.251121 -5.10667e-20)
(1.30114 0.260558 -2.21493e-20)
(1.31968 0.265751 4.25225e-20)
(1.32943 0.267697 -7.80035e-20)
(1.33319 0.267269 -2.37824e-20)
(1.33308 0.265181 -7.2884e-20)
(1.33065 0.261968 -1.18156e-19)
(1.32697 0.258008 7.63987e-20)
(1.32283 0.253701 -1.03981e-19)
(1.31887 0.249477 4.50341e-19)
(0.0529359 -0.00302131 -1.32018e-19)
(0.19554 0.000787547 -3.75114e-19)
(0.364269 0.0246927 -4.9995e-20)
(0.543649 0.0604086 -1.39192e-20)
(0.71882 0.101889 -1.68539e-19)
(0.877585 0.144112 -2.76856e-19)
(1.01205 0.182937 9.04606e-20)
(1.11903 0.215702 -1.24301e-19)
(1.19917 0.241278 -1.38888e-19)
(1.2557 0.259726 7.72589e-20)
(1.29297 0.27185 -5.82711e-20)
(1.31556 0.278794 -1.17566e-19)
(1.32757 0.28176 -3.70623e-21)
(1.33235 0.281826 7.96255e-20)
(1.33249 0.279876 -8.07989e-20)
(1.32982 0.276585 1.12161e-19)
(1.32564 0.272434 3.03044e-20)
(1.32082 0.267746 7.57415e-20)
(1.31596 0.262908 1.4685e-19)
(1.31155 0.25824 -1.25834e-19)
(0.0651396 -0.00167997 1.2591e-19)
(0.228858 0.00726868 -1.06966e-20)
(0.414141 0.0380772 5.69739e-20)
(0.604127 0.080455 -7.70229e-20)
(0.783192 0.127021 6.5927e-21)
(0.939615 0.172132 2.67594e-19)
(1.06705 0.21166 -1.75545e-19)
(1.16427 0.243398 7.43534e-20)
(1.23381 0.266841 6.55408e-20)
(1.28024 0.282644 -1.83512e-19)
(1.30877 0.292059 1.72284e-19)
(1.32429 0.296517 1.58852e-21)
(1.33089 0.297353 -1.20956e-19)
(1.33173 0.295678 1.457e-19)
(1.32909 0.292347 -5.77085e-20)
(1.32455 0.287977 4.40697e-20)
(1.31914 0.282984 -4.93283e-20)
(1.31354 0.27764 -1.98299e-20)
(1.30821 0.27232 -1.71558e-19)
(1.30353 0.267239 5.2675e-20)
(0.0782261 0.000532 -4.21626e-20)
(0.263483 0.0160378 1.13797e-19)
(0.464449 0.0545409 1.7854e-20)
(0.663181 0.103681 7.45987e-20)
(0.843849 0.154852 3.56904e-20)
(0.995843 0.202037 1.67453e-20)
(1.11481 0.241403 9.45955e-20)
(1.20171 0.271391 -1.1427e-20)
(1.26083 0.292214 4.16492e-20)
(1.2979 0.305122 6.67987e-20)
(1.31871 0.311768 3.2187e-20)
(1.32825 0.313799 2.30935e-20)
(1.33048 0.312625 9.35701e-20)
(1.32825 0.309344 -9.05634e-20)
(1.32354 0.304754 1.94132e-20)
(1.31766 0.299401 -1.81698e-20)
(1.31141 0.293634 2.80831e-20)
(1.30531 0.28768 2.35184e-20)
(1.2997 0.281909 4.89779e-20)
(1.29485 0.276421 1.98573e-21)
(0.0920441 0.00371033 2.50169e-20)
(0.298904 0.0272191 2.28507e-20)
(0.514353 0.0740828 -3.17029e-20)
(0.71981 0.129899 1.98194e-20)
(0.899884 0.185043 1.12075e-20)
(1.04569 0.233435 -3.49e-20)
(1.15523 0.27181 1.14955e-20)
(1.23164 0.299425 2.11487e-21)
(1.28084 0.317257 1.97982e-20)
(1.30946 0.327119 -5.31301e-20)
(1.32361 0.331004 -1.63777e-22)
(1.32823 0.330702 1.47027e-20)
(1.32699 0.327644 -1.17203e-20)
(1.32244 0.322878 1.18555e-20)
(1.31623 0.317127 3.09221e-20)
(1.30941 0.310862 -1.75958e-20)
(1.3026 0.304367 4.90262e-21)
(1.29621 0.29783 1.92585e-20)
(1.29046 0.291622 -3.16948e-20)
(1.28555 0.28572 1.52591e-20)
(0.106412 0.00793239 6.92714e-20)
(0.334562 0.0408762 -3.78096e-20)
(0.563012 0.0966158 4.46141e-20)
(0.773099 0.158841 -3.32193e-20)
(0.950569 0.217213 -1.49083e-20)
(1.08879 0.265932 4.53372e-21)
(1.18834 0.302558 -1.46271e-20)
(1.25448 0.327284 5.25774e-20)
(1.29449 0.341861 -4.37987e-20)
(1.31566 0.348611 1.0293e-20)
(1.32419 0.349788 -7.65979e-21)
(1.32484 0.347264 -4.99538e-20)
(1.32094 0.342443 4.8475e-20)
(1.31466 0.336296 1.84745e-20)
(1.3074 0.329461 -1.83619e-20)
(1.29996 0.322334 4.31418e-20)
(1.29283 0.315139 -6.32721e-22)
(1.28629 0.308034 -4.18477e-20)
(1.28049 0.301392 3.0974e-20)
(1.2756 0.295058 9.80887e-21)
(0.121121 0.013253 -2.42922e-20)
(0.369872 0.0570075 7.03361e-20)
(0.609611 0.121971 8.14538e-20)
(0.822251 0.190177 -3.85161e-20)
(0.995359 0.250956 6.69444e-20)
(1.12499 0.299146 1.06033e-19)
(1.21437 0.333355 -5.89319e-21)
(1.27071 0.354785 -1.82725e-20)
(1.30241 0.365937 9.00247e-20)
(1.31715 0.36957 4.39422e-20)
(1.32107 0.368126 -8.00136e-21)
(1.31859 0.363498 6.56338e-20)
(1.31268 0.357023 -7.04806e-20)
(1.30518 0.349581 1.09839e-19)
(1.29722 0.341721 -1.83194e-20)
(1.28941 0.333766 5.26474e-20)
(1.28212 0.325886 9.53649e-21)
(1.27555 0.31822 3.76821e-20)
(1.2698 0.311138 -3.58361e-20)
(1.26498 0.304354 8.75434e-21)
(0.135942 0.0197003 -3.78089e-20)
(0.404239 0.0755429 8.89305e-20)
(0.653393 0.149901 6.62422e-20)
(0.866601 0.223523 -1.00772e-20)
(1.03388 0.285851 1.03627e-19)
(1.15428 0.33271 -7.7852e-20)
(1.23361 0.363931 -6.13703e-21)
(1.28085 0.381763 6.85086e-20)
(1.30519 0.3894 2.17089e-20)
(1.31451 0.389963 3.0563e-20)
(1.31471 0.386004 -4.51981e-20)
(1.30984 0.379386 1.18171e-19)
(1.30248 0.371355 2.21567e-20)
(1.29417 0.362688 -1.04861e-19)
(1.28579 0.353845 1.53729e-19)
(1.2778 0.345084 -1.81513e-19)
(1.2705 0.336527 -8.35534e-20)
(1.26401 0.328301 1.38701e-20)
(1.25837 0.320774 8.10944e-20)
(1.25369 0.313519 -1.53719e-19)
(0.150631 0.0272737 -8.42779e-20)
(0.437081 0.0963451 -1.99278e-19)
(0.693676 0.180092 -1.72859e-19)
(0.905618 0.258456 -2.35215e-19)
(1.06591 0.321473 -1.33814e-19)
(1.17676 0.366272 -2.77513e-19)
(1.24645 0.394041 3.52883e-20)
(1.28539 0.408066 -1.47877e-19)
(1.30337 0.412167 -1.63286e-20)
(1.30821 0.409739 2.43901e-20)
(1.3055 0.403381 -5.38027e-20)
(1.29888 0.394884 6.76637e-20)
(1.29054 0.385382 1.20703e-19)
(1.28175 0.375546 -1.69404e-19)