1.275 	2.15223e-18 	-2.76991e-20 	-0.470203
1.825 	2.15223e-18 	-1.39322e-20 	-0.477487
2.375 	2.15223e-18 	1.38775e-18 	-0.334989
2.925 	2.15223e-18 	2.78958e-18 	-0.136987
3.475 	2.15223e-18 	4.53849e-18 	-0.106971
4.025 	2.15223e-18 	6.28755e-18 	-0.146629
4.575 	2.15223e-18 	6.30203e-18 	-0.0948432
5.125 	2.15223e-18 	6.31666e-18 	-0.0754398
5.675 	2.15223e-18 	6.33144e-18 	-0.100462
6.225 	2.15223e-18 	4.61166e-18 	-0.128276
