/*--------------------------------*- C++ -*----------------------------------*\
  =========                 |
  \\      /  F ield         | OpenFOAM: The Open Source CFD Toolbox
   \\    /   O peration     | Website:  https://openfoam.org
    \\  /    A nd           | Version:  6.0
     \\/     M anipulation  |
\*---------------------------------------------------------------------------*/
FoamFile
{
    version     2.0;
    format      ascii;
    class       volScalarField;
    location    "19.2";
    object      p;
}
// * * * * * * * * * * * * * * * * * * * * * * * * * * * * * * * * * * * * * //

dimensions      [0 2 -2 0 0 0 0];

internalField   nonuniform List<scalar> 
8000
(
-0.271707
-0.272777
-0.273471
-0.273969
-0.274385
-0.274734
-0.275035
-0.275299
-0.275538
-0.275757
-0.275963
-0.276161
-0.276355
-0.276551
-0.276753
-0.276969
-0.277203
-0.277435
-0.277654
-0.278107
-0.271846
-0.272908
-0.273596
-0.274089
-0.274498
-0.274841
-0.275135
-0.275392
-0.275624
-0.275836
-0.276034
-0.276224
-0.27641
-0.276598
-0.276791
-0.276999
-0.277226
-0.277452
-0.277664
-0.278113
-0.272117
-0.273165
-0.273842
-0.274323
-0.27472
-0.275051
-0.275331
-0.275574
-0.27579
-0.275987
-0.276169
-0.276342
-0.276511
-0.276681
-0.276857
-0.277049
-0.27726
-0.27747
-0.277666
-0.278109
-0.272518
-0.273546
-0.274206
-0.274671
-0.27505
-0.27536
-0.275619
-0.275841
-0.276034
-0.276206
-0.276364
-0.27651
-0.276652
-0.276794
-0.276943
-0.277107
-0.277293
-0.277479
-0.277651
-0.278082
-0.273046
-0.27405
-0.274688
-0.27513
-0.275484
-0.275768
-0.275998
-0.276189
-0.276351
-0.27649
-0.276612
-0.276722
-0.276825
-0.276928
-0.277037
-0.277163
-0.277312
-0.277464
-0.277602
-0.278016
-0.2737
-0.274675
-0.275286
-0.2757
-0.276022
-0.276271
-0.276464
-0.276616
-0.276736
-0.276831
-0.276907
-0.276968
-0.277021
-0.277072
-0.277128
-0.277201
-0.277301
-0.277407
-0.277499
-0.277891
-0.274477
-0.275419
-0.275999
-0.276378
-0.276661
-0.276868
-0.277015
-0.277119
-0.277188
-0.277228
-0.277245
-0.277245
-0.277233
-0.277216
-0.277204
-0.277209
-0.277244
-0.277289
-0.277322
-0.277686
-0.275377
-0.276282
-0.276825
-0.277163
-0.2774
-0.277556
-0.27765
-0.277696
-0.277703
-0.277677
-0.277624
-0.277549
-0.277456
-0.277356
-0.277256
-0.277175
-0.277126
-0.277091
-0.277051
-0.277379
-0.2764
-0.277265
-0.277765
-0.278056
-0.278239
-0.278337
-0.278368
-0.278347
-0.278282
-0.27818
-0.278044
-0.27788
-0.277692
-0.277489
-0.277282
-0.277092
-0.276936
-0.276798
-0.276664
-0.276947
-0.277549
-0.278369
-0.278821
-0.279057
-0.279179
-0.27921
-0.27917
-0.279074
-0.278929
-0.278741
-0.278512
-0.278245
-0.277946
-0.277622
-0.277286
-0.276961
-0.27667
-0.2764
-0.276143
-0.276367
-0.278829
-0.279598
-0.279994
-0.280168
-0.28022
-0.280177
-0.280059
-0.27988
-0.279649
-0.279367
-0.279036
-0.278657
-0.278232
-0.277769
-0.277281
-0.276792
-0.276332
-0.27589
-0.27547
-0.275613
-0.280245
-0.280955
-0.281288
-0.28139
-0.281365
-0.28124
-0.281037
-0.28077
-0.280447
-0.280067
-0.279629
-0.27913
-0.27857
-0.277952
-0.277289
-0.276606
-0.275935
-0.275271
-0.274631
-0.274654
-0.281807
-0.282448
-0.282707
-0.282728
-0.282615
-0.2824
-0.282105
-0.281746
-0.281328
-0.280848
-0.280301
-0.279681
-0.27898
-0.278197
-0.27734
-0.276431
-0.275505
-0.274554
-0.273611
-0.273451
-0.283524
-0.284084
-0.284256
-0.284184
-0.283972
-0.283657
-0.283264
-0.282808
-0.282293
-0.281714
-0.28106
-0.28032
-0.279479
-0.278527
-0.277462
-0.2763
-0.27507
-0.273757
-0.272399
-0.271952
-0.285406
-0.285871
-0.285943
-0.285763
-0.285439
-0.285012
-0.284511
-0.283952
-0.283337
-0.282658
-0.281902
-0.281048
-0.280073
-0.278954
-0.277676
-0.276239
-0.274662
-0.272904
-0.270984
-0.270093
-0.287468
-0.28782
-0.287774
-0.287469
-0.287016
-0.286463
-0.285841
-0.285169
-0.284448
-0.283669
-0.282812
-0.28185
-0.280749
-0.279472
-0.277984
-0.276265
-0.274307
-0.272029
-0.269384
-0.267826
-0.289725
-0.289945
-0.289761
-0.289311
-0.288708
-0.288008
-0.287249
-0.286449
-0.285611
-0.284725
-0.283765
-0.282698
-0.28148
-0.280059
-0.278376
-0.276383
-0.27404
-0.271207
-0.267701
-0.26519
-0.292197
-0.292264
-0.291919
-0.291298
-0.29052
-0.289651
-0.288731
-0.287785
-0.286814
-0.285807
-0.284737
-0.283565
-0.282238
-0.280689
-0.278836
-0.276594
-0.273882
-0.270484
-0.265986
-0.262091
-0.294911
-0.2948
-0.294266
-0.293447
-0.292467
-0.2914
-0.290295
-0.289177
-0.288053
-0.28691
-0.285722
-0.284448
-0.283032
-0.281397
-0.279441
-0.277038
-0.274031
-0.270045
-0.264235
-0.258165
-0.297899
-0.297582
-0.296829
-0.295782
-0.294568
-0.293274
-0.291955
-0.290642
-0.289343
-0.288051
-0.286743
-0.285388
-0.283942
-0.282349
-0.280538
-0.278416
-0.275836
-0.272312
-0.2666
-0.259791
-0.301202
-0.300644
-0.299641
-0.298332
-0.296854
-0.295303
-0.293744
-0.292211
-0.29072
-0.289267
-0.287843
-0.286432
-0.285024
-0.283624
-0.282272
-0.281078
-0.280272
-0.280232
-0.282393
-0.293568
-0.304868
-0.304031
-0.30274
-0.301138
-0.299364
-0.29753
-0.295706
-0.293935
-0.292236
-0.290615
-0.289072
-0.287611
-0.286252
-0.285044
-0.284091
-0.283589
-0.283873
-0.285452
-0.289431
-0.300324
-0.308952
-0.30779
-0.306173
-0.304245
-0.302147
-0.300006
-0.2979
-0.295877
-0.293962
-0.292167
-0.290503
-0.28899
-0.287667
-0.286608
-0.285943
-0.285873
-0.2867
-0.288818
-0.292779
-0.301005
-0.313514
-0.311973
-0.309991
-0.307705
-0.305259
-0.302791
-0.30039
-0.298105
-0.295967
-0.293993
-0.292199
-0.290614
-0.289284
-0.288289
-0.287747
-0.287822
-0.288726
-0.290691
-0.293954
-0.299559
-0.318616
-0.316636
-0.314247
-0.311574
-0.308758
-0.305949
-0.303241
-0.300687
-0.298317
-0.296149
-0.294201
-0.292498
-0.291086
-0.290028
-0.289415
-0.289354
-0.289964
-0.29134
-0.293567
-0.296816
-0.324316
-0.321831
-0.318993
-0.315907
-0.312702
-0.309539
-0.306515
-0.303681
-0.301061
-0.29867
-0.296519
-0.294628
-0.293026
-0.291757
-0.290877
-0.290444
-0.290504
-0.291072
-0.292174
-0.293547
-0.330667
-0.32761
-0.324282
-0.320758
-0.317148
-0.313619
-0.310265
-0.307129
-0.304227
-0.301562
-0.299136
-0.296955
-0.295034
-0.293396
-0.292069
-0.291075
-0.290423
-0.290094
-0.290089
-0.290009
-0.337714
-0.334014
-0.330158
-0.326175
-0.322145
-0.318234
-0.314528
-0.311056
-0.307817
-0.304802
-0.302
-0.299404
-0.297019
-0.294853
-0.29292
-0.291227
-0.28977
-0.288526
-0.287491
-0.286297
-0.345489
-0.341078
-0.33666
-0.3322
-0.327733
-0.323418
-0.319324
-0.315458
-0.311803
-0.308333
-0.305027
-0.301874
-0.298873
-0.296031
-0.293361
-0.290871
-0.28856
-0.286418
-0.284439
-0.28235
-0.354007
-0.348823
-0.343814
-0.33886
-0.333936
-0.329181
-0.324643
-0.320302
-0.31612
-0.312063
-0.308106
-0.304242
-0.300478
-0.296832
-0.293324
-0.289973
-0.286789
-0.283779
-0.280934
-0.278078
-0.363263
-0.357252
-0.351629
-0.346167
-0.340756
-0.335512
-0.330447
-0.325517
-0.32067
-0.315869
-0.311102
-0.306376
-0.301717
-0.297162
-0.292746
-0.288501
-0.284448
-0.280602
-0.276954
-0.273401
-0.373229
-0.366349
-0.360097
-0.354107
-0.34817
-0.34236
-0.336657
-0.330995
-0.325317
-0.319604
-0.313865
-0.30814
-0.30248
-0.296942
-0.291579
-0.286432
-0.281527
-0.276883
-0.272482
-0.268272
-0.383848
-0.376071
-0.36918
-0.36264
-0.356116
-0.349637
-0.343153
-0.336587
-0.329898
-0.3231
-0.316244
-0.309405
-0.302666
-0.296105
-0.289784
-0.283747
-0.278021
-0.272619
-0.267511
-0.262675
-0.395031
-0.386345
-0.37881
-0.371686
-0.364493
-0.357212
-0.349774
-0.342111
-0.334226
-0.326183
-0.318086
-0.310052
-0.302192
-0.294596
-0.28733
-0.280435
-0.273927
-0.267811
-0.262039
-0.256612
-0.406652
-0.397063
-0.388881
-0.381125
-0.373154
-0.364907
-0.356318
-0.347361
-0.338103
-0.328678
-0.31925
-0.309975
-0.300983
-0.292369
-0.284192
-0.27648
-0.269239
-0.262458
-0.256067
-0.25009
-0.418547
-0.408079
-0.399246
-0.39079
-0.381904
-0.372502
-0.362554
-0.352109
-0.341325
-0.330418
-0.319608
-0.309081
-0.298976
-0.289381
-0.280341
-0.271867
-0.263946
-0.256552
-0.249592
-0.243113
-0.430508
-0.419203
-0.409712
-0.400468
-0.390504
-0.379741
-0.368226
-0.356122
-0.343694
-0.331244
-0.319039
-0.307283
-0.29611
-0.285591
-0.275749
-0.266572
-0.258031
-0.250078
-0.242601
-0.235677
-0.442291
-0.430207
-0.420041
-0.409899
-0.398675
-0.38634
-0.37307
-0.359168
-0.345024
-0.331014
-0.317439
-0.304505
-0.292328
-0.280953
-0.270377
-0.260565
-0.251466
-0.243016
-0.235077
-0.227768
-0.453611
-0.440819
-0.429955
-0.418785
-0.406107
-0.392002
-0.376817
-0.361027
-0.345139
-0.329594
-0.314707
-0.300671
-0.287571
-0.275421
-0.264187
-0.253809
-0.24422
-0.235335
-0.226993
-0.219365
-0.46415
-0.450734
-0.439136
-0.426796
-0.412473
-0.396422
-0.37921
-0.361489
-0.34388
-0.326865
-0.310755
-0.29571
-0.28178
-0.268943
-0.257132
-0.246265
-0.236256
-0.227
-0.218317
-0.210438
-0.473564
-0.459615
-0.44724
-0.43358
-0.417437
-0.399305
-0.380004
-0.360367
-0.341105
-0.322719
-0.305496
-0.289553
-0.274897
-0.261466
-0.249165
-0.237888
-0.227534
-0.217976
-0.209018
-0.200958
-0.481488
-0.467102
-0.453899
-0.438775
-0.420667
-0.40037
-0.378977
-0.357491
-0.336687
-0.317059
-0.298852
-0.282134
-0.266863
-0.252939
-0.240239
-0.228636
-0.218013
-0.208225
-0.19906
-0.190892
-0.487551
-0.472826
-0.458744
-0.442027
-0.421849
-0.399361
-0.375934
-0.352714
-0.330514
-0.309796
-0.290751
-0.273389
-0.257621
-0.243311
-0.230308
-0.218466
-0.207657
-0.197713
-0.188412
-0.18021
-0.491381
-0.476417
-0.461406
-0.442995
-0.420695
-0.396053
-0.370704
-0.345912
-0.322491
-0.300854
-0.281128
-0.263262
-0.247122
-0.232536
-0.21933
-0.207342
-0.19643
-0.186409
-0.177047
-0.168887
-0.492622
-0.477515
-0.461537
-0.441367
-0.416953
-0.390254
-0.363149
-0.336981
-0.312538
-0.290169
-0.269927
-0.251704
-0.23532
-0.220574
-0.20727
-0.195232
-0.184307
-0.174288
-0.164944
-0.156902
-0.49094
-0.475787
-0.458818
-0.436869
-0.410408
-0.381809
-0.353159
-0.325841
-0.300594
-0.277687
-0.257102
-0.238672
-0.222179
-0.207393
-0.194099
-0.182111
-0.171264
-0.161333
-0.152089
-0.144243
-0.486035
-0.470929
-0.45297
-0.429273
-0.400893
-0.370602
-0.340654
-0.312434
-0.286612
-0.263371
-0.242618
-0.224137
-0.207671
-0.192968
-0.179797
-0.167962
-0.157288
-0.147534
-0.138473
-0.130904
-0.477652
-0.462684
-0.443761
-0.4184
-0.388284
-0.356554
-0.325583
-0.296727
-0.270566
-0.247196
-0.226455
-0.208079
-0.19178
-0.177286
-0.164353
-0.152778
-0.142376
-0.132889
-0.1241
-0.116885
-0.465586
-0.450848
-0.431018
-0.404126
-0.372507
-0.339628
-0.307929
-0.278707
-0.252446
-0.229154
-0.208604
-0.190491
-0.1745
-0.160342
-0.147765
-0.136559
-0.12653
-0.117405
-0.10898
-0.102198
-0.44969
-0.435272
-0.414625
-0.386383
-0.353537
-0.319821
-0.2877
-0.258388
-0.232265
-0.209254
-0.189072
-0.171377
-0.155834
-0.142143
-0.130042
-0.119316
-0.109765
-0.101102
-0.0931353
-0.0868665
-0.429877
-0.415872
-0.394527
-0.36516
-0.331392
-0.29717
-0.264937
-0.235806
-0.210053
-0.187521
-0.167879
-0.150755
-0.1358
-0.122702
-0.111196
-0.101065
-0.092099
-0.0840025
-0.0765984
-0.0709313
-0.406127
-0.392628
-0.370734
-0.3405
-0.30614
-0.271748
-0.23971
-0.211023
-0.185861
-0.163997
-0.14506
-0.128655
-0.11442
-0.102041
-0.091249
-0.0818248
-0.0735543
-0.0661347
-0.0594052
-0.0544351
-0.378484
-0.365585
-0.343317
-0.312501
-0.277891
-0.243664
-0.212116
-0.184123
-0.159762
-0.138744
-0.120665
-0.105116
-0.0917293
-0.0801875
-0.0702235
-0.0616172
-0.0541514
-0.0475237
-0.0415877
-0.0374016
-0.347055
-0.334853
-0.312405
-0.281312
-0.246795
-0.213059
-0.182283
-0.155218
-0.13185
-0.11184
-0.0947591
-0.0801907
-0.0677665
-0.0571717
-0.0481425
-0.0404606
-0.0339098
-0.0281939
-0.0231696
-0.0198224
-0.312013
-0.300602
-0.278185
-0.247127
-0.213043
-0.180111
-0.150368
-0.124444
-0.102242
-0.0833841
-0.0674234
-0.0539425
-0.0425784
-0.033024
-0.0250235
-0.0183651
-0.0128391
-0.0081591
-0.00416077
-0.00169708
-0.273587
-0.263061
-0.240895
-0.210185
-0.176864
-0.145026
-0.116557
-0.0919643
-0.0710823
-0.0534982
-0.0387588
-0.0264509
-0.0162223
-0.00777967
-0.000881945
0.00467024
0.00907435
0.0126001
0.0154342
0.016847
-0.232057
-0.222508
-0.200818
-0.170766
-0.138518
-0.108043
-0.0810628
-0.0579702
-0.0385374
-0.0223278
-0.00888728
0.00218662
0.0112294
0.0185129
0.0242551
0.0286397
0.0318474
0.0340928
0.0354985
0.0354162
-0.187757
-0.179272
-0.15828
-0.129182
-0.0982964
-0.0694277
-0.0441279
-0.0226799
-0.00480265
0.00995716
0.0220497
0.0318625
0.0397073
0.0458234
0.0503949
0.0535839
0.0555308
0.0562758
0.0557125
0.0535675
-0.141055
-0.133716
-0.113639
-0.0857748
-0.056518
-0.0294742
-0.00602214
0.0136576
0.0298932
0.0431515
0.0538789
0.0624498
0.0691534
0.0741947
0.0777207
0.0798622
0.0806454
0.0797158
0.0766118
0.0723471
-0.0923571
-0.0862383
-0.0672807
-0.0409111
-0.0135224
0.011503
0.0329598
0.0507624
0.0652808
0.0769944
0.086351
0.0937231
0.099397
0.103577
0.106422
0.108081
0.108455
0.106699
0.102115
0.0974901
-0.0420958
-0.0372617
-0.0196135
0.00502735
0.0303361
0.053174
0.072506
0.0883331
0.10106
0.111174
0.119126
0.125292
0.129972
0.13341
0.135847
0.13756
0.138522
0.137755
0.135001
0.138511
0.00928687
0.0127791
0.0289453
0.0516494
0.0746954
0.0952023
0.112299
0.126064
0.136927
0.145379
0.151863
0.156751
0.160341
0.162888
0.164652
0.165895
0.166604
0.16631
0.165904
0.171563
0.0613296
0.0634345
0.0779686
0.0985591
0.119192
0.137252
0.152025
0.163656
0.172593
0.179325
0.184285
0.187834
0.190267
0.191836
0.192788
0.193345
0.193489
0.192929
0.192569
0.197121
0.113568
0.114253
0.12703
0.145363
0.163465
0.178992
0.191376
0.200819
0.207781
0.212741
0.216117
0.218255
0.219435
0.219898
0.219872
0.219553
0.218939
0.217805
0.216898
0.219959
0.16554
0.164785
0.175706
0.191674
0.207164
0.220102
0.230059
0.237284
0.242242
0.245397
0.24715
0.247825
0.247687
0.246955
0.245834
0.24449
0.242908
0.240891
0.239124
0.240795
0.21679
0.214588
0.223584
0.237115
0.249948
0.260275
0.267795
0.272795
0.275741
0.277079
0.277189
0.276376
0.274882
0.272907
0.270633
0.268201
0.265578
0.26259
0.25989
0.260227
0.266871
0.263233
0.270263
0.281324
0.29149
0.299216
0.304317
0.307113
0.308062
0.307596
0.306069
0.303764
0.300904
0.297669
0.29422
0.290672
0.286983
0.283008
0.279369
0.278447
0.315355
0.310303
0.315358
0.32395
0.331478
0.336646
0.339374
0.34001
0.339005
0.336768
0.333633
0.32986
0.325652
0.32117
0.316556
0.311905
0.307171
0.302234
0.297681
0.295561
0.36183
0.355401
0.358501
0.364664
0.369615
0.372297
0.372728
0.371276
0.36838
0.364429
0.359735
0.354537
0.34902
0.343328
0.337584
0.331867
0.326129
0.320274
0.314845
0.311591
0.405903
0.398152
0.399346
0.403153
0.405622
0.405922
0.404155
0.400707
0.396005
0.390418
0.384235
0.377676
0.370908
0.36406
0.357238
0.350507
0.343821
0.337105
0.330847
0.326521
0.447209
0.438203
0.437568
0.439124
0.439237
0.437284
0.433445
0.428116
0.421713
0.414584
0.406998
0.399157
0.391213
0.383277
0.375443
0.367762
0.360195
0.35268
0.345645
0.340314
0.485406
0.475226
0.472865
0.472306
0.470218
0.466167
0.460401
0.453325
0.445343
0.436783
0.427896
0.418867
0.409831
0.400888
0.392118
0.383562
0.375186
0.366939
0.359185
0.352921
0.520181
0.508921
0.504962
0.502452
0.498341
0.49237
0.484842
0.476172
0.466748
0.456883
0.446808
0.436695
0.426664
0.416805
0.407183
0.397834
0.388725
0.379818
0.371407
0.364291
0.551249
0.539017
0.533608
0.529336
0.523407
0.515711
0.506605
0.496507
0.485793
0.474759
0.463622
0.45254
0.44162
0.430942
0.42056
0.410504
0.400745
0.391252
0.382253
0.37437
0.57836
0.565272
0.558584
0.55276
0.545234
0.536028
0.525542
0.514195
0.502354
0.490299
0.478236
0.466307
0.454612
0.443219
0.432176
0.421504
0.411182
0.40118
0.391666
0.383109
0.601294
0.587478
0.579697
0.57255
0.563667
0.553181
0.541525
0.529121
0.516325
0.503407
0.490559
0.477914
0.465563
0.453567
0.441964
0.430773
0.419976
0.409545
0.399593
0.390464
0.619867
0.605458
0.596784
0.588561
0.578575
0.56705
0.554446
0.541184
0.527615
0.513997
0.500513
0.487289
0.474407
0.461922
0.449867
0.438256
0.427076
0.416299
0.405991
0.396396
0.63393
0.61907
0.609716
0.600674
0.589851
0.577537
0.564215
0.550304
0.536149
0.522001
0.508036
0.494373
0.481089
0.468235
0.455837
0.443909
0.432439
0.421401
0.410822
0.400873
0.643369
0.628206
0.618394
0.6088
0.597414
0.584571
0.570766
0.556419
0.541871
0.527367
0.513079
0.499121
0.485568
0.472466
0.459838
0.447697
0.436033
0.42482
0.414059
0.403871
0.648109
0.632794
0.622751
0.61288
0.601211
0.588102
0.574054
0.559489
0.544743
0.53006
0.51561
0.501504
0.487816
0.474588
0.461846
0.449598
0.437837
0.426536
0.415683
0.405375
0.648113
0.632797
0.622755
0.612883
0.601214
0.588105
0.574056
0.559491
0.544745
0.530062
0.515612
0.501506
0.487817
0.47459
0.461848
0.4496
0.437838
0.426537
0.415684
0.405376
0.643381
0.628217
0.618405
0.60881
0.597423
0.58458
0.570774
0.556427
0.541878
0.527373
0.513085
0.499127
0.485573
0.47247
0.459843
0.447702
0.436038
0.424824
0.414063
0.403875
0.633949
0.619089
0.609734
0.600691
0.589866
0.577551
0.564228
0.550316
0.53616
0.522012
0.508046
0.494382
0.481098
0.468243
0.455845
0.443916
0.432446
0.421408
0.410829
0.400879
0.619895
0.605485
0.596809
0.588584
0.578596
0.567069
0.554464
0.541201
0.527631
0.514011
0.500527
0.487301
0.474419
0.461934
0.449878
0.438266
0.427085
0.416308
0.406
0.396404
0.601329
0.587512
0.579729
0.57258
0.563695
0.553206
0.541549
0.529143
0.516345
0.503426
0.490576
0.47793
0.465579
0.453581
0.441978
0.430786
0.419988
0.409557
0.399604
0.390475
0.578403
0.565314
0.558623
0.552796
0.545267
0.536059
0.525571
0.514222
0.502378
0.490322
0.478257
0.466327
0.454631
0.443237
0.432193
0.42152
0.411197
0.401194
0.391679
0.383122
0.551299
0.539065
0.533654
0.529379
0.523445
0.515746
0.506638
0.496537
0.485821
0.474785
0.463647
0.452563
0.441642
0.430962
0.42058
0.410522
0.400763
0.391269
0.382269
0.374385
0.520237
0.508976
0.505014
0.5025
0.498386
0.49241
0.48488
0.476207
0.466781
0.456913
0.446837
0.436722
0.426689
0.416828
0.407205
0.397855
0.388745
0.379837
0.371426
0.364308
0.485469
0.475287
0.472923
0.47236
0.470267
0.466213
0.460443
0.453365
0.445379
0.436817
0.427928
0.418897
0.409859
0.400914
0.392142
0.383586
0.375208
0.36696
0.359205
0.35294
0.447278
0.43827
0.437632
0.439183
0.439292
0.437335
0.433491
0.428159
0.421753
0.414621
0.407033
0.39919
0.391243
0.383306
0.37547
0.367788
0.36022
0.352703
0.345668
0.340335
0.405978
0.398225
0.399416
0.403217
0.405681
0.405977
0.404206
0.400754
0.396049
0.390458
0.384272
0.377712
0.370942
0.364092
0.357268
0.350535
0.343848
0.337131
0.330872
0.326544
0.36191
0.35548
0.358576
0.364733
0.369679
0.372356
0.372783
0.371326
0.368426
0.364473
0.359776
0.354576
0.349056
0.343362
0.337616
0.331897
0.326158
0.320301
0.314872
0.311616
0.315441
0.310386
0.315437
0.324024
0.331546
0.336708
0.339432
0.340064
0.339055
0.336815
0.333676
0.329901
0.32569
0.321206
0.316591
0.311938
0.307202
0.302263
0.297709
0.295588
0.266962
0.26332
0.270346
0.281401
0.291562
0.299283
0.304378
0.30717
0.308115
0.307645
0.306115
0.303808
0.300945
0.297708
0.294256
0.290706
0.287016
0.283039
0.279399
0.278476
0.216884
0.21468
0.223671
0.237197
0.250023
0.260345
0.267859
0.272855
0.275796
0.277131
0.277238
0.276422
0.274925
0.272948
0.270672
0.268237
0.265612
0.262623
0.259921
0.260258
0.165638
0.16488
0.175796
0.191759
0.207242
0.220175
0.230126
0.237347
0.2423
0.245451
0.2472
0.247873
0.247732
0.246998
0.245874
0.244529
0.242944
0.240925
0.239157
0.240826
0.113669
0.114351
0.127123
0.14545
0.163546
0.179067
0.191445
0.200884
0.207841
0.212797
0.21617
0.218304
0.219482
0.219942
0.219914
0.219593
0.218977
0.217841
0.216933
0.219992
0.0614322
0.0635344
0.078064
0.0986487
0.119275
0.137329
0.152096
0.163722
0.172655
0.179383
0.184339
0.187885
0.190316
0.191882
0.192832
0.193387
0.193529
0.192967
0.192605
0.197155
0.00939104
0.0128806
0.0290424
0.0517407
0.0747804
0.0952811
0.112372
0.126132
0.13699
0.145438
0.151919
0.156804
0.160391
0.162936
0.164698
0.165938
0.166645
0.166349
0.165941
0.171598
-0.0419907
-0.0371592
-0.0195153
0.00511982
0.0304223
0.053254
0.0725805
0.0884025
0.101124
0.111235
0.119183
0.125346
0.130024
0.133458
0.135893
0.137604
0.138564
0.137796
0.13504
0.138548
-0.0922517
-0.0861355
-0.0671821
-0.040818
-0.0134354
0.0115839
0.0330351
0.0508327
0.0653466
0.0770562
0.0864093
0.0937782
0.0994494
0.103627
0.10647
0.108126
0.108499
0.106741
0.102156
0.0975302
-0.14095
-0.133613
-0.11354
-0.0856817
-0.0564308
-0.0293929
-0.00594631
0.0137285
0.0299596
0.043214
0.053938
0.0625058
0.0692066
0.0742455
0.0777694
0.0799089
0.0806905
0.0797594
0.0766545
0.0723892
-0.187653
-0.17917
-0.158182
-0.129089
-0.0982094
-0.0693465
-0.044052
-0.0226089
-0.00473592
0.0100201
0.0221093
0.031919
0.0397611
0.0458749
0.0504443
0.0536315
0.0555769
0.0563205
0.0557562
0.0536106
-0.231955
-0.222409
-0.200722
-0.170674
-0.138432
-0.107962
-0.0809873
-0.0578994
-0.0384707
-0.0222648
-0.00882761
0.00224339
0.0112836
0.0185648
0.0243051
0.0286878
0.031894
0.0341381
0.0355427
0.0354596
-0.273487
-0.262963
-0.240801
-0.210095
-0.176779
-0.144946
-0.116482
-0.091894
-0.0710161
-0.0534355
-0.0386992
-0.0263942
-0.016168
-0.00772759
-0.000831795
0.00471869
0.0091213
0.0126458
0.0154787
0.0168906
-0.311917
-0.300508
-0.278094
-0.247039
-0.21296
-0.180033
-0.150295
-0.124374
-0.102177
-0.083322
-0.0673643
-0.0538861
-0.0425243
-0.032972
-0.0249733
-0.0183166
-0.012792
-0.00811328
-0.00411603
-0.00165329
-0.346963
-0.334763
-0.312317
-0.281227
-0.246714
-0.212983
-0.182211
-0.15515
-0.131785
-0.111779
-0.0947008
-0.0801348
-0.0677129
-0.0571201
-0.0480925
-0.0404122
-0.0338628
-0.028148
-0.0231248
-0.0197785
-0.378395
-0.365499
-0.343232
-0.31242
-0.277813
-0.24359
-0.212046
-0.184057
-0.159699
-0.138684
-0.120608
-0.105061
-0.0916763
-0.0801364
-0.070174
-0.0615691
-0.0541046
-0.047478
-0.041543
-0.0373578
-0.406043
-0.392547
-0.370654
-0.340423
-0.306066
-0.271677
-0.239642
-0.210958
-0.185799
-0.163939
-0.145004
-0.128601
-0.114368
-0.101991
-0.0912001
-0.0817772
-0.0735078
-0.0660893
-0.0593607
-0.0543914
-0.429799
-0.415796
-0.394452
-0.365086
-0.331322
-0.297102
-0.264873
-0.235744
-0.209994
-0.187464
-0.167824
-0.150703
-0.135749
-0.122652
-0.111148
-0.101018
-0.0920531
-0.0839575
-0.0765542
-0.0708878
-0.449617
-0.435202
-0.414555
-0.386314
-0.35347
-0.319757
-0.287639
-0.258329
-0.232208
-0.209199
-0.189019
-0.171326
-0.155785
-0.142094
-0.129994
-0.11927
-0.10972
-0.101057
-0.0930915
-0.0868234
-0.46552
-0.450784
-0.430955
-0.404063
-0.372445
-0.339568
-0.307871
-0.278651
-0.252392
-0.229102
-0.208554
-0.190441
-0.174451
-0.160295
-0.147719
-0.136514
-0.126486
-0.117362
-0.108937
-0.102155
-0.477593
-0.462626
-0.443704
-0.418342
-0.388227
-0.356499
-0.325529
-0.296674
-0.270515
-0.247146
-0.226407
-0.208032
-0.191734
-0.17724
-0.164308
-0.152734
-0.142332
-0.132846
-0.124057
-0.116843
-0.485982
-0.470877
-0.452918
-0.429221
-0.400841
-0.370551
-0.340603
-0.312385
-0.286564
-0.263324
-0.242572
-0.224092
-0.207627
-0.192924
-0.179753
-0.167919
-0.157246
-0.147492
-0.138431
-0.130862
-0.490893
-0.475741
-0.458773
-0.436823
-0.410362
-0.381763
-0.353113
-0.325795
-0.300549
-0.277643
-0.257058
-0.238629
-0.222136
-0.20735
-0.194057
-0.182069
-0.171222
-0.161292
-0.152047
-0.144202
-0.492582
-0.477477
-0.461498
-0.441327
-0.416913
-0.390213
-0.363108
-0.336939
-0.312497
-0.290128
-0.269886
-0.251663
-0.23528
-0.220534
-0.207229
-0.195192
-0.184266
-0.174248
-0.164904
-0.156861
-0.491348
-0.476384
-0.461373
-0.442961
-0.420661
-0.396017
-0.370668
-0.345875
-0.322453
-0.300817
-0.28109
-0.263224
-0.247084
-0.232498
-0.219291
-0.207303
-0.196391
-0.186369
-0.177007
-0.168846
-0.487523
-0.472799
-0.458717
-0.441999
-0.42182
-0.39933
-0.375902
-0.352682
-0.33048
-0.309762
-0.290716
-0.273354
-0.257585
-0.243275
-0.230271
-0.218429
-0.207619
-0.197674
-0.188373
-0.18017
-0.481467
-0.467081
-0.453879
-0.438754
-0.420643
-0.400344
-0.37895
-0.357463
-0.336657
-0.317028
-0.29882
-0.282101
-0.266829
-0.252905
-0.240204
-0.2286
-0.217976
-0.208187
-0.199021
-0.190853
-0.473548
-0.4596
-0.447225
-0.433564
-0.417419
-0.399285
-0.379982
-0.360343
-0.34108
-0.322692
-0.305467
-0.289523
-0.274866
-0.261434
-0.249132
-0.237854
-0.227498
-0.217939
-0.20898
-0.20092
-0.46414
-0.450724
-0.439126
-0.426785
-0.41246
-0.396407
-0.379193
-0.36147
-0.343859
-0.326842
-0.31073
-0.295683
-0.281752
-0.268913
-0.257101
-0.246232
-0.236222
-0.226965
-0.218281
-0.2104
-0.453605
-0.440814
-0.42995
-0.418779
-0.406099
-0.391992
-0.376805
-0.361012
-0.345122
-0.329574
-0.314686
-0.300647
-0.287545
-0.275394
-0.264158
-0.253779
-0.244188
-0.2353
-0.226957
-0.219327
-0.44229
-0.430206
-0.42004
-0.409897
-0.398671
-0.386335
-0.373062
-0.359158
-0.345011
-0.330998
-0.317421
-0.304484
-0.292305
-0.280929
-0.270351
-0.260536
-0.251436
-0.242983
-0.235042
-0.227732
-0.430511
-0.419207
-0.409715
-0.40047
-0.390505
-0.379739
-0.368223
-0.356115
-0.343685
-0.331233
-0.319025
-0.307266
-0.29609
-0.285569
-0.275724
-0.266545
-0.258002
-0.250047
-0.242568
-0.235641
-0.418553
-0.408085
-0.399252
-0.390796
-0.381909
-0.372505
-0.362554
-0.352107
-0.34132
-0.33041
-0.319597
-0.309067
-0.29896
-0.289362
-0.28032
-0.271843
-0.263919
-0.256522
-0.249559
-0.243078
-0.406662
-0.397073
-0.38889
-0.381133
-0.373162
-0.364913
-0.356322
-0.347363
-0.338102
-0.328675
-0.319244
-0.309966
-0.30097
-0.292353
-0.284173
-0.276458
-0.269214
-0.262429
-0.256036
-0.250056
-0.395043
-0.386357
-0.378821
-0.371697
-0.364504
-0.357222
-0.349782
-0.342117
-0.33423
-0.326184
-0.318083
-0.310046
-0.302183
-0.294584
-0.287315
-0.280416
-0.273904
-0.267785
-0.262009
-0.256579
-0.383863
-0.376084
-0.369193
-0.362653
-0.356129
-0.349649
-0.343164
-0.336596
-0.329905
-0.323105
-0.316245
-0.309403
-0.302661
-0.296097
-0.289772
-0.283731
-0.278001
-0.272595
-0.267483
-0.262643
-0.373245
-0.366364
-0.360112
-0.354122
-0.348185
-0.342374
-0.336671
-0.331007
-0.325328
-0.319612
-0.313871
-0.308142
-0.302479
-0.296938
-0.291571
-0.286419
-0.28151
-0.276862
-0.272457
-0.268242
-0.363281
-0.357269
-0.351646
-0.346183
-0.340773
-0.335528
-0.330463
-0.325532
-0.320684
-0.315882
-0.311112
-0.306383
-0.301721
-0.297162
-0.292742
-0.288492
-0.284435
-0.280584
-0.276931
-0.273373
-0.354026
-0.348841
-0.343831
-0.338878
-0.333953
-0.329199
-0.324661
-0.32032
-0.316138
-0.312079
-0.30812
-0.304254
-0.300487
-0.296837
-0.293324
-0.289968
-0.28678
-0.283764
-0.280914
-0.278053
-0.34551
-0.341097
-0.336679
-0.332219
-0.327752
-0.323437
-0.319344
-0.315478
-0.311823
-0.308353
-0.305046
-0.30189
-0.298886
-0.296041
-0.293367
-0.290871
-0.288555
-0.286407
-0.284422
-0.282327
-0.337736
-0.334034
-0.330177
-0.326195
-0.322165
-0.318255
-0.31455
-0.311079
-0.307841
-0.304826
-0.302023
-0.299425
-0.297037
-0.294868
-0.292931
-0.291232
-0.28977
-0.28852
-0.287478
-0.286278
-0.330689
-0.32763
-0.324301
-0.320778
-0.317169
-0.313641
-0.310289
-0.307154
-0.304253
-0.301589
-0.299163
-0.29698
-0.295057
-0.293416
-0.292084
-0.291085
-0.290428
-0.290092
-0.29008
-0.289993
-0.324338
-0.321851
-0.319013
-0.315927
-0.312723
-0.309562
-0.306541
-0.303708
-0.30109
-0.2987
-0.29655
-0.294657
-0.293053
-0.291782
-0.290898
-0.290459
-0.290513
-0.291075
-0.292168
-0.293535
-0.318637
-0.316655
-0.314266
-0.311594
-0.308779
-0.305973
-0.303268
-0.300717
-0.298349
-0.296182
-0.294234
-0.292532
-0.291118
-0.290057
-0.28944
-0.289374
-0.289978
-0.291346
-0.293566
-0.296806
-0.313534
-0.311991
-0.310009
-0.307724
-0.305281
-0.302816
-0.300417
-0.298136
-0.296001
-0.294028
-0.292236
-0.29065
-0.289319
-0.288322
-0.287775
-0.287846
-0.288744
-0.290701
-0.293956
-0.299552
-0.30897
-0.307806
-0.30619
-0.304263
-0.302168
-0.30003
-0.297928
-0.295908
-0.293996
-0.292204
-0.290542
-0.289029
-0.287704
-0.286643
-0.285974
-0.285899
-0.286721
-0.288831
-0.292784
-0.300999
-0.304882
-0.304044
-0.302754
-0.301154
-0.299383
-0.297553
-0.295733
-0.293966
-0.292271
-0.290653
-0.289111
-0.287651
-0.286291
-0.28508
-0.284123
-0.283616
-0.283894
-0.285466
-0.289436
-0.300318
-0.301211
-0.300653
-0.299651
-0.298345
-0.296871
-0.295324
-0.293769
-0.292241
-0.290753
-0.289304
-0.287881
-0.286471
-0.285062
-0.28366
-0.282303
-0.281104
-0.280292
-0.280245
-0.282398
-0.293563
-0.297902
-0.297586
-0.296835
-0.295791
-0.294581
-0.293292
-0.291977
-0.290668
-0.289374
-0.288085
-0.286779
-0.285425
-0.283977
-0.282382
-0.280567
-0.27844
-0.275853
-0.272322
-0.266603
-0.259787
-0.294907
-0.294798
-0.294267
-0.293451
-0.292475
-0.291413
-0.290312
-0.289199
-0.288079
-0.28694
-0.285754
-0.28448
-0.283063
-0.281425
-0.279466
-0.277057
-0.274042
-0.270049
-0.26423
-0.258151
-0.292186
-0.292256
-0.291913
-0.291296
-0.290523
-0.289658
-0.288744
-0.287801
-0.286835
-0.285831
-0.284763
-0.283591
-0.282263
-0.280711
-0.278853
-0.276605
-0.273885
-0.270478
-0.26597
-0.262062
-0.289705
-0.289929
-0.289749
-0.289302
-0.288704
-0.288009
-0.287254
-0.286459
-0.285625
-0.284741
-0.283783
-0.282716
-0.281497
-0.280072
-0.278385
-0.276385
-0.274033
-0.271189
-0.26767
-0.265143
-0.287439
-0.287797
-0.287755
-0.287454
-0.287006
-0.286457
-0.28584
-0.285171
-0.284453
-0.283677
-0.282821
-0.281858
-0.280755
-0.279475
-0.277982
-0.276254
-0.274287
-0.271997
-0.269337
-0.267761
-0.28537
-0.28584
-0.285917
-0.285741
-0.285421
-0.284999
-0.284502
-0.283946
-0.283334
-0.282657
-0.281901
-0.281046
-0.280068
-0.278946
-0.277661
-0.276216
-0.274628
-0.272858
-0.270922
-0.270012
-0.28348
-0.284047
-0.284224
-0.284156
-0.283949
-0.283637
-0.283248
-0.282795
-0.282281
-0.281703
-0.28105
-0.280308
-0.279464
-0.278507
-0.277435
-0.276264
-0.275023
-0.273697
-0.272323
-0.271857
-0.281757
-0.282406
-0.28267
-0.282695
-0.282585
-0.282373
-0.282082
-0.281726
-0.281308
-0.280829
-0.280281
-0.279658
-0.278954
-0.278166
-0.277301
-0.276383
-0.275445
-0.274481
-0.273523
-0.273344
-0.280189
-0.280908
-0.281246
-0.281352
-0.28133
-0.281208
-0.281008
-0.280743
-0.28042
-0.28004
-0.279601
-0.279099
-0.278535
-0.277911
-0.27724
-0.276548
-0.275866
-0.275187
-0.274533
-0.274538
-0.278769
-0.279547
-0.279949
-0.280126
-0.280181
-0.280141
-0.280025
-0.279848
-0.279617
-0.279334
-0.279001
-0.278619
-0.278189
-0.27772
-0.277224
-0.276726
-0.276254
-0.275799
-0.275365
-0.27549
-0.277488
-0.278316
-0.278774
-0.279013
-0.279138
-0.279172
-0.279133
-0.279038
-0.278893
-0.278704
-0.278472
-0.278202
-0.277898
-0.277568
-0.277224
-0.27689
-0.276588
-0.276305
-0.276034
-0.27624
-0.276339
-0.277212
-0.277718
-0.278012
-0.278197
-0.278297