/*--------------------------------*- C++ -*----------------------------------*\
  =========                 |
  \\      /  F ield         | OpenFOAM: The Open Source CFD Toolbox
   \\    /   O peration     | Website:  https://openfoam.org
    \\  /    A nd           | Version:  6.0
     \\/     M anipulation  |
\*---------------------------------------------------------------------------*/
FoamFile
{
    version     2.0;
    format      ascii;
    class       volScalarField;
    location    "14.6";
    object      p;
}
// * * * * * * * * * * * * * * * * * * * * * * * * * * * * * * * * * * * * * //

dimensions      [0 2 -2 0 0 0 0];

internalField   nonuniform List<scalar> 
8000
(
-0.284289
-0.285457
-0.28621
-0.286751
-0.287206
-0.287596
-0.28794
-0.288253
-0.288547
-0.288829
-0.289107
-0.289387
-0.289675
-0.289977
-0.2903
-0.290656
-0.29105
-0.291437
-0.291797
-0.292618
-0.284435
-0.285592
-0.286337
-0.286871
-0.287319
-0.287702
-0.288038
-0.288344
-0.288629
-0.288902
-0.289171
-0.289441
-0.289719
-0.290009
-0.290322
-0.290667
-0.291051
-0.291428
-0.291777
-0.292594
-0.284733
-0.285868
-0.286597
-0.287118
-0.287552
-0.28792
-0.288241
-0.28853
-0.288799
-0.289054
-0.289304
-0.289554
-0.28981
-0.29008
-0.29037
-0.290694
-0.291059
-0.291417
-0.291746
-0.292553
-0.285178
-0.286282
-0.286989
-0.287489
-0.287901
-0.288247
-0.288544
-0.288808
-0.289051
-0.289279
-0.289499
-0.289718
-0.289942
-0.290178
-0.290434
-0.290725
-0.291059
-0.291389
-0.291686
-0.29248
-0.285765
-0.28683
-0.287507
-0.28798
-0.288363
-0.288678
-0.288943
-0.289173
-0.289378
-0.289568
-0.289747
-0.289922
-0.2901
-0.290289
-0.290498
-0.290743
-0.291033
-0.291322
-0.291577
-0.292351
-0.286487
-0.287507
-0.288149
-0.288587
-0.288933
-0.289208
-0.289431
-0.289616
-0.289774
-0.289913
-0.290038
-0.290155
-0.290273
-0.290399
-0.290544
-0.290726
-0.290958
-0.291193
-0.291393
-0.292139
-0.287338
-0.28831
-0.28891
-0.289306
-0.289607
-0.289834
-0.290004
-0.290134
-0.290232
-0.290307
-0.290363
-0.290408
-0.290449
-0.290494
-0.290557
-0.290657
-0.290812
-0.290976
-0.291108
-0.291819
-0.288314
-0.289233
-0.289787
-0.290135
-0.290382
-0.290551
-0.290659
-0.290722
-0.290749
-0.290746
-0.290719
-0.290674
-0.290619
-0.290564
-0.290524
-0.29052
-0.290576
-0.290649
-0.290697
-0.291364
-0.289411
-0.290277
-0.290778
-0.291071
-0.291256
-0.291358
-0.291394
-0.29138
-0.291323
-0.29123
-0.291106
-0.290955
-0.290785
-0.290608
-0.29044
-0.290307
-0.290237
-0.290194
-0.290135
-0.290749
-0.290631
-0.291439
-0.291884
-0.292113
-0.292229
-0.292255
-0.29221
-0.292108
-0.291959
-0.291764
-0.291529
-0.291257
-0.290955
-0.290634
-0.290312
-0.29002
-0.289792
-0.289599
-0.289406
-0.289952
-0.291975
-0.292723
-0.293104
-0.293264
-0.293301
-0.293243
-0.293109
-0.292913
-0.292662
-0.292359
-0.292004
-0.291598
-0.291148
-0.290662
-0.29016
-0.289675
-0.28925
-0.288862
-0.288493
-0.288947
-0.29345
-0.294133
-0.294444
-0.294525
-0.294476
-0.294326
-0.294097
-0.293801
-0.293444
-0.293027
-0.292546
-0.292001
-0.291391
-0.290723
-0.290015
-0.289303
-0.288632
-0.287992
-0.287382
-0.287703
-0.295065
-0.295675
-0.295907
-0.2959
-0.295755
-0.295507
-0.295176
-0.294776
-0.294312
-0.293781
-0.293176
-0.29249
-0.291716
-0.290856
-0.289921
-0.288945
-0.287977
-0.287008
-0.286062
-0.286173
-0.296832
-0.297358
-0.297499
-0.297393
-0.297144
-0.296787
-0.296349
-0.295843
-0.295272
-0.29463
-0.293906
-0.293084
-0.292151
-0.291096
-0.28992
-0.288649
-0.287326
-0.285939
-0.28452
-0.284293
-0.298763
-0.299193
-0.29923
-0.299011
-0.298643
-0.298169
-0.297616
-0.297
-0.296322
-0.295574
-0.294737
-0.29379
-0.292707
-0.291464
-0.290043
-0.288453
-0.286723
-0.284816
-0.282745
-0.28198
-0.300875
-0.301193
-0.301109
-0.300761
-0.300259
-0.299652
-0.298973
-0.29824
-0.297452
-0.296598
-0.295656
-0.294594
-0.293375
-0.291956
-0.290297
-0.288378
-0.2862
-0.283678
-0.280753
-0.27917
-0.303187
-0.303374
-0.303149
-0.302651
-0.301994
-0.301237
-0.300417
-0.299554
-0.298647
-0.297685
-0.296637
-0.295467
-0.294123
-0.292544
-0.290664
-0.288425
-0.285788
-0.282601
-0.278651
-0.275893
-0.305723
-0.305755
-0.305365
-0.304693
-0.303859
-0.302928
-0.301946
-0.300934
-0.299894
-0.298811
-0.297653
-0.296375
-0.294915
-0.293194
-0.291117
-0.288582
-0.285497
-0.281626
-0.276498
-0.272078
-0.30851
-0.308362
-0.30778
-0.306906
-0.305865
-0.304735
-0.303565
-0.302381
-0.301187
-0.299968
-0.298692
-0.297308
-0.295752
-0.293931
-0.291726
-0.288987
-0.285537
-0.28097
-0.274366
-0.267487
-0.311583
-0.311225
-0.310421
-0.309314
-0.308036
-0.306676
-0.305291
-0.303911
-0.302543
-0.301173
-0.299774
-0.298304
-0.296706
-0.294909
-0.29282
-0.290321
-0.287238
-0.283054
-0.276437
-0.268598
-0.314985
-0.314381
-0.31332
-0.311948
-0.310402
-0.308784
-0.307157
-0.305557
-0.303994
-0.302462
-0.30094
-0.299404
-0.297827
-0.296195
-0.29452
-0.29288
-0.291458
-0.290568
-0.291481
-0.300804
-0.318765
-0.317873
-0.316519
-0.314849
-0.313004
-0.311099
-0.309207
-0.307367
-0.305595
-0.303889
-0.302241
-0.300641
-0.299091
-0.29762
-0.296305
-0.295308
-0.294918
-0.295596
-0.298344
-0.307467
-0.322979
-0.321752
-0.320065
-0.318063
-0.315891
-0.313677
-0.3115
-0.309406
-0.307413
-0.305526
-0.303745
-0.302073
-0.300533
-0.299177
-0.298109
-0.2975
-0.297618
-0.298818
-0.301609
-0.308227
-0.327686
-0.326068
-0.324008
-0.321643
-0.319119
-0.316576
-0.314101
-0.311741
-0.309518
-0.30744
-0.305511
-0.303742
-0.302163
-0.300831
-0.299842
-0.299337
-0.299501
-0.300543
-0.302685
-0.306849
-0.332946
-0.330878
-0.328402
-0.325645
-0.322746
-0.319859
-0.317074
-0.314438
-0.311972
-0.309684
-0.307575
-0.305658
-0.303957
-0.302519
-0.301417
-0.300741
-0.300594
-0.301064
-0.302235
-0.304228
-0.33882
-0.336233
-0.3333
-0.330124
-0.326832
-0.323586
-0.320479
-0.317553
-0.314822
-0.312287
-0.309946
-0.3078
-0.305866
-0.304173
-0.302765
-0.30169
-0.300991
-0.300687
-0.300809
-0.301105
-0.345358
-0.342184
-0.338753
-0.335133
-0.331432
-0.327814
-0.324368
-0.321125
-0.318091
-0.315252
-0.312597
-0.310118
-0.307818
-0.305711
-0.303821
-0.302169
-0.300769
-0.299611
-0.298709
-0.297702
-0.352603
-0.348773
-0.344806
-0.340722
-0.336595
-0.332587
-0.328775
-0.325176
-0.321776
-0.31855
-0.315473
-0.312531
-0.309718
-0.307044
-0.30452
-0.302162
-0.299975
-0.297951
-0.296096
-0.294093
-0.360586
-0.356033
-0.351496
-0.346929
-0.342358
-0.337934
-0.333716
-0.329697
-0.325843
-0.322117
-0.318487
-0.314935
-0.311461
-0.308075
-0.304795
-0.30164
-0.298623
-0.295748
-0.293021
-0.290211
-0.36932
-0.363981
-0.358846
-0.353781
-0.348743
-0.343865
-0.339178
-0.334648
-0.330223
-0.325857
-0.321522
-0.317209
-0.31293
-0.30871
-0.304581
-0.300574
-0.296712
-0.293014
-0.289481
-0.285971
-0.378797
-0.37262
-0.366866
-0.361285
-0.355749
-0.350359
-0.345114
-0.339952
-0.334809
-0.329644
-0.324443
-0.31922
-0.314011
-0.308863
-0.303823
-0.298936
-0.294234
-0.289742
-0.285458
-0.281301
-0.388984
-0.38193
-0.375541
-0.369425
-0.363346
-0.357363
-0.351439
-0.345493
-0.339462
-0.333326
-0.327102
-0.320838
-0.3146
-0.308458
-0.302476
-0.296705
-0.291181
-0.285929
-0.280937
-0.276165
-0.399822
-0.391864
-0.384831
-0.378154
-0.371467
-0.36478
-0.358026
-0.351117
-0.344015
-0.336737
-0.329348
-0.321937
-0.314602
-0.307434
-0.300504
-0.293864
-0.287549
-0.281574
-0.275914
-0.270552
-0.411214
-0.402343
-0.394662
-0.387387
-0.380003
-0.37247
-0.364705
-0.356638
-0.348278
-0.339703
-0.331033
-0.322403
-0.313937
-0.305738
-0.297878
-0.290403
-0.283334
-0.276678
-0.270389
-0.264467
-0.42303
-0.413255
-0.404921
-0.396996
-0.388798
-0.380247
-0.37127
-0.361845
-0.352054
-0.342053
-0.332022
-0.322134
-0.312535
-0.303326
-0.294572
-0.286305
-0.278531
-0.271239
-0.264362
-0.257919
-0.435098
-0.424445
-0.415453
-0.406805
-0.397649
-0.387886
-0.377485
-0.36651
-0.355142
-0.34362
-0.332185
-0.321039
-0.310331
-0.300155
-0.290559
-0.281553
-0.273125
-0.265247
-0.257828
-0.250911
-0.447205
-0.435718
-0.426058
-0.416593
-0.406311
-0.395124
-0.383092
-0.3704
-0.357345
-0.344253
-0.33141
-0.319035
-0.307268
-0.296184
-0.285805
-0.27612
-0.267096
-0.258686
-0.250775
-0.243437
-0.459099
-0.446837
-0.436492
-0.426094
-0.414496
-0.401674
-0.387824
-0.373285
-0.358479
-0.343808
-0.329591
-0.316044
-0.303287
-0.291365
-0.280273
-0.269974
-0.260416
-0.251531
-0.243181
-0.235483
-0.470488
-0.457525
-0.446466
-0.435001
-0.421892
-0.407235
-0.391416
-0.374946
-0.358372
-0.342156
-0.326631
-0.311992
-0.298327
-0.285649
-0.273919
-0.263077
-0.25305
-0.243752
-0.23502
-0.227024
-0.481049
-0.467469
-0.455659
-0.442979
-0.428166
-0.411504
-0.393609
-0.375178
-0.356868
-0.339181
-0.32244
-0.306807
-0.29233
-0.278983
-0.266697
-0.255386
-0.24496
-0.235312
-0.226259
-0.218032
-0.490434
-0.476327
-0.46372
-0.449673
-0.432982
-0.414186
-0.394163
-0.373795
-0.353826
-0.334775
-0.316933
-0.300419
-0.285234
-0.271314
-0.258558
-0.246857
-0.236105
-0.226174
-0.216864
-0.208476
-0.498272
-0.483735
-0.470277
-0.454719
-0.436008
-0.415003
-0.39286
-0.370631
-0.349122
-0.32884
-0.310031
-0.29276
-0.276981
-0.262588
-0.249453
-0.237445
-0.226444
-0.216301
-0.206801
-0.198323
-0.50419
-0.489321
-0.474959
-0.457761
-0.436933
-0.413701
-0.389506
-0.365543
-0.342647
-0.32129
-0.301663
-0.283769
-0.267513
-0.252754
-0.239335
-0.227108
-0.215938
-0.205657
-0.19604
-0.187545
-0.507816
-0.492714
-0.477396
-0.45846
-0.435471
-0.41006
-0.383936
-0.358406
-0.334305
-0.31205
-0.291762
-0.273386
-0.25678
-0.241765
-0.228163
-0.215808
-0.204555
-0.194213
-0.184551
-0.176115
-0.508793
-0.493553
-0.477242
-0.456509
-0.431374
-0.403892
-0.376014
-0.349122
-0.32402
-0.301055
-0.280275
-0.261564
-0.244735
-0.229581
-0.215901
-0.203515
-0.192266
-0.181944
-0.172316
-0.164015
-0.506788
-0.491505
-0.474181
-0.451636
-0.424433
-0.395047
-0.365634
-0.337612
-0.31173
-0.288252
-0.267154
-0.24826
-0.231344
-0.216171
-0.20252
-0.190203
-0.17905
-0.168833
-0.15932
-0.151233
-0.501506
-0.486273
-0.467936
-0.443618
-0.414484
-0.383412
-0.352719
-0.323821
-0.29739
-0.273606
-0.252366
-0.233445
-0.216579
-0.20151
-0.188002
-0.175857
-0.164895
-0.154871
-0.145558
-0.137763
-0.492693
-0.477601
-0.458282
-0.432283
-0.401411
-0.368914
-0.337223
-0.307716
-0.280977
-0.257092
-0.235891
-0.2171
-0.200424
-0.185585
-0.172336
-0.160469
-0.149797
-0.140056
-0.131031
-0.123607
-0.48015
-0.46529
-0.445051
-0.417511
-0.385144
-0.351518
-0.319128
-0.289289
-0.262481
-0.238704
-0.217721
-0.199218
-0.182873
-0.168393
-0.15552
-0.144041
-0.13376
-0.124398
-0.115752
-0.108777
-0.463735
-0.449198
-0.428132
-0.399242
-0.365662
-0.331227
-0.298449
-0.268554
-0.241917
-0.218452
-0.197864
-0.179805
-0.163932
-0.14994
-0.137563
-0.126584
-0.116798
-0.107915
-0.0997439
-0.0932989
-0.443369
-0.429247
-0.407478
-0.377469
-0.34299
-0.308082
-0.275228
-0.24555
-0.219317
-0.196361
-0.176342
-0.15888
-0.143618
-0.130242
-0.118481
-0.108116
-0.098933
-0.0906328
-0.0830404
-0.0772134
-0.419036
-0.405423
-0.383106
-0.352243
-0.3172
-0.282158
-0.249538
-0.220341
-0.194733
-0.172477
-0.153191
-0.136473
-0.121956
-0.109321
-0.0982944
-0.0886553
-0.0801859
-0.0725795
-0.0656782
-0.0605648
-0.390787
-0.377778
-0.355092
-0.323667
-0.288406
-0.253568
-0.221478
-0.193013
-0.168241
-0.146862
-0.128462
-0.112626
-0.0989809
-0.0872047
-0.077027
-0.068225
-0.0605784
-0.0537808
-0.0476897
-0.0433765
-0.358737
-0.346427
-0.323572
-0.291894
-0.256763
-0.222458
-0.191181
-0.163681
-0.139935
-0.119595
-0.102221
-0.0873916
-0.0747325
-0.0639251
-0.0547026
-0.0468442
-0.0401305
-0.0342619
-0.029099
-0.0256396
-0.323062
-0.311549
-0.288738
-0.257123
-0.222465
-0.189006
-0.158804
-0.132482
-0.109937
-0.0907779
-0.0745517
-0.0608345
-0.0492586
-0.0395131
-0.0313394
-0.0245235
-0.0188524
-0.0140369
-0.00991596
-0.00735398
-0.283999
-0.273377
-0.250834
-0.2196
-0.185745
-0.153423
-0.124535
-0.0995819
-0.0783889
-0.0605335
-0.0455552
-0.0330353
-0.0226174
-0.0140046
-0.00695353
-0.00126248
0.00326878
0.00691289
0.00985333
0.011349
-0.241834
-0.232196
-0.210148
-0.179607
-0.146867
-0.115951
-0.0885911
-0.0651738
-0.0454615
-0.0290089
-0.0153552
-0.0040927
0.00511788
0.0125512
0.0184276
0.0229326
0.0262498
0.0285958
0.0300889
0.0300681
-0.196903
-0.188337
-0.16701
-0.137459
-0.106125
-0.0768573
-0.0512162
-0.0294778
-0.0113515
0.00362419
0.0159057
0.0258849
0.033877
0.0401238
0.0448113
0.0481034
0.0501427
0.0509689
0.0504687
0.0483593
-0.149583
-0.142171
-0.121783
-0.0935036
-0.06384
-0.0364384
-0.0126823
0.00725494
0.0237106
0.037159
0.0480526
0.0567695
0.0636019
0.0687568
0.0723831
0.074613
0.0754737
0.0746055
0.0715381
0.0672924
-0.100281
-0.0940987
-0.0748554
-0.0481082
-0.0203544
0.00498891
0.0267139
0.0447426
0.0594533
0.0713328
0.0808342
0.0883335
0.0941201
0.0983996
0.101333
0.103072
0.103515
0.101809
0.0972477
0.0926526
-0.0494349
-0.0445463
-0.0266384
-0.00165781
0.0239754
0.0470928
0.0666587
0.0826817
0.0955741
0.105832
0.113908
0.120183
0.124962
0.128486
0.131004
0.132791
0.133821
0.133105
0.130384
0.133984
0.00251134
0.00604837
0.0224478
0.0454544
0.0687854
0.089535
0.106833
0.120765
0.131769
0.140341
0.146931
0.151911
0.155584
0.158206
0.16004
0.161348
0.162118
0.161875
0.161521
0.167281
0.0550935
0.0572333
0.0719741
0.0928307
0.11371
0.131978
0.146921
0.158692
0.167746
0.174578
0.179624
0.183249
0.185751
0.187382
0.188393
0.189006
0.189202
0.188687
0.188375
0.193016
0.107845
0.108555
0.121512
0.140076
0.158389
0.17409
0.186615
0.196173
0.203229
0.208268
0.211712
0.21391
0.215144
0.215657
0.215678
0.215406
0.214835
0.21374
0.212875
0.216009
0.160302
0.159562
0.170638
0.186803
0.20247
0.215551
0.225621
0.232936
0.237966
0.241181
0.242985
0.243705
0.243608
0.242913
0.241827
0.240518
0.23897
0.236983
0.23525
0.236981
0.212007
0.209812
0.218938
0.232634
0.245611
0.256052
0.263658
0.268725
0.271723
0.273103
0.273248
0.272465
0.270998
0.269048
0.266799
0.264391
0.261791
0.258825
0.25615
0.256536
0.262515
0.258872
0.26601
0.277205
0.287485
0.295297
0.30046
0.303301
0.304284
0.303843
0.302335
0.300047
0.297201
0.29398
0.290543
0.28701
0.283336
0.279373
0.275751
0.274867
0.311393
0.306328
0.311468
0.320166
0.32778
0.333008
0.335776
0.336438
0.335449
0.333221
0.330091
0.326321
0.322115
0.317636
0.313025
0.308379
0.30365
0.298717
0.294173
0.292082
0.35823
0.351781
0.354945
0.361188
0.366199
0.368918
0.369368
0.367923
0.365026
0.36107
0.356368
0.351161
0.345636
0.339936
0.334186
0.328464
0.322723
0.316865
0.311438
0.308203
0.402635
0.394856
0.396095
0.399957
0.402462
0.402778
0.401012
0.397554
0.392837
0.38723
0.381027
0.374449
0.367662
0.360797
0.35396
0.347216
0.34052
0.333794
0.327532
0.323216
0.444241
0.435199
0.434591
0.436181
0.436309
0.434353
0.430497
0.425143
0.418711
0.411551
0.403934
0.396064
0.388091
0.380129
0.372272
0.364573
0.356988
0.349457
0.342411
0.337083
0.482706
0.472484
0.470134
0.469589
0.467497
0.463426
0.457628
0.450514
0.44249
0.433889
0.424961
0.415893
0.40682
0.397844
0.389044
0.380463
0.372062
0.363794
0.356024
0.349757
0.517717
0.50641
0.502447
0.499934
0.495803
0.489796
0.482223
0.473503
0.464027
0.45411
0.443986
0.433826
0.423752
0.413852
0.404195
0.394813
0.385676
0.376742
0.368311
0.361185
0.548992
0.536706
0.531282
0.526992
0.521027
0.513282
0.50412
0.493961
0.483185
0.472092
0.460898
0.449762
0.438793
0.428068
0.417645
0.407552
0.39776
0.388237
0.379213
0.371315
0.576277
0.563131
0.556417
0.550562
0.542988
0.533722
0.52317
0.511754
0.499843
0.487722
0.475595
0.463607
0.451857
0.440413
0.429324
0.418611
0.408251
0.398216
0.388673
0.380097
0.599355
0.585477
0.577661
0.570473
0.561532
0.550977
0.539246
0.526766
0.513894
0.500903
0.487986
0.475277
0.462867
0.450816
0.439163
0.427927
0.41709
0.406623
0.396639
0.387487
0.618041
0.603568
0.594852
0.586579
0.576527
0.564925
0.55224
0.538897
0.525247
0.511551
0.497995
0.484702
0.471757
0.459215
0.447107
0.435448
0.424225
0.413409
0.403067
0.393446
0.632187
0.61726
0.60786
0.598762
0.587866
0.575471
0.562063
0.548066
0.533827
0.519598
0.505557
0.491823
0.478474
0.465559
0.453106
0.441128
0.429614
0.418535
0.407921
0.397943
0.641679
0.626448
0.616586
0.606932
0.59547
0.582542
0.568648
0.554213
0.539578
0.524991
0.510625
0.496594
0.482974
0.46981
0.457126
0.444934
0.433224
0.421969
0.411171
0.400954
0.646442
0.631058
0.620964
0.611031
0.599284
0.586089
0.571951
0.557295
0.542462
0.527696
0.513166
0.498987
0.485231
0.471941
0.459142
0.446842
0.435034
0.423691
0.412801
0.402462
0.646439
0.631055
0.620962
0.611028
0.599282
0.586086
0.571948
0.557293
0.54246
0.527694
0.513164
0.498985
0.485229
0.471939
0.45914
0.446841
0.435033
0.423689
0.412799
0.402461
0.64167
0.626439
0.616578
0.606924
0.595463
0.582535
0.568641
0.554207
0.539572
0.524985
0.510619
0.496589
0.482969
0.469805
0.457122
0.44493
0.43322
0.421965
0.411167
0.40095
0.632172
0.617246
0.607846
0.598749
0.587854
0.57546
0.562052
0.548056
0.533817
0.519589
0.505548
0.491814
0.478465
0.465551
0.453099
0.441121
0.429606
0.418528
0.407914
0.397936
0.618021
0.603548
0.594833
0.586561
0.57651
0.564909
0.552225
0.538882
0.525233
0.511538
0.497982
0.48469
0.471746
0.459203
0.447096
0.435437
0.424214
0.413399
0.403057
0.393436
0.599329
0.585452
0.577637
0.57045
0.56151
0.550956
0.539227
0.526747
0.513877
0.500886
0.48797
0.475261
0.462852
0.450801
0.439149
0.427914
0.417076
0.40661
0.396626
0.387474
0.576245
0.5631
0.556387
0.550534
0.542961
0.533697
0.523146
0.511731
0.499822
0.487701
0.475575
0.463587
0.451838
0.440395
0.429306
0.418594
0.408235
0.3982
0.388657
0.380082
0.548953
0.536668
0.531246
0.526958
0.520995
0.513252
0.504091
0.493933
0.48316
0.472067
0.460875
0.449739
0.438771
0.428047
0.417625
0.407532
0.397741
0.388218
0.379194
0.371297
0.517673
0.506366
0.502406
0.499895
0.495766
0.489761
0.48219
0.473471
0.463997
0.454081
0.443959
0.4338
0.423726
0.413828
0.404171
0.39479
0.385653
0.376721
0.36829
0.361164
0.482656
0.472434
0.470087
0.469545
0.467455
0.463386
0.45759
0.450478
0.442457
0.433856
0.424929
0.415863
0.406791
0.397816
0.389017
0.380436
0.372037
0.363769
0.356
0.349733
0.444185
0.435144
0.434538
0.436131
0.436262
0.434309
0.430455
0.425104
0.418673
0.411514
0.403899
0.39603
0.388058
0.380098
0.372242
0.364543
0.356959
0.349429
0.342384
0.337057
0.402573
0.394794
0.396036
0.399901
0.40241
0.402729
0.400965
0.39751
0.392794
0.38719
0.380988
0.374411
0.367626
0.360762
0.353926
0.347184
0.340488
0.333763
0.327502
0.323187
0.358162
0.351714
0.35488
0.361127
0.366141
0.368864
0.369317
0.367874
0.36498
0.361026
0.356325
0.351121
0.345596
0.339898
0.334149
0.328428
0.322688
0.316831
0.311405
0.308171
0.311318
0.306254
0.311397
0.3201
0.327717
0.332949
0.335721
0.336385
0.335398
0.333173
0.330044
0.326276
0.322072
0.317594
0.312985
0.30834
0.303612
0.29868
0.294137
0.292047
0.262434
0.258793
0.265933
0.277132
0.287417
0.295233
0.3004
0.303244
0.30423
0.30379
0.302285
0.299999
0.297155
0.293935
0.2905
0.286967
0.283295
0.279333
0.275712
0.274829
0.21192
0.209726
0.218855
0.232556
0.245538
0.255983
0.263593
0.268663
0.271664
0.273047
0.273194
0.272413
0.270948
0.268999
0.266752
0.264345
0.261747
0.258782
0.256108
0.256496
0.160209
0.15947
0.17055
0.18672
0.202391
0.215477
0.225551
0.232869
0.237902
0.24112
0.242927
0.243649
0.243554
0.242861
0.241777
0.24047
0.238922
0.236936
0.235205
0.236937
0.107746
0.108457
0.121418
0.139987
0.158305
0.174011
0.18654
0.196101
0.203161
0.208203
0.21165
0.21385
0.215087
0.215601
0.215624
0.215353
0.214784
0.213691
0.212827
0.215963
0.0549877
0.0571291
0.0718741
0.0927361
0.113621
0.131894
0.146842
0.158616
0.167674
0.174508
0.179558
0.183186
0.185689
0.187322
0.188335
0.18895
0.189148
0.188634
0.188323
0.192966
0.00239939
0.00593818
0.022342
0.0453542
0.068691
0.0894459
0.106749
0.120685
0.131692
0.140268
0.14686
0.151843
0.155519
0.158143
0.159978
0.161288
0.16206
0.161818
0.161465
0.167227
-0.0495528
-0.0446624
-0.02675
-0.00176354
0.0238757
0.0469987
0.0665696
0.0825969
0.0954932
0.105754
0.113833
0.120112
0.124892
0.128419
0.130938
0.132728
0.133759
0.133045
0.130324
0.133926
-0.100405
-0.0942206
-0.0749726
-0.0482194
-0.0204592
0.00488989
0.0266201
0.0446533
0.0593681
0.0712511
0.0807556
0.0882577
0.0940467
0.0983283
0.101264
0.103004
0.103449
0.101744
0.0971835
0.0925889
-0.149712
-0.142298
-0.121905
-0.0936201
-0.0639499
-0.0365423
-0.0127807
0.00716122
0.023621
0.0370731
0.0479699
0.0566896
0.0635246
0.0686817
0.0723099
0.0745415
0.0754037
0.0745367
0.0714699
0.0672245
-0.197038
-0.18847
-0.167138
-0.137581
-0.10624
-0.076966
-0.0513193
-0.0295759
-0.0114453
0.00353419
0.015819
0.0258011
0.0337959
0.040045
0.0447344
0.0480283
0.0500691
0.0508966
0.0503974
0.0482883
-0.241974
-0.232334
-0.210282
-0.179733
-0.146987
-0.116064
-0.0886986
-0.0652762
-0.0455594
-0.0291029
-0.0154457
-0.00418021
0.00503305
0.0124687
0.0183472
0.0228541
0.0261729
0.0285204
0.0300147
0.0299946
-0.284144
-0.27352
-0.250972
-0.219732
-0.18587
-0.153541
-0.124647
-0.0996885
-0.0784908
-0.0606314
-0.0456495
-0.0331265
-0.0227057
-0.0140905
-0.00703725
-0.00134426
0.00318873
0.00683442
0.00977628
0.0112729
-0.323212
-0.311697
-0.288881
-0.25726
-0.222594
-0.189128
-0.158919
-0.132592
-0.110043
-0.0908795
-0.0746497
-0.0609292
-0.0493504
-0.0396023
-0.0314264
-0.0246084
-0.0189355
-0.0141183
-0.00999584
-0.00743274
-0.358891
-0.346579
-0.323719
-0.292034
-0.256896
-0.222584
-0.191301
-0.163795
-0.140045
-0.1197
-0.102323
-0.0874897
-0.0748276
-0.0640176
-0.0547927
-0.0469322
-0.0402165
-0.0343461
-0.0291817
-0.025721
-0.390945
-0.377933
-0.355243
-0.323811
-0.288543
-0.253698
-0.221602
-0.193131
-0.168354
-0.14697
-0.128567
-0.112727
-0.0990792
-0.0873003
-0.0771201
-0.068316
-0.0606673
-0.0538679
-0.0477751
-0.0434606
-0.419197
-0.405582
-0.38326
-0.352391
-0.317341
-0.282292
-0.249665
-0.220462
-0.194849
-0.172589
-0.153299
-0.136577
-0.122058
-0.109419
-0.0983905
-0.0887491
-0.0802776
-0.0726694
-0.0657663
-0.0606515
-0.443533
-0.429409
-0.407636
-0.377621
-0.343134
-0.308218
-0.275359
-0.245675
-0.219436
-0.196476
-0.176453
-0.158987
-0.143723
-0.130343
-0.11858
-0.108212
-0.0990274
-0.0907253
-0.0831311
-0.0773027
-0.463902
-0.449363
-0.428292
-0.399396
-0.365809
-0.331367
-0.298583
-0.268681
-0.24204
-0.218569
-0.197978
-0.179915
-0.164039
-0.150044
-0.137665
-0.126684
-0.116896
-0.10801
-0.0998372
-0.0933907
-0.480318
-0.465456
-0.445213
-0.417667
-0.385293
-0.35166
-0.319264
-0.289419
-0.262607
-0.238824
-0.217838
-0.19933
-0.182982
-0.168499
-0.155624
-0.144143
-0.13386
-0.124496
-0.115848
-0.108871
-0.492862
-0.477768
-0.458446
-0.432441
-0.401562
-0.369058
-0.337361
-0.307848
-0.281104
-0.257215
-0.23601
-0.217215
-0.200536
-0.185694
-0.172442
-0.160574
-0.149899
-0.140156
-0.131129
-0.123704
-0.501675
-0.486441
-0.4681
-0.443778
-0.414637
-0.383558
-0.35286
-0.323955
-0.29752
-0.273731
-0.252487
-0.233563
-0.216693
-0.201621
-0.188111
-0.175964
-0.165
-0.154974
-0.145659
-0.137862
-0.506958
-0.491674
-0.474346
-0.451797
-0.424588
-0.395195
-0.365776
-0.337749
-0.311861
-0.28838
-0.267277
-0.24838
-0.231461
-0.216285
-0.202632
-0.190312
-0.179157
-0.168939
-0.159424
-0.151335
-0.508962
-0.493721
-0.477407
-0.45667
-0.431529
-0.404041
-0.376158
-0.34926
-0.324153
-0.301184
-0.2804
-0.261686
-0.244854
-0.229698
-0.216015
-0.203626
-0.192375
-0.182052
-0.172422
-0.16412
-0.507985
-0.49288
-0.47756
-0.458621
-0.435627
-0.41021
-0.38408
-0.358546
-0.33444
-0.312181
-0.291889
-0.27351
-0.2569
-0.241883
-0.228279
-0.215922
-0.204667
-0.194323
-0.18466
-0.176222
-0.504357
-0.489487
-0.475122
-0.45792
-0.437088
-0.413851
-0.389651
-0.365683
-0.342782
-0.321422
-0.301791
-0.283894
-0.267636
-0.252874
-0.239453
-0.227223
-0.216052
-0.205769
-0.19615
-0.187654
-0.498437
-0.483899
-0.470439
-0.454877
-0.436162
-0.415152
-0.393005
-0.370772
-0.349259
-0.328973
-0.31016
-0.292887
-0.277105
-0.26271
-0.249572
-0.237562
-0.22656
-0.216415
-0.206915
-0.198435
-0.490597
-0.476488
-0.463879
-0.449829
-0.433135
-0.414335
-0.394308
-0.373936
-0.353963
-0.334908
-0.317063
-0.300546
-0.28536
-0.271437
-0.25868
-0.246976
-0.236223
-0.226291
-0.21698
-0.20859
-0.48121
-0.467627
-0.455816
-0.443133
-0.428318
-0.411652
-0.393753
-0.375319
-0.357005
-0.339315
-0.322571
-0.306936
-0.292457
-0.279108
-0.26682
-0.255507
-0.24508
-0.235431
-0.226377
-0.218149
-0.470645
-0.45768
-0.44662
-0.435153
-0.422041
-0.407382
-0.391559
-0.375086
-0.358509
-0.342291
-0.326763
-0.312121
-0.298455
-0.285775
-0.274044
-0.2632
-0.253173
-0.243873
-0.23514
-0.227143
-0.459253
-0.446989
-0.436642
-0.426243
-0.414643
-0.401818
-0.387966
-0.373424
-0.358615
-0.343942
-0.329723
-0.316174
-0.303415
-0.291492
-0.280399
-0.270099
-0.26054
-0.251655
-0.243304
-0.235604
-0.447356
-0.435866
-0.426206
-0.416739
-0.406455
-0.395266
-0.383232
-0.370538
-0.357481
-0.344386
-0.331542
-0.319166
-0.307397
-0.296312
-0.285932
-0.276246
-0.267222
-0.258811
-0.2509
-0.243562
-0.435245
-0.42459
-0.415597
-0.406947
-0.397791
-0.388025
-0.377623
-0.366646
-0.355276
-0.343753
-0.332317
-0.32117
-0.310461
-0.300284
-0.290687
-0.28168
-0.273253
-0.265375
-0.257956
-0.251039
-0.423173
-0.413397
-0.405062
-0.397135
-0.388936
-0.380384
-0.371405
-0.361979
-0.352187
-0.342184
-0.332152
-0.322265
-0.312664
-0.303455
-0.294701
-0.286434
-0.27866
-0.271368
-0.264492
-0.258049
-0.411354
-0.402482
-0.394799
-0.387523
-0.380138
-0.372604
-0.364838
-0.35677
-0.348409
-0.339834
-0.331163
-0.322533
-0.314067
-0.305867
-0.298008
-0.290533
-0.283465
-0.27681
-0.270521
-0.2646
-0.399958
-0.391999
-0.384965
-0.378287
-0.371599
-0.364911
-0.358156
-0.351246
-0.344143
-0.336865
-0.329476
-0.322066
-0.314731
-0.307563
-0.300634
-0.293996
-0.287681
-0.281707
-0.276048
-0.270687
-0.389118
-0.382062
-0.375672
-0.369555
-0.363475
-0.357491
-0.351566
-0.345619
-0.339589
-0.333452
-0.327229
-0.320965
-0.314728
-0.308588
-0.302607
-0.296837
-0.291314
-0.286064
-0.281074
-0.276303
-0.378927
-0.372749
-0.366994
-0.361412
-0.355875
-0.350484
-0.345238
-0.340075
-0.334933
-0.329768
-0.324568
-0.319346
-0.314139
-0.308992
-0.303954
-0.299069
-0.294369
-0.289879
-0.285597
-0.281442
-0.369447
-0.364107
-0.358972
-0.353905
-0.348866
-0.343987
-0.339299
-0.334768
-0.330344
-0.325979
-0.321644
-0.317333
-0.313056
-0.308838
-0.304712
-0.300708
-0.296849
-0.293153
-0.289623
-0.286115
-0.360711
-0.356156
-0.351618
-0.347051
-0.342478
-0.338053
-0.333834
-0.329815
-0.325961
-0.322236
-0.318607
-0.315057
-0.311585
-0.308202
-0.304926
-0.301774
-0.298761
-0.295889
-0.293165
-0.290358
-0.352726
-0.348895
-0.344927
-0.340841
-0.336713
-0.332703
-0.328891
-0.325291
-0.321891
-0.318666
-0.315591
-0.312651
-0.309841
-0.30717
-0.30465
-0.302296
-0.300113
-0.298093
-0.296243
-0.294244
-0.345478
-0.342304
-0.338872
-0.335251
-0.331548
-0.327928
-0.32448
-0.321237
-0.318202
-0.315365
-0.312712
-0.310235
-0.307939
-0.305837
-0.303951
-0.302304
-0.300909
-0.299756
-0.298858
-0.297855
-0.338939
-0.336352
-0.333418
-0.330239
-0.326946
-0.323698
-0.320589
-0.317662
-0.314931
-0.312397
-0.310058
-0.307916
-0.305986
-0.304297
-0.302894
-0.301825
-0.301132
-0.300834
-0.300961
-0.301261
-0.333065
-0.330996
-0.328519
-0.325759
-0.322859
-0.319969
-0.317182
-0.314545
-0.31208
-0.309792
-0.307686
-0.305772
-0.304075
-0.302643
-0.301546
-0.300877
-0.300737
-0.301213
-0.302391
-0.304388
-0.327804
-0.326186
-0.324124
-0.321757
-0.31923
-0.316685
-0.314208
-0.311847
-0.309624
-0.307547
-0.30562
-0.303855
-0.30228
-0.300954
-0.299972
-0.299475
-0.299647
-0.300696
-0.302845
-0.307014
-0.323098
-0.32187
-0.320181
-0.318177
-0.316002
-0.313785
-0.311607
-0.309511
-0.307518
-0.305632
-0.303853
-0.302185
-0.300651
-0.299302
-0.298241
-0.297641
-0.297767
-0.298977
-0.301775
-0.308399
-0.318886
-0.317993
-0.316637
-0.314963
-0.313116
-0.311208
-0.309314
-0.307473
-0.3057
-0.303996
-0.30235
-0.300754
-0.29921
-0.297747
-0.29644
-0.295452
-0.295073
-0.29576
-0.298517
-0.307647
-0.315108
-0.314502
-0.313439
-0.312064
-0.310515
-0.308894
-0.307265
-0.305664
-0.304101
-0.30257
-0.301051
-0.299519
-0.297949
-0.296324
-0.294659
-0.293029
-0.291618
-0.290741
-0.291664
-0.300995
-0.31171
-0.311349
-0.310542
-0.309432
-0.308151
-0.306789
-0.305402
-0.30402
-0.302652
-0.301284
-0.299888
-0.298423
-0.296831
-0.295043
-0.292964
-0.290477
-0.287406
-0.283236
-0.276633
-0.268807
-0.30864
-0.308488
-0.307904
-0.307026
-0.305983
-0.30485
-0.303678
-0.302493
-0.3013
-0.300083
-0.29881
-0.297431
-0.295882
-0.29407
-0.291875
-0.289148
-0.285711
-0.281159
-0.274569
-0.267705
-0.305856
-0.305884
-0.305491
-0.304816
-0.303978
-0.303046
-0.302062
-0.301049
-0.30001
-0.298929
-0.297775
-0.296503
-0.29505
-0.293338
-0.291271
-0.288749
-0.285677
-0.281821
-0.276707
-0.272303
-0.303324
-0.303505
-0.303276
-0.302775
-0.302116
-0.301358
-0.300537
-0.299673
-0.298768
-0.297808
-0.296765
-0.2956
-0.294263
-0.292694
-0.290825
-0.288598
-0.285975
-0.282803
-0.278868
-0.276126
-0.301014
-0.301326
-0.301239
-0.300887
-0.300383
-0.299775
-0.299095
-0.298362
-0.297576
-0.296726
-0.295788
-0.294732
-0.293521
-0.292111
-0.290463
-0.288557
-0.286392
-0.283886
-0.280976
-0.27941
-0.298904
-0.299328
-0.299361
-0.299139
-0.298769
-0.298293
-0.29774
-0.297124
-0.296449
-0.295704
-0.294873
-0.293932
-0.292857
-0.291623
-0.290214
-0.288637
-0.28692
-0.285028
-0.282973
-0.282226
-0.296973
-0.297493
-0.29763
-0.297521
-0.297269
-0.296912
-0.296474
-0.295969
-0.295401
-0.294763
-0.294044
-0.293229
-0.292304
-0.291259
-0.290094
-0.288835
-0.287527
-0.286155
-0.28475
-0.284542
-0.295205
-0.295808
-0.296036
-0.296026
-0.29588
-0.295631
-0.2953
-0.294902
-0.294441
-0.293915
-0.293315
-0.292635
-0.29187
-0.29102
-0.290096
-0.289132
-0.288178
-0.287224
-0.286292
-0.286422
-0.293587
-0.294263
-0.29457
-0.294649
-0.294598
-0.294448
-0.294219
-0.293925
-0.293572
-0.293159
-0.292684
-0.292146
-0.291544
-0.290886
-0.290189
-0.289488
-0.288832
-0.288206
-0.287611
-0.28795
-0.292108
-0.292849
-0.293226
-0.293384
-0.29342
-0.293362
-0.293229
-0.293035
-0.292787
-0.292488
-0.292138
-0.29174
-0.291298
-0.290821
-0.290329
-0.289857
-0.289445
-0.289071
-0.288716
-0.289189
-0.290757
-0.291559
-0.292
-0.292228
-0.292342
-0.292368
-0.292324
-0.292225
-0.292078
-0.291889
-0.291659
-0.291394
-0.291099
-0.290787
-0.290476
-0.290195
-0.28998
-0.2898
-0.289622
-0.290185
-0.28953
-0.290389
-0.290887
-0.291178
-0.291363