1.45 	0 	0 	-0.0523596 	-0.0150584 	4.43285e-21
2.35 	0 	0 	0.19034 	-0.0183558 	-8.5167e-22
