/*--------------------------------*- C++ -*----------------------------------*\
  =========                 |
  \\      /  F ield         | OpenFOAM: The Open Source CFD Toolbox
   \\    /   O peration     | Website:  https://openfoam.org
    \\  /    A nd           | Version:  6.0
     \\/     M anipulation  |
\*---------------------------------------------------------------------------*/
FoamFile
{
    version     2.0;
    format      ascii;
    class       volVectorField;
    location    "1.2";
    object      U;
}
// * * * * * * * * * * * * * * * * * * * * * * * * * * * * * * * * * * * * * //

dimensions      [0 1 -1 0 0 0 0];

internalField   nonuniform List<vector> 
8000
(
(-0.00706376 0.00704442 -3.72433e-21)
(-0.031539 0.0143191 1.99943e-20)
(-0.0694647 0.0171551 -2.46674e-20)
(-0.108552 0.0172633 1.88898e-20)
(-0.143664 0.0156683 9.21233e-21)
(-0.17275 0.0129915 -2.77047e-20)
(-0.19468 0.00961557 -2.34781e-21)
(-0.208951 0.00578323 -5.94007e-22)
(-0.215474 0.00166162 -1.31452e-20)
(-0.214413 -0.00262148 -6.49164e-21)
(-0.206109 -0.00696011 5.43189e-21)
(-0.191028 -0.0112628 1.66848e-20)
(-0.169723 -0.01545 -2.30929e-21)
(-0.142811 -0.0194522 7.17731e-22)
(-0.110949 -0.0232063 -1.26653e-20)
(-0.0748347 -0.0266476 6.97647e-21)
(-0.0352061 -0.029692 -7.68644e-21)
(0.00723583 -0.0322027 1.10596e-20)
(0.0517328 -0.0339331 -1.78821e-23)
(0.0959316 -0.0344637 1.47526e-21)
(-0.00788446 0.0207282 1.23962e-20)
(-0.0326952 0.0422236 -6.45393e-20)
(-0.0699788 0.0506627 -4.53747e-20)
(-0.108033 0.0510357 -3.08791e-20)
(-0.141954 0.04635 -3.99564e-20)
(-0.169778 0.0384404 8.39892e-21)
(-0.190425 0.0284443 -4.50876e-20)
(-0.203415 0.0170864 -9.29254e-21)
(-0.208677 0.00486687 4.35348e-21)
(-0.206393 -0.00783168 3.08223e-20)
(-0.196919 -0.020692 -3.13274e-20)
(-0.180739 -0.0334401 4.13032e-20)
(-0.158431 -0.0458376 -2.85071e-20)
(-0.130633 -0.0576768 -2.96987e-20)
(-0.0980261 -0.0687708 -3.32707e-20)
(-0.0613324 -0.0789302 2.44574e-20)
(-0.0213105 -0.0879133 -3.91312e-21)
(0.0213339 -0.0953269 -1.5507e-20)
(0.065888 -0.100452 1.43164e-20)
(0.109942 -0.102049 -8.95423e-21)
(-0.00946231 0.0336046 1.24351e-19)
(-0.0349269 0.068731 6.60346e-20)
(-0.070963 0.082712 7.46746e-20)
(-0.107 0.0834984 6.48124e-21)
(-0.138581 0.0759403 4.17138e-20)
(-0.163924 0.0630309 4.929e-20)
(-0.182041 0.0466431 -9.49236e-20)
(-0.19251 0.0279805 -4.68805e-20)
(-0.195294 0.00787885 -6.03929e-20)
(-0.190607 -0.0130197 6.05391e-20)
(-0.17884 -0.0341811 -4.45525e-20)
(-0.160515 -0.055143 -5.43629e-20)
(-0.136249 -0.0755018 -2.04953e-20)
(-0.106727 -0.0949066 1.71172e-20)
(-0.0726749 -0.113047 2.59784e-22)
(-0.034856 -0.129618 7.3706e-21)
(0.00593326 -0.144247 4.57132e-20)
(0.0489762 -0.156327 -1.19503e-20)
(0.0936414 -0.164717 -3.51425e-20)
(0.137431 -0.167398 3.8417e-20)
(-0.0116828 0.0451963 4.65542e-20)
(-0.0380921 0.092991 -6.11176e-20)
(-0.072352 0.112393 -1.61339e-20)
(-0.10548 0.113817 3.23027e-20)
(-0.133664 0.103732 8.78932e-20)
(-0.155386 0.0861981 1.90125e-19)
(-0.169806 0.0637911 1.84707e-19)
(-0.176586 0.0381866 1.58858e-20)
(-0.175746 0.0105588 1.08361e-19)
(-0.167551 -0.0181848 1.60346e-19)
(-0.152444 -0.0472859 -1.14296e-19)
(-0.131001 -0.0760853 1.74199e-19)
(-0.103899 -0.104006 -3.1614e-20)
(-0.0718848 -0.130547 1.19984e-20)
(-0.0357445 -0.155273 2.58626e-20)
(0.00370223 -0.177777 2.8128e-20)
(0.0456099 -0.197588 -5.54873e-20)
(0.0892431 -0.213953 -3.75087e-20)
(0.134078 -0.225392 -4.99063e-20)
(0.177525 -0.229172 6.37537e-20)
(-0.0143884 0.0551134 -2.34877e-20)
(-0.041991 0.114272 -2.50929e-19)
(-0.0740496 0.138891 -7.56408e-20)
(-0.103509 0.141218 -1.84369e-19)
(-0.127364 0.12905 7.1946e-20)
(-0.144441 0.107389 -1.09868e-19)
(-0.154099 0.0794643 4.17562e-20)
(-0.156118 0.0474121 -2.28354e-19)
(-0.150603 0.0127456 1.22401e-19)
(-0.137888 -0.0233567 -1.37132e-19)
(-0.118486 -0.059905 -1.1464e-19)
(-0.093045 -0.0960345 -1.23582e-19)
(-0.0623173 -0.130986 1.02017e-19)
(-0.0271245 -0.164101 -8.76786e-20)
(0.0116735 -0.194818 1.1247e-19)
(0.0531937 -0.222639 2.50761e-20)
(0.0965356 -0.247031 5.55562e-20)
(0.140937 -0.26717 1.405e-20)
(0.185992 -0.281345 -7.91525e-20)
(0.22906 -0.286216 1.01668e-19)
(-0.0173933 0.0630759 1.14206e-19)
(-0.0463806 0.131996 4.62926e-21)
(-0.075933 0.161517 4.76784e-20)
(-0.101124 0.165011 1.64036e-19)
(-0.119869 0.151264 -2.09497e-20)
(-0.131415 0.126064 2.7027e-19)
(-0.135373 0.0932322 1.23713e-19)
(-0.131677 0.0553411 1.22013e-20)
(-0.120541 0.0142411 3.00965e-19)
(-0.102396 -0.028615 9.38253e-20)
(-0.0778403 -0.0719996 4.53013e-20)
(-0.0476143 -0.114836 1.32553e-19)
(-0.0125599 -0.156174 1.13099e-19)
(0.0264123 -0.195194 1.8528e-19)
(0.0683604 -0.231204 -1.63853e-19)
(0.112333 -0.263622 1.88743e-19)
(0.157375 -0.291887 -1.25819e-20)
(0.202691 -0.315174 -1.96192e-19)
(0.247992 -0.331671 2.2572e-19)
(0.290666 -0.337578 6.6229e-20)
(-0.0205019 0.068928 -6.60044e-20)
(-0.050993 0.14577 -1.29252e-19)
(-0.0778578 0.179737 -2.65442e-19)
(-0.0983505 0.184614 -8.58486e-21)
(-0.111378 0.169805 5.0208e-20)
(-0.116665 0.14171 -3.40645e-19)
(-0.114122 0.104657 -2.52575e-19)
(-0.103879 0.0616266 -3.61434e-20)
(-0.0862915 0.0147961 -3.11395e-19)
(-0.0619059 -0.0341071 -2.09471e-19)
(-0.0314346 -0.0836149 -5.94027e-20)
(0.00427417 -0.132433 -1.84657e-19)
(0.0442696 -0.179419 -8.42721e-21)
(0.087538 -0.223585 -2.19729e-19)
(0.133046 -0.264109 7.28191e-20)
(0.179771 -0.300331 -8.70498e-20)
(0.226707 -0.33168 4.9038e-20)
(0.273025 -0.357398 -8.35061e-20)
(0.318543 -0.3757 -1.72877e-19)
(0.360796 -0.382511 -3.97174e-20)
(-0.023526 0.0726409 -3.08038e-20)
(-0.0555543 0.155396 -3.3278e-20)
(-0.0796637 0.193197 2.27883e-19)
(-0.0952008 0.199573 -3.80303e-19)
(-0.102078 0.184184 5.44321e-20)
(-0.10054 0.153846 -2.26704e-19)
(-0.090842 0.1133 1.01147e-19)
(-0.073349 0.0658901 4.67361e-19)
(-0.0485887 0.0141049 -3.33425e-20)
(-0.0172547 -0.0400587 -3.40365e-19)
(0.019804 -0.0948921 5.4791e-20)
(0.0616052 -0.148883 1.58512e-20)
(0.107069 -0.200694 -5.49582e-20)
(0.15506 -0.249169 1.74537e-20)
(0.204442 -0.293362 4.65615e-19)
(0.25412 -0.332536 -6.88343e-20)
(0.303044 -0.366129 -1.11975e-19)
(0.35036 -0.393489 -1.6623e-19)
(0.395979 -0.412987 1.69259e-19)
(0.437728 -0.420477 5.44167e-20)
(-0.026301 0.0743047 1.34812e-19)
(-0.0598042 0.160877 -1.83535e-19)
(-0.0811794 0.201735 2.58959e-19)
(-0.0916569 0.209588 2.65973e-19)
(-0.0921171 0.194014 2.43487e-19)
(-0.0833473 0.162047 4.94247e-19)
(-0.0659831 0.118735 3.21253e-19)
(-0.0406617 0.0677322 -6.92911e-19)
(-0.00811869 0.0118119 3.53278e-19)
(0.030774 -0.0467688 2.72677e-19)
(0.0749992 -0.106065 -1.17909e-20)
(0.123411 -0.164348 2.87358e-19)
(0.174772 -0.220087 2.01623e-19)
(0.227807 -0.271967 -1.15836e-19)
(0.281262 -0.318922 3.31736e-19)
(0.333966 -0.360153 -4.02031e-19)
(0.384842 -0.395114 1.43925e-19)
(0.433026 -0.423291 1.60044e-19)
(0.478513 -0.443303 -2.51689e-20)
(0.519578 -0.451158 2.39561e-19)
(-0.028698 0.0741111 2.92428e-19)
(-0.0635112 0.162405 1.83753e-20)
(-0.082228 0.205387 -1.02994e-19)
(-0.0876625 0.214527 -1.05998e-19)
(-0.0815813 0.199033 -5.14592e-19)
(-0.0653141 0.16597 7.74463e-20)
(-0.0399027 0.120579 2.08196e-19)
(-0.00629062 0.0667574 -1.06429e-19)
(0.0345423 0.00753557 8.69646e-20)
(0.081508 -0.0545865 -2.00899e-20)
(0.133383 -0.117434 -1.05663e-19)
(0.188821 -0.17907 1.06342e-19)
(0.246395 -0.237778 -3.86958e-19)
(0.304663 -0.292095 3.80649e-19)
(0.362243 -0.340853 -2.9051e-19)
(0.417889 -0.38321 9.20005e-20)
(0.470517 -0.418647 1.75711e-19)
(0.519287 -0.446804 -3.96227e-20)
(0.564273 -0.466618 -9.92477e-20)
(0.604342 -0.474449 -5.72842e-20)
(-0.0306311 0.0723283 -3.78678e-19)
(-0.0664852 0.160333 -2.4577e-20)
(-0.0826297 0.204377 8.05261e-20)
(-0.0831112 0.214438 2.06141e-19)
(-0.0704662 0.19913 -2.88421e-19)
(-0.0465461 0.165385 -2.53927e-19)
(-0.0128126 0.11852 5.95272e-19)
(0.0294543 0.0626136 -3.31305e-19)
(0.0789915 0.00091005 -2.13565e-19)
(0.13445 -0.0638665 -3.02673e-19)
(0.194356 -0.129325 1.97035e-19)
(0.257114 -0.193327 -1.0223e-20)
(0.321072 -0.253988 -3.54666e-19)
(0.384595 -0.309719 -5.26877e-19)
(0.446169 -0.359276 3.97128e-19)
(0.504485 -0.401802 -2.82278e-19)
(0.558477 -0.436828 3.85335e-19)
(0.60738 -0.464154 -1.10221e-19)
(0.651355 -0.483073 1.50322e-19)
(0.689974 -0.490451 -5.3798e-19)
(-0.0320589 0.0692712 -8.02376e-19)
(-0.0685825 0.155136 5.22598e-19)
(-0.0822027 0.199099 6.82932e-20)
(-0.0778369 0.209548 1.46024e-20)
(-0.0586545 0.194363 -3.20492e-19)
(-0.0269914 0.160205 4.72355e-19)
(0.0152685 0.112369 4.86596e-20)
(0.0664813 0.0550415 -9.55362e-20)
(0.125057 -0.00835874 -3.18314e-19)
(0.189335 -0.0749083 3.38696e-19)
(0.25753 -0.142016 8.40668e-19)
(0.327753 -0.207362 -1.85063e-19)
(0.398082 -0.268916 4.01263e-19)
(0.466675 -0.324995 -4.41419e-19)
(0.531888 -0.374319 -3.92915e-19)
(0.592378 -0.416054 2.35231e-19)
(0.647144 -0.449812 3.21947e-19)
(0.69555 -0.475559 -1.02974e-18)
(0.737879 -0.492948 1.36098e-19)
(0.774466 -0.499459 1.34788e-19)
(-0.03298 0.0652709 6.01878e-19)
(-0.0697041 0.147372 2.11317e-19)
(-0.0807621 0.190081 1.02909e-18)
(-0.0716067 0.200252 5.46067e-20)
(-0.0458996 0.184966 -1.13667e-19)
(-0.00641375 0.150519 -5.47975e-19)
(0.0445489 0.102095 4.64241e-19)
(0.104953 0.0439285 8.49083e-19)
(0.172834 -0.0204299 5.58797e-19)
(0.246153 -0.0878855 4.09469e-19)
(0.322753 -0.15567 3.48006e-19)
(0.400391 -0.221311 -6.00766e-19)
(0.476846 -0.282668 -1.69926e-19)
(0.550066 -0.338009 -1.27679e-19)
(0.618304 -0.386068 1.29133e-18)
(0.680231 -0.426083 -2.84614e-20)
(0.734974 -0.457782 -2.77024e-19)
(0.782099 -0.481303 -4.4059e-20)
(0.822053 -0.496641 7.22636e-19)
(0.85594 -0.501939 9.99575e-20)
(-0.0334242 0.0606455 -2.21707e-20)
(-0.0697877 0.137626 -5.72243e-19)
(-0.0781155 0.177941 -8.50703e-19)
(-0.0641179 0.187083 -2.38648e-19)
(-0.0318207 0.171343 1.3491e-19)
(0.0156145 0.136598 2.70395e-20)
(0.0754719 0.0878607 7.6336e-19)
(0.145293 0.029357 -9.44191e-19)
(0.222676 -0.0352678 -3.60936e-19)
(0.305133 -0.102779 -7.24317e-19)
(0.390064 -0.170265 -6.06109e-19)
(0.474822 -0.235139 -5.27308e-19)
(0.556875 -0.295202 1.32268e-19)
(0.633979 -0.348731 -1.63412e-19)
(0.704343 -0.394536 6.43198e-19)
(0.76673 -0.431979 -3.60483e-19)
(0.820471 -0.460938 -9.82031e-19)
(0.865414 -0.481726 -1.47525e-19)
(0.902227 -0.494648 4.34957e-19)
(0.932733 -0.498503 -3.10897e-19)
(-0.0334393 0.0556764 -9.42232e-20)
(-0.0687936 0.126463 7.27128e-19)
(-0.0740579 0.163339 -9.18957e-19)
(-0.0550012 0.17068 2.0869e-19)
(-0.0159127 0.154053 -4.36027e-19)
(0.0396954 0.118905 9.8111e-19)
(0.108688 0.070039 -7.02343e-19)
(0.18814 0.0116369 8.03753e-19)
(0.275138 -0.0525987 -7.69439e-19)
(0.366665 -0.11933 3.22198e-19)
(0.459609 -0.185543 -1.59741e-19)
(0.550892 -0.248595 -3.88571e-19)
(0.637681 -0.306294 -4.59131e-19)
(0.717606 -0.356999 4.43818e-19)
(0.788921 -0.399657 -3.54445e-19)
(0.85058 -0.433804 -7.09248e-19)
(0.902214 -0.459498 7.12441e-19)
(0.944025 -0.477224 -8.50746e-19)
(0.976961 -0.487546 3.43998e-19)
(1.00346 -0.48988 -2.56139e-20)
(-0.0330773 0.0505909 -9.35906e-19)
(-0.0666875 0.114396 -9.9819e-19)
(-0.0683661 0.14693 1.12041e-19)
(-0.0438313 0.151738 -9.54535e-19)
(0.00242635 0.13377 -8.95809e-20)
(0.0665596 0.0980664 -7.0106e-19)
(0.144991 0.0492105 -1.63007e-19)
(0.234262 -0.00868624 -4.79165e-19)
(0.330865 -0.0718963 -2.14482e-21)
(0.43117 -0.137021 -2.11367e-19)
(0.531506 -0.201005 8.08155e-21)
(0.628366 -0.261218 -5.83547e-19)
(0.718683 -0.31556 6.12223e-19)
(0.80006 -0.362541 -8.58251e-19)
(0.87092 -0.401313 2.78903e-19)
(0.930528 -0.431622 -4.4685e-21)
(0.978908 -0.453719 -4.1188e-19)
(1.01667 -0.468251 9.36128e-19)
(1.0451 -0.475983 -2.35008e-19)
(1.06711 -0.476879 -1.15346e-19)
(-0.0323801 0.045554 1.06292e-18)
(-0.0634237 0.101849 5.66827e-19)
(-0.0607964 0.129321 5.21432e-19)
(-0.0301455 0.130965 7.54226e-20)
(0.0238517 0.111244 7.035e-19)
(0.0969958 0.0748432 1.01548e-18)
(0.185213 0.0261348 8.42201e-19)
(0.284427 -0.0308536 7.06391e-20)
(0.390442 -0.0924028 6.16167e-19)
(0.498947 -0.155108 9.51001e-19)
(0.605698 -0.215944 -2.44718e-19)
(0.706822 -0.272382 4.07031e-19)
(0.799126 -0.322497 3.2989e-19)
(0.880339 -0.365029 3.28724e-19)
(0.949198 -0.399379 1.74034e-18)
(1.0054 -0.425529 -6.42186e-19)
(1.04944 -0.44392 -3.68779e-20)
(1.08238 -0.455336 6.35523e-19)
(1.10584 -0.460673 -3.44725e-19)
(1.12306 -0.460355 1.48615e-19)
(-0.0313687 0.0406665 -8.73344e-19)
(-0.0589318 0.0891491 6.19708e-20)
(-0.0510861 0.111041 -6.88625e-19)
(-0.0134694 0.109041 -8.67047e-20)
(0.0490161 0.0872552 5.04635e-19)
(0.131761 0.0500808 -1.49236e-18)
(0.230108 0.00170339 2.67304e-21)
(0.339258 -0.0539428 6.95155e-19)
(0.454238 -0.113186 6.58707e-19)
(0.570022 -0.172682 -2.88337e-19)
(0.681843 -0.229523 9.18627e-20)
(0.785573 -0.281375 2.15058e-19)
(0.878069 -0.32657 -1.06901e-19)
(0.957357 -0.364141 -1.05587e-18)
(1.02264 -0.393767 2.70981e-19)
(1.07416 -0.415669 6.53028e-19)
(1.11292 -0.430464 -9.05997e-19)
(1.14046 -0.439041 4.36586e-19)
(1.15874 -0.442331 1.09142e-19)
(1.17111 -0.441124 4.6311e-19)
(-0.0300363 0.0359729 -1.34285e-19)
(-0.0531086 0.0765225 -6.11935e-19)
(-0.0389598 0.0925276 2.74443e-19)
(0.00665184 0.0865855 -4.70752e-21)
(0.078509 0.0625694 -1.21336e-18)
(0.171489 0.0246585 1.86164e-19)
(0.280231 -0.0231208 -3.61845e-20)
(0.399101 -0.07694 2.47168e-19)
(0.522285 -0.133225 -1.12877e-18)
(0.644065 -0.188769 -7.27358e-20)
(0.759261 -0.240878 -2.51418e-19)
(0.863683 -0.287501 2.34808e-19)
(0.954439 -0.327298 7.37912e-19)
(1.03004 -0.359628 -1.17733e-19)
(1.09028 -0.384456 4.04215e-20)
(1.13599 -0.402223 2.54567e-19)
(1.16873 -0.413694 -6.36051e-20)
(1.19045 -0.41982 4.48176e-19)
(1.2035 -0.421447 -2.83065e-19)
(1.21099 -0.419897 -3.85774e-19)
(-0.0283455 0.0314723 1.2188e-19)
(-0.0458176 0.0641104 2.54336e-20)
(-0.0241416 0.0741249 2.47463e-19)
(0.0306218 0.0641439 6.01183e-19)
(0.1128 0.0379081 3.35274e-19)
(0.216612 -0.000558322 3.64109e-20)
(0.335848 -0.0473669 -4.06639e-19)
(0.46394 -0.0988186 1.02824e-19)
(0.594214 -0.151499 5.43108e-19)
(0.720359 -0.202429 -9.17334e-19)
(0.836974 -0.249221 6.82479e-19)
(0.94004 -0.29018 -5.04801e-19)
(1.02714 -0.324334 4.07887e-19)
(1.09744 -0.351375 -8.53471e-19)
(1.15142 -0.371528 8.93577e-19)
(1.19051 -0.385412 -9.33443e-19)
(1.21673 -0.393889 -2.23456e-19)
(1.23239 -0.397889 6.59538e-19)
(1.24006 -0.398149 -2.34776e-19)
(1.24196 -0.397461 7.08324e-20)
(-0.0262316 0.0271352 -9.54973e-20)
(-0.0368952 0.051989 8.80958e-19)
(-0.00636924 0.0560971 -7.28067e-21)
(0.0587645 0.0421843 -5.39207e-19)
(0.152194 0.0139282 -3.66535e-19)
(0.267302 -0.0247557 6.66246e-19)
(0.396883 -0.0701129 -2.65019e-19)
(0.533362 -0.118615 -3.39975e-20)
(0.669266 -0.167082 5.4483e-19)
(0.797863 -0.212855 -6.80964e-19)
(0.913793 -0.253928 6.65506e-20)
(1.01347 -0.289016 -8.43058e-19)
(1.09518 -0.317524 4.21645e-19)
(1.15886 -0.339447 -1.16889e-18)
(1.20572 -0.355222 1.77145e-18)
(1.23778 -0.365573 -3.29788e-19)
(1.25745 -0.371371 2.82581e-19)
(1.26726 -0.373442 -7.52418e-19)
(1.26958 -0.372729 2.63554e-20)
(1.26401 -0.374885 6.83361e-19)
(-0.0236085 0.0229183 -2.95146e-19)
(-0.0261609 0.0401961 2.53487e-19)
(0.01459 0.0386512 -9.10529e-19)
(0.0913021 0.0211089 1.34145e-18)
(0.196809 -0.00878218 -9.67967e-19)
(0.323458 -0.0471948 4.67389e-20)
(0.462916 -0.0905281 -1.04369e-18)
(0.606595 -0.135484 7.42739e-19)
(0.74636 -0.179204 -1.10018e-19)
(0.87532 -0.219428 -6.42859e-19)
(0.988452 -0.254592 -3.56793e-19)
(1.08287 -0.283833 3.8637e-19)
(1.15774 -0.306915 2.35578e-19)
(1.21384 -0.324088 -1.00202e-18)
(1.25311 -0.335935 3.73402e-19)
(1.2781 -0.343219 -4.89406e-19)
(1.29154 -0.346759 5.29472e-20)
(1.29613 -0.347273 -3.6055e-19)
(1.29416 -0.345685 1.07383e-19)
(1.28598 -0.346455 -4.83215e-19)
(-0.0203766 0.0187806 8.35311e-19)
(-0.0134307 0.0287582 -4.94414e-19)
(0.0389257 0.0219642 4.05315e-19)
(0.128343 0.00127283 -5.09927e-19)
(0.246563 -0.0296985 8.65219e-19)
(0.384707 -0.0672225 -2.38036e-20)
(0.533222 -0.107899 -1.07601e-19)
(0.682581 -0.148739 -7.99908e-20)
(0.824215 -0.187287 4.75798e-19)
(0.951393 -0.221748 7.89659e-19)
(1.05974 -0.251023 -4.64004e-19)
(1.14731 -0.274658 4.33373e-19)
(1.21423 -0.292722 7.46411e-19)
(1.26218 -0.305659 -5.26584e-19)
(1.29376 -0.314132 -9.59956e-19)
(1.31191 -0.318895 1.68923e-18)
(1.31959 -0.320696 -3.06878e-19)
(1.31951 -0.320164 -8.91757e-20)
(1.31388 -0.318128 8.16981e-19)
(1.30315 -0.318357 -2.10892e-19)
(-0.0164322 0.0146942 -1.3778e-18)
(0.00146842 0.0177138 -9.11337e-19)
(0.0667719 0.00620805 -3.50071e-19)
(0.169875 -0.0169951 6.72099e-19)
(0.30119 -0.04835 -1.508e-18)
(0.450441 -0.0842756 7.76529e-19)
(0.606839 -0.121647 9.74874e-20)
(0.760079 -0.157868 9.3105e-20)
(0.901473 -0.190963 -1.00646e-18)
(1.02479 -0.219636 -3.50195e-19)
(1.12661 -0.243243 -5.91606e-19)
(1.20607 -0.261689 5.55115e-19)
(1.26436 -0.275282 1.34465e-19)
(1.30396 -0.284586 8.32603e-21)
(1.32803 -0.29028 5.92252e-19)
(1.33982 -0.293062 -6.23605e-19)
(1.34236 -0.293573 -2.05383e-20)
(1.33832 -0.292316 3.10746e-20)
(1.32975 -0.289992 9.02204e-20)
(1.31719 -0.289778 3.53714e-19)
(-0.0116757 0.0106522 4.42207e-19)
(0.0186861 0.00713007 1.13324e-18)
(0.0981979 -0.00842921 9.09584e-19)
(0.215768 -0.0333748 -3.11338e-19)
(0.360254 -0.0643096 1.07799e-18)
(0.519865 -0.0978788 -8.61716e-20)
(0.682644 -0.131327 -1.28972e-19)
(0.837775 -0.162537 7.56675e-20)
(0.976812 -0.190063 1.02373e-18)
(1.09439 -0.213108 5.87271e-19)
(1.18824 -0.23144 1.69581e-19)
(1.25874 -0.24525 1.81332e-20)
(1.30807 -0.255007 -9.96973e-19)
(1.33946 -0.261321 8.60601e-19)
(1.35645 -0.264833 1.29166e-19)
(1.36249 -0.266153 -2.28233e-19)
(1.36058 -0.265804 -8.58221e-19)
(1.35325 -0.26417 -4.89675e-20)
(1.34235 -0.26185 3.01897e-19)
(1.32846 -0.261469 -4.88659e-20)
(-0.00601722 0.00667133 -1.13812e-18)
(0.0383369 -0.00288743 4.75386e-19)
(0.1332 -0.0217311 -2.30225e-18)
(0.265775 -0.0475439 9.3856e-19)
(0.423172 -0.0771884 -7.49629e-19)
(0.592044 -0.107644 5.57156e-19)
(0.759438 -0.136629 -8.54031e-19)
(0.914374 -0.16258 8.06222e-20)
(1.04904 -0.184595 -3.99774e-20)
(1.15925 -0.202342 2.13412e-19)
(1.24409 -0.215927 2.93428e-19)
(1.30515 -0.225744 -5.54918e-19)
(1.34555 -0.232338 2.91617e-19)
(1.3691 -0.236298 2.48763e-19)
(1.37963 -0.238189 9.71048e-19)
(1.38061 -0.238505 -4.39808e-19)
(1.37494 -0.237649 -2.50577e-19)
(1.36496 -0.235893 4.01345e-19)
(1.35229 -0.233737 1.75636e-19)
(1.33749 -0.233327 -3.973e-19)
(0.000617734 0.00279289 1.00729e-18)
(0.0604914 -0.0121921 9.70314e-19)
(0.171696 -0.0334488 2.72996e-19)
(0.319536 -0.059176 1.16908e-18)
(0.489241 -0.0866364 5.75847e-19)
(0.665955 -0.113273 -1.02795e-18)
(0.836012 -0.137377 1.55004e-18)
(0.988675 -0.157982 -7.57634e-19)
(1.11717 -0.174713 7.35713e-19)
(1.21872 -0.187635 9.1772e-19)
(1.29386 -0.1971 -5.16575e-19)
(1.34536 -0.20361 9.9591e-20)
(1.37714 -0.20771 5.00187e-19)
(1.39342 -0.209918 3.329e-19)
(1.39819 -0.21069 7.09894e-19)
(1.39484 -0.2104 -3.04479e-19)
(1.38609 -0.209333 -5.26266e-20)
(1.37402 -0.207666 3.7122e-19)
(1.36004 -0.205814 -8.64532e-20)
(1.34466 -0.205497 -3.99608e-21)
(0.00828548 -0.000920146 -5.22354e-19)
(0.0851689 -0.0205997 -1.91518e-18)
(0.213518 -0.0433052 4.50405e-19)
(0.376589 -0.0679468 -3.41935e-19)
(0.557662 -0.09235 -7.90353e-19)
(0.740537 -0.114557 -5.56288e-19)
(0.911207 -0.133514 -3.38379e-19)
(1.05962 -0.148859 8.24416e-19)
(1.18039 -0.160688 -4.83458e-19)
(1.27235 -0.169368 -4.84529e-19)
(1.33748 -0.175395 -5.79097e-19)
(1.37959 -0.179289 -9.57944e-20)
(1.40327 -0.181532 -7.87287e-20)
(1.413 -0.182531 -1.16707e-18)
(1.41276 -0.182619 5.18475e-19)
(1.40578 -0.182049 -6.90496e-19)
(1.39454 -0.181 1.83892e-19)
(1.38089 -0.179573 -1.40583e-18)
(1.366 -0.178106 4.30301e-19)
(1.35029 -0.17795 4.95113e-19)
(0.0170217 -0.00438644 -1.30882e-19)
(0.112332 -0.0278954 9.43189e-19)
(0.258415 -0.0510048 5.95836e-20)
(0.436373 -0.0735457 1.45844e-19)
(0.627567 -0.0940825 -2.97281e-19)
(0.814728 -0.111383 -3.68212e-21)
(0.983957 -0.125098 -2.36627e-21)
(1.12634 -0.135436 -1.64164e-19)
(1.23816 -0.142872 5.97521e-19)
(1.31994 -0.147967 2.24708e-19)
(1.37505 -0.151257 9.58445e-19)
(1.40821 -0.153202 -2.62465e-19)
(1.42445 -0.154169 1.66752e-19)
(1.42839 -0.154436 -1.30865e-20)
(1.42389 -0.154204 4.28298e-19)
(1.41394 -0.153617 2.44048e-19)
(1.40077 -0.152766 5.45569e-19)
(1.38594 -0.151691 -8.54735e-19)
(1.37044 -0.150664 1.02683e-18)
(1.3546 -0.150723 -3.26485e-19)
(0.0268398 -0.00751052 -1.23781e-18)
(0.141882 -0.0338439 -3.84297e-19)
(0.306049 -0.0562479 3.01665e-19)
(0.498244 -0.0756918 1.90705e-19)
(0.698047 -0.0916547 1.92617e-19)
(0.887505 -0.103733 1.93693e-19)
(1.05333 -0.112285 -4.84516e-19)
(1.18814 -0.118018 -1.85559e-19)
(1.29011 -0.12167 6.6716e-20)
(1.36147 -0.123875 -5.39277e-19)
(1.40683 -0.125116 -2.2412e-19)
(1.43163 -0.125731 1.36247e-18)
(1.44121 -0.12594 -3.51816e-19)
(1.44014 -0.125877 -4.46289e-19)
(1.43208 -0.125625 -1.89252e-19)
(1.41976 -0.12523 1.41868e-19)
(1.40511 -0.124712 1.47585e-19)
(1.38946 -0.124068 -6.88707e-19)
(1.37359 -0.123514 9.55703e-19)
(1.35777 -0.123821 -8.28868e-19)
(0.0377296 -0.010187 -1.40944e-19)
(0.17366 -0.0382004 4.03605e-20)
(0.355999 -0.058746 -5.09948e-20)
(0.561489 -0.0741489 7.50891e-19)
(0.768183 -0.0849642 3.98401e-20)
(0.957919 -0.0916788 2.69392e-19)
(1.11852 -0.0953181 -5.56753e-19)
(1.24452 -0.0969714 -1.6194e-20)
(1.33608 -0.0975101 7.30899e-19)
(1.39706 -0.0975278 9.14488e-20)
(1.43315 -0.0973734 -5.92817e-19)
(1.45033 -0.0972158 -4.77201e-20)
(1.45404 -0.0971111 -4.31594e-19)
(1.44872 -0.0970558 4.43411e-19)
(1.43776 -0.0970232 5.65914e-19)
(1.42358 -0.0969829 -6.16691e-20)
(1.40784 -0.0969024 -6.37192e-20)
(1.39164 -0.0967499 2.00909e-19)
(1.37558 -0.0966908 -5.98592e-19)
(1.35988 -0.0972788 5.48577e-19)
(0.0496566 -0.012305 1.41618e-19)
(0.207444 -0.0407216 -9.11432e-19)
(0.407771 -0.0582366 2.43833e-19)
(0.625347 -0.0687392 -7.56684e-19)
(0.837071 -0.0739903 2.5995e-19)
(1.02511 -0.0753794 -9.48825e-19)
(1.17892 -0.0745045 3.75358e-19)
(1.29516 -0.0726974 -1.18473e-19)
(1.37605 -0.0708255 -4.17276e-21)
(1.42695 -0.0693384 1.06812e-19)
(1.4544 -0.0683874 -3.91242e-19)
(1.46475 -0.0679456 -5.28559e-19)
(1.46339 -0.067903 -9.73978e-20)
(1.45454 -0.0681296 -4.30115e-20)
(1.44126 -0.0685093 -1.09765e-19)
(1.42567 -0.0689523 -3.3854e-20)
(1.40916 -0.0693907 -9.88886e-20)
(1.39261 -0.0697774 -8.2908e-20)
(1.37651 -0.0702304 -2.28787e-19)
(1.36099 -0.0711316 3.5808e-19)
(0.0625612 -0.0137518 3.39015e-19)
(0.242954 -0.0411771 -3.76949e-19)
(0.460807 -0.0544978 8.12829e-19)
(0.689032 -0.0593538 -3.50049e-19)
(0.903851 -0.058795 9.32156e-19)
(1.08835 -0.0550664 1.54143e-20)
(1.23402 -0.0502012 4.51452e-19)
(1.33989 -0.0456142 -1.18614e-19)
(1.41012 -0.0420363 4.70147e-19)
(1.45142 -0.039686 2.55027e-20)
(1.47099 -0.0384734 1.03475e-18)
(1.47533 -0.0381654 -7.02159e-19)
(1.46968 -0.0384954 9.98836e-20)
(1.45794 -0.0392252 1.77543e-19)
(1.44284 -0.0401698 8.28696e-19)
(1.42621 -0.0411987 -2.95436e-19)
(1.40918 -0.0422233 -5.46886e-20)
(1.39246 -0.0431907 -2.69367e-19)
(1.37642 -0.0441739 -2.18505e-20)
(1.36112 -0.0454264 1.31192e-19)
(0.0763587 -0.0144173 -1.60802e-19)
(0.279853 -0.0393589 4.68121e-19)
(0.514499 -0.0473592 -4.82436e-19)
(0.751754 -0.0459587 1.89017e-19)
(0.967728 -0.0395192 -2.24481e-19)
(1.14701 -0.0310338 8.14744e-19)
(1.2835 -0.0227973 -1.12825e-19)
(1.37865 -0.0161411 2.58734e-19)
(1.4385 -0.0115392 -1.54361e-19)
(1.47084 -0.00891151 -2.38869e-21)
(1.48333 -0.00790337 1.5865e-19)
(1.48246 -0.00807892 -1.1689e-19)
(1.47323 -0.00903344 2.99604e-19)
(1.45918 -0.0104431 -1.47419e-19)
(1.4427 -0.0120744 -6.02747e-19)
(1.42533 -0.0137727 5.86289e-19)
(1.40799 -0.0154415 -2.49818e-19)
(1.39123 -0.0170283 1.98075e-19)
(1.37531 -0.0185628 3.24622e-19)
(1.36026 -0.0202113 1.32675e-19)
(0.0909401 -0.0141972 4.01234e-19)
(0.317758 -0.0350906 -8.27952e-19)
(0.568206 -0.0367108 1.57591e-19)
(0.812739 -0.0285972 -1.15635e-19)
(1.02799 -0.0163758 -4.60899e-19)
(1.20059 -0.00362394 -3.51992e-19)
(1.32714 0.00730059 -6.98292e-20)
(1.41151 0.0153132 -5.97366e-19)
(1.46142 0.0202992 -3.23342e-20)
(1.48553 0.022683 -1.04411e-19)
(1.49177 0.0230906 -2.74539e-19)
(1.48649 0.0221446 -6.21575e-20)
(1.47432 0.0203641 -1.99161e-19)
(1.45847 0.0181348 -3.13147e-19)
(1.44098 0.0157189 3.08853e-19)
(1.42312 0.0132813 3.52993e-20)
(1.40563 0.0109162 6.98888e-20)
(1.38893 0.0086722 -3.26931e-19)
(1.37319 0.00656159 -1.16129e-20)
(1.35841 0.00446636 -4.75584e-19)
(0.106173 -0.0129973 4.34331e-19)
(0.356245 -0.0282355 2.91288e-19)
(0.621271 -0.0225091 -4.72342e-19)
(0.871255 -0.00738803 7.33717e-19)
(1.08401 0.0103595 -8.05389e-20)
(1.24873 0.0267855 2.65046e-19)
(1.36485 0.0396805 8.98621e-20)
(1.43861 0.0483583 3.05188e-19)
(1.47917 0.0531443 -2.38172e-19)
(1.49586 0.0548321 7.40362e-20)
(1.49667 0.0543102 -7.09463e-20)
(1.48769 0.0523635 -2.84024e-20)
(1.47318 0.0495984 5.48477e-20)
(1.45596 0.046439 -9.71976e-20)
(1.43776 0.0431594 -2.67753e-20)
(1.41962 0.0399227 -8.48289e-20)
(1.40211 0.0368137 -1.32889e-19)
(1.38554 0.0338756 8.72191e-20)
(1.37003 0.0311611 -1.09913e-19)
(1.35553 0.0285643 4.82862e-19)
(0.121904 -0.0107366 -2.14486e-19)
(0.394861 -0.0187023 -6.13118e-19)
(0.673038 -0.00477949 -8.06425e-20)
(0.926623 0.0174785 -2.39825e-20)
(1.13528 0.040359 -2.70331e-19)
(1.29115 0.0597937 -4.35256e-19)
(1.39663 0.0739346 1.37064e-19)
(1.46014 0.0826269 -1.87175e-19)
(1.49206 0.0866934 -2.01652e-19)
(1.50215 0.0873027 1.08264e-19)
(1.49832 0.0855844 -8.03574e-20)
(1.48631 0.0824561 -1.5518e-19)
(1.46997 0.0785833 -7.32899e-22)
(1.45176 0.0744074 1.02959e-19)
(1.43311 0.0701995 -9.79903e-20)
(1.41485 0.0661121 1.3558e-19)
(1.39743 0.0622159 3.81191e-20)
(1.38105 0.0585485 8.75723e-20)
(1.3658 0.055201 1.59981e-19)
(1.35159 0.0520462 -1.36404e-19)
(0.137962 -0.00735045 2.03626e-19)
(0.433133 -0.00644994 -1.54594e-20)
(0.722868 0.0163832 9.3435e-20)
(0.978232 0.045748 -1.24162e-19)
(1.18138 0.0732532 1.26631e-20)
(1.3277 0.0949866 4.15763e-19)
(1.42256 0.109665 -2.69045e-19)
(1.47632 0.117776 1.09036e-19)
(1.50037 0.120673 9.32887e-20)
(1.5047 0.119888 -2.56929e-19)
(1.49697 0.116763 2.34922e-19)
(1.48253 0.112314 1.36078e-21)
(1.46482 0.10724 -1.55061e-19)
(1.44593 0.101981 1.84185e-19)
(1.42704 0.096792 -7.09116e-20)
(1.40881 0.0918098 5.30134e-20)
(1.39155 0.0870873 -5.96578e-20)
(1.37543 0.0826588 -2.50436e-20)
(1.36047 0.0786496 -1.89797e-19)
(1.34658 0.074882 5.87385e-20)
(0.154158 -0.00279331 -6.67214e-20)
(0.470579 0.00850952 1.83014e-19)
(0.770153 0.0408174 2.9273e-20)
(1.02555 0.0771094 1.18416e-19)
(1.22197 0.108642 5.55985e-20)
(1.35831 0.131946 2.60792e-20)
(1.44274 0.14649 1.4207e-19)
(1.48741 0.153486 -1.74206e-20)
(1.50441 0.154833 5.90464e-20)
(1.50377 0.152403 9.27154e-20)
(1.49284 0.14771 4.29733e-20)
(1.47651 0.141838 2.99562e-20)
(1.45782 0.135493 1.19601e-19)
(1.43852 0.129099 -1.15773e-19)
(1.41957 0.122887 2.40711e-20)
(1.40148 0.116973 -2.16802e-20)
(1.38447 0.111391 3.37547e-20)
(1.36866 0.106174 2.77606e-20)
(1.35402 0.101477 5.51348e-20)
(1.34045 0.0970461 1.70981e-21)
(0.170296 0.00295905 3.97565e-20)
(0.506722 0.0261099 3.60966e-20)
(0.814332 0.0682989 -5.00525e-20)
(1.06813 0.111205 3.11585e-20)
(1.25685 0.146103 1.69737e-20)
(1.38297 0.170254 -5.32838e-20)
(1.45737 0.184042 1.68704e-20)
(1.49365 0.189461 3.29432e-21)
(1.50443 0.188947 2.79176e-20)
(1.4996 0.184676 -7.36623e-20)
(1.4861 0.178297 1.2757e-22)
(1.46837 0.17093 1.9274e-20)
(1.44903 0.163266 -1.54137e-20)
(1.42956 0.155698 1.52732e-20)
(1.4107 0.148432 3.83031e-20)
(1.39285 0.141557 -2.13233e-20)
(1.37616 0.135089 6.24769e-21)
(1.3607 0.129061 2.23611e-20)
(1.34641 0.123654 -3.58978e-20)
(1.33321 0.118515 1.75752e-20)
(0.186171 0.00990803 1.0738e-19)
(0.541101 0.0462317 -5.90832e-20)
(0.854898 0.0985471 6.96245e-20)
(1.10559 0.147638 -5.15327e-20)
(1.28585 0.185202 -2.24084e-20)
(1.40175 0.209502 7.16575e-21)
(1.46663 0.221973 -2.12913e-20)
(1.49532 0.225423 7.52402e-20)
(1.50069 0.222803 -6.14611e-20)
(1.4924 0.216548 1.43019e-20)
(1.4769 0.208403 -1.06479e-20)
(1.45819 0.199493 -6.59043e-20)
(1.43851 0.190478 6.30575e-20)
(1.41906 0.181712 2.32525e-20)
(1.40043 0.173368 -2.28306e-20)
(1.38291 0.16551 5.2597e-20)
(1.36661 0.158135 -1.15262e-21)
(1.35154 0.151282 -4.89472e-20)
(1.33764 0.145148 3.54408e-20)
(1.32483 0.139267 1.08924e-20)
(0.201577 0.0180315 -3.78434e-20)
(0.573275 0.0687046 1.08117e-19)
(0.891408 0.131233 1.25031e-19)
(1.13767 0.185984 -5.87351e-20)
(1.30892 0.225497 1.01071e-19)
(1.41477 0.24929 1.56492e-19)
(1.47075 0.25995 -8.84441e-21)
(1.49265 0.261112 -2.54984e-20)
(1.49342 0.2562 1.25934e-19)
(1.48233 0.247864 6.03865e-20)
(1.46537 0.237905 -1.02506e-20)
(1.44605 0.227426 8.7233e-20)
(1.42628 0.217043 -9.0341e-20)
(1.40703 0.207065 1.40896e-19)
(1.38875 0.197629 -2.29742e-20)
(1.37165 0.188775 6.44299e-20)
(1.35579 0.180483 1.09379e-20)
(1.34117 0.172798 4.38306e-20)
(1.3277 0.165926 -4.16056e-20)
(1.31532 0.159276 1.05029e-20)
(0.216305 0.0272828 -5.85134e-20)
(0.602839 0.0933099 1.33268e-19)
(0.923483 0.165983 9.94439e-20)
(1.16414 0.225796 -1.48264e-20)
(1.32605 0.266546 1.51928e-19)
(1.42217 0.289229 -1.14481e-19)
(1.46996 0.297659 -6.78399e-21)
(1.48589 0.296281 9.70655e-20)
(1.48282 0.288947 3.05946e-20)
(1.46957 0.278473 4.1818e-20)
(1.45161 0.266679 -6.0753e-20)
(1.43201 0.254626 1.56682e-19)
(1.41238 0.242871 2.7958e-20)
(1.39348 0.231677 -1.34179e-19)
(1.37566 0.221145 1.93116e-19)
(1.35906 0.21129 -2.24071e-19)
(1.34371 0.202079 -9.99438e-20)
(1.32959 0.193561 1.8077e-20)
(1.31659 0.185948 9.44634e-20)
(1.30469 0.178516 -1.79474e-19)
(0.230156 0.0375912 -1.26181e-19)
(0.629425 0.119786 -3.00046e-19)
(0.950817 0.202392 -2.62025e-19)
(1.1849 0.266616 -3.48539e-19)
(1.33731 0.307913 -1.96395e-19)
(1.42415 0.328946 -4.00959e-19)
(1.46451 0.334799 5.10993e-20)
(1.47528 0.330694 -2.06403e-19)
(1.46909 0.32086 -2.23836e-20)
(1.45425 0.308226 3.34139e-20)
(1.43571 0.2946 -7.18532e-20)
(1.41613 0.28098 8.90832e-20)
(1.39684 0.267863 1.55364e-19)
(1.37844 0.25546 -2.18513e-19)
(1.36118 0.243838 3.46464e-20)
(1.34515 0.232987 9.74577e-20)
(1.33037 0.222862 1.60775e-19)
(1.3168 0.213522 -1.38732e-19)
(1.30431 0.205172 -6.16805e-21)
(1.29295 0.196954 1.59041e-19)