/*--------------------------------*- C++ -*----------------------------------*\
  =========                 |
  \\      /  F ield         | OpenFOAM: The Open Source CFD Toolbox
   \\    /   O peration     | Website:  https://openfoam.org
    \\  /    A nd           | Version:  6.0
     \\/     M anipulation  |
\*---------------------------------------------------------------------------*/
FoamFile
{
    version     2.0;
    format      ascii;
    class       surfaceScalarField;
    location    "49";
    object      phi;
}
// * * * * * * * * * * * * * * * * * * * * * * * * * * * * * * * * * * * * * //

dimensions      [0 3 -1 0 0 0 0];

internalField   nonuniform List<scalar> 
24700
(
-1.19145e-06
1.24176e-05
-1.12261e-05
-4.35174e-06
3.26429e-05
-2.94826e-05
-9.097e-06
4.90118e-05
-4.42666e-05
-1.50733e-05
6.20704e-05
-5.60941e-05
-2.19638e-05
7.23429e-05
-6.54523e-05
-2.9491e-05
8.03328e-05
-7.28056e-05
-3.74169e-05
8.65066e-05
-7.85807e-05
-4.5542e-05
9.12837e-05
-8.31586e-05
-5.37037e-05
9.50322e-05
-8.68705e-05
-6.17745e-05
9.80677e-05
-8.99969e-05
-6.96597e-05
0.000100656
-9.27703e-05
-7.72958e-05
0.000103014
-9.53778e-05
-8.46483e-05
0.000105319
-9.79669e-05
-9.17098e-05
0.000107711
-0.00010065
-9.84978e-05
0.000110297
-0.000103508
-0.000105053
0.000113156
-0.0001066
-0.000111437
0.000116345
-0.000109961
-0.00011773
0.0001199
-0.000113608
-0.000124026
0.00012384
-0.000117544
-0.000130433
0.000128165
-0.000121757
-0.000137069
0.000132863
-0.000126227
-0.000144058
0.000137907
-0.000130918
-0.000151527
0.000143257
-0.000135788
-0.000159604
0.000148859
-0.000140782
0.000154654
-0.00014584
-0.000168419
-1.09722e-06
1.35148e-05
-4.02518e-06
3.55708e-05
-8.43507e-06
5.34217e-05
-1.39982e-05
6.76335e-05
-2.04155e-05
7.87601e-05
-2.74213e-05
8.73386e-05
-3.47848e-05
9.38702e-05
-4.23103e-05
9.88092e-05
-4.9836e-05
0.000102558
-5.72329e-05
0.000105465
-6.44033e-05
0.000107826
-7.12795e-05
0.00010989
-7.78222e-05
0.000111862
-8.40187e-05
0.000113908
-8.98819e-05
0.00011616
-9.5448e-05
0.000118722
-0.000100775
0.000121672
-0.000105941
0.000125066
-0.00011104
0.000128939
-0.000116183
0.000133307
-0.00012149
0.00013817
-0.000127093
0.00014351
-0.000133127
0.000149291
-0.000139732
0.000155464
0.000161974
-0.000147052
-1.01062e-06
1.45254e-05
-3.72194e-06
3.82822e-05
-7.81556e-06
5.75153e-05
-1.29848e-05
7.28027e-05
-1.89459e-05
8.47213e-05
-2.54435e-05
9.38361e-05
-3.22524e-05
0.000100679
-3.91788e-05
0.000105736
-4.606e-05
0.000109439
-5.27635e-05
0.000112168
-5.91862e-05
0.000114249
-6.52536e-05
0.000115958
-7.09185e-05
0.000117527
-7.61603e-05
0.000119149
-8.09838e-05
0.000120983
-8.54184e-05
0.000123156
-8.95162e-05
0.00012577
-9.33512e-05
0.000128901
-9.70169e-05
0.000132605
-0.000100625
0.000136915
-0.000104301
0.000141846
-0.000108184
0.000147393
-0.000112424
0.00015353
-0.000117174
0.000160214
0.000167397
-0.000122597
-9.32921e-07
1.54583e-05
-3.44636e-06
4.07956e-05
-7.24706e-06
6.1316e-05
-1.20468e-05
7.76024e-05
-1.7575e-05
9.02495e-05
-2.35844e-05
9.98455e-05
-2.98542e-05
0.000106949
-3.6191e-05
0.000112072
-4.24293e-05
0.000115677
-4.84314e-05
0.00011817
-5.40865e-05
0.000119904
-5.93105e-05
0.000121182
-6.40457e-05
0.000122262
-6.82603e-05
0.000123364
-7.19479e-05
0.000124671
-7.51276e-05
0.000126336
-7.78432e-05
0.000128485
-8.01623e-05
0.00013122
-8.21758e-05
0.000134618
-8.39958e-05
0.000138735
-8.57542e-05
0.000143605
-8.76001e-05
0.000149239
-8.96967e-05
0.000155627
-9.22195e-05
0.000162737
0.000170532
-9.53549e-05
-8.65127e-07
1.63235e-05
-3.20169e-06
4.31321e-05
-6.73606e-06
6.48504e-05
-1.11949e-05
8.20613e-05
-1.63182e-05
9.53728e-05
-2.18654e-05
0.000105393
-2.76184e-05
0.000112702
-3.33833e-05
0.000117837
-3.89906e-05
0.000121285
-4.42953e-05
0.000123475
-4.91771e-05
0.000124785
-5.35399e-05
0.000125544
-5.73126e-05
0.000126035
-6.04488e-05
0.0001265
-6.29277e-05
0.00012715
-6.47545e-05
0.000128163
-6.59609e-05
0.000129692
-6.66056e-05
0.000131865
-6.67739e-05
0.000134786
-6.65778e-05
0.000138539
-6.61544e-05
0.000143181
-6.56642e-05
0.000148749
-6.5289e-05
0.000155252
-6.52289e-05
0.000162677
0.000171005
-6.57019e-05
-8.07872e-07
1.71313e-05
-2.98998e-06
4.53142e-05
-6.28658e-06
6.8147e-05
-1.04355e-05
8.62102e-05
-1.51853e-05
0.000100122
-2.03003e-05
0.000110508
-2.55646e-05
0.000117966
-3.07825e-05
0.000123055
-3.57795e-05
0.000126282
-4.04026e-05
0.000128098
-4.452e-05
0.000128903
-4.80216e-05
0.000129046
-5.08201e-05
0.000128833
-5.28515e-05
0.000128532
-5.40765e-05
0.000128375
-5.44825e-05
0.000128569
-5.40851e-05
0.000129294
-5.29299e-05
0.000130709
-5.10935e-05
0.00013295
-4.8685e-05
0.00013613
-4.58459e-05
0.000140342
-4.27493e-05
0.000145652
-3.9598e-05
0.0001521
-3.66232e-05
0.000159702
0.000168464
-3.4082e-05
-7.61377e-07
1.78927e-05
-2.81182e-06
4.73647e-05
-5.89971e-06
7.12348e-05
-9.77062e-06
9.00811e-05
-1.41792e-05
0.000104531
-1.88942e-05
0.000115223
-2.37007e-05
0.000122773
-2.84012e-05
0.000127756
-3.2816e-05
0.000130697
-3.6783e-05
0.000132065
-4.0158e-05
0.000132278
-4.28156e-05
0.000131704
-4.46497e-05
0.000130667
-4.55756e-05
0.000129457
-4.55318e-05
0.000128331
-4.44835e-05
0.000127521
-4.24252e-05
0.000127236
-3.93842e-05
0.000127668
-3.54238e-05
0.00012899
-3.06466e-05
0.000131353
-2.5196e-05
0.000134892
-1.92574e-05
0.000139714
-1.3058e-05
0.000145901
-6.8658e-06
0.00015351
0.000162586
-9.87419e-07
-7.25378e-07
1.86181e-05
-2.66614e-06
4.93054e-05
-5.57314e-06
7.41418e-05
-9.19636e-06
9.37043e-05
-1.32949e-05
0.00010863
-1.76409e-05
0.000119569
-2.20204e-05
0.000127152
-2.62344e-05
0.00013197
-3.00981e-05
0.00013456
-3.34407e-05
0.000135407
-3.61055e-05
0.000134943
-3.79503e-05
0.000133549
-3.8849e-05
0.000131566
-3.86934e-05
0.000129302
-3.73965e-05
0.000127034
-3.48962e-05
0.00012502
-3.11604e-05
0.0001235
-2.6192e-05
0.0001227
-2.00349e-05
0.000122833
-1.27794e-05
0.000124098
-4.56673e-06
0.000126679
4.40673e-06
0.00013074
1.38877e-05
0.00013642
2.35647e-05
0.000143833
0.000153081
3.30696e-05
-6.99085e-07
1.93172e-05
-2.55008e-06
5.11564e-05
-5.30091e-06
7.68926e-05
-8.70282e-06
9.71062e-05
-1.25179e-05
0.000112445
-1.6521e-05
0.000123572
-2.05e-05
0.000131131
-2.42547e-05
0.000135725
-2.75965e-05
0.000137902
-3.03468e-05
0.000138158
-3.23369e-05
0.000136933
-3.34085e-05
0.00013462
-3.34144e-05
0.000131572
-3.22214e-05
0.000128109
-2.97136e-05
0.000124526
-2.57974e-05
0.000121104
-2.04081e-05
0.000118111
-1.35172e-05
0.000115809
-5.14104e-06
0.000114456
4.6501e-06
0.000114307
1.57234e-05
0.000115606
2.78756e-05
0.000118588
4.08269e-05
0.000123469
5.42159e-05
0.000130444
0.000139698
6.7599e-05
-6.81177e-07
1.99983e-05
-2.45894e-06
5.29342e-05
-5.07319e-06
7.95069e-05
-8.27356e-06
0.000100307
-1.18238e-05
0.000115995
-1.55013e-05
0.000127249
-1.90963e-05
0.000134726
-2.24091e-05
0.000139037
-2.52488e-05
0.000140742
-2.74309e-05
0.00014034
-2.87769e-05
0.000138279
-2.91133e-05
0.000134957
-2.82729e-05
0.000130732
-2.60969e-05
0.000125933
-2.24385e-05
0.000120868
-1.71691e-05
0.000115835
-1.01856e-05
0.000111128
-1.42041e-06
0.000107044
9.14689e-06
0.000103889
2.14761e-05
0.000101977
3.54525e-05
0.000101629
5.0873e-05
0.000103168
6.74333e-05
0.000106908
8.47171e-05
0.00011316
0.000122225
0.00010219
-6.6983e-07
2.06682e-05
-2.38629e-06
5.46507e-05
-4.87649e-06
8.19971e-05
-7.88574e-06
0.000103316
-1.1178e-05
0.000119287
-1.45336e-05
0.000130605
-1.77455e-05
0.000137938
-2.06165e-05
0.000141908
-2.29556e-05
0.000143081
-2.45755e-05
0.00014196
-2.52903e-05
0.000138994
-2.49146e-05
0.000134581
-2.32635e-05
0.00012908
-2.01538e-05
0.000122823
-1.54082e-05
0.000116122
-8.86063e-06
0.000109287
-3.6519e-07
0.000102632
1.01923e-05
9.64865e-05
2.28789e-05
9.12025e-05
3.76969e-05
8.71593e-05
5.45624e-05
8.47638e-05
7.32835e-05
8.44465e-05
9.35384e-05
8.66536e-05
0.000114853
9.18459e-05
0.000100494
0.000136584
-6.62812e-07
2.1331e-05
-2.32421e-06
5.63121e-05
-4.69414e-06
8.4367e-05
-7.51079e-06
0.000106133
-1.05371e-05
0.000122314
-1.35556e-05
0.000133624
-1.63635e-05
0.000140746
-1.87675e-05
0.000144312
-2.05793e-05
0.000144893
-2.16118e-05
0.000142992
-2.16762e-05
0.000139058
-2.05791e-05
0.000133484
-1.81221e-05
0.000126623
-1.41016e-05
0.000118803
-8.3121e-06
0.000110333
-5.50819e-07
0.000101526
9.37323e-06
9.2708e-05
2.16264e-05
8.42333e-05
3.63323e-05
7.64966e-05
5.35488e-05
6.99429e-05
7.3239e-05
6.50736e-05
9.52387e-05
6.24468e-05
0.00011922
6.26721e-05
0.000144654
6.64126e-05
7.43752e-05
0.000170772
-6.57617e-07
2.19886e-05
-2.26378e-06
5.79182e-05
-4.50706e-06
8.66103e-05
-7.11561e-06
0.000108741
-9.84949e-06
0.000125047
-1.24931e-05
0.000136267
-1.4848e-05
0.000143101
-1.67262e-05
0.000146191
-1.79448e-05
0.000146111
-1.83206e-05
0.000143368
-1.7666e-05
0.000138403
-1.57853e-05
0.000131603
-1.24725e-05
0.000123311
-7.50989e-06
0.00011384
-6.69249e-07
0.000103492
8.28452e-06
9.25722e-05
1.95857e-05
8.14068e-05
3.34551e-05
7.0364e-05
5.00799e-05
5.98718e-05
6.95865e-05
5.04362e-05
9.20033e-05
4.26567e-05
0.000117215
3.72354e-05
0.000144907
3.49802e-05
0.000174503
3.68158e-05
4.37763e-05
0.000205102
-6.51648e-07
2.26402e-05
-2.1956e-06
5.94622e-05
-4.29491e-06
8.87096e-05
-6.66436e-06
0.000111111
-9.05883e-06
0.000127442
-1.12631e-05
0.000138471
-1.30826e-05
0.00014492
-1.43355e-05
0.000147444
-1.4846e-05
0.000146622
-1.44378e-05
0.00014296
-1.2929e-05
0.000136895
-1.01276e-05
0.000128802
-5.82723e-06
0.00011901
1.95591e-07
0.000107817
8.18261e-06
9.55053e-05
1.83926e-05
8.23622e-05
3.10961e-05
6.87033e-05
4.65646e-05
5.48956e-05
6.50509e-05
4.13855e-05
8.67593e-05
2.87279e-05
0.000111801
1.76151e-05
0.000140134
8.90253e-06
0.000171486
3.6286e-06
0.000205255
3.0464e-06
8.63216e-06
0.000240399
-6.42426e-07
2.32827e-05
-2.11045e-06
6.09302e-05
-4.03731e-06
9.06364e-05
-6.12053e-06
0.000113194
-8.10655e-06
0.000129428
-9.77798e-06
0.000140143
-1.09426e-05
0.000146085
-1.14242e-05
0.000147925
-1.10542e-05
0.000146252
-9.66523e-06
0.000141571
-7.08483e-06
0.000134314
-3.12981e-06
0.000124847
2.39881e-06
0.000113482
9.72043e-06
0.000100496
1.90784e-05
8.61473e-05
3.07419e-05
7.06987e-05
4.50044e-05
5.44409e-05
6.21762e-05
3.77237e-05
8.25693e-05
2.09924e-05
0.000106467
4.82999e-06
0.000134077
-9.99451e-06
0.000165455
-2.24759e-05
0.000200407
-3.13231e-05
0.00023834
-3.48871e-05
-3.11098e-05
0.000278082
-6.27784e-07
2.39105e-05
-1.99993e-06
6.23023e-05
-3.71514e-06
9.23516e-05
-5.44904e-06
0.000114928
-6.93533e-06
0.000130914
-7.95074e-06
0.000141158
-8.30224e-06
0.000146436
-7.81647e-06
0.000147439
-6.33107e-06
0.000144766
-3.6873e-06
0.000138927
2.76405e-07
0.00013035
5.73046e-06
0.000119393
1.28599e-05
0.000106352
2.18703e-05
9.14853e-05
3.2993e-05
7.50245e-05
4.64907e-05
5.7201e-05
6.26597e-05
3.82718e-05
8.1829e-05
1.85544e-05
0.000104351
-1.5294e-06
0.000130577
-2.1396e-05
0.000160811
-4.02291e-05
0.000195231
-5.68952e-05
0.000233756
-6.98479e-05
0.000275855
-7.69866e-05
-7.55137e-05
0.000320259
-6.06018e-07
2.45165e-05
-1.8569e-06
6.35532e-05
-3.31147e-06
9.38062e-05
-4.61795e-06
0.000116234
-5.49194e-06
0.000131788
-5.69908e-06
0.000141365
-5.04059e-06
0.000145778
-3.34165e-06
0.00014574
-4.42163e-07
0.000141867
3.81073e-06
0.000134674
9.56894e-06
0.000124592
1.69892e-05
0.000111972
2.62385e-05
9.71028e-05
3.75007e-05
8.02231e-05
5.09825e-05
6.15428e-05
6.69212e-05
4.12623e-05
8.55918e-05
1.96013e-05
0.000107312
-3.16605e-06
0.000132443
-2.66605e-05
0.000161376
-5.03289e-05
0.000194496
-7.33486e-05
0.000232102
-9.45016e-05
0.000274268
-0.000112014
0.000320589
-0.000123307
-0.000124688
0.000369763
-5.75941e-07
2.50924e-05
-1.67567e-06
6.46529e-05
-2.81203e-06
9.49426e-05
-3.59944e-06
0.000117022
-3.72896e-06
0.000131918
-2.94862e-06
0.000140585
-1.04732e-06
0.000143877
2.15778e-06
0.000142535
6.83081e-06
0.000137194
1.31245e-05
0.000128381
2.11857e-05
0.000116531
3.11602e-05
0.000101998
4.31973e-05
8.50657e-05
5.74549e-05
6.59656e-05
7.41054e-05
4.48922e-05
9.33442e-05
2.20235e-05
0.000115399
-2.4536e-06
0.000140542
-2.83086e-05
0.000169098
-5.52164e-05
0.000201449
-8.26807e-05
0.00023802
-0.000109919
0.00027921
-0.000135692
0.000325264
-0.000158068
0.000375974
-0.000174018
-0.000178829
0.000430115
-5.36815e-07
2.56292e-05
-1.45182e-06
6.55679e-05
-2.20489e-06
9.56956e-05
-2.36949e-06
0.000117186
-1.60481e-06
0.000131153
3.66391e-07
0.000138614
3.77556e-06
0.000140467
8.82189e-06
0.000137489
1.56821e-05
0.000130333
2.45173e-05
0.000119545
3.54773e-05
0.000105571
4.8704e-05
8.87712e-05
6.43337e-05
6.9436e-05
8.24999e-05
4.77994e-05
0.000103337
2.4055e-05
0.000126987
-1.6265e-06
0.000153609
-2.90754e-05
0.000183392
-5.80922e-05
0.000216578
-8.84015e-05
0.000253474
-0.000119577
0.000294469
-0.000150914
0.000340007
-0.00018123
0.000390479
-0.00020854
0.000445936
-0.000229475
-0.000238272
0.000505379
-4.8815e-07
2.61174e-05
-1.18158e-06
6.62614e-05
-1.47933e-06
9.59934e-05
-9.06261e-07
0.000116613
9.18325e-07
0.000129328
4.30536e-06
0.000135227
9.51566e-06
0.000135257
1.67745e-05
0.00013023
2.62813e-05
0.000120827
3.82161e-05
0.000107611
5.27425e-05
9.10446e-05
7.0009e-05
7.15047e-05
9.01483e-05
4.92967e-05
0.000113277
2.46708e-05
0.000139495
-2.16312e-06
0.000168888
-3.10199e-05
0.000201534
-6.17213e-05
0.000237514
-9.40717e-05
0.000276933
-0.000127821
0.000319956
-0.000162599
0.00036684
-0.000197799
0.000417965
-0.000232355
0.00047379
-0.000264365
0.000534637
-0.000290322
-0.000303545
0.00059991
-4.29374e-07
2.65468e-05
-8.60791e-07
6.66928e-05
-6.23993e-07
9.57566e-05
8.12847e-07
0.000115176
3.87854e-06
0.000126263
8.92654e-06
0.000130179
1.62565e-05
0.000127927
2.61299e-05
0.000120357
3.878e-05
0.000108177
5.44174e-05
9.19734e-05
7.32314e-05
7.22306e-05
9.53896e-05
4.93466e-05
0.000121034
2.36524e-05
0.000150276
-4.57146e-06
0.000183193
-3.50798e-05
0.000219821
-6.7648e-05
0.000260157
-0.000102057
0.000304162
-0.000138076
0.000351776
-0.000175435
0.000402953
-0.000213777
0.000457719
-0.000252564
0.00051624
-0.000290876
0.000578884
-0.000327009
0.000646159
-0.000357597
-0.000375393
0.000718006
-3.59419e-07
2.69062e-05
-4.83697e-07
6.68171e-05
3.75571e-07
9.48973e-05
2.81496e-06
0.000112737
7.31964e-06
0.000121758
1.42943e-05
0.000123204
2.40869e-05
0.000118135
3.7005e-05
0.000107439
5.33261e-05
9.18554e-05
7.33024e-05
7.19971e-05
9.7161e-05
4.8372e-05
0.000125101
2.1407e-05
0.000157286
-8.5326e-06
0.000193837
-4.11233e-05
0.000234824
-7.60668e-05
0.000280251
-0.000113075
0.000330048
-0.000151854
0.000384066
-0.000192094
0.000442077
-0.000233445
0.000503793
-0.000275494
0.000568924
-0.000317695
0.000637265
-0.000359217
0.000708849
-0.000398592
0.000784094
-0.000432842
-0.000454809
0.00086351
-2.76312e-07
2.71825e-05
-4.16685e-08
6.65824e-05
1.53926e-06
9.33164e-05
5.1356e-06
0.00010914
1.12968e-05
0.000115597
2.0487e-05
0.000114014
3.31109e-05
0.000105511
4.95312e-05
9.10183e-05
7.00784e-05
7.13081e-05
9.50552e-05
4.70203e-05
0.000124735
1.86923e-05
0.000159357
-1.32153e-05
0.000199119
-4.82943e-05
0.000244164
-8.61679e-05
0.000294567
-0.00012647
0.000350323
-0.00016883
0.000411322
-0.000212854
0.000477337
-0.000258109
0.000548003
-0.000304112
0.000622812
-0.000350303
0.000701129
-0.000396011
0.000782265
-0.000440354
0.000865647
-0.000481974
0.000951126
-0.00051832
-0.000543473
0.00103979
-1.76832e-07
2.73593e-05
4.77795e-07
6.59278e-05
2.89435e-06
9.08998e-05
7.82175e-06
0.000104213
1.58809e-05
0.000107538
2.76027e-05
0.000102292
4.34559e-05
8.96575e-05
6.38647e-05
7.06096e-05
8.92185e-05
4.59543e-05
0.000119875
1.63639e-05
0.000156157
-1.75899e-05
0.000198348
-5.54058e-05
0.000246679
-9.66257e-05
0.000301321
-0.00014081
0.000362369
-0.000187518
0.000429824
-0.000236285
0.000503575
-0.000286605
0.000583379
-0.000337912
0.000668821
-0.000389554
0.000759281
-0.000440763
0.000853881
-0.000490612
0.000951461
-0.000537934
0.00105061
-0.000581118
0.00114998
-0.000617699
-0.000644716
0.00125123
-5.6331e-08
2.74156e-05
1.09156e-06
6.47799e-05
4.47641e-06
8.7515e-05
1.09332e-05
9.77563e-05
2.11605e-05
9.73105e-05
3.57618e-05
8.76908e-05
5.52748e-05
7.01446e-05
8.01884e-05
4.5696e-05
0.000110952
1.51909e-05
0.000147975
-2.06596e-05
0.000191626
-6.1241e-05
0.000242222
-0.000106001
0.000300019
-0.000154422
0.000365203
-0.000205994
0.000437879
-0.000260195
0.000518066
-0.000316471
0.000605683
-0.000374223
0.000700552
-0.000432781
0.000802385
-0.000491386
0.000910766
-0.000549144
0.00102511
-0.000604952
0.00114452
-0.000657347
0.00126736
-0.000703964
0.00138971
-0.000740041
-0.000756701
0.00150169
9.07244e-08
2.73249e-05
1.81986e-06
6.30508e-05
6.32782e-06
8.3007e-05
1.45406e-05
8.95435e-05
2.7239e-05
8.46121e-05
4.5103e-05
6.98268e-05
6.87405e-05
4.65071e-05
9.8704e-05
1.57325e-05
0.000135496
-2.16014e-05
0.000179569
-6.47322e-05
0.000231315
-0.000112988
0.000291062
-0.000165748
0.000359057
-0.000222418
0.000435464
-0.000282401
0.000520356
-0.000345087
0.000613719
-0.000409835
0.000715469
-0.000475973
0.000825478
-0.00054279
0.000943635
-0.000609543
0.00106995
-0.000675457
0.00120474
-0.000739742
0.00134897
-0.000801574
0.00150502
-0.000860019
0.00167916
-0.000914181
-0.000963692
0.00188615
2.72272e-07
2.70526e-05
2.68835e-06
6.06347e-05
8.49934e-06
7.7196e-05
1.87254e-05
7.93174e-05
3.42324e-05
6.91051e-05
5.5777e-05
4.82822e-05
8.4035e-05
1.82491e-05
0.000119614
-1.98467e-05
0.000163057
-6.50437e-05
0.000214832
-0.000116508
0.000275327
-0.000173483
0.000344834
-0.000235255
0.000423538
-0.000301122
0.000511511
-0.000370373
0.000608708
-0.000442284
0.000714979
-0.000516106
0.000830089
-0.000591082
0.000953751
-0.000666452
0.00108569
-0.000741479
0.00122571
-0.000815483
0.00137386
-0.000887885
0.00153054
-0.000958254
0.00169685
-0.00102634
0.00187467
-0.001092
-0.00115206
0.00206303
4.95533e-07
2.65571e-05
3.72201e-06
5.74082e-05
1.10415e-05
6.98766e-05
2.3569e-05
6.679e-05
4.22547e-05
5.04194e-05
6.79289e-05
2.26079e-05
0.000101326
-1.51483e-05
0.000143094
-6.16147e-05
0.000193789
-0.000115738
0.000253862
-0.00017658
0.000323646
-0.000243268
0.000403341
-0.00031495
0.000492996
-0.000390776
0.000592505
-0.000469883
0.000701611
-0.00055139
0.000819915
-0.00063441
0.000946896
-0.000718063
0.00108195
-0.000801506
0.00122443
-0.000883959
0.00137369
-0.000964745
0.00152914
-0.00104333
0.00169027
-0.00111938
0.00185665
-0.00119272
0.0020277
-0.00126305
-0.00132605
0.00220169
7.68242e-07
2.57889e-05
4.94631e-06
5.32301e-05
1.4004e-05
6.08189e-05
2.91487e-05
5.16452e-05
5.14106e-05
2.81575e-05
8.16843e-05
-7.66575e-06
0.000120747
-5.42112e-05
0.00016926
-0.000110128
0.000227757
-0.000174234
0.000296622
-0.000245446
0.000376075
-0.000322721
0.000466148
-0.000405022
0.000566674
-0.000491302
0.000677285
-0.000580494
0.000797419
-0.000671524
0.000926338
-0.000763329
0.00106316
-0.000854882
0.00120688
-0.000945228
0.00135643
-0.00103351
0.00151071
-0.00111903
0.00166859
-0.00120121
0.00182893
-0.00127972
0.00199055
-0.00135433
0.00215216
-0.00142466
-0.00148653
0.00231264
1.09754e-06
2.46913e-05
6.38427e-06
4.79434e-05
1.74307e-05
4.97724e-05
3.553e-05
3.35459e-05
6.17826e-05
1.90491e-06
9.7131e-05
-4.30141e-05
0.00014237
-9.94501e-05
0.000198137
-0.000165895
0.000264893
-0.00024099
0.000342896
-0.000323449
0.000432177
-0.000412002
0.000532523
-0.000505368
0.00064347
-0.000602248
0.000764306
-0.000701331
0.000894099
-0.000801316
0.00103172
-0.000900948
0.00117589
-0.00099905
0.00132522
-0.00109456
0.00147827
-0.00118657
0.0016336
-0.00127435
0.00178973
-0.00135735
0.00194525
-0.00143524
0.00209874
-0.00150782
0.00224886
-0.00157478
-0.00163262
0.00239495
1.48945e-06
2.32019e-05
8.05473e-06
4.13781e-05
2.13556e-05
3.64715e-05
4.27595e-05
1.21421e-05
7.34204e-05
-2.8756e-05
0.000114304
-8.38979e-05
0.000166186
-0.000151332
0.000229632
-0.000229341
0.000304969
-0.000316327
0.000392252
-0.000410733
0.000491248
-0.000510997
0.000601416
-0.000615536
0.000721919
-0.000722752
0.000851648
-0.00083106
0.000989256
-0.000938925
0.00113322
-0.00104491
0.00128189
-0.00114772
0.00143357
-0.00124624
0.00158655
-0.00133956
0.00173921
-0.00142701
0.00188999
-0.00150813
0.00203745
-0.0015827
0.00218027
-0.00165065
0.00231736
-0.00171186
-0.00176375
0.00244849
1.94856e-06
2.12533e-05
9.97104e-06
3.33556e-05
2.58002e-05
2.06424e-05
5.08599e-05
-1.29176e-05
8.63335e-05
-6.42296e-05
0.000133175
-0.000130739
0.000192093
-0.00021025
0.00026352
-0.000300768
0.000347573
-0.00040038
0.00044403
-0.000507189
0.000552305
-0.000619273
0.000671463
-0.000734693
0.000800236
-0.000851526
0.000937084
-0.000967907
0.00108025
-0.00108209
0.00122786
-0.00119251
0.00137797
-0.00129783
0.00152868
-0.00139695
0.0016782
-0.00148908
0.00182488
-0.00157369
0.00196728
-0.00165053
0.00210416
-0.00171957
0.0022345
-0.00178099
0.00235757
-0.00183494
-0.00187972
0.00247355
2.47786e-06
1.87755e-05
1.21404e-05
2.36931e-05
3.07716e-05
2.0112e-06
5.9827e-05
-4.1973e-05
0.000100486
-0.000104889
0.000153645
-0.000183898
0.000219885
-0.000276491
0.000299432
-0.000380314
0.000392116
-0.000493064
0.000497348
-0.000612421
0.000614123
-0.000736048
0.000741048
-0.000861618
0.000876402
-0.00098688
0.00101822
-0.00110972
0.00116438
-0.00122826
0.00131274
-0.00134087
0.0014612
-0.00144628
0.0016078
-0.00154355
0.00175081
-0.00163209
0.00188876
-0.00171164
0.00202047
-0.00178224
0.00214504
-0.00184415
0.00226188
-0.00189782
0.00237068
-0.00194374
-0.00198098
0.00247193
3.07876e-06
1.56967e-05
1.45636e-05
1.22083e-05
3.62618e-05
-1.9687e-05
6.96281e-05
-7.53394e-05
0.000115794
-0.000151055
0.000175542
-0.000243646
0.000249253
-0.000350202
0.000336866
-0.000467927
0.000437837
-0.000594035
0.000551137
-0.000725721
0.000675279
-0.00086019
0.000808388
-0.000994727
0.000948294
-0.00112679
0.00109266
-0.00125409
0.0012391
-0.0013747
0.00138532
-0.00148709
0.0015292
-0.00159016
0.0016689
-0.00168325
0.00180291
-0.0017661
0.00193007
-0.00183881
0.00204958
-0.00190175
0.00216097
-0.00195553
0.00226406
-0.00200091
0.00235897
-0.00203865
-0.00206849
0.00244649
3.7512e-06
1.19455e-05
1.7235e-05
-1.27552e-06
4.22479e-05
-4.46999e-05
8.02021e-05
-0.000113294
0.000132128
-0.000202981
0.000198622
-0.00031014
0.00027979
-0.00043137
0.000375194
-0.000563331
0.000483836
-0.000702677
0.000604183
-0.000846068
0.000734235
-0.000990242
0.00087164
-0.00113213
0.00101383
-0.00126898
0.0011582
-0.00139845
0.00130221
-0.00151871
0.00144358
-0.00162846
0.00158034
-0.00172692
0.0017109
-0.00181381
0.0018341
-0.00188931
0.00194919
-0.0019539
0.00205579
-0.00200835
0.00215387
-0.00205361
0.00224366
-0.0020907
0.00232563
-0.00212062
-0.00214362
0.00240075
4.49373e-06
7.45178e-06
2.01434e-05
-1.69252e-05
4.86923e-05
-7.32488e-05
9.14598e-05
-0.000156061
0.00014931
-0.000260831
0.000222577
-0.000383408
0.000311001
-0.000519794
0.000413685
-0.000666015
0.000529107
-0.000818099
0.00065519
-0.000972151
0.000789422
-0.00112447
0.000929024
-0.00127173
0.00107113
-0.00141109
0.00121298
-0.0015403
0.00135206
-0.0016578
0.00148624
-0.00176264
0.00161384
-0.00185452
0.00173366
-0.00193363
0.00184496
-0.00200061
0.00194744
-0.00205638
0.00204116
-0.00210207
0.00212646
-0.00213891
0.0022039
-0.00216814
0.00227422
-0.00219093
-0.0022079
0.00233849
5.30365e-06
2.14813e-06
2.32711e-05
-3.48926e-05
5.55428e-05
-0.000105521
0.000103285
-0.000203803
0.00016712
-0.000324666
0.000247036
-0.000463324
0.000342317
-0.000615075
0.000451531
-0.000775228
0.000572584
-0.000939152
0.000702846
-0.00110241
0.000839338
-0.00126097
0.000978941
-0.00141134
0.00111862
-0.00155077
0.00125563
-0.00167731
0.00138761
-0.00178978
0.00151276
-0.00188778
0.00162978
-0.00197154
0.00173793
-0.00204178
0.00183694
-0.00209962
0.00192694
-0.00214637
0.00200835
-0.00218348
0.00208184
-0.0022124
0.0021482
-0.00223451
0.00220832
-0.00225106
-0.00226289
0.00226332
6.17692e-06
-4.02879e-06
2.65948e-05
-5.53104e-05
6.27331e-05
-0.000141659
0.000115535
-0.000256605
0.000185299
-0.00039443
0.000271576
-0.0005496
0.000373112
-0.000716611
0.00048788
-0.000889997
0.000613193
-0.00106447
0.000745901
-0.00123512
0.000882636
-0.0013977
0.00102007
-0.00154877
0.00115516
-0.00168586
0.00128531
-0.00180745
0.00140849
-0.00191297
0.00152331
-0.0020026
0.00162895
-0.00207718
0.00172515
-0.00213798
0.00181205
-0.00218653
0.00189018
-0.0022245
0.00196027
-0.00225357
0.00202318
-0.00227531
0.00207986
-0.00229119
0.00213125
-0.00230245
-0.00231005
0.00217842
7.10805e-06
-1.11368e-05
3.00851e-05
-7.82874e-05
7.01827e-05
-0.000181757
0.000128042
-0.000314464
0.000203551
-0.000469939
0.000295734
-0.000641783
0.000402728
-0.000823606
0.000521875
-0.00100914
0.00064991
-0.0011925
0.000783234
-0.00136844
0.00091821
-0.00153268
0.00105146
-0.00168202
0.00118007
-0.00181447
0.00130177
-0.00192915
0.00141496
-0.00202616
0.00151872
-0.00210637
0.00161275
-0.0021712
0.0016972
-0.00222243
0.00177264
-0.00226197
0.00183986
-0.00229172
0.00189981
-0.00231351
0.00195348
-0.00232898
0.00200185
-0.00233955
0.00204586
-0.00234646
-0.00235067
0.00208647
8.08998e-06
-1.92268e-05
3.37061e-05
-0.000103904
7.77973e-05
-0.000225848
0.000140619
-0.000377286
0.000221555
-0.000550875
0.000319023
-0.000739251
0.0004305
-0.000935083
0.000552693
-0.00113134
0.000681812
-0.00132162
0.000813915
-0.00150055
0.000945248
-0.00166401
0.00107253
-0.00180931
0.00119316
-0.0019351
0.00130527
-0.00204126
0.00140778
-0.00212867
0.00150027
-0.00219886
0.0015829
-0.00225383
0.00165624
-0.00229577
0.00172113
-0.00232686
0.00177857
-0.00234917
0.00182964
-0.00236457
0.00187534
-0.00237469
0.00191666
-0.00238087
0.00195447
-0.00238426
-0.00238579
0.00198959
9.11387e-06
-2.83407e-05
3.74156e-05
-0.000132205
8.54699e-05
-0.000273902
0.000153056
-0.000444872
0.000238967
-0.000636787
0.000340946
-0.00084123
0.000455785
-0.00104992
0.000579584
-0.00125514
0.000708123
-0.00145016
0.000837254
-0.00162968
0.000963264
-0.00179002
0.00108313
-0.00192917
0.00119466
-0.00204663
0.00129651
-0.00214311
0.00138811
-0.00222027
0.00146954
-0.00228029
0.00154135
-0.00232565
0.00160443
-0.00235885
0.00165984
-0.00238226
0.00170868
-0.00239802
0.00175206
-0.00240795
0.00179098
-0.00241361
0.00182634
-0.00241623
0.00185891
-0.00241683
-0.00241627
0.00188939
1.0169e-05
-3.85097e-05
4.11653e-05
-0.000163201
9.30822e-05
-0.000325819
0.000165132
-0.000516922
0.000255439
-0.000727093
0.000361021
-0.000946812
0.00047799
-0.00116689
0.000601912
-0.00137906
0.000728255
-0.0015765
0.000852823
-0.00175425
0.0009721
-0.0019093
0.00108345
-0.00204052
0.00118519
-0.00214836
0.00127651
-0.00223443
0.00135736
-0.00230111
0.00142824
-0.00235117
0.00149004
-0.00238745
0.00154386
-0.00241267
0.00159087
-0.00242928
0.00163224
-0.00243939
0.00166903
-0.00244474
0.00170217
-0.00244675
0.00173246
-0.00244652
0.00176057
-0.00244494
-0.00244276
0.00178706
1.1243e-05
-4.97527e-05
4.49013e-05
-0.00019686
0.000100507
-0.000381425
0.000176619
-0.000593033
0.000270623
-0.000821097
0.000378794
-0.00105498
0.000496602
-0.0012847
0.000619179
-0.00150163
0.000741827
-0.00169915
0.00086046
-0.00187288
0.000971901
-0.00202074
0.001074
-0.00214263
0.00116563
-0.00223999
0.00124651
-0.00231531
0.00131704
-0.00237165
0.0013781
-0.00241222
0.0014308
-0.00244014
0.00147637
-0.00245825
0.00151605
-0.00246896
0.00155096
-0.00247429
0.00158208
-0.00247586
0.00161027
-0.00247493
0.00163621
-0.00247246
0.00166045
-0.00246919
-0.00246576
0.00168345
1.23215e-05
-6.20742e-05
4.85653e-05
-0.000233104
0.000107613
-0.000440472
0.000187288
-0.000672709
0.000284193
-0.000918002
0.000393865
-0.00116466
0.000511208
-0.00140204
0.000631044
-0.00162147
0.000748668
-0.00181677
0.000860253
-0.00198446
0.000963072
-0.00212356
0.00105553
-0.00223509
0.00113704
-0.0023215
0.00120783
-0.0023861
0.00126869
-0.00243251
0.00132075
-0.00246428
0.00136529
-0.00248469
0.00140361
-0.00249656
0.00143689
-0.00250224
0.0014662
-0.00250361
0.00149244
-0.0025021
0.00151634
-0.00249883
0.00153847
-0.00249459
0.0015593
-0.00249002
-0.00248562
0.00157916
1.3389e-05
-7.54633e-05
5.20959e-05
-0.00027181
0.000114265
-0.000502641
0.00019692
-0.000755364
0.000295852
-0.00101693
0.000405902
-0.00127471
0.000521507
-0.00151765
0.00063733
-0.00173729
0.000748808
-0.00192825
0.000852502
-0.00208816
0.000946216
-0.00221727
0.00102893
-0.0023178
0.00110058
-0.00239315
0.00116182
-0.00244735
0.00121375
-0.00248444
0.00125768
-0.00250821
0.00129498
-0.00252198
0.00132691
-0.00252849
0.00135462
-0.00252995
0.00137906
-0.00252805
0.00140103
-0.00252407
0.00142114
-0.00251894
0.00143989
-0.00251333
0.00145762
-0.00250775
-0.0025026
0.00147459
1.44288e-05
-8.98921e-05
5.54307e-05
-0.000312812
0.000120335
-0.000567545
0.000205312
-0.000840341
0.000305347
-0.00111697
0.000414652
-0.00138401
0.000527324
-0.00163032
0.000638018
-0.00184799
0.000742456
-0.00203269
0.000837683
-0.00218339
0.000922079
-0.00230167
0.000995178
-0.0023909
0.0010574
-0.00245538
0.00110975
-0.00249969
0.00115354
-0.00252823
0.00119019
-0.00254486
0.00122106
-0.00255285
0.00124739
-0.00255482
0.0012702
-0.00255277
0.00129036
-0.00254821
0.00130854
-0.00254225
0.00132526
-0.00253566
0.00134091
-0.00252898
0.00135577
-0.00252261
-0.00251687
0.00137003
1.54237e-05
-0.000105316
5.85076e-05
-0.000355896
0.000125698
-0.000634736
0.000212285
-0.000926927
0.000312475
-0.00121716
0.000419949
-0.00149149
0.000528604
-0.00173897
0.000633234
-0.00195262
0.000729965
-0.00212942
0.000816394
-0.00226982
0.000891484
-0.00237676
0.000955291
-0.0024547
0.00100864
-0.00250872
0.0010528
-0.00254385
0.00108922
-0.00256465
0.00111937
-0.00257501
0.00114456
-0.00257804
0.00116592
-0.00257618
0.0011844
-0.00257125
0.00120074
-0.00256454
0.00121549
-0.002557
0.00122909
-0.00254926
0.00124185
-0.00254174
0.001254
-0.00253476
-0.00252853
0.00126567
1.63561e-05
-0.000121672
6.12674e-05
-0.000400808
0.000130246
-0.000703714
0.000217691
-0.00101437
0.000317092
-0.00131656
0.000421715
-0.00159611
0.000525403
-0.00184266
0.000623224
-0.00205044
0.0007118
-0.00221799
0.000789314
-0.00234733
0.00085529
-0.00244273
0.000910247
-0.00250966
0.000955335
-0.00255381
0.000992012
-0.00258053
0.0010218
-0.00259445
0.00104614
-0.00259934
0.00106626
-0.00259817
0.00108321
-0.00259313
0.00109779
-0.00258583
0.00111065
-0.0025774
0.00112224
-0.00256859
0.00113292
-0.00255994
0.00114295
-0.00255177
0.00115248
-0.00254429
-0.00253768
0.00116163
1.72091e-05
-0.000138881
6.36554e-05
-0.000447254
0.000133882