/*--------------------------------*- C++ -*----------------------------------*\
  =========                 |
  \\      /  F ield         | OpenFOAM: The Open Source CFD Toolbox
   \\    /   O peration     | Website:  https://openfoam.org
    \\  /    A nd           | Version:  6.0
     \\/     M anipulation  |
\*---------------------------------------------------------------------------*/
FoamFile
{
    version     2.0;
    format      ascii;
    class       volScalarField;
    location    "39";
    object      p;
}
// * * * * * * * * * * * * * * * * * * * * * * * * * * * * * * * * * * * * * //

dimensions      [0 2 -2 0 0 0 0];

internalField   nonuniform List<scalar> 
4000
(
-0.440452
-0.426744
-0.414697
-0.401562
-0.386155
-0.368912
-0.350577
-0.331917
-0.3136
-0.2961
-0.279698
-0.264513
-0.250555
-0.23777
-0.226069
-0.21535
-0.205519
-0.196453
-0.187959
-0.180334
-0.448452
-0.434298
-0.421456
-0.406925
-0.389632
-0.370294
-0.349915
-0.329432
-0.309579
-0.290832
-0.273433
-0.257455
-0.242864
-0.229566
-0.217446
-0.206382
-0.196263
-0.186948
-0.17823
-0.170476
-0.454674
-0.440173
-0.426487
-0.41043
-0.39114
-0.369668
-0.34729
-0.325086
-0.303833
-0.283983
-0.265728
-0.249087
-0.233978
-0.220273
-0.207829
-0.196507
-0.186182
-0.176692
-0.16782
-0.160013
-0.458749
-0.444001
-0.429423
-0.411737
-0.390389
-0.366806
-0.342526
-0.31875
-0.296264
-0.275477
-0.256518
-0.23935
-0.223846
-0.209844
-0.197176
-0.185687
-0.17524
-0.165654
-0.156703
-0.148918
-0.460322
-0.445425
-0.429917
-0.410531
-0.387119
-0.361509
-0.33548
-0.310317
-0.28679
-0.265246
-0.245747
-0.228196
-0.212425
-0.198239
-0.185451
-0.173891
-0.16341
-0.153809
-0.144857
-0.13717
-0.459059
-0.444109
-0.427647
-0.406533
-0.381113
-0.353617
-0.326037
-0.299705
-0.275347
-0.253237
-0.233367
-0.215583
-0.199676
-0.185426
-0.172626
-0.161094
-0.150671
-0.141138
-0.132266
-0.124756
-0.454656
-0.439748
-0.422329
-0.399509
-0.372194
-0.343008
-0.314113
-0.286852
-0.261888
-0.239411
-0.219343
-0.201479
-0.185573
-0.17138
-0.158679
-0.147278
-0.137007
-0.12763
-0.118924
-0.111668
-0.446854
-0.432081
-0.413726
-0.389273
-0.360232
-0.329597
-0.299652
-0.271721
-0.246382
-0.223742
-0.203653
-0.185864
-0.170096
-0.156087
-0.143599
-0.132435
-0.122413
-0.113283
-0.104829
-0.0979074
-0.435442
-0.420896
-0.401657
-0.375692
-0.345148
-0.31334
-0.282632
-0.254296
-0.228819
-0.206219
-0.186287
-0.168729
-0.15324
-0.13954
-0.127383
-0.116564
-0.106893
-0.0981043
-0.089993
-0.0834829
-0.420266
-0.406037
-0.385998
-0.358691
-0.326905
-0.294229
-0.263059
-0.234589
-0.209207
-0.18685
-0.16725
-0.150077
-0.135007
-0.121745
-0.110037
-0.0996737
-0.0904575
-0.0821093
-0.0744363
-0.0684182
-0.401231
-0.387412
-0.366685
-0.33825
-0.305518
-0.272296
-0.240967
-0.212631
-0.187575
-0.165657
-0.14656
-0.129926
-0.115411
-0.102714
-0.0915751
-0.08178
-0.0731258
-0.0653223
-0.0581899
-0.0527512
-0.378309
-0.364992
-0.343718
-0.314404
-0.281046
-0.247607
-0.216422
-0.188482
-0.163972
-0.142681
-0.124252
-0.108301
-0.0944761
-0.0824683
-0.0720152
-0.0629015
-0.0549183
-0.0477689
-0.0412887
-0.0365243
-0.351534
-0.338812
-0.31716
-0.287242
-0.253592
-0.220267
-0.189519
-0.162222
-0.138467
-0.117981
-0.100371
-0.0852421
-0.072233
-0.061033
-0.0513799
-0.0430579
-0.0358549
-0.0294739
-0.0237642
-0.0197612
-0.321005
-0.308973
-0.287132
-0.256905
-0.223301
-0.190412
-0.16038
-0.13396
-0.111152
-0.0916315
-0.0749829
-0.0607994
-0.0487206
-0.0384376
-0.0296912
-0.0222673
-0.0159544
-0.0104613
-0.00564016
-0.00245475
-0.286885
-0.275637
-0.25381
-0.22358
-0.190357
-0.158213
-0.12916
-0.103829
-0.0821414
-0.0637311
-0.048165
-0.0350345
-0.0239839
-0.0147114
-0.0069658
-0.000538861
0.00477456
0.00925589
0.013074
0.0153955
-0.249393
-0.239022
-0.217424
-0.187501
-0.154984
-0.123875
-0.0960388
-0.0719892
-0.0515754
-0.0343985
-0.0200167
-0.00802545
0.00192106
0.0101111
0.0167817
0.022129
0.0263461
0.0296979
0.0323754
0.0336686
-0.208804
-0.1994
-0.178251
-0.148938
-0.117435
-0.0876301
-0.0612275
-0.038628
-0.0196188
-0.00377677
0.00934193
0.020132
0.0289232
0.0359826
0.0415251
0.0457309
0.048777
0.0508744
0.0521518
0.0519827
-0.165441
-0.157089
-0.136608
-0.108199
-0.0779998
-0.0497415
-0.0249643
-0.00396074
0.0135359
0.0279664
0.0397716
0.0493318
0.0569537
0.0628729
0.0672706
0.0703059
0.072116
0.0727415
0.0720871
0.0698953
-0.119667
-0.112448
-0.0928484
-0.0656215
-0.0369903
-0.0104983
0.0124845
0.0317669
0.0476632
0.0606288
0.0711012
0.0794485
0.0859553
0.0908237
0.0941982
0.0962064
0.0968741
0.0958544
0.0927
0.0884133
-0.07188
-0.0658683
-0.0473524
-0.0215657
0.00525723
0.0297883
0.0508275
0.0682782
0.0824971
0.0939528
0.103085
0.11026
0.11576
0.119786
0.122495
0.124032
0.124302
0.122472
0.117856
0.113191
-0.0225072
-0.0177661
-0.000522183
0.0235902
0.0483921
0.0707915
0.0897559
0.105275
0.11774
0.12763
0.135387
0.141381
0.145909
0.14921
0.151522
0.153119
0.153975
0.153131
0.150325
0.153693
0.0280143
0.0314283
0.0472286
0.0694585
0.0920554
0.112178
0.128955
0.142454
0.153092
0.161352
0.16767
0.17241
0.17587
0.178298
0.179953
0.181091
0.181704
0.18133
0.180843
0.186339
0.0792278
0.0812696
0.0954765
0.115646
0.135886
0.153613
0.168113
0.179518
0.188266
0.194837
0.199658
0.203084
0.205407
0.206875
0.207734
0.208201
0.208262
0.207629
0.207191
0.211601
0.130673
0.13131
0.143798
0.161763
0.179525
0.194769
0.206924
0.216181
0.222988
0.227817
0.23108
0.233118
0.234209
0.23459
0.234487
0.234094
0.233408
0.232211
0.231237
0.234179
0.18189
0.181102
0.191772
0.207423
0.222625
0.235328
0.245097
0.252172
0.257007
0.26006
0.261725
0.262325
0.262119
0.261324
0.260143
0.25874
0.257102
0.255035
0.253213
0.254785
0.232425
0.230206
0.238989
0.252251
0.264844
0.274981
0.282352
0.287238
0.290091
0.291355
0.291403
0.290536
0.288993
0.286974
0.284657
0.282182
0.279519
0.276495
0.273752
0.27401
0.281836
0.278195
0.285047
0.295884
0.305858
0.313436
0.318425
0.321139
0.322026
0.321511
0.319945
0.317607
0.314719
0.311457
0.307981
0.304406
0.300692
0.296693
0.293025
0.292041
0.329694
0.324652
0.329564
0.337976
0.345354
0.350413
0.353065
0.353649
0.352609
0.350348
0.347195
0.34341
0.339191
0.3347
0.330075
0.325412
0.320666
0.315718
0.311148
0.308981
0.375587
0.369183
0.372172
0.378195
0.383037
0.385646
0.386033
0.384557
0.381651
0.377699
0.373008
0.367817
0.362307
0.356621
0.350881
0.345165
0.339428
0.333574
0.328139
0.324851
0.419126
0.411412
0.412525
0.416229
0.418626
0.418886
0.417105
0.41366
0.408971
0.403404
0.397243
0.390708
0.383963
0.377135
0.370331
0.363614
0.356941
0.350236
0.343983
0.339636
0.459945
0.450987
0.450298
0.451786
0.451861
0.449899
0.446072
0.44077
0.434401
0.427311
0.419765
0.411964
0.404056
0.396154
0.38835
0.380696
0.373151
0.365657
0.358636
0.353296
0.497701
0.48758
0.48519
0.484595
0.482498
0.478466
0.472736
0.465709
0.457781
0.449277
0.440445
0.43147
0.422484
0.413587
0.404858
0.396339
0.387995
0.379778
0.372046
0.365784
0.532081
0.520891
0.516925
0.514407
0.510316
0.504386
0.496917
0.488314
0.478962
0.469168
0.459163
0.449116
0.439147
0.429344
0.419773
0.41047
0.401402
0.392533
0.384152
0.377046
0.562803
0.550648
0.545254
0.540998
0.535111
0.527479
0.518451
0.508437
0.497809
0.48686
0.475805
0.4648
0.453953
0.44334
0.433019
0.423016
0.413306
0.403857
0.394895
0.387031
0.589614
0.576611
0.569954
0.564168
0.556705
0.547582
0.537189
0.525941
0.514199
0.502241
0.49027
0.478428
0.466814
0.455496
0.44452
0.433909
0.423641
0.413689
0.404217
0.395688
0.612295
0.59857
0.590834
0.583743
0.574941
0.564553
0.553005
0.540711
0.528025
0.515214
0.502467
0.489917
0.477655
0.465739
0.45421
0.443086
0.432349
0.421973
0.412068
0.402972
0.630661
0.616348
0.607732
0.599579
0.589687
0.578272
0.565787
0.552647
0.539196
0.525693
0.512317
0.499195
0.486407
0.474009
0.462033
0.450493
0.439377
0.428659
0.418402
0.408846
0.644562
0.629803
0.620516
0.611555
0.600837
0.588644
0.575449
0.561667
0.547638
0.53361
0.519759
0.506203
0.493018
0.480254
0.46794
0.456086
0.444684
0.433708
0.423183
0.413276
0.653887
0.638827
0.629089
0.619584
0.608311
0.595595
0.581923
0.56771
0.553292
0.538914
0.524743
0.510896
0.497445
0.484436
0.471894
0.459831
0.448237
0.437087
0.426383
0.41624
0.658558
0.643347
0.633383
0.623605
0.612053
0.599075
0.585164
0.570735
0.556123
0.541568
0.527237
0.513244
0.49966
0.486528
0.473872
0.461703
0.450014
0.438777
0.427982
0.417721
0.65854
0.643329
0.633365
0.623588
0.612037
0.59906
0.585149
0.570722
0.556109
0.541555
0.527225
0.513232
0.499648
0.486516
0.473861
0.461692
0.450003
0.438767
0.427972
0.417711
0.653831
0.638771
0.629036
0.619534
0.608263
0.59555
0.581879
0.567669
0.553253
0.538875
0.524706
0.51086
0.49741
0.484402
0.471861
0.459798
0.448205
0.437056
0.426352
0.41621
0.644469
0.629711
0.620428
0.611471
0.600758
0.588569
0.575377
0.561598
0.547571
0.533546
0.519697
0.506142
0.49296
0.480197
0.467884
0.456032
0.444631
0.433656
0.423132
0.413226
0.63053
0.616219
0.607608
0.599461
0.589576
0.578167
0.565686
0.55255
0.539103
0.525603
0.512231
0.499111
0.486326
0.473929
0.461955
0.450417
0.439303
0.428586
0.418331
0.408776
0.612127
0.598405
0.590676
0.583593
0.574798
0.564416
0.552875
0.540587
0.527906
0.515098
0.502355
0.489809
0.47755
0.465637
0.45411
0.442988
0.432253
0.421879
0.411976
0.402883
0.589409
0.576409
0.56976
0.563984
0.55653
0.547415
0.537031
0.525789
0.514053
0.5021
0.490134
0.478296
0.466686
0.455371
0.444398
0.433789
0.423525
0.413575
0.404105
0.395579
0.562561
0.55041
0.545025
0.54078
0.534904
0.527283
0.518264
0.508257
0.497636
0.486693
0.475644
0.464644
0.453801
0.443193
0.432875
0.422875
0.413168
0.403722
0.394762
0.386902
0.531802
0.520616
0.516661
0.514156
0.510077
0.50416
0.496701
0.488107
0.478763
0.468976
0.458977
0.448936
0.438972
0.429174
0.419607
0.410308
0.401244
0.392377
0.383999
0.376898
0.497385
0.487269
0.484891
0.484311
0.482229
0.478209
0.472492
0.465475
0.457555
0.449059
0.440235
0.431266
0.422286
0.413394
0.40467
0.396155
0.387815
0.379601
0.371873
0.365616
0.459592
0.45064
0.449964
0.451469
0.45156
0.449612
0.445799
0.440508
0.434149
0.427068
0.41953
0.411736
0.403835
0.395939
0.38814
0.380491
0.372951
0.36546
0.358443
0.353108
0.418737
0.411029
0.412156
0.415879
0.418293
0.41857
0.416803
0.413371
0.408693
0.403135
0.396984
0.390457
0.383719
0.376897
0.370099
0.363388
0.356719
0.350019
0.343769
0.339428
0.375162
0.368765
0.371769
0.377812
0.382673
0.3853
0.385702
0.38424
0.381347
0.377405
0.372724
0.367542
0.362039
0.35636
0.350627
0.344917
0.339185
0.333336
0.327905
0.324624
0.329232
0.324198
0.329126
0.33756
0.344959
0.350037
0.352706
0.353306
0.352279
0.350029
0.346887
0.343111
0.338901
0.334417
0.3298
0.325143
0.320403
0.315459
0.310894
0.308734
0.281339
0.277705
0.284576
0.295436
0.305432
0.313031
0.318038
0.320768
0.32167
0.321167
0.319612
0.317285
0.314405
0.311152
0.307683
0.304115
0.300408
0.296414
0.292751
0.291774
0.231893
0.229682
0.238483
0.25177
0.264387
0.274546
0.281937
0.28684
0.289709
0.290986
0.291046
0.29019
0.288657
0.286646
0.284338
0.28187
0.279213
0.276195
0.273458
0.273724
0.181323
0.180543
0.191234
0.20691
0.222137
0.234864
0.244654
0.251748
0.256599
0.259666
0.261344
0.261955
0.261759
0.260974
0.259801
0.258407
0.256775
0.254714
0.252899
0.254479
0.130072
0.130718
0.143226
0.161218
0.179008
0.194277
0.206454
0.21573
0.222554
0.227398
0.230674
0.232725
0.233827
0.234217
0.234123
0.233738
0.23306
0.23187
0.230901
0.233853
0.0785932
0.0806445
0.094873
0.115071
0.135339
0.153092
0.167615
0.179041
0.187807
0.194394
0.199228
0.202667
0.205001
0.20648
0.207347
0.207823
0.207892
0.207266
0.206834
0.211254
0.0273471
0.0307709
0.0465935
0.0688525
0.091479
0.111629
0.128431
0.141951
0.152608
0.160884
0.167216
0.17197
0.175441
0.17788
0.179544
0.180691
0.181312
0.180944
0.180463
0.18597
-0.023206
-0.0184548
-0.00118803
0.0229544
0.0477872
0.0702152
0.089205
0.104746
0.117231
0.127138
0.13491
0.140917
0.145457
0.148768
0.15109
0.152695
0.153559
0.152722
0.14992
0.153298
-0.0726092
-0.0665873
-0.0480481
-0.0222304
0.00462441
0.0291851
0.0502506
0.0677244
0.0819635
0.0934368
0.102584
0.109773
0.115285
0.119322
0.12204
0.123586
0.123862
0.122038
0.117425
0.112761
-0.120425
-0.113196
-0.0935728
-0.0663143
-0.0376503
-0.0111276
0.0118825
0.0311887
0.0471059
0.0600895
0.0705779
0.0789391
0.0854581
0.0903371
0.0937208
0.0957369
0.0964112
0.0953965
0.092245
0.0879588
-0.166227
-0.157865
-0.13736
-0.108919
-0.0786858
-0.050396
-0.0255907
-0.0045626
0.0129555
0.0274047
0.0392262
0.0488006
0.0564349
0.062365
0.0667721
0.0698154
0.0716323
0.0722636
0.0716134
0.0694231
-0.209617
-0.200202
-0.179029
-0.149683
-0.118147
-0.0883089
-0.0618774
-0.0392527
-0.0202215
-0.00436025
0.0087752
0.01958
0.0283839
0.0354545
0.0410067
0.045221
0.0482744
0.0503783
0.051661
0.051495
-0.25023
-0.239848
-0.218226
-0.188271
-0.155719
-0.124577
-0.0967113
-0.0726357
-0.0521993
-0.0350028
-0.0206038
-0.00859751
0.00136219
0.00956377
0.0162445
0.0216007
0.0258255
0.0291843
0.031868
0.0331654
-0.287744
-0.276486
-0.254635
-0.224373
-0.191115
-0.158937
-0.129854
-0.104496
-0.0827856
-0.0643552
-0.0487715
-0.0356257
-0.0245614
-0.0152771
-0.00752096
-0.00108477
0.00423685
0.00872561
0.0125504
0.0148766
-0.321885
-0.309843
-0.287978
-0.257719
-0.224079
-0.191156
-0.161094
-0.134647
-0.111815
-0.0922745
-0.0756079
-0.0614086
-0.0493159
-0.0390207
-0.0302635
-0.02283
-0.0165085
-0.0110077
-0.00617952
-0.00298895
-0.352432
-0.3397
-0.318026
-0.288076
-0.25439
-0.221031
-0.190252
-0.162928
-0.139148
-0.118641
-0.101014
-0.0858685
-0.0728452
-0.0616327
-0.0519686
-0.0436367
-0.0364249
-0.0300358
-0.0243188
-0.0203102
-0.379223
-0.365896
-0.344601
-0.315255
-0.281862
-0.248389
-0.217173
-0.189204
-0.16467
-0.143359
-0.12491
-0.108943
-0.0951044
-0.0830838
-0.0726195
-0.0634957
-0.0555034
-0.0483458
-0.0418581
-0.0370878
-0.402158
-0.38833
-0.367581
-0.339116
-0.30635
-0.273094
-0.241733
-0.21337
-0.188289
-0.16635
-0.147235
-0.130583
-0.116055
-0.103345
-0.0921942
-0.0823889
-0.0737255
-0.0659136
-0.0587736
-0.0533289
-0.421203
-0.406966
-0.386906
-0.359571
-0.327751
-0.295041
-0.26384
-0.235342
-0.209936
-0.187557
-0.167939
-0.15075
-0.135665
-0.12239
-0.110671
-0.100297
-0.0910713
-0.0827147
-0.075034
-0.0690096
-0.436387
-0.421832
-0.402575
-0.376582
-0.346005
-0.314165
-0.283427
-0.255063
-0.229561
-0.20694
-0.186989
-0.169414
-0.153911
-0.140198
-0.12803
-0.1172
-0.10752
-0.0987232
-0.0906043
-0.0840878
-0.447805
-0.433023
-0.414651
-0.390171
-0.3611
-0.330433
-0.300458
-0.272499
-0.247136
-0.224474
-0.204367
-0.186561
-0.17078
-0.156757
-0.144258
-0.133084
-0.123053
-0.113915
-0.105454
-0.0985255
-0.455609
-0.440693
-0.423257
-0.400414
-0.373069
-0.343853
-0.314928
-0.28764
-0.262652
-0.240155
-0.220068
-0.202188
-0.186267
-0.172063
-0.15935
-0.147939
-0.137659
-0.128275
-0.119561
-0.112299
-0.460011
-0.445053
-0.428576
-0.407441
-0.381993
-0.354469
-0.32686
-0.300502
-0.276121
-0.25399
-0.234102
-0.216302
-0.200381
-0.186119
-0.173308
-0.161767
-0.151335
-0.141794
-0.132916
-0.125399
-0.461272
-0.446366
-0.430845
-0.411439
-0.388003
-0.362365
-0.336309
-0.311121
-0.287571
-0.266007
-0.24649
-0.228924
-0.213139
-0.198942
-0.186144
-0.174575
-0.164085
-0.154477
-0.145518
-0.137826
-0.459693
-0.444936
-0.430347
-0.412643
-0.391272
-0.367664
-0.343359
-0.319559
-0.297051
-0.276244
-0.257269
-0.240086
-0.224569
-0.210556
-0.197878
-0.186381
-0.175925
-0.166333
-0.157376
-0.149585
-0.455609
-0.4411
-0.427403
-0.411331
-0.392022
-0.370527
-0.348125
-0.325898
-0.304625
-0.284756
-0.266486
-0.24983
-0.234708
-0.220993
-0.20854
-0.197209
-0.186877
-0.177381
-0.168503
-0.160691
-0.449377
-0.435215
-0.422364
-0.407819
-0.390509
-0.37115
-0.35075
-0.330246
-0.310374
-0.291609
-0.274195
-0.258204
-0.243601
-0.230293
-0.218164
-0.207093
-0.196967
-0.187646
-0.178923
-0.171165
-0.441365
-0.427648
-0.415593
-0.402447
-0.387025
-0.369764
-0.35141
-0.332732
-0.314396
-0.29688
-0.280464
-0.265266
-0.251298
-0.238503
-0.226794
-0.216068
-0.206231
-0.19716
-0.188662
-0.181033
0.0943871
0.0668752
0.0465538
0.0367651
0.0279796
0.0161877
0.00299142
-0.00975322
-0.0217645
-0.0334458
-0.0450297
-0.0564878
-0.06773
-0.0787178
-0.0894607
-0.099984
-0.110314
-0.120481
-0.13052
-0.140479
0.0370844
0.0231472
0.0108461
0.00347044
-0.00197083
-0.00832451
-0.0157504
-0.0232147
-0.0301288
-0.0365519
-0.0427096
-0.0486959
-0.0544836
-0.0600248
-0.065299
-0.0703066
-0.0750515
-0.0795321
-0.0837418
-0.0876712
0.0218825
0.0156685
0.00994482
0.00525925
0.00114019
-0.00308524
-0.00762401
-0.0122809
-0.0168416
-0.0212608
-0.0256
-0.0299161
-0.0342231
-0.0385121
-0.0427761
-0.0470175
-0.0512438
-0.0554633
-0.0596831
-0.0639103
0.0124472
0.00854035
0.00457037
0.00079999
-0.00278841
-0.00633113
-0.00990511
-0.0134924
-0.017042
-0.0205265
-0.0239489
-0.0273218
-0.0306514
-0.0339365
-0.0371739
-0.0403619
-0.0435009
-0.0465921
-0.0496365
-0.0526351
0.00486421
0.0016926
-0.00134939
-0.00408103
-0.00667769
-0.00927557
-0.0118919
-0.0144966
-0.0170688
-0.0196057
-0.0221129
-0.0245966
-0.0270604
-0.0295065
-0.0319362
-0.0343514
-0.0367545
-0.0391479
-0.0415341
-0.0439154
-0.00108848
-0.00365077
-0.0059595
-0.00795118
-0.00985437
-0.0118011
-0.0137889
-0.0157775
-0.017747
-0.0196989
-0.0216403
-0.0235749
-0.0255034
-0.0274254
-0.0293406
-0.0312496
-0.0331526
-0.0350503
-0.036943
-0.0388311
-0.00512367
-0.00712991
-0.00888484
-0.010393
-0.0118505
-0.0133571
-0.0149046
-0.0164579
-0.0180004
-0.0195334
-0.0210627
-0.0225911
-0.0241187
-0.0256445
-0.0271684
-0.0286903
-0.0302106
-0.0317296
-0.0332477
-0.034765
-0.00782198
-0.00938118
-0.0107641
-0.0119747
-0.0131504
-0.0143631
-0.0156086
-0.016862
-0.0181103
-0.0193537
-0.0205962
-0.0218396
-0.023084
-0.0243285
-0.0255726
-0.0268163
-0.0280596
-0.0293025
-0.0305451
-0.0317873
-0.00970482
-0.0109004
-0.0120183
-0.0130317
-0.0140143
-0.0150152
-0.0160379
-0.0170684
-0.0180976
-0.0191243
-0.0201505
-0.0211775
-0.0222053
-0.0232335
-0.0242616
-0.0252896
-0.0263174
-0.027345
-0.0283724
-0.0293996
-0.0111515
-0.0120489
-0.0129597
-0.0138271
-0.0146677
-0.015509
-0.0163607
-0.0172189
-0.0180782
-0.0189365
-0.0197943
-0.0206522
-0.0215105
-0.022369
-0.0232275
-0.0240857
-0.0249438
-0.0258016
-0.0266591
-0.0275165
-0.0123626
-0.0130243
-0.0137624
-0.0145046
-0.0152263
-0.015937
-0.0166487
-0.0173647
-0.0180831
-0.0188015
-0.0195195
-0.0202372
-0.0209548
-0.0216725
-0.0223902
-0.0231079
-0.0238254
-0.0245428
-0.0252602
-0.0259775
-0.0134212
-0.0139052
-0.0144964
-0.0151215
-0.0157337
-0.0163297
-0.0169211
-0.0175148
-0.0181112
-0.0187087
-0.0193061
-0.0199033
-0.0205005
-0.0210981
-0.021696
-0.0222943
-0.022893
-0.0234921
-0.0240917
-0.0246918
-0.0143206
-0.0146637
-0.0151251
-0.0156389
-0.0161473
-0.0166384
-0.0171217
-0.017606
-0.0180933
-0.0185824
-0.019072
-0.019562
-0.0200526
-0.0205441
-0.0210368
-0.0215306
-0.0220258
-0.0225223
-0.0230202
-0.0235197
-0.0150517
-0.0152666
-0.0156085
-0.0160192
-0.0164315
-0.0168257
-0.0172098
-0.0175938
-0.0179812
-0.0183713
-0.0187629
-0.0191559
-0.0195506
-0.0199475
-0.0203467
-0.0207486
-0.0211532
-0.0215608
-0.0219713
-0.0223849
-0.0156113
-0.0156774
-0.0158869
-0.0161873
-0.0164978
-0.0167889
-0.0170673
-0.017345
-0.0176277
-0.0179154
-0.0182071
-0.0185026
-0.0188024
-0.0191069
-0.0194168
-0.0197322
-0.0200532
-0.0203801
-0.0207129
-0.0210515
-0.0161385
-0.0160696
-0.0161127
-0.0162465
-0.0164043
-0.0165548
-0.0166995
-0.0168486
-0.0170082
-0.0171794
-0.0173615
-0.0175542
-0.0177575
-0.017972
-0.0181976
-0.0184345
-0.0186825
-0.0189414
-0.0192109
-0.0194907
-0.0161254
-0.0159551
-0.015734
-0.015544
-0.0154112
-0.0153268
-0.0152773
-0.0152564
-0.0152638
-0.0153
-0.0153649
-0.0154572
-0.0155754
-0.0157181
-0.0158838
-0.0160715
-0.0162796
-0.0165069
-0.0167522
-0.0170141
-0.0136077
-0.013149
-0.0126608
-0.0122743
-0.0119984
-0.0118053
-0.0116738
-0.0115955
-0.0115672
-0.0115867
-0.011651
-0.0117563
-0.0118992
-0.0120761
-0.0122841
-0.0125202
-0.0127819
-0.0130666
-0.013372
-0.0136959
-0.00206291
0.00162367
0.00290543
0.00224531
0.00114093
0.000294419
-0.000302281
-0.0008382
-0.00141418
-0.00203445
-0.00267323
-0.00331386
-0.00395284
-0.0045917
-0.00523132
-0.005871
-0.00650939
-0.00714526
-0.00777773
-0.00840609
0.00994546
0.0222281
0.0259844
0.0233509
0.0194944
0.0166962
0.0148659
0.0133529
0.0118167
0.0102357
0.00868483
0.00720837
0.00580887
0.00447354
0.00319227
0.00196058
0.000776553
-0.000361642
-0.00145637
-0.0025102
0.129072
0.129609
0.13071
0.132366
0.134577
0.137355
0.140723
0.144702
0.14931
0.154548
0.160404
0.166817
0.173682
0.180756
0.187637
0.193521
0.196924
0.194828
0.180714
0.139665
0.119687
0.120082
0.120836
0.121966
0.123435
0.125264
0.127388
0.129835
0.132479
0.135345
0.138186
0.140998
0.143299
0.144994
0.14512
0.143316
0.137545
0.126521
0.105202
0.0679449
0.108564
0.108781
0.109167
0.109734
0.110449
0.111305
0.112227
0.113188
0.114054
0.114766
0.115095
0.114915
0.113835
0.111597
0.107544
0.101191
0.0915563
0.0780207
0.0598989
0.0375494
0.0964067
0.0964522
0.0965129
0.0965904
0.0966618
0.0966996
0.0966399
0.0964197
0.0959325
0.0950754
0.0936863
0.0916028
0.0885917
0.0844204
0.0788137
0.0715383
0.0624457
0.0514631
0.0385456
0.0229224
0.0839227
0.0838398
0.0836587
0.0833761
0.0829781
0.0824315
0.0816886
0.0806819
0.0793374
0.0775589
0.0752522
0.0722955
0.0685913
0.0640149
0.0585152
0.0520054
0.0444955
0.0358128
0.0257061
0.0133149
0.0717054
0.0715432
0.0712106
0.0707037
0.0700148
0.0691164
0.067976
0.0665414
0.0647665
0.0625856
0.0599531
0.0568006
0.0530991
0.0487878
0.0438631
0.0382497
0.0319125
0.0246397
0.0161869
0.00590843
0.0601698
0.059968
0.0595596
0.0589412
0.0581089
0.0570444
0.0557283
0.0541267
0.0522142
0.0499517
0.0473192
0.044278
0.0408181
0.0368974
0.0325073
0.0275791
0.022078
0.0158623
0.0087948
0.000455969
0.049555
0.0493413
0.0489105
0.0482597
0.0473872
0.0462821
0.0449343
0.0433237
0.0414372
0.0392511
0.0367553
0.0339241
0.030751
0.0272045
0.0232802
0.0189369
0.0141715
0.00891611
0.00311573
-0.00349236
0.0399619
0.0397527
0.039332
0.0386966
0.0378458
0.036773
0.0354739
0.0339366
0.0321548
0.0301133
0.0278068
0.0252177
0.0223438
0.0191661
0.0156905
0.0118995
0.00781205
0.00340527
-0.00131167
-0.00643633
0.0313975
0.0312014
0.0308078
0.0302128
0.0294157
0.0284123
0.0272014
0.0257764
0.0241352
0.0222688
0.0201763
0.0178472
0.0152845
0.0124783
0.00944094
0.00616624
0.00268292
-0.0010043
-0.00483088
-0.0087455
0.023814
0.0236348
0.0232754
0.0227316
0.0220022
0.0210846
0.0199794
0.0186835
0.0171983
0.0155195
0.0136506
0.0115867
0.00933523
0.00689146
0.00426991
0.00146878
-0.00147894
-0.00455157
-0.007647
-0.0106187
0.0171376
0.0169759
0.016652
0.0161617
0.0155037
0.0146763
0.0136819
0.0125195
0.0111932
0.0097017
0.00805151
0.00624172
0.00428352
0.00217651
-6.18711e-05
-0.00243042
-0.00489453
-0.00742669
-0.00991108
-0.0121631
0.0112878
0.0111419
0.0108504
0.0104092
0.00981775
0.00907548
0.00818657
0.00715242
0.00597883
0.00466615
0.00322169
0.00164583
-4.854e-05
-0.00185765
-0.00375848
-0.00574267
-0.00777159
-0.00981744
-0.0117689
-0.013439
0.00619254
0.0060584
0.0057914
0.00538786
0.00484822
0.00417399
0.003372
0.00244698
0.00140791
0.000257687
-0.000995608
-0.00235284
-0.00380431
-0.00534877
-0.00696205
-0.00862694
-0.0102898
-0.0119083
-0.013371
-0.0145142
0.00179927
0.00167071
0.00141584
0.00103133
0.000518823
-0.000118518
-0.00087058
-0.00172849
-0.00267684
-0.00370596
-0.00480002
-0.00595605
-0.00716506
-0.00843707
-0.00976354
-0.0111434
-0.0125175
-0.0138137
-0.0148654
-0.0154719
-0.00191777
-0.00204797
-0.00230518
-0.00269307
-0.00320933
-0.00385113
-0.00460642
-0.00546485
-0.00640417
-0.00740658
-0.00843811
-0.00947732
-0.0104887
-0.0114733
-0.0124272
-0.0134023
-0.0143977
-0.0153937
-0.016151
-0.0163282
-0.00495627
-0.00509373
-0.00536602
-0.00577744
-0.00632628
-0.00701216
-0.00782525
-0.00875931
-0.00979338
-0.0109102
-0.0120652
-0.0132156
-0.0142754
-0.0151759
-0.0158207
-0.0162156
-0.0164049
-0.016587
-0.0167479
-0.0164668
-0.00729117
-0.0074371
-0.00773167
-0.0081778
-0.00877698
-0.00953009
-0.0104364
-0.011495
-0.0127019
-0.01405
-0.0155209
-0.0170782
-0.0186453
-0.0200856
-0.0211692
-0.0215841
-0.0210094
-0.0193484
-0.0170008
-0.0148298
-0.00888221
-0.00903532
-0.00935152
-0.00983118
-0.01048
-0.011299
-0.0122989
-0.0134829
-0.0148701
-0.016467
-0.0183042
-0.0203869
-0.0227439
-0.0253229
-0.0280161
-0.0303987
-0.0316714
-0.0302735
-0.0243555
-0.0126523
-0.00968711
-0.00984722
-0.0101764
-0.0106772
-0.0113552
-0.0122159
-0.0132717
-0.0145359
-0.016033
-0.0177906
-0.0198573
-0.0222917
-0.0251914
-0.0286753
-0.0329062
-0.0379853
-0.0437186
-0.0486954
-0.0478255
-0.0250762
0.139657
0.140242
0.141547
0.143477
0.146175
0.149543
0.153822
0.158869
0.165062
0.17219
0.180843
0.190698
0.202695
0.216323
0.233161
0.252334
0.276692
0.304586
0.341446
0.383764
0.139622
0.140206
0.141511
0.14344
0.146138
0.149504
0.153781
0.158825
0.165015
0.172138
0.180784
0.190629
0.202611
0.216218
0.233019
0.252142
0.276409
0.304169
0.340799
0.382726
0.139549
0.140134
0.141437
0.143365
0.146061
0.149425
0.153698
0.158737
0.164919
0.172033
0.180663
0.190489
0.202439
0.216005
0.232732
0.251754
0.27584
0.303331
0.339501
0.38065
0.13944
0.140024
0.141326
0.143253
0.145945
0.149305
0.153572
0.158603
0.164775
0.171873
0.180482
0.190279
0.202181
0.215684
0.2323
0.251172
0.274989
0.302079
0.337558
0.377545
0.139294
0.139878
0.141178
0.143102
0.14579
0.149144
0.153404
0.158425
0.164582
0.17166
0.180241
0.189998
0.201838
0.215256
0.231728
0.250401
0.273858
0.30042
0.33498
0.373429
0.139111
0.139695
0.140993
0.142914
0.145597
0.148944
0.153194
0.158202
0.164341
0.171395
0.17994
0.189648
0.201411
0.214725
0.231017
0.249443
0.272455
0.298363
0.331778
0.368323
0.138892
0.139476
0.140772
0.142688
0.145365
0.148705
0.152944
0.157936
0.164054
0.171078
0.179581
0.18923
0.200903
0.214091
0.230172
0.248303
0.270787
0.295922
0.327967
0.362254
0.138637
0.139221
0.140514
0.142426
0.145097
0.148427
0.152653
0.157627
0.16372
0.17071
0.179165
0.188746
0.200316
0.213358
0.229197
0.246988
0.268864
0.293111
0.323562
0.355255
0.138347
0.13893
0.14022
0.142128
0.144791
0.148111
0.152322
0.157276
0.163342
0.170293
0.178694
0.188197
0.199652
0.212529
0.228097
0.245504
0.266694
0.289946
0.318583
0.347363
0.138021
0.138605
0.139892
0.141795
0.144449
0.147758
0.151952
0.156885
0.16292
0.169828
0.17817
0.187585
0.198914
0.211605
0.226879
0.243856
0.264292
0.286443
0.313051
0.338622
0.137661
0.138245
0.139529
0.141427
0.144072
0.147369
0.151545
0.156453
0.162456
0.169316
0.177593
0.186913
0.198106
0.210592
0.225547
0.242053
0.261669
0.28262
0.30699
0.329078
0.137267
0.137852
0.139133
0.141026
0.143661
0.146944
0.151102
0.155984
0.16195
0.168759
0.176967
0.186182
0.19723
0.209492
0.22411
0.240101
0.258842
0.278498
0.300429
0.318784
0.136839
0.137426
0.138704
0.140591
0.143216
0.146486
0.150622
0.155476
0.161405
0.168159
0.176293
0.185396
0.196291
0.208311
0.222574
0.238008
0.255828
0.274093
0.293398
0.307794
0.136378
0.136967
0.138242
0.140124
0.142738
0.145994
0.150109
0.154933
0.160821
0.167517
0.175574
0.184557
0.195291
0.207052
0.220947
0.235784
0.252644
0.269424
0.285934
0.296162
0.135884
0.136476
0.137749
0.139626
0.142229
0.14547
0.149561
0.154355
0.1602
0.166835
0.17481
0.183667
0.194233
0.205719
0.219234
0.233436
0.24931
0.264511
0.278079
0.283936
0.135359
0.135955
0.137226
0.139098
0.141689
0.144914
0.148981
0.153742
0.159542
0.166112
0.174
0.182724
0.193114
0.204311
0.217434
0.230967
0.245839
0.259366
0.269888
0.271156
0.134803
0.135404
0.136674
0.13854
0.14112
0.144329
0.14837
0.153098
0.15885
0.165353
0.173151
0.181735
0.191943
0.202837
0.215559
0.228388
0.24225
0.254006
0.261421
0.257852
0.134216
0.134824
0.136096
0.13796
0.14053
0.143726
0.147746
0.152444
0.158153
0.164593
0.172306
0.180753
0.190784
0.201371
0.213695
0.225788
0.238638
0.248486
0.252725
0.243929
0.133599
0.134217
0.135492
0.137358
0.139923
0.143111
0.147115
0.151792
0.157468
0.163856
0.171496
0.179819
0.189684
0.19997
0.211902
0.223234
0.23507
0.242851
0.243824
0.228733
0.132949
0.133569
0.134838
0.136694
0.139236
0.142396
0.146354
0.150979
0.156571
0.162864
0.170353
0.178493
0.188081
0.198001
0.209406
0.219964
0.23072
0.236618
0.234787
0.212549
0.132883
0.133502
0.134771
0.136625
0.139165
0.142322
0.146276
0.150896
0.156483
0.162769
0.170249
0.17838
0.187956
0.197862
0.20925
0.219787
0.230518
0.236384
0.234513
0.212221
0.133537
0.134154
0.135428
0.137292
0.139856
0.14304
0.147041
0.151713
0.157384
0.163766
0.171397
0.179711
0.189565
0.199837
0.211754
0.223066
0.234878
0.24263
0.243563
0.228422
0.134157
0.134765
0.136035
0.137898
0.140466
0.143659
0.147675
0.152369
0.158073
0.164507
0.172212
0.180651
0.190672
0.201246
0.213555
0.225629
0.238457
0.248276
0.252478
0.243634
0.134746
0.135347
0.136616
0.138482
0.141059
0.144265
0.148304
0.153028
0.158775
0.165272
0.173063
0.181638
0.191836
0.202719
0.215427
0.228238
0.242079
0.253808
0.261188
0.257573
0.135306
0.135902
0.137172
0.139042
0.141632
0.144854
0.148918
0.153676
0.159471
0.166036
0.173917
0.182633
0.193014
0.2042
0.21731
0.230826
0.245678
0.25918
0.269669
0.270893
0.135835
0.136427
0.137699
0.139574
0.142175
0.145414
0.149502
0.154293
0.160134
0.166763
0.174732
0.183581
0.194139
0.205615
0.219117
0.233304
0.249159
0.264336
0.277874
0.28369
0.136331
0.13692
0.138195
0.140075
0.142688
0.145941
0.150053
0.154875
0.160759
0.16745
0.175501
0.184477
0.195203
0.206955
0.220838
0.235661
0.252503
0.269261
0.285743
0.295932
0.136796
0.137383
0.13866
0.140546
0.143169
0.146437
0.150571
0.155422
0.161347
0.168097
0.176226
0.185322
0.19621
0.20822
0.222473
0.237894
0.255697
0.273942
0.293221
0.307581
0.137227
0.137812
0.139092
0.140984
0.143618
0.146899
0.151054
0.155933
0.161897
0.168702
0.176905
0.186114
0.197156
0.209409
0.224017
0.239995
0.258722
0.278358
0.300266
0.318588
0.137625
0.138209
0.139492
0.141389
0.144033
0.147328
0.151502
0.156408
0.162407
0.169264
0.177536
0.186851
0.198038
0.210516
0.225462
0.241956
0.261559
0.282493
0.306841
0.328899
0.137989
0.138572
0.139858
0.141761
0.144413
0.147721
0.151913
0.156843
0.162876
0.16978
0.178118
0.187529
0.198852
0.211536
0.226801
0.243769
0.264192
0.286327
0.312916
0.338459
0.138318
0.138901
0.14019
0.142097