/*--------------------------------*- C++ -*----------------------------------*\
  =========                 |
  \\      /  F ield         | OpenFOAM: The Open Source CFD Toolbox
   \\    /   O peration     | Website:  https://openfoam.org
    \\  /    A nd           | Version:  6.0
     \\/     M anipulation  |
\*---------------------------------------------------------------------------*/
FoamFile
{
    version     2.0;
    format      ascii;
    class       volScalarField;
    location    "90";
    object      p;
}
// * * * * * * * * * * * * * * * * * * * * * * * * * * * * * * * * * * * * * //

dimensions      [0 2 -2 0 0 0 0];

internalField   nonuniform List<scalar> 
4000
(
-0.701644
-0.685441
-0.669464
-0.649674
-0.624905
-0.596479
-0.566175
-0.535588
-0.505897
-0.477819
-0.451687
-0.427582
-0.405436
-0.385106
-0.366426
-0.349224
-0.333349
-0.318618
-0.304793
-0.292205
-0.709427
-0.692854
-0.675663
-0.653684
-0.626169
-0.594959
-0.56219
-0.52961
-0.498399
-0.469201
-0.442259
-0.417574
-0.395013
-0.374391
-0.355506
-0.338171
-0.322214
-0.307433
-0.293576
-0.281068
-0.714542
-0.697684
-0.679207
-0.654938
-0.624671
-0.590787
-0.555751
-0.521409
-0.488908
-0.458797
-0.431227
-0.406114
-0.383271
-0.362471
-0.343485
-0.326107
-0.310152
-0.295395
-0.281576
-0.269223
-0.716609
-0.699548
-0.67973
-0.653124
-0.620167
-0.583788
-0.546727
-0.510886
-0.47734
-0.446535
-0.418521
-0.393141
-0.370152
-0.349294
-0.330313
-0.312989
-0.297123
-0.28247
-0.268765
-0.256642
-0.715277
-0.698094
-0.676905
-0.647974
-0.612461
-0.573825
-0.535025
-0.497969
-0.463638
-0.432361
-0.404093
-0.378606
-0.355613
-0.33482
-0.315956
-0.298786
-0.283102
-0.268634
-0.255124
-0.24331
-0.710233
-0.693009
-0.670454
-0.639268
-0.6014
-0.560793
-0.520571
-0.482601
-0.447748
-0.416226
-0.387896
-0.362469
-0.339615
-0.319016
-0.300383
-0.283473
-0.268065
-0.253871
-0.240639
-0.229215
-0.701217
-0.684033
-0.66015
-0.626843
-0.586877
-0.544629
-0.503322
-0.464748
-0.429642
-0.398102
-0.369903
-0.344702
-0.322134
-0.30186
-0.283578
-0.267036
-0.252004
-0.238174
-0.225309
-0.214356
-0.68802
-0.670961
-0.645827
-0.610589
-0.568833
-0.525304
-0.483263
-0.444397
-0.409306
-0.377973
-0.350099
-0.325292
-0.303159
-0.283343
-0.265533
-0.249471
-0.234917
-0.221545
-0.209139
-0.198738
-0.670499
-0.653651
-0.627381
-0.590454
-0.547255
-0.502824
-0.460408
-0.421562
-0.386748
-0.355845
-0.328485
-0.304239
-0.282689
-0.263467
-0.246253
-0.230785
-0.216813
-0.203999
-0.192147
-0.182377
-0.64857
-0.632026
-0.604772
-0.566441
-0.522177
-0.477234
-0.434798
-0.396277
-0.361995
-0.331737
-0.305078
-0.281556
-0.260737
-0.242243
-0.225749
-0.210992
-0.197712
-0.185559
-0.174361
-0.165307
-0.622219
-0.606076
-0.578023
-0.53861
-0.493674
-0.448613
-0.406505
-0.3686
-0.335095
-0.305689
-0.27991
-0.25727
-0.237326
-0.219692
-0.204044
-0.190114
-0.177638
-0.166257
-0.155821
-0.147578
-0.591498
-0.575857
-0.547219
-0.50707
-0.461867
-0.417073
-0.375626
-0.338616
-0.306117
-0.277757
-0.253026
-0.23142
-0.212488
-0.195843
-0.181161
-0.168175
-0.156617
-0.146122
-0.13657
-0.129238
-0.556524
-0.54149
-0.512504
-0.471982
-0.426914
-0.382759
-0.342289
-0.306431
-0.275152
-0.248016
-0.224488
-0.204054
-0.186262
-0.170727
-0.157128
-0.145199
-0.13467
-0.125181
-0.116636
-0.110303
-0.517478
-0.50316
-0.474078
-0.433553
-0.389012
-0.345848
-0.306647
-0.272179
-0.24231
-0.21656
-0.194373
-0.175235
-0.158696
-0.144379
-0.131969
-0.121205
-0.111817
-0.103457
-0.0960391
-0.0907453
-0.474601
-0.461108
-0.432192
-0.392032
-0.348395
-0.306551
-0.268884
-0.236016
-0.207728
-0.183502
-0.162774
-0.145034
-0.129843
-0.116835
-0.105706
-0.0962043
-0.0880686
-0.0809636
-0.0747821
-0.0705582
-0.428187
-0.415628
-0.387144
-0.347708
-0.30533
-0.265106
-0.229212
-0.19813
-0.171567
-0.14898
-0.129805
-0.113541
-0.0997669
-0.0881335
-0.078357
-0.0701993
-0.0634142
-0.0576854
-0.0528837
-0.0499249
-0.378581
-0.367061
-0.339274
-0.300906
-0.260114
-0.22178
-0.187869
-0.158731
-0.134014
-0.113156
-0.0956009
-0.0808641
-0.0685469
-0.0583283
-0.0499517
-0.0431972
-0.0378373
-0.0336214
-0.0305073
-0.0293564
-0.326171
-0.315791
-0.288955
-0.251978
-0.213072
-0.17687
-0.145123
-0.118062
-0.0952833
-0.0762162
-0.0603145
-0.0471161
-0.0362524
-0.0274416
-0.0204668
-0.015131
-0.0112537
-0.00879529
-0.00799394
-0.00930237
-0.271378
-0.262231
-0.23659
-0.201304
-0.164553
-0.130694
-0.101267
-0.0763933
-0.0556253
-0.0383848
-0.0241356
-0.0124343
-0.00294032
0.00458792
0.0103269
0.0144415
0.0169784
0.0175125
0.0154023
0.0117073
-0.214653
-0.206825
-0.182606
-0.149282
-0.114925
-0.0835922
-0.0566212
-0.0340302
-0.0153348
5.01442e-05
0.0126576
0.0229258
0.0311907
0.0376927
0.0426259
0.0461772
0.0482458
0.0478457
0.0441178
0.040239
-0.15647
-0.150034
-0.127442
-0.0963217
-0.0645661
-0.0359183
-0.0115194
0.00870248
0.0252617
0.0387469
0.0496881
0.058525
0.0656076
0.0712187
0.0756464
0.0792148
0.0818884
0.082533
0.0808452
0.0861606
-0.097304
-0.0923254
-0.0715454
-0.0428387
-0.0138594
0.011972
0.0337011
0.0514786
0.0658396
0.0773694
0.0865871
0.0939225
0.0997224
0.104281
0.107902
0.110886
0.113211
0.114335
0.115265
0.122951
-0.0376464
-0.0341769
-0.0153663
0.0107515
0.0368135
0.0597257
0.0787091
0.0939816
0.106092
0.115616
0.123058
0.128835
0.133287
0.136704
0.139372
0.141543
0.14319
0.143973
0.144901
0.15129
0.022014
0.0239369
0.040649
0.0640393
0.0870789
0.106999
0.123185
0.135909
0.145727
0.153198
0.158808
0.162952
0.165955
0.168092
0.169625
0.17078
0.171547
0.171665
0.171957
0.176642
0.0811949
0.081548
0.0960627
0.116625
0.136574
0.153462
0.166825
0.176982
0.184486
0.189879
0.19362
0.196085
0.197572
0.198335
0.198608
0.198581
0.198233
0.197333
0.196639
0.199756
0.139424
0.1382
0.15045
0.168123
0.184951
0.1988
0.209342
0.216937
0.22213
0.225439
0.227299
0.228058
0.227994
0.227334
0.226289
0.225017
0.223481
0.221474
0.219717
0.221335
0.196244
0.19345
0.2034
0.218163
0.231877
0.242712
0.250467
0.255532
0.258439
0.259685
0.259674
0.258732
0.257109
0.255013
0.252626
0.250083
0.247333
0.244203
0.241385
0.241592
0.251215
0.246875
0.254523
0.266391
0.277036
0.284916
0.289946
0.292538
0.293212
0.292438
0.290594
0.287978
0.284821
0.281306
0.277596
0.273799
0.269861
0.265639
0.261791
0.260659
0.303919
0.298071
0.303445
0.312474
0.32013
0.325145
0.32754
0.327743
0.326259
0.323531
0.319912
0.315676
0.31103
0.30614
0.301145
0.296138
0.291061
0.285801
0.280966
0.278566
0.353958
0.346659
0.349819
0.356097
0.360877
0.363148
0.363023
0.360944
0.357399
0.352806
0.347492
0.341707
0.335639
0.329434
0.323216
0.317058
0.310907
0.304671
0.298903
0.295306
0.400963
0.392282
0.393316
0.396968
0.399016
0.39869
0.396186
0.391955
0.386466
0.380113
0.3732
0.365954
0.358546
0.351105
0.343736
0.3365
0.329349
0.322207
0.315564
0.310843
0.444589
0.434612
0.433635
0.434814
0.434304
0.431555
0.426833
0.420597
0.413299
0.40531
0.396909
0.388306
0.379653
0.371064
0.362628
0.354397
0.346325
0.338352
0.330897
0.325132
0.484521
0.473346
0.4705
0.469388
0.466519
0.461541
0.454784
0.44671
0.437753
0.428263
0.4185
0.408654
0.398862
0.389223
0.379814
0.370675
0.361768
0.353043
0.344843
0.338119
0.520474
0.508212
0.50366
0.500466
0.49546
0.488468
0.479875
0.470143
0.459692
0.44885
0.437861
0.426896
0.416079
0.405498
0.395215
0.385264
0.37561
0.366213
0.357343
0.349752
0.552195
0.538969
0.532895
0.527848
0.520947
0.512173
0.501957
0.490762
0.478993
0.46696
0.454889
0.442939
0.43122
0.419809
0.408758
0.398094
0.387787
0.377802
0.36834
0.359982
0.579463
0.565405
0.55801
0.55136
0.542824
0.532515
0.520904
0.508451
0.495549
0.482493
0.469494
0.456699
0.444207
0.432084
0.420376
0.409102
0.398238
0.387751
0.37778
0.368762
0.602091
0.587343
0.578845
0.570856
0.560958
0.549375
0.536605
0.523109
0.509268
0.495364
0.481597
0.468102
0.454971
0.442262
0.430011
0.418233
0.406911
0.396011
0.385618
0.376052
0.619929
0.604638
0.595265
0.586216
0.575242
0.562653
0.54897
0.534653
0.520074
0.505504
0.491133
0.47709
0.463458
0.450288
0.437612
0.425442
0.413762
0.402539
0.391816
0.381821
0.632859
0.61718
0.60717
0.597349
0.585594
0.572275
0.557931
0.543021
0.527908
0.512859
0.498054
0.483616
0.469624
0.456124
0.443143
0.430691
0.418755
0.407302
0.396343
0.386042
0.640803
0.624893
0.61449
0.604193
0.591956
0.578189
0.563441
0.548168
0.532732
0.517391
0.502323
0.487647
0.473438
0.45974
0.446577
0.433957
0.421867
0.410277
0.399179
0.388697
0.643717
0.627737
0.61719
0.606713
0.594298
0.580367
0.565473
0.550072
0.534522
0.51908
0.503922
0.489166
0.474884
0.461121
0.447898
0.435223
0.423086
0.411452
0.400312
0.389778
0.641598
0.625706
0.615264
0.604907
0.592617
0.578807
0.564026
0.548729
0.533276
0.517923
0.502849
0.488169
0.473959
0.460263
0.447104
0.43449
0.422407
0.410824
0.399741
0.389282
0.634475
0.618831
0.608739
0.598799
0.586935
0.573528
0.559117
0.544157
0.52901
0.513936
0.499116
0.48467
0.470676
0.457179
0.444206
0.431765
0.41984
0.408402
0.397473
0.387215
0.622419
0.607177
0.597676
0.588443
0.577301
0.564575
0.550787
0.536392
0.521757
0.507148
0.492752
0.478695
0.465058
0.451891
0.439225
0.427068
0.415405
0.404204
0.393523
0.383592
0.605532
0.590845
0.582167
0.573922
0.56379
0.552016
0.539099
0.525492
0.51157
0.497609
0.483804
0.470286
0.457144
0.444435
0.432194
0.420433
0.409131
0.398258
0.387918
0.378433
0.583957
0.569968
0.562335
0.555348
0.546502
0.535942
0.524134
0.511533
0.49852
0.485384
0.472329
0.459498
0.446987
0.434859
0.423158
0.411899
0.401058
0.390602
0.380692
0.371768
0.557868
0.544713
0.538332
0.532857
0.525563
0.516467
0.505998
0.494609
0.482693
0.470551
0.458402
0.446398
0.434647
0.423221
0.412171
0.40152
0.391235
0.381283
0.371887
0.363634
0.527475
0.515281
0.510343
0.506617
0.50112
0.493724
0.484812
0.474832
0.464191
0.453205
0.442108
0.431067
0.4202
0.40959
0.399298
0.389353
0.379718
0.370354
0.361553
0.354073
0.49302
0.481904
0.47858
0.476817
0.473347
0.46787
0.460717
0.452331
0.443131
0.433453
0.423547
0.413595
0.403727
0.394041
0.384608
0.375465
0.366569
0.357875
0.349743
0.343133
0.454777
0.444842
0.443282
0.443674
0.442436
0.43908
0.433872
0.427249
0.419645
0.411414
0.402825
0.394079
0.385319
0.376656
0.368175
0.359924
0.351854
0.343907
0.336515
0.330862
0.413049
0.404387
0.404716
0.407427
0.408602
0.407546
0.40445
0.399744
0.393875
0.387217
0.380061
0.372625
0.36507
0.357521
0.350079
0.342802
0.335638
0.328512
0.321924
0.317312
0.368168
0.360855
0.363175
0.368339
0.372081
0.37348
0.372643
0.369988
0.365975
0.361001
0.355378
0.349344
0.343079
0.336723
0.330394
0.324165
0.317981
0.311747
0.306023
0.302527
0.320492
0.314592
0.318973
0.326693
0.333127
0.337109
0.338655
0.338163
0.33611
0.332912
0.328906
0.32435
0.319444
0.314346
0.309194
0.304075
0.298934
0.293655
0.288847
0.286541
0.270405
0.265964
0.272451
0.282795
0.292012
0.298677
0.302703
0.304467
0.304455
0.303106
0.300781
0.297761
0.294265
0.290472
0.286538
0.282574
0.278528
0.274256
0.270409
0.269364
0.218311
0.215363
0.223967
0.236968
0.249025
0.258444
0.265021
0.269107
0.271196
0.271748
0.271147
0.269698
0.267642
0.265177
0.262483
0.259695
0.25677
0.253536
0.250679
0.250968
0.164637
0.163197
0.173901
0.189554
0.204474
0.216684
0.225857
0.232306
0.236531
0.239012
0.240155
0.240289
0.239674
0.23853
0.237061
0.235429
0.233607
0.231398
0.229531
0.231234
0.109824
0.109895
0.122649
0.140912
0.158681
0.173689
0.185472
0.1943
0.200673
0.205088
0.207972
0.209673
0.210473
0.210612
0.21032
0.209788
0.209
0.207729
0.206774
0.209958
0.0543289
0.0558972
0.070623
0.0914171
0.111983
0.129763
0.144144
0.155343
0.163854
0.170188
0.174788
0.17802
0.18018
0.181521
0.182293
0.182714
0.182749
0.182099
0.18174
0.186525
-0.00138219
0.00165602
0.0182453
0.0414541
0.0647322
0.0852276
0.102167
0.115707
0.126327
0.134544
0.140816
0.145518
0.148954
0.151379
0.153058
0.154252
0.154929
0.154598
0.154223
0.160184
-0.0568383
-0.0523715
-0.034054
-0.00858132
0.0172884
0.0404131
0.05985
0.0756826
0.0883699
0.098432
0.106335
0.112462
0.11712
0.12055
0.123001
0.124751
0.125744
0.12494
0.122116
0.125898
-0.111567
-0.105726
-0.0858409
-0.0582887
-0.0299803
-0.00434001
0.0175113
0.035574
0.0502785
0.0621403
0.071627
0.0791212
0.0849134
0.0892081
0.0921669
0.0939386
0.0944019
0.0926528
0.0880033
0.0834548
-0.165111
-0.157959
-0.136687
-0.107269
-0.0767056
-0.048689
-0.0245249
-0.00430565
0.0123636
0.0259911
0.0370473
0.0459196
0.0529043
0.0582093
0.0619854
0.0643676
0.0653758
0.0646248
0.0616327
0.0574782
-0.217016
-0.208628
-0.18617
-0.155129
-0.122524
-0.0922951
-0.0659379
-0.0436452
-0.0250634
-0.00969151
0.00294967
0.013265
0.0215772
0.0281322
0.03312
0.0367094
0.0390453
0.0401597
0.0399162
0.0380303
-0.266853
-0.257312
-0.233885
-0.201487
-0.167083
-0.134833
-0.106422
-0.082154
-0.0617221
-0.0446358
-0.0304064
-0.0186093
-0.0088946
-0.000980502
0.00535865
0.0103139
0.0140758
0.0168627
0.0187659
0.0190986
-0.314218
-0.303616
-0.279447
-0.245983
-0.210049
-0.175995
-0.145696
-0.119571
-0.0973729
-0.0786265
-0.0628385
-0.0495695
-0.0384489
-0.0291706
-0.0214842
-0.0151818
-0.0100535
-0.00582132
-0.00233361
-0.000370113
-0.358744
-0.347178
-0.322503
-0.288281
-0.251114
-0.215502
-0.183503
-0.155666
-0.131809
-0.111482
-0.0941953
-0.0794986
-0.0670076
-0.0563993
-0.0474069
-0.0398088
-0.0333807
-0.0278259
-0.0230192
-0.0198731
-0.400107
-0.387676
-0.362733
-0.328075
-0.289994
-0.253096
-0.219615
-0.190234
-0.164849
-0.143046
-0.124344
-0.108289
-0.0944891
-0.08261
-0.0723749
-0.0635543
-0.0559157
-0.0491498
-0.0431546
-0.038983
-0.438028
-0.424836
-0.399858
-0.365093
-0.326438
-0.288552
-0.253831
-0.223098
-0.196338
-0.173184
-0.153172
-0.135852
-0.120828
-0.107759
-0.0963653
-0.0864123
-0.0776652
-0.0698054
-0.0627272
-0.0575618
-0.472283
-0.458433
-0.433646
-0.399102
-0.360226
-0.321671
-0.285975
-0.254105
-0.226145
-0.201786
-0.180588
-0.162114
-0.145967
-0.131808
-0.119352
-0.108364
-0.0986105
-0.0897702
-0.0817195
-0.075604
-0.502706
-0.4883
-0.463914
-0.429913
-0.391174
-0.352286
-0.315901
-0.283128
-0.254161
-0.228758
-0.206515
-0.187011
-0.169858
-0.154716
-0.141302
-0.12938
-0.118722
-0.109009
-0.100098
-0.0931092
-0.52919
-0.514328
-0.490533
-0.45738
-0.419138
-0.380261
-0.34349
-0.310065
-0.2803
-0.254027
-0.230891
-0.210492
-0.192454
-0.176445
-0.162182
-0.14943
-0.137968
-0.127484
-0.117817
-0.110042
-0.55169
-0.53647
-0.513431
-0.481407
-0.444009
-0.405495
-0.368649
-0.334838
-0.304494
-0.277538
-0.253669
-0.232516
-0.213722
-0.196963
-0.18196
-0.168483
-0.156315
-0.145157
-0.134829
-0.126346
-0.570226
-0.554742
-0.532595
-0.501948
-0.465724
-0.427918
-0.391315
-0.357391
-0.326698
-0.299253
-0.274816
-0.253055
-0.233635
-0.216244
-0.20061
-0.186509
-0.173731
-0.16199
-0.151088
-0.141967
-0.584877
-0.569222
-0.548072
-0.519008
-0.484259
-0.447494
-0.411452
-0.377693
-0.346887
-0.31915
-0.294314
-0.272093
-0.252177
-0.234272
-0.218116
-0.20349
-0.190192
-0.177953
-0.166559
-0.156869
-0.595784
-0.580048
-0.559966
-0.532648
-0.499637
-0.464225
-0.429053
-0.395736
-0.365054
-0.337227
-0.312163
-0.289628
-0.269345
-0.251042
-0.234468
-0.219412
-0.205683
-0.193027
-0.181218
-0.171026
-0.603141
-0.587412
-0.56844
-0.542979
-0.511922
-0.478144
-0.444135
-0.411534
-0.381213
-0.353497
-0.328374
-0.305671
-0.285149
-0.266559
-0.249669
-0.234275
-0.220197
-0.2072
-0.19505
-0.184424
-0.607191
-0.59156
-0.573709
-0.550164
-0.521225
-0.489324
-0.45675
-0.425125
-0.395398
-0.36799
-0.342977
-0.320248
-0.299609
-0.280841
-0.263731
-0.248087
-0.23374
-0.220473
-0.208052
-0.197057
-0.608219
-0.592776
-0.576034
-0.554414
-0.527699
-0.497868
-0.466968
-0.436564
-0.407654
-0.380748
-0.356008
-0.333393
-0.312757
-0.293915
-0.276676
-0.260864
-0.246322
-0.232853
-0.220225
-0.208925
-0.606546
-0.59138
-0.575714
-0.555982
-0.53154
-0.503923
-0.4749
-0.445937
-0.418055
-0.391837
-0.36753
-0.345161
-0.324641
-0.305823
-0.288542
-0.272639
-0.25797
-0.244359
-0.231583
-0.220037
-0.602515
-0.587717
-0.573081
-0.555157
-0.532977
-0.507658
-0.48067
-0.45334
-0.42668
-0.401327
-0.377603
-0.35561
-0.335315
-0.316612
-0.299368
-0.283445
-0.268712
-0.255016
-0.242146
-0.230409
0.0298603
-0.00426272
-0.0277408
-0.0372074
-0.0453796
-0.0575879
-0.0717401
-0.0853159
-0.0978768
-0.109958
-0.121904
-0.133694
-0.145202
-0.156361
-0.167164
-0.177629
-0.187773
-0.197609
-0.207154
-0.216433
-0.0206165
-0.0337979
-0.0439536
-0.0508229
-0.0566948
-0.0634389
-0.0710494
-0.0786447
-0.0857147
-0.0923157
-0.0986667
-0.104868
-0.110902
-0.116725
-0.122324
-0.127707
-0.13289
-0.137887
-0.142705
-0.147354
-0.0231373
-0.0280644
-0.0307443
-0.03418
-0.0384398
-0.042821
-0.0470492
-0.0511477
-0.0551535
-0.0590734
-0.0629189
-0.0667062
-0.0704429
-0.0741272
-0.077757
-0.0813341
-0.0848633
-0.08835
-0.0917988
-0.0952142
-0.0206491
-0.0233608
-0.0246179
-0.0269895
-0.0303588
-0.0338124
-0.036949
-0.0398606
-0.0427132
-0.0455598
-0.0483776
-0.0511403
-0.0538413
-0.0564845
-0.0590747
-0.0616139
-0.0641033
-0.0665446
-0.0689397
-0.0712915
-0.0177836
-0.0199739
-0.0208061
-0.0221951
-0.0243183
-0.026597
-0.0286739
-0.0305584
-0.0323746
-0.0341882
-0.035997
-0.0377805
-0.0395297
-0.0412475
-0.0429401
-0.0446118
-0.0462654
-0.0479027
-0.049526
-0.0511378
-0.0148514
-0.0165982
-0.0171821
-0.0180196
-0.019376
-0.0209103
-0.0223543
-0.0236774
-0.0249511
-0.0262258
-0.0275078
-0.0287851
-0.0300492
-0.031299
-0.0325372
-0.0337658
-0.0349856
-0.0361969
-0.0373999
-0.0385954
-0.0116022
-0.0129061
-0.0133336
-0.0138969
-0.0148187
-0.015887
-0.0169154
-0.0178691
-0.0187881
-0.0197062
-0.0206302
-0.0215536
-0.0224703
-0.023379
-0.0242806
-0.0251763
-0.0260668
-0.0269521
-0.0278326
-0.0287087
-0.00851473
-0.00944161
-0.00979297
-0.0102472
-0.0109409
-0.0117342
-0.0125066
-0.0132337
-0.0139391
-0.0146436
-0.015352
-0.0160607
-0.016766
-0.0174667
-0.0181633
-0.0188562
-0.0195459
-0.0202323
-0.0209155
-0.0215957
-0.00585716
-0.00647474
-0.00677124
-0.00717383
-0.00773342
-0.00834821
-0.00894531
-0.00951362
-0.0100686
-0.0106223
-0.0111773
-0.0117313
-0.0122821
-0.0128291
-0.0133726
-0.0139128
-0.01445
-0.0149843
-0.0155157
-0.0160445
-0.00377229
-0.00416221
-0.00441035
-0.00477143
-0.00523586
-0.00572391
-0.00619334
-0.00664313
-0.00708484
-0.00752546
-0.0079657
-0.00840393
-0.00883898
-0.00927063
-0.00969911
-0.0101247
-0.0105475
-0.0109676
-0.0113851
-0.0118002
-0.00221504
-0.00244762
-0.00264612
-0.00295611
-0.0033356
-0.00372027
-0.00408606
-0.00443753
-0.00478403
-0.00512966
-0.0054742
-0.00581639
-0.00615563
-0.00649193
-0.00682559
-0.00715682
-0.00748577
-0.00781256
-0.0081373
-0.00846022
-0.0010717
-0.00119542
-0.00134257
-0.00159329
-0.00189254
-0.00218786
-0.00246553
-0.00273246
-0.00299642
-0.00325993
-0.00352241
-0.00378287
-0.00404102
-0.00429704
-0.00455125
-0.00480385
-0.00505503
-0.00530491
-0.00555364
-0.00580142
-0.000199021
-0.000235372
-0.000326803
-0.000514442
-0.000737879
-0.000952894
-0.00115174
-0.00134233
-0.0015313
-0.00172038
-0.00190883
-0.00209594
-0.00228162
-0.00246616
-0.00264992
-0.00283315
-0.00301604
-0.00319876
-0.00338149
-0.00356443
0.000494571
0.000545232
0.000515363
0.00039018
0.000236721
9.52663e-05
-3.04628e-05
-0.000149545
-0.000268268
-0.00038793
-0.000507808
-0.000627384
-0.000746796
-0.000866484
-0.000986872
-0.00110827
-0.00123093
-0.00135505
-0.00148081
-0.00160839
0.00106951
0.00123619
0.00129324
0.00124466
0.0011698
0.00111047
0.00106765
0.00103004
0.000990545
0.000947805
0.000902532
0.000855094
0.00080515
0.000752093
0.000695405
0.000634729
0.000569821
0.000500502
0.000426637
0.000348124
0.00143513
0.00171135
0.00189892
0.00198865
0.00204538
0.00210749
0.00217808
0.00224761
0.00230923
0.00236111
0.0024037
0.00243743
0.00246218
0.00247763
0.0024835
0.00247974
0.00246639
0.00244362
0.00241162
0.00237066
0.00213371
0.0024949
0.00291768
0.00330302
0.00362647
0.0039024
0.00414693
0.00436619
0.00455991
0.00472693
0.00486741
0.00498259
0.00507399
0.00514299
0.00519085
0.00521876
0.00522795
0.00521963
0.00519503
0.00515532
0.00511389
0.00574574
0.00640739
0.00696452
0.00741181
0.00778005
0.00809081
0.00835219
0.00856655
0.00873588
0.00886321
0.0089521
0.00900609
0.00902841
0.009022
0.00898958
0.0089337
0.00885674
0.00876094
0.00864836
0.0167416
0.020488
0.0218721
0.0213815
0.0204769
0.01983
0.0194252
0.0190782
0.0186933
0.0182678
0.0178267
0.0173858
0.0169482
0.0165123
0.0160773
0.0156438
0.0152131
0.0147862
0.0143641
0.0139473
0.0286768
0.0407489
0.0444642
0.0420168
0.0384348
0.0358978
0.0342942
0.032991
0.0316646
0.0302987
0.0289659
0.0277082
0.0265269
0.0254095
0.0243462
0.0233329
0.0223674
0.0214481
0.0205725
0.0197379
0.111498
0.11192
0.112781
0.114072
0.115788
0.11794
0.120542
0.123613
0.127152
0.131161
0.135591
0.140386
0.145369
0.150309
0.154641
0.157531
0.157098
0.15011
0.129211
0.0795111
0.102537
0.10282
0.103345
0.104132
0.10514
0.10639
0.107806
0.109418
0.111077
0.112817
0.114344
0.115682
0.116254
0.116019
0.113849
0.10946
0.100573
0.08594
0.0599475
0.0157213
0.0923865
0.0925009
0.0926921
0.0929648
0.0932908
0.0936515
0.0939799
0.0942285
0.0942801
0.0940415
0.0933125
0.0919135
0.0895056
0.0857478
0.0800828
0.0718804
0.0602928
0.0443227
0.0231524
-0.0040248
0.0816702
0.0816333
0.0815417
0.0813883
0.0811575
0.0808087
0.0802926
0.0795259
0.0784282
0.0768643
0.0747173
0.0717769
0.0678846
0.0627389
0.0561743
0.0478403
0.0376871
0.0253639
0.0107003
-0.00792599
0.071003
0.070862
0.0705744
0.0701305
0.0695224
0.0687089
0.0676554
0.0662831
0.0645408
0.0623152
0.0595496
0.0560971
0.0519167
0.0468459
0.040906
0.0339403
0.0260169
0.0167934
0.00591898
-0.0080563
0.0608752
0.0606789
0.0602844
0.0596843
0.0588746
0.0578249
0.0565125
0.0548819
0.052904
0.0505077
0.0476731
0.0443227
0.0404633
0.0360195
0.0310313
0.0253949
0.0191119
0.0118855
0.00340104
-0.00736443
0.0515981
0.0513835
0.0509529
0.0503013
0.0494273
0.048312
0.0469435
0.045289
0.0433354
0.0410439
0.0384116
0.0353993
0.03202
0.0282297
0.0240488
0.0194019
0.0142814
0.00850856
0.00191305
-0.00612631
0.0433149
0.0431052
0.0426849
0.0420501
0.0412006
0.0401263
0.0388228
0.0372728
0.0354722
0.0334001
0.0310586
0.0284246
0.0255075
0.0222791
0.0187548
0.0148948
0.0107163
0.00614087
0.00111418
-0.00469364
0.0360438
0.0358515
0.0354666
0.0348854
0.0341081
0.0331293
0.0319491
0.0305589
0.0289593
0.0271383
0.0250998
0.0228295
0.0203371
0.0176071
0.0146597
0.0114799
0.00810289
0.00450713
0.000724643
-0.00332473
0.0297262
0.0295566
0.0292175
0.0287051
0.0280192
0.0271568
0.0261204
0.024906
0.0235172
0.0219479
0.0202042
0.0182788
0.0161838
0.0139125
0.0114878
0.00890683
0.00621156
0.00341131
0.00059442
-0.00216122
0.0242643
0.0241184
0.0238269
0.0233859
0.0227948
0.0220519
0.0211605
0.0201201
0.0189362
0.0176073
0.0161421
0.0145386
0.0128112
0.0109581
0.00900228
0.00694474
0.00482867
0.00267778
0.000606854
-0.00123154
0.0195477
0.019424
0.0191773
0.0188035
0.0183022
0.0176724
0.0169185
0.0160417
0.0150491
0.0139417
0.01273
0.0114156
0.0100147
0.00852957
0.00698362
0.00538013
0.00375976
0.00214879
0.000665383
-0.000515087
0.0154707
0.0153658
0.0151573
0.0148416
0.0144185
0.0138886
0.0132572
0.0125274
0.0117072
0.0107989
0.00981233
0.00875011
0.00762837
0.00645298
0.00525051
0.00403042
0.00283391
0.00168606
0.000695072
3.36136e-05
0.0119441
0.0118528
0.0116722
0.0113995
0.0110353
0.0105821
0.0100475
0.00943746
0.00876227
0.00802627
0.00723916
0.00640172
0.00552553
0.00461331
0.00369087
0.00277566
0.00192137
0.00116722
0.000619299
0.000427107
0.00890469
0.00881993
0.00865342
0.00840258
0.00806945
0.00765781
0.00717827
0.00664053
0.00606058
0.00544903
0.00482241
0.00418474
0.00354581
0.00289662
0.00224627
0.00159583
0.00100293
0.000535781
0.000353809
0.000643729
0.00632035
0.00623447
0.00606656
0.00581375
0.00547877
0.005065
0.00458469
0.00404874
0.00347946
0.00289518
0.00232963
0.00180467
0.00135521
0.000980641
0.000684431
0.000415396
0.000172902
-2.62058e-05
4.64312e-05
0.000715954
0.00419002
0.00409711
0.00391451
0.00363882
0.00327212
0.00281541
0.00227851
0.00166818
0.00100515
0.000307105
-0.000382102
-0.00101975
-0.00152205
-0.00182137
-0.00182487
-0.00153862
-0.00100876
-0.000430806
0.000201982
0.00128701
0.0025371
0.00243575
0.00223102
0.00192086
0.00150429
0.000980925
0.000351625
-0.000382284
-0.00121681
-0.00214442
-0.00314678
-0.00418762
-0.005192
-0.00602596
-0.00646597
-0.00620856
-0.00494439
-0.00258279
0.000482329
0.00341058
0.00140099
0.00129246
0.00106617
0.000722607
0.000256621
-0.000332279
-0.00105454
-0.00191308
-0.00292655
-0.00410083
-0.00546572
-0.00702546
-0.00880829
-0.0107619
-0.0127816
-0.0144522
-0.0149968
-0.0128942
-0.0063464
0.00589277
0.000823431
0.0007081
0.000468825
0.000104288
-0.000390832
-0.00102117
-0.00179926
-0.00273724
-0.00385996
-0.00519322
-0.0067855
-0.00869215
-0.0110103
-0.0138526
-0.0173809
-0.0216882
-0.0265899
-0.0306988
-0.02906
-0.00603492
0.123483
0.123982
0.125106
0.126762
0.129093
0.132
0.135722
0.14012
0.145563
0.151853
0.159565
0.168403
0.179288
0.191761
0.207385
0.225375
0.248611
0.275582
0.311875
0.354218
0.12333
0.123827
0.124949
0.1266
0.128925
0.131825
0.135538
0.139924
0.145352
0.151622
0.159309
0.168116
0.178958
0.191375
0.206917
0.2248
0.247866
0.2746
0.310508
0.35225
0.123144
0.123641
0.124759
0.126405
0.128724
0.131615
0.135317
0.139686
0.145096
0.151341
0.158996
0.167759
0.178541
0.19088
0.206301
0.224025
0.246824
0.273181
0.30846
0.349191
0.122927
0.123422
0.124537
0.126178
0.128489
0.131369
0.135057
0.139409
0.144796
0.15101
0.158624
0.167335
0.17804
0.190279
0.205539
0.223052
0.245488
0.271333
0.305736
0.345055
0.122679
0.123172
0.124283
0.125917
0.12822
0.131088
0.13476
0.139091
0.144451
0.150629
0.158196
0.166843
0.177454
0.189573
0.204634
0.221886
0.243865
0.269062
0.302347
0.339859
0.122399
0.122891
0.123997
0.125625
0.127917
0.130772
0.134427
0.138733
0.144063
0.1502
0.157712
0.166285
0.176787
0.188763
0.203589
0.22053
0.241959
0.266382
0.298304
0.333625
0.122089
0.12258
0.123681
0.125301
0.127582
0.130422
0.134057
0.138337
0.143633
0.149723
0.157173
0.165661
0.176041
0.187852
0.202408
0.218991
0.239779
0.263303
0.293623
0.326383
0.121748
0.122238
0.123334
0.124946
0.127215
0.130038
0.133652
0.137903
0.143161
0.1492
0.156581
0.164974
0.175217
0.186843
0.201096
0.217272
0.237335
0.259843
0.288319
0.318166
0.121378
0.121866
0.122956
0.12456
0.126816
0.129622
0.133212
0.137431
0.142649
0.14863
0.155937
0.164225
0.174319
0.185737
0.199658
0.215382
0.234636
0.256017
0.282412
0.309013
0.120977
0.121464
0.12255
0.124144
0.126387
0.129174
0.132739
0.136924
0.142097
0.148017
0.155243
0.163416
0.173349
0.184539
0.198101
0.213326
0.231696
0.251843
0.275923
0.298968
0.120548
0.121034
0.122114
0.123699
0.125928
0.128695
0.132233
0.136381
0.141508
0.147361
0.154501
0.16255
0.172311
0.183251
0.196431
0.211112
0.228529
0.24734
0.268876
0.288082
0.12009
0.120576
0.12165
0.123226
0.125439
0.128186
0.131696
0.135805
0.140881
0.146664
0.153713
0.161627
0.171207
0.181878
0.194655
0.208746
0.22515
0.242526
0.261299
0.276407
0.119603
0.12009
0.121159
0.122726
0.124923
0.127648
0.131127
0.135196
0.14022
0.145927
0.15288
0.160651
0.170043
0.180423
0.19278
0.206236
0.221578
0.23742
0.253223
0.264001
0.119089
0.119577
0.120641
0.122198
0.124379
0.127081
0.13053
0.134556
0.139524
0.145153
0.152006
0.159625
0.16882
0.178891
0.190814
0.203591
0.217832
0.232038
0.244685
0.250919
0.118549
0.119038
0.120098
0.121645
0.123809
0.126488
0.129904
0.133885
0.138796
0.144342
0.15109
0.158551
0.167541
0.177286
0.188764
0.200817
0.213932
0.226399
0.235731
0.237211
0.117982
0.118474
0.119529
0.121067
0.123213
0.125868
0.129249
0.133185
0.138034
0.143495
0.150133
0.157427
0.166205
0.175607
0.18663
0.19792
0.209894
0.220515
0.226417
0.222916
0.117389
0.117885
0.118936
0.120466
0.122594
0.125225
0.12857
0.132458
0.137244
0.142616
0.149139
0.156261
0.16482
0.173864
0.184423
0.194911
0.205739
0.214401
0.216813
0.20806
0.116772
0.117274
0.118324
0.119846
0.121958
0.124567
0.127878
0.131722
0.136448
0.141734
0.148147
0.155096
0.163441
0.172118
0.182215
0.191863
0.201547
0.208096
0.206956
0.192529
0.116129
0.116639
0.11769
0.119208
0.121308
0.123898
0.127182
0.130987
0.135659
0.140867
0.147177
0.15396
0.162096
0.170405
0.180042
0.188812
0.197348
0.201602
0.196842
0.175558
0.115458
0.115969
0.117011
0.118516
0.120586
0.123141
0.126367
0.130107
0.134679
0.13977
0.145905
0.152473
0.160294
0.168182
0.17723
0.185114
0.192447
0.194566
0.186747
0.157442
0.120089
0.120624
0.121722
0.123336
0.125554
0.128325
0.131812
0.135908
0.140891
0.146533
0.153299
0.160706
0.169503
0.178674
0.189291
0.199165
0.209176
0.214439
0.211561
0.187871
0.120533
0.121065
0.12217
0.123793
0.126034
0.128829
0.13236
0.136503
0.141565
0.147297
0.154206
0.16179
0.170857
0.180388
0.191533
0.202193
0.213316
0.220558
0.220638
0.204738
0.120947
0.121472
0.122576
0.124199
0.126445
0.129249
0.132794
0.136956
0.142049
0.147828
0.154804
0.162503
0.171725
0.181547
0.193071
0.204493
0.216645
0.226047
0.229592
0.220517
0.121335
0.121855
0.122958
0.124585
0.126841
0.129657
0.133222
0.137412
0.142543
0.14838
0.155434
0.163261
0.172649
0.182768
0.194679
0.206837
0.220013
0.231396
0.238272
0.234724
0.121696
0.122213
0.123318
0.12495
0.127217
0.130047
0.133636
0.137856
0.14303
0.148929
0.156066
0.164024
0.173585
0.183996
0.196298
0.209159
0.223355
0.236562
0.246671
0.248194
0.122031
0.122544
0.123653
0.125289
0.127567
0.130411
0.134021
0.13827
0.143485
0.149442
0.156659
0.164741
0.174466
0.185156
0.197837
0.211364
0.226568
0.241484
0.254757
0.261066
0.122338
0.122849
0.12396
0.125601
0.127889
0.130746
0.134376
0.138652
0.143904
0.149916
0.157206
0.165404
0.175285
0.186236
0.199285
0.213439
0.229631
0.246151
0.26247
0.273307
0.122616
0.123126
0.124239
0.125885
0.128182
0.131051
0.134699
0.139
0.144287
0.15035
0.157708
0.166015
0.176045
0.18724
0.200643
0.215381
0.232533
0.250549
0.269752
0.284878
0.122866
0.123374
0.12449
0.12614
0.128446
0.131325
0.134991
0.139314
0.144634
0.150743
0.158166
0.166574
0.176743
0.188164
0.201905
0.217184
0.235255
0.25466
0.276561
0.295737
0.123087
0.123594
0.124713
0.126366
0.128679
0.131569
0.13525
0.139594
0.144942
0.151095
0.158577
0.167076
0.177376
0.189004
0.203065
0.218838
0.237777
0.258467
0.282859
0.305833
0.123278
0.123784
0.124905
0.126562
0.128882
0.131781
0.135475
0.139837
0.145212
0.151403
0.158939
0.16752
0.177941