/*--------------------------------*- C++ -*----------------------------------*\
  =========                 |
  \\      /  F ield         | OpenFOAM: The Open Source CFD Toolbox
   \\    /   O peration     | Website:  https://openfoam.org
    \\  /    A nd           | Version:  6.0
     \\/     M anipulation  |
\*---------------------------------------------------------------------------*/
FoamFile
{
    version     2.0;
    format      ascii;
    class       surfaceScalarField;
    location    "14.8";
    object      phi;
}
// * * * * * * * * * * * * * * * * * * * * * * * * * * * * * * * * * * * * * //

dimensions      [0 3 -1 0 0 0 0];

internalField   nonuniform List<scalar> 
15760
(
-3.26529e-06
3.11626e-06
1.4903e-07
-1.14819e-05
7.8487e-06
3.67918e-07
-2.34495e-05
1.14401e-05
5.2751e-07
-3.82188e-05
1.4128e-05
6.41293e-07
-5.50476e-05
1.61086e-05
7.20156e-07
-7.337e-05
1.75494e-05
7.73061e-07
-9.27709e-05
1.85937e-05
8.07249e-07
-0.000112964
1.93642e-05
8.28451e-07
-0.000133771
1.99664e-05
8.41097e-07
-0.00015511
2.04903e-05
8.48534e-07
-0.000176976
2.10128e-05
8.53219e-07
-0.000199431
2.15985e-05
8.56903e-07
-0.000222592
2.23003e-05
8.60783e-07
-0.000246618
2.31596e-05
8.65629e-07
-0.000271696
2.42067e-05
8.71881e-07
-0.000298037
2.5461e-05
8.79724e-07
-0.000325857
2.69308e-05
8.89121e-07
-0.00035537
2.86133e-05
8.99856e-07
-0.000386781
3.04991e-05
9.11636e-07
3.25813e-05
9.24165e-07
-0.000420286
-3.23364e-06
6.3499e-06
-1.13729e-05
1.59879e-05
-2.32234e-05
2.32906e-05
-3.78367e-05
2.87413e-05
-5.44677e-05
3.27397e-05
-7.2546e-05
3.56276e-05
-9.16493e-05
3.7697e-05
-0.000111483
3.91976e-05
-0.00013186
4.03433e-05
-0.000152687
4.13175e-05
-0.00017395
4.22764e-05
-0.000195703
4.33515e-05
-0.000218055
4.46516e-05
-0.000241157
4.62624e-05
-0.000265199
4.82478e-05
-0.000290387
5.06492e-05
-0.000316942
5.34862e-05
-0.000345085
5.67558e-05
-0.000375026
6.044e-05
6.45252e-05
-0.00040697
-3.17138e-06
9.52129e-06
-1.11578e-05
2.39743e-05
-2.2777e-05
3.49098e-05
-3.70822e-05
4.30465e-05
-5.3324e-05
4.89815e-05
-7.09224e-05
5.3226e-05
-8.94424e-05
5.62169e-05
-0.000108573
5.83277e-05
-0.000128108
5.98788e-05
-0.000147936
6.11451e-05
-0.000168022
6.23624e-05
-0.000188401
6.37308e-05
-0.000209166
6.54173e-05
-0.000230461
6.75566e-05
-0.000252464
7.0251e-05
-0.000275385
7.35707e-05
-0.000299451
7.75522e-05
-0.000324893
8.21977e-05
-0.000351938
8.74851e-05
9.33941e-05
-0.000380807
-3.08356e-06
1.26048e-05
-1.08522e-05
3.1743e-05
-2.21403e-05
4.61979e-05
-3.60037e-05
5.69099e-05
-5.16873e-05
6.4665e-05
-6.85983e-05
7.0137e-05
-8.62833e-05
7.39019e-05
-0.000104408
7.64522e-05
-0.00012274
7.82109e-05
-0.000141137
7.95424e-05
-0.000159536
8.07612e-05
-0.000177942
8.21374e-05
-0.000196426
8.39003e-05
-0.000215108
8.62393e-05
-0.000234161
8.93037e-05
-0.000253791
9.32011e-05
-0.000274235
9.79955e-05
-0.000295741
0.000103704
-0.000318564
0.000110308
0.000117783
-0.000342953
-2.97687e-06
1.55817e-05
-1.04768e-05
3.92429e-05
-2.13533e-05
5.70744e-05
-3.46657e-05
7.02223e-05
-4.96522e-05
7.96516e-05
-6.57056e-05
8.61904e-05
-8.23501e-05
9.05465e-05
-9.92229e-05
9.33249e-05
-0.000116058
9.50459e-05
-0.000132675
9.61591e-05
-0.000148969
9.70558e-05
-0.000164909
9.8077e-05
-0.000180526
9.9518e-05
-0.000195917
0.00010163
-0.000211234
0.00010462
-0.000226679
0.000108647
-0.0002425
0.000113816
-0.000258972
0.000120176
-0.000276388
0.000127724
0.000136438
-0.000295043
-2.85876e-06
1.84405e-05
-1.00545e-05
4.64387e-05
-2.046e-05
6.74799e-05
-3.31387e-05
8.2901e-05
-4.73229e-05
9.38358e-05
-6.23903e-05
0.000101258
-7.78416e-05
0.000105998
-9.3282e-05
0.000108765
-0.000108406
0.00011017
-0.000122988
0.000110741
-0.000136875
0.000110942
-0.000149982
0.000111184
-0.000162295
0.000111831
-0.000173869
0.000113204
-0.000184827
0.000115578
-0.000195362
0.000119182
-0.000205729
0.000124184
-0.000216238
0.000130685
-0.000227235
0.000138721
0.00014829
-0.000239086
-2.73636e-06
2.11768e-05
-9.60704e-06
5.33094e-05
-1.95018e-05
7.73747e-05
-3.14891e-05
9.48883e-05
-4.47968e-05
0.000107144
-5.87895e-05
0.00011525
-7.29454e-05
0.000120154
-8.68377e-05
0.000122658
-0.00010012
0.000123452
-0.000112514
0.000123136
-0.000123811
0.000122239
-0.000133864
0.000121237
-0.000142597
0.000120563
-0.000150007
0.000120614
-0.000156176
0.000121747
-0.000161272
0.000124278
-0.000165554
0.000128466
-0.000169367
0.000134498
-0.000173131
0.000142484
0.000152471
-0.000177312
-2.61536e-06
2.37922e-05
-9.1513e-06
5.98453e-05
-1.85106e-05
8.6734e-05
-2.97669e-05
0.000106145
-4.2147e-05
0.000119524
-5.50058e-05
0.000128109
-6.78037e-05
0.000132952
-8.00849e-05
0.000134939
-9.14626e-05
0.00013483
-0.000101609
0.000133282
-0.000110249
0.00013088
-0.000117168
0.000128156
-0.000122211
0.000125607
-0.000125302
0.000123706
-0.000126459
0.000122904
-0.000125807
0.000123625
-0.000123593
0.000126251
-0.000120196
0.000131101
-0.000116121
0.00013841
0.000148326
-0.000111975
-2.49918e-06
2.62914e-05
-8.69671e-06
6.60429e-05
-1.75024e-05
9.55397e-05
-2.79956e-05
0.000116638
-3.94051e-05
0.000130933
-5.10827e-05
0.000139787
-6.24773e-05
0.000144346
-7.31119e-05
0.000145573
-8.25657e-05
0.000144284
-9.04629e-05
0.000141179
-9.64676e-05
0.000136885
-0.000100286
0.000131974
-0.000101679
0.000126999
-0.000100476
0.000122502
-9.66036e-05
0.000119032
-9.01163e-05
0.000117138
-8.12254e-05
0.000117361
-7.03285e-05
0.000120204
-5.80253e-05
0.000126107
0.000135405
-4.51043e-05
-2.38834e-06
2.86797e-05
-8.24304e-06
7.18976e-05
-1.64735e-05
0.00010377
-2.61638e-05
0.000126328
-3.65487e-05
0.000141318
-4.69836e-05
0.000150222
-5.69149e-05
0.000154278
-6.58548e-05
0.000154513
-7.33601e-05
0.000151789
-7.90175e-05
0.000146837
-8.24366e-05
0.000140304
-8.32502e-05
0.000132788
-8.11248e-05
0.000124874
-7.57826e-05
0.00011716
-6.70353e-05
0.000110284
-5.48294e-05
0.000104932
-3.93012e-05
0.000101832
-2.08355e-05
0.000101738
-1.19994e-07
0.000105391
0.000113452
2.18328e-05
-2.28033e-06
3.09601e-05
-7.77985e-06
7.73971e-05
-1.53983e-05
0.000111389
-2.42222e-05
0.000135152
-3.34944e-05
0.00015059
-4.25797e-05
0.000159307
-5.09319e-05
0.00016263
-5.80647e-05
0.000161646
-6.35274e-05
0.000157252
-6.6886e-05
0.000150195
-6.77118e-05
0.000141129
-6.55769e-05
0.000130653
-6.00618e-05
0.000119359
-5.07759e-05
0.000107874
-3.73959e-05
9.69045e-05
-1.9725e-05
8.72608e-05
2.22601e-06
7.98813e-05
2.81378e-05
7.58266e-05
5.72666e-05
7.62623e-05
8.23739e-05
8.83446e-05
-2.17008e-06
3.31301e-05
-7.28764e-06
8.25147e-05
-1.42316e-05
0.000118332
-2.20854e-05
0.000143006
-3.00991e-05
0.000158604
-3.765e-05
0.000166858
-4.42063e-05
0.000169186
-4.9295e-05
0.000166735
-5.24739e-05
0.000160431
-5.33093e-05
0.000151031
-5.13582e-05
0.000139178
-4.61583e-05
0.000125453
-3.72274e-05
0.000110428
-2.4077e-05
9.4724e-05
-6.24749e-06
7.9075e-05
1.66261e-05
6.43873e-05
4.47105e-05
5.17969e-05
7.78248e-05
4.27123e-05
0.000115236
3.88512e-05
4.21895e-05
0.00015542
-2.05081e-06
3.51809e-05
-6.74047e-06
8.72043e-05
-1.29131e-05
0.000124505
-1.96397e-05
0.000149733
-2.61712e-05
0.000165135
-3.18951e-05
0.000172582
-3.62956e-05
0.000173587
-3.89195e-05
0.000169359
-3.9346e-05
0.000160857
-3.71616e-05
0.000148846
-3.1938e-05
0.000133955
-2.32153e-05
0.00011673
-1.04907e-05
9.77031e-05
6.78029e-06
7.74529e-05
2.91622e-05
5.6693e-05
5.71821e-05
3.63674e-05
9.12171e-05
1.77619e-05
0.000131304
2.6251e-06
0.00017683
-6.67441e-06
-7.05275e-06
0.000226072
-1.91531e-06
3.70963e-05
-6.10967e-06
9.13987e-05
-1.13751e-05
0.000129771
-1.67553e-05
0.000155113
-2.14895e-05
0.00016987
-2.49652e-05
0.000176057
-2.66754e-05
0.000175297
-2.61833e-05
0.000168867
-2.30933e-05
0.000157767
-1.70249e-05
0.000142778
-7.58991e-06
0.00012452
5.629e-06
0.000103512
2.30983e-05
8.02338e-05
4.53479e-05
5.52033e-05
7.29723e-05
2.90686e-05
0.000106599
2.74048e-06
0.000146796
-2.24349e-05
0.00019387
-4.44492e-05
0.000247467
-6.02713e-05
-6.5406e-05
0.00030582
-1.75711e-06
3.88534e-05
-5.36761e-06
9.50092e-05
-9.55013e-06
0.000133953
-1.33003e-05
0.000158863
-1.58264e-05
0.000172396
-1.64961e-05
0.000176727
-1.47928e-05
0.000173593
-1.02806e-05
0.000164355
-2.57757e-06
0.000150064
8.66596e-06
0.000131534
2.37867e-05
0.000109399
4.31282e-05
8.41701e-05
6.70626e-05
5.62994e-05
9.60167e-05
2.62492e-05
0.000130497
-5.41145e-06
0.000171098
-3.78607e-05
0.000218465
-6.98017e-05
0.000273141
-9.91251e-05
0.000335152
-0.000122283
-0.000133214
0.000402961
-1.57128e-06
4.04246e-05
-4.49031e-06
9.79282e-05
-7.37655e-06
0.000136839
-9.15216e-06
0.000160639
-8.96756e-06
0.000172211
-6.14299e-06
0.000173903
-1.2266e-07
0.000167573
9.55835e-06
0.000154674
2.32962e-05
0.000136326
4.14328e-05
0.000113398
6.42656e-05
8.65662e-05
9.20573e-05
5.63784e-05
0.000125049
2.33076e-05
0.000163484
-1.21858e-05
0.000207644
-4.95711e-05
0.000257895
-8.81122e-05
0.000314727
-0.000126633
0.000378717
-0.000163115
0.000450266
-0.000193832
-0.000211334
0.000528386
-1.35443e-06
4.17791e-05
-3.45766e-06
0.000100031
-4.80034e-06
0.000138182
-4.20154e-06
0.00016004
-7.2254e-07
0.000168732
6.39833e-06
0.000166782
1.77936e-05
0.000156178
3.3998e-05
0.000138469
5.54647e-05
0.000114859
8.25702e-05
8.62922e-05
0.000115612
5.35247e-05
0.000154799
1.71911e-05
0.000200248
-2.21418e-05
0.000251984
-6.39217e-05
0.000309961
-0.000107547
0.000374115
-0.000152266
0.000444455
-0.000196974
0.000521168
-0.000239828
0.000604656
-0.00027732
-0.00030142
0.000694741
-1.10373e-06
4.28828e-05
-2.25084e-06
0.000101179
-1.77054e-06
0.000137702
1.65275e-06
0.000156616
9.08057e-06
0.000161304
2.13933e-05
0.000154469
3.93411e-05
0.00013823
6.35729e-05
0.000114237
9.46478e-05
8.37845e-05
0.000133031
4.79093e-05
0.000179076
7.47941e-06
0.000233001
-3.6734e-05
0.000294854
-8.39948e-05
0.000364479
-0.000133547
0.000441493
-0.000184561
0.000525288
-0.000236061
0.000615102
-0.000286788
0.000710166
-0.000334892
0.000810005
-0.000377159
-0.000406781
0.000915366
-8.15099e-07
4.36979e-05
-8.47125e-07
0.000101211
1.77005e-06
0.000135085
8.51826e-06
0.000149868
2.06146e-05
0.000149208
3.90931e-05
0.00013599
6.48581e-05
0.000112465
9.87121e-05
8.03834e-05
0.000141362
4.11342e-05
0.00019341
-4.13876e-06
0.000255327
-5.44371e-05
0.000327415
-0.000108822
0.000409761
-0.000166341
0.000502168
-0.000225954
0.000604074
-0.000286467
0.000714456
-0.000346442
0.000831734
-0.000404067
0.000953715
-0.000456872
0.00107781
-0.000501259
-0.000533886
0.00120492
-4.81014e-07
4.41789e-05
7.86283e-07
9.99433e-05
5.89656e-06
0.000129974
1.65273e-05
0.000139237
3.408e-05
0.000131655
5.977e-05
0.0001103
9.46809e-05
7.75541e-05
0.00013979
3.52747e-05
0.000195969
-1.50449e-05
0.000263973
-7.21432e-05
0.000344417
-0.000134881
0.000437744
-0.00020215
0.000544202
-0.000272799
0.000663805
-0.000345557
0.000796288
-0.00041895
0.000941021
-0.000491175
0.0010968
-0.000559848
0.00126112
-0.000621194
0.00142742
-0.000667555
-0.00068179
0.00157532
-8.94434e-08
4.42684e-05
2.69633e-06
9.71575e-05
1.07104e-05
0.00012196
2.58508e-05
0.000124097
4.97254e-05
0.000107781
8.37458e-05
7.628e-05
0.000129179
3.21211e-05
0.000187164
-2.27105e-05
0.000258707
-8.6588e-05
0.000344662
-0.000158098
0.000445711
-0.000235929
0.000562355
-0.000318795
0.000694934
-0.000405378
0.000843683
-0.000494305
0.00100888
-0.000584143
0.00119111
-0.000673413
0.00139186
-0.000760593
0.0016147
-0.000844039
0.00186931
-0.000922162
-0.000990154
0.00217768
3.79698e-07
4.38887e-05
4.95046e-06
9.25868e-05
1.63473e-05
0.000110563
3.67076e-05
0.000103737
6.78563e-05
7.66318e-05
0.000111399
3.27374e-05
0.000168761
-2.52406e-05
0.000241188
-9.51374e-05
0.000329723
-0.000175123
0.000435175
-0.00026355
0.000558087
-0.000358842
0.000698732
-0.00045944
0.000857131
-0.000563776
0.00103312
-0.000670293
0.00122647
-0.000777493
0.00143708
-0.000884029
0.00166531
-0.000988818
0.00191244
-0.00109117
0.00218108
-0.0011908
-0.00127985
0.00247077
9.49921e-07
4.29387e-05
7.62765e-06
8.5909e-05
2.29641e-05
9.52269e-05
4.93444e-05
7.73564e-05
8.88067e-05
3.71695e-05
0.000143123
-2.15792e-05
0.000213818
-9.59348e-05
0.000302137
-0.000183457
0.000409007
-0.000281994
0.000534976
-0.000389518
0.000680177
-0.000504043
0.000844319
-0.000623581
0.00102671
-0.000746163
0.0012263
-0.000869888
0.00144182
-0.000993008
0.00167181
-0.00111402
0.0019148
-0.0012318
0.00216928
-0.00134565
0.00243363
-0.00145516
-0.00155218
0.00270597
1.64888e-06
4.12899e-05
1.08159e-05
7.67421e-05
3.07283e-05
7.53145e-05
6.40127e-05
4.4072e-05
0.000112895
-1.17124e-05
0.000179254
-8.79382e-05
0.000264605
-0.000181287
0.000370042
-0.000288894
0.000496154
-0.000408106
0.000642967
-0.000536331
0.000809905
-0.000670982
0.0009958
-0.000809477
0.00119894
-0.000949308
0.00141718
-0.00108813
0.00164802
-0.00122385
0.00188874
-0.00135475
0.00213647
-0.00147953
0.0023882
-0.00159738
0.00264087
-0.00170783
-0.00180435
0.00289304
2.50464e-06
3.87852e-05
1.46009e-05
6.46458e-05
3.97952e-05
5.01202e-05
8.09276e-05
2.93958e-06
0.000140354
-7.11389e-05
0.000219959
-0.000167543
0.000321092
-0.00028242
0.000444471
-0.000412272
0.000590086
-0.00055372
0.000757145
-0.000703391
0.000944074
-0.000857911
0.00114858
-0.00101399
0.00136779
-0.00116852
0.00159839
-0.00131873
0.00183683
-0.00146229
0.00207947
-0.00159739
0.00232271
-0.00172277
0.00256306
-0.00183773
0.00279729
-0.00194206
-0.00203134
0.00302428
3.54255e-06
3.52427e-05
1.90558e-05
4.91326e-05
5.02844e-05
1.88916e-05
0.000100226
-4.70017e-05
0.000171268
-0.000142181
0.000265146
-0.000261421
0.000382823
-0.000400097
0.000524371
-0.000553819
0.000688878
-0.000718228
0.000874446
-0.000888959
0.00107827
-0.00106174
0.00129682
-0.00123253
0.00152605
-0.00139775
0.0017617
-0.00155438
0.00199952
-0.0017001
0.00223547
-0.00183334
0.00246593
-0.00195323
0.00268774
-0.00205954
0.00289832
-0.00215264
-0.00223016
0.00309715
4.78265e-06
3.046e-05
2.42312e-05
2.9684e-05
6.226e-05
-1.91372e-05
0.000121929
-0.000106671
0.000205513
-0.000225765
0.00031438
-0.000370288
0.000448833
-0.000534551
0.000607987
-0.000712973
0.000789728
-0.000899969
0.000990821
-0.00109005
0.00120712
-0.00127804
0.0014339
-0.00145931
0.0016662
-0.00163004
0.00189917
-0.00178734
0.00212838
-0.00192931
0.00235003
-0.00205499
0.00256107
-0.00216427
0.00275925
-0.00225772
0.00294309
-0.00233649
-0.00239991
0.00311284
6.23793e-06
2.42221e-05
3.01492e-05
5.77281e-06
7.57156e-05
-6.47036e-05
0.000145921
-0.000176877
0.000242721
-0.000322565
0.000366848
-0.000494414
0.000517626
-0.000685329
0.000692895
-0.000888241
0.000889097
-0.00109617
0.00110155
-0.0013025
0.00132483
-0.00150132
0.00155328
-0.00168776
0.00178143
-0.00185819
0.0020044
-0.00201032
0.00221817
-0.00214308
0.00241972
-0.00225653
0.00260703
-0.00235159
0.00277907
-0.00242977
0.00293561
-0.00249303
-0.00254207
0.00307777
7.91348e-06
1.63086e-05
3.67989e-05
-2.31126e-05
9.05648e-05
-0.00011847
0.00017193
-0.000258242
0.000282271
-0.000432906
0.000421362
-0.000633506
0.000587219
-0.000851186
0.00077614
-0.00107716
0.000982993
-0.00130303
0.00120171
-0.00152122
0.00142587
-0.00172549
0.00164933
-0.00191122
0.00186668
-0.00207554
0.00207358
-0.00221721
0.00226694
-0.00233644
0.00244489
-0.00243449
0.0026067
-0.0025134
0.00275257
-0.00257563
0.00288337
-0.00262383
-0.00265965
0.00300095
9.80613e-06
6.5025e-06
4.41349e-05
-5.74413e-05
0.000106638
-0.000180973
0.000199527
-0.000351131
0.000323289
-0.000556668
0.000476399
-0.000786616
0.000655261
-0.00103005
0.000854468
-0.00127637
0.00106736
-0.00151591
0.00128674
-0.0017406
0.00150568
-0.00194443
0.00171811
-0.00212365
0.00191925
-0.00227668
0.00210582
-0.00240378
0.00227598
-0.0025066
0.0024292
-0.00258771
0.00256597
-0.00265017
0.00268752
-0.00269719
0.00279554
-0.00273185
-0.00275642
0.00289231
1.19043e-05
-5.40183e-06
5.20761e-05
-9.7613e-05
0.000123682
-0.000252579
0.000228135
-0.000455584
0.000364687
-0.000693219
0.000530182
-0.000952111
0.000719199
-0.00121907
0.000924619
-0.00148179
0.00113849
-0.00172978
0.00135297
-0.00195509
0.00156119
-0.00215264
0.00175773
-0.0023202
0.00193896
-0.00245791
0.00210294
-0.00256776
0.00224921
-0.00265287
0.00237849
-0.00271698
0.00249225
-0.00276394
0.00259245
-0.00279739
0.0026812
-0.0028206
-0.00283613
0.00276091
1.41879e-05
-1.95897e-05
6.05059e-05
-0.000143931
0.000141364
-0.000333437
0.000257042
-0.000571262
0.000405206
-0.000841383
0.000580796
-0.0011277
0.000776488
-0.00141476
0.000983638
-0.00168894
0.00119344
-0.00193958
0.00139799
-0.00215964
0.00159105
-0.0023457
0.00176839
-0.00249754
0.00192779
-0.00261732
0.00206876
-0.00270872
0.00219211
-0.00277622
0.00229952
-0.00282439
0.00239315
-0.00285757
0.00247531
-0.00287955
0.00254824
-0.00289354
-0.0029021
0.00261421
1.66275e-05
-3.62172e-05
6.92732e-05
-0.000196577
0.000159276
-0.00042344
0.000285432
-0.000697418
0.000443492
-0.000999443
0.000626329
-0.00131054
0.000824815
-0.00161324
0.00102916
-0.00189328
0.00123026
-0.00214069
0.00142077
-0.00235015
0.00159561
-0.00252054
0.00175202
-0.00265395
0.00188929
-0.00275458
0.00200823
-0.00282766
0.00211066
-0.00287865
0.00219893
-0.00291266
0.00227551
-0.00293415
0.00234279
-0.00294683
0.00240289
-0.00295364
-0.00295699
0.00245778
1.91849e-05
-5.54022e-05
7.81942e-05
-0.000255586
0.000176955
-0.000522201
0.000312421
-0.000832884
0.000478182
-0.0011652
0.000665023
-0.00149738
0.000862297
-0.00181052
0.00105959
-0.00209057
0.00124814
-0.00232923
0.00142167
-0.00252368
0.0015766
-0.00267547
0.00171174
-0.0027891
0.00182778
-0.00287062
0.00192657
-0.00292645
0.00201061
-0.00296269
0.00208258
-0.00298462
0.00214499
-0.00299657
0.0022001
-0.00300193
0.00224976
-0.0030033
-0.00300282
0.00229559
2.18126e-05
-7.72147e-05
8.70574e-05
-0.000320831
0.000193893
-0.000629037
0.000337114
-0.000976105
0.000508001
-0.00133609
0.00069541
-0.00168479
0.000887623
-0.00200273
0.00107421
-0.00227716
0.00124732
-0.00250234
0.00140212
-0.00267848
0.00153668
-0.00281003
0.0016513
-0.00290372
0.00174778
-0.00296709
0.00182872
-0.00300739
0.00189697
-0.00303095
0.00195525
-0.00304291
0.00200595
-0.00304727
0.00205103
-0.003047
0.00209205
-0.00304432
-0.00304105
0.00213028
2.44547e-05
-0.000101669
9.56304e-05
-0.000392007
0.000209568
-0.000742975
0.000358651
-0.00112519
0.000531852
-0.00150929
0.00071642
-0.00186936
0.00090013
-0.00218644
0.00107313
-0.00245017
0.00122892
-0.00265812
0.00136434
-0.00281391
0.00147903
-0.00292472
0.00157455
-0.00299923
0.00165352
-0.00304607
0.00171897
-0.00307285
0.00177383
-0.0030858
0.00182066
-0.00308974
0.00186158
-0.00308819
0.00189825
-0.00308367
0.00193193
-0.003078
-0.00307267
0.00196355
2.70489e-05
-0.000128718
0.00010367
-0.000468628
0.000223471
-0.000862776
0.00037627
-0.00127799
0.00054889
-0.00168191
0.000727439
-0.00204791
0.00089978
-0.00235878
0.00105716
-0.00260755
0.0011947
-0.00279566
0.00131094
-0.00293014
0.0014069
-0.00302068
0.00148512
-0.00307745
0.00154872
-0.00310967
0.00160087
-0.00312499
0.00164437
-0.0031293
0.00168153
-0.0031269
0.00171415
-0.00312081
0.00174358
-0.0031131
0.0017708
-0.00310521
-0.00309836
0.00179649
2.95282e-05
-0.000158246
0.000110934
-0.000550033
0.000235132
-0.000986974
0.000389352
-0.00143221
0.000558573
-0.00185113
0.000728311
-0.00221764
0.000887085
-0.00251756
0.00102762
-0.00274809
0.00114678
-0.00291482
0.00124464
-0.00302801
0.0013234
-0.00309943
0.0013862
-0.00314025
0.00143643
-0.0031599
0.00147717
-0.00316573
0.00151097
-0.0031631
0.00153983
-0.00315576
0.00156522
-0.00314621
0.00158822
-0.0031361
0.00160956
-0.00312655
-0.00311854
0.00162974
3.18242e-05
-0.000190071
0.000117191
-0.0006354
0.000244153
-0.00111394
0.000397457
-0.00158551
0.000560669
-0.00201434
0.000719293
-0.00237627
0.000862981
-0.00266124
0.000986158
-0.00287126
0.00108738
-0.00301604
0.00116808
-0.00310871
0.00123127
-0.00316262
0.00128049
-0.00318946
0.0013191
-0.00319851
0.00134998
-0.00319661
0.00137536
-0.00318849
0.00139692
-0.00317732
0.00141584
-0.00316513
0.00143295
-0.00315321
0.0014488
-0.0031424
-0.00313348
0.00146374
3.38698e-05
-0.000223941
0.000122238
-0.000723768
0.000250223
-0.00124192
0.000400336
-0.00173562
0.000555245
-0.00216925
0.000700984
-0.00252201
0.00082869
-0.00278895
0.000934563
-0.00297714
0.00101871
-0.00310019
0.00108363
-0.00317364
0.00113289
-0.00321188
0.00117015
-0.00322672
0.00119861
-0.00322698
0.00122086
-0.00321885
0.00123879
-0.00320642
0.00125377
-0.0031923
0.00126672
-0.00317808
0.00127828
-0.00316477
0.00128887
-0.00315299
-0.00314333
0.00129873
3.56062e-05
-0.000259547
0.000125911
-0.000814073
0.000253146
-0.00136916
0.000397949
-0.00188043
0.000542637
-0.00231394
0.000674245
-0.00265361
0.000785607
-0.00290031
0.000874649
-0.00306618
0.00094281
-0.00316835
0.00099338
-0.00322421
0.00103021
-0.00324871
0.0010569
-0.00325341
0.00107641
-0.00324648
0.00109096
-0.0032334
0.00110213
-0.0032176
0.00111102
-0.00320119
0.00111834
-0.00318541
0.00112458
-0.00317101
0.00113005
-0.00315846
-0.00314819
0.00113491
3.69717e-05
-0.000296519
0.000128069
-0.00090517
0.000252805
-0.00149389
0.000390394
-0.00201802
0.00052334
-0.00244689
0.000640042
-0.00277032
0.000735118
-0.00299539
0.000808081
-0.00313914
0.000861444
-0.00322171
0.000899024
-0.00326179
0.000924754
-0.00327444
0.000942036
-0.00327069
0.000953508
-0.00325795
0.00096106
-0.00324095
0.000965978
-0.00322252
0.000969112
-0.00320432
0.000971021
-0.00318731
0.000972072
-0.00317206
0.000972496
-0.00315888
-0.0031481
0.000972407
3.79236e-05
-0.000334442
0.000128636
-0.000995882
0.000249212
-0.00161447
0.000377952
-0.00214675
0.00049803
-0.00256696
0.000599458
-0.00287175
0.000678621
-0.00307455
0.000736416
-0.00319694
0.000776173
-0.00326147
0.000802001
-0.00328762
0.000817755
-0.0032902
0.000826558
-0.00327949
0.000830705
-0.0032621
0.000831766
-0.00324201
0.000830769
-0.00322152
0.00082837
-0.00320192
0.000825
-0.00318394
0.00082094
-0.003168
0.000816365
-0.00315431
-0.00314309
0.000811355
3.84269e-05
-0.000372869
0.000127577
-0.00108503
0.000242467
-0.00172936
0.000361006
-0.00226529
0.000467452
-0.00267341
0.000553569
-0.00295786
0.000617402
-0.00313838
0.000661007
-0.00324054
0.000688288
-0.00328875
0.000703451
-0.00330278
0.000710157
-0.0032969
0.000711208
-0.00328054
0.000708559
-0.00325945
0.000703492
-0.00323695
0.000696812
-0.00321484
0.000689025
-0.00319414
0.000680459
-0.00317538
0.000671333
-0.00315887
0.000661781
-0.00314476
-0.00313317
0.000651865
3.84586e-05
-0.000411328
0.000124902
-0.00117147
0.000232744
-0.0018372
0.000340019
-0.00237257
0.000432386
-0.00276578
0.000503403
-0.00302888
0.000552619
-0.0031876
0.000583013
-0.00327093
0.000598844
-0.00330458
0.000604269
-0.0033082
0.000602679
-0.00329531
0.000596535
-0.0032744
0.000587479
-0.0032504
0.000576536
-0.003226
0.000564332
-0.00320264
0.000551248
-0.00318105
0.000537537
-0.00316167
0.000523369
-0.00314471
0.000508856
-0.00313024
-0.00311836
0.000494042
3.80079e-05
-0.000449336
0.000120661
-0.00125413
0.000220281
-0.00193682
0.0003155
-0.00246779
0.000393604
-0.00284388
0.000449913
-0.00308519
0.000485288
-0.00322297
0.000503404
-0.00328905
0.000508694
-0.00330987
0.000505154
-0.00330466
0.000495861
-0.00328602
0.000482945
-0.00326148
0.00046776
-0.00323521
0.000451118
-0.00320936
0.000433494
-0.00318501
0.000415173
-0.00316273
0.000396347
-0.00314284
0.000377154
-0.00312551
0.000357687
-0.00311078
-0.00309866
0.000337987
3.70753e-05
-0.000486411
0.00011494
-0.00133199
0.000205357
-0.00202724
0.000287973
-0.0025504
0.000351846
-0.00290775
0.00039396
-0.0031273
0.000416283
-0.0032453
0.000422983
-0.00329575
0.000418517
-0.00330541
0.000406643
-0.00329279
0.00039011
-0.00326949
0.000370734
-0.00324211
0.00034962
-0.0032141
0.000327399
-0.00318714
0.000304425
-0.00316204
0.000280905
-0.00313921
0.000256985
-0.00311892
0.000232777
-0.00310131
0.000208364
-0.00308636
-0.00307408
0.000183789
3.56723e-05
-0.000522083
0.000107851
-0.00140417
0.000188277
-0.00210766
0.000257961
-0.00262009
0.000307798
-0.00295759
0.000336302
-0.00315581
0.000346344
-0.00325534
0.000342405
-0.00329181
0.000328849
-0.00329185
0.00030915
-0.00327309
0.000285731
-0.00324607
0.000260123
-0.0032165
0.000233218
-0.00318719
0.0002055
-0.00315942
0.000177222
-0.00313376
0.00014853
-0.00311052
0.00011953
-0.00308992
9.03141e-05
-0.00307209
6.09641e-05
-0.00305701
-0.00304465
3.1528e-05
3.38199e-05
-0.000555903
9.95252e-05
-0.00146988
0.000169356
-0.0021775
0.000225965
-0.0026767
0.000262086
-0.00299371
0.000277601
-0.00317132
0.000276093
-0.00325383
0.0002622
-0.00327792
0.000240113
-0.00326976
0.000212994
-0.00324597
0.000182955
-0.00321603
0.000151278
-0.00318482
0.000118675
-0.00315459
8.55111e-05
-0.00312626
5.19608e-05
-0.00310021
1.81152e-05
-0.00307667
-1.59541e-05
-0.00305585
-5.0169e-05
-0.00303788
-8.44457e-05
-0.00302274
-0.00301037
-0.000118725
3.15468e-05
-0.00058745
9.01096e-05
-0.00152844
0.000148913
-0.0022363
0.000192457
-0.00272024
0.000215266
-0.00301652
0.000218424
-0.00317448
0.000206044
-0.00324145
0.000182799
-0.00325467
0.000152644
-0.00323961
0.000118423
-0.00321175
8.19622e-05
-0.00317957
4.43255e-05
-0.00314718
6.08157e-06
-0.00311635
-3.24987e-05
-0.00308768
-7.13047e-05
-0.00306141
-0.000110292
-0.00303769
-0.000149421
-0.00301672
-0.000188628
-0.00299867
-0.00022782
-0.00298354
-0.00297127
-0.000266921
2.88886e-05
-0.000616338
7.97583e-05
-0.00157931
0.000127256
-0.0022838
0.000157871
-0.00275086
0.000167835
-0.00302648
0.000159258
-0.0031659
0.000136629
-0.00321882
0.000104553
-0.0032226
6.67121e-05
-0.00320177
2.56393e-05
-0.00317068
-1.71023e-05
-0.00313683
-6.06296e-05
-0.00310366
-0.000104488
-0.00307249
-0.000148478
-0.00304369
-0.000192537
-0.00301735
-0.000236664
-0.00299356
-0.000280852
-0.00297253
-0.00032505
-0.00295447
-0.000369155
-0.00293944
-0.00292736
-0.000413063
2.5886e-05
-0.000642224
6.86288e-05
-0.00162205
0.00010468
-0.00231985
0.000122604
-0.00276878
0.000120227
-0.00302411
0.000100519
-0.0031462
6.82075e-05
-0.00318651
2.77545e-05
-0.00318214
-1.74546e-05
-0.00315656
-6.51863e-05
-0.00312295
-0.00011411
-0.0030879
-0.000163493
-0.00305427
-0.000212969
-0.00302301
-0.000262384
-0.00299427
-0.000311715
-0.00296802
-0.000360995
-0.00294428
-0.000410257
-0.00292327
-0.000459468
-0.00290526
-0.00050851
-0.0028904
-0.00287863
-0.000557241
2.25835e-05
-0.000664808
5.68782e-05
-0.00165635
8.14651e-05
-0.00234444
8.70153e-05
-0.00277433
7.28234e-05
-0.00300991
4.25657e-05
-0.00311594
1.08836e-06
-0.00314503
-4.73453e-05
-0.00313371
-9.96564e-05
-0.00310425
-0.000153894
-0.00306871
-0.000208933
-0.00303286
-0.000264166
-0.00299904
-0.000319288
-0.00296789
-0.000374174
-0.00293939
-0.00042882
-0.00291337
-0.000483292
-0.00288981
-0.000537666
-0.0028689
-0.000591943
-0.00285098
-0.00064599
-0.00283635
-0.00282501
-0.000699606
1.90284e-05
-0.000683836
4.46605e-05
-0.00168198
5.78694e-05
-0.00235764
5.14268e-05
-0.00276789
2.59605e-05
-0.00298445
-1.42924e-05
-0.00307568
-6.44604e-05
-0.00309486
-0.000120522
-0.00307765
-0.000179704
-0.00304506
-0.000240321
-0.00300809
-0.00030143
-0.00297175
-0.000362528
-0.00293794
-0.000423353
-0.00290707
-0.000483788
-0.00287895
-0.000543829
-0.00285333
-0.000603562
-0.00283007
-0.000663113
-0.00280935
-0.00072253
-0.00279157
-0.00078168
-0.0027772
-0.00276643
-0.000840265
1.52694e-05
-0.000699106
3.21242e-05
-0.00169883
3.41332e-05
-0.00235965
1.61282e-05
-0.00274988
-2.00665e-05
-0.00294825
-6.97814e-05
-0.00302597
-0.000128198
-0.00303645
-0.000191562
-0.00301429
-0.000257405
-0.00297922
-0.000324285
-0.00294121
-0.000391428
-0.00290461
-0.00045842
-0.00287095
-0.00052503
-0.00284046
-0.000591133
-0.00281285
-0.0006567
-0.00278776
-0.000721812
-0.00276496
-0.000786634
-0.00274453
-0.000851282
-0.00272692
-0.000915635
-0.00271285
-0.00270281
-0.000979255
1.13558e-05
-0.000710461
1.94105e-05
-0.00170689
1.0476e-05
-0.00235072
-1.86216e-05
-0.00272078
-6.49962e-05
-0.00290188
-0.000123658
-0.00296731
-0.000189902
-0.0029702
-0.000260259
-0.00294393
-0.000332553
-0.00290693
-0.000405575
-0.00286819
-0.000478702
-0.00283148
-0.000551612
-0.00279804
-0.000624106
-0.00276796
-0.000696041
-0.00274092
-0.000767342
-0.00271646
-0.000838045
-0.00269426
-0.000908325
-0.00267425
-0.000978373
-0.00265687
-0.0010481
-0.00264312
-0.00263395
-0.00111696
7.33669e-06
-0.000717798
6.65205e-06
-0.0017062
-1.2903e-05
-0.00233116
-5.25932e-05
-0.00268109
-0.000108598
-0.00284587
-0.000175704
-0.0029002
-0.000249365
-0.00289654
-0.000326405
-0.00286689
-0.000404928
-0.00282841
-0.000483939
-0.00278918
-0.000562969
-0.00275246
-0.000641789
-0.00271922
-0.00072025
-0.0026895
-0.000798209
-0.00266296
-0.000875537
-0.00263913
-0.000952195
-0.0026176
-0.00102833
-0.00259811
-0.00110423
-0.00258097
-0.00117988
-0.00256747
-0.00255891
-0.00125491
3.25945e-06
-0.000721058
-6.02859e-06
-0.00169692
-3.58258e-05
-0.00230137
-8.55849e-05
-0.00263133
-0.000150669
-0.00278079
-0.000225723
-0.00282515
-0.000306392
-0.00281587
-0.00038979
-0.00278349
-0.000474286
-0.00274391
-0.00055909
-0.00270437
-0.000643881
-0.00266766
-0.000728542
-0.00263456
-0.000813007
-0.00260504
-0.000897176
-0.00257879
-0.0009809
-0.00255541
-0.00106407
-0.00253443
-0.00114678
-0.0025154
-0.00122942
-0.00249832
-0.00131222
-0.00248467
-0.00247537
-0.00139576
-8.30977e-07
-0.000720227
-1.85209e-05
-0.00167923
-5.81369e-05
-0.00226175
-0.000117424
-0.00257205
-0.000191039
-0.00270718
-0.000273545
-0.00274264
-0.000360802
-0.00272862
-0.000450203
-0.00269409
-0.000540365
-0.00265375
-0.000630686
-0.00261405
-0.000720993
-0.00257736
-0.000811306
-0.00254425
-0.000901697
-0.00251464
-0.000992201
-0.00248828
-0.00108276
-0.00246485
-0.00117327
-0.00244392
-0.00126374
-0.00242494
-0.00135452
-0.00240755
-0.00144618
-0.00239301
-0.00238009
-0.00154146
-4.89325e-06
-0.000715333
-3.07277e-05
-0.00165339
-7.97044e-05
-0.00221277
-0.00014797
-0.00250378
-0.000229567
-0.00262558
-0.000319033
-0.00265318
-0.000412444
-0.0026352
-0.000507457
-0.00259908
-0.000602904
-0.0025583
-0.000698344
-0.00251861
-0.000793734
-0.00248197
-0.000889229
-0.00244875
-0.000985084
-0.00241879
-0.00108159
-0.00239177
-0.00117904
-0.0023674
-0.00127762
-0.00234534
-0.00137746
-0.0023251
-0.00147912
-0.00230589
-0.00158488
-0.00228725
-0.00228069
-0.00168428
-8.87835e-06
-0.000706455
-4.2547e-05
-0.00161972
-0.000100399
-0.00215492
-0.00017709
-0.00242709
-0.000266134
-0.00253653
-0.000362074