1.22 	3.45254e-18 	-6.98323e-18 	-0.122699 	0.0148787 	-7.7764e-22
1.66 	3.45254e-18 	-6.96118e-18 	-0.243892 	0.0182308 	-3.94702e-23
2.1 	3.45254e-18 	-6.93894e-18 	-0.263991 	-0.00646309 	-2.21221e-21
2.54 	3.45254e-18 	-8.30431e-18 	-0.340921 	-0.057622 	1.4882e-23
2.98 	3.45254e-18 	-8.28171e-18 	-0.387279 	-0.0951514 	2.42681e-21
3.42 	3.45254e-18 	-6.87115e-18 	-0.428899 	-0.0691863 	2.62997e-21
3.86 	3.45254e-18 	-6.84819e-18 	-0.341497 	0.00247421 	5.19521e-22
4.3 	3.45254e-18 	-6.82504e-18 	-0.289748 	0.0688449 	1.83998e-21
4.74 	3.45254e-18 	-5.41391e-18 	-0.186821 	0.104334 	-9.23356e-22
5.18 	3.45254e-18 	-2.61482e-18 	-0.120392 	0.0986075 	-3.73379e-22
5.62 	3.45254e-18 	-1.2033e-18 	-0.0158938 	0.0661206 	1.27399e-22
6.06 	3.45254e-18 	-1.17937e-18 	0.0699747 	0.0249993 	2.27041e-22
6.5 	3.45254e-18 	-1.15524e-18 	0.164994 	-0.0161196 	-4.53209e-23
