/*--------------------------------*- C++ -*----------------------------------*\
  =========                 |
  \\      /  F ield         | OpenFOAM: The Open Source CFD Toolbox
   \\    /   O peration     | Website:  https://openfoam.org
    \\  /    A nd           | Version:  6.0
     \\/     M anipulation  |
\*---------------------------------------------------------------------------*/
FoamFile
{
    version     2.0;
    format      ascii;
    class       volScalarField;
    location    "14";
    object      p;
}
// * * * * * * * * * * * * * * * * * * * * * * * * * * * * * * * * * * * * * //

dimensions      [0 2 -2 0 0 0 0];

internalField   nonuniform List<scalar> 
4000
(
-0.28636
-0.287549
-0.288315
-0.288866
-0.28933
-0.28973
-0.290083
-0.290408
-0.290714
-0.291011
-0.291305
-0.291604
-0.291912
-0.292237
-0.292587
-0.292974
-0.293403
-0.293818
-0.294198
-0.295129
-0.28651
-0.287687
-0.288445
-0.288989
-0.289446
-0.289838
-0.290184
-0.2905
-0.290798
-0.291086
-0.29137
-0.291659
-0.291957
-0.292271
-0.292609
-0.292985
-0.293404
-0.293811
-0.294179
-0.295106
-0.286818
-0.287971
-0.288712
-0.289241
-0.289683
-0.29006
-0.290391
-0.29069
-0.290971
-0.291241
-0.291506
-0.291774
-0.292051
-0.292343
-0.292659
-0.293014
-0.293413
-0.293801
-0.294149
-0.295066
-0.287276
-0.288395
-0.289112
-0.289619
-0.290039
-0.290393
-0.290699
-0.290974
-0.291228
-0.291469
-0.291704
-0.291941
-0.292184
-0.292442
-0.292724
-0.293045
-0.293413
-0.293772
-0.294088
-0.294992
-0.287879
-0.288956
-0.289641
-0.290119
-0.290509
-0.290831
-0.291104
-0.291343
-0.29156
-0.291762
-0.291955
-0.292147
-0.292344
-0.292554
-0.292787
-0.293061
-0.293385
-0.293703
-0.293976
-0.294859
-0.288619
-0.289647
-0.290294
-0.290736
-0.291088
-0.291369
-0.291599
-0.291793
-0.291961
-0.292111
-0.292249
-0.292381
-0.292516
-0.292662
-0.29283
-0.29304
-0.293304
-0.293567
-0.293785
-0.294639
-0.289489
-0.290464
-0.291067
-0.291466
-0.291771
-0.292002
-0.292179
-0.292315
-0.292422
-0.292507
-0.292575
-0.292632
-0.292688
-0.292751
-0.292835
-0.292961
-0.293147
-0.293339
-0.293487
-0.294304
-0.290483
-0.291402
-0.291956
-0.292305
-0.292554
-0.292726
-0.292839
-0.292907
-0.29294
-0.292946
-0.292928
-0.292894
-0.292852
-0.292812
-0.292789
-0.292809
-0.292894
-0.292994
-0.293055
-0.293827
-0.291597
-0.292459
-0.292958
-0.29325
-0.293436
-0.293539
-0.293577
-0.293566
-0.293514
-0.293427
-0.293308
-0.293166
-0.293006
-0.292841
-0.292688
-0.292575
-0.292532
-0.292513
-0.292467
-0.293182
-0.292832
-0.293633
-0.294074
-0.294301
-0.294415
-0.29444
-0.294395
-0.294295
-0.294147
-0.293955
-0.293723
-0.293456
-0.29316
-0.292847
-0.292537
-0.292261
-0.292057
-0.291886
-0.291703
-0.292348
-0.294188
-0.294927
-0.295303
-0.295458
-0.295492
-0.295431
-0.295295
-0.295097
-0.294845
-0.294541
-0.294186
-0.293782
-0.293334
-0.292852
-0.292357
-0.291884
-0.291478
-0.29111
-0.290749
-0.291298
-0.295673
-0.296345
-0.296649
-0.296724
-0.29667
-0.296515
-0.296281
-0.295981
-0.295621
-0.2952
-0.294716
-0.294168
-0.293556
-0.292888
-0.292182
-0.291476
-0.29082
-0.290196
-0.28959
-0.290001
-0.297296
-0.297894
-0.298117
-0.298103
-0.297952
-0.297696
-0.297358
-0.296952
-0.296482
-0.295944
-0.295333
-0.29464
-0.293861
-0.292996
-0.292058
-0.291082
-0.290122
-0.289164
-0.288216
-0.28841
-0.299067
-0.299582
-0.299715
-0.2996
-0.299342
-0.298976
-0.298529
-0.298014
-0.297434
-0.296784
-0.29605
-0.295219
-0.294277
-0.293213
-0.292029
-0.290752
-0.28943
-0.288044
-0.286615
-0.286459
-0.301002
-0.301422
-0.301449
-0.301221
-0.300843
-0.300358
-0.299794
-0.299167
-0.298478
-0.297719
-0.296871
-0.295913
-0.294818
-0.293562
-0.292129
-0.290526
-0.288787
-0.286871
-0.284777
-0.284064
-0.303118
-0.303426
-0.303332
-0.302973
-0.30246
-0.301841
-0.30115
-0.300404
-0.299604
-0.298738
-0.297783
-0.296708
-0.295475
-0.29404
-0.292364
-0.290426
-0.288229
-0.285685
-0.282717
-0.281155
-0.305434
-0.305611
-0.305376
-0.304867
-0.304198
-0.303428
-0.302595
-0.301718
-0.300798
-0.299822
-0.298761
-0.297576
-0.296216
-0.29462
-0.292718
-0.290454
-0.287787
-0.284562
-0.280546
-0.27777
-0.307974
-0.307998
-0.307598
-0.306914
-0.306067
-0.305123
-0.304126
-0.3031
-0.302046
-0.300948
-0.299776
-0.298483
-0.297006
-0.295265
-0.293162
-0.290595
-0.287468
-0.283543
-0.278325
-0.273839
-0.310768
-0.310612
-0.310021
-0.309134
-0.30808
-0.306935
-0.30575
-0.304552
-0.303343
-0.30211
-0.300818
-0.299419
-0.297843
-0.296
-0.293765
-0.290988
-0.287486
-0.282851
-0.276139
-0.269149
-0.313851
-0.313485
-0.312671
-0.311551
-0.310259
-0.308885
-0.307485
-0.30609
-0.304706
-0.303322
-0.301907
-0.300419
-0.298801
-0.296978
-0.294855
-0.29231
-0.289166
-0.284902
-0.278165
-0.270186
-0.317266
-0.316654
-0.315582
-0.314197
-0.312637
-0.311003
-0.309361
-0.307746
-0.306168
-0.304621
-0.303082
-0.301527
-0.299926
-0.298263
-0.296546
-0.294848
-0.293347
-0.292347
-0.293092
-0.302158
-0.321063
-0.320162
-0.318797
-0.317112
-0.315253
-0.313333
-0.311426
-0.309571
-0.307783
-0.306061
-0.304395
-0.302773
-0.301195
-0.299688
-0.298325
-0.297261
-0.296782
-0.297338
-0.299918
-0.308791
-0.325297
-0.32406
-0.32236
-0.320344
-0.318157
-0.315928
-0.313736
-0.311627
-0.309618
-0.307714
-0.305912
-0.304215
-0.302643
-0.301246
-0.300121
-0.299439
-0.299459
-0.300534
-0.303164
-0.309554
-0.330028
-0.328398
-0.326324
-0.323945
-0.321405
-0.318847
-0.316356
-0.313981
-0.311742
-0.309644
-0.307692
-0.305894
-0.304278
-0.302897
-0.301845
-0.301258
-0.301319
-0.302232
-0.304218
-0.308177
-0.335316
-0.333233
-0.330742
-0.327969
-0.325055
-0.322152
-0.319351
-0.316699
-0.314216
-0.311906
-0.309771
-0.307819
-0.306074
-0.30458
-0.303407
-0.302643
-0.302389
-0.30273
-0.303753
-0.305567
-0.34122
-0.338616
-0.335667
-0.332474
-0.329166
-0.325905
-0.322781
-0.319837
-0.317085
-0.314526
-0.312153
-0.309967
-0.307982
-0.306225
-0.304738
-0.303569
-0.302762
-0.302333
-0.302316
-0.302458
-0.347791
-0.344598
-0.341149
-0.337512
-0.333794
-0.330159
-0.326695
-0.323433
-0.320374
-0.317506
-0.314813
-0.312286
-0.309927
-0.307749
-0.305774
-0.304025
-0.302515
-0.301237
-0.300205
-0.299065
-0.355072
-0.351219
-0.347233
-0.343131
-0.338986
-0.33496
-0.331129
-0.327507
-0.324078
-0.320816
-0.317694
-0.314696
-0.311816
-0.309062
-0.306449
-0.303991
-0.301695
-0.299556
-0.297582
-0.295462
-0.363092
-0.358513
-0.353955
-0.34937
-0.34478
-0.340337
-0.336096
-0.33205
-0.328161
-0.324392
-0.320708
-0.317091
-0.313542
-0.31007
-0.306696
-0.303441
-0.300317
-0.297332
-0.294494
-0.291577
-0.371863
-0.366498
-0.361341
-0.356255
-0.351198
-0.346297
-0.341584
-0.33702
-0.332553
-0.328136
-0.323737
-0.319351
-0.314989
-0.310679
-0.306453
-0.302344
-0.298378
-0.294575
-0.290938
-0.28733
-0.381379
-0.375174
-0.369397
-0.363795
-0.358237
-0.352821
-0.347544
-0.342341
-0.337147
-0.33192
-0.326647
-0.321343
-0.316045
-0.310801
-0.305663
-0.300675
-0.295872
-0.29128
-0.286898
-0.282649
-0.391606
-0.384522
-0.378109
-0.37197
-0.365866
-0.359852
-0.35389
-0.347894
-0.341803
-0.335595
-0.329289
-0.322937
-0.316604
-0.310365
-0.304283
-0.298413
-0.292791
-0.287444
-0.28236
-0.277499
-0.402482
-0.394493
-0.387436
-0.380734
-0.374018
-0.367294
-0.360493
-0.353525
-0.346351
-0.338992
-0.331513
-0.324008
-0.316575
-0.309307
-0.302279
-0.295543
-0.289133
-0.283067
-0.277319
-0.271873
-0.413912
-0.405009
-0.397302
-0.39
-0.382582
-0.375005
-0.367183
-0.359046
-0.350605
-0.341939
-0.333173
-0.324443
-0.315877
-0.307578
-0.299621
-0.292051
-0.284893
-0.278149
-0.271776
-0.265775
-0.425763
-0.415955
-0.407594
-0.399639
-0.391401
-0.382797
-0.373752
-0.364246
-0.354364
-0.344264
-0.33413
-0.324141
-0.31444
-0.305132
-0.296284
-0.287925
-0.280064
-0.272689
-0.265732
-0.259213
-0.437861
-0.427176
-0.418156
-0.409474
-0.400271
-0.390444
-0.379963
-0.368897
-0.357428
-0.345802
-0.334261
-0.32301
-0.312201
-0.301928
-0.292239
-0.283145
-0.274633
-0.266676
-0.259181
-0.252191
-0.449995
-0.438475
-0.428786
-0.419282
-0.408943
-0.397682
-0.385559
-0.372766
-0.359602
-0.3464
-0.333449
-0.320969
-0.309102
-0.297923
-0.287454
-0.277684
-0.26858
-0.260093
-0.25211
-0.244703
-0.461908
-0.449615
-0.439238
-0.428795
-0.417131
-0.404223
-0.390273
-0.375623
-0.360702
-0.345918
-0.331591
-0.31794
-0.305084
-0.29307
-0.281891
-0.27151
-0.261875
-0.252917
-0.244498
-0.236733
-0.47331
-0.460317
-0.449224
-0.437706
-0.424521
-0.409768
-0.393838
-0.37725
-0.360557
-0.344226
-0.328592
-0.313849
-0.300089
-0.28732
-0.275507
-0.264585
-0.254485
-0.245116
-0.236318
-0.228259
-0.483876
-0.470266
-0.458419
-0.445679
-0.43078
-0.414011
-0.395996
-0.377442
-0.35901
-0.341208
-0.324358
-0.308624
-0.294054
-0.28062
-0.268253
-0.256866
-0.246369
-0.236653
-0.227537
-0.21925
-0.48407
-0.470458
-0.458609
-0.445866
-0.430963
-0.41419
-0.39617
-0.377611
-0.359175
-0.341369
-0.324515
-0.308778
-0.294205
-0.280768
-0.268399
-0.25701
-0.246511
-0.236794
-0.227676
-0.219388
-0.473502
-0.460507
-0.449412
-0.437892
-0.424704
-0.409947
-0.394012
-0.377421
-0.360723
-0.344389
-0.328751
-0.314006
-0.300242
-0.287471
-0.275656
-0.264732
-0.25463
-0.24526
-0.23646
-0.2284
-0.462098
-0.449803
-0.439424
-0.428979
-0.417313
-0.404402
-0.390447
-0.375794
-0.360869
-0.346081
-0.331752
-0.318098
-0.30524
-0.293223
-0.282043
-0.27166
-0.262023
-0.253064
-0.244643
-0.236877
-0.450182
-0.43866
-0.42897
-0.419464
-0.409123
-0.397859
-0.385733
-0.372936
-0.35977
-0.346564
-0.333611
-0.321129
-0.309259
-0.298078
-0.287608
-0.277836
-0.268731
-0.260243
-0.252258
-0.244851
-0.438046
-0.427358
-0.418337
-0.409653
-0.400449
-0.390619
-0.380136
-0.369067
-0.357596
-0.345967
-0.334424
-0.323171
-0.31236
-0.302086
-0.292395
-0.2833
-0.274787
-0.266829
-0.259333
-0.252343
-0.425944
-0.416134
-0.407772
-0.399816
-0.391577
-0.382971
-0.373924
-0.364416
-0.354531
-0.344429
-0.334294
-0.324303
-0.3146
-0.305292
-0.296442
-0.288083
-0.280221
-0.272845
-0.265888
-0.259368
-0.41409
-0.405186
-0.397477
-0.390175
-0.382755
-0.375176
-0.367352
-0.359214
-0.350771
-0.342104
-0.333337
-0.324606
-0.316039
-0.307739
-0.299781
-0.292212
-0.285053
-0.278309
-0.271936
-0.265934
-0.402658
-0.394667
-0.387608
-0.380906
-0.374189
-0.367463
-0.36066
-0.353691
-0.346517
-0.339157
-0.331677
-0.324171
-0.316738
-0.30947
-0.302441
-0.295706
-0.289296
-0.28323
-0.277482
-0.272036
-0.391779
-0.384693
-0.378279
-0.372139
-0.366034
-0.360019
-0.354055
-0.348058
-0.341967
-0.335759
-0.329453
-0.3231
-0.316768
-0.310529
-0.304448
-0.298578
-0.292957
-0.287611
-0.282527
-0.277667
-0.381549
-0.375342
-0.369564
-0.36396
-0.358401
-0.352985
-0.347707
-0.342503
-0.33731
-0.332083
-0.32681
-0.321506
-0.316209
-0.310967
-0.30583
-0.300843
-0.296041
-0.29145
-0.287069
-0.282821
-0.37203
-0.366663
-0.361505
-0.356419
-0.351359
-0.346458
-0.341744
-0.33718
-0.332714
-0.328296
-0.323899
-0.319514
-0.315154
-0.310845
-0.306621
-0.302514
-0.29855
-0.294749
-0.291114
-0.287507
-0.363256
-0.358676
-0.354117
-0.349531
-0.344939
-0.340495
-0.336254
-0.332207
-0.328319
-0.324551
-0.320868
-0.317254
-0.313707
-0.310238
-0.306866
-0.303613
-0.300492
-0.29751
-0.294673
-0.291759
-0.355234
-0.35138
-0.347393
-0.343289
-0.339143
-0.335116
-0.331284
-0.327662
-0.324234
-0.320973
-0.317854
-0.314858
-0.311981
-0.309231
-0.306621
-0.304166
-0.301874
-0.299737
-0.297766
-0.295649
-0.347951
-0.344757
-0.341307
-0.337668
-0.333949
-0.330313
-0.326848
-0.323586
-0.320528
-0.317662
-0.314971
-0.312447
-0.310092
-0.307918
-0.305947
-0.304203
-0.302697
-0.301423
-0.300394
-0.299257
-0.341379
-0.338775
-0.335823
-0.332629
-0.32932
-0.326057
-0.322932
-0.319988
-0.317238
-0.31468
-0.312309
-0.310127
-0.308146
-0.306395
-0.304913
-0.30375
-0.302947
-0.302523
-0.30251
-0.302655
-0.335475
-0.33339
-0.330898
-0.328123
-0.325207
-0.322303
-0.319501
-0.316849
-0.314366
-0.312058
-0.309927
-0.307979
-0.306239
-0.304751
-0.303584
-0.302826
-0.302578
-0.302925
-0.303953
-0.305771
-0.330186
-0.328555
-0.32648
-0.324098
-0.321556
-0.318996
-0.316505
-0.31413
-0.311892
-0.309797
-0.307848
-0.306055
-0.304444
-0.303069
-0.302024
-0.301445
-0.301513
-0.302433
-0.304425
-0.308388
-0.325456
-0.324217
-0.322516
-0.320497
-0.318308
-0.316077
-0.313885
-0.311775
-0.309768
-0.307866
-0.306068
-0.304377
-0.302811
-0.301421
-0.300304
-0.29963
-0.299659
-0.300742
-0.303378
-0.309773
-0.321223
-0.32032
-0.318952
-0.317266
-0.315404
-0.313483
-0.311575
-0.30972
-0.307934
-0.306215
-0.304552
-0.302936
-0.301365
-0.299866
-0.298512
-0.297457
-0.296988
-0.297553
-0.300141
-0.30902
-0.317427
-0.316812
-0.315738
-0.314351
-0.312789
-0.311154
-0.309511
-0.307897
-0.306321
-0.304776
-0.303242
-0.301693
-0.300099
-0.298444
-0.296737
-0.29505
-0.293559
-0.292571
-0.293325
-0.302399
-0.314014
-0.313644
-0.312827
-0.311706
-0.310412
-0.309036
-0.307636
-0.306242
-0.304861
-0.30348
-0.30207
-0.300588
-0.298977
-0.297163
-0.295051
-0.292518
-0.289386
-0.285135
-0.278412
-0.270446
-0.310932
-0.310772
-0.310178
-0.309289
-0.308233
-0.307088
-0.305903
-0.304706
-0.3035
-0.302271
-0.300984
-0.299592
-0.298024
-0.29619
-0.293966
-0.2912
-0.287711
-0.28309
-0.27639
-0.269413
-0.308139
-0.308158
-0.307756
-0.30707
-0.306221
-0.305276
-0.30428
-0.303256
-0.302205
-0.301112
-0.299945
-0.298659
-0.29719
-0.295459
-0.293367
-0.290811
-0.287697
-0.283786
-0.27858
-0.274106
-0.305598
-0.305771
-0.305533
-0.305022
-0.304352
-0.303582
-0.30275
-0.301875
-0.300959
-0.299987
-0.298933
-0.297755
-0.296404
-0.294817
-0.292926
-0.290674
-0.288019
-0.284808
-0.280804
-0.27804
-0.303282
-0.303585
-0.303488
-0.303128
-0.302614
-0.301995
-0.301306
-0.300562
-0.299766
-0.298905
-0.297957
-0.296889
-0.295664
-0.29424
-0.292575
-0.290648
-0.288464
-0.285932
-0.282976
-0.281428
-0.301164
-0.301579
-0.301603
-0.301374
-0.300995
-0.30051
-0.299948
-0.299324
-0.29864
-0.297886
-0.297045
-0.296094
-0.295008
-0.293762
-0.292339
-0.290749
-0.289022
-0.287118
-0.285036
-0.284336
-0.299226
-0.299736
-0.299866
-0.29975
-0.299491
-0.299126
-0.298681
-0.29817
-0.297594
-0.296949
-0.296222
-0.295399
-0.294466
-0.293412
-0.292238
-0.290973
-0.289663
-0.28829
-0.286872
-0.286731
-0.29745
-0.298043
-0.298264
-0.298249
-0.298097
-0.297843
-0.297507
-0.297104
-0.296638
-0.296106
-0.295502
-0.294817
-0.294046
-0.293191
-0.292263
-0.291299
-0.290351
-0.289405
-0.288469
-0.288677
-0.295821
-0.296488
-0.29679
-0.296864
-0.29681
-0.296657
-0.296425
-0.296128
-0.295772
-0.295357
-0.29488
-0.294339
-0.293736
-0.293078
-0.292382
-0.291687
-0.291043
-0.29043
-0.289836
-0.290262
-0.294329
-0.295063
-0.295437
-0.295591
-0.295626
-0.295566
-0.295432
-0.295238
-0.29499
-0.294692
-0.294343
-0.293946
-0.293506
-0.293034
-0.292548
-0.292086
-0.291692
-0.291335
-0.290986
-0.29155
-0.292963
-0.29376
-0.294199
-0.294426
-0.29454
-0.294567
-0.294524
-0.294427
-0.294283
-0.294097
-0.293872
-0.293611
-0.293323
-0.293019
-0.292718
-0.292453
-0.292259
-0.2921
-0.291929
-0.292587
-0.291719
-0.292576
-0.293075
-0.293366
-0.293552
-0.293656
-0.293697
-0.293689
-0.293641
-0.293559
-0.293446
-0.29331
-0.293158
-0.293001
-0.292856
-0.292754
-0.292721
-0.292713
-0.292678
-0.293407
-0.290593
-0.291509
-0.292061
-0.29241
-0.29266
-0.292833
-0.292948
-0.293019
-0.293056
-0.293066
-0.293054
-0.293026
-0.292991
-0.292958
-0.292944
-0.292973
-0.293068
-0.293177
-0.293249
-0.294033
-0.289587
-0.290559
-0.291161
-0.29156
-0.291865
-0.292097
-0.292276
-0.292415
-0.292526
-0.292614
-0.292687
-0.29275
-0.292812
-0.292882
-0.292974
-0.293108
-0.293302
-0.293503
-0.29366
-0.294489
-0.288703
-0.289729
-0.290375
-0.290817
-0.291169
-0.291452
-0.291683
-0.291879
-0.292051
-0.292204
-0.292346
-0.292484
-0.292624
-0.292776
-0.292951
-0.293167
-0.293439
-0.293711
-0.293936
-0.294801
-0.287949
-0.289024
-0.289708
-0.290187
-0.290577
-0.2909
-0.291174
-0.291416
-0.291635
-0.29184
-0.292037
-0.292233
-0.292434
-0.292649
-0.292888
-0.293168
-0.293498
-0.293823
-0.294103
-0.294995
-0.287331
-0.288449
-0.289165
-0.289673
-0.290093
-0.290447
-0.290755
-0.291031
-0.291287
-0.291531
-0.291769
-0.292008
-0.292256
-0.292518
-0.292804
-0.29313
-0.293503
-0.293867
-0.29419
-0.2951
-0.286857
-0.28801
-0.28875
-0.28928
-0.289722
-0.2901
-0.290431
-0.290732
-0.291014
-0.291285
-0.291553
-0.291823
-0.292102
-0.292398
-0.292717
-0.293075
-0.293478
-0.29387
-0.294222
-0.295144
-0.286535
-0.287711
-0.288468
-0.289012
-0.289469
-0.289862
-0.290208
-0.290525
-0.290824
-0.291113
-0.291399
-0.291688
-0.291988
-0.292304
-0.292644
-0.293023
-0.293444
-0.293852
-0.294224
-0.295153
-0.286368
-0.287557
-0.288323
-0.288874
-0.289338
-0.289738
-0.290092
-0.290416
-0.290723
-0.29102
-0.291315
-0.291614
-0.291923
-0.292249
-0.292599
-0.292986
-0.293416
-0.293832
-0.294213
-0.295145
-0.319903
-0.38309
-0.333527
-0.225324
-0.123367
-0.0376368
0.00278634
0.0341717
0.0368858
0.0371866
0.032577
0.0283692
0.0235376
0.0187405
0.0145194
0.011135
0.00823504
0.00592505
0.00339476
0.00156364
-0.320133
-0.383524
-0.33414
-0.225836
-0.123781
-0.0378882
0.00260171
0.0340493
0.0368111
0.0371312
0.0325425
0.0283456
0.0235211
0.0187273
0.0145086
0.011127
0.00822918
0.00592076
0.00339173
0.0015609
-0.320593
-0.384373
-0.335303
-0.226777
-0.124559
-0.0383793
0.00222789
0.033792
0.0366516
0.0370141
0.0324709
0.0282986
0.0234893
0.0187026
0.0144884
0.011112
0.00821799
0.00591241
0.00338576
0.00155538
-0.321221
-0.385557
-0.336955
-0.22811
-0.125689
-0.0391066
0.00167047
0.0333988
0.0364062
0.0368338
0.0323614
0.0282277
0.0234421
0.0186661
0.0144586
0.0110901
0.00820163
0.00590011
0.00337696
0.00154712
-0.321933
-0.386972
-0.339013
-0.229785
-0.127151
-0.0400649
0.000937426
0.0328688
0.0360732
0.0365884
0.032213
0.0281325
0.0233793
0.0186178
0.0144193
0.0110612
0.00818027
0.00588398
0.00336555
0.00153621
-0.322631
-0.388494
-0.341387
-0.231749
-0.128922
-0.0412474
3.87896e-05
0.0322016
0.0356513
0.0362758
0.0320245
0.0280127
0.0233008
0.0185576
0.0143704
0.0110254
0.00815414
0.00586421
0.00335177
0.00152276
-0.323215
-0.389998
-0.343983
-0.233945
-0.130975
-0.0426454
-0.00101375
0.0313978
0.0351393
0.0358942
0.0317946
0.027868
0.0232065
0.0184855
0.0143119
0.0109828
0.00812347
0.00584098
0.0033359
0.0015069
-0.323589
-0.391363
-0.346714
-0.236324
-0.13328
-0.0442485
-0.0022072
0.0304595
0.0345369
0.035442
0.0315225
0.0276981
0.0230963
0.0184012
0.0142438
0.0109335
0.00808853
0.00581451
0.00331821
0.00148878
-0.323671
-0.392485
-0.349508
-0.238845
-0.135805
-0.0460447
-0.00352755
0.0293908
0.0338447
0.0349185
0.0312074
0.0275029
0.0229704
0.0183048
0.014166
0.0108775
0.00804957
0.00578503
0.003299
0.00146858
-0.323398
-0.393274
-0.352302
-0.241478
-0.138519
-0.0480206
-0.00496004
0.0281976
0.0330642
0.0343239
0.0308492
0.0272826
0.022829
0.0181964
0.0140785
0.0108148
0.0080068
0.00575273
0.00327855
0.00144649
-0.322728
-0.393665
-0.35505
-0.244202
-0.141391
-0.0501612
-0.00648937
0.026888
0.0321985
0.0336593
0.0304481
0.0270378
0.0226724
0.0180762
0.0139815
0.0107456
0.00796044
0.00571784
0.00325709
0.00142272
-0.321646
-0.393608
-0.357716
-0.247006
-0.144395
-0.0524516
-0.00810049
0.0254718
0.0312518
0.0329269
0.0300048
0.0267691
0.0225012
0.0179444
0.0138749
0.01067
0.00791068
0.00568054
0.00323482
0.00139748
-0.320157
-0.393074
-0.360276
-0.249891
-0.147512
-0.0548789
-0.00978037
0.0239595
0.0302291
0.0321298
0.0295207
0.0264775
0.0223161
0.0178016
0.013759
0.010588
0.00785769
0.00564102
0.00321193
0.00137099
-0.31829
-0.392042
-0.362708
-0.252867
-0.150729
-0.0574332
-0.011517
0.0223626
0.0291363
0.0312716
0.0289975
0.0261644
0.0221181
0.0176483
0.0136341
0.0104998
0.00780161
0.00559946
0.00318853
0.00134347
-0.316088
-0.390495
-0.364961
-0.255927
-0.154016
-0.0600903
-0.0132878
0.0206986
0.0279817
0.0303564
0.0284365
0.0258306
0.021908
0.0174848
0.0135003
0.0104055
0.0077425
0.00555596
0.00316471
0.00131514
-0.313603
-0.388417
-0.366946
-0.259005
-0.157285
-0.0627882
-0.0150514
0.0189949
0.0267771
0.0293901
0.0278398
0.0254771
0.0216862
0.0173115
0.0133575
0.010305
0.00768027
0.00551053
0.00314045
0.0012862
-0.310911
-0.385867
-0.368725
-0.262111
-0.160542
-0.0655201
-0.0168226
0.0172529
0.0255286
0.0283827
0.0272143
0.0251081
0.0214556
0.0171306
0.0132074
0.0101992
0.00761541
0.00546352
0.00311575
0.00125676
-0.308002
-0.382942
-0.370768
-0.265772
-0.164318
-0.0686239
-0.0188301
0.0153714
0.0242109
0.0273414
0.0265728
0.0247345
0.0212254
0.0169502
0.0130563
0.0100925
0.00755047
0.00541663
0.00309119
0.00122682
-0.304321
-0.379072
-0.372897
-0.270589
-0.169205
-0.0725173
-0.0212166
0.0132866
0.0227974
0.026237
0.0258985
0.0243516
0.0209973
0.0167723
0.0129051
0.00998548
0.00748629
0.0053705
0.00306779
0.00119701
-0.298994
-0.372578
-0.371335
-0.27368
-0.172421
-0.0753937
-0.0225822
0.0116871
0.0214745
0.025002
0.0250799
0.0238754
0.0207047
0.0165354
0.0127036
0.00984094
0.00740233
0.00531166
0.00304213
0.00116981
-0.26348
-0.324112
-0.339186
-0.2719
-0.172713
-0.0795077
-0.0211676
0.00759803
0.0154552
0.0174997
0.0194632
0.0204351
0.018479
0.0146458
0.0110809
0.00865146
0.00672029
0.00484676
0.00285872
0.00104167
-0.221878
-0.266566
-0.280704
-0.240771
-0.159556
-0.0785201
-0.0237246
-0.000466088
0.0047326
0.00556716
0.00915875
0.0134352
0.0141292
0.011347
0.00825988
0.00657336
0.00546931
0.00406447
0.00234627
0.000641311
-0.192354
-0.21854
-0.224771
-0.197751
-0.139203
-0.0764431
-0.0312863
-0.0100504
-0.00383351
-0.00229669
0.00162506
0.00752363
0.0104231
0.00884669
0.00611462
0.00479034
0.00428381
0.00334563
0.00196419
0.000620973
-0.156032
-0.176975
-0.178031
-0.158939
-0.120413
-0.0759852
-0.0399818
-0.0184144
-0.00883796
-0.00592805
-0.00301001
0.00257528
0.00682126
0.00658296
0.0042772
0.00308928
0.00298078
0.00253453
0.00151306
0.000394613
-0.126115
-0.142837
-0.142943
-0.130229
-0.106137
-0.0752273
-0.0455526
-0.0235398
-0.0116317
-0.00816177
-0.00680418
-0.0023833
0.00263779
0.00385509
0.00226236
0.00125623
0.00149494
0.00158806
0.00101694
0.00025707
-0.102165
-0.116276
-0.117472
-0.109741
-0.0943181
-0.0716012
-0.0466579
-0.0262906
-0.014436
-0.0107803
-0.010025
-0.00643169
-0.001037
0.00148038
0.000775652
-1.11358e-05
0.000396961
0.000864881
0.000675933
0.000178806
-0.0840834
-0.0961475
-0.0986291
-0.0941491
-0.083216
-0.0656116
-0.0455222
-0.0286831
-0.01796
-0.0134796
-0.0120913
-0.00901638
-0.00390035
-0.000647546
-0.00054267
-0.00109665
-0.000645476
8.06513e-05
0.000245892
4.10269e-05
-0.0704156
-0.0808047
-0.0840024
-0.0811873
-0.0727615
-0.0594061
-0.044247
-0.0308622
-0.0209377
-0.0153512
-0.0131362
-0.010657
-0.00631644
-0.00278404
-0.00190765
-0.00208676
-0.00156503
-0.00064292
-0.000144467
-5.14227e-05
-0.0599337
-0.0688531
-0.0720849
-0.0701362
-0.0638988
-0.0543166
-0.0429429
-0.0318901
-0.0226852
-0.0166932
-0.0140231
-0.0119625
-0.00833863
-0.00472768
-0.00316714
-0.00289908
-0.00229412
-0.00126062
-0.00050402
-0.000146702
-0.0517172
-0.0592741
-0.062255
-0.061163
-0.0569278
-0.0500092
-0.0410707
-0.0318112
-0.0237421
-0.0179952
-0.0149703
-0.0129262
-0.00980595
-0.00632041
-0.00430238
-0.0036133
-0.00290121
-0.00180177
-0.000845374
-0.000242824
-0.0451299
-0.0515234
-0.0543567
-0.0540786
-0.051228
-0.0459981
-0.0388877
-0.0313156
-0.0244796
-0.0191251
-0.015775
-0.0135684
-0.010832
-0.00762175
-0.00534998
-0.00427654
-0.00341205
-0.00225724
-0.00114978
-0.000332867
-0.0397905
-0.0453005
-0.0480595
-0.0483191
-0.04636
-0.0423956
-0.0368328
-0.0306835
-0.0248576
-0.0199193
-0.0164196
-0.0140588
-0.0115832
-0.0086656
-0.00627655
-0.00487935
-0.00383894
-0.00262976
-0.00141333
-0.000417839
-0.0354286
-0.0402865
-0.0429495
-0.0435497
-0.0422798
-0.0393403
-0.0349885
-0.029925
-0.0249128
-0.0204374
-0.0169639
-0.0144796
-0.0121352
-0.00946448
-0.00705742
-0.00541938
-0.00420301
-0.00293293
-0.00163581
-0.000495302
-0.0318179
-0.0362011
-0.0387808
-0.0396517
-0.0389395
-0.036774
-0.0333231
-0.0291091
-0.0247843
-0.020766
-0.0174084
-0.0148355
-0.0125382
-0.010059
-0.00769596
-0.00589578
-0.00451727
-0.00317793
-0.00181775
-0.000562996
-0.0287927
-0.0328692
-0.0354158
-0.0365109
-0.0362213
-0.0346254
-0.0318604
-0.0283292
-0.0245698
-0.0209489
-0.0177435
-0.0151288
-0.0128397
-0.0104968
-0.0082028
-0.00630328
-0.00478647
-0.0033742
-0.00196224
-0.000619798
-0.0262702
-0.030185
-0.0327406
-0.0340134
-0.0340402
-0.0328725
-0.0306325
-0.0276353
-0.0243213
-0.0210264
-0.0179819
-0.0153664
-0.0130703
-0.010815
-0.00859114
-0.00663829
-0.00501221
-0.00352966
-0.00207375
-0.000665465
-0.0242188
-0.028074
-0.0306641
-0.0320844
-0.0323523
-0.0315023
-0.0296494
-0.0270528
-0.0240791
-0.021041
-0.018144
-0.0155512
-0.0132451
-0.0110412
-0.00887709
-0.00690096
-0.00519441
-0.00364983
-0.00215685
-0.000700387
-0.0226539
-0.0264981
-0.0291434
-0.0306864
-0.0311274
-0.0304973
-0.0289131
-0.0266017
-0.0238751
-0.0210262
-0.0182472
-0.0156851
-0.0133716
-0.0111959
-0.00907652
-0.00709364
-0.00533206
-0.00373799
-0.00221551
-0.00072541
-0.0216221
-0.0254597
-0.0281559
-0.0297818
-0.0303301
-0.0298369
-0.0284228
-0.0262951
-0.0237298
-0.0210046
-0.0183067
-0.0157712
-0.013454
-0.0112926
-0.0092023
-0.00721956
-0.00542414
-0.00379587
-0.00225282
-0.000741463
-0.0211041
-0.0249445
-0.027666
-0.0293321
-0.029933
-0.0295075
-0.0281774
-0.0261405
-0.0236549
-0.0209907
-0.0183338
-0.0158131
-0.0134945
-0.0113391
-0.0092632
-0.00728178
-0.00547021
-0.00382442
-0.00227082
-0.000749227
-0.173552
-0.183345
-0.193197
-0.20319
-0.213413
-0.223968
-0.234965
-0.246519
-0.258746
-0.27175
-0.285592
-0.300268
-0.315602
-0.331246
-0.34639
-0.360094
-0.370581
-0.37715
-0.377658
-0.376377
-0.113853
-0.117608
-0.121093
-0.124296
-0.1272
-0.129788
-0.132037
-0.133927
-0.135436
-0.13655
-0.137261
-0.137593
-0.137593
-0.137402
-0.137201
-0.137392
-0.138313
-0.140813
-0.145197
-0.153517
-0.0845357
-0.0887734
-0.0930423
-0.0973524
-0.101714
-0.10614
-0.11064
-0.115228
-0.119916
-0.124714
-0.12963
-0.134667
-0.139813
-0.145046
-0.1503
-0.155496
-0.160471
-0.16508
-0.16906
-0.172314
-0.0689913
-0.0718725
-0.0747182
-0.0775298
-0.0803088
-0.0830562
-0.0857731
-0.0884602
-0.0911179
-0.0937468
-0.096348
-0.0989234
-0.101477
-0.104018
-0.106562
-0.109135
-0.111786
-0.114585
-0.117692
-0.121348
-0.0565217
-0.0587916
-0.061066
-0.0633477
-0.065639
-0.0679426
-0.070261
-0.0725969
-0.0749528
-0.0773313
-0.0797348
-0.0821656
-0.0846253
-0.0871144
-0.0896327
-0.0921751
-0.0947413
-0.0973134
-0.0999223
-0.102554
-0.0485766
-0.0503272
-0.0520766
-0.0538255
-0.0555746
-0.0573247
-0.0590766
-0.0608313
-0.0625896
-0.0643526
-0.0661214
-0.0678971
-0.0696814
-0.0714754
-0.0732823
-0.0751032
-0.0769482
-0.0788173
-0.0807623
-0.0828
-0.0421124
-0.0434894
-0.0448684
-0.0462501
-0.0476349
-0.0490235
-0.0504164
-0.0518143
-0.0532178
-0.0546275
-0.0560441
-0.0574682
-0.0589004
-0.0603411
-0.0617914
-0.0632504
-0.064723
-0.0662039
-0.0677253
-0.0692792
-0.0371814
-0.0382893
-0.0393983
-0.0405086
-0.0416203
-0.0427338
-0.0438491
-0.0449667
-0.0460867
-0.0472096
-0.0483355
-0.0494649
-0.0505982
-0.0517356
-0.052878
-0.0540248
-0.05518
-0.0563397
-0.0575292
-0.05874
-0.0331485
-0.034052
-0.0349561
-0.0358609
-0.0367666
-0.0376732
-0.038581
-0.0394901
-0.0404008
-0.0413132
-0.0422275
-0.0431439
-0.0440625
-0.0449835
-0.0459073
-0.0468335
-0.0477645
-0.0486971
-0.0496498
-0.0506137
-0.0299235
-0.0306667
-0.0314102
-0.0321539
-0.0328981
-0.0336426
-0.0343878
-0.0351336
-0.0358801
-0.0366275
-0.0373758
-0.0381251
-0.0388755
-0.039627
-0.0403799
-0.0411338
-0.0418905
-0.0426476
-0.0434186
-0.0441969
-0.0272616
-0.0278735
-0.028486
-0.0290991
-0.0297127
-0.0303268
-0.0309416
-0.0315569
-0.0321729
-0.0327895
-0.0334067
-0.0340246
-0.034643
-0.0352619
-0.0358816
-0.0365015
-0.037123
-0.0377442
-0.0383751
-0.0390112
-0.024997
-0.0255033
-0.026011
-0.0265199
-0.0270298
-0.0275408
-0.0280527
-0.0285655
-0.029079
-0.0295933
-0.030108
-0.0306232
-0.0311388
-0.0316546
-0.0321706
-0.0326865
-0.0332031
-0.033719
-0.0342414
-0.0347677
-0.0229544
-0.0233786
-0.0238052
-0.0242338
-0.0246643
-0.0250965
-0.0255301
-0.025965
-0.0264011
-0.026838
-0.0272756
-0.0277138
-0.0281523
-0.0285909
-0.0290295
-0.0294678
-0.0299062
-0.0303438
-0.0307857
-0.0312308
-0.0209864
-0.021354
-0.0217248
-0.0220984
-0.0224744
-0.0228525
-0.0232325
-0.023614
-0.0239967
-0.0243804
-0.0247647
-0.0251494
-0.0255343
-0.025919
-0.0263035
-0.0266873
-0.0270707
-0.027453
-0.0278377
-0.0282249
-0.0189396
-0.0192804
-0.0196244
-0.0199712
-0.0203202
-0.020671
-0.0210233
-0.0213767
-0.0217309
-0.0220856
-0.0224403
-0.0227949
-0.023149
-0.0235024
-0.0238549
-0.0242061
-0.0245561
-0.0249045
-0.0252536
-0.0256043
-0.0167953
-0.0171443
-0.0174944
-0.0178454
-0.0181967
-0.018548
-0.0188991
-0.0192495
-0.0195991
-0.0199475
-0.0202946
-0.0206399
-0.0209835
-0.0213249
-0.0216642
-0.022001
-0.0223353
-0.022667
-0.0229974
-0.0233279
-0.014597
-0.0149842
-0.0153687
-0.0157503
-0.0161288
-0.0165042
-0.0168762
-0.0172449
-0.01761
-0.0179716
-0.0183294
-0.0186835
-0.0190338
-0.0193801
-0.0197224
-0.0200607
-0.020395
-0.0207252
-0.0210522
-0.0213771
-0.0128846
-0.0132978
-0.0137056
-0.0141081
-0.0145054
-0.0148974
-0.0152843
-0.015666
-0.0160427
-0.0164143
-0.0167808
-0.0171424
-0.017499
-0.0178506
-0.0181974
-0.0185392
-0.0188761
-0.0192082
-0.019536
-0.0198601
-0.0120855
-0.0124901
-0.0128897
-0.0132841
-0.0136736
-0.0140582
-0.0144379
-0.0148126
-0.0151824
-0.0155473
-0.0159073
-0.0162624
-0.0166126
-0.016958
-0.0172985
-0.0176341
-0.0179649
-0.0182909
-0.0186122
-0.0189291
-0.0116326
-0.0120296
-0.0124223
-0.0128105
-0.0131945
-0.0135742
-0.0139496
-0.0143205
-0.014687
-0.0150491
-0.0154068
-0.01576
-0.0161088
-0.0164531
-0.016793
-0.0171284
-0.0174594
-0.017786
-0.0181083
-0.0184262
-0.00874302
-0.00930759
-0.00985688
-0.0103915
-0.0109124
-0.0114201
-0.0119152
-0.0123981
-0.0128695
-0.0133297
-0.0137793
-0.0142186
-0.014648
-0.0150678
-0.0154786
-0.0158804
-0.0162737
-0.0166587
-0.0170359
-0.0174055
-0.0108398
-0.0112866
-0.0117278
-0.0121632
-0.0125929
-0.0130167
-0.0134346
-0.0138466
-0.0142525
-0.0146524
-0.0150463
-0.0154341
-0.0158159
-0.0161917
-0.0165615
-0.0169253
-0.0172832
-0.0176352
-0.0179817
-0.0183232
-0.0133528
-0.0136975
-0.0140438
-0.0143912
-0.0147393
-0.0150873
-0.015435
-0.0157819
-0.0161276
-0.0164717
-0.016814
-0.017154
-0.0174916
-0.0178265
-0.0181585
-0.0184874
-0.018813
-0.0191352
-0.0194545
-0.0197718
-0.0155783