/*--------------------------------*- C++ -*----------------------------------*\
  =========                 |
  \\      /  F ield         | OpenFOAM: The Open Source CFD Toolbox
   \\    /   O peration     | Website:  https://openfoam.org
    \\  /    A nd           | Version:  6.0
     \\/     M anipulation  |
\*---------------------------------------------------------------------------*/
FoamFile
{
    version     2.0;
    format      ascii;
    class       volVectorField;
    location    "21.2";
    object      U;
}
// * * * * * * * * * * * * * * * * * * * * * * * * * * * * * * * * * * * * * //

dimensions      [0 1 -1 0 0 0 0];

internalField   nonuniform List<vector> 
8000
(
(-0.000499482 0.000529407 -3.53205e-21)
(-0.00272335 0.00132659 1.88797e-20)
(-0.00682508 0.00189668 -2.29631e-20)
(-0.011855 0.00229149 1.74861e-20)
(-0.0173207 0.00255024 8.51525e-21)
(-0.0229452 0.00270495 -2.55705e-20)
(-0.0285315 0.00278318 -2.26017e-21)
(-0.0339528 0.00280836 -8.02224e-22)
(-0.0391389 0.00280034 -1.32734e-20)
(-0.0440614 0.00277582 -7.19131e-21)
(-0.0487217 0.00274882 5.3629e-21)
(-0.0531427 0.0027309 2.03894e-20)
(-0.0573623 0.00273138 -1.52676e-21)
(-0.0614276 0.00275749 2.18464e-21)
(-0.0653912 0.00281445 -2.05375e-20)
(-0.0693117 0.00290548 1.26545e-20)
(-0.0732479 0.00303199 -1.8132e-20)
(-0.0772127 0.00319449 2.74387e-20)
(-0.081162 0.00339331 -3.074e-23)
(-0.0854166 0.00362136 5.92673e-21)
(-0.00058566 0.00166755 1.17292e-20)
(-0.00293169 0.00415185 -5.99412e-20)
(-0.00710822 0.00590655 -4.14011e-20)
(-0.012176 0.00710016 -2.81162e-20)
(-0.0176492 0.00786073 -3.617e-20)
(-0.0232556 0.00829222 7.96021e-21)
(-0.0288019 0.00848301 -4.17541e-20)
(-0.034164 0.00850751 -9.37844e-21)
(-0.0392738 0.00842798 2.96334e-21)
(-0.0441041 0.00829645 3.12087e-20)
(-0.0486575 0.00815619 -3.40437e-20)
(-0.052958 0.00804275 4.73559e-20)
(-0.0570442 0.00798474 -3.54627e-20)
(-0.0609642 0.00800437 -4.20544e-20)
(-0.064772 0.00811778 -5.7955e-20)
(-0.0685277 0.00833515 3.70117e-20)
(-0.0722918 0.0086611 -1.1971e-20)
(-0.076079 0.00909751 -4.35913e-20)
(-0.0798447 0.00964583 4.12163e-20)
(-0.083913 0.0102848 -3.06286e-20)
(-0.000758761 0.00278889 1.14656e-19)
(-0.00335032 0.00693518 5.93794e-20)
(-0.00767775 0.00985519 6.6779e-20)
(-0.0128225 0.0118317 5.55663e-21)
(-0.018312 0.0130802 3.6909e-20)
(-0.0238838 0.0137753 4.60669e-20)
(-0.0293519 0.0140655 -8.37135e-20)
(-0.0345977 0.0140751 -4.4332e-20)
(-0.0395573 0.0139084 -5.77355e-20)
(-0.0442063 0.0136524 6.16344e-20)
(-0.0485495 0.0133796 -4.70757e-20)
(-0.0526124 0.0131498 -6.05676e-20)
(-0.0564355 0.0130113 -2.20531e-20)
(-0.060069 0.0130023 2.09515e-20)
(-0.0635691 0.0131508 -5.82525e-21)
(-0.0669992 0.0134749 8.39997e-21)
(-0.0704236 0.0139834 9.72202e-20)
(-0.0738602 0.0146805 -1.365e-20)
(-0.0772641 0.0155696 -9.88326e-20)
(-0.0809661 0.0166151 1.30293e-19)
(-0.00101692 0.0038832 3.98916e-20)
(-0.00397519 0.0096506 -5.635e-20)
(-0.00852886 0.0137043 -1.41355e-20)
(-0.0137897 0.0164378 2.64259e-20)
(-0.0193049 0.0181516 7.50374e-20)
(-0.0248267 0.0190894 1.64289e-19)
(-0.0301803 0.0194576 1.60532e-19)
(-0.0352555 0.0194298 1.33359e-20)
(-0.0399945 0.0191508 9.84423e-20)
(-0.0443771 0.0187421 1.50679e-19)
(-0.048411 0.0183052 -1.20401e-19)
(-0.0521243 0.0179246 1.78186e-19)
(-0.0555599 0.0176693 -4.03456e-20)
(-0.0587708 0.0175945 1.01787e-20)
(-0.0618169 0.0177419 4.21364e-20)
(-0.0647658 0.0181394 5.59939e-20)
(-0.067688 0.0188016 -8.81187e-20)
(-0.0706067 0.0197368 -7.35456e-20)
(-0.0734772 0.0209521 -1.30159e-19)
(-0.0766415 0.0223969 1.89465e-19)
(-0.00135751 0.00494145 -2.08418e-20)
(-0.0048003 0.0122745 -2.13345e-19)
(-0.00965396 0.0174187 -6.31044e-20)
(-0.0150693 0.0208739 -1.53778e-19)
(-0.02062 0.0230225 5.81272e-20)
(-0.0260774 0.0241749 -9.16756e-20)
(-0.0312823 0.0245933 3.15261e-20)
(-0.0361359 0.0244982 -1.94167e-19)
(-0.0405881 0.0240737 1.02432e-19)
(-0.0446245 0.0234745 -1.22154e-19)
(-0.0482564 0.0228309 -1.08634e-19)
(-0.051515 0.0222522 -1.21635e-19)
(-0.054446 0.0218293 1.1041e-19)
(-0.0571057 0.0216363 -9.91295e-20)
(-0.0595585 0.0217307 1.38037e-19)
(-0.0618782 0.0221532 3.98938e-20)
(-0.0641431 0.0229271 9.87481e-20)
(-0.0663842 0.0240673 4.33403e-20)
(-0.0685586 0.0255876 -1.71596e-19)
(-0.0710251 0.0274225 2.7925e-19)
(-0.00177729 0.005956 9.18764e-20)
(-0.00581771 0.0147858 7.06869e-21)
(-0.0110422 0.0209667 3.78484e-20)
(-0.0166486 0.0250996 1.32065e-19)
(-0.0222434 0.027646 -2.02185e-20)
(-0.0276225 0.0289793 2.14457e-19)
(-0.0326461 0.0294151 9.51834e-20)
(-0.0372296 0.0292177 8.00157e-21)
(-0.0413332 0.0286085 2.44754e-19)
(-0.0449492 0.0277737 8.01964e-20)
(-0.0480934 0.0268715 3.80437e-20)
(-0.0508 0.026036 1.20744e-19)
(-0.0531179 0.0253812 1.10675e-19)
(-0.0551067 0.025002 2.02046e-19)
(-0.056836 0.0249752 -1.80591e-19)
(-0.0583869 0.0253578 2.5527e-19)
(-0.0598478 0.0261861 3.3476e-21)
(-0.0612605 0.0274859 -3.26277e-19)
(-0.0625864 0.0292823 4.22965e-19)
(-0.0642084 0.0314952 1.75224e-19)
(-0.00227248 0.00692057 -5.41449e-20)
(-0.00701741 0.0171666 -9.82829e-20)
(-0.0126786 0.0243202 -2.04522e-19)
(-0.0185087 0.0290797 -6.06144e-21)
(-0.0241535 0.0319813 3.48981e-20)
(-0.0294385 0.0334584 -2.61158e-19)
(-0.0342476 0.033876 -1.93748e-19)
(-0.0385139 0.0335391 -2.77156e-20)
(-0.0422098 0.0327032 -2.45071e-19)
(-0.0453358 0.0315837 -1.69678e-19)
(-0.0479127 0.0303648 -4.94502e-20)
(-0.049978 0.0292052 -1.59226e-19)
(-0.0515829 0.0282423 -2.59566e-21)
(-0.0527906 0.0275944 -2.11449e-19)
(-0.0536755 0.027361 8.89458e-20)
(-0.054327 0.0276204 -1.01479e-19)
(-0.054846 0.028428 7.77358e-20)
(-0.0552877 0.029827 -9.8923e-20)
(-0.0556227 0.0318606 -2.82698e-19)
(-0.0562676 0.0344362 -8.59011e-20)
(-0.00283886 0.00782993 -1.99279e-20)
(-0.00838702 0.0194007 -2.16409e-20)
(-0.0145435 0.0274545 1.71476e-19)
(-0.0206232 0.032783 -2.79041e-19)
(-0.0263175 0.0359937 4.09369e-20)
(-0.0314874 0.037576 -1.61185e-19)
(-0.0360451 0.0379402 7.61712e-20)
(-0.0399447 0.0374282 3.42362e-19)
(-0.0431735 0.0363251 -2.19629e-20)
(-0.0457415 0.0348725 -2.55402e-19)
(-0.0476753 0.0332777 4.64081e-20)
(-0.0490152 0.0317223 8.99831e-21)
(-0.0498144 0.0303673 -5.24351e-20)
(-0.0501385 0.0293558 5.30646e-21)
(-0.0500664 0.0288141 4.60671e-19)
(-0.0496961 0.0288479 -6.55967e-20)
(-0.0491424 0.0295392 -1.27955e-19)
(-0.0484776 0.0309584 -2.2957e-19)
(-0.0476872 0.033177 2.34194e-19)
(-0.0472353 0.0360951 1.00966e-19)
(-0.00347161 0.00867946 1.00622e-19)
(-0.00991135 0.0214734 -1.31646e-19)
(-0.0166109 0.030347 1.86121e-19)
(-0.0229554 0.0361819 1.8736e-19)
(-0.0286884 0.0396537 1.72715e-19)
(-0.0337125 0.0413037 3.50229e-19)
(-0.0379728 0.0415834 2.26478e-19)
(-0.0414485 0.0408662 -4.86664e-19)
(-0.0441446 0.0394628 2.4889e-19)
(-0.0460825 0.0376356 1.95303e-19)
(-0.0472952 0.0356116 -2.77322e-21)
(-0.0478261 0.033592 2.18622e-19)
(-0.0477293 0.0317595 1.70439e-19)
(-0.0470715 0.030283 -9.27149e-20)
(-0.0459348 0.0293186 3.13281e-19)
(-0.044425 0.0290059 -3.8835e-19)
(-0.042672 0.0294631 1.55438e-19)
(-0.0407686 0.0308008 1.99892e-19)
(-0.038722 0.0331345 -4.65748e-20)
(-0.0370632 0.0363662 4.01443e-19)
(-0.00416513 0.00946454 2.02202e-19)
(-0.0115717 0.0233704 1.04839e-20)
(-0.0188477 0.0329757 -7.25729e-20)
(-0.0254566 0.0392504 -7.66572e-20)
(-0.0312019 0.0429349 -3.54986e-19)
(-0.0360333 0.044619 5.02683e-20)
(-0.0399341 0.0447901 1.42424e-19)
(-0.042913 0.0438488 -6.85035e-20)
(-0.0449961 0.0421254 5.65079e-20)
(-0.0462184 0.0398978 -1.49839e-20)
(-0.0466208 0.0374068 -7.3813e-20)
(-0.0462501 0.0348682 7.00805e-20)
(-0.0451609 0.0324829 -3.04682e-19)
(-0.0434191 0.0304436 2.92087e-19)
(-0.0411081 0.0289376 -2.52994e-19)
(-0.03834 0.0281441 7.81497e-20)
(-0.0352596 0.0282283 1.77825e-19)
(-0.0319825 0.0293576 -3.69914e-20)
(-0.028546 0.0317137 -1.23044e-19)
(-0.0255738 0.0352173 -8.364e-20)
(-0.00491272 0.01018 -2.51873e-19)
(-0.0133452 0.0250762 -1.6571e-20)
(-0.0212119 0.035318 5.3043e-20)
(-0.0280645 0.0419622 1.36376e-19)
(-0.0337731 0.045812 -1.92534e-19)
(-0.038341 0.0475019 -1.68011e-19)
(-0.0417953 0.0475515 3.92152e-19)
(-0.0441784 0.0463828 -2.16692e-19)
(-0.0455413 0.0443402 -1.39782e-19)
(-0.0459361 0.0417111 -2.00568e-19)
(-0.0454138 0.0387428 1.32776e-19)
(-0.0440258 0.035659 -3.59022e-21)
(-0.0418272 0.0326718 -2.47953e-19)
(-0.0388823 0.0299925 -4.05612e-19)
(-0.0352733 0.0278376 3.09016e-19)
(-0.0311163 0.0264286 -2.50372e-19)
(-0.0265696 0.0259873 3.54974e-19)
(-0.0217725 0.0267571 -9.94406e-20)
(-0.0167994 0.0290167 2.09005e-19)
(-0.0124018 0.0327316 -7.09487e-19)
(-0.00570628 0.0108197 -5.10109e-19)
(-0.0152038 0.0265734 3.34477e-19)
(-0.0236522 0.0373487 4.54894e-20)
(-0.0307008 0.0442888 8.79875e-21)
(-0.0362944 0.0482576 -2.06233e-19)
(-0.0404956 0.0499318 3.03274e-19)
(-0.0433803 0.0498594 3.31046e-20)
(-0.0450296 0.0484798 -6.2189e-20)
(-0.0455236 0.0461461 -1.99612e-19)
(-0.0449351 0.0431484 2.15771e-19)
(-0.0433291 0.0397336 5.47057e-19)
(-0.0407643 0.0361243 -1.20854e-19)
(-0.037298 0.0325343 2.73098e-19)
(-0.0329933 0.0291838 -3.22596e-19)
(-0.0279299 0.0263109 -3.09327e-19)
(-0.0222251 0.0241757 1.85984e-19)
(-0.0160484 0.023062 3.07274e-19)
(-0.00956105 0.0233079 -9.95703e-19)
(-0.00287861 0.0253268 1.16918e-19)
(0.00307555 0.029169 1.58994e-19)
(-0.00653597 0.0113765 3.77735e-19)
(-0.0171141 0.0278422 1.24252e-19)
(-0.0261065 0.0390395 6.47272e-19)
(-0.0332711 0.0461972 3.33077e-20)
(-0.0386342 0.050239 -7.19863e-20)
(-0.0423231 0.0518824 -3.42794e-19)
(-0.0444676 0.0517011 2.91515e-19)
(-0.0451916 0.0501485 5.23013e-19)
(-0.0446085 0.0475828 3.48459e-19)
(-0.0428166 0.0442916 2.51575e-19)
(-0.0398993 0.0405145 2.16885e-19)
(-0.0359274 0.0364638 -3.89465e-19)
(-0.0309651 0.0323437 -1.21997e-19)
(-0.0250773 0.0283696 -8.98571e-20)
(-0.0183427 0.0247863 9.62883e-19)
(-0.0108787 0.0218799 -3.29425e-21)
(-0.00286336 0.0199903 -2.39972e-19)
(0.00552414 0.0195616 -7.5666e-20)
(0.0141309 0.0211844 6.88662e-19)
(0.02181 0.0250466 9.03674e-20)
(-0.00739015 0.011842 -1.86277e-20)
(-0.0190367 0.0288605 -3.57334e-19)
(-0.0285022 0.0403584 -5.31601e-19)
(-0.0356639 0.0476493 -1.47922e-19)
(-0.040636 0.0517169 8.16793e-20)
(-0.0436153 0.0533185 1.75886e-20)
(-0.0447891 0.0530528 4.66454e-19)
(-0.0443276 0.0513858 -5.78513e-19)
(-0.0423813 0.0486787 -2.20054e-19)
(-0.0390786 0.0452142 -4.43483e-19)
(-0.0345266 0.0412204 -3.77736e-19)
(-0.0288155 0.0368922 -3.34482e-19)
(-0.0220237 0.0324132 8.36316e-20)
(-0.0142259 0.0279781 -1.08596e-19)
(-0.00550604 0.0238172 4.65314e-19)
(0.00401462 0.0202188 -2.55028e-19)
(0.0141488 0.0175558 -7.99498e-19)
(0.0247055 0.0163716 -1.61304e-19)
(0.0355108 0.0174685 3.94593e-19)
(0.0451445 0.0212344 -3.43795e-19)
(-0.00825535 0.0122076 -6.02682e-20)
(-0.0209262 0.0296047 4.37036e-19)
(-0.0307558 0.0412702 -5.57383e-19)
(-0.0377508 0.0486021 1.28834e-19)
(-0.042119 0.0526442 -2.65373e-19)
(-0.0441303 0.0541944 5.91111e-19)
(-0.0440316 0.0538762 -4.22476e-19)
(-0.0420416 0.0521691 4.83357e-19)
(-0.0383506 0.0494383 -4.58297e-19)
(-0.0331204 0.0459627 1.95553e-19)
(-0.0264879 0.0419588 -9.49002e-20)
(-0.0185708 0.0376021 -2.38287e-19)
(-0.00947307 0.0330492 -2.94445e-19)
(0.00070762 0.028461 2.93405e-19)
(0.0118681 0.024031 -2.45732e-19)
(0.0238708 0.0200156 -5.3733e-19)
(0.0365102 0.0167777 5.59407e-19)
(0.0495858 0.0149208 -7.13695e-19)
(0.062937 0.0154672 3.21003e-19)
(0.0748422 0.019056 8.14275e-21)
(-0.00911655 0.0124651 -5.46417e-19)
(-0.0227315 0.030051 -5.89985e-19)
(-0.0327727 0.041739 6.79892e-20)
(-0.0393859 0.0490103 -5.68961e-19)
(-0.0428779 0.0529694 -5.06388e-20)
(-0.0435931 0.0544557 -4.18527e-19)
(-0.041839 0.0541191 -9.60158e-20)
(-0.0378832 0.0524549 -2.80618e-19)
(-0.0319559 0.0498359 2.4939e-21)
(-0.0242549 0.0465419 -1.22788e-19)
(-0.0149517 0.0427836 8.7217e-21)
(-0.00419988 0.0387225 -3.53852e-19)
(0.00785781 0.0344907 3.90034e-19)
(0.0210821 0.030212 -5.53418e-19)
(0.0353276 0.0260285 1.96099e-19)
(0.0504152 0.0221323 7.45955e-21)
(0.0660963 0.018818 -3.12374e-19)
(0.0821471 0.0166695 7.74613e-19)
(0.09847 0.0168792 -1.85052e-19)
(0.113077 0.020339 -1.20011e-19)
(-0.00995738 0.012607 6.13371e-19)
(-0.0243951 0.0301775 3.31198e-19)
(-0.0344463 0.0417308 3.08083e-19)
(-0.0404052 0.0488303 4.59939e-20)
(-0.0426815 0.0526415 4.16595e-19)
(-0.0416954 0.0540467 6.00478e-19)
(-0.037814 0.0537237 4.91656e-19)
(-0.0313518 0.0521863 4.40047e-20)
(-0.0225781 0.0498206 3.60072e-19)
(-0.0117265 0.0469149 5.5638e-19)
(0.000993947 0.0436844 -1.44334e-19)
(0.0153868 0.0402898 2.42239e-19)
(0.0312574 0.0368529 1.956e-19)
(0.0484042 0.0334729 1.99001e-19)
(0.0666096 0.0302457 1.17758e-18)
(0.0856155 0.0272859 -4.41395e-19)
(0.105084 0.0247683 -2.69806e-20)
(0.124717 0.0231436 5.12354e-19)
(0.144522 0.0236411 -2.90592e-19)
(0.162399 0.0273186 1.43674e-19)
(-0.0107602 0.0126279 -4.9602e-19)
(-0.0258529 0.029966 3.17782e-20)
(-0.0356564 0.0412174 -3.9707e-19)
(-0.0406233 0.0480265 -5.16864e-20)
(-0.0412701 0.0516199 2.90669e-19)
(-0.038093 0.0529227 -8.6532e-19)
(-0.0315168 0.0526417 -6.3948e-22)
(-0.0219001 0.0513121 4.02713e-19)
(-0.0095483 0.0493377 3.78379e-19)
(0.00527032 0.047024 -1.66592e-19)
(0.0223083 0.0446033 5.49381e-20)
(0.0413217 0.0422529 1.27423e-19)
(0.0620537 0.040109 -6.03277e-20)
(0.0842205 0.0382767 -6.76951e-19)
(0.1075 0.036841 1.71383e-19)
(0.131505 0.03587 4.71996e-19)
(0.155735 0.0354173 -6.7268e-19)
(0.179718 0.03571 3.28143e-19)
(0.203543 0.0378498 8.81896e-20)
(0.225355 0.042875 4.46866e-19)
(-0.0115058 0.012524 -7.32372e-20)
(-0.0270323 0.0294034 -3.47555e-19)
(-0.0362659 0.0401805 1.59932e-19)
(-0.0398293 0.0465788 7.38469e-22)
(-0.03835 0.0498847 -6.97041e-19)
(-0.0324004 0.0510657 1.08776e-19)
(-0.0224612 0.0508569 -2.06577e-20)
(-0.00893229 0.0498151 1.40721e-19)
(0.00784667 0.0483647 -6.44148e-19)
(0.0275746 0.0468335 -4.51646e-20)
(0.0499662 0.0454805 -1.51356e-19)
(0.0747289 0.0445164 1.34631e-19)
(0.10154 0.0441186 4.54604e-19)
(0.130025 0.044443 -7.02779e-20)
(0.159731 0.0456326 2.72409e-20)
(0.190087 0.0478114 1.79133e-19)
(0.22032 0.0510444 -4.42212e-20)
(0.249554 0.0554776 3.62121e-19)
(0.277694 0.0622198 -2.09704e-19)
(0.303483 0.0719935 -3.3246e-19)
(-0.0121722 0.0122932 6.79335e-20)
(-0.0278495 0.0284829 1.65725e-20)
(-0.0361167 0.038615 1.39369e-19)
(-0.0377809 0.0444891 3.4135e-19)
(-0.0335868 0.047449 1.9155e-19)
(-0.0241843 0.0485022 1.99863e-20)
(-0.0101099 0.0484089 -2.28674e-19)
(0.00819455 0.0477451 5.8621e-20)
(0.0303542 0.0469532 3.08313e-19)
(0.0560331 0.0463813 -5.22463e-19)
(0.0849072 0.0463142 3.94267e-19)
(0.11664 0.046998 -2.97097e-19)
(0.150856 0.0486611 2.52192e-19)
(0.187123 0.0515364 -5.44067e-19)
(0.224917 0.0558856 5.98837e-19)
(0.263565 0.062014 -6.40644e-19)
(0.302102 0.0702675 -1.66761e-19)
(0.339206 0.0812755 5.24337e-19)
(0.373713 0.0970185 -1.76774e-19)
(0.402455 0.1176 7.90918e-20)
(-0.0127336 0.0119344 -5.14132e-20)
(-0.0282061 0.0272042 4.85195e-19)
(-0.0350243 0.0365317 -2.03454e-21)
(-0.034199 0.0417875 -3.01203e-19)
(-0.0266001 0.0443685 -2.02568e-19)
(-0.0129597 0.0453176 3.71107e-19)
(0.00612496 0.045415 -1.46989e-19)
(0.0301622 0.045249 -1.85172e-20)
(0.0587306 0.0452709 3.06343e-19)
(0.0914444 0.0458363 -3.80573e-19)
(0.127926 0.0472372 4.17414e-20)
(0.167782 0.0497279 -4.94868e-19)
(0.210596 0.0535497 2.60685e-19)
(0.255917 0.0589601 -7.46148e-19)
(0.303273 0.0662701 1.18931e-18)
(0.352183 0.075896 -2.17839e-19)
(0.40219 0.0884766 2.2806e-19)
(0.453153 0.10542 -5.91945e-19)
(0.505551 0.129752 3.23784e-21)
(0.551397 0.157302 6.76006e-19)
(-0.0131576 0.0114465 -1.55757e-19)
(-0.0279849 0.0255728 1.34572e-19)
(-0.0327741 0.0339587 -4.95593e-19)
(-0.0287638 0.0385358 7.33018e-19)
(-0.0169616 0.0407473 -5.29212e-19)
(0.00180812 0.0416657 2.73133e-20)
(0.026873 0.0420834 -5.70658e-19)
(0.057671 0.0425905 4.08012e-19)
(0.0937042 0.0436325 -5.82891e-20)
(0.134499 0.0455514 -3.60095e-19)
(0.179574 0.0486142 -2.10175e-19)
(0.228429 0.0530366 2.22066e-19)
(0.280533 0.0590002 1.46938e-19)
(0.335346 0.0666707 -6.50553e-19)
(0.392339 0.0762138 2.34779e-19)
(0.451046 0.0878072 -3.46801e-19)
(0.511124 0.101661 4.20518e-20)
(0.57258 0.118218 -2.95497e-19)
(0.636258 0.138646 1.22023e-19)
(0.694908 0.15898 -4.44739e-19)
(-0.0134033 0.0108279 4.43419e-19)
(-0.0270465 0.0236006 -2.68557e-19)
(-0.0291181 0.0309422 2.21291e-19)
(-0.0211147 0.0348289 -2.79375e-19)
(-0.00419983 0.0367402 4.68294e-19)
(0.0206907 0.0377702 -8.19252e-21)
(0.0527822 0.0387131 -5.70092e-20)
(0.091403 0.0401473 -4.22698e-20)
(0.135927 0.042494 2.60183e-19)
(0.185725 0.0460563 4.4244e-19)
(0.240139 0.0510446 -2.61357e-19)
(0.298467 0.0575955 2.54138e-19)
(0.359972 0.065785 4.64405e-19)
(0.423903 0.0756376 -3.25621e-19)
(0.489531 0.0871318 -6.62184e-19)
(0.556196 0.100195 1.21154e-18)
(0.623349 0.114688 -2.16266e-19)
(0.690638 0.130444 -7.04214e-20)
(0.75827 0.147788 7.60959e-19)
(0.821045 0.165823 -1.60424e-19)
(-0.0134192 0.0100769 -7.21906e-19)
(-0.0252274 0.0213062 -4.80578e-19)
(-0.0237762 0.027547 -1.84485e-19)
(-0.0108565 0.0307945 3.55922e-19)
(0.0121855 0.0325498 -8.03522e-19)
(0.0442702 0.0339175 4.16117e-19)
(0.0844751 0.0356792 5.27369e-20)
(0.131957 0.0383828 5.33293e-20)
(0.185884 0.0424015 -5.45043e-19)
(0.245384 0.0479694 -1.92483e-19)
(0.309522 0.0552062 -3.39358e-19)
(0.377302 0.064134 3.27796e-19)
(0.447684 0.0746909 9.31351e-20)
(0.519628 0.0867416 1.82869e-20)
(0.592134 0.100084 4.28073e-19)
(0.664289 0.114449 -4.33412e-19)
(0.735305 0.129493 -1.80627e-20)
(0.804548 0.144813 1.08049e-20)
(0.871701 0.160252 5.91858e-20)
(0.933868 0.177363 3.38131e-19)
(-0.0131426 0.00919226 2.29856e-19)
(-0.0223403 0.018717 5.92014e-19)
(-0.0164402 0.0238581 4.7509e-19)
(0.00242855 0.0265925 -1.6376e-19)
(0.0326992 0.0284221 5.69558e-19)
(0.0730982 0.0304454 -4.79875e-20)
(0.122486 0.0334103 -6.75951e-20)
(0.179761 0.0378075 4.02404e-20)
(0.243783 0.0439289 5.50581e-19)
(0.313329 0.0519023 3.23526e-19)
(0.387088 0.0617174 9.4477e-20)
(0.463684 0.0732464 5.78843e-21)
(0.54172 0.0862649 -6.27318e-19)
(0.619846 0.100471 5.4508e-19)
(0.696807 0.115502 9.36411e-20)
(0.771503 0.130949 -1.54036e-19)
(0.843017 0.146365 -6.69445e-19)
(0.91064 0.161294 -5.68798e-20)
(0.973843 0.175272 2.64892e-19)
(1.03182 0.191439 -5.41978e-20)
(-0.012499 0.00817502 -5.83301e-19)
(-0.0181767 0.0158719 2.44054e-19)
(-0.00678363 0.0199828 -1.19152e-18)
(0.0191621 0.0224151 4.87993e-19)
(0.0578184 0.0246422 -3.89172e-19)
(0.107644 0.0277311 2.86912e-19)
(0.167187 0.032365 -4.45717e-19)
(0.234972 0.0389387 4.09166e-20)
(0.309432 0.0476184 -2.29767e-20)
(0.388883 0.0583788 1.19896e-19)
(0.471551 0.0710358 1.73198e-19)
(0.555636 0.0852791 -3.27353e-19)
(0.639393 0.100706 1.73341e-19)
(0.721217 0.116855 1.593e-19)
(0.799711 0.133237 6.88898e-19)
(0.87374 0.149362 -2.99058e-19)
(0.942449 0.164757 -1.99165e-19)
(1.00528 0.179015 3.35141e-19)
(1.06182 0.191572 1.79344e-19)
(1.11264 0.206281 -3.36712e-19)
(-0.0114039 0.00703126 5.10961e-19)
(-0.0125123 0.0128268 4.92693e-19)
(0.00552664 0.0160551 1.42135e-19)
(0.0397462 0.018488 5.98662e-19)
(0.087954 0.0215293 2.94089e-19)
(0.14824 0.0261778 -5.30154e-19)
(0.218715 0.0330066 8.02973e-19)
(0.297397 0.0422616 -3.95158e-19)
(0.382164 0.0539264 3.94489e-19)
(0.47078 0.067769 5.10504e-19)
(0.56097 0.0833897 -2.91759e-19)
(0.650535 0.100273 5.54129e-20)
(0.737469 0.11784 3.09213e-19)
(0.820059 0.135497 2.17967e-19)
(0.896954 0.152682 5.02469e-19)
(0.967193 0.168888 -2.00847e-19)
(1.0302 0.183692 -2.45974e-20)
(1.08577 0.19679 3.17809e-19)
(1.13385 0.207706 -6.82524e-20)
(1.17582 0.220347 3.42849e-22)
(-0.00976472 0.0057747 -2.63771e-19)
(-0.00511544 0.00965873 -9.695e-19)
(0.0208138 0.0122402 2.28302e-19)
(0.0645366 0.0150717 -1.738e-19)
(0.123411 0.0194329 -4.01188e-19)
(0.195027 0.0262015 -2.86426e-19)
(0.276909 0.0357782 -1.76951e-19)
(0.366426 0.0481917 4.29756e-19)
(0.460798 0.0631775 -2.55231e-19)
(0.557191 0.0802442 -2.61375e-19)
(0.652865 0.0987466 -3.30706e-19)
(0.745336 0.117963 -5.45902e-20)
(0.832516 0.137169 -3.69237e-20)
(0.912806 0.155696 -7.65503e-19)
(0.98513 0.172974 3.71435e-19)
(1.04893 0.188564 -4.88418e-19)
(1.10408 0.202157 1.53718e-19)
(1.15086 0.213596 -1.17015e-18)
(1.18973 0.222614 3.52636e-19)
(1.22241 0.232752 4.46805e-19)
(-0.00748393 0.0044294 -6.62314e-20)
(0.00424363 0.00647172 4.7301e-19)
(0.0393731 0.00873817 3.03229e-20)
(0.0938132 0.0124618 7.2968e-20)
(0.164345 0.0187255 -1.4835e-19)
(0.247903 0.0282137 -2.43764e-21)
(0.341263 0.0410745 -3.80888e-21)
(0.441018 0.0570395 -8.95158e-20)
(0.543674 0.0755296 3.17491e-19)
(0.645837 0.0957544 1.22772e-19)
(0.744433 0.11682 5.57497e-19)
(0.836904 0.137832 -1.52028e-19)
(0.92133 0.157983 1.06209e-19)
(0.996482 0.176607 -1.38577e-20)
(1.06179 0.193219 2.94321e-19)
(1.11726 0.207515 1.8025e-19)
(1.16335 0.21936 4.34773e-19)
(1.20084 0.228768 -7.02445e-19)
(1.23066 0.235718 8.84434e-19)
(1.25468 0.243206 -2.803e-19)
(-0.00446299 0.00303202 -6.16608e-19)
(0.015781 0.00339987 -1.92472e-19)
(0.0614511 0.00578633 1.50442e-19)
(0.127751 0.0109856 9.48463e-20)
(0.210731 0.019791 9.71716e-20)
(0.306493 0.0326006 9.85219e-20)
(0.410914 0.0492138 -2.46562e-19)
(0.519729 0.0689808 -1.01976e-19)
(0.628757 0.0909546 3.16238e-20)
(0.734186 0.114036 -3.02123e-19)
(0.832844 0.137116 -1.36721e-19)
(0.922378 0.1592 8.26324e-19)
(1.00132 0.179488 -2.13154e-19)
(1.06906 0.197417 -2.94084e-19)
(1.12569 0.212665 -1.39743e-19)
(1.17186 0.225122 9.66904e-20)
(1.2086 0.234857 1.18144e-19)
(1.23716 0.242056 -5.66372e-19)
(1.25882 0.246921 8.20079e-19)
(1.27543 0.251882 -7.10966e-19)
(-0.000606378 0.00163326 -6.98035e-20)
(0.0296864 0.000609236 1.99995e-20)
(0.0872252 0.0036575 -2.54873e-20)
(0.16639 0.0109947 3.72468e-19)
(0.262327 0.0230087 2.05077e-20)
(0.370127 0.0396986 1.36782e-19)
(0.484655 0.0604094 -2.84168e-19)
(0.60079 0.0840364 -1.03661e-20)
(0.713799 0.109241 3.94823e-19)
(0.819703 0.134646 5.50559e-20)
(0.915545 0.159009 -3.44111e-19)
(0.999494 0.181337 -3.02281e-20)
(1.07079 0.200948 -2.82972e-19)
(1.12959 0.217471 2.81692e-19)
(1.17674 0.230811 3.91571e-19)
(1.21351 0.241083 -4.31761e-20)
(1.24141 0.248552 -5.27007e-20)
(1.262 0.253554 1.60642e-19)
(1.27677 0.256456 -5.16811e-19)
(1.28748 0.25919 4.5513e-19)
(0.00417388 0.000298487 7.00736e-20)
(0.0461102 -0.00170301 -4.52135e-19)
(0.116782 0.00265462 1.21009e-19)
(0.209614 0.0128516 -3.75309e-19)
(0.318661 0.028732 1.29046e-19)
(0.437853 0.0497673 -4.79266e-19)
(0.561 0.074748 1.93323e-19)
(0.682239 0.102068 -6.15418e-20)
(0.79654 0.13002 -2.49606e-21)
(0.900098 0.15703 6.3014e-20)
(0.990517 0.181836 -2.29559e-19)
(1.06677 0.203574 -3.27852e-19)
(1.12899 0.221781 -6.72784e-20)
(1.17816 0.236348 -3.02049e-20)
(1.21582 0.247435 -7.66565e-20)
(1.24376 0.255376 -2.49881e-20)
(1.26382 0.260606 -7.48112e-20)
(1.27772 0.263566 -6.48874e-20)
(1.28698 0.264725 -1.93206e-19)
(1.29322 0.265609 3.06662e-19)
(0.00995334 -0.00089256 1.68595e-19)
(0.0651499 -0.00331216 -1.87233e-19)
(0.150099 0.00310098 4.02939e-19)
(0.257127 0.0169122 -1.73912e-19)
(0.379026 0.0372635 4.64809e-19)
(0.508469 0.0629671 6.61262e-21)
(0.638276 0.0921801 2.3345e-19)
(0.76208 0.122796 -6.25216e-20)
(0.874913 0.152812 2.60975e-19)
(0.97353 0.180589 1.88886e-20)
(1.05642 0.204985 6.21587e-19)
(1.12355 0.225379 -4.29124e-19)
(1.17602 0.24161 5.78044e-20)
(1.21559 0.253863 1.10352e-19)
(1.24437 0.262547 5.78412e-19)
(1.26451 0.268185 -2.07832e-19)
(1.27798 0.271329 -4.12232e-20)
(1.28651 0.272481 -2.18502e-19)
(1.29156 0.272157 -2.30521e-20)
(1.29456 0.271563 1.09373e-19)
(0.0167901 -0.00184694 -8.09498e-20)
(0.0868372 -0.00397224 2.338e-19)
(0.187028 0.00532667 -2.39333e-19)
(0.308454 0.0235046 9.45458e-20)
(0.442504 0.0488326 -1.13002e-19)
(0.580591 0.0793431 4.14821e-19)
(0.714742 0.112524 -5.77704e-20)
(0.838444 0.145828 1.42382e-19)
(0.947214 0.177091 -8.38322e-20)
(1.03873 0.204761 -2.1968e-21)
(1.11261 0.227956 9.58214e-20)
(1.16991 0.246396 -7.42581e-20)
(1.21264 0.260261 1.92644e-19)
(1.2432 0.270027 -9.60347e-20)
(1.2641 0.276318 -4.23112e-19)
(1.27764 0.279796 4.20736e-19)
(1.2858 0.281077 -1.89648e-19)
(1.2902 0.280682 1.51449e-19)
(1.29215 0.279129 2.62716e-19)
(1.29288 0.277383 1.07941e-19)
(0.0247198 -0.00246066 2.01422e-19)
(0.111128 -0.0034247 -4.1507e-19)
(0.227289 0.00965238 7.94221e-20)
(0.362939 0.0329085 -5.76129e-20)
(0.507998 0.0635761 -2.32363e-19)
(0.652738 0.0988216 -1.82372e-19)
(0.78872 0.135489 -3.5846e-20)
(0.909731 0.170712 -3.25191e-19)
(1.0122 0.202338 -1.98089e-20)
(1.09503 0.229066 -6.04377e-20)
(1.15908 0.250393 -1.64102e-19)
(1.20648 0.266437 -3.64583e-20)
(1.24 0.277722 -1.25645e-19)
(1.2625 0.28498 -2.09775e-19)
(1.2767 0.289 2.14876e-19)
(1.28488 0.290524 2.96486e-20)
(1.2889 0.290187 5.90867e-20)
(1.29023 0.288489 -2.47686e-19)
(1.28996 0.285934 -6.1815e-21)
(1.28912 0.283292 -3.8232e-19)
(0.0337509 -0.00262164 2.20861e-19)
(0.137891 -0.00140901 1.47303e-19)
(0.270463 0.0163718 -2.37482e-19)
(0.41977 0.0453346 3.70849e-19)
(0.574297 0.0815274 -3.99759e-20)
(0.723429 0.121218 1.38531e-19)
(0.858705 0.160702 4.79656e-20)
(0.974697 0.196976 1.6996e-19)
(1.06911 0.228087 -1.33086e-19)
(1.14227 0.253138 4.43671e-20)
(1.19629 0.272084 -4.25915e-20)
(1.23422 0.285456 -1.87512e-20)
(1.2594 0.294093 3.56448e-20)
(1.27498 0.298932 -6.56961e-20)
(1.28365 0.300864 -2.0199e-20)
(1.28762 0.300659 -6.18025e-20)
(1.28852 0.298935 -1.00482e-19)
(1.28761 0.296145 6.48702e-20)
(1.28579 0.29277 -8.90511e-20)
(1.2839 0.289419 3.848e-19)
(0.0438607 -0.00221358 -1.10304e-19)
(0.166911 0.0023253 -3.12451e-19)
(0.316005 0.0257345 -4.15938e-20)
(0.478013 0.0609106 -1.13159e-20)
(0.640138 0.102615 -1.39962e-19)
(0.791275 0.146256 -2.29809e-19)
(0.923456 0.18775 7.52336e-20)
(1.0325 0.224171 -1.03381e-19)
(1.11766 0.253956 -1.15866e-19)
(1.18075 0.276726 6.45593e-20)
(1.22501 0.292933 -4.8796e-20)
(1.25425 0.303502 -9.87651e-20)
(1.27216 0.309535 -3.34988e-21)
(1.28195 0.312107 6.69011e-20)
(1.28623 0.312157 -6.82814e-20)
(1.28696 0.31044 9.47547e-20)
(1.28557 0.307526 2.54842e-20)
(1.28307 0.303813 6.42558e-20)
(1.2802 0.299756 1.25294e-19)
(1.27761 0.295823 -1.07343e-19)
(0.0549923 -0.00112045 1.05367e-19)
(0.197878 0.00800605 -9.32195e-21)
(0.363257 0.0379298 4.72702e-20)
(0.536651 0.0796713 -6.41606e-20)
(0.704279 0.126667 5.27205e-21)
(0.855052 0.173593 2.22654e-19)
(0.982033 0.216208 -1.46276e-19)
(1.08266 0.251896 6.19713e-20)
(1.15792 0.279649 5.46525e-20)
(1.211 0.299679 -1.53644e-19)
(1.24615 0.312933 1.44411e-19)
(1.26768 0.320682 1.27967e-21)
(1.27944 0.324224 -1.01815e-19)
(1.28455 0.324712 1.22738e-19)
(1.28541 0.323081 -4.87253e-20)
(1.28372 0.320041 3.72664e-20)
(1.28067 0.316096 -4.16777e-20)
(1.27707 0.311587 -1.66656e-20)
(1.2735 0.306946 -1.46019e-19)
(1.27046 0.302508 4.47237e-20)
(0.0670535 0.000768464 -3.55345e-20)
(0.230404 0.015826 9.53503e-20)
(0.411473 0.0530752 1.48645e-20)
(0.594637 0.101556 6.23579e-20)
(0.765563 0.153431 2.97543e-20)
(0.913755 0.202844 1.39474e-20)
(1.03381 0.245665 7.90855e-20)
(1.12506 0.279811 -9.59855e-21)
(1.19022 0.304953 3.48829e-20)
(1.23377 0.321922 5.60594e-20)
(1.26069 0.332127 2.706e-20)
(1.27557 0.33712 1.9431e-20)
(1.28225 0.338325 7.88078e-20)
(1.28367 0.336914 -7.62887e-20)
(1.28192 0.333783 1.63786e-20)
(1.27846 0.329575 -1.53417e-20)
(1.27425 0.32472 2.37379e-20)
(1.26992 0.319505 1.98919e-20)
(1.2659 0.314344 4.15555e-20)
(1.26257 0.309443 1.74975e-21)
(0.0799166 0.00355334 2.10653e-20)
(0.264026 0.0259316 1.92417e-20)
(0.459846 0.071207 -2.66364e-20)
(0.650939 0.126414 1.66443e-20)
(0.822966 0.182585 9.40424e-21)
(0.966616 0.233605 -2.92549e-20)
(1.07844 0.275743 9.65585e-21)
(1.15982 0.307637 1.74055e-21)
(1.21511 0.329719 1.66576e-20)
(1.24985 0.343432 -4.46691e-20)
(1.26952 0.350585 -1.39327e-22)
(1.27882 0.352935 1.23852e-20)
(1.28142 0.35197 -9.86943e-21)
(1.27997 0.348835 9.98612e-21)
(1.2763 0.344358 2.60676e-20)
(1.27158 0.339102 -1.48344e-20)
(1.26658 0.333424 4.12825e-21)
(1.26178 0.327562 1.62589e-20)
(1.25749 0.32192 -2.68088e-20)
(1.254 0.316574 1.28678e-20)
(0.0934219 0.00731872 5.87285e-20)
(0.298222 0.0384134 -3.19389e-20)
(0.507546 0.092277 3.7609e-20)
(0.704588 0.15401 -2.7984e-20)
(0.875628 0.213758 -1.25523e-20)
(1.01311 0.265475 3.7942e-21)
(1.11583 0.3061 -1.23223e-20)
(1.18725 0.335149 4.43213e-20)
(1.23318 0.353849 -3.69108e-20)
(1.26 0.364211 8.6616e-21)
(1.27346 0.368373 -6.45498e-21)
(1.27819 0.368224 -4.20614e-20)
(1.27758 0.365255 4.08031e-20)
(1.27398 0.360549 1.55386e-20)
(1.26892 0.354848 -1.54591e-20)
(1.26334 0.348633 3.6295e-20)
(1.25783 0.342192 -5.3203e-22)
(1.25275 0.335722 -3.52202e-20)
(1.24832 0.32962 2.60947e-20)
(1.24477 0.323829 8.22814e-21)
(0.107379 0.0121289 -2.0579e-20)
(0.332432 0.0532999 5.96841e-20)
(0.553748 0.116153 6.89618e-20)
(0.754711 0.184039 -3.25352e-20)
(0.922874 0.24655 5.66127e-20)
(1.05291 0.298062 8.95981e-20)
(1.14607 0.336432 -4.93286e-21)
(1.20776 0.362165 -1.53853e-20)
(1.24508 0.377272 7.60088e-20)
(1.26495 0.384271 3.70638e-20)
(1.27322 0.385547 -6.72686e-21)
(1.27428 0.383052 5.52617e-20)
(1.27122 0.378232 -5.92697e-20)
(1.26605 0.372085 9.22925e-20)
(1.26002 0.365256 -1.5398e-20)
(1.25388 0.358147 4.41148e-20)
(1.24808 0.350981 7.95302e-21)
(1.24287 0.343925 3.15764e-20)
(1.23841 0.337372 -3.00574e-20)
(1.23487 0.331127 7.23405e-21)
(0.121574 0.0180235 -3.20287e-20)
(0.366071 0.0705523 7.6026e-20)
(0.597662 0.142624 5.648e-20)
(0.800553 0.216138 -8.5586e-21)
(0.964204 0.280543 8.80073e-20)
(1.0859 0.330991 -6.57231e-20)
(1.16938 0.366471 -5.15502e-21)
(1.22186 0.38853 5.80453e-20)
(1.25143 0.399931 1.84434e-20)
(1.26535 0.403617 2.58015e-20)
(1.26936 0.402138 -3.81008e-20)
(1.26757 0.397448 9.93511e-20)
(1.26269 0.390916 1.85522e-20)
(1.25643 0.383433 -8.80102e-20)
(1.24978 0.37555 1.28591e-19)
(1.24332 0.367591 -1.51731e-19)
(1.23739 0.359724 -6.96596e-20)
(1.23217 0.352096 1.15433e-20)
(1.22776 0.345092 6.76596e-20)
(1.22429 0.338381 -1.27536e-19)
(0.135775 0.0250145 -7.21059e-20)
(0.398555 0.0900645 -1.70094e-19)
(0.638563 0.171406 -1.47065e-19)
(0.841496 0.249899 -2.0027e-19)
(0.999291 0.315312 -1.13633e-19)
(1.1121 0.36391 -2.35647e-19)
(1.18609 0.395973 2.994e-20)
(1.23006 0.41411 -1.25171e-19)
(1.25281 0.421772 -1.37424e-20)