/*--------------------------------*- C++ -*----------------------------------*\
  =========                 |
  \\      /  F ield         | OpenFOAM: The Open Source CFD Toolbox
   \\    /   O peration     | Website:  https://openfoam.org
    \\  /    A nd           | Version:  6.0
     \\/     M anipulation  |
\*---------------------------------------------------------------------------*/
FoamFile
{
    version     2.0;
    format      ascii;
    class       volScalarField;
    location    "98";
    object      p;
}
// * * * * * * * * * * * * * * * * * * * * * * * * * * * * * * * * * * * * * //

dimensions      [0 2 -2 0 0 0 0];

internalField   nonuniform List<scalar> 
4000
(
-0.422143
-0.424287
-0.425349
-0.425926
-0.426411
-0.426899
-0.427419
-0.427966
-0.428514
-0.429027
-0.429473
-0.429824
-0.430062
-0.43018
-0.430182
-0.430076
-0.429883
-0.429675
-0.429549
-0.429102
-0.412222
-0.414355
-0.415347
-0.415783
-0.41605
-0.416241
-0.416395
-0.416517
-0.416595
-0.416607
-0.416534
-0.416363
-0.416089
-0.415714
-0.415252
-0.414724
-0.414153
-0.413582
-0.413099
-0.412673
-0.40275
-0.404825
-0.405732
-0.40603
-0.40609
-0.406004
-0.405813
-0.405533
-0.405161
-0.404689
-0.404111
-0.403425
-0.402636
-0.401757
-0.400811
-0.399829
-0.398842
-0.397857
-0.396949
-0.396475
-0.393754
-0.39574
-0.396552
-0.396719
-0.396587
-0.396244
-0.395731
-0.39507
-0.394269
-0.39333
-0.392259
-0.391063
-0.389759
-0.388367
-0.386919
-0.385458
-0.384019
-0.382579
-0.381189
-0.38059
-0.385243
-0.387126
-0.387844
-0.387888
-0.387581
-0.386999
-0.386185
-0.385165
-0.383954
-0.382564
-0.38101
-0.37931
-0.37749
-0.375578
-0.373614
-0.371651
-0.369733
-0.367806
-0.36589
-0.36509
-0.37722
-0.379003
-0.379633
-0.379565
-0.379096
-0.378295
-0.377199
-0.375839
-0.374234
-0.372407
-0.370379
-0.36818
-0.365843
-0.363405
-0.360914
-0.358433
-0.356013
-0.353579
-0.351108
-0.350038
-0.369686
-0.371386
-0.371939
-0.37177
-0.371155
-0.370149
-0.368788
-0.367103
-0.36512
-0.362866
-0.360373
-0.357678
-0.354823
-0.351855
-0.348828
-0.345814
-0.342878
-0.339925
-0.336886
-0.33549
-0.362646
-0.364292
-0.364782
-0.364524
-0.363773
-0.362576
-0.360964
-0.358967
-0.356617
-0.353947
-0.350995
-0.347808
-0.344436
-0.340933
-0.337361
-0.333805
-0.330339
-0.326861
-0.323255
-0.321492
-0.356116
-0.357741
-0.358186
-0.357849
-0.356971
-0.355592
-0.353739
-0.351443
-0.348738
-0.345661
-0.34226
-0.338585
-0.334695
-0.330652
-0.326528
-0.322417
-0.31841
-0.314401
-0.310234
-0.30808
-0.350121
-0.351762
-0.352179
-0.351769
-0.350772
-0.34922
-0.347135
-0.344551
-0.341503
-0.338034
-0.334193
-0.330038
-0.325633
-0.321047
-0.316362
-0.311682
-0.307116
-0.302562
-0.297838
-0.29528
-0.344706
-0.346395
-0.346795
-0.346319
-0.345208
-0.343488
-0.341183
-0.338325
-0.334952
-0.331107
-0.326845
-0.322224
-0.317313
-0.312187
-0.306931
-0.301664
-0.296509
-0.291379
-0.28608
-0.283106
-0.339926
-0.341685
-0.342077
-0.341538
-0.340316
-0.338438
-0.335926
-0.332813
-0.329138
-0.324946
-0.320291
-0.315232
-0.309838
-0.304181
-0.298352
-0.292474
-0.286688
-0.280919
-0.274988
-0.271554
-0.335851
-0.337687
-0.338072
-0.33747
-0.336143
-0.334117
-0.331417
-0.328076
-0.324133
-0.319635
-0.314631
-0.30918
-0.303341
-0.297184
-0.29079
-0.284284
-0.277811
-0.271308
-0.264617
-0.260614
-0.332556
-0.334457
-0.334828
-0.334162
-0.332736
-0.330578
-0.327714
-0.324181
-0.320016
-0.315266
-0.309975
-0.304195
-0.297975
-0.291371
-0.284447
-0.277308
-0.270093
-0.262731
-0.255077
-0.250278
-0.330115
-0.332048
-0.33239
-0.331657
-0.330139
-0.327867
-0.324871
-0.321188
-0.316857
-0.311919
-0.306417
-0.300389
-0.293872
-0.286899
-0.279506
-0.271762
-0.263769
-0.255421
-0.246537
-0.240582
-0.328591
-0.330503
-0.33079
-0.329984
-0.328382
-0.326018
-0.322923
-0.319137
-0.314697
-0.309641
-0.304005
-0.297817
-0.291097
-0.28385
-0.276073
-0.267783
-0.259022
-0.249609
-0.239238
-0.231654
-0.328026
-0.329845
-0.330045
-0.329156
-0.327473
-0.325034
-0.321873
-0.318026
-0.31353
-0.308419
-0.30272
-0.296451
-0.289612
-0.282184
-0.274118
-0.265369
-0.255907
-0.245456
-0.233478
-0.22377
-0.328437
-0.330077
-0.330148
-0.329158
-0.327392
-0.324891
-0.321685
-0.317809
-0.313297
-0.308176
-0.302467
-0.296175
-0.289285
-0.281749
-0.273482
-0.264372
-0.254305
-0.242921
-0.229367
-0.217068
-0.329809
-0.331179
-0.33107
-0.329953
-0.328092
-0.325526
-0.322283
-0.318395
-0.313889
-0.308786
-0.303099
-0.296828
-0.289944
-0.282384
-0.274035
-0.264728
-0.254252
-0.242101
-0.226995
-0.211616
-0.3321
-0.333108
-0.332763
-0.331481
-0.329498
-0.326851
-0.323564
-0.319661
-0.315164
-0.31009
-0.304448
-0.298238
-0.291438
-0.284002
-0.275844
-0.266831
-0.25676
-0.245059
-0.230133
-0.213666
-0.33525
-0.335808
-0.335165
-0.333671
-0.331527
-0.328767
-0.32541
-0.321475
-0.316976
-0.311926
-0.306338
-0.30022
-0.293577
-0.286413
-0.278741
-0.270612
-0.262143
-0.253531
-0.24564
-0.244406
-0.339187
-0.339219
-0.338214
-0.336452
-0.334095
-0.331178
-0.327715
-0.323717
-0.319192
-0.314151
-0.30861
-0.302588
-0.296117
-0.289245
-0.282054
-0.274688
-0.267391
-0.260548
-0.25497
-0.254187
-0.343847
-0.343286
-0.341856
-0.339766
-0.337141
-0.334016
-0.330402
-0.326303
-0.32172
-0.316663
-0.311147
-0.305204
-0.298883
-0.292262
-0.285456
-0.278641
-0.272064
-0.266057
-0.261077
-0.258724
-0.349179
-0.347971
-0.346056
-0.343579
-0.340628
-0.337244
-0.333434
-0.329192
-0.324515
-0.319404
-0.313875
-0.307963
-0.301727
-0.295254
-0.288668
-0.282128
-0.275834
-0.270002
-0.264874
-0.261015
-0.355156
-0.353255
-0.350803
-0.347885
-0.344557
-0.340865
-0.336813
-0.332386
-0.327567
-0.322351
-0.316746
-0.310786
-0.304531
-0.298066
-0.291507
-0.284988
-0.278654
-0.272639
-0.267079
-0.262021
-0.361774
-0.359141
-0.356108
-0.352704
-0.348956
-0.344914
-0.340576
-0.335914
-0.330894
-0.325498
-0.319727
-0.313609
-0.307199
-0.300583
-0.293863
-0.287156
-0.280573
-0.274206
-0.268149
-0.262267
-0.369051
-0.365648
-0.361999
-0.358078
-0.353875
-0.349444
-0.344774
-0.339815
-0.334514
-0.328839
-0.322781
-0.316365
-0.309648
-0.302716
-0.295669
-0.288615
-0.281653
-0.274861
-0.268314
-0.261857
-0.377017
-0.372808
-0.368517
-0.364054
-0.359369
-0.354512
-0.349452
-0.344115
-0.338429
-0.332345
-0.325853
-0.318982
-0.311798
-0.304395
-0.296881
-0.289366
-0.281946
-0.274702
-0.267698
-0.260824
-0.385701
-0.38065
-0.375698
-0.370681
-0.365489
-0.360158
-0.354634
-0.348813
-0.342606
-0.335958
-0.328866
-0.321374
-0.313569
-0.305562
-0.297472
-0.289417
-0.281496
-0.273791
-0.266357
-0.259134
-0.395122
-0.389195
-0.383572
-0.377988
-0.372259
-0.366394
-0.360306
-0.353867
-0.346976
-0.339588
-0.331722
-0.323451
-0.314889
-0.306169
-0.297427
-0.288783
-0.280338
-0.27217
-0.264324
-0.256774
-0.405277
-0.398445
-0.392146
-0.385982
-0.379673
-0.37319
-0.366411
-0.35919
-0.351432
-0.343119
-0.334309
-0.325116
-0.315689
-0.306181
-0.296738
-0.287481
-0.278505
-0.269878
-0.261628
-0.253747
-0.416133
-0.408375
-0.401396
-0.394635
-0.387685
-0.380472
-0.372844
-0.364652
-0.35583
-0.346411
-0.336506
-0.326279
-0.315909
-0.305568
-0.295403
-0.285529
-0.276025
-0.266945
-0.258299
-0.250082
-0.42762
-0.418927
-0.411268
-0.403878
-0.396203
-0.388116
-0.379452
-0.370085
-0.360005
-0.349315
-0.338193
-0.326851
-0.315495
-0.304305
-0.293419
-0.282937
-0.272919
-0.2634
-0.254365
-0.245812
-0.439627
-0.430004
-0.421665
-0.413599
-0.405084
-0.39595
-0.386043
-0.375292
-0.363772
-0.351676
-0.339251
-0.32675
-0.314397
-0.302365
-0.290778
-0.279709
-0.269199
-0.259258
-0.249848
-0.24097
-0.452
-0.441468
-0.432446
-0.423635
-0.414138
-0.403759
-0.392391
-0.380056
-0.366944
-0.353343
-0.339567
-0.325899
-0.312563
-0.299719
-0.287461
-0.275839
-0.264864
-0.254527
-0.244761
-0.235578
-0.464542
-0.453139
-0.443424
-0.433777
-0.423127
-0.411288
-0.398243
-0.38415
-0.36933
-0.354168
-0.339033
-0.32422
-0.309941
-0.296328
-0.283443
-0.271306
-0.259902
-0.249198
-0.239102
-0.229647
-0.477012
-0.464793
-0.454367
-0.443769
-0.431774
-0.418254
-0.403337
-0.387348
-0.370748
-0.354014
-0.337547
-0.321639
-0.306475
-0.292148
-0.278689
-0.266081
-0.254289
-0.243255
-0.232861
-0.223172
-0.48913
-0.476161
-0.464998
-0.453312
-0.439771
-0.424361
-0.407409
-0.389433
-0.371034
-0.352758
-0.335019
-0.318088
-0.302109
-0.287136
-0.273159
-0.260133
-0.247999
-0.236676
-0.226022
-0.216145
-0.500577
-0.48694
-0.475
-0.462076
-0.446786
-0.429304
-0.410201
-0.3902
-0.370028
-0.350278
-0.331355
-0.31349
-0.296781
-0.281235
-0.266806
-0.25342
-0.240995
-0.22943
-0.218559
-0.208544
-0.511008
-0.496789
-0.484024
-0.469701
-0.452474
-0.432775
-0.411456
-0.389446
-0.367574
-0.346452
-0.326453
-0.307758
-0.290412
-0.274376
-0.259566
-0.245883
-0.233225
-0.22147
-0.210432
-0.200337
-0.790277
-0.77429
-0.758038
-0.737462
-0.711423
-0.681276
-0.648874
-0.615911
-0.583669
-0.552954
-0.524171
-0.497444
-0.472737
-0.449925
-0.428846
-0.409337
-0.391242
-0.374386
-0.358535
-0.343948
-0.78159
-0.766116
-0.751045
-0.732551
-0.709207
-0.681896
-0.652092
-0.621291
-0.590728
-0.561257
-0.533364
-0.50726
-0.482977
-0.460444
-0.439539
-0.420124
-0.402063
-0.385203
-0.369332
-0.354623
-0.771128
-0.756244
-0.742271
-0.725697
-0.704923
-0.680427
-0.653307
-0.624822
-0.596122
-0.568075
-0.541234
-0.515888
-0.492141
-0.46998
-0.449325
-0.430069
-0.412098
-0.395282
-0.379435
-0.364653
-0.759273
-0.745053
-0.732097
-0.717261
-0.698885
-0.677118
-0.652702
-0.626639
-0.599953
-0.573493
-0.547857
-0.523402
-0.500301
-0.478601
-0.45827
-0.439233
-0.421403
-0.404673
-0.388889
-0.37408
-0.74639
-0.732904
-0.720892
-0.707606
-0.69142
-0.672239
-0.650486
-0.626899
-0.602345
-0.577617
-0.553329
-0.529893
-0.507546
-0.486394
-0.466456
-0.447696
-0.430052
-0.413446
-0.397753
-0.382957
-0.732822
-0.720132
-0.709
-0.697083
-0.682862
-0.666078
-0.646892
-0.625784
-0.603438
-0.580561
-0.557753
-0.53546
-0.513973
-0.493455
-0.473977
-0.455544
-0.438127
-0.421674
-0.406097
-0.391343
-0.718881
-0.70704
-0.696734
-0.686016
-0.673527
-0.658922
-0.642155
-0.623475
-0.603373
-0.582437
-0.561225
-0.540192
-0.519669
-0.499871
-0.480919
-0.462862
-0.445707
-0.429432
-0.413985
-0.399295
-0.704842
-0.69389
-0.684368
-0.674697
-0.663714
-0.651049
-0.636514
-0.620161
-0.602292
-0.583355
-0.563835
-0.544171
-0.524716
-0.505724
-0.487365
-0.469732
-0.452871
-0.436792
-0.421481
-0.406867
-0.690944
-0.680908
-0.672133
-0.663379
-0.653691
-0.642722
-0.630203
-0.616034
-0.600342
-0.583426
-0.565673
-0.547477
-0.52919
-0.511094
-0.493396
-0.476237
-0.4597
-0.44383
-0.428653
-0.414114
-0.677384
-0.668275
-0.660219
-0.652273
-0.643689
-0.63418
-0.623448
-0.611287
-0.597676
-0.582765
-0.566826
-0.550183
-0.533161
-0.516052
-0.499091
-0.482456
-0.466272
-0.450622
-0.435568
-0.42109
-0.664322
-0.656136
-0.648771
-0.641542
-0.633898
-0.625631
-0.616456
-0.606106
-0.594445
-0.581489
-0.567382
-0.552358
-0.536693
-0.520664
-0.504519
-0.488466
-0.472668
-0.457245
-0.442297
-0.427852
-0.651885
-0.644599
-0.637896
-0.631308
-0.624467
-0.61725
-0.609411
-0.600667
-0.590802
-0.579715
-0.567428
-0.554069
-0.539843
-0.524987
-0.509744
-0.49434
-0.478966
-0.463779
-0.448916
-0.434462
-0.640169
-0.633746
-0.627669
-0.621659
-0.615504
-0.609171
-0.602471
-0.595132
-0.586894
-0.577565
-0.567056
-0.555384
-0.542663
-0.529072
-0.514824
-0.500145
-0.485244
-0.470309
-0.455511
-0.440997
-0.629249
-0.62363
-0.618138
-0.612648
-0.607086
-0.601499
-0.595765
-0.589644
-0.58286
-0.57516
-0.56636
-0.556371
-0.545205
-0.532963
-0.519808
-0.505942
-0.491579
-0.476926
-0.46218
-0.44755
-0.61918
-0.61429
-0.609333
-0.60431
-0.599264
-0.594312
-0.589399
-0.584329
-0.578833
-0.572623
-0.565441
-0.557103
-0.547521
-0.536702
-0.524738
-0.511788
-0.498047
-0.483727
-0.469042
-0.454269
-0.61
-0.605747
-0.601269
-0.596666
-0.592073
-0.587669
-0.58346
-0.579299
-0.574938
-0.570075
-0.564404
-0.557662
-0.549666
-0.540325
-0.529647
-0.517723
-0.504709
-0.490802
-0.476218
-0.461295
-0.601732
-0.598008
-0.593949
-0.589723
-0.585537
-0.581617
-0.578022
-0.574654
-0.571292
-0.567639
-0.56336
-0.558136
-0.5517
-0.543869
-0.534558
-0.523775
-0.511616
-0.498243
-0.48386
-0.468913
-0.594373
-0.591062
-0.587362
-0.58348
-0.579669
-0.576192
-0.573149
-0.570482
-0.568006
-0.565434
-0.562424
-0.558619
-0.553689
-0.54737
-0.539484
-0.529948
-0.518779
-0.506077
-0.492017
-0.477201
-0.587891
-0.584875
-0.581479
-0.577919
-0.574469
-0.571415
-0.568887
-0.56686
-0.565177
-0.563573
-0.561708
-0.559208
-0.555702
-0.550863
-0.544429
-0.536229
-0.526188
-0.514324
-0.500791
-0.486611
-0.582218
-0.579382
-0.576244
-0.572996
-0.569911
-0.567282
-0.565258
-0.563835
-0.562879
-0.562146
-0.561309
-0.559993
-0.557807
-0.554379
-0.549385
-0.542573
-0.533768
-0.522844
-0.509742
-0.496405
-0.57724
-0.574486
-0.571573
-0.56864
-0.565938
-0.563757
-0.562247
-0.561416
-0.561145
-0.561208
-0.561296
-0.561042
-0.560055
-0.55794
-0.554337
-0.548938
-0.541513
-0.531871
-0.51964
-0.506167
-0.572806
-0.570058
-0.567349
-0.564745
-0.562456
-0.560756
-0.559788
-0.559557
-0.559951
-0.560757
-0.561682
-0.562377
-0.562459
-0.561537
-0.559235
-0.555224
-0.549255
-0.54118
-0.53067
-0.518054
-0.568727
-0.565943
-0.563431
-0.561175
-0.559332
-0.558153
-0.557761
-0.558149
-0.559202
-0.560713
-0.562405
-0.563946
-0.56497
-0.565095
-0.563947
-0.561181
-0.556512
-0.549729
-0.540418
-0.528901
-0.564795
-0.561966
-0.559657
-0.557771
-0.556406
-0.555782
-0.555995
-0.557019
-0.558729
-0.560918
-0.563318
-0.565614
-0.567457
-0.568483
-0.568322
-0.566624
-0.563079
-0.557407
-0.549132
-0.538956
-0.560793
-0.557943
-0.555855
-0.554357
-0.553493
-0.553446
-0.55428
-0.555945
-0.558299
-0.561134
-0.564186
-0.567154
-0.569708
-0.571501
-0.572178
-0.571397
-0.568849
-0.564227
-0.55706
-0.548383
-0.556508
-0.553695
-0.551853
-0.550757
-0.5504
-0.55093
-0.552376
-0.554662
-0.55763
-0.561064
-0.564706
-0.568264
-0.571425
-0.573861
-0.57524
-0.575237
-0.57356
-0.569906
-0.563878
-0.556679
-0.551751
-0.549053
-0.547487
-0.546794
-0.546932
-0.548013
-0.550035
-0.552893
-0.556415
-0.560379
-0.564528
-0.568582
-0.572242
-0.575201
-0.577148
-0.577783
-0.576837
-0.574035
-0.569104
-0.563233
-0.546363
-0.543872
-0.542609
-0.542308
-0.542907
-0.544486
-0.547014
-0.550363
-0.554349
-0.558745
-0.563298
-0.567736
-0.571776
-0.57513
-0.57751
-0.578644
-0.57829
-0.576218
-0.572295
-0.567547
-0.540225
-0.538035
-0.537096
-0.537161
-0.538166
-0.540164
-0.5431
-0.546831
-0.551162
-0.555866
-0.560694
-0.565387
-0.569676
-0.573292
-0.575971
-0.577468
-0.577574
-0.576118
-0.573101
-0.569263
-0.533263
-0.531462
-0.530856
-0.531246
-0.532584
-0.534902
-0.538128
-0.542108
-0.546645
-0.551514
-0.556475
-0.56128
-0.565677
-0.569418
-0.572265
-0.574003
-0.574453
-0.573514
-0.571299
-0.568187
-0.525456
-0.524113
-0.523836
-0.524499
-0.526084
-0.528611
-0.531997
-0.536085
-0.540679
-0.545562
-0.550506
-0.555277
-0.559643
-0.563379
-0.566273
-0.568141
-0.56884
-0.568338
-0.566828
-0.564288
-0.516828
-0.51599
-0.516027
-0.516903
-0.518644
-0.521264
-0.524678
-0.528733
-0.533239
-0.53799
-0.542774
-0.547375
-0.551583
-0.555197
-0.558035
-0.559943
-0.560812
-0.560679
-0.559777
-0.557687
-0.507454
-0.507141
-0.507463
-0.508487
-0.510295
-0.5129
-0.51622
-0.520111
-0.524398
-0.528888
-0.533387
-0.5377
-0.541641
-0.545037
-0.547736
-0.549611
-0.550587
-0.550758
-0.550362
-0.548625
-0.497444
-0.497648
-0.498218
-0.499329
-0.50112
-0.503613
-0.506735
-0.510355
-0.514312
-0.518435
-0.522548
-0.526481
-0.530071
-0.533175
-0.535668
-0.537452
-0.538478
-0.538881
-0.538884
-0.53742
-0.486939
-0.487629
-0.488402
-0.489541
-0.491246
-0.493548
-0.496388
-0.499651
-0.503197
-0.506874
-0.510527
-0.514012
-0.517191
-0.519948
-0.522186
-0.523827
-0.524847
-0.525403
-0.525692
-0.524442
-0.476096
-0.477218
-0.478149
-0.479266
-0.480829
-0.48288
-0.485377
-0.488224
-0.491302
-0.494479
-0.497625
-0.500617
-0.503344
-0.505715
-0.507657
-0.509111
-0.510066
-0.510692
-0.511151
-0.510078
-0.46508
-0.466566
-0.467605
-0.468661
-0.470039
-0.4718
-0.473914
-0.476309
-0.478885
-0.481532
-0.484142
-0.486616
-0.488867
-0.490824
-0.492434
-0.493656
-0.49449
-0.4951
-0.495622
-0.494704
-0.454047
-0.455817
-0.45692
-0.457882
-0.45905
-0.460496
-0.462209
-0.464134
-0.466194
-0.468299
-0.470362
-0.472306
-0.474063
-0.475585
-0.476833
-0.477781
-0.478436
-0.47895
-0.479436
-0.478663
-0.443137
-0.44511
-0.446234
-0.447079
-0.448023
-0.449145
-0.45045
-0.451905
-0.453449
-0.455012
-0.456528
-0.457938
-0.459194
-0.460262
-0.461121
-0.461755
-0.462177
-0.462518
-0.462881
-0.462242
-0.43247
-0.434566
-0.435674
-0.436388
-0.437101
-0.437901
-0.438807
-0.4398
-0.440837
-0.441868
-0.442844
-0.443722
-0.444471
-0.445071
-0.445513
-0.445796
-0.445934
-0.446032
-0.44619
-0.445666
-0.411345
-0.362703
-0.344568
-0.24263
-0.112885
-0.0434354
-0.118864
-0.141548
-0.0851784
-0.0578137
-0.0848388
-0.117543
-0.090344
-0.0552833
-0.063362
-0.0754847
-0.0721275
-0.0553803
-0.0414806
-0.000888135
-0.403864
-0.368976
-0.359985
-0.242328
-0.111886
-0.0448653
-0.120422
-0.143952
-0.0848152
-0.0563835
-0.0819947
-0.113785
-0.0890648
-0.0549543
-0.0647762
-0.0779092
-0.0737699
-0.0569813
-0.0422963
-0.000379073
-0.396599
-0.37508
-0.374028
-0.242244
-0.110885
-0.0464308
-0.121984
-0.146291
-0.0843903
-0.0548933
-0.0791541
-0.110019
-0.0877698
-0.0545488
-0.0660781
-0.0802106
-0.0753614
-0.0585188
-0.0430278
0.000135104
-0.389352
-0.380844
-0.386498
-0.242324
-0.109876
-0.0480728
-0.123511
-0.148547
-0.0839135
-0.0533588
-0.0763364
-0.106267
-0.0864622
-0.0540685
-0.0672535
-0.0823736
-0.0768929
-0.0599837
-0.0436711
0.00065075
-0.381965
-0.386137
-0.397329
-0.242522
-0.108851
-0.0497242
-0.124957
-0.150693
-0.0833959
-0.0517951
-0.0735584
-0.102546
-0.0851451
-0.0535154
-0.068289
-0.0843835
-0.0783546
-0.061367
-0.0442231
0.00116398
-0.37431
-0.390847
-0.406532
-0.242803
-0.1078
-0.051313
-0.126272
-0.1527
-0.0828484
-0.050216
-0.0708345
-0.0988711
-0.0838209
-0.0528927
-0.0691724
-0.0862273
-0.0797368
-0.0626605
-0.0446805
0.0016713
-0.366277
-0.394881
-0.414155
-0.243144
-0.106713
-0.0527646
-0.127402
-0.154532
-0.0822815
-0.0486358
-0.0681773
-0.0952567
-0.0824921
-0.0522037
-0.0698927
-0.0878935
-0.0810298
-0.0638559
-0.0450405
0.0021687
-0.357767
-0.398152
-0.420265
-0.243529
-0.105583
-0.0540053
-0.128294
-0.156148
-0.0817054
-0.0470678
-0.0655974
-0.0917132
-0.0811611
-0.0514526
-0.0704407
-0.0893721
-0.0822241
-0.0649453
-0.0453008
0.0026523
-0.348694
-0.40059
-0.424934
-0.24395
-0.104404
-0.0549664
-0.128896
-0.157508
-0.0811301
-0.0455246
-0.0631037
-0.0882498
-0.0798301
-0.0506439
-0.070809
-0.0906549
-0.0833102
-0.0659216
-0.0454597
0.00311826
-0.338994
-0.402148
-0.428246
-0.244396
-0.10317
-0.0555871
-0.129162
-0.158569
-0.0805642
-0.0440184
-0.0607038
-0.0848739
-0.0785014
-0.0497826
-0.0709923
-0.0917354
-0.0842793
-0.0667781
-0.0455159
0.00356274
-0.328638
-0.402802
-0.430296
-0.244862
-0.101882
-0.0558186
-0.129056
-0.159292
-0.080015
-0.0425607
-0.0584042
-0.0815919
-0.0771779
-0.0488739
-0.0709876
-0.0926085
-0.0851231
-0.0675089
-0.0454685
0.00398188
-0.317652
-0.402557
-0.431199
-0.245366
-0.100561
-0.0556275
-0.128555
-0.159639
-0.0794883
-0.0411623
-0.05621
-0.0784086
-0.0758636
-0.0479235
-0.070793
-0.093271
-0.085834
-0.0681088
-0.0453172
0.00437188
-0.306137
-0.401443
-0.431094
-0.245972
-0.0992844
-0.0549981
-0.12765
-0.15958
-0.0789875
-0.0398333
-0.0541255
-0.0753274
-0.0745604
-0.0469379
-0.0704054
-0.093721
-0.0864052
-0.0685734
-0.045062
0.00472895
-0.294297
-0.399499
-0.430098
-0.246725
-0.0981271
-0.053933
-0.126344
-0.159087
-0.0785138
-0.0385828
-0.0521536
-0.0723498
-0.073263
-0.0459236
-0.0698215
-0.0939568
-0.0868312
-0.0688992
-0.0447036
0.00504936
-0.282442
-0.396769
-0.42823
-0.247426
-0.0969613
-0.0524506
-0.124639
-0.158139
-0.0780653
-0.0374193
-0.0502975
-0.0694768
-0.0719609
-0.0448853
-0.0690529
-0.0939772
-0.0871073
-0.0690833
-0.0442429
0.0053294
-0.270974
-0.393313
-0.425478
-0.24761
-0.0953627
-0.0505595
-0.122565
-0.156717
-0.0776368
-0.0363503
-0.0485612
-0.0667151
-0.0706764
-0.0438254
-0.0681485
-0.0937868
-0.0872297
-0.0691241
-0.0436816
0.00556547
-0.260315
-0.389257
-0.422299
-0.247566
-0.0933565
-0.0482112
-0.120248
-0.154809
-0.0772185
-0.0353814
-0.0469405
-0.0640774
-0.0695193
-0.0427529
-0.0671596
-0.0934089
-0.0871981
-0.0690205
-0.0430216
0.00575404
-0.250709
-0.384588
-0.419918
-0.249935
-0.0929302
-0.045347
-0.117746
-0.152443
-0.0767982
-0.0345071
-0.0453877
-0.0615447
-0.068579
-0.0417008
-0.0659564
-0.092868
-0.087024
-0.0687743
-0.0422657
0.00589146
-0.241931
-0.378425
-0.418164
-0.256995
-0.0968966
-0.0422823
-0.114376
-0.149694
-0.0763478
-0.0337162
-0.0438739
-0.0590046
-0.0674101
-0.0407037
-0.0640574
-0.0920714
-0.0867221
-0.0683916
-0.0414179
0.00597273
-0.233987
-0.369873
-0.411166
-0.259627
-0.100742
-0.0401237
-0.109172
-0.145829
-0.0759593
-0.0332586
-0.0429318
-0.0563986
-0.0647256
-0.0396655
-0.0612518
-0.0907372
-0.0862123
-0.0678515
-0.0404861
0.0059898
-0.19279
-0.313826
-0.347937
-0.229293
-0.0965493
-0.0324153
-0.0740957
-0.10372
-0.0647124
-0.0375773
-0.0454352
-0.0421481
-0.0431727
-0.032308
-0.0439566
-0.0801901
-0.0814347
-0.0636773
-0.0349495
0.00567908
-0.167615
-0.239873
-0.244589
-0.161124
-0.0461279
0.0103195
-0.0234557
-0.0368208
-0.0255343
-0.0381571
-0.0459427
-0.0358895
-0.0263918
-0.00913904
-0.0125508
-0.0503363
-0.058736
-0.0465105
-0.021746
0.00722957
-0.137332
-0.163289
-0.153318
-0.120422
-0.0453373
0.029589
0.0296831
0.0215554
0.0080253
-0.0279757
-0.0321577
-0.0210224
-0.0110431
0.00106266
0.00396742
-0.0181585
-0.0275458
-0.0213121
-0.00519214
0.00616108
-0.0952637
-0.111686
-0.113076
-0.0868864
-0.0248146
0.0335873
0.0389867
0.0304777
0.0185687
-0.0102679
-0.0176251
-0.00727574
0.00787073
0.0143887
0.0180272
0.00797169
-0.000276663
0.000799686
0.00539385
0.00321592
-0.067023
-0.0819314
-0.0799218
-0.0580694
-0.0136498
0.0298659
0.0317128
0.0227532
0.0229424
0.00980844
0.000428363
0.000843635
0.0103277
0.016438
0.0259578
0.0254463
0.0178158
0.0132131
0.00986192
0.00148044
-0.0471162
-0.0578156
-0.053648
-0.038027
-0.0095895
0.0191189
0.0250141
0.0236681
0.0260249
0.0149202
0.00435523
0.00736516
0.0173386
0.0205408
0.0265487
0.0270545
0.0216819
0.0155109
0.00936512
0.000968242
-0.0312966
-0.0383953
-0.0361328
-0.0279581
-0.00894765
0.015036
0.024365
0.0212729
0.0202674
0.0165706
0.0116262
0.0129077
0.0188952
0.0202787
0.0238938
0.0247378
0.0204044
0.0147357
0.00904643
0.00186016
-0.0190611
-0.0252344
-0.0255848
-0.0193707
-0.00430607
0.013237
0.0193218
0.0164378
0.0183764
0.0195548
0.0149035
0.0138053
0.0182692
0.0193779
0.0209563
0.0220145
0.018971
0.0137146
0.00815159
0.00227767
-0.0103589
-0.0160078
-0.016314
-0.010962
-0.00144494
0.00938338
0.0152249
0.0159339
0.0182382
0.0189855
0.0149856
0.0138717
0.0177599
0.0188422
0.0187018
0.019235
0.0168072
0.011908
0.00726401
0.00262577
-0.00377413
-0.00830275
-0.008656
-0.00566945
-0.00013792
0.00804132
0.0144727
0.0156434
0.0160665
0.0169684
0.0153819
0.0146843
0.0172588
0.0176678
0.016304
0.0163391
0.0148029
0.0108178
0.00672483
0.00250009
0.00152419
-0.00224491
-0.00335582
-0.00186417
0.0023345
0.00865704
0.0133187
0.0138272
0.0143609
0.0164406
0.0161275
0.0146536
0.0156839
0.0161057
0.01472
0.0144573
0.0133885
0.00977273
0.00586661
0.00218652
0.00568502
0.00226957
0.000837813
0.00190006
0.00488253
0.0086933
0.0117844
0.013053
0.0142823
0.0159444
0.015458
0.0138239
0.0145358
0.0153322
0.0138407
0.0128434
0.0117551
0.00862827
0.00522147
0.00200612
0.00899256
0.00593679
0.00454569
0.00496285
0.00647018
0.0087904
0.0115175
0.0131541
0.013828
0.0146056
0.0146063
0.0137314
0.0140828
0.0144424
0.0127066
0.0113078
0.0104358
0.00796895
0.00481798
0.00173957
0.0117862
0.00904397
0.00749822
0.00715332
0.00788141
0.00961863
0.0116784
0.0127207
0.0130308
0.0138573
0.0144241
0.0136845
0.0132378
0.0132409
0.0118602
0.0104542
0.00958054
0.00735518
0.00431061
0.00147792
0.0142427
0.0115844
0.00978934
0.00903679
0.00936387
0.0103868
0.0115344
0.0123011
0.0128642
0.0136457
0.0139788
0.0131169
0.0124465
0.0125227
0.01148
0.00987159
0.00867453
0.00662439
0.00393462
0.00137928
0.0164341
0.0136855
0.011709
0.0106797
0.0104955
0.0108558
0.0115868
0.0123648
0.0128573
0.0131692
0.013286
0.0127761
0.0122002
0.0120273
0.0109545
0.00922392
0.00792338
0.00618972
0.00376534
0.00127825
0.0184771
0.0154729
0.0132709
0.0119178
0.0113189
0.0113728
0.0118936
0.0124184
0.0126226
0.0127377
0.0129428
0.0127013
0.0119694
0.0114082
0.0104213
0.00883624
0.0075132
0.00591526
0.00358531
0.00115642
0.0203488
0.0169219
0.0144186
0.0128213
0.0120315
0.0118908
0.0120929
0.0123225
0.0124913
0.0126564
0.0127766
0.0124466
0.0116099
0.0109925
0.0102162
0.00869311
0.00714427
0.00555621
0.00343979
0.00113318
0.0219233
0.0179634
0.0151963
0.0134737
0.0125579
0.0122173
0.0122063
0.012335
0.0125099
0.0125994
0.0125548
0.0122257
0.01146
0.0108099
0.0100762
0.00854231
0.00685478
0.00532913
0.00338645
0.00113056
0.0229277
0.0185256
0.0156151
0.0138315
0.0128086
0.0123591
0.0123274
0.0124397
0.012502
0.0124533
0.0124086
0.012245
0.0115064
0.0106664
0.00986962
0.00841385
0.00680326
0.0053237
0.00335002
0.00108337
-0.140716
-0.14851
-0.156164
-0.16373
-0.171271
-0.17885
-0.186538
-0.194411
-0.202543
-0.211007
-0.219852
-0.229094
-0.238646
-0.248327
-0.257646
-0.266001
-0.272167
-0.275536
-0.274686
-0.272794
-0.0796133
-0.082785
-0.0857315
-0.0884473
-0.0909275
-0.0931618
-0.0951382
-0.0968437
-0.0982647
-0.0993902
-0.100212
-0.10074
-0.100996
-0.101061
-0.101047
-0.101212
-0.101834
-0.103482
-0.106626
-0.112603
-0.0444522
-0.0478042
-0.051167
-0.0545486
-0.0579596
-0.0614093
-0.0649074
-0.0684642
-0.0720899
-0.0757947
-0.0795866
-0.0834706
-0.0874444
-0.0914954
-0.0955912
-0.0996752
-0.10366
-0.107429
-0.110899
-0.114001
-0.0273406
-0.0295199
-0.0316588
-0.0337586
-0.0358221
-0.0378507
-0.0398457
-0.0418083
-0.04374
-0.0456424
-0.0475174
-0.0493676
-0.0511978
-0.0530145
-0.0548324
-0.0566688
-0.0585733
-0.0605904
-0.0629209
-0.0657548
-0.0138811
-0.0155612
-0.0172411
-0.0189229
-0.0206094
-0.0223026
-0.0240042
-0.0257162
-0.0274404
-0.0291787
-0.0309326
-0.0327032
-0.0344917
-0.0362971
-0.0381208
-0.039955
-0.0418084
-0.0436529
-0.0455643
-0.0474828
-0.00591254
-0.00720304
-0.00849067
-0.00977596
-0.0110602
-0.012344
-0.0136282
-0.0149137
-0.0162013
-0.0174922
-0.0187874
-0.020088
-0.0213957
-0.0227112
-0.024038
-0.025375
-0.0267355
-0.0281092
-0.0295685
-0.0310814
0.000545246
-0.00044989
-0.00144527
-0.00244142
-0.00343925
-0.00443933
-0.0054423
-0.00644885
-0.00745973
-0.00847569
-0.00949752
-0.0105259
-0.0115618
-0.0126056
-0.0136589
-0.0147206
-0.0157977
-0.0168815
-0.0180169
-0.0191762
0.00517949
0.004389
0.00359931
0.0028103
0.00202165
0.00123321
0.00044478
-0.000343885
-0.00113305
-0.001923
-0.00271403
-0.00350643
-0.00430063
-0.00509678
-0.0058959
-0.00669719
-0.0075054
-0.00831489
-0.00915754
-0.0100132
0.00882348
0.00818859
0.00755447
0.00692097
0.00628784
0.00565491
0.00502198
0.00438886
0.00375533
0.00312119
0.00248624
0.00185032
0.0012132
0.000574848
-6.52697e-05
-0.000706448
-0.0013516
-0.00199637
-0.0026623
-0.00333207
0.011607
0.011092
0.0105778
0.0100643
0.00955138
0.00903883
0.00852653
0.00801435
0.00750214
0.00698978
0.00647711
0.00596403
0.00545035
0.00493604
0.00442073
0.00390483
0.00338633
0.0028682
0.0023351
0.00179962
0.0138325
0.0134176
0.0130032
0.0125893
0.0121758
0.0117626
0.0113496
0.0109367
0.0105238
0.0101109
0.00969782
0.0092846
0.00887116
0.0084575
0.0080434
0.00762922
0.00721359
0.00679866
0.00637326
0.00594642
0.0156221
0.0152887
0.0149552
0.0146216
0.0142877
0.0139536
0.0136192
0.0132844
0.0129493
0.0126138
0.012278
0.011942
0.0116056
0.0112691
0.0109323
0.0105956
0.0102582
0.00992157
0.00957762
0.00923339
0.0171724
0.0169077
0.0166418
0.0163746
0.0161062
0.0158364
0.0155652
0.0152928
0.015019
0.014744
0.0144678
0.0141904
0.0139121
0.0136328
0.0133526
0.0130719
0.01279
0.0125083
0.0122206
0.0119323
0.0185898
0.0183827
0.0181729
0.0179603
0.017745
0.017527
0.0173065
0.0170834
0.0168579
0.0166302
0.0164004
0.0161686
0.015935
0.0156999
0.0154633
0.0152256
0.0149864
0.0147468
0.0145023
0.0142563
0.0201285
0.0199699
0.0198062
0.0196373
0.0194635
0.019285
0.019102
0.0189147
0.0187234
0.0185283
0.0183298
0.0181281
0.0179235
0.0177164
0.0175069
0.0172955
0.0170821
0.0168675
0.0166484
0.0164273
0.0218235
0.0216988
0.0215655
0.0214241
0.0212752
0.0211191
0.0209565
0.0207878
0.0206134
0.020434
0.0202499
0.0200618
0.0198699
0.019675
0.0194772
0.0192772
0.019075
0.0188715
0.0186641
0.0184546
0.0243311
0.0242008
0.0240582
0.0239042
0.02374
0.0235666
0.023385
0.0231959
0.0230002
0.0227988
0.0225924
0.0223817
0.0221674
0.0219501
0.0217303
0.0215087
0.0212854
0.0210613
0.0208345
0.0206064
0.0275549
0.0273529
0.0271387
0.026914
0.0266802
0.0264386
0.0261904
0.0259366
0.0256784
0.0254164
0.0251517
0.024885
0.0246168
0.0243479
0.0240788
0.02381
0.0235417
0.0232747
0.0230075
0.0227413
0.0324477
0.0319828
0.0315239
0.0310714
0.0306256
0.0301869
0.0297553
0.0293311
0.0289144
0.0285052
0.0281035
0.0277096
0.0273232
0.0269445
0.0265733
0.0262097
0.0258535
0.0255048
0.0251623
0.024827
0.0377953
0.0369763
0.036191
0.0354376
0.0347143
0.0340195
0.0333515
0.0327089
0.0320902
0.0314941
0.0309195
0.0303651
0.0298299
0.0293128
0.028813
0.0283296
0.0278615
0.0274084
0.0269682
0.0265422
0.0157754
0.0150378
0.0143348
0.0136646
0.0130251
0.0124148
0.011832
0.0112752
0.010743
0.010234
0.00974707
0.00928099
0.00883465
0.00840704
0.00799719
0.00760421
0.00722715
0.00686548
0.00651734
0.0061836
0.0103344
0.00995335
0.00957913
0.00921211
0.00885243
0.00850036
0.00815608
0.00781973
0.00749141
0.00717116
0.00685903
0.006555
0.00625907
0.00597118
0.00569127
0.0054193
0.00515505
0.00489865
0.00464873
0.00440604
0.00527479
0.00515972
0.00503334
0.00489718
0.00475246
0.00460051
0.00444251
0.00427952
0.00411251
0.00394235
0.00376983
0.00359569
0.00342055
0.00324501
0.00306957
0.00289473
0.00272074
0.00254821
0.00237573
0.00220392
0.00180378
0.00176436
0.00171338
0.00165188
0.00158073
0.00150091
0.00141334
0.00131891
0.00121841
0.00111261
0.00100223
0.000887931
0.000770352
0.000650079
0.000527627
0.000403551
0.000278077
0.000151922
2.31374e-05
-0.000107904
-0.00104344
-0.00107235
-0.00110898
-0.00115292
-0.0012039