1.275 	2.15223e-18 	-2.76991e-20 	-0.0286904
1.825 	2.15223e-18 	-1.39322e-20 	0.063633
2.375 	2.15223e-18 	1.38775e-18 	0.0294808
2.925 	2.15223e-18 	2.78958e-18 	0.0208501
3.475 	2.15223e-18 	4.53849e-18 	0.0106506
4.025 	2.15223e-18 	6.28755e-18 	0.0064541
4.575 	2.15223e-18 	6.30203e-18 	0.00398747
5.125 	2.15223e-18 	6.31666e-18 	0.00256396
5.675 	2.15223e-18 	6.33144e-18 	0.00168329
6.225 	2.15223e-18 	4.61166e-18 	0.00113398
