/*--------------------------------*- C++ -*----------------------------------*\
  =========                 |
  \\      /  F ield         | OpenFOAM: The Open Source CFD Toolbox
   \\    /   O peration     | Website:  https://openfoam.org
    \\  /    A nd           | Version:  6.0
     \\/     M anipulation  |
\*---------------------------------------------------------------------------*/
FoamFile
{
    version     2.0;
    format      ascii;
    class       volScalarField;
    location    "13";
    object      p;
}
// * * * * * * * * * * * * * * * * * * * * * * * * * * * * * * * * * * * * * //

dimensions      [0 2 -2 0 0 0 0];

internalField   nonuniform List<scalar> 
8000
(
-0.290187
-0.291421
-0.292215
-0.292785
-0.293268
-0.293687
-0.294061
-0.294408
-0.294741
-0.295067
-0.295395
-0.295731
-0.296082
-0.296454
-0.296856
-0.297305
-0.297802
-0.298273
-0.298689
-0.299843
-0.290351
-0.29157
-0.292354
-0.292916
-0.293391
-0.293802
-0.294168
-0.294507
-0.294831
-0.295148
-0.295466
-0.295792
-0.296132
-0.296493
-0.296885
-0.297322
-0.29781
-0.298272
-0.298678
-0.299828
-0.29068
-0.291871
-0.292635
-0.293182
-0.293641
-0.294036
-0.294386
-0.294708
-0.295014
-0.295313
-0.295611
-0.295916
-0.296234
-0.296573
-0.296942
-0.297358
-0.297826
-0.29827
-0.298655
-0.299797
-0.291168
-0.292319
-0.293055
-0.293578
-0.294013
-0.294383
-0.294708
-0.295004
-0.295283
-0.295552
-0.29582
-0.296092
-0.296376
-0.29668
-0.297013
-0.297395
-0.297832
-0.298248
-0.2986
-0.299728
-0.291807
-0.292907
-0.293608
-0.294099
-0.294502
-0.294839
-0.295129
-0.295389
-0.295629
-0.295857
-0.296081
-0.296307
-0.296543
-0.296797
-0.297081
-0.297413
-0.297806
-0.298181
-0.298489
-0.299595
-0.292586
-0.293629
-0.294287
-0.294739
-0.295101
-0.295395
-0.29564
-0.295852
-0.296042
-0.296216
-0.296383
-0.296548
-0.296719
-0.296906
-0.297122
-0.297388
-0.29772
-0.29804
-0.29829
-0.299366
-0.293496
-0.294478
-0.295086
-0.295492
-0.295804
-0.296046
-0.296235
-0.296388
-0.296513
-0.29662
-0.296713
-0.2968
-0.296889
-0.29699
-0.297118
-0.297298
-0.297548
-0.297796
-0.297973
-0.299008
-0.29453
-0.295447
-0.296001
-0.296353
-0.296607
-0.296786
-0.296908
-0.296989
-0.297037
-0.297061
-0.297064
-0.297055
-0.297042
-0.297036
-0.297053
-0.297122
-0.297269
-0.297423
-0.297511
-0.298494
-0.295681
-0.296532
-0.297028
-0.297318
-0.297505
-0.297611
-0.297656
-0.297653
-0.297612
-0.297538
-0.297437
-0.297314
-0.297178
-0.297041
-0.296921
-0.296853
-0.296867
-0.2969
-0.296877
-0.297798
-0.296947
-0.297732
-0.298164
-0.298386
-0.298497
-0.298522
-0.298479
-0.298383
-0.298241
-0.298058
-0.297837
-0.297583
-0.297305
-0.297013
-0.29673
-0.296492
-0.296339
-0.296216
-0.296053
-0.296895
-0.298329
-0.299047
-0.299411
-0.299557
-0.299585
-0.299519
-0.29938
-0.299182
-0.298931
-0.298629
-0.298279
-0.297882
-0.297444
-0.296977
-0.296501
-0.296058
-0.295695
-0.29537
-0.295024
-0.295763
-0.299834
-0.300482
-0.300771
-0.300834
-0.30077
-0.300606
-0.300364
-0.300058
-0.299693
-0.299269
-0.298784
-0.298236
-0.297628
-0.296966
-0.296271
-0.295585
-0.294964
-0.294375
-0.293779
-0.294367
-0.30147
-0.302044
-0.302249
-0.302221
-0.302056
-0.301787
-0.301436
-0.301019
-0.300539
-0.299992
-0.299373
-0.298675
-0.297892
-0.297025
-0.296089
-0.295124
-0.294187
-0.293255
-0.292306
-0.292662
-0.303251
-0.303741
-0.303854
-0.303723
-0.303447
-0.303065
-0.302601
-0.30207
-0.301476
-0.300811
-0.300065
-0.299222
-0.298269
-0.297196
-0.296006
-0.294728
-0.293416
-0.292043
-0.290596
-0.290578
-0.305191
-0.305587
-0.305595
-0.305347
-0.304949
-0.304444
-0.30386
-0.303213
-0.302505
-0.301728
-0.300863
-0.299888
-0.298777
-0.297506
-0.296058
-0.294443
-0.2927
-0.290776
-0.28864
-0.288027
-0.30731
-0.307596
-0.307483
-0.307103
-0.306567
-0.305926
-0.305211
-0.304442
-0.30362
-0.302732
-0.301757
-0.300662
-0.299408
-0.297953
-0.296255
-0.294293
-0.292075
-0.289501
-0.286459
-0.284942
-0.309629
-0.309787
-0.309533
-0.309002
-0.308309
-0.307513
-0.306654
-0.305751
-0.304807
-0.303807
-0.302723
-0.301516
-0.300133
-0.298511
-0.29658
-0.29428
-0.291574
-0.288295
-0.284166
-0.281362
-0.312175
-0.312182
-0.311763
-0.311057
-0.310183
-0.309212
-0.308187
-0.307134
-0.306053
-0.30493
-0.303733
-0.302415
-0.300912
-0.299141
-0.297002
-0.294388
-0.291204
-0.287199
-0.281831
-0.277236
-0.314979
-0.314808
-0.314197
-0.313287
-0.312206
-0.311033
-0.309819
-0.308592
-0.307356
-0.306096
-0.304778
-0.303352
-0.301747
-0.299869
-0.297591
-0.294757
-0.291181
-0.286445
-0.279559
-0.272387
-0.318077
-0.317697
-0.316863
-0.315719
-0.3144
-0.312997
-0.311567
-0.310143
-0.308731
-0.307319
-0.305877
-0.304359
-0.302707
-0.300844
-0.298669
-0.296056
-0.292822
-0.28844
-0.281515
-0.273313
-0.321514
-0.320888
-0.319796
-0.318386
-0.316798
-0.315135
-0.313464
-0.311819
-0.310213
-0.308636
-0.307068
-0.305479
-0.303839
-0.302127
-0.300345
-0.298559
-0.296935
-0.295763
-0.296243
-0.304898
-0.32534
-0.324424
-0.323037
-0.321327
-0.31944
-0.317491
-0.315554
-0.31367
-0.311853
-0.310101
-0.308402
-0.306743
-0.30512
-0.303555
-0.302114
-0.300946
-0.300325
-0.30069
-0.303002
-0.311469
-0.329611
-0.328356
-0.326633
-0.324591
-0.322376
-0.320117
-0.317897
-0.315758
-0.313719
-0.311783
-0.309946
-0.308206
-0.306581
-0.305114
-0.3039
-0.303099
-0.302964
-0.303838
-0.306209
-0.312228
-0.334385
-0.332734
-0.330636
-0.328228
-0.32566
-0.323073
-0.320554
-0.318149
-0.315878
-0.313746
-0.311754
-0.309906
-0.308226
-0.306764
-0.305608
-0.304889
-0.304783
-0.305488
-0.307222
-0.310846
-0.339724
-0.337615
-0.335097
-0.332296
-0.329352
-0.32642
-0.32359
-0.320907
-0.31839
-0.316041
-0.313859
-0.311848
-0.310029
-0.308441
-0.30715
-0.306241
-0.305811
-0.305943
-0.306724
-0.308247
-0.345683
-0.343049
-0.34007
-0.336847
-0.33351
-0.330218
-0.327064
-0.324087
-0.321298
-0.318693
-0.316264
-0.314008
-0.311936
-0.310071
-0.308453
-0.307129
-0.306141
-0.305506
-0.30526
-0.30515
-0.352315
-0.349087
-0.345605
-0.341937
-0.338188
-0.334522
-0.331025
-0.327727
-0.324624
-0.321703
-0.318943
-0.316333
-0.313872
-0.311572
-0.309454
-0.307541
-0.305848
-0.30437
-0.303124
-0.301765
-0.359661
-0.355768
-0.351746
-0.347611
-0.343434
-0.339375
-0.335508
-0.331843
-0.328363
-0.325036
-0.321834
-0.318738
-0.315742
-0.312852
-0.310086
-0.307458
-0.304979
-0.302647
-0.300473
-0.298157
-0.367749
-0.363125
-0.35853
-0.35391
-0.349285
-0.344806
-0.340524
-0.336427
-0.332476
-0.328629
-0.324849
-0.321119
-0.317438
-0.313818
-0.310283
-0.306853
-0.303548
-0.300378
-0.297351
-0.294256
-0.376592
-0.371177
-0.365979
-0.360857
-0.355762
-0.350821
-0.346059
-0.341435
-0.336892
-0.33238
-0.32787
-0.323353
-0.318846
-0.314377
-0.309983
-0.305699
-0.301555
-0.297572
-0.293758
-0.289981
-0.38618
-0.379921
-0.374102
-0.368461
-0.362862
-0.357399
-0.352063
-0.346786
-0.3415
-0.336162
-0.33076
-0.32531
-0.319855
-0.314444
-0.309134
-0.303971
-0.298992
-0.294228
-0.289677
-0.285267
-0.396479
-0.389339
-0.382881
-0.376702
-0.370551
-0.364481
-0.358447
-0.352361
-0.34616
-0.339823
-0.333371
-0.32686
-0.32036
-0.313948
-0.307692
-0.301648
-0.295856
-0.290342
-0.285096
-0.280083
-0.407427
-0.399379
-0.392276
-0.38553
-0.37876
-0.371968
-0.36508
-0.358004
-0.350701
-0.343195
-0.335555
-0.327879
-0.320272
-0.312828
-0.305625
-0.298718
-0.292142
-0.285916
-0.280014
-0.27442
-0.418925
-0.409962
-0.402207
-0.394857
-0.387376
-0.379716
-0.37179
-0.363525
-0.354935
-0.346105
-0.337165
-0.328256
-0.319511
-0.311034
-0.302905
-0.295169
-0.287849
-0.280951
-0.27443
-0.268287
-0.430839
-0.420971
-0.412561
-0.40455
-0.396239
-0.387536
-0.378366
-0.368712
-0.358663
-0.348384
-0.338066
-0.327891
-0.318008
-0.308524
-0.299506
-0.290985
-0.282968
-0.275444
-0.268345
-0.26169
-0.442995
-0.432249
-0.423177
-0.414432
-0.405142
-0.395197
-0.384572
-0.373337
-0.361685
-0.349867
-0.338134
-0.326695
-0.315703
-0.305256
-0.2954
-0.286148
-0.277486
-0.269386
-0.261754
-0.254634
-0.455176
-0.443597
-0.433853
-0.424276
-0.413834
-0.402435
-0.390147
-0.377167
-0.363806
-0.350403
-0.337255
-0.324585
-0.312537
-0.301186
-0.290555
-0.280632
-0.271383
-0.262758
-0.254644
-0.247112
-0.467126
-0.454775
-0.444339
-0.433812
-0.422027
-0.408961
-0.394825
-0.379972
-0.364842
-0.349851
-0.335325
-0.321484
-0.30845
-0.296268
-0.284931
-0.274402
-0.264627
-0.255537
-0.246992
-0.239108
-0.478551
-0.465501
-0.454345
-0.44273
-0.429405
-0.414473
-0.398339
-0.381535
-0.364624
-0.348083
-0.332248
-0.317319
-0.303383
-0.290451
-0.278486
-0.267421
-0.257186
-0.247689
-0.23877
-0.230597
-0.489124
-0.475461
-0.463545
-0.450693
-0.435634
-0.418667
-0.400433
-0.381652
-0.362997
-0.344983
-0.327935
-0.312017
-0.297276
-0.283684
-0.27117
-0.259644
-0.249018
-0.23918
-0.229947
-0.221552
-0.498495
-0.484309
-0.471584
-0.457342
-0.440376
-0.421249
-0.400867
-0.380139
-0.359822
-0.340445
-0.322301
-0.305509
-0.290068
-0.275911
-0.262934
-0.251027
-0.240082
-0.229969
-0.220488
-0.211939
-0.506291
-0.491678
-0.478091
-0.462314
-0.443301
-0.421942
-0.399426
-0.376831
-0.354975
-0.334371
-0.315267
-0.297727
-0.281699
-0.267077
-0.25373
-0.241524
-0.230338
-0.220021
-0.210358
-0.201727
-0.512138
-0.497196
-0.482691
-0.465251
-0.444098
-0.420495
-0.395917
-0.371586
-0.348347
-0.326676
-0.306762
-0.288607
-0.272112
-0.257133
-0.24351
-0.231093
-0.219747
-0.2093
-0.199525
-0.190886
-0.515662
-0.50049
-0.485018
-0.465818
-0.442483
-0.416688
-0.390178
-0.364282
-0.339845
-0.317284
-0.29672
-0.278093
-0.261256
-0.246031
-0.232233
-0.219698
-0.208276
-0.197775
-0.187964
-0.179391
-0.516508
-0.5012
-0.484722
-0.463705
-0.438209
-0.410336
-0.382073
-0.354821
-0.329392
-0.306132
-0.285086
-0.266134
-0.249086
-0.23373
-0.219863
-0.207305
-0.195895
-0.185423
-0.175653
-0.167223
-0.514343
-0.498994
-0.48149
-0.458646
-0.43107
-0.40129
-0.371498
-0.343126
-0.316928
-0.293168
-0.271814
-0.252691
-0.235565
-0.220199
-0.206372
-0.193891
-0.182586
-0.172226
-0.162578
-0.15437
-0.508872
-0.493575
-0.475047
-0.450418
-0.420906
-0.389442
-0.358378
-0.329142
-0.302409
-0.278354
-0.256872
-0.237732
-0.220667
-0.205415
-0.19174
-0.17944
-0.168334
-0.158175
-0.148735
-0.140827
-0.499845
-0.48469
-0.465172
-0.438852
-0.407601
-0.37472
-0.342669
-0.312838
-0.28581
-0.261669
-0.240238
-0.22124
-0.204376
-0.189365
-0.175958
-0.163945
-0.153137
-0.143269
-0.134125
-0.126596
-0.487065
-0.472143
-0.451698
-0.423832
-0.391089
-0.35709
-0.324355
-0.294207
-0.267126
-0.243107
-0.221907
-0.203209
-0.186687
-0.172045
-0.159024
-0.147409
-0.137
-0.127519
-0.118761
-0.111689
-0.470393
-0.455795
-0.434517
-0.405301
-0.371353
-0.336558
-0.303451
-0.273264
-0.24637
-0.222677
-0.201886
-0.183644
-0.167606
-0.153463
-0.140948
-0.129841
-0.119937
-0.110942
-0.102667
-0.0961334
-0.449751
-0.435569
-0.413587
-0.383255
-0.348419
-0.313166
-0.280001
-0.250049
-0.223575
-0.200407
-0.180198
-0.162566
-0.14715
-0.133633
-0.121744
-0.111261
-0.101968
-0.093565
-0.0858769
-0.0799692
-0.425128
-0.411456
-0.388926
-0.357747
-0.32236
-0.286992
-0.25408
-0.224627
-0.198795
-0.176342
-0.15688
-0.140004
-0.125345
-0.11258
-0.101436
-0.0916877
-0.0831175
-0.0754162
-0.0684273
-0.0632413
-0.396577
-0.383511
-0.360614
-0.328883
-0.293295
-0.25815
-0.225788
-0.197085
-0.172105
-0.150544
-0.131983
-0.116002
-0.102226
-0.0903313
-0.0800453
-0.0711441
-0.0634055
-0.0565214
-0.050351
-0.0459733
-0.364217
-0.351853
-0.328792
-0.296819
-0.261379
-0.226788
-0.195258
-0.167539
-0.143603
-0.123096
-0.105574
-0.0906119
-0.0778337
-0.0669185
-0.0575977
-0.0496495
-0.0428527
-0.036906
-0.031672
-0.0281556
-0.328228
-0.316663
-0.293652
-0.261758
-0.22681
-0.193085
-0.16265
-0.136128
-0.113409
-0.0940975
-0.0777367
-0.0638995
-0.0522158
-0.0423731
-0.0341112
-0.0272148
-0.0214696
-0.0165845
-0.0124004
-0.00978843
-0.288847
-0.278176
-0.255443
-0.223945
-0.18982
-0.157254
-0.128153
-0.103018
-0.0816667
-0.0636735
-0.0485737
-0.0359458
-0.0254313
-0.0167316
-0.00960205
-0.00383983
0.000756717
0.0044618
0.00745723
0.00899523
-0.246366
-0.236682
-0.214454
-0.183665
-0.150677
-0.119537
-0.0919849
-0.0684026
-0.048548
-0.0319716
-0.018209
-0.00685006
0.00244644
0.0099566
0.015902
0.020469
0.0238427
0.0262409
0.0277795
0.0277904
-0.201122
-0.192514
-0.171017
-0.141237
-0.109675
-0.080205
-0.0543903
-0.0325038
-0.0142503
0.000835873
0.0132142
0.0232789
0.0313469
0.0376611
0.0424084
0.0457539
0.0478412
0.0487099
0.048243
0.0461524
-0.153493
-0.146043
-0.125497
-0.0970075
-0.0671374
-0.0395537
-0.0156424
0.0044265
0.020995
0.0345413
0.0455204
0.0543126
0.0612117
0.0664256
0.070104
0.07238
0.0732813
0.0724456
0.0693982
0.0651626
-0.103891
-0.0976744
-0.0782858
-0.051347
-0.0234073
0.00209835
0.0239608
0.0421055
0.0569155
0.0688808
0.0784571
0.0860226
0.0918678
0.0961994
0.0991797
0.10096
0.10144
0.0997598
0.0952119
0.090632
-0.0527524
-0.0478347
-0.0297946
-0.00464104
0.0211578
0.0444185
0.0641048
0.080229
0.0932076
0.103539
0.111681
0.118014
0.122843
0.126414
0.128973
0.1308
0.131866
0.131178
0.128475
0.132121
-0.000524806
0.0030364
0.019555
0.042716
0.066193
0.0870677
0.10447
0.118489
0.129566
0.138202
0.144847
0.149876
0.153593
0.156255
0.158125
0.159469
0.160271
0.160056
0.159729
0.165542
0.0523268
0.0544859
0.0693327
0.0903256
0.111332
0.129708
0.14474
0.156584
0.1657
0.172584
0.177677
0.181343
0.183881
0.185545
0.186588
0.187231
0.187456
0.186966
0.18668
0.191367
0.105335
0.106059
0.119109
0.137792
0.156214
0.172007
0.184605
0.194223
0.20133
0.206412
0.209894
0.212124
0.213388
0.213928
0.213975
0.213728
0.213181
0.212108
0.211266
0.214438
0.158035
0.157304
0.168461
0.184728
0.200486
0.213643
0.223773
0.231136
0.236206
0.239454
0.241287
0.242033
0.241957
0.241284
0.240218
0.23893
0.2374
0.23543
0.233716
0.235479
0.209969
0.207778
0.216972
0.230754
0.243807
0.254308
0.261961
0.267066
0.270093
0.271498
0.271663
0.270898
0.269447
0.267512
0.265277
0.262883
0.260298
0.257345
0.254684
0.255096
0.26069
0.257047
0.264241
0.275507
0.285848
0.293707
0.298905
0.301772
0.302775
0.302349
0.300855
0.298577
0.295741
0.292529
0.289102
0.285577
0.281913
0.277958
0.274346
0.273483
0.309767
0.304697
0.309882
0.318637
0.326298
0.33156
0.334352
0.33503
0.334052
0.331831
0.328707
0.324941
0.320739
0.316264
0.311657
0.307016
0.302292
0.297363
0.292825
0.290749
0.356787
0.350329
0.353528
0.359814
0.364859
0.367601
0.368064
0.366626
0.363732
0.359776
0.355073
0.349865
0.344337
0.338636
0.332885
0.327163
0.321423
0.315566
0.310142
0.306917
0.40136
0.393568
0.394832
0.398725
0.401253
0.40158
0.399818
0.396358
0.391636
0.386023
0.379813
0.373227
0.366434
0.359562
0.35272
0.345973
0.339273
0.332544
0.326282
0.321973
0.443118
0.43406
0.433468
0.435078
0.435218
0.433263
0.429402
0.42404
0.417596
0.410423
0.402793
0.394911
0.386926
0.378955
0.371088
0.363381
0.355789
0.348252
0.341203
0.335878
0.48172
0.471478
0.469136
0.468602
0.466511
0.462433
0.456622
0.449493
0.441452
0.432832
0.423886
0.414801
0.405713
0.396723
0.38791
0.379317
0.370907
0.36263
0.354854
0.348587
0.516853
0.505522
0.501561
0.49905
0.494911
0.488889
0.481297
0.472555
0.463056
0.453116
0.44297
0.432789
0.422695
0.412778
0.403104
0.393709
0.384559
0.375614
0.367175
0.360045
0.548233
0.535922
0.530493
0.526196
0.520217
0.51245
0.503263
0.493076
0.482273
0.471152
0.459933
0.448772
0.43778
0.427035
0.416594
0.406483
0.396677
0.38714
0.378106
0.370201
0.57561
0.562437
0.555712
0.549844
0.542248
0.532956
0.522373
0.510925
0.498982
0.48683
0.474673
0.462657
0.450882
0.439415
0.428305
0.417573
0.407197
0.397146
0.38759
0.379007
0.598764
0.584857
0.577025
0.569819
0.560851
0.550263
0.538498
0.525982
0.513075
0.50005
0.487101
0.474362
0.461924
0.449847
0.438172
0.426915
0.416059
0.405576
0.395578
0.386416
0.617511
0.603007
0.594272
0.585976
0.575893
0.564255
0.551532
0.53815
0.524462
0.51073
0.497139
0.483814
0.47084
0.45827
0.446137
0.434457
0.423214
0.41238
0.402023
0.39239
0.631703
0.616745
0.607323
0.598198
0.587268
0.574834
0.561385
0.547347
0.533068
0.518801
0.504723
0.490955
0.477575
0.464632
0.452154
0.440153
0.428617
0.41752
0.406889
0.396899
0.641227
0.625963
0.616078
0.606395
0.594896
0.581927
0.56799
0.553513
0.538836
0.52421
0.509806
0.495741
0.482089
0.468895
0.456185
0.443969
0.432238
0.420963
0.410148
0.399917
0.646007
0.63059
0.620471
0.610508
0.598724
0.585486
0.571304
0.556605
0.54173
0.526923
0.512356
0.498141
0.484352
0.471033
0.458207
0.445883
0.434053
0.42269
0.411782
0.40143
0.646007
0.630589
0.62047
0.610507
0.598723
0.585485
0.571303
0.556605
0.541729
0.526922
0.512355
0.49814
0.484351
0.471032
0.458206
0.445882
0.434052
0.422689
0.411781
0.401429
0.641225
0.625961
0.616075
0.606393
0.594894
0.581925
0.567988
0.55351
0.538834
0.524207
0.509804
0.495738
0.482086
0.468892
0.456182
0.443966
0.432235
0.42096
0.410145
0.399914
0.6317
0.616741
0.607319
0.598194
0.587264
0.57483
0.561381
0.547343
0.533063
0.518796
0.504719
0.490951
0.477571
0.464627
0.452149
0.440148
0.428613
0.417515
0.406884
0.396894
0.617507
0.603002
0.594267
0.585971
0.575888
0.56425
0.551526
0.538144
0.524456
0.510724
0.497132
0.483808
0.470833
0.458263
0.446131
0.43445
0.423207
0.412374
0.402016
0.392384
0.598758
0.58485
0.577019
0.569812
0.560844
0.550256
0.538491
0.525974
0.513068
0.500042
0.487093
0.474354
0.461916
0.449839
0.438164
0.426907
0.416051
0.405567
0.395569
0.386407
0.575602
0.562428
0.555703
0.549835
0.54224
0.532947
0.522363
0.510915
0.498973
0.48682
0.474663
0.462647
0.450872
0.439405
0.428295
0.417562
0.407186
0.397135
0.38758
0.378996
0.548223
0.535912
0.530483
0.526186
0.520206
0.512439
0.503252
0.493065
0.482262
0.47114
0.459921
0.44876
0.437768
0.427023
0.416581
0.406471
0.396664
0.387128
0.378093
0.370189
0.51684
0.50551
0.501548
0.499037
0.494898
0.488876
0.481284
0.472541
0.463042
0.453102
0.442956
0.432774
0.422681
0.412763
0.40309
0.393694
0.384544
0.3756
0.36716
0.360031
0.481705
0.471463
0.469121
0.468587
0.466496
0.462417
0.456607
0.449477
0.441435
0.432815
0.423869
0.414784
0.405696
0.396706
0.387893
0.3793
0.37089
0.362614
0.354837
0.34857
0.4431
0.434042
0.43345
0.43506
0.4352
0.433245
0.429384
0.424021
0.417577
0.410404
0.402775
0.394892
0.386907
0.378936
0.371069
0.363362
0.35577
0.348233
0.341185
0.33586
0.401339
0.393547
0.394811
0.398704
0.401232
0.401559
0.399797
0.396338
0.391615
0.386002
0.379792
0.373206
0.366412
0.359541
0.352699
0.345951
0.339252
0.332523
0.32626
0.321952
0.356763
0.350305
0.353504
0.35979
0.364835
0.367577
0.368041
0.366602
0.363708
0.359752
0.355049
0.349841
0.344313
0.338612
0.332861
0.32714
0.321399
0.315542
0.310118
0.306894
0.309739
0.304669
0.309855
0.31861
0.326271
0.331533
0.334325
0.335003
0.334025
0.331805
0.32868
0.324914
0.320712
0.316237
0.311631
0.306989
0.302265
0.297336
0.292799
0.290724
0.260658
0.257015
0.264209
0.275476
0.285818
0.293677
0.298875
0.301742
0.302745
0.302319
0.300825
0.298548
0.295712
0.292499
0.289072
0.285548
0.281884
0.27793
0.274318
0.273455
0.209932
0.207741
0.216936
0.230719
0.243772
0.254274
0.261928
0.267032
0.270059
0.271464
0.27163
0.270865
0.269414
0.267479
0.265245
0.262851
0.260266
0.257313
0.254652
0.255065
0.157994
0.157263
0.16842
0.184688
0.200448
0.213605
0.223735
0.231099
0.236169
0.239418
0.24125
0.241996
0.241922
0.241248
0.240183
0.238894
0.237365
0.235395
0.233682
0.235445
0.105289
0.106012
0.119064
0.137748
0.156171
0.171964
0.184564
0.194182
0.201289
0.206372
0.209854
0.212084
0.213349
0.213889
0.213936
0.21369
0.213143
0.21207
0.211228
0.214402
0.0522744
0.0544334
0.0692816
0.0902762
0.111284
0.129661
0.144694
0.156538
0.165655
0.17254
0.177633
0.181299
0.183838
0.185503
0.186546
0.187189
0.187414
0.186925
0.186639
0.191327
-0.000583401
0.00297783
0.019498
0.042661
0.0661398
0.0870158
0.104419
0.118439
0.129517
0.138154
0.144799
0.149829
0.153546
0.156209
0.158079
0.159423
0.160226
0.160011
0.159685
0.165499
-0.0528175
-0.0478998
-0.0298577
-0.00470185
0.0210991
0.0443615
0.0640492
0.0801745
0.093154
0.103487
0.111629
0.117962
0.122792
0.126364
0.128924
0.130751
0.131818
0.131129
0.128426
0.132073
-0.103963
-0.0977462
-0.0783555
-0.051414
-0.0234718
0.00203588
0.0238999
0.0420461
0.0568572
0.0688235
0.0784007
0.085967
0.0918128
0.096145
0.0991259
0.100906
0.101387
0.099707
0.0951591
0.090579
-0.153572
-0.146122
-0.125574
-0.097081
-0.067208
-0.0396219
-0.0157087
0.00436191
0.0209318
0.0344793
0.0454594
0.0542526
0.0611525
0.0663671
0.0700461
0.0723227
0.0732243
0.072389
0.0693416
0.065106
-0.201209
-0.1926
-0.171101
-0.141317
-0.109752
-0.0802791
-0.0544621
-0.0325738
-0.0143186
0.000769005
0.0131486
0.0232143
0.0312833
0.0375983
0.0423464
0.0456926
0.0477804
0.0486496
0.0481832
0.0460926
-0.246461
-0.236776
-0.214545
-0.183752
-0.15076
-0.119618
-0.0920625
-0.0684779
-0.0486215
-0.0320434
-0.0182794
-0.00691919
0.00237844
0.00988963
0.0158359
0.0204038
0.0237782
0.0261771
0.0277164
0.0277276
-0.28895
-0.278278
-0.255542
-0.224039
-0.189911
-0.157341
-0.128237
-0.103099
-0.0817456
-0.0637504
-0.048649
-0.0360196
-0.0255037
-0.0168029
-0.00967223
-0.00390903
0.000688425
0.00439439
0.00739065
0.00892913
-0.328339
-0.316773
-0.293759
-0.26186
-0.226907
-0.193178
-0.16274
-0.136214
-0.113493
-0.0941796
-0.0778169
-0.063978
-0.0522928
-0.0424487
-0.0341856
-0.027288
-0.0215417
-0.0166556
-0.0124705
-0.00985788
-0.364336
-0.351971
-0.328906
-0.296929
-0.261483
-0.226887
-0.195354
-0.167632
-0.143693
-0.123183
-0.105659
-0.0906952
-0.0779153
-0.0669985
-0.0576763
-0.0497267
-0.0429287
-0.0369808
-0.0317457
-0.0282285
-0.396704
-0.383637
-0.360737
-0.329
-0.293406
-0.258256
-0.22589
-0.197184
-0.172201
-0.150637
-0.132073
-0.11609
-0.102312
-0.0904157
-0.0801281
-0.0712254
-0.0634854
-0.0566
-0.0504282
-0.0460496
-0.425263
-0.41159
-0.389056
-0.357872
-0.322479
-0.287105
-0.254188
-0.224731
-0.198896
-0.17644
-0.156975
-0.140097
-0.125436
-0.112669
-0.101523
-0.0917731
-0.0832013
-0.0754986
-0.0685082
-0.0633211
-0.449894
-0.435711
-0.413725
-0.383387
-0.348544
-0.313286
-0.280116
-0.250159
-0.223681
-0.20051
-0.180299
-0.162664
-0.147246
-0.133727
-0.121836
-0.11135
-0.102056
-0.0936512
-0.0859615
-0.0800526
-0.470543
-0.455944
-0.434663
-0.405441
-0.371486
-0.336684
-0.303572
-0.27338
-0.246482
-0.222785
-0.201992
-0.183747
-0.167706
-0.153561
-0.141043
-0.129935
-0.120029
-0.111032
-0.102756
-0.0962205
-0.487223
-0.4723
-0.451851
-0.423979
-0.391229
-0.357223
-0.324482
-0.294329
-0.267244
-0.243221
-0.222018
-0.203316
-0.186792
-0.172147
-0.159124
-0.147507
-0.137096
-0.127613
-0.118853
-0.11178
-0.50001
-0.484854
-0.465332
-0.439006
-0.407748
-0.374859
-0.342803
-0.312966
-0.285934
-0.261788
-0.240354
-0.221352
-0.204485
-0.189472
-0.176062
-0.164047
-0.153237
-0.143367
-0.134221
-0.126691
-0.509043
-0.493745
-0.475214
-0.450578
-0.421059
-0.389588
-0.358518
-0.329276
-0.302538
-0.278479
-0.256993
-0.237849
-0.220781
-0.205527
-0.191849
-0.179546
-0.168438
-0.158277
-0.148835
-0.140925
-0.51452
-0.49917
-0.481662
-0.458812
-0.43123
-0.401443
-0.371644
-0.343265
-0.317062
-0.293297
-0.27194
-0.252812
-0.235684
-0.220315
-0.206485
-0.194001
-0.182694
-0.172332
-0.162682
-0.154472
-0.51669
-0.501381
-0.4849
-0.463877
-0.438374
-0.410494
-0.382224
-0.354966
-0.329531
-0.306267
-0.285216
-0.266261
-0.249209
-0.23385
-0.21998
-0.207419
-0.196007
-0.185533
-0.17576
-0.167329
-0.515849
-0.500676
-0.4852
-0.465995
-0.442653
-0.416851
-0.390334
-0.364432
-0.339989
-0.317424
-0.296855
-0.278224
-0.261384
-0.246155
-0.232355
-0.219816
-0.208392
-0.197889
-0.188075
-0.179501
-0.512329
-0.497386
-0.482878
-0.465433
-0.444273
-0.420663
-0.396079
-0.371741
-0.348496
-0.32682
-0.306902
-0.288743
-0.272244
-0.257261
-0.243636
-0.231216
-0.219867
-0.209418
-0.199641
-0.190999
-0.506485
-0.491871
-0.478281
-0.462499
-0.443481
-0.422115
-0.399592
-0.376991
-0.355129
-0.33452
-0.315411
-0.297866
-0.281835
-0.26721
-0.253859
-0.241651
-0.230462
-0.220143
-0.210477
-0.201844
-0.498691
-0.484504
-0.471777
-0.457531
-0.44056
-0.421426
-0.401038
-0.380303
-0.35998
-0.340598
-0.322449
-0.305653
-0.290209
-0.276047
-0.263068
-0.251157
-0.24021
-0.230095
-0.220611
-0.21206
-0.489323
-0.475658
-0.463739
-0.450884
-0.43582
-0.418848
-0.400607
-0.38182
-0.36316
-0.34514
-0.328088
-0.312165
-0.297421
-0.283825
-0.271307
-0.259779
-0.24915
-0.239309
-0.230074
-0.221676
-0.47875
-0.465699
-0.454541
-0.442923
-0.429594
-0.414656
-0.398516
-0.381706
-0.36479
-0.348244
-0.332405
-0.317471
-0.303532
-0.290596
-0.278627
-0.26756
-0.257321
-0.247823
-0.238901
-0.230726
-0.467326
-0.454973
-0.444536
-0.434006
-0.422217
-0.409147
-0.395005
-0.380147
-0.365011
-0.350015
-0.335485
-0.32164
-0.308602
-0.296416
-0.285077
-0.274545
-0.264767
-0.255674
-0.247126
-0.23924
-0.455376
-0.443795
-0.43405
-0.42447
-0.414025
-0.402622
-0.390329
-0.377344
-0.363978
-0.35057
-0.337418
-0.324744
-0.312693
-0.301338
-0.290705
-0.280778
-0.271526
-0.2629
-0.254782
-0.247248
-0.443194
-0.432446
-0.423373
-0.414626
-0.405333
-0.395385
-0.384756
-0.373517
-0.36186
-0.350038
-0.338301
-0.326858
-0.315863
-0.305412
-0.295554
-0.286299
-0.277634
-0.269531
-0.261897
-0.254775
-0.431038
-0.421167
-0.412756
-0.404744
-0.39643
-0.387724
-0.378551
-0.368893
-0.358841
-0.348558
-0.338236
-0.328058
-0.318172
-0.308685
-0.299663
-0.29114
-0.28312
-0.275594
-0.268493
-0.261835
-0.419122
-0.410157
-0.402401
-0.395049
-0.387566
-0.379904
-0.371975
-0.363708
-0.355114
-0.346281
-0.337338
-0.328426
-0.319677
-0.311199
-0.303066
-0.295327
-0.288005
-0.281105
-0.274582
-0.268436
-0.407622
-0.399573
-0.392468
-0.38572
-0.37895
-0.372156
-0.365265
-0.358187
-0.350882
-0.343373
-0.33573
-0.328052
-0.320442
-0.312996
-0.30579
-0.298881
-0.292303
-0.286075
-0.28017
-0.274575
-0.396673
-0.38953
-0.383072
-0.376891
-0.370739
-0.364667
-0.358631
-0.352544
-0.346341
-0.340002
-0.333549
-0.327035
-0.320534
-0.31412
-0.307862
-0.301816
-0.296021
-0.290506
-0.285258
-0.280242
-0.386372
-0.380112
-0.37429
-0.368648
-0.363048
-0.357584
-0.352247
-0.346968
-0.341682
-0.336343
-0.330939
-0.325489
-0.320032
-0.31462
-0.309308
-0.304143
-0.299163
-0.294396
-0.289844
-0.285433
-0.376782
-0.371365
-0.366166
-0.361043
-0.355946
-0.351004
-0.346242
-0.341617
-0.337073
-0.332562
-0.328051
-0.323534
-0.319026
-0.314557
-0.310161
-0.305876
-0.30173
-0.297746
-0.293931
-0.290152
-0.367938
-0.363312
-0.358715
-0.354093
-0.349468
-0.344987
-0.340705
-0.336609
-0.332658
-0.328811
-0.325032
-0.321302
-0.317621
-0.314002
-0.310465
-0.307035
-0.303729
-0.300558
-0.29753
-0.294433
-0.359848
-0.355953
-0.351929
-0.347793
-0.343615
-0.339555
-0.335688
-0.332024
-0.328545
-0.325219
-0.322018
-0.318923
-0.315928
-0.313039
-0.310273
-0.307645
-0.305166
-0.302833
-0.300658
-0.29834
-0.3525
-0.34927
-0.345786
-0.342117
-0.338367
-0.334701
-0.331204
-0.327907
-0.324806
-0.321886
-0.319128
-0.31652
-0.314061
-0.311762
-0.309646
-0.307734
-0.306041
-0.304563
-0.303316
-0.301955
-0.345868
-0.343232
-0.34025
-0.337026
-0.333688
-0.330396
-0.327242
-0.324266
-0.32148
-0.318877
-0.316451
-0.314198
-0.312128
-0.310266
-0.30865
-0.307328
-0.30634
-0.305705
-0.305459
-0.305347
-0.339907
-0.337796
-0.335276
-0.332473
-0.329529
-0.326597
-0.323768
-0.321087
-0.318572
-0.316226
-0.314047
-0.31204
-0.310224
-0.30864
-0.307351
-0.306445
-0.306016
-0.306149
-0.30693
-0.308451
-0.334568
-0.332915
-0.330814
-0.328405
-0.325837
-0.32325
-0.320731
-0.318328
-0.316061
-0.313932
-0.311944
-0.3101
-0.308425
-0.306967
-0.305815
-0.305099
-0.304995
-0.305702
-0.307436
-0.311058
-0.329792
-0.328535
-0.326811
-0.324767
-0.322551
-0.320293
-0.318074
-0.315938
-0.313903
-0.311971
-0.310138
-0.308403
-0.306783
-0.305321
-0.304111
-0.303314
-0.303183
-0.304059
-0.306432
-0.312448
-0.32552
-0.324602
-0.323213
-0.321502
-0.319615
-0.317667
-0.315732
-0.313851
-0.312038
-0.310291
-0.308596
-0.306943
-0.305325
-0.303765
-0.30233
-0.301167
-0.300551
-0.300919
-0.303233
-0.311697
-0.321693
-0.321064
-0.31997
-0.31856
-0.316972
-0.315311
-0.313642
-0.312001
-0.310398
-0.308827
-0.307264
-0.305681
-0.304048
-0.302341
-0.300566
-0.298785
-0.297166
-0.295999
-0.296482
-0.305136
-0.318254
-0.317871
-0.317035
-0.315891
-0.314573
-0.313171
-0.311745
-0.310325
-0.308918
-0.307511
-0.306074
-0.304563
-0.302918
-0.301061
-0.298893
-0.296286
-0.293059
-0.288682
-0.281765
-0.273568
-0.315152
-0.314979
-0.314366
-0.313457
-0.312377
-0.311206
-0.309996
-0.308773
-0.307542
-0.306288
-0.304976
-0.303557
-0.301959
-0.300088
-0.297817
-0.294989
-0.291419
-0.286689
-0.279808
-0.27264
-0.312344
-0.312349
-0.311929
-0.311222
-0.310351
-0.309382
-0.308362
-0.307313
-0.306238
-0.305121
-0.303931
-0.30262
-0.301124
-0.29936
-0.297228
-0.29462
-0.291441
-0.287442
-0.282077
-0.277483
-0.309793
-0.309949
-0.309693
-0.309163
-0.308472
-0.30768
-0.306825
-0.305927
-0.304989
-0.303995
-0.302918
-0.301718
-0.300342
-0.298728
-0.296803
-0.29451
-0.291808
-0.288534
-0.284407
-0.281603
-0.307467
-0.307751
-0.307638
-0.307259
-0.306726
-0.306087
-0.305378
-0.304614
-0.303797
-0.302917
-0.301948
-0.30086
-0.299614
-0.298166
-0.296474
-0.294518
-0.292304
-0.289734
-0.286693
-0.285176
-0.30534
-0.305735
-0.305743
-0.305497
-0.305101
-0.304599
-0.30402
-0.303378
-0.302677
-0.301906
-0.301048
-0.30008
-0.298976
-0.297712
-0.296269
-0.29466
-0.292921
-0.291001
-0.288866
-0.288254
-0.303392
-0.303881
-0.303995
-0.303865
-0.303592
-0.303213
-0.302754
-0.302229
-0.30164
-0.300982
-0.300242
-0.299406
-0.29846
-0.297393
-0.296208
-0.294936
-0.293628
-0.292258
-0.290812
-0.290797
-0.301602
-0.302175
-0.302381
-0.302355
-0.302192
-0.301927
-0.301581
-0.301169
-0.300694
-0.300154
-0.299541
-0.298849
-0.298072
-0.297211
-0.296281
-0.29532
-0.294388
-0.293459
-0.292511
-0.29287
-0.299955
-0.300604
-0.300894
-0.300959
-0.300897
-0.300737
-0.3005
-0.300198
-0.299838
-0.29942
-0.298941
-0.298399
-0.297796
-0.29714
-0.29645
-0.295769
-0.295152
-0.294566
-0.293972
-0.294564
-0.29844
-0.299159
-0.299524
-0.299672
-0.299703
-0.29964
-0.299505
-0.299311
-0.299065
-0.298769
-0.298424
-0.298033
-0.2976
-0.297138
-0.296667
-0.296228
-0.29587
-0.295548
-0.295204
-0.295946
-0.297046
-0.297833
-0.298267
-0.298491
-0.298605
-0.298633
-0.298593
-0.298501
-0.298364
-0.298185
-0.29797
-0.297721
-0.297447
-0.297161
-0.296882
-0.296648
-0.296499
-0.296379
-0.296219
-0.297064
-0.295769
-0.296623
-0.29712
-0.297412
-0.297602
-0.297711
-0.297759