/*--------------------------------*- C++ -*----------------------------------*\
  =========                 |
  \\      /  F ield         | OpenFOAM: The Open Source CFD Toolbox
   \\    /   O peration     | Website:  https://openfoam.org
    \\  /    A nd           | Version:  6.0
     \\/     M anipulation  |
\*---------------------------------------------------------------------------*/
FoamFile
{
    version     2.0;
    format      ascii;
    class       volScalarField;
    location    "21.1";
    object      p;
}
// * * * * * * * * * * * * * * * * * * * * * * * * * * * * * * * * * * * * * //

dimensions      [0 2 -2 0 0 0 0];

internalField   nonuniform List<scalar> 
8000
(
-0.267746
-0.268792
-0.269473
-0.269963
-0.27037
-0.270713
-0.271007
-0.271264
-0.271495
-0.271706
-0.271902
-0.272088
-0.27227
-0.27245
-0.272635
-0.272831
-0.273042
-0.273243
-0.273419
-0.273874
-0.267865
-0.268905
-0.26958
-0.270065
-0.270467
-0.270803
-0.27109
-0.27134
-0.271563
-0.271766
-0.271954
-0.272132
-0.272304
-0.272475
-0.272651
-0.272838
-0.273041
-0.273233
-0.273401
-0.273851
-0.268111
-0.26914
-0.269805
-0.270279
-0.270669
-0.270993
-0.271266
-0.271501
-0.27171
-0.271897
-0.272068
-0.272229
-0.272384
-0.272537
-0.272695
-0.272864
-0.273051
-0.273227
-0.273378
-0.273818
-0.268484
-0.269496
-0.270146
-0.270604
-0.270976
-0.27128
-0.271533
-0.271747
-0.271932
-0.272095
-0.272242
-0.272376
-0.272504
-0.27263
-0.272759
-0.272902
-0.273063
-0.273215
-0.27334
-0.273766
-0.268981
-0.269972
-0.270602
-0.271038
-0.271386
-0.271665
-0.271889
-0.272073
-0.272227
-0.272357
-0.272469
-0.272567
-0.272657
-0.272745
-0.272835
-0.27294
-0.273065
-0.273182
-0.273273
-0.27368
-0.269601
-0.270566
-0.271172
-0.271581
-0.271899
-0.272144
-0.272332
-0.272478
-0.272591
-0.272679
-0.272745
-0.272796
-0.272837
-0.272873
-0.272912
-0.272966
-0.273042
-0.273114
-0.273159
-0.273542
-0.270343
-0.271279
-0.271856
-0.272232
-0.272513
-0.272716
-0.27286
-0.272959
-0.273022
-0.273056
-0.273066
-0.273057
-0.273035
-0.273007
-0.272979
-0.272967
-0.272981
-0.272992
-0.27298
-0.273331
-0.271208
-0.272111
-0.272653
-0.272991
-0.273226
-0.273381
-0.273473
-0.273515
-0.273519
-0.273489
-0.273431
-0.273349
-0.27325
-0.27314
-0.27303
-0.272934
-0.272866
-0.272801
-0.272715
-0.273028
-0.272196
-0.273063
-0.273565
-0.273857
-0.274041
-0.274139
-0.27417
-0.274147
-0.274081
-0.273978
-0.27384
-0.273672
-0.273481
-0.273273
-0.27306
-0.272859
-0.272688
-0.272524
-0.272344
-0.272611
-0.273313
-0.274138
-0.274594
-0.274832
-0.274957
-0.27499
-0.274952
-0.274857
-0.274714
-0.274526
-0.274299
-0.274033
-0.273735
-0.273411
-0.273074
-0.272744
-0.272443
-0.27215
-0.27185
-0.272056
-0.274561
-0.275338
-0.27574
-0.275919
-0.275975
-0.275937
-0.275822
-0.275648
-0.27542
-0.275142
-0.274816
-0.274442
-0.274023
-0.273566
-0.273083
-0.272596
-0.272133
-0.271675
-0.271216
-0.271338
-0.275948
-0.276669
-0.277009
-0.277118
-0.277098
-0.27698
-0.276783
-0.276522
-0.276205
-0.275832
-0.275402
-0.274913
-0.274364
-0.273759
-0.273108
-0.272435
-0.271771
-0.271099
-0.270425
-0.270428
-0.277483
-0.278136
-0.278404
-0.278433
-0.278328
-0.278121
-0.277834
-0.277483
-0.277073
-0.276603
-0.276068
-0.27546
-0.274775
-0.274011
-0.273174
-0.272285
-0.271377
-0.270432
-0.269465
-0.269288
-0.279174
-0.279747
-0.27993
-0.279868
-0.279666
-0.279361
-0.278977
-0.27853
-0.278025
-0.277457
-0.276817
-0.276093
-0.275272
-0.274345
-0.273308
-0.272177
-0.27098
-0.269691
-0.268325
-0.267872
-0.281032
-0.281511
-0.281595
-0.281426
-0.281113
-0.280698
-0.280207
-0.279658
-0.279054
-0.278388
-0.277646
-0.27681
-0.275858
-0.274769
-0.273527
-0.272134
-0.270607
-0.268897
-0.266998
-0.266121
-0.283071
-0.283437
-0.283404
-0.283112
-0.282672
-0.282131
-0.281521
-0.280859
-0.28015
-0.279383
-0.278541
-0.277598
-0.276522
-0.275279
-0.273835
-0.272173
-0.270285
-0.268084
-0.265501
-0.263994
-0.285305
-0.28554
-0.28537
-0.284934
-0.284345
-0.283659
-0.282912
-0.282123
-0.281297
-0.280422
-0.279477
-0.278429
-0.277238
-0.275854
-0.274223
-0.2723
-0.27005
-0.267329
-0.263937
-0.261533
-0.287754
-0.287837
-0.287507
-0.286901
-0.286139
-0.285284
-0.284377
-0.283442
-0.282483
-0.281487
-0.280432
-0.279279
-0.27798
-0.276472
-0.274678
-0.27252
-0.269925
-0.266678
-0.262356
-0.258641
-0.290443
-0.290349
-0.289832
-0.28903
-0.288066
-0.287014
-0.285923
-0.284817
-0.283704
-0.282573
-0.281399
-0.280145
-0.278759
-0.277169
-0.27528
-0.272973
-0.270104
-0.266303
-0.260727
-0.254913
-0.293405
-0.293106
-0.292371
-0.291342
-0.290147
-0.288869
-0.287564
-0.286264
-0.284976
-0.283696
-0.282404
-0.28107
-0.279657
-0.278114
-0.276377
-0.274364
-0.271936
-0.268619
-0.263178
-0.25669
-0.29668
-0.296141
-0.295157
-0.293869
-0.29241
-0.290877
-0.289333
-0.287814
-0.286334
-0.284895
-0.283488
-0.282102
-0.280732
-0.27939
-0.278125
-0.277059
-0.276437
-0.276658
-0.279208
-0.29096
-0.300314
-0.299498
-0.298228
-0.296648
-0.294895
-0.293079
-0.291272
-0.289516
-0.287831
-0.286225
-0.284702
-0.28327
-0.281955
-0.280814
-0.27996
-0.2796
-0.280084
-0.281938
-0.286297
-0.297737
-0.304364
-0.303224
-0.30163
-0.299725
-0.29765
-0.295528
-0.29344
-0.291433
-0.289533
-0.287756
-0.286117
-0.284639
-0.283369
-0.282388
-0.281833
-0.281918
-0.282956
-0.285351
-0.289673
-0.298399
-0.308887
-0.307371
-0.305413
-0.303152
-0.300729
-0.298283
-0.2959
-0.293633
-0.291513
-0.289561
-0.287797
-0.286255
-0.284989
-0.284083
-0.283665
-0.283908
-0.285032
-0.287275
-0.290883
-0.296936
-0.313945
-0.311993
-0.30963
-0.306983
-0.304192
-0.301405
-0.298718
-0.296184
-0.293836
-0.291695
-0.289784
-0.288135
-0.286798
-0.285844
-0.285368
-0.285486
-0.28632
-0.28797
-0.290522
-0.294161
-0.319597
-0.317143
-0.314334
-0.311275
-0.308096
-0.304957
-0.301955
-0.299144
-0.296551
-0.294194
-0.292091
-0.290264
-0.288751
-0.2876
-0.286871
-0.286624
-0.286909
-0.287741
-0.289142
-0.290851
-0.325896
-0.322873
-0.319576
-0.31608
-0.312498
-0.308994
-0.305665
-0.302556
-0.299687
-0.297066
-0.294699
-0.292597
-0.290779
-0.289273
-0.288106
-0.287305
-0.286875
-0.286796
-0.287065
-0.287272
-0.332887
-0.329224
-0.325402
-0.321449
-0.317447
-0.313563
-0.309886
-0.306446
-0.30325
-0.30029
-0.29756
-0.295059
-0.292791
-0.29077
-0.289006
-0.287508
-0.286268
-0.285259
-0.284473
-0.283527
-0.340602
-0.336232
-0.331849
-0.32742
-0.322983
-0.318698
-0.314638
-0.310813
-0.307211
-0.30381
-0.300592
-0.297548
-0.294679
-0.291993
-0.289499
-0.287203
-0.285102
-0.283179
-0.281427
-0.279557
-0.349058
-0.343918
-0.338945
-0.334025
-0.329132
-0.324413
-0.319915
-0.315625
-0.311509
-0.307535
-0.303683
-0.299944
-0.296325
-0.292843
-0.289515
-0.286356
-0.283374
-0.280569
-0.277931
-0.275273
-0.358249
-0.352286
-0.346701
-0.341273
-0.335898
-0.330694
-0.325679
-0.320812
-0.316046
-0.311346
-0.306699
-0.302113
-0.297611
-0.293227
-0.288992
-0.284935
-0.281073
-0.27742
-0.273962
-0.27059
-0.368151
-0.36132
-0.355108
-0.349155
-0.343257
-0.337495
-0.331854
-0.326269
-0.32069
-0.315094
-0.309492
-0.303919
-0.298424
-0.293061
-0.287878
-0.282913
-0.278191
-0.273728
-0.269502
-0.26546
-0.378705
-0.37098
-0.36413
-0.357629
-0.351151
-0.34473
-0.338322
-0.33185
-0.325277
-0.318613
-0.311907
-0.305231
-0.298664
-0.292279
-0.286135
-0.280275
-0.274722
-0.269489
-0.264544
-0.259864
-0.389826
-0.381193
-0.3737
-0.366619
-0.35948
-0.35227
-0.344922
-0.337373
-0.329621
-0.321728
-0.313794
-0.30593
-0.298245
-0.290824
-0.283731
-0.277005
-0.270662
-0.264705
-0.259085
-0.253804
-0.401389
-0.391854
-0.383716
-0.376007
-0.3681
-0.359938
-0.351458
-0.342632
-0.333524
-0.324264
-0.315008
-0.305909
-0.297092
-0.28865
-0.280641
-0.273092
-0.266007
-0.259375
-0.253128
-0.247287
-0.413231
-0.402817
-0.39403
-0.385628
-0.376818
-0.367517
-0.357696
-0.347401
-0.336783
-0.326051
-0.31542
-0.305071
-0.295141
-0.285715
-0.276838
-0.268518
-0.260746
-0.253493
-0.246667
-0.240317
-0.425148
-0.413896
-0.404452
-0.395271
-0.385397
-0.374753
-0.363385
-0.351447
-0.339198
-0.326932
-0.31491
-0.303333
-0.292332
-0.281977
-0.272291
-0.263263
-0.254862
-0.247044
-0.239693
-0.23289
-0.436896
-0.424863
-0.414749
-0.404679
-0.39356
-0.381363
-0.368257
-0.354537
-0.340582
-0.326762
-0.313372
-0.300615
-0.288606
-0.277391
-0.266966
-0.257295
-0.24833
-0.240007
-0.232188
-0.224993
-0.448192
-0.435451
-0.424642
-0.413556
-0.401
-0.38705
-0.372047
-0.35645
-0.340759
-0.325407
-0.310706
-0.296844
-0.283907
-0.271911
-0.260822
-0.25058
-0.241118
-0.232353
-0.224125
-0.216604
-0.458721
-0.445353
-0.433816
-0.421572
-0.407388
-0.391511
-0.374494
-0.356977
-0.33957
-0.322748
-0.306821
-0.291947
-0.278176
-0.265487
-0.253814
-0.243077
-0.23319
-0.224048
-0.215473
-0.207696
-0.468139
-0.454236
-0.441928
-0.428378
-0.412391
-0.394448
-0.375354
-0.355928
-0.33687
-0.318677
-0.301632
-0.285856
-0.271354
-0.258065
-0.245897
-0.234744
-0.224505
-0.215056
-0.2062
-0.198237
-0.476084
-0.461742
-0.448613
-0.433612
-0.415676
-0.395582
-0.374404
-0.353133
-0.332532
-0.313094
-0.295062
-0.278505
-0.263382
-0.249595
-0.237022
-0.225537
-0.215025
-0.20534
-0.196272
-0.188195
-0.482184
-0.467501
-0.4535
-0.43692
-0.416928
-0.394654
-0.371448
-0.348444
-0.326445
-0.305913
-0.287038
-0.269831
-0.254205
-0.240026
-0.227145
-0.215416
-0.204711
-0.194866
-0.185658
-0.177541
-0.486069
-0.471145
-0.456223
-0.437961
-0.41586
-0.391439
-0.366315
-0.341736
-0.318513
-0.297057
-0.277494
-0.259778
-0.243773
-0.229313
-0.216223
-0.204342
-0.19353
-0.183602
-0.174329
-0.166249
-0.487382
-0.472314
-0.456432
-0.436423
-0.412217
-0.385744
-0.358864
-0.332905
-0.308655
-0.28646
-0.266375
-0.248295
-0.232041
-0.217415
-0.204221
-0.192285
-0.181454
-0.171525
-0.162264
-0.154298
-0.485788
-0.470673
-0.453807
-0.43203
-0.405783
-0.377412
-0.348984
-0.321871
-0.29681
-0.27407
-0.253635
-0.235342
-0.218972
-0.2043
-0.19111
-0.179219
-0.168462
-0.158615
-0.149449
-0.141675
-0.480988
-0.465919
-0.448069
-0.424552
-0.39639
-0.366326
-0.336595
-0.308574
-0.28293
-0.259849
-0.239239
-0.220888
-0.204539
-0.189943
-0.176871
-0.165128
-0.154539
-0.144864
-0.135877
-0.128374
-0.472725
-0.457794
-0.438986
-0.413809
-0.383912
-0.352407
-0.321647
-0.29298
-0.26699
-0.243771
-0.223166
-0.204913
-0.188725
-0.174332
-0.161492
-0.150003
-0.139681
-0.130268
-0.121549
-0.114396
-0.460793
-0.446091
-0.426381
-0.399676
-0.368275
-0.335614
-0.304118
-0.275078
-0.248979
-0.225829
-0.205408
-0.187409
-0.171523
-0.157461
-0.144971
-0.133846
-0.123892
-0.114837
-0.106476
-0.099751
-0.445043
-0.430661
-0.410136
-0.382083
-0.349451
-0.315946
-0.284019
-0.254879
-0.228908
-0.206031
-0.18597
-0.168383
-0.152938
-0.139335
-0.127316
-0.116666
-0.107184
-0.0985859
-0.0906801
-0.0844637
-0.425387
-0.411418
-0.390196
-0.361016
-0.327458
-0.293437
-0.261388
-0.232419
-0.206808
-0.184402
-0.164872
-0.147849
-0.132985
-0.11997
-0.10854
-0.0984781
-0.0895769
-0.0815409
-0.0741928
-0.0685734
-0.401803
-0.388339
-0.366568
-0.336519
-0.30236
-0.26816
-0.236294
-0.207759
-0.18273
-0.160984
-0.14215
-0.125838
-0.111688
-0.0993855
-0.0886635
-0.0793034
-0.0710922
-0.0637283
-0.05705
-0.0521229
-0.374332
-0.361468
-0.339322
-0.308686
-0.274268
-0.240222
-0.208835
-0.180983
-0.156745
-0.135836
-0.117853
-0.10239
-0.0890808
-0.0776094
-0.0677094
-0.0591617
-0.0517502
-0.0451732
-0.0392837
-0.0351359
-0.343083
-0.330913
-0.308585
-0.277665
-0.24333
-0.209764
-0.179138
-0.152203
-0.128948
-0.109038
-0.0920453
-0.0775556
-0.0652023
-0.0546715
-0.0457005
-0.0380718
-0.0315701
-0.0259
-0.0209175
-0.0176041
-0.308222
-0.296843
-0.274543
-0.243649
-0.209737
-0.176962
-0.147358
-0.121553
-0.0994556
-0.0806883
-0.0648079
-0.0513986
-0.0400987
-0.0306022
-0.0226542
-0.0160435
-0.0105614
-0.00592235
-0.00196105
0.000472781
-0.269979
-0.259483
-0.23743
-0.206876
-0.173715
-0.142022
-0.11368
-0.0891969
-0.0684095
-0.050908
-0.0362413
-0.0239981
-0.0138273
-0.00543651
0.00141444
0.00692429
0.0112897
0.0147795
0.0175813
0.0189687
-0.228635
-0.219113
-0.19753
-0.167624
-0.135524
-0.105182
-0.0783181
-0.0553247
-0.0359773
-0.0198422
-0.00646718
0.00454879
0.01354
0.0207774
0.0264784
0.0308259
0.034
0.0362146
0.0375936
0.0374923
-0.184517
-0.176058
-0.155166
-0.126204
-0.0954552
-0.0667081
-0.0415128
-0.0201541
-0.00235365
0.0123394
0.0243735
0.0341347
0.0419337
0.0480092
0.0525448
0.0557018
0.05762
0.0583399
0.057757
0.0556008
-0.137995
-0.13068
-0.110697
-0.0829587
-0.0538258
-0.0268918
-0.00353356
0.0160663
0.0322334
0.0454323
0.0561079
0.064633
0.0712962
0.0763017
0.0797963
0.0819099
0.0826687
0.0817197
0.078604
0.0743331
-0.0894747
-0.0833768
-0.0645061
-0.0382515
-0.0109748
0.0139522
0.0353254
0.0530573
0.0675151
0.0791764
0.0884872
0.0958188
0.101457
0.105605
0.108422
0.110055
0.110407
0.108636
0.104043
0.0994091
-0.0393855
-0.0345697
-0.017001
0.00753563
0.032744
0.0554945
0.0747529
0.090518
0.103191
0.11326
0.121172
0.127303
0.131952
0.135361
0.137772
0.139461
0.140401
0.139618
0.136852
0.140334
0.0118306
0.0153073
0.0314016
0.0540122
0.0769691
0.0973993
0.114432
0.128143
0.13896
0.147373
0.153823
0.15868
0.162244
0.164766
0.166507
0.167728
0.168417
0.168106
0.167683
0.17331
0.0637133
0.0658055
0.0802752
0.100783
0.121337
0.139331
0.154049
0.165634
0.174532
0.181231
0.186162
0.189686
0.192096
0.193643
0.194576
0.195114
0.195241
0.194666
0.194289
0.198813
0.115799
0.116474
0.129193
0.147454
0.165488
0.180958
0.193296
0.202701
0.209631
0.214564
0.217916
0.220033
0.221194
0.22164
0.221597
0.221263
0.220634
0.219487
0.218565
0.221603
0.167626
0.166863
0.177734
0.19364
0.209072
0.221963
0.231882
0.239076
0.244008
0.247141
0.248875
0.249534
0.249382
0.248636
0.247502
0.246145
0.244551
0.242523
0.240745
0.242395
0.218737
0.216532
0.225485
0.238963
0.251747
0.262036
0.269525
0.274501
0.277427
0.278749
0.278846
0.27802
0.276515
0.27453
0.272247
0.269805
0.267173
0.264177
0.261467
0.261789
0.26869
0.26505
0.272045
0.283061
0.293188
0.300884
0.305961
0.308739
0.309675
0.309197
0.307661
0.305348
0.302481
0.299239
0.295783
0.292229
0.288534
0.284553
0.280908
0.279973
0.317053
0.312002
0.317028
0.325584
0.333081
0.338226
0.340937
0.341562
0.340548
0.338305
0.335164
0.331387
0.327176
0.322691
0.318074
0.313419
0.308682
0.303741
0.299184
0.297054
0.363415
0.356991
0.360068
0.366202
0.37113
0.373797
0.374217
0.372758
0.369858
0.365906
0.361211
0.356013
0.350496
0.344804
0.339059
0.333341
0.327602
0.321746
0.316315
0.313054
0.407386
0.399641
0.400818
0.404603
0.407057
0.407347
0.405576
0.402126
0.397425
0.39184
0.385659
0.379104
0.372339
0.365494
0.358674
0.351944
0.34526
0.338545
0.332287
0.327956
0.448597
0.4396
0.438953
0.440494
0.440598
0.438642
0.434803
0.429477
0.423079
0.415956
0.408376
0.400542
0.392603
0.384672
0.376842
0.369166
0.361602
0.35409
0.347057
0.341723
0.486709
0.476539
0.474171
0.473604
0.471512
0.467463
0.461702
0.454634
0.446661
0.43811
0.429232
0.420212
0.411184
0.402249
0.393485
0.384936
0.376564
0.368322
0.360571
0.354307
0.521406
0.510159
0.506197
0.503684
0.499576
0.49361
0.486093
0.477434
0.468022
0.458168
0.448106
0.438004
0.427984
0.418134
0.408521
0.399179
0.390078
0.381177
0.372771
0.365656
0.552407
0.540189
0.534782
0.530511
0.524588
0.516903
0.50781
0.497726
0.487027
0.476008
0.464886
0.453817
0.44291
0.432243
0.421872
0.411825
0.402075
0.392589
0.383597
0.375716
0.579459
0.566386
0.559703
0.553885
0.546369
0.537177
0.526708
0.515379
0.503555
0.491517
0.47947
0.467557
0.455876
0.444497
0.433465
0.422804
0.412491
0.402498
0.392991
0.384439
0.602342
0.588542
0.580769
0.573632
0.564763
0.554294
0.542657
0.530273
0.517497
0.504597
0.491767
0.47914
0.466805
0.454823
0.443233
0.432054
0.421267
0.410847
0.400903
0.391779
0.620873
0.606481
0.597818
0.589607
0.579637
0.568132
0.555549
0.54231
0.528762
0.515165
0.5017
0.488494
0.47563
0.463161
0.45112
0.439521
0.428353
0.417587
0.407287
0.397699
0.634902
0.62006
0.610719
0.601691
0.590887
0.578595
0.565296
0.551409
0.537277
0.523151
0.509206
0.495562
0.482297
0.469459
0.457076
0.445161
0.433704
0.422677
0.412108
0.402166
0.644316
0.629172
0.619373
0.609796
0.598431
0.585611
0.57183
0.557508
0.542984
0.528503
0.514236
0.500299
0.486764
0.473679
0.461067
0.44894
0.437289
0.426087
0.415336
0.405156
0.64904
0.633743
0.623715
0.613861
0.602214
0.589129
0.575107
0.560567
0.545845
0.531186
0.516758
0.502673
0.489004
0.475794
0.463067
0.450834
0.439086
0.427796
0.416954
0.406654
0.649036
0.63374
0.623712
0.613858
0.602211
0.589126
0.575103
0.560564
0.545842
0.531183
0.516755
0.50267
0.489001
0.475791
0.463065
0.450831
0.439083
0.427794
0.416951
0.406652
0.644304
0.62916
0.619362
0.609785
0.59842
0.585601
0.57182
0.557499
0.542975
0.528494
0.514227
0.50029
0.486756
0.47367
0.461059
0.448932
0.437281
0.426079
0.415329
0.405149
0.634882
0.620041
0.6107
0.601673
0.590869
0.578578
0.565279
0.551393
0.537261
0.523136
0.509192
0.495548
0.482283
0.469445
0.457063
0.445148
0.433691
0.422664
0.412095
0.402154
0.620845
0.606454
0.597791
0.589581
0.579613
0.568108
0.555526
0.542288
0.528741
0.515144
0.50168
0.488474
0.47561
0.463141
0.451101
0.439503
0.428334
0.417569
0.40727
0.397682
0.602306
0.588507
0.580734
0.573599
0.564731
0.554263
0.542628
0.530244
0.517469
0.50457
0.491741
0.479114
0.46678
0.454798
0.443209
0.43203
0.421244
0.410824
0.40088
0.391757
0.579414
0.566342
0.55966
0.553844
0.54633
0.53714
0.526672
0.515343
0.503521
0.491484
0.479438
0.467525
0.455845
0.444466
0.433435
0.422775
0.412463
0.40247
0.392963
0.384412
0.552354
0.540136
0.534731
0.530463
0.524542
0.516858
0.507767
0.497685
0.486987
0.475969
0.464848
0.45378
0.442874
0.432207
0.421837
0.41179
0.402041
0.392556
0.383564
0.375684
0.521345
0.510099
0.506139
0.503628
0.499522
0.493559
0.486043
0.477386
0.467975
0.458123
0.448062
0.437961
0.427942
0.418093
0.40848
0.39914
0.390039
0.381138
0.372733
0.365619
0.486639
0.47647
0.474105
0.47354
0.471451
0.467404
0.461645
0.454579
0.446607
0.438058
0.429182
0.420163
0.411136
0.402202
0.393439
0.38489
0.37652
0.368278
0.360528
0.354265
0.448519
0.439522
0.438878
0.440422
0.440529
0.438576
0.434739
0.429416
0.423019
0.415898
0.408319
0.400487
0.392549
0.384619
0.376791
0.369115
0.361552
0.354041
0.347009
0.341676
0.407299
0.399555
0.400735
0.404523
0.40698
0.407274
0.405505
0.402058
0.397359
0.391776
0.385597
0.379043
0.37228
0.365435
0.358617
0.351888
0.345205
0.338491
0.332234
0.327904
0.363319
0.356896
0.359976
0.366114
0.371046
0.373716
0.374139
0.372683
0.369786
0.365835
0.361142
0.355946
0.35043
0.344739
0.338996
0.333279
0.327541
0.321686
0.316257
0.312997
0.316948
0.311898
0.316927
0.325488
0.332989
0.338137
0.340852
0.34148
0.340469
0.338228
0.335089
0.331314
0.327104
0.322621
0.318005
0.313352
0.308616
0.303676
0.29912
0.296992
0.268575
0.264937
0.271935
0.282956
0.293087
0.300787
0.305868
0.308649
0.309588
0.309113
0.307579
0.305268
0.302403
0.299163
0.295709
0.292156
0.288463
0.284483
0.280839
0.279906
0.218613
0.216409
0.225366
0.238849
0.251639
0.261932
0.269425
0.274405
0.277333
0.278658
0.278757
0.277934
0.276431
0.274448
0.272166
0.269726
0.267096
0.264101
0.261393
0.261717
0.167492
0.166731
0.177607
0.193517
0.208955
0.221851
0.231774
0.238972
0.243907
0.247043
0.24878
0.249442
0.249291
0.248548
0.247415
0.246061
0.244468
0.242441
0.240665
0.242318
0.115655
0.116332
0.129056
0.147323
0.165363
0.180838
0.193181
0.20259
0.209523
0.214459
0.217814
0.219934
0.221097
0.221545
0.221505
0.221173
0.220545
0.219399
0.21848
0.221519
0.0635599
0.0656539
0.0801284
0.100642
0.121203
0.139202
0.153925
0.165514
0.174417
0.181119
0.186053
0.18958
0.191992
0.193542
0.194477
0.195017
0.195146
0.194572
0.194197
0.198724
0.0116673
0.0151458
0.0312452
0.0538625
0.0768261
0.0972624
0.114301
0.128016
0.138837
0.147254
0.153707
0.158567
0.162133
0.164658
0.166402
0.167625
0.168315
0.168006
0.167585
0.173215
-0.0395589
-0.0347412
-0.0171671
0.00737664
0.0325921
0.0553491
0.0746132
0.0903832
0.103061
0.113134
0.121049
0.127183
0.131835
0.135246
0.13766
0.139351
0.140293
0.139512
0.136746
0.140231
-0.0896582
-0.0835584
-0.064682
-0.0384199
-0.0111356
0.0137982
0.0351775
0.0529147
0.0673772
0.0790426
0.0883571
0.095692
0.101333
0.105484
0.108303
0.109938
0.110292
0.108522
0.10393
0.0992966
-0.138189
-0.130872
-0.110882
-0.0831365
-0.0539957
-0.0270544
-0.00368969
0.0159158
0.0320879
0.0452912
0.0559706
0.0644992
0.0711654
0.0761737
0.0796707
0.0817863
0.082547
0.0815994
0.0784848
0.0742141
-0.18472
-0.176259
-0.155362
-0.126392
-0.0956341
-0.0668793
-0.0416772
-0.0203125
-0.00250677
0.0121909
0.0242291
0.0339939
0.0417962
0.0478746
0.0524127
0.0555719
0.0574922
0.0582137
0.0576323
0.0554768
-0.228848
-0.219325
-0.197736
-0.167821
-0.135712
-0.105362
-0.0784907
-0.0554909
-0.036138
-0.019998
-0.00661864
0.00440118
0.0133959
0.0206363
0.0263401
0.03069
0.0338663
0.036083
0.0374637
0.0373636
-0.270203
-0.259705
-0.237645
-0.207082
-0.173912
-0.142211
-0.113861
-0.089371
-0.0685778
-0.051071
-0.0363998
-0.0241524
-0.013978
-0.00558393
0.00126997
0.00678248
0.0111503
0.0146424
0.0174462
0.0188351
-0.308456
-0.297074
-0.274767
-0.243864
-0.209943
-0.177159
-0.147547
-0.121735
-0.0996313
-0.0808585
-0.0649733
-0.0515597
-0.0402559
-0.0307559
-0.0228046
-0.0161911
-0.0107064
-0.00606484
-0.00210123
0.000334257
-0.343325
-0.331154
-0.308819
-0.277889
-0.243545
-0.20997
-0.179335
-0.152392
-0.129131
-0.109215
-0.0922175
-0.0777232
-0.0653658
-0.0548313
-0.0458569
-0.0382251
-0.0317206
-0.0260478
-0.0210628
-0.0177475
-0.374584
-0.361718
-0.339565
-0.30892
-0.274491
-0.240436
-0.20904
-0.181181
-0.156935
-0.13602
-0.118032
-0.102564
-0.0892506
-0.0777752
-0.0678716
-0.0593207
-0.0519061
-0.0453263
-0.039434
-0.0352842
-0.402063
-0.388597
-0.36682
-0.336761
-0.302592
-0.268382
-0.236507
-0.207963
-0.182927
-0.161175
-0.142335
-0.126019
-0.111864
-0.0995573
-0.0888315
-0.0794679
-0.0712535
-0.0638866
-0.0572054
-0.052276
-0.425656
-0.411684
-0.390456
-0.361267
-0.327698
-0.293667
-0.261609
-0.232631
-0.207012
-0.1846
-0.165064
-0.148036
-0.133167
-0.120147
-0.108714
-0.0986482
-0.0897436
-0.0817044
-0.0743532
-0.0687314
-0.445319
-0.430936
-0.410404
-0.382341
-0.349699
-0.316183
-0.284247
-0.255098
-0.229119
-0.206236
-0.186168
-0.168576
-0.153126
-0.139519
-0.127495
-0.116841
-0.107356
-0.0987546
-0.0908456
-0.0846266
-0.461077
-0.446373
-0.426656
-0.399942
-0.368531
-0.335859
-0.304353
-0.275304
-0.249197
-0.22604
-0.205612
-0.187608
-0.171717
-0.15765
-0.145156
-0.134027
-0.124069
-0.11501
-0.106647
-0.0999188
-0.473015
-0.458082
-0.439268
-0.414082
-0.384175
-0.352659
-0.321888
-0.293213
-0.267214
-0.243988
-0.223377
-0.205118
-0.188924
-0.174527
-0.161683
-0.15019
-0.139864
-0.130447
-0.121725
-0.114569
-0.481284
-0.466213
-0.448357
-0.424831
-0.396659
-0.366584
-0.336843
-0.308813
-0.283161
-0.260072
-0.239456
-0.221098
-0.204744
-0.190144
-0.177067
-0.16532
-0.154727
-0.145048
-0.136058
-0.128552
-0.486088
-0.470971
-0.4541
-0.432315
-0.406058
-0.377676
-0.349238
-0.322116
-0.297046
-0.274299
-0.253857
-0.235558
-0.219183
-0.204505
-0.191312
-0.179416
-0.168655
-0.158805
-0.149635
-0.141858
-0.487686
-0.472616
-0.456729
-0.436713
-0.412497
-0.386014
-0.359123
-0.333156
-0.308898
-0.286695
-0.266603
-0.248517
-0.232258
-0.217626
-0.204427
-0.192487
-0.181653
-0.171719
-0.162455
-0.154485
-0.486376
-0.47145
-0.456523
-0.438255
-0.416145
-0.391714
-0.36658
-0.341992
-0.31876
-0.297297
-0.277727
-0.260005
-0.243995
-0.22953
-0.216434
-0.20455
-0.193734
-0.183802
-0.174525
-0.166441
-0.482493
-0.467808
-0.453803
-0.437217
-0.417217
-0.394934
-0.371718
-0.348705
-0.326698
-0.306158
-0.287276
-0.270063
-0.254432
-0.240248
-0.227362
-0.215628
-0.20492
-0.195071
-0.185859
-0.177739
-0.476395
-0.46205
-0.448918
-0.433912
-0.415967
-0.395865
-0.374679
-0.353398
-0.33279
-0.313344
-0.295305
-0.278742
-0.263614
-0.249822
-0.237244
-0.225755
-0.215239
-0.20555
-0.196479
-0.188398
-0.46845
-0.454545
-0.442234
-0.428679
-0.412685
-0.394735
-0.375632
-0.356197
-0.337132
-0.318931
-0.30188
-0.286098
-0.27159
-0.258297
-0.246124
-0.234967
-0.224724
-0.215271
-0.206412
-0.198445
-0.459031
-0.445662
-0.434121
-0.421874
-0.407684
-0.391799
-0.374775
-0.35725
-0.339835
-0.323007
-0.307073
-0.292193
-0.278418
-0.265723
-0.254047
-0.243305
-0.233414
-0.224269
-0.21569
-0.20791
-0.448502
-0.435758
-0.424946
-0.413857
-0.401296
-0.38734
-0.37233
-0.356726
-0.341028
-0.32567
-0.310962
-0.297095
-0.284153
-0.272153
-0.261059
-0.250813
-0.241348
-0.232579
-0.224347
-0.216823
-0.437204
-0.425169
-0.415052
-0.40498
-0.393856
-0.381654
-0.368542
-0.354816
-0.340854
-0.327028
-0.313632
-0.30087
-0.288857
-0.277637
-0.267208
-0.257533
-0.248565
-0.240238
-0.232416
-0.225218
-0.425454
-0.4142
-0.404754
-0.39557
-0.385692
-0.375044
-0.36367
-0.351727
-0.339473
-0.327201
-0.315174
-0.303592
-0.292586
-0.282227
-0.272538
-0.263506
-0.255102
-0.247281
-0.239927
-0.233121
-0.413534
-0.403118
-0.394328
-0.385925
-0.377112
-0.367807
-0.357982
-0.347682
-0.337059
-0.326323
-0.315687
-0.305334
-0.2954
-0.28597
-0.277089
-0.268767
-0.260992
-0.253735
-0.246907
-0.240554
-0.40169
-0.392152
-0.384011
-0.376301
-0.368392
-0.360227
-0.351743
-0.342913
-0.333802
-0.324538
-0.315278
-0.306175
-0.297355
-0.28891
-0.280898
-0.273346
-0.266258
-0.259624
-0.253374
-0.24753
-0.390124
-0.381488
-0.373993
-0.36691
-0.359769
-0.352557
-0.345206
-0.337654
-0.329899
-0.322003
-0.314066
-0.3062
-0.298511
-0.291088
-0.283993
-0.277264
-0.270919
-0.26496
-0.259338
-0.254054
-0.378999
-0.371271
-0.364419
-0.357917
-0.351437
-0.345015
-0.338604
-0.33213
-0.325555
-0.318889
-0.312181
-0.305503
-0.298934
-0.292547
-0.286402
-0.280539
-0.274985
-0.26975
-0.264803
-0.260122
-0.368441
-0.361608
-0.355394
-0.349439
-0.34354
-0.337776
-0.332134
-0.326548
-0.320968
-0.315371
-0.309768
-0.304193
-0.298698
-0.293334
-0.28815
-0.283184
-0.278461
-0.273996
-0.269769
-0.265725
-0.358537
-0.35257
-0.346984
-0.341554
-0.336178
-0.330972
-0.325956
-0.321089
-0.316323
-0.311623
-0.306975
-0.302389
-0.297888
-0.293503
-0.289269
-0.285211
-0.281349
-0.277696
-0.274236
-0.270864
-0.349341
-0.344199
-0.339225
-0.334303
-0.329409
-0.324688
-0.32019
-0.315899
-0.311784
-0.307811
-0.30396
-0.300222
-0.296605
-0.293124
-0.289797
-0.286639
-0.283657
-0.280852
-0.278213
-0.275555
-0.340883
-0.336511
-0.332126
-0.327695
-0.323257
-0.31897
-0.31491
-0.311085
-0.307484
-0.304084
-0.300869
-0.297828
-0.294961
-0.292278
-0.289786
-0.287492
-0.285391
-0.28347
-0.281718
-0.279849
-0.333166
-0.329501
-0.325676
-0.321721
-0.317717
-0.313833
-0.310155
-0.306716
-0.303521
-0.300564
-0.297837
-0.295339
-0.293076
-0.291058
-0.289298
-0.287803
-0.286565
-0.285558
-0.284773
-0.283828
-0.326173
-0.323147
-0.319848
-0.31635
-0.312766
-0.309261
-0.305932
-0.302824
-0.299957
-0.297339
-0.294976
-0.292879
-0.291066
-0.289565
-0.288403
-0.287606
-0.28718
-0.287104
-0.287375
-0.287582
-0.319872
-0.317416
-0.314604
-0.311543
-0.308362
-0.305222
-0.30222
-0.29941
-0.296819
-0.294467
-0.292368
-0.290548
-0.289041
-0.287896
-0.287173
-0.286932
-0.287222
-0.288058
-0.289462
-0.291171
-0.31422
-0.312264
-0.309899
-0.30725
-0.304456
-0.301669
-0.298982
-0.296449
-0.294104
-0.291968
-0.290063
-0.288421
-0.287091
-0.286144
-0.285676
-0.285802
-0.286642
-0.288296
-0.290852
-0.294492
-0.309161
-0.307641
-0.305681
-0.303417
-0.300993
-0.298545
-0.296163
-0.293899
-0.291782
-0.289835
-0.288078
-0.286543
-0.285285
-0.284389
-0.28398
-0.284232
-0.285363
-0.287612
-0.291225
-0.297279
-0.304638
-0.303494
-0.301898
-0.29999
-0.297913
-0.295791
-0.293704
-0.291699
-0.289803
-0.288032
-0.2864
-0.28493
-0.283669
-0.282698
-0.282154
-0.28225
-0.283297
-0.2857
-0.290028
-0.298754
-0.300589
-0.299768
-0.298495
-0.296912
-0.295158
-0.293342
-0.291537
-0.289783
-0.288103
-0.286503
-0.284988
-0.283566
-0.282261
-0.281131
-0.280288
-0.27994
-0.280435
-0.282298
-0.286664
-0.298106
-0.296954
-0.29641
-0.295423
-0.294133
-0.292673
-0.29114
-0.289598
-0.288083
-0.286609
-0.285177
-0.283778
-0.282402
-0.281043
-0.279713
-0.27846
-0.277407
-0.276798
-0.277031
-0.279589
-0.291345
-0.293678
-0.293373
-0.292636
-0.291605
-0.290409
-0.289133
-0.287831
-0.286535
-0.285254
-0.283981
-0.282698
-0.281375
-0.279973
-0.278443
-0.27672
-0.27472
-0.272307
-0.269005
-0.263578
-0.257105
-0.290714
-0.290615
-0.290094
-0.289291
-0.288328
-0.287278
-0.28619
-0.285089
-0.283983
-0.28286
-0.281697
-0.280454
-0.279079
-0.277502
-0.275627
-0.273335
-0.27048
-0.266695
-0.261132
-0.255333
-0.288021
-0.288099
-0.287765
-0.287159
-0.286398
-0.285545
-0.284643
-0.283714
-0.282762
-0.281776
-0.280731
-0.27959
-0.278303
-0.276809
-0.275029
-0.272886
-0.270305
-0.267073
-0.262763
-0.259063
-0.285567
-0.285797
-0.285625
-0.285188
-0.2846
-0.283917
-0.283175
-0.282393
-0.281575
-0.28071
-0.279776
-0.27874
-0.277562
-0.276192
-0.274575
-0.272667
-0.270431
-0.267724
-0.264343
-0.261954
-0.283325
-0.283687
-0.283652
-0.28336
-0.282922
-0.282384
-0.28178
-0.281126
-0.280425
-0.279668
-0.278837
-0.277906
-0.276844
-0.275615
-0.274185
-0.272536
-0.270663
-0.268476
-0.265903
-0.264412
-0.281278
-0.281752
-0.281834
-0.281667
-0.281356
-0.280945
-0.28046
-0.279918
-0.279323
-0.278667
-0.277937
-0.277113
-0.276175
-0.275099
-0.273871
-0.272493
-0.27098
-0.269283
-0.267394
-0.266533
-0.279409
-0.279978
-0.280161
-0.280099
-0.2799
-0.279599
-0.279221
-0.278782
-0.278285
-0.277728
-0.277099
-0.276387
-0.27558
-0.274665
-0.273642
-0.272525
-0.271342
-0.270066
-0.268712
-0.268274
-0.277705
-0.278355
-0.278623
-0.278653
-0.278551
-0.278348
-0.278068
-0.277724
-0.277323
-0.276863
-0.276338
-0.275743
-0.275071
-0.27432
-0.273496
-0.272621
-0.271726
-0.270794
-0.269838
-0.269677
-0.276157
-0.276875
-0.277215
-0.277325
-0.277309
-0.277194
-0.277003
-0.27675
-0.276442
-0.276078
-0.275659
-0.275181
-0.274645
-0.274052
-0.273414
-0.272754
-0.272103
-0.271444
-0.270781
-0.2708
-0.274754
-0.275529
-0.275932
-0.276112
-0.276172
-0.276137
-0.276029
-0.275861
-0.275641
-0.275373
-0.275057
-0.274694
-0.274286
-0.273841
-0.27337
-0.272896
-0.272446
-0.272
-0.271552
-0.27169
-0.273488
-0.274313
-0.27477
-0.27501
-0.275138
-0.275175
-0.275143
-0.275054
-0.274918
-0.27474
-0.274521
-0.274266
-0.273978
-0.273666
-0.27334
-0.273022
-0.272733
-0.272452
-0.272163
-0.272384
-0.272355
-0.273222
-0.273725
-0.274019
-0.274205
-0.274307