1.275 	2.15223e-18 	-2.76991e-20 	-0.148778 	0.00444076 	-2.74074e-22
1.825 	2.15223e-18 	-1.39322e-20 	-0.31775 	0.00436579 	3.91003e-21
2.375 	2.15223e-18 	-2.66896e-23 	-0.448412 	0.00585386 	-2.03458e-21
