/*--------------------------------*- C++ -*----------------------------------*\
  =========                 |
  \\      /  F ield         | OpenFOAM: The Open Source CFD Toolbox
   \\    /   O peration     | Website:  https://openfoam.org
    \\  /    A nd           | Version:  6.0
     \\/     M anipulation  |
\*---------------------------------------------------------------------------*/
FoamFile
{
    version     2.0;
    format      ascii;
    class       surfaceScalarField;
    location    "93";
    object      phi;
}
// * * * * * * * * * * * * * * * * * * * * * * * * * * * * * * * * * * * * * //

dimensions      [0 3 -1 0 0 0 0];

internalField   nonuniform List<scalar> 
7840
(
3.67735e-05
-0.000319511
0.000127001
-0.000960737
0.00024993
-0.00157219
0.000384651
-0.00211063
0.000513783
-0.00254663
0.000626027
-0.00287158
0.000716374
-0.00309425
0.000784669
-0.00323322
0.000833662
-0.00330975
0.000867307
-0.0033433
0.000889593
-0.00334935
0.000903927
-0.00333915
0.000912927
-0.00332022
0.000918462
-0.00329731
0.000921797
-0.00327325
0.000923764
-0.00324971
0.000924907
-0.0032276
0.000925577
-0.00320744
0.00092599
-0.00318948
-0.00317391
0.000926262
3.76861e-05
-0.000357197
0.000127495
-0.00105055
0.000246312
-0.00169101
0.000372388
-0.0022367
0.00048905
-0.00266329
0.000586605
-0.00296913
0.000661758
-0.00316941
0.000715676
-0.00328714
0.000751867
-0.00334595
0.000774531
-0.00336596
0.000787554
-0.00336238
0.000794055
-0.00334565
0.000796311
-0.00332248
0.000795874
-0.00329687
0.000793758
-0.00327114
0.00079061
-0.00324656
0.000786848
-0.00322384
0.000782739
-0.00320333
0.000778446
-0.00318519
-0.00316951
0.000774051
3.81697e-05
-0.000395366
0.000126435
-0.00113881
0.000239688
-0.00180426
0.000355838
-0.00235285
0.000459309
-0.00276676
0.000542131
-0.00305195
0.000602622
-0.0032299
0.00064305
-0.00332757
0.000667453
-0.00337035
0.000680102
-0.00337861
0.000684672
-0.00336695
0.000683956
-0.00334494
0.000679898
-0.00331842
0.000673766
-0.00329074
0.000666357
-0.00326373
0.000658171
-0.00323838
0.000649528
-0.0032152
0.000640635
-0.00319444
0.000631616
-0.00317617
-0.00316043
0.000622532
3.82028e-05
-0.000433569
0.000123831
-0.00122444
0.00023022
-0.00191065
0.000335431
-0.00245806
0.000425279
-0.00285661
0.000493558
-0.00312023
0.00054004
-0.00327638
0.000567875
-0.0033554
0.000581424
-0.0033839
0.000584888
-0.00338207
0.000581667
-0.00336373
0.000574214
-0.00333749
0.00056416
-0.00330837
0.000552523
-0.0032791
0.000539924
-0.00325113
0.000526742
-0.00322519
0.000513224
-0.00320168
0.00049953
-0.00318075
0.00048576
-0.0031624
-0.00314663
0.00047196
3.77747e-05
-0.000471344
0.000119727
-0.00130639
0.000218124
-0.00200905
0.000311628
-0.00255157
0.000387666
-0.00293265
0.000441753
-0.00317432
0.000474936
-0.00330956
0.00049103
-0.0033715
0.000494546
-0.00338741
0.000489515
-0.00337704
0.000479021
-0.00335323
0.000465186
-0.00332365
0.000449356
-0.00329254
0.000432339
-0.00326208
0.000414607
-0.0032334
0.000396445
-0.00320703
0.000378044
-0.00318328
0.00035953
-0.00316223
0.000340986
-0.00314385
-0.0031281
0.000322451
3.68851e-05
-0.000508229
0.000114199
-0.0013837
0.000203654
-0.00209851
0.000284915
-0.00263283
0.000347152
-0.00299488
0.000387514
-0.00321468
0.000408124
-0.00333017
0.000413266
-0.00337664
0.000407464
-0.00338161
0.000394504
-0.00336408
0.000377141
-0.00333587
0.000357186
-0.0033037
0.000335735
-0.00327109
0.000313418
-0.00323977
0.000290586
-0.00321057
0.000267451
-0.0031839
0.000244156
-0.00315998
0.000220805
-0.00313888
0.00019747
-0.00312052
-0.00310482
0.000174188
3.55431e-05
-0.000543772
0.000107348
-0.00145551
0.00018709
-0.00217825
0.000255771
-0.00270151
0.000304372
-0.00304349
0.000331543
-0.00324185
0.000340289
-0.00333892
0.000335192
-0.00337154
0.000320678
-0.0033671
0.000300245
-0.00334365
0.000276321
-0.00331194
0.000250433
-0.00327781
0.000223465
-0.00324412
0.000195897
-0.0032122
0.000167983
-0.00318265
0.000139872
-0.00315579
0.000111673
-0.00313178
8.34704e-05
-0.00311068
5.5333e-05
-0.00309238
-0.00307678
2.72996e-05
3.37666e-05
-0.000577539
9.92942e-05
-0.00152104
0.000168722
-0.00224768
0.000224662
-0.00275745
0.000259906
-0.00307873
0.000274456
-0.0032564
0.000272014
-0.00333648
0.00025731
-0.00335684
0.000234591
-0.00334438
0.000207046
-0.0033161
0.000176792
-0.00328169
0.000145105
-0.00324612
0.000112686
-0.0032117
7.9896e-05
-0.00317941
4.69081e-05
-0.00314966
1.38199e-05
-0.0031227
-1.92927e-05
-0.00309867
-5.2356e-05
-0.00307762
-8.53019e-05
-0.00305944
-0.003044
-0.000118085
3.15809e-05
-0.00060912
9.01703e-05
-0.00157963
0.000148842
-0.00230635
0.000192023
-0.00280063
0.000214275
-0.00310098
0.000216786
-0.00325891
0.000203781
-0.00332347
0.000180023
-0.00333308
0.000149522
-0.00331388
0.00011515
-0.00328173
7.8735e-05
-0.00324528
4.13354e-05
-0.00320872
3.50607e-06
-0.00317387
-3.44927e-05
-0.00314141
-7.25522e-05
-0.0031116
-0.000110621
-0.00308463
-0.000148652
-0.00306064
-0.000186581
-0.00303969
-0.000224336
-0.00302168
-0.00300648
-0.000261859
2.90175e-05
-0.000638137
8.0117e-05
-0.00163073
0.000127737
-0.00235397
0.000158261
-0.00283115
0.000167942
-0.00311066
0.000158988
-0.00324996
0.000135998
-0.00330048
0.000103666
-0.00330075
6.57297e-05
-0.00327594
2.47496e-05
-0.00324075
-1.77058e-05
-0.00320282
-6.07637e-05
-0.00316566
-0.000103988
-0.00313065
-0.000147195
-0.0030982
-0.000190329
-0.00306847
-0.000233382
-0.00304158
-0.000276335
-0.00301768
-0.000319133
-0.00299689
-0.000361694
-0.00297912
-0.00296423
-0.000403942
2.61125e-05
-0.00066425
6.92788e-05
-0.00167389
0.00010568
-0.00239037
0.000123746
-0.00284922
0.000121315
-0.00310823
0.000101456
-0.0032301
6.90046e-05
-0.00326803
2.85144e-05
-0.00326026
-1.65714e-05
-0.00323086
-6.39905e-05
-0.00319333
-0.000112406
-0.00315441
-0.000161098
-0.00311697
-0.000209722
-0.00308202
-0.000258151
-0.00304977
-0.000306374
-0.00302025
-0.00035442
-0.00299353
-0.000402302
-0.0029698
-0.000449978
-0.00294921
-0.000497347
-0.00293175
-0.00291726
-0.000544311
2.29061e-05
-0.000687156
5.78008e-05
-0.00170879
8.29324e-05
-0.0024155
8.88154e-05
-0.0028551
7.47551e-05
-0.00309417
4.45267e-05
-0.00319987
3.09128e-06
-0.0032266
-4.51956e-05
-0.00321197
-9.71946e-05
-0.00317886
-0.000150923
-0.0031396
-0.000205249
-0.00310008
-0.000259576
-0.00306264
-0.000313627
-0.00302797
-0.000367312
-0.00299609
-0.000420653
-0.00296691
-0.000473715
-0.00294047
-0.000526548
-0.00291697
-0.000579127
-0.00289663
-0.000631335
-0.00287954
-0.00286557
-0.000683033
1.94411e-05
-0.000706597
4.58257e-05
-0.00173517
5.97365e-05
-0.00242941
5.37738e-05
-0.00284914
2.85791e-05
-0.00306898
-1.15052e-05
-0.00315979
-6.14887e-05
-0.00317661
-0.000117254
-0.0031562
-0.000175966
-0.00312014
-0.000235904
-0.00307967
-0.000296113
-0.00303987
-0.000356097
-0.00300266
-0.000415626
-0.00296844
-0.000474628
-0.00293709
-0.00053314
-0.0029084
-0.000591263
-0.00288235
-0.000649091
-0.00285914
-0.00070663
-0.00283909
-0.000763747
-0.00282243
-0.00280907
-0.000820244
1.57622e-05
-0.000722359
3.34923e-05
-0.0017529
3.63195e-05
-0.00243224
1.88969e-05
-0.00283171
-1.69303e-05
-0.00303315
-6.63795e-05
-0.00311034
-0.000124508
-0.00311848
-0.000187465
-0.00309325
-0.000252715
-0.0030549
-0.000318777
-0.0030136
-0.000384856
-0.00297379
-0.000450539
-0.00293698
-0.000515622
-0.00290336
-0.000580033
-0.00287268
-0.000643805
-0.00284462
-0.000707063
-0.00281909
-0.000769953
-0.00279625
-0.000832531
-0.00277652
-0.00089466
-0.0027603
-0.00274769
-0.00095604
1.19151e-05
-0.000734274
2.09341e-05
-0.00176192
1.28911e-05
-0.0024242
-1.55667e-05
-0.00280326
-6.15213e-05
-0.0029872
-0.000119862
-0.003052
-0.000185756
-0.00305259
-0.000255636
-0.00302337
-0.000327256
-0.00298328
-0.00039936
-0.0029415
-0.000471299
-0.00290185
-0.000542732
-0.00286554
-0.000613472
-0.00283262
-0.000683426
-0.00280272
-0.000752602
-0.00277545
-0.000821118
-0.00275057
-0.000889167
-0.0027282
-0.000956878
-0.00270881
-0.00102412
-0.00269306
-0.00268136
-0.00109045
7.94558e-06
-0.00074222
8.27809e-06
-0.00176225
-1.03558e-05
-0.00240556
-4.93924e-05
-0.00276422
-0.000104967
-0.00293162
-0.000171739
-0.00298522
-0.000245032
-0.0029793
-0.00032157
-0.00294683
-0.000399386
-0.00290546
-0.000477437
-0.00286345
-0.000555208
-0.00282408
-0.000632435
-0.00278832
-0.00070895
-0.0027561
-0.000784633
-0.00272704
-0.000859435
-0.00270065
-0.000933429
-0.00267658
-0.00100683
-0.00265481
-0.00107984
-0.0026358
-0.00115236
-0.00262053
-0.00260988
-0.00122384
3.89913e-06
-0.000746119
-4.35648e-06
-0.001754
-3.32455e-05
-0.00237667
-8.23794e-05
-0.00271509
-0.000147066
-0.00286693
-0.000221814
-0.00291048
-0.000302143
-0.00289897
-0.000385065
-0.00286391
-0.000468883
-0.00282164
-0.000552749
-0.00277958
-0.000636286
-0.00274055
-0.000719315
-0.00270529
-0.000801709
-0.00267371
-0.000883335
-0.00264541
-0.000964078
-0.0026199
-0.00104393
-0.00259673
-0.00112308
-0.00257566
-0.00120184
-0.00255704
-0.00128019
-0.00254218
-0.00253229
-0.00135778
-1.8036e-07
-0.000745938
-1.68593e-05
-0.00173732
-5.56198e-05
-0.00233791
-0.000114349
-0.00265636
-0.000187636
-0.00279365
-0.000269909
-0.0028282
-0.000356901
-0.00281198
-0.000445914
-0.00277489
-0.000535498
-0.00273206
-0.000624995
-0.00269008
-0.000714167
-0.00265138
-0.00080294
-0.00261651
-0.000891265
-0.00258538
-0.000979045
-0.00255763
-0.00106613
-0.00253281
-0.00115243
-0.00251043
-0.00123807
-0.00249002
-0.00132349
-0.00247162
-0.00140891
-0.00245676
-0.00244618
-0.00149501
-4.25146e-06
-0.000741687
-2.91308e-05
-0.00171244
-7.73404e-05
-0.0022897
-0.000145149
-0.00258855
-0.000226523
-0.00271227
-0.000315864
-0.00273886
-0.000409132
-0.00271871
-0.000503905
-0.00268012
-0.000598962
-0.002637
-0.000693823
-0.00259522
-0.000788388
-0.00255681
-0.00088272
-0.00252218
-0.00097691
-0.0024912
-0.00107099
-0.00246355
-0.00116491
-0.0024389
-0.00125854
-0.0024168
-0.00135191
-0.00239665
-0.00144543
-0.0023781
-0.00153971
-0.00236248
-0.00234836
-0.00163753
-8.27618e-06
-0.000733411
-4.10835e-05
-0.00167963
-9.82903e-05
-0.0022325
-0.000174653
-0.00251219
-0.000263601
-0.00262333
-0.00035955
-0.00264291
-0.000458689
-0.00261957
-0.000558846
-0.00257996
-0.000659007
-0.00253684
-0.000758836
-0.00249539
-0.000858357
-0.00245729
-0.000957771
-0.00242277
-0.00105736
-0.00239161
-0.00115743
-0.00236348
-0.00125826
-0.00233807
-0.00136002
-0.00231503
-0.00146284
-0.00229383
-0.0015673
-0.00227364
-0.00167581
-0.00225396
-0.00224669
-0.00177748
-1.22085e-05
-0.000721202
-5.2624e-05
-0.00163922
-0.000118352
-0.00216677
-0.000202741
-0.0024278
-0.000298759
-0.00252731
-0.000400861
-0.00254081
-0.000505458
-0.00251497
-0.000610603
-0.00247482
-0.00071544
-0.002432
-0.000819736
-0.0023911
-0.00092357
-0.00235345
-0.00102719
-0.00231915
-0.00113095
-0.00228784
-0.00123535
-0.00225908
-0.00134104
-0.00223239
-0.00144885
-0.00220722
-0.00155963
-0.00218305
-0.00167373
-0.00215954
-0.00179211
-0.00213558
-0.00210397
-0.00193483
-1.60416e-05
-0.000705161
-6.37301e-05
-0.00159153
-0.0001375
-0.002093
-0.000229397
-0.0023359
-0.000331992
-0.00242471
-0.000439805
-0.002433
-0.000549456
-0.00240532
-0.000659198
-0.00236508
-0.000768306
-0.00232289
-0.000876602
-0.0022828
-0.000984161
-0.0022459
-0.00109116
-0.00221215
-0.0011978
-0.0021812
-0.00130434
-0.00215254
-0.00141104
-0.00212569
-0.00151812
-0.00210015
-0.00162563
-0.00207553
-0.00173382
-0.00205135
-0.00184334
-0.00202606
-0.00199608
-0.00195123
-1.97397e-05
-0.000685421
-7.43366e-05
-0.00153693
-0.000155662
-0.00201167
-0.000254557
-0.00223701
-0.000363258
-0.00231601
-0.00047636
-0.0023199
-0.000590687
-0.00229099
-0.000704668
-0.0022511
-0.000817692
-0.00220987
-0.000929634
-0.00217086
-0.00104058
-0.00213495
-0.00115069
-0.00210205
-0.00126012
-0.00207176
-0.00136902
-0.00204364
-0.00147749
-0.00201722
-0.00158555
-0.00199209
-0.0016932
-0.00196789
-0.00180038
-0.00194417
-0.00190638
-0.00192007
-0.00189477
-0.0020077
-2.32841e-05
-0.000662137
-8.44099e-05
-0.00147581
-0.000172806
-0.00192328
-0.000278208
-0.0021316
-0.000392564
-0.00220166
-0.000510562
-0.0022019
-0.000629211
-0.00217234
-0.000747098
-0.00213321
-0.000863706
-0.00209326
-0.000978946
-0.00205562
-0.0010929
-0.002021
-0.00120569
-0.00198926
-0.00131742
-0.00196003
-0.00142819
-0.00193288
-0.00153798
-0.00190742
-0.00164675
-0.00188332
-0.00175434
-0.00186029
-0.0018605
-0.00183801
-0.00196454
-0.00181602
-0.00179393
-0.00206538
-2.66599e-05
-0.000635477
-9.39267e-05
-0.00140854
-0.000188917
-0.00182829
-0.000300353
-0.00202017
-0.000419941
-0.00208207
-0.000542467
-0.00207937
-0.000665118
-0.00204969
-0.000786626
-0.0020117
-0.000906557
-0.00197333
-0.00102486
-0.00193732
-0.00114161
-0.00190425
-0.00125692
-0.00187395
-0.00137088
-0.00184607
-0.00148352
-0.00182023
-0.00159484
-0.0017961
-0.00170477
-0.00177339
-0.00181318
-0.00175189
-0.00191981
-0.00173138
-0.00202427
-0.00171157
-0.00169223
-0.00212596
-2.98557e-05
-0.000605621
-0.000102872
-0.00133552
-0.00020399
-0.00172717
-0.000321007
-0.00190315
-0.000445428
-0.00195765
-0.000572139
-0.00195266
-0.000698499
-0.00192333
-0.000823369
-0.00188683
-0.000946393
-0.00185031
-0.00106755
-0.00181616
-0.00118694
-0.00178486
-0.00130466
-0.00175623
-0.00142079
-0.00172994
-0.00153537
-0.00170565
-0.0016484
-0.00168307
-0.00175983
-0.00166197
-0.00186955
-0.00164216
-0.00197743
-0.0016235
-0.00208327
-0.00160573
-0.00158872
-0.00218678
-3.2863e-05
-0.000572758
-0.000111236
-0.00125715
-0.000218027
-0.00162038
-0.000340193
-0.00178098
-0.000469068
-0.00182877
-0.000599646
-0.00182208
-0.000729444
-0.00179354
-0.000857444
-0.00175883
-0.000983361
-0.00172439
-0.00110721
-0.00169231
-0.0012291
-0.00166297
-0.00134915
-0.00163618
-0.00146743
-0.00161165
-0.00158402
-0.00158906
-0.00169892
-0.00156817
-0.00181212
-0.00154877
-0.00192358
-0.0015307
-0.00203323
-0.00151384
-0.00214101
-0.00149796
-0.00148298
-0.00224674
-3.56755e-05
-0.000537083
-0.000119015
-0.00117381
-0.000231035
-0.00150836
-0.000357934
-0.00165408
-0.000490905
-0.0016958
-0.00062505
-0.00168794
-0.000758032
-0.00166055
-0.000888947
-0.00162792
-0.00101758
-0.00159576
-0.00114397
-0.00156592
-0.00126825
-0.00153869
-0.00139055
-0.00151388
-0.00151098
-0.00149122
-0.00162961
-0.00147044
-0.00174648
-0.0014513
-0.00186161
-0.00143363
-0.00197502
-0.0014173
-0.0020867
-0.00140216
-0.00219665
-0.00138801
-0.00137484
-0.00230479
-3.82881e-05
-0.000498795
-0.000126205
-0.00108589
-0.000243024
-0.00139154
-0.000374255
-0.00152285
-0.000510979
-0.00155908
-0.000648403
-0.00155051
-0.000784328
-0.00152463
-0.000917952
-0.00149429
-0.00104912
-0.0014646
-0.00117791
-0.00143713
-0.00130447
-0.00141212
-0.00142895
-0.0013894
-0.00155148
-0.0013687
-0.00167214
-0.00134977
-0.00179102
-0.00133243
-0.00190816
-0.00131649
-0.00202362
-0.00130184
-0.00213743
-0.00128835
-0.00224962
-0.00127582
-0.00126427
-0.00236019
-4.06969e-05
-0.000458098
-0.000132806
-0.000993783
-0.000254
-0.00127035
-0.000389177
-0.00138768
-0.000529323
-0.00141893
-0.000669749
-0.00141009
-0.000808382
-0.00138599
-0.000944514
-0.00135816
-0.00107804
-0.00133107
-0.00120908
-0.00130609
-0.0013378
-0.0012834
-0.00146436
-0.00126283
-0.00158892
-0.00124414
-0.00171158
-0.00122712
-0.00183244
-0.00121156
-0.00195158
-0.00119734
-0.00206909
-0.00118434
-0.00218502
-0.00117241
-0.00229943
-0.00116141
-0.00115135
-0.00241236
-4.28986e-05
-0.000415199
-0.000138816
-0.000897865
-0.000263972
-0.00114519
-0.000402718
-0.00124893
-0.000545966
-0.00127568
-0.000689122
-0.00126693
-0.000830231
-0.00124489
-0.000968666
-0.00121972
-0.00110438
-0.00119536
-0.00123751
-0.00117296
-0.00136825
-0.00115266
-0.00149678
-0.0011343
-0.00162326
-0.00111766
-0.00174783
-0.00110254
-0.00187061
-0.00108879
-0.00199169
-0.00107626
-0.00211118
-0.00106485
-0.00222916
-0.00105444
-0.0023457
-0.00104486
-0.00103619
-0.00246085
-4.489e-05
-0.000370309
-0.000144235
-0.00079852
-0.000272946
-0.00101648
-0.000414892
-0.00110699
-0.000560926
-0.00112965
-0.000706545
-0.00112131
-0.000849897
-0.00110153
-0.000990431
-0.00107919
-0.00112814
-0.00105766
-0.00126319
-0.00103791
-0.0013958
-0.00102005
-0.00152617
-0.00100394
-0.00165445
-0.000989369
-0.00178082
-0.000976175
-0.0019054
-0.000964207
-0.00202832
-0.000953346
-0.00214967
-0.000943496
-0.00226957
-0.00093454
-0.00238809
-0.000926339
-0.000918973
-0.00250532
-4.66684e-05
-0.000323641
-0.00014906
-0.000696129
-0.000280925
-0.000884614
-0.000425709
-0.000962201
-0.000574218
-0.000981139
-0.000722033
-0.000973499
-0.000867394
-0.000956173
-0.00100982
-0.000936769
-0.00114933
-0.000918143
-0.00128613
-0.000901109
-0.00142044
-0.00088574
-0.00155248
-0.000871901
-0.00168243
-0.000859423
-0.00181045
-0.000848153
-0.00193669
-0.000837962
-0.00206129
-0.000828748
-0.00218436
-0.000820422
-0.00230602
-0.00081288
-0.00242636
-0.000806001
-0.000799871
-0.00254546
-4.82309e-05
-0.00027541
-0.00015329
-0.000591069
-0.000287911
-0.000749993
-0.000435176
-0.000814937
-0.000585853
-0.000830462
-0.000735597
-0.000823755
-0.00088273
-0.00080904
-0.00102682
-0.000792675
-0.00116794
-0.000777027
-0.0013063
-0.000762753
-0.00144213
-0.000749905
-0.00157567
-0.000738365
-0.0017071
-0.000727987
-0.00183661
-0.000718642
-0.00196436
-0.00071022
-0.00209047
-0.000702632
-0.00221509
-0.000695803
-0.00233833
-0.00068964
-0.00246029
-0.000684042
-0.000679096
-0.00258107
-4.9575e-05
-0.000225835
-0.000156923
-0.000483721
-0.000293905
-0.000613011
-0.000443296
-0.000665546
-0.000595835
-0.000677923
-0.000747241
-0.000672349
-0.000895906
-0.000660376
-0.00104145
-0.000647134
-0.00118396
-0.000634516
-0.00132367
-0.00062304
-0.00146084
-0.00061274
-0.00159569
-0.000603515
-0.00172843
-0.000595246
-0.00185924
-0.000587826
-0.0019883
-0.000581163
-0.00211575
-0.000575186
-0.00224172
-0.00056983
-0.00236634
-0.000565019
-0.00248971
-0.000560671
-0.000556867
-0.00261194
-5.06982e-05
-0.000175137
-0.000159955
-0.000374464
-0.000298907
-0.00047406
-0.000450072
-0.000514381
-0.000604167
-0.000523828
-0.000756966
-0.00051955
-0.000906918
-0.000510424
-0.00105368
-0.000500371
-0.00119737
-0.000490827
-0.00133823
-0.00048218
-0.00147652
-0.000474448
-0.00161248
-0.000467552
-0.00174633
-0.000461397
-0.00187826
-0.0004559
-0.00200843
-0.00045099
-0.00213701
-0.00044661
-0.00226413
-0.000442711
-0.00238992
-0.000439231
-0.00251448
-0.000436108
-0.000433413
-0.00263793
-5.15984e-05
-0.000123538
-0.000162385
-0.000263678
-0.000302914
-0.00033353
-0.000455503
-0.000361792
-0.00061085
-0.000368482
-0.000764772
-0.000365628
-0.000915764
-0.000359432
-0.00106351
-0.00035262
-0.00120816
-0.000346185
-0.00134995
-0.000340389
-0.00148916
-0.000335241
-0.00162602
-0.000330683
-0.00176078
-0.000326646
-0.0018936
-0.000323072
-0.00202468
-0.000319909
-0.00215418
-0.000317118
-0.00228222
-0.000314662
-0.00240896
-0.000312498
-0.00253449
-0.000310581
-0.00030897
-0.00265893
-5.22737e-05
-7.12648e-05
-0.000164209
-0.000151742
-0.000305927
-0.000191812
-0.00045959
-0.000208129
-0.000615883
-0.000212188
-0.000770656
-0.000210854
-0.000922438
-0.00020765
-0.00107094
-0.000204118
-0.00121631
-0.000200816
-0.00135881
-0.000197888
-0.00149872
-0.000195336
-0.00163627
-0.000193123
-0.00177171
-0.000191209
-0.00190523
-0.000189558
-0.002037
-0.000188139
-0.00216719
-0.000186929
-0.00229594
-0.000185908
-0.00242339
-0.000185048
-0.00254965
-0.000184325
-0.000183778
-0.00267484
-5.27227e-05
-1.85421e-05
-0.000165427
-3.90375e-05
-0.000307943
-4.92962e-05
-0.000462331
-5.37412e-05
-0.000619266
-5.52534e-05
-0.000774618
-5.55023e-05
-0.000926937
-5.53306e-05
-0.00107595
-5.51039e-05
-0.00122182
-5.49518e-05
-0.0013648
-5.49042e-05
-0.00150518
-5.49564e-05
-0.00164321
-5.50947e-05
-0.00177911
-5.53056e-05
-0.00191309
-5.55775e-05
-0.00204533
-5.59012e-05
-0.00217599
-5.627e-05
-0.00230522
-5.66773e-05
-0.00243315
-5.71153e-05
-0.0025599
-5.75778e-05
-5.80854e-05
-0.00268559
-5.29442e-05
3.44021e-05
-0.000166036
7.40545e-05
-0.000308962
9.36293e-05
-0.000463727
0.000101024
-0.000620998
0.000102018
-0.000776655
0.000100155
-0.000929259
9.7273e-05
-0.00107854
9.41807e-05
-0.00122467
9.11732e-05
-0.00136791
8.83337e-05
-0.00150853
8.56723e-05
-0.00164681
8.31791e-05
-0.00178295
8.08405e-05
-0.00191718
7.86437e-05
-0.00204965
7.65771e-05
-0.00218055
7.46307e-05
-0.00231003
7.27955e-05
-0.0024382
7.10613e-05
-0.0025652
6.94158e-05
6.78592e-05
-0.00269114
-5.29385e-05
8.73406e-05
-0.000166037
0.000187153
-0.000308984
0.000236576
-0.000463777
0.000255817
-0.00062108
0.000259321
-0.000776769
0.000255843
-0.000929402
0.000249906
-0.00107871
0.000243493
-0.00122487
0.000237324
-0.00136813
0.000231595
-0.00150878
0.000226323
-0.00164707
0.000221472
-0.00178323
0.000217004
-0.00191747
0.00021288
-0.00204996
0.000209068
-0.00218087
0.000205541
-0.00231035
0.000202275
-0.00243853
0.000199242
-0.00256553
0.00019641
0.000193801
-0.00269147
-5.27047e-05
0.000140045
-0.000165429
0.000299878
-0.000308007
0.000379154
-0.000462482
0.000410292
-0.000619512
0.000416351
-0.000774958
0.00041129
-0.000927367
0.000402316
-0.00107647
0.000392592
-0.00122241
0.000383266
-0.00136546
0.000374651
-0.00150591
0.000366768
-0.001644
0.00035956
-0.00177995
0.00035296
-0.00191398
0.000346905
-0.00204625
0.000341343
-0.00217694
0.00033623
-0.00230619
0.000331527
-0.00243414
0.000327187
-0.00256089
0.000323161
0.000319487
-0.00268658
-5.22436e-05
0.000192289
-0.000164213
0.000411847
-0.000306034
0.000520975
-0.000459841
0.000564099
-0.000616293
0.000572803
-0.000771225
0.000566221
-0.000923157
0.000554248
-0.0010718
0.000541235
-0.0012173
0.000528766
-0.00135992
0.000517273
-0.00149994
0.000506783
-0.0016376
0.000497219
-0.00177312
0.000488485
-0.00190671
0.000480496
-0.00203855
0.000473177
-0.00216879
0.00046647
-0.00229758
0.000460319
-0.00242505
0.00045466
-0.00255131
0.000449425
0.000444669
-0.0026765
-5.15559e-05
0.000243845
-0.000162389
0.00052268
-0.000303064
0.00066165
-0.000455856
0.000716892
-0.000611427
0.000728374
-0.000765572
0.000720366
-0.000916776
0.000705452
-0.00106473
0.000689185
-0.00120955
0.000673594
-0.00135152
0.000659235
-0.00149088
0.000646147
-0.00162789
0.000634229
-0.00176277
0.000623361
-0.0018957
0.000613432
-0.00202687
0.000604349
-0.00215644
0.000596035
-0.00228454
0.000588422
-0.00241131
0.000581428
-0.00253685
0.000574966
0.000569102
-0.00266129
-5.06432e-05
0.000294488
-0.00015996
0.000631997
-0.0002991
0.000800789
-0.000450528
0.00086832
-0.000604914
0.000882759
-0.000758001
0.000873453
-0.000908229
0.000855679
-0.00105525
0.000836206
-0.00119918
0.000817523
-0.00134026
0.000800317
-0.00147876
0.000784642
-0.00161491
0.000770377
-0.00174892
0.000757375
-0.00188099
0.000745502
-0.00201128
0.000734644
-0.00213996
0.000724709
-0.00226715
0.000715616
-0.00239299
0.000707266
-0.00251757
0.000699551
0.000692548
-0.00264102
-4.9507e-05
0.000343995
-0.000156928
0.000739418
-0.000294142
0.000938003
-0.000443858
0.00101804
-0.000596755
0.00103566
-0.000748517
0.00102522
-0.000897522
0.00100468
-0.00104338
0.000982067
-0.00118619
0.000960332
-0.00132618
0.000940307
-0.0014636
0.000922062
-0.00159868
0.000905458
-0.00173163
0.000890323
-0.00186263
0.0008765
-0.00199184
0.000863856
-0.00211941
0.000852283
-0.00224548
0.000841686
-0.00237017
0.000831953
-0.00249358
0.000822958
0.000814776
-0.0026158
-4.81494e-05
0.000392144
-0.000153295
0.000844564
-0.000288191
0.0010729
-0.000435844
0.00116569
-0.000586949
0.00118676
-0.000737119
0.00117539
-0.000884659
0.00115222
-0.00102914
0.00112654
-0.00117061
0.00110181
-0.0013093
0.001079
-0.00144544
0.0010582
-0.00157926
0.00103927
-0.00171095
0.00102201
-0.00184068
0.00100623
-0.00196861
0.00099179
-0.00209489
0.000978557
-0.00221963
0.00096643
-0.00234296
0.000955283
-0.00246497
0.000944968
0.00093556
-0.00258576
-4.65724e-05
0.000438717
-0.000149063
0.000947054
-0.000281248
0.00120508
-0.000426484
0.00131093
-0.000575493
0.00133577
-0.000723806
0.0013237
-0.000869644
0.00129806
-0.00101252
0.00126941
-0.00115245
0.00124174
-0.00128964
0.00121619
-0.00142432
0.00119288
-0.00155669
0.00117164
-0.00168693
0.00115226
-0.00181522
0.00113452
-0.0019417
0.00111827
-0.00206649
0.00110335
-0.00218972
0.00108966
-0.0023115
0.00107706
-0.00243191
0.00106538
0.00105469
-0.00255104
-4.47784e-05
0.000483495
-0.000144233
0.00104651
-0.00027331
0.00133416
-0.000415774
0.00145339
-0.000562383
0.00148238
-0.000708575
0.00146989
-0.000852476
0.00144196
-0.000993528
0.00141047
-0.00113172
0.00137994
-0.00126723
0.0013517
-0.00140027
0.00132591
-0.00153102
0.00130239
-0.00165966
0.0012809
-0.00178635
0.00126121
-0.0019112
0.00124312
-0.00203435
0.0012265
-0.0021559
0.00121121
-0.00227594
0.0011971
-0.00239457
0.001184
0.00117195
-0.00251183
-4.27695e-05
0.000526265
-0.000138807
0.00114255
-0.000264374
0.00145973
-0.000403706
0.00159272
-0.000547606
0.00162628
-0.000691413
0.0016137
-0.000833147
0.0015837
-0.000972173
0.00154949
-0.00110844
0.0015162
-0.00124209
0.00148535
-0.00137332
0.00145714
-0.0015023
0.00143138
-0.0016292
0.0014078
-0.00175414
0.00138615
-0.00187724
0.00136623
-0.00199861
0.00134786
-0.00211833
0.00133092
-0.00223649
0.00131526
-0.00235316
0.00130068
0.00128718
-0.00246838
-4.05481e-05
0.000566813
-0.000132785
0.00123478
-0.000254435
0.00158138
-0.000390268
0.00172856
-0.000531146
0.00176716
-0.000672305
0.00175486
-0.000811641
0.00172303
-0.000948439
0.00168629
-0.0010826
0.00165036
-0.00121423
0.00161698
-0.0013435
0.00158642
-0.00147058
0.00155846
-0.00159561
0.00153283
-0.0017187
0.00150924
-0.00183995
0.00148747
-0.00195943
0.00146734
-0.00207721
0.00144871
-0.00219337
0.00143142
-0.00230795
0.00141526
0.0014002
-0.00242097
-3.81165e-05
0.000604929
-0.000126166
0.00132283
-0.000243484
0.0016987
-0.000375444
0.00186052
-0.000512982
0.00190469
-0.000651224
0.0018931
-0.000787935
0.00185974
-0.000922305
0.00182066
-0.00105418
0.00178223
-0.00118363
0.00174644
-0.00131083
0.00171361
-0.0014359
0.00168353
-0.00155897
0.0016559
-0.00168013
0.0016304
-0.00179946
0.0016068
-0.00191699
0.00158488
-0.00203278
0.0015645
-0.00214686
0.0015455
-0.00225926
0.00152766
0.0015109
-0.00236996
-3.54774e-05
0.000640407
-0.000118949
0.0014063
-0.000231513
0.00181126
-0.000359212
0.00198821
-0.000493083
0.00203857
-0.000628133
0.00202815
-0.000761987
0.0019936
-0.000893733
0.00195241
-0.00102315
0.00191165
-0.00115029
0.00187358
-0.00127528
0.0018386
-0.00139826
0.0018065
-0.0015193
0.00177695
-0.0016385
0.0017496
-0.00175589
0.00172418
-0.00187148
0.00170047
-0.00198529
0.0016783
-0.00209729
0.00165751
-0.00220749
0.00163785
0.00161921
-0.0023158
-3.26339e-05
0.000673041
-0.000111134
0.0014848
-0.000218508
0.00191863
-0.000341548
0.00211125
-0.000471411
0.00216843
-0.000602987
0.00215972
-0.000733746
0.00212436
-0.000862664
0.00208133
-0.000989456
0.00203844
-0.00111414
0.00199826
-0.00123683
0.00196129
-0.00135762
0.0019273
-0.00147662
0.00189594
-0.00159386
0.00186684
-0.00170936
0.00183968
-0.00182309
0.00181421
-0.00193502
0.00179022
-0.00204506
0.00176755
-0.00215313
0.00174592
0.00172515
-0.00225907
-2.95899e-05
0.000702631
-0.00010272
0.00155794
-0.000204458
0.00202037
-0.000322422
0.00222922
-0.000447922
0.00229393
-0.000575725
0.00228753
-0.00070314
0.00225177
-0.000829019
0.0022072
-0.000953008
0.00216243
-0.00107509
0.00212035
-0.00119536
0.00208156
-0.00131393
0.00204587
-0.00143086
0.00201287
-0.00154619
0.00198218
-0.00165992
0.0019534
-0.00177196
0.00192625
-0.00188223
0.00190049
-0.00199057
0.00187589
-0.00209677
0.00185212
0.00182891
-0.00220052
-2.63507e-05
0.000728981
-9.371e-05
0.00162529
-0.000189351
0.00211601
-0.000301806
0.00234167
-0.000422567
0.00241469
-0.000546282
0.00241124
-0.000670086
0.00237558
-0.000792698
0.00232982
-0.000913689
0.00228342
-0.00103301
0.00223967
-0.00115075
0.0021993
-0.00126701
0.00216213
-0.00138187
0.00212774
-0.00149537
0.00209568
-0.00160749
0.00206552
-0.00171815
0.00203692
-0.00182721
0.00200955
-0.0019344
0.00198308
-0.00203929
0.00195701
0.00193087
-0.00214125
-2.29237e-05
0.000751905
-8.41093e-05
0.00168648
-0.00017318
0.00220508
-0.000279671
0.00244817
-0.000395294
0.00253031
-0.000514583
0.00253053
-0.000634484
0.00249548
-0.000753573
0.00244891
-0.000871337
0.00240118
-0.000987695
0.00235603
-0.00110273
0.00231433
-0.00121657
0.00227596
-0.00132931
0.00224048
-0.00144104
0.0022074
-0.00155174
0.00217623
-0.00166135
0.00214652
-0.00176971
0.0021179
-0.00187653
0.0020899
-0.00198109
0.00206157
0.00203204
-0.00208226
-1.93192e-05
0.000771224
-7.39299e-05
0.00174109
-0.000155944
0.00228709
-0.000255996
0.00254822
-0.000366058
0.00264037
-0.000480555
0.00264503
-0.000596238
0.00261116
-0.00071152
0.00256419
-0.000825801
0.00251546
-0.000938966
0.00246919
-0.00105111
0.00242648
-0.00116239
0.00238724
-0.00127297
0.00235106
-0.001383
0.00231743
-0.00149255
0.00228579
-0.00160165
0.00225562
-0.00171027
0.00222652
-0.00181836
0.00219799
-0.00192515
0.00216836
0.00213372
-0.00202683
-1.5551e-05
0.000786775
-6.31913e-05
0.00178873
-0.000137653
0.00236156
-0.000230768
0.00264133
-0.00033482
0.00274443
-0.000444133
0.00275434
-0.000555245
0.00272227
-0.00066639
0.00267533
-0.000776856
0.00262593
-0.000886477
0.00257881
-0.000995335
0.00253533
-0.00110361
0.00249551
-0.00121149
0.00245895
-0.00131923
0.00242516
-0.00142706
0.00239362
-0.00153519
0.00236374
-0.00164364
0.00233498
-0.0017527
0.00230704
-0.00186317
0.00227883
0.00224238
-0.00197183
-1.16366e-05
0.000798412
-5.19235e-05
0.00182902
-0.000118332
0.00242796
-0.000203995
0.002727
-0.000301563
0.00284199
-0.000405273
0.00285805
-0.000511436
0.00282844
-0.000618085
0.00278198
-0.000724378
0.00273222
-0.000830095
0.00268453
-0.000935328
0.00264057
-0.00104033
0.00260051
-0.00114545
0.00256408
-0.00125121
0.00253092
-0.00135828
0.00250069
-0.00146755
0.00247301
-0.00157993
0.00244736
-0.00169576
0.00242287
-0.00181601
0.00239908
0.00238916
-0.00196279
-7.61168e-06
0.000806023
-4.01893e-05
0.0018616
-9.80473e-05
0.00248582
-0.00017573
0.00280468
-0.00026632
0.00293259
-0.000363984
0.00295572
-0.000464796
0.00292925
-0.00056656
0.00288375
-0.000668273
0.00283393
-0.000769623
0.00278588
-0.000870651
0.0027416
-0.000971574
0.00270143
-0.00107269
0.0026652
-0.00117435
0.00263258
-0.00127686
0.0026032
-0.00138046
0.00257662
-0.00148531