/*--------------------------------*- C++ -*----------------------------------*\
  =========                 |
  \\      /  F ield         | OpenFOAM: The Open Source CFD Toolbox
   \\    /   O peration     | Website:  https://openfoam.org
    \\  /    A nd           | Version:  6.0
     \\/     M anipulation  |
\*---------------------------------------------------------------------------*/
FoamFile
{
    version     2.0;
    format      ascii;
    class       surfaceScalarField;
    location    "56";
    object      phi;
}
// * * * * * * * * * * * * * * * * * * * * * * * * * * * * * * * * * * * * * //

dimensions      [0 3 -1 0 0 0 0];

internalField   nonuniform List<scalar> 
7840
(
3.47227e-05
-0.000249435
0.000123307
-0.000784416
0.000248948
-0.00132256
0.00039309
-0.00182154
0.000538459
-0.00224824
0.000672056
-0.00258602
0.000786374
-0.00283437
0.000878894
-0.00300391
0.000950648
-0.00311052
0.00100464
-0.00317075
0.00104458
-0.00319911
0.00107401
-0.00320701
0.00109591
-0.00320268
0.00111257
-0.00319167
0.00112564
-0.00317756
0.00113626
-0.00316255
0.00114522
-0.00314797
0.00115301
-0.00313463
0.00115999
-0.00312307
-0.00311377
0.00116632
3.61493e-05
-0.000285584
0.000125771
-0.000874037
0.000249346
-0.00144613
0.000386807
-0.001959
0.000520922
-0.00238236
0.000639936
-0.00270504
0.000738076
-0.00293251
0.00081442
-0.00308026
0.000871134
-0.00316724
0.00091182
-0.00321143
0.000940317
-0.00322761
0.000960024
-0.00322672
0.000973626
-0.00321628
0.000983077
-0.00320112
0.000989726
-0.00318421
0.000994473
-0.0031673
0.000997917
-0.00315141
0.00100045
-0.00313717
0.00100233
-0.00312494
-0.0031151
0.00100366
3.71752e-05
-0.00032276
0.000126672
-0.000963534
0.000246511
-0.00156597
0.000375597
-0.00208809
0.000497233
-0.00250399
0.000601186
-0.00280899
0.000683423
-0.00301475
0.000744446
-0.00314128
0.000787298
-0.00321009
0.000815933
-0.00324007
0.000834162
-0.00324584
0.000845134
-0.00323769
0.000851203
-0.00322235
0.000854001
-0.00320392
0.000854611
-0.00318482
0.000853734
-0.00316642
0.000851829
-0.00314951
0.000849197
-0.00313454
0.000846025
-0.00312177
-0.00311147
0.000842397
3.77628e-05
-0.000360522
0.000125966
-0.00105174
0.000240517
-0.00168052
0.000359812
-0.00220738
0.000468112
-0.00261229
0.000556872
-0.00289775
0.000623725
-0.0030816
0.000670375
-0.00318793
0.000700498
-0.00324021
0.000718202
-0.00325777
0.000727138
-0.00325477
0.000730152
-0.00324071
0.000729262
-0.00322146
0.000725809
-0.00320047
0.000720644
-0.00317966
0.000714308
-0.00316008
0.000707152
-0.00314235
0.000699407
-0.00312679
0.000691218
-0.00311358
-0.0031029
0.000682645
3.78867e-05
-0.000398409
0.00012365
-0.0011375
0.000231521
-0.00178839
0.000339892
-0.00231575
0.000434326
-0.00270673
0.000508033
-0.00297146
0.000560169
-0.00313374
0.000593413
-0.00322117
0.000611851
-0.00325865
0.000619584
-0.0032655
0.000620021
-0.00325521
0.000615677
-0.00323636
0.000608253
-0.00321403
0.00059883
-0.00319104
0.000588069
-0.0031689
0.000576381
-0.0031484
0.000564032
-0.00313
0.000551206
-0.00311397
0.000538017
-0.00310039
-0.00308939
0.000524511
3.75331e-05
-0.000435942
0.000119766
-0.00121973
0.000219742
-0.00188837
0.000316332
-0.00241234
0.000396646
-0.00278704
0.000455637
-0.00303045
0.000493805
-0.00317191
0.000514577
-0.00324195
0.000522261
-0.00326633
0.000520831
-0.00326407
0.0005134
-0.00324778
0.000502153
-0.00322512
0.000488503
-0.00320038
0.000473307
-0.00317585
0.00045707
-0.00315266
0.000440098
-0.00313142
0.000422595
-0.0031125
0.000404706
-0.00309608
0.000386527
-0.00308221
-0.00307097
0.000368098
3.67001e-05
-0.000472642
0.00011439
-0.00129742
0.000205449
-0.00197943
0.00028965
-0.00249654
0.000355818
-0.00285321
0.000400566
-0.0030752
0.000425543
-0.00319688
0.000434714
-0.00325112
0.000432455
-0.00326407
0.000422524
-0.00325414
0.000407718
-0.00323297
0.000389909
-0.00320731
0.000370253
-0.00318073
0.000349419
-0.00315501
0.000327784
-0.00313102
0.000305573
-0.00310921
0.000282939
-0.00308986
0.00026
-0.00307314
0.00023684
-0.00305905
-0.00304763
0.0002135
3.53967e-05
-0.000508039
0.000107627
-0.00136965
0.000188938
-0.00206074
0.00026037
-0.00256797
0.000312539
-0.00290538
0.000343604
-0.00310626
0.000356155
-0.00320944
0.000354516
-0.00324948
0.000343004
-0.00325256
0.000325111
-0.00323625
0.00030331
-0.00321117
0.000279188
-0.00318318
0.000253678
-0.00315522
0.000227297
-0.00312863
0.000200319
-0.00310404
0.000172899
-0.00308179
0.000145151
-0.00306212
0.00011717
-0.00304516
8.90382e-05
-0.00303092
-0.00301939
6.0801e-05
3.36416e-05
-0.000541681
9.96046e-05
-0.00143562
0.000170523
-0.00213166
0.000228994
-0.00262644
0.000267447
-0.00294383
0.000285434
-0.00312425
0.000286294
-0.0032103
0.000274548
-0.00323773
0.000254365
-0.00323238
0.000228937
-0.00321082
0.00020043
-0.00318266
0.000170171
-0.00315292
0.000138913
-0.00312396
0.000107044
-0.00309676
7.47565e-05
-0.00307176
4.21493e-05
-0.00304919
9.29908e-06
-0.00302927
-2.37144e-05
-0.00301214
-5.68077e-05
-0.00299783
-0.00298627
-8.9924e-05
3.1462e-05
-0.000573143
9.04657e-05
-0.00149462
0.00015052
-0.00219171
0.000196002
-0.00267193
0.000221119
-0.00296895
0.000226648
-0.00312978
0.000216502
-0.00320015
0.000195268
-0.0032165
0.000166897
-0.00320401
0.000134273
-0.0031782
9.92716e-05
-0.00314766
6.29995e-05
-0.00311665
2.6057e-05
-0.00308702
-1.12646e-05
-0.00305944
-4.88417e-05
-0.00303418
-8.66229e-05
-0.0030114
-0.000124565
-0.00299132
-0.000162603
-0.00297411
-0.000200647
-0.00295978
-0.0029483
-0.000238621
2.88919e-05
-0.000602034
8.03624e-05
-0.00154609
0.00012924
-0.00224059
0.000161836
-0.00270452
0.000174063
-0.00298118
0.000167755
-0.00312347
0.000147234
-0.00317963
0.000117048
-0.00318631
8.08908e-05
-0.00316785
4.13364e-05
-0.00313864
-4.96343e-09
-0.00310632
-4.2213e-05
-0.00307444
-8.48075e-05
-0.00304442
-0.000127571
-0.00301668
-0.000170433
-0.00299132
-0.000213385
-0.00296845
-0.000256417
-0.00294829
-0.000299479
-0.00293104
-0.000342469
-0.00291679
-0.00290548
-0.000385287
2.59711e-05
-0.000628006
6.94516e-05
-0.00158957
0.000106981
-0.00227812
0.000126902
-0.00272444
0.00012673
-0.002981
0.000109189
-0.00310593
7.88709e-05
-0.00314931
4.02022e-05
-0.00314764
-3.41008e-06
-0.00312424
-4.96891e-05
-0.00309236
-9.72617e-05
-0.00305875
-0.000145364
-0.00302634
-0.000193608
-0.00299618
-0.000241828
-0.00296846
-0.000289991
-0.00294316
-0.000338126
-0.00292032
-0.000386261
-0.00290016
-0.000434367
-0.00288294
-0.000482326
-0.00286883
-0.00285781
-0.00053
2.27432e-05
-0.000650749
5.78907e-05
-0.00162472
8.40266e-05
-0.00230426
9.157e-05
-0.00273199
7.95169e-05
-0.00296895
5.13259e-05
-0.00307774
1.17371e-05
-0.00310972
-3.50051e-05
-0.0031009
-8.57932e-05
-0.00307345
-0.000138634
-0.00303952
-0.000192364
-0.00300502
-0.00024635
-0.00297236
-0.00030027
-0.00294226
-0.000353988
-0.00291474
-0.000407494
-0.00288965
-0.000460848
-0.00286696
-0.000514124
-0.00284688
-0.000567323
-0.00282974
-0.000620315
-0.00281584
-0.00280522
-0.000672905
1.92551e-05
-0.000670004
4.58345e-05
-0.0016513
6.06402e-05
-0.00231906
5.61707e-05
-0.00272752
3.27714e-05
-0.00294555
-5.51016e-06
-0.00303945
-5.3885e-05
-0.00306135
-0.000108336
-0.00304645
-0.00016606
-0.00301573
-0.000225328
-0.00298026
-0.000285165
-0.00294518
-0.000345046
-0.00291248
-0.000404695
-0.00288261
-0.000463988
-0.00285545
-0.000522914
-0.00283072
-0.000581557
-0.00280832
-0.000640036
-0.0027884
-0.000698401
-0.00277137
-0.000756522
-0.00275772
-0.00274763
-0.00081411
1.55555e-05
-0.000685559
3.3433e-05
-0.00166918
3.70669e-05
-0.0023227
2.10029e-05
-0.00271145
-1.31991e-05
-0.00291135
-6.10333e-05
-0.00299162
-0.000117743
-0.00300464
-0.00017957
-0.00298462
-0.00024401
-0.00295129
-0.000309584
-0.00291468
-0.000375488
-0.00287928
-0.00044129
-0.00284667
-0.000506748
-0.00281715
-0.000571732
-0.00279046
-0.000636209
-0.00276625
-0.000700256
-0.00274427
-0.000764033
-0.00272463
-0.000827655
-0.00270775
-0.000891005
-0.00269437
-0.00268498
-0.000953656
1.16936e-05
-0.000697253
2.08294e-05
-0.00167831
1.35315e-05
-0.0023154
-1.36664e-05
-0.00268425
-5.81234e-05
-0.00286689
-0.00011499
-0.00293475
-0.000179606
-0.00294002
-0.000248491
-0.00291574
-0.000319433
-0.00288035
-0.000391186
-0.00284293
-0.000463105
-0.00280736
-0.00053485
-0.00277493
-0.000606214
-0.00274579
-0.000677052
-0.00271963
-0.000747285
-0.00269601
-0.000816947
-0.00267461
-0.000886205
-0.00265537
-0.000955252
-0.00263871
-0.001024
-0.00262562
-0.00261706
-0.00109192
7.71856e-06
-0.000704971
8.15841e-06
-0.00167875
-9.7619e-06
-0.00229748
-4.76002e-05
-0.00264642
-0.000101762
-0.00281273
-0.000167153
-0.00286936
-0.000239259
-0.00286791
-0.000314886
-0.00284011
-0.000392102
-0.00280313
-0.000469882
-0.00276515
-0.000547732
-0.00272951
-0.000625412
-0.00269725
-0.000702765
-0.00266844
-0.000779645
-0.00264275
-0.000855922
-0.00261974
-0.000931556
-0.00259898
-0.00100669
-0.00258023
-0.0010816
-0.0025638
-0.00115628
-0.00255094
-0.00254297
-0.00123037
3.67824e-06
-0.00070865
-4.45544e-06
-0.00167062
-3.26307e-05
-0.0022693
-8.05904e-05
-0.00259846
-0.000143905
-0.00274942
-0.000217319
-0.00279595
-0.0002965
-0.00278873
-0.000378539
-0.00275807
-0.000461772
-0.0027199
-0.00054538
-0.00268154
-0.000629021
-0.00264587
-0.000712567
-0.0026137
-0.000795944
-0.00258506
-0.00087905
-0.00255964
-0.000961737
-0.00253705
-0.00104389
-0.00251683
-0.0011256
-0.00249852
-0.00120726
-0.00248214
-0.00128908
-0.00246912
-0.00246041
-0.00137164
-3.82035e-07
-0.000708268
-1.68993e-05
-0.0016541
-5.49149e-05
-0.00223129
-0.000112458
-0.00254091
-0.000184375
-0.0026775
-0.000265313
-0.00271501
-0.000351143
-0.0027029
-0.000439238
-0.00266998
-0.000528178
-0.00263096
-0.000617339
-0.00259238
-0.000706527
-0.00255668
-0.000795752
-0.00252448
-0.000885078
-0.00249573
-0.000974537
-0.00247018
-0.00106407
-0.00244751
-0.00115357
-0.00242733
-0.00124304
-0.00240906
-0.00133281
-0.00239237
-0.00142346
-0.00237847
-0.00236617
-0.0015177
-4.42042e-06
-0.000703847
-2.9074e-05
-0.00162945
-7.64786e-05
-0.00218388
-0.000143057
-0.00247433
-0.000223026
-0.00259753
-0.000310991
-0.00262705
-0.000403035
-0.00261086
-0.000496789
-0.00257622
-0.000591057
-0.00253669
-0.000685375
-0.00249806
-0.000779681
-0.00246237
-0.000874121
-0.00243004
-0.000968944
-0.00240091
-0.00106444
-0.00237469
-0.00116087
-0.00235108
-0.00125845
-0.00232975
-0.00135729
-0.00231022
-0.00145795
-0.00229171
-0.00156265
-0.00227377
-0.00226769
-0.00166113
-8.38753e-06
-0.00069546
-4.08754e-05
-0.00159696
-9.71892e-05
-0.00212757
-0.000172251
-0.00239927
-0.000259733
-0.00251005
-0.000354236
-0.00253254
-0.000452056
-0.00251304
-0.000551056
-0.00247722
-0.00065022
-0.00243752
-0.000749199
-0.00239908
-0.000847999
-0.00236357
-0.000946815
-0.00233122
-0.00104597
-0.00230176
-0.00114591
-0.00227475
-0.00124727
-0.00224972
-0.00135086
-0.00222615
-0.00145756
-0.00220352
-0.00156776
-0.00218151
-0.00168242
-0.00215911
-0.00212935
-0.00182076
-1.22722e-05
-0.000683187
-5.2271e-05
-0.00155696
-0.000117006
-0.00206283
-0.000200006
-0.00231627
-0.000294477
-0.00241558
-0.000395046
-0.00243197
-0.000498214
-0.00240987
-0.000602056
-0.00237338
-0.000705702
-0.00233388
-0.000808877
-0.00229591
-0.000911595
-0.00226085
-0.00101399
-0.00222883
-0.00111625
-0.0021995
-0.00121859
-0.0021724
-0.00132125
-0.00214706
-0.00142444
-0.00212297
-0.00152821
-0.00209975
-0.0016328
-0.00207692
-0.0017389
-0.00205301
-0.00202457
-0.00184367
-1.60359e-05
-0.000667152
-6.31871e-05
-0.00150981
-0.000135843
-0.00199018
-0.000226248
-0.00222587
-0.000327204
-0.00231462
-0.000433391
-0.00232579
-0.000541506
-0.00230176
-0.000649817
-0.00226507
-0.000757581
-0.00222611
-0.000864589
-0.0021889
-0.000970874
-0.00215457
-0.00107656
-0.00212314
-0.00118179
-0.00209426
-0.0012867
-0.0020675
-0.00139137
-0.00204239
-0.00149581
-0.00201853
-0.00160001
-0.00199555
-0.00170391
-0.00197302
-0.00180681
-0.00195011
-0.00192598
-0.0019054
-1.96564e-05
-0.000647495
-7.35826e-05
-0.00145588
-0.000153662
-0.0019101
-0.000250952
-0.00212858
-0.000357916
-0.00220766
-0.000469298
-0.0022144
-0.000581988
-0.00218907
-0.000694421
-0.00215264
-0.000805963
-0.00211457
-0.000916451
-0.00207841
-0.00102592
-0.0020451
-0.00113447
-0.00201459
-0.00124219
-0.00198654
-0.00134915
-0.00196054
-0.00145535
-0.00193619
-0.00156071
-0.00191316
-0.00166509
-0.00189117
-0.00176822
-0.00186989
-0.00186945
-0.00184888
-0.00182773
-0.0019677
-2.31162e-05
-0.000624379
-8.34272e-05
-0.00139557
-0.000170435
-0.00182309
-0.000274113
-0.0020249
-0.000386631
-0.00209514
-0.000502818
-0.00209822
-0.000619743
-0.00207214
-0.000735998
-0.00203638
-0.000851045
-0.00199952
-0.000964766
-0.00196469
-0.00107721
-0.00193266
-0.00118845
-0.00190335
-0.00129856
-0.00187643
-0.00140758
-0.00185152
-0.00151549
-0.00182829
-0.0016222
-0.00180645
-0.00172759
-0.00178578
-0.00183139
-0.00176608
-0.00193323
-0.00174705
-0.00172845
-0.00203251
-2.64011e-05
-0.000597978
-9.26998e-05
-0.00132927
-0.000186151
-0.00172964
-0.000295737
-0.00191531
-0.000413384
-0.00197749
-0.00053401
-0.00197759
-0.000654857
-0.00195129
-0.000774661
-0.00191658
-0.000892971
-0.00188121
-0.00100971
-0.00184795
-0.00112494
-0.00181743
-0.00123874
-0.00178955
-0.00135119
-0.00176398
-0.0014623
-0.0017404
-0.00157208
-0.00171852
-0.00168044
-0.00169808
-0.00178731
-0.00167892
-0.00189252
-0.00166087
-0.00199588
-0.00164369
-0.00162723
-0.00209711
-2.95003e-05
-0.000568478
-0.000101386
-0.00125739
-0.000200807
-0.00163022
-0.000315841
-0.00180028
-0.000438213
-0.00185512
-0.000562937
-0.00185287
-0.000687418
-0.00182681
-0.000810523
-0.00179347
-0.000931883
-0.00175985
-0.00105146
-0.00172837
-0.00116934
-0.00169955
-0.00128561
-0.00167327
-0.00140036
-0.00164924
-0.00151361
-0.00162715
-0.00162539
-0.00160674
-0.00173567
-0.0015878
-0.00184439
-0.00157019
-0.0019515
-0.00155376
-0.00205691
-0.00153828
-0.00152368
-0.00216046
-3.24053e-05
-0.000536072
-0.000109477
-0.00118032
-0.000214402
-0.00152529
-0.000334444
-0.00168024
-0.000461157
-0.00172841
-0.000589656
-0.00172437
-0.0007175
-0.00169897
-0.000843676
-0.0016673
-0.000967891
-0.00163564
-0.00109015
-0.00160611
-0.00121055
-0.00157915
-0.00132921
-0.00155461
-0.00144622
-0.00153223
-0.00156164
-0.00151173
-0.0016755
-0.00149287
-0.00178783
-0.00147548
-0.00189861
-0.00145941
-0.00200785
-0.00144452
-0.00211552
-0.00143061
-0.00141764
-0.00222156
-3.51092e-05
-0.000500963
-0.000116966
-0.00109846
-0.000226942
-0.00141532
-0.000351566
-0.00155561
-0.000482254
-0.00159772
-0.00061422
-0.0015924
-0.000745167
-0.00156802
-0.000874194
-0.00153827
-0.00100107
-0.00150876
-0.00112585
-0.00148134
-0.00124865
-0.00145635
-0.00136961
-0.00143366
-0.00148882
-0.00141302
-0.00160639
-0.00139416
-0.00172236
-0.0013769
-0.0018368
-0.00136104
-0.00194972
-0.00134648
-0.00206117
-0.00133307
-0.00217117
-0.00132062
-0.00130912
-0.0022797
-3.76066e-05
-0.000463356
-0.000123848
-0.00101222
-0.000238431
-0.00130073
-0.000367225
-0.00142682
-0.000501533
-0.00146341
-0.000636669
-0.00145727
-0.000770467
-0.00143423
-0.000902128
-0.00140661
-0.00103149
-0.0013794
-0.00115862
-0.0013542
-0.00128369
-0.00133129
-0.00140683
-0.00131052
-0.00152817
-0.00129167
-0.00164782
-0.00127451
-0.00176588
-0.00125884
-0.0018824
-0.00124452
-0.00199745
-0.00123142
-0.0021111
-0.00121942
-0.00222339
-0.00120832
-0.00119817
-0.00233434
-3.98928e-05
-0.000423464
-0.00013012
-0.000921991
-0.000248874
-0.00118198
-0.000381437
-0.00129426
-0.000519021
-0.00132583
-0.000657035
-0.00131925
-0.000793436
-0.00129783
-0.000927514
-0.00127253
-0.00105916
-0.00124775
-0.00118849
-0.00122487
-0.00131567
-0.00120411
-0.00144086
-0.00118533
-0.00156422
-0.00116831
-0.00168587
-0.00115286
-0.00180592
-0.0011388
-0.00192445
-0.00112599
-0.00204156
-0.00111432
-0.00215732
-0.00110366
-0.0022718
-0.00109385
-0.00108493
-0.00238503
-4.19634e-05
-0.0003815
-0.000135779
-0.000828175
-0.000258273
-0.00105949
-0.000394213
-0.00115832
-0.000534737
-0.0011853
-0.000675342
-0.00117865
-0.000814096
-0.00115907
-0.000950371
-0.00113626
-0.00108411
-0.00111402
-0.00121544
-0.00109353
-0.00134457
-0.00107498
-0.00147168
-0.00105822
-0.00159692
-0.00104307
-0.00172044
-0.00102934
-0.00184236
-0.00101688
-0.00196279
-0.00100556
-0.00208183
-0.000995277
-0.00219957
-0.000985916
-0.00231609
-0.000977328
-0.000969579
-0.00243144
-4.38147e-05
-0.000337686
-0.000140822
-0.000731168
-0.000266632
-0.000933677
-0.000405563
-0.00101939
-0.000548693
-0.00104217
-0.000691605
-0.00103573
-0.000832463
-0.00101821
-0.000970709
-0.00099801
-0.00110633
-0.0009784
-0.00123948
-0.000960377
-0.00137039
-0.000944077
-0.00149923
-0.000929378
-0.0016262
-0.000916108
-0.00175143
-0.000904106
-0.00187507
-0.000893235
-0.00199725
-0.000883386
-0.00211806
-0.000874463
-0.00223762
-0.00086636
-0.002356
-0.000858946
-0.000852296
-0.00247328
-4.54432e-05
-0.000292242
-0.000145244
-0.000631367
-0.00027395
-0.000804971
-0.000415491
-0.000877845
-0.000560899
-0.000896766
-0.000705832
-0.000890801
-0.000848541
-0.000875504
-0.000988529
-0.000858022
-0.00112582
-0.000841113
-0.00126059
-0.000825602
-0.00139307
-0.000811593
-0.00152348
-0.000798975
-0.00165198
-0.000787601
-0.00177876
-0.000777329
-0.00190395
-0.000768043
-0.00202769
-0.000759646
-0.0021501
-0.000752057
-0.00227128
-0.000745178
-0.00239133
-0.000738899
-0.000733298
-0.00251033
-4.68455e-05
-0.000245397
-0.000149043
-0.00052917
-0.000280227
-0.000673786
-0.000424
-0.000734073
-0.00057136
-0.000749406
-0.000718029
-0.000744131
-0.000862332
-0.000731201
-0.00100383
-0.000716529
-0.00114256
-0.000702381
-0.00127874
-0.000689422
-0.0014126
-0.000677731
-0.00154436
-0.000667214
-0.00167422
-0.000657743
-0.00180235
-0.000649203
-0.00192889
-0.000641493
-0.00205401
-0.000634534
-0.00217781
-0.000628256
-0.00230041
-0.000622576
-0.00242191
-0.000617402
-0.000612807
-0.0025424
-4.80187e-05
-0.000197378
-0.000152214
-0.000424975
-0.000285462
-0.000540538
-0.000431092
-0.000588442
-0.000580077
-0.000600421
-0.000728196
-0.000596012
-0.000873834
-0.000585563
-0.00101659
-0.000573773
-0.00115654
-0.000562431
-0.00129391
-0.000552057
-0.00142893
-0.000542707
-0.00156184
-0.000534302
-0.00169284
-0.000526742
-0.00182211
-0.000519933
-0.00194981
-0.000513794
-0.00207609
-0.00050826
-0.00220107
-0.000503276
-0.00232487
-0.000498773
-0.00244759
-0.000494679
-0.000491059
-0.00256934
-4.89603e-05
-0.000148418
-0.000154755
-0.00031918
-0.000289651
-0.000405641
-0.000436766
-0.000441328
-0.000587051
-0.000450136
-0.000736332
-0.000446731
-0.000883043
-0.000438853
-0.00102682
-0.000430001
-0.00116775
-0.000421501
-0.00130607
-0.000413735
-0.00144203
-0.000406741
-0.00157588
-0.00040046
-0.0017078
-0.000394816
-0.001838
-0.000389736
-0.00196663
-0.000385162
-0.00209385
-0.000381044
-0.00221978
-0.000377341
-0.00234456
-0.000373999
-0.00246827
-0.000370965
-0.000368293
-0.00259104
-4.9668e-05
-9.875e-05
-0.000156662
-0.000212186
-0.000292794
-0.000269509
-0.000441021
-0.000293101
-0.000592282
-0.000298876
-0.000742435
-0.000296578
-0.000889953
-0.000291335
-0.00103449
-0.000285462
-0.00117616
-0.00027983
-0.00131521
-0.00027469
-0.00145188
-0.000270064
-0.00158643
-0.000265914
-0.00171906
-0.000262187
-0.00184996
-0.000258837
-0.0019793
-0.000255824
-0.00210722
-0.000253115
-0.00223388
-0.000250681
-0.00235939
-0.000248488
-0.00248386
-0.000246501
-0.000244757
-0.00260739
-5.01401e-05
-4.86099e-05
-0.000157934
-0.000104392
-0.000294889
-0.000132554
-0.000443857
-0.000144133
-0.000595767
-0.000146966
-0.000746503
-0.000145841
-0.00089456
-0.000143279
-0.00103961
-0.00014041
-0.00118178
-0.000137664
-0.00132131
-0.00013516
-0.00145846
-0.000132911
-0.00159348
-0.000130895
-0.00172658
-0.000129089
-0.00185795
-0.000127467
-0.00198776
-0.000126012
-0.00211617
-0.000124706
-0.00224331
-0.000123536
-0.00236932
-0.000122484
-0.00249429
-0.000121534
-0.000120704
-0.00261834
-5.03754e-05
1.76547e-06
-0.000158568
3.79974e-06
-0.000295934
4.81219e-06
-0.000445271
5.20483e-06
-0.000597506
5.26964e-06
-0.000748534
5.18602e-06
-0.00089686
5.04805e-06
-0.00104217
4.8978e-06
-0.00118458
4.75104e-06
-0.00132436
4.61238e-06
-0.00146175
4.48249e-06
-0.00159701
4.36087e-06
-0.00173034
4.24681e-06
-0.00186195
4.13962e-06
-0.001992
4.0387e-06
-0.00212065
3.94353e-06
-0.00224804
3.85367e-06
-0.00237429
3.76858e-06
-0.00249951
3.68762e-06
3.61084e-06
-0.00262383
-5.03736e-05
5.21391e-05
-0.000158564
0.00011199
-0.000295928
0.000142176
-0.000445265
0.000154542
-0.000597499
0.000157504
-0.000748527
0.000156213
-0.000896853
0.000153375
-0.00104216
0.000150206
-0.00118458
0.000147166
-0.00132435
0.000144385
-0.00146174
0.000141876
-0.001597
0.000139617
-0.00173034
0.000137583
-0.00186194
0.000135747
-0.00199199
0.000134089
-0.00212064
0.000132593
-0.00224803
0.000131244
-0.00237429
0.000130022
-0.00249951
0.000128909
0.000127925
-0.00262382
-5.01346e-05
0.000102274
-0.000157921
0.000219776
-0.000294872
0.000279127
-0.000443837
0.000303507
-0.000595746
0.000309414
-0.000746482
0.000306949
-0.000894538
0.000301431
-0.00103959
0.000295258
-0.00118176
0.000289333
-0.00132129
0.000283916
-0.00145844
0.000279031
-0.00159346
0.000274637
-0.00172656
0.000270682
-0.00185793
0.000267118
-0.00198775
0.000263903
-0.00211616
0.000261003
-0.0022433
0.00025839
-0.00236931
0.000256027
-0.00249428
0.000253877
0.000251979
-0.00261833
-4.96588e-05
0.000151932
-0.000156642
0.000326759
-0.000292766
0.000415251
-0.000440988
0.000451729
-0.000592246
0.000460672
-0.000742399
0.000457102
-0.000889916
0.000448949
-0.00103446
0.000439798
-0.00117613
0.000431005
-0.00131517
0.000422962
-0.00145185
0.000415709
-0.0015864
0.000409185
-0.00171903
0.000403312
-0.00184993
0.000398019
-0.00197927
0.000393243
-0.0021072
0.000388935
-0.00223386
0.000385051
-0.00235937
0.000381538
-0.00248384
0.000378342
0.000375515
-0.00260738
-4.89474e-05
0.00020088
-0.000154726
0.000432537
-0.000289611
0.000550136
-0.000436718
0.000598837
-0.000587001
0.000610954
-0.00073628
0.000606382
-0.000882991
0.00059566
-0.00102676
0.000583571
-0.0011677
0.000571937
-0.00130602
0.000561286
-0.00144199
0.000551677
-0.00157583
0.00054303
-0.00170776
0.000535242
-0.00183796
0.000528218
-0.0019666
0.000521877
-0.00209382
0.000516153
-0.00221975
0.000510989
-0.00234453
0.000506315
-0.00246825
0.000502058
0.000498282
-0.00259101
-4.80019e-05
0.000248882
-0.000152176
0.000536712
-0.000285408
0.000683368
-0.00043103
0.000744458
-0.000580011
0.000759934
-0.000728128
0.0007545
-0.000873767
0.000741298
-0.00101652
0.000726328
-0.00115648
0.000711888
-0.00129384
0.000698654
-0.00142887
0.000686705
-0.00156179
0.000675944
-0.00169279
0.000666246
-0.00182206
0.000657492
-0.00194977
0.00064958
-0.00207604
0.000642431
-0.00220103
0.000635972
-0.00232483
0.00063012
-0.00244756
0.000624783
0.000620033
-0.00256931
-4.68247e-05
0.000295707
-0.000148996
0.000638882
-0.000280161
0.000814534
-0.000423923
0.00088822
-0.000571277
0.000907289
-0.000717945
0.000901168
-0.000862248
0.000885602
-0.00100374
0.000867823
-0.00114248
0.000850623
-0.00127866
0.000834837
-0.00141253
0.00082057
-0.00154429
0.00080771
-0.00167415
0.000796108
-0.00180228
0.000785623
-0.00192884
0.000776134
-0.00205396
0.000767547
-0.00217776
0.000759777
-0.00230037
0.000752726
-0.00242187
0.000746284
0.000740525
-0.00254236
-4.54183e-05
0.000341125
-0.000145187
0.000738652
-0.000273871
0.000943217
-0.000415397
0.00102975
-0.000560799
0.00105269
-0.00070573
0.0010461
-0.000848439
0.00102831
-0.000988428
0.00100781
-0.00112572
0.000987913
-0.0012605
0.000969615
-0.00139298
0.000953058
-0.00152339
0.000938118
-0.0016519
0.000924621
-0.00177869
0.000912406
-0.00190389
0.000901333
-0.00202763
0.000891292
-0.00215004
0.000882189
-0.00227123
0.000873913
-0.00239128
0.000866335
0.000859527
-0.00251028
-4.37855e-05
0.00038491
-0.000140755
0.000835621
-0.000266538
0.001069
-0.000405452
0.00116866
-0.000548574
0.00119581
-0.000691483
0.00118901
-0.000832341
0.00116917
-0.00097059
0.00114606
-0.00110621
0.00112353
-0.00123937
0.00110278
-0.00137028
0.00108397
-0.00149913
0.00106697
-0.0016261
0.00105159
-0.00175134
0.00103765
-0.00187499
0.00102498
-0.00199717
0.00101347
-0.00211799
0.00100301
-0.00223756
0.000993475
-0.00235594
0.000984722
0.000976814
-0.00247323
-4.19297e-05
0.00042684
-0.000135702
0.000929394
-0.000258164
0.00119146
-0.000394084
0.00130458
-0.000534598
0.00133633
-0.0006752
0.00132961
-0.000813954
0.00130792
-0.000950231
0.00128234
-0.00108397
0.00125727
-0.00121531
0.00123412
-0.00134445
0.0012131
-0.00147156
0.00119408
-0.00159681
0.00117684
-0.00172033
0.00116118
-0.00184226
0.00114691
-0.0019627
0.00113391
-0.00208175
0.00112206
-0.0021995
0.00111122
-0.00231602
0.00110125
0.00109217
-0.00243138
-3.98543e-05
0.000466694
-0.000130032
0.00101957
-0.000248747
0.00131018
-0.000381288
0.00143712
-0.000518861
0.0014739
-0.00065687
0.00146762
-0.00079327
0.00144432
-0.00092735
0.00141642
-0.001059
0.00138892
-0.00118833
0.00136345
-0.00131552
0.00134029
-0.00144072
0.00131928
-0.00156409
0.00130021
-0.00168575
0.00128283
-0.00180581
0.00126697
-0.00192435
0.00125245
-0.00204147
0.00123917
-0.00215724
0.00122699
-0.00227173
0.00121573
0.00120542
-0.00238497
-3.75631e-05
0.000504257
-0.000123747
0.00110576
-0.000238287
0.00142472
-0.000367054
0.00156589
-0.000501349
0.00160819
-0.000636479
0.00160275
-0.000770276
0.00157812
-0.000901939
0.00154808
-0.0010313
0.00151829
-0.00115845
0.0014906
-0.00128352
0.00146536
-0.00140667
0.00144243
-0.00152802
0.00142156
-0.00164768
0.0014025
-0.00176575
0.00138503
-0.00188228
0.00136899
-0.00199735
0.00135424
-0.00211101
0.00134066
-0.00222331
0.00132804
0.00131637
-0.00233427
-3.50603e-05
0.000539318
-0.000116852
0.00118755
-0.000226778
0.00153464
-0.000351371
0.00169048
-0.000482043
0.00173887
-0.000614002
0.00173471
-0.000744948
0.00170906
-0.000873977
0.00167711
-0.00100086
0.00164517
-0.00112565
0.00161538
-0.00124846
0.00158817
-0.00136942
0.0015634
-0.00148865
0.00154079
-0.00160623
0.00152008
-0.00172221
0.00150102
-0.00183666
0.00148343
-0.0019496
0.00146718
-0.00206107
0.00145212
-0.00217108
0.00143805
0.00142491
-0.00227962
-3.23506e-05
0.000571668
-0.000109349
0.00126455
-0.000214217
0.00163951
-0.000334223
0.00181049
-0.000460918
0.00186556
-0.000589408
0.0018632
-0.000717249
0.00183691
-0.000843428
0.00180329
-0.000967647
0.00176939
-0.00108991
0.00173765
-0.00121033
0.00170858
-0.001329
0.00168207
-0.00144602
0.00165781
-0.00156145
0.00163551
-0.00167533
0.0016149
-0.00178767
0.00159578
-0.00189847
0.00157798
-0.00200773
0.00156137
-0.00211541
0.00154573
0.00153096
-0.00222146
-2.94395e-05
0.000601108
-0.000101243
0.00133635
-0.000200598
0.00173886
-0.000315591
0.00192548
-0.000437941
0.00198791
-0.000562655
0.00198791
-0.000687132
0.00196138
-0.000810239
0.00192639
-0.000931604
0.00189076
-0.00105119
0.00185723
-0.00116908
0.00182647
-0.00128537
0.00179835
-0.00140012
0.00177257
-0.0015134
0.00174878
-0.00162519
0.0017267
-0.00173549
0.00170607
-0.00184423
0.00168673
-0.00195136
0.0016685
-0.00205678
0.00165115
0.00163452
-0.00216034
-2.63338e-05
0.000627442
-9.25398e-05
0.00140255
-0.000185918
0.00183224
-0.000295456
0.00203502
-0.000413077
0.00210553
-0.00053369
0.00210853
-0.000654533
0.00208223
-0.000774337
0.0020462
-0.000892652
0.00200907
-0.0010094
0.00197398
-0.00112464
0.00194171
-0.00123846
0.00191217
-0.00135092
0.00188503
-0.00146206
0.00185992
-0.00157185
0.00183649
-0.00168024
0.00181446
-0.00178712
0.00179361
-0.00189235
0.00177373
-0.00199573
0.00175453
0.00173576
-0.00209697
-2.30419e-05
0.000650484
-8.32492e-05
0.00146276
-0.000170173
0.00191917
-0.000273796
0.00213864
-0.000386284
0.00221802
-0.000502456
0.0022247
-0.000619374
0.00219914
-0.00073563
0.00216245
-0.000850682
0.00212412
-0.000964411
0.00208771
-0.00107686
0.00205416
-0.00118812
0.00202343
-0.00129825
0.00199516
-0.00140729
0.00196896
-0.00151522
0.00194442
-0.00162196
0.0019212
-0.00172737
0.00189902
-0.0018312
0.00187757
-0.00193306
0.00185639
0.00183506
-0.00203235
-1.95747e-05
0.000670058
-7.3385e-05
0.00151657
-0.000153369
0.00199915
-0.000250597
0.00223587
-0.000357524
0.00232495
-0.000468888
0.00233606
-0.00058157
0.00231183
-0.000694002
0.00227489
-0.000805549
0.00223567
-0.000916046
0.00219821
-0.00102553
0.00216364
-0.00113409
0.00213199
-0.00124184
0.00210291
-0.00134882
0.00207594
-0.00145504
0.00205064
-0.00156043
0.00202659
-0.00166484
0.00200343
-0.001768
0.00198072
-0.00186924
0.00195763
0.00193333
-0.00196751
-1.59462e-05
0.000686005
-6.29684e-05
0.00156359
-0.000135518
0.0020717
-0.00022585
0.0023262
-0.000326764
0.00242586
-0.000432928
0.00244223
-0.000541033
0.00241993
-0.000649341
0.00238319
-0.000757109
0.00234344
-0.000864126
0.00230523
-0.000970425
0.00226994
-0.00107613
0.0022377
-0.00118139
0.00220816
-0.00128632
0.00218087
-0.00139102
0.00215534
-0.0014955
0.00213106
-0.00159973
0.00210766
-0.00170366
0.00208465
-0.0018066
0.00206057
0.00203193
-0.0019052
-1.21742e-05
0.000698179
-5.20294e-05
0.00160345
-0.000116643
0.00213631
-0.000199561
0.00240912
-0.000293982
0.00252028
-0.000394523
0.00254277
-0.000497678
0.00252309
-0.000601515
0.00248703
-0.000705164
0.00244709
-0.000808349
0.00240841
-0.00091108
0.00237268
-0.0010135
0.00234011
-0.00111578
0.00231044
-0.00121815
0.00228324
-0.00132084
0.00225803
-0.00142405
0.00223428
-0.00152785
0.00221146
-0.00163247
0.00218927
-0.0017386
0.0021667
0.00213674
-0.00184341
-8.28073e-06
0.000706459
-4.06093e-05
0.00163578
-9.67865e-05
0.00219249
-0.000171754
0.00248409
-0.000259177
0.0026077
-0.000353648
0.00263724
-0.00045145
0.00262089
-0.000550443
0.00258603
-0.000649609
0.00254625
-0.000748596
0.0025074
-0.000847409
0.00247149
-0.000946244
0.00243895
-0.00104542
0.00240962
-0.0011454
0.00238321
-0.00124679
0.00235942
-0.00135043
0.00233791
-0.00145718
0.00231822
-0.00156746
0.00229955
-0.0016822
0.00228145
0.00227527
-0.00182073
-4.30451e-06
0.000710764
-2.87817e-05
0.00166026
-7.60325e-05
0.00223974
-0.000142503
0.00255056
-0.000222403
0.0026876
-0.000310329
0.00272516
-0.000402351
0.00271291
-0.000496095
0.00267977
-0.000590362
0.00264052
-0.000684686
0.00260172
-0.000779006
0.00256581
-0.000873467
0.00253341
-0.000968318
0.00250447
-0.00106385
0.00247874
-0.00116033