/*--------------------------------*- C++ -*----------------------------------*\
  =========                 |
  \\      /  F ield         | OpenFOAM: The Open Source CFD Toolbox
   \\    /   O peration     | Website:  https://openfoam.org
    \\  /    A nd           | Version:  6.0
     \\/     M anipulation  |
\*---------------------------------------------------------------------------*/
FoamFile
{
    version     2.0;
    format      ascii;
    class       volScalarField;
    location    "3.4";
    object      p;
}
// * * * * * * * * * * * * * * * * * * * * * * * * * * * * * * * * * * * * * //

dimensions      [0 2 -2 0 0 0 0];

internalField   nonuniform List<scalar> 
8000
(
-0.357812
-0.363713
-0.367333
-0.370263
-0.373359
-0.376714
-0.380303
-0.384041
-0.387804
-0.391455
-0.394866
-0.397919
-0.40052
-0.402593
-0.404068
-0.404881
-0.405067
-0.404885
-0.404214
-0.400783
-0.3593
-0.364985
-0.368503
-0.371381
-0.374445
-0.377785
-0.381372
-0.385122
-0.388909
-0.392595
-0.396049
-0.399153
-0.401809
-0.403939
-0.405474
-0.406347
-0.40659
-0.406465
-0.40587
-0.402534
-0.362178
-0.36744
-0.370758
-0.373534
-0.376533
-0.379838
-0.38342
-0.387188
-0.391017
-0.394764
-0.398297
-0.401493
-0.40425
-0.406486
-0.40813
-0.409113
-0.409458
-0.409429
-0.408968
-0.405813
-0.366256
-0.370915
-0.37394
-0.376563
-0.379461
-0.382709
-0.386272
-0.390057
-0.393935
-0.39776
-0.401395
-0.404712
-0.407603
-0.40998
-0.411767
-0.412893
-0.413371
-0.413459
-0.413162
-0.410261
-0.371276
-0.375184
-0.377836
-0.380255
-0.383012
-0.386171
-0.389692
-0.39348
-0.397398
-0.401301
-0.405045
-0.408494
-0.411535
-0.41407
-0.41602
-0.417308
-0.417931
-0.418135
-0.418002
-0.415411
-0.376938
-0.379987
-0.382199
-0.384363
-0.386933
-0.389962
-0.393405
-0.397162
-0.401097
-0.405057
-0.408894
-0.412469
-0.415655
-0.41835
-0.420464
-0.421915
-0.422683
-0.42299
-0.422992
-0.420743
-0.382922
-0.385055
-0.386776
-0.388635
-0.390967
-0.393812
-0.397124
-0.4008
-0.404702
-0.408678
-0.412572
-0.416239
-0.419547
-0.422382
-0.424646
-0.426249
-0.427152
-0.427541
-0.427633
-0.425734
-0.388923
-0.390134
-0.391333
-0.392841
-0.394875
-0.397471
-0.400583
-0.404108
-0.407908
-0.411831
-0.415721
-0.419426
-0.422808
-0.425743
-0.428124
-0.429854
-0.430873
-0.43132
-0.431451
-0.429891
-0.394674
-0.395008
-0.395674
-0.39679
-0.398467
-0.400741
-0.403569
-0.406853
-0.410461
-0.414243
-0.418043
-0.421708
-0.425093
-0.428067
-0.430514
-0.43233
-0.433435
-0.433913
-0.434034
-0.432787
-0.399965
-0.399515
-0.399661
-0.400352
-0.401615
-0.403488
-0.40594
-0.408883
-0.412195
-0.415731
-0.41934
-0.422868
-0.426167
-0.429101
-0.431546
-0.433388
-0.434535
-0.435013
-0.435071
-0.434095
-0.404656
-0.403553
-0.403214
-0.40346
-0.404259
-0.405657
-0.407643
-0.410144
-0.413051
-0.416233
-0.419543
-0.42283
-0.425948
-0.428753
-0.431114
-0.432911
-0.434037
-0.434465
-0.434397
-0.433618
-0.408684
-0.407083
-0.406313
-0.40611
-0.406408
-0.407272
-0.408712
-0.41068
-0.413087
-0.415814
-0.418726
-0.421678
-0.424522
-0.427111
-0.429305
-0.430976
-0.432003
-0.432308
-0.432018
-0.431305
-0.412054
-0.410124
-0.408988
-0.408348
-0.408128
-0.408419
-0.409259
-0.410627
-0.412459
-0.414656
-0.417095
-0.419637
-0.422133
-0.424433
-0.426385
-0.427845
-0.428679
-0.428757
-0.428098
-0.427235
-0.41484
-0.412743
-0.411314
-0.41026
-0.409526
-0.409231
-0.409444
-0.410179
-0.411398
-0.413024
-0.414946
-0.417033
-0.419134
-0.421091
-0.422736
-0.423904
-0.424436
-0.424152
-0.422923
-0.421585
-0.417174
-0.415049
-0.413393
-0.411962
-0.410737
-0.409868
-0.409463
-0.409566
-0.41017
-0.41122
-0.412617
-0.414235
-0.415919
-0.417496
-0.418779
-0.419572
-0.419681
-0.418872
-0.41684
-0.414616
-0.419229
-0.41718
-0.415355
-0.413585
-0.411905
-0.410501
-0.409513
-0.409021
-0.409043
-0.409543
-0.410436
-0.411594
-0.412854
-0.414027
-0.414894
-0.415224
-0.414779
-0.413272
-0.410224
-0.406679
-0.421211
-0.419296
-0.417341
-0.41527
-0.413183
-0.411298
-0.409788
-0.408761
-0.408258
-0.408259
-0.408683
-0.4094
-0.410233
-0.410969
-0.411358
-0.411126
-0.409995
-0.407639
-0.403445
-0.398236
-0.423339
-0.421568
-0.419501
-0.417163
-0.41472
-0.412419
-0.410459
-0.40897
-0.408011
-0.407569
-0.407564
-0.407854
-0.408245
-0.408496
-0.408324
-0.407416
-0.405456
-0.402111
-0.396703
-0.389651
-0.425829
-0.424163
-0.421981
-0.419402
-0.416652
-0.414001
-0.411666
-0.409791
-0.408442
-0.407607
-0.407198
-0.40706
-0.406977
-0.40668
-0.405859
-0.404167
-0.401251
-0.39674
-0.389893
-0.380853
-0.428875
-0.427235
-0.424915
-0.422112
-0.419096
-0.416153
-0.413508
-0.411311
-0.409624
-0.408428
-0.407621
-0.40703
-0.406423
-0.405518
-0.403995
-0.401512
-0.397711
-0.392149
-0.38391
-0.373433
-0.432635
-0.430912
-0.428415
-0.425391
-0.422137
-0.418945
-0.416041
-0.413564
-0.411568
-0.410014
-0.408786
-0.407693
-0.406494
-0.40491
-0.402647
-0.399424
-0.394992
-0.389133
-0.381739
-0.375159
-0.43722
-0.43529
-0.432562
-0.429307
-0.425826
-0.42241
-0.419272
-0.416534
-0.414228
-0.412293
-0.410592
-0.408921
-0.407037
-0.404676
-0.401584
-0.397545
-0.392404
-0.386094
-0.378716
-0.371505
-0.442696
-0.440429
-0.43741
-0.4339
-0.430187
-0.426549
-0.423179
-0.420171
-0.417527
-0.415158
-0.412908
-0.410563
-0.407887
-0.404645
-0.400631
-0.395694
-0.389754
-0.382812
-0.374972
-0.366787
-0.449093
-0.446364
-0.442987
-0.439188
-0.435221
-0.431346
-0.427723
-0.424411
-0.421373
-0.418493
-0.415594
-0.412464
-0.408884
-0.404661
-0.399645
-0.39375
-0.386957
-0.379313
-0.370932
-0.362096
-0.456408
-0.453107
-0.449306
-0.445177
-0.440924
-0.43678
-0.432863
-0.429187
-0.425674
-0.42218
-0.418515
-0.414477
-0.409884
-0.404593
-0.398519
-0.39164
-0.383994
-0.375666
-0.366782
-0.357505
-0.464628
-0.46066
-0.456376
-0.451875
-0.447296
-0.442834
-0.438561
-0.434437
-0.430341
-0.426104
-0.421539
-0.41647
-0.410762
-0.404336
-0.397176
-0.389321
-0.380856
-0.371899
-0.362583
-0.353045
-0.473731
-0.469017
-0.4642
-0.459287
-0.454336
-0.449497
-0.444783
-0.440097
-0.435281
-0.430153
-0.424542
-0.418319
-0.41141
-0.403807
-0.395558
-0.386757
-0.377524
-0.367994
-0.3583
-0.348561
-0.48369
-0.47817
-0.472781
-0.467418
-0.462043
-0.456748
-0.451481
-0.446091
-0.440392
-0.434207
-0.427404
-0.419915
-0.41174
-0.402941
-0.393624
-0.383921
-0.373974
-0.363919
-0.35388
-0.34396
-0.494473
-0.488102
-0.482111
-0.476264
-0.470402
-0.464551
-0.458591
-0.452325
-0.445557
-0.438141
-0.430006
-0.42116
-0.411679
-0.401689
-0.391341
-0.380788
-0.370177
-0.359635
-0.349267
-0.339148
-0.506036
-0.498781
-0.492169
-0.4858
-0.479375
-0.47284
-0.466017
-0.458677
-0.450642
-0.441826
-0.432236
-0.421967
-0.411168
-0.400014
-0.388683
-0.377335
-0.366107
-0.355105
-0.344413
-0.334072
-0.518313
-0.510157
-0.502909
-0.495974
-0.488887
-0.481514
-0.473627
-0.464997
-0.455497
-0.445126
-0.433988
-0.422262
-0.410156
-0.397881
-0.385624
-0.373536
-0.361732
-0.350295
-0.33928
-0.328695
-0.531212
-0.522149
-0.514255
-0.506697
-0.498825
-0.490429
-0.481255
-0.471113
-0.459963
-0.44791
-0.435162
-0.421973
-0.408597
-0.395258
-0.382136
-0.369361
-0.357022
-0.345171
-0.333834
-0.322993
-0.544606
-0.534645
-0.526093
-0.517837
-0.50903
-0.499398
-0.488703
-0.476835
-0.463872
-0.450047
-0.435663
-0.421036
-0.406444
-0.392107
-0.378184
-0.364776
-0.351938
-0.339697
-0.328044
-0.316946
-0.558329
-0.547494
-0.538268
-0.529219
-0.519299
-0.5082
-0.495749
-0.48196
-0.467061
-0.451412
-0.435402
-0.419387
-0.403649
-0.388386
-0.373727
-0.359737
-0.34644
-0.333832
-0.321876
-0.310531
-0.572176
-0.560504
-0.55058
-0.540621
-0.529386
-0.516582
-0.502153
-0.486283
-0.469366
-0.451884
-0.434292
-0.41696
-0.400156
-0.384045
-0.368716
-0.354196
-0.340479
-0.327534
-0.315291
-0.303721
-0.585902
-0.573443
-0.562788
-0.551778
-0.539012
-0.524268
-0.507668
-0.489601
-0.470633
-0.451349
-0.432245
-0.413687
-0.395906
-0.379026
-0.363093
-0.348098
-0.334003
-0.320754
-0.30825
-0.296483
-0.599225
-0.58604
-0.574611
-0.562391
-0.547871
-0.530971
-0.512048
-0.491719
-0.470713
-0.449695
-0.429177
-0.409493
-0.390832
-0.373266
-0.356798
-0.341383
-0.326958
-0.313442
-0.300706
-0.288781
-0.61183
-0.597988
-0.585728
-0.572128
-0.55564
-0.5364
-0.515052
-0.49245
-0.469466
-0.446817
-0.425
-0.404305
-0.384863
-0.366697
-0.349765
-0.33399
-0.319284
-0.305545
-0.292614
-0.280573
-0.623373
-0.60895
-0.595795
-0.58064
-0.561988
-0.540272
-0.516454
-0.491623
-0.466764
-0.442613
-0.419629
-0.398043
-0.377926
-0.359249
-0.341928
-0.325856
-0.310925
-0.297009
-0.283926
-0.271821
-0.633491
-0.618567
-0.604446
-0.587568
-0.56659
-0.542315
-0.516045
-0.48908
-0.462485
-0.436983
-0.412978
-0.39063
-0.369948
-0.350852
-0.33322
-0.31692
-0.301824
-0.287784
-0.274597
-0.262481
-0.641812
-0.626469
-0.611307
-0.592555
-0.569137
-0.542283
-0.513636
-0.484679
-0.456519
-0.429838
-0.404966
-0.38199
-0.360857
-0.341439
-0.32358
-0.307125
-0.291928
-0.277821
-0.264584
-0.252516
-0.647957
-0.632276
-0.616005
-0.595257
-0.569339
-0.539949
-0.509059
-0.478294
-0.448765
-0.42109
-0.395515
-0.372052
-0.350586
-0.330947
-0.312949
-0.296417
-0.28119
-0.267078
-0.25385
-0.241891
-0.651558
-0.635622
-0.618182
-0.595356
-0.566938
-0.53512
-0.502173
-0.469817
-0.439136
-0.410664
-0.384556
-0.360749
-0.339073
-0.319319
-0.301276
-0.28475
-0.269567
-0.255518
-0.242361
-0.230578
-0.652268
-0.636157
-0.617506
-0.592566
-0.561713
-0.527634
-0.492858
-0.459159
-0.427558
-0.398492
-0.372026
-0.348023
-0.326265
-0.306508
-0.288518
-0.272086
-0.257027
-0.243111
-0.230095
-0.218556
-0.649765
-0.633558
-0.613677
-0.58664
-0.553478
-0.517361
-0.481023
-0.446247
-0.413969
-0.384521
-0.357874
-0.333829
-0.31212
-0.292474
-0.274639
-0.258394
-0.243544
-0.229837
-0.217034
-0.205811
-0.643764
-0.627541
-0.60644
-0.577376
-0.542093
-0.504206
-0.466601
-0.431031
-0.398326
-0.368707
-0.342062
-0.318128
-0.296603
-0.277188
-0.259616
-0.243655
-0.229101
-0.215684
-0.203171
-0.192338
-0.634025
-0.617867
-0.595588
-0.564623
-0.527458
-0.488107
-0.449552
-0.413479
-0.380599
-0.351025
-0.324563
-0.300898
-0.279694
-0.260633
-0.243433
-0.227858
-0.213691
-0.200648
-0.188508
-0.178139
-0.620359
-0.604349
-0.580967
-0.548279
-0.509519
-0.469039
-0.429863
-0.393581
-0.360779
-0.331462
-0.305364
-0.282126
-0.261382
-0.242799
-0.226086
-0.211001
-0.197318
-0.184736
-0.173054
-0.163224
-0.602632
-0.586857
-0.562481
-0.528295
-0.488262
-0.447008
-0.407547
-0.371349
-0.338872
-0.310022
-0.284469
-0.261813
-0.24167
-0.223692
-0.207582
-0.193092
-0.179991
-0.167964
-0.156828
-0.147613
-0.580769
-0.565319
-0.540094
-0.504675
-0.463719
-0.422056
-0.382643
-0.346817
-0.314906
-0.286727
-0.261892
-0.239974
-0.22057
-0.203324
-0.187933
-0.17415
-0.161733
-0.150358
-0.139862
-0.13134
-0.554758
-0.539728
-0.513827
-0.477473
-0.435962
-0.394255
-0.355219
-0.32004
-0.288926
-0.261612
-0.237666
-0.216635
-0.198106
-0.181717
-0.167164
-0.154196
-0.142569
-0.131949
-0.122196
-0.114451
-0.524649
-0.510136
-0.483759
-0.44679
-0.4051
-0.363713
-0.325367
-0.291098
-0.260998
-0.234734
-0.211835
-0.191834
-0.17431
-0.158899
-0.145299
-0.13326
-0.12253
-0.112774
-0.103874
-0.096999
-0.490551
-0.476659
-0.450023
-0.412778
-0.371285
-0.330566
-0.293207
-0.260092
-0.231208
-0.206162
-0.184459
-0.16562
-0.149222
-0.134906
-0.12237
-0.111366
-0.101642
-0.0928647
-0.0849376
-0.0790199
-0.452634
-0.439467
-0.412809
-0.375631
-0.334701
-0.294982
-0.258885
-0.227147
-0.199661
-0.175986
-0.155609
-0.13805
-0.122888
-0.109771
-0.0984022
-0.0885378
-0.0799278
-0.0722492
-0.065415
-0.0605105
-0.411126
-0.398788
-0.372352
-0.335583
-0.295568
-0.257158
-0.222575
-0.192414
-0.166486
-0.144314
-0.125376
-0.109194
-0.0953589
-0.0835275
-0.0734155
-0.0647855
-0.0573963
-0.0509391
-0.0453113
-0.0414594
-0.366304
-0.354899
-0.328932
-0.292907
-0.254141
-0.217322
-0.184477
-0.156068
-0.131835
-0.111276
-0.0938656
-0.0791373
-0.0666961
-0.0562153
-0.0474279
-0.0401101
-0.0340344
-0.0289138
-0.0246255
-0.0219749
-0.318495
-0.308125
-0.282872
-0.247911
-0.210699
-0.175725
-0.144817
-0.11831
-0.0958857
-0.0770246
-0.0612077
-0.0479829
-0.0369767
-0.0278875
-0.0204728
-0.0145258
-0.00983803
-0.00618261
-0.00349611
-0.00247744
-0.268067
-0.258826
-0.234524
-0.200929
-0.165553
-0.132651
-0.103849
-0.0793686
-0.0588414
-0.0417376
-0.0275479
-0.0158411
-0.00627158
0.0014257
0.00745615
0.0120034
0.0152303
0.0171821
0.0177028
0.01648
-0.215421
-0.207398
-0.184275
-0.152324
-0.119035
-0.0884022
-0.0618527
-0.0395022
-0.0209391
-0.00562628
0.00693582
0.0171606
0.0253663
0.031779
0.0365638
0.0398692
0.0417335
0.041789
0.0395266
0.0359201
-0.16099
-0.154265
-0.13253
-0.102477
-0.071497
-0.0433049
-0.0191331
0.000999966
0.0175428
0.0310395
0.041986
0.0507902
0.0577642
0.0631305
0.0670657
0.0697342
0.0710361
0.0700801
0.0661219
0.0620015
-0.105225
-0.0998674
-0.0797119
-0.05178
-0.0233023
0.00230283
0.02399
0.0418277
0.0562939
0.0679368
0.0772495
0.0846408
0.0904352
0.0948936
0.0982787
0.100885
0.102676
0.102605
0.1004
0.104732
-0.0485869
-0.0446567
-0.0262506
-0.000634589
0.0251796
0.0480777
0.0671922
0.0826678
0.0950035
0.104745
0.112374
0.118292
0.12282
0.126228
0.128795
0.130797
0.132213
0.132537
0.132719
0.139236
0.0084512
0.0109064
0.0274182
0.0505574
0.0735795
0.0936781
0.110153
0.123215
0.133375
0.141173
0.147076
0.151473
0.154678
0.156958
0.158577
0.159765
0.160494
0.160452
0.160604
0.165905
0.0654151
0.0663619
0.0808617
0.101398
0.121534
0.13877
0.152562
0.163175
0.171127
0.176943
0.181073
0.183886
0.185681
0.186712
0.187221
0.187412
0.187274
0.186568
0.18609
0.189771
0.121835
0.121255
0.133654
0.151499
0.16869
0.183031
0.194122
0.202274
0.208005
0.211821
0.21415
0.21534
0.215669
0.215369
0.214656
0.213703
0.212487
0.210798
0.209369
0.211551
0.177252
0.175139
0.185379
0.200481
0.214705
0.226151
0.234552
0.240255
0.243772
0.245589
0.246111
0.245662
0.244496
0.242826
0.240842
0.238689
0.236327
0.233573
0.231122
0.231868
0.231216
0.227582
0.235636
0.247981
0.259253
0.267837
0.273585
0.276875
0.278211
0.278055
0.276787
0.274706
0.272046
0.268996
0.265725
0.262352
0.258827
0.254996
0.251524
0.250916
0.283297
0.278168
0.284041
0.293652
0.302021
0.307807
0.310969
0.31191
0.311119
0.309038
0.30602
0.302342
0.298214
0.293808
0.289269
0.284697
0.280036
0.27516
0.270698
0.268804
0.333082
0.326502
0.330226
0.337164
0.342716
0.345797
0.346467
0.345144
0.342306
0.33837
0.333664
0.328443
0.322897
0.317179
0.311416
0.305688
0.299941
0.294073
0.288665
0.285554
0.380182
0.372207
0.373848
0.378206
0.381058
0.381558
0.379854
0.376378
0.371592
0.36589
0.359578
0.352887
0.345992
0.339025
0.332098
0.325276
0.318507
0.311709
0.305407
0.30115
0.42423
0.414934
0.414584
0.41649
0.416788
0.414856
0.410921
0.405422
0.398807
0.391447
0.383626
0.375557
0.367394
0.359256
0.351239
0.343396
0.335678
0.328021
0.320883
0.315552
0.464887
0.454356
0.452134
0.451745
0.449665
0.445476
0.439472
0.4321
0.423792
0.414898
0.405681
0.396336
0.387001
0.377782
0.36876
0.359976
0.351389
0.342947
0.335036
0.328711
0.501842
0.490177
0.486225
0.483725
0.479468
0.473218
0.465329
0.45625
0.4464
0.436109
0.425621
0.415114
0.404715
0.394513
0.384578
0.374943
0.365572
0.356421
0.347807
0.340573
0.534812
0.522126
0.516611
0.512209
0.505998
0.497903
0.488326
0.477723
0.466495
0.454956
0.443334
0.431791
0.420441
0.409363
0.398615
0.388223
0.378157
0.368378
0.359134
0.351085
0.563548
0.549965
0.543072
0.537
0.529078
0.519369
0.50832
0.496385
0.483956
0.471328
0.458717
0.446271
0.434093
0.422252
0.410797
0.399747
0.389078
0.378755
0.36896
0.360195
0.587833
0.573486
0.565419
0.557926
0.548551
0.537476
0.525181
0.512121
0.498675
0.485128
0.47168
0.458471
0.445594
0.433109
0.421056
0.409453
0.398276
0.387496
0.377232
0.367859
0.607484
0.592516
0.583491
0.574842
0.564289
0.552106
0.538802
0.524831
0.510563
0.496271
0.482147
0.46832
0.454877
0.441872
0.429337
0.417285
0.4057
0.39455
0.383906
0.374039
0.622353
0.606912
0.597159
0.587632
0.576186
0.563164
0.549096
0.534435
0.519544
0.504689
0.490053
0.47576
0.461889
0.448489
0.43559
0.4232
0.411306
0.399877
0.388945
0.378701
0.632328
0.61657
0.606326
0.596208
0.584162
0.570577
0.555996
0.540872
0.525564
0.51033
0.495351
0.480744
0.466587
0.452923
0.439779
0.427163
0.415062
0.403446
0.392319
0.381823
0.637335
0.621417
0.610926
0.600512
0.588163
0.574296
0.559457
0.544101
0.528583
0.51316
0.498008
0.483244
0.468943
0.455147
0.44188
0.42915
0.416946
0.405236
0.394011
0.383387
0.637336
0.621418
0.610926
0.600512
0.588164
0.574296
0.559458
0.544101
0.528583
0.51316
0.498008
0.483245
0.468943
0.455147
0.44188
0.42915
0.416946
0.405235
0.394011
0.383387
0.63233
0.616572
0.606328
0.59621
0.584163
0.570578
0.555997
0.540873
0.525564
0.510331
0.495351
0.480745
0.466587
0.452923
0.439779
0.427162
0.415062
0.403446
0.392319
0.381822
0.622357
0.606916
0.597162
0.587635
0.576188
0.563166
0.549098
0.534436
0.519545
0.50469
0.490053
0.47576
0.461889
0.448489
0.435589
0.4232
0.411306
0.399877
0.388944
0.378701
0.607489
0.592521
0.583495
0.574846
0.564292
0.552109
0.538805
0.524833
0.510564
0.496272
0.482147
0.468321
0.454877
0.441871
0.429336
0.417285
0.4057
0.394549
0.383905
0.374038
0.58784
0.573492
0.565424
0.55793
0.548555
0.53748
0.525184
0.512123
0.498677
0.485129
0.471681
0.458472
0.445594
0.433109
0.421056
0.409452
0.398276
0.387495
0.377231
0.367858
0.563556
0.549972
0.543079
0.537006
0.529083
0.519373
0.508323
0.496388
0.483958
0.47133
0.458718
0.446271
0.434093
0.422252
0.410796
0.399746
0.389077
0.378754
0.368959
0.360194
0.534821
0.522134
0.516619
0.512216
0.506004
0.497908
0.48833
0.477725
0.466497
0.454957
0.443334
0.431791
0.42044
0.409362
0.398614
0.388222
0.378155
0.368377
0.359132
0.351083
0.501852
0.490186
0.486234
0.483733
0.479475
0.473224
0.465333
0.456253
0.446402
0.43611
0.425622
0.415115
0.404714
0.394512
0.384577
0.374942
0.36557
0.356419
0.347805
0.340571
0.464898
0.454367
0.452143
0.451753
0.449672
0.445481
0.439476
0.432103
0.423794
0.414899
0.405682
0.396335
0.387
0.377781
0.368758
0.359975
0.351387
0.342944
0.335034
0.328709
0.424242
0.414945
0.414594
0.416498
0.416795
0.414862
0.410925
0.405425
0.398809
0.391448
0.383627
0.375556
0.367393
0.359255
0.351237
0.343394
0.335675
0.328018
0.32088
0.31555
0.380194
0.372219
0.373859
0.378215
0.381065
0.381563
0.379858
0.37638
0.371594
0.365891
0.359578
0.352886
0.34599
0.339023
0.332095
0.325273
0.318504
0.311706
0.305404
0.301147
0.333095
0.326514
0.330237
0.337173
0.342723
0.345802
0.346471
0.345146
0.342308
0.33837
0.333664
0.328441
0.322895
0.317176
0.311413
0.305685
0.299938
0.294069
0.288661
0.28555
0.28331
0.27818
0.284051
0.29366
0.302028
0.307812
0.310973
0.311911
0.31112
0.309038
0.306019
0.30234
0.298212
0.293805
0.289266
0.284693
0.280032
0.275156
0.270694
0.2688
0.231228
0.227594
0.235646
0.247989
0.259259
0.267841
0.273588
0.276877
0.278211
0.278054
0.276785
0.274703
0.272042
0.268992
0.26572
0.262347
0.258822
0.254991
0.251519
0.25091
0.177264
0.17515
0.185389
0.200488
0.214711
0.226155
0.234554
0.240255
0.243771
0.245587
0.246109
0.245658
0.244492
0.242821
0.240837
0.238683
0.236322
0.233568
0.231117
0.231862
0.121847
0.121265
0.133663
0.151505
0.168695
0.183034
0.194124
0.202274
0.208003
0.211818
0.214146
0.215336
0.215664
0.215364
0.21465
0.213697
0.21248
0.210791
0.209362
0.211544
0.0654251
0.066371
0.0808694
0.101404
0.121538
0.138772
0.152562
0.163173
0.171124
0.176939
0.181068
0.183881
0.185675
0.186705
0.187214
0.187405
0.187267
0.186561
0.186082
0.189764
0.00845968
0.010914
0.0274244
0.0505618
0.0735818
0.0936784
0.110152
0.123212
0.133371
0.141168
0.14707
0.151467
0.154671
0.15695
0.158569
0.159756
0.160486
0.160444
0.160595
0.165896
-0.0485803
-0.044651
-0.0262462
-0.000631907
0.0251803
0.0480764
0.0671893
0.0826633
0.0949978
0.104738
0.112367
0.118284
0.122811
0.126219
0.128786
0.130788
0.132203
0.132527
0.132709
0.139227
-0.105221
-0.099864
-0.0797097
-0.0517793
-0.0233035
0.00229982
0.0239853
0.0418216
0.0562867
0.0679286
0.0772405
0.0846312
0.0904252
0.0948832
0.0982681
0.100874
0.102665
0.102593
0.100388
0.104721
-0.160988
-0.154264
-0.13253
-0.102478
-0.0715003
-0.0433099
-0.0191397
0.000992026
0.0175337
0.0310295
0.0419754
0.0507791
0.0577527
0.0631187
0.0670536
0.069722
0.0710238
0.0700677
0.0661094
0.0619889
-0.215423
-0.2074
-0.184278
-0.152329
-0.119041
-0.0884095
-0.0618614
-0.0395121
-0.02095
-0.00563804
0.00692343
0.0171478
0.0253531
0.0317657
0.0365503
0.0398556
0.0417199
0.0417754
0.0395131
0.0359067
-0.268072
-0.258831
-0.234531
-0.200937
-0.165561
-0.132661
-0.10386
-0.0793807
-0.0588545
-0.0417513
-0.0275622
-0.0158557
-0.00628642
0.00141074
0.00744113
0.0119884
0.0152154
0.0171673
0.0176882
0.0164656
-0.318504
-0.308134
-0.282881
-0.247921
-0.21071
-0.175738
-0.14483
-0.118324
-0.0959009
-0.0770404
-0.0612239
-0.0479994
-0.0369933
-0.0279041
-0.0204894
-0.0145423
-0.00985444
-0.00619881
-0.00351207
-0.00249321
-0.366317
-0.354913
-0.328946
-0.292922
-0.254155
-0.217337
-0.184493
-0.156085
-0.131852
-0.111294
-0.0938839
-0.0791558
-0.0667145
-0.0562337
-0.0474462
-0.0401282
-0.0340523
-0.0289314
-0.0246428
-0.021992
-0.411143
-0.398806
-0.37237
-0.335601
-0.295587
-0.257177
-0.222594
-0.192434
-0.166506
-0.144334
-0.125396
-0.109214
-0.0953793
-0.0835477
-0.0734355
-0.0648053
-0.0574157
-0.0509582
-0.0453299
-0.0414778
-0.452656
-0.43949
-0.412832
-0.375653
-0.334723
-0.295005
-0.258908
-0.22717
-0.199683
-0.176009
-0.155632
-0.138072
-0.122911
-0.109793
-0.098424
-0.0885592
-0.0799488
-0.0722697
-0.065435
-0.0605301
-0.490578
-0.476687
-0.450051
-0.412805
-0.371311
-0.330592
-0.293233
-0.260118
-0.231233
-0.206187
-0.184484
-0.165645
-0.149247
-0.13493
-0.122394
-0.111389
-0.101664
-0.0928866
-0.084959
-0.0790407
-0.524682
-0.51017
-0.483792
-0.446822
-0.405131
-0.363743
-0.325396
-0.291127
-0.261027
-0.234762
-0.211863
-0.191861
-0.174336
-0.158925
-0.145325
-0.133284
-0.122554
-0.112797
-0.103897
-0.097021
-0.554798
-0.539768
-0.513866
-0.47751
-0.435997
-0.39429
-0.355252
-0.320073
-0.288958
-0.261643
-0.237696
-0.216665
-0.198134
-0.181744
-0.167191
-0.154223
-0.142595
-0.131974
-0.12222
-0.114474
-0.580814
-0.565365
-0.540139
-0.504718
-0.46376
-0.422094
-0.38268
-0.346853
-0.31494
-0.28676
-0.261925
-0.240006
-0.2206
-0.203353
-0.187962
-0.174177
-0.16176
-0.150384
-0.139887
-0.131364
-0.602683
-0.586909
-0.562533
-0.528344
-0.488308
-0.447051
-0.407588
-0.371388
-0.33891
-0.310059
-0.284504
-0.261847
-0.241702
-0.223723
-0.207612
-0.193122
-0.180019
-0.167992
-0.156854
-0.147639
-0.620417
-0.604408
-0.581024
-0.548333
-0.50957
-0.469087
-0.429908
-0.393624
-0.36082
-0.331501
-0.305402
-0.282162
-0.261417
-0.242833
-0.226119
-0.211032
-0.197347
-0.184765
-0.173081
-0.16325
-0.63409
-0.617933
-0.595652
-0.564683
-0.527515
-0.48816
-0.449601
-0.413525
-0.380643
-0.351067
-0.324603
-0.300936
-0.27973
-0.260668
-0.243467
-0.22789
-0.213722
-0.200678
-0.188536
-0.178165
-0.643836
-0.627614
-0.606511
-0.577443
-0.542155
-0.504263
-0.466655
-0.431081
-0.398373
-0.368752
-0.342105
-0.318169
-0.296641
-0.277225
-0.259651
-0.243689
-0.229133
-0.215714
-0.2032
-0.192365
-0.649843
-0.633637
-0.613754
-0.586712
-0.553546
-0.517424
-0.481081
-0.446301
-0.41402
-0.384569
-0.357919
-0.333872
-0.31216
-0.292513
-0.274676
-0.258429
-0.243576
-0.229868
-0.217063
-0.205839
-0.652352
-0.636242
-0.617589
-0.592645
-0.561786
-0.527702
-0.492921
-0.459217
-0.427612
-0.398543
-0.372073
-0.348068
-0.326307
-0.306548
-0.288555
-0.272121
-0.25706
-0.243143
-0.230124
-0.218584
-0.651648
-0.635713
-0.618271
-0.595441
-0.567017
-0.535193
-0.50224
-0.46988
-0.439194
-0.410717
-0.384606
-0.360795
-0.339117
-0.31936
-0.301315
-0.284786
-0.269601
-0.25555
-0.242391
-0.230606
-0.648052
-0.632372
-0.616099
-0.595347
-0.569423
-0.540027
-0.509131
-0.47836
-0.448826
-0.421146
-0.395568
-0.372101
-0.350631
-0.330989
-0.312989
-0.296454
-0.281224
-0.26711
-0.25388
-0.241919
-0.641912
-0.62657
-0.611407
-0.59265
-0.569226
-0.542365
-0.513712
-0.484749
-0.456583
-0.429897
-0.405021
-0.382041
-0.360904
-0.341482
-0.323621
-0.307163
-0.291963
-0.277853
-0.264614
-0.252543
-0.633597
-0.618673
-0.604551
-0.587668
-0.566685
-0.542403
-0.516126
-0.489154
-0.462553
-0.437045
-0.413035
-0.390683
-0.369997
-0.350897
-0.333262
-0.316959
-0.301859
-0.287816
-0.274627
-0.262508
-0.623482
-0.60906
-0.595904
-0.580745
-0.562086
-0.540363
-0.516539
-0.491701
-0.466835
-0.442677
-0.419688
-0.398097
-0.377976
-0.359295
-0.34197
-0.325895
-0.31096
-0.297041
-0.283956
-0.271847
-0.611943
-0.598101
-0.58584
-0.572237
-0.555742
-0.536496
-0.51514
-0.492531
-0.46954
-0.446884
-0.425061
-0.404361
-0.384914
-0.366744
-0.349808
-0.334029
-0.319319
-0.305576
-0.292643
-0.280599
-0.599341
-0.586156
-0.574725
-0.562503
-0.547977
-0.53107
-0.512139
-0.491803
-0.470789
-0.449764
-0.42924
-0.409551
-0.390884
-0.373314
-0.356841
-0.341422
-0.326993
-0.313474
-0.300734
-0.288805
-0.586021
-0.573561
-0.562906
-0.551892
-0.539121
-0.524371
-0.507763
-0.489688
-0.470712
-0.45142
-0.43231
-0.413745
-0.395959
-0.379075
-0.363136
-0.348137
-0.334038
-0.320785
-0.308277
-0.296507
-0.572296
-0.560624
-0.550699
-0.540736
-0.529497
-0.516687
-0.50225
-0.486372
-0.469448
-0.451958
-0.434358
-0.417021
-0.40021
-0.384094
-0.368759
-0.354235
-0.340513
-0.327564
-0.315317
-0.303743
-0.55845
-0.547615
-0.538387
-0.529336
-0.519411
-0.508307
-0.495849
-0.482051
-0.467145
-0.451487
-0.435471
-0.419449
-0.403704
-0.388436
-0.373771
-0.359776
-0.346473
-0.333861
-0.3219
-0.310552
-0.544728
-0.534766
-0.526213
-0.517955
-0.509144
-0.499507
-0.488805
-0.476929
-0.463958
-0.450125
-0.435734
-0.421099
-0.4065
-0.392157
-0.378228
-0.364814
-0.351971
-0.339725
-0.328068
-0.316965
-0.531334
-0.52227
-0.514375
-0.506814
-0.498939
-0.490538
-0.481358
-0.471209
-0.460051
-0.44799
-0.435235
-0.422038
-0.408654
-0.395309
-0.38218
-0.369399
-0.357054
-0.345198
-0.333856
-0.32301
-0.518435
-0.510277
-0.503028
-0.49609
-0.489001
-0.481624
-0.473731
-0.465095
-0.455588
-0.445209
-0.434063
-0.422328
-0.410215
-0.397933
-0.385668
-0.373574
-0.361764
-0.350321
-0.3393
-0.32871
-0.506156
-0.4989
-0.492286
-0.485915
-0.479488
-0.47295
-0.466122
-0.458776
-0.450735
-0.44191
-0.432313
-0.422036
-0.411228
-0.400067
-0.388728
-0.377373
-0.366138
-0.35513
-0.344432
-0.334085
-0.494592
-0.488219
-0.482226
-0.476378
-0.470514
-0.46466
-0.458697
-0.452426
-0.445652
-0.438228
-0.430085
-0.42123
-0.411741
-0.401743
-0.391387
-0.380827
-0.370208
-0.359659
-0.349284
-0.339159
-0.483807
-0.478285
-0.472894
-0.46753
-0.462153
-0.456856
-0.451587
-0.446193
-0.440488
-0.434296
-0.427485
-0.419988
-0.411804
-0.402997
-0.393671
-0.38396
-0.374005
-0.363942
-0.353896
-0.343969
-0.473845
-0.46913
-0.464311
-0.459397
-0.454445
-0.449604
-0.444888
-0.440199
-0.435379
-0.430245
-0.424627
-0.418395
-0.411477
-0.403865
-0.395607
-0.386797
-0.377555
-0.368017
-0.358315
-0.348568
-0.464741
-0.46077
-0.456484
-0.451983
-0.447403
-0.442941
-0.438667
-0.43454
-0.43044
-0.426199
-0.421626
-0.416549
-0.410832
-0.404397
-0.397227
-0.389362
-0.380888
-0.371922
-0.362598
-0.353051
-0.456518
-0.453214
-0.449412
-0.445283
-0.441029
-0.436885
-0.432968
-0.42929
-0.425775
-0.422276
-0.418605
-0.41456
-0.409958
-0.404657
-0.398572
-0.391683
-0.384027
-0.37569
-0.366796
-0.357511
-0.449199
-0.446468
-0.443089
-0.43929
-0.435323
-0.431449
-0.427828
-0.424515
-0.421475
-0.418592
-0.415688
-0.41255
-0.408961
-0.404728
-0.399701
-0.393795
-0.386991
-0.379337
-0.370946
-0.362101
-0.442799
-0.44053
-0.437509
-0.434
-0.430287
-0.426651
-0.423283
-0.420275
-0.41763
-0.415259
-0.413004
-0.410653
-0.407968
-0.404715
-0.40069
-0.395742
-0.389789
-0.382836
-0.374986
-0.366792
-0.437319
-0.435386
-0.432658
-0.429404
-0.425924
-0.42251
-0.419374
-0.416638
-0.414331
-0.412395
-0.41069
-0.409014
-0.407121
-0.404749
-0.401646
-0.397594
-0.39244
-0.386118
-0.378729
-0.371509
-0.432729
-0.431004
-0.428507
-0.425484
-0.422232
-0.419043
-0.416141
-0.413667
-0.411671
-0.410117
-0.408885
-0.407788
-0.406581
-0.404986
-0.402711
-0.399474
-0.395028
-0.389155
-0.381749
-0.375159
-0.428964
-0.427322
-0.425002
-0.422201
-0.419187
-0.416247
-0.413606
-0.411411
-0.409726
-0.40853
-0.40772
-0.407125
-0.406511
-0.405595
-0.40406
-0.401563
-0.397746
-0.392168
-0.383915
-0.373426
-0.425911
-0.424244
-0.422063
-0.419486
-0.416739
-0.414091
-0.41176
-0.409888
-0.408541
-0.407707
-0.407296
-0.407154
-0.407063
-0.406757
-0.405923
-0.404216
-0.401283
-0.396756
-0.389892
-0.380838
-0.423414
-0.421643
-0.419577
-0.417241
-0.414802
-0.412504
-0.410548
-0.409063
-0.408106
-0.407665
-0.407658
-0.407944
-0.408329
-0.40857
-0.408385
-0.407462
-0.405485
-0.402121
-0.396695
-0.389626
-0.421279
-0.419365
-0.417412
-0.415343
-0.413259
-0.411378
-0.409872
-0.408848
-0.408347
-0.408349
-0.408771
-0.409484
-0.410311
-0.411037
-0.411413
-0.411166
-0.410016
-0.407641
-0.403427
-0.398197
-0.419289
-0.417242
-0.415419
-0.413651
-0.411975
-0.410575
-0.409591
-0.409102
-0.409126
-0.409626
-0.410517
-0.41167
-0.412923
-0.414086
-0.41494
-0.415253
-0.41479
-0.413262
-0.410192
-0.406625
-0.417226
-0.415103
-0.413451
-0.412022
-0.410801
-0.409935
-0.409533
-0.409639
-0.410245
-0.411293
-0.412688
-0.4143
-0.415976
-0.417543
-0.418813
-0.419589
-0.419679
-0.418847
-0.416792
-0.414544
-0.414884
-0.41279
-0.411364
-0.410314
-0.409584
-0.409291
-0.409507
-0.410244
-0.411463
-0.413087
-0.415006
-0.417086
-0.419179
-0.421123
-0.422753
-0.423904
-0.424416
-0.424109
-0.422856
-0.421493
-0.41209
-0.410164
-0.409032
-0.408395
-0.408178
-0.408472
-0.409313
-0.410682
-0.412514
-0.414708
-0.417143
-0.419677
-0.422163
-0.424449
-0.426385
-0.427827
-0.428639
-0.428694
-0.42801
-0.427121
-0.408712
-0.407116
-0.40635
-0.40615
-0.406451
-0.407317
-0.408759
-0.410726
-0.413131
-0.415854
-0.41876
-0.421704
-0.424536
-0.42711
-0.429287
-0.430938
-0.431942
-0.432224
-0.431907
-0.43117
-0.404678
-0.403579
-0.403244
-0.403493
-0.404294
-0.405694
-0.40768
-0.41018
-0.413085
-0.416262
-0.419564
-0.422842
-0.425946
-0.428735
-0.431078
-0.432854
-0.433957
-0.43436
-0.434266
-0.433461
-0.39998
-0.399535
-0.399685
-0.400378
-0.401643
-0.403517
-0.405969
-0.408911
-0.412219
-0.415749
-0.419349
-0.422866
-0.426152
-0.429069
-0.431494
-0.433314
-0.434437
-0.434889
-0.43492
-0.43392
-0.394683
-0.395022
-0.395692
-0.39681