1.22 	3.45254e-18 	-6.98323e-18 	-0.144952 	0.00291472 	-8.45327e-22
1.66 	3.45254e-18 	-6.96118e-18 	-0.270603 	0.00167754 	-3.69082e-23
2.1 	3.45254e-18 	-6.93894e-18 	-0.333226 	0.00791985 	-2.49736e-21
2.54 	3.45254e-18 	-8.30431e-18 	-0.485755 	0.0144035 	-3.35669e-23
2.98 	3.45254e-18 	-8.28171e-18 	-0.459762 	0.011742 	2.65728e-21
3.42 	3.45254e-18 	-6.87115e-18 	-0.4272 	0.000338517 	2.40613e-21
3.86 	3.45254e-18 	-6.84819e-18 	-0.263844 	-0.010046 	3.8732e-22
4.3 	3.45254e-18 	-6.82504e-18 	-0.182743 	-0.0153049 	1.05933e-21
4.74 	3.45254e-18 	-5.41391e-18 	-0.0417304 	-0.0170374 	-3.98338e-22
5.18 	3.45254e-18 	-2.61482e-18 	0.0538105 	-0.0139302 	-6.12419e-23
5.62 	3.45254e-18 	-1.2033e-18 	0.164878 	-0.00931646 	-7.48645e-24
6.06 	3.45254e-18 	-1.17937e-18 	0.248186 	-0.00426727 	-1.3669e-22
6.5 	3.45254e-18 	-1.15524e-18 	0.330463 	-0.000126599 	1.19208e-22
