/*--------------------------------*- C++ -*----------------------------------*\
  =========                 |
  \\      /  F ield         | OpenFOAM: The Open Source CFD Toolbox
   \\    /   O peration     | Website:  https://openfoam.org
    \\  /    A nd           | Version:  6.0
     \\/     M anipulation  |
\*---------------------------------------------------------------------------*/
FoamFile
{
    version     2.0;
    format      ascii;
    class       surfaceScalarField;
    location    "11.7";
    object      phi;
}
// * * * * * * * * * * * * * * * * * * * * * * * * * * * * * * * * * * * * * //

dimensions      [0 3 -1 0 0 0 0];

internalField   nonuniform List<scalar> 
15760
(
-3.76348e-06
3.85137e-06
-8.78931e-08
-1.31667e-05
9.63248e-06
-2.29243e-07
-2.68375e-05
1.4014e-05
-3.43194e-07
-4.37234e-05
1.732e-05
-4.34104e-07
-6.30187e-05
1.98013e-05
-5.0599e-07
-8.41212e-05
2.16652e-05
-5.62731e-07
-0.000106597
2.30838e-05
-6.07907e-07
-0.000130154
2.42016e-05
-6.44675e-07
-0.000154619
2.51402e-05
-6.75696e-07
-0.000179918
2.60023e-05
-7.03125e-07
-0.000206063
2.68745e-05
-7.28623e-07
-0.000233139
2.78287e-05
-7.53404e-07
-0.000261284
2.89232e-05
-7.78282e-07
-0.000290683
3.0203e-05
-8.03742e-07
-0.000321553
3.17003e-05
-8.30002e-07
-0.000354131
3.34345e-05
-8.57054e-07
-0.000388658
3.54119e-05
-8.84706e-07
-0.00042537
3.7625e-05
-9.12637e-07
-0.000464487
4.00571e-05
-9.40421e-07
4.27035e-05
-9.67737e-07
-0.000506223
-3.70182e-06
7.5532e-06
-1.29599e-05
1.88906e-05
-2.64198e-05
2.74739e-05
-4.30356e-05
3.39358e-05
-6.20024e-05
3.87681e-05
-8.27139e-05
4.23766e-05
-0.000104729
4.50992e-05
-0.000127746
4.72188e-05
-0.000151581
4.89747e-05
-0.000176148
5.05692e-05
-0.000201447
5.21739e-05
-0.000227551
5.39321e-05
-0.000254589
5.59612e-05
-0.000282739
5.83535e-05
-0.000312215
6.1176e-05
-0.000343252
6.44712e-05
-0.000376096
6.82557e-05
-0.000410989
7.25182e-05
-0.00044816
7.72281e-05
8.2376e-05
-0.000487832
-3.58462e-06
1.11378e-05
-1.25656e-05
2.78716e-05
-2.56214e-05
4.05297e-05
-4.17189e-05
5.00334e-05
-6.00538e-05
5.7103e-05
-8.00122e-05
6.2335e-05
-0.000101139
6.62264e-05
-0.000123115
6.91945e-05
-0.000145733
7.15923e-05
-0.000168884
7.37204e-05
-0.000192545
7.58346e-05
-0.000216764
7.81511e-05
-0.000241652
8.08499e-05
-0.000267374
8.40749e-05
-0.000294133
8.79349e-05
-0.000322164
9.25023e-05
-0.00035172
9.78121e-05
-0.000383058
0.000103856
-0.000416427
0.000110596
0.000118018
-0.000452069
-3.42081e-06
1.45586e-05
-1.20117e-05
3.64624e-05
-2.4496e-05
5.3014e-05
-3.98582e-05
6.53956e-05
-5.72951e-05
7.454e-05
-7.61825e-05
8.12223e-05
-9.60462e-05
8.60901e-05
-0.00011654
8.96879e-05
-0.000137425
9.24775e-05
-0.000158559
9.48542e-05
-0.000179881
9.71569e-05
-0.000201406
9.96762e-05
-0.000223215
0.000102658
-0.000245446
0.000106307
-0.000268291
0.00011078
-0.000291983
0.000116193
-0.000316783
0.000122612
-0.000342971
0.000130044
-0.000370828
0.000138453
0.000147825
-0.000400634
-3.22253e-06
1.77812e-05
-1.13359e-05
4.45757e-05
-2.31161e-05
6.47943e-05
-3.75689e-05
7.98483e-05
-5.38931e-05
9.08641e-05
-7.14523e-05
9.87815e-05
-8.97493e-05
0.000104387
-0.000108405
0.000108344
-0.000127142
0.000111215
-0.000145773
0.000113485
-0.000164189
0.000115573
-0.000182358
0.000117845
-0.000200318
0.000120618
-0.000218173
0.000124162
-0.000236091
0.000128698
-0.000254298
0.0001344
-0.000273068
0.000141382
-0.000292711
0.000149688
-0.000313559
0.000159301
0.000170216
-0.00033595
-3.00374e-06
2.07849e-05
-1.05818e-05
5.21538e-05
-2.15657e-05
7.57783e-05
-3.49844e-05
9.3267e-05
-5.00402e-05
0.00010592
-6.60847e-05
0.000114826
-8.25963e-05
0.000120899
-9.91603e-05
0.000124908
-0.000115454
0.000127509
-0.000131237
0.000129267
-0.000146342
0.000130679
-0.000160678
0.000132181
-0.000174224
0.000134164
-0.000187036
0.000136974
-0.000199247
0.000140909
-0.000211067
0.00014622
-0.000222781
0.000153096
-0.000234739
0.000161646
-0.000247338
0.0001719
0.000183884
-0.000261006
-2.77867e-06
2.35636e-05
-9.79375e-06
5.91689e-05
-1.99299e-05
8.59144e-05
-3.224e-05
0.000105577
-4.59317e-05
0.000119612
-6.03472e-05
0.000129241
-7.49415e-05
0.000135493
-8.92646e-05
0.000139231
-0.000102947
0.00014119
-0.000115688
0.000142009
-0.000127257
0.000142248
-0.000137489
0.000142412
-0.00014629
0.000142966
-0.000153651
0.000144334
-0.00015965
0.000146909
-0.000164468
0.000151038
-0.000168392
0.000157019
-0.000171813
0.000165067
-0.000175219
0.000175305
0.000187828
-0.000179163
-2.56014e-06
2.61237e-05
-9.01161e-06
6.56203e-05
-1.82849e-05
9.51878e-05
-2.94561e-05
0.000116748
-4.17409e-05
0.000131896
-5.4476e-05
0.000141977
-6.70985e-05
0.000148116
-7.91268e-05
0.000151259
-9.01462e-05
0.00015221
-9.97991e-05
0.000151662
-0.000107782
0.00015023
-0.000113848
0.000148479
-0.000117818
0.000146935
-0.000119592
0.000146108
-0.000119174
0.000146491
-0.00011669
0.000148555
-0.000112412
0.000152741
-0.000106769
0.000159425
-0.000100353
0.000168889
0.000181367
-9.38921e-05
-2.35814e-06
2.84819e-05
-8.26598e-06
7.15282e-05
-1.66884e-05
0.00010361
-2.67222e-05
0.000126782
-3.7594e-05
0.000142768
-4.86414e-05
0.000153024
-5.92911e-05
0.000158765
-6.90387e-05
0.000161007
-7.74324e-05
0.000160604
-8.40618e-05
0.000158291
-8.85536e-05
0.000154722
-9.05754e-05
0.0001505
-8.98472e-05
0.000146207
-8.61629e-05
0.000142424
-7.94208e-05
0.000139749
-6.96609e-05
0.000138795
-5.71071e-05
0.000140187
-4.22083e-05
0.000144526
-2.56672e-05
0.000152348
0.000164137
-8.43687e-06
-2.17865e-06
3.06605e-05
-7.57453e-06
7.6924e-05
-1.51717e-05
0.000111207
-2.40836e-05
0.000135694
-3.35499e-05
0.000152235
-4.29158e-05
0.00016239
-5.16079e-05
0.000167457
-5.91112e-05
0.00016851
-6.49501e-05
0.000166442
-6.86738e-05
0.000162015
-6.98494e-05
0.000155898
-6.80627e-05
0.000148714
-6.29301e-05
0.000141074
-5.41226e-05
0.000133617
-4.1405e-05
0.000127031
-2.46904e-05
0.00012208
-4.10952e-06
0.000119606
1.991e-05
0.000120506
4.65648e-05
0.000125694
0.000136073
7.4629e-05
-2.02313e-06
3.26836e-05
-6.93986e-06
8.18408e-05
-1.37353e-05
0.000118003
-2.15327e-05
0.000143491
-2.95853e-05
0.000160287
-3.72517e-05
0.000170056
-4.39685e-05
0.000174174
-4.92245e-05
0.000173766
-5.25372e-05
0.000169755
-5.34347e-05
0.000162912
-5.14437e-05
0.000153907
-4.6085e-05
0.000143355
-3.68804e-05
0.00013187
-2.33754e-05
0.000120112
-5.18138e-06
0.000108837
1.79555e-05
9.89434e-05
4.60557e-05
9.1506e-05
7.87767e-05
8.77854e-05
0.000115256
8.9214e-05
9.73659e-05
0.000153963
-1.88852e-06
3.45722e-05
-6.34946e-06
8.63017e-05
-1.23482e-05
0.000124002
-1.90077e-05
0.000150151
-2.55913e-05
0.000166871
-3.14735e-05
0.000175938
-3.61087e-05
0.000178809
-3.90016e-05
0.000176659
-3.96811e-05
0.000170435
-3.76773e-05
0.000160909
-3.25037e-05
0.000148733
-2.36458e-05
0.000134497
-1.0559e-05
0.000118783
7.31796e-06
0.000102235
3.05254e-05
8.56294e-05
5.95094e-05
6.99595e-05
9.44988e-05
5.65166e-05
0.000135321
4.69634e-05
0.000181137
4.33978e-05
4.83868e-05
0.000230116
-1.768e-06
3.63402e-05
-5.77765e-06
9.03114e-05
-1.09515e-05
0.000129175
-1.63973e-05
0.000155597
-2.13803e-05
0.000171854
-2.52869e-05
0.000179845
-2.75904e-05
0.000181113
-2.78182e-05
0.000176887
-2.55237e-05
0.00016814
-2.02605e-05
0.000155645
-1.15602e-05
0.000140033
1.08687e-06
0.00012185
1.82448e-05
0.000101625
4.05331e-05
7.99464e-05
6.86056e-05
5.75569e-05
0.000103089
3.54765e-05
0.000144452
1.51533e-05
0.00019278
-1.36477e-06
0.000247386
-1.12082e-05
-1.04417e-05
0.000306215
-1.65214e-06
3.79923e-05
-5.18919e-06
9.38484e-05
-9.46512e-06
0.000133451
-1.35532e-05
0.000159685
-1.67046e-05
0.000175005
-1.83059e-05
0.000181446
-1.784e-05
0.000180647
-1.4853e-05
0.0001739
-8.92547e-06
0.000162212
3.52903e-07
0.000146367
1.34071e-05
0.000126979
3.06996e-05
0.000104557
5.27528e-05
7.95718e-05
8.01671e-05
5.25322e-05
0.000113624
2.40996e-05
0.000153858
-4.7571e-06
0.000201549
-3.25376e-05
0.00025709
-5.69064e-05
0.000320104
-7.42217e-05
-7.8834e-05
0.000388496
-1.53031e-06
3.95226e-05
-4.54359e-06
9.68617e-05
-7.79716e-06
0.000136705
-1.03051e-05
0.000162193
-1.12818e-05
0.000175982
-1.00917e-05
0.000180256
-6.20699e-06
0.000176762
8.2602e-07
0.000166867
1.14129e-05
0.000151626
2.59327e-05
0.000131847
4.4757e-05
0.000108155
6.82705e-05
8.1044e-05
9.68945e-05
5.09478e-05
0.000131116
1.83109e-05
0.000171516
-1.63007e-05
0.000218787
-5.20277e-05
0.000273688
-8.74387e-05
0.000336874
-0.000120093
0.000408406
-0.000145753
-0.000156897
0.000486469
-1.39184e-06
4.09145e-05
-3.79895e-06
9.92688e-05
-5.85174e-06
0.000138758
-6.47616e-06
0.000162817
-4.82028e-06
0.000174326
-1.95625e-07
0.000175632
7.96871e-06
0.000168598
2.01588e-05
0.000154677
3.67975e-05
0.000134987
5.82583e-05
0.000110386
8.48745e-05
8.15384e-05
0.000116948
4.89705e-05
0.000154763
1.31326e-05
0.000198611
-2.5537e-05
0.00024883
-6.65195e-05
0.00030586
-0.000109058
0.000370289
-0.000151867
0.000442808
-0.000192612
0.000523898
-0.000226843
-0.0002454
0.000612401
-1.22666e-06
4.21411e-05
-2.91409e-06
0.000100956
-3.53415e-06
0.000139378
-1.89275e-06
0.000161176
2.96227e-06
0.000169471
1.18093e-05
0.000166785
2.53027e-05
0.000155105
4.4004e-05
0.000135975
6.83983e-05
0.000110593
9.88978e-05
7.98868e-05
0.000135838
4.45985e-05
0.000179466
5.34189e-06
0.000229937
-3.73385e-05
0.000287312
-8.29111e-05
0.00035158
-0.000130788
0.000422726
-0.000180205
0.00050083
-0.000229972
0.000586181
-0.000277963
0.000679288
-0.00031995
-0.000346052
0.00077994
-1.025e-06
4.31661e-05
-1.84827e-06
0.00010178
-7.51002e-07
0.00013828
3.61365e-06
0.000156811
1.23335e-05
0.000160751
2.63159e-05
0.000152802
4.63407e-05
0.00013508
7.30909e-05
0.000109225
0.000107163
7.6521e-05
0.000149059
3.79905e-05
0.000199172
-5.51411e-06
0.000257752
-5.32383e-05
0.000324875
-0.000104462
0.000400407
-0.000158443
0.000483978
-0.000214359
0.000575004
-0.00027123
0.000672771
-0.000327739
0.000776618
-0.00038181
0.000886227
-0.000429559
-0.000462218
0.00100239
-7.76467e-07
4.39426e-05
-5.58628e-07
0.000101562
2.59414e-06
0.000135128
1.02129e-05
0.000149192
2.35547e-05
0.000147409
4.36915e-05
0.000132665
7.15661e-05
0.000107205
0.00010802
7.2771e-05
0.0001538
3.0741e-05
0.000209543
-1.77519e-05
0.000275747
-7.17179e-05
0.000352733
-0.000130224
0.000440591
-0.000192321
0.000539116
-0.000256968
0.000647727
-0.00032297
0.000765382
-0.000388885
0.000890527
-0.000452884
0.0010211
-0.000512383
0.00115482
-0.000563274
-0.000600053
0.00129265
-4.68601e-07
4.44112e-05
1.00359e-06
0.000100089
6.60761e-06
0.000129524
1.80867e-05
0.000137713
3.6896e-05
0.0001286
6.42989e-05
0.000105263
0.000101424
7.00798e-05
0.00014929
2.4905e-05
0.000208804
-2.87723e-05
0.000280741
-8.96891e-05
0.00036572
-0.000156698
0.00046417
-0.000228674
0.000576292
-0.000304442
0.000702028
-0.000382705
0.000841019
-0.000461961
0.000992527
-0.000540393
0.00115527
-0.000615626
0.00132678
-0.000683893
0.00150083
-0.000737328
-0.000757535
0.00165832
-8.64385e-08
4.44976e-05
2.89512e-06
9.71079e-05
1.14102e-05
0.000121009
2.74368e-05
0.000121687
5.26478e-05
0.000103389
8.85114e-05
6.93989e-05
0.000136342
2.22488e-05
0.000197317
-3.60695e-05
0.000272461
-0.000103916
0.000362624
-0.000179852
0.000468454
-0.000262528
0.000590381
-0.000350601
0.000728628
-0.000442689
0.000883263
-0.00053734
0.00105434
-0.000633037
0.00124216
-0.000728216
0.00144781
-0.000821279
0.00167442
-0.000910502
0.00193121
-0.000994112
-0.00106605
0.00223972
3.90748e-07
4.41069e-05
5.18607e-06
9.23126e-05
1.71431e-05
0.000109052
3.84896e-05
0.00010034
7.11241e-05
7.07543e-05
0.000116712
2.38109e-05
0.000176724
-3.77627e-05
0.000252428
-0.000111774
0.000344864
-0.000196352
0.000454797
-0.000289785
0.000582687
-0.000390418
0.000728675
-0.000496588
0.000892595
-0.000606609
0.00107405
-0.000718793
0.00127252
-0.000831505
0.00148756
-0.00094326
0.00171912
-0.00105284
0.00196802
-0.00115941
0.00223648
-0.00126257
-0.00135415
0.00252459
9.84937e-07
4.3122e-05
7.9512e-06
8.53464e-05
2.39551e-05
9.30476e-05
5.14778e-05
7.28174e-05
9.26344e-05
2.95977e-05
0.000149254
-3.2809e-05
0.000222892
-0.000111401
0.000314796
-0.000203678
0.000425847
-0.000307403
0.000556503
-0.000420441
0.000706754
-0.000540669
0.000876113
-0.000665947
0.00106364
-0.000794138
0.00126802
-0.000923175
0.00148766
-0.00105114
0.0017208
-0.0011764
0.00196563
-0.00129766
0.00222035
-0.00141413
0.00248312
-0.00152534
-0.00162335
0.00275232
1.72059e-06
4.14014e-05
1.12689e-05
7.57981e-05
3.19948e-05
7.23217e-05
6.66209e-05
3.81913e-05
0.000117446
-2.12271e-05
0.000186394
-0.000101757
0.000274988
-0.000199995
0.000384282
-0.000312972
0.000514773
-0.000437894
0.000666336
-0.000572003
0.000838186
-0.00071252
0.0010289
-0.000856664
0.00123649
-0.00100173
0.0014585
-0.00114518
0.00169215
-0.00128479
0.00193445
-0.0014187
0.00218233
-0.00154554
0.00243263
-0.00166443
0.00268222
-0.00177494
-0.00187094
0.00292982
2.62172e-06
3.87796e-05
1.52123e-05
6.32075e-05
4.13922e-05
4.61418e-05
8.4091e-05
-4.50742e-06
0.000145725
-8.2861e-05
0.0002282
-0.000184232
0.000332835
-0.000304631
0.000460259
-0.000440395
0.000610305
-0.00058794
0.000781966
-0.000743664
0.000973399
-0.000903953
0.00118202
-0.00106528
0.00140464
-0.00122435
0.00163768
-0.00137822
0.00187735
-0.00152446
0.00211984
-0.00166119
0.00236148
-0.00178718
0.00259878
-0.00190174
0.0028286
-0.00200476
-0.00209231
0.00304998
3.70962e-06
3.507e-05
1.98412e-05
4.70759e-05
5.22401e-05
1.37429e-05
0.000103979
-5.6246e-05
0.000177483
-0.000156366
0.000274473
-0.000281221
0.000395831
-0.00042599
0.000541475
-0.000586039
0.000710271
-0.000756736
0.000900041
-0.000933433
0.00110767
-0.00111158
0.00132931
-0.00128692
0.00156065
-0.00145569
0.0017972
-0.00161477
0.00203457
-0.00176183
0.00226869
-0.00189532
0.00249598
-0.00201447
0.00271344
-0.00211919
0.00291868
-0.00221001
-0.002285
0.00311137
5.00094e-06
3.00691e-05
2.51947e-05
2.68821e-05
6.45781e-05
-2.56405e-05
0.000126264
-0.000117932
0.00021253
-0.000242631
0.00032468
-0.000393372
0.000462876
-0.000564186
0.000626007
-0.000749169
0.000811672
-0.000942402
0.00101631
-0.00113807
0.00123545
-0.00133073
0.00146408
-0.00151556
0.00169703
-0.00168864
0.00192933
-0.00184707
0.00215654
-0.00198903
0.00237493
-0.00211371
0.00258165
-0.00222118
0.00277466
-0.0023122
0.00295277
-0.00238811
-0.00244865
0.00311643
6.50631e-06
2.35628e-05
3.1286e-05
2.10246e-06
7.83796e-05
-7.27341e-05
0.000150793
-0.000190345
0.000250439
-0.000342278
0.000377926
-0.000520859
0.000532363
-0.000718623
0.000711299
-0.000928105
0.000910839
-0.00114194
0.00112595
-0.00135319
0.00135093
-0.0015557
0.00157989
-0.00174451
0.00180725
-0.001916
0.00202815
-0.00206796
0.00223866
-0.00219955
0.00243597
-0.00231102
0.00261831
-0.00240352
0.00278492
-0.00247881
0.00293584
-0.00253904
-0.0025852
0.00307238
8.22944e-06
1.53333e-05
3.80977e-05
-2.77658e-05
9.3543e-05
-0.000128179
0.000177265
-0.000274067
0.000290541
-0.000455554
0.000432953
-0.000663271
0.00060223
-0.000887899
0.00079432
-0.0011202
0.00100373
-0.00135135
0.00122408
-0.00157353
0.00144872
-0.00178034
0.00167139
-0.00196718
0.00188669
-0.0021313
0.00209042
-0.0022717
0.0022797
-0.00238882
0.00245292
-0.00248424
0.00260962
-0.00256022
0.00275025
-0.00261945
0.00287592
-0.00266471
-0.00269789
0.00298862
1.01665e-05
5.16687e-06
4.55801e-05
-6.31794e-05
0.000109887
-0.000192486
0.000205228
-0.000369409
0.000331927
-0.000582253
0.000488192
-0.000819535
0.000670076
-0.00106978
0.000871794
-0.00132191
0.00108633
-0.00156589
0.00130626
-0.00179346
0.00152451
-0.00199859
0.00173502
-0.00217769
0.00193316
-0.00232944
0.00211587
-0.0024544
0.00228157
-0.00255452
0.00243
-0.00263268
0.00256192
-0.00269214
0.00267874
-0.00273628
0.00278232
-0.00276829
-0.00279057
0.002875
1.23054e-05
-7.13852e-06
5.36485e-05
-0.000104523
0.000127147
-0.000265985
0.000234086
-0.000476347
0.000373479
-0.000721647
0.000541835
-0.000987891
0.00073334
-0.00126129
0.000940495
-0.00152907
0.00115506
-0.00178046
0.00136904
-0.00200744
0.00157555
-0.0022051
0.00176933
-0.00237148
0.00194696
-0.00250707
0.00210677
-0.00261421
0.00224859
-0.00269634
0.00237336
-0.00275745
0.00248277
-0.00280155
0.00257889
-0.0028324
0.00266393
-0.00285333
-0.00286694
0.0027403
1.46255e-05
-2.1764e-05
6.2183e-05
-0.00015208
0.000144982
-0.000348784
0.000263109
-0.000594474
0.00041392
-0.000872458
0.000591962
-0.00116593
0.000789502
-0.00145883
0.000997559
-0.00173712
0.00120712
-0.00199002
0.00141026
-0.00221058
0.00160085
-0.00239569
0.00177489
-0.00254552
0.00193044
-0.00266261
0.00206726
-0.00275103
0.00218642
-0.00281551
0.0022898
-0.00286083
0.00237968
-0.00289142
0.00245843
-0.00291115
0.00252832
-0.00292321
-0.00293018
0.00259156
1.70967e-05
-3.88607e-05
7.10286e-05
-0.000206012
0.000162977
-0.000440732
0.000291472
-0.000722969
0.000451891
-0.00103288
0.000636677
-0.00135072
0.000836314
-0.00165847
0.00104075
-0.00194156
0.00124079
-0.00219007
0.00142918
-0.00239897
0.00160105
-0.00256756
0.00175391
-0.00269838
0.00188734
-0.00279604
0.00200239
-0.00286608
0.00210107
-0.00291419
0.00218586
-0.00294561
0.00225929
-0.00296486
0.00232375
-0.00297562
0.00238136
-0.00298083
-0.00298285
0.00243403
1.96796e-05
-5.85404e-05
7.99977e-05
-0.00026633
0.00018066
-0.000541394
0.000318286
-0.000860595
0.000486036
-0.00120063
0.000674262
-0.00153895
0.000871983
-0.00185619
0.00106862
-0.0021382
0.00125545
-0.0023769
0.00142638
-0.0025699
0.00157808
-0.00271926
0.00170967
-0.00282997
0.00182208
-0.00290844
0.00191736
-0.00296137
0.00199815
-0.00299498
0.00206717
-0.00301463
0.00212697
-0.00302465
0.00217975
-0.0030284
0.00222736
-0.00302844
-0.00302683
0.00227135
2.23255e-05
-8.08659e-05
8.88752e-05
-0.00033288
0.00019752
-0.000650039
0.000342655
-0.00100573
0.000515103
-0.00137307
0.000703311
-0.00172715
0.00089531
-0.00204819
0.00108062
-0.00232351
0.00125153
-0.0025478
0.00140346
-0.00272183
0.00153475
-0.00285056
0.00164598
-0.0029412
0.00173916
-0.00300162
0.00181703
-0.00303923
0.0018825
-0.00306045
0.00193831
-0.00307044
0.00198683
-0.00307317
0.00202998
-0.00307155
0.00206929
-0.00306774
-0.00306349
0.00210595
2.49775e-05
-0.000105843
9.74263e-05
-0.000405329
0.000213034
-0.000765646
0.000363732
-0.00115643
0.000538031
-0.00154737
0.000722827
-0.00191195
0.000905742
-0.0022311
0.00107699
-0.00249476
0.00123028
-0.00270108
0.00136273
-0.00285428
0.00147427
-0.0029621
0.00156667
-0.00303361
0.00164272
-0.00307767
0.00170553
-0.00310203
0.00175803
-0.00311295
0.00180279
-0.0031152
0.00184188
-0.00311227
0.00187693
-0.0031066
0.00190913
-0.00309995
-0.00309376
0.00193939
2.75722e-05
-0.000133416
0.000105407
-0.000483163
0.000226696
-0.000886935
0.000380775
-0.00131051
0.000554023
-0.00172062
0.000732274
-0.0020902
0.000903347
-0.00240217
0.00105864
-0.00265006
0.00119354
-0.00283598
0.00130686
-0.0029676
0.00139988
-0.00305512
0.0014753
-0.00310903
0.00153635
-0.00313873
0.00158624
-0.00315192
0.00162774
-0.00315446
0.00166315
-0.00315062
0.00169422
-0.00314333
0.00172225
-0.00313463
0.00174817
-0.00312587
-0.00311823
0.00177265
3.00422e-05
-0.000163458
0.000112575
-0.000565696
0.000238047
-0.00101241
0.000393189
-0.00146565
0.000562585
-0.00189002
0.000731571
-0.00225919
0.00088872
-0.00255932
0.00102697
-0.00278831
0.00114347
-0.00295247
0.00123857
-0.0030627
0.00131464
-0.00313119
0.00137497
-0.00316936
0.001423
-0.00318675
0.0014618
-0.00319071
0.0014939
-0.00318656
0.00152125
-0.00317797
0.0015453
-0.00316738
0.00156706
-0.00315638
0.00158724
-0.00314605
-0.00313731
0.00160632
3.23189e-05
-0.000195777
0.000118703
-0.00065208
0.000246698
-0.0011404
0.000400564
-0.00161951
0.000563538
-0.00205299
0.000721041
-0.00241669
0.000862857
-0.00270114
0.000983669
-0.00290912
0.00108231
-0.00305111
0.00116044
-0.00314083
0.00122123
-0.00319197
0.00126828
-0.00321641
0.00130499
-0.00322346
0.0013342
-0.00321992
0.00135811
-0.00321048
0.00137836
-0.00319822
0.00139608
-0.0031851
0.00141207
-0.00317237
0.00142686
-0.00316085
-0.00315123
0.00144078
3.43358e-05
-0.000230112
0.000123591
-0.000741335
0.000252356
-0.00126917
0.000402683
-0.00176984
0.000556993
-0.0022073
0.000701328
-0.00256102
0.000827018
-0.00282683
0.000930533
-0.00301264
0.00101224
-0.00313282
0.00107482
-0.00320341
0.00112194
-0.0032391
0.0011573
-0.00325177
0.00118411
-0.00325027
0.00120491
-0.00324072
0.00122155
-0.00322712
0.00123536
-0.00321202
0.00124723
-0.00319697
0.00125777
-0.00318291
0.00126737
-0.00317045
-0.00316013
0.00127628
3.60348e-05
-0.000266147
0.000127082
-0.000832382
0.000254839
-0.00139693
0.000399535
-0.00191454
0.000543325
-0.00235109
0.000673329
-0.00269103
0.000782612
-0.00293611
0.000869367
-0.00309939
0.000935254
-0.0031987
0.00098371
-0.00325187
0.00101865
-0.00327404
0.00104368
-0.00327681
0.00106174
-0.00326833
0.00107501
-0.00325399
0.00108503
-0.00323715
0.00109286
-0.00321985
0.00109919
-0.0032033
0.00110448
-0.0031882
0.00110902
-0.003175
-0.00316409
0.00111299
3.73553e-05
-0.000303502
0.00012904
-0.000924066
0.000254046
-0.00152193
0.000391243
-0.00205174
0.000523055
-0.0024829
0.000638027
-0.002806
0.000731026
-0.00302911
0.000801814
-0.00317018
0.000853088
-0.00324998
0.000888769
-0.00328755
0.000912825
-0.0032981
0.000928646
-0.00329263
0.000938834
-0.00327852
0.00094524
-0.00326039
0.000949111
-0.00324102
0.000951268
-0.00322201
0.000952248
-0.00320428
0.000952406
-0.00318836
0.000951962
-0.00317456
-0.00316315
0.000951025
3.82563e-05
-0.000341759
0.000129397
-0.00101521
0.000250006
-0.00164254
0.000378109
-0.00217984
0.000496877
-0.00260167
0.000596511
-0.00290563
0.000673645
-0.00310624
0.000729399
-0.00322593
0.000767251
-0.00328783
0.000791377
-0.00331167
0.000805642
-0.00331236
0.000813144
-0.00330013
0.000816139
-0.00328151
0.000816158
-0.00326041
0.000814195
-0.00323906
0.000810886
-0.0032187
0.000806643
-0.00320003
0.000801739
-0.00318346
0.000796339
-0.00316916
-0.00315734
0.000790524
3.87043e-05
-0.000380463
0.000128125
-0.00110463
0.00024283
-0.00175725
0.000360531
-0.00229754
0.000465545
-0.00270669
0.000549851
-0.00298994
0.000611735
-0.00316813
0.000653444
-0.00326764
0.000678993
-0.00331338
0.000692628
-0.00332531
0.000698001
-0.00331773
0.00069788
-0.00330001
0.000694183
-0.00327782
0.000688155
-0.00325438
0.000680576
-0.00323148
0.000671932
-0.00321005
0.000662539
-0.00319064
0.00065261
-0.00317353
0.000642274
-0.00315882
-0.00314666
0.000631591
3.86781e-05
-0.000419141
0.000125239
-0.00119119
0.000232705
-0.00186471
0.000338982
-0.00240382
0.00042984
-0.00279754
0.000499067
-0.00305917
0.000546432
-0.00321549
0.000575074
-0.00329628
0.000589332
-0.00332764
0.000593378
-0.00332936
0.000590584
-0.00331494
0.000583373
-0.0032928
0.000573351
-0.00326779
0.000561513
-0.00324255
0.000548462
-0.00321843
0.000534566
-0.00319616
0.000520069
-0.00317614
0.000505136
-0.00315859
0.000489873
-0.00314356
-0.00313111
0.000474329
3.81683e-05
-0.000457309
0.000120796
-0.00127382
0.000219874
-0.00196379
0.000313972
-0.00249792
0.000390532
-0.0028741
0.000445097
-0.00311373
0.000478729
-0.00324912
0.000495231
-0.00331279
0.000499088
-0.00333149
0.000494296
-0.00332456
0.000483904
-0.00330455
0.000470006
-0.0032789
0.000453921
-0.00325171
0.000436438
-0.00322506
0.000418011
-0.0032
0.000398917
-0.00317706
0.00037934
-0.00315657
0.000359415
-0.00313867
0.000339233
-0.00312338
-0.00311071
0.000318836
3.71772e-05
-0.000494487
0.000114885
-0.00135152
0.00020462
-0.00205353
0.00028603
-0.00257933
0.000348351
-0.00293642
0.000388785
-0.00315416
0.000409475
-0.00326981
0.000414688
-0.003318
0.000408913
-0.00332572
0.000395893
-0.00331154
0.000378348
-0.003287
0.000358058
-0.00325861
0.000336099
-0.00322975
0.00031308
-0.00320204
0.000289342
-0.00317626
0.000265083
-0.00315281
0.000240444
-0.00313193
0.000215535
-0.00311376
0.000190439
-0.00309828
-0.00308547
0.000165198
3.57174e-05
-0.000530204
0.00010762
-0.00142343
0.000187252
-0.00213316
0.000255674
-0.00264775
0.000303975
-0.00298472
0.000330873
-0.00318106
0.00033939
-0.00327833
0.000334079
-0.00331269
0.00031932
-0.00331096
0.000298565
-0.00329079
0.000274204
-0.00326264
0.000247738
-0.00323215
0.000220033
-0.00320204
0.000191555
-0.00317357
0.000162546
-0.00314725
0.000133146
-0.00312341
0.000103457
-0.00310224
7.35704e-05
-0.00308387
4.35666e-05
-0.00306828
-0.0030554
1.34949e-05
3.3811e-05
-0.000564015
9.91372e-05
-0.00148875
0.000168086
-0.00220211
0.000223401
-0.00270306
0.000258017
-0.00301934
0.000272006
-0.00319505
0.000269074
-0.0032754
0.000253913
-0.00329753
0.000230713
-0.00328776
0.000202613
-0.00326269
0.000171692
-0.00323172
0.000139203
-0.00319966
0.000105838
-0.00316868
7.19465e-05
-0.00313967
3.76952e-05
-0.003113
3.17009e-06
-0.00308888
-3.15599e-05
-0.00306751
-6.64177e-05
-0.00304902
-0.00010132
-0.00303337
-0.00302051
-0.000136206
3.14876e-05
-0.000595503
8.95825e-05
-0.00154685
0.000147437
-0.00225996
0.000189676
-0.0027453
0.000211025
-0.00304069
0.000212738
-0.00319676
0.000199028
-0.00326169
0.000174605
-0.0032731
0.000143415
-0.00325657
0.000108276
-0.00322755
7.09815e-05
-0.00319443
3.25719e-05
-0.00316125
-6.40175e-06
-0.00312971
-4.56802e-05
-0.0031004
-8.51596e-05
-0.00307352
-0.0001248
-0.00304924
-0.000164564
-0.00302775
-0.000204387
-0.00300919
-0.000244177
-0.00299358
-0.00298083
-0.000283858
2.87833e-05
-0.000624286
7.91109e-05
-0.00159718
0.000125612
-0.00230646
0.000154928
-0.00277462
0.000163483
-0.00304924
0.00015354
-0.00318682
0.000129668
-0.00323782
9.64938e-05
-0.00323993
5.76847e-05
-0.00321776
1.57452e-05
-0.00318561
-2.77888e-05
-0.00315089
-7.20557e-05
-0.00311698
-0.000116616
-0.00308515
-0.000161277
-0.00305573
-0.000205985
-0.00302881
-0.000250739
-0.00300448
-0.000295537
-0.00298295
-0.000340327
-0.0029644
-0.000385005
-0.00294891
-0.00293637
-0.000429467
2.57393e-05
-0.000650025
6.78795e-05
-0.00163932
0.000102905
-0.00234149
0.000119546
-0.00279126
0.000115816
-0.00304551
9.48185e-05
-0.00316582
6.13422e-05
-0.00320434
1.98606e-05
-0.00319845
-2.62602e-05
-0.00317164
-7.48142e-05
-0.00313706
-0.000124495
-0.00310121
-0.00017459
-0.00306689
-0.000224741
-0.00303499
-0.000274804
-0.00300567
-0.00032476
-0.00297886
-0.000374645
-0.0029546
-0.000424493
-0.0029331
-0.000474274
-0.00291462
-0.000523866
-0.00289931
-0.00288711
-0.000573126
2.24003e-05
-0.000672426
5.60447e-05
-0.00167296
7.95889e-05
-0.00236503
8.38832e-05
-0.00279555
6.83967e-05
-0.00303003
3.69206e-05
-0.00313435
-5.65047e-06
-0.00316177
-5.50518e-05
-0.00314905
-0.000108226
-0.00311847
-0.000163248
-0.00308203
-0.000219014
-0.00304544
-0.000274933
-0.00301097
-0.000330708
-0.00297922
-0.000386221
-0.00295016
-0.00044147
-0.00292361
-0.000496526
-0.00289954
-0.000551466
-0.00287816
-0.00060629
-0.0028598
-0.000660866
-0.00284474
-0.00283299
-0.000714991
1.88135e-05
-0.000691239
4.37591e-05
-0.00169791
5.59208e-05
-0.00237719
4.82551e-05
-0.00278789
2.15526e-05
-0.00300333
-1.98514e-05
-0.00309294
-7.10495e-05
-0.00311057
-0.000128025
-0.00309207
-0.000188028
-0.00305846
-0.000249396
-0.00302066
-0.000311207
-0.00298363
-0.000372969
-0.00294921
-0.000434427
-0.00291776
-0.000495468
-0.00288912
-0.000556093
-0.00286298
-0.00061639
-0.00283925
-0.000676487
-0.00281806
-0.000736433
-0.00279985
-0.000796093
-0.00278508
-0.00277391
-0.000855167
1.50275e-05
-0.000706267
3.11699e-05
-0.00171405
3.21365e-05
-0.00237816
1.29461e-05
-0.0027687
-2.44274e-05
-0.00296595
-7.52308e-05
-0.00304214
-0.00013462
-0.00305118
-0.000198851
-0.00302784
-0.000265477
-0.00299184
-0.000333081
-0.00295306
-0.000400901
-0.00291581
-0.000468537
-0.00288157
-0.000535763
-0.00285054
-0.000602455
-0.00282243
-0.000668587
-0.00279685
-0.000734246
-0.00277359
-0.000799595
-0.00275271
-0.000864755
-0.00273469
-0.0009296
-0.00272023
-0.00270982
-0.00099369
1.10917e-05
-0.000717358
1.84169e-05
-0.00172137
8.45245e-06
-0.00236819
-2.17902e-05
-0.00273846
-6.92877e-05
-0.00291845
-0.00012898
-0.00298245
-0.000196145
-0.00298402
-0.000267328
-0.00295666
-0.000340372
-0.00291879
-0.00041409
-0.00287934
-0.000487874
-0.00284203
-0.00056141
-0.00280803
-0.000634503
-0.00277744
-0.000707012
-0.00274992
-0.000778863
-0.002725
-0.000850096
-0.00270235
-0.000920887
-0.00268192
-0.000991431
-0.00266415
-0.00106164
-0.00265003
-0.00264051
-0.00113095
7.0545e-06
-0.000724413
5.63124e-06
-0.00171995
-1.49355e-05
-0.00234763
-5.57285e-05
-0.00269766
-0.000112802
-0.00286138
-0.000180885
-0.00291437
-0.000255421
-0.00290948
-0.000333248
-0.00287883
-0.000412491
-0.00283955
-0.000492175
-0.00279966
-0.000571842
-0.00276236
-0.000651272
-0.0027286
-0.000730317
-0.0026984
-0.000808837
-0.0026714
-0.000886703
-0.00264714
-0.000963878
-0.00262518
-0.00104051
-0.00260529
-0.00111689
-0.00258777
-0.00119301
-0.00257392
-0.00256502
-0.00126849
2.96323e-06
-0.000727376
-7.06605e-06
-0.00170992
-3.78522e-05
-0.00231684
-8.86711e-05
-0.00264684
-0.000154774
-0.00279528
-0.000230754
-0.00283838
-0.000312255
-0.00282798
-0.000396405
-0.00279468
-0.000481594
-0.00275436
-0.000567048
-0.00271421
-0.000652457
-0.00267695
-0.000737711
-0.00264335
-0.000822747
-0.00261336
-0.000907466
-0.00258668
-0.000991719
-0.00256288
-0.0010754
-0.0025415
-0.0011586
-0.00252209
-0.00124172
-0.00250464
-0.00132499
-0.00249065
-0.00248102
-0.00140899
-1.13757e-06
-0.000726238
-1.95658e-05
-0.00169149
-6.01446e-05
-0.00227626
-0.000120449
-0.00258654
-0.000195032
-0.00272069
-0.000278419
-0.002755
-0.000366468
-0.00273993
-0.00045659
-0.00270456
-0.000547418
-0.00266353
-0.000638366
-0.00262326
-0.000729272
-0.00258605
-0.000820161
-0.00255246
-0.000911111
-0.00252241
-0.00100215
-0.00249563
-0.00109324
-0.0024718
-0.00118426
-0.00245049
-0.00127522
-0.00243113
-0.00136648
-0.00241338
-0.00145862
-0.00239851
-0.00238526
-0.00155439
-5.20693e-06
-0.000721031
-3.17723e-05
-0.00166493
-8.16832e-05
-0.00222635
-0.000150923
-0.0025173
-0.000233443
-0.00263817
-0.000323747
-0.00266469
-0.000417913
-0.00264576
-0.000513615
-0.00260886
-0.000609702
-0.00256745
-0.000705747
-0.00252721
-0.000801715
-0.00249008
-0.000897768
-0.00245641
-0.000994164
-0.00242602
-0.0010912
-0.0023986
-0.00118916
-0.00237384
-0.00128825
-0.0023514
-0.00138858
-0.00233079
-0.00149074
-0.00231123
-0.00159701
-0.00229223
-0.00228544
-0.00169683
-9.19614e-06
-0.000711835
-4.35845e-05
-0.00163054
-0.000102341
-0.0021676
-0.000179965
-0.00243968
-0.000269887
-0.00254825
-0.000366625