/*--------------------------------*- C++ -*----------------------------------*\
  =========                 |
  \\      /  F ield         | OpenFOAM: The Open Source CFD Toolbox
   \\    /   O peration     | Website:  https://openfoam.org
    \\  /    A nd           | Version:  6.0
     \\/     M anipulation  |
\*---------------------------------------------------------------------------*/
FoamFile
{
    version     2.0;
    format      ascii;
    class       volVectorField;
    location    "11.7";
    object      U;
}
// * * * * * * * * * * * * * * * * * * * * * * * * * * * * * * * * * * * * * //

dimensions      [0 1 -1 0 0 0 0];

internalField   nonuniform List<vector> 
8000
(
(-0.000657622 0.000778007 -3.90534e-21)
(-0.00351633 0.00191093 2.08767e-20)
(-0.00874548 0.00271073 -2.54007e-20)
(-0.0151538 0.00326705 1.93458e-20)
(-0.0221476 0.00364294 9.42548e-21)
(-0.0294091 0.00388712 -2.83051e-20)
(-0.0367173 0.00403926 -2.50376e-21)
(-0.0439343 0.00413169 -8.9163e-22)
(-0.0509891 0.00419077 -1.47157e-20)
(-0.0578581 0.00423797 -7.98021e-21)
(-0.0645513 0.00429075 5.94392e-21)
(-0.0711025 0.00436302 2.26424e-20)
(-0.0775612 0.00446554 -1.68193e-21)
(-0.0839847 0.00460617 2.44095e-21)
(-0.0904365 0.00478998 -2.28627e-20)
(-0.0969962 0.0050191 1.41004e-20)
(-0.103738 0.00529317 -2.02442e-20)
(-0.110569 0.00561227 3.06474e-20)
(-0.117242 0.00597777 -3.39429e-23)
(-0.124876 0.00636601 6.70269e-21)
(-0.00076483 0.00224809 1.29689e-20)
(-0.00375356 0.0055139 -6.6293e-20)
(-0.00903069 0.00780945 -4.5806e-20)
(-0.0154318 0.00939668 -3.1117e-20)
(-0.0223767 0.0104597 -4.0044e-20)
(-0.0295549 0.0111403 8.80165e-21)
(-0.0367505 0.011554 -4.62505e-20)
(-0.0438289 0.0117946 -1.04024e-20)
(-0.050721 0.0119388 3.26624e-21)
(-0.0574042 0.0120491 3.45974e-20)
(-0.0638893 0.0121767 -3.7778e-20)
(-0.0702105 0.0123623 5.25802e-20)
(-0.0764181 0.0126382 -3.94064e-20)
(-0.0825704 0.0130279 -4.67826e-20)
(-0.0887324 0.013547 -6.45755e-20)
(-0.0949858 0.0142026 4.11874e-20)
(-0.101408 0.0149942 -1.33996e-20)
(-0.107909 0.0159228 -4.87421e-20)
(-0.114236 0.0169937 4.61033e-20)
(-0.121514 0.0181359 -3.45059e-20)
(-0.000974972 0.00367343 1.26808e-19)
(-0.00422041 0.00901499 6.57013e-20)
(-0.00959491 0.0127694 7.38993e-20)
(-0.0159853 0.0153611 6.15279e-21)
(-0.0228372 0.0170899 4.08549e-20)
(-0.0298547 0.0181876 5.10048e-20)
(-0.0368317 0.0188431 -9.27129e-20)
(-0.0436401 0.0192102 -4.91288e-20)
(-0.0502145 0.0194148 -6.40343e-20)
(-0.0565344 0.0195603 6.83527e-20)
(-0.0626119 0.0197314 -5.22389e-20)
(-0.0684823 0.0199966 -6.72805e-20)
(-0.074197 0.0204103 -2.45106e-20)
(-0.0798166 0.0210134 2.3293e-20)
(-0.085409 0.0218338 -6.5421e-21)
(-0.09106 0.0228851 9.31291e-21)
(-0.0968538 0.0241686 1.08553e-19)
(-0.102706 0.0256877 -1.51664e-20)
(-0.108355 0.0274538 -1.10649e-19)
(-0.114932 0.0293481 1.47078e-19)
(-0.00128216 0.00502806 4.41615e-20)
(-0.00490701 0.0123539 -6.23318e-20)
(-0.0104309 0.0175072 -1.56503e-20)
(-0.0168127 0.02106 2.92581e-20)
(-0.0235351 0.0234196 8.30851e-20)
(-0.0303234 0.0249025 1.81951e-19)
(-0.036986 0.0257672 1.77849e-19)
(-0.0434043 0.0262252 1.48003e-20)
(-0.0495186 0.02645 1.0915e-19)
(-0.0553114 0.0265847 1.67144e-19)
(-0.0607965 0.0267477 -1.33673e-19)
(-0.0660107 0.0270361 1.97815e-19)
(-0.071007 0.027528 -4.49295e-20)
(-0.0758489 0.0282841 1.12642e-20)
(-0.0806084 0.0293474 4.69744e-20)
(-0.0853777 0.0307415 6.25419e-20)
(-0.0902512 0.0324723 -9.82738e-20)
(-0.0951542 0.0345488 -8.2177e-20)
(-0.0998125 0.0369922 -1.4574e-19)
(-0.10537 0.0396357 2.13629e-19)
(-0.00167841 0.00629069 -2.30625e-20)
(-0.0057996 0.0154795 -2.3618e-19)
(-0.0115281 0.0219509 -6.98771e-20)
(-0.017911 0.0264053 -1.70292e-19)
(-0.0244774 0.0293475 6.43731e-20)
(-0.0309799 0.0311719 -1.01559e-19)
(-0.0372462 0.0322019 3.49494e-20)
(-0.04317 0.0327027 -2.15233e-19)
(-0.0486992 0.0328928 1.13576e-19)
(-0.0538203 0.032954 -1.35495e-19)
(-0.0585493 0.0330377 -1.20571e-19)
(-0.062924 0.0332705 -1.35113e-19)
(-0.0669996 0.0337565 1.22727e-19)
(-0.0708426 0.034579 -1.10296e-19)
(-0.0745302 0.0358004 1.53644e-19)
(-0.0781629 0.0374594 4.45152e-20)
(-0.0818488 0.039571 1.10309e-19)
(-0.0855277 0.0421546 4.85285e-20)
(-0.0889137 0.0452479 -1.92091e-19)
(-0.0931636 0.0486368 3.15319e-19)
(-0.00215443 0.00744594 1.01785e-19)
(-0.00688158 0.0183527 7.79618e-21)
(-0.0128728 0.0260424 4.19242e-20)
(-0.0192743 0.0313244 1.46274e-19)
(-0.025669 0.0347893 -2.23837e-20)
(-0.0318426 0.0369012 2.376e-19)
(-0.0376463 0.0380425 1.05503e-19)
(-0.0429895 0.0385274 8.8641e-21)
(-0.0478294 0.0386162 2.71446e-19)
(-0.0521575 0.0385265 8.90183e-20)
(-0.055992 0.0384423 4.22417e-20)
(-0.0593719 0.0385197 1.34091e-19)
(-0.0623536 0.0388908 1.23011e-19)
(-0.0650065 0.0396657 2.24808e-19)
(-0.0674137 0.0409315 -2.00955e-19)
(-0.0696853 0.042748 2.84652e-19)
(-0.0719469 0.0451472 4.00373e-21)
(-0.0741582 0.0481663 -3.64473e-19)
(-0.0760253 0.0518689 4.73089e-19)
(-0.0787202 0.0559973 1.98033e-19)
(-0.0027005 0.00848465 -5.99801e-20)
(-0.00813458 0.0209465 -1.08926e-19)
(-0.0144481 0.0297398 -2.26592e-19)
(-0.020892 0.0357626 -6.71562e-21)
(-0.0271093 0.0396798 3.869e-20)
(-0.0329235 0.0420171 -2.89385e-19)
(-0.0382138 0.0432084 -2.1474e-19)
(-0.0429086 0.0436117 -3.07049e-20)
(-0.0469764 0.043524 -2.71777e-19)
(-0.0504149 0.0431957 -1.88271e-19)
(-0.0532446 0.0428408 -5.4882e-20)
(-0.0555049 0.0426448 -1.76811e-19)
(-0.0572523 0.0427694 -2.82897e-21)
(-0.0585586 0.0433548 -2.35087e-19)
(-0.0595119 0.0445192 9.9089e-20)
(-0.0602331 0.0463526 -1.13015e-19)
(-0.0608679 0.0489134 8.68549e-20)
(-0.0614031 0.052268 -1.10248e-19)
(-0.0615436 0.0565198 -3.1588e-19)
(-0.0624818 0.0613761 -9.6261e-20)
(-0.00330728 0.00940371 -2.21229e-20)
(-0.00953918 0.0232468 -2.40071e-20)
(-0.0162333 0.0330166 1.90008e-19)
(-0.022747 0.0396832 -3.09232e-19)
(-0.0287875 0.0439746 4.53655e-20)
(-0.0342212 0.0464695 -1.78644e-19)
(-0.0389596 0.0476461 8.44239e-20)
(-0.0429535 0.0478993 3.79579e-19)
(-0.0461854 0.0475573 -2.43044e-20)
(-0.0486603 0.0468982 -2.83325e-19)
(-0.0504013 0.0461624 5.1502e-20)
(-0.0514473 0.0455628 9.94537e-21)
(-0.0518538 0.0452904 -5.83305e-20)
(-0.0516925 0.045519 5.76886e-21)
(-0.0510555 0.0464042 5.12521e-19)
(-0.0500739 0.0480758 -7.29314e-20)
(-0.0489157 0.0506324 -1.42588e-19)
(-0.0476015 0.0541853 -2.56241e-19)
(-0.0458472 0.0588981 2.61334e-19)
(-0.0448749 0.064459 1.13239e-19)
(-0.00396627 0.0102051 1.11536e-19)
(-0.0110754 0.0252502 -1.45961e-19)
(-0.0182034 0.0358608 2.06323e-19)
(-0.0248125 0.0430664 2.07658e-19)
(-0.0306778 0.0476488 1.91406e-19)
(-0.0357131 0.0502316 3.8814e-19)
(-0.0398668 0.0513299 2.51032e-19)
(-0.0431158 0.051368 -5.39488e-19)
(-0.0454598 0.0506986 2.75956e-19)
(-0.0469129 0.0496209 2.16611e-19)
(-0.0475015 0.0483963 -3.02784e-21)
(-0.0472633 0.0472603 2.42639e-19)
(-0.0462509 0.0464314 1.8934e-19)
(-0.0445334 0.0461176 -1.02959e-19)
(-0.042204 0.046517 3.48398e-19)
(-0.0394021 0.0478098 -4.31983e-19)
(-0.0363187 0.0501507 1.73095e-19)
(-0.0330147 0.0537179 2.2291e-19)
(-0.0292329 0.0587635 -5.22225e-20)
(-0.0262439 0.0649841 4.49574e-19)
(-0.00467009 0.0108944 2.24319e-19)
(-0.0127226 0.0269612 1.16066e-20)
(-0.0203275 0.0382717 -8.04698e-20)
(-0.0270496 0.0459067 -8.4961e-20)
(-0.032734 0.0506948 -3.9342e-19)
(-0.0373472 0.0532979 5.57e-20)
(-0.0408788 0.0542604 1.57859e-19)
(-0.0433365 0.054029 -7.59031e-20)
(-0.0447404 0.0529729 6.26159e-20)
(-0.0451167 0.0514049 -1.66172e-20)
(-0.0444962 0.0495994 -8.18547e-20)
(-0.0429158 0.0478074 7.76446e-20)
(-0.0404231 0.0462692 -3.38217e-19)
(-0.037082 0.045224 3.24121e-19)
(-0.032983 0.0449143 -2.81062e-19)
(-0.0282703 0.0455793 8.68255e-20)
(-0.0231565 0.0474473 1.97807e-19)
(-0.0177476 0.0507903 -4.12021e-20)
(-0.0118325 0.0559882 -1.37129e-19)
(-0.00676237 0.0627894 -9.32334e-20)
(-0.00541231 0.0114793 -2.79434e-19)
(-0.0144588 0.0283894 -1.83008e-20)
(-0.0225677 0.0402559 5.88216e-20)
(-0.0294035 0.0482082 1.51125e-19)
(-0.0348847 0.0531177 -2.13374e-19)
(-0.0390344 0.0556789 -1.86167e-19)
(-0.0418887 0.0564598 4.34538e-19)
(-0.0434904 0.0559223 -2.40096e-19)
(-0.0438844 0.0544444 -1.54885e-19)
(-0.0431123 0.052344 -2.22263e-19)
(-0.0412122 0.0498987 1.47158e-19)
(-0.0382213 0.0473652 -3.98993e-21)
(-0.0341822 0.0449957 -2.74874e-19)
(-0.0291509 0.0430524 -4.4993e-19)
(-0.023211 0.0418179 3.42775e-19)
(-0.016507 0.041594 -2.77969e-19)
(-0.00926951 0.0426971 3.94305e-19)
(-0.0016522 0.0455238 -1.10509e-19)
(0.00648995 0.0506327 2.33432e-19)
(0.0136769 0.0578875 -7.87806e-19)
(-0.00618698 0.0119672 -5.65962e-19)
(-0.0162596 0.0295455 3.70929e-19)
(-0.0248768 0.0418232 5.04453e-20)
(-0.0318015 0.0499802 9.74845e-21)
(-0.0370285 0.0549295 -2.28485e-19)
(-0.0406422 0.0573953 3.35972e-19)
(-0.0427294 0.0579644 3.67013e-20)
(-0.0433729 0.0571083 -6.89093e-20)
(-0.0426467 0.0552072 -2.21022e-19)
(-0.0406125 0.0525752 2.38967e-19)
(-0.0373195 0.0494837 6.05865e-19)
(-0.0328083 0.0461827 -1.33896e-19)
(-0.0271185 0.0429224 3.02402e-19)
(-0.020298 0.0399738 -3.5739e-19)
(-0.0124211 0.037647 -3.42716e-19)
(-0.00362747 0.0362998 2.06225e-19)
(0.00583902 0.0363429 3.41207e-19)
(0.0157781 0.0383255 -1.10525e-18)
(0.0262523 0.0430456 1.2964e-19)
(0.0355859 0.0505712 1.75468e-19)
(-0.006988 0.0123645 4.19096e-19)
(-0.018097 0.0304384 1.37725e-19)
(-0.0271968 0.0429817 7.17304e-19)
(-0.0341504 0.051231 3.6861e-20)
(-0.0390319 0.0561427 -7.97417e-20)
(-0.0419909 0.0584694 -3.79594e-19)
(-0.0431689 0.0588144 3.22839e-19)
(-0.0426925 0.0576552 5.78959e-19)
(-0.0406695 0.0553693 3.85776e-19)
(-0.0371861 0.0522611 2.78324e-19)
(-0.0323081 0.0485863 2.39852e-19)
(-0.0260854 0.0445768 -4.31134e-19)
(-0.0185593 0.0404647 -1.35198e-19)
(-0.00977378 0.0365099 -9.93371e-20)
(0.000205371 0.0330279 1.06588e-18)
(0.011245 0.0304122 -3.67881e-21)
(0.0230923 0.0291572 -2.65778e-19)
(0.035505 0.0299788 -8.39884e-20)
(0.0484573 0.033978 7.62883e-19)
(0.0599973 0.0415399 9.75215e-20)
(-0.0078083 0.0126749 -2.07412e-20)
(-0.0199378 0.0310723 -3.96151e-19)
(-0.029458 0.0437348 -5.89048e-19)
(-0.0363354 0.0519645 -1.63796e-19)
(-0.0407276 0.0567646 9.04228e-20)
(-0.0428523 0.0589177 1.94985e-20)
(-0.0429085 0.0590435 5.16282e-19)
(-0.0410693 0.0576244 -6.40337e-19)
(-0.0374795 0.0550337 -2.43539e-19)
(-0.0322547 0.0515629 -4.90723e-19)
(-0.0254832 0.0474476 -4.17979e-19)
(-0.017232 0.0428924 -3.69909e-19)
(-0.00755358 0.0380973 9.24598e-20)
(0.00350272 0.0332895 -1.19969e-19)
(0.0158714 0.0287606 5.14342e-19)
(0.0294215 0.0249037 -2.8218e-19)
(0.0438913 0.0222621 -8.84141e-19)
(0.0590021 0.0217032 -1.78434e-19)
(0.0746532 0.0246803 4.3629e-19)
(0.0885383 0.0320228 -3.78738e-19)
(-0.0086392 0.0128992 -6.68634e-20)
(-0.0217423 0.0314457 4.84218e-19)
(-0.0315767 0.0440789 -6.17371e-19)
(-0.0382195 0.0521764 1.42748e-19)
(-0.0419151 0.0567932 -2.93725e-19)
(-0.0429518 0.0587452 6.54089e-19)
(-0.041587 0.0586702 -4.6742e-19)
(-0.0380414 0.0570574 5.3472e-19)
(-0.0324986 0.0542777 -5.06806e-19)
(-0.0251067 0.050612 2.16262e-19)
(-0.015983 0.0462762 -1.04966e-19)
(-0.00522059 0.0414458 -2.63315e-19)
(0.00710343 0.0362815 -3.25246e-19)
(0.0209182 0.0309617 3.24213e-19)
(0.0361409 0.0257243 -2.71431e-19)
(0.0526277 0.0209163 -5.93366e-19)
(0.0700971 0.017068 6.17869e-19)
(0.0882356 0.0151381 -7.87655e-19)
(0.106908 0.0169387 3.54943e-19)
(0.123415 0.0238584 1.17364e-20)
(-0.00946978 0.0130353 -6.05485e-19)
(-0.0234633 0.0315511 -6.53431e-19)
(-0.0334553 0.0440035 7.53336e-20)
(-0.0396428 0.0518545 -6.29623e-19)
(-0.0423615 0.0562173 -5.58774e-20)
(-0.0419711 0.0579444 -4.62988e-19)
(-0.0387872 0.0576952 -1.06166e-19)
(-0.0330769 0.0559699 -3.10184e-19)
(-0.025062 0.0531419 2.91359e-21)
(-0.0149255 0.0494877 -1.35617e-19)
(-0.00281837 0.0452114 9.66585e-21)
(0.0111299 0.0404664 -3.90866e-19)
(0.0268023 0.0353788 4.30852e-19)
(0.0440839 0.0300748 -6.10947e-19)
(0.0628472 0.0247217 2.16466e-19)
(0.0829059 0.019579 8.13852e-21)
(0.103932 0.0150872 -3.44125e-19)
(0.125561 0.0121843 8.53688e-19)
(0.147689 0.0129694 -2.03262e-19)
(0.167287 0.0194426 -1.32236e-19)
(-0.0102865 0.0130787 6.79381e-19)
(-0.0250444 0.0313764 3.66724e-19)
(-0.0349798 0.0434925 3.4101e-19)
(-0.0404219 0.0509815 5.09061e-20)
(-0.041802 0.0550194 4.60913e-19)
(-0.0395519 0.0564999 6.64153e-19)
(-0.0340432 0.0561073 5.43514e-19)
(-0.0255869 0.0543571 4.87065e-20)
(-0.014442 0.0516324 3.97932e-19)
(-0.000825855 0.0482147 6.14706e-19)
(0.0150722 0.0443085 -1.59327e-19)
(0.0330774 0.0400612 2.67551e-19)
(0.0530162 0.0355812 2.16039e-19)
(0.0747045 0.0309589 2.19869e-19)
(0.0979352 0.0262976 1.29876e-18)
(0.122438 0.0217546 -4.86766e-19)
(0.147792 0.0176166 -2.94964e-20)
(0.173536 0.0146544 5.63183e-19)
(0.199653 0.0150797 -3.19094e-19)
(0.223048 0.0214596 1.57855e-19)
(-0.0110725 0.0130234 -5.49117e-19)
(-0.0264191 0.0309066 3.50416e-20)
(-0.0360188 0.0425279 -4.39128e-19)
(-0.0403479 0.0495397 -5.71098e-20)
(-0.0399391 0.0531844 3.21313e-19)
(-0.0352962 0.0543997 -9.5656e-19)
(-0.0268449 0.0538974 -7.17872e-22)
(-0.0149376 0.0522124 4.45065e-19)
(0.000131888 0.0497435 4.17953e-19)
(0.0181106 0.0467869 -1.84111e-19)
(0.0387675 0.0435613 6.06518e-20)
(0.0618735 0.0402277 1.40666e-19)
(0.0871829 0.0369036 -6.66944e-20)
(0.114417 0.0336777 -7.46676e-19)
(0.14325 0.030628 1.89045e-19)
(0.173275 0.0278429 5.19518e-19)
(0.203913 0.0254512 -7.39965e-19)
(0.234513 0.0239418 3.60532e-19)
(0.265147 0.0254227 9.64581e-20)
(0.293188 0.0328997 4.87148e-19)
(-0.0118073 0.0128624 -8.08949e-20)
(-0.0275083 0.0301259 -3.8444e-19)
(-0.0364195 0.0410941 1.76923e-19)
(-0.0391829 0.0475187 8.52173e-22)
(-0.0364391 0.0507102 -7.70539e-19)
(-0.0287651 0.0516509 1.20293e-19)
(-0.0166397 0.0510812 -2.28157e-20)
(-0.000455965 0.0495569 1.55453e-19)
(0.0194567 0.0474958 -7.11509e-19)
(0.0428072 0.0452145 -4.98366e-20)
(0.0693169 0.0429564 -1.67065e-19)
(0.0986945 0.0409122 1.48654e-19)
(0.130611 0.0392357 5.01606e-19)
(0.164675 0.0380575 -7.75843e-20)
(0.200412 0.0374985 3.00723e-20)
(0.237221 0.0376758 1.96987e-19)
(0.274262 0.0386828 -4.88467e-20)
(0.310509 0.0408333 3.96024e-19)
(0.345873 0.0461781 -2.31092e-19)
(0.378736 0.0579695 -3.60259e-19)
(-0.0124655 0.0125884 7.51483e-20)
(-0.0282181 0.0290204 1.8421e-20)
(-0.0360052 0.0391825 1.54099e-19)
(-0.0366563 0.044923 3.77341e-19)
(-0.0309288 0.0476189 2.11715e-19)
(-0.0194762 0.0482962 2.20624e-20)
(-0.00283338 0.0477219 -2.52618e-19)
(0.0185621 0.0464709 6.4779e-20)
(0.0443382 0.044978 3.4052e-19)
(0.074156 0.0435785 -5.76975e-19)
(0.107679 0.0425389 4.35313e-19)
(0.144545 0.0420807 -3.27959e-19)
(0.184342 0.0424016 2.78181e-19)
(0.226587 0.0436963 -5.99829e-19)
(0.270696 0.0461812 6.59513e-19)
(0.315941 0.0501119 -7.05144e-19)
(0.361306 0.0557804 -1.8301e-19)
(0.405387 0.0638015 5.72878e-19)
(0.44715 0.0767886 -1.94276e-19)
(0.483644 0.0977128 8.58755e-20)
(-0.0130157 0.012194 -5.68057e-20)
(-0.0284366 0.0275795 5.36184e-19)
(-0.0345706 0.0367954 -2.25311e-21)
(-0.0324605 0.0417786 -3.32844e-19)
(-0.0229923 0.0439679 -2.23758e-19)
(-0.00690392 0.0444293 4.09987e-19)
(0.0152045 0.0439517 -1.62384e-19)
(0.0428367 0.0431228 -2.04531e-20)
(0.075558 0.0423862 3.38345e-19)
(0.112956 0.0420832 -4.20349e-19)
(0.154608 0.0424851 4.6042e-20)
(0.200056 0.043818 -5.46257e-19)
(0.248793 0.0462864 2.87479e-19)
(0.30026 0.0500992 -8.22182e-19)
(0.353854 0.0555043 1.30847e-18)
(0.408952 0.0628335 -2.40026e-19)
(0.464935 0.0726006 2.48276e-19)
(0.521432 0.0860144 -6.4521e-19)
(0.578778 0.106193 6.16649e-21)
(0.628606 0.130704 7.16744e-19)
(-0.013419 0.0116717 -1.71982e-19)
(-0.0280319 0.0257977 1.4853e-19)
(-0.03188 0.0339499 -5.47369e-19)
(-0.0262499 0.038139 8.09634e-19)
(-0.0121728 0.0398571 -5.84534e-19)
(0.0095144 0.0402042 3.0182e-20)
(0.0381256 0.0399836 -6.30372e-19)
(0.0730762 0.0397857 4.50708e-19)
(0.113829 0.0400481 -6.4412e-20)
(0.159847 0.0410974 -3.97737e-19)
(0.210561 0.0431789 -2.32004e-19)
(0.26535 0.0464785 2.45216e-19)
(0.323538 0.0511415 1.61969e-19)
(0.384413 0.0572892 -7.16113e-19)
(0.447253 0.065035 2.58765e-19)
(0.511381 0.0744971 -3.80406e-19)
(0.576231 0.0858143 4.59986e-20)
(0.641533 0.0993103 -3.20484e-19)
(0.70788 0.116107 1.27457e-19)
(0.768483 0.133572 -4.7434e-19)
(-0.013627 0.0110146 4.89655e-19)
(-0.026849 0.0236765 -2.96672e-19)
(-0.0276658 0.0306807 2.44439e-19)
(-0.0176431 0.0340884 -3.08591e-19)
(0.00202007 0.0354325 5.1717e-19)
(0.0303617 0.0358382 -9.02619e-21)
(0.0665738 0.0361123 -6.2983e-20)
(0.109933 0.0368333 -4.67162e-20)
(0.159735 0.0384134 2.87433e-19)
(0.21524 0.0411384 4.88691e-19)
(0.275644 0.0451942 -2.88666e-19)
(0.34007 0.0506864 2.80524e-19)
(0.407578 0.0576552 5.11843e-19)
(0.477199 0.066087 -3.58941e-19)
(0.547976 0.0759224 -7.26505e-19)
(0.619024 0.0870576 1.32641e-18)
(0.68958 0.0993319 -2.37091e-19)
(0.759079 0.112554 -7.63977e-20)
(0.827512 0.126951 8.1368e-19)
(0.890476 0.142505 -1.74874e-19)
(-0.0135812 0.0102166 -7.96814e-19)
(-0.02471 0.0212264 -5.30407e-19)
(-0.0216313 0.0270429 -2.03609e-19)
(-0.00623029 0.0297445 3.92905e-19)
(0.0200933 0.0308872 -8.8721e-19)
(0.0562119 0.0316085 4.59584e-19)
(0.101138 0.0327024 5.82565e-20)
(0.153936 0.0347151 5.89142e-20)
(0.213641 0.038007 -6.02186e-19)
(0.27921 0.04279 -2.1265e-19)
(0.349504 0.0491541 -3.7468e-19)
(0.423291 0.0570863 3.61695e-19)
(0.49929 0.0664879 1.0227e-19)
(0.576215 0.077189 1.96244e-20)
(0.652842 0.0889605 4.68231e-19)
(0.728063 0.10152 -4.75129e-19)
(0.800933 0.114531 -1.94048e-20)
(0.870712 0.127614 1.32675e-20)
(0.936976 0.140536 6.60214e-20)
(0.997641 0.155289 3.58744e-19)
(-0.0132127 0.00927464 2.53644e-19)
(-0.0214154 0.0184704 6.53194e-19)
(-0.0134563 0.0231154 5.2416e-19)
(0.00841259 0.0252604 -1.80741e-19)
(0.0425455 0.0264599 6.28876e-19)
(0.0875877 0.0278442 -5.29786e-20)
(0.14229 0.0301707 -7.46646e-20)
(0.2054 0.0339231 4.44452e-20)
(0.275581 0.039373 6.08313e-19)
(0.351371 0.0466177 3.57419e-19)
(0.431194 0.0556086 1.04398e-19)
(0.513397 0.066177 6.56657e-21)
(0.596321 0.0780601 -6.90504e-19)
(0.678382 0.0909258 5.99973e-19)
(0.758143 0.104396 1.02226e-19)
(0.83438 0.118065 -1.69122e-19)
(0.906117 0.131511 -7.27012e-19)
(0.972652 0.144335 -5.99001e-20)
(1.03349 0.156064 2.84534e-19)
(1.08846 0.169876 -5.67572e-20)
(-0.0124421 0.00818977 -6.43161e-19)
(-0.0167474 0.0154473 2.69099e-19)
(-0.00280732 0.0190047 -1.31422e-18)
(0.026705 0.0208266 5.38492e-19)
(0.0698337 0.0224326 -4.29534e-19)
(0.12491 0.0249168 3.16737e-19)
(0.190311 0.0289649 -4.92268e-19)
(0.264341 0.0349547 4.51871e-20)
(0.345159 0.0430203 -2.53887e-20)
(0.430779 0.0530937 1.32411e-19)
(0.519114 0.0649428 1.91011e-19)
(0.608073 0.0782113 -3.60924e-19)
(0.695665 0.0924596 1.9126e-19)
(0.780105 0.107206 1.75148e-19)
(0.859898 0.12196 7.52828e-19)
(0.93389 0.136256 -3.27863e-19)
(1.00128 0.149667 -2.1555e-19)
(1.06164 0.161855 3.61417e-19)
(1.11473 0.172325 1.89792e-19)
(1.16152 0.184663 -3.61435e-19)
(-0.0111813 0.00696988 5.63036e-19)
(-0.0104762 0.012217 5.42842e-19)
(0.0106499 0.0148495 1.5677e-19)
(0.049038 0.0166736 6.60254e-19)
(0.102335 0.019128 3.24587e-19)
(0.168443 0.0232294 -5.85242e-19)
(0.245225 0.0295407 8.86691e-19)
(0.330394 0.0382759 -4.36397e-19)
(0.421486 0.0493705 4.35673e-19)
(0.515906 0.0625361 5.63486e-19)
(0.61105 0.0773169 -3.2198e-19)
(0.704451 0.0931511 6.12264e-20)
(0.79392 0.109432 3.40146e-19)
(0.877661 0.125564 2.39099e-19)
(0.954339 0.141005 5.48511e-19)
(1.0231 0.155297 -2.2059e-19)
(1.08353 0.168081 -2.81135e-20)
(1.13565 0.179133 3.41715e-19)
(1.17966 0.18809 -7.40205e-20)
(1.21717 0.198414 -2.02025e-23)
(-0.00933545 0.00563199 -2.90575e-19)
(-0.00236799 0.0088643 -1.06796e-18)
(0.0272337 0.0108248 2.51595e-19)
(0.0757467 0.013072 -1.91576e-19)
(0.140308 0.0169039 -4.42542e-19)
(0.218243 0.0232006 -3.16268e-19)
(0.306738 0.0323346 -1.95411e-19)
(0.402774 0.0442822 4.74462e-19)
(0.503165 0.0587127 -2.8178e-19)
(0.604699 0.0750665 -2.88714e-19)
(0.704331 0.0926406 -3.64542e-19)
(0.799378 0.110677 -6.01607e-20)
(0.887676 0.128443 -4.12578e-20)
(0.96767 0.145291 -8.38971e-19)
(1.03843 0.160703 4.04829e-19)
(1.0996 0.174306 -5.32721e-19)
(1.15133 0.185877 1.65445e-19)
(1.19415 0.195337 -1.26039e-18)
(1.22879 0.202542 3.80365e-19)
(1.2571 0.210528 4.76355e-19)
(-0.00680631 0.00420449 -7.30198e-20)
(0.00780533 0.00550362 5.20557e-19)
(0.0472279 0.00714432 3.3406e-20)
(0.107081 0.0103315 8.03731e-20)
(0.183849 0.0161437 -1.63444e-19)
(0.274108 0.0252461 -2.75578e-21)
(0.374203 0.0377336 -4.23845e-21)
(0.480264 0.0532619 -9.87556e-20)
(0.588357 0.0711691 3.5036e-19)
(0.69473 0.0905919 1.35304e-19)
(0.796082 0.110588 6.13791e-19)
(0.889769 0.130247 -1.67192e-19)
(0.973934 0.148784 1.16421e-19)
(1.04752 0.165586 -1.47637e-20)
(1.11022 0.180244 3.21531e-19)
(1.16232 0.192538 1.95803e-19)
(1.20457 0.202424 4.69369e-19)
(1.23802 0.209986 -7.56647e-19)
(1.26383 0.215309 9.48986e-19)
(1.28393 0.220905 -3.00172e-19)
(-0.00349548 0.00272886 -6.77873e-19)
(0.0202544 0.00228102 -2.11872e-19)
(0.070861 0.00406095 1.65413e-19)
(0.143174 0.00879506 1.04342e-19)
(0.232859 0.0172425 1.072e-19)
(0.335554 0.0297533 1.08561e-19)
(0.446616 0.0460438 -2.71971e-19)
(0.561268 0.0653653 -1.1231e-19)
(0.674899 0.086678 3.49332e-20)
(0.783414 0.108817 -3.32804e-19)
(0.883532 0.130647 -1.50236e-19)
(0.972967 0.151193 9.07317e-19)
(1.05045 0.16971 -2.34226e-19)
(1.11566 0.185718 -3.21459e-19)
(1.169 0.198989 -1.5154e-19)
(1.21146 0.209506 1.05491e-19)
(1.24435 0.217416 1.27321e-19)
(1.26911 0.222965 -6.09655e-19)
(1.28722 0.22642 8.79602e-19)
(1.30051 0.229797 -7.61282e-19)
(0.0006913 0.00126084 -7.64684e-20)
(0.0351597 -0.000625022 2.18664e-20)
(0.0982852 0.00186306 -2.81107e-20)
(0.184018 0.00882815 4.09735e-19)
(0.287015 0.0205868 2.27391e-20)
(0.401799 0.037054 1.50605e-19)
(0.522644 0.057461 -3.13156e-19)
(0.643909 0.0805864 -1.13852e-20)
(0.760495 0.105001 4.34816e-19)
(0.868265 0.129285 6.04615e-20)
(0.964308 0.152205 -3.78134e-19)
(1.04701 0.172826 -3.32467e-20)
(1.11593 0.190557 -3.09201e-19)
(1.17158 0.205129 3.08337e-19)
(1.21515 0.216546 4.26265e-19)
(1.24821 0.225009 -4.69131e-20)
(1.2725 0.230844 -5.67372e-20)
(1.28974 0.234426 1.73026e-19)
(1.3015 0.23615 -5.53841e-19)
(1.30951 0.23761 4.88508e-19)
(0.00583958 -0.000129221 7.70942e-20)
(0.0526581 -0.00300549 -4.96502e-19)
(0.129555 0.000867378 1.32806e-19)
(0.229437 0.0108035 -4.12757e-19)
(0.345757 0.0265308 1.42013e-19)
(0.471786 0.047397 -5.27431e-19)
(0.600705 0.0720506 2.12812e-19)
(0.726175 0.0987632 -6.78338e-20)
(0.842919 0.125755 -2.79399e-21)
(0.947138 0.151448 6.91868e-20)
(1.03664 0.174633 -2.51711e-19)
(1.11075 0.19454 -3.58787e-19)
(1.16999 0.210823 -7.32561e-20)
(1.21573 0.223481 -3.28789e-20)
(1.24982 0.232768 -8.33102e-20)
(1.27431 0.239084 -2.70434e-20)
(1.29118 0.242901 -8.09121e-20)
(1.30222 0.244678 -7.00182e-20)
(1.30902 0.244878 -2.07309e-19)
(1.31311 0.244767 3.28188e-19)
(0.0120212 -0.00135684 1.8482e-19)
(0.0728295 -0.00462519 -2.0534e-19)
(0.16461 0.00140774 4.42159e-19)
(0.279072 0.0150816 -1.91068e-19)
(0.408296 0.0353716 5.10747e-19)
(0.544226 0.0609255 7.47238e-21)
(0.679067 0.0897405 2.56595e-19)
(0.80608 0.119598 -6.89269e-20)
(0.920214 0.148462 2.86558e-19)
(1.0184 0.174732 2.05017e-20)
(1.09948 0.197366 6.80502e-19)
(1.16387 0.215868 -4.69288e-19)
(1.21306 0.230199 6.34118e-20)
(1.24919 0.240651 1.20634e-19)
(1.27464 0.247705 6.28034e-19)
(1.29169 0.251927 -2.25521e-19)
(1.30243 0.253883 -4.45539e-20)
(1.30861 0.254071 -2.34951e-19)
(1.31168 0.252982 -2.43994e-20)
(1.31297 0.251624 1.17289e-19)
(0.019289 -0.00232476 -8.84431e-20)
(0.0956843 -0.00522967 2.55903e-19)
(0.203258 0.00382062 -2.62571e-19)
(0.332381 0.0219895 1.03483e-19)
(0.473635 0.0473263 -1.2422e-19)
(0.617675 0.0776649 4.55422e-19)
(0.755983 0.110331 -6.36367e-20)
(0.881829 0.142695 1.55993e-19)
(0.990832 0.17261 -9.20604e-20)
(1.08102 0.198613 -2.54274e-21)
(1.15246 0.219959 1.04603e-19)
(1.20668 0.236508 -8.10012e-20)
(1.24609 0.248559 2.09873e-19)
(1.27341 0.256676 -1.04691e-19)
(1.29131 0.261531 -4.58933e-19)
(1.30219 0.263804 4.55765e-19)
(1.30808 0.264106 -2.04756e-19)
(1.31056 0.262935 1.63426e-19)
(1.31091 0.260777 2.82485e-19)
(1.31026 0.258446 1.15973e-19)
(0.0276721 -0.00292523 2.20208e-19)
(0.121153 -0.00455434 -4.53923e-19)
(0.245174 0.00842845 8.67787e-20)
(0.388649 0.0317991 -6.30743e-20)
(0.540621 0.0625149 -2.54879e-19)
(0.690626 0.0975218 -2.00024e-19)
(0.829811 0.133519 -3.94029e-20)
(0.951936 0.167607 -3.56352e-19)
(1.05372 0.197706 -2.17559e-20)
(1.13453 0.222653 -6.6158e-20)
(1.19576 0.242102 -1.79326e-19)
(1.23999 0.256313 -3.98902e-20)
(1.27033 0.265913 -1.36953e-19)
(1.28989 0.271697 -2.27976e-19)
(1.30147 0.274478 2.33053e-19)
(1.30741 0.274992 3.1822e-20)
(1.30957 0.273855 6.33999e-20)
(1.30933 0.271535 -2.67355e-19)
(1.30776 0.268499 -6.84627e-21)
(1.30579 0.265404 -4.11139e-19)
(0.0371707 -0.00304319 2.40911e-19)
(0.149079 -0.00233553 1.60836e-19)
(0.289894 0.015522 -2.5979e-19)
(0.447011 0.044709 4.05658e-19)
(0.608004 0.0809522 -4.3864e-20)
(0.761609 0.120295 1.51635e-19)
(0.899125 0.158929 5.25182e-20)
(1.0153 0.193876 1.85868e-19)
(1.10829 0.223316 -1.45558e-19)
(1.17899 0.246521 4.8451e-20)
(1.23001 0.263614 -4.64586e-20)
(1.26485 0.275254 -2.03074e-20)
(1.28711 0.282361 3.87764e-20)
(1.30008 0.285906 -7.13012e-20)
(1.30653 0.286782 -2.18223e-20)
(1.30862 0.285737 -6.68395e-20)
(1.30799 0.283358 -1.0848e-19)
(1.30579 0.280065 7.00909e-20)
(1.3029 0.276302 -9.57922e-20)
(1.30005 0.27259 4.1419e-19)
(0.0477527 -0.00256027 -1.20121e-19)
(0.179217 0.00167728 -3.40793e-19)
(0.336831 0.0253432 -4.53959e-20)
(0.506491 0.0608311 -1.24971e-20)
(0.674511 0.102548 -1.52911e-19)
(0.829272 0.145699 -2.51162e-19)
(0.96278 0.186151 8.21609e-20)
(1.07122 0.221074 -1.12903e-19)
(1.15442 0.249085 -1.26364e-19)
(1.21478 0.269994 7.03572e-20)
(1.25606 0.284416 -5.31254e-20)
(1.2824 0.293382 -1.07359e-19)
(1.29769 0.298046 -3.51071e-21)
(1.30523 0.299496 7.27094e-20)
(1.30763 0.298651 -7.39974e-20)
(1.3068 0.296235 1.02688e-19)
(1.30413 0.29278 2.76845e-20)
(1.30056 0.288651 6.94826e-20)
(1.29677 0.284271 1.35083e-19)
(1.29335 0.280039 -1.15679e-19)
(0.0593513 -0.00135951 1.14653e-19)
(0.211231 0.00770885 -9.94075e-21)
(0.38529 0.0380707 5.16613e-20)
(0.566048 0.0801825 -6.99817e-20)
(0.73891 0.127116 5.86646e-21)
(0.892458 0.173384 2.43059e-19)
(1.01995 0.214771 -1.59577e-19)
(1.11935 0.24882 6.76152e-20)
(1.19228 0.274739 5.96211e-20)
(1.24256 0.292937 -1.67287e-19)
(1.27485 0.304503 1.57149e-19)
(1.29374 0.31079 1.41591e-21)
(1.30319 0.313122 -1.10569e-19)
(1.30638 0.312641 1.33233e-19)
(1.30565 0.31025 -5.28383e-20)
(1.30266 0.306621 4.03775e-20)
(1.29853 0.302221 -4.517e-20)
(1.29402 0.297359 -1.81178e-20)
(1.28965 0.292439 -1.57674e-19)
(1.28586 0.287741 4.83415e-20)
(0.0718638 0.000669578 -3.85309e-20)
(0.244706 0.0159458 1.03689e-19)
(0.434498 0.0538074 1.62158e-20)
(0.624626 0.102685 6.78999e-20)
(0.800075 0.154389 3.24482e-20)
(0.950234 0.202965 1.52174e-20)
(1.0701 0.244389 8.6143e-20)
(1.15966 0.276792 -1.04299e-20)
(1.22232 0.300081 3.79733e-20)
(1.2631 0.315278 6.09698e-20)
(1.28735 0.323912 2.94072e-20)
(1.29987 0.327585 2.11085e-20)
(1.30456 0.327724 8.55683e-20)
(1.30433 0.325475 -8.28319e-20)
(1.30124 0.321694 1.77682e-20)
(1.29668 0.316981 -1.66429e-20)
(1.29154 0.311732 2.57264e-20)
(1.28641 0.306205 2.15525e-20)
(1.28168 0.300794 4.49587e-20)
(1.27767 0.295656 1.85217e-21)
(0.0851522 0.00362569 2.28514e-20)
(0.279157 0.0265258 2.08738e-20)
(0.48363 0.0725742 -2.89287e-20)
(0.6812 0.128171 1.80816e-20)
(0.857026 0.184038 1.02239e-20)
(1.00191 0.234044 -3.18191e-20)
(1.11298 0.274638 1.04944e-20)
(1.19237 0.304721 1.91043e-21)
(1.24509 0.324968 1.80935e-20)
(1.27719 0.336992 -4.85404e-20)
(1.29444 0.342695 -1.5119e-22)
(1.30166 0.343861 1.3449e-20)
(1.30254 0.341958 -1.07194e-20)
(1.29969 0.338093 1.08428e-20)
(1.29487 0.333049 2.82969e-20)
(1.2892 0.32735 -1.61048e-20)
(1.28339 0.32132 4.48335e-21)
(1.27787 0.315174 1.76408e-20)
(1.27293 0.309298 -2.90588e-20)
(1.26882 0.303726 1.39623e-20)
(0.0990472 0.00759071 6.34989e-20)
(0.314045 0.0395286 -3.45949e-20)
(0.531847 0.0943061 4.078e-20)
(0.734821 0.156391 -3.03558e-20)
(0.908957 0.215686 -1.36236e-20)
(1.04703 0.26622 4.12879e-21)
(1.14858 0.305185 -1.33737e-20)
(1.21782 0.332391 4.80936e-20)
(1.26123 0.349298 -4.00627e-20)
(1.28559 0.358069 9.40788e-21)
(1.29688 0.360903 -7.00689e-21)
(1.29979 0.359692 -4.56866e-20)
(1.29771 0.355892 4.43295e-20)
(1.29291 0.350542 1.68905e-20)
(1.28685 0.344338 -1.6795e-20)
(1.28043 0.337724 3.94506e-20)
(1.2742 0.330958 -5.77161e-22)
(1.26847 0.32422 -3.82807e-20)
(1.26344 0.317892 2.83496e-20)
(1.2593 0.311879 8.95888e-21)
(0.113351 0.0126252 -2.22584e-20)
(0.348797 0.0549701 6.4508e-20)
(0.578325 0.118855 7.46224e-20)
(0.784644 0.187029 -3.52488e-20)
(0.955248 0.24893 6.13055e-20)
(1.08535 0.299109 9.70841e-20)
(1.17703 0.335734 -5.36931e-21)
(1.23649 0.359618 -1.67075e-20)
(1.27138 0.372997 8.24284e-20)
(1.28901 0.378507 4.02188e-20)
(1.29535 0.37857 -7.31391e-21)
(1.29483 0.375119 6.00297e-20)
(1.2905 0.369558 -6.44311e-20)
(1.28428 0.362832 1.00377e-19)
(1.27739 0.355547 -1.67444e-20)
(1.2705 0.348067 4.80592e-20)
(1.26404 0.340593 8.68921e-21)
(1.25824 0.333278 3.44059e-20)
(1.25321 0.326502 -3.27347e-20)
(1.24911 0.320033 7.93947e-21)
(0.12784 0.0187642 -3.46446e-20)
(0.382821 0.0727983 8.18799e-20)
(0.622284 0.145994 6.09101e-20)
(0.829949 0.21971 -9.25025e-21)
(0.995452 0.283351 9.5124e-20)
(1.1168 0.332337 -7.12497e-20)
(1.1986 0.366015 -5.61557e-21)
(1.24886 0.386246 6.28346e-20)
(1.27616 0.395995 1.99419e-20)
(1.28806 0.398294 2.79874e-20)
(1.29038 0.395707 -4.13615e-20)
(1.28721 0.390153 1.0802e-19)
(1.28123 0.382949 2.02179e-20)
(1.27405 0.374938 -9.57825e-20)
(1.26662 0.36663 1.40213e-19)
(1.25949 0.35832 -1.65511e-19)
(1.25295 0.350154 -7.61055e-20)
(1.24718 0.34227 1.26183e-20)
(1.24223 0.335042 7.39025e-20)
(1.23824 0.328103 -1.39678e-19)
(0.142279 0.0260145 -7.76279e-20)
(0.415532 0.0928936 -1.8333e-19)
(0.663015 0.175425 -1.58761e-19)
(0.870155 0.254021 -2.16164e-19)
(1.02929 0.318524 -1.22828e-19)
(1.14143 0.365555 -2.54762e-19)
(1.21364 0.395786 3.23811e-20)
(1.25546 0.412135 -1.35582e-19)
(1.27613 0.418227 -1.49281e-20)
(1.28326 0.417404 2.23363e-20)