/*--------------------------------*- C++ -*----------------------------------*\
  =========                 |
  \\      /  F ield         | OpenFOAM: The Open Source CFD Toolbox
   \\    /   O peration     | Website:  https://openfoam.org
    \\  /    A nd           | Version:  6.0
     \\/     M anipulation  |
\*---------------------------------------------------------------------------*/
FoamFile
{
    version     2.0;
    format      ascii;
    class       volScalarField;
    location    "81";
    object      p;
}
// * * * * * * * * * * * * * * * * * * * * * * * * * * * * * * * * * * * * * //

dimensions      [0 2 -2 0 0 0 0];

internalField   nonuniform List<scalar> 
4000
(
-0.66203
-0.646875
-0.631344
-0.611799
-0.587391
-0.559493
-0.529816
-0.49986
-0.470725
-0.443087
-0.417268
-0.393353
-0.37129
-0.350955
-0.332197
-0.314864
-0.298815
-0.283882
-0.269847
-0.257024
-0.665104
-0.649591
-0.632949
-0.611468
-0.584691
-0.554439
-0.522729
-0.491184
-0.460899
-0.432479
-0.406161
-0.381954
-0.359747
-0.339372
-0.320649
-0.303405
-0.287485
-0.2727
-0.258818
-0.246246
-0.665656
-0.649872
-0.632075
-0.608597
-0.579467
-0.546979
-0.513422
-0.4805
-0.449271
-0.420253
-0.393592
-0.369223
-0.346979
-0.326656
-0.308047
-0.290961
-0.275231
-0.260647
-0.246971
-0.234703
-0.663352
-0.647384
-0.628405
-0.602912
-0.571508
-0.536956
-0.501778
-0.467718
-0.435766
-0.40634
-0.379497
-0.3551
-0.332934
-0.31276
-0.294348
-0.277497
-0.262024
-0.2477
-0.234285
-0.22238
-0.657883
-0.641817
-0.621652
-0.594175
-0.560632
-0.524237
-0.487698
-0.452756
-0.420312
-0.390676
-0.363816
-0.339531
-0.31756
-0.297638
-0.279515
-0.262978
-0.247835
-0.233838
-0.220747
-0.209266
-0.648976
-0.632899
-0.61157
-0.582192
-0.546701
-0.50873
-0.471119
-0.435566
-0.402866
-0.373221
-0.346512
-0.322481
-0.300829
-0.281265
-0.263528
-0.247392
-0.232656
-0.219054
-0.206356
-0.195364
-0.636403
-0.620403
-0.597963
-0.566818
-0.529622
-0.490376
-0.451997
-0.416113
-0.383397
-0.353944
-0.327557
-0.303925
-0.282717
-0.263625
-0.246372
-0.230728
-0.216482
-0.203351
-0.191119
-0.180682
-0.619984
-0.604151
-0.580685
-0.547959
-0.509342
-0.469148
-0.430322
-0.394388
-0.361896
-0.332836
-0.30694
-0.283853
-0.263219
-0.244712
-0.228048
-0.212991
-0.199321
-0.186741
-0.175051
-0.165235
-0.599597
-0.584024
-0.559651
-0.52557
-0.485852
-0.445057
-0.406106
-0.370404
-0.338371
-0.309902
-0.284665
-0.26227
-0.242339
-0.224534
-0.208565
-0.194193
-0.18119
-0.169245
-0.158178
-0.149051
-0.575179
-0.559962
-0.53483
-0.499662
-0.459188
-0.418145
-0.379393
-0.344197
-0.312852
-0.285165
-0.260752
-0.239193
-0.220094
-0.203109
-0.187944
-0.174357
-0.162115
-0.150895
-0.140538
-0.132169
-0.546727
-0.531965
-0.506254
-0.470295
-0.429424
-0.388491
-0.35025
-0.315824
-0.285386
-0.258666
-0.235236
-0.214652
-0.196512
-0.180463
-0.166211
-0.153513
-0.14213
-0.13173
-0.122178
-0.114645
-0.514301
-0.500097
-0.474007
-0.437576
-0.396676
-0.356202
-0.318776
-0.285368
-0.256043
-0.230463
-0.208164
-0.18869
-0.17163
-0.156631
-0.143399
-0.131693
-0.121269
-0.111792
-0.103149
-0.0965389
-0.478024
-0.464482
-0.438235
-0.401663
-0.3611
-0.321422
-0.285093
-0.252936
-0.224913
-0.200631
-0.179603
-0.16136
-0.145492
-0.13165
-0.119543
-0.108929
-0.0995649
-0.0911195
-0.0834979
-0.077887
-0.438075
-0.425301
-0.399131
-0.362757
-0.322886
-0.284321
-0.249352
-0.218657
-0.192108
-0.169266
-0.149628
-0.132726
-0.118152
-0.105563
-0.0946749
-0.0852505
-0.0770481
-0.0697474
-0.0632586
-0.0586905
-0.394692
-0.382791
-0.35694
-0.321097
-0.28226
-0.245104
-0.211733
-0.182687
-0.157761
-0.13648
-0.118335
-0.102862
-0.0896639
-0.0784084
-0.0688215
-0.060675
-0.0537361
-0.0476974
-0.0424471
-0.0389524
-0.348163
-0.33724
-0.311951
-0.276965
-0.23948
-0.204002
-0.172441
-0.145208
-0.122029
-0.10241
-0.0858375
-0.0718597
-0.0600951
-0.050229
-0.0420044
-0.0352076
-0.0296203
-0.024955
-0.0210739
-0.0188092
-0.298825
-0.288978
-0.264491
-0.230672
-0.194832
-0.161273
-0.131707
-0.106425
-0.0850973
-0.0672136
-0.052269
-0.0398269
-0.0295275
-0.021082
-0.0142587
-0.00886135
-0.00469145
-0.00152328
0.000719251
0.00129999
-0.247054
-0.238375
-0.214921
-0.182558
-0.148632
-0.117204
-0.0897913
-0.0665729
-0.0471741
-0.0310753
-0.0177829
-0.00688109
0.00196095
0.00899522
0.014416
0.0183971
0.0210894
0.0225272
0.0225553
0.0208477
-0.193258
-0.185834
-0.163631
-0.132991
-0.101215
-0.0721037
-0.0469778
-0.0259156
-0.00850255
0.00578695
0.0174364
0.0268431
0.0343099
0.0400495
0.0442157
0.0469473
0.048266
0.0477772
0.0449734
0.0409157
-0.137875
-0.131781
-0.111031
-0.082354
-0.0529378
-0.0263008
-0.0035757
0.0152526
0.0306331
0.0430973
0.0531252
0.0611082
0.0673434
0.0720396
0.0753619
0.0774638
0.0782206
0.076702
0.0721903
0.0677203
-0.081362
-0.0766623
-0.0575462
-0.0310433
-0.00416525
0.0198632
0.0400913
0.056617
0.069917
0.0805262
0.0889217
0.0954971
0.100563
0.104369
0.107169
0.109247
0.110548
0.109991
0.107334
0.111468
-0.0241811
-0.0209304
-0.00360792
0.02054
0.0447316
0.0660433
0.0836967
0.0978618
0.109035
0.117747
0.124466
0.129577
0.133388
0.13616
0.138164
0.13967
0.140642
0.140564
0.140424
0.146805
0.0331931
0.0349533
0.0503482
0.0719939
0.093384
0.111898
0.12692
0.138681
0.147689
0.154468
0.159473
0.163076
0.165578
0.167239
0.168314
0.169026
0.169338
0.16893
0.168804
0.173979
0.0902877
0.0905301
0.103891
0.122923
0.14143
0.157095
0.169451
0.178781
0.185598
0.190412
0.19366
0.195695
0.196805
0.197236
0.19722
0.196957
0.196426
0.195385
0.19465
0.198183
0.146636
0.145348
0.156598
0.17294
0.18852
0.201314
0.210996
0.217891
0.22251
0.225347
0.226814
0.227246
0.226909
0.226028
0.224809
0.22342
0.22183
0.219829
0.218163
0.220182
0.201783
0.198966
0.208059
0.221674
0.234316
0.244251
0.251278
0.255757
0.258193
0.259059
0.258745
0.25756
0.255751
0.25352
0.251049
0.248478
0.24576
0.242712
0.240035
0.240609
0.255285
0.250958
0.257879
0.268766
0.278498
0.285617
0.290036
0.292143
0.292435
0.291361
0.289286
0.286498
0.283219
0.279631
0.275895
0.272122
0.268259
0.264149
0.260462
0.259675
0.306721
0.300916
0.30568
0.313876
0.32076
0.325136
0.327023
0.326829
0.325038
0.322078
0.318288
0.313933
0.309216
0.304297
0.299316
0.294364
0.289383
0.284246
0.279579
0.277503
0.355685
0.348451
0.351104
0.356683
0.360814
0.362552
0.362008
0.359607
0.355819
0.351047
0.345609
0.339747
0.333643
0.327441
0.321261
0.315176
0.309129
0.303017
0.297416
0.294126
0.401798
0.393198
0.393815
0.396883
0.398391
0.397624
0.394775
0.390283
0.384603
0.378116
0.371115
0.363824
0.356405
0.348986
0.34167
0.334516
0.327468
0.320446
0.313965
0.309535
0.444704
0.434817
0.433501
0.434196
0.433238
0.430124
0.425122
0.418676
0.411229
0.403138
0.394678
0.38605
0.377403
0.368848
0.360472
0.352324
0.344352
0.336491
0.32919
0.323698
0.484074
0.472992
0.469872
0.468362
0.465124
0.459846
0.452859
0.444617
0.435543
0.425977
0.416173
0.406317
0.396541
0.386941
0.377594
0.368536
0.359721
0.351097
0.343042
0.336571
0.519608
0.507436
0.502664
0.499145
0.493835
0.486597
0.477816
0.467948
0.457404
0.446505
0.435488
0.424521
0.413724
0.403183
0.392959
0.383081
0.373511
0.364204
0.355465
0.348104
0.551036
0.537891
0.531642
0.52633
0.519182
0.510206
0.499836
0.488529
0.476684
0.464605
0.452514
0.440565
0.428866
0.417491
0.406492
0.395892
0.385657
0.375749
0.366403
0.358249
0.578119
0.564129
0.556595
0.549732
0.540994
0.530519
0.51878
0.506234
0.493268
0.480173
0.467155
0.45436
0.441884
0.429791
0.418126
0.406904
0.396099
0.385675
0.375803
0.366959
0.600651
0.585953
0.577345
0.569186
0.559126
0.547405
0.534528
0.520952
0.507054
0.493114
0.479327
0.465828
0.452706
0.440017
0.427797
0.416059
0.404781
0.393929
0.383615
0.374192
0.618461
0.6032
0.59374
0.584558
0.573454
0.560752
0.546978
0.532591
0.517959
0.503352
0.488958
0.474904
0.46127
0.44811
0.435452
0.423306
0.411655
0.400464
0.389799
0.379912
0.631411
0.615739
0.605661
0.59574
0.583883
0.570472
0.556051
0.541076
0.525913
0.510823
0.495989
0.481531
0.467527
0.454024
0.441047
0.428605
0.416681
0.405244
0.39432
0.384091
0.6394
0.623472
0.61302
0.602652
0.590339
0.576499
0.561685
0.546354
0.530866
0.515482
0.500378
0.485672
0.47144
0.457725
0.44455
0.431924
0.419832
0.408241
0.397154
0.386707
0.642363
0.626339
0.615759
0.605242
0.592777
0.578791
0.563842
0.548387
0.532786
0.517297
0.502095
0.4873
0.472983
0.459189
0.44594
0.433244
0.421087
0.409437
0.398284
0.387746
0.640273
0.624313
0.613855
0.603488
0.591175
0.57733
0.562507
0.547162
0.531659
0.516255
0.501131
0.486403
0.472148
0.458408
0.445209
0.432556
0.420439
0.408824
0.397704
0.387204
0.633137
0.617402
0.607314
0.597398
0.585542
0.572122
0.557683
0.542683
0.527488
0.512362
0.497488
0.482987
0.468937
0.455385
0.442358
0.429864
0.417891
0.406405
0.395417
0.385082
0.621002
0.605649
0.596178
0.587008
0.575909
0.563197
0.549399
0.534976
0.520299
0.505639
0.491187
0.477069
0.463368
0.450137
0.437404
0.425183
0.413457
0.402194
0.391434
0.381391
0.603951
0.589134
0.580517
0.572383
0.562335
0.550608
0.537705
0.524086
0.510132
0.496125
0.482264
0.468683
0.455473
0.442692
0.430375
0.418538
0.407161
0.396214
0.385777
0.376148
0.582102
0.56797
0.560437
0.553616
0.544906
0.534433
0.52267
0.510078
0.497048
0.483876
0.47077
0.457878
0.445297
0.433093
0.42131
0.409966
0.39904
0.388499
0.378475
0.369381
0.55561
0.542305
0.536072
0.53083
0.523731
0.514772
0.504386
0.493035
0.481124
0.468962
0.456772
0.444714
0.432896
0.421393
0.410257
0.399514
0.389137
0.37909
0.369569
0.361121
0.524666
0.512319
0.507588
0.504174
0.498946
0.491747
0.482964
0.47306
0.462453
0.451469
0.440349
0.429265
0.418338
0.407655
0.397278
0.387239
0.377506
0.36804
0.359104
0.35141
0.489491
0.478225
0.47518
0.473823
0.470708
0.465501
0.458536
0.450273
0.441145
0.431499
0.421593
0.411616
0.401703
0.391952
0.38244
0.373204
0.364208
0.355406
0.347133
0.340293
0.450343
0.440269
0.439073
0.43998
0.439199
0.436199
0.43125
0.424808
0.417324
0.409164
0.400607
0.391862
0.383077
0.374365
0.365816
0.357478
0.349308
0.341252
0.333715
0.327822
0.407509
0.398725
0.399518
0.402872
0.404623
0.404024
0.401272
0.396817
0.391125
0.384588
0.377506
0.370105
0.362554
0.35498
0.347487
0.340134
0.332876
0.325642
0.318909
0.314048
0.361307
0.353898
0.356795
0.362748
0.367204
0.369178
0.368784
0.366463
0.362698
0.357905
0.352409
0.346456
0.340233
0.333884
0.327531
0.321246
0.314978
0.308641
0.302776
0.299026
0.312083
0.306118
0.311207
0.319881
0.327186
0.331879
0.333983
0.333924
0.332203
0.32926
0.325445
0.321027
0.316214
0.311168
0.306028
0.300882
0.295678
0.290307
0.285368
0.282802
0.260209
0.255744
0.263083
0.274568
0.284833
0.292364
0.29708
0.29939
0.299809
0.298803
0.296748
0.293938
0.2906
0.286917
0.283049
0.279103
0.275027
0.270684
0.266723
0.265411
0.206084
0.203157
0.212775
0.227122
0.240426
0.250884
0.258302
0.263063
0.265697
0.266694
0.266457
0.265305
0.263489
0.261212
0.258656
0.255952
0.253052
0.24979
0.24685
0.246865
0.150127
0.148763
0.160655
0.177881
0.194266
0.207709
0.217888
0.225158
0.230057
0.233101
0.234718
0.235253
0.234982
0.23413
0.232902
0.231457
0.229758
0.22761
0.225722
0.227132
0.0927808
0.0929863
0.107117
0.127197
0.14667
0.163123
0.176095
0.185904
0.193094
0.198203
0.201685
0.203911
0.205177
0.205735
0.205813
0.205602
0.20508
0.204027
0.203192
0.206086
0.0345025
0.0362697
0.0525708
0.0754438
0.0979718
0.117425
0.133192
0.145544
0.155026
0.162194
0.167528
0.171419
0.174188
0.176106
0.177434
0.178392
0.178975
0.17893
0.179072
0.183518
-0.0242352
-0.0209294
-0.00255692
0.0230066
0.0485198
0.0709307
0.0894667
0.10434
0.116093
0.125295
0.132443
0.137952
0.142156
0.145344
0.147796
0.149762
0.151217
0.151832
0.152607
0.158737
-0.0829495
-0.0781426
-0.0578285
-0.0297144
-0.00132304
0.0239715
0.045222
0.0625738
0.0765542
0.0877413
0.0966483
0.1037
0.10924
0.11356
0.116957
0.119729
0.121856
0.12281
0.12359
0.131001
-0.141152
-0.134896
-0.112798
-0.0823097
-0.0511831
-0.0231097
0.000777491
0.0205452
0.0366991
0.0498204
0.0604328
0.0689709
0.075781
0.0811427
0.0853402
0.0886919
0.0911632
0.0916447
0.0898487
0.0949392
-0.198354
-0.190712
-0.167015
-0.134364
-0.100679
-0.0699608
-0.0435365
-0.0214301
-0.00316614
0.0118324
0.0240919
0.0340456
0.0420257
0.0482704
0.0529716
0.0563137
0.0581969
0.0576503
0.0538365
0.0499283
-0.254078
-0.245126
-0.220034
-0.185463
-0.14943
-0.116226
-0.087384
-0.0630272
-0.0427188
-0.0258891
-0.0120086
-0.00063948
0.00855537
0.015815
0.0213145
0.0252166
0.0275671
0.0279449
0.0257243
0.0219846
-0.307857
-0.297676
-0.271417
-0.235198
-0.197056
-0.161555
-0.130432
-0.103923
-0.0816348
-0.0630053
-0.0474961
-0.034651
-0.0241056
-0.0155814
-0.00886389
-0.00375849
-8.85096e-05
0.00218311
0.00282849
0.00142634
-0.359239
-0.347925
-0.32074
-0.283172
-0.243193
-0.205608
-0.172363
-0.143815
-0.119621
-0.0992308
-0.0820947
-0.0677357
-0.0557601
-0.0458508
-0.0377542
-0.0312536
-0.026126
-0.022126
-0.0192036
-0.0181837
-0.407808
-0.395458
-0.367601
-0.329008
-0.287492
-0.248066
-0.212884
-0.182432
-0.156429
-0.134342
-0.115615
-0.0997566
-0.0863495
-0.0750503
-0.0655782
-0.0576984
-0.0511697
-0.0456819
-0.0410994
-0.0382989
-0.453178
-0.439898
-0.411631
-0.372355
-0.329632
-0.288637
-0.25173
-0.219535
-0.191844
-0.168152
-0.147905
-0.130599
-0.115803
-0.103155
-0.0923566
-0.0831573
-0.0753021
-0.0684624
-0.0625249
-0.0584837
-0.495011
-0.480907
-0.452493
-0.412892
-0.369315
-0.327054
-0.288662
-0.254912
-0.225681
-0.200502
-0.178829
-0.160156
-0.144042
-0.130113
-0.118059
-0.107623
-0.0985394
-0.0904681
-0.0833185
-0.0782317
-0.533016
-0.518196
-0.489893
-0.450332
-0.406279
-0.36308
-0.323471
-0.288379
-0.25778
-0.231253
-0.208274
-0.188338
-0.171
-0.155881
-0.142665
-0.13109
-0.12089
-0.111713
-0.103459
-0.0973569
-0.566958
-0.551529
-0.523586
-0.484431
-0.440292
-0.396508
-0.355976
-0.319779
-0.288005
-0.260293
-0.236147
-0.215072
-0.196625
-0.180425
-0.166154
-0.153547
-0.142341
-0.13218
-0.122941
-0.115863
-0.596663
-0.580729
-0.553376
-0.514985
-0.471159
-0.427163
-0.386022
-0.348981
-0.316246
-0.287529
-0.262372
-0.240298
-0.22087
-0.20371
-0.188499
-0.174973
-0.162874
-0.151848
-0.141747
-0.13378
-0.62202
-0.605681
-0.579127
-0.541839
-0.498726
-0.454901
-0.413486
-0.375879
-0.342413
-0.312886
-0.286888
-0.263965
-0.243695
-0.225704
-0.209674
-0.195346
-0.182466
-0.170691
-0.159847
-0.151092
-0.642984
-0.626336
-0.600759
-0.564889
-0.522878
-0.479613
-0.438271
-0.40039
-0.366439
-0.33631
-0.309649
-0.286037
-0.265067
-0.246378
-0.229655
-0.214641
-0.201093
-0.188678
-0.1772
-0.167751
-0.659578
-0.642712
-0.618258
-0.584082
-0.543543
-0.501224
-0.460308
-0.422458
-0.388277
-0.357761
-0.330624
-0.306486
-0.284966
-0.265712
-0.248421
-0.232839
-0.21873
-0.205779
-0.193768
-0.183709
-0.671893
-0.654895
-0.631672
-0.599421
-0.560692
-0.519694
-0.47956
-0.44205
-0.407901
-0.37722
-0.349797
-0.325301
-0.303378
-0.283696
-0.26596
-0.249923
-0.235361
-0.221972
-0.209523
-0.198934
-0.68008
-0.663036
-0.641114
-0.610968
-0.574346
-0.53502
-0.496014
-0.459156
-0.425305
-0.394685
-0.367169
-0.342482
-0.320305
-0.300327
-0.282268
-0.265889
-0.250974
-0.237243
-0.224447
-0.21341
-0.684356
-0.667347
-0.646759
-0.618839
-0.584569
-0.547235
-0.509689
-0.473789
-0.440504
-0.410171
-0.382755
-0.358044
-0.33576
-0.315618
-0.297355
-0.280741
-0.265574
-0.251591
-0.238537
-0.227133
-0.684989
-0.668098
-0.648841
-0.623207
-0.591476
-0.55641
-0.520632
-0.485986
-0.453528
-0.423707
-0.396584
-0.372014
-0.349766
-0.329588
-0.311236
-0.294494
-0.279169
-0.265023
-0.251795
-0.240105
-0.682297
-0.665605
-0.647647
-0.6243
-0.595228
-0.562655
-0.528922
-0.495808
-0.464433
-0.435345
-0.408702
-0.384434
-0.362364
-0.342274
-0.323944
-0.307174
-0.291784
-0.277557
-0.264237
-0.252338
-0.676637
-0.660229
-0.643513
-0.622393
-0.596028
-0.566111
-0.534654
-0.503328
-0.473277
-0.445137
-0.419158
-0.395351
-0.373594
-0.353712
-0.335512
-0.31881
-0.303444
-0.289215
-0.275879
-0.26385
-0.668394
-0.652358
-0.636809
-0.617809
-0.594129
-0.566962
-0.537964
-0.508646
-0.480142
-0.453155
-0.428021
-0.404827
-0.383516
-0.363956
-0.345987
-0.329447
-0.314187
-0.300033
-0.286751
-0.274666
0.0514193
0.0217433
0.000969475
-0.0087824
-0.0178009
-0.0300508
-0.0436912
-0.0567561
-0.0689639
-0.0807362
-0.0923023
-0.103613
-0.114551
-0.125053
-0.135103
-0.144696
-0.15383
-0.162495
-0.17069
-0.178416
0.00314481
-0.0104105
-0.0208722
-0.0274033
-0.0328137
-0.0391538
-0.0463199
-0.0533954
-0.0599149
-0.0659589
-0.0717301
-0.0773074
-0.0826648
-0.0877623
-0.0925864
-0.0971445
-0.101448
-0.105504
-0.109318
-0.112894
-6.32626e-05
-0.00524256
-0.00857408
-0.0119753
-0.0157349
-0.0196286
-0.0235221
-0.0273476
-0.0310574
-0.034646
-0.0381425
-0.0415739
-0.0449465
-0.0482543
-0.0514924
-0.0546612
-0.0577647
-0.0608064
-0.0637894
-0.066716
0.000865633
-0.0020619
-0.00394727
-0.00642078
-0.00945389
-0.0125226
-0.0154005
-0.0181358
-0.020809
-0.0234401
-0.0260161
-0.0285262
-0.0309693
-0.0333472
-0.0356612
-0.037912
-0.0401004
-0.0422282
-0.0442975
-0.0463106
0.00225267
1.045e-05
-0.00126969
-0.00279862
-0.00473999
-0.00676568
-0.00866368
-0.0104359
-0.0121511
-0.0138448
-0.0155158
-0.0171543
-0.0187571
-0.0203272
-0.0218687
-0.0233844
-0.0248764
-0.0263467
-0.0277974
-0.0292302
0.003596
0.00186237
0.000964507
-1.09674e-05
-0.00128474
-0.00267029
-0.00400372
-0.00526049
-0.00647968
-0.00769021
-0.00889611
-0.0100912
-0.0112711
-0.0124358
-0.0135865
-0.0147246
-0.0158505
-0.0169646
-0.018067
-0.0191583
0.00540984
0.0041329
0.00349656
0.00282674
0.00194195
0.000959831
-2.03622e-06
-0.00091737
-0.00180786
-0.00269335
-0.00357836
-0.00445949
-0.00533356
-0.0061998
-0.00705883
-0.00791139
-0.00875793
-0.00959871
-0.0104341
-0.0112643
0.00730846
0.00638637
0.00588858
0.0053597
0.00468502
0.0039423
0.00320826
0.00250167
0.00181024
0.00112168
0.000432776
-0.000254574
-0.000938257
-0.00161753
-0.00229252
-0.00296353
-0.0036307
-0.00429408
-0.00495374
-0.00560969
0.00900743
0.0083717
0.00796304
0.00750543
0.00695494
0.00636853
0.0057905
0.00522921
0.00467681
0.00412656
0.00357698
0.00302922
0.00248447
0.00194316
0.00140521
0.000870498
0.00033893
-0.000189542
-0.000714986
-0.00123739
0.0103124
0.0098966
0.00955917
0.00915182
0.00868624
0.00820984
0.00774516
0.00729161
0.00684285
0.00639555
0.00594962
0.00550595
0.0050651
0.00462714
0.00419195
0.00375941
0.00332943
0.00290195
0.00247686
0.00205415
0.0112201
0.0109617
0.0106911
0.0103393
0.00994995
0.00956464
0.00919353
0.00883074
0.00847041
0.00811096
0.00775308
0.00739754
0.00704455
0.00669395
0.00634552
0.00599914
0.00565467
0.00531201
0.00497103
0.00463167
0.0118165
0.0116689
0.0114637
0.0111755
0.0108612
0.0105577
0.0102686
0.00998618
0.00970479
0.00942364
0.00914372
0.00886569
0.00858958
0.00831511
0.00804202
0.00777014
0.00749933
0.00722946
0.00696038
0.00669201
0.0122304
0.0121724
0.0120344
0.0118138
0.0115728
0.011345
0.0111313
0.0109229
0.0107147
0.0105061
0.010298
0.010091
0.00988511
0.00967982
0.00947488
0.00927005
0.00906516
0.00886005
0.00865453
0.0084485
0.0125453
0.0125765
0.0125093
0.0123554
0.0121834
0.0120266
0.0118842
0.0117464
0.0116078
0.0114679
0.0113275
0.0111871
0.0110464
0.010905
0.0107625
0.0106185
0.0104728
0.0103252
0.0101755
0.0100236
0.0128132
0.0129623
0.0129892
0.0129157
0.0128223
0.0127465
0.0126863
0.0126299
0.0125707
0.0125079
0.0124422
0.0123739
0.0123028
0.0122281
0.0121493
0.012066
0.0119781
0.0118854
0.0117877
0.0116849
0.0129346
0.013195
0.0133582
0.0134262
0.013465
0.0135105
0.0135638
0.0136151
0.0136577
0.0136901
0.0137129
0.0137265
0.0137307
0.0137251
0.0137095
0.0136838
0.0136481
0.0136025
0.0135472
0.0134826
0.013442
0.0137888
0.014192
0.0145592
0.0148665
0.0151268
0.0153551
0.0155572
0.0157332
0.015882
0.0160039
0.0160999
0.0161717
0.0162207
0.016248
0.0162548
0.0162425
0.0162122
0.0161651
0.0161024
0.0162831
0.016902
0.0175487
0.0180913
0.0185246
0.0188786
0.0191744
0.01942
0.019618
0.0197704
0.0198802
0.019951
0.0199863
0.0199894
0.0199632
0.0199104
0.0198337
0.0197354
0.0196177
0.0194827
0.0278395
0.0315905
0.0329726
0.0324693
0.0315469
0.0308819
0.0304602
0.0300967
0.0296947
0.0292513
0.0287916
0.0283316
0.0278744
0.0274185
0.0269629
0.0265083
0.0260561
0.0256072
0.0251626
0.0247229
0.0397454
0.0518645
0.0556034
0.053143
0.0495326
0.0469683
0.0453429
0.0440203
0.0426745
0.0412879
0.0399338
0.0386542
0.0374509
0.0363112
0.0352254
0.0341891
0.0332004
0.0322575
0.031358
0.0304992
0.114802
0.115256
0.116171
0.117547
0.119381
0.121695
0.1245
0.127823
0.131671
0.136054
0.140947
0.1463
0.151992
0.157784
0.163247
0.167533
0.169071
0.164578
0.147122
0.100613
0.107399
0.107729
0.108331
0.10923
0.110387
0.11183
0.113486
0.115389
0.117409
0.11957
0.121631
0.123576
0.124938
0.125588
0.124586
0.121486
0.114268
0.101436
0.0778434
0.0371154
0.098634
0.0987906
0.0990623
0.0994571
0.0999437
0.100513
0.101096
0.101661
0.102086
0.102302
0.102102
0.101336
0.099653
0.0967487
0.0920367
0.0849388
0.0745951
0.0602035
0.0411811
0.0172028
0.0891113
0.0891129
0.0891016
0.0890724
0.0890053
0.0888683
0.088606
0.0881526
0.087415
0.0862852
0.0846212
0.0822516
0.0789759
0.0745447
0.0687399
0.0612957
0.0521516
0.041135
0.028206
0.012056
0.0794492
0.0793443
0.0791328
0.0788064
0.0783532
0.0777377
0.0769191
0.0758315
0.0744113
0.0725658
0.0702155
0.0672432
0.0635748
0.0590903
0.0537763
0.0475401
0.0404394
0.0322451
0.0227059
0.0106737
0.0701443
0.0699807
0.0696539
0.0691572
0.0684845
0.0676086
0.0665023
0.0651179
0.0634176
0.0613434
0.0588609
0.055912
0.0524842
0.0485282
0.044064
0.039021
0.0333938
0.0269499
0.0194524
0.0100945
0.0615211
0.0613345
0.0609611
0.0603968
0.0596391
0.0586717
0.0574795
0.0560339
0.054316
0.0522952
0.0499598
0.0472823
0.0442639
0.0408745
0.0371217
0.0329475
0.028341
0.0231605
0.0172837
0.0102115
0.0537429
0.0535565
0.0531833
0.0526206
0.0518682
0.0509175
0.049762
0.0483863
0.0467824
0.0449341
0.0428378
0.0404771
0.0378537
0.0349472
0.0317651
0.0282781
0.0245026
0.0203805
0.0158803
0.0107214
0.0468513
0.046678
0.0463315
0.0458089
0.0451109
0.0442334
0.0431745
0.0419265
0.0404869
0.0388466
0.0370053
0.0349532
0.0326942
0.030218
0.0275391
0.0246497
0.0215828
0.0183283
0.0149261
0.0113093
0.04081
0.0406555
0.0403469
0.0398811
0.0392586
0.0384771
0.0375375
0.0364362
0.0351744
0.0337476
0.0321588
0.0304036
0.0284894
0.0264131
0.0241925
0.0218288
0.0193609
0.0168056
0.0142535
0.0117885
0.0355411
0.0354069
0.035139
0.0347341
0.0341923
0.0335121
0.0326961
0.0317433
0.0306575
0.0294379
0.0280908
0.0266158
0.0250235
0.0233142
0.021506
0.019603
0.0176447
0.0156611
0.0137675
0.0121225
0.0309521
0.0308371
0.030608
0.0302614
0.0297972
0.0292148
0.0285175
0.0277064
0.0267868
0.0257603
0.024635
0.0234135
0.0221088
0.0207243
0.0192795
0.0177798
0.0162626
0.0147592
0.0133873
0.0123282
0.0269529
0.0268543
0.0266585
0.0263624
0.0259662
0.0254704
0.0248798
0.024197
0.0234286
0.0225769
0.0216502
0.0206514
0.019594
0.0184846
0.0173465
0.0161906
0.015055
0.0139687
0.013039
0.0124442
0.0234679
0.0233808
0.0232088
0.0229493
0.0226034
0.0221734
0.0216664
0.0210877
0.0204467
0.0197475
0.0189986
0.0182007
0.0173634
0.0164897
0.0156028
0.0147209
0.0138953
0.0131679
0.0126437
0.0124777
0.0204449
0.0203627
0.0202014
0.0199586
0.0196367
0.0192393
0.0187765
0.0182575
0.0176975
0.0171067
0.0165008
0.0158835
0.0152632
0.0146308
0.0139935
0.0133529
0.0127645
0.0122986
0.0121136
0.0124008
0.017861
0.0177764
0.017611
0.0173621
0.0170328
0.0166261
0.0161538
0.0156265
0.0150657
0.0144895
0.0139308
0.0134111
0.0129643
0.0125895
0.012289
0.0120118
0.0117559
0.0115395
0.0115903
0.0122373
0.0157226
0.0156299
0.0154477
0.0151728
0.0148074
0.0143521
0.0138165
0.0132069
0.0125435
0.0118436
0.0111504
0.0105061
0.00999387
0.00968112
0.00965995
0.00992456
0.010428
0.0109757
0.0115736
0.0126223
0.0140588
0.0139569
0.013751
0.0134393
0.0130207
0.0124947
0.0118617
0.0111227
0.0102811
0.00934405
0.00832927
0.00727249
0.00624801
0.00538953
0.0049203
0.00514456
0.00637232
0.00869625
0.0117223
0.0146098
0.0129131
0.0128035
0.0125751
0.0122284
0.0117583
0.011164
0.0104347
0.0095671
0.00854205
0.00735317
0.00596998
0.00438751
0.00257669
0.000589042
-0.00147136
-0.00318898
-0.00378499
-0.00173301
0.00477418
0.0169928
0.0123301
0.0122135
0.0119715
0.0116031
0.0111027
0.0104657
0.00967886
0.00872987
0.00759327
0.00624275
0.00462914
0.00269609
0.000345709
-0.00253659
-0.00611341
-0.0104807
-0.0154528
-0.0196415
-0.0180704
0.00495508
0.122669
0.123164
0.124278
0.125919
0.12823
0.131114
0.134806
0.13917
0.144574
0.150823
0.158486
0.167276
0.178108
0.190529
0.206104
0.224052
0.247264
0.274237
0.310589
0.353067
0.122684
0.123179
0.124292
0.125934
0.128245
0.131128
0.13482
0.139185
0.144588
0.150835
0.158496
0.167282
0.178107
0.190518
0.20607
0.223988
0.247137
0.274012
0.310195
0.352367
0.122666
0.123162
0.124275
0.125916
0.128225
0.131108
0.134796
0.139158
0.144556
0.150797
0.158447
0.16722
0.178019
0.190398
0.205888
0.223722
0.246711
0.273348
0.309115
0.350569
0.122618
0.123113
0.124225
0.125865
0.128171
0.131051
0.134735
0.139091
0.144479
0.150709
0.15834
0.167089
0.177846
0.19017
0.205559
0.223257
0.245989
0.272249
0.307353
0.347683
0.122538
0.123033
0.124143
0.125781
0.128084
0.130959
0.134636
0.138983
0.144359
0.150571
0.158176
0.16689
0.177589
0.189837
0.205086
0.222596
0.244977
0.270723
0.304918
0.343723
0.122427
0.122922
0.12403
0.125666
0.127963
0.130832
0.1345
0.138835
0.144194
0.150384
0.157956
0.166624
0.17725
0.189398
0.204472
0.221743
0.243679
0.268781
0.30182
0.338711
0.122285
0.12278
0.123886
0.125518
0.127809
0.130671
0.134328
0.138649
0.143987
0.150149
0.15768
0.166292
0.176829
0.188857
0.20372
0.220703
0.242104
0.266433
0.298073
0.332671
0.122113
0.122608
0.123711
0.125339
0.127623
0.130476
0.134119
0.138423
0.143737
0.149866
0.15735
0.165895
0.176331
0.188216
0.202835
0.21948
0.24026
0.263695
0.293692
0.325634
0.121911
0.122406
0.123505
0.125128
0.127405
0.130247
0.133876
0.13816
0.143446
0.149536
0.156967
0.165436
0.175756
0.187477
0.201823
0.218082
0.238158
0.260581
0.288696
0.317638
0.121679
0.122174
0.12327
0.124888
0.127155
0.129986
0.133598
0.137859
0.143115
0.149162
0.156533
0.164915
0.175109
0.186644
0.200689
0.216515
0.23581
0.257108
0.283106
0.308724
0.121418
0.121913
0.123005
0.124617
0.126875
0.129693
0.133286
0.137522
0.142744
0.148744
0.156049
0.164335
0.174391
0.185719
0.199439
0.214784
0.233231
0.253295
0.276944
0.298937
0.121127
0.121623
0.122711
0.124317
0.126564
0.129369
0.132941
0.137151
0.142336
0.148283
0.155518
0.163698
0.173606
0.184706
0.198081
0.212898
0.230435
0.24916
0.270238
0.28833
0.120809
0.121305
0.12239
0.12399
0.126225
0.129014
0.132565
0.136745
0.14189
0.147781
0.154941
0.163006
0.172758
0.183611
0.196621
0.210865
0.22744
0.24472
0.26302
0.276954
0.120462
0.12096
0.122041
0.123634
0.125857
0.128631
0.132158
0.136307
0.14141
0.14724
0.15432
0.162262
0.17185
0.182437
0.195068
0.208693
0.224266
0.239993
0.255325
0.264862
0.120088
0.120588
0.121665
0.123252
0.125462
0.128219
0.131721
0.135838
0.140895
0.146661
0.153656
0.161468
0.170883
0.181187
0.193425
0.20639
0.220932
0.234998
0.247198
0.252095
0.119688
0.12019
0.121263
0.122843
0.12504
0.127779
0.131254
0.135336
0.140345
0.146044
0.152948
0.160622
0.169855
0.17986
0.191693
0.203958
0.217449
0.229746
0.238696
0.238691
0.119261
0.119767
0.120837
0.12241
0.124592
0.127313
0.13076
0.134806
0.139764
0.145392
0.152201
0.159731
0.168775
0.178466
0.189883
0.20141
0.213841
0.224253
0.229881
0.224682
0.118809
0.11932
0.120389
0.121957
0.124127
0.126831
0.130253
0.134265
0.139177
0.144737
0.151457
0.158845
0.167706
0.177078
0.188083
0.198839
0.210204
0.218571
0.220779
0.209925
0.118332
0.11885
0.119919
0.121485
0.123646
0.126339
0.129741
0.133726
0.138599
0.144102
0.150743
0.158
0.166688
0.175747
0.186345
0.196303
0.206593
0.212732
0.211383
0.193542
0.117826
0.118346
0.119408
0.120963
0.123099
0.125763
0.129117
0.133049
0.137836
0.14324
0.149726
0.156793
0.165193
0.173872
0.183915
0.193053
0.202188
0.206284
0.201895
0.17605
0.116045
0.116558
0.117613
0.119141
0.121246
0.123847
0.127134
0.130952
0.135621
0.140838
0.147123
0.153889
0.161944
0.170149
0.179566
0.187966
0.19591
0.198897
0.192166
0.164455
0.116642
0.117154
0.118217
0.119757
0.121889
0.124523
0.127862
0.13174
0.136503
0.141827
0.148278
0.155246
0.1636
0.172208
0.182192
0.191451
0.200561
0.205638
0.201905
0.182099
0.11721
0.117715
0.118776
0.120318
0.12246
0.125108
0.128472
0.132382
0.137191
0.142585
0.149127
0.156249
0.164795
0.173752
0.184172
0.194279
0.204502
0.211825
0.211651
0.198613
0.117753
0.118252
0.119314
0.120861
0.123017
0.125683
0.129075
0.133025
0.137887
0.143358
0.15
0.157282
0.166028
0.175332
0.186191
0.19711
0.208443
0.217832
0.221148
0.213703
0.11827
0.118765
0.11983
0.121385
0.123556
0.126243
0.129667
0.133658
0.138576
0.144128
0.150874
0.158316
0.167266
0.176909
0.18821
0.199902
0.212346
0.223648
0.230392
0.228119
0.118762
0.119254
0.120322
0.121885
0.12407
0.126779
0.130232
0.134264
0.139236
0.144865
0.15171
0.159306
0.168453
0.17842
0.190154
0.20258
0.216131
0.229232
0.239344
0.241973
0.119227
0.119717
0.120789
0.122359
0.124559
0.127287
0.130768
0.134839
0.139861
0.145564
0.152504
0.160246
0.169581
0.179856
0.192013
0.205133
0.219775
0.23457
0.247937
0.255239
0.119665
0.120153
0.121229
0.122807
0.12502
0.127767
0.131275
0.135382
0.140453
0.146226
0.153255
0.161136
0.170653
0.181218
0.193786
0.207555
0.223264
0.239647
0.256111
0.267878
0.120075
0.120563
0.121643
0.123228
0.125454
0.128219
0.131752
0.135894
0.14101
0.146849
0.153964
0.161975
0.171666
0.1825
0.195466
0.209841
0.226577
0.244448
0.263823
0.27984
0.120456
0.120944
0.122028
0.123621
0.12586
0.128641
0.132198
0.136373
0.141532
0.147432
0.154628
0.162759
0.172615
0.183701
0.197046
0.21198
0.229694
0.248954
0.271035
0.29107
0.120809
0.121297
0.122385
0.123985
0.126235
0.129033
0.132612
0.136817
0.142016
0.147974
0.155244
0.163487
0.173499
0.184814
0.198519
0.213967
0.232599
0.253147
0.277715
0.301509
0.121133
0.121621
0.122713
0.12432
0.126581
0.129393
0.132993
0.137226
0.142461
0.148472
0.155812
0.164157
0.174314
0.185837
0.199878
0.215794
0.235275
0.257009
0.283835
0.311106
0.121426
0.121915
0.123012
0.124624
0.126895
0.129721
0.133339
0.137598
0.142867
0.148925
0.156329
0.164765
0.175056
0.186766
0.201117
0.217454
0.237708
0.260521
0.289373