/*--------------------------------*- C++ -*----------------------------------*\
  =========                 |
  \\      /  F ield         | OpenFOAM: The Open Source CFD Toolbox
   \\    /   O peration     | Website:  https://openfoam.org
    \\  /    A nd           | Version:  6.0
     \\/     M anipulation  |
\*---------------------------------------------------------------------------*/
FoamFile
{
    version     2.0;
    format      ascii;
    class       surfaceScalarField;
    location    "81";
    object      phi;
}
// * * * * * * * * * * * * * * * * * * * * * * * * * * * * * * * * * * * * * //

dimensions      [0 3 -1 0 0 0 0];

internalField   nonuniform List<scalar> 
7840
(
3.75895e-05
-0.000347359
0.000128458
-0.00103154
0.00025037
-0.00167253
0.00038168
-0.00222658
0.000505148
-0.00266618
0.000610219
-0.0029863
0.000692801
-0.00319956
0.000753516
-0.00332755
0.000795614
-0.00339349
0.000823268
-0.00341774
0.000840477
-0.00341605
0.000850543
-0.0033995
0.00085593
-0.00337534
0.000858355
-0.00334801
0.00085896
-0.00332013
0.000858486
-0.00329318
0.000857412
-0.00326798
0.000856051
-0.00324496
0.000854594
-0.00322434
-0.00320625
0.000853149
3.83133e-05
-0.000385672
0.000128261
-0.00112149
0.000245415
-0.00178968
0.000367535
-0.0023487
0.0004783
-0.00277695
0.000568832
-0.00307684
0.000636701
-0.00326743
0.000683733
-0.00337458
0.000713804
-0.00342356
0.000731232
-0.00343517
0.000739852
-0.00342467
0.000742649
-0.0034023
0.00074175
-0.00337444
0.00073857
-0.00334483
0.000734019
-0.00331558
0.000728671
-0.00328783
0.000722897
-0.0032622
0.000716934
-0.003239
0.000710927
-0.00321833
-0.00320027
0.000704956
3.86058e-05
-0.000424278
0.000126541
-0.00120943
0.000237578
-0.00190072
0.00034938
-0.0024605
0.000446876
-0.00287444
0.000522938
-0.0031529
0.000576671
-0.00332116
0.000610881
-0.00340879
0.000629862
-0.00344254
0.000637922
-0.00344323
0.000638645
-0.00342539
0.000634683
-0.00339833
0.000627834
-0.00336759
0.000619249
-0.00333625
0.000609641
-0.00330598
0.000599451
-0.00327764
0.000588964
-0.00325172
0.000578366
-0.0032284
0.000567768
-0.00320773
-0.00318973
0.000557228
3.84509e-05
-0.000462729
0.000123322
-0.0012943
0.000227044
-0.00200444
0.000327646
-0.0025611
0.000411566
-0.00295836
0.000473423
-0.00321475
0.000513684
-0.00336142
0.000535923
-0.00343103
0.000544664
-0.00345128
0.000544088
-0.00344265
0.000537477
-0.00341878
0.000527145
-0.003388
0.000514592
-0.00335503
0.000500737
-0.00332239
0.000486131
-0.00329137
0.000471109
-0.00326262
0.00045589
-0.0032365
0.000440619
-0.00321313
0.000425384
-0.0031925
-0.00317458
0.000410234
3.78426e-05
-0.000500571
0.00011866
-0.00137512
0.000214035
-0.00209982
0.000302788
-0.00264985
0.000373036
-0.00302861
0.000421082
-0.0032628
0.000448568
-0.00338891
0.000459632
-0.0034421
0.000458874
-0.00345052
0.000450262
-0.00343404
0.000436752
-0.00340527
0.000420334
-0.00337158
0.000402241
-0.00333694
0.000383197
-0.00330335
0.000363618
-0.00327179
0.000343757
-0.00324276
0.000323778
-0.00321652
0.000303799
-0.00319315
0.000283893
-0.00317259
-0.00315479
0.000264101
3.67838e-05
-0.000537355
0.000112638
-0.00145097
0.000198808
-0.00218599
0.000275271
-0.00272632
0.000331925
-0.00308526
0.000366644
-0.00329752
0.000382053
-0.00340432
0.000382672
-0.00344272
0.000373053
-0.0034409
0.000356893
-0.00341788
0.00033682
-0.0033852
0.000314523
-0.00334929
0.000291003
-0.00331342
0.000266819
-0.00327917
0.000242278
-0.00324725
0.000217564
-0.00321805
0.000192802
-0.00319176
0.000168087
-0.00316843
0.000143482
-0.00314799
-0.00313034
0.000119027
3.52865e-05
-0.000572642
0.000105361
-0.00152105
0.000181636
-0.00226226
0.000245551
-0.00279023
0.000288818
-0.00312853
0.000310746
-0.00331945
0.000314752
-0.00340832
0.000305578
-0.00343354
0.000287634
-0.00342296
0.000264318
-0.00339456
0.000237935
-0.00335881
0.000209904
-0.00332126
0.000181027
-0.00328454
0.000151728
-0.00324987
0.000122225
-0.00321775
9.26441e-05
-0.00318847
6.30769e-05
-0.00316219
3.36013e-05
-0.00313896
4.27948e-06
-0.00311866
-0.00310121
-2.485e-05
3.33705e-05
-0.000606012
9.69497e-05
-0.00158462
0.000162801
-0.00232811
0.000214065
-0.00284149
0.000244253
-0.00315872
0.000253948
-0.00332914
0.000247183
-0.00340156
0.00022879
-0.00341515
0.000202971
-0.00339714
0.000172807
-0.0033644
0.000140301
-0.00332631
0.000106634
-0.00328759
7.24424e-05
-0.00325035
3.80391e-05
-0.00321546
3.56844e-06
-0.00318328
-3.08927e-05
-0.00315401
-6.52817e-05
-0.0031278
-9.95336e-05
-0.00310471
-0.000133585
-0.00308461
-0.0030674
-0.000167392
3.10621e-05
-0.000637074
8.75342e-05
-0.0016411
0.000142582
-0.00238316
0.000181222
-0.00288014
0.000198705
-0.0031762
0.000196729
-0.00332716
0.000179778
-0.00338461
0.000152668
-0.00338804
0.000119344
-0.00336382
8.25712e-05
-0.00332762
4.40751e-05
-0.00328781
4.83382e-06
-0.00324835
-3.46528e-05
-0.00321087
-7.41613e-05
-0.00317595
-0.000113608
-0.00314383
-0.00015296
-0.00311465
-0.000192183
-0.00308858
-0.000231222
-0.00306567
-0.000270008
-0.00304583
-0.00302892
-0.000308487
2.83931e-05
-0.000665467
7.72517e-05
-0.00168996
0.000121249
-0.00242716
0.000147399
-0.00290629
0.000152601
-0.0031814
0.000139503
-0.00331407
0.000112902
-0.00335801
7.75088e-05
-0.00335264
3.69842e-05
-0.00332329
-6.2143e-06
-0.00328443
-5.06088e-05
-0.00324342
-9.53929e-05
-0.00320356
-0.000140175
-0.00316608
-0.0001848
-0.00313133
-0.000229236
-0.00309939
-0.00027349
-0.0030704
-0.000317556
-0.00304451
-0.000361389
-0.00302183
-0.000404911
-0.0030023
-0.00298578
-0.00044805
2.53995e-05
-0.000690867
6.62417e-05
-0.0017308
9.90625e-05
-0.00245998
0.000112941
-0.00292016
0.000106315
-0.00317478
8.26278e-05
-0.00329038
4.68623e-05
-0.00332224
3.56145e-06
-0.00330934
-4.39148e-05
-0.00327582
-9.34e-05
-0.00323494
-0.000143636
-0.00319318
-0.000193956
-0.00315324
-0.000244053
-0.00311599
-0.000293821
-0.00308156
-0.000343268
-0.00304995
-0.000392439
-0.00302123
-0.00044136
-0.00299559
-0.00049
-0.00297319
-0.000538263
-0.00295404
-0.00293799
-0.000586055
2.21208e-05
-0.000712988
5.46432e-05
-0.00176332
7.62673e-05
-0.0024816
7.81615e-05
-0.00292206
6.0179e-05
-0.0031568
2.64116e-05
-0.00325661
-1.80759e-05
-0.00327775
-6.89578e-05
-0.00325846
-0.00012318
-0.00322159
-0.000178847
-0.00317927
-0.000234893
-0.00313714
-0.000290767
-0.00309737
-0.000346218
-0.00306054
-0.000401174
-0.0030266
-0.00045567
-0.00299545
-0.000509789
-0.00296711
-0.000563592
-0.00294179
-0.000617069
-0.00291972
-0.000670106
-0.002901
-0.00288552
-0.000722573
1.85987e-05
-0.000731586
4.25927e-05
-0.00178731
5.30932e-05
-0.0024921
4.33452e-05
-0.00291231
1.44875e-05
-0.00312794
-2.88737e-05
-0.00321325
-8.16783e-05
-0.00322495
-0.000139853
-0.00320029
-0.000200646
-0.0031608
-0.000262414
-0.0031175
-0.000324261
-0.00307529
-0.000385725
-0.0030359
-0.000446594
-0.00299967
-0.000506809
-0.00296639
-0.000566419
-0.00293584
-0.000625537
-0.00290799
-0.000684273
-0.00288305
-0.000742648
-0.00286134
-0.000800535
-0.00284312
-0.00282832
-0.000857743
1.48766e-05
-0.000746463
3.02231e-05
-0.00180266
2.97544e-05
-0.00249164
8.75027e-06
-0.00289131
-3.04964e-05
-0.00308869
-8.2985e-05
-0.00316076
-0.000143731
-0.0031642
-0.000208936
-0.00313508
-0.000276144
-0.00309359
-0.000343946
-0.0030497
-0.000411594
-0.00300764
-0.000478702
-0.0029688
-0.000545079
-0.00293329
-0.000610658
-0.00290081
-0.000675483
-0.00287102
-0.000739686
-0.00284379
-0.000803431
-0.00281931
-0.000866789
-0.00279799
-0.000929633
-0.00278027
-0.00276628
-0.000991669
1.0999e-05
-0.000757462
1.76621e-05
-0.00180932
6.44967e-06
-0.00248042
-2.53889e-05
-0.00285947
-7.45354e-05
-0.00303955
-0.000135701
-0.0030996
-0.000204032
-0.00309587
-0.000276019
-0.0030631
-0.000349492
-0.00302012
-0.000423259
-0.00297594
-0.000496709
-0.00293419
-0.000569523
-0.00289598
-0.000641523
-0.00286129
-0.000712617
-0.00282972
-0.000782813
-0.00280082
-0.00085224
-0.00277436
-0.000921103
-0.00275044
-0.000989548
-0.00272954
-0.00105746
-0.00271236
-0.00269935
-0.00112439
7.01049e-06
-0.000764472
5.03164e-06
-0.00180734
-1.66373e-05
-0.00245875
-5.88595e-05
-0.00281724
-0.000117414
-0.00298099
-0.000186816
-0.0030302
-0.000262386
-0.0030203
-0.000340907
-0.00298457
-0.000420485
-0.00294054
-0.00050013
-0.00289629
-0.000579363
-0.00285496
-0.000657938
-0.00281741
-0.00073569
-0.00278354
-0.000812498
-0.00275291
-0.000888308
-0.00272501
-0.000963196
-0.00269947
-0.00103738
-0.00267626
-0.00111109
-0.00265583
-0.00118425
-0.00263921
-0.00262731
-0.00125629
2.95521e-06
-0.000767428
-7.55365e-06
-0.00179684
-3.93384e-05
-0.00242697
-9.14696e-05
-0.00276511
-0.000158939
-0.00291352
-0.000236141
-0.00295299
-0.000318601
-0.00293784
-0.000403397
-0.00289978
-0.000488892
-0.00285505
-0.000574292
-0.00281089
-0.000659249
-0.00277
-0.000743599
-0.00273306
-0.000827218
-0.00269992
-0.000909968
-0.00267016
-0.000991727
-0.00264325
-0.00107248
-0.00261872
-0.00115242
-0.00259632
-0.00123187
-0.00257638
-0.00131082
-0.00256025
-0.00254916
-0.00138897
-1.12415e-06
-0.000766304
-1.99875e-05
-0.00177797
-6.15023e-05
-0.00238545
-0.000123048
-0.00270357
-0.000198934
-0.00283763
-0.000283498
-0.00286843
-0.000372492
-0.00284885
-0.000463277
-0.00280899
-0.000554462
-0.00276386
-0.000645437
-0.00271992
-0.000735988
-0.00267945
-0.000826058
-0.00264299
-0.000915603
-0.00261038
-0.00100452
-0.00258124
-0.00109265
-0.00255512
-0.00117988
-0.00253149
-0.00126635
-0.00250985
-0.00135249
-0.00249024
-0.00143853
-0.00247421
-0.00246243
-0.00152525
-5.18724e-06
-0.000761116
-3.21736e-05
-0.00175099
-8.29956e-05
-0.00233463
-0.000153447
-0.00263312
-0.000237249
-0.00275383
-0.000328731
-0.00277695
-0.000423881
-0.0027537
-0.000520331
-0.00271254
-0.000616917
-0.00266728
-0.000713199
-0.00262363
-0.000809103
-0.00258355
-0.000904708
-0.00254738
-0.00100011
-0.00251497
-0.00109536
-0.002486
-0.00119037
-0.00246011
-0.00128501
-0.00243684
-0.00137931
-0.00241556
-0.00147365
-0.0023959
-0.00156865
-0.00237922
-0.00236389
-0.00166719
-9.1971e-06
-0.000751919
-4.40278e-05
-0.00171616
-0.000103705
-0.00227495
-0.000182545
-0.00255428
-0.00027376
-0.00266262
-0.000371712
-0.002679
-0.000472618
-0.00265279
-0.000574363
-0.0026108
-0.00067598
-0.00256566
-0.00077717
-0.00252244
-0.000877982
-0.00248273
-0.000978633
-0.00244673
-0.00107942
-0.00241418
-0.00118066
-0.00238476
-0.00128264
-0.00235813
-0.00138553
-0.00233394
-0.00148944
-0.00231165
-0.00159497
-0.00229037
-0.00170458
-0.00226961
-0.00226181
-0.00180665
-1.31084e-05
-0.000738811
-5.54585e-05
-0.00167381
-0.000123518
-0.0022069
-0.000210226
-0.00246757
-0.00030836
-0.00256448
-0.000412334
-0.00257502
-0.000518591
-0.00254653
-0.000625234
-0.00250416
-0.000731454
-0.00245944
-0.000837045
-0.00241685
-0.000942109
-0.00237767
-0.00104691
-0.00234193
-0.00115181
-0.00230927
-0.00125734
-0.00227924
-0.00136415
-0.00225132
-0.00147311
-0.00222498
-0.00158508
-0.00219968
-0.00170039
-0.00217507
-0.00181997
-0.00215003
-0.0021171
-0.00196468
-1.69156e-05
-0.000721895
-6.64467e-05
-0.00162427
-0.000142411
-0.00213093
-0.000236475
-0.00237351
-0.000341043
-0.00245991
-0.000450605
-0.00246546
-0.000561814
-0.00243533
-0.000672969
-0.002393
-0.000783383
-0.00234903
-0.000892905
-0.00230733
-0.00100163
-0.00226895
-0.00110973
-0.00223383
-0.00121744
-0.00220157
-0.001325
-0.00217167
-0.00143269
-0.00214364
-0.00154072
-0.00211695
-0.00164916
-0.00209124
-0.00175824
-0.00206599
-0.00186865
-0.00203962
-0.00200841
-0.00197734
-2.05835e-05
-0.000701312
-7.69287e-05
-0.00156793
-0.000160314
-0.00204755
-0.000261232
-0.00227259
-0.000371771
-0.00234938
-0.000486506
-0.00235073
-0.000602292
-0.00231954
-0.000717601
-0.00227769
-0.000831855
-0.00223477
-0.000944954
-0.00219423
-0.001057
-0.00215691
-0.00116814
-0.00212268
-0.00127857
-0.00209114
-0.00138843
-0.00206182
-0.00149781
-0.00203425
-0.00160675
-0.00200801
-0.00171524
-0.00198275
-0.00182323
-0.001958
-0.00192997
-0.00193287
-0.00190653
-0.00203186
-2.40941e-05
-0.000677218
-8.68728e-05
-0.00150515
-0.000177199
-0.00195722
-0.000284485
-0.0021653
-0.000400552
-0.00223331
-0.000520072
-0.00223121
-0.000640085
-0.00219953
-0.000759217
-0.00215856
-0.000876979
-0.00211701
-0.000993302
-0.00207791
-0.00110828
-0.00204193
-0.00122203
-0.00200892
-0.00133469
-0.00197848
-0.00144633
-0.00195018
-0.00155695
-0.00192363
-0.00166649
-0.00189847
-0.00177481
-0.00187443
-0.00188164
-0.00185117
-0.00198628
-0.00182823
-0.00180518
-0.00208763
-2.74334e-05
-0.000649784
-9.62572e-05
-0.00143633
-0.000193051
-0.00186043
-0.00030624
-0.00205211
-0.000427418
-0.00211213
-0.00055136
-0.00210726
-0.000675284
-0.0020756
-0.000797956
-0.00203589
-0.000918968
-0.001996
-0.00103828
-0.0019586
-0.00115599
-0.00192423
-0.0012722
-0.00189271
-0.001387
-0.00186368
-0.00150044
-0.00183674
-0.00161251
-0.00181156
-0.00172314
-0.00178785
-0.00183219
-0.00176538
-0.0019394
-0.00174395
-0.00204438
-0.00172325
-0.00170305
-0.00214651
-3.05905e-05
-0.000619194
-0.000105068
-0.00136185
-0.000207866
-0.00175763
-0.000326512
-0.00193347
-0.000452407
-0.00198624
-0.000580435
-0.00197924
-0.000707981
-0.00194806
-0.000833937
-0.00190993
-0.000957968
-0.00187197
-0.00108007
-0.00183649
-0.00120034
-0.00180396
-0.00131889
-0.00177416
-0.0014358
-0.00174677
-0.00155112
-0.00172143
-0.00166483
-0.00169785
-0.00177688
-0.00167579
-0.00188717
-0.00165508
-0.00199557
-0.00163556
-0.00210187
-0.00161696
-0.00159915
-0.00220577
-3.35576e-05
-0.000585636
-0.000113298
-0.00128211
-0.00022165
-0.00164927
-0.000345325
-0.00180979
-0.000475566
-0.00185599
-0.000607366
-0.00184744
-0.000738266
-0.00181716
-0.000867276
-0.00178092
-0.000994131
-0.00174511
-0.00111886
-0.00171177
-0.00124157
-0.00168125
-0.00136238
-0.00165335
-0.00148139
-0.00162776
-0.00159864
-0.00160417
-0.00171416
-0.00158233
-0.00182793
-0.00156203
-0.0019399
-0.00154311
-0.00205002
-0.00152543
-0.00215821
-0.00150878
-0.00149305
-0.0022643
-3.63287e-05
-0.000549307
-0.000120942
-0.0011975
-0.00023441
-0.00153581
-0.000362704
-0.0016815
-0.000496938
-0.00172176
-0.000632214
-0.00171216
-0.000766218
-0.00168315
-0.000898072
-0.00164907
-0.00102757
-0.00161561
-0.00115477
-0.00158456
-0.00127982
-0.0015562
-0.00140283
-0.00153034
-0.00152392
-0.00150667
-0.00164316
-0.00148494
-0.00176059
-0.0014649
-0.00187624
-0.00144637
-0.00199012
-0.00142923
-0.00210222
-0.00141333
-0.00221254
-0.00139846
-0.00138459
-0.00232101
-3.88993e-05
-0.000510408
-0.000127999
-0.0011084
-0.000246156
-0.00141765
-0.000378673
-0.00154898
-0.000516563
-0.00158387
-0.000655032
-0.00157369
-0.000791903
-0.00154628
-0.000926397
-0.00151458
-0.00105837
-0.00148364
-0.00118791
-0.00145502
-0.00131517
-0.00142894
-0.00144031
-0.0014052
-0.00156344
-0.00138354
-0.00168467
-0.00136371
-0.00180406
-0.00134551
-0.00192167
-0.00132876
-0.00203756
-0.00131335
-0.00215175
-0.00129913
-0.00226429
-0.00128592
-0.00127372
-0.00237516
-4.12659e-05
-0.000469142
-0.000134469
-0.00101519
-0.000256896
-0.00129522
-0.000393256
-0.00141262
-0.000534475
-0.00144265
-0.000675864
-0.0014323
-0.00081537
-0.00140677
-0.000952304
-0.00137764
-0.00108657
-0.00134937
-0.00121831
-0.00132329
-0.00134767
-0.00129957
-0.00147484
-0.00127803
-0.00159995
-0.00125843
-0.00172312
-0.00124054
-0.00184446
-0.00122417
-0.00196404
-0.00120918
-0.00208193
-0.00119545
-0.00219822
-0.00118285
-0.00231295
-0.00117119
-0.00116052
-0.00242615
-4.34254e-05
-0.000425717
-0.00014035
-0.000918268
-0.000266638
-0.00116894
-0.000406468
-0.00127279
-0.0005507
-0.00129842
-0.000694742
-0.00128826
-0.000836654
-0.00126486
-0.000975829
-0.00123847
-0.00111222
-0.00121298
-0.00124599
-0.00118952
-0.00137733
-0.00116824
-0.00150641
-0.00114895
-0.00163341
-0.00113143
-0.00175845
-0.00111549
-0.00188166
-0.00110096
-0.00200314
-0.0010877
-0.00212298
-0.00107561
-0.00224129
-0.00106455
-0.00235811
-0.00105436
-0.00104512
-0.00247352
-4.5375e-05
-0.000380342
-0.000145642
-0.000818001
-0.000275388
-0.00103919
-0.000418326
-0.00112985
-0.000565259
-0.00115148
-0.000711689
-0.00114183
-0.000855778
-0.00112077
-0.000996991
-0.00109725
-0.00113533
-0.00107464
-0.00127097
-0.00105388
-0.00140412
-0.00103508
-0.00153499
-0.00101808
-0.00166375
-0.00100268
-0.00179055
-0.000988694
-0.00191553
-0.000975984
-0.0020388
-0.000964427
-0.00216048
-0.000953923
-0.00228068
-0.000944353
-0.00239947
-0.000935573
-0.000927659
-0.00251692
-4.71119e-05
-0.00033323
-0.000150345
-0.000714768
-0.000283151
-0.000906383
-0.000428837
-0.000984167
-0.000578166
-0.00100216
-0.00072672
-0.000993278
-0.000872755
-0.000974737
-0.0010158
-0.00095421
-0.00115589
-0.000934549
-0.00129322
-0.000916549
-0.00142803
-0.000900274
-0.00156053
-0.000885582
-0.0016909
-0.000872303
-0.00181932
-0.000860278
-0.00194592
-0.000849379
-0.00207085
-0.000839499
-0.00219423
-0.000830549
-0.00231616
-0.000822422
-0.00243674
-0.000814991
-0.000808343
-0.00255605
-4.86337e-05
-0.000284596
-0.000154455
-0.000608947
-0.000289927
-0.000770911
-0.000438008
-0.000836086
-0.000589429
-0.000850736
-0.000739844
-0.000842862
-0.00088759
-0.000826992
-0.00103225
-0.000809552
-0.00117389
-0.000792908
-0.00131273
-0.000777706
-0.00144902
-0.000763986
-0.00158298
-0.000751627
-0.0017148
-0.000740479
-0.00184467
-0.00073041
-0.00197274
-0.000721308
-0.00209915
-0.000713083
-0.00222405
-0.000705657
-0.00234753
-0.000698935
-0.00246971
-0.000692811
-0.000687372
-0.00259068
-4.99377e-05
-0.000234658
-0.00015797
-0.000500915
-0.000295718
-0.000633163
-0.000445844
-0.00068596
-0.000599052
-0.000697527
-0.000751065
-0.000690849
-0.000900283
-0.000677773
-0.00104634
-0.000663499
-0.00118932
-0.000649923
-0.00132947
-0.000637552
-0.00146705
-0.000626412
-0.00160228
-0.000616398
-0.00173537
-0.000607387
-0.00186651
-0.00059927
-0.00199586
-0.000591954
-0.00212358
-0.000585366
-0.0022498
-0.000579438
-0.00237464
-0.000574092
-0.00249822
-0.00056924
-0.000564964
-0.00262062
-5.10216e-05
-0.000183637
-0.000160889
-0.000391048
-0.000300523
-0.000493529
-0.000452344
-0.000534139
-0.000607038
-0.000542832
-0.000760381
-0.000537506
-0.000910831
-0.000527324
-0.00105805
-0.000516278
-0.00120217
-0.000505809
-0.00134342
-0.000496296
-0.00148208
-0.000487752
-0.00161839
-0.000480093
-0.00175255
-0.000473223
-0.00188477
-0.000467054
-0.00201521
-0.000461514
-0.00214403
-0.000456546
-0.00227137
-0.000452097
-0.00239736
-0.000448102
-0.0025221
-0.000444496
-0.000441349
-0.00264572
-5.18833e-05
-0.000131754
-0.000163207
-0.000279724
-0.00030434
-0.000352397
-0.000457509
-0.00038097
-0.000613387
-0.000386954
-0.000767792
-0.000383101
-0.000919227
-0.000375889
-0.00106739
-0.000368118
-0.00121241
-0.000360786
-0.00135455
-0.000354152
-0.00149409
-0.000348217
-0.00163126
-0.000342921
-0.00176629
-0.000338191
-0.00189938
-0.000333967
-0.0020307
-0.000330196
-0.00216041
-0.000326836
-0.00228865
-0.000323849
-0.00241557
-0.000321189
-0.00254126
-0.000318806
-0.00031676
-0.00266585
-5.25209e-05
-7.92326e-05
-0.000164924
-0.000167321
-0.000307167
-0.000210154
-0.000461337
-0.0002268
-0.000618096
-0.000230195
-0.000773294
-0.000227903
-0.000925466
-0.000223717
-0.00107433
-0.000219255
-0.00122003
-0.000215082
-0.00136284
-0.00021134
-0.00150304
-0.000208024
-0.00164087
-0.000205094
-0.00177655
-0.000202507
-0.00191029
-0.000200225
-0.00204227
-0.000198216
-0.00217265
-0.000196455
-0.00230158
-0.000194919
-0.00242919
-0.000193579
-0.00255559
-0.000192406
-0.000191439
-0.00268092
-5.2933e-05
-2.62996e-05
-0.000166036
-5.42178e-05
-0.000309002
-6.71879e-05
-0.000463827
-7.19754e-05
-0.000621164
-7.28569e-05
-0.000776885
-7.21825e-05
-0.000929543
-7.10589e-05
-0.00107887
-6.9927e-05
-0.00122503
-6.89272e-05
-0.00136828
-6.80856e-05
-0.00150891
-6.73928e-05
-0.00164717
-6.68324e-05
-0.00178329
-6.6388e-05
-0.00191747
-6.60462e-05
-0.00204989
-6.57957e-05
-0.00218072
-6.56281e-05
-0.0023101
-6.55356e-05
-0.00243817
-6.55071e-05
-0.00256505
-6.55323e-05
-6.56322e-05
-0.00269085
-5.31185e-05
2.68189e-05
-0.000166543
5.92062e-05
-0.000309845
7.61143e-05
-0.000464977
8.31573e-05
-0.00062259
8.47556e-05
-0.00077856
8.37878e-05
-0.000931452
8.18334e-05
-0.001081
7.96251e-05
-0.00122738
7.74464e-05
-0.00137085
7.53834e-05
-0.00151169
7.34503e-05
-0.00165016
7.16402e-05
-0.00178649
6.9942e-05
-0.00192088
6.83448e-05
-0.00205352
6.6839e-05
-0.00218456
6.54161e-05
-0.00231417
6.40689e-05
-0.00244246
6.27897e-05
-0.00256957
6.15708e-05
6.04117e-05
-0.00269561
-5.30773e-05
7.98962e-05
-0.000166443
0.000172572
-0.000309694
0.000219366
-0.000464789
0.000238252
-0.000622373
0.00024234
-0.000778321
0.000239736
-0.000931194
0.000234707
-0.00108073
0.00022916
-0.00122709
0.000223804
-0.00137054
0.000218838
-0.00151137
0.000214279
-0.00164983
0.000210099
-0.00178615
0.000206259
-0.00192052
0.000202723
-0.00205315
0.00019946
-0.00218418
0.000196447
-0.00231377
0.000193659
-0.00244205
0.000191072
-0.00256914
0.000188658
0.000186439
-0.00269516
-5.28088e-05
0.000132705
-0.000165736
0.000285499
-0.000308549
0.000362179
-0.000463259
0.000392961
-0.000620511
0.000399592
-0.000776164
0.000395389
-0.000928765
0.000387308
-0.00107804
0.000378437
-0.00122415
0.000369913
-0.00136736
0.000362048
-0.00150795
0.000354868
-0.00164617
0.00034832
-0.00178225
0.000342338
-0.00191639
0.000336862
-0.00204877
0.000331841
-0.00217956
0.000327233
-0.0023089
0.000323001
-0.00243693
0.0003191
-0.00256375
0.000315485
0.000312195
-0.00268951
-5.23136e-05
0.000185019
-0.000164423
0.000397608
-0.00030641
0.000504167
-0.000460388
0.000546939
-0.000617005
0.000556208
-0.000772091
0.000550475
-0.000924168
0.000539385
-0.00107295
0.000527216
-0.00121857
0.000515539
-0.00136131
0.000504786
-0.00150144
0.000494992
-0.0016392
0.00048608
-0.00177481
0.000477957
-0.00190849
0.00047054
-0.00204041
0.000463756
-0.00217072
0.000457548
-0.00229958
0.000451862
-0.00242712
0.000446637
-0.00255344
0.000441809
0.000437433
-0.00267868
-5.15924e-05
0.000236611
-0.000162504
0.000508519
-0.000303278
0.000644941
-0.000456177
0.000699838
-0.000611854
0.000711886
-0.000766103
0.000704723
-0.000917405
0.000690688
-0.00106545
0.000675258
-0.00121036
0.000660453
-0.0013524
0.000646829
-0.00149184
0.000634431
-0.00162892
0.00062316
-0.00176386
0.000612898
-0.00189686
0.000603536
-0.00202809
0.000594984
-0.00215771
0.000587166
-0.00228586
0.000580015
-0.00241267
0.000573452
-0.00253826
0.000567394
0.000561909
-0.00266274
-5.06467e-05
0.000287258
-0.000159981
0.000617853
-0.000299152
0.000784113
-0.000450624
0.00085131
-0.00060506
0.000866322
-0.000758201
0.000857864
-0.000908481
0.000840968
-0.00105555
0.000822329
-0.00119953
0.000804429
-0.00134065
0.000787956
-0.00147919
0.000772967
-0.00161538
0.000759346
-0.00174943
0.000746948
-0.00188153
0.00073564
-0.00201186
0.000725311
-0.00214056
0.000715871
-0.00226779
0.000707238
-0.00239365
0.000699319
-0.00251827
0.000692009
0.000685385
-0.00264174
-4.94781e-05
0.000336736
-0.000156856
0.00072523
-0.000294034
0.000921291
-0.000443731
0.00100101
-0.000596622
0.00101921
-0.000748387
0.00100963
-0.000897398
0.000989979
-0.00104327
0.000968199
-0.00118609
0.000947246
-0.00132608
0.000927953
-0.00146351
0.000910394
-0.0015986
0.000894434
-0.00173155
0.000879902
-0.00186256
0.000866645
-0.00199178
0.000854531
-0.00211936
0.000843453
-0.00224544
0.000833318
-0.00237014
0.000824017
-0.00249356
0.000815428
0.000807628
-0.0026158
-4.80885e-05
0.000384824
-0.00015313
0.000830272
-0.000287925
0.00105609
-0.000435495
0.00114858
-0.000586538
0.00117026
-0.000736661
0.00115975
-0.000884162
0.00113748
-0.0010286
0.00111264
-0.00117005
0.00108869
-0.00130871
0.00106661
-0.00144483
0.00104651
-0.00157862
0.00102823
-0.00171028
0.00101157
-0.00184
0.000996359
-0.00196792
0.000982449
-0.00209418
0.000969714
-0.00221891
0.000958052
-0.00234223
0.00094734
-0.00246424
0.000937436
0.000928415
-0.00258503
-4.648e-05
0.000431304
-0.000148807
0.000932599
-0.000280824
0.0011881
-0.000425915
0.00129367
-0.000574805
0.00131915
-0.00072302
0.00130797
-0.000868774
0.00128323
-0.00101157
0.00125544
-0.00115143
0.00122856
-0.00128856
0.00120374
-0.00142318
0.00118113
-0.00155549
0.00116054
-0.00168569
0.00114176
-0.00181393
0.0011246
-0.00194037
0.00110888
-0.00206512
0.00109447
-0.00218832
0.00108125
-0.00231008
0.00106909
-0.00243047
0.00105783
0.00104753
-0.00254959
-4.4655e-05
0.000475959
-0.000143887
0.00103183
-0.000272728
0.00131694
-0.000414984
0.00143592
-0.000561416
0.00146558
-0.00070746
0.00145401
-0.00085123
0.001427
-0.000992165
0.00139637
-0.00113025
0.00136664
-0.00126566
0.00133915
-0.0013986
0.00131406
-0.00152926
0.0012912
-0.00165783
0.00127033
-0.00178444
0.00125122
-0.00190923
0.00123368
-0.00203232
0.00121756
-0.00215382
0.00120275
-0.00227382
0.00118909
-0.00239241
0.00117642
0.00116477
-0.00250965
-4.26156e-05
0.000518575
-0.000138371
0.00112759
-0.000263635
0.00144221
-0.000402694
0.00157498
-0.00054636
0.00160924
-0.000689967
0.00159762
-0.000831524
0.00156856
-0.000970391
0.00153524
-0.00110651
0.00150276
-0.00124002
0.00147267
-0.00137112
0.00144516
-0.00149999
0.00142007
-0.00162677
0.00139711
-0.00175161
0.00137606
-0.00187463
0.00135669
-0.00199591
0.00133884
-0.00211556
0.00132239
-0.00223366
0.00130719
-0.00235028
0.00129304
0.00127996
-0.00246546
-4.03643e-05
0.000558939
-0.000132259
0.00121948
-0.000253538
0.00156349
-0.000389033
0.00171048
-0.000529619
0.00174983
-0.000670526
0.00173852
-0.000809639
0.00170768
-0.000946234
0.00167183
-0.0010802
0.00163673
-0.00121166
0.00160412
-0.00134077
0.00157428
-0.0014677
0.001547
-0.00159259
0.001522
-0.00171555
0.00149902
-0.00183668
0.00147782
-0.00195605
0.00145822
-0.00207374
0.00144009
-0.00218982
0.00142327
-0.00230433
0.00140755
0.00139293
-0.0024173
-3.79036e-05
0.000596843
-0.000125551
0.00130713
-0.00024243
0.00168037
-0.000373985
0.00184203
-0.000511172
0.00188702
-0.000649108
0.00187646
-0.000785549
0.00184412
-0.000919673
0.00180596
-0.00105132
0.00176837
-0.00118056
0.00173337
-0.00130755
0.00170127
-0.00143244
0.00167188
-0.00155534
0.0016449
-0.00167634
0.00162002
-0.00179552
0.00159699
-0.00191292
0.00157562
-0.00202859
0.00155576
-0.00214257
0.00153725
-0.00225489
0.00151987
0.00150356
-0.00236552
-3.5236e-05
0.000632079
-0.000118247
0.00139014
-0.000230301
0.00179242
-0.000357528
0.00196926
-0.000490986
0.00202047
-0.000625677
0.00201115
-0.000759213
0.00197765
-0.000890668
0.00193741
-0.00101982
0.00189752
-0.00114671
0.00186026
-0.00127146
0.00182603
-0.00139421
0.00179463
-0.00151506
0.00176574
-0.00163406
0.00173903
-0.00175127
0.00171421
-0.00186671
0.00169106
-0.00198037
0.00166942
-0.00209225
0.00164913
-0.00220234
0.00162996
0.00161179
-0.00231057
-3.2365e-05
0.000664444
-0.000110345
0.00146812
-0.000217139
0.00189922
-0.000339636
0.00209176
-0.000469024
0.00214986
-0.000600186
0.00214231
-0.000730578
0.00210804
-0.000859161
0.002066
-0.000985643
0.002024
-0.00111004
0.00198465
-0.00123245
0.00194844
-0.00135299
0.00191517
-0.00147174
0.0018845
-0.00158876
0.00185604
-0.00170405
0.0018295
-0.00181759
0.0018046
-0.00192934
0.00178117
-0.00203924
0.00175903
-0.00214718
0.00173791
0.00171763
-0.00225302
-2.92945e-05
0.000693738
-0.000101845
0.00154067
-0.000202931
0.0020003
-0.000320283
0.00220911
-0.000445242
0.00227482
-0.000572576
0.00226965
-0.000699573
0.00223504
-0.000825073
0.0021915
-0.00094871
0.00214764
-0.00107046
0.0021064
-0.00119042
0.0020684
-0.00130869
0.00203344
-0.00142534
0.00200115
-0.00154042
0.00197111
-0.00165389
0.00194297
-0.00176571
0.00191642
-0.00187578
0.00189123
-0.00198393
0.00186718
-0.00208997
0.00184395
0.00182127
-0.00219361
-2.60302e-05
0.000719769
-9.27514e-05
0.00160739
-0.000187668
0.00209522
-0.000299437
0.00232088
-0.000419591
0.00239498
-0.000542779
0.00239283
-0.000666115
0.00235838
-0.000788302
0.00231368
-0.000908898
0.00226823
-0.00102785
0.00222535
-0.00114523
0.00218578
-0.00126116
0.00214937
-0.0013757
0.00211569
-0.0014889
0.00208431
-0.00160073
0.00205481
-0.00171113
0.00202682
-0.00181994
0.00200004
-0.00192691
0.00197415
-0.00203161
0.00194865
0.00192308
-0.00213342
-2.25797e-05
0.000742348
-8.3069e-05
0.00166788
-0.000171341
0.00218349
-0.000277071
0.00242661
-0.000392019
0.00250992
-0.00051072
0.00251154
-0.000630103
0.00247776
-0.000748721
0.0024323
-0.000866049
0.00238556
-0.000981996
0.0023413
-0.00109664
0.00230043
-0.0012101
0.00226283
-0.00132249
0.00222808
-0.00143387
0.00219569
-0.00154425
0.00216518
-0.00165354
0.00213611
-0.00176161
0.00210811
-0.00186815
0.0020807
-0.00197247
0.00205297
0.00202406
-0.00207345
-1.89535e-05
0.000761302
-7.28105e-05
0.00172174
-0.00015395
0.00226463
-0.000253163
0.00252582
-0.00036248
0.00261924
-0.000476329
0.00262539
-0.000591441
0.00259287
-0.000706207
0.00254707
-0.000820009
0.00249936
-0.000932723
0.00245401
-0.00104444
0.00241214
-0.0011553
0.00237369
-0.00126548
0.00233826
-0.00137511
0.00230533
-0.00148429
0.00227436
-0.00159301
0.00224484
-0.00170127
0.00221636
-0.001809
0.00218843
-0.00191546
0.00215942
0.0021255
-0.00201691
-1.51655e-05
0.000776467
-6.19962e-05
0.00176857
-0.000135507
0.00233814
-0.000227703
0.00261801
-0.000330936
0.00272248
-0.000439538
0.00273399
-0.000550027
0.00270336
-0.00066061
0.00265765
-0.000770557
0.00260931
-0.00087969
0.00256315
-0.000988083
0.00252053
-0.0010959
0.00248152
-0.00120336
0.00244571
-0.00131067
0.00241264
-0.00141809
0.00238177
-0.0015258
0.00235255
-0.00163386
0.00232442
-0.00174251
0.00229709
-0.00185256
0.00226947
0.00223377
-0.00196083
-1.12338e-05
0.000787701
-5.06563e-05
0.00180799
-0.000116037
0.00240352
-0.000200697
0.00270268
-0.00029737
0.00281915
-0.000400304
0.00283692
-0.000505789
0.00280885
-0.000611832
0.00276369
-0.000717568
0.00271505
-0.000822763
0.00266834
-0.000927496
0.00262527
-0.00103201
0.00258603
-0.00113666
0.00255037
-0.00124194
0.00251792
-0.00134852
0.00248835
-0.00145726
0.00246129
-0.00156906
0.00243622
-0.00168427
0.0024123
-0.00180388
0.00238908
0.00237936
-0.00194946
-7.19413e-06
0.000794895
-3.88546e-05
0.00183965
-9.56062e-05
0.00246027
-0.0001722
0.00277927
-0.000261815
0.00290876
-0.000358635
0.00293374
-0.000458715
0.00290892
-0.000559828
0.00286481
-0.000660947
0.00281617
-0.000761742
0.00276914
-0.000862243
0.00272577
-0.000962657
0.00268644
-0.00106328
0.00265099
-0.00116443
0.00261908
-0.00126644