/*--------------------------------*- C++ -*----------------------------------*\
  =========                 |
  \\      /  F ield         | OpenFOAM: The Open Source CFD Toolbox
   \\    /   O peration     | Website:  https://openfoam.org
    \\  /    A nd           | Version:  6.0
     \\/     M anipulation  |
\*---------------------------------------------------------------------------*/
FoamFile
{
    version     2.0;
    format      ascii;
    class       volVectorField;
    location    "56";
    object      U;
}
// * * * * * * * * * * * * * * * * * * * * * * * * * * * * * * * * * * * * * //

dimensions      [0 1 -1 0 0 0 0];

internalField   nonuniform List<vector> 
8000
(
(-0.000350242 -0.00232647 -3.39134e-21)
(-0.00210032 -0.00597581 1.81222e-20)
(-0.00544178 -0.0088928 -2.20357e-20)
(-0.00957485 -0.011227 1.67769e-20)
(-0.0140713 -0.0131042 8.16744e-21)
(-0.0186821 -0.0146343 -2.45216e-20)
(-0.0232282 -0.0159092 -2.16752e-21)
(-0.0275932 -0.0170041 -7.69882e-22)
(-0.0317128 -0.0179784 -1.27193e-20)
(-0.0355615 -0.0188768 -6.88976e-21)
(-0.0391428 -0.0197319 5.14018e-21)
(-0.042481 -0.0205651 1.95398e-20)
(-0.0456152 -0.0213895 -1.46698e-21)
(-0.0485939 -0.0222112 2.0884e-21)
(-0.0514713 -0.0230313 -1.96677e-20)
(-0.0543099 -0.0238468 1.21155e-20)
(-0.0571736 -0.0246525 -1.7357e-20)
(-0.0600571 -0.0254397 2.6258e-20)
(-0.0628648 -0.0261948 -2.91968e-23)
(-0.0660811 -0.0269133 5.65494e-21)
(-0.000334511 -0.00136957 1.12527e-20)
(-0.00210225 -0.00357972 -5.74656e-20)
(-0.00551867 -0.00548678 -3.96796e-20)
(-0.00974861 -0.00715137 -2.69495e-20)
(-0.0143471 -0.00862682 -3.46551e-20)
(-0.0190569 -0.00996145 7.64833e-21)
(-0.0236934 -0.0111934 -3.99995e-20)
(-0.028137 -0.0123512 -8.98074e-21)
(-0.0323217 -0.0134543 2.84642e-21)
(-0.0362212 -0.0145138 2.9907e-20)
(-0.0398389 -0.0155335 -3.26005e-20)
(-0.0431996 -0.0165113 4.53375e-20)
(-0.0463436 -0.0174409 -3.39398e-20)
(-0.0493204 -0.0183131 -4.0238e-20)
(-0.0521862 -0.0191178 -5.54381e-20)
(-0.0550056 -0.0198454 3.54117e-20)
(-0.0578447 -0.0204873 -1.14271e-20)
(-0.0606992 -0.0210329 -4.16546e-20)
(-0.0634724 -0.0214659 3.93934e-20)
(-0.0666594 -0.0218031 -2.91805e-20)
(-0.000399212 -0.00037546 1.09817e-19)
(-0.00230593 -0.00110384 5.68803e-20)
(-0.00588286 -0.00198136 6.39582e-20)
(-0.0102639 -0.00297085 5.31667e-21)
(-0.0149918 -0.00404797 3.5345e-20)
(-0.0198046 -0.00519643 4.41563e-20)
(-0.0245158 -0.00639843 -8.01269e-20)
(-0.0290049 -0.00763469 -4.24493e-20)
(-0.0332063 -0.00888422 -5.52341e-20)
(-0.0370945 -0.0101238 5.90187e-20)
(-0.0406738 -0.0113281 -4.50559e-20)
(-0.0439709 -0.0124709 -5.7915e-20)
(-0.0470281 -0.0135257 -2.10556e-20)
(-0.0498977 -0.0144677 2.00293e-20)
(-0.0526389 -0.0152746 -5.55981e-21)
(-0.0553206 -0.0159291 8.05044e-21)
(-0.0580132 -0.016419 9.28745e-20)
(-0.0607155 -0.0167311 -1.3047e-20)
(-0.0633298 -0.0168457 -9.4337e-20)
(-0.0663657 -0.0168018 1.24177e-19)
(-0.000548449 0.000651174 3.81176e-20)
(-0.00271874 0.00143798 -5.39879e-20)
(-0.00654088 0.00160119 -1.35418e-20)
(-0.0111245 0.0012846 2.52435e-20)
(-0.0160053 0.000595281 7.17738e-20)
(-0.0209216 -0.000383049 1.57192e-19)
(-0.0256883 -0.00157507 1.53574e-19)
(-0.0301872 -0.002913 1.27261e-20)
(-0.034355 -0.00433496 9.41519e-20)
(-0.0381685 -0.00578312 1.44082e-19)
(-0.0416343 -0.00720285 -1.15137e-19)
(-0.0447817 -0.00854279 1.70363e-19)
(-0.0476559 -0.00975561 -3.84821e-20)
(-0.0503131 -0.0107991 9.7508e-21)
(-0.052817 -0.0116377 4.023e-20)
(-0.0552424 -0.0122446 5.34148e-20)
(-0.0576667 -0.0126026 -8.40676e-20)
(-0.0600937 -0.0126945 -7.00924e-20)
(-0.0624252 -0.0124954 -1.24014e-19)
(-0.0651897 -0.012068 1.80379e-19)
(-0.000785898 0.00170444 -1.99254e-20)
(-0.00334645 0.00402922 -2.03941e-19)
(-0.00749635 0.00523549 -6.03256e-20)
(-0.0123296 0.00558236 -1.47023e-19)
(-0.017382 0.00526431 5.5532e-20)
(-0.0223973 0.00443479 -8.76506e-20)
(-0.0271962 0.00322762 3.00767e-20)
(-0.0316659 0.00175929 -1.85588e-19)
(-0.0357476 0.000132401 9.78561e-20)
(-0.0394218 -0.00156074 -1.16741e-19)
(-0.0426987 -0.00323592 -1.0381e-19)
(-0.0456104 -0.00481612 -1.16145e-19)
(-0.0482059 -0.00623176 1.05429e-19)
(-0.0505459 -0.00742154 -9.45585e-20)
(-0.0527 -0.00833404 1.31711e-19)
(-0.0547503 -0.00893056 3.80302e-20)
(-0.0567836 -0.00918625 9.40718e-20)
(-0.0588115 -0.00907748 4.12681e-20)
(-0.060736 -0.00857153 -1.63306e-19)
(-0.0631098 -0.00775546 2.65846e-19)
(-0.00111451 0.00277708 8.764e-20)
(-0.00419244 0.00665034 6.81128e-21)
(-0.00874854 0.00889286 3.61316e-20)
(-0.0138725 0.00988723 1.26153e-19)
(-0.0191084 0.00991933 -1.9378e-20)
(-0.0242116 0.00921402 2.04849e-19)
(-0.0290136 0.00796382 9.08621e-20)
(-0.0334104 0.00633342 7.63097e-21)
(-0.0373502 0.00446529 2.33695e-19)
(-0.0408187 0.00248553 7.65424e-20)
(-0.0438299 0.000507678 3.6286e-20)
(-0.0464198 -0.00136514 1.15236e-19)
(-0.048641 -0.00303974 1.05574e-19)
(-0.0505591 -0.00443341 1.92635e-19)
(-0.0522503 -0.00547578 -1.72169e-19)
(-0.0538055 -0.00611248 2.43124e-19)
(-0.0553235 -0.00630712 3.01859e-21)
(-0.056826 -0.0060256 -3.10457e-19)
(-0.0582175 -0.00522299 4.02116e-19)
(-0.0600818 -0.00401087 1.66704e-19)
(-0.00153612 0.0038603 -5.1649e-20)
(-0.00525659 0.00927854 -9.36876e-20)
(-0.0102908 0.0125411 -1.95174e-19)
(-0.0157379 0.0141613 -5.79495e-21)
(-0.0211597 0.0145195 3.32596e-20)
(-0.0263309 0.0139128 -2.49317e-19)
(-0.0310988 0.0125919 -1.84965e-19)
(-0.0353722 0.0107682 -2.6474e-20)
(-0.0391088 0.00862241 -2.33932e-19)
(-0.0423009 0.00631276 -1.61921e-19)
(-0.0449674 0.0039812 -4.71897e-20)
(-0.0471476 0.0017569 -1.51885e-19)
(-0.0488978 -0.000242262 -2.49382e-21)
(-0.0502883 -0.00190971 -2.01546e-19)
(-0.0514018 -0.00315225 8.47344e-20)
(-0.0523395 -0.0038949 -9.66813e-20)
(-0.053214 -0.00408411 7.38883e-20)
(-0.0540608 -0.00366913 -9.42283e-20)
(-0.0547889 -0.00258588 -2.68612e-19)
(-0.056023 -0.00096938 -8.16874e-20)
(-0.00205101 0.0049435 -1.89341e-20)
(-0.00653423 0.0118873 -2.05842e-20)
(-0.0121087 0.0161439 1.63567e-19)
(-0.0178995 0.0183633 -2.66114e-19)
(-0.0234976 0.0190225 3.9042e-20)
(-0.0287043 0.0184907 -1.53721e-19)
(-0.0333893 0.0170751 7.26974e-20)
(-0.0374783 0.0150314 3.26614e-19)
(-0.0409413 0.0125759 -2.09669e-20)
(-0.0437791 0.0098965 -2.43571e-19)
(-0.0460156 0.00716141 4.4308e-20)
(-0.0476937 0.00452477 8.5962e-21)
(-0.0488726 0.00212957 -4.9885e-20)
(-0.0496263 0.000108399 5.16503e-21)
(-0.0500438 -0.00141854 4.38554e-19)
(-0.0502366 -0.00234955 -6.2535e-20)
(-0.0503334 -0.00260631 -1.21635e-19)
(-0.0503863 -0.00211238 -2.17893e-19)
(-0.0503131 -0.000773953 2.22341e-19)
(-0.0507917 0.00125397 9.60433e-20)
(-0.0026574 0.00601402 9.58811e-20)
(-0.00801484 0.0144458 -1.25388e-19)
(-0.0141784 0.0196603 1.77329e-19)
(-0.0203181 0.0224482 1.78566e-19)
(-0.0260661 0.0233839 1.64662e-19)
(-0.0312594 0.0229076 3.33998e-19)
(-0.0357961 0.0213805 2.15994e-19)
(-0.039624 0.0190996 -4.64126e-19)
(-0.0427285 0.0163127 2.37337e-19)
(-0.0451208 0.0132335 1.86191e-19)
(-0.0468309 0.0100533 -2.62266e-21)
(-0.0479048 0.00694862 2.08276e-19)
(-0.0484036 0.00408647 1.62261e-19)
(-0.0484038 0.00162658 -8.83346e-20)
(-0.0479993 -0.000280045 2.98026e-19)
(-0.0473115 -0.00149824 -3.69423e-19)
(-0.0464864 -0.00191531 1.47691e-19)
(-0.0455959 -0.00141652 1.8977e-19)
(-0.0445708 0.000137334 -4.42245e-20)
(-0.0441598 0.00257876 3.81849e-19)
(-0.00335086 0.00705692 1.92359e-19)
(-0.00968087 0.0169188 1.00015e-20)
(-0.0164648 0.023044 -6.91109e-20)
(-0.0229388 0.0263659 -7.30749e-20)
(-0.0287894 0.0275556 -3.38396e-19)
(-0.033898 0.0271222 4.78864e-20)
(-0.0381986 0.025478 1.35796e-19)
(-0.0416658 0.0229567 -6.52937e-20)
(-0.0443046 0.0198334 5.38653e-20)
(-0.0461387 0.0163427 -1.43131e-20)
(-0.0472058 0.0126935 -7.03511e-20)
(-0.0475551 0.00908051 6.67745e-20)
(-0.0472489 0.00569154 -2.90097e-19)
(-0.0463643 0.0027124 2.78084e-19)
(-0.0449981 0.000327069 -2.40635e-19)
(-0.04328 -0.00128954 7.43749e-20)
(-0.0413737 -0.00197947 1.68842e-19)
(-0.0393731 -0.00157328 -3.52783e-20)
(-0.037227 0.000136279 -1.16741e-19)
(-0.0357778 0.00298302 -7.95463e-20)
(-0.00412382 0.008055 -2.39563e-19)
(-0.0115067 0.019266 -1.58782e-20)
(-0.0189204 0.026243 5.04839e-20)
(-0.0256899 0.0300604 1.29964e-19)
(-0.0315692 0.0314841 -1.83469e-19)
(-0.0364936 0.0310896 -1.60161e-19)
(-0.0404397 0.0293364 3.73874e-19)
(-0.0434149 0.0265908 -2.06592e-19)
(-0.0454477 0.0231497 -1.33273e-19)
(-0.0465779 0.0192626 -1.91185e-19)
(-0.0468528 0.01515 1.26531e-19)
(-0.0463262 0.0110179 -3.49287e-21)
(-0.0450613 0.00706886 -2.36218e-19)
(-0.0431346 0.00351035 -3.86013e-19)
(-0.0406432 0.000558056 2.94036e-19)
(-0.0377229 -0.00156964 -2.37885e-19)
(-0.0345536 -0.00265923 3.37179e-19)
(-0.0312523 -0.002467 -9.45769e-20)
(-0.0277893 -0.000686702 1.97778e-19)
(-0.0251314 0.00254016 -6.74587e-19)
(-0.0049652 0.00898904 -4.85038e-19)
(-0.013458 0.021443 3.18267e-19)
(-0.0214848 0.0291994 4.32975e-20)
(-0.0284817 0.0334688 8.38036e-21)
(-0.0342838 0.0351087 -1.96566e-19)
(-0.0388888 0.0347579 2.89095e-19)
(-0.0423229 0.0329194 3.15514e-20)
(-0.044632 0.0299878 -5.92816e-20)
(-0.0458727 0.0262768 -1.90359e-19)
(-0.0461051 0.0220449 2.05738e-19)
(-0.0453893 0.0175166 5.21447e-19)
(-0.0437866 0.012901 -1.15197e-19)
(-0.0413626 0.00840616 2.60145e-19)
(-0.0381932 0.00425235 -3.07038e-19)
(-0.034374 0.000680191 -2.9412e-19)
(-0.030044 -0.00205049 1.76883e-19)
(-0.025397 -0.00366451 2.91604e-19)
(-0.0205713 -0.00382428 -9.44434e-19)
(-0.0155598 -0.00208496 1.11185e-19)
(-0.0114908 0.00147286 1.5106e-19)
(-0.0058603 0.00983856 3.59147e-19)
(-0.0154916 0.0234023 1.18268e-19)
(-0.0240839 0.0318502 6.16503e-19)
(-0.0312067 0.036521 3.17853e-20)
(-0.0367878 0.0383596 -6.86166e-20)
(-0.0408952 0.0380646 -3.26901e-19)
(-0.0436113 0.0361796 2.77974e-19)
(-0.0450252 0.0331238 4.98911e-19)
(-0.045227 0.0292237 3.32346e-19)
(-0.0443014 0.0247416 2.39995e-19)
(-0.0423265 0.0198994 2.06841e-19)
(-0.0393754 0.0149001 -3.71213e-19)
(-0.0355206 0.00994598 -1.16138e-19)
(-0.0308398 0.00525657 -8.55217e-20)
(-0.0254284 0.00108355 9.15941e-19)
(-0.0194266 -0.0022832 -3.3918e-21)
(-0.0130394 -0.00451071 -2.27754e-19)
(-0.00642234 -0.0051543 -7.11464e-20)
(0.000415761 -0.00358598 6.52569e-19)
(0.0061431 0.000226073 8.54021e-20)
(-0.00679101 0.0105828 -1.76323e-20)
(-0.0175559 0.0250948 -3.40137e-19)
(-0.0266318 0.0341287 -5.064e-19)
(-0.0337405 0.0391407 -1.41048e-19)
(-0.0389133 0.0411573 7.78983e-20)
(-0.0422949 0.0409345 1.67532e-20)
(-0.0440286 0.0390534 4.45014e-19)
(-0.0442515 0.0359562 -5.51928e-19)
(-0.0430912 0.03198 -2.09965e-19)
(-0.0406622 0.0273879 -4.2312e-19)
(-0.0370662 0.0223948 -3.60257e-19)
(-0.0323953 0.0171902 -3.18923e-19)
(-0.0267358 0.0119594 7.97399e-20)
(-0.0201754 0.00690509 -1.03451e-19)
(-0.0128142 0.00226919 4.42666e-19)
(-0.00479661 -0.0016517 -2.42789e-19)
(0.00366174 -0.00448765 -7.59189e-19)
(0.0123937 -0.00569132 -1.5233e-19)
(0.0213928 -0.00441207 3.73806e-19)
(0.0290867 -0.000441813 -3.26472e-19)
(-0.00773648 0.0112022 -5.73069e-20)
(-0.0195922 0.0264724 4.16314e-19)
(-0.0290312 0.0359674 -5.31202e-19)
(-0.0359435 0.0412471 1.22729e-19)
(-0.0404719 0.0434142 -2.53177e-19)
(-0.0428423 0.0432789 5.64131e-19)
(-0.0432626 0.0414584 -4.03251e-19)
(-0.0419206 0.0384175 4.61372e-19)
(-0.0389847 0.0345042 -4.37605e-19)
(-0.0346034 0.0299832 1.86615e-19)
(-0.0289083 0.0250619 -9.06114e-20)
(-0.0220186 0.0199139 -2.27384e-19)
(-0.0140461 0.0147001 -2.80723e-19)
(-0.00510052 0.00959253 2.7955e-19)
(0.00469946 0.00480012 -2.33915e-19)
(0.0151948 0.00059249 -5.10633e-19)
(0.0261516 -0.00266567 5.31279e-19)
(0.0373933 -0.00436065 -6.7666e-19)
(0.0489499 -0.00340555 3.03919e-19)
(0.0589977 0.000645021 8.43247e-21)
(-0.00867406 0.0116797 -5.2039e-19)
(-0.0215357 0.0274911 -5.6231e-19)
(-0.031175 0.0373014 6.47607e-20)
(-0.0376617 0.0427597 -5.42943e-19)
(-0.0412557 0.0450385 -4.85268e-20)
(-0.0422669 0.0449995 -3.99595e-19)
(-0.040969 0.0432955 -9.17236e-20)
(-0.0376019 0.0404143 -2.68142e-19)
(-0.0323757 0.036718 2.2211e-21)
(-0.025476 0.0324771 -1.17385e-19)
(-0.0170694 0.0278969 8.20515e-21)
(-0.00731119 0.0231394 -3.37812e-19)
(0.00364853 0.0183432 3.71887e-19)
(0.0156593 0.0136446 -5.27576e-19)
(0.0285621 0.00920348 1.86586e-19)
(0.0421598 0.00522848 6.86575e-21)
(0.0561779 0.0020204 -2.96565e-19)
(0.070416 0.000180162 7.34166e-19)
(0.0849886 0.000986355 -1.75325e-19)
(0.0978747 0.00514427 -1.14184e-19)
(-0.00958033 0.0120026 5.84534e-19)
(-0.0233173 0.0281143 3.15775e-19)
(-0.0329471 0.0380735 2.93889e-19)
(-0.038727 0.0436042 4.38832e-20)
(-0.0410376 0.0459421 3.97678e-19)
(-0.0402733 0.0459978 5.73461e-19)
(-0.0367735 0.0444584 4.69873e-19)
(-0.0308287 0.0418366 4.19333e-20)
(-0.0226906 0.038513 3.44104e-19)
(-0.0125823 0.0347708 5.31727e-19)
(-0.000708923 0.030823 -1.3796e-19)
(0.0127311 0.0268326 2.31403e-19)
(0.0275363 0.022929 1.86887e-19)
(0.0434954 0.0192243 1.9003e-19)
(0.0603803 0.0158322 1.12121e-18)
(0.0779195 0.0128847 -4.20106e-19)
(0.095754 0.0105645 -2.55471e-20)
(0.11361 0.00934218 4.85307e-19)
(0.131722 0.0105564 -2.749e-19)
(0.148052 0.0151187 1.36634e-19)
(-0.010432 0.0121629 -4.73077e-19)
(-0.0248637 0.0283149 3.04877e-20)
(-0.0342218 0.0382387 -3.79269e-19)
(-0.0389557 0.04372 -4.9443e-20)
(-0.0395684 0.0460515 2.77846e-19)
(-0.0365386 0.0461889 -8.27114e-19)
(-0.0302694 0.0448522 -5.48353e-22)
(-0.0210997 0.04258 3.85009e-19)
(-0.00932055 0.0397748 3.61908e-19)
(0.00480839 0.0367405 -1.59264e-19)
(0.0210424 0.0337098 5.24829e-20)
(0.0391354 0.0308639 1.2178e-19)
(0.0588248 0.0283469 -5.7729e-20)
(0.0798194 0.0262763 -6.45457e-19)
(0.10179 0.0247533 1.6347e-19)
(0.124343 0.023862 4.48407e-19)
(0.146967 0.0236609 -6.38536e-19)
(0.169208 0.0243921 3.11254e-19)
(0.191395 0.0272825 8.33249e-20)
(0.211856 0.0333026 4.2357e-19)
(-0.0112061 0.0121578 -7.0091e-20)
(-0.0260973 0.0280777 -3.31878e-19)
(-0.0348614 0.0377694 1.52696e-19)
(-0.0381437 0.0430695 6.62918e-22)
(-0.0365711 0.0453211 -6.66289e-19)
(-0.0307054 0.0455207 1.03907e-19)
(-0.0210115 0.0444183 -1.97717e-20)
(-0.00787424 0.0425769 1.34636e-19)
(0.00837799 0.0404228 -6.1626e-19)
(0.0274506 0.0382849 -4.3103e-20)
(0.04906 0.0364247 -1.44582e-19)
(0.0729121 0.0350579 1.28807e-19)
(0.0986806 0.0343702 4.33981e-19)
(0.125986 0.034529 -6.71564e-20)
(0.154374 0.0356923 2.59395e-20)
(0.183275 0.0379976 1.70259e-19)
(0.21191 0.0415119 -4.20917e-20)
(0.239424 0.046387 3.42167e-19)
(0.265953 0.0538551 -1.99195e-19)
(0.290588 0.0646509 -3.14088e-19)
(-0.0118796 0.0119894 6.48678e-20)
(-0.0269338 0.0274 1.57079e-20)
(-0.034712 0.0366593 1.3316e-19)
(-0.0360608 0.0416457 3.26275e-19)
(-0.0317328 0.0437465 1.83149e-19)
(-0.0223731 0.0439937 1.91596e-20)
(-0.00850755 0.043162 -2.18853e-19)
(0.00943275 0.0418347 5.60775e-20)
(0.0310812 0.040458 2.95031e-19)
(0.0561069 0.0393833 -4.99913e-19)
(0.0841879 0.0388995 3.77105e-19)
(0.114988 0.0392584 -2.84014e-19)
(0.148133 0.0406976 2.40736e-19)
(0.18319 0.0434617 -5.18855e-19)
(0.219641 0.0478268 5.70129e-19)
(0.256818 0.0541129 -6.09482e-19)
(0.293762 0.0626734 -1.58163e-19)
(0.329162 0.074153 4.95947e-19)
(0.362017 0.0906249 -1.67682e-19)
(0.38971 0.112155 7.5521e-20)
(-0.0124281 0.0116629 -4.91833e-20)
(-0.0272788 0.0262908 4.63967e-19)
(-0.0335984 0.0349249 -1.92276e-21)
(-0.0324435 0.0394785 -2.88061e-19)
(-0.024697 0.0413757 -1.93912e-19)
(-0.0110897 0.041678 3.55154e-19)
(0.00778712 0.0411775 -1.40695e-19)
(0.0314495 0.0404697 -1.77333e-20)
(0.0594822 0.0400107 2.93215e-19)
(0.0915045 0.0401604 -3.64285e-19)
(0.127143 0.0412159 3.98349e-20)
(0.166011 0.0434383 -4.73084e-19)
(0.207698 0.0470783 2.4885e-19)
(0.251766 0.0524049 -7.11624e-19)
(0.29776 0.0597442 1.13264e-18)
(0.345222 0.0695292 -2.07499e-19)
(0.393727 0.0824199 2.16161e-19)
(0.443182 0.09986 -5.61519e-19)
(0.4941 0.124814 3.08497e-21)
(0.538955 0.152619 6.42227e-19)
(-0.0128228 0.011185 -1.49142e-19)
(-0.027023 0.0247692 1.28894e-19)
(-0.0313178 0.0326069 -4.74302e-19)
(-0.0269893 0.0366378 7.01556e-19)
(-0.0150583 0.0383158 -5.06572e-19)
(0.00364975 0.0387244 2.61243e-20)
(0.0284663 0.0386642 -5.46385e-19)
(0.058835 0.0387314 3.90646e-19)
(0.0942642 0.0393765 -5.5824e-20)
(0.134287 0.0409461 -3.44564e-19)
(0.178433 0.0437132 -2.00866e-19)
(0.226212 0.0479003 2.12422e-19)
(0.277114 0.053698 1.40235e-19)
(0.33062 0.0612821 -6.20196e-19)
(0.386232 0.0708299 2.24026e-19)
(0.443522 0.082531 -3.29883e-19)
(0.502192 0.0966093 3.98175e-20)
(0.562311 0.113531 -2.80466e-19)
(0.624761 0.134425 1.16218e-19)
(0.682405 0.154907 -4.2274e-19)
(-0.0130283 0.0105625 4.24494e-19)
(-0.0260375 0.0228626 -2.56949e-19)
(-0.0276362 0.0297684 2.11749e-19)
(-0.0193541 0.0332339 -2.67377e-19)
(-0.00236487 0.034734 4.4833e-19)
(0.0223953 0.0353656 -7.89173e-21)
(0.0541552 0.035927 -5.45911e-20)
(0.0922494 0.037001 -4.04545e-20)
(0.13606 0.0390135 2.49079e-19)
(0.184973 0.0422729 4.23349e-19)
(0.238344 0.0469959 -2.49971e-19)
(0.295497 0.053327 2.42889e-19)
(0.355721 0.0613508 4.43185e-19)
(0.418302 0.0711014 -3.10765e-19)
(0.482551 0.0825666 -6.30422e-19)
(0.547853 0.095682 1.15253e-18)
(0.613708 0.110313 -2.05803e-19)
(0.679819 0.126305 -6.6946e-20)
(0.746438 0.143983 7.22452e-19)
(0.808283 0.162072 -1.52374e-19)
(-0.0129993 0.00980137 -6.91465e-19)
(-0.0241706 0.0206056 -4.60264e-19)
(-0.022287 0.0264938 -1.76706e-19)
(-0.00915705 0.0294153 3.40869e-19)
(0.0138701 0.0308533 -7.69452e-19)
(0.0457176 0.0319076 3.98456e-19)
(0.0854691 0.0333601 5.0496e-20)
(0.132292 0.0357614 5.10658e-20)
(0.185369 0.0394892 -5.21663e-19)
(0.24385 0.0447838 -1.84103e-19)
(0.306828 0.0517726 -3.24313e-19)
(0.37334 0.0604868 3.13127e-19)
(0.44239 0.0708744 8.86435e-20)
(0.512981 0.0828097 1.72114e-20)
(0.584159 0.0960991 4.07141e-19)
(0.655061 0.11048 -4.12539e-19)
(0.724944 0.125612 -1.7158e-20)
(0.793215 0.141088 1.03403e-20)
(0.8596 0.156783 5.61594e-20)
(0.921044 0.173931 3.21342e-19)
(-0.0126793 0.00890691 2.20227e-19)
(-0.0212461 0.01804 5.67166e-19)
(-0.0149743 0.0228877 4.55142e-19)
(0.00400944 0.0253646 -1.5685e-19)
(0.0341448 0.0269445 5.4545e-19)
(0.0741675 0.0287149 -4.59625e-20)
(0.122951 0.0314206 -6.47146e-20)
(0.179411 0.035554 3.85846e-20)
(0.242434 0.041412 5.26934e-19)
(0.31083 0.0491305 3.09498e-19)
(0.38333 0.0587087 9.03891e-20)
(0.458603 0.0700301 5.66074e-21)
(0.535307 0.0828817 -5.98159e-19)
(0.612139 0.0969722 5.19733e-19)
(0.687895 0.111948 8.90453e-20)
(0.761519 0.127404 -1.46657e-19)
(0.832127 0.142895 -6.35876e-19)
(0.899034 0.157957 -5.38822e-20)
(0.961743 0.172161 2.51319e-19)
(1.01927 0.188399 -5.16286e-20)
(-0.0119992 0.00788488 -5.59183e-19)
(-0.0170653 0.0152168 2.33931e-19)
(-0.00538069 0.019075 -1.14174e-18)
(0.020561 0.021296 4.67483e-19)
(0.0589365 0.0233181 -3.72779e-19)
(0.108224 0.026193 2.74773e-19)
(0.166994 0.0305987 -4.26736e-19)
(0.233802 0.0369317 3.92455e-20)
(0.307121 0.0453647 -2.19604e-20)
(0.385315 0.0558828 1.14611e-19)
(0.466666 0.0683144 1.65323e-19)
(0.549432 0.0823627 -3.12456e-19)
(0.631924 0.0976381 1.65488e-19)
(0.712587 0.11369 1.51821e-19)
(0.790069 0.130038 6.55127e-19)
(0.863263 0.146194 -2.84635e-19)
(0.931336 0.161683 -1.8901e-19)
(0.993728 0.176088 3.17948e-19)
(1.05004 0.18887 1.69769e-19)
(1.10069 0.203711 -3.19457e-19)
(-0.0108786 0.00674396 4.90041e-19)
(-0.0114115 0.0121997 4.72446e-19)
(0.00682062 0.0152035 1.36195e-19)
(0.0408977 0.0174537 5.7367e-19)
(0.0886612 0.0203161 2.81674e-19)
(0.148234 0.0247716 -5.07745e-19)
(0.217764 0.0313878 7.68704e-19)
(0.295316 0.0404138 -3.78187e-19)
(0.378827 0.0518423 3.77271e-19)
(0.466123 0.0654548 4.87774e-19)
(0.554997 0.0808672 -2.787e-19)
(0.643313 0.0975793 5.29558e-20)
(0.729121 0.115026 2.94757e-19)
(0.810749 0.132625 2.07509e-19)
(0.886875 0.149816 4.77623e-19)
(0.956551 0.166095 -1.9121e-19)
(1.0192 0.181032 -2.36226e-20)
(1.07459 0.194311 3.01058e-19)
(1.12267 0.205466 -6.47803e-20)
(1.1647 0.218299 2.77392e-22)
(-0.00922723 0.00549867 -2.5303e-19)
(-0.00405776 0.00907029 -9.29776e-19)
(0.0219494 0.0114468 2.18874e-19)
(0.0653763 0.0141111 -1.66597e-19)
(0.123632 0.0183047 -3.84363e-19)
(0.194357 0.0248871 -2.7422e-19)
(0.275133 0.0342553 -1.69282e-19)
(0.363394 0.0464442 4.11214e-19)
(0.456437 0.0612022 -2.44124e-19)
(0.551504 0.0780549 -2.49924e-19)
(0.645929 0.0963753 -3.15705e-19)
(0.737289 0.115458 -5.21033e-20)
(0.823541 0.13459 -3.54497e-20)
(0.903112 0.15311 -7.28558e-19)
(0.974933 0.17045 3.52867e-19)
(1.03843 0.186163 -4.64044e-19)
(1.09347 0.199932 1.45504e-19)
(1.14029 0.211586 -1.10834e-18)
(1.17931 0.220857 3.34062e-19)
(1.21218 0.23123 4.22702e-19)
(-0.00694909 0.00417248 -6.34962e-20)
(0.00522303 0.00593309 4.53851e-19)
(0.0402997 0.00800892 2.90819e-20)
(0.0942802 0.0115708 6.99617e-20)
(0.164017 0.0176663 -1.42198e-19)
(0.246515 0.0269644 -2.3342e-21)
(0.338631 0.0396131 -3.55562e-21)
(0.437043 0.0553547 -8.55279e-20)
(0.53835 0.0736276 3.03597e-19)
(0.639244 0.0936619 1.17296e-19)
(0.736722 0.114582 5.31893e-19)
(0.828274 0.13551 -1.4501e-19)
(0.912008 0.155643 1.011e-19)
(0.986698 0.174321 -1.30503e-20)
(1.05176 0.191051 2.79789e-19)
(1.10716 0.205518 1.71001e-19)
(1.15332 0.217577 4.11664e-19)
(1.19098 0.227222 -6.64809e-19)
(1.22105 0.23443 8.3602e-19)
(1.24531 0.242172 -2.6502e-19)
(-0.00394588 0.00280047 -5.92013e-19)
(0.0166461 0.00292026 -1.84613e-19)
(0.0621191 0.00512642 1.44402e-19)
(0.127789 0.0101614 9.1002e-20)
(0.209802 0.0187889 9.31015e-20)
(0.304353 0.0313967 9.43304e-20)
(0.407425 0.0477899 -2.36076e-19)
(0.514861 0.0673356 -9.74114e-20)
(0.62258 0.0891087 3.03332e-20)
(0.726858 0.112032 -2.88481e-19)
(0.824579 0.135014 -1.30278e-19)
(0.913422 0.157071 7.87406e-19)
(0.991921 0.177404 -2.03153e-19)
(1.05943 0.195445 -2.79618e-19)
(1.11602 0.21086 -1.32445e-19)
(1.1623 0.223527 9.18568e-20)
(1.19924 0.233497 1.11692e-19)
(1.22804 0.240942 -5.35551e-19)
(1.24996 0.246057 7.74251e-19)
(1.26682 0.251267 -6.71094e-19)
(-0.000121794 0.0014313 -6.71218e-20)
(0.0304017 0.000194075 1.92428e-20)
(0.0875873 0.00306833 -2.4419e-20)
(0.165951 0.0102318 3.57274e-19)
(0.260759 0.0220512 1.95914e-20)
(0.367226 0.0385228 1.31007e-19)
(0.480345 0.0590056 -2.72075e-19)
(0.595117 0.0824181 -9.86269e-21)
(0.706916 0.107447 3.77363e-19)
(0.811835 0.132736 5.24657e-20)
(0.906956 0.157056 -3.28241e-19)
(0.990447 0.179418 -2.87856e-20)
(1.06153 0.199132 -2.69025e-19)
(1.12031 0.215818 2.68044e-19)
(1.16757 0.229362 3.7164e-19)
(1.20455 0.239864 -4.09312e-20)
(1.2327 0.247574 -4.98275e-20)
(1.25355 0.252816 1.51685e-19)
(1.26857 0.255951 -4.87336e-19)
(1.27948 0.258915 4.29208e-19)
(0.00461163 0.000128184 6.72435e-20)
(0.0466418 -0.00205298 -4.34198e-19)
(0.116795 0.0021321 1.16249e-19)
(0.208657 0.0121396 -3.60009e-19)
(0.316434 0.0278035 1.2375e-19)
(0.434206 0.048603 -4.59209e-19)
(0.555932 0.0733514 1.8508e-19)
(0.675881 0.100472 -5.88799e-20)
(0.789118 0.128282 -2.37518e-21)
(0.891891 0.155226 6.0076e-20)
(0.981812 0.180048 -2.18897e-19)
(1.05783 0.201877 -3.12095e-19)
(1.12001 0.220239 -6.38399e-20)
(1.16931 0.235004 -2.86559e-20)
(1.20719 0.246316 -7.26843e-20)
(1.23539 0.254494 -2.36324e-20)
(1.25572 0.259956 -7.07771e-20)
(1.26985 0.263139 -6.13455e-20)
(1.27932 0.264508 -1.8213e-19)
(1.28572 0.265595 2.88542e-19)
(0.0103305 -0.00103117 1.62061e-19)
(0.065466 -0.00360101 -1.79886e-19)
(0.149725 0.00263507 3.86933e-19)
(0.255625 0.0162353 -1.66878e-19)
(0.376137 0.0363458 4.4586e-19)
(0.504114 0.0617981 6.31664e-21)
(0.632539 0.0907815 2.23569e-19)
(0.755174 0.121222 -5.97804e-20)
(0.867125 0.15114 2.49308e-19)
(0.965169 0.178906 1.79029e-20)
(1.04777 0.203374 5.92264e-19)
(1.11485 0.22391 -4.08619e-19)
(1.16743 0.240332 5.51573e-20)
(1.20722 0.252805 1.05021e-19)
(1.23627 0.26172 5.48041e-19)
(1.25667 0.267587 -1.96801e-19)
(1.27038 0.270947 -3.89801e-20)
(1.27912 0.2723 -2.05757e-19)
(1.28433 0.27216 -2.14376e-20)
(1.28744 0.271743 1.02815e-19)
(0.0170937 -0.00195568 -7.78946e-20)
(0.0869094 -0.0042085 2.2479e-19)
(0.186238 0.00490196 -2.29824e-19)
(0.30639 0.0228429 9.08586e-20)
(0.438969 0.0479056 -1.08326e-19)
(0.57559 0.078155 3.97693e-19)
(0.708445 0.111119 -5.53016e-20)
(0.831135 0.144281 1.36151e-19)
(0.939221 0.175496 -8.01505e-20)
(1.03037 0.20321 -2.04613e-21)
(1.10415 0.226528 9.12798e-20)
(1.16154 0.245148 -7.05968e-20)
(1.20447 0.259227 1.83014e-19)
(1.23531 0.26922 -9.126e-20)
(1.25648 0.275737 -4.00471e-19)
(1.27027 0.279427 3.97825e-19)
(1.27863 0.280904 -1.78922e-19)
(1.2832 0.280685 1.42755e-19)
(1.28526 0.279294 2.47047e-19)
(1.28606 0.2777 1.01237e-19)
(0.0249376 -0.00254297 1.93771e-19)
(0.110931 -0.00362073 -3.99177e-19)
(0.22606 0.00924919 7.63772e-20)
(0.360313 0.032239 -5.53669e-20)
(0.503854 0.0626196 -2.22954e-19)
(0.64717 0.0976024 -1.74787e-19)
(0.781981 0.134075 -3.43415e-20)
(0.90216 0.169199 -3.11081e-19)
(1.00414 0.200829 -1.88363e-20)
(1.08679 0.227652 -5.76734e-20)
(1.15089 0.249143 -1.56392e-19)
(1.19848 0.265393 -3.47853e-20)
(1.23225 0.276901 -1.19455e-19)
(1.25504 0.284384 -1.98839e-19)
(1.26949 0.288616 2.03274e-19)
(1.27788 0.290332 2.77479e-20)
(1.28208 0.290168 5.52536e-20)
(1.28352 0.288625 -2.33247e-19)
(1.28333 0.286211 -6.03371e-21)
(1.28254 0.283701 -3.58243e-19)
(0.0338717 -0.00268243 2.12625e-19)
(0.137407 -0.00158028 1.41719e-19)
(0.268785 0.0159676 -2.28236e-19)
(0.416598 0.0446336 3.56319e-19)
(0.569595 0.0805231 -3.83783e-20)
(0.717385 0.119959 1.32841e-19)
(0.851644 0.159281 4.59416e-20)
(0.966992 0.195504 1.62522e-19)
(1.06111 0.22667 -1.27237e-19)
(1.13424 0.25186 4.22756e-20)
(1.18841 0.270999 -4.05838e-20)
(1.22659 0.284591 -1.77546e-20)
(1.25205 0.293452 3.38303e-20)
(1.26789 0.298503 -6.21681e-20)
(1.2768 0.300629 -1.89919e-20)
(1.28094 0.300596 -5.81608e-20)
(1.28198 0.299024 -9.44484e-20)
(1.28115 0.29637 6.10469e-20)
(1.27939 0.29312 -8.32795e-20)
(1.27753 0.289886 3.59852e-19)
(0.0438746 -0.00225899 -1.06236e-19)
(0.166124 0.00216102 -3.00666e-19)
(0.313878 0.0253051 -3.99662e-20)
(0.474322 0.060155 -1.08484e-20)
(0.634945 0.101547 -1.3441e-19)
(0.784854 0.144953 -2.20431e-19)
(0.916187 0.186325 7.20413e-20)
(1.02477 0.222743 -9.89584e-20)
(1.10979 0.25263 -1.10701e-19)
(1.17297 0.275574 6.15468e-20)
(1.21745 0.291994 -4.64644e-20)
(1.24697 0.302787 -9.37411e-20)
(1.26515 0.309035 -2.97783e-21)
(1.27519 0.311804 6.34433e-20)
(1.27966 0.312028 -6.43444e-20)
(1.28054 0.310464 8.93684e-20)
(1.27925 0.307685 2.41153e-20)
(1.27681 0.304093 6.03871e-20)
(1.27398 0.300148 1.17171e-19)
(1.27141 0.296321 -1.00246e-19)
(0.0548911 -0.00115768 1.01492e-19)
(0.196782 0.00782947 -9.03618e-21)
(0.360691 0.0374512 4.54375e-20)
(0.532483 0.0788401 -6.16816e-20)
(0.698671 0.125524 5.07497e-21)
(0.848352 0.172242 2.13536e-19)
(0.974657 0.21478 -1.40218e-19)
(1.07499 0.250514 5.92398e-20)
(1.15024 0.278409 5.21443e-20)
(1.2035 0.298638 -1.46462e-19)
(1.23891 0.312114 1.37399e-19)
(1.26073 0.320084 1.21038e-21)
(1.27274 0.323829 -9.63614e-20)
(1.27807 0.324497 1.16062e-19)
(1.27908 0.323022 -4.58888e-20)
(1.27751 0.320118 3.50536e-20)
(1.27454 0.316294 -3.92703e-20)
(1.27099 0.311894 -1.5719e-20)
(1.26744 0.307356 -1.36346e-19)
(1.26442 0.303017 4.16617e-20)
(0.0668309 0.000731392 -3.42533e-20)
(0.228997 0.0156171 9.1823e-20)
(0.408488 0.0525241 1.43024e-20)
(0.590043 0.100631 5.99505e-20)
(0.759618 0.152204 2.85524e-20)
(0.906868 0.201443 1.33829e-20)
(1.02641 0.244235 7.57611e-20)
(1.11752 0.278473 -9.21439e-21)
(1.18277 0.303788 3.32836e-20)
(1.22655 0.320973 5.34002e-20)
(1.25375 0.331403 2.56862e-20)
(1.2689 0.336607 1.83945e-20)
(1.27582 0.338 7.44969e-20)
(1.27741 0.336753 -7.20643e-20)
(1.2758 0.333762 1.54374e-20)
(1.27243 0.329677 -1.43448e-20)
(1.26828 0.324931 2.2312e-20)
(1.26399 0.319817 1.86486e-20)
(1.25999 0.314752 3.87375e-20)
(1.25668 0.309945 1.64028e-21)
(0.079569 0.00350783 2.0309e-20)
(0.262314 0.0256704 1.85365e-20)
(0.456472 0.0705621 -2.56377e-20)
(0.645979 0.125381 1.60128e-20)
(0.816764 0.181267 9.02236e-21)
(0.959625 0.232155 -2.80748e-20)
(1.07109 0.27431 9.24249e-21)
(1.15244 0.306336 1.6706e-21)
(1.20789 0.328616 1.58899e-20)
(1.2429 0.342553 -4.25405e-20)
(1.26285 0.349926 -1.10575e-22)
(1.2724 0.352477 1.17144e-20)
(1.27521 0.351685 -9.33353e-21)
(1.27392 0.348699 9.44287e-21)
(1.27035 0.344349 2.45043e-20)
(1.26571 0.339204 -1.3888e-20)
(1.26076 0.333628 3.89803e-21)
(1.25599 0.327861 1.51369e-20)
(1.25172 0.322311 -2.49075e-20)
(1.24826 0.317056 1.19647e-20)
(0.0929478 0.00725586 5.6635e-20)
(0.296218 0.0380808 -3.07741e-20)
(0.503822 0.0915197 3.62055e-20)
(0.699325 0.152857 -2.69216e-20)
(0.869245 0.212345 -1.20457e-20)
(1.00608 0.263975 3.65044e-21)
(1.10858 0.304661 -1.1793e-20)
(1.18006 0.333875 4.23513e-20)
(1.22621 0.352791 -3.51933e-20)
(1.25331 0.36338 8.25228e-21)
(1.26704 0.367755 -6.1482e-21)
(1.27199 0.367794 -3.97801e-20)
(1.27156 0.364984 3.85088e-20)
(1.2681 0.360414 1.45859e-20)
(1.26312 0.354829 -1.45054e-20)
(1.25761 0.348719 3.39238e-20)
(1.25214 0.342373 -5.38195e-22)
(1.24709 0.335994 -3.27118e-20)
(1.24269 0.329981 2.41697e-20)
(1.23916 0.324279 7.5437e-21)
(0.10678 0.0120398 -1.98511e-20)
(0.330153 0.0528782 5.7514e-20)
(0.549716 0.115268 6.63937e-20)
(0.749209 0.182758 -3.12854e-20)
(0.916379 0.245041 5.44111e-20)
(1.04591 0.29651 8.59228e-20)
(1.13896 0.334982 -4.72843e-21)
(1.20078 0.360906 -1.46568e-20)
(1.23835 0.376241 7.2443e-20)
(1.2585 0.383466 3.52339e-20)
(1.26701 0.384946 -6.32755e-21)
(1.26828 0.382625 5.22569e-20)
(1.26537 0.377953 -5.57496e-20)
(1.26032 0.37193 8.67152e-20)
(1.25437 0.365211 -1.44326e-20)
(1.24829 0.3582 4.10634e-20)
(1.24252 0.351126 7.29331e-21)
(1.23735 0.34416 2.91622e-20)
(1.23291 0.337693 -2.77729e-20)
(1.2294 0.331536 6.62434e-21)
(0.120853 0.0178995 -3.08668e-20)
(0.363542 0.070026 7.33086e-20)
(0.59337 0.141599 5.44021e-20)
(0.794874 0.214723 -8.21809e-21)
(0.95766 0.278937 8.44675e-20)
(1.07898 0.329386 -6.29874e-20)
(1.16244 0.365003 -4.78873e-21)
(1.2151 0.387274 5.54376e-20)
(1.24493 0.398909 1.75859e-20)
(1.25912 0.402816 2.45022e-20)
(1.26336 0.401531 -3.60977e-20)
(1.26175 0.397005 9.36721e-20)
(1.257 0.39061 1.73258e-20)
(1.25084 0.383243 -8.25442e-20)
(1.24426 0.375464 1.19913e-19)
(1.23785 0.3676 -1.41067e-19)
(1.23196 0.359824 -6.42946e-20)
(1.22678 0.352283 1.0789e-20)
(1.22239 0.345364 6.22091e-20)
(1.21895 0.338741 -1.16696e-19)