1.275 	2.15223e-18 	-2.76991e-20 	-0.422298
1.825 	2.15223e-18 	-1.39322e-20 	-0.362514
2.375 	2.15223e-18 	1.38775e-18 	-0.293929
2.925 	2.15223e-18 	2.78958e-18 	-0.241578
3.475 	2.15223e-18 	4.53849e-18 	-0.118209
4.025 	2.15223e-18 	6.28755e-18 	-0.038996
4.575 	2.15223e-18 	6.30203e-18 	-0.105817
5.125 	2.15223e-18 	6.31666e-18 	-0.142433
5.675 	2.15223e-18 	6.33144e-18 	-0.090355
6.225 	2.15223e-18 	4.61166e-18 	-0.0571438
