/*--------------------------------*- C++ -*----------------------------------*\
  =========                 |
  \\      /  F ield         | OpenFOAM: The Open Source CFD Toolbox
   \\    /   O peration     | Website:  https://openfoam.org
    \\  /    A nd           | Version:  6.0
     \\/     M anipulation  |
\*---------------------------------------------------------------------------*/
FoamFile
{
    version     2.0;
    format      ascii;
    class       volScalarField;
    location    "64";
    object      p;
}
// * * * * * * * * * * * * * * * * * * * * * * * * * * * * * * * * * * * * * //

dimensions      [0 2 -2 0 0 0 0];

internalField   nonuniform List<scalar> 
12500
(
-0.423082
-0.423831
-0.4242
-0.42432
-0.424321
-0.424274
-0.424235
-0.424241
-0.424316
-0.424468
-0.424699
-0.425006
-0.425389
-0.425843
-0.426367
-0.426962
-0.427627
-0.428364
-0.429172
-0.430052
-0.431017
-0.432064
-0.433068
-0.433915
-0.435895
-0.421054
-0.422197
-0.422802
-0.42308
-0.42321
-0.423264
-0.4233
-0.423357
-0.423456
-0.423604
-0.4238
-0.424041
-0.424324
-0.424644
-0.425002
-0.425397
-0.425832
-0.426308
-0.426828
-0.427395
-0.428024
-0.428716
-0.429338
-0.429787
-0.431409
-0.419135
-0.420676
-0.421517
-0.421954
-0.422211
-0.422364
-0.422473
-0.422577
-0.422694
-0.42283
-0.422982
-0.423144
-0.423311
-0.42348
-0.42365
-0.42382
-0.423996
-0.42418
-0.424377
-0.424595
-0.424851
-0.425149
-0.42535
-0.425361
-0.426582
-0.417414
-0.419346
-0.420419
-0.421012
-0.421393
-0.421645
-0.421825
-0.421973
-0.422105
-0.422224
-0.422323
-0.422396
-0.422435
-0.422435
-0.422395
-0.422316
-0.422203
-0.422063
-0.421902
-0.421732
-0.421575
-0.421435
-0.421173
-0.420704
-0.421482
-0.415983
-0.418287
-0.419581
-0.420325
-0.420829
-0.421178
-0.421429
-0.421621
-0.421766
-0.421865
-0.421907
-0.421883
-0.421782
-0.421598
-0.421329
-0.420977
-0.420547
-0.420048
-0.419491
-0.418891
-0.418277
-0.417655
-0.416884
-0.415889
-0.416177
-0.414931
-0.417578
-0.419078
-0.419965
-0.420589
-0.421035
-0.421358
-0.421595
-0.421756
-0.421835
-0.421819
-0.421694
-0.421446
-0.421067
-0.420552
-0.419902
-0.419126
-0.418234
-0.41724
-0.416166
-0.415046
-0.413892
-0.41256
-0.41099
-0.410742
-0.414344
-0.417292
-0.418977
-0.419999
-0.42074
-0.421282
-0.42168
-0.421967
-0.422148
-0.422212
-0.422141
-0.421916
-0.421519
-0.420936
-0.420162
-0.419195
-0.418045
-0.416724
-0.415252
-0.413655
-0.411977
-0.410235
-0.408287
-0.406086
-0.405251
-0.414298
-0.417494
-0.419338
-0.420483
-0.421336
-0.421976
-0.422455
-0.422798
-0.423007
-0.423066
-0.422949
-0.42263
-0.422086
-0.421299
-0.420256
-0.418957
-0.417408
-0.415625
-0.413631
-0.411461
-0.409168
-0.406776
-0.404146
-0.401253
-0.399774
-0.414853
-0.418232
-0.420205
-0.421461
-0.422422
-0.423161
-0.423726
-0.424136
-0.424385
-0.424451
-0.424302
-0.423903
-0.423222
-0.422235
-0.420924
-0.419282
-0.417316
-0.415041
-0.412484
-0.409689
-0.406719
-0.403608
-0.400225
-0.396565
-0.394382
-0.416049
-0.419542
-0.421609
-0.42296
-0.424022
-0.424862
-0.425519
-0.426007
-0.426312
-0.426403
-0.42624
-0.425779
-0.42498
-0.423807
-0.422235
-0.420251
-0.417856
-0.415065
-0.411909
-0.408438
-0.404727
-0.400824
-0.396605
-0.392096
-0.389137
-0.417905
-0.421433
-0.423556
-0.424986
-0.426141
-0.427082
-0.427839
-0.428416
-0.428794
-0.42893
-0.428776
-0.428278
-0.427383
-0.426046
-0.424231
-0.421915
-0.419091
-0.415772
-0.411988
-0.407795
-0.403282
-0.39851
-0.393368
-0.387913
-0.384099
-0.420414
-0.423897
-0.426036
-0.427523
-0.428762
-0.429802
-0.430662
-0.43134
-0.431805
-0.432007
-0.431886
-0.431378
-0.430418
-0.428946
-0.426915
-0.424288
-0.421048
-0.417201
-0.412774
-0.407826
-0.402456
-0.396741
-0.390584
-0.38408
-0.379323
-0.423541
-0.4269
-0.429013
-0.430535
-0.431844
-0.432976
-0.433942
-0.434727
-0.435292
-0.435577
-0.435512
-0.43502
-0.434024
-0.432452
-0.430237
-0.427331
-0.423703
-0.419344
-0.414275
-0.408555
-0.402289
-0.395568
-0.388312
-0.380654
-0.37486
-0.427232
-0.43039
-0.432434
-0.433965
-0.435325
-0.436539
-0.437604
-0.438497
-0.439167
-0.439546
-0.439553
-0.439101
-0.438097
-0.436455
-0.434094
-0.430946
-0.426965
-0.422126
-0.416438
-0.409951
-0.402773
-0.395007
-0.386583
-0.377674
-0.370749
-0.431408
-0.434297
-0.43623
-0.437741
-0.439129
-0.440406
-0.441558
-0.442549
-0.443321
-0.443795
-0.443881
-0.443479
-0.442485
-0.440799
-0.438322
-0.434971
-0.430679
-0.425403
-0.419135
-0.41191
-0.403833
-0.395012
-0.385383
-0.37515
-0.367012
-0.435975
-0.438537
-0.440319
-0.441778
-0.443165
-0.44448
-0.445695
-0.446766
-0.447624
-0.448182
-0.448338
-0.447985
-0.447006
-0.445287
-0.442715
-0.43919
-0.434625
-0.428959
-0.422161
-0.41425
-0.405317
-0.395468
-0.38464
-0.373046
-0.363629
-0.440833
-0.443021
-0.444614
-0.445987
-0.447339
-0.448658
-0.449905
-0.451026
-0.451941
-0.452556
-0.452761
-0.452438
-0.451461
-0.449703
-0.44704
-0.443354
-0.438543
-0.432526
-0.425251
-0.416717
-0.406993
-0.396179
-0.384202
-0.371261
-0.360525
-0.445876
-0.447659
-0.449031
-0.450281
-0.451559
-0.452841
-0.45408
-0.455209
-0.456142
-0.456775
-0.456991
-0.456663
-0.455657
-0.453836
-0.451065
-0.447213
-0.442164
-0.43582
-0.428112
-0.419015
-0.408577
-0.396885
-0.38385
-0.369623
-0.35756
-0.451005
-0.452366
-0.453489
-0.45458
-0.455742
-0.456942
-0.458123
-0.459211
-0.460111
-0.460712
-0.460889
-0.460508
-0.459428
-0.457504
-0.45459
-0.450547
-0.445248
-0.438583
-0.430467
-0.420856
-0.409778
-0.397301
-0.383322
-0.367912
-0.354542
-0.456135
-0.45707
-0.45792
-0.458817
-0.45982
-0.460888
-0.46196
-0.462952
-0.463762
-0.464273
-0.464353
-0.463863
-0.462654
-0.460574
-0.457472
-0.453201
-0.447626
-0.440627
-0.432111
-0.422019
-0.410358
-0.397184
-0.38238
-0.36591
-0.351269
-0.461195
-0.461713
-0.462274
-0.462944
-0.463744
-0.464631
-0.465538
-0.466376
-0.467037
-0.467398
-0.467323
-0.466663
-0.465268
-0.462978
-0.459638
-0.455096
-0.449212
-0.441863
-0.432946
-0.422396
-0.410201
-0.396405
-0.380889
-0.363497
-0.347626
-0.466136
-0.466256
-0.466517
-0.46693
-0.467486
-0.468144
-0.468833
-0.469461
-0.469916
-0.470069
-0.469778
-0.468893
-0.467256
-0.464706
-0.461084
-0.456235
-0.450017
-0.442304
-0.432993
-0.42201
-0.409333
-0.394996
-0.378887
-0.360723
-0.343649
-0.470934
-0.47068
-0.470635
-0.470766
-0.471042
-0.471426
-0.471849
-0.472215
-0.472409
-0.4723
-0.471742
-0.470582
-0.468657
-0.465806
-0.461868
-0.456689
-0.450129
-0.442062
-0.432384
-0.421014
-0.407915
-0.393106
-0.376479
-0.357605
-0.339258
-0.475588
-0.474988
-0.474634
-0.474461
-0.474426
-0.474498
-0.474611
-0.474669
-0.474557
-0.47414
-0.473271
-0.471793
-0.469544
-0.466363
-0.462092
-0.456583
-0.449703
-0.441333
-0.431374
-0.419742
-0.406376
-0.391238
-0.37412
-0.354324
-0.334366
-0.480118
-0.4792
-0.478535
-0.478043
-0.477672
-0.4774
-0.477167
-0.47688
-0.476423
-0.47566
-0.474443
-0.472614
-0.470014
-0.466485
-0.461878
-0.456057
-0.448908
-0.440338
-0.430278
-0.418681
-0.405518
-0.39074
-0.374006
-0.354334
-0.333913
-0.484566
-0.483351
-0.482378
-0.481553
-0.480826
-0.480187
-0.479581
-0.478919
-0.478086
-0.476946
-0.475352
-0.473146
-0.470173
-0.466283
-0.461339
-0.455226
-0.447858
-0.439183
-0.429192
-0.417928
-0.405499
-0.392081
-0.377864
-0.363693
-0.354036
-0.488987
-0.487492
-0.486209
-0.485044
-0.483948
-0.482924
-0.481925
-0.480866
-0.479633
-0.478092
-0.476095
-0.473489
-0.470123
-0.465856
-0.460569
-0.454168
-0.446596
-0.437842
-0.427944
-0.417002
-0.405188
-0.39275
-0.380012
-0.36783
-0.359203
-0.49345
-0.491679
-0.490086
-0.488575
-0.487102
-0.485681
-0.484275
-0.482803
-0.481152
-0.479189
-0.476768
-0.473738
-0.469955
-0.465291
-0.459643
-0.452939
-0.445152
-0.4363
-0.426456
-0.415749
-0.404368
-0.392563
-0.380621
-0.369071
-0.359718
-0.498026
-0.495976
-0.494069
-0.492208
-0.490352
-0.488529
-0.486708
-0.48481
-0.482726
-0.480321
-0.477452
-0.473972
-0.469745
-0.464655
-0.458616
-0.451578
-0.443538
-0.434536
-0.424665
-0.414061
-0.402902
-0.391402
-0.379772
-0.368321
-0.358232
-0.502788
-0.500446
-0.498218
-0.496004
-0.493763
-0.491534
-0.489292
-0.486959
-0.484425
-0.481558
-0.478215
-0.474253
-0.469547
-0.463993
-0.457523
-0.450108
-0.441764
-0.432549
-0.422564
-0.411944
-0.400851
-0.389456
-0.377917
-0.36642
-0.355767
-0.507806
-0.505149
-0.50259
-0.500019
-0.497393
-0.494756
-0.492087
-0.489308
-0.486308
-0.482954
-0.479104
-0.474623
-0.469395
-0.463333
-0.456385
-0.448542
-0.439839
-0.430348
-0.420176
-0.409452
-0.398322
-0.386931
-0.375402
-0.363865
-0.352884
-0.513139
-0.510136
-0.507234
-0.504303
-0.50129
-0.498243
-0.495141
-0.491903
-0.488414
-0.484541
-0.480146
-0.475102
-0.469304
-0.462682
-0.455206
-0.446885
-0.437773
-0.427953
-0.417537
-0.406652
-0.395431
-0.384
-0.372465
-0.360929
-0.349799
-0.518838
-0.515454
-0.512194
-0.508898
-0.505495
-0.502033
-0.498487
-0.49477
-0.490765
-0.486336
-0.481351
-0.475691
-0.46927
-0.462036
-0.45398
-0.445135
-0.43557
-0.425381
-0.414685
-0.403605
-0.392268
-0.380786
-0.369255
-0.357763
-0.346614
-0.524937
-0.521134
-0.5175
-0.513833
-0.510035
-0.50615
-0.502144
-0.497924
-0.493365
-0.488334
-0.482705
-0.476374
-0.469273
-0.461374
-0.452692
-0.443283
-0.433232
-0.422647
-0.41165
-0.400361
-0.388898
-0.377367
-0.365851
-0.354434
-0.343342
-0.53146
-0.5272
-0.523175
-0.519129
-0.514928
-0.510606
-0.506118
-0.50136
-0.496203
-0.490516
-0.484183
-0.47712
-0.469281
-0.460667
-0.451319
-0.441314
-0.430755
-0.41976
-0.408451
-0.396949
-0.385361
-0.373784
-0.362293
-0.350963
-0.339965
-0.538414
-0.533659
-0.529228
-0.524795
-0.520179
-0.515401
-0.5104
-0.505061
-0.49925
-0.492844
-0.485742
-0.477884
-0.469253
-0.459879
-0.449832
-0.43921
-0.428131
-0.41672
-0.4051
-0.393384
-0.381674
-0.370053
-0.358588
-0.347346
-0.336448
-0.545792
-0.540511
-0.535659
-0.530828
-0.525781
-0.520519
-0.514966
-0.508992
-0.502464
-0.495268
-0.487328
-0.478612
-0.469137
-0.458967
-0.448197
-0.436946
-0.425345
-0.413521
-0.401594
-0.389671
-0.377841
-0.366176
-0.354731
-0.343565
-0.332759
-0.553572
-0.547738
-0.542453
-0.537213
-0.531714
-0.525935
-0.519778
-0.513104
-0.505785
-0.497725
-0.488876
-0.479243
-0.46888
-0.457885
-0.446378
-0.434497
-0.422377
-0.410149
-0.397924
-0.3858
-0.373852
-0.36214
-0.350706
-0.339601
-0.328869
-0.561719
-0.555313
-0.549585
-0.543923
-0.537946
-0.531604
-0.524783
-0.517335
-0.509144
-0.50014
-0.490313
-0.479709
-0.468423
-0.456584
-0.444337
-0.431831
-0.419206
-0.406586
-0.394075
-0.381756
-0.369692
-0.357928
-0.346496
-0.335431
-0.324754
-0.570183
-0.563193
-0.557016
-0.550917
-0.544427
-0.53747
-0.529912
-0.521607
-0.512457
-0.50243
-0.49156
-0.47994
-0.467705
-0.455014
-0.442033
-0.428916
-0.415803
-0.402809
-0.390024
-0.377519
-0.36534
-0.35352
-0.342077
-0.331036
-0.320396
-0.578901
-0.571321
-0.564692
-0.558136
-0.551095
-0.543458
-0.535082
-0.525828
-0.51563
-0.504503
-0.492533
-0.479862
-0.466664
-0.453126
-0.439425
-0.425718
-0.412139
-0.398789
-0.385745
-0.373061
-0.36077
-0.34889
-0.337428
-0.326396
-0.315779
-0.587791
-0.579626
-0.572543
-0.56551
-0.557867
-0.549478
-0.540192
-0.529894
-0.518561
-0.506263
-0.493147
-0.479402
-0.465241
-0.450868
-0.43647
-0.4222
-0.408179
-0.394495
-0.381208
-0.368354
-0.355954
-0.344012
-0.332525
-0.321489
-0.310885
-0.596759
-0.588022
-0.580484
-0.572947
-0.564647
-0.555423
-0.54513
-0.533691
-0.521139
-0.507612
-0.493315
-0.478488
-0.463374
-0.448191
-0.433126
-0.418323
-0.403888
-0.389892
-0.376378
-0.363366
-0.350861
-0.338857
-0.327342
-0.316293
-0.3057
-0.605695
-0.596406
-0.588414
-0.580341
-0.571319
-0.56117
-0.549772
-0.537097
-0.523252
-0.508448
-0.492952
-0.477049
-0.461004
-0.445043
-0.429347
-0.414046
-0.399227
-0.384943
-0.37122
-0.358061
-0.345459
-0.333397
-0.321852
-0.310788
-0.300206
-0.614473
-0.604659
-0.596215
-0.587569
-0.577753
-0.566584
-0.55398
-0.539984
-0.524785
-0.508673
-0.491976
-0.475015
-0.458072
-0.441374
-0.425088
-0.409326
-0.394156
-0.37961
-0.365696
-0.352404
-0.339714
-0.3276
-0.316029
-0.304949
-0.294383
-0.622953
-0.612649
-0.603752
-0.594491
-0.583804
-0.571519
-0.557615
-0.542222
-0.525624
-0.508189
-0.490304
-0.472319
-0.454523
-0.437135
-0.420303
-0.40412
-0.388632
-0.373851
-0.359768
-0.346359
-0.333593
-0.321436
-0.309844
-0.298753
-0.288211
-0.630982
-0.620229
-0.610877
-0.600953
-0.589314
-0.575819
-0.560529
-0.54368
-0.525655
-0.506903
-0.48786
-0.468896
-0.450299
-0.432273
-0.414946
-0.398384
-0.382613
-0.367626
-0.353397
-0.33989
-0.327062
-0.314873
-0.303271
-0.292175
-0.28167
-0.638394
-0.627238
-0.61743
-0.606792
-0.594118
-0.579325
-0.562577
-0.544229
-0.524771
-0.504726
-0.48457
-0.464684
-0.445347
-0.426742
-0.408969
-0.392074
-0.376057
-0.360894
-0.346544
-0.332959
-0.320087
-0.307881
-0.29628
-0.28519
-0.274739
-0.645016
-0.633507
-0.623237
-0.611832
-0.598045
-0.581875
-0.563614
-0.543746
-0.522869
-0.501574
-0.480365
-0.459624
-0.439614
-0.42049
-0.402328
-0.385145
-0.368922
-0.353616
-0.339173
-0.325533
-0.312637
-0.300431
-0.288847
-0.277776
-0.267396
-0.650667
-0.638859
-0.628122
-0.615894
-0.600922
-0.58331
-0.5635
-0.542115
-0.519855
-0.497369
-0.47518
-0.45366
-0.433049
-0.413473
-0.394978
-0.377556
-0.361168
-0.345753
-0.331246
-0.317577
-0.30468
-0.292496
-0.280945
-0.26991
-0.259621
-0.655163
-0.643111
-0.6319
-0.618799
-0.602576
-0.583476
-0.562103
-0.539226
-0.51564
-0.492039
-0.468954
-0.446739
-0.425605
-0.405644
-0.386875
-0.369266
-0.352755
-0.33727
-0.322731
-0.309062
-0.296189
-0.284049
-0.272552
-0.261571
-0.251398
-0.658316
-0.646078
-0.634387
-0.620365
-0.602841
-0.582225
-0.559302
-0.53498
-0.510143
-0.485519
-0.461632
-0.438813
-0.417236
-0.396962
-0.377981
-0.360236
-0.343649
-0.328133
-0.313598
-0.299958
-0.287138
-0.275068
-0.263647
-0.252743
-0.242709
-0.659943
-0.647579
-0.635402
-0.620418
-0.601559
-0.579423
-0.554985
-0.52929
-0.503296
-0.477751
-0.453165
-0.429835
-0.407901
-0.387389
-0.368259
-0.350433
-0.333818
-0.318312
-0.303818
-0.290243
-0.277505
-0.265532
-0.254213
-0.243408
-0.23354
-0.659868
-0.647435
-0.634769
-0.618793
-0.598582
-0.574947
-0.549053
-0.522077
-0.495035
-0.468684
-0.443508
-0.419769
-0.397564
-0.376888
-0.357675
-0.339827
-0.323232
-0.307781
-0.293368
-0.279893
-0.267271
-0.255426
-0.244236
-0.233556
-0.223882
-0.657923
-0.645479
-0.632324
-0.615338
-0.59378
-0.568689
-0.541423
-0.513276
-0.485311
-0.458277
-0.432626
-0.408578
-0.386193
-0.365432
-0.346203
-0.32839
-0.311869
-0.29652
-0.282229
-0.268893
-0.256422
-0.244736
-0.233704
-0.223178
-0.213726
-0.65395
-0.641553
-0.627914
-0.609915
-0.587035
-0.560556
-0.532023
-0.502833
-0.474079
-0.446492
-0.420486
-0.396235
-0.373761
-0.352994
-0.333818
-0.316102
-0.299709
-0.28451
-0.270386
-0.257229
-0.244946
-0.233455
-0.222611
-0.212268
-0.20307
-0.647809
-0.635516
-0.621403
-0.602403
-0.578249
-0.550474
-0.520799
-0.490708
-0.46131
-0.433306
-0.407065
-0.382717
-0.360247
-0.339555
-0.320504
-0.302946
-0.286737
-0.271739
-0.257829
-0.244893
-0.232838
-0.221577
-0.210955
-0.200827
-0.191913
-0.639377
-0.627241
-0.612674
-0.592701
-0.567343
-0.538385
-0.50771
-0.476873
-0.446981
-0.418698
-0.392346
-0.368011
-0.345637
-0.325101
-0.306247
-0.288912
-0.272945
-0.258201
-0.244552
-0.231882
-0.220096
-0.209102
-0.198737
-0.188857
-0.18026
-0.628549
-0.616625
-0.601629
-0.580729
-0.554259
-0.524249
-0.492731
-0.461311
-0.431081
-0.402662
-0.376323
-0.352106
-0.329924
-0.309626
-0.291041
-0.273995
-0.258328
-0.243892
-0.230554
-0.218196
-0.206722
-0.196036
-0.185963
-0.176366
-0.168118
-0.615243
-0.603584
-0.588195
-0.566431
-0.538958
-0.508046
-0.475854
-0.44402
-0.41361
-0.385195
-0.358993
-0.335003
-0.313105
-0.293128
-0.274885
-0.258195
-0.242889
-0.228816
-0.21584
-0.203842
-0.192723
-0.182386
-0.172644
-0.163368
-0.1555
-0.599401
-0.588058
-0.57232
-0.549771
-0.521423
-0.489772
-0.457083
-0.425009
-0.394579
-0.366308
-0.340365
-0.316707
-0.295187
-0.275613
-0.257786
-0.241517
-0.226633
-0.21298
-0.200419
-0.188829
-0.178112
-0.168166
-0.158796
-0.149877
-0.142423
-0.580987
-0.57001
-0.553976
-0.530737
-0.501659
-0.469443
-0.43644
-0.4043
-0.374007
-0.34602
-0.320455
-0.297233
-0.276181
-0.25709
-0.239753
-0.223972
-0.209573
-0.196396
-0.184303
-0.173171
-0.162903
-0.153393
-0.144436
-0.135916
-0.12891
-0.559992
-0.549431
-0.533162
-0.509342
-0.479689
-0.44709
-0.413958
-0.381927
-0.351926
-0.324356
-0.299286
-0.276601
-0.256106
-0.237579
-0.220803
-0.205577
-0.191723
-0.17908
-0.167509
-0.156888
-0.147117
-0.138089
-0.12959
-0.121511
-0.114985
-0.53643
-0.526333
-0.5099
-0.48562
-0.455557
-0.422763
-0.389688
-0.357937
-0.328378
-0.301355
-0.27689
-0.25484
-0.234988
-0.217102
-0.200957
-0.186351
-0.173103
-0.161052
-0.150058
-0.139999
-0.130775
-0.122277
-0.114283
-0.10669
-0.100679
-0.510342
-0.500756
-0.484237
-0.459626
-0.429328
-0.396527
-0.363693
-0.332386
-0.303414
-0.277062
-0.25331
-0.231986
-0.212859
-0.195687
-0.180242
-0.166319
-0.153736
-0.142334
-0.131972
-0.122527
-0.113903
-0.105985
-0.098546
-0.0914867
-0.0860229
-0.481793
-0.472764
-0.456241
-0.43144
-0.401082
-0.368462
-0.336048
-0.305346
-0.277098
-0.251532
-0.228592
-0.208082
-0.189756
-0.173368
-0.158686
-0.145506
-0.133647
-0.122949
-0.113272
-0.104497
-0.0965246
-0.0892409
-0.082411
-0.075938
-0.0710582
-0.450871
-0.442445
-0.426007
-0.401158
-0.37092
-0.338666
-0.306844
-0.276898
-0.249501
-0.224831
-0.202796
-0.183178
-0.165724
-0.150183
-0.136325
-0.123943
-0.112861
-0.102921
-0.0939829
-0.0859297
-0.0786649
-0.0720716
-0.0659112
-0.0600849
-0.0558336
-0.41769
-0.409908
-0.393647
-0.368898
-0.338956
-0.307248
-0.276183
-0.247134
-0.220708
-0.197033
-0.175985
-0.157333
-0.140814
-0.126178
-0.113194
-0.101661
-0.0914049
-0.0822704
-0.0741223
-0.0668446
-0.0603428
-0.0545
-0.0490767
-0.0439702
-0.0404021
-0.382381
-0.375285
-0.359296
-0.334795
-0.305323
-0.274333
-0.244178
-0.216158
-0.190812
-0.168222
-0.148237
-0.130613
-0.115084
-0.1014
-0.0893345
-0.0786924
-0.0693028
-0.0610169
-0.0537037
-0.0472514
-0.041568
-0.036539
-0.0319302
-0.02763
-0.0247973
-0.3451
-0.338728
-0.323106
-0.299
-0.270167
-0.240057
-0.210956
-0.184084
-0.159917
-0.138492
-0.119635
-0.103093
-0.0885988
-0.0759047
-0.0647918
-0.0550704
-0.0465773
-0.0391713
-0.0327288
-0.0271441
-0.0223303
-0.01818
-0.0144706
-0.0110692
-0.00900552
-0.306018
-0.300406
-0.285245
-0.261679
-0.233644
-0.204568
-0.176653
-0.15104
-0.128138
-0.107948
-0.0902751
-0.074859
-0.061434
-0.0497574
-0.0396175
-0.0308335
-0.0232517
-0.016741
-0.0111883
-0.00649815
-0.00259262
0.000623162
0.00335239
0.00576031
0.00699689
-0.265324
-0.260504
-0.245899
-0.223011
-0.195927
-0.168025
-0.141418
-0.117159
-0.0956004
-0.0767053
-0.060263
-0.0460077
-0.0336763
-0.0230327
-0.0138737
-0.00602891
0.000643846
0.0062626
0.0109251
0.0147108
0.0176852
0.0199262
0.0215948
0.0228483
0.023013
-0.223221
-0.219223
-0.205263
-0.183185
-0.157194
-0.130596
-0.105405
-0.0825882
-0.0624401
-0.0448914
-0.0297171
-0.0166482
-0.0054251
0.00418178
0.0123664
0.0192881
0.0250757
0.0298296
0.0336239
0.0365125
0.0385422
0.0397579
0.0401955
0.0398637
0.0383908
-0.179923
-0.176773
-0.163544
-0.142402
-0.117634
-0.0924581
-0.068779
-0.047481
-0.0288018
-0.0126431
0.0012325
0.0130961
0.0232043
0.0317813
0.0390138
0.0450528
0.0500153
0.0539836
0.0570033
0.0590942
0.0602737
0.0604978
0.0594776
0.0568672
0.0532087
-0.135657
-0.133376
-0.120958
-0.100867
-0.0774417
-0.0537928
-0.0317114
-0.0119982
0.00516143
0.0198926
0.032443
0.0430856
0.0520749
0.059632
0.0659413
0.0711528
0.0753834
0.0787137
0.0811847
0.0828186
0.0836446
0.0835151
0.0816562
0.0773264
0.0727112
-0.0906558
-0.0892611
-0.0777284
-0.0587929
-0.0368169
-0.0147868
0.00562304
0.0236945
0.0392911
0.0525618
0.0637628
0.0731677
0.0810292
0.0875664
0.0929644
0.0973777
0.100934
0.103733
0.105853
0.107395
0.108517
0.109156
0.108346
0.105538
0.108342
-0.0451516
-0.0446579
-0.0340782
-0.0163938
0.00403932
0.0243711
0.043047
0.0594291
0.0734261
0.085208
0.0950371
0.103186
0.109905
0.115409
0.119883
0.123482
0.126337
0.128558
0.130245
0.131526
0.132573
0.133355
0.133332
0.132974
0.138171
0.000613199
0.000196114
0.00976313
0.0261135
0.0449239
0.0634917
0.0803832
0.0950378
0.107406
0.117676
0.126114
0.132989
0.138548
0.143002
0.146532
0.149292
0.151415
0.153014
0.154196
0.155091
0.155844
0.15642
0.156438
0.156441
0.161084
0.0463966
0.0450636
0.0535671
0.0685131
0.0856354
0.102387
0.117456
0.130356
0.141075
0.149815
0.156845
0.162431
0.166812
0.170194
0.172752
0.174636
0.175976
0.176882
0.177461
0.177833
0.178128
0.178319
0.178086
0.177864
0.181464
0.0919578
0.0897084
0.0971066
0.110591
0.125975
0.140873
0.154094
0.165221
0.174278
0.18148
0.187093
0.191378
0.194568
0.196859
0.19842
0.199395
0.199905
0.200057
0.199946
0.199681
0.199372
0.198982
0.198221
0.197493
0.200104
0.137058
0.133897
0.140157
0.152137
0.165746
0.178768
0.190128
0.199478
0.206872
0.212533
0.216727
0.219707
0.221697
0.222885
0.223431
0.223471
0.223119
0.22247
0.221614
0.220645
0.219653
0.218591
0.217191
0.215854
0.217509
0.181464
0.177399
0.1825
0.192946
0.204761
0.215897
0.225397
0.232976
0.238715
0.242844
0.245625
0.247304
0.248095
0.248176
0.247699
0.246789
0.245553
0.244078
0.242441
0.240727
0.239009
0.23723
0.235151
0.233176
0.233918
0.224945
0.21999
0.22392
0.232817
0.242832
0.25209
0.259745
0.26557
0.269673
0.272289
0.273673
0.274064
0.273664
0.272645
0.271146
0.269285
0.267159
0.264846
0.262417
0.259943
0.257485
0.254982
0.252222
0.24961
0.249479
0.267279
0.261452
0.264209
0.271557
0.279783
0.287184
0.293021
0.297123
0.29962
0.30075
0.300763
0.299888
0.298317
0.296212
0.293704
0.290901
0.287891
0.284745
0.281525
0.278295
0.275103
0.271887
0.268462
0.265229
0.264263
0.30825
0.301575
0.303168
0.308979
0.315443
0.321021
0.325081
0.327502
0.328434
0.328116
0.326793
0.324683
0.32197
0.318804
0.315308
0.311581
0.307705
0.303742
0.299747
0.295776
0.291868
0.287962
0.283899
0.280066
0.278302
0.347653
0.340156
0.340604
0.344906
0.349647
0.353452
0.355787
0.356581
0.355998
0.35428
0.351665
0.34836
0.344541
0.340347
0.335894
0.331273
0.326556
0.3218
0.317055
0.312367
0.30777
0.303205
0.298535
0.294129
0.291601
0.385288
0.377002
0.376333
0.379167
0.382239
0.384334
0.38501
0.384239
0.382204
0.379142
0.375287
0.370836
0.365954
0.360775
0.355402
0.349921
0.344397
0.338881
0.333416
0.328044
0.32279
0.3176
0.312357
0.307406
0.304151
0.420968
0.411929
0.410184
0.411602
0.413072
0.413531
0.412624
0.410364
0.406945
0.402606
0.39757
0.392029
0.386137
0.380019
0.373772
0.367473
0.361181
0.354943
0.348795
0.342774
0.3369
0.331122
0.325344
0.319877
0.315931
0.454516
0.444765
0.441991
0.442059
0.442007
0.440916
0.438513
0.434848
0.430124
0.424579
0.418431
0.411862
0.405018
0.398015
0.390943
0.383874
0.37686
0.369942
0.363153
0.356523
0.350068
0.343742
0.337465
0.331515
0.326917
0.485766
0.475348
0.471601
0.470397
0.468915
0.466371
0.462568
0.457589
0.451647
0.444978
0.437792
0.430263
0.42253
0.414701
0.406861
0.399072
0.391385
0.383834
0.376448
0.369252
0.362259
0.355427
0.348689
0.342289
0.337081
0.514563
0.503528
0.498874
0.496483
0.493673
0.489784
0.484687
0.478494
0.471427
0.46372
0.455576
0.447162
0.438609
0.430019
0.421469
0.413018
0.40471
0.396577
0.388641
0.380925
0.373437
0.366142
0.358984
0.352168
0.346394
0.540767
0.529166
0.523677
0.520198
0.516171
0.511053
0.504775
0.497476
0.489385
0.480732
0.471716
0.462496
0.453196
0.443913
0.434717
0.425663
0.416791
0.408127
0.399693
0.391504
0.383568
0.375853
0.368315
0.36112
0.354827
0.564246
0.552136
0.545893
0.541431
0.536309
0.530086
0.522748
0.514457
0.505447
0.495946
0.486148
0.476205
0.466236
0.456331
0.446557
0.436963
0.427584
0.418446
0.409565
0.400954
0.392617
0.384527
0.37665
0.369115
0.362355
0.584887
0.572327
0.565416
0.560084
0.553996
0.546799
0.538529
0.529365
0.519547
0.509301
0.498815
0.488236
0.477679
0.467227
0.456944
0.446875
0.437053
0.427497
0.418223
0.409241
0.400552
0.392135
0.383962
0.376126
0.368951
0.602587
0.589639
0.582151
0.57607
0.569151
0.56112
0.552049
0.542137
0.531626
0.520741
0.509665
0.498542
0.48748
0.47656
0.46584
0.455364
0.44516
0.435247
0.425637
0.416336
0.407346
0.398649
0.390221
0.382127
0.374593
0.617259
0.603986
0.596018
0.589316
0.581708
0.572983
0.56325
0.552718
0.541634
0.53022
0.518656
0.507081
0.495601
0.484292
0.473211
0.462397
0.451877
0.441667
0.431778
0.422214
0.412973
0.404044
0.395406
0.387096
0.379262
0.628828
0.615297
0.60695
0.599757
0.591607
0.582338
0.572083
0.561064
0.549528
0.537698
0.525749
0.513819
0.502008
0.490393
0.479027
0.467946
0.457176
0.446733
0.436623
0.42685
0.417413
0.4083
0.399496
0.391015
0.382942
0.637235
0.623516
0.614893
0.607345
0.598803
0.589141
0.578509
0.567137
0.555275
0.543143
0.530915
0.518726
0.506677
0.494839
0.483265
0.47199
0.461038
0.450424
0.440153
0.430229
0.420647
0.4114
0.402475
0.393868
0.385618
0.642439
0.628599
0.619807
0.612043
0.603262
0.59336
0.582499
0.570911
0.558849
0.546531
0.534132
0.521784
0.509586
0.49761
0.485907
0.474512
0.463447
0.452726
0.442355
0.432335
0.422663
0.413332
0.404331
0.395644
0.387282
0.644409
0.630519
0.621665
0.613826
0.604962
0.594975
0.584033
0.572368
0.560233
0.547848
0.535385
0.522978
0.510724
0.498696
0.486943
0.475502
0.464393
0.45363
0.443219
0.433161
0.423453
0.414089
0.405056
0.396336
0.387926
0.643133
0.629263
0.620456
0.612683
0.603892
0.593977
0.583102
0.5715
0.559421
0.547085
0.534668
0.522301
0.510085
0.49809
0.486368
0.474954
0.46387
0.453131
0.442741
0.432703
0.423013
0.413665
0.404647
0.395941
0.387549
0.638612
0.624833
0.616182
0.608615
0.600053
0.590367
0.579709
0.568307
0.556412
0.544245
0.531981
0.519756
0.507669
0.495793
0.484181
0.472869
0.461881
0.451229
0.440922
0.430961
0.421343
0.412063
0.403105
0.39446
0.386151
0.630864
0.617246
0.608857
0.601638
0.59346
0.584158
0.573864
0.562801
0.551218
0.539336
0.527334
0.51535
0.503484
0.491814
0.480392
0.469256
0.458431
0.447932
0.437768
0.427941
0.41845
0.409287
0.400435
0.391898
0.383737
0.619922
0.606534
0.598513
0.591779
0.584137
0.575372
0.56559
0.555002
0.543857
0.532377
0.520744
0.509099
0.497547
0.486166
0.475012
0.464125
0.453532
0.443251
0.43329
0.423655
0.414344
0.405347
0.396646
0.388262
0.380313
0.605833
0.592742
0.585193
0.579078
0.572123
0.564046
0.554919
0.544941
0.534357
0.523394
0.512235
0.501027
0.489878
0.478869
0.468061
0.457496
0.447203
0.437202
0.427504
0.418116
0.409038
0.400258
0.391752
0.383567
0.375891
0.58866
0.575932
0.568954
0.56359
0.557466
0.550223
0.541892
0.532655
0.522755
0.51242
0.50184
0.491163
0.480505
0.469951
0.459565
0.449392
0.439466
0.429807
0.42043
0.411344
0.402552
0.394037
0.38577
0.377828
0.370486
0.568481
0.55618
0.549868
0.545379
0.540227
0.53396
0.526561
0.518194
0.509096
0.499499
0.489596
0.479545
0.469464
0.459444
0.449554
0.439843
0.430348
0.421092
0.412093
0.403364
0.394909
0.386706
0.378723
0.371066
0.364116
0.545387
0.533575
0.528018
0.524523
0.520478
0.515323
0.508989
0.501615
0.493433
0.484678
0.475552
0.466215
0.456794
0.447387
0.438065
0.428883
0.419881
0.411087
0.402522
0.394203
0.386135
0.378292
0.370634
0.363304
0.356801
0.519486
0.508219
0.503503
0.501114
0.498301
0.494389
0.489245
0.482982
0.475826
0.468016
0.459759
0.451224
0.442544
0.433822
0.425137
0.416549
0.408102
0.399828
0.391751
0.383892
0.37626
0.368824
0.361532
0.354569
0.348565
0.490897
0.480231
0.476433
0.475252
0.473791
0.471244
0.467408
0.462369
0.456345
0.449576
0.442277
0.434626
0.426763
0.418799
0.410818
0.402886
0.395052
0.387352
0.379815
0.372465
0.365317
0.358332
0.351449
0.344889
0.339435
0.459753
0.44974
0.446929
0.447052
0.447052
0.445984
0.443569
0.439859
0.435064
0.429428
0.423172
0.416483
0.40951
0.40237
0.395156
0.387939
0.380773
0.3737
0.366752
0.35996
0.35334
0.34685
0.340416
0.334296
0.329438
0.4262
0.416887
0.415127
0.416637
0.418197
0.418713
0.417822
0.415539
0.412066
0.407648
0.402515
0.396861
0.390845
0.384592
0.378204
0.371757
0.365312
0.358915
0.352604
0.346414
0.340367
0.334415
0.328468
0.322823
0.318603
0.390398
0.381829
0.381173
0.384143
0.387352
0.389545
0.390272
0.389508
0.387441
0.38432
0.380381
0.375829
0.370833
0.365526
0.360018
0.354392
0.348716
0.343041
0.33741
0.331866
0.326433
0.321059
0.315639
0.310501
0.30696
0.352517
0.344731
0.345224
0.349716
0.354649
0.358604
0.361032
0.361868
0.361284
0.35953
0.356852
0.353463
0.349543
0.345235
0.340655
0.335897
0.331033
0.326123
0.321213
0.316353
0.311573
0.306818
0.301961
0.297361
0.294537
0.312738
0.305771
0.307448
0.31351
0.320231
0.326018
0.330222
0.332729
0.333695
0.333372
0.332012
0.329841
0.327047
0.323784
0.320176
0.316326
0.312314
0.308204
0.304051
0.299911
0.29582
0.29172
0.287463
0.283431
0.28136
0.271256
0.265137
0.268023
0.275692
0.28425
0.291928
0.297969
0.302207
0.304782
0.305944
0.305954
0.305046
0.30342
0.30124
0.298642
0.295733
0.292604
0.289327
0.285961
0.282571
0.279202
0.275791
0.272167
0.268731
0.267448
0.228272
0.223027
0.227137
0.236434
0.246865
0.256478
0.264406
0.270426
0.274657
0.277349
0.278769
0.279163
0.27874
0.277675
0.276113
0.274173
0.271952
0.26953
0.266975
0.264358
0.261736
0.259044
0.256086
0.25327
0.252809
0.183998
0.179649
0.184988
0.195921
0.208244
0.219823
0.229674
0.237513
0.243439
0.247696
0.250559
0.252282
0.253087
0.25316
0.252655
0.2517
0.250402
0.248849
0.247118
0.245289
0.243431
0.241481
0.239214
0.23704
0.237437
0.138657
0.13522
0.14178
0.154342
0.168562
0.182123
0.19392
0.203606
0.211253
0.217099
0.221426
0.224499
0.226548
0.227771
0.228331
0.228368
0.227997
0.227315
0.226409
0.225369
0.224279
0.223081
0.221521
0.220005
0.221298
0.0924759
0.0899622
0.0977274
0.111897
0.128003
0.143547
0.157298
0.168845
0.178227
0.185678
0.191482
0.195913
0.199213
0.201588
0.203213
0.204236
0.204783
0.204959
0.204861
0.204594
0.204256
0.203801
0.202944
0.202088
0.204317
0.0456906
0.0441072
0.0530496
0.06879
0.0867557
0.104267
0.11997
0.133378
0.144499
0.153559
0.160842
0.166632
0.171179
0.1747
0.177377
0.179369
0.180808
0.181811
0.182484
0.182944
0.183311
0.18355
0.183355
0.183128
0.186337
-0.00145821
-0.00210907
0.00797255
0.0252332
0.045015
0.0644652
0.0820999
0.0973588
0.110213
0.120875
0.129632
0.136772
0.142555
0.147204
0.150912
0.153842
0.156136
0.157917
0.159299
0.160415
0.161404
0.162243
0.162594
0.162892
0.167115
-0.0487255
-0.0484462
-0.0372732
-0.0185573
0.00298189
0.0243257
0.043861
0.0609485
0.0755192
0.0877696
0.0979859
0.106461
0.113461