/*--------------------------------*- C++ -*----------------------------------*\
  =========                 |
  \\      /  F ield         | OpenFOAM: The Open Source CFD Toolbox
   \\    /   O peration     | Website:  https://openfoam.org
    \\  /    A nd           | Version:  6.0
     \\/     M anipulation  |
\*---------------------------------------------------------------------------*/
FoamFile
{
    version     2.0;
    format      ascii;
    class       surfaceScalarField;
    location    "56";
    object      phi;
}
// * * * * * * * * * * * * * * * * * * * * * * * * * * * * * * * * * * * * * //

dimensions      [0 3 -1 0 0 0 0];

internalField   nonuniform List<scalar> 
7840
(
-2.38025e-06
-4.00709e-06
6.38734e-06
-8.47694e-06
-1.02913e-05
1.6388e-05
-1.74044e-05
-1.53437e-05
2.42712e-05
-2.84096e-05
-1.9457e-05
3.04622e-05
-4.08716e-05
-2.28558e-05
3.53177e-05
-5.42943e-05
-2.57267e-05
3.91494e-05
-6.82958e-05
-2.82213e-05
4.22228e-05
-8.25972e-05
-3.0457e-05
4.47584e-05
-9.7011e-05
-3.25206e-05
4.69344e-05
-0.000111431
-3.44707e-05
4.88905e-05
-0.000125821
-3.63421e-05
5.07322e-05
-0.000140207
-3.815e-05
5.25357e-05
-0.000154665
-3.98943e-05
5.43524e-05
-0.000169314
-4.15645e-05
5.62136e-05
-0.000184305
-4.31427e-05
5.81343e-05
-0.000199814
-4.46078e-05
6.01163e-05
-0.000216027
-4.59378e-05
6.21514e-05
-0.000233139
-4.71117e-05
6.42228e-05
-0.000251337
-4.81052e-05
6.63038e-05
-4.88913e-05
6.83641e-05
-0.00027081
-2.47451e-06
-1.53259e-06
-8.78701e-06
-3.97879e-06
-1.8007e-05
-6.12366e-06
-2.93503e-05
-8.11375e-06
-4.2174e-05
-1.00321e-05
-5.59661e-05
-1.19346e-05
-7.03332e-05
-1.38543e-05
-8.49869e-05
-1.58033e-05
-9.97325e-05
-1.7775e-05
-0.000114457
-1.9746e-05
-0.00012912
-2.16793e-05
-0.000143742
-2.3528e-05
-0.000158397
-2.52393e-05
-0.000173202
-2.67591e-05
-0.00018831
-2.80353e-05
-0.000203895
-2.90221e-05
-0.000220151
-2.96825e-05
-0.000237272
-2.999e-05
-0.000255455
-2.99222e-05
-2.94552e-05
-0.000274891
-2.57064e-06
1.03805e-06
-9.09783e-06
2.54839e-06
-1.86009e-05
3.37939e-06
-3.02601e-05
3.54543e-06
-4.34067e-05
3.11451e-06
-5.75089e-05
2.16772e-06
-7.21571e-05
7.93862e-07
-8.70485e-05
-9.1181e-07
-0.000101975
-2.84822e-06
-0.000116812
-4.90912e-06
-0.000131507
-6.98467e-06
-0.000146071
-8.96423e-06
-0.00016057
-1.074e-05
-0.000175118
-1.22113e-05
-0.000189865
-1.32883e-05
-0.00020499
-1.38965e-05
-0.000220693
-1.39798e-05
-0.00023718
-1.3503e-05
-0.000254659
-1.24431e-05
-1.07778e-05
-0.000273337
-2.66655e-06
3.70459e-06
-9.40191e-06
9.28376e-06
-1.91713e-05
1.31488e-05
-3.11168e-05
1.54908e-05
-4.45409e-05
1.65387e-05
-5.88893e-05
1.65161e-05
-7.37323e-05
1.56369e-05
-8.87487e-05
1.41046e-05
-0.000103712
1.21149e-05
-0.000118478
9.85718e-06
-0.000132978
7.51473e-06
-0.000147205
5.26356e-06
-0.000161215
3.26954e-06
-0.00017511
1.68437e-06
-0.00018904
6.41172e-07
-0.000203186
2.49862e-07
-0.000217758
5.92147e-07
-0.00023298
1.71844e-06
-0.000249081
3.65775e-06
6.43377e-06
-0.000266292
-2.75987e-06
6.46446e-06
-9.69086e-06
1.62147e-05
-1.97019e-05
2.31598e-05
-3.18953e-05
2.76842e-05
-4.55442e-05
3.01876e-05
-6.007e-05
3.10419e-05
-7.50208e-05
3.05877e-05
-9.00533e-05
2.9137e-05
-0.000104918
2.69792e-05
-0.000119446
2.43856e-05
-0.000133544
2.16127e-05
-0.000147184
1.89032e-05
-0.000160398
1.64841e-05
-0.000173277
1.45637e-05
-0.000185962
1.3326e-05
-0.000198638
1.29254e-05
-0.000211525
1.34797e-05
-0.000224871
1.50646e-05
-0.000238938
1.77241e-05
2.14902e-05
-0.000253994
-2.84768e-06
9.31214e-06
-9.95421e-06
2.33213e-05
-2.01717e-05
3.33773e-05
-3.25636e-05
4.00762e-05
-4.63744e-05
4.39983e-05
-6.10013e-05
4.56688e-05
-7.59696e-05
4.5556e-05
-9.0912e-05
4.40794e-05
-0.000105552
4.16191e-05
-0.000119692
3.8526e-05
-0.000133207
3.51278e-05
-0.000146038
3.17339e-05
-0.000158189
2.86352e-05
-0.000169727
2.61018e-05
-0.000180779
2.4378e-05
-0.000191529
2.36747e-05
-0.000202209
2.41601e-05
-0.000213095
2.59505e-05
-0.000224491
2.91199e-05
3.37198e-05
-0.000236721
-2.92612e-06
1.22383e-05
-1.01783e-05
3.05735e-05
-2.05535e-05
4.37525e-05
-3.30789e-05
5.26016e-05
-4.69728e-05
5.78923e-05
-6.16109e-05
6.03069e-05
-7.64968e-05
6.0442e-05
-9.12391e-05
5.88217e-05
-0.000105533
5.5913e-05
-0.000119148
5.2141e-05
-0.000131921
4.79011e-05
-0.000143754
4.35667e-05
-0.000154612
3.94934e-05
-0.000164529
3.60182e-05
-0.000173606
3.34549e-05
-0.000182017
3.20856e-05
-0.000190004
3.21474e-05
-0.000197872
3.38192e-05
-0.00020598
3.72276e-05
4.24646e-05
-0.000214725
-2.99012e-06
1.52284e-05
-1.03454e-05
3.79288e-05
-2.08113e-05
5.42184e-05
-3.33833e-05
6.51736e-05
-4.72581e-05
7.1767e-05
-6.17937e-05
7.48425e-05
-7.64761e-05
7.51243e-05
-9.08918e-05
7.32374e-05
-0.000104708
6.97296e-05
-0.000117661
6.50936e-05
-0.000129545
5.97849e-05
-0.000140214
5.42359e-05
-0.000149584
4.8864e-05
-0.000157642
4.40754e-05
-0.000164449
4.02618e-05
-0.000170155
3.77918e-05
-0.000175002
3.69948e-05
-0.000179324
3.81415e-05
-0.000183542
4.14449e-05
4.70715e-05
-0.000188149
-3.03328e-06
1.82617e-05
-1.04333e-05
4.53287e-05
-2.08995e-05
6.46846e-05
-3.34017e-05
7.76758e-05
-4.71207e-05
8.54861e-05
-6.14031e-05
8.91249e-05
-7.57223e-05
8.94435e-05
-8.96483e-05
8.71634e-05
-0.000102825
8.29062e-05
-0.000114954
7.72228e-05
-0.000125789
7.06193e-05
-0.00013513
6.35771e-05
-0.000142835
5.65687e-05
-0.000148825
5.00663e-05
-0.000153107
4.45439e-05
-0.000155787
4.04709e-05
-0.000157086
3.82945e-05
-0.00015736
3.84146e-05
-0.000157093
4.11787e-05
4.68815e-05
-0.000156903
-3.04803e-06
2.13097e-05
-1.04154e-05
5.26962e-05
-2.07629e-05
7.50321e-05
-3.3041e-05
8.99539e-05
-4.64213e-05
9.88664e-05
-6.02453e-05
0.000102949
-7.39813e-05
0.00010318
-8.71901e-05
0.000100372
-9.94989e-05
9.5215e-05
-0.000110583
8.83071e-05
-0.000120156
8.01925e-05
-0.000127968
7.13884e-05
-0.000133808
6.2409e-05
-0.000137525
5.37829e-05
-0.000139044
4.60636e-05
-0.000138403
3.98297e-05
-0.000135779
3.56699e-05
-0.00013152
3.41565e-05
-0.000126178
3.5836e-05
4.12141e-05
-0.00012051
-3.02617e-06
2.43359e-05
-1.02629e-05
5.99329e-05
-2.03396e-05
8.51088e-05
-3.21937e-05
0.000101808
-4.4993e-05
0.000111666
-5.80805e-05
0.000116036
-7.09266e-05
0.000116026
-8.30918e-05
0.000112537
-9.4197e-05
0.00010632
-0.000103902
9.8012e-05
-0.000111891
8.81818e-05
-0.000117869
7.73661e-05
-0.000121562
6.61026e-05
-0.000122738
5.49582e-05
-0.000121226
4.45517e-05
-0.000116964
3.55676e-05
-0.000110046
2.8752e-05
-0.000100782
2.48925e-05
-8.9759e-05
2.48133e-05
2.93516e-05
-7.78964e-05
-2.95969e-06
2.72956e-05
-9.94637e-06
6.69195e-05
-1.9565e-05
9.47274e-05
-3.07435e-05
0.000112986
-4.26496e-05
0.000123572
-5.46313e-05
0.000128018
-6.61672e-05
0.000127562
-7.68257e-05
0.000123196
-8.62324e-05
0.000115727
-9.40459e-05
0.000105826
-9.99389e-05
9.40747e-05
-0.000103588
8.10149e-05
-0.000104671
6.71861e-05
-0.00010288
5.31676e-05
-9.79459e-05
3.96171e-05
-8.96826e-05
2.73043e-05
-7.80601e-05
1.71295e-05
-6.32927e-05
1.01251e-05
-4.59571e-05
7.47763e-06
1.05189e-05
-2.71244e-05
-2.84194e-06
3.01375e-05
-9.43988e-06
7.35175e-05
-1.83784e-05
0.000103666
-2.8576e-05
0.000123184
-3.91995e-05
0.000134195
-4.96015e-05
0.00013842
-5.92699e-05
0.00013723
-6.77855e-05
0.000131711
-7.47881e-05
0.00012273
-7.99497e-05
0.000110987
-8.29519e-05
9.70769e-05
-8.34705e-05
8.15335e-05
-8.11655e-05
6.4881e-05
-7.56819e-05
4.76841e-05
-6.66672e-05
3.06024e-05
-5.38125e-05
1.44497e-05
-3.69308e-05
2.47764e-07
-1.60772e-05
-1.07285e-05
8.26607e-06
-1.68656e-05
-1.61394e-05
3.49244e-05
-2.66882e-06
3.28063e-05
-8.72431e-06
7.9573e-05
-1.673e-05
0.000111672
-2.55902e-05
0.000132044
-3.44637e-05
0.000143069
-4.27009e-05
0.000146657
-4.97932e-05
0.000144322
-5.53308e-05
0.000137249
-5.89701e-05
0.000126369
-6.04058e-05
0.000112423
-5.93487e-05
9.60198e-05
-5.55048e-05
7.76896e-05
-4.8559e-05
5.79352e-05
-3.81628e-05
3.72879e-05
-2.39342e-05
1.63737e-05
-5.48037e-06
-4.00414e-06
1.75367e-05
-2.27693e-05
4.52703e-05
-3.84622e-05
7.74434e-05
-4.90387e-05
-5.15964e-05
0.0001129
-2.43976e-06
3.52461e-05
-7.79036e-06
8.49236e-05
-1.45874e-05
0.000118469
-2.17097e-05
0.000139167
-2.82943e-05
0.000149653
-3.36747e-05
0.000152038
-3.73306e-05
0.000147978
-3.88482e-05
0.000138767
-3.78905e-05
0.000125411
-3.41733e-05
0.000108706
-2.74449e-05
8.92914e-05
-1.74678e-05
6.77126e-05
-3.99844e-06
4.44658e-05
1.32342e-05
2.00553e-05
3.45489e-05
-4.94102e-06
6.03217e-05
-2.97769e-05
9.096e-05
-5.34075e-05
0.000126809
-7.43109e-05
0.000167899
-9.01292e-05
-9.70033e-05
0.000213306
-2.15805e-06
3.74041e-05
-6.63978e-06
8.94053e-05
-1.19383e-05
0.000123767
-1.68892e-05
0.000144117
-2.05874e-05
0.000153352
-2.23268e-05
0.000153777
-2.15504e-05
0.000147202
-1.78148e-05
0.000135031
-1.0765e-05
0.000118361
-1.1707e-07
9.80576e-05
1.43536e-05
7.48207e-05
3.28232e-05
4.9243e-05
5.54325e-05
2.18565e-05
8.23071e-05
-6.81926e-06
0.000113588
-3.62215e-05
0.00014947
-6.56593e-05
0.000190239
-9.41765e-05
0.000236268
-0.00012034
0.000287893
-0.000141754
-0.000153769
0.000344659
-1.8302e-06
3.92343e-05
-5.28361e-06
9.28587e-05
-8.7884e-06
0.000127272
-1.11131e-05
0.000146442
-1.12851e-05
0.000153524
-8.5289e-06
0.000151021
-2.2184e-06
0.000140891
8.15591e-06
0.000124657
2.30061e-05
0.000103511
4.26553e-05
7.84084e-05
6.73384e-05
5.01377e-05
9.71981e-05
1.93833e-05
0.00013228
-1.32258e-05
0.000172536
-4.7075e-05
0.000217837
-8.15221e-05
0.000268016
-0.000115838
0.000322941
-0.000149101
0.000382618
-0.000180018
0.00044734
-0.000206475
-0.000223741
0.000517311
-1.46424e-06
4.06986e-05
-3.7373e-06
9.51318e-05
-5.15241e-06
0.000128687
-4.38326e-06
0.000145673
-3.60275e-07
0.000149501
7.79372e-06
0.000142867
2.0811e-05
0.000127874
3.93089e-05
0.000106159
6.38036e-05
7.90165e-05
9.47107e-05
4.75013e-05
0.000132335
1.25138e-05
0.000176847
-2.51296e-05
0.000228262
-6.46403e-05
0.000286398
-0.000105211
0.000350853
-0.000145977
0.000420989
-0.000185975
0.000495966
-0.000224078
0.000574842
-0.000258894
0.000656931
-0.000288564
-0.000310105
0.000743295
-1.067e-06
4.17656e-05
-2.01279e-06
9.60775e-05
-1.03991e-06
0.000127714
3.30298e-06
0.00014133
1.22126e-05
0.000140591
2.66997e-05
0.00012838
4.76376e-05
0.000106936
7.57899e-05
7.80066e-05
0.000111821
4.2985e-05
0.000156293
3.0293e-06
0.000209647
-4.08397e-05
0.000272173
-8.76561e-05
0.000343971
-0.000136438
0.000424882
-0.000186122
0.000514401
-0.000235496
0.000611554
-0.000283129
0.000714753
-0.000327277
0.000821606
-0.000365747
0.000929046
-0.000396005
-0.000419234
0.00103818
-6.40988e-07
4.24066e-05
-1.09274e-07
9.55458e-05
3.56224e-06
0.000124043
1.19804e-05
0.000132912
2.6497e-05
0.000126074
4.82832e-05
0.000106593
7.83787e-05
7.68405e-05
0.000117718
3.86678e-05
0.000167137
-6.43416e-06
0.000227372
-5.72058e-05
0.000299044
-0.000112512
0.000382646
-0.000171257
0.000478514
-0.000232307
0.000586808
-0.000294416
0.000707452
-0.000356139
0.000840021
-0.000415698
0.000983462
-0.000470718
0.00113516
-0.000517446
0.00128774
-0.000548586
-0.000550294
0.0014188
-1.82285e-07
4.25888e-05
1.99395e-06
9.33696e-05
8.70427e-06
0.000117332
2.17392e-05
0.000119877
4.26288e-05
0.000105185
7.27211e-05
7.65012e-05
0.000113229
3.63323e-05
0.000165252
-1.33554e-05
0.000229779
-7.09604e-05
0.000307679
-0.000135106
0.000399703
-0.000204536
0.000506483
-0.000278037
0.000628568
-0.000354392
0.0007665
-0.000432348
0.000920975
-0.000510614
0.00109315
-0.000587869
0.00128518
-0.000662753
0.00150156
-0.000733828
0.00175302
-0.000800047
-0.00085968
0.00206241
3.23786e-07
4.22651e-05
4.34661e-06
8.93468e-05
1.44872e-05
0.000107192
3.27438e-05
0.00010162
6.08393e-05
7.70895e-05
0.0001003
3.70401e-05
0.000152496
-1.58634e-05
0.000218645
-7.95045e-05
0.000299805
-0.00015212
0.000396853
-0.000232154
0.000510474
-0.000318157
0.000641165
-0.000408728
0.000789266
-0.000502493
0.000955036
-0.000598118
0.00113878
-0.000694357
0.00134105
-0.00079014
0.00156297
-0.000884679
0.00180674
-0.000977591
0.00207565
-0.00106896
-0.00115195
0.00236792
8.9879e-07
4.13663e-05
7.02055e-06
8.3225e-05
2.10538e-05
9.31585e-05
4.52203e-05
7.74539e-05
8.14384e-05
4.08714e-05
0.000131395
-1.29169e-05
0.000196567
-8.10352e-05
0.000278203
-0.000161141
0.000377293
-0.00025121
0.000494527
-0.000349388
0.000630268
-0.000453898
0.000784548
-0.000563009
0.000957088
-0.000675033
0.00114735
-0.000788379
0.00135461
-0.000901614
0.00157803
-0.00101357
0.00181677
-0.00112341
0.00206993
-0.00123076
0.00233636
-0.00133539
-0.00142912
0.00261353
1.57185e-06
3.97944e-05
1.01076e-05
7.46893e-05
2.8579e-05
7.4687e-05
5.94347e-05
4.65983e-05
0.000104773
-4.46704e-06
0.000166396
-7.45394e-05
0.000245798
-0.000160437
0.000344123
-0.000259466
0.0004621
-0.000369187
0.000599989
-0.000487277
0.000757548
-0.000611458
0.000934033
-0.000739494
0.00112823
-0.000869232
0.00133853
-0.000998676
0.00156298
-0.00112607
0.00179939
-0.00124997
0.00204533
-0.00136935
0.00229814
-0.00148357
0.00255497
-0.00159221
-0.00168813
0.00281398
2.37546e-06
3.74189e-05
1.37068e-05
6.33579e-05
3.72446e-05
5.11492e-05
7.56486e-05
8.19434e-06
0.000131154
-5.99729e-05
0.000205594
-0.000148979
0.000300345
-0.000255188
0.000416251
-0.000375372
0.000553539
-0.000506475
0.000711761
-0.000645499
0.000889783
-0.000789479
0.00108582
-0.000935535
0.00129755
-0.00108096
0.00152218
-0.00122331
0.00175663
-0.00136052
0.00199765
-0.00149099
0.00224188
-0.00161358
0.00248589
-0.00172759
0.00272641
-0.00183273
-0.00192375
0.00296203
3.34133e-06
3.40776e-05
1.7911e-05
4.87882e-05
4.72106e-05
2.18496e-05
9.40678e-05
-3.86629e-05
0.000160776
-0.000126681
0.000249063
-0.000237266
0.000359998
-0.000366123
0.000493875
-0.000509249
0.000650135
-0.000662734
0.000827334
-0.000822698
0.0010232
-0.000985346
0.00123476
-0.00114709
0.0014585
-0.0013047
0.00169061
-0.00145542
0.00192717
-0.00159708
0.00216433
-0.00172816
0.00239847
-0.00184771
0.00262626
-0.00195538
0.00284482
-0.00205129
-0.00213225
0.00305332
4.49648e-06
2.95811e-05
2.27938e-05
3.04909e-05
5.85874e-05
-1.3944e-05
0.000114795
-9.48705e-05
0.00019364
-0.000205526
0.000296559
-0.000340185
0.000424056
-0.00049362
0.000575587
-0.00066078
0.000749508
-0.000836655
0.000943134
-0.00101632
0.0011529
-0.00119511
0.00137463
-0.00136882
0.00160379
-0.00153386
0.00183586
-0.00168749
0.00206654
-0.00182776
0.00229197
-0.00195359
0.00250889
-0.00206463
0.00271469
-0.00216118
0.00290744
-0.00224404
-0.00231185
0.00308704
5.86039e-06
2.37207e-05
2.83991e-05
7.95219e-06
7.14148e-05
-5.69597e-05
0.000137794
-0.000161249
0.000229508
-0.000297241
0.000347452
-0.000458129
0.000491269
-0.000637438
0.000659266
-0.000828777
0.000848455
-0.00102584
0.00105476
-0.00122262
0.00127332
-0.00141368
0.00149894
-0.00159443
0.00172643
-0.00176136
0.00195102
-0.00191208
0.00216861
-0.00204534
0.0023759
-0.00216088
0.00257052
-0.00225925
0.00275095
-0.00234161
0.00291649
-0.00240957
-0.00246325
0.00306788
7.4433e-06
1.62774e-05
3.47349e-05
-1.93394e-05
8.56477e-05
-0.000107873
0.000162865
-0.000238466
0.000267869
-0.000402245
0.000400714
-0.000590973
0.000559861
-0.000796584
0.000742183
-0.0010111
0.000943184
-0.00122684
0.00115739
-0.00143683
0.00137887
-0.00163516
0.00160177
-0.00181733
0.00182076
-0.00198035
0.00203139
-0.00212271
0.00223028
-0.00224423
0.00241517
-0.00234577
0.00258486
-0.00242894
0.00273908
-0.00249582
0.00287826
-0.00254875
-0.00258896
0.00300397
9.24573e-06
7.03169e-06
4.17704e-05
-5.18641e-05
0.00010115
-0.000167253
0.000189642
-0.000326958
0.000307949
-0.000520552
0.000454952
-0.000737976
0.000627623
-0.000969255
0.000821209
-0.00120469
0.00102969
-0.00143532
0.00124639
-0.00165354
0.0014647
-0.00185347
0.00167864
-0.00203127
0.0018833
-0.00218501
0.0020751
-0.00231451
0.00225178
-0.00242092
0.00241235
-0.00250634
0.00255684
-0.00257343
0.00268609
-0.00262507
0.00280145
-0.00266412
-0.00269256
0.00290505
1.12585e-05
-4.22681e-06
4.94361e-05
-9.00417e-05
0.000117697
-0.000235514
0.000217599
-0.00042686
0.000348732
-0.000651686
0.000508477
-0.000897721
0.000692079
-0.00115286
0.000893099
-0.00140571
0.00110416
-0.00164638
0.0013178
-0.00186717
0.00152724
-0.00206292
0.00172698
-0.00223101
0.00191306
-0.00237108
0.0020831
-0.00248455
0.0022362
-0.00257401
0.0023726
-0.00264275
0.00249343
-0.00269426
0.00260034
-0.00273198
0.00269526
-0.00275904
-0.00277784
0.00278054
1.34631e-05
-1.76899e-05
5.76243e-05
-0.000134203
0.000134977
-0.000312867
0.000246062
-0.000537944
0.000389013
-0.000794638
0.000559424
-0.00106813
0.000750688
-0.00134412
0.000954807
-0.00160982
0.00116342
-0.00185499
0.0013688
-0.00207255
0.00156462
-0.00225874
0.00174635
-0.00241274
0.00191133
-0.00253607
0.00205861
-0.00263182
0.00218855
-0.00270395
0.00230247
-0.00275667
0.00240226
-0.00279406
0.00249006
-0.00281978
0.00256804
-0.00283701
-0.00284828
0.00263848
1.58318e-05
-3.35216e-05
6.61915e-05
-0.000184563
0.000152603
-0.000399278
0.000274244
-0.000659585
0.000427468
-0.000947861
0.00060588
-0.00124654
0.000801071
-0.00153931
0.00100379
-0.00181254
0.00120521
-0.00205641
0.00139795
-0.00226529
0.00157664
-0.00243743
0.00173813
-0.00257422
0.0018812
-0.00267915
0.00200625
-0.00275687
0.00211471
-0.00281241
0.00220867
-0.00285063
0.00229046
-0.00287585
0.00236238
-0.00289171
0.00242657
-0.0029012
-0.00290677
0.00248506
1.83277e-05
-5.18494e-05
7.49612e-05
-0.000241196
0.000170124
-0.000494441
0.000301283
-0.000790744
0.000462737
-0.00110931
0.000646046
-0.00142985
0.000841218
-0.00173448
0.00103823
-0.00200955
0.00122838
-0.00224656
0.00140517
-0.00244209
0.00156463
-0.00259689
0.0017051
-0.00271469
0.00182678
-0.00280083
0.00193118
-0.00286127
0.00202053
-0.00290176
0.00209734
-0.00292744
0.00216408
-0.00294258
0.00222298
-0.0029506
0.00227596
-0.00295418
-0.00295555
0.00232474
2.09054e-05
-7.27547e-05
8.37285e-05
-0.000304019
0.000187045
-0.000597758
0.000326286
-0.000929985
0.000493523
-0.00127655
0.000678372
-0.0016147
0.000869653
-0.00192576
0.00105714
-0.00219704
0.00123284
-0.00242227
0.0013916
-0.00260084
0.00153098
-0.00273627
0.00165082
-0.00283453
0.00175255
-0.00290255
0.00183847
-0.00294719
0.00191128
-0.00297457
0.00197363
-0.00298979
0.00202789
-0.00299685
0.00207609
-0.0029988
0.00211986
-0.00299795
-0.00299624
0.00216056
2.35109e-05
-9.62656e-05
9.22665e-05
-0.000372775
0.000202849
-0.00070834
0.000348386
-0.00107552
0.00051868
-0.00144685
0.000701676
-0.0017977
0.000885524
-0.00210961
0.00106039
-0.00237191
0.00121948
-0.00258136
0.0013592
-0.00274056
0.0014787
-0.00285578
0.00157913
-0.00293497
0.00166283
-0.00298624
0.00173261
-0.00301697
0.00179133
-0.00303329
0.00184155
-0.00304001
0.00188545
-0.00304074
0.00192473
-0.00303809
0.00196074
-0.00303396
-0.00303
0.00199449
2.60835e-05
-0.000122349
0.000100335
-0.000447027
0.000217023
-0.000825028
0.000366796
-0.0012253
0.000537298
-0.00161735
0.000715217
-0.00197562
0.000888615
-0.00228301
0.00104859
-0.00253188
0.00118985
-0.00272262
0.00131047
-0.00286118
0.00141104
-0.00295635
0.00149373
-0.00301766
0.00156149
-0.003054
0.00161735
-0.00307284
0.00166412
-0.00308006
0.00170415
-0.00308004
0.00173929
-0.00307588
0.00177096
-0.00306976
0.00180021
-0.00306321
-0.00305758
0.00182779
2.85576e-05
-0.000150907
0.000107693
-0.000526162
0.00022909
-0.000946425
0.000380861
-0.00137707
0.000548751
-0.00178524
0.00071871
-0.00214558
0.000879281
-0.00244358
0.0010229
-0.00267549
0.00114596
-0.00284569
0.00124811
-0.00296332
0.00133113
-0.00303937
0.00139794
-0.00308447
0.00145178
-0.00310784
0.0014957
-0.00311676
0.00153229
-0.00311665
0.0015636
-0.00311134
0.00159117
-0.00310345
0.00161615
-0.00309473
0.00163932
-0.00308638
-0.00307949
0.00166123
3.08654e-05
-0.000181772
0.000114107
-0.000609403
0.000238636
-0.00107095
0.000390095
-0.00152852
0.000552725
-0.00194787
0.000712297
-0.00230515
0.000858335
-0.00258962
0.000984879
-0.00280204
0.00109002
-0.00295083
0.00117477
-0.00304808
0.00124184
-0.00310643
0.00129459
-0.00313722
0.00133633
-0.00314959
0.00136995
-0.00315038
0.00139775
-0.00314444
0.00142144
-0.00313504
0.0014423
-0.00312431
0.00146119
-0.00311362
0.00147872
-0.00310392
-0.00309605
0.00149528
3.29403e-05
0.000119369
0.00024533
0.000394203
0.000549206
0.000696483
0.000826918
0.000936276
0.00102422
0.00109289
0.00114563
0.00118599
0.00121718
0.00124182
0.00126186
0.00127875
0.00129346
0.00130667
0.00131884
0.00133023
3.30774e-05
0.00018079
0.000119917
0.000608159
0.00024652
0.00107056
0.00039618
0.00152959
0.000552009
0.00195059
0.00070006
0.00230941
0.000831163
0.00259515
0.000941063
0.00280852
0.00102943
0.00295797
0.00109843
0.00305564
0.00115142
0.00311426
0.00119198
0.00314521
0.00122333
0.00315768
0.0012481
0.00315855
0.00126826
0.00315268
0.00128524
0.00314334
0.00130003
0.00313267
0.0013133
0.00312206
0.00132551
0.00311242
0.00310462
0.00133692
3.09861e-05
0.000149804
0.00011461
0.000524535
0.000239761
0.000945408
0.000392014
0.00137734
0.00055551
0.00178709
0.000715928
0.00214899
0.000862721
0.00244836
0.000989899
0.00268134
0.00109555
0.00285232
0.00118069
0.00297049
0.00124807
0.00304689
0.00130107
0.00309222
0.00134301
0.00311574
0.0013768
0.00312476
0.00140473
0.00312475
0.00142855
0.00311952
0.0014495
0.00311172
0.00146847
0.00310308
0.00148607
0.00309482
0.00308802
0.00150267
2.8661e-05
0.000121143
0.000108144
0.000445052
0.000230133
0.000823419
0.000382689
0.00122478
0.000551474
0.00161831
0.000722341
0.00197813
0.000883757
0.00228694
0.00102811
0.00253699
0.00115178
0.00272865
0.00125441
0.00286786
0.00133781
0.00296348
0.00140493
0.0030251
0.00145901
0.00306165
0.00150314
0.00308064
0.0015399
0.00308798
0.00157136
0.00308807
0.00159906
0.00308401
0.00162415
0.003078
0.00164741
0.00307156
0.00306603
0.00166939
2.61696e-05
9.49731e-05
0.000100732
0.00037049
0.00021797
0.00070618
0.000368505
0.00107425
0.000539913
0.0014469
0.000718791
0.00179925
0.000893118
0.00211262
0.00105393
0.00237619
0.00119591
0.00258667
0.00131712
0.00274665
0.00141816
0.00286244
0.00150123
0.00294203
0.00156929
0.00299359
0.00162541
0.00302452
0.0016724
0.003041
0.00171261
0.00304786
0.00174792
0.00304871
0.00177973
0.00304619
0.0018091
0.00304219
0.00303835
0.00183678
2.358e-05
7.1393e-05
9.26057e-05
0.000301465
0.000203689
0.000595097
0.00034995
0.000927985
0.000521142
0.00127571
0.000705129
0.00161526
0.000889979
0.00192777
0.00106579
0.00220038
0.00122571
0.00242674
0.00136614
0.00260623
0.00148623
0.00274235
0.00158714
0.00284112
0.00167121
0.00290951
0.00174131
0.00295442
0.0018003
0.00298201
0.00185076
0.0029974
0.00189486
0.00300461
0.00193433
0.00300672
0.00197049
0.00300603
0.00300446
0.00200438
2.09581e-05
5.0435e-05
8.4009e-05
0.000238414
0.000187771
0.000491335
0.000327683
0.000788072
0.000495788
0.0011076
0.000681639
0.00142941
0.000873977
0.00173543
0.0010625
0.00201186
0.00123916
0.00225008
0.00139876
0.00244663
0.00153885
0.00260226
0.00165929
0.00272068
0.0017615
0.0028073
0.00184783
0.00286809
0.00192098
0.00290886
0.00198362
0.00293476
0.00203814
0.00295009
0.00208657
0.0029583
0.00213054
0.00296205
0.00296359
0.00217141
1.83643e-05
3.20707e-05
7.5182e-05
0.000181596
0.000170728
0.000395789
0.000302494
0.000656307
0.000464766
0.000945329
0.000649063
0.00124511
0.000845324
0.00153917
0.00104345
0.00181373
0.00123467
0.00205886
0.00141245
0.00226885
0.00157277
0.00244194
0.00171397
0.00257948
0.00183627
0.00268499
0.00194119
0.00276317
0.00203098
0.00281907
0.00210816
0.00285758
0.00217521
0.00288304
0.0022344
0.00289912
0.00228763
0.00290882
0.00291459
0.00233664
1.58522e-05
1.62185e-05
6.63509e-05
0.000131097
0.000153079
0.000309061
0.000275251
0.000534135
0.000429226
0.000791354
0.000608586
0.00106575
0.000804869
0.00134289
0.00100876
0.00160984
0.00121135
0.00185627
0.0014052
0.002075
0.00158492
0.00226222
0.00174731
0.00241709
0.00189116
0.00254114
0.00201686
0.00263747
0.00212588
0.00271005
0.00222031
0.00276314
0.00230251
0.00280084
0.0023748
0.00282684
0.0024393
0.00284431
0.00285581
0.00249808
1.34665e-05
2.75203e-06
5.77192e-05
8.68446e-05
0.000135318
0.000231462
0.000246848
0.000422605
0.000390468
0.000647734
0.000561763
0.000894457
0.000754094
0.00115055
0.000959404
0.00140453
0.00116926
0.00164641
0.00137588
0.00186838
0.00157288
0.00206522
0.00175569
0.00223428
0.00192164
0.0023752
0.00206974
0.00248936
0.0022004
0.0025794
0.00231493
0.00264861
0.00241525
0.00270052
0.00250352
0.00273857
0.0025819
0.00276593
0.002785
0.0026527
1.12429e-05
-8.49091e-06
4.94609e-05
4.86266e-05
0.000117892
0.000163031
0.000218147
0.00032235
0.000349854
0.000516027
0.0005104
0.00073391
0.000695013
0.000965941
0.000897214
0.00120233
0.00110957
0.00143406
0.00132454
0.0016534
0.00153531
0.00185445
0.00173631
0.00203329
0.00192354
0.00218797
0.00209462
0.00231828
0.00224863
0.00242539
0.00238583
0.00251141
0.00250735
0.002579
0.00261486
0.00263106
0.0027103
0.00267049
0.00269926
0.00279604
9.20793e-06
-1.76988e-05
4.17169e-05
1.61177e-05
0.000101186
0.000103563
0.000189935
0.000233601
0.00030871
0.000397251
0.000456415
0.000586206
0.000630018
0.000792337
0.000824743
0.00100761
0.00103452
0.00122428
0.00125262
0.0014353
0.00147238
0.0016347
0.00168774
0.00181792
0.00189376
0.00198194
0.00208681
0.00212523
0.00226463
0.00224757
0.00242621
0.00234983
0.0025716
0.00243362
0.00270162
0.00250104
0.00281767
0.00255444
0.00259506
0.00292187
7.37911e-06
-2.50779e-05
3.45934e-05
-1.10966e-05
8.55097e-05
5.26464e-05
0.000162883
0.000156228
0.000268246
0.000291888
0.000401683
0.000452769
0.000561664
0.000632356
0.000745054
0.000824219
0.000947322
0.00102201
0.00116295
0.00121967
0.00138595
0.0014117
0.00161041
0.00159347
0.00183094
0.00176141
0.00204305
0.00191312
0.00224332
0.0020473
0.00242948
0.00216367
0.0026003
0.00226279
0.00275553
0.00234581
0.0028956
0.00241437
0.00246856
0.0030221
5.76572e-06
-3.08437e-05
2.81616e-05
-3.34924e-05
7.10936e-05
9.71433e-06
0.000137526
8.97951e-05
0.000229489
0.000199926
0.00034791
0.000334347
0.000492453
0.000487813
0.000661423
0.00065525
0.000851815
0.00083162
0.00105951
0.00101197
0.00127963
0.00119158
0.00150689
0.00136621
0.00173607
0.00153223
0.00196234
0.00168685
0.00218154
0.0018281
0.00239036
0.00195485
0.00258639
0.00206677
0.00276811
0.0021641
0.0029348
0.00224768
0.00231614
0.00308722
4.36885e-06
-3.52125e-05
2.2458e-05
-5.15815e-05
5.80847e-05
-2.59124e-05
0.000114251
3.36283e-05
0.00019324
0.000120937
0.000296525
0.000231062
0.000424634
0.000359704
0.000577031
0.000502853
0.000752064
0.000656586
0.000947028
0.000817003
0.00115833
0.000980283
0.00138173
0.0011428
0.00161267
0.00130129
0.00184656
0.00145296
0.00207905
0.00159561
0.00230624
0.00172766
0.00252485
0.00184816
0.00273223
0.00195672
0.00292643
0.00205348
0.00213521
0.00310736
3.18167e-06
-3.83942e-05
1.74855e-05
-6.58853e-05
4.65489e-05
-5.49758e-05
9.32878e-05
-1.31105e-05
0.000160053
5.41716e-05
0.000248611
0.000142504
0.000360054
0.000248262
0.000494687
0.000368219
0.000651953
0.000499321
0.000830398
0.000638559
0.00102773
0.000782954
0.00124093
0.0009296
0.00146647
0.00107576
0.00170047
0.00121896
0.00193897
0.0013571
0.00217809
0.00148854
0.00241414
0.0016121
0.00264378
0.00172708
0.0028641
0.00183316
0.00192504
0.00307427
2.18981e-06
-4.0584e-05
1.32159e-05
-7.69114e-05
3.64759e-05
-7.82359e-05
7.47173e-05
-5.13518e-05
0.000130229
-1.34017e-06
0.000204876
6.78575e-05
0.000300056
0.000153081
0.000416626
0.000251649
0.000554816
0.00036113
0.000714176
0.0004792
0.000893558
0.000603571
0.00109116
0.000731995
0.00130462
0.000862295
0.00153113
0.000992449
0.00176757
0.00112067
0.00201062
0.00124548
0.00225691
0.00136582
0.00250298
0.00148101
0.0027455
0.00159064
0.00168743
0.00298311
1.37243e-06
-4.19564e-05
9.59418e-06
-8.51332e-05
2.77897e-05
-9.64314e-05
5.84898e-05
-8.2052e-05
0.000103838
-4.6688e-05
0.000165659
6.03664e-06
0.000245461
7.32785e-05
0.000344396
0.000152714
0.000463197
0.000242329
0.000602124
0.000340273
0.00076093
0.000444766
0.000938858
0.000554066
0.00113468
0.000666474
0.00134676
0.000780374
0.00157312
0.000894308
0.00181153
0.00100707
0.00205955
0.0011178
0.00231448
0.00122608
0.00257345
0.00133166
0.00142616
0.00283471
7.04119e-07
-4.26606e-05
6.54596e-06
-9.0975e-05
2.0364e-05
-0.000110249
4.44514e-05
-0.000106139
8.07578e-05
-8.29944e-05
0.000130981
-4.41866e-05
0.000196599
7.66044e-06
0.000278861
7.0452e-05
0.000378755
0.000142435
0.00049697
0.000222058
0.000633866
0.00030787
0.000789469
0.000398464
0.000963487
0.000492455
0.00115537
0.000588494
0.00136436
0.00068531
0.00158963
0.0007818
0.0018303
0.000877139
0.00208548
0.000970903
0.00235401
0.00106312
0.00114666
0.00263351
1.57642e-07
-4.28182e-05
3.98711e-06
-9.48045e-05
1.40446e-05
-0.000120307
3.23825e-05
-0.000124477
6.07372e-05
-0.000111349
0.00010063
-8.40792e-05
0.000153417
-4.51267e-05
0.000220305
3.56388e-06
0.000302342
6.03988e-05
0.000400397
0.000124003
0.00051515
0.000193117
0.000647089
0.000266524
0.000796544
0.000343
0.00096376
0.000421278
0.00114903
0.000500045
0.00135288
0.000577946
0.00157644
0.000653577
0.00182191
0.000725434
0.00209268
0.000792354
0.000852117
0.00238723
-2.92842e-07
-4.25254e-05
1.83469e-06
-9.6932e-05
8.67164e-06
-0.000127144
2.20398e-05
-0.000137845
4.34615e-05
-0.000132771
7.42604e-05
-0.000114878
0.000115621
-8.64876e-05
0.000168617
-4.94321e-05
0.000234215
-5.19934e-06
0.00031327
4.49478e-05
0.000406517
9.98698e-05
0.000514576
0.000158466
0.000637979
0.000219597
0.000777246
0.000282011
0.000933047
0.000344245
0.0011065
0.000404488
0.00129977
0.000460312
0.00151733
0.000507875
0.00176997
0.000539709
0.000541041
0.00208105
-6.68219e-07
-4.18571e-05
1.75786e-08
-9.76178e-05
4.10252e-06
-0.000131229
1.31961e-05
-0.000146939
2.86191e-05
-0.000148194
5.1499e-05
-0.000137758
8.28304e-05
-0.000117819
0.000123508
-9.01097e-05
0.000174336
-5.60273e-05
0.000236024
-1.67399e-05
0.00030917
2.67231e-05
0.000394245
7.33906e-05
0.000491563
0.000122279
0.000601251
0.000172323
0.000723192
0.000222304
0.000856914
0.000270767
0.00100131
0.000315915
0.00115374
0.000355446
0.00130691
0.000386534
0.000409482
0.00143847
-9.85332e-07
-4.08718e-05
-1.5218e-06
-9.70813e-05
2.19777e-07
-0.00013297
5.66043e-06
-0.00015238
1.59412e-05
-0.000158475
3.20102e-05
-0.000153827
5.46814e-05
-0.00014049
8.46669e-05
-0.000120095
0.000122589
-9.39497e-05
0.000168976
-6.31262e-05
0.000224238
-2.85396e-05
0.000288642
8.98677e-06
0.000362257
4.86642e-05
0.000444891
8.96894e-05