/*--------------------------------*- C++ -*----------------------------------*\
  =========                 |
  \\      /  F ield         | OpenFOAM: The Open Source CFD Toolbox
   \\    /   O peration     | Website:  https://openfoam.org
    \\  /    A nd           | Version:  6.0
     \\/     M anipulation  |
\*---------------------------------------------------------------------------*/
FoamFile
{
    version     2.0;
    format      ascii;
    class       surfaceScalarField;
    location    "59";
    object      phi;
}
// * * * * * * * * * * * * * * * * * * * * * * * * * * * * * * * * * * * * * //

dimensions      [0 3 -1 0 0 0 0];

internalField   nonuniform List<scalar> 
7840
(
3.53666e-05
-0.00025725
0.000125215
-0.000807094
0.000252054
-0.00135804
0.00039675
-0.00186636
0.000541735
-0.00229835
0.000674025
-0.0026378
0.000786348
-0.00288518
0.000876497
-0.00305222
0.000945787
-0.00315571
0.000997429
-0.0032128
0.00103523
-0.00323835
0.00106277
-0.00324386
0.00108302
-0.00323756
0.00109822
-0.00322492
0.00110999
-0.00320946
0.00111941
-0.00319328
0.00112724
-0.00317767
0.00113396
-0.00316342
0.00113989
-0.00315099
-0.00314087
0.00114521
3.67524e-05
-0.000294002
0.000127472
-0.000897813
0.00025195
-0.00148252
0.000389603
-0.00200401
0.000523001
-0.00243175
0.000640489
-0.00275529
0.000736566
-0.00298126
0.000810613
-0.00312627
0.000865041
-0.00321014
0.000903601
-0.00325136
0.000930204
-0.00326495
0.000948252
-0.00326191
0.000960397
-0.0032497
0.00096855
-0.00323308
0.000974017
-0.00321492
0.000977663
-0.00319692
0.00098006
-0.00318007
0.000981584
-0.00316494
0.000982473
-0.00315188
-0.00314124
0.000982843
3.7729e-05
-0.000331731
0.000128149
-0.000988233
0.000248603
-0.00160298
0.000377558
-0.00213296
0.000498213
-0.00255241
0.0006005
-0.00285758
0.000680673
-0.00306144
0.000739512
-0.00318511
0.000780262
-0.00325089
0.000806987
-0.00327809
0.000823533
-0.0032815
0.000833031
-0.00327141
0.000837797
-0.00325447
0.00083942
-0.0032347
0.000838944
-0.00321445
0.000837041
-0.00319502
0.00083415
-0.00317718
0.000830559
-0.00316135
0.000826447
-0.00314777
-0.00313669
0.000821897
3.82607e-05
-0.000369992
0.000127206
-0.00107718
0.000242103
-0.00171787
0.000360989
-0.00225185
0.000468109
-0.00265953
0.000555126
-0.0029446
0.000619958
-0.00312627
0.000664557
-0.00322971
0.000692759
-0.00327909
0.000708745
-0.00329407
0.000716175
-0.00328893
0.000717866
-0.0032731
0.000715795
-0.00325239
0.000711261
-0.00323017
0.000705085
-0.00320827
0.000697783
-0.00318772
0.00068969
-0.00316909
0.00068103
-0.00315269
0.000671942
-0.00313868
-0.00312724
0.000662485
3.83236e-05
-0.000408316
0.00012465
-0.0011635
0.000232619
-0.00182584
0.000340351
-0.00235958
0.000433462
-0.00275264
0.000505398
-0.00301653
0.000555587
-0.00317646
0.000586919
-0.00326104
0.000603606
-0.00329578
0.000609788
-0.00330026
0.000608866
-0.00328801
0.00060332
-0.00326755
0.000594811
-0.00324389
0.000584381
-0.00321974
0.000572668
-0.00319656
0.000560062
-0.00317511
0.000546821
-0.00315584
0.000533119
-0.00313899
0.000519067
-0.00312463
-0.00311288
0.000504714
3.79058e-05
-0.000446221
0.000120529
-0.00124613
0.000220382
-0.00192569
0.000316147
-0.00245535
0.000395043
-0.00283153
0.000452273
-0.00307376
0.000488585
-0.00321277
0.000507585
-0.00328004
0.000513669
-0.00330186
0.000510831
-0.00329742
0.000502161
-0.00327934
0.000489809
-0.0032552
0.000475149
-0.00322922
0.000459006
-0.00320359
0.000441864
-0.00317941
0.000424016
-0.00315727
0.000405658
-0.00313748
0.000386928
-0.00312026
0.000367922
-0.00310563
-0.00309364
0.00034868
3.70072e-05
-0.000483229
0.000114923
-0.00132404
0.000205667
-0.00201644
0.000288899
-0.00253858
0.000353594
-0.00289623
0.000396616
-0.00311678
0.000419837
-0.00323599
0.000427367
-0.00328757
0.000423642
-0.00329813
0.000412422
-0.0032862
0.000396477
-0.00326339
0.000377639
-0.00323636
0.000357033
-0.00320862
0.0003353
-0.00318186
0.000312802
-0.00315692
0.000289752
-0.00313421
0.000266296
-0.00311403
0.000242549
-0.00309651
0.000218595
-0.00308167
-0.00306952
0.000194476
3.56382e-05
-0.000518867
0.000107943
-0.00139635
0.000188775
-0.00209727
0.000259129
-0.00260893
0.000309802
-0.0029469
0.000339194
-0.00314617
0.000350092
-0.00324689
0.000346932
-0.00328441
0.00033407
-0.00328527
0.000314987
-0.00326712
0.000292126
-0.00324053
0.000267037
-0.00321127
0.000240626
-0.00318221
0.000213387
-0.00315462
0.000185581
-0.00312911
0.000157354
-0.00310599
0.000128816
-0.00308549
0.000100059
-0.00306776
7.11652e-05
-0.00305278
-0.00304054
4.21808e-05
3.3819e-05
-0.000552686
9.97189e-05
-0.00146225
0.000170023
-0.00216757
0.000227339
-0.00266625
0.000264296
-0.00298386
0.000280673
-0.00316255
0.000279978
-0.00324619
0.00026682
-0.00327125
0.000245386
-0.00326384
0.000218851
-0.00324058
0.000189347
-0.00321103
0.000158172
-0.0031801
0.000126052
-0.00315009
9.33606e-05
-0.00312193
6.02762e-05
-0.00309603
2.68927e-05
-0.00307261
-6.71762e-06
-0.00305188
-4.04767e-05
-0.003034
-7.43015e-05
-0.00301895
-0.0030067
-0.000108134
3.15778e-05
-0.000584264
9.03959e-05
-0.00152107
0.000149725
-0.0022269
0.000194001
-0.00271053
0.00021764
-0.0030075
0.000221628
-0.00316654
0.000210022
-0.00323459
0.00018747
-0.0032487
0.000157932
-0.0032343
0.00012427
-0.00320692
8.83241e-05
-0.00317508
5.11764e-05
-0.00314295
1.34059e-05
-0.00311232
-2.47094e-05
-0.00308382
-6.30548e-05
-0.00305768
-0.000101584
-0.00303408
-0.000140258
-0.00301321
-0.000179013
-0.00299524
-0.000217758
-0.00298021
-0.00296804
-0.000256418
2.89496e-05
-0.000613213
8.01274e-05
-0.00157224
0.000128193
-0.00227497
0.000159553
-0.00274189
0.000170332
-0.00301828
0.000162554
-0.00315876
0.000140659
-0.00321269
0.00010924
-0.00321728
7.19868e-05
-0.00319705
3.14488e-05
-0.00316638
-1.07935e-05
-0.00313284
-5.38438e-05
-0.0030999
-9.7238e-05
-0.00306892
-0.00014077
-0.00304028
-0.000184374
-0.00301408
-0.000228048
-0.0029904
-0.000271785
-0.00296947
-0.000315537
-0.00295149
-0.0003592
-0.00293655
-0.00292457
-0.000402673
2.59747e-05
-0.000639188
6.90703e-05
-0.00161534
0.000105721
-0.00231162
0.000124395
-0.00276056
0.000122813
-0.0030167
0.000103872
-0.00313982
7.22579e-05
-0.00318108
3.2429e-05
-0.00317745
-1.22188e-05
-0.0031524
-5.94353e-05
-0.00311917
-0.000107874
-0.0030844
-0.000156791
-0.00305098
-0.000205811
-0.0030199
-0.000254777
-0.00299132
-0.000303659
-0.00296519
-0.000352493
-0.00294157
-0.000401309
-0.00292065
-0.000450078
-0.00290272
-0.000498684
-0.00288794
-0.00287627
-0.000546986
2.26972e-05
-0.000661885
5.73819e-05
-0.00165002
8.2589e-05
-0.00233683
8.88867e-05
-0.00276686
7.54686e-05
-0.00300328
4.59443e-05
-0.0031103
5.13158e-06
-0.00314027
-4.27073e-05
-0.00312961
-9.44802e-05
-0.00310063
-0.00014822
-0.00306543
-0.000202787
-0.00302983
-0.000257565
-0.00299621
-0.000312241
-0.00296523
-0.000366686
-0.00293687
-0.000420892
-0.00291099
-0.000474924
-0.00288754
-0.000528859
-0.00286672
-0.000582698
-0.00284888
-0.000636314
-0.00283432
-0.00282307
-0.000689508
1.91643e-05
-0.000681049
4.52162e-05
-0.00167608
5.9059e-05
-0.00235067
5.33556e-05
-0.00276116
2.86386e-05
-0.00297856
-1.09123e-05
-0.00307074
-6.04468e-05
-0.00309073
-0.000115939
-0.00307412
-0.000174604
-0.00304196
-0.000234739
-0.00300529
-0.00029539
-0.00296918
-0.000356044
-0.00293555
-0.000416433
-0.00290484
-0.000476436
-0.00287687
-0.000536047
-0.00285138
-0.00059535
-0.00282823
-0.000654468
-0.0028076
-0.000713454
-0.0027899
-0.000772179
-0.0027756
-0.00276491
-0.000830348
1.54247e-05
-0.000696474
3.27224e-05
-0.00169337
3.53722e-05
-0.00235332
1.80938e-05
-0.00274388
-1.73774e-05
-0.00294309
-6.64206e-05
-0.0030217
-0.000124232
-0.00303292
-0.000187052
-0.0030113
-0.000252396
-0.00297662
-0.00031881
-0.00293888
-0.000385506
-0.00290248
-0.000452065
-0.00286899
-0.000518251
-0.00283865
-0.000583934
-0.00281119
-0.000649083
-0.00278623
-0.000713776
-0.00276354
-0.000778175
-0.0027432
-0.000842402
-0.00272567
-0.000906337
-0.00271166
-0.00270169
-0.000969548
1.15276e-05
-0.000708002
2.00423e-05
-0.00170189
1.17498e-05
-0.00234503
-1.66371e-05
-0.00271549
-6.23142e-05
-0.00289741
-0.000120333
-0.00296368
-0.000185999
-0.00296725
-0.000255834
-0.00294147
-0.000327647
-0.0029048
-0.000400216
-0.00286631
-0.00047291
-0.00282979
-0.000545398
-0.00279651
-0.00061748
-0.00276657
-0.000689008
-0.00273966
-0.000759905
-0.00271533
-0.000830203
-0.00269324
-0.000900074
-0.00267333
-0.000969711
-0.00265603
-0.00103903
-0.00264234
-0.00263323
-0.00110749
7.52218e-06
-0.000715524
7.30941e-06
-0.00170168
-1.16071e-05
-0.00232611
-5.06046e-05
-0.00267649
-0.000105938
-0.00284208
-0.000172428
-0.00289719
-0.000245537
-0.00289415
-0.000322075
-0.00286493
-0.000400133
-0.00282675
-0.000478706
-0.00278773
-0.000557315
-0.00275118
-0.000635726
-0.00271809
-0.000713788
-0.00268851
-0.000791354
-0.00266209
-0.000868292
-0.00263839
-0.000944561
-0.00261697
-0.0010203
-0.00259759
-0.0010958
-0.00258053
-0.00117105
-0.0025671
-0.00255859
-0.00124569
3.45601e-06
-0.00071898
-5.35298e-06
-0.00169287
-3.45188e-05
-0.00229694
-8.36047e-05
-0.00262741
-0.000148044
-0.00277764
-0.000222508
-0.00282273
-0.000302646
-0.00281401
-0.000385562
-0.00278201
-0.00046961
-0.0027427
-0.00055399
-0.00270335
-0.000638372
-0.0026668
-0.000722638
-0.00263383
-0.000806717
-0.00260443
-0.000890507
-0.0025783
-0.000973859
-0.00255504
-0.00105665
-0.00253418
-0.00113899
-0.00251526
-0.00122125
-0.00249827
-0.00130365
-0.00248469
-0.00247544
-0.0013868
-6.25773e-07
-0.000718354
-1.78334e-05
-0.00167566
-5.68278e-05
-0.00225795
-0.000115462
-0.00256877
-0.000188456
-0.00270465
-0.000270398
-0.00274079
-0.000357145
-0.00272726
-0.000446083
-0.00269308
-0.000535812
-0.00265297
-0.000625723
-0.00261344
-0.000715636
-0.00257689
-0.000805567
-0.0025439
-0.000895587
-0.00251441
-0.000985729
-0.00248816
-0.00107594
-0.00246483
-0.0011661
-0.00244402
-0.00125621
-0.00242514
-0.00134662
-0.00240786
-0.0014379
-0.00239341
-0.00238056
-0.00153279
-4.68161e-06
-0.000713673
-3.00338e-05
-0.00165031
-7.8401e-05
-0.00220958
-0.000146034
-0.00250114
-0.000227035
-0.00262364
-0.000315959
-0.00265186
-0.000408881
-0.00263434
-0.000503446
-0.00259851
-0.000598476
-0.00255794
-0.00069352
-0.0025184
-0.00078853
-0.00248188
-0.000883659
-0.00244877
-0.000979159
-0.00241891
-0.00107533
-0.00239199
-0.00117244
-0.00236772
-0.0012707
-0.00234576
-0.00137022
-0.00232562
-0.00147157
-0.00230651
-0.00157701
-0.00228798
-0.00228154
-0.00167602
-8.66226e-06
-0.00070501
-4.18513e-05
-0.00161712
-9.91074e-05
-0.00215233
-0.000175187
-0.00242506
-0.000263657
-0.00253517
-0.000359077
-0.00255644
-0.000457737
-0.00253568
-0.000557516
-0.00249873
-0.000657415
-0.00245804
-0.000757095
-0.00241872
-0.000856573
-0.0023824
-0.000956049
-0.00234929
-0.00105585
-0.00231911
-0.00115644
-0.00229141
-0.00125843
-0.00226572
-0.00136268
-0.00224151
-0.00147005
-0.00221825
-0.00158093
-0.00219563
-0.00169629
-0.00217263
-0.00214215
-0.00183567
-1.25572e-05
-0.000692453
-5.32549e-05
-0.00157642
-0.000118909
-0.00208667
-0.000202889
-0.00234108
-0.000298305
-0.00243976
-0.000399751
-0.002455
-0.000503724
-0.0024317
-0.000608314
-0.00239414
-0.000712666
-0.00235369
-0.000816516
-0.00231487
-0.000919884
-0.00227903
-0.00102291
-0.00224627
-0.00112578
-0.00221623
-0.00122872
-0.00218847
-0.00133197
-0.00216248
-0.00143571
-0.00213776
-0.00154003
-0.00211393
-0.00164515
-0.00209051
-0.00175178
-0.002066
-0.00203689
-0.00185704
-1.6328e-05
-0.000676125
-6.4172e-05
-0.00152858
-0.000137723
-0.00201312
-0.00022907
-0.00224973
-0.000330931
-0.0023379
-0.000437955
-0.00234797
-0.000546841
-0.00232282
-0.000655869
-0.00228511
-0.00076431
-0.00224525
-0.000871966
-0.00220721
-0.000978875
-0.00217212
-0.00108516
-0.00213998
-0.00119098
-0.00211042
-0.00129646
-0.002083
-0.00140168
-0.00205726
-0.00150666
-0.00203279
-0.00161137
-0.00200922
-0.00171576
-0.00198611
-0.00181913
-0.00196262
-0.00193792
-0.00191811
-1.99531e-05
-0.000656172
-7.45625e-05
-0.00147397
-0.000155509
-0.00193218
-0.000253705
-0.00215154
-0.000361534
-0.00223007
-0.000473717
-0.00223579
-0.000587145
-0.00220939
-0.000700266
-0.00217199
-0.000812457
-0.00213306
-0.000923564
-0.00209611
-0.00103363
-0.00206206
-0.00114275
-0.00203086
-0.00125102
-0.00200214
-0.00135851
-0.00197551
-0.00146521
-0.00195055
-0.00157106
-0.00192694
-0.00167591
-0.00190437
-0.00177948
-0.00188254
-0.0018811
-0.001861
-0.00183931
-0.00197971
-2.34151e-05
-0.000632757
-8.43973e-05
-0.00141298
-0.000172246
-0.00184433
-0.000276792
-0.00204699
-0.000390139
-0.00211672
-0.000507092
-0.00211884
-0.000624723
-0.00209176
-0.000741637
-0.00205508
-0.000857306
-0.00201739
-0.000971619
-0.00198179
-0.00108463
-0.00194905
-0.00119641
-0.00191907
-0.00130705
-0.00189151
-0.00141656
-0.00186599
-0.00152494
-0.00184217
-0.00163211
-0.00181977
-0.00173792
-0.00179856
-0.00184213
-0.00177834
-0.00194433
-0.0017588
-0.0017397
-0.00204394
-2.67003e-05
-0.000606057
-9.36563e-05
-0.00134603
-0.00018792
-0.00175006
-0.00029834
-0.00193657
-0.00041678
-0.00199828
-0.000538138
-0.00199748
-0.000659662
-0.00197024
-0.000780097
-0.00193464
-0.000899002
-0.00189848
-0.00101631
-0.00186449
-0.00113208
-0.00183328
-0.0012464
-0.00180475
-0.00135934
-0.00177857
-0.00147092
-0.00175441
-0.00158114
-0.00173196
-0.00168993
-0.00171098
-0.00179718
-0.0016913
-0.00190276
-0.00167276
-0.00200646
-0.0016551
-0.00163817
-0.002108
-2.97982e-05
-0.000576258
-0.000102326
-0.0012735
-0.000202532
-0.00164986
-0.000318367
-0.00182073
-0.000441497
-0.00187515
-0.000566922
-0.00187205
-0.000692051
-0.00184511
-0.000815761
-0.00181093
-0.000937691
-0.00177655
-0.00105781
-0.00174437
-0.00117621
-0.00171489
-0.00129297
-0.00168799
-0.00140818
-0.00166336
-0.00152188
-0.00164071
-0.00163407
-0.00161976
-0.00174474
-0.00160031
-0.00185384
-0.00158221
-0.00196129
-0.0015653
-0.00206702
-0.00154937
-0.00153433
-0.00217086
-3.27005e-05
-0.000543558
-0.000110398
-0.0011958
-0.000216081
-0.00154417
-0.000336892
-0.00169992
-0.000464332
-0.00174771
-0.000593503
-0.00174288
-0.000721967
-0.00171664
-0.000848724
-0.00168418
-0.000973485
-0.00165179
-0.00109626
-0.00162159
-0.00121716
-0.00159399
-0.00133628
-0.00156886
-0.00145373
-0.00154591
-0.00156957
-0.00152487
-0.00168383
-0.0015055
-0.00179653
-0.00148761
-0.00190766
-0.00147107
-0.00201722
-0.00145574
-0.00212519
-0.0014414
-0.00142802
-0.0022315
-3.5401e-05
-0.000508157
-0.000117867
-0.00111334
-0.000228575
-0.00143347
-0.000353937
-0.00157456
-0.000485322
-0.00161633
-0.000617932
-0.00161027
-0.000749475
-0.0015851
-0.000879059
-0.00155459
-0.00100646
-0.00152438
-0.00113174
-0.00149632
-0.00125501
-0.00147072
-0.00137641
-0.00144746
-0.00149605
-0.00142627
-0.00161401
-0.00140691
-0.00173036
-0.00138915
-0.00184514
-0.00137283
-0.0019584
-0.00135782
-0.00207016
-0.00134398
-0.00218044
-0.00133112
-0.00131923
-0.00228923
-3.78942e-05
-0.000470263
-0.000124729
-0.0010265
-0.000240018
-0.00131818
-0.000369522
-0.00144506
-0.000504499
-0.00148135
-0.000640253
-0.00147452
-0.000774624
-0.00145073
-0.00090682
-0.0014224
-0.00103668
-0.00139452
-0.0011643
-0.0013687
-0.00128981
-0.00134521
-0.00141337
-0.0013239
-0.00153512
-0.00130453
-0.00165515
-0.00128687
-0.00177356
-0.00127074
-0.00189042
-0.00125597
-0.00200578
-0.00124245
-0.00211972
-0.00123004
-0.00223228
-0.00121856
-0.00120803
-0.00234348
-4.01757e-05
-0.000430087
-0.00013098
-0.000935698
-0.000250416
-0.00119874
-0.000383663
-0.00131181
-0.00052189
-0.00134312
-0.000660498
-0.00133591
-0.000797449
-0.00131378
-0.000932042
-0.0012878
-0.00106417
-0.00126239
-0.00119396
-0.00123892
-0.00132157
-0.0012176
-0.00144717
-0.00119829
-0.00157091
-0.00118078
-0.00169293
-0.00116486
-0.00181331
-0.00115035
-0.00193216
-0.00113712
-0.00204957
-0.00112505
-0.00216561
-0.001114
-0.00228034
-0.00110383
-0.00109456
-0.00239381
-4.22415e-05
-0.000387845
-0.000136619
-0.000841321
-0.000259773
-0.00107559
-0.000396371
-0.00117521
-0.000537514
-0.00120198
-0.000678691
-0.00119473
-0.000817976
-0.00117449
-0.000954747
-0.00115103
-0.00108895
-0.00112819
-0.00122073
-0.00110714
-0.00135027
-0.00108806
-0.00147776
-0.0010708
-0.00160337
-0.00105518
-0.00172724
-0.001041
-0.00184948
-0.00102811
-0.00197022
-0.00101639
-0.00208954
-0.00100572
-0.00220755
-0.000995997
-0.00232431
-0.000987062
-0.00097898
-0.00243989
-4.4088e-05
-0.000343757
-0.000141641
-0.000743767
-0.000268091
-0.000949139
-0.000407658
-0.00103564
-0.000551385
-0.00105825
-0.000694848
-0.00105127
-0.000836218
-0.00103312
-0.000974943
-0.00101231
-0.00111101
-0.000992123
-0.00124459
-0.000973561
-0.00137589
-0.000956755
-0.00150511
-0.000941579
-0.00163243
-0.000927858
-0.001758
-0.00091543
-0.00188195
-0.000904155
-0.00200442
-0.000893922
-0.0021255
-0.000884637
-0.00224531
-0.000876188
-0.00236393
-0.000868445
-0.000861482
-0.00248143
-4.57117e-05
-0.000298046
-0.000146045
-0.000643434
-0.000275371
-0.000819813
-0.000417527
-0.000893487
-0.000563512
-0.000912267
-0.000708979
-0.000905804
-0.000852182
-0.00088992
-0.000992632
-0.000871858
-0.00113035
-0.000854402
-0.00126554
-0.000838377
-0.00139841
-0.000823886
-0.00152917
-0.000810814
-0.00165802
-0.00079901
-0.00178512
-0.000788333
-0.00191061
-0.000778663
-0.00203463
-0.000769903
-0.00215729
-0.00076197
-0.00227872
-0.000754764
-0.00239899
-0.000748174
-0.000742276
-0.00251819
-4.71096e-05
-0.000250936
-0.000149826
-0.000540718
-0.000281613
-0.000688026
-0.000425982
-0.000749117
-0.000573901
-0.000764349
-0.000721087
-0.000758618
-0.000865869
-0.000745138
-0.00100781
-0.000729917
-0.00114696
-0.000715248
-0.00128354
-0.000701801
-0.00141777
-0.000689652
-0.00154988
-0.000678702
-0.00168007
-0.000668824
-0.00180851
-0.000659899
-0.00193534
-0.000651825
-0.00206072
-0.000644522
-0.00218477
-0.000637919
-0.00230761
-0.000631929
-0.00242932
-0.00062646
-0.000621586
-0.00255001
-4.82788e-05
-0.000202657
-0.000152982
-0.000436014
-0.000286816
-0.000554191
-0.000433026
-0.000602908
-0.000582553
-0.000614822
-0.000731174
-0.000609998
-0.000877278
-0.000599034
-0.00102047
-0.000586726
-0.00116083
-0.000574891
-0.00129858
-0.000564052
-0.00143396
-0.000554266
-0.00156721
-0.000545452
-0.00169853
-0.000537506
-0.0018281
-0.000530331
-0.00195607
-0.000523847
-0.00208261
-0.000517989
-0.00220783
-0.000512696
-0.00233186
-0.000507901
-0.00245479
-0.000503529
-0.000499645
-0.00257673
-4.92167e-05
-0.000153441
-0.000155509
-0.000329722
-0.000290978
-0.000418722
-0.000438658
-0.000455228
-0.000589471
-0.000464009
-0.00073924
-0.000460229
-0.000886403
-0.00045187
-0.0010306
-0.00044253
-0.00117193
-0.000433563
-0.00131062
-0.000425357
-0.00144694
-0.000417951
-0.00158111
-0.000411281
-0.00171334
-0.00040527
-0.00184383
-0.000399846
-0.00197273
-0.000394946
-0.0021002
-0.000390521
-0.00222637
-0.000386526
-0.00235136
-0.000382909
-0.00247528
-0.000379613
-0.000376693
-0.00259823
-4.99214e-05
-0.000103519
-0.000157405
-0.000222239
-0.000294097
-0.00028203
-0.000442876
-0.00030645
-0.000594652
-0.000312233
-0.000745281
-0.000309599
-0.000893241
-0.000303911
-0.00103819
-0.000297579
-0.00118025
-0.000291506
-0.00131966
-0.000285949
-0.00145668
-0.000280933
-0.00159154
-0.000276415
-0.00172447
-0.000272342
-0.00185565
-0.000268666
-0.00198525
-0.000265346
-0.00211342
-0.000262346
-0.00224031
-0.000259639
-0.00236603
-0.000257187
-0.00249069
-0.000254953
-0.000252976
-0.00261441
-5.03911e-05
-5.31281e-05
-0.000158667
-0.000113963
-0.000296172
-0.000144524
-0.000445681
-0.000156941
-0.000598095
-0.000159818
-0.000749297
-0.000158397
-0.000897786
-0.000155422
-0.00104324
-0.000152124
-0.00118579
-0.000148961
-0.00132567
-0.000146064
-0.00146316
-0.000143446
-0.00159849
-0.000141084
-0.00173188
-0.000138951
-0.00186352
-0.000137023
-0.00199359
-0.000135278
-0.00212224
-0.000133699
-0.00224961
-0.000132272
-0.00237582
-0.000130976
-0.00250098
-0.000129794
-0.000128745
-0.00262521
-5.06247e-05
-2.50332e-06
-0.000159293
-5.29485e-06
-0.000297201
-6.61592e-06
-0.00044707
-7.07227e-06
-0.000599801
-7.08758e-06
-0.000751286
-6.91203e-06
-0.000900036
-6.67138e-06
-0.00104574
-6.41936e-06
-0.00118853
-6.17509e-06
-0.00132865
-5.94386e-06
-0.00146637
-5.72626e-06
-0.00160193
-5.52165e-06
-0.00173555
-5.32916e-06
-0.00186742
-5.14794e-06
-0.00199773
-4.97721e-06
-0.00212661
-4.81631e-06
-0.00225422
-4.66464e-06
-0.00238067
-4.52141e-06
-0.00250608
-4.38557e-06
-4.25723e-06
-0.00263057
-5.06219e-05
4.81186e-05
-0.000159284
0.000103367
-0.000297184
0.000131284
-0.000447045
0.000142789
-0.000599768
0.000145635
-0.000751246
0.000144566
-0.00089999
0.000142073
-0.00104569
0.000139278
-0.00118847
0.000136605
-0.00132858
0.000134171
-0.0014663
0.000131988
-0.00160185
0.000130035
-0.00173547
0.000128288
-0.00186734
0.000126722
-0.00199764
0.000125319
-0.00212651
0.000124063
-0.00225412
0.000122939
-0.00238057
0.00012193
-0.00250598
0.00012102
0.000120228
-0.00263046
-5.03826e-05
9.85012e-05
-0.000158639
0.000211624
-0.000296121
0.000268766
-0.000445605
0.000292273
-0.000597997
0.000298027
-0.000749177
0.000295746
-0.000897646
0.000290541
-0.00104308
0.000284714
-0.00118561
0.000279131
-0.00132548
0.000274038
-0.00146295
0.000269458
-0.00159826
0.000265351
-0.00173164
0.000261665
-0.00186327
0.000258352
-0.00199332
0.000255374
-0.00212196
0.000252698
-0.00224932
0.000250295
-0.00237552
0.000248131
-0.00250067
0.00024617
0.000244451
-0.00262489
-4.99073e-05
0.000148408
-0.000157359
0.000319075
-0.000294012
0.00040542
-0.00044275
0.000441011
-0.000594487
0.000449764
-0.000745081
0.00044634
-0.000893006
0.000438467
-0.00103793
0.000429634
-0.00117995
0.000421159
-0.00131933
0.000413418
-0.00145632
0.000406449
-0.00159116
0.000400191
-0.00172407
0.000394568
-0.00185522
0.000389509
-0.0019848
0.000384953
-0.00211296
0.000380852
-0.00223983
0.000377164
-0.00236553
0.000373836
-0.00249018
0.000370815
0.000368154
-0.00261388
-4.91971e-05
0.000197605
-0.000155445
0.000425323
-0.000290859
0.000540834
-0.000438481
0.000588634
-0.00058924
0.000600523
-0.000738959
0.000596058
-0.000886075
0.000585583
-0.00103023
0.000573785
-0.00117151
0.000562443
-0.00131016
0.000552072
-0.00144644
0.000542726
-0.00158058
0.000534326
-0.00171278
0.000526769
-0.00184323
0.000519962
-0.0019721
0.000513824
-0.00209954
0.000508292
-0.00222569
0.000503308
-0.00235065
0.000498804
-0.00247455
0.000494709
0.000491088
-0.00259748
-4.82536e-05
0.000245859
-0.0001529
0.000529969
-0.000286663
0.000674597
-0.0004328
0.00073477
-0.000582257
0.00074998
-0.000730812
0.000744613
-0.000876855
0.000731625
-0.00101999
0.000716918
-0.00116029
0.000702746
-0.00129799
0.000689769
-0.00143332
0.000678062
-0.00156653
0.000667529
-0.0016978
0.000658043
-0.00182733
0.000649487
-0.00195526
0.000641763
-0.00208176
0.000634789
-0.00220695
0.000628496
-0.00233095
0.000622801
-0.00245385
0.000617612
0.000613004
-0.00257577
-4.70792e-05
0.000292938
-0.000149726
0.000632616
-0.000281426
0.000806297
-0.000425706
0.00087905
-0.000573538
0.000897813
-0.000720644
0.000891719
-0.000865351
0.000876333
-0.00100722
0.000858788
-0.00114631
0.000841832
-0.00128282
0.000826281
-0.00141699
0.000812235
-0.00154905
0.000799583
-0.00167918
0.000788174
-0.00180756
0.00077787
-0.00193435
0.000768552
-0.00205968
0.000760125
-0.00218369
0.000752506
-0.00230649
0.000745597
-0.00242817
0.000739291
0.000733663
-0.00254883
-4.56762e-05
0.000338615
-0.000145927
0.000732867
-0.000275151
0.00093552
-0.0004172
0.0010211
-0.000563083
0.0010437
-0.000708455
0.00103709
-0.000851569
0.00101945
-0.000991935
0.000999154
-0.00112958
0.000979473
-0.00126468
0.000961388
-0.00139748
0.000945031
-0.00152818
0.000930278
-0.00165696
0.000916957
-0.00178399
0.000904905
-0.00190943
0.000893986
-0.00203339
0.00088409
-0.00215601
0.000875123
-0.00227739
0.000866976
-0.00239762
0.00085952
0.000852831
-0.00251678
-4.40477e-05
0.000382662
-0.000141507
0.000830326
-0.000267838
0.00106185
-0.000407281
0.00116054
-0.00055089
0.0011873
-0.000694243
0.00118044
-0.000835509
0.00116071
-0.000974137
0.00113778
-0.00111011
0.00111545
-0.0012436
0.00109488
-0.00137482
0.00107625
-0.00150396
0.00105942
-0.0016312
0.0010442
-0.0017567
0.0010304
-0.00188058
0.00101787
-0.00200298
0.00100649
-0.00212401
0.000996149
-0.00224377
0.00098673
-0.00236233
0.000978087
0.000970285
-0.00247979
-4.21967e-05
0.000424859
-0.000136468
0.000924598
-0.000259487
0.00118487
-0.000395946
0.001297
-0.000536953
0.00132831
-0.000678005
0.00132149
-0.000817171
0.00129988
-0.00095383
0.00127444
-0.00108793
0.00124954
-0.0012196
0.00122656
-0.00134905
0.0012057
-0.00147645
0.00118682
-0.00160197
0.00116972
-0.00172576
0.00115418
-0.00184792
0.00114004
-0.00196858
0.00112715
-0.00208784
0.0011154
-0.00220578
0.00110467
-0.00232249
0.00109479
0.00108581
-0.00243802
-4.01268e-05
0.000464986
-0.000130814
0.00101528
-0.000250099
0.00130416
-0.000383188
0.00143009
-0.000521264
0.00146639
-0.00065973
0.00145996
-0.000796549
0.0014367
-0.000931016
0.00140891
-0.00106303
0.00138155
-0.0011927
0.00135623
-0.0013202
0.0013332
-0.0014457
0.00131232
-0.00156934
0.00129336
-0.00169126
0.0012761
-0.00181156
0.00126034
-0.00193033
0.00124592
-0.00204765
0.00123273
-0.00216362
0.00122064
-0.00227829
0.00120946
0.00119923
-0.0023917
-3.78417e-05
0.000502827
-0.000124548
0.00110199
-0.000239671
0.00141928
-0.000369
0.00155942
-0.000503809
0.0016012
-0.000639404
0.00159556
-0.000773627
0.00157092
-0.000905683
0.00154096
-0.00103541
0.00151128
-0.0011629
0.00148371
-0.00128829
0.00145859
-0.00141174
0.00143577
-0.00153337
0.001415
-0.0016533
0.00139603
-0.00177161
0.00137864
-0.00188837
0.00136268
-0.00200365
0.00134801
-0.00211751
0.0013345
-0.00222999
0.00132195
0.00131036
-0.00234112
-3.53454e-05
0.000538173
-0.000117672
0.00118432
-0.000228198
0.0015298
-0.000353369
0.00168459
-0.000484568
0.0017324
-0.000617003
0.00172799
-0.000748382
0.0017023
-0.000877812
0.00167039
-0.00100507
0.00163854
-0.0011302
0.00160884
-0.00125334
0.00158172
-0.00137461
0.00155704
-0.00149412
0.00153451
-0.00161196
0.00151387
-0.0017282
0.00149488
-0.00184288
0.00147736
-0.00195604
0.00146117
-0.00206771
0.00144617
-0.00217791
0.00143215
0.00141907
-0.00228662
-3.26426e-05
0.000570815
-0.000110192
0.00126187
-0.000215678
0.00163529
-0.000336279
0.00180519
-0.000463515
0.00185963
-0.000592494
0.00185697
-0.00072078
0.00183058
-0.000847367
0.00179698
-0.000971967
0.00176314
-0.00109459
0.00173147
-0.00121533
0.00170247
-0.00133432
0.00167602
-0.00145163
0.00165182
-0.00156733
0.00162958
-0.00168147
0.00160902
-0.00179405
0.00158994
-0.00190507
0.00157219
-0.00201453
0.00155563
-0.00212241
0.00154002
0.00152529
-0.00222863
-2.97387e-05
0.000600554
-0.000102109
0.00133424
-0.000202103
0.00173528
-0.000317711
0.0019208
-0.00044062
0.00198254
-0.000565836
0.00198219
-0.00069077
0.00195552
-0.000814295
0.00192051
-0.00093605
0.00188489
-0.001056
0.00185142
-0.00117423
0.0018207
-0.00129084
0.00179263
-0.00140589
0.00176688
-0.00151945
0.00174313
-0.0016315
0.00172108
-0.00174204
0.00170048
-0.00185101
0.00168116
-0.00195835
0.00166297
-0.00206397
0.00164564
0.00162904
-0.00216772
-2.66403e-05
0.000627194
-9.34312e-05
0.00140103
-0.00018747
0.00182932
-0.000297645
0.00203097
-0.000415844
0.00210074
-0.000536977
0.00210332
-0.000658289
0.00207683
-0.000778524
0.00204074
-0.000897238
0.00200361
-0.00101436
0.00196854
-0.00112995
0.00193629
-0.0012441
0.00190677
-0.00135687
0.00187965
-0.00146829
0.00185455
-0.00157835
0.00183114
-0.001687
0.00180912
-0.00179412
0.00178828
-0.00189957
0.00176842
-0.00200315
0.00174922
0.00173047
-0.00210458
-2.33557e-05
0.00065055
-8.41665e-05
0.00146184
-0.000171776
0.00191693
-0.00027606
0.00213526
-0.000389148
0.00221383
-0.000505857
0.00222003
-0.000623261
0.00219423
-0.000739959
0.00215744
-0.000855423
0.00211907
-0.000969536
0.00208265
-0.00108235
0.0020491
-0.00119394
0.00201837
-0.0013044
0.0019901
-0.00141374
0.00196389
-0.00152194
0.00193935
-0.00162895
0.00191612
-0.0017346
0.00189394
-0.00183866
0.00187248
-0.00194073
0.00185129
0.00182996
-0.00204022
-1.98955e-05
0.000670446
-7.43289e-05
0.00151627
-0.000155024
0.00199763
-0.000252941
0.00223318
-0.000360493
0.00232138
-0.000472414
0.00233195
-0.000585598
0.00230742
-0.000698488
0.00227033
-0.000810458
0.00223104
-0.000921351
0.00219354
-0.00103121
0.00215896
-0.00114012
0.00212728
-0.00124819
0.00209818
-0.00135549
0.00207119
-0.001462
0.00204586
-0.00156766
0.00202179
-0.00167234
0.00199861
-0.00177574
0.00197588
-0.00187721
0.00195277
0.00192844
-0.00197569
-1.62736e-05
0.000686719
-6.3939e-05
0.00156394
-0.000137227
0.00207092
-0.000228278
0.00232423
-0.000329843
0.00242295
-0.000436588
0.0024387
-0.000545213
0.00241604
-0.000653994
0.00237911
-0.0007622
0.00233925
-0.000869626
0.00230097
-0.000976309
0.00226564
-0.00108238
0.00223335
-0.00118797
0.00220377
-0.00129323
0.00217644
-0.00139824
0.00215087
-0.00150301
0.00212656
-0.00160751
0.00210312
-0.00171171
0.00208007
-0.00181489
0.00205595
0.00202727
-0.00191372
-1.25076e-05
0.000699227
-5.30262e-05
0.00160446
-0.000118408
0.0021363
-0.000202076
0.00240789
-0.000297178
0.00251805
-0.000398326
0.00253984
-0.000502021
0.00251974
-0.000606349
0.00248344
-0.000710451
0.00244335
-0.000814057
0.00240458
-0.000917186
0.00236877
-0.00101998
0.00233614
-0.00112262
0.00230641
-0.00122532
0.00227915
-0.00132834
0.00225388
-0.00143186
0.00223008
-0.00153596
0.00220722
-0.00164087
0.00218498
-0.00174728
0.00216236
0.00213233
-0.00185234
-8.6191e-06
0.000707846
-4.16313e-05
0.00163747
-9.86078e-05
0.00219327
-0.00017436
0.00248365
-0.000262497
0.00260619
-0.000357601
0.00263495
-0.000455966
0.0026181
-0.000555469
0.00258294
-0.000655103
0.00254298
-0.000754526
0.002504
-0.000853751
0.00246799
-0.000952976
0.00243537
-0.00105253
0.00240596
-0.00115286
0.00237948
-0.00125459
0.00235562
-0.00135857
0.00233405
-0.00146564
0.00231429
-0.00157621
0.00229555
-0.00169124
0.00227739
0.00227116
-0.00183007
-4.64668e-06
0.000712493
-2.98271e-05
0.00166265
-7.79094e-05
0.00224136
-0.000145201
0.00255094
-0.000225851
0.00268684
-0.00031444
0.00272354
-0.000407051
0.00271071
-0.000501325
0.00267722
-0.000596077
0.00263774
-0.000690852
0.00259878
-0.000785596
0.00256274
-0.000880459
0.00253023
-0.000975692
0.0025012
-0.00107159