/*--------------------------------*- C++ -*----------------------------------*\
  =========                 |
  \\      /  F ield         | OpenFOAM: The Open Source CFD Toolbox
   \\    /   O peration     | Website:  https://openfoam.org
    \\  /    A nd           | Version:  6.0
     \\/     M anipulation  |
\*---------------------------------------------------------------------------*/
FoamFile
{
    version     2.0;
    format      ascii;
    class       volVectorField;
    location    "59";
    object      U;
}
// * * * * * * * * * * * * * * * * * * * * * * * * * * * * * * * * * * * * * //

dimensions      [0 1 -1 0 0 0 0];

internalField   nonuniform List<vector> 
4000
(
(0.0956175 0.00740797 5.96838e-20)
(0.304158 0.0387611 -3.24693e-20)
(0.516461 0.0928787 3.82339e-20)
(0.71553 0.154673 -2.84439e-20)
(0.887605 0.214223 -1.27439e-20)
(1.02527 0.265517 3.86212e-21)
(1.12759 0.305576 -1.24907e-20)
(1.19826 0.334013 4.4882e-20)
(1.24332 0.352126 -3.73342e-20)
(1.26928 0.361973 8.76005e-21)
(1.28197 0.36571 -6.52526e-21)
(1.28603 0.365224 -4.23543e-20)
(1.28486 0.361995 4.10399e-20)
(1.28078 0.357091 1.55824e-20)
(1.2753 0.351239 -1.5496e-20)
(1.26935 0.344909 3.63047e-20)
(1.26351 0.338377 -5.57804e-22)
(1.25812 0.331838 -3.50972e-20)
(1.25341 0.325683 2.59565e-20)
(1.24958 0.319843 8.14062e-21)
(0.109675 0.0123041 -2.09195e-20)
(0.338511 0.0538571 6.06252e-20)
(0.562707 0.117016 7.00504e-20)
(0.765509 0.184955 -3.30437e-20)
(0.934501 0.247232 5.74706e-20)
(1.06456 0.298286 9.0864e-20)
(1.15723 0.336077 -5.01107e-21)
(1.21817 0.361206 -1.55573e-20)
(1.25465 0.375755 7.68318e-20)
(1.27374 0.382278 3.7418e-20)
(1.28132 0.383168 -6.75463e-21)
(1.28179 0.380372 5.56413e-20)
(1.27824 0.375322 -5.95089e-20)
(1.27264 0.368998 9.26206e-20)
(1.26624 0.362032 -1.54301e-20)
(1.25976 0.354816 4.4057e-20)
(1.25365 0.347565 7.88187e-21)
(1.24816 0.340441 3.13907e-20)
(1.24343 0.333835 -2.98831e-20)
(1.23963 0.327541 7.17532e-21)
(0.123953 0.0182905 -3.25454e-20)
(0.372243 0.0713248 7.71357e-20)
(0.606596 0.143746 5.73054e-20)
(0.811138 0.217299 -8.67707e-21)
(0.975436 0.281436 8.91993e-20)
(1.09703 0.3314 -6.66403e-20)
(1.17996 0.366294 -5.14391e-21)
(1.2317 0.387765 5.87002e-20)
(1.2605 0.398639 1.86237e-20)
(1.27371 0.401885 2.6027e-20)
(1.27711 0.400056 -3.83944e-20)
(1.2748 0.395096 9.98929e-20)
(1.26948 0.388355 1.85663e-20)
(1.26283 0.380711 -8.82519e-20)
(1.25584 0.372701 1.28605e-19)
(1.24907 0.36464 -1.51503e-19)
(1.24285 0.35669 -6.92993e-20)
(1.23737 0.348994 1.15727e-20)
(1.2327 0.341936 6.71472e-20)
(1.22899 0.335174 -1.26332e-19)
(0.138219 0.0253776 -7.31592e-20)
(0.404773 0.091054 -1.72604e-19)
(0.647408 0.172781 -1.49288e-19)
(0.851812 0.251298 -2.03073e-19)
(1.0101 0.316411 -1.15174e-19)
(1.12271 0.364505 -2.38617e-19)
(1.19613 0.395983 3.03279e-20)
(1.23938 0.413553 -1.2643e-19)
(1.26143 0.420718 -1.38795e-20)
(1.26973 0.420777 2.07707e-20)
(1.26981 0.416369 -4.55609e-20)
(1.2654 0.409384 5.68017e-20)
(1.25885 0.401068 1.01017e-19)
(1.25152 0.392185 -1.41994e-19)
(1.24421 0.383182 2.27454e-20)
(1.23733 0.374305 6.56342e-20)
(1.23114 0.36567 1.09692e-19)
(1.22576 0.357408 -9.46132e-20)
(1.22121 0.349895 -4.52277e-21)
(1.21766 0.342652 1.107e-19)
(0.152228 0.0335462 -1.37885e-19)
(0.435535 0.112869 3.78236e-19)
(0.684507 0.203773 -6.66152e-20)
(0.887061 0.286513 8.84344e-20)
(1.03832 0.351735 -8.64784e-20)
(1.14175 0.397266 2.65574e-19)
(1.2061 0.424921 -4.21015e-20)
(1.24169 0.438441 2.50502e-20)
(1.25795 0.441927 -1.2647e-20)
(1.26224 0.43892 4.10281e-20)
(1.25977 0.432076 2.65005e-20)
(1.25387 0.423196 3.34165e-20)
(1.24651 0.413403 -9.49203e-20)
(1.23883 0.403347 1.38763e-19)
(1.23141 0.393391 -1.05401e-19)
(1.22458 0.383719 1.99289e-20)
(1.21852 0.37441 -6.74166e-20)
(1.21332 0.365587 1.43506e-20)
(1.20897 0.357614 1.61602e-20)
(1.20563 0.349882 -1.50611e-19)
(0.165734 0.0427465 9.8755e-21)
(0.464004 0.136535 -1.90364e-19)
(0.717354 0.236324 1.05219e-19)
(0.916551 0.322486 -3.66776e-19)
(1.06007 0.386994 1.77665e-19)
(1.15438 0.42937 -3.04354e-19)
(1.21028 0.452897 -2.37557e-19)
(1.23911 0.462302 -9.0613e-21)
(1.25051 0.462188 -8.04745e-20)
(1.25164 0.456254 -2.50344e-19)
(1.24729 0.447119 -3.12902e-20)
(1.2404 0.436463 -2.39599e-19)
(1.23262 0.425278 4.33679e-20)
(1.22483 0.414107 -3.44514e-20)
(1.21748 0.403231 2.02053e-20)
(1.21082 0.392781 -1.60121e-19)
(1.205 0.382807 8.37139e-21)
(1.20006 0.373427 3.20253e-20)
(1.19597 0.364992 -7.40702e-20)
(1.1929 0.356767 6.45866e-20)
(0.178497 0.0528986 -7.81442e-20)
(0.489704 0.16176 3.47986e-19)
(0.745515 0.269997 2.6694e-21)
(0.940074 0.358752 -3.01208e-19)
(1.07542 0.421786 2.27555e-19)
(1.1609 0.460518 9.5591e-20)
(1.20909 0.479714 1.94052e-20)
(1.23207 0.485006 -1.60942e-19)
(1.23951 0.481408 2.6143e-19)
(1.23824 0.4727 -1.53022e-19)
(1.23261 0.461415 5.53406e-20)
(1.22516 0.449094 2.58246e-19)
(1.21725 0.436594 -2.31908e-19)
(1.20958 0.424356 2.54597e-19)
(1.20246 0.412588 -1.65086e-19)
(1.19609 0.401378 -3.23639e-20)
(1.19059 0.390748 3.90756e-20)
(1.18599 0.380819 4.92388e-20)
(1.1822 0.371923 6.77783e-20)
(1.17948 0.36321 4.07917e-20)
(0.190285 0.0638939 3.11692e-20)
(0.512223 0.18821 -3.12784e-19)
(0.768662 0.304328 5.55185e-20)
(0.957538 0.394844 7.26457e-19)
(1.08451 0.455724 -6.69845e-20)
(1.16163 0.490426 2.012e-19)
(1.20293 0.505175 1.25497e-19)
(1.22097 0.506419 2.08975e-20)
(1.22528 0.499483 -1.45265e-19)
(1.22229 0.488159 2.38066e-19)
(1.21589 0.474861 -2.76969e-20)
(1.20826 0.460976 3.60217e-19)
(1.2005 0.447233 1.38428e-19)
(1.19313 0.433973 8.65093e-20)
(1.18639 0.421344 -1.80222e-19)
(1.18042 0.409392 3.80583e-20)
(1.17532 0.39812 1.39618e-19)
(1.17111 0.387652 3.58505e-20)
(1.1677 0.378298 -1.68738e-19)
(1.16538 0.36911 -4.20383e-20)
(0.200886 0.0755974 -1.73923e-19)
(0.531217 0.215514 5.60472e-19)
(0.786572 0.338841 -3.05061e-19)
(0.96895 0.430305 -2.80717e-19)
(1.08758 0.488438 -2.44309e-19)
(1.15692 0.518824 -2.05853e-19)
(1.1922 0.529093 -2.53522e-19)
(1.20618 0.526401 3.17334e-19)
(1.20813 0.516293 -2.26017e-19)
(1.20401 0.502517 -1.81822e-20)
(1.1973 0.487337 -1.92126e-21)
(1.18981 0.471987 -4.30944e-20)
(1.18243 0.457066 -1.10586e-19)
(1.17554 0.442831 -1.22875e-19)
(1.1693 0.429371 -6.56966e-21)
(1.16382 0.416698 -2.73011e-20)
(1.1592 0.404803 -6.67599e-20)
(1.15546 0.39381 -2.03729e-20)
(1.15249 0.384007 2.29768e-20)
(1.15063 0.374367 -1.41481e-19)
(0.210112 0.0878508 3.04113e-19)
(0.546421 0.243272 3.14544e-19)
(0.799124 0.373052 -1.95249e-19)
(0.974408 0.464688 1.20322e-19)
(1.08489 0.519577 2.07554e-19)
(1.14715 0.545458 -4.27064e-20)
(1.17726 0.551281 5.11123e-20)
(1.18802 0.544804 5.71974e-20)
(1.18831 0.531708 9.49889e-20)
(1.1836 0.515645 -1.11093e-19)
(1.17696 0.498713 5.44007e-20)
(1.16991 0.48199 -3.69638e-20)
(1.16312 0.465959 1.65792e-19)
(1.15685 0.450795 7.15024e-20)
(1.15123 0.436538 -1.63877e-19)
(1.14634 0.423171 8.95533e-20)
(1.14228 0.410673 4.46524e-20)
(1.13907 0.399174 -8.04142e-20)
(1.1366 0.388937 2.18636e-19)
(1.13527 0.378878 -1.60227e-19)
(0.217801 0.100477 -2.2356e-19)
(0.557645 0.271072 -2.90144e-19)
(0.80629 0.406483 2.02981e-19)
(0.974083 0.49757 -1.87254e-19)
(1.07678 0.548809 -1.73752e-20)
(1.13269 0.570086 -2.04471e-19)
(1.15848 0.57156 1.69951e-19)
(1.1668 0.561482 3.11243e-19)
(1.16605 0.545592 -4.3282e-19)
(1.16123 0.527407 2.23295e-20)
(1.155 0.508849 1.67916e-20)
(1.14863 0.490844 -8.54768e-20)
(1.14261 0.473767 5.98013e-20)
(1.13712 0.457723 -2.47535e-20)
(1.13224 0.442709 1.62792e-19)
(1.12803 0.428678 -1.75415e-19)
(1.12461 0.415604 -5.92948e-20)
(1.12199 0.403619 1.56356e-19)
(1.12009 0.392967 -2.29595e-19)
(1.11936 0.382535 1.44947e-19)
(0.223823 0.113282 4.64006e-19)
(0.564777 0.298491 4.10116e-19)
(0.808126 0.438668 -6.89553e-20)
(0.968213 0.528547 -8.72001e-21)
(1.06357 0.575828 -2.08174e-19)
(1.11392 0.592479 8.86566e-20)
(1.13621 0.589753 4.32022e-19)
(1.14279 0.576285 -3.78996e-19)
(1.14157 0.557803 2.37576e-19)
(1.13705 0.53766 -2.06014e-20)
(1.13153 0.517599 1.43739e-19)
(1.12605 0.498402 -3.6792e-20)
(1.12098 0.480347 8.54375e-20)
(1.11641 0.463476 1.08437e-19)
(1.11238 0.447745 -6.18875e-20)
(1.10896 0.433086 7.25471e-20)
(1.10625 0.419464 -9.94067e-20)
(1.10429 0.407015 2.5521e-19)
(1.10303 0.395965 -1.56112e-19)
(1.10297 0.38521 1.11777e-19)
(0.228081 0.126064 -2.2564e-19)
(0.56778 0.325111 -4.20956e-19)
(0.80477 0.469163 -2.90595e-19)
(0.957086 0.557246 -2.04085e-20)
(1.04564 0.600348 6.89344e-20)
(1.0912 0.612427 -3.78643e-20)
(1.11077 0.605695 -2.45419e-19)
(1.11627 0.589066 -1.06245e-19)
(1.11506 0.568199 -1.92229e-19)
(1.11119 0.546263 -9.10725e-20)
(1.10664 0.524821 4.60207e-20)
(1.10225 0.504521 -2.18425e-19)
(1.09828 0.485554 -4.88524e-20)
(1.09478 0.467909 -4.69696e-20)
(1.09172 0.451507 -1.51318e-19)
(1.08918 0.436258 6.6767e-20)
(1.08725 0.422117 3.63166e-21)
(1.08602 0.40922 5.89594e-20)
(1.08547 0.397784 -2.49694e-20)
(1.08616 0.386754 -8.10186e-20)
(0.230514 0.138613 5.21426e-19)
(0.56669 0.350522 4.5387e-19)
(0.796423 0.497549 5.59803e-19)
(0.941037 0.583321 -5.82403e-20)
(1.02339 0.622113 -1.99406e-19)
(1.06492 0.629736 5.9392e-19)
(1.08249 0.619227 -2.91458e-19)
(1.08749 0.599683 3.20589e-19)
(1.08671 0.576644 -5.7776e-20)
(1.0838 0.553079 1.92783e-19)
(1.08044 0.530374 2.19634e-20)
(1.07731 0.509058 8.6583e-20)
(1.0746 0.489246 -1.90299e-20)
(1.07228 0.470882 8.33121e-20)
(1.07033 0.453855 -6.12261e-20)
(1.06876 0.438055 7.61897e-21)
(1.06771 0.423425 3.14246e-20)
(1.06727 0.410091 4.64532e-20)
(1.0675 0.398272 -3.95558e-21)
(1.06897 0.387022 1.83809e-20)
(0.231095 0.150721 -1.59688e-19)
(0.561606 0.374336 -4.46261e-19)
(0.783349 0.52344 -2.71055e-19)
(0.920435 0.606464 -4.71499e-19)
(0.997199 0.64089 5.02588e-19)
(1.03544 0.644231 -3.47827e-19)
(1.05167 0.630207 2.1809e-19)
(1.05667 0.608007 -7.77031e-20)
(1.05671 0.583011 -8.88006e-20)
(1.05501 0.557978 -6.17914e-20)
(1.05303 0.534128 3.2633e-20)
(1.05131 0.511881 3.55847e-20)
(1.04997 0.491288 2.19354e-20)
(1.04897 0.472255 -3.77266e-20)
(1.04824 0.454647 -1.69942e-20)
(1.04778 0.438335 5.75931e-20)
(1.04769 0.423243 -1.67648e-20)
(1.04812 0.409482 -5.83566e-21)
(1.04918 0.397288 7.29405e-21)
(1.05146 0.385896 1.20702e-20)
(0.229832 0.162182 6.99029e-19)
(0.552692 0.396188 3.26655e-19)
(0.765863 0.546487 3.0566e-19)
(0.895679 0.626398 -1.7916e-19)
(0.967488 0.656477 2.08308e-20)
(1.00313 0.655758 2.50712e-19)
(1.01861 0.638507 3.06693e-20)
(1.02407 0.613921 5.90282e-20)
(1.02524 0.587185 6.18687e-20)
(1.02496 0.560848 -1.74552e-21)
(1.0245 0.535972 2.23178e-20)
(1.0243 0.512876 -1.0826e-20)
(1.02446 0.49156 -1.87315e-20)
(1.02489 0.471901 -1.87491e-20)
(1.02551 0.453745 1.08204e-20)
(1.02628 0.436948 4.47391e-21)
(1.02727 0.421415 -7.57903e-21)
(1.02865 0.407228 5.32282e-22)
(1.0306 0.394663 3.10401e-20)
(1.03375 0.383227 -2.69428e-20)
(0.226769 0.172798 -4.95711e-19)
(0.540163 0.415742 -4.27116e-19)
(0.74432 0.566379 2.01137e-19)
(0.86719 0.642888 -2.44081e-19)
(0.934669 0.668702 -1.91633e-20)
(0.968362 0.664189 2.54457e-20)
(0.983618 0.644017 -3.57592e-20)
(0.989921 0.617323 -3.33472e-20)
(0.992466 0.58907 -5.17021e-20)
(0.993783 0.561596 -3.4105e-20)
(0.994956 0.535811 -2.38517e-20)
(0.996369 0.511949 1.27403e-20)
(0.99809 0.489964 2.17155e-21)
(1.00006 0.469713 2.18503e-21)
(1.00216 0.451029 6.20254e-21)
(1.00431 0.433761 -4.80446e-20)
(1.00652 0.417791 -4.40857e-20)
(1.00895 0.403144 -4.8444e-20)
(1.01193 0.390127 -5.56919e-22)
(1.0162 0.378658 7.61034e-20)
(0.221977 0.182385 4.5312e-19)
(0.524283 0.4327 1.92755e-20)
(0.719116 0.582848 -4.5709e-20)
(0.835408 0.655732 5.2847e-20)
(0.899163 0.677423 1.56592e-19)
(0.931492 0.669415 -1.18731e-19)
(0.946992 0.64665 3.09071e-20)
(0.954457 0.618135 -5.12562e-20)
(0.958589 0.588592 -7.04878e-21)
(0.961624 0.560151 -5.54302e-21)
(0.964505 0.53358 -4.17803e-20)
(0.967569 0.509033 -3.64141e-20)
(0.970894 0.486426 3.90097e-20)
(0.974446 0.4656 -1.56843e-20)
(0.978134 0.446386 -1.64862e-19)
(0.981836 0.428642 1.60631e-19)
(0.985468 0.412228 -9.80819e-20)
(0.989194 0.397039 -6.29655e-20)
(0.993593 0.383302 7.77888e-20)
(0.999465 0.371564 -9.6589e-20)
(0.215561 0.190773 -9.61008e-20)
(0.505354 0.446801 1.03508e-19)
(0.690669 0.595669 5.86059e-20)
(0.800783 0.664768 -8.73567e-20)
(0.861393 0.682528 3.39603e-20)
(0.89289 0.671355 -5.98178e-20)
(0.909034 0.646339 -1.4733e-20)
(0.917926 0.616299 1.35895e-20)
(0.923802 0.585704 -3.15467e-21)
(0.928637 0.556476 -9.9039e-20)
(0.933254 0.529249 2.24603e-20)
(0.937959 0.504099 3.98751e-21)
(0.942853 0.4809 1.19309e-19)
(0.947959 0.459471 -3.09069e-19)
(0.953242 0.439649 2.87923e-19)
(0.95858 0.421317 1.54055e-19)
(0.963836 0.404334 -3.25067e-20)
(0.969254 0.388382 2.47608e-20)
(0.975705 0.37347 2.76805e-19)
(0.983489 0.361117 -1.15268e-19)
(0.207648 0.197813 -2.77564e-20)
(0.483715 0.457823 6.66972e-20)
(0.659424 0.60466 -6.548e-20)
(0.763779 0.669872 8.63625e-20)
(0.821786 0.683934 -2.90145e-20)
(0.852923 0.669952 1.86619e-20)
(0.870052 0.643042 2.25976e-20)
(0.880585 0.611787 -6.57242e-20)
(0.888322 0.580392 6.6165e-20)
(0.895002 0.550581 4.75939e-20)
(0.901343 0.52286 2.53159e-20)
(0.907622 0.497226 3.22295e-21)
(0.913957 0.473492 1.00167e-19)
(0.920423 0.451427 -1.01755e-19)
(0.927055 0.430828 1.208e-19)
(0.933784 0.411564 -2.52454e-19)
(0.940523 0.393441 2.83369e-19)
(0.947706 0.375841 -2.43713e-19)
(0.9563 0.358509 -1.63732e-19)
(0.965202 0.344864 2.81191e-19)
(0.198391 0.203375 2.60848e-20)
(0.459729 0.465589 -1.39059e-20)
(0.625839 0.609682 -3.9842e-21)
(0.72486 0.670955 -3.80522e-20)
(0.780767 0.681587 6.69826e-21)
(0.811963 0.66517 6.15322e-21)
(0.830364 0.636733 -1.53142e-19)
(0.842711 0.604583 1.02016e-19)
(0.852396 0.572661 1.03469e-19)
(0.860948 0.542506 -1.46319e-19)
(0.868991 0.514514 1.7333e-19)
(0.876764 0.488612 -6.59871e-20)
(0.884374 0.464561 1.31462e-19)
(0.891898 0.44207 -2.09798e-19)
(0.899382 0.420851 4.37348e-19)
(0.906789 0.400654 -9.84094e-20)
(0.914142 0.381077 -2.72221e-20)
(0.922111 0.360882 2.89375e-19)
(0.931482 0.33815 -1.40723e-19)
(0.937337 0.315368 6.32153e-20)
(0.187957 0.207353 -5.28555e-20)
(0.433779 0.469961 5.5976e-20)
(0.59038 0.610636 -3.16971e-20)
(0.684495 0.667961 4.01226e-20)
(0.738762 0.675458 -2.11342e-20)
(0.770381 0.656991 -1.56928e-19)
(0.790295 0.627399 2.39862e-19)
(0.804593 0.594678 1.67656e-20)
(0.816296 0.562509 -2.59365e-20)
(0.826749 0.532264 5.02021e-21)
(0.836498 0.50425 8.03472e-20)
(0.845749 0.478356 1.38941e-19)
(0.854585 0.454337 8.32657e-20)
(0.863041 0.431915 -1.98371e-19)
(0.871102 0.410843 -5.73679e-20)
(0.878707 0.390931 -9.37712e-21)
(0.885953 0.371916 3.7739e-20)
(0.89343 0.35312 5.25271e-21)
(0.901101 0.333834 4.28025e-19)
(0.90435 0.316165 -2.98776e-19)
(0.176528 0.20966 1.46875e-19)
(0.406257 0.470839 -1.82306e-20)
(0.553518 0.607464 -1.10152e-19)
(0.643147 0.660866 3.51155e-19)
(0.696192 0.665543 7.23926e-20)
(0.728545 0.645418 -2.16566e-19)
(0.750167 0.615041 2.04139e-19)
(0.766525 0.582071 -4.72295e-20)
(0.780299 0.549932 1.82716e-19)
(0.792679 0.519841 8.45774e-20)
(0.804154 0.492029 -4.02453e-19)
(0.814919 0.466354 -4.65234e-20)
(0.82506 0.442561 5.62789e-19)
(0.834611 0.420383 -6.89544e-19)
(0.843551 0.39958 6.38062e-19)
(0.851809 0.379958 2.21651e-19)
(0.859448 0.361241 -7.87659e-19)
(0.866867 0.342862 3.81163e-19)
(0.873899 0.324512 -7.81943e-20)
(0.877074 0.30856 9.16109e-20)
(0.164296 0.210233 -2.8197e-19)
(0.377565 0.468165 -2.91775e-19)
(0.515719 0.600144 1.99436e-19)
(0.601273 0.649679 -2.53182e-19)
(0.653468 0.651862 -6.98521e-19)
(0.686817 0.63047 -2.44082e-20)
(0.710302 0.599675 -2.07963e-19)
(0.728796 0.566773 9.55338e-21)
(0.744675 0.534937 -4.12032e-19)
(0.758995 0.505247 -4.19627e-19)
(0.772199 0.47787 -2.86305e-19)
(0.784478 0.452645 -1.20118e-20)
(0.795925 0.429322 -7.08748e-19)
(0.806589 0.407651 -6.28068e-21)
(0.816472 0.387421 3.46217e-19)
(0.825541 0.368472 -3.44282e-19)
(0.83387 0.35059 -2.66084e-19)
(0.841786 0.333344 2.5633e-19)
(0.849111 0.316549 -1.83769e-19)
(0.853006 0.30208 3.55245e-20)
(0.15146 0.209034 2.29065e-19)
(0.348103 0.461918 1.77913e-19)
(0.477446 0.588694 -7.47936e-21)
(0.559318 0.63444 -1.48928e-19)
(0.610991 0.63446 3.59235e-19)
(0.64555 0.612187 5.81001e-19)
(0.671012 0.581328 -6.05562e-20)
(0.691694 0.548799 1.03686e-20)
(0.709698 0.517528 1.13209e-19)
(0.725968 0.488468 2.5925e-19)
(0.740917 0.461735 3.76515e-19)
(0.75474 0.437153 -3.05185e-19)
(0.767545 0.414478 3.01188e-19)
(0.779397 0.39347 -1.03838e-19)
(0.79032 0.373935 3.5175e-19)
(0.800312 0.355719 -1.36915e-19)
(0.809474 0.338635 -3.40714e-19)
(0.818136 0.322343 2.05034e-19)
(0.82615 0.306773 -2.92823e-19)
(0.831035 0.293506 -3.33104e-19)
(0.138222 0.206043 1.03892e-19)
(0.318269 0.452116 1.88141e-19)
(0.439148 0.573166 -1.9788e-19)
(0.517714 0.615217 8.25425e-21)
(0.569149 0.613407 3.40043e-20)
(0.605084 0.590628 2.77286e-19)
(0.6326 0.560048 -4.09709e-19)
(0.655493 0.528183 3.89512e-19)
(0.675618 0.497725 -3.77679e-20)
(0.69383 0.469512 1.06658e-19)
(0.710521 0.443616 1.72482e-19)
(0.725899 0.419853 -3.28886e-19)
(0.74009 0.397984 1.57417e-19)
(0.753184 0.377785 1.49748e-19)
(0.765231 0.359073 5.53419e-20)
(0.776259 0.341705 -2.8387e-19)
(0.786397 0.325505 9.56252e-19)
(0.795967 0.310184 -5.35689e-19)
(0.804819 0.295706 9.73587e-19)
(0.810751 0.28338 -6.3067e-20)
(0.124783 0.201265 7.60127e-20)
(0.288452 0.438808 4.46162e-19)
(0.401261 0.553646 1.59018e-19)
(0.476877 0.59211 3.30614e-19)
(0.528312 0.588797 8.66295e-20)
(0.565747 0.565875 -5.30093e-19)
(0.595356 0.5359 8.22646e-19)
(0.620453 0.504976 4.26895e-19)
(0.642678 0.475565 1.80868e-20)
(0.662806 0.4484 5.53531e-19)
(0.681223 0.423517 8.98123e-20)
(0.698148 0.400727 5.79751e-20)
(0.713732 0.379799 3.31444e-19)
(0.728088 0.360517 -1.24093e-19)
(0.741291 0.342709 -1.30784e-19)
(0.753399 0.326235 7.73657e-19)
(0.764567 0.310932 -6.46585e-19)
(0.775107 0.296547 2.49048e-20)
(0.784859 0.283063 8.19139e-19)
(0.791865 0.271553 -7.74672e-22)
(0.111342 0.194723 -9.58901e-19)
(0.259028 0.422082 -1.60798e-19)
(0.364202 0.530254 -2.18793e-19)
(0.437201 0.565247 -1.67497e-19)
(0.488833 0.560748 -4.25718e-19)
(0.527847 0.538029 1.45688e-19)
(0.559555 0.508969 -2.04474e-19)
(0.586824 0.479246 5.94475e-20)
(0.611102 0.451101 -2.96008e-19)
(0.633104 0.425171 -2.79945e-19)
(0.653212 0.401464 5.87523e-20)
(0.671661 0.379787 -4.53962e-19)
(0.688625 0.359919 3.62968e-19)
(0.704241 0.341654 -1.31258e-19)
(0.718607 0.324827 4.1135e-19)
(0.731809 0.309303 -8.87654e-19)
(0.744018 0.294924 -1.68573e-19)
(0.75553 0.281468 -3.18879e-19)
(0.766184 0.268923 -8.57075e-19)
(0.774251 0.258158 -1.38324e-19)
(0.0980928 0.186462 1.56158e-19)
(0.230356 0.402051 -1.81364e-20)
(0.328367 0.503141 -2.42129e-19)
(0.39906 0.534781 8.55894e-20)
(0.451044 0.529403 -1.73151e-19)
(0.491678 0.507217 -2.24944e-21)
(0.525455 0.479362 2.3589e-19)
(0.554836 0.451082 -3.52322e-19)
(0.581101 0.424407 1.37421e-19)
(0.604915 0.399887 -7.96006e-20)
(0.626659 0.377503 2.17203e-20)
(0.646588 0.357068 -3.94902e-19)
(0.664898 0.338367 -4.80705e-19)
(0.681746 0.321207 -1.8283e-20)
(0.697256 0.305428 5.36116e-19)
(0.711533 0.2909 2.50626e-20)
(0.72476 0.277474 6.79326e-19)
(0.737218 0.264954 -9.90483e-19)
(0.74875 0.253325 5.27059e-19)
(0.757851 0.24328 9.09187e-19)
(0.085221 0.176543 -1.37076e-19)
(0.20278 0.378864 7.35883e-20)
(0.29413 0.472487 4.79344e-19)
(0.362804 0.500896 1.18549e-19)
(0.415258 0.49493 -1.59728e-19)
(0.457513 0.473584 1.26203e-19)
(0.4933 0.447204 4.9685e-19)
(0.524708 0.420596 -4.03265e-19)
(0.552871 0.395579 3.75077e-20)
(0.578415 0.372628 -1.4739e-19)
(0.601724 0.351706 5.33178e-19)
(0.623071 0.332629 3.81233e-19)
(0.642673 0.315195 -5.52163e-20)
(0.660708 0.299221 -5.79163e-19)
(0.677318 0.284555 3.05929e-20)
(0.692629 0.271072 -7.17003e-20)
(0.706832 0.258634 3.40917e-19)
(0.720188 0.247067 5.55106e-19)
(0.732556 0.23635 4.85278e-19)
(0.742653 0.227025 -8.10981e-19)
(0.0729037 0.165047 -8.59748e-20)
(0.176621 0.352695 3.66913e-19)
(0.261839 0.438501 -3.57631e-19)
(0.328761 0.463798 4.97927e-19)
(0.381763 0.457518 -2.70666e-19)
(0.425606 0.437299 1.94384e-19)
(0.463313 0.412645 4.93652e-19)
(0.496641 0.387915 -5.94079e-19)
(0.526595 0.364731 2.70797e-19)
(0.553769 0.343497 3.43035e-19)
(0.578554 0.324163 -4.66336e-19)
(0.60124 0.306553 -3.30907e-20)
(0.622064 0.290477 -3.74655e-19)
(0.641221 0.275764 6.01113e-19)
(0.658873 0.262273 -3.26249e-19)
(0.675161 0.249885 3.50476e-19)
(0.69028 0.238472 -6.34744e-20)
(0.704475 0.227883 2.16975e-19)
(0.717628 0.218088 4.95578e-20)
(0.728669 0.209499 -1.26777e-19)
(0.0613069 0.152069 -2.63897e-19)
(0.152177 0.323743 -6.06936e-19)
(0.231817 0.401417 1.59702e-19)
(0.297229 0.423717 -5.12544e-19)
(0.350826 0.417379 -4.85782e-19)
(0.396191 0.398549 -3.49442e-19)
(0.435703 0.37585 2.72372e-19)
(0.470821 0.35319 2.09558e-19)
(0.502439 0.331997 -1.4441e-21)
(0.531128 0.312614 -1.82906e-19)
(0.557284 0.294984 -3.30281e-19)
(0.581215 0.27894 2.98049e-19)
(0.603176 0.264307 -1.0255e-19)
(0.623378 0.250927 -5.08161e-19)
(0.641998 0.23867 3.31153e-19)
(0.659193 0.227425 -2.48734e-19)
(0.675158 0.217077 -1.01441e-19)
(0.690123 0.207494 -2.84108e-19)
(0.704003 0.198639 -2.57459e-19)
(0.715926 0.190815 6.66167e-20)
(0.0505845 0.137722 2.30479e-19)
(0.129722 0.292234 1.19391e-19)
(0.204357 0.361493 1.82864e-19)
(0.268483 0.380906 -6.24344e-19)
(0.32269 0.374742 6.68806e-19)
(0.369482 0.357542 2.91345e-21)
(0.410659 0.337005 5.37679e-21)
(0.447417 0.316585 -4.08219e-19)
(0.480557 0.297528 3.81356e-19)
(0.510629 0.280119 -2.65423e-19)
(0.538038 0.264297 8.0086e-20)
(0.563107 0.24991 -3.5636e-19)
(0.586107 0.236796 -1.69743e-19)
(0.607264 0.224816 -8.11929e-20)
(0.626769 0.213848 6.1145e-19)
(0.64479 0.203793 -3.00206e-19)
(0.661523 0.19455 -2.71199e-19)
(0.677185 0.186003 2.79151e-19)
(0.691725 0.178108 -2.29333e-19)
(0.704461 0.171083 1.78836e-19)
(0.0408766 0.122132 4.90358e-19)
(0.109505 0.258415 -2.96209e-19)
(0.179724 0.31901 4.43267e-20)
(0.242769 0.335637 5.19204e-19)
(0.297571 0.329857 2.06281e-19)
(0.345669 0.3145 2.55917e-19)
(0.38835 0.296309 2.54859e-19)
(0.426582 0.278284 5.40874e-19)
(0.461086 0.26149 -1.23999e-19)
(0.492397 0.246164 2.96289e-19)
(0.520929 0.232245 4.30859e-19)
(0.547018 0.219595 1.58848e-19)
(0.570948 0.208072 2.87827e-19)
(0.592961 0.19755 1.04536e-19)
(0.613257 0.187924 6.1526e-20)
(0.632017 0.179103 -4.45572e-20)
(0.649434 0.171001 3.58038e-19)
(0.665713 0.163519 2.20968e-19)
(0.680843 0.156609 -2.00778e-19)
(0.694312 0.150421 1.89537e-19)
(0.0323087 0.105436 -3.25677e-19)
(0.0917449 0.222551 3.66732e-20)
(0.158151 0.274268 -9.41533e-20)
(0.220302 0.288201 -2.86151e-19)
(0.275662 0.28299 -1.51655e-19)
(0.324923 0.269662 -2.75814e-19)
(0.368927 0.253979 1.28292e-19)
(0.408451 0.238482 -4.96425e-19)
(0.444148 0.224065 2.93355e-19)
(0.476543 0.210917 -4.0587e-19)
(0.506055 0.198983 -2.52206e-19)
(0.533036 0.188142 -3.3407e-19)
(0.557781 0.178271 7.65674e-20)
(0.58054 0.169262 -7.557e-20)
(0.601529 0.161024 9.05142e-20)
(0.620932 0.153478 4.87918e-20)
(0.638943 0.14655 9.69872e-20)
(0.655758 0.14016 -8.11047e-19)
(0.671404 0.134259 4.03828e-19)
(0.685518 0.128943 -2.42166e-19)
(0.0249902 0.0877865 1.07706e-19)
(0.0766335 0.184927 2.17564e-19)
(0.139843 0.227584 -1.42028e-19)
(0.201271 0.238903 3.50781e-19)
(0.257127 0.234421 -5.63609e-20)
(0.307387 0.223283 4.06557e-19)
(0.35252 0.210244 7.868e-20)
(0.39314 0.19739 -8.2664e-20)
(0.429849 0.185444 3.00901e-19)
(0.463162 0.174557 2.30239e-19)
(0.493506 0.164678 8.54835e-20)
(0.521242 0.155707 1.12428e-19)
(0.546676 0.147543 5.64267e-20)
(0.570069 0.140093 -2.39732e-19)
(0.591642 0.133283 -3.34388e-20)
(0.61159 0.127047 2.5065e-19)
(0.630103 0.121325 -1.71334e-19)
(0.647368 0.116051 -7.91938e-21)
(0.663449 0.111181 -3.59415e-19)
(0.678115 0.106771 7.24409e-19)
(0.019014 0.0693415 2.88964e-19)
(0.0643317 0.145843 -3.47018e-19)
(0.124968 0.179291 1.6283e-19)
(0.185831 0.188064 -2.30488e-19)
(0.242107 0.184441 2.03414e-19)
(0.293186 0.175625 -3.5341e-19)
(0.339237 0.165344 -2.58999e-19)
(0.380748 0.155226 1.9442e-20)
(0.418278 0.14583 -3.53492e-19)
(0.452335 0.137271 -2.20778e-19)
(0.483354 0.129507 -3.82606e-19)
(0.511703 0.122458 -1.29358e-20)
(0.537696 0.116043 -1.48868e-19)
(0.561601 0.110192 3.76753e-19)
(0.583649 0.104844 2.5994e-19)
(0.604038 0.0999477 -8.72504e-20)
(0.622955 0.0954565 -7.89363e-20)
(0.640583 0.0913204 -3.53213e-21)
(0.657019 0.0874995 9.73534e-21)
(0.672134 0.0840257 1.43097e-19)
(0.0144551 0.0502694 -7.22604e-20)
(0.0549694 0.105609 -2.47544e-19)
(0.113663 0.129734 -1.54427e-19)
(0.174111 0.136013 -9.66862e-20)
(0.230713 0.133353 -2.00511e-19)
(0.282417 0.126962 3.43832e-19)
(0.329167 0.119528 -3.68133e-20)
(0.371354 0.112219 -8.28526e-20)
(0.409506 0.105435 3.35615e-21)
(0.444128 0.0992574 2.43886e-19)
(0.475658 0.0936537 -2.31871e-19)
(0.504472 0.0885663 2.26976e-19)
(0.530889 0.0839371 1.06643e-19)
(0.555184 0.0797149 -1.94561e-19)
(0.577591 0.0758557 4.25596e-20)
(0.598313 0.0723227 1.25347e-19)
(0.617537 0.0690828 4.37319e-20)
(0.63544 0.0661003 -3.02644e-20)
(0.652144 0.0633444 -2.64192e-19)
(0.667602 0.0608308 2.10478e-19)
(0.0113706 0.0307447 6.52267e-20)
(0.0486446 0.064546 7.92012e-20)
(0.106033 0.0792656 2.22707e-20)
(0.166204 0.0830908 -1.68079e-20)
(0.223029 0.0814672 4.7842e-20)
(0.275156 0.0775749 7.32453e-20)
(0.322377 0.0730507 2.77771e-20)
(0.365018 0.0686039 3.39189e-20)
(0.403589 0.0644771 -7.23319e-20)
(0.438591 0.060718 1.35516e-19)
(0.470465 0.0573078 -3.20526e-20)
(0.499591 0.054211 -2.60288e-21)
(0.526294 0.0513926 3.25947e-20)
(0.55085 0.0488213 3.67702e-20)
(0.573499 0.0464706 -9.89907e-20)
(0.594446 0.0443183 6.5074e-20)
(0.613876 0.0423442 4.2725e-20)
(0.631963 0.0405271 3.65111e-20)
(0.648848 0.0388474 7.84101e-20)
(0.664539 0.0373117 3.24947e-20)
(0.00979855 0.0109464 -1.33626e-20)
(0.0454231 0.0229832 2.77783e-20)
(0.102146 0.0282476 -3.8887e-20)
(0.162175 0.0296418 2.44458e-20)
(0.219111 0.0290999 1.43701e-20)
(0.271451 0.0277507 6.44323e-21)
(0.318909 0.0261743 1.52177e-20)
(0.36178 0.0246213 -4.36485e-20)
(0.400563 0.0231777 2.78472e-20)
(0.435757 0.0218605 9.73024e-21)
(0.467805 0.0206635 -5.87407e-22)
(0.497089 0.0195747 6.00067e-20)
(0.523936 0.0185822 -1.81986e-20)
(0.548625 0.0176754 -1.74544e-20)
(0.571396 0.016845 -1.68074e-20)
(0.592457 0.0160835 2.6053e-21)
(0.611991 0.0153841 -2.25142e-20)
(0.630172 0.0147394 4.29327e-21)
(0.647148 0.0141425 8.47558e-22)
(0.662958 0.0135952 -2.86051e-21)
(0.0097582 -0.00894374 8.49097e-21)
(0.0453377 -0.0187474 -4.51987e-20)
(0.102037 -0.022955 5.3905e-20)
(0.162055 -0.0239842 -4.05262e-20)
(0.218988 -0.02343 -1.89361e-20)
(0.271328 -0.0222212 5.67059e-20)
(0.318788 -0.0208373 4.73224e-21)
(0.361661 -0.019486 1.32674e-21)
(0.400446 -0.0182377 2.65753e-20)
(0.435642 -0.0171055 1.37562e-20)
(0.467692 -0.0160826 -1.08492e-20)
(0.496979 -0.0151575 -3.81415e-20)
(0.523827 -0.014319 3.60292e-21)
(0.548519 -0.0135571 -3.34851e-21)
(0.571292 -0.0128633 3.56541e-20)
(0.592355 -0.0122305 -2.14725e-20)
(0.611891 -0.0116525 2.9488e-20)
(0.630073 -0.0111224 -4.42164e-20)
(0.647052 -0.0106342 5.17739e-23)
(0.662865 -0.0101897 -9.32487e-21)
(0.0112495 -0.028743 -2.82161e-20)
(0.0483881 -0.060312 1.42402e-19)
(0.105705 -0.0739757 9.60094e-20)
(0.165844 -0.0774369 6.35613e-20)
(0.222658 -0.0758018 7.942e-20)
(0.274786 -0.0720505 -1.92381e-20)
(0.322012 -0.0677192 8.81131e-20)
(0.36466 -0.0634743 1.80754e-20)
(0.403238 -0.0595431 -7.84323e-21)
(0.438246 -0.0559692 -6.29615e-20)
(0.470127 -0.0527332 6.53971e-20)
(0.49926 -0.0498002 -8.8877e-20)
(0.525969 -0.0471359 6.46384e-20)
(0.550532 -0.0447097 7.41169e-20)
(0.573187 -0.0424958 9.81504e-20)
(0.594141 -0.0404722 -6.44483e-20)
(0.613576 -0.0386196 1.82744e-20)
(0.631669 -0.0369172 6.82687e-20)
(0.648559 -0.0353463 -6.45617e-20)
(0.66426 -0.0339135 4.87301e-20)
(0.014253 -0.0482697 -2.72944e-19)
(0.0545414 -0.101378 -1.37135e-19)
(0.113116 -0.124449 -1.52551e-19)
(0.17351 -0.130367 -1.20371e-20)
(0.230095 -0.127696 -8.23348e-20)
(0.281801 -0.121447 -1.00943e-19)
(0.328559 -0.114207 1.78577e-19)
(0.370756 -0.107101 9.10533e-20)
(0.40892 -0.100513 1.12333e-19)
(0.443554 -0.0945208 -1.21977e-19)
(0.475095 -0.0890916 9.04671e-20)
(0.50392 -0.0841683 1.10544e-19)
(0.530348 -0.0796936 3.90073e-20)
(0.554653 -0.0756166 -3.70592e-20)
(0.577071 -0.0718943 8.01719e-21)
(0.597804 -0.0684905 -1.59654e-20)
(0.617038 -0.0653723 -1.56972e-19)
(0.634949 -0.0625047 2.42857e-20)
(0.651662 -0.059858 1.52713e-19)
(0.667136 -0.0574472 -2.05224e-19)
(0.0187306 -0.0673448 -8.99105e-20)
(0.0637315 -0.141618 1.33101e-19)
(0.1242 -0.174015 3.08215e-20)
(0.184989 -0.182429 -5.76398e-20)
(0.241241 -0.178798 -1.6297e-19)
(0.292322 -0.170126 -3.49299e-19)
(0.338385 -0.16004 -3.32644e-19)
(0.37991 -0.150125 -2.4015e-20)
(0.417456 -0.140926 -1.93721e-19)
(0.45153 -0.132553 -2.89886e-19)
(0.482565 -0.124964 2.24963e-19)
(0.510929 -0.118079 -3.31835e-19)
(0.536938 -0.11182 6.61932e-20)
(0.560858 -0.106114 -2.10798e-20)
(0.582921 -0.100903 -6.97454e-20)
(0.603325 -0.0961361 -8.82599e-20)
(0.622256 -0.091767 1.43114e-19)
(0.639897 -0.0877463 1.14488e-19)
(0.656344 -0.0840351 1.96899e-19)
(0.671481 -0.080664 -2.94735e-19)
(0.0246252 -0.085794 4.8759e-20)
(0.0758601 -0.18071 4.73899e-19)
(0.138853 -0.222319 1.35752e-19)
(0.200185 -0.233283 3.28279e-19)
(0.256012 -0.228796 -1.22756e-19)
(0.306275 -0.217804 1.88939e-19)
(0.351423 -0.204963 -5.95428e-20)
(0.392062 -0.192312 3.83527e-19)
(0.428792 -0.180564 -1.9746e-19)
(0.462126 -0.169863 2.32752e-19)
(0.492491 -0.16016 2.02152e-19)
(0.520247 -0.151355 2.16431e-19)
(0.545701 -0.143345 -1.937e-19)
(0.569113 -0.136042 1.6643e-19)
(0.590706 -0.129369 -2.31346e-19)
(0.610673 -0.123263 -6.36877e-20)
(0.629204 -0.117663 -1.52661e-19)
(0.646485 -0.112506 -6.48552e-20)
(0.662582 -0.107746 2.57278e-19)
(0.677275 -0.103439 -4.26131e-19)
(0.0318614 -0.103449 -1.96304e-19)
(0.0907968 -0.218344 -2.27564e-20)
(0.156939 -0.269017 -7.82553e-20)
(0.218972 -0.2826 -2.75056e-19)
(0.274296 -0.277388 4.6692e-20)
(0.323561 -0.26421 -4.30956e-19)
(0.367585 -0.248725 -1.81331e-19)
(0.407132 -0.233434 -1.40548e-20)
(0.442855 -0.219215 -4.56256e-19)
(0.475276 -0.206255 -1.41784e-19)