/*--------------------------------*- C++ -*----------------------------------*\
  =========                 |
  \\      /  F ield         | OpenFOAM: The Open Source CFD Toolbox
   \\    /   O peration     | Website:  https://openfoam.org
    \\  /    A nd           | Version:  6.0
     \\/     M anipulation  |
\*---------------------------------------------------------------------------*/
FoamFile
{
    version     2.0;
    format      ascii;
    class       volScalarField;
    location    "16";
    object      p;
}
// * * * * * * * * * * * * * * * * * * * * * * * * * * * * * * * * * * * * * //

dimensions      [0 2 -2 0 0 0 0];

internalField   nonuniform List<scalar> 
4000
(
-0.279777
-0.280903
-0.281632
-0.282155
-0.282593
-0.282966
-0.28329
-0.283582
-0.283852
-0.284108
-0.284355
-0.2846
-0.284848
-0.285105
-0.285377
-0.285674
-0.286
-0.286328
-0.286643
-0.287272
-0.279923
-0.28104
-0.281762
-0.282279
-0.28271
-0.283077
-0.283394
-0.283679
-0.283941
-0.284188
-0.284427
-0.284663
-0.284901
-0.285149
-0.285411
-0.285698
-0.286015
-0.286335
-0.286639
-0.287265
-0.280212
-0.281312
-0.28202
-0.282524
-0.282943
-0.283295
-0.283599
-0.283868
-0.284114
-0.284345
-0.284566
-0.284783
-0.285002
-0.285229
-0.285471
-0.285739
-0.286038
-0.286339
-0.286625
-0.287242
-0.280641
-0.281716
-0.282404
-0.28289
-0.283288
-0.283619
-0.2839
-0.284146
-0.284368
-0.284572
-0.284765
-0.284953
-0.285142
-0.285338
-0.285548
-0.285785
-0.286055
-0.286329
-0.286586
-0.28719
-0.281207
-0.282249
-0.282911
-0.283372
-0.283743
-0.284045
-0.284296
-0.284509
-0.284696
-0.284863
-0.285018
-0.285165
-0.285311
-0.285462
-0.285628
-0.285821
-0.28605
-0.286285
-0.286503
-0.287088
-0.281904
-0.282909
-0.28354
-0.283968
-0.284305
-0.28457
-0.28478
-0.284951
-0.285093
-0.285212
-0.285315
-0.285408
-0.285497
-0.28559
-0.285696
-0.28583
-0.286003
-0.286186
-0.286353
-0.286914
-0.282729
-0.283692
-0.284286
-0.284676
-0.28497
-0.285189
-0.28535
-0.285468
-0.285554
-0.285613
-0.285651
-0.285676
-0.285692
-0.285709
-0.285737
-0.285794
-0.285895
-0.28601
-0.286112
-0.286642
-0.283679
-0.284596
-0.285147
-0.285492
-0.285736
-0.2859
-0.286002
-0.286058
-0.286075
-0.286062
-0.286022
-0.285962
-0.285889
-0.285811
-0.285742
-0.285702
-0.285708
-0.285736
-0.285757
-0.286247
-0.284751
-0.285621
-0.286124
-0.286417
-0.286602
-0.286703
-0.286737
-0.286719
-0.286658
-0.28656
-0.286428
-0.286269
-0.286088
-0.285895
-0.285706
-0.285543
-0.285431
-0.285346
-0.285266
-0.285707
-0.285948
-0.286766
-0.287216
-0.28745
-0.287569
-0.287597
-0.287555
-0.287455
-0.287306
-0.287112
-0.286877
-0.286603
-0.286297
-0.285969
-0.285635
-0.285322
-0.285059
-0.28483
-0.28462
-0.284999
-0.287274
-0.288035
-0.288426
-0.288592
-0.288637
-0.288585
-0.288458
-0.288269
-0.288025
-0.287728
-0.287379
-0.28698
-0.286535
-0.286051
-0.285547
-0.285051
-0.284601
-0.284184
-0.283802
-0.284095
-0.288734
-0.289433
-0.289755
-0.289846
-0.289808
-0.289669
-0.289451
-0.289167
-0.288822
-0.288418
-0.287952
-0.28742
-0.286824
-0.286169
-0.28547
-0.284758
-0.284074
-0.283415
-0.282798
-0.282965
-0.290338
-0.290964
-0.291209
-0.291215
-0.291085
-0.290851
-0.290535
-0.290152
-0.289706
-0.289194
-0.28861
-0.287945
-0.287194
-0.286356
-0.285441
-0.284479
-0.283511
-0.282537
-0.281595
-0.281564
-0.292095
-0.292638
-0.292794
-0.292703
-0.29247
-0.292132
-0.291713
-0.291228
-0.29068
-0.290062
-0.289363
-0.288569
-0.287666
-0.286643
-0.285499
-0.284255
-0.282951
-0.281576
-0.280181
-0.279833
-0.294018
-0.294464
-0.294517
-0.294315
-0.293967
-0.293513
-0.292983
-0.292391
-0.291739
-0.291018
-0.290211
-0.289297
-0.28825
-0.287046
-0.285668
-0.284121
-0.282429
-0.280559
-0.278542
-0.277694
-0.296121
-0.296454
-0.296387
-0.296057
-0.295577
-0.294994
-0.29434
-0.293633
-0.292873
-0.29205
-0.29114
-0.290114
-0.288934
-0.287561
-0.285954
-0.284094
-0.281977
-0.279523
-0.276695
-0.275086
-0.298423
-0.298623
-0.298415
-0.297938
-0.297304
-0.296573
-0.29578
-0.294944
-0.294067
-0.293136
-0.292122
-0.290989
-0.289688
-0.288161
-0.286342
-0.284177
-0.281626
-0.278543
-0.274744
-0.272043
-0.300945
-0.30099
-0.300618
-0.299967
-0.299157
-0.298254
-0.297299
-0.296316
-0.295307
-0.294255
-0.293132
-0.291893
-0.290478
-0.288814
-0.286807
-0.284362
-0.281388
-0.27766
-0.272742
-0.268481
-0.303713
-0.303578
-0.303015
-0.302164
-0.301148
-0.300046
-0.298904
-0.29775
-0.296587
-0.2954
-0.294158
-0.292816
-0.291307
-0.289548
-0.287422
-0.284787
-0.281472
-0.277082
-0.270737
-0.264118
-0.306763
-0.306418
-0.305633
-0.30455
-0.303299
-0.301967
-0.300611
-0.299261
-0.297923
-0.296586
-0.295224
-0.293796
-0.292251
-0.290522
-0.288522
-0.286142
-0.283215
-0.279236
-0.272911
-0.265404
-0.310134
-0.309545
-0.308505
-0.307158
-0.305639
-0.304049
-0.302452
-0.300881
-0.29935
-0.297851
-0.296368
-0.294878
-0.29336
-0.291805
-0.290236
-0.288739
-0.287514
-0.286896
-0.288211
-0.298137
-0.313877
-0.313003
-0.311671
-0.310027
-0.30821
-0.306334
-0.304472
-0.302662
-0.300921
-0.29925
-0.297642
-0.296093
-0.29461
-0.293228
-0.292033
-0.291197
-0.291026
-0.291994
-0.295142
-0.304846
-0.318046
-0.31684
-0.315178
-0.313204
-0.311061
-0.308876
-0.306729
-0.304665
-0.302704
-0.300854
-0.299118
-0.297504
-0.296039
-0.294785
-0.293851
-0.293419
-0.293769
-0.295269
-0.298441
-0.305586
-0.322702
-0.32111
-0.319077
-0.316741
-0.314247
-0.311734
-0.309289
-0.30696
-0.304772
-0.302734
-0.300856
-0.299153
-0.297661
-0.296444
-0.295604
-0.295292
-0.2957
-0.297044
-0.299553
-0.304191
-0.327906
-0.325867
-0.323422
-0.320696
-0.317828
-0.314971
-0.312217
-0.309614
-0.307186
-0.304944
-0.302894
-0.301053
-0.299453
-0.298145
-0.297207
-0.296737
-0.296841
-0.297609
-0.299127
-0.301532
-0.333717
-0.331165
-0.328266
-0.325122
-0.321863
-0.318649
-0.315574
-0.312683
-0.309995
-0.307514
-0.305242
-0.303187
-0.301368
-0.299821
-0.298591
-0.297731
-0.297285
-0.29727
-0.297714
-0.298364
-0.340187
-0.337054
-0.333659
-0.330074
-0.326407
-0.322822
-0.319411
-0.316209
-0.313224
-0.31045
-0.307877
-0.305503
-0.303335
-0.301389
-0.29969
-0.298261
-0.297111
-0.296228
-0.295622
-0.294921
-0.34736
-0.343576
-0.339649
-0.335601
-0.331509
-0.327537
-0.323766
-0.320214
-0.316873
-0.313724
-0.310746
-0.307925
-0.305261
-0.302762
-0.30044
-0.298307
-0.296365
-0.294602
-0.29302
-0.291285
-0.355267
-0.350764
-0.34627
-0.341742
-0.337209
-0.332825
-0.328653
-0.32469
-0.320909
-0.317275
-0.313761
-0.310349
-0.307039
-0.303841
-0.300771
-0.297842
-0.295063
-0.292435
-0.289958
-0.287389
-0.363922
-0.358639
-0.353549
-0.348524
-0.343528
-0.338695
-0.334063
-0.329601
-0.325264
-0.321009
-0.316808
-0.312653
-0.308554
-0.304533
-0.300617
-0.296834
-0.293203
-0.289737
-0.286436
-0.283147
-0.373319
-0.367202
-0.361495
-0.355957
-0.350467
-0.34513
-0.33995
-0.334872
-0.329836
-0.324801
-0.319753
-0.314705
-0.309689
-0.304747
-0.299922
-0.295255
-0.290775
-0.286503
-0.282435
-0.278483
-0.383426
-0.376434
-0.370095
-0.364025
-0.357997
-0.352077
-0.346233
-0.340389
-0.334485
-0.3285
-0.322448
-0.316373
-0.310338
-0.304406
-0.298639
-0.293082
-0.287771
-0.282728
-0.277938
-0.273358
-0.394184
-0.386291
-0.379309
-0.372682
-0.366054
-0.359443
-0.352786
-0.346
-0.339046
-0.331939
-0.324739
-0.31753
-0.310404
-0.303448
-0.296729
-0.290299
-0.284187
-0.27841
-0.272939
-0.267758
-0.4055
-0.396696
-0.389067
-0.381847
-0.374532
-0.36709
-0.359443
-0.351522
-0.343332
-0.334946
-0.326479
-0.318059
-0.309806
-0.301818
-0.294166
-0.286892
-0.280018
-0.27355
-0.267439
-0.261689
-0.417244
-0.407537
-0.399258
-0.391394
-0.383278
-0.374837
-0.366
-0.356743
-0.347142
-0.337346
-0.327529
-0.317858
-0.308473
-0.299472
-0.290921
-0.282848
-0.275259
-0.268145
-0.261438
-0.255157
-0.429249
-0.418663
-0.409729
-0.40115
-0.392092
-0.382459
-0.372221
-0.361436
-0.350277
-0.338974
-0.327761
-0.316834
-0.306339
-0.296368
-0.286967
-0.278147
-0.269897
-0.262188
-0.25493
-0.248167
-0.441302
-0.429881
-0.420282
-0.410897
-0.40073
-0.389696
-0.37785
-0.365369
-0.352538
-0.339675
-0.327059
-0.314904
-0.303347
-0.292462
-0.282272
-0.272765
-0.263912
-0.255663
-0.247904
-0.240712
-0.453155
-0.440957
-0.430677
-0.420372
-0.408909
-0.396263
-0.382622
-0.368311
-0.353741
-0.339306
-0.325318
-0.311989
-0.299437
-0.287708
-0.276799
-0.266672
-0.257276
-0.248544
-0.24034
-0.232779
-0.464518
-0.451617
-0.440629
-0.429271
-0.416317
-0.401859
-0.386268
-0.370043
-0.353714
-0.337738
-0.32244
-0.308015
-0.294551
-0.28206
-0.270506
-0.259828
-0.249956
-0.240804
-0.23221
-0.224344
-0.47507
-0.461549
-0.449816
-0.437259
-0.422624
-0.406182
-0.388532
-0.370356
-0.352297
-0.33485
-0.318334
-0.30291
-0.288628
-0.275462
-0.263345
-0.252191
-0.241914
-0.232404
-0.223483
-0.21538
-0.474958
-0.461437
-0.449705
-0.43715
-0.422516
-0.406077
-0.38843
-0.370257
-0.352201
-0.334757
-0.318243
-0.302822
-0.288542
-0.275378
-0.263263
-0.252111
-0.241836
-0.232328
-0.223409
-0.215307
-0.464404
-0.451503
-0.440515
-0.429158
-0.416207
-0.401752
-0.386163
-0.36994
-0.353614
-0.337641
-0.322346
-0.307923
-0.294461
-0.281972
-0.27042
-0.259745
-0.249875
-0.240724
-0.232133
-0.224269
-0.453038
-0.440841
-0.430562
-0.420257
-0.408796
-0.396152
-0.382513
-0.368206
-0.353639
-0.339206
-0.32522
-0.311893
-0.299344
-0.287618
-0.27671
-0.266585
-0.257191
-0.248462
-0.240259
-0.2327
-0.441184
-0.429763
-0.420165
-0.410781
-0.400615
-0.389583
-0.377739
-0.36526
-0.352432
-0.339571
-0.326958
-0.314805
-0.30325
-0.292367
-0.28218
-0.272676
-0.263824
-0.255577
-0.24782
-0.24063
-0.429129
-0.418544
-0.40961
-0.401032
-0.391975
-0.382344
-0.372107
-0.361325
-0.350168
-0.338868
-0.327657
-0.316732
-0.306239
-0.29627
-0.286871
-0.278054
-0.269806
-0.262099
-0.254843
-0.248082
-0.417124
-0.407416
-0.399138
-0.391274
-0.38316
-0.37472
-0.365884
-0.356629
-0.34703
-0.337236
-0.327421
-0.317753
-0.308369
-0.299371
-0.290821
-0.28275
-0.275164
-0.268052
-0.261347
-0.255069
-0.405378
-0.396575
-0.388947
-0.381727
-0.374413
-0.366972
-0.359326
-0.351406
-0.343217
-0.334833
-0.326368
-0.31795
-0.309699
-0.301713
-0.294062
-0.286791
-0.279919
-0.273453
-0.267345
-0.261597
-0.394061
-0.386169
-0.379188
-0.372562
-0.365934
-0.359323
-0.352667
-0.345882
-0.338929
-0.331824
-0.324624
-0.317417
-0.310293
-0.303338
-0.296622
-0.290193
-0.284083
-0.278309
-0.27284
-0.267662
-0.383303
-0.376312
-0.369973
-0.363903
-0.357876
-0.351956
-0.346113
-0.340269
-0.334366
-0.328381
-0.32233
-0.316257
-0.310222
-0.304292
-0.298526
-0.292972
-0.287663
-0.282622
-0.277834
-0.273257
-0.373196
-0.367079
-0.361373
-0.355835
-0.350345
-0.345008
-0.339829
-0.334751
-0.329714
-0.32468
-0.319632
-0.314585
-0.30957
-0.304628
-0.299806
-0.29514
-0.290662
-0.286392
-0.282326
-0.278377
-0.363799
-0.358516
-0.353427
-0.348403
-0.343406
-0.338573
-0.33394
-0.329479
-0.325141
-0.320886
-0.316684
-0.312529
-0.30843
-0.30441
-0.300496
-0.296714
-0.293085
-0.289621
-0.286322
-0.283035
-0.355144
-0.350642
-0.346148
-0.34162
-0.337087
-0.332703
-0.32853
-0.324566
-0.320784
-0.317149
-0.313633
-0.310221
-0.306912
-0.303714
-0.300644
-0.297716
-0.294939
-0.292313
-0.289838
-0.287271
-0.347236
-0.343453
-0.339526
-0.335479
-0.331387
-0.327415
-0.323642
-0.320089
-0.316746
-0.313595
-0.310615
-0.307794
-0.305129
-0.30263
-0.300308
-0.298176
-0.296235
-0.294473
-0.292894
-0.291161
-0.340062
-0.336931
-0.333537
-0.329952
-0.326285
-0.322699
-0.319287
-0.316083
-0.313096
-0.310319
-0.307744
-0.305368
-0.303199
-0.301252
-0.299553
-0.298124
-0.296975
-0.296094
-0.29549
-0.294791
-0.333592
-0.331042
-0.328144
-0.325
-0.32174
-0.318525
-0.315448
-0.312555
-0.309864
-0.307381
-0.305106
-0.303048
-0.301228
-0.299679
-0.298448
-0.297588
-0.297143
-0.297129
-0.297575
-0.298228
-0.327781
-0.325745
-0.3233
-0.320574
-0.317706
-0.314847
-0.31209
-0.309485
-0.307054
-0.304808
-0.302755
-0.300911
-0.299308
-0.297999
-0.29706
-0.296589
-0.296693
-0.297462
-0.298981
-0.301389
-0.322578
-0.320988
-0.318956
-0.31662
-0.314125
-0.311609
-0.309161
-0.306829
-0.304637
-0.302596
-0.300714
-0.299008
-0.297512
-0.296293
-0.295452
-0.295139
-0.295546
-0.296891
-0.299402
-0.304041
-0.317923
-0.316719
-0.315058
-0.313083
-0.310939
-0.308751
-0.306601
-0.304533
-0.302568
-0.300714
-0.298973
-0.297355
-0.295888
-0.29463
-0.293694
-0.293262
-0.293611
-0.295111
-0.298283
-0.305431
-0.313755
-0.312883
-0.311552
-0.309907
-0.308089
-0.30621
-0.304343
-0.302529
-0.300783
-0.299107
-0.297495
-0.295942
-0.294455
-0.29307
-0.291873
-0.291035
-0.290864
-0.291832
-0.29498
-0.304687
-0.310015
-0.309428
-0.308389
-0.30704
-0.305519
-0.303926
-0.302324
-0.300749
-0.299212
-0.297708
-0.296219
-0.294725
-0.293203
-0.291646
-0.290074
-0.288576
-0.28735
-0.286731
-0.288046
-0.297973
-0.306648
-0.306305
-0.30552
-0.304435
-0.303181
-0.301846
-0.300485
-0.299129
-0.297785
-0.296443
-0.295075
-0.293643
-0.292093
-0.290361
-0.288359
-0.285978
-0.28305
-0.27907
-0.272745
-0.265238
-0.303605
-0.303471
-0.302907
-0.302053
-0.301034
-0.299927
-0.298781
-0.297621
-0.296451
-0.295259
-0.294012
-0.292664
-0.291151
-0.289389
-0.287261
-0.284625
-0.28131
-0.276921
-0.270577
-0.26396
-0.300843
-0.300889
-0.300515
-0.299862
-0.299048
-0.29814
-0.29718
-0.296191
-0.295175
-0.294117
-0.292988
-0.291744
-0.290326
-0.288658
-0.286649
-0.284204
-0.281231
-0.277504
-0.27259
-0.268334
-0.298329
-0.298529
-0.298319
-0.297838
-0.297201
-0.296465
-0.295666
-0.294824
-0.293941
-0.293004
-0.291985
-0.290847
-0.289542
-0.288011
-0.286191
-0.284026
-0.281476
-0.278396
-0.274602
-0.271909
-0.296036
-0.296368
-0.296298
-0.295965
-0.29548
-0.294892
-0.294233
-0.29352
-0.292754
-0.291925
-0.29101
-0.289979
-0.288795
-0.287419
-0.285812
-0.283952
-0.281837
-0.279387
-0.276566
-0.274965
-0.293942
-0.294386
-0.294436
-0.294231
-0.293878
-0.29342
-0.292884
-0.292286
-0.291628
-0.290902
-0.29009
-0.289172
-0.288121
-0.286915
-0.285536
-0.28399
-0.282301
-0.280436
-0.278426
-0.277586
-0.292029
-0.292569
-0.292722
-0.292627
-0.29239
-0.292047
-0.291623
-0.291133
-0.290579
-0.289956
-0.289252
-0.288455
-0.287549
-0.286524
-0.285379
-0.284137
-0.282836
-0.281466
-0.280078
-0.279738
-0.290282
-0.290904
-0.291146
-0.291148
-0.291013
-0.290774
-0.290454
-0.290067
-0.289616
-0.289099
-0.28851
-0.287842
-0.287089
-0.28625
-0.285335
-0.284374
-0.28341
-0.282441
-0.281506
-0.281483
-0.288689
-0.289382
-0.2897
-0.289787
-0.289745
-0.289602
-0.289379
-0.289091
-0.288742
-0.288334
-0.287864
-0.28733
-0.286732
-0.286076
-0.285377
-0.284667
-0.283986
-0.283332
-0.282722
-0.282896
-0.287238
-0.287993
-0.288379
-0.288542
-0.288582
-0.288527
-0.288396
-0.288203
-0.287955
-0.287655
-0.287303
-0.286902
-0.286455
-0.285971
-0.285467
-0.284974
-0.284526
-0.284114
-0.283738
-0.284038
-0.28592
-0.286732
-0.287178
-0.287407
-0.287523
-0.287548
-0.287501
-0.287398
-0.287246
-0.287049
-0.286811
-0.286536
-0.286229
-0.285901
-0.285568
-0.285257
-0.284997
-0.284772
-0.284568
-0.284953
-0.28473
-0.285593
-0.286093
-0.286382
-0.286564
-0.286661
-0.286692
-0.286671
-0.286608
-0.286507
-0.286373
-0.286212
-0.286031
-0.285838
-0.28565
-0.285489
-0.28538
-0.2853
-0.285225
-0.285672
-0.283664
-0.284575
-0.285122
-0.285464
-0.285705
-0.285866
-0.285965
-0.286018
-0.286033
-0.286018
-0.285977
-0.285915
-0.285842
-0.285764
-0.285696
-0.285658
-0.285668
-0.285699
-0.285725
-0.286222
-0.28272
-0.283676
-0.284266
-0.284653
-0.284944
-0.285161
-0.28532
-0.285436
-0.285519
-0.285577
-0.285614
-0.285638
-0.285654
-0.285671
-0.285701
-0.28576
-0.285863
-0.285982
-0.286089
-0.286624
-0.281899
-0.282898
-0.283525
-0.283951
-0.284285
-0.284548
-0.284756
-0.284925
-0.285066
-0.285184
-0.285286
-0.285378
-0.285467
-0.285561
-0.285668
-0.285803
-0.285979
-0.286166
-0.286336
-0.286902
-0.281204
-0.282241
-0.282901
-0.283359
-0.283728
-0.284029
-0.284277
-0.284489
-0.284675
-0.284841
-0.284995
-0.285142
-0.285288
-0.28544
-0.285607
-0.285801
-0.286032
-0.28627
-0.286492
-0.287082
-0.28064
-0.28171
-0.282396
-0.28288
-0.283277
-0.283607
-0.283887
-0.284132
-0.284352
-0.284556
-0.284748
-0.284936
-0.285125
-0.285321
-0.285533
-0.285771
-0.286042
-0.286319
-0.286579
-0.287187
-0.280211
-0.281308
-0.282015
-0.282518
-0.282936
-0.283287
-0.283589
-0.283858
-0.284104
-0.284334
-0.284554
-0.284771
-0.284991
-0.285218
-0.285461
-0.285729
-0.28603
-0.286333
-0.286621
-0.287241
-0.279923
-0.281038
-0.281759
-0.282275
-0.282706
-0.283072
-0.283389
-0.283673
-0.283935
-0.284182
-0.28442
-0.284656
-0.284895
-0.285142
-0.285405
-0.285693
-0.286011
-0.286331
-0.286637
-0.287265
-0.279777
-0.280903
-0.281631
-0.282154
-0.282592
-0.282964
-0.283289
-0.28358
-0.28385
-0.284105
-0.284353
-0.284597
-0.284846
-0.285103
-0.285375
-0.285672
-0.285999
-0.286327
-0.286642
-0.287272
-0.302805
-0.360298
-0.349019
-0.25756
-0.148118
-0.0673148
-0.0201904
0.0194256
0.0283796
0.0338952
0.0311952
0.0285321
0.0247214
0.0208218
0.0167497
0.0132671
0.0099794
0.00731631
0.00433196
0.00189777
-0.302972
-0.360575
-0.349457
-0.258012
-0.148502
-0.0675809
-0.0204241
0.0192767
0.0282895
0.0338335
0.0311589
0.0285079
0.0247048
0.0208089
0.016738
0.0132577
0.00997187
0.00731101
0.00432857
0.00189485
-0.303292
-0.361164
-0.350387
-0.258922
-0.149233
-0.0680612
-0.0208502
0.0189934
0.0281097
0.0337036
0.0310786
0.0284533
0.0246678
0.0207814
0.0167145
0.0132397
0.00995803
0.00730152
0.0043227
0.00188937
-0.303722
-0.362003
-0.351746
-0.260248
-0.150299
-0.068752
-0.0214615
0.0185758
0.0278401
0.0335042
0.0309534
0.0283677
0.0246102
0.0207393
0.0166792
0.0132131
0.00993787
0.00728785
0.0043144
0.00188139
-0.304202
-0.363007
-0.35345
-0.261932
-0.151687
-0.0696483
-0.0222483
0.0180239
0.0274805
0.0332335
0.0307821
0.0282507
0.024532
0.0206824
0.016632
0.0131776
0.00991139
0.00726995
0.00430376
0.00187095
-0.304661
-0.364077
-0.355401
-0.26391
-0.153378
-0.0707437
-0.0231985
0.0173384
0.0270312
0.0328899
0.0305637
0.0281018
0.024433
0.0206107
0.016573
0.013133
0.0098786
0.00724782
0.00429088
0.00185816
-0.305029
-0.365111
-0.357501
-0.266111
-0.155352
-0.0720309
-0.0242986
0.0165208
0.0264926
0.0324717
0.0302969
0.0279204
0.0243133
0.0205241
0.0165019
0.0130792
0.00983947
0.00722141
0.00427586
0.00184309
-0.305238
-0.366008
-0.359656
-0.268474
-0.157584
-0.0735012
-0.0255335
0.0155739
0.0258657
0.031978
0.029981
0.0277062
0.0241731
0.0204226
0.016419
0.0130159
0.00979401
0.00719069
0.00425882
0.00182588
-0.305231
-0.366682
-0.361784
-0.270943
-0.160049
-0.075145
-0.0268879
0.014502
0.0251525
0.0314084
0.0296152
0.0274593
0.0240126
0.0203065
0.0163242
0.0129429
0.00974222
0.00715565
0.00423985
0.00180664
-0.304965
-0.367059
-0.363819
-0.273474
-0.162722
-0.0769521
-0.0283456
0.0133112
0.0243557
0.0307635
0.0291995
0.0271798
0.0238323
0.020176
0.0162177
0.0128603
0.00968409
0.00711629
0.00421906
0.00178552
-0.304414
-0.367085
-0.365714
-0.276035
-0.165579
-0.0789117
-0.0298907
0.0120094
0.0234791
0.0300448
0.0287342
0.0268682
0.0236327
0.0200317
0.0160998
0.0127679
0.00961967
0.00707261
0.00419652
0.00176265
-0.303572
-0.36672
-0.367433
-0.278606
-0.168596
-0.0810129
-0.0315076
0.0106059
0.0225275
0.029255
0.0282203
0.0265254
0.0234149
0.0198741
0.0159708
0.0126657
0.009549
0.00702467
0.00417232
0.0017382
-0.302448
-0.365941
-0.368958
-0.281181
-0.171758
-0.0832476
-0.0331838
0.00911041
0.021506
0.0283974
0.0276593
0.0261527
0.0231797
0.019704
0.0158312
0.0125541
0.00947218
0.00697254
0.00414652
0.00171231
-0.301066
-0.364732
-0.370271
-0.283763
-0.175053
-0.0856108
-0.0349081
0.00753341
0.0204208
0.0274762
0.0270528
0.0257513
0.0229283
0.0195223
0.0156816
0.0124331
0.00938934
0.00691632
0.00411918
0.00168516
-0.299458
-0.363079
-0.371339
-0.28634
-0.178453
-0.0880851
-0.0366591
0.00589236
0.019281
0.0264966
0.0264029
0.0253225
0.0226617
0.0193299
0.0155223
0.0123031
0.00930055
0.00685609
0.00409032
0.00165687
-0.29766
-0.360973
-0.372108
-0.288855
-0.181873
-0.0906173
-0.0383955
0.00421658
0.0181009
0.0254663
0.0257122
0.0248675
0.0223807
0.0191273
0.0153538
0.012164
0.00920576
0.00679183
0.00405988
0.00162758
-0.295728
-0.358456
-0.372637
-0.291332
-0.185313
-0.0931977
-0.0401315
0.00250593
0.0168822
0.024394
0.0249882
0.0243915
0.0220882
0.0189167
0.0151777
0.0120174
0.00910576
0.00672418
0.00402813
0.00159745
-0.293663
-0.355585
-0.373239
-0.294256
-0.189273
-0.0961407
-0.0421115
0.000634578
0.0155749
0.0232737
0.0242401
0.0239045
0.0217923
0.0187055
0.0150003
0.0118681
0.00900377
0.00665551
0.00399654
0.00156703
-0.290923
-0.351891
-0.373575
-0.298061
-0.194341
-0.0998806
-0.0445147
-0.00149186
0.0141484
0.0220735
0.0234454
0.023396
0.0214918
0.0184949
0.0148227
0.0117166
0.0089004
0.00658597
0.0039655
0.0015367
-0.28636
-0.34615
-0.370659
-0.299914
-0.197852
-0.102773
-0.0458719
-0.00305228
0.0129598
0.020824
0.0225144
0.022779
0.021129
0.018235
0.0146009
0.0115232
0.00877004
0.00649615
0.00392303
0.00150339
-0.253162
-0.304326
-0.335035
-0.291789
-0.200162
-0.107937
-0.0439441
-0.00607829
0.00884884
0.0139982
0.016433
0.0184662
0.0185363
0.0163161
0.0129299
0.0100322
0.00776705
0.00579471
0.00356275
0.00128232
-0.215719
-0.256388
-0.277149
-0.254592
-0.185088
-0.105359
-0.0440928
-0.0116355
0.000419404
0.00352493
0.00615559
0.0101298
0.0129677
0.0126037
0.00987483
0.00728784
0.00577061
0.00458553
0.00294579
0.000878122
-0.189619
-0.214556
-0.224397
-0.20793
-0.159414
-0.0984841
-0.048015
-0.0195537
-0.00803404
-0.00420272
-0.0012617
0.00330553
0.00791477
0.00942944
0.00758994
0.00519921
0.0040858
0.00352458
0.0024148
0.000805678
-0.155132
-0.176492
-0.180008
-0.16676
-0.134792
-0.0924269
-0.0537218
-0.0279707
-0.0146533
-0.00865135
-0.00545007
-0.00157152
0.00344072
0.0064105
0.0056264
0.00345411
0.00248074
0.00238889
0.00182742
0.000600998
-0.126402
-0.144102
-0.146094
-0.136322
-0.115882
-0.0875882
-0.0579288
-0.033902
-0.0186707
-0.0110713
-0.00813121
-0.00561091
-0.00106756
0.0029319
0.00338044
0.00166937
0.000796424
0.00109446
0.00108662
0.000334798
-0.103163
-0.118281
-0.120932
-0.114621
-0.101427
-0.0819125
-0.0583128
-0.0363587
-0.0211376
-0.013393
-0.0107564
-0.00904853
-0.00500497
-0.000342198
0.00133613
0.000320719
-0.000402117
0.000125768
0.000596685
0.000305627
-0.0855009
-0.0984297
-0.102013
-0.0984398
-0.0893881
-0.0748157
-0.0557653
-0.0371135
-0.0237292
-0.0163984
-0.0132819
-0.0114082
-0.00777641
-0.00302312
-0.000475156
-0.000757628
-0.0013261
-0.000728699
4.58617e-05
0.000115979
-0.0721308
-0.0832
-0.0872432
-0.0854426
-0.0786718
-0.0672461
-0.0524032
-0.0376866
-0.0264159
-0.0191168
-0.0149938
-0.0126535
-0.00960508
-0.00531706
-0.00230478
-0.00185862
-0.00215684
-0.00151939
-0.000508956
-4.0825e-05
-0.0618751
-0.0713009
-0.0753417
-0.0745073
-0.0692411
-0.0605154
-0.049511
-0.038051
-0.0281917
-0.0208185
-0.0160976
-0.0135472
-0.0110677
-0.007355
-0.00408559
-0.00292018
-0.00282459
-0.00212915
-0.000961099
-0.000172858
-0.0538267
-0.0618318
-0.0655741
-0.0652849
-0.0614547
-0.0551497
-0.0469377
-0.0375884
-0.0288235
-0.0219047
-0.0172042
-0.0144961
-0.0122192
-0.00892908
-0.00559189
-0.00386797
-0.00336553
-0.00260031
-0.00135413
-0.000318422
-0.0473875
-0.0541755
-0.0575436
-0.0577717
-0.0552889
-0.050696
-0.0442155
-0.0364518
-0.028952
-0.0228344
-0.0183045
-0.0153132
-0.0129773
-0.0100379
-0.0068409
-0.00476389
-0.00386886
-0.00298755
-0.00168584
-0.000451215
-0.0421487
-0.0479393
-0.0510529
-0.0517643
-0.050224
-0.0467063
-0.0415138
-0.0352185
-0.028941
-0.0235183
-0.0191359
-0.0159279
-0.0135088
-0.0108601
-0.0078842
-0.00559459
-0.00433574
-0.00329469
-0.00194323
-0.000564108
-0.037826
-0.0428697
-0.0458292
-0.0468452
-0.0459065
-0.0432265
-0.0391511
-0.0340736
-0.0287389
-0.0238644
-0.0197077
-0.0164487
-0.0139561
-0.0114789
-0.00870732
-0.0063138
-0.00475833
-0.00354229
-0.0021399
-0.00065868
-0.0342102
-0.0387236
-0.0415632
-0.0427633
-0.0423009
-0.0403422
-0.0371418
-0.0329624
-0.0283625
-0.0239913
-0.0201244
-0.0169047
-0.0143323
-0.0119262
-0.0093257
-0.00691418
-0.0051411
-0.00375144
-0.00228845
-0.000733136
-0.0311168
-0.0352915
-0.0380682
-0.0394337
-0.0393717
-0.0379723
-0.0354099
-0.0319135
-0.0279307
-0.0240103
-0.0204169
-0.0172687
-0.0146361
-0.0122511
-0.00978351
-0.00740164
-0.00547916
-0.00392976
-0.00239816
-0.000788305
-0.0284239
-0.0324506
-0.0352474
-0.0367738
-0.0370208
-0.036036
-0.0339565
-0.0309982
-0.0275171
-0.0239629
-0.0205987
-0.0175407
-0.0148817
-0.0124947
-0.0101171
-0.00778143
-0.00576425
-0.00407997
-0.00247849
-0.000827391
-0.0260559
-0.0301338
-0.0330197
-0.0346944
-0.0351797
-0.0345108
-0.0328001
-0.0302483
-0.0271489
-0.0238789
-0.0207016
-0.0177376
-0.0150763
-0.0126766
-0.0103529
-0.00806355
-0.00599234
-0.0042029
-0.00253688
-0.000853795
-0.0240421
-0.0283223
-0.0313349
-0.0331477
-0.0338227
-0.0333883
-0.0319411
-0.0296754
-0.0268504
-0.0237915
-0.0207565
-0.0178723
-0.01522
-0.0128066
-0.0105124
-0.00826122
-0.00616239
-0.0042973
-0.00257788
-0.000870647
-0.0224682
-0.0270358
-0.030185
-0.0321205
-0.0329333
-0.0326515
-0.0313713
-0.0292881
-0.0266421
-0.0237232
-0.0207828
-0.0179547
-0.0153135
-0.0128905
-0.0106112
-0.00838627
-0.00627476
-0.00436114
-0.00260395
-0.000880476
-0.0215336
-0.0263503
-0.029595
-0.031604
-0.0324882
-0.0322813
-0.0310839
-0.0290918
-0.0265354
-0.0236865
-0.020793
-0.0179934
-0.0153594
-0.0129315
-0.0106585
-0.00844695
-0.00633069
-0.00439317
-0.0026164
-0.000884898
-0.171057
-0.180906
-0.190829
-0.20091
-0.211242
-0.221928
-0.233082
-0.244824
-0.25727
-0.270528
-0.284655
-0.299643
-0.315298
-0.331246
-0.346633
-0.360479
-0.370939
-0.37733
-0.377426
-0.375744
-0.111574
-0.115265
-0.118678
-0.121798
-0.124608
-0.127088
-0.129216
-0.13097
-0.132326
-0.13327
-0.133796
-0.133929
-0.133719
-0.133316
-0.132908
-0.132916
-0.133681
-0.136077
-0.140375
-0.148686
-0.0834401
-0.0876982
-0.0919884
-0.0963209
-0.100707
-0.105157
-0.109684
-0.1143
-0.119017
-0.123846
-0.128795
-0.133865
-0.139043
-0.144303
-0.149578
-0.154783
-0.159746
-0.164318
-0.168214
-0.171325
-0.0684581
-0.0713577
-0.0742206
-0.0770481
-0.0798414
-0.0826012
-0.0853284
-0.0880232
-0.090686
-0.093317
-0.0959169
-0.0984876
-0.101033
-0.103562
-0.106091
-0.108646
-0.111278
-0.114058
-0.117142
-0.120767
-0.0565554
-0.0588559
-0.0611607
-0.0634723
-0.0657932
-0.0681259
-0.0704731
-0.0728372
-0.0752209
-0.0776267
-0.0800571
-0.0825141
-0.0849994
-0.0875132
-0.0900552
-0.0926197
-0.0952056
-0.0977936
-0.10041
-0.103032
-0.0490283
-0.0508114
-0.0525928
-0.0543733
-0.0561534
-0.0579341
-0.0597161
-0.0615002
-0.0632873
-0.0650785
-0.0668749
-0.0686775
-0.0704878
-0.0723072
-0.0741387
-0.0759833
-0.0778511
-0.0797419
-0.0817055
-0.0837548
-0.0429305
-0.0443394
-0.0457498
-0.0471623
-0.0485774
-0.0499957
-0.051418
-0.0528447
-0.0542765
-0.0557141
-0.0571581
-0.0586091
-0.0600678
-0.0615344
-0.0630102
-0.0644942
-0.0659911
-0.0674954
-0.0690379
-0.0706073
-0.038332
-0.0394675
-0.0406036
-0.0417405
-0.0428785
-0.0440178
-0.0451586
-0.0463012
-0.047446
-0.0485932
-0.0497433
-0.0508964
-0.052053
-0.0532134
-0.0543785
-0.0555476
-0.0567247
-0.0579057
-0.059115
-0.0603417
-0.0345978
-0.0355236
-0.0364498
-0.0373764
-0.0383035
-0.0392314
-0.0401602
-0.0410902
-0.0420215
-0.0429543
-0.0438888
-0.0448252
-0.0457637
-0.0467044
-0.0476478
-0.0485933
-0.0495435
-0.0504949
-0.0514655
-0.0524447
-0.031621
-0.0323825
-0.0331439
-0.0339053
-0.0346669
-0.0354287
-0.0361908
-0.0369533
-0.0377164
-0.0384801
-0.0392447
-0.04001
-0.0407764
-0.0415437
-0.0423124
-0.0430819
-0.0438542
-0.0446266
-0.0454124
-0.0462035
-0.0291827
-0.0298092
-0.0304357
-0.0310625
-0.0316895
-0.0323167
-0.0329442
-0.0335722
-0.0342006
-0.0348296
-0.035459
-0.036089
-0.0367196
-0.0373507
-0.0379826
-0.0386148
-0.0392486
-0.0398822
-0.0405253
-0.0411721
-0.0271396
-0.0276547
-0.0281706
-0.0286871
-0.0292043
-0.0297223
-0.0302409
-0.0307602
-0.0312802
-0.0318009
-0.0323222
-0.032844
-0.0333664
-0.0338892
-0.0344124
-0.0349358
-0.0354602
-0.0359841
-0.0365149
-0.0370489
-0.0253297
-0.025753
-0.0261779
-0.0266044
-0.0270324
-0.027462
-0.027893
-0.0283253
-0.0287589
-0.0291936
-0.0296294
-0.0300661
-0.0305035
-0.0309416
-0.0313803
-0.0318192
-0.0322589
-0.0326983
-0.0331427
-0.0335902
-0.0236241
-0.023974
-0.0243268
-0.0246825
-0.0250408
-0.0254018
-0.0257651
-0.0261307
-0.0264983
-0.0268677
-0.0272388
-0.0276112
-0.0279849
-0.0283595
-0.0287349
-0.0291108
-0.0294873
-0.0298638
-0.030244
-0.0306273
-0.0218321
-0.0221275
-0.0224276
-0.0227322
-0.0230409
-0.0233535
-0.0236697
-0.0239892
-0.0243117
-0.0246368
-0.0249643
-0.0252938
-0.025625
-0.0259575
-0.0262912
-0.0266257
-0.0269609
-0.0272963
-0.0276344
-0.0279758
-0.019855
-0.0201202
-0.0203918
-0.0206694
-0.0209525
-0.0212407
-0.0215334
-0.0218302
-0.0221306
-0.0224341
-0.0227403
-0.0230488
-0.023359
-0.0236707
-0.0239834
-0.0242967
-0.0246105
-0.0249244
-0.0252397
-0.025558
-0.0173454
-0.0176193
-0.0179011
-0.0181898
-0.0184848
-0.0187852
-0.0190904
-0.0193996
-0.0197121
-0.0200275
-0.020345
-0.0206642
-0.0209845
-0.0213054
-0.0216265
-0.0219474
-0.0222678
-0.0225873
-0.0229069
-0.023228
-0.0144053
-0.0147394
-0.0150798
-0.0154254
-0.0157754
-0.0161287
-0.0164846
-0.0168423
-0.0172011
-0.0175604
-0.0179196
-0.0182782
-0.0186358
-0.0189918
-0.0193459
-0.0196978
-0.0200471
-0.0203938
-0.020738
-0.0210815
-0.0105931
-0.0111079
-0.0116164
-0.0121182
-0.0126134
-0.0131016
-0.0135828
-0.0140568
-0.0145236
-0.0149831
-0.0154353
-0.0158801
-0.0163176
-0.0167478
-0.0171706
-0.0175863
-0.0179947
-0.018396
-0.0187906
-0.0191796
-0.00688281
-0.00762895
-0.00835025
-0.00904798
-0.00972348
-0.0103779
-0.0110122
-0.0116275
-0.0122246
-0.0128045
-0.013368
-0.0139158
-0.0144487
-0.0149673
-0.0154724
-0.0159644
-0.0164439
-0.0169116
-0.0173679
-0.0178139
-0.00534909
-0.00618043
-0.00698156
-0.0077541
-0.00849969
-0.00921974
-0.00991559
-0.0105885
-0.0112397
-0.0118704
-0.0124815
-0.013074
-0.0136489
-0.014207
-0.0147491
-0.015276
-0.0157884
-0.0162869
-0.0167724
-0.0172462
-0.0100892
-0.0106147
-0.0111342
-0.0116474
-0.012154
-0.0126537
-0.0131465
-0.013632
-0.0141102
-0.0145809
-0.0150441
-0.0154996
-0.0159476
-0.016388
-0.0168207
-0.0172459
-0.0176634
-0.0180736
-0.0184766
-0.0188739
-0.0145353
-0.0148369
-0.0151482
-0.015468
-0.0157949
-0.0161277
-0.0164655
-0.0168073
-0.0171521
-0.0174991
-0.0178476
-0.0181969
-0.0185465
-0.0188956
-0.0192439
-0.0195908
-0.0199361
-0.0202794
-0.020621