/*--------------------------------*- C++ -*----------------------------------*\
  =========                 |
  \\      /  F ield         | OpenFOAM: The Open Source CFD Toolbox
   \\    /   O peration     | Website:  https://openfoam.org
    \\  /    A nd           | Version:  6.0
     \\/     M anipulation  |
\*---------------------------------------------------------------------------*/
FoamFile
{
    version     2.0;
    format      ascii;
    class       volScalarField;
    location    "3.9";
    object      p;
}
// * * * * * * * * * * * * * * * * * * * * * * * * * * * * * * * * * * * * * //

dimensions      [0 2 -2 0 0 0 0];

internalField   nonuniform List<scalar> 
8000
(
-0.355773
-0.360832
-0.363911
-0.366323
-0.3688
-0.371452
-0.374295
-0.377299
-0.380397
-0.383504
-0.386534
-0.389403
-0.392039
-0.394376
-0.396352
-0.397905
-0.399035
-0.399889
-0.400379
-0.399046
-0.356996
-0.361873
-0.364866
-0.367235
-0.369686
-0.372323
-0.375164
-0.378175
-0.381289
-0.38442
-0.38748
-0.390386
-0.393063
-0.395445
-0.39747
-0.399074
-0.400254
-0.401157
-0.401706
-0.400438
-0.359364
-0.36389
-0.366714
-0.368997
-0.371393
-0.374
-0.376832
-0.379853
-0.382992
-0.386163
-0.389277
-0.392248
-0.395
-0.397463
-0.399575
-0.40127
-0.40254
-0.40353
-0.404185
-0.403044
-0.36273
-0.366753
-0.369332
-0.371485
-0.373795
-0.376351
-0.37916
-0.382184
-0.38535
-0.388568
-0.391747
-0.394799
-0.397643
-0.40021
-0.402432
-0.404244
-0.405628
-0.406727
-0.407517
-0.406558
-0.366888
-0.370287
-0.372553
-0.374533
-0.376722
-0.379197
-0.381961
-0.384971
-0.388149
-0.391406
-0.394646
-0.397777
-0.400717
-0.403391
-0.40573
-0.407666
-0.409172
-0.410381
-0.411314
-0.410582
-0.371598
-0.374287
-0.376183
-0.377948
-0.379976
-0.382334
-0.385019
-0.387983
-0.391146
-0.394416
-0.397695
-0.400888
-0.403907
-0.406675
-0.409119
-0.411169
-0.412789
-0.414096
-0.415157
-0.414684
-0.376609
-0.378539
-0.380025
-0.381533
-0.383357
-0.385554
-0.388113
-0.390986
-0.39409
-0.397331
-0.40061
-0.403828
-0.406894
-0.409725
-0.412248
-0.414388
-0.4161
-0.417481
-0.418639
-0.418439
-0.381675
-0.382843
-0.383894
-0.385107
-0.386682
-0.388663
-0.391042
-0.393764
-0.396751
-0.399906
-0.403129
-0.406319
-0.409384
-0.412235
-0.414795
-0.41699
-0.418764
-0.420188
-0.421401
-0.421475
-0.386584
-0.387027
-0.387635
-0.388522
-0.3898
-0.391509
-0.393641
-0.396145
-0.398943
-0.401941
-0.405039
-0.408138
-0.41114
-0.413955
-0.416502
-0.418706
-0.420503
-0.421934
-0.423155
-0.423488
-0.391165
-0.390956
-0.391133
-0.391671
-0.392608
-0.393987
-0.395804
-0.398014
-0.400544
-0.403307
-0.406205
-0.409137
-0.412007
-0.414721
-0.417197
-0.419355
-0.421128
-0.422524
-0.423703
-0.424263
-0.395302
-0.394546
-0.394321
-0.394495
-0.395055
-0.396049
-0.397484
-0.399325
-0.40151
-0.403959
-0.406577
-0.409268
-0.411935
-0.414481
-0.416821
-0.418873
-0.420566
-0.421877
-0.422947
-0.42368
-0.398937
-0.397758
-0.397173
-0.39698
-0.397137
-0.397702
-0.398697
-0.400105
-0.401875
-0.403938
-0.406207
-0.408589
-0.410986
-0.413301
-0.415442
-0.417325
-0.418871
-0.420028
-0.420898
-0.421706
-0.402069
-0.400601
-0.399708
-0.399156
-0.398895
-0.399001
-0.399516
-0.400441
-0.401743
-0.403366
-0.405232
-0.407252
-0.409327
-0.411358
-0.413244
-0.414892
-0.416215
-0.417127
-0.417662
-0.418369
-0.404751
-0.403123
-0.401976
-0.401083
-0.400405
-0.400039
-0.400052
-0.400467
-0.401273
-0.402425
-0.403857
-0.405483
-0.407204
-0.408913
-0.410496
-0.411845
-0.412857
-0.413403
-0.413414
-0.413744
-0.407085
-0.405407
-0.404059
-0.402847
-0.401763
-0.400931
-0.400443
-0.400347
-0.400652
-0.401329
-0.402322
-0.403545
-0.404897
-0.406258
-0.407499
-0.408484
-0.409084
-0.409119
-0.408373
-0.407943
-0.409208
-0.407564
-0.406056
-0.40455
-0.403084
-0.401807
-0.400839
-0.400254
-0.400078
-0.4003
-0.400867
-0.401696
-0.402677
-0.403676
-0.404535
-0.405087
-0.405163
-0.404529
-0.40279
-0.401153
-0.411288
-0.409725
-0.408083
-0.406308
-0.404488
-0.402801
-0.401392
-0.400356
-0.399739
-0.399539
-0.399709
-0.400161
-0.400772
-0.401388
-0.401821
-0.401864
-0.401299
-0.399848
-0.396946
-0.393685
-0.413505
-0.41203
-0.410266
-0.408241
-0.406099
-0.404043
-0.402241
-0.400805
-0.399795
-0.399215
-0.399017
-0.399106
-0.399341
-0.399543
-0.399491
-0.398932
-0.397601
-0.395185
-0.390996
-0.385795
-0.416041
-0.414623
-0.412729
-0.410469
-0.408034
-0.405653
-0.403508
-0.401726
-0.400371
-0.399449
-0.398906
-0.398636
-0.398479
-0.39823
-0.397637
-0.396404
-0.394209
-0.390664
-0.384931
-0.37746
-0.419066
-0.417637
-0.41559
-0.413099
-0.410398
-0.407731
-0.40529
-0.403207
-0.401546
-0.400307
-0.399428
-0.398787
-0.398212
-0.397485
-0.396344
-0.394494
-0.391598
-0.387181
-0.380179
-0.371092
-0.42272
-0.421187
-0.418948
-0.416223
-0.413272
-0.410348
-0.407646
-0.405294
-0.40335
-0.401801
-0.400571
-0.399528
-0.398489
-0.397241
-0.395549
-0.393179
-0.389923
-0.385589
-0.380138
-0.376411
-0.427112
-0.425365
-0.422884
-0.419911
-0.416713
-0.413547
-0.410604
-0.407997
-0.40577
-0.403894
-0.402276
-0.40077
-0.399192
-0.397337
-0.395002
-0.392007
-0.388224
-0.383603
-0.378268
-0.373738
-0.432312
-0.430236
-0.427454
-0.424207
-0.420754
-0.417347
-0.414162
-0.411295
-0.408764
-0.40652
-0.404451
-0.402401
-0.400187
-0.397621
-0.394533
-0.390791
-0.38632
-0.381117
-0.375277
-0.369427
-0.438359
-0.435839
-0.432696
-0.429142
-0.425413
-0.42175
-0.418307
-0.415151
-0.412273
-0.409597
-0.406992
-0.404297
-0.401337
-0.397948
-0.393998
-0.3894
-0.384121
-0.378182
-0.37167
-0.36483
-0.44527
-0.4422
-0.438632
-0.434733
-0.430698
-0.426752
-0.423017
-0.419525
-0.416232
-0.413035
-0.409788
-0.406331
-0.402508
-0.398189
-0.393287
-0.387763
-0.381627
-0.374927
-0.367755
-0.360194
-0.453044
-0.449331
-0.44528
-0.440996
-0.436621
-0.432351
-0.428273
-0.424374
-0.420574
-0.416742
-0.412727
-0.40838
-0.403577
-0.398235
-0.392319
-0.385839
-0.378847
-0.37142
-0.363664
-0.355627
-0.461674
-0.457238
-0.452654
-0.447947
-0.443191
-0.438547
-0.434055
-0.429654
-0.425224
-0.42062
-0.415693
-0.410325
-0.404436
-0.397999
-0.391033
-0.383598
-0.375779
-0.367678
-0.359403
-0.351004
-0.471145
-0.46592
-0.460763
-0.455598
-0.450416
-0.445333
-0.440332
-0.435303
-0.430096
-0.424559
-0.41857
-0.412054
-0.40499
-0.397409
-0.389385
-0.381016
-0.372413
-0.363689
-0.354946
-0.346241
-0.481437
-0.475371
-0.469609
-0.463955
-0.458294
-0.452685
-0.447053
-0.441241
-0.435082
-0.42844
-0.421239
-0.413462
-0.405156
-0.39641
-0.38734
-0.378074
-0.368732
-0.359427
-0.350247
-0.341243
-0.492515
-0.48557
-0.479181
-0.473004
-0.466797
-0.460553
-0.454136
-0.447357
-0.440054
-0.432133
-0.42358
-0.414454
-0.404866
-0.394957
-0.384873
-0.374754
-0.36472
-0.354868
-0.34527
-0.335958
-0.504325
-0.496475
-0.489444
-0.482706
-0.475868
-0.468849
-0.461465
-0.453512
-0.444865
-0.435498
-0.425479
-0.414944
-0.404063
-0.393015
-0.381962
-0.37104
-0.360357
-0.349988
-0.339983
-0.330351
-0.516786
-0.508019
-0.500334
-0.492985
-0.485408
-0.477445
-0.468883
-0.459539
-0.449355
-0.438398
-0.426828
-0.414855
-0.402697
-0.390552
-0.378583
-0.366911
-0.35562
-0.344763
-0.334362
-0.324404
-0.529781
-0.5201
-0.511752
-0.503728
-0.495273
-0.486169
-0.4762
-0.465247
-0.453351
-0.440692
-0.427523
-0.414116
-0.40072
-0.387535
-0.374709
-0.362339
-0.350483
-0.339167
-0.328382
-0.318104
-0.543159
-0.532582
-0.523556
-0.514771
-0.505276
-0.494809
-0.4832
-0.470433
-0.456683
-0.442248
-0.427468
-0.412661
-0.398083
-0.383924
-0.370305
-0.357293
-0.344914
-0.333169
-0.322018
-0.311434
-0.556725
-0.545285
-0.535563
-0.52591
-0.515183
-0.503119
-0.489642
-0.474886
-0.459179
-0.442937
-0.426571
-0.410421
-0.394736
-0.379676
-0.36533
-0.35173
-0.338873
-0.326733
-0.31524
-0.304376
-0.570246
-0.557989
-0.547543
-0.536892
-0.524723
-0.510825
-0.495277
-0.478397
-0.460676
-0.442639
-0.424743
-0.407328
-0.390619
-0.374738
-0.359733
-0.345602
-0.332313
-0.319816
-0.30801
-0.2969
-0.583446
-0.570433
-0.559224
-0.547424
-0.533594
-0.51764
-0.49985
-0.480759
-0.461018
-0.441237
-0.421894
-0.403311
-0.385671
-0.369051
-0.353459
-0.338856
-0.325186
-0.312373
-0.300289
-0.288975
-0.596017
-0.582317
-0.570296
-0.557181
-0.541473
-0.523266
-0.503114
-0.48178
-0.460059
-0.438621
-0.417939
-0.398296
-0.379824
-0.362552
-0.346445
-0.331433
-0.317435
-0.304354
-0.292032
-0.280562
-0.60762
-0.59331
-0.580418
-0.565815
-0.548026
-0.527413
-0.504833
-0.481278
-0.457663
-0.434686
-0.41279
-0.392205
-0.373007
-0.355173
-0.338629
-0.323274
-0.309007
-0.295707
-0.283194
-0.271622
-0.617893
-0.603055
-0.589223
-0.572963
-0.55292
-0.5298
-0.504787
-0.479087
-0.453703
-0.429331
-0.406362
-0.384963
-0.365147
-0.346846
-0.329945
-0.314319
-0.299846
-0.286384
-0.273731
-0.262113
-0.626459
-0.611179
-0.596336
-0.578262
-0.555836
-0.530167
-0.502777
-0.475058
-0.448066
-0.422462
-0.398573
-0.376493
-0.356176
-0.337505
-0.320334
-0.304512
-0.2899
-0.276335
-0.263599
-0.251997
-0.632936
-0.6173
-0.601377
-0.581359
-0.556472
-0.528278
-0.498627
-0.469059
-0.440646
-0.413992
-0.389344
-0.366723
-0.346025
-0.327088
-0.309736
-0.293798
-0.27912
-0.265518
-0.252759
-0.241239
-0.636949
-0.621043
-0.603979
-0.581923
-0.554558
-0.523928
-0.492185
-0.460976
-0.431353
-0.403842
-0.378605
-0.355588
-0.334633
-0.315538
-0.2981
-0.282132
-0.267465
-0.253895
-0.241179
-0.229809
-0.63814
-0.622048
-0.603797
-0.579655
-0.549859
-0.516943
-0.483324
-0.450713
-0.420108
-0.391944
-0.366293
-0.34303
-0.321946
-0.302806
-0.285383
-0.269474
-0.2549
-0.241435
-0.228833
-0.217684
-0.636175
-0.619981
-0.60052
-0.574294
-0.542177
-0.507184
-0.471946
-0.438195
-0.406848
-0.378241
-0.352354
-0.328999
-0.307919
-0.288851
-0.271547
-0.255793
-0.241398
-0.228116
-0.215704
-0.204848
-0.630759
-0.614545
-0.593878
-0.565626
-0.531361
-0.494547
-0.457978
-0.423365
-0.391526
-0.362689
-0.33675
-0.313458
-0.292519
-0.273643
-0.256568
-0.241068
-0.226942
-0.213925
-0.201781
-0.191295
-0.621638
-0.605489
-0.583649
-0.553486
-0.5173
-0.478963
-0.441375
-0.406189
-0.374111
-0.34526
-0.319451
-0.296382
-0.275723
-0.257164
-0.240429
-0.225286
-0.211522
-0.198856
-0.187065
-0.177025
-0.608611
-0.592611
-0.569669
-0.53776
-0.49993
-0.460399
-0.422119
-0.386655
-0.35459
-0.325939
-0.300445
-0.277757
-0.257519
-0.239404
-0.223125
-0.208444
-0.19514
-0.182916
-0.171563
-0.162046
-0.591534
-0.575771
-0.55183
-0.518391
-0.479232
-0.438857
-0.40022
-0.364772
-0.33297
-0.304731
-0.279732
-0.257585
-0.23791
-0.220366
-0.204661
-0.190551
-0.177807
-0.166118
-0.155295
-0.146378
-0.57032
-0.554886
-0.530083
-0.495372
-0.45523
-0.414374
-0.375714
-0.340571
-0.309276
-0.281654
-0.257328
-0.235878
-0.216906
-0.200063
-0.18505
-0.171622
-0.159541
-0.148486
-0.138289
-0.13005
-0.544949
-0.529938
-0.504443
-0.468752
-0.42799
-0.387021
-0.348667
-0.314108
-0.283552
-0.256746
-0.233264
-0.212662
-0.194531
-0.178515
-0.164314
-0.15168
-0.14037
-0.130054
-0.120584
-0.113111
-0.515462
-0.500973
-0.47498
-0.438627
-0.397622
-0.356902
-0.319172
-0.285461
-0.255866
-0.23006
-0.207585
-0.187975
-0.170817
-0.155752
-0.142479
-0.130751
-0.120321
-0.110854
-0.102225
-0.0956103
-0.481964
-0.468098
-0.441825
-0.405145
-0.364272
-0.324154
-0.287347
-0.254732
-0.226301
-0.201669
-0.180349
-0.161867
-0.145805
-0.131806
-0.119574
-0.108862
-0.0994201
-0.0909169
-0.0832491
-0.0775801
-0.444621
-0.431482
-0.405161
-0.368498
-0.328126
-0.288944
-0.253339
-0.222047
-0.194965
-0.171662
-0.151631
-0.134395
-0.119539
-0.106714
-0.0956264
-0.0860339
-0.0776896
-0.0702711
-0.0636832
-0.059013
-0.403657
-0.39135
-0.365223
-0.32892
-0.289404
-0.251471
-0.217323
-0.187557
-0.161989
-0.140149
-0.12152
-0.10563
-0.0920733
-0.0805091
-0.0706561
-0.0622791
-0.0551397
-0.0489288
-0.0435332
-0.0399
-0.359348
-0.347976
-0.322292
-0.286685
-0.248361
-0.211961
-0.1795
-0.151439
-0.127525
-0.10726
-0.0901259
-0.0756593
-0.0634691
-0.0532316
-0.0446819
-0.0375989
-0.0317579
-0.0268706
-0.0228018
-0.0203619
-0.312022
-0.301684
-0.276688
-0.242099
-0.205278
-0.170673
-0.1401
-0.113898
-0.0917527
-0.0731511
-0.0575783
-0.0445864
-0.033805
-0.0249351
-0.0177369
-0.0120061
-0.00753698
-0.00410171
-0.00162765
-0.000828047
-0.262046
-0.252838
-0.228768
-0.195503
-0.160468
-0.127887
-0.0993766
-0.0751616
-0.054878
-0.0380009
-0.0240255
-0.0125237
-0.00315298
0.00434915
0.0101858
0.0145385
0.0175673
0.0193149
0.0196261
0.0181785
-0.209825
-0.201834
-0.178918
-0.147257
-0.114266
-0.083911
-0.0576135
-0.0354921
-0.0171396
-0.00202342
0.0103526
0.0203989
0.0284312
0.0346735
0.0392892
0.0424254
0.0441175
0.04399
0.0415309
0.0377428
-0.155791
-0.149097
-0.127546
-0.097747
-0.0670253
-0.0390723
-0.0151168
0.00481968
0.0211816
0.0345092
0.0452956
0.0539463
0.0607713
0.0659918
0.0697832
0.0723095
0.0734672
0.0723562
0.0682367
0.0640106
-0.1004
-0.0950712
-0.0750785
-0.0473676
-0.0191121
0.00628866
0.0277914
0.0454616
0.0597736
0.0712723
0.0804483
0.0877087
0.0933766
0.0977121
0.100978
0.103467
0.105143
0.104952
0.102633
0.1069
-0.0441124
-0.0402092
-0.0219462
0.00347849
0.0291026
0.0518269
0.0707853
0.0861192
0.0983244
0.107943
0.115457
0.121264
0.125685
0.128989
0.131457
0.133364
0.134687
0.134923
0.135029
0.141499
0.0125948
0.0150259
0.0314127
0.0543872
0.0772477
0.0971997
0.113544
0.126486
0.136537
0.144232
0.150038
0.154341
0.157456
0.159649
0.161185
0.162294
0.162947
0.162835
0.162926
0.168185
0.0692462
0.0701721
0.0845635
0.104959
0.124959
0.142072
0.155755
0.166268
0.174129
0.179859
0.183908
0.186642
0.188362
0.189321
0.18976
0.189886
0.189686
0.188923
0.188395
0.192035
0.125371
0.124773
0.137079
0.154804
0.171881
0.186121
0.197122
0.205192
0.210847
0.214592
0.216853
0.217978
0.218244
0.217884
0.217113
0.216105
0.214837
0.213101
0.211631
0.213774
0.180507
0.178381
0.188542
0.203543
0.217673
0.229037
0.237364
0.243
0.246455
0.248215
0.248681
0.248177
0.24696
0.245239
0.243207
0.241008
0.238604
0.235811
0.233325
0.234035
0.234207
0.230564
0.238552
0.250813
0.262008
0.270525
0.276215
0.279452
0.280738
0.280535
0.279222
0.277097
0.274394
0.271303
0.267992
0.264581
0.261021
0.257158
0.253656
0.253015
0.286038
0.280905
0.286722
0.296266
0.304574
0.310306
0.313423
0.314322
0.313493
0.311375
0.308321
0.304607
0.300446
0.296006
0.291435
0.286832
0.282143
0.277241
0.272753
0.270831
0.335588
0.329008
0.332688
0.339572
0.345076
0.348116
0.348752
0.347398
0.344531
0.340567
0.335834
0.330585
0.325013
0.319268
0.31348
0.307727
0.301958
0.296069
0.290641
0.287506
0.382468
0.374498
0.376105
0.380421
0.383237
0.383707
0.381979
0.378481
0.373675
0.367953
0.361621
0.35491
0.347994
0.341008
0.334062
0.327221
0.320434
0.313622
0.307304
0.303028
0.426313
0.417025
0.41665
0.418525
0.418798
0.416847
0.412896
0.407383
0.400756
0.393383
0.385549
0.377465
0.369289
0.361137
0.353107
0.34525
0.33752
0.329852
0.322703
0.317358
0.466782
0.456265
0.454025
0.453615
0.45152
0.44732
0.441308
0.43393
0.425616
0.416715
0.407491
0.398137
0.388794
0.379567
0.370536
0.361744
0.35315
0.344701
0.336783
0.330449
0.503567
0.491919
0.487958
0.485446
0.481182
0.474929
0.467038
0.457959
0.448109
0.437816
0.427327
0.416817
0.406414
0.396209
0.38627
0.376632
0.367257
0.358104
0.349487
0.342248
0.536385
0.52372
0.518203
0.513796
0.507585
0.499493
0.489922
0.479323
0.468101
0.456565
0.444946
0.433405
0.422056
0.410979
0.400231
0.38984
0.379774
0.369997
0.360753
0.352703
0.564989
0.55143
0.544541
0.53847
0.530554
0.520854
0.509816
0.497891
0.485471
0.472852
0.460247
0.447807
0.435634
0.423797
0.412346
0.401301
0.390635
0.380317
0.370526
0.361765
0.589162
0.574843
0.566783
0.559297
0.549934
0.538873
0.526592
0.513546
0.500113
0.486578
0.473141
0.459941
0.447071
0.434594
0.422549
0.410952
0.399783
0.38901
0.378753
0.369387
0.608722
0.593784
0.584771
0.576133
0.565596
0.553431
0.540145
0.526191
0.511938
0.497661
0.48355
0.469736
0.456303
0.443308
0.430783
0.418741
0.407165
0.396025
0.38539
0.375533
0.623522
0.608114
0.598375
0.588863
0.577435
0.564434
0.550386
0.535745
0.520872
0.506034
0.491413
0.477134
0.463276
0.449888
0.437
0.424622
0.41274
0.401322
0.3904
0.38017
0.63345
0.617726
0.607498
0.597398
0.585372
0.57181
0.557251
0.542148
0.526859
0.511644
0.496682
0.482091
0.467947
0.454297
0.441166
0.428562
0.416474
0.40487
0.393756
0.383274
0.638433
0.622549
0.612076
0.60168
0.589353
0.575509
0.560694
0.54536
0.529862
0.514458
0.499324
0.484576
0.470289
0.456508
0.443254
0.430538
0.418347
0.40665
0.395438
0.38483
0.638432
0.622549
0.612076
0.60168
0.589353
0.575509
0.560694
0.545359
0.529862
0.514458
0.499323
0.484576
0.470289
0.456507
0.443254
0.430537
0.418346
0.406649
0.395437
0.384829
0.633449
0.617725
0.607498
0.597397
0.585371
0.571809
0.55725
0.542147
0.526858
0.511643
0.49668
0.482089
0.467945
0.454295
0.441164
0.42856
0.416472
0.404869
0.393754
0.383272
0.62352
0.608112
0.598373
0.588861
0.577433
0.564432
0.550384
0.535743
0.52087
0.506031
0.491411
0.477131
0.463273
0.449886
0.436998
0.424619
0.412737
0.401319
0.390397
0.380167
0.60872
0.593782
0.584769
0.576131
0.565594
0.553429
0.540142
0.526188
0.511935
0.497658
0.483546
0.469732
0.456299
0.443304
0.430779
0.418737
0.407161
0.39602
0.385386
0.375529
0.58916
0.57484
0.566781
0.559294
0.549931
0.538869
0.526589
0.513542
0.500109
0.486573
0.473136
0.459936
0.447066
0.434589
0.422543
0.410947
0.399777
0.389004
0.378747
0.369382
0.564986
0.551427
0.544537
0.538466
0.53055
0.52085
0.509811
0.497886
0.485465
0.472846
0.460241
0.447801
0.435627
0.423791
0.412339
0.401294
0.390629
0.38031
0.370519
0.361758
0.536381
0.523716
0.518198
0.513791
0.50758
0.499488
0.489916
0.479317
0.468094
0.456558
0.444939
0.433398
0.422048
0.410971
0.400223
0.389832
0.379766
0.369989
0.360745
0.352695
0.503562
0.491914
0.487953
0.48544
0.481175
0.474922
0.467031
0.457952
0.448101
0.437808
0.427318
0.416809
0.406406
0.3962
0.386261
0.376622
0.367248
0.358094
0.349477
0.342239
0.466776
0.456258
0.454018
0.453608
0.451512
0.447312
0.4413
0.433921
0.425606
0.416705
0.407481
0.398127
0.388784
0.379557
0.370526
0.361734
0.353139
0.34469
0.336773
0.330438
0.426305
0.417017
0.416642
0.418516
0.418789
0.416838
0.412886
0.407373
0.400745
0.393372
0.385537
0.377454
0.369277
0.361125
0.353095
0.345238
0.337507
0.32984
0.322691
0.317346
0.382459
0.374489
0.376095
0.380411
0.383226
0.383696
0.381968
0.378469
0.373663
0.36794
0.361608
0.354897
0.347981
0.340995
0.334048
0.327207
0.320421
0.313608
0.30729
0.303014
0.335577
0.328996
0.332676
0.339559
0.345063
0.348103
0.348739
0.347384
0.344517
0.340553
0.335819
0.33057
0.324998
0.319253
0.313465
0.307712
0.301943
0.296054
0.290626
0.287491
0.286024
0.280891
0.286708
0.296251
0.304559
0.310291
0.313408
0.314306
0.313477
0.311359
0.308305
0.304591
0.300429
0.295989
0.291419
0.286815
0.282126
0.277224
0.272737
0.270815
0.234191
0.230547
0.238535
0.250796
0.261991
0.270508
0.276197
0.279434
0.28072
0.280517
0.279203
0.277078
0.274376
0.271285
0.267974
0.264563
0.261003
0.257139
0.253638
0.252997
0.180488
0.178361
0.188523
0.203524
0.217654
0.229017
0.237344
0.24298
0.246435
0.248194
0.248661
0.248157
0.246939
0.245219
0.243187
0.240988
0.238584
0.235791
0.233305
0.234015
0.125348
0.12475
0.137056
0.154782
0.171859
0.186099
0.1971
0.20517
0.210825
0.214569
0.216831
0.217956
0.218222
0.217862
0.217091
0.216083
0.214815
0.213079
0.21161
0.213753
0.0692199
0.0701455
0.0845374
0.104934
0.124933
0.142047
0.155729
0.166243
0.174104
0.179834
0.183882
0.186617
0.188337
0.189296
0.189736
0.189862
0.189662
0.188899
0.188371
0.192012
0.0125645
0.0149953
0.0313828
0.054358
0.077219
0.0971714
0.113515
0.126458
0.136509
0.144204
0.15001
0.154314
0.157429
0.159622
0.161158
0.162267
0.162922
0.162809
0.162901
0.16816
-0.0441471
-0.0402441
-0.0219802
0.00344546
0.0290703
0.0517952
0.0707539
0.0860881
0.0982935
0.107913
0.115427
0.121234
0.125655
0.12896
0.131428
0.133335
0.134659
0.134895
0.135001
0.141472
-0.100439
-0.0951108
-0.075117
-0.0474048
-0.0191482
0.00625323
0.0277565
0.0454272
0.0597397
0.0712388
0.0804153
0.0876761
0.0933445
0.0976805
0.100946
0.103437
0.105112
0.104922
0.102604
0.106871
-0.155835
-0.149142
-0.12759
-0.0977887
-0.0670657
-0.0391116
-0.0151554
0.00478185
0.0211444
0.0344726
0.0452596
0.0539108
0.0607365
0.0659576
0.0697495
0.0722762
0.0734344
0.0723237
0.0682043
0.0639783
-0.209875
-0.201884
-0.178966
-0.147304
-0.114311
-0.0839544
-0.0576559
-0.0355335
-0.0171802
-0.00206324
0.0103135
0.0203605
0.0283935
0.0346366
0.0392529
0.0423897
0.0440824
0.0439553
0.0414966
0.0377087
-0.262102
-0.252894
-0.228822
-0.195554
-0.160518
-0.127935
-0.099423
-0.0752068
-0.0549221
-0.038044
-0.0240677
-0.012565
-0.00319342
0.00430957
0.010147
0.0145004
0.0175299
0.0192781
0.0195899
0.0181428
-0.312084
-0.301746
-0.276748
-0.242157
-0.205333
-0.170725
-0.14015
-0.113947
-0.0918006
-0.0731977
-0.0576238
-0.0446308
-0.0338483
-0.0249774
-0.0177782
-0.0120465
-0.00757656
-0.00414048
-0.00166568
-0.000865521
-0.359417
-0.348044
-0.322358
-0.286747
-0.24842
-0.212019
-0.179555
-0.151493
-0.127576
-0.10731
-0.0901747
-0.0757068
-0.0635153
-0.0532766
-0.0447258
-0.0376417
-0.0317997
-0.0269115
-0.0228418
-0.0204012
-0.403732
-0.391425
-0.365296
-0.328989
-0.28947
-0.251533
-0.217383
-0.187614
-0.162044
-0.140202
-0.121572
-0.105681
-0.0921225
-0.080557
-0.0707026
-0.0623244
-0.0551838
-0.0489718
-0.0435751
-0.0399411
-0.444704
-0.431564
-0.40524
-0.368573
-0.328197
-0.289012
-0.253403
-0.222109
-0.195025
-0.17172
-0.151687
-0.134449
-0.119592
-0.106765
-0.0956755
-0.0860816
-0.077736
-0.0703162
-0.063727
-0.0590559
-0.482054
-0.468187
-0.441911
-0.405227
-0.364349
-0.324227
-0.287416
-0.254798
-0.226365
-0.201731
-0.180408
-0.161924
-0.14586
-0.13186
-0.119626
-0.108912
-0.0994687
-0.090964
-0.0832948
-0.0776247
-0.515559
-0.501069
-0.475073
-0.438715
-0.397705
-0.356981
-0.319246
-0.285532
-0.255934
-0.230126
-0.207647
-0.188036
-0.170876
-0.155808
-0.142533
-0.130804
-0.120372
-0.110903
-0.102273
-0.0956566
-0.545054
-0.530042
-0.504543
-0.468847
-0.42808
-0.387105
-0.348747
-0.314184
-0.283625
-0.256815
-0.23333
-0.212726
-0.194592
-0.178574
-0.164371
-0.151735
-0.140423
-0.130105
-0.120634
-0.113159
-0.570432
-0.554997
-0.530191
-0.495475
-0.455326
-0.414464
-0.375799
-0.340651
-0.309352
-0.281727
-0.257398
-0.235945
-0.21697
-0.200125
-0.185109
-0.171679
-0.159597
-0.14854
-0.13834
-0.1301
-0.591653
-0.57589
-0.551945
-0.5185
-0.479335
-0.438953
-0.40031
-0.364857
-0.333051
-0.304808
-0.279805
-0.257655
-0.237977
-0.220431
-0.204723
-0.19061
-0.177864
-0.166173
-0.155348
-0.146429
-0.608738
-0.592738
-0.569792
-0.537877
-0.50004
-0.460501
-0.422215
-0.386746
-0.354676
-0.32602
-0.300522
-0.27783
-0.257589
-0.239471
-0.223189
-0.208506
-0.195199
-0.182972
-0.171618
-0.162099
-0.621772
-0.605623
-0.583779
-0.553609
-0.517416
-0.479071
-0.441477
-0.406285
-0.374201
-0.345344
-0.319532
-0.296458
-0.275796
-0.257234
-0.240496
-0.225349
-0.211583
-0.198915
-0.187121
-0.177078
-0.6309
-0.614686
-0.594015
-0.565757
-0.531484
-0.494662
-0.458085
-0.423465
-0.39162
-0.362778
-0.336834
-0.313538
-0.292595
-0.273715
-0.256636
-0.241133
-0.227004
-0.213984
-0.201838
-0.19135
-0.636323
-0.620128
-0.600664
-0.574431
-0.542306
-0.507305
-0.472059
-0.4383
-0.406947
-0.378333
-0.352442
-0.329082
-0.307997
-0.288925
-0.271618
-0.25586
-0.241462
-0.228177
-0.215762
-0.204904
-0.638293
-0.622201
-0.603947
-0.579798
-0.549994
-0.51707
-0.483442
-0.450823
-0.420211
-0.39204
-0.366383
-0.343115
-0.322026
-0.302882
-0.285455
-0.269543
-0.254966
-0.241497
-0.228892
-0.21774
-0.637108
-0.621202
-0.604135
-0.582073
-0.554699
-0.52406
-0.492308
-0.461091
-0.43146
-0.403942
-0.378699
-0.355677
-0.334716
-0.315617
-0.298175
-0.282202
-0.267532
-0.253958
-0.241239
-0.229866
-0.6331
-0.617464
-0.601538
-0.581514
-0.556619
-0.528416
-0.498755
-0.469179
-0.440757
-0.414095
-0.389441
-0.366814
-0.34611
-0.327169
-0.309812
-0.29387
-0.279188
-0.265582
-0.252819
-0.241296
-0.626628
-0.611348
-0.596502
-0.578422
-0.555988
-0.53031
-0.50291
-0.475182
-0.448181
-0.422569
-0.398673
-0.376586
-0.356264
-0.337588
-0.320411
-0.304585
-0.289968
-0.2764
-0.263659
-0.252055
-0.618066
-0.603227
-0.589393
-0.573127
-0.553077
-0.529947
-0.504925
-0.479215
-0.453823
-0.429441
-0.406465
-0.385059
-0.365238
-0.34693
-0.330024
-0.314393
-0.299916
-0.286449
-0.273792
-0.26217
-0.607796
-0.593485
-0.580591
-0.565983
-0.548187
-0.527565
-0.504975
-0.48141
-0.457786
-0.4348
-0.412896
-0.392304
-0.373099
-0.355259
-0.338709
-0.323349
-0.309077
-0.295773
-0.283255
-0.271678
-0.596196
-0.582494
-0.570472
-0.557352
-0.541637
-0.523422
-0.50326
-0.481916
-0.460185
-0.438738
-0.418048
-0.398397
-0.379918
-0.36264
-0.346527
-0.331509
-0.317506
-0.304419
-0.292093
-0.280618
-0.583626
-0.570611
-0.559401
-0.547597
-0.533761
-0.517798
-0.499999
-0.480899
-0.461147
-0.441357
-0.422006
-0.403415
-0.385767
-0.36914
-0.353541
-0.338933
-0.325257
-0.312438
-0.300349
-0.289031
-0.570426
-0.558169
-0.547721
-0.537066
-0.524892
-0.510987
-0.495429
-0.478539
-0.460808
-0.442762
-0.424857
-0.407434
-0.390717
-0.374829
-0.359817
-0.345679
-0.332385
-0.319881
-0.30807
-0.296955
-0.556907
-0.545465
-0.535741
-0.526085
-0.515353
-0.503282
-0.489797
-0.475032
-0.459314
-0.443063
-0.426688
-0.410529
-0.394835
-0.379768
-0.365415
-0.351808
-0.338944
-0.326798
-0.315299
-0.304429
-0.54334
-0.532761
-0.523734
-0.514946
-0.505446
-0.494973
-0.483357
-0.470581
-0.456821
-0.442377
-0.427588
-0.412771
-0.398185
-0.384018
-0.370391
-0.357371
-0.344985
-0.333234
-0.322077
-0.311487
-0.529961
-0.520279
-0.511928
-0.503902
-0.495444
-0.486334
-0.476359
-0.465397
-0.453492
-0.440823
-0.427645
-0.414229
-0.400824
-0.38763
-0.374796
-0.362418
-0.350555
-0.339232
-0.32844
-0.318155
-0.516964
-0.508195
-0.500509
-0.493158
-0.485577
-0.47761
-0.469041
-0.45969
-0.449498
-0.438532
-0.426953
-0.41497
-0.402803
-0.390649
-0.378671
-0.366991
-0.355692
-0.344827
-0.334418
-0.324454
-0.504502
-0.49665
-0.489617
-0.482877
-0.476036
-0.469013
-0.461624
-0.453665
-0.445011
-0.435635
-0.425607
-0.415062
-0.404172
-0.393114
-0.382052
-0.371121
-0.360429
-0.350052
-0.340039
-0.330399
-0.492689
-0.485742
-0.479351
-0.473173
-0.466964
-0.460716
-0.454296
-0.447511
-0.440201
-0.432272
-0.42371
-0.414575
-0.404977
-0.395058
-0.384965
-0.374837
-0.364793
-0.354932
-0.345325
-0.336005
-0.481609
-0.475541
-0.469777
-0.464122
-0.458458
-0.452847
-0.447212
-0.441395
-0.43523
-0.428582
-0.421372
-0.413586
-0.40527
-0.396514
-0.387435
-0.378158
-0.368807
-0.359491
-0.350302
-0.341289
-0.471315
-0.466087
-0.460928
-0.455762
-0.450578
-0.445493
-0.44049
-0.435458
-0.430246
-0.424703
-0.418707
-0.412182
-0.405108
-0.397517
-0.389483
-0.381103
-0.372489
-0.363754
-0.355001
-0.346286
-0.461841
-0.457402
-0.452816
-0.448108
-0.44335
-0.438706
-0.434212
-0.429808
-0.425375
-0.420766
-0.415833
-0.410457
-0.404559
-0.398111
-0.391135
-0.383688
-0.375857
-0.367745
-0.359458
-0.351049
-0.453208
-0.449492
-0.44544
-0.441154
-0.436778
-0.432508
-0.428429
-0.424529
-0.420726
-0.41689
-0.41287
-0.408516
-0.403704
-0.398352
-0.392425
-0.385933
-0.378928
-0.37149
-0.36372
-0.355672
-0.445431
-0.442359
-0.438789
-0.434889
-0.430853
-0.426907
-0.423172
-0.419679
-0.416385
-0.413185
-0.409934
-0.406471
-0.402639
-0.39831
-0.393397
-0.387862
-0.381712
-0.374999
-0.367814
-0.36024
-0.438518
-0.435995
-0.43285
-0.429295
-0.425566
-0.421903
-0.418461
-0.415305
-0.412427
-0.409749
-0.407141
-0.404441
-0.401473
-0.398075
-0.394113
-0.389503
-0.384211
-0.378258
-0.371732
-0.364877
-0.432466
-0.430388
-0.427605
-0.424358
-0.420905
-0.417499
-0.414315
-0.411449
-0.408919
-0.406674
-0.404603
-0.402548
-0.400328
-0.397753
-0.394654
-0.390899
-0.386414
-0.381196
-0.375341
-0.369476
-0.427263
-0.425514
-0.423032
-0.420058
-0.416861
-0.413697
-0.410755
-0.40815
-0.405925
-0.404049
-0.402429
-0.40092
-0.399336
-0.397473
-0.395127
-0.39212
-0.388323
-0.383686
-0.378335
-0.373789
-0.422867
-0.421332
-0.419092
-0.416367
-0.413417
-0.410495
-0.407796
-0.405447
-0.403504
-0.401956
-0.400726
-0.39968
-0.398637
-0.397381
-0.395679
-0.393297
-0.390026
-0.385676
-0.380208
-0.376464
-0.419208
-0.417777
-0.415729
-0.413239
-0.410539
-0.407875
-0.405437
-0.403357
-0.401699
-0.400462
-0.399583
-0.398941
-0.398362
-0.397627
-0.396477
-0.394615
-0.391704
-0.387272
-0.380252
-0.37115
-0.416178
-0.414758
-0.412864
-0.410604
-0.408172
-0.405794
-0.403653
-0.401874
-0.400522
-0.399603
-0.399061
-0.398789
-0.398628
-0.398374
-0.397772
-0.396527
-0.394317
-0.390755
-0.385005
-0.377515
-0.413635
-0.41216
-0.410396
-0.408373
-0.406232
-0.404179
-0.402381
-0.400949
-0.399943
-0.399366
-0.399169
-0.399257
-0.39949
-0.399686
-0.399625
-0.399054
-0.397709
-0.395275
-0.391068
-0.385845
-0.411411
-0.409848
-0.408208
-0.406434
-0.404616
-0.402933
-0.401527
-0.400496
-0.399883
-0.399685
-0.399856
-0.400308
-0.400916
-0.401526
-0.401951
-0.401982
-0.401403
-0.399935
-0.397012
-0.393729
-0.409325
-0.407681
-0.406174
-0.404671
-0.403207
-0.401933
-0.40097
-0.400388
-0.400216
-0.40044
-0.401009
-0.401837
-0.402816
-0.403808
-0.404659
-0.4052
-0.405261
-0.404608
-0.402848
-0.401187
-0.407194
-0.405517
-0.40417
-0.402961
-0.40188
-0.401051
-0.400567
-0.400475
-0.400783
-0.401463
-0.402456
-0.403678
-0.405027
-0.406382
-0.407614
-0.408587
-0.409172
-0.409189
-0.408421
-0.407967
-0.404853
-0.403226
-0.402081
-0.401191
-0.400515
-0.400152
-0.400169
-0.400588
-0.401396
-0.40255
-0.403983
-0.405607
-0.407324
-0.409025
-0.410599
-0.411936
-0.412932
-0.41346
-0.413448
-0.413755
-0.402162
-0.400696
-0.399805
-0.399256
-0.398998
-0.399107
-0.399626
-0.400553
-0.401858
-0.403482
-0.405347
-0.407364
-0.409435
-0.411458
-0.413334
-0.414968
-0.416275
-0.417168
-0.417681
-0.418365
-0.399022
-0.397846
-0.397263
-0.397073
-0.397232
-0.3978
-0.398799
-0.400209
-0.401981
-0.404043
-0.406311
-0.408689
-0.41108
-0.413386
-0.415516
-0.417385
-0.418914
-0.420051
-0.4209
-0.421686
-0.395378
-0.394625
-0.394402
-0.394579
-0.395141
-0.396138
-0.397576
-0.399419
-0.401606
-0.404053
-0.406669
-0.409356
-0.412015
-0.414552
-0.416879
-0.418917
-0.420592
-0.421883
-0.422931
-0.423643
-0.391233
-0.391027
-0.391206
-0.391747
-0.392686
-0.394068
-0.395887
-0.398098
-0.400629
-0.403391
-0.406285
-0.409212
-0.412074
-0.414778
-0.41724
-0.419382
-0.421137
-0.422514
-0.42367
-0.42421
-0.386643
-0.387089