/*--------------------------------*- C++ -*----------------------------------*\
  =========                 |
  \\      /  F ield         | OpenFOAM: The Open Source CFD Toolbox
   \\    /   O peration     | Website:  https://openfoam.org
    \\  /    A nd           | Version:  6.0
     \\/     M anipulation  |
\*---------------------------------------------------------------------------*/
FoamFile
{
    version     2.0;
    format      ascii;
    class       volScalarField;
    location    "5.4";
    object      p;
}
// * * * * * * * * * * * * * * * * * * * * * * * * * * * * * * * * * * * * * //

dimensions      [0 2 -2 0 0 0 0];

internalField   nonuniform List<scalar> 
8000
(
-0.338977
-0.342658
-0.344907
-0.346602
-0.348255
-0.349969
-0.351793
-0.35375
-0.355833
-0.358019
-0.36028
-0.362585
-0.3649
-0.367197
-0.36945
-0.371641
-0.37373
-0.375613
-0.377326
-0.379676
-0.339765
-0.343325
-0.345514
-0.347175
-0.348807
-0.350505
-0.35232
-0.354271
-0.356352
-0.358539
-0.360803
-0.363114
-0.365437
-0.367742
-0.370005
-0.372207
-0.374308
-0.376203
-0.377921
-0.380274
-0.341306
-0.344631
-0.346701
-0.348298
-0.349883
-0.35155
-0.353344
-0.355282
-0.357357
-0.359544
-0.361813
-0.364132
-0.366468
-0.368789
-0.371069
-0.373289
-0.375412
-0.377329
-0.379055
-0.381415
-0.343511
-0.3465
-0.348399
-0.349899
-0.351414
-0.353031
-0.354789
-0.356704
-0.358764
-0.360944
-0.363213
-0.365539
-0.367886
-0.370222
-0.372521
-0.374763
-0.376912
-0.378856
-0.380593
-0.38296
-0.34626
-0.348832
-0.350513
-0.351884
-0.353305
-0.354849
-0.356552
-0.358426
-0.360455
-0.362615
-0.364872
-0.367193
-0.369542
-0.371887
-0.374198
-0.376456
-0.378628
-0.380599
-0.382346
-0.384719
-0.349408
-0.351506
-0.352931
-0.354146
-0.355443
-0.356889
-0.358512
-0.36032
-0.362297
-0.364414
-0.366639
-0.368935
-0.371268
-0.373604
-0.375912
-0.378173
-0.380356
-0.382347
-0.3841
-0.386477
-0.352803
-0.354396
-0.355537
-0.356569
-0.357715
-0.359032
-0.360545
-0.362257
-0.364149
-0.366194
-0.368356
-0.3706
-0.372889
-0.375189
-0.37747
-0.379712
-0.381888
-0.383885
-0.385634
-0.388014
-0.356297
-0.35738
-0.358223
-0.359048
-0.360014
-0.36117
-0.362537
-0.364115
-0.365885
-0.367818
-0.36988
-0.372034
-0.374245
-0.376476
-0.378698
-0.380892
-0.383034
-0.385016
-0.38675
-0.38913
-0.359756
-0.360352
-0.360893
-0.361492
-0.36225
-0.36321
-0.364393
-0.365795
-0.367399
-0.369178
-0.371096
-0.373118
-0.375208
-0.377331
-0.379456
-0.381567
-0.383643
-0.385583
-0.387286
-0.389667
-0.363071
-0.363227
-0.363474
-0.363833
-0.364357
-0.365088
-0.366045
-0.367229
-0.368622
-0.370199
-0.371927
-0.373772
-0.375697
-0.377669
-0.379658
-0.381647
-0.383621
-0.385487
-0.387136
-0.389518
-0.366166
-0.365947
-0.365917
-0.366028
-0.366297
-0.366767
-0.367461
-0.368383
-0.369521
-0.370852
-0.372346
-0.37397
-0.375688
-0.377468
-0.379279
-0.381105
-0.382938
-0.384691
-0.386252
-0.388629
-0.368999
-0.368481
-0.368201
-0.368061
-0.368059
-0.368241
-0.368639
-0.369262
-0.370106
-0.371152
-0.372373
-0.373738
-0.375213
-0.376763
-0.378359
-0.379983
-0.381631
-0.383222
-0.384642
-0.386985
-0.371565
-0.37083
-0.370328
-0.36994
-0.369656
-0.36953
-0.369606
-0.369902
-0.370422
-0.371153
-0.372074
-0.373154
-0.374358
-0.375651
-0.377
-0.378384
-0.379797
-0.381162
-0.382354
-0.384586
-0.373892
-0.373019
-0.372327
-0.371696
-0.371124
-0.370679
-0.370416
-0.370367
-0.370545
-0.370946
-0.37155
-0.37233
-0.37325
-0.374269
-0.375347
-0.376455
-0.377579
-0.378633
-0.37946
-0.381426
-0.376043
-0.3751
-0.374244
-0.373378
-0.372517
-0.371748
-0.371141
-0.370741
-0.370573
-0.370638
-0.370925
-0.371404
-0.372037
-0.372775
-0.373566
-0.374364
-0.375138
-0.375775
-0.376049
-0.377485
-0.378108
-0.377145
-0.376144
-0.375049
-0.373904
-0.372814
-0.371866
-0.37112
-0.370611
-0.370351
-0.370329
-0.370517
-0.370869
-0.371327
-0.37182
-0.372275
-0.37263
-0.37273
-0.372232
-0.372769
-0.380197
-0.379241
-0.378106
-0.376786
-0.375362
-0.373959
-0.372681
-0.371603
-0.370771
-0.370201
-0.369888
-0.369799
-0.369881
-0.370061
-0.370243
-0.370319
-0.370185
-0.369635
-0.368166
-0.367375
-0.382435
-0.381486
-0.380215
-0.378672
-0.376976
-0.375273
-0.373682
-0.372292
-0.371157
-0.3703
-0.369714
-0.369363
-0.369183
-0.369082
-0.368934
-0.368588
-0.367881
-0.366554
-0.363923
-0.36134
-0.384952
-0.383985
-0.382564
-0.380794
-0.378832
-0.376842
-0.374958
-0.373279
-0.371865
-0.370742
-0.369901
-0.369301
-0.368868
-0.368491
-0.368016
-0.367244
-0.365933
-0.363702
-0.359599
-0.354616
-0.387875
-0.386839
-0.385242
-0.383237
-0.381011
-0.378747
-0.37659
-0.374643
-0.37297
-0.371599
-0.370517
-0.36968
-0.369008
-0.368389
-0.367671
-0.366659
-0.3651
-0.362512
-0.357637
-0.351146
-0.391317
-0.390141
-0.388331
-0.386076
-0.383587
-0.381057
-0.37864
-0.376442
-0.374526
-0.372915
-0.371595
-0.370517
-0.369607
-0.368764
-0.36788
-0.366847
-0.365591
-0.364062
-0.362508
-0.364967
-0.395374
-0.393971
-0.391902
-0.389377
-0.386617
-0.383825
-0.381156
-0.378715
-0.376559
-0.374705
-0.373132
-0.371788
-0.370598
-0.369475
-0.368337
-0.367121
-0.365818
-0.364492
-0.363423
-0.364868
-0.400118
-0.398394
-0.396015
-0.393192
-0.390147
-0.387088
-0.384168
-0.381481
-0.379077
-0.376961
-0.375102
-0.373442
-0.371905
-0.370411
-0.36889
-0.3673
-0.365639
-0.363962
-0.362412
-0.361884
-0.405604
-0.40346
-0.400715
-0.397563
-0.394213
-0.390874
-0.387691
-0.384746
-0.38207
-0.379655
-0.377457
-0.375407
-0.373427
-0.371442
-0.369389
-0.367228
-0.364952
-0.362577
-0.360179
-0.357972
-0.411865
-0.409207
-0.406039
-0.402522
-0.398842
-0.395204
-0.391738
-0.388506
-0.385518
-0.382745
-0.380129
-0.377592
-0.375055
-0.372447
-0.369714
-0.366825
-0.36377
-0.360552
-0.357225
-0.353692
-0.418925
-0.415663
-0.412016
-0.4081
-0.404062
-0.400098
-0.396317
-0.392752
-0.389389
-0.386176
-0.383038
-0.379895
-0.376671
-0.373308
-0.369769
-0.36604
-0.362124
-0.358034
-0.353825
-0.34933
-0.426796
-0.422849
-0.418674
-0.414324
-0.409898
-0.405573
-0.40143
-0.397468
-0.393642
-0.389877
-0.386091
-0.382206
-0.378161
-0.373921
-0.369476
-0.364836
-0.36003
-0.35509
-0.350072
-0.344836
-0.435483
-0.430779
-0.426034
-0.421221
-0.416373
-0.411643
-0.407072
-0.402621
-0.398214
-0.39376
-0.389178
-0.384406
-0.379411
-0.374191
-0.368768
-0.363185
-0.357491
-0.35174
-0.345989
-0.34015
-0.44498
-0.439459
-0.434111
-0.428807
-0.4235
-0.418303
-0.413215
-0.408154
-0.403019
-0.397716
-0.392179
-0.386377
-0.380317
-0.374038
-0.367596
-0.361061
-0.354502
-0.347982
-0.341555
-0.335176
-0.45527
-0.448883
-0.442907
-0.437087
-0.431273
-0.425528
-0.419803
-0.413979
-0.407943
-0.401614
-0.394961
-0.388
-0.380786
-0.373396
-0.365921
-0.358448
-0.351054
-0.343807
-0.336748
-0.329856
-0.466314
-0.459027
-0.452406
-0.446041
-0.439656
-0.433257
-0.426745
-0.419976
-0.412845
-0.405311
-0.397394
-0.389167
-0.380735
-0.372214
-0.363714
-0.355332
-0.347144
-0.339208
-0.33155
-0.324158
-0.478049
-0.469839
-0.462563
-0.455617
-0.448579
-0.441388
-0.433906
-0.425987
-0.417563
-0.408652
-0.399346
-0.389778
-0.380099
-0.370451
-0.360955
-0.351704
-0.342765
-0.33418
-0.325953
-0.318073
-0.49038
-0.481241
-0.473301
-0.465728
-0.457925
-0.449773
-0.441113
-0.431828
-0.421917
-0.411482
-0.400693
-0.389743
-0.378817
-0.36807
-0.357623
-0.347553
-0.337909
-0.328715
-0.31995
-0.311602
-0.503173
-0.493115
-0.484504
-0.476237
-0.467533
-0.458221
-0.448157
-0.437292
-0.425721
-0.413648
-0.401321
-0.388982
-0.376836
-0.36504
-0.353695
-0.342861
-0.332562
-0.322801
-0.313531
-0.304744
-0.516254
-0.505305
-0.496013
-0.486964
-0.477192
-0.4665
-0.454803
-0.442159
-0.42879
-0.415005
-0.401123
-0.387421
-0.374107
-0.361321
-0.349143
-0.337603
-0.326703
-0.316421
-0.306683
-0.297494
-0.52941
-0.517612
-0.50762
-0.497681
-0.486649
-0.474346
-0.460795
-0.446206
-0.430941
-0.415415
-0.400001
-0.384989
-0.370576
-0.356874
-0.343931
-0.331748
-0.320301
-0.309546
-0.299382
-0.289836
-0.542383
-0.529793
-0.519076
-0.508113
-0.495612
-0.481469
-0.465872
-0.449213
-0.432005
-0.414751
-0.39786
-0.381616
-0.366186
-0.351648
-0.338014
-0.325254
-0.313319
-0.302143
-0.291598
-0.281749
-0.55488
-0.541567
-0.530086
-0.517947
-0.503763
-0.487568
-0.469771
-0.45097
-0.43182
-0.412895
-0.394612
-0.37723
-0.360878
-0.345591
-0.331343
-0.318074
-0.305714
-0.294173
-0.283297
-0.273201
-0.56657
-0.552615
-0.540322
-0.526843
-0.510766
-0.492341
-0.472241
-0.45128
-0.43024
-0.409734
-0.390168
-0.37176
-0.354588
-0.338643
-0.323862
-0.310158
-0.297437
-0.285589
-0.274438
-0.264156
-0.577101
-0.562588
-0.549424
-0.534437
-0.516281
-0.495493
-0.473047
-0.449965
-0.427129
-0.405166
-0.384446
-0.365132
-0.34725
-0.330745
-0.315516
-0.301451
-0.288439
-0.276348
-0.26498
-0.254576
-0.586097
-0.571117
-0.557017
-0.540363
-0.519974
-0.496748
-0.471973
-0.446863
-0.422365
-0.399094
-0.377363
-0.357275
-0.338799
-0.321834
-0.306247
-0.291903
-0.278673
-0.266404
-0.254881
-0.244424
-0.593175
-0.57782
-0.562718
-0.544254
-0.52153
-0.495852
-0.468827
-0.44183
-0.41584
-0.391429
-0.368845
-0.348121
-0.32917
-0.311851
-0.296001
-0.281462
-0.268091
-0.255714
-0.244102
-0.233663
-0.597955
-0.582315
-0.566151
-0.545768
-0.520659
-0.492582
-0.463444
-0.434743
-0.407456
-0.382092
-0.358819
-0.337604
-0.318306
-0.300743
-0.284727
-0.270082
-0.256652
-0.244241
-0.232611
-0.22226
-0.600067
-0.584233
-0.566957
-0.544586
-0.517108
-0.486748
-0.455686
-0.4255
-0.397132
-0.371012
-0.347225
-0.325668
-0.306152
-0.288461
-0.272383
-0.257725
-0.244321
-0.231953
-0.220379
-0.210192
-0.599167
-0.583228
-0.564808
-0.540429
-0.51066
-0.478195
-0.445442
-0.414018
-0.384802
-0.358131
-0.334008
-0.312264
-0.292666
-0.274965
-0.258931
-0.244359
-0.231069
-0.218825
-0.207385
-0.197438
-0.594944
-0.578986
-0.559416
-0.533062
-0.501145
-0.466805
-0.43263
-0.400234
-0.370414
-0.343405
-0.319128
-0.297354
-0.277811
-0.260224
-0.244345
-0.22996
-0.216877
-0.204842
-0.193617
-0.183988
-0.587128
-0.571238
-0.550541
-0.5223
-0.488435
-0.452495
-0.417195
-0.38411
-0.353934
-0.326802
-0.302555
-0.280912
-0.261564
-0.244217
-0.228608
-0.214513
-0.201734
-0.189995
-0.179071
-0.169838
-0.5755
-0.559764
-0.537996
-0.508011
-0.47245
-0.435221
-0.399113
-0.365628
-0.335347
-0.308306
-0.284274
-0.262922
-0.243912
-0.226933
-0.21171
-0.198015
-0.185636
-0.174286
-0.163751
-0.154992
-0.559897
-0.544404
-0.521654
-0.49012
-0.453158
-0.414977
-0.378386
-0.344792
-0.314656
-0.287919
-0.264284
-0.243383
-0.224855
-0.208373
-0.193656
-0.180469
-0.168593
-0.157726
-0.147672
-0.139465
-0.540217
-0.525057
-0.501449
-0.468603
-0.430569
-0.391788
-0.355046
-0.32163
-0.291884
-0.265657
-0.242598
-0.222306
-0.204401
-0.188547
-0.174455
-0.161888
-0.150621
-0.140337
-0.130859
-0.123284
-0.516421
-0.501688
-0.477378
-0.443495
-0.40474
-0.36572
-0.329152
-0.296194
-0.267072
-0.241556
-0.219245
-0.199715
-0.182573
-0.167474
-0.154127
-0.142295
-0.131743
-0.122147
-0.11335
-0.106494
-0.488536
-0.474325
-0.449496
-0.414881
-0.375771
-0.33687
-0.300793
-0.268559
-0.240284
-0.215666
-0.194268
-0.175647
-0.159399
-0.14518
-0.132697
-0.121711
-0.111984
-0.103187
-0.0951824
-0.0891407
-0.456651
-0.443062
-0.41792
-0.382897
-0.3438
-0.305369
-0.270084
-0.238824
-0.211602
-0.188058
-0.167725
-0.150147
-0.134919
-0.121697
-0.11019
-0.10016
-0.091367
-0.0834834
-0.0763913
-0.0712488
-0.42092
-0.408054
-0.382823
-0.347725
-0.309008
-0.271379
-0.237168
-0.207113
-0.181132
-0.158819
-0.139686
-0.123273
-0.109178
-0.0970591
-0.0866329
-0.0776638
-0.0699134
-0.063063
-0.057
-0.0528058
-0.381556
-0.369513
-0.344428
-0.309593
-0.271608
-0.235097
-0.202218
-0.173574
-0.149002
-0.128058
-0.110241
-0.095095
-0.0822251
-0.0713002
-0.0620457
-0.0542338
-0.0476342
-0.0419399
-0.0370167
-0.0338084
-0.338825
-0.327707
-0.303008
-0.268768
-0.23185
-0.196746
-0.165432
-0.138382
-0.115364
-0.0959034
-0.079498
-0.0656982
-0.0541236
-0.0444589
-0.0364463
-0.0298714
-0.0245176
-0.0200961
-0.0164495
-0.0143956
-0.293046
-0.282948
-0.258877
-0.225553
-0.190014
-0.156579
-0.127037
-0.10174
-0.0803958
-0.0625104
-0.0475855
-0.0351856
-0.0249499
-0.0165873
-0.00986485
-0.00458511
-0.000549489
0.00247135
0.00456762
0.00500173
-0.244579
-0.235595
-0.212386
-0.180281
-0.146409
-0.114878
-0.087288
-0.0638767
-0.0443016
-0.0280566
-0.0146516
-0.00366937
0.00522385
0.0122837
0.017707
0.0216689
0.0243242
0.0257153
0.025694
0.0239129
-0.193823
-0.186038
-0.163917
-0.133313
-0.101367
-0.0719482
-0.0464647
-0.0250507
-0.00731955
0.00724429
0.0191237
0.0287193
0.0363394
0.0422022
0.046466
0.0492734
0.0506565
0.0502393
0.0475108
0.0434813
-0.141206
-0.134698
-0.113874
-0.0850294
-0.0552406
-0.0281145
-0.00487254
0.0144475
0.0302706
0.0431213
0.0534806
0.0617451
0.0682186
0.0731172
0.076612
0.0788633
0.0797677
0.0784301
0.0741159
0.0697433
-0.0871786
-0.0820139
-0.06268
-0.0358245
-0.00839383
0.0162836
0.0371676
0.0543072
0.0681582
0.079251
0.0880654
0.0950003
0.100373
0.104439
0.107457
0.109716
0.11118
0.11081
0.108345
0.11244
-0.0321994
-0.0284367
-0.0107646
0.013901
0.0388031
0.0609021
0.0793312
0.094215
0.106032
0.115312
0.122526
0.128065
0.132244
0.135329
0.137595
0.139316
0.140471
0.140562
0.140534
0.146838
0.0232586
0.0255733
0.041436
0.0637442
0.0859804
0.105399
0.121298
0.133866
0.143598
0.151016
0.156579
0.160668
0.16359
0.16561
0.166988
0.167952
0.168477
0.168255
0.168242
0.173364
0.0787219
0.079556
0.0934888
0.113307
0.132774
0.149441
0.162757
0.172967
0.180573
0.186085
0.189945
0.192514
0.194088
0.194916
0.195238
0.195257
0.194963
0.194121
0.193516
0.197052
0.133722
0.133056
0.144967
0.162199
0.178831
0.192705
0.203412
0.211245
0.216705
0.220287
0.22241
0.223416
0.223579
0.223129
0.222278
0.221199
0.21987
0.218086
0.216567
0.218633
0.187797
0.185629
0.195456
0.210043
0.223809
0.234882
0.242984
0.248444
0.25176
0.253407
0.253782
0.253203
0.251923
0.250149
0.248072
0.245834
0.2434
0.240586
0.238077
0.238736
0.240502
0.236841
0.244553
0.256476
0.267382
0.275679
0.281206
0.284324
0.285522
0.285255
0.283894
0.281733
0.279005
0.275895
0.272571
0.269151
0.26559
0.261731
0.25823
0.257563
0.291406
0.286278
0.291875
0.301149
0.309239
0.314816
0.317828
0.318661
0.317792
0.315652
0.312591
0.308879
0.304725
0.300299
0.295744
0.29116
0.286494
0.28162
0.277155
0.275229
0.340096
0.333545
0.337056
0.343735
0.349085
0.35203
0.352615
0.351242
0.34838
0.344434
0.339729
0.334516
0.328984
0.323281
0.317536
0.311828
0.306105
0.300265
0.294879
0.291761
0.386186
0.378266
0.379751
0.383923
0.386645
0.387073
0.385343
0.38187
0.377108
0.371441
0.365171
0.358527
0.351679
0.344761
0.337883
0.331109
0.32439
0.317645
0.311387
0.307146
0.429309
0.420092
0.419639
0.421425
0.421658
0.419714
0.415805
0.410358
0.40381
0.396525
0.388784
0.380794
0.372711
0.364652
0.356711
0.348942
0.341297
0.333715
0.326642
0.32135
0.469127
0.458699
0.456423
0.455972
0.453885
0.449737
0.443807
0.436529
0.428327
0.419544
0.41044
0.401206
0.39198
0.382866
0.373944
0.365258
0.356766
0.348417
0.34059
0.334324
0.505331
0.49379
0.489829
0.48732
0.483107
0.476944
0.469171
0.460225
0.450515
0.440367
0.430021
0.419653
0.409387
0.399314
0.389502
0.379985
0.370728
0.361687
0.353173
0.346018
0.537641
0.525097
0.519611
0.515248
0.509125
0.501158
0.491734
0.481296
0.470239
0.458871
0.447416
0.436036
0.424842
0.413914
0.403308
0.393052
0.383116
0.373463
0.364334
0.356379
0.565808
0.552383
0.545553
0.539558
0.531763
0.522217
0.511352
0.499612
0.487379
0.474947
0.462525
0.450262
0.438259
0.426585
0.415289
0.404391
0.393866
0.383682
0.374014
0.365359
0.589615
0.575441
0.567464
0.560082
0.550866
0.539983
0.527899
0.515057
0.501829
0.488497
0.475257
0.462248
0.449562
0.437259
0.425379
0.41394
0.40292
0.392288
0.382164
0.372914
0.608881
0.594098
0.585186
0.576674
0.566306
0.554339
0.541267
0.527532
0.5135
0.499439
0.485537
0.471925
0.458686
0.445874
0.433523
0.421646
0.410226
0.399234
0.388739
0.379004
0.62346
0.608213
0.59859
0.589221
0.577978
0.56519
0.551369
0.536959
0.522317
0.507705
0.493303
0.479234
0.465576
0.45238
0.439672
0.427465
0.415744
0.404479
0.393702
0.383599
0.63324
0.617681
0.607579
0.597633
0.585803
0.572463
0.55814
0.543276
0.528226
0.513244
0.498506
0.48413
0.470192
0.456738
0.443792
0.431363
0.41944
0.407993
0.397026
0.386675
0.638146
0.622431
0.612088
0.601852
0.589727
0.57611
0.561535
0.546444
0.531188
0.51602
0.501114
0.486585
0.472506
0.458922
0.445856
0.433316
0.421292
0.409753
0.398691
0.388216
0.638143
0.622428
0.612085
0.601848
0.589724
0.576107
0.561532
0.546441
0.531186
0.516018
0.501112
0.486582
0.472504
0.45892
0.445854
0.433314
0.42129
0.409752
0.398689
0.388214
0.633229
0.617671
0.607569
0.597623
0.585793
0.572454
0.558131
0.543268
0.528218
0.513236
0.498498
0.484123
0.470186
0.456731
0.443785
0.431356
0.419434
0.407987
0.39702
0.38667
0.623442
0.608196
0.598573
0.589204
0.577963
0.565175
0.551355
0.536945
0.522304
0.507692
0.493291
0.479222
0.465565
0.452369
0.439662
0.427454
0.415734
0.40447
0.393692
0.38359
0.608857
0.594073
0.585162
0.576652
0.566285
0.554319
0.541247
0.527513
0.513482
0.499421
0.485521
0.471908
0.45867
0.445859
0.433508
0.421631
0.410212
0.399221
0.388725
0.378991
0.589583
0.57541
0.567434
0.560053
0.550838
0.539957
0.527873
0.515032
0.501806
0.488474
0.475236
0.462227
0.449542
0.437239
0.42536
0.413921
0.402901
0.392271
0.382147
0.372897
0.565768
0.552344
0.545516
0.539523
0.531729
0.522184
0.511321
0.499582
0.487351
0.474919
0.462498
0.450236
0.438234
0.426561
0.415265
0.404368
0.393843
0.38366
0.373993
0.365339
0.537595
0.525051
0.519567
0.515205
0.509085
0.501119
0.491697
0.481261
0.470205
0.458838
0.447385
0.436006
0.424813
0.413885
0.40328
0.393025
0.383089
0.373437
0.364309
0.356355
0.505278
0.493737
0.489778
0.487271
0.48306
0.4769
0.469128
0.460184
0.450476
0.440329
0.429985
0.419618
0.409353
0.399281
0.38947
0.379954
0.370697
0.361658
0.353144
0.34599
0.469066
0.458639
0.456365
0.455917
0.453832
0.449686
0.443759
0.436483
0.428283
0.419501
0.410399
0.401166
0.391941
0.382829
0.373908
0.365223
0.356731
0.348383
0.340557
0.334292
0.42924
0.420024
0.419574
0.421363
0.421598
0.419657
0.415751
0.410306
0.40376
0.396477
0.388737
0.38075
0.372668
0.364611
0.356671
0.348902
0.341259
0.333677
0.326605
0.321314
0.38611
0.378191
0.379679
0.383854
0.386579
0.387011
0.385283
0.381813
0.377053
0.371388
0.36512
0.358477
0.351631
0.344715
0.337838
0.331065
0.324347
0.317603
0.311346
0.307107
0.340013
0.333462
0.336976
0.343659
0.349013
0.351961
0.352549
0.351179
0.348319
0.344376
0.339673
0.334462
0.328931
0.32323
0.317487
0.31178
0.306058
0.30022
0.294834
0.291718
0.291315
0.286189
0.291788
0.301067
0.30916
0.314741
0.317757
0.318592
0.317726
0.315589
0.31253
0.30882
0.304668
0.300243
0.295691
0.291108
0.286444
0.281571
0.277107
0.275182
0.240404
0.236744
0.244459
0.256386
0.267297
0.275597
0.281128
0.28425
0.285451
0.285186
0.283827
0.281669
0.278943
0.275835
0.272513
0.269095
0.265535
0.261678
0.258178
0.257513
0.187691
0.185524
0.195354
0.209947
0.223717
0.234794
0.2429
0.248364
0.251683
0.253333
0.253711
0.253134
0.251856
0.250085
0.248009
0.245773
0.243341
0.240529
0.238021
0.238682
0.133607
0.132944
0.144858
0.162095
0.178732
0.192611
0.203323
0.211159
0.216623
0.220207
0.222334
0.223342
0.223508
0.22306
0.222211
0.221134
0.219807
0.218024
0.216507
0.218575
0.0785996
0.0794353
0.0933723
0.113196
0.132669
0.149341
0.162661
0.172875
0.180485
0.186
0.189863
0.192436
0.194012
0.194842
0.195166
0.195187
0.194895
0.194055
0.193452
0.19699
0.0231282
0.0254446
0.0413119
0.0636259
0.0858679
0.105292
0.121196
0.133768
0.143504
0.150926
0.156492
0.160584
0.163509
0.165531
0.166911
0.167878
0.168405
0.168185
0.168174
0.173298
-0.0323378
-0.0285733
-0.0108965
0.0137753
0.0386837
0.0607886
0.0792229
0.0941114
0.105933
0.115217
0.122434
0.127976
0.132157
0.135245
0.137514
0.139238
0.140395
0.140487
0.140461
0.146768
-0.0873252
-0.0821586
-0.0628197
-0.0359577
-0.00852021
0.0161635
0.0370531
0.0541976
0.0680531
0.0791498
0.0879678
0.0949061
0.100282
0.104351
0.107371
0.109632
0.111099
0.110731
0.108267
0.112365
-0.141361
-0.13485
-0.114022
-0.08517
-0.055374
-0.0282413
-0.0049934
0.0143319
0.0301597
0.0430146
0.0533777
0.0616457
0.0681224
0.0730238
0.0765213
0.078775
0.0796816
0.0783458
0.0740328
0.069661
-0.193986
-0.186199
-0.164072
-0.133461
-0.101508
-0.0720817
-0.0465919
-0.0251723
-0.00743618
0.00713213
0.0190155
0.0286148
0.0362382
0.042104
0.0463705
0.0491803
0.0505656
0.0501503
0.0474232
0.0433945
-0.24475
-0.235764
-0.21255
-0.180437
-0.146557
-0.115019
-0.0874216
-0.0640043
-0.0444239
-0.0281743
-0.0147649
-0.00377891
0.00511779
0.0121807
0.0176069
0.0215714
0.024229
0.0256222
0.0256027
0.0238228
-0.293225
-0.283126
-0.259048
-0.225716
-0.190169
-0.156726
-0.127177
-0.101874
-0.0805239
-0.0626334
-0.0477041
-0.0353001
-0.0250607
-0.0166948
-0.00996922
-0.0046867
-0.000648554
0.00237464
0.004473
0.00490862
-0.339012
-0.327892
-0.303187
-0.268939
-0.232012
-0.196899
-0.165578
-0.138522
-0.115498
-0.0960318
-0.0796215
-0.0658175
-0.0542389
-0.0445707
-0.0365548
-0.029977
-0.0246204
-0.0201964
-0.0165474
-0.0144917
-0.381751
-0.369707
-0.344615
-0.309772
-0.271777
-0.235257
-0.20237
-0.173719
-0.149142
-0.128191
-0.11037
-0.095219
-0.082345
-0.0714162
-0.0621582
-0.0543432
-0.0477406
-0.0420436
-0.0371179
-0.0339075
-0.421123
-0.408255
-0.383018
-0.347911
-0.309184
-0.271546
-0.237327
-0.207264
-0.181277
-0.158958
-0.13982
-0.123401
-0.109302
-0.0971792
-0.0867494
-0.0777768
-0.0700233
-0.06317
-0.0571042
-0.0529078
-0.456862
-0.443271
-0.418123
-0.38309
-0.343983
-0.305542
-0.270249
-0.238981
-0.211752
-0.188202
-0.167863
-0.15028
-0.135048
-0.121821
-0.11031
-0.100277
-0.0914802
-0.0835935
-0.0764984
-0.0713535
-0.488754
-0.474541
-0.449706
-0.415081
-0.375961
-0.33705
-0.300964
-0.268722
-0.240439
-0.215815
-0.194411
-0.175784
-0.159532
-0.145308
-0.13282
-0.121831
-0.1121
-0.1033
-0.0952924
-0.0892481
-0.516647
-0.501911
-0.477595
-0.443703
-0.404937
-0.365907
-0.329329
-0.296362
-0.267233
-0.241709
-0.219393
-0.199857
-0.182709
-0.167605
-0.154255
-0.142418
-0.131863
-0.122263
-0.113462
-0.106604
-0.540449
-0.525287
-0.501674
-0.468818
-0.430772
-0.391981
-0.355229
-0.321804
-0.292049
-0.265816
-0.24275
-0.222452
-0.204541
-0.188682
-0.174586
-0.162015
-0.150744
-0.140456
-0.130975
-0.123396
-0.560136
-0.544641
-0.521885
-0.490341
-0.453367
-0.415175
-0.378574
-0.344971
-0.314827
-0.288082
-0.26444
-0.243532
-0.224999
-0.208512
-0.193789
-0.180598
-0.168719
-0.157848
-0.14779
-0.139579
-0.575744
-0.560007
-0.538233
-0.508238
-0.472666
-0.435426
-0.399307
-0.365812
-0.335522
-0.308474
-0.284434
-0.263075
-0.24406
-0.227075
-0.211847
-0.198147
-0.185764
-0.17441
-0.163871
-0.155109
-0.587378
-0.571486
-0.550783
-0.522533
-0.488656
-0.452705
-0.417394
-0.384299
-0.354114
-0.326973
-0.302719
-0.281069
-0.261715
-0.244362
-0.228748
-0.214649
-0.201864
-0.190121
-0.179194
-0.169957
-0.595199
-0.579239
-0.559664
-0.5333
-0.501372
-0.46702
-0.432834
-0.400428
-0.370598
-0.343581
-0.319295
-0.297515
-0.277965
-0.260373
-0.244488
-0.230098
-0.21701
-0.204971
-0.193742
-0.184109
-0.599426
-0.583485
-0.56506
-0.540672
-0.510892
-0.478416
-0.445651
-0.414216
-0.38499
-0.358311
-0.334179
-0.312428
-0.292823
-0.275117
-0.259077
-0.244499
-0.231205
-0.218956
-0.207512
-0.197561
-0.600329
-0.584494
-0.567213
-0.544833
-0.517344
-0.486973
-0.4559
-0.425703
-0.397325
-0.371195
-0.3474
-0.325835
-0.306313
-0.288615
-0.272531
-0.257868
-0.244459
-0.232086
-0.220507
-0.210316
-0.598219
-0.582578
-0.56641
-0.546019
-0.5209
-0.492811
-0.463662
-0.43495
-0.407652
-0.382278
-0.358998
-0.337774
-0.318469
-0.3009
-0.284878
-0.270227
-0.256792
-0.244376
-0.232741
-0.222386
-0.593442
-0.578084
-0.562979
-0.544508
-0.521774
-0.496085
-0.469048
-0.44204
-0.41604
-0.391619
-0.369026
-0.348294
-0.329336
-0.31201
-0.296154
-0.281609
-0.268233
-0.255851
-0.244234
-0.23379
-0.586365
-0.571383
-0.55728
-0.540618
-0.520221
-0.496984
-0.472198
-0.447077
-0.422569
-0.399287
-0.377548
-0.357451
-0.338967
-0.321995
-0.306402
-0.292052
-0.278816
-0.266542
-0.255014
-0.244553
-0.577368
-0.562854
-0.549687
-0.534694
-0.516529
-0.495732
-0.473275
-0.450182
-0.427335
-0.405363
-0.384633
-0.365311
-0.347421
-0.330908
-0.315673
-0.301602
-0.288584
-0.276488
-0.265114
-0.254706
-0.566838
-0.55288
-0.540584
-0.5271
-0.511016
-0.492581
-0.472472
-0.4515
-0.430449
-0.409933
-0.390358
-0.371941
-0.354762
-0.338809
-0.324021
-0.31031
-0.297583
-0.28573
-0.274574
-0.264286
-0.555146
-0.541831
-0.530348
-0.518205
-0.504013
-0.48781
-0.470003
-0.451192
-0.432032
-0.413096
-0.394804
-0.377414
-0.361054
-0.345759
-0.331504
-0.318228
-0.305862
-0.294315
-0.283434
-0.273332
-0.542648
-0.530056
-0.519336
-0.508369
-0.495862
-0.481711
-0.466105
-0.449436
-0.432218
-0.414955
-0.398055
-0.381802
-0.366364
-0.351818
-0.338177
-0.32541
-0.313469
-0.302287
-0.291736
-0.281881
-0.529672
-0.517872
-0.507878
-0.497935
-0.486898
-0.474588
-0.46103
-0.446431
-0.431157
-0.415621
-0.400198
-0.385177
-0.370756
-0.357046
-0.344095
-0.331906
-0.320452
-0.309691
-0.299521
-0.28997
-0.516513
-0.505562
-0.496267
-0.487216
-0.47744
-0.466742
-0.455037
-0.442385
-0.429007
-0.415213
-0.401322
-0.387611
-0.374289
-0.361496
-0.34931
-0.337763
-0.326856
-0.316567
-0.306823
-0.297627
-0.503428
-0.493369
-0.484756
-0.476486
-0.467778
-0.458461
-0.448391
-0.437518
-0.425939
-0.413858
-0.401522
-0.389174
-0.377021
-0.365216
-0.353864
-0.343022
-0.332716
-0.322949
-0.313672
-0.304878
-0.490632
-0.481491
-0.473549
-0.465973
-0.458167
-0.450011
-0.441345
-0.432054
-0.422136
-0.411693
-0.400896
-0.389938
-0.379003
-0.368249
-0.357793
-0.347716
-0.338065
-0.328863
-0.320092
-0.311737
-0.478297
-0.470085
-0.462806
-0.455859
-0.448818
-0.441623
-0.434136
-0.426213
-0.417782
-0.408864
-0.39955
-0.389975
-0.380288
-0.370632
-0.361128
-0.35187
-0.342923
-0.33433
-0.326097
-0.31821
-0.466558
-0.459268
-0.452645
-0.446278
-0.439891
-0.433489
-0.426973
-0.4202
-0.413064
-0.405524
-0.3976
-0.389366
-0.380927
-0.372398
-0.36389
-0.3555
-0.347305
-0.339361
-0.331696
-0.324296
-0.455509
-0.44912
-0.443142
-0.43732
-0.431504
-0.425757
-0.420029
-0.414202
-0.408161
-0.401827
-0.395169
-0.388201
-0.38098
-0.373583
-0.3661
-0.358619
-0.351218
-0.343963
-0.336895
-0.329996
-0.445215
-0.439692
-0.434342
-0.429037
-0.423727
-0.418529
-0.413438
-0.408374
-0.403236
-0.397929
-0.392387
-0.38658
-0.380514
-0.374228
-0.367779
-0.361236
-0.354668
-0.348141
-0.341705
-0.335318
-0.435714
-0.431008
-0.426261
-0.421446
-0.416597
-0.411864
-0.407291
-0.402839
-0.398429
-0.393973
-0.389388
-0.384611
-0.379611
-0.374384
-0.368955
-0.363364
-0.357662
-0.351903
-0.346143
-0.340295
-0.427024
-0.423074
-0.418898
-0.414546
-0.410118
-0.405792
-0.401647
-0.397684
-0.393856
-0.39009
-0.386301
-0.382412
-0.378363
-0.374118
-0.369667
-0.365021
-0.360206
-0.355257
-0.35023
-0.344984
-0.41915
-0.415885
-0.412236
-0.408318
-0.404278
-0.400313
-0.39653
-0.392965
-0.389602
-0.386388
-0.383249
-0.380104
-0.376877
-0.37351
-0.369966
-0.36623
-0.362306
-0.358207
-0.353988
-0.349483
-0.412087
-0.409426
-0.406256
-0.402737
-0.399055
-0.395416
-0.391949
-0.388717
-0.385729
-0.382957
-0.38034
-0.377802
-0.375264
-0.372653
-0.369916
-0.367021
-0.363959
-0.360732
-0.357394
-0.35385
-0.405822
-0.403677
-0.400929
-0.397775
-0.394423
-0.391083
-0.3879
-0.384955
-0.38228
-0.379866
-0.377668
-0.375619
-0.373639
-0.371653
-0.369597
-0.367431
-0.365148
-0.362764
-0.360355
-0.358135
-0.400335
-0.398608
-0.396227
-0.393402
-0.390355
-0.387295
-0.384374
-0.381688
-0.379286
-0.377172
-0.375315
-0.373656
-0.37212
-0.370626
-0.369104
-0.36751
-0.365844
-0.364159
-0.362599
-0.362055
-0.395588
-0.394183
-0.392112
-0.389585
-0.386823
-0.38403
-0.381362
-0.378921
-0.376767
-0.374916
-0.373345
-0.372004
-0.370816
-0.369696
-0.368557
-0.36734
-0.366033
-0.3647
-0.363621
-0.365049
-0.39153
-0.390351
-0.388539
-0.386282
-0.383791
-0.381261
-0.378844
-0.376647
-0.374734
-0.373126
-0.371809
-0.370736
-0.369829
-0.368989
-0.368107
-0.367074
-0.365816
-0.364283
-0.36272
-0.365162
-0.388087
-0.387048
-0.385448
-0.383441
-0.381214
-0.37895
-0.376793
-0.374847
-0.373178
-0.37181
-0.370733
-0.369901
-0.369234
-0.368619
-0.367904
-0.366894
-0.365336
-0.362747
-0.35787
-0.351376
-0.385163
-0.384192
-0.382769
-0.380997
-0.379033
-0.377043
-0.375161
-0.373484
-0.372073
-0.370954
-0.370119
-0.369525
-0.369097
-0.368725
-0.368255
-0.367487
-0.366178
-0.363948
-0.359845
-0.354859
-0.382643
-0.381691
-0.380418
-0.378873
-0.377176
-0.375473
-0.373884
-0.372496
-0.371365
-0.370513
-0.369933
-0.369588
-0.369415
-0.36932
-0.369178
-0.368836
-0.368133
-0.366808
-0.364177
-0.361591
-0.380403
-0.379443
-0.378306
-0.376985
-0.37556
-0.374158
-0.372882
-0.371807
-0.370979
-0.370415
-0.370108
-0.370026
-0.370115
-0.370302
-0.37049
-0.370572
-0.370442
-0.369896
-0.368428
-0.367634
-0.378312
-0.377345
-0.376342
-0.375246
-0.3741
-0.373011
-0.372065
-0.371322
-0.370819
-0.370564
-0.370549
-0.370745
-0.371105
-0.37157
-0.37207
-0.372531
-0.372891
-0.372995
-0.372499
-0.373034
-0.376245
-0.375297
-0.374439
-0.373571
-0.372711
-0.371943
-0.371338
-0.370943
-0.370779
-0.370851
-0.371145
-0.371632
-0.372273
-0.373019
-0.373817
-0.374622
-0.375401
-0.376042
-0.37632
-0.377756
-0.37409
-0.373212
-0.372517
-0.371886
-0.371314
-0.37087
-0.370611
-0.370566
-0.37075
-0.371157
-0.371769
-0.372557
-0.373484
-0.374511
-0.375597
-0.376712
-0.377842
-0.378901
-0.379732
-0.381699
-0.371757
-0.371018
-0.370513
-0.370125
-0.369841
-0.369717
-0.369796
-0.370097
-0.370623
-0.371361
-0.37229
-0.373377
-0.37459
-0.375891
-0.377247
-0.378638
-0.380057
-0.381427
-0.382624
-0.384858
-0.369186
-0.368663
-0.36838
-0.368239
-0.368238
-0.368423
-0.368824
-0.369452
-0.370302
-0.371355
-0.372584
-0.373957
-0.37544
-0.376998
-0.378601
-0.380233
-0.381886
-0.383482
-0.384908
-0.387253
-0.366345
-0.366121
-0.366089
-0.366199
-0.366469
-0.366942
-0.36764
-0.368567
-0.369711
-0.371049
-0.372551
-0.374182
-0.375908
-0.377695
-0.379514
-0.381347
-0.383186
-0.384945
-0.386512
-0.388891
-0.363241
-0.363392
-0.363637
-0.363995
-0.364521
-0.365254
-0.366216
-0.367404
-0.368804
-0.370388
-0.372124
-0.373976
-0.375908
-0.377888
-0.379884
-0.381879
-0.383859
-0.385731
-0.387385
-0.38977
-0.359914
-0.360506
-0.361045
-0.361644
-0.362403