/*--------------------------------*- C++ -*----------------------------------*\
  =========                 |
  \\      /  F ield         | OpenFOAM: The Open Source CFD Toolbox
   \\    /   O peration     | Website:  https://openfoam.org
    \\  /    A nd           | Version:  6.0
     \\/     M anipulation  |
\*---------------------------------------------------------------------------*/
FoamFile
{
    version     2.0;
    format      ascii;
    class       surfaceScalarField;
    location    "5.4";
    object      phi;
}
// * * * * * * * * * * * * * * * * * * * * * * * * * * * * * * * * * * * * * //

dimensions      [0 3 -1 0 0 0 0];

internalField   nonuniform List<scalar> 
15760
(
-1.14659e-05
1.13379e-05
1.28055e-07
-3.8555e-05
2.6807e-05
2.82103e-07
-7.66211e-05
3.77015e-05
3.64562e-07
-0.000122475
4.54564e-05
3.9725e-07
-0.000173865
5.09941e-05
3.96561e-07
-0.000229203
5.49634e-05
3.74621e-07
-0.000287362
5.78186e-05
3.40075e-07
-0.000347536
5.98746e-05
2.98823e-07
-0.000409138
6.13476e-05
2.54675e-07
-0.000471732
6.23837e-05
2.09913e-07
-0.000534978
6.30812e-05
1.65714e-07
-0.000598607
6.35063e-05
1.22491e-07
-0.000662393
6.37051e-05
8.01656e-08
-0.000726143
6.37123e-05
3.83805e-08
-0.000789697
6.35568e-05
-3.34886e-09
-0.000852917
6.32657e-05
-4.55607e-08
-0.000915693
6.28655e-05
-8.87694e-08
-0.00097794
6.23801e-05
-1.33474e-07
-0.0010396
6.18363e-05
-1.80197e-07
6.13102e-05
-2.29339e-07
-0.00110068
-1.1026e-05
2.23639e-05
-3.71781e-05
5.2959e-05
-7.40139e-05
7.45374e-05
-0.000118454
8.98964e-05
-0.000168303
0.000100843
-0.000221994
0.000108655
-0.000278405
0.000114229
-0.000336721
0.000118191
-0.000396347
0.000120973
-0.000456831
0.000122868
-0.000517824
0.000124074
-0.000579042
0.000124724
-0.000640249
0.000124913
-0.000701247
0.00012471
-0.000761864
0.000124174
-0.000821956
0.000123358
-0.000881405
0.000122315
-0.000940118
0.000121092
-0.000998023
0.000119741
0.000118406
-0.00105512
-1.01759e-05
3.25397e-05
-3.45089e-05
7.72921e-05
-6.89487e-05
0.000108977
-0.000110628
0.000131576
-0.000157462
0.000147677
-0.000207928
0.000159121
-0.000260912
0.000167213
-0.000315591
0.00017287
-0.000371346
0.000176728
-0.000427704
0.000179226
-0.00048429
0.00018066
-0.0005408
0.000181234
-0.00059698
0.000181093
-0.000652613
0.000180343
-0.000707514
0.000179075
-0.000761526
0.00017737
-0.000814518
0.000175307
-0.000866382
0.000172956
-0.000917034
0.000170393
0.000167813
-0.000966441
-8.97494e-06
4.15147e-05
-3.07187e-05
9.90359e-05
-6.17282e-05
0.000139987
-9.94375e-05
0.000169285
-0.000141919
0.000190158
-0.000187722
0.000204923
-0.000235749
0.00021524
-0.000285164
0.000222286
-0.000335325
0.000226889
-0.000385725
0.000229626
-0.00043596
0.000230894
-0.000485695
0.000230969
-0.000534651
0.000230049
-0.000582591
0.000228283
-0.00062931
0.000225794
-0.000674635
0.000222695
-0.000718421
0.000219093
-0.000760549
0.000215084
-0.00080092
0.000210765
0.000206365
-0.000839472
-7.5058e-06
4.90205e-05
-2.60479e-05
0.000117578
-5.2781e-05
0.00016672
-8.55087e-05
0.000202013
-0.000122504
0.000227154
-0.00016241
0.000244829
-0.00020416
0.00025699
-0.000246912
0.000265038
-0.000289997
0.000269974
-0.000332875
0.000272504
-0.000375105
0.000273125
-0.000416322
0.000272186
-0.000456215
0.000269943
-0.000494523
0.000266591
-0.000531022
0.000262293
-0.000565524
0.000257196
-0.000597872
0.000251441
-0.000627942
0.000245154
-0.000655632
0.000238454
0.000231593
-0.00068086
-5.86701e-06
5.48875e-05
-2.07873e-05
0.000132498
-4.26317e-05
0.000188564
-6.9616e-05
0.000228997
-0.000100246
0.000257784
-0.000133282
0.000277866
-0.000167705
0.000291413
-0.000202677
0.000300009
-0.000237507
0.000304804
-0.000271628
0.000306624
-0.000304562
0.000306059
-0.00033591
0.000303534
-0.000365333
0.000299365
-0.000392541
0.000293799
-0.000417292
0.000287044
-0.000439384
0.000279288
-0.000458656
0.000270713
-0.000474988
0.000261486
-0.000488291
0.000251757
0.000241796
-0.000498494
-4.16468e-06
5.90522e-05
-1.52563e-05
0.00014359
-3.18643e-05
0.000205172
-5.26311e-05
0.000249764
-7.63146e-05
0.000281467
-0.000101814
0.000303365
-0.000128174
0.000317773
-0.000154577
0.000326412
-0.000180325
0.000330553
-0.000204828
0.000331127
-0.000227581
0.000328812
-0.000248153
0.000324106
-0.000266175
0.000317387
-0.000281332
0.000308956
-0.000293358
0.00029907
-0.00030204
0.00028797
-0.000307215
0.000275888
-0.000308778
0.000263049
-0.000306679
0.000249659
0.000236013
-0.000300897
-2.5039e-06
6.15561e-05
-9.77822e-06
0.000150864
-2.10806e-05
0.000216475
-3.54649e-05
0.000264148
-5.19462e-05
0.000297948
-6.95765e-05
0.000320996
-8.74841e-05
0.00033568
-0.000104889
0.000343817
-0.000121105
0.000346769
-0.000135532
0.000345554
-0.000147647
0.000340928
-0.000156996
0.000333455
-0.000163183
0.000323573
-0.000165863
0.000311636
-0.000164746
0.000297954
-0.0001596
0.000282823
-0.000150256
0.000266545
-0.000136629
0.000249423
-0.000118727
0.000231757
0.000213918
-9.66322e-05
-9.80751e-07
6.25368e-05
-4.65685e-06
0.00015454
-1.08573e-05
0.000222675
-1.90048e-05
0.000272296
-2.83602e-05
0.000307304
-3.81351e-05
0.00033077
-4.75573e-05
0.000345103
-5.59047e-05
0.000352164
-6.25203e-05
0.000353384
-6.68142e-05
0.000349848
-6.82603e-05
0.000342374
-6.63891e-05
0.000331584
-6.07815e-05
0.000317966
-5.10647e-05
0.000301919
-3.69143e-05
0.000283803
-1.80629e-05
0.000263972
5.67894e-06
0.000242803
3.43902e-05
0.000220712
6.79966e-05
0.00019815
0.000175663
0.000106252
3.24535e-07
6.22123e-05
-1.54048e-07
0.000155019
-1.70346e-06
0.000224224
-4.04918e-06
0.000274642
-6.67055e-06
0.000309925
-8.9358e-06
0.000333036
-1.01826e-05
0.000346349
-9.76424e-06
0.000351746
-7.07257e-06
0.000350693
-1.54681e-06
0.000344322
7.32656e-06
0.0003335
2.00188e-05
0.000318892
3.69651e-05
0.000301019
5.85689e-05
0.000280315
8.51999e-05
0.000257172
0.000117181
0.000231991
0.000154756
0.000205228
0.000198033
0.000177435
0.000246886
0.000149296
0.000121697
0.000300852
1.35263e-06
6.08597e-05
3.52856e-06
0.000152843
5.97734e-06
0.000221776
8.7547e-06
0.000271864
1.22037e-05
0.000306476
1.68136e-05
0.000328426
2.31344e-05
0.000340029
3.17262e-05
0.000343154
4.31323e-05
0.000339287
5.78678e-05
0.000329587
7.64178e-05
0.00031495
9.92426e-05
0.000296067
0.000126785
0.000273477
0.000159479
0.000247621
0.000197749
0.000218903
0.000241995
0.000187744
0.000292559
0.000154664
0.000349631
0.000120363
0.000413083
8.58442e-05
5.25834e-05
0.000482197
2.06846e-06
5.87912e-05
6.26365e-06
0.000148648
1.19188e-05
0.000216121
1.89655e-05
0.000264817
2.76217e-05
0.00029782
3.82593e-05
0.000317788
5.13239e-05
0.000326964
6.72873e-05
0.000327191
8.66207e-05
0.000319953
0.000109784
0.000306424
0.000137223
0.000287511
0.000169378
0.000263912
0.000206692
0.000236162
0.000249625
0.000204689
0.000298657
0.000169871
0.000354284
0.000132117
0.000416974
9.19739e-05
0.000487057
5.02803e-05
0.000564474
8.42675e-06
-3.11953e-05
0.000648253
2.46282e-06
5.63284e-05
8.00728e-06
0.000143103
1.60148e-05
0.000208113
2.63916e-05
0.000254441
3.92909e-05
0.000284921
5.50034e-05
0.000302076
7.38912e-05
0.000308076
9.63488e-05
0.000304733
0.000122782
0.00029352
0.000153596
0.000275609
0.000189202
0.000251905
0.000230017
0.000223098
0.000276479
0.0001897
0.000329066
0.000152102
0.000388305
0.000110632
0.000454775
6.56468e-05
0.000529074
1.76754e-05
0.000611696
-3.2342e-05
0.000702713
-8.25903e-05
-0.000129417
0.000800935
2.55278e-06
5.37756e-05
8.80283e-06
0.000136853
1.83323e-05
0.000198584
3.11184e-05
0.000241655
4.73157e-05
0.000268723
6.71799e-05
0.000282212
9.10242e-05
0.000284232
0.000119194
0.000276564
0.000152051
0.000260663
0.00018997
0.000237689
0.000233339
0.000208536
0.000282564
0.000173873
0.000338082
0.000134182
0.000400375
8.98087e-05
0.000469988
4.10197e-05
0.000547535
-1.19e-05
0.000633683
-6.84726e-05
0.000729044
-0.000127704
0.000833826
-0.000187372
-0.000242274
0.000946683
2.38065e-06
5.1395e-05
8.77959e-06
0.000130454
1.9112e-05
0.000188251
3.35158e-05
0.000227251
5.22152e-05
0.000250024
7.54872e-05
0.00025894
0.000103645
0.000256074
0.000137028
0.00024318
0.000175998
0.000221693
0.000220937
0.000192751
0.000272242
0.000157231
0.000330331
0.000115783
0.000395645
6.88679e-05
0.000468652
1.6802e-05
0.000549858
-4.01862e-05
0.000639819
-0.000101861
0.000739137
-0.000167791
0.000848389
-0.000236956
0.000967815
-0.000306797
-0.00037043
0.00109597
2.01154e-06
4.93834e-05
8.14498e-06
0.000124321
1.87548e-05
0.000177641
3.42192e-05
0.000211786
5.49013e-05
0.000229342
8.11629e-05
0.000232678
0.000113378
0.000223859
0.000151941
0.000204618
0.000197269
0.000176365
0.0002498
0.00014022
0.000309984
9.70468e-05
0.000378276
4.74906e-05
0.000455121
-7.97694e-06
0.000540939
-6.90161e-05
0.000636118
-0.000135365
0.000741014
-0.000206757
0.000855958
-0.000282735
0.000981235
-0.000362233
0.00111688
-0.000442442
-0.000514876
0.00126133
1.52901e-06
4.78544e-05
7.16937e-06
0.000118681
1.77914e-05
0.000167019
3.40816e-05
0.000195496
5.66089e-05
0.000206814
8.58879e-05
0.000203399
0.000122422
0.000187325
0.000166725
0.000160315
0.00021933
0.00012376
0.000280781
7.87693e-05
0.000351614
2.6213e-05
0.000432332
-3.32266e-05
0.00052336
-9.9005e-05
0.000625012
-0.000170668
0.000737448
-0.000247802
0.000860656
-0.000329965
0.000994459
-0.000416538
0.00113854
-0.000506314
0.00129236
-0.000596262
-0.000676534
0.00145402
1.0282e-06
4.68262e-05
6.16271e-06
0.000113546
1.68352e-05
0.000156347
3.40944e-05
0.000178237
5.87771e-05
0.000182132
9.16166e-05
0.00017056
0.00013331
0.000145632
0.000184551
0.000109073
0.000246034
6.22767e-05
0.000318437
6.36617e-06
0.000402385
-5.77346e-05
0.000498396
-0.000129238
0.00060682
-0.000207429
0.000727766
-0.000291614
0.000861031
-0.000381067
0.00100605
-0.000474986
0.00116192
-0.000572403
0.00132745
-0.000671844
0.00150119
-0.000770008
-0.000855902
0.00168056
6.06601e-07
4.62196e-05
5.44383e-06
0.000108709
1.65193e-05
0.000145271
3.52825e-05
0.000159474
6.28893e-05
0.000154525
0.000100346
0.000133102
0.000148594
9.73842e-05
0.000208539
4.91284e-05
0.000281049
-1.02335e-05
0.000366919
-7.9503e-05
0.000466809
-0.000157625
0.000581178
-0.000243607
0.000710195
-0.000336446
0.000853652
-0.000435071
0.00101087
-0.000538285
0.00118061
-0.000644729
0.00136104
-0.000752832
0.00154981
-0.000860614
0.00174431
-0.000964505
-0.0010528
0.0019412
3.53488e-07
4.58661e-05
5.30616e-06
0.000103756
1.74273e-05
0.00013315
3.8588e-05
0.000138313
7.02964e-05
0.000122817
0.000113865
8.95342e-05
0.000170493
4.0756e-05
0.000241291
-2.16702e-05
0.000327256
-9.61982e-05
0.000429211
-0.000181458
0.000547735
-0.000276148
0.000683078
-0.00037895
0.000835089
-0.000488457
0.00100315
-0.000603132
0.00118613
-0.000721261
0.00138232
-0.000840926
0.00158941
-0.00095992
0.00180413
-0.00107533
0.00202103
-0.0011814
-0.00125835
0.00222658
3.39082e-07
4.55271e-05
5.98476e-06
9.81104e-05
2.00287e-05
0.000119106
4.47628e-05
0.000113579
8.20558e-05
8.55236e-05
0.000133522
3.80676e-05
0.000200593
-2.63147e-05
0.000284511
-0.000105589
0.000386282
-0.000197969
0.00050659
-0.000301766
0.000645719
-0.000415277
0.000803473
-0.000536704
0.000979142
-0.000664127
0.00117151
-0.000795496
0.00137891
-0.000928667
0.00159944
-0.00106145
0.00183121
-0.00119169
0.00207314
-0.00131726
0.00232761
-0.00143588
-0.00153728
0.00260654
6.10392e-07
4.49167e-05
7.63879e-06
9.1082e-05
2.46394e-05
0.000102106
5.43008e-05
8.39177e-05
9.88282e-05
4.09962e-05
0.000160093
-2.31969e-05
0.000239669
-0.000105891
0.000338795
-0.000204714
0.000458289
-0.000317463
0.000598451
-0.000441928
0.000758978
-0.000575805
0.00093892
-0.000716646
0.00113668
-0.000861886
0.00135009
-0.0010089
0.00157653
-0.00115511
0.00181316
-0.00129808
0.00205712
-0.00143566
0.00230597
-0.0015661
0.00255828
-0.00168819
-0.00179414
0.00281514
1.18516e-06
4.37315e-05
1.03381e-05
8.19291e-05
3.14007e-05
8.10431e-05
6.7408e-05
4.79104e-05
0.000120841
-1.24366e-05
0.000193731
-9.60871e-05
0.00028765
-0.00019981
0.000403626
-0.000320691
0.000542033
-0.00045587
0.000702489
-0.000602384
0.000883798
-0.000757114
0.00108396
-0.000916809
0.00130026
-0.00107818
0.00152939
-0.00123804
0.00176771
-0.00139343
0.00201141
-0.00154178
0.00225677
-0.00168102
0.00250033
-0.00180966
0.00273901
-0.00192687
-0.00202714
0.002972
2.05831e-06
4.16732e-05
1.40774e-05
6.991e-05
4.03008e-05
5.48197e-05
8.40336e-05
4.17757e-06
0.000147931
-7.63341e-05
0.000234038
-0.000182194
0.000343716
-0.000309488
0.000477522
-0.000454496
0.000635083
-0.000613431
0.000815026
-0.000782328
0.00101499
-0.000957077
0.00123173
-0.00113355
0.00146131
-0.00130776
0.00169937
-0.0014761
0.00194141
-0.00163547
0.00218305
-0.00178342
0.00242028
-0.00191824
0.00264956
-0.00203894
0.00286797
-0.00214528
-0.00223423
0.00307507
3.20898e-06
3.84642e-05
1.87966e-05
5.43224e-05
5.12131e-05
2.24031e-05
0.00010393
-4.85391e-05
0.000179632
-0.000152037
0.000280177
-0.000282739
0.000406457
-0.000435767
0.000558248
-0.000606288
0.000734117
-0.000789299
0.000931422
-0.000979633
0.00114645
-0.00117211
0.00137466
-0.00136176
0.00161103
-0.00154414
0.00185042
-0.00171549
0.00208791
-0.00187296
0.00231911
-0.00201462
0.00254037
-0.00213949
0.00274883
-0.0022474
0.00294251
-0.00233896
-0.00241319
0.00312146
4.60984e-06
3.38544e-05
2.44069e-05
3.45254e-05
6.39429e-05
-1.71329e-05
0.000126721
-0.000111317
0.000215269
-0.000240584
0.000331002
-0.000398472
0.000474034
-0.000578799
0.000643037
-0.000775291
0.000835224
-0.000981486
0.00104649
-0.0011909
0.00127174
-0.00139735
0.00150528
-0.0015953
0.00174133
-0.00178018
0.00197443
-0.00194859
0.00219984
-0.00209837
0.00241375
-0.00222853
0.00261341
-0.00233916
0.00279715
-0.00243114
0.00296423
-0.00250604
-0.00256448
0.00311552
6.23488e-06
2.76195e-05
3.08124e-05
9.94788e-06
7.82646e-05
-6.45851e-05
0.000151957
-0.00018501
0.000254025
-0.000342653
0.000385142
-0.000529588
0.000544305
-0.000737963
0.00072877
-0.000959756
0.000934179
-0.0011869
0.00115492
-0.00141165
0.00138466
-0.00162709
0.00161693
-0.00182757
0.00184567
-0.00200892
0.00206571
-0.00216863
0.00227304
-0.0023057
0.00246493
-0.00242042
0.0026399
-0.00251412
0.00279758
-0.00258881
0.00293848
-0.00264694
-0.00269025
0.00306424
8.06366e-06
1.95558e-05
3.79216e-05
-1.99101e-05
9.3941e-05
-0.000120605
0.000179142
-0.000270211
0.000294983
-0.000458493
0.000441056
-0.000675661
0.000614909
-0.000911817
0.000812128
-0.00115697
0.00102671
-0.00140148
0.00125167
-0.00163661
0.00147982
-0.00185523
0.00170439
-0.00205214
0.0019197
-0.00222423
0.00212142
-0.00237035
0.00230672
-0.002491
0.00247423
-0.00258793
0.00262382
-0.00266371
0.00275633
-0.00272133
0.00287329
-0.00276389
-0.00279385
0.00297689
1.00813e-05
9.47453e-06
4.56477e-05
-5.54765e-05
0.000110722
-0.000185679
0.000207727
-0.000367215
0.000337118
-0.000587884
0.000497053
-0.000835596
0.00068334
-0.0010981
0.000889767
-0.0013634
0.00110879
-0.00162049
0.0013324
-0.00186023
0.00155307
-0.0020759
0.0017644
-0.00226347
0.0019616
-0.00242143
0.00214163
-0.00255037
0.00230309
-0.00265246
0.00244601
-0.00273085
0.00257146
-0.00278916
0.0026812
-0.00283108
0.0027774
-0.00286009
-0.00287898
0.00286253
1.22752e-05
-2.80063e-06
5.38993e-05
-9.71006e-05
0.000128331
-0.000260111
0.000237097
-0.000475981
0.000379296
-0.000730084
0.000551324
-0.00100762
0.000747053
-0.00129383
0.000958516
-0.00157486
0.00117693
-0.00183891
0.00139382
-0.00207712
0.00160192
-0.002284
0.00179576
-0.00245731
0.0019719
-0.00259757
0.00212879
-0.00270727
0.0022665
-0.00279017
0.00238625
-0.0028506
0.00249001
-0.00289292
0.00258013
-0.0029212
0.00265903
-0.00293899
-0.00294913
0.00272919
1.46301e-05
-1.74307e-05
6.25687e-05
-0.000145039
0.000146445
-0.000343988
0.000266553
-0.000596089
0.000420282
-0.000883813
0.000602002
-0.00118934
0.000803607
-0.00149544
0.00101562
-0.00178687
0.00122852
-0.00205181
0.00143395
-0.00228256
0.00162554
-0.00247559
0.00179919
-0.00263097
0.00195303
-0.0027514
0.002087
-0.00284125
0.00220242
-0.00290559
0.00230142
-0.0029496
0.0023865
-0.00297801
0.00246024
-0.00299494
0.00252506
-0.0030038
-0.00300728
0.00258321
1.71241e-05
-3.45549e-05
7.15214e-05
-0.000199437
0.000164683
-0.000437149
0.000295316
-0.000726721
0.000458777
-0.00104727
0.000647265
-0.00137783
0.000850837
-0.00169901
0.00105894
-0.00199497
0.00126191
-0.00225479
0.00145217
-0.00247281
0.00162467
-0.00264809
0.00177695
-0.00278324
0.00190868
-0.00288314
0.00202114
-0.0029537
0.00211656
-0.00300101
0.00219761
-0.00303065
0.00226704
-0.00304743
0.00232737
-0.00305527
0.00238082
-0.00305725
-0.00305576
0.0024293
1.97255e-05
-5.42803e-05
8.05911e-05
-0.000260302
0.00018261
-0.000539168
0.000322546
-0.000866658
0.000493481
-0.00121821
0.000685458
-0.00156981
0.000887028
-0.00190058
0.00108712
-0.00219506
0.0012766
-0.00244427
0.00144911
-0.00264533
0.00160127
-0.00280025
0.00173225
-0.00291422
0.00184313
-0.00299401
0.00193616
-0.00304674
0.00201418
-0.00307903
0.00208009
-0.00309656
0.00213659
-0.00310393
0.00218598
-0.00310467
0.00223018
-0.00310145
-0.00309633
0.00227075
2.23918e-05
-7.66721e-05
8.95808e-05
-0.000327491
0.000199744
-0.000649331
0.000347387
-0.0010143
0.000523188
-0.00139401
0.000715223
-0.00176184
0.000911026
-0.00209638
0.00109965
-0.00238369
0.00127301
-0.00261763
0.00142638
-0.0027987
0.00155808
-0.00293195
0.00166879
-0.00302492
0.00176067
-0.00308589
0.00183665
-0.00312273
0.00189984
-0.00314221
0.00195311
-0.00314983
0.00199893
-0.00314975
0.00203933
-0.00314506
0.00207586
-0.00313799
-0.00313022
0.00210975
2.50708e-05
-0.000101743
9.82693e-05
-0.00040069
0.000215586
-0.000766648
0.000369019
-0.00116773
0.000546865
-0.00157186
0.000735589
-0.00195057
0.0009223
-0.00228309
0.00109677
-0.00255815
0.00125241
-0.00277327
0.00138624
-0.00293253
0.00149821
-0.00304392
0.00159023
-0.00311694
0.00166524
-0.00316091
0.00172653
-0.00318401
0.00177719
-0.00319287
0.0018199
-0.00319254
0.00185684
-0.00318669
0.00188968
-0.0031779
0.00191967
-0.00316798
-0.00315827
0.00194773
2.77027e-05
-0.000129446
0.000106422
-0.000479409
0.000229644
-0.000889869
0.000386713
-0.0013248
0.000563724
-0.00174887
0.000746023
-0.00213287
0.00092091
-0.00245798
0.00107938
-0.00271662
0.00121657
-0.00291047
0.00133126
-0.00304722
0.00142479
-0.00313745
0.0015
-0.00319214
0.00156028
-0.00322119
0.00160899
-0.00323272
0.00164905
-0.00323294
0.00168287
-0.00322636
0.00171225
-0.00321608
0.00173857
-0.00320422
0.00176277
-0.00319218
-0.00318105
0.00178555
3.02224e-05
-0.000159668
0.000113804
-0.000562991
0.000241465
-0.00101753
0.000399881
-0.00148322
0.000573269
-0.00192226
0.000746432
-0.00230603
0.000907427
-0.00261898
0.00104883
-0.00285803
0.0011676
-0.00302924
0.00126409
-0.00314371
0.00134077
-0.00321413
0.00140107
-0.00325244
0.00144857
-0.0032687
0.00148652
-0.00327066
0.00151756
-0.00326398
0.00154372
-0.00325252
0.00156652
-0.00323887
0.00158701
-0.00322471
0.00160593
-0.00321111
-0.0031989
0.00162378
3.25631e-05
-0.000192231
0.000120191
-0.000650619
0.000250664
-0.001148
0.000408104
-0.00164066
0.000575304
-0.00208946
0.00073711
-0.00246784
0.000882809
-0.00276467
0.00100676
-0.00298198
0.00110767
-0.00313015
0.00118724
-0.00322328
0.00124874
-0.00327562
0.00129593
-0.00329963
0.00133237
-0.00330513
0.00136103
-0.00329933
0.00138423
-0.00328718
0.00140366
-0.00327195
0.00142053
-0.00325574
0.00143566
-0.00323984
0.00144962
-0.00322506
-0.00321203
0.00146274
3.46595e-05
-0.000226891
0.000125384
-0.000741344
0.00025694
-0.00127956
0.000411153
-0.00179487
0.000569916
-0.00224822
0.000718671
-0.00261659
0.000848272
-0.00289428
0.000954919
-0.00308863
0.0010389
-0.00321413
0.00110296
-0.00328734
0.00115091
-0.00332357
0.00118659
-0.00333532
0.00121337
-0.00333192
0.00123391
-0.00331986
0.00125016
-0.00330343
0.00126351
-0.0032853
0.0012749
-0.00326713
0.00128497
-0.00324991
0.00129414
-0.00323423
-0.00322055
0.00130265
3.64502e-05
-0.000263341
0.000129216
-0.00083411
0.000260096
-0.00141044
0.000408984
-0.00194376
0.000557435
-0.00239667
0.000691955
-0.00275111
0.000805167
-0.00300749
0.000895043
-0.0031785
0.000963214
-0.0032823
0.00101321
-0.00333733
0.00104909
-0.00335945
0.00107462
-0.00336085
0.00109289
-0.00335018
0.00110617
-0.00333315
0.00111612
-0.00331337
0.00112382
-0.00329301
0.00113003
-0.00327334
0.00113521
-0.0032551
0.00113969
-0.00323871
-0.00322451
0.00114365
3.78854e-05
-0.000301226
0.00013157
-0.000927794
0.000260045
-0.00153891
0.000401735
-0.00208545
0.000538397
-0.00253333
0.00065796
-0.00287067
0.000754893
-0.00310442
0.000828787
-0.0032524
0.000882355
-0.00333587
0.000919635
-0.00337461
0.000944754
-0.00338457
0.000961257
-0.00337736
0.000971879
-0.0033608
0.000978573
-0.00333984
0.000982661
-0.00331746
0.000985015
-0.00329536
0.000986204
-0.00327452
0.000986602
-0.0032555
0.000986443
-0.00323855
-0.00322392
0.000985861
3.89124e-05
-0.000340139
0.000132349
-0.00102123
0.000256771
-0.00166334
0.000389644
-0.00221832
0.000513419
-0.00265711
0.000617694
-0.00297495
0.00069875
-0.00318548
0.000757594
-0.00331124
0.000797755
-0.00337603
0.000823549
-0.00340041
0.000839004
-0.00340002
0.000847371
-0.00338572
0.000851026
-0.00336445
0.000851594
-0.00334041
0.000850134
-0.003316
0.000847324
-0.00329255
0.000843605
-0.00327081
0.000839264
-0.00325115
0.000834479
-0.00323377
-0.0032188
0.000829351
3.95003e-05
-0.000379639
0.000131524
-0.00111325
0.000250378
-0.00178219
0.000373099
-0.00234104
0.000483243
-0.00276725
0.000572214
-0.00306392
0.000637997
-0.00325126
0.000682777
-0.00335602
0.000710656
-0.00340391
0.000726036
-0.00341579
0.000732735
-0.00340672
0.000733663
-0.00338665
0.00073085
-0.00336164
0.000725623
-0.00333519
0.000718818
-0.00330919
0.00071096
-0.00328469
0.000702387
-0.00326223
0.000693324
-0.00324209
0.000683911
-0.00322436
-0.00320911
0.000674223
3.96257e-05
-0.000419265
0.000129103
-0.00120273
0.000241035
-0.00189412
0.000352547
-0.00245256
0.000448626
-0.00286333
0.000522518
-0.00313781
0.000573751
-0.00330249
0.000605447
-0.00338772
0.000622064
-0.00342053
0.000627942
-0.00342167
0.000626613
-0.00340539
0.000620637
-0.00338067
0.000611717
-0.00335272
0.000600923
-0.00332439
0.000588905
-0.00329718
0.000576065
-0.00327185
0.000562664
-0.00324883
0.00054888
-0.00322831
0.000534825
-0.0032103
-0.00319484
0.000520561
3.92765e-05
-0.000458541
0.000125131
-0.00128859
0.000228967
-0.00199796
0.000328481
-0.00255207
0.000410317
-0.00294517
0.000469529
-0.00319702
0.000506989
-0.00333995
0.000526532
-0.00340726
0.000532787
-0.00342678
0.000529921
-0.0034188
0.000521141
-0.00339661
0.000508662
-0.0033682
0.000493895
-0.00333796
0.000477687
-0.00330818
0.000460538
-0.00328003
0.000442751
-0.00325407
0.000424529
-0.00323061
0.000406016
-0.00320979
0.000387305
-0.00319159
-0.00317599
0.000368449
3.8452e-05
-0.000496993
0.000119687
-0.00136982
0.000214443
-0.00209272
0.000301408
-0.00263903
0.000369032
-0.00301279
0.000414076
-0.00324207
0.000438553
-0.00336443
0.000446801
-0.00341551
0.00044347
-0.00342345
0.000432479
-0.00340781
0.000416695
-0.00338083
0.00039801
-0.00334951
0.000377576
-0.00331752
0.000356055
-0.00328666
0.000333823
-0.00325779
0.000311107
-0.00323135
0.000288063
-0.00320757
0.000264808
-0.00318654
0.000241426
-0.00316821
-0.00315253
0.000217966
3.71616e-05
-0.000534155
0.000112876
-0.00144554
0.000197756
-0.0021776
0.000271834
-0.00271311
0.000325435
-0.00306639
0.000356894
-0.00327353
0.000369154
-0.00337669
0.000366878
-0.00341323
0.000354619
-0.00341119
0.000336002
-0.00338919
0.000313557
-0.00335838
0.000288879
-0.00332483
0.0002629
-0.00329154
0.000236129
-0.00325989
0.000208843
-0.00323051
0.000181204
-0.00320371
0.000153331
-0.00317969
0.000125322
-0.00315853
9.7256e-05
-0.00314014
-0.00312445
6.91821e-05
3.54237e-05
-0.000569578
0.000104824
-0.00151494
0.000179208
-0.00225198
0.000240243
-0.00277415
0.000280131
-0.00310628
0.000298619
-0.00329201
0.000299389
-0.00337746
0.000287269
-0.00340111
0.000266633
-0.00339056
0.000240786
-0.00336335
0.000211934
-0.00332953
0.000181415
-0.00329431
0.000149972
-0.0032601
0.00011799
-0.00322791
8.56628e-05
-0.00319818
5.31007e-05
-0.00317115
2.03903e-05
-0.00314698
-1.23848e-05
-0.00312576
-4.51461e-05
-0.00310738
-0.00309176
-7.78388e-05
3.32645e-05
-0.000602843
9.56679e-05
-0.00157734
0.000159105
-0.00231542
0.00020709
-0.00282213
0.000233659
-0.00313285
0.0002398
-0.00329816
0.000229752
-0.00336741
0.000208381
-0.00337974
0.000179824
-0.003362
0.000147057
-0.00333058
0.000111989
-0.00329446
7.5729e-05
-0.00325805
3.88692e-05
-0.00322324
1.69449e-06
-0.00319074
-3.5669e-05
-0.00316082
-7.31573e-05
-0.00313366
-0.000110713
-0.00310943
-0.000148265
-0.0030882
-0.00018573
-0.00306992
-0.00305445
-0.000223042
3.07164e-05
-0.000633559
8.5555e-05
-0.00163218
0.000137744
-0.00236761
0.000172796
-0.00285718
0.000186496
-0.00314655
0.000180904
-0.00329256
0.000160652
-0.00334716
0.000130546
-0.00334963
9.44423e-05
-0.00332589
5.49963e-05
-0.00329113
1.38453e-05
-0.00325331
-2.80918e-05
-0.00321612
-7.03467e-05
-0.00318098
-0.000112712
-0.00314837
-0.000155117
-0.00311841
-0.000197539
-0.00309124
-0.00023995
-0.00306702
-0.000282289
-0.00304586
-0.000324464
-0.00302774
-0.00301252
-0.000366392
2.78169e-05
-0.000661376
7.46346e-05
-0.00167899
0.000115409
-0.00240838
0.000137742
-0.00287952
0.000139064
-0.00314787
0.000122331
-0.00327583
9.24329e-05
-0.00331726
5.40355e-05
-0.00331124
1.06925e-05
-0.00328255
-3.5248e-05
-0.00324519
-8.23897e-05
-0.00320617
-0.000129973
-0.00316853
-0.000177626
-0.00313333
-0.000225198
-0.0031008
-0.000272661
-0.00307095
-0.000320032
-0.00304387
-0.000367314
-0.00301973
-0.000414459
-0.00299872
-0.000461358
-0.00298084
-0.00296597
-0.000507906
2.46073e-05
-0.000685984
6.30563e-05
-0.00171744
9.23672e-05
-0.00243769
0.000102276
-0.00288943
9.17282e-05
-0.00313732
6.44214e-05
-0.00324852
2.53828e-05
-0.00327822
-2.09214e-05
-0.00326493
-7.12492e-05
-0.00323222
-0.000123542
-0.0031929
-0.000176616
-0.0031531
-0.000229843
-0.00311531
-0.000282919
-0.00308025
-0.000335734
-0.00304798
-0.000388291
-0.00301839
-0.000440642
-0.00299152
-0.000492827
-0.00296755
-0.000544815
-0.00294673
-0.000596483
-0.00292917
-0.00291477
-0.000647686
2.11316e-05
-0.000707115
5.09673e-05
-0.00174728
6.88701e-05
-0.00245559
6.67096e-05
-0.00288727
4.48129e-05
-0.00311542
7.47184e-06
-0.00321118
-4.02481e-05
-0.0032305
-9.41219e-05
-0.00321106
-0.00015122
-0.00317512
-0.000209755
-0.00313437
-0.000268727
-0.00309413
-0.000327616
-0.00305642
-0.000386166
-0.0030217
-0.000444287
-0.00298986
-0.000501999
-0.00296068
-0.000559384
-0.00293413
-0.000616527
-0.00291041
-0.00067343
-0.00288983
-0.000729954
-0.00287265
-0.00285883
-0.000785894
1.74356e-05
-0.000724551
3.85099e-05
-0.00176835
4.51494e-05
-0.00246223
3.13233e-05
-0.00287344
-1.3974e-06
-0.0030827
-4.82584e-05
-0.00316432
-0.000104237
-0.00317453
-0.000165378
-0.00314992
-0.000229059
-0.00311144
-0.000293742
-0.00306968
-0.000358594
-0.00302927
-0.000423181
-0.00299183
-0.000487281
-0.0029576
-0.000550804
-0.00292634
-0.000613765
-0.00289772
-0.000676269
-0.00287163
-0.00073845
-0.00284822
-0.000800362
-0.00282792
-0.000861859
-0.00281115
-0.00279805
-0.000922636
1.35659e-05
-0.000738117
2.58209e-05
-0.00178061
2.14192e-05
-0.00245783
-3.63055e-06
-0.00284839
-4.66493e-05
-0.00303968
-0.000102537
-0.00310843
-0.000166378
-0.00311068
-0.000234504
-0.00308179
-0.000304592
-0.00304135
-0.000375335
-0.00299894
-0.000446051
-0.00295856
-0.000516383
-0.0029215
-0.000586132
-0.00288785
-0.000655192
-0.00285728
-0.000723549
-0.00282936
-0.000791304
-0.00280387
-0.000858634
-0.00278089
-0.000925659
-0.00276089
-0.000992247
-0.00274457
-0.00273236
-0.00105794
9.56959e-06
-0.000747686
1.30298e-05
-0.00178407
-2.12431e-06
-0.00244268
-3.79253e-05
-0.00281259
-9.07167e-05
-0.00298689
-0.000155153
-0.003044
-0.000226476
-0.00303936
-0.000301313
-0.00300695
-0.000377627
-0.00296504
-0.000454328
-0.00292224
-0.000530875
-0.00288201
-0.000606992
-0.00284538
-0.000682503
-0.00281234
-0.00075728
-0.0027825
-0.000831258
-0.00275539
-0.000904491
-0.00273064
-0.000977168
-0.00270822
-0.00104949
-0.00268857
-0.00112135
-0.0026727
-0.00266152
-0.0011922
5.49271e-06
-0.000753179
2.57864e-07
-0.00177883
-2.53031e-05
-0.00241712
-7.13587e-05
-0.00276653
-0.000133397
-0.00292485
-0.000205915
-0.00297148
-0.000284344
-0.00296093
-0.000365611
-0.00292569
-0.000447951
-0.0028827
-0.000530475
-0.00283971
-0.000612784
-0.0027997
-0.000694688
-0.00276348
-0.000776058
-0.00273097
-0.000856759
-0.0027018
-0.000936669
-0.00267548
-0.00101576
-0.00265155
-0.0010942
-0.00262978
-0.00117229
-0.00261048
-0.00124999
-0.002595
-0.00258454
-0.00132697
1.37998e-06
-0.000754559
-1.23828e-05
-0.00176507
-4.79576e-05
-0.00238154
-0.000103752
-0.00271074
-0.000174513
-0.00285409
-0.000254645
-0.00289135
-0.000339801
-0.00287578
-0.000427198
-0.00283829
-0.000515325
-0.00279457
-0.000603488
-0.00275155
-0.000691425
-0.00271176
-0.000779056
-0.00267585
-0.000866332
-0.0026437
-0.000953158
-0.00261498
-0.00103939
-0.00258925
-0.00112492
-0.00256602
-0.00120986
-0.00254483
-0.00129464
-0.0025257
-0.00137947
-0.00251017
-0.00249902
-0.001465
-2.7265e-06
-0.000751832
-2.47913e-05
-0.00174301
-6.99482e-05
-0.00233638
-0.000134953
-0.00264573
-0.000213909
-0.00277514
-0.00030119
-0.00280407
-0.000392677
-0.00278429
-0.000485869
-0.0027451
-0.000579489
-0.00270095
-0.000673022
-0.00265802
-0.000766348
-0.00261844
-0.00085952
-0.00258267
-0.000952629
-0.00255059
-0.00104572
-0.00252189
-0.00113873
-0.00249623
-0.00123156
-0.00247319
-0.00132424
-0.00245216
-0.00141714
-0.0024328
-0.00151086
-0.00241644
-0.00240172
-0.00160816
-6.7882e-06
-0.000745044
-3.68792e-05
-0.00171292
-9.11572e-05
-0.00228211
-0.000164834
-0.00257206
-0.000251463
-0.00268851
-0.000345425
-0.0027101
-0.000442831
-0.00268688
-0.000541439
-0.00264649
-0.000640181
-0.00260221
-0.00073869
-0.00255951
-0.00083697
-0.00252016
-0.000935207
-0.00248444
-0.00103368
-0.00245212
-0.00113269
-0.00242288
-0.00123254
-0.00239639
-0.00133342
-0.0023723
-0.00143546
-0.00235011
-0.00153927
-0.00232899
-0.00164724
-0.00230848
-0.00230066
-0.00174829
-1.07583e-05
-0.000734286
-4.85516e-05
-0.00167512
-0.000111466
-0.00221919
-0.000193279
-0.00249024
-0.000287065
-0.00259472
-0.000387245
-0.00260992
-0.000490154
-0.00258397
-0.00059378
-0.00254286
-0.000697219
-0.00249877