/*--------------------------------*- C++ -*----------------------------------*\
  =========                 |
  \\      /  F ield         | OpenFOAM: The Open Source CFD Toolbox
   \\    /   O peration     | Website:  https://openfoam.org
    \\  /    A nd           | Version:  6.0
     \\/     M anipulation  |
\*---------------------------------------------------------------------------*/
FoamFile
{
    version     2.0;
    format      ascii;
    class       surfaceScalarField;
    location    "17";
    object      phi;
}
// * * * * * * * * * * * * * * * * * * * * * * * * * * * * * * * * * * * * * //

dimensions      [0 3 -1 0 0 0 0];

internalField   nonuniform List<scalar> 
7840
(
-3.08982e-06
3.13637e-06
-4.65586e-08
-1.08865e-05
7.88491e-06
-8.82283e-08
-2.22485e-05
1.1455e-05
-9.29711e-08
-3.62606e-05
1.40842e-05
-7.21133e-08
-5.21991e-05
1.59729e-05
-3.44381e-08
-6.95056e-05
1.7293e-05
1.35969e-08
-8.77648e-05
1.81917e-05
6.74343e-08
-0.000106683
1.87946e-05
1.24013e-07
-0.000126073
1.92086e-05
1.81396e-07
-0.000145837
1.95251e-05
2.38452e-07
-0.000165953
1.98212e-05
2.94589e-07
-0.000186464
2.01617e-05
3.49555e-07
-0.000207467
2.05999e-05
4.03278e-07
-0.000229101
2.11778e-05
4.55773e-07
-0.000251535
2.19268e-05
5.07072e-07
-0.00027496
2.2868e-05
5.57189e-07
-0.000299578
2.40119e-05
6.06105e-07
-0.000325591
2.53593e-05
6.53754e-07
-0.000353195
2.69041e-05
7e-07
2.86406e-05
7.44672e-07
-0.00038258
-3.06644e-06
6.20282e-06
-1.08048e-05
1.56233e-05
-2.20771e-05
2.27274e-05
-3.59681e-05
2.79752e-05
-5.17513e-05
3.17561e-05
-6.88642e-05
3.44058e-05
-8.68851e-05
3.62126e-05
-0.000105514
3.74231e-05
-0.000124554
3.82486e-05
-0.000143898
3.88697e-05
-0.000163517
3.94404e-05
-0.000183446
4.00908e-05
-0.000203775
4.09283e-05
-0.000224636
4.20392e-05
-0.000246198
4.34886e-05
-0.000268651
4.53209e-05
-0.000292199
4.75599e-05
-0.000317049
5.02092e-05
-0.000343403
5.32582e-05
5.66953e-05
-0.000371458
-3.02079e-06
9.22361e-06
-1.06444e-05
2.32468e-05
-2.17398e-05
3.38229e-05
-3.53916e-05
4.16269e-05
-5.08685e-05
4.7233e-05
-6.75998e-05
5.11371e-05
-8.51523e-05
5.37651e-05
-0.000103211
5.54821e-05
-0.000121564
5.66017e-05
-0.000140087
5.73927e-05
-0.000158733
5.80858e-05
-0.000177519
5.88772e-05
-0.000196522
5.99312e-05
-0.000215865
6.13817e-05
-0.000235708
6.33322e-05
-0.000256243
6.58558e-05
-0.000277678
6.89949e-05
-0.00030023
7.27608e-05
-0.000324113
7.71418e-05
8.21215e-05
-0.00034954
-2.95645e-06
1.21801e-05
-1.04162e-05
3.07066e-05
-2.12578e-05
4.46644e-05
-3.45653e-05
5.49344e-05
-4.96014e-05
6.22692e-05
-6.57839e-05
6.73196e-05
-8.26634e-05
7.06446e-05
-9.99053e-05
7.2724e-05
-0.000117273
7.39698e-05
-0.000134618
7.47371e-05
-0.000151864
7.53323e-05
-0.000169006
7.60191e-05
-0.000186097
7.70216e-05
-0.000203241
7.85265e-05
-0.000220592
8.06827e-05
-0.000238336
8.36003e-05
-0.00025669
8.7349e-05
-0.000275886
9.19562e-05
-0.00029616
9.74159e-05
0.00010371
-0.000317748
-2.87815e-06
1.50582e-05
-1.01348e-05
3.79632e-05
-2.06586e-05
5.51882e-05
-3.35338e-05
6.78096e-05
-4.80161e-05
7.67516e-05
-6.351e-05
8.28134e-05
-7.9547e-05
8.66816e-05
-9.57674e-05
8.89444e-05
-0.000111905
9.01077e-05
-0.000127777
9.06092e-05
-0.000143274
9.08289e-05
-0.000158353
9.10983e-05
-0.000173036
9.17048e-05
-0.000187404
9.28939e-05
-0.00020159
9.48689e-05
-0.000215778
9.77884e-05
-0.000230191
0.000101762
-0.000245083
0.000106848
-0.000260724
0.000113057
0.000120375
-0.000277389
-2.79099e-06
1.78492e-05
-9.81542e-06
4.49877e-05
-1.99718e-05
6.53445e-05
-3.23447e-05
8.01826e-05
-4.61834e-05
9.05902e-05
-6.08787e-05
9.75088e-05
-7.59418e-05
0.000101745
-9.09854e-05
0.000103988
-0.00010571
0.000104832
-0.000119891
0.00010479
-0.000133376
0.000104314
-0.000146077
0.0001038
-0.000157974
0.000103601
-0.000169109
0.000104029
-0.000179591
0.000105351
-0.000189592
0.000107789
-0.000199342
0.000111513
-0.000209121
0.000116627
-0.000219246
0.000123181
0.000131181
-0.000230051
-2.69962e-06
2.05488e-05
-9.47194e-06
5.176e-05
-1.92234e-05
7.5096e-05
-3.10396e-05
9.19987e-05
-4.41647e-05
0.000103715
-5.7978e-05
0.000111322
-7.19713e-05
0.000115738
-8.57299e-05
0.000117747
-9.89174e-05
0.000118019
-0.000111266
0.000117139
-0.000122573
0.00011562
-0.000132694
0.000113921
-0.000141554
0.000112461
-0.000149146
0.000111621
-0.000155538
0.000111743
-0.00016088
0.000113132
-0.000165404
0.000116037
-0.00016942
0.000120642
-0.000173303
0.000127065
0.000135354
-0.000177477
-2.60741e-06
2.31562e-05
-9.11382e-06
5.82664e-05
-1.84304e-05
8.44126e-05
-2.96445e-05
0.000103213
-4.19983e-05
0.000116069
-5.48629e-05
0.000124187
-6.77148e-05
0.00012859
-8.01148e-05
0.000130147
-9.16921e-05
0.000129597
-0.000102134
0.000127581
-0.000111181
0.000124667
-0.000118629
0.000121369
-0.000124332
0.000118165
-0.000128219
0.000115507
-0.0001303
0.000113824
-0.000130685
0.000113517
-0.000129596
0.000114947
-0.000127368
0.000118415
-0.000124453
0.000124149
0.000132291
-0.000121389
-2.51578e-06
2.5672e-05
-8.74395e-06
6.44946e-05
-1.75962e-05
9.32648e-05
-2.81623e-05
0.000113779
-3.96857e-05
0.000127592
-5.15353e-05
0.000136036
-6.31782e-05
0.000140233
-7.41575e-05
0.000141126
-8.40733e-05
0.000139513
-9.25717e-05
0.00013608
-9.93387e-05
0.000131434
-0.000104102
0.000126132
-0.00010664
0.000120703
-0.000106797
0.000115664
-0.000104505
0.000111532
-9.98093e-05
0.000108822
-9.28986e-05
0.000108037
-8.41241e-05
0.00010964
-7.40156e-05
0.00011404
0.000121545
-6.32693e-05
-2.42378e-06
2.80958e-05
-8.35733e-06
7.04281e-05
-1.67073e-05
0.000101615
-2.65662e-05
0.000123638
-3.71821e-05
0.000138208
-4.79275e-05
0.000146782
-5.82689e-05
0.000150574
-6.77407e-05
0.000150598
-7.59245e-05
0.000147696
-8.24342e-05
0.000142589
-8.69083e-05
0.000135908
-8.90095e-05
0.000128234
-8.84341e-05
0.000120128
-8.49303e-05
0.00011216
-7.83284e-05
0.00010493
-6.85804e-05
9.90741e-05
-5.58071e-05
9.52634e-05
-4.0348e-05
9.41814e-05
-2.28074e-05
9.64998e-05
0.00010281
-4.07272e-06
-2.32814e-06
3.04239e-05
-7.94085e-06
7.60408e-05
-1.57331e-05
0.000109407
-2.47981e-05
0.000132703
-3.43911e-05
0.000147801
-4.38936e-05
0.000156284
-5.27797e-05
0.00015946
-6.05867e-05
0.000158405
-6.68908e-05
0.000154
-7.12888e-05
0.000146987
-7.33862e-05
0.000138006
-7.2793e-05
0.000127641
-6.91295e-05
0.000116464
-6.20446e-05
0.000105075
-5.12496e-05
9.41348e-05
-3.65705e-05
8.43949e-05
-1.80179e-05
7.67108e-05
4.1265e-06
7.2037e-05
2.92111e-05
7.14152e-05
7.58898e-05
5.61311e-05
-2.2237e-06
3.26476e-05
-7.47465e-06
8.12918e-05
-1.46273e-05
0.00011656
-2.27712e-05
0.000140847
-3.11679e-05
0.000156198
-3.92106e-05
0.000164327
-4.63872e-05
0.000166637
-5.22482e-05
0.000164266
-5.63789e-05
0.000158131
-5.83777e-05
0.000148986
-5.78392e-05
0.000137467
-5.43439e-05
0.000124145
-4.74576e-05
0.000109578
-3.67432e-05
9.43607e-05
-2.17924e-05
7.9184e-05
-2.28293e-06
6.48855e-05
2.19303e-05
5.24976e-05
5.06875e-05
4.32798e-05
8.33483e-05
3.87543e-05
4.06475e-05
0.000118591
-2.10434e-06
3.4752e-05
-6.93466e-06
8.61221e-05
-1.33333e-05
0.000122958
-2.03778e-05
0.000147891
-2.733e-05
0.00016315
-3.35925e-05
0.000170589
-3.86682e-05
0.000171713
-4.21259e-05
0.000167723
-4.35718e-05
0.000159577
-4.26241e-05
0.000148038
-3.88923e-05
0.000133735
-3.19613e-05
0.000117214
-2.13804e-05
9.89969e-05
-6.66459e-06
7.9645e-05
1.26862e-05
5.98331e-05
3.71366e-05
4.04352e-05
6.70169e-05
2.26172e-05
0.00010236
7.93697e-06
0.000142633
-1.51866e-06
-3.06864e-06
0.000186349
-1.96402e-06
3.6716e-05
-6.29593e-06
9.0454e-05
-1.17907e-05
0.000128453
-1.74998e-05
0.0001536
-2.26741e-05
0.000168325
-2.67152e-05
0.00017463
-2.91337e-05
0.000174131
-2.9514e-05
0.000168104
-2.74854e-05
0.000157548
-2.26974e-05
0.00014325
-1.47978e-05
0.000125836
-3.41227e-06
0.000105829
1.18739e-05
8.37107e-05
3.15296e-05
5.99893e-05
5.60784e-05
3.52843e-05
8.60718e-05
1.04418e-05
0.000122007
-1.33184e-05
0.000164157
-3.4213e-05
0.000212222
-4.95833e-05
-5.55351e-05
0.000264689
-1.79788e-06
3.85139e-05
-5.53588e-06
9.4192e-05
-9.94164e-06
0.000132859
-1.40216e-05
0.00015768
-1.69963e-05
0.000171299
-1.82481e-05
0.000175882
-1.72775e-05
0.000173161
-1.36688e-05
0.000164495
-7.06362e-06
0.000150943
2.85994e-06
0.000133327
1.6406e-05
0.00011229
3.38792e-05
8.83554e-05
5.56055e-05
6.19844e-05
8.19556e-05
3.36392e-05
0.000113368
3.87186e-06
0.000150359
-2.6549e-05
0.000193489
-5.64483e-05
0.000243237
-8.39614e-05
0.000299647
-0.000105993
-0.00011731
0.000361422
-1.60277e-06
4.01167e-05
-4.63618e-06
9.72254e-05
-7.73582e-06
0.000135959
-9.83835e-06
0.000159783
-1.01088e-05
0.00017157
-7.88311e-06
0.000173657
-2.62335e-06
0.000167901
6.11522e-06
0.000155756
1.87059e-05
0.000138353
3.54646e-05
0.000116568
5.66599e-05
9.10944e-05
8.25215e-05
6.24939e-05
0.000113253
3.12531e-05
0.000149052
-2.15982e-06
0.000190145
-3.72211e-05
0.00023683
-7.32338e-05
0.000289511
-0.00010913
0.000348684
-0.000143135
0.000414721
-0.000172029
-0.000189419
0.000486829
-1.37707e-06
4.14937e-05
-3.58238e-06
9.94307e-05
-5.13023e-06
0.000137506
-4.85871e-06
0.000159511
-1.84675e-06
0.000168558
4.64923e-06
0.000167161
1.52423e-05
0.000157308
3.0446e-05
0.000140553
5.06905e-05
0.000118108
7.63282e-05
9.09303e-05
0.000107631
5.97918e-05
0.000144782
2.53428e-05
0.00018787
-1.18354e-05
0.00023689
-5.11798e-05
0.000291759
-9.209e-05
0.000352365
-0.000133839
0.000418645
-0.00017541
0.000490695
-0.000215185
0.000568846
-0.00025018
-0.000273599
0.000653027
-1.11952e-06
4.26133e-05
-2.36075e-06
0.000100672
-2.08389e-06
0.00013723
1.00275e-06
0.000156425
7.93922e-06
0.000161621
1.95848e-05
0.000155515
3.66679e-05
0.000140225
5.98149e-05
0.000117406
8.95622e-05
8.83608e-05
0.000126352
5.41401e-05
0.000170519
1.56248e-05
0.000222263
-2.64006e-05
0.000281616
-7.11884e-05
0.000348411
-0.000117974
0.000422249
-0.000165928
0.0005025
-0.00021409
0.000588349
-0.000261259
0.000678928
-0.000305765
0.000773634
-0.000344886
-0.000373181
0.000873217
-8.27276e-07
4.34405e-05
-9.52696e-07
0.000100797
1.45236e-06
0.000134824
7.84085e-06
0.000150036
1.94043e-05
0.000150058
3.71525e-05
0.000137767
6.19656e-05
0.000115412
9.46233e-05
8.4748e-05
0.000135811
4.71727e-05
0.000186114
3.83775e-06
0.000245989
-4.42502e-05
0.000315734
-9.61463e-05
0.000395439
-0.000150893
0.000484918
-0.000207453
0.000583621
-0.000264632
0.000690532
-0.000321001
0.000804047
-0.000374774
0.000921866
-0.000423584
0.00104117
-0.000464192
-0.000494725
0.00116272
-4.93676e-07
4.39342e-05
6.71748e-07
9.9632e-05
5.54802e-06
0.000129948
1.57791e-05
0.000139805
3.27372e-05
0.0001331
5.76104e-05
0.000112894
9.14571e-05
8.15649e-05
0.000135232
4.09727e-05
0.000189792
-7.38718e-06
0.000255883
-6.22526e-05
0.000334119
-0.000122487
0.000424963
-0.00018699
0.00052869
-0.000254621
0.000645361
-0.000324124
0.000774771
-0.000394042
0.000916352
-0.000462582
0.00106894
-0.000527365
0.00122999
-0.000584629
0.00139264
-0.000626847
-0.000637625
0.00153554
-1.07099e-07
4.40413e-05
2.55805e-06
9.69668e-05
1.03016e-05
0.000122205
2.49843e-05
0.000125122
4.81813e-05
0.000109903
8.12753e-05
7.97997e-05
0.000125509
3.73314e-05
0.000182003
-1.55218e-05
0.000251757
-7.71407e-05
0.000335629
-0.000146124
0.000434324
-0.000221182
0.00054839
-0.000301055
0.000678232
-0.000384463
0.000824184
-0.000470076
0.000986652
-0.000556509
0.0011664
-0.000642335
0.00136512
-0.000726081
0.00158665
-0.000806162
0.00184092
-0.000881118
-0.000946809
0.00215011
3.52556e-07
4.36887e-05
4.77363e-06
9.25457e-05
1.58488e-05
0.00011113
3.56754e-05
0.000105296
6.60437e-05
7.95344e-05
0.00010853
3.7313e-05
0.00016454
-1.86781e-05
0.000235308
-8.62903e-05
0.000321885
-0.000163717
0.000425102
-0.000249341
0.000545552
-0.000341633
0.000683584
-0.000439087
0.00083932
-0.000540199
0.00101273
-0.000643486
0.00120375
-0.00074753
0.00141248
-0.000851066
0.0016395
-0.000953098
0.00188636
-0.00105302
0.00215588
-0.00115064
-0.00123821
0.00244728
9.09217e-07
4.27795e-05
7.39873e-06
8.60562e-05
2.23492e-05
9.61791e-05
4.81042e-05
7.95408e-05
8.66675e-05
4.09711e-05
0.000139785
-1.5805e-05
0.000208967
-8.78602e-05
0.000295465
-0.000172788
0.000400227
-0.000268479
0.000523853
-0.000372967
0.000666553
-0.000484334
0.000828143
-0.000600676
0.00100806
-0.000720115
0.00120542
-0.000840846
0.0014191
-0.000961214
0.00164785
-0.00107982
0.00189036
-0.0011956
0.00214529
-0.00130795
0.00241116
-0.00141651
-0.00151298
0.00268594
1.59125e-06
4.11883e-05
1.05236e-05
7.71239e-05
2.9975e-05
7.67277e-05
6.25311e-05
4.69847e-05
0.000110386
-6.88338e-06
0.000175399
-8.08184e-05
0.000259086
-0.000171547
0.000362561
-0.000276262
0.000486464
-0.000392382
0.000630901
-0.000517404
0.000795407
-0.000648839
0.000978947
-0.000784217
0.00117997
-0.000921136
0.00139648
-0.00105735
0.00162614
-0.00119088
0.00186638
-0.00132006
0.00211445
-0.00144367
0.00236742
-0.00156092
0.00262228
-0.00167136
-0.00176819
0.00287749
2.42758e-06
3.87607e-05
1.42371e-05
6.53144e-05
3.8888e-05
5.20768e-05
7.91828e-05
6.68989e-06
0.000137452
-6.51526e-05
0.000215573
-0.000158939
0.000314913
-0.000270887
0.000436236
-0.000397586
0.000579616
-0.000535762
0.000744373
-0.000682161
0.000929073
-0.000833539
0.00113158
-0.000986727
0.00134918
-0.00113874
0.00157872
-0.00128689
0.00181677
-0.00142893
0.00205979
-0.00156308
0.00230422
-0.00168811
0.00254658
-0.00180329
0.00278359
-0.00190837
-0.00199865
0.00301406
3.44447e-06
3.53162e-05
1.86153e-05
5.01436e-05
4.9215e-05
2.1477e-05
9.82094e-05
-4.23045e-05
0.000167973
-0.000134916
0.000260249
-0.000251216
0.000376046
-0.000386684
0.000515514
-0.000537054
0.000677857
-0.000698106
0.000861323
-0.000865627
0.00106327
-0.00103549
0.00128033
-0.00120378
0.00150861
-0.00136702
0.00174397
-0.00152225
0.00198224
-0.00166719
0.00221941
-0.00180025
0.00245183
-0.00192053
0.00267627
-0.00202772
0.00289003
-0.00212214
-0.00220112
0.0030925
4.66274e-06
3.06535e-05
2.37121e-05
3.10942e-05
6.10274e-05
-1.58382e-05
0.000119647
-0.000100924
0.000201847
-0.000217115
0.00030903
-0.000358399
0.000441575
-0.000519229
0.000598709
-0.000694188
0.000778471
-0.000877867
0.00097779
-0.00106495
0.0011927
-0.00125039
0.00141862
-0.0014297
0.0016507
-0.0015991
0.00188417
-0.00175573
0.00211461
-0.00189764
0.00233819
-0.00202383
0.00255176
-0.00213409
0.00275294
-0.0022289
0.0029401
-0.0023093
-0.0023744
0.00311337
6.09603e-06
2.45575e-05
2.95523e-05
7.63793e-06
7.43252e-05
-6.06112e-05
0.000143392
-0.000169991
0.000238731
-0.000312454
0.000361139
-0.000480808
0.000510051
-0.000668142
0.000683457
-0.000867593
0.000877974
-0.00107238
0.0010891
-0.00127607
0.00131157
-0.00147287
0.00153984
-0.00165797
0.0017685
-0.00182777
0.00199269
-0.00197992
0.00220833
-0.00211327
0.00241229
-0.00222778
0.00260243
-0.00232423
0.00277756
-0.00240403
0.00293729
-0.00246903
-0.00251975
0.00308265
7.74991e-06
1.68076e-05
3.61274e-05
-2.07396e-05
8.90288e-05
-0.000113513
0.000169185
-0.000250147
0.000278023
-0.000421293
0.000415418
-0.000618203
0.000579531
-0.000832255
0.00076684
-0.0010549
0.0009724
-0.00127794
0.00119031
-0.00149398
0.00141429
-0.00169684
0.00163823
-0.00188192
0.00185674
-0.00204628
0.00206541
-0.00218859
0.00226105
-0.00230891
0.00244165
-0.00240838
0.00260632
-0.00248891
0.00275513
-0.00255283
0.00288881
-0.00260271
-0.00264008
0.00300914
9.62163e-06
7.18594e-06
4.33943e-05
-5.45123e-05
0.000104974
-0.000175093
0.000196609
-0.000341782
0.00031887
-0.000543553
0.000470369
-0.000769701
0.000647688
-0.00100957
0.000845617
-0.00125283
0.00105767
-0.00149
0.00127681
-0.00171312
0.00149616
-0.00191619
0.00170965
-0.00209541
0.00191244
-0.00224907
0.00210114
-0.00237728
0.00227376
-0.00248153
0.00242962
-0.00256425
0.00256909
-0.00262837
0.00269327
-0.00267701
0.00280375
-0.0027132
-0.00273911
0.00290279
1.17001e-05
-4.51413e-06
5.12741e-05
-9.40863e-05
0.000121914
-0.000245733
0.000225099
-0.000444966
0.000360199
-0.000678653
0.000524231
-0.000933734
0.000711977
-0.00119732
0.000916514
-0.00145737
0.00113004
-0.00170353
0.00134482
-0.00192789
0.00155396
-0.00212533
0.001752
-0.00229345
0.00193519
-0.00243226
0.00210144
-0.00254353
0.00225015
-0.00263024
0.0023819
-0.00269599
0.00249806
-0.00274453
0.0026005
-0.00277945
0.00269129
-0.00280399
-0.00282065
0.00277283
1.39655e-05
-1.84796e-05
5.96525e-05
-0.000139773
0.000139521
-0.000325601
0.00025395
-0.000559395
0.000400761
-0.000825464
0.000575096
-0.00110807
0.000769843
-0.00139207
0.000976535
-0.00166406
0.00118647
-0.00191347
0.00139178
-0.0021332
0.00158616
-0.00231971
0.00176528
-0.00247257
0.00192677
-0.00259375
0.00206998
-0.00268674
0.0021956
-0.00275586
0.00230521
-0.0028056
0.00240089
-0.00284022
0.00248491
-0.00286347
0.00255949
-0.00287858
-0.00288808
0.00262692
1.63893e-05
-3.4869e-05
6.83808e-05
-0.000191765
0.000157393
-0.000414614
0.000282354
-0.000684356
0.000439208
-0.000982318
0.000621046
-0.00128991
0.000818944
-0.00158997
0.00102325
-0.00186836
0.00122491
-0.00211513
0.00141654
-0.00232483
0.00159296
-0.00249613
0.00175128
-0.00263088
0.00189061
-0.00273308
0.00201165
-0.00280778
0.00211611
-0.00286032
0.00220626
-0.00289576
0.00228456
-0.00291851
0.00235335
-0.00293227
0.00241478
-0.00294001
-0.00294414
0.00247084
1.89338e-05
-5.38028e-05
7.72775e-05
-0.000250108
0.00017507
-0.000512406
0.000309433
-0.00081872
0.000474175
-0.00114706
0.000660304
-0.00147604
0.000857349
-0.00178701
0.00105498
-0.002066
0.00124444
-0.00230459
0.00141934
-0.00249974
0.00157598
-0.00265277
0.00171303
-0.00276793
0.001831
-0.00285106
0.00193168
-0.00290846
0.00201747
-0.00294612
0.00209102
-0.00296931
0.00215484
-0.00298233
0.00221118
-0.0029886
0.00226191
-0.00299074
-0.00299092
0.00230869
2.15521e-05
-7.53549e-05
8.61331e-05
-0.000314689
0.000192047
-0.00061832
0.000334289
-0.000960962
0.000504375
-0.00131714
0.000691372
-0.00166303
0.000883696
-0.00197934
0.00107095
-0.00225325
0.00124521
-0.00247884
0.00140153
-0.00265606
0.00153782
-0.00278906
0.00165424
-0.00288434
0.00175248
-0.00294929
0.00183506
-0.00299104
0.0019048
-0.00301586
0.0019644
-0.00302891
0.00201625
-0.00303418
0.00206233
-0.00303468
0.00210423
-0.00303265
-0.00302994
0.00214325
2.41891e-05
-9.9544e-05
9.47168e-05
-0.000385217
0.000207803
-0.000731406
0.000356058
-0.00110922
0.000528693
-0.00148978
0.000713143
-0.00184748
0.000897263
-0.00216345
0.00107118
-0.00242717
0.00122828
-0.00263594
0.00136526
-0.00279305
0.00148162
-0.00290542
0.00157879
-0.00298151
0.00165932
-0.00302982
0.00172617
-0.0030579
0.00178228
-0.00307196
0.0018302
-0.00307683
0.00187207
-0.00307605
0.00190958
-0.00307218
0.00194399
-0.00306706
-0.00306223
0.00197629
2.67829e-05
-0.000126327
0.000102786
-0.00046122
0.000221826
-0.000850446
0.000373969
-0.00126136
0.000546264
-0.00166208
0.000724963
-0.00202618
0.000897959
-0.00233645
0.00105643
-0.00258564
0.00119535
-0.00277486
0.00131312
-0.00291082
0.00141064
-0.00300293
0.00149033
-0.00306121
0.00155528
-0.00309477
0.00160862
-0.00311124
0.00165317
-0.00311651
0.00169125
-0.0031149
0.00172467
-0.00310947
0.00175481
-0.00310232
0.00178266
-0.00309492
-0.00308851
0.00180894
2.92669e-05
-0.000155594
0.000110098
-0.000542051
0.000233645
-0.000973993
0.00038739
-0.0014151
0.000556517
-0.0018312
0.000726639
-0.0021963
0.000886253
-0.00249606
0.00102798
-0.00272736
0.00114852
-0.00289541
0.00124784
-0.00301014
0.00132801
-0.0030831
0.00139211
-0.00312531
0.0014435
-0.00314616
0.00148526
-0.00315299
0.00151994
-0.0031512
0.00154957
-0.00314454
0.00157566
-0.00313555
0.00159927
-0.00312594
0.00162118
-0.00311682
-0.00310922
0.00164189
3.15727e-05
-0.000187166
0.000116421
-0.000626899
0.000242852
-0.00110042
0.000395865
-0.00156812
0.000559195
-0.00199453
0.000718394
-0.0023555
0.000863049
-0.00264072
0.000987456
-0.00285177
0.00109003
-0.00299798
0.00117208
-0.00309219
0.00123653
-0.00314755
0.00128688
-0.00317566
0.00132649
-0.00318577
0.00135823
-0.00318474
0.00138438
-0.00317734
0.00140661
-0.00316677
0.00142613
-0.00315508
0.00144378
-0.00314359
0.00146014
-0.00313318
-0.00312464
0.00147556
3.36328e-05
0.000121548
0.000249131
0.000399129
0.000554341
0.000700803
0.000829552
0.000936651
0.00102207
0.00108823
0.0011386
0.00117684
0.00120617
0.00122916
0.00124776
0.00126332
0.00127681
0.00128888
0.00129994
0.00131024
3.36286e-05
0.000187124
0.000121535
0.000626773
0.000249109
0.00110022
0.0003991
0.00156785
0.00055431
0.00199423
0.000700775
0.00235518
0.000829533
0.00264039
0.000936644
0.00285145
0.00102208
0.00299767
0.00108824
0.0030919
0.00113863
0.00314728
0.00117688
0.0031754
0.00120622
0.00318553
0.00122922
0.00318451
0.00124782
0.00317712
0.0012634
0.00316655
0.0012769
0.00315487
0.00128897
0.00314339
0.00130004
0.00313299
0.00312445
0.00131034
3.15684e-05
0.000155556
0.000116407
0.000541935
0.000242828
0.000973802
0.000395831
0.00141485
0.000559157
0.0018309
0.000718357
0.00219598
0.000863019
0.00249573
0.000987437
0.00272703
0.00109002
0.00289509
0.00117209
0.00300984
0.00123655
0.00308281
0.00128691
0.00312504
0.00132653
0.00314591
0.00135829
0.00315275
0.00138444
0.00315096
0.00140668
0.00314431
0.00142621
0.00313534
0.00144387
0.00312573
0.00146024
0.00311662
0.00310902
0.00147567
2.92626e-05
0.000126293
0.000110083
0.000461114
0.000233618
0.000850267
0.000387352
0.00126112
0.000556471
0.00166178
0.000726591
0.00202586
0.00088621
0.00233611
0.00102794
0.00258529
0.0011485
0.00277453
0.00124784
0.0029105
0.00132802
0.00300263
0.00139214
0.00306092
0.00144354
0.00309451
0.0014853
0.00311099
0.00152
0.00311627
0.00154964
0.00311467
0.00157574
0.00310925
0.00159936
0.0031021
0.00162128
0.0030947
0.0030883
0.00164199
2.67786e-05
9.95146e-05
0.000102771
0.000385121
0.000221798
0.000731241
0.000373926
0.00110899
0.000546211
0.0014895
0.000724906
0.00184716
0.000897902
0.00216311
0.00105638
0.00242682
0.00119531
0.00263559
0.0013131
0.00279271
0.00141063
0.0029051
0.00149034
0.00298122
0.0015553
0.00302954
0.00160866
0.00305763
0.00165322
0.00307171
0.00169131
0.00307658
0.00172474
0.00307581
0.00175489
0.00307195
0.00178276
0.00306684
0.00306202
0.00180904
2.41849e-05
7.53297e-05
9.4702e-05
0.000314604
0.000207773
0.000618169
0.000356012
0.000960748
0.000528634
0.00131687
0.000713075
0.00166272
0.000897192
0.00197899
0.00107111
0.0022529
0.00122822
0.00247849
0.00136522
0.00265572
0.00148159
0.00278873
0.00157878
0.00288403
0.00165932
0.00294899
0.0017262
0.00299076
0.00178231
0.00301559
0.00183025
0.00302865
0.00187214
0.00303393
0.00190965
0.00303444
0.00194408
0.00303241
0.00302971
0.00197639
2.15481e-05
5.37817e-05
8.61185e-05
0.000250034
0.000192017
0.000512271
0.000334241
0.000818524
0.00050431
0.00114681
0.000691294
0.00147574
0.000883612
0.00178668
0.00107087
0.00206564
0.00124513
0.00230422
0.00140147
0.00249938
0.00153777
0.00265242
0.00165421
0.00276759
0.00175246
0.00285074
0.00183507
0.00290815
0.00190482
0.00294584
0.00196444
0.00296903
0.0020163
0.00298207
0.00206239
0.00298834
0.00210431
0.00299049
0.00299068
0.00214334
1.893e-05
3.48517e-05
7.72633e-05
0.0001917
0.00017504
0.000414494
0.000309385
0.000684179
0.000474106
0.000982084
0.000660219
0.00128962
0.000857252
0.00158964
0.00105488
0.00186801
0.00124434
0.00211477
0.00141925
0.00232447
0.00157591
0.00249577
0.00171297
0.00263053
0.00183096
0.00273274
0.00193166
0.00280746
0.00201747
0.00286002
0.00209104
0.00289546
0.00215488
0.00291823
0.00221123
0.002932
0.00226198
0.00293974
0.00294388
0.00230878
1.63859e-05
1.84658e-05
6.83673e-05
0.000139719
0.000157364
0.000325498
0.000282305
0.000559237
0.000439137
0.000825252
0.000620955
0.00110781
0.000818835
0.00139176
0.00102313
0.00166372
0.00122479
0.00191311
0.00141643
0.00213283
0.00159286
0.00231934
0.00175118
0.00247221
0.00189054
0.00259339
0.0020116
0.0026864
0.00211608
0.00275554
0.00220625
0.00280529
0.00228457
0.00283991
0.00235338
0.00286318
0.00241483
0.00287829
0.00288781
0.0024709
1.39624e-05
4.50337e-06
5.964e-05
9.40413e-05
0.000139493
0.000245645
0.000253902
0.000444829
0.000400689
0.000678465
0.000575
0.000933495
0.000769726
0.00119704
0.000976401
0.00145705
0.00118633
0.00170318
0.00139163
0.00192752
0.00158602
0.00212495
0.00176515
0.00229307
0.00192666
0.00243188
0.00206989
0.00254317
0.00219553
0.00262989
0.00230517
0.00269566
0.00240087
0.00274421
0.00248491
0.00277914
0.00255952
0.00280369
0.00282036
0.00262696
1.16974e-05
-7.19402e-06
5.12626e-05
5.4476e-05
0.000121888
0.000175019
0.000225052
0.000341665
0.000360127
0.00054339
0.000524132
0.000769489
0.000711853
0.00100932
0.000916367
0.00125253
0.00112988
0.00148967
0.00134465
0.00171276
0.00155378
0.00191581
0.00175183
0.00209502
0.00193503
0.00224868
0.0021013
0.0023769
0.00225004
0.00248116
0.00238181
0.00256389
0.002498
0.00262802
0.00260046
0.00267667
0.00269128
0.00271287
0.0027388
0.00277284
9.61934e-06
-1.68134e-05
4.33838e-05
2.07115e-05
0.000104949
0.000113454
0.000196564
0.000250051
0.000318799
0.000421154
0.000470269
0.00061802
0.000647559
0.000832026
0.00084546
0.00105463
0.00105749
0.00127763
0.00127662
0.00149364
0.00149595
0.00169647
0.00170944
0.00188153
0.00191224
0.00204589
0.00210095
0.00218819
0.00227359
0.00230851
0.00242948
0.002408
0.00256897
0.00248853
0.00269318
0.00255247
0.00280369
0.00260236
0.00263973
0.00290276
7.74789e-06
-2.45612e-05
3.61176e-05
-7.65822e-06
8.90049e-05
6.05666e-05
0.00016914
0.000169915
0.000277952
0.000312342
0.000415318
0.000480654
0.000579399
0.000667945
0.000766675
0.000867353
0.000972205
0.0010721
0.00119009
0.00127575
0.00141405
0.00147252
0.00163798
0.0016576
0.00185649
0.00182738
0.00206517
0.00197951
0.00226082
0.00211287
0.00244144
0.00222737
0.00260614
0.00232383
0.00275498
0.00240363
0.00288869
0.00246864
0.00251937
0.00300905
6.09409e-06
-3.06553e-05
2.95425e-05
-3.11067e-05
7.43012e-05
1.58079e-05
0.000143347
0.000100869
0.00023866
0.000217029
0.000361037
0.000358277
0.000509915
0.000519067
0.000683285
0.000693984
0.000877767
0.000877621
0.00108886
0.00106466
0.0013113
0.00125007
0.00153955
0.00142935
0.00176821
0.00159872
0.0019924
0.00175533
0.00220804
0.00189722
0.00241201
0.0020234
0.00260217
0.00213367
0.00277733
0.00222848
0.00293709
0.00230888
0.00237398
0.00308248
4.66056e-06
-3.53159e-05
2.37014e-05
-5.01475e-05
6.10016e-05
-2.14922e-05
0.0001196
4.22709e-05
0.000201772
0.000134857
0.000308924
0.000251126
0.000441433
0.000386558
0.000598529
0.000536888
0.000778252
0.000697899
0.000977534
0.000865379
0.00119241
0.0010352
0.0014183
0.00120346
0.00165036
0.00136666
0.00188382
0.00152187
0.00211426
0.00166678
0.00233784
0.00179982
0.00255142
0.00192009
0.00275262
0.00202728
0.00293981
0.00212169
0.00220067
0.00311312
3.44164e-06
-3.87575e-05
1.86025e-05
-6.53084e-05
4.91854e-05
-5.20751e-05
9.81566e-05
-6.7004e-06
0.000167891
6.51223e-05
0.000260134
0.000158882
0.000375895
0.000270798
0.000515322
0.00039746
0.000677624
0.000535597
0.000861049
0.000681954
0.00106296
0.000833291
0.00127998
0.000986437
0.00150823
0.00113841
0.00174357
0.00128653
0.00198182
0.00142853
0.00221898
0.00156266
0.00245141
0.00168766
0.00267586
0.00180283
0.00288965
0.0019079
0.00199818
0.00309214
2.42364e-06
-4.11812e-05
1.42209e-05
-7.71056e-05
3.88521e-05
-7.67063e-05
7.9121e-05
-4.69693e-05
0.000137359
6.88403e-06
0.000215445
8.07966e-05
0.000314746
0.000171497
0.000436028
0.000276178
0.000579365
0.00039226
0.000744078
0.000517241
0.000928734
0.000648634
0.0011312
0.000783969
0.00134877
0.000920846
0.00157827
0.00105702
0.0018163
0.00119051
0.0020593
0.00131966
0.00230372
0.00144324
0.00254608
0.00156046
0.00278311
0.00167088
0.00176769
0.00301359
1.58576e-06
-4.27669e-05
1.05027e-05
-8.60226e-05
2.99307e-05
-9.61342e-05
6.2457e-05
-7.94957e-05
0.000110277
-4.0936e-05
0.000175252
1.58213e-05
0.000258898
8.78506e-05
0.00036233
0.000172747
0.000486188
0.000268402
0.000630579
0.00037285
0.000795038
0.000484175
0.000978533
0.000600474
0.00117951
0.000719869
0.00139598
0.000840555
0.00162561
0.00096088
0.00186582
0.00107944
0.00211387
0.00119519
0.00236684
0.0013075
0.00262169
0.00141602
0.00151247
0.00287691
9.01866e-07
-4.36688e-05
7.37232e-06
-9.24931e-05
2.22949e-05
-0.000111057
4.80157e-05
-0.000105216
8.65404e-05
-7.94606e-05
0.000139617
-3.72548e-05
0.000208755
1.87125e-05
0.000295207
8.62947e-05
0.000399922
0.000163687
0.0005235
0.000249273
0.000666151
0.000341523
0.000827692
0.000438933
0.00100756
0.000540001
0.00120487
0.000643241
0.00141852
0.000747238
0.00164723
0.000850727
0.0018897
0.000952712
0.00214462
0.00105259
0.00241048
0.00115016
0.0012377
0.00268525
3.43202e-07
-4.4012e-05
4.74144e-06
-9.68913e-05
1.57843e-05
-0.0001221
3.55721e-05
-0.000125004
6.58975e-05
-0.000109786
0.000108339
-7.9696e-05
0.000164301
-3.72497e-05
0.000235021
1.55747e-05
0.000321548
7.71596e-05
0.000424715
0.000146106
0.000545115
0.000221123
0.000683095
0.000300953
0.00083878
0.000384315
0.00101214
0.000469882
0.00120311
0.000556266
0.0014118
0.000642041
0.00163877
0.000725734
0.0018856
0.00080576
0.0021551
0.000880659
0.000946312
0.00244649
-1.18352e-07
-4.38937e-05
2.5205e-06
-9.95302e-05
1.02278e-05
-0.000129807
2.48678e-05
-0.000139644
4.80182e-05
-0.000132936
8.10634e-05
-0.000112741
0.000125247
-8.1433e-05
0.00018169
-4.0869e-05
0.000251392
7.45756e-06
0.000335212
6.22858e-05
0.000433855
0.00012248
0.000547867
0.000186941
0.000677655
0.000254528
0.000823551
0.000323985
0.000985962
0.000393855
0.00116566
0.000462345
0.00136432
0.000527073
0.0015858
0.000584276
0.00184003
0.000626429
0.000637149
0.0021492
-5.06473e-07
-4.33872e-05
6.30054e-07
-0.000100667
5.4673e-06
-0.000134644
1.56533e-05
-0.00014983
3.25627e-05
-0.000149846
5.73854e-05
-0.000137564
9.11807e-05
-0.000115228
0.000134904
-8.45925e-05
0.000189412
-4.70502e-05
0.00025545
-3.7519e-06
0.000333633
4.4297e-05
0.000424421
9.61525e-05
0.000528091
0.000150858
0.000644703
0.000207374
0.000774049
0.000264509
0.000915562
0.000320832
0.00106808
0.000374557
0.00122904
0.000423314
0.0013916
0.000463868
0.000494353
0.0015344
-8.41045e-07
-4.25461e-05
-9.96691e-07
-0.000100511
1.36836e-06
-0.000137009
7.71129e-06
-0.000156173
1.92264e-05
-0.000161361
3.69249e-05
-0.000155262
6.16881e-05
-0.000139992
9.42958e-05
-0.0001172
0.000135434
-8.81882e-05
0.000185686
-5.40038e-05
0.000245509
-1.55267e-05
0.000315202
2.64597e-05
0.000394852
7.12081e-05
0.000484271
0.000117955
0.000582911
0.000165869
0.000689751
0.000213992
0.000803188
0.00026112
0.000920917
0.000305585