/*--------------------------------*- C++ -*----------------------------------*\
  =========                 |
  \\      /  F ield         | OpenFOAM: The Open Source CFD Toolbox
   \\    /   O peration     | Website:  https://openfoam.org
    \\  /    A nd           | Version:  6.0
     \\/     M anipulation  |
\*---------------------------------------------------------------------------*/
FoamFile
{
    version     2.0;
    format      ascii;
    class       volVectorField;
    location    "17";
    object      U;
}
// * * * * * * * * * * * * * * * * * * * * * * * * * * * * * * * * * * * * * //

dimensions      [0 1 -1 0 0 0 0];

internalField   nonuniform List<vector> 
4000
(
(-0.000534573 0.000627345 -3.65648e-21)
(-0.00289668 0.001541 1.95453e-20)
(-0.00724214 0.0021723 -2.37737e-20)
(-0.0125685 0.00259092 1.81038e-20)
(-0.0183615 0.00284891 8.81651e-21)
(-0.024336 0.0029877 -2.64757e-20)
(-0.030291 0.00304164 -2.34033e-21)
(-0.0360987 0.00303905 -8.30929e-22)
(-0.0416909 0.0030031 -1.37465e-20)
(-0.0470421 0.00295278 -7.44869e-21)
(-0.0521578 0.00290354 5.55369e-21)
(-0.0570654 0.00286782 2.1121e-20)
(-0.0618073 0.00285538 -1.57916e-21)
(-0.0664347 0.00287353 2.26582e-21)
(-0.0710041 0.00292733 -2.12843e-20)
(-0.0755764 0.00301967 1.3117e-20)
(-0.0802119 0.00315139 -1.88023e-20)
(-0.0849292 0.00332216 2.84564e-20)
(-0.0896926 0.00353147 -3.18822e-23)
(-0.0947776 0.0037725 6.15961e-21)
(-0.000627478 0.00183755 1.21431e-20)
(-0.00311692 0.00453504 -6.20608e-20)
(-0.00753478 0.00641776 -4.28674e-20)
(-0.0128922 0.00768437 -2.91122e-20)
(-0.0186829 0.00848327 -3.74537e-20)
(-0.0246269 0.00893303 8.2398e-21)
(-0.0305273 0.00913273 -4.32389e-20)
(-0.036259 0.0091645 -9.71379e-21)
(-0.0417556 0.00909616 3.06606e-21)
(-0.0469932 0.00898367 3.23208e-20)
(-0.0519781 0.00887298 -3.52638e-20)
(-0.0567385 0.00880133 4.90582e-20)
(-0.0613177 0.00879818 -3.6743e-20)
(-0.0657681 0.00888586 -4.35815e-20)
(-0.0701474 0.00908 -6.00773e-20)
(-0.0745186 0.00938962 3.83579e-20)
(-0.0789441 0.0098176 -1.24221e-20)
(-0.0834441 0.0103633 -4.52257e-20)
(-0.0879824 0.0110252 4.27623e-20)
(-0.0928396 0.0117827 -3.18313e-20)
(-0.000811081 0.00302592 1.18718e-19)
(-0.00355271 0.0074764 6.14857e-20)
(-0.00811427 0.010588 6.91491e-20)
(-0.0135334 0.0126844 5.7546e-21)
(-0.0193195 0.0140084 3.82201e-20)
(-0.0252032 0.014754 4.77006e-20)
(-0.0309953 0.0150838 -8.66954e-20)
(-0.0365764 0.0151329 -4.5913e-20)
(-0.041884 0.0150131 -5.98052e-20)
(-0.0468966 0.014817 6.38382e-20)
(-0.0516223 0.0146212 -4.87652e-20)
(-0.056091 0.0144881 -6.27554e-20)
(-0.0603476 0.0144677 -2.28542e-20)
(-0.0644468 0.0145983 2.17113e-20)
(-0.0684488 0.0149072 -6.04767e-21)
(-0.0724204 0.0154111 8.69916e-21)
(-0.0764283 0.0161159 1.00829e-19)
(-0.0804966 0.0170216 -1.41363e-20)
(-0.0845885 0.018127 -1.02557e-19)
(-0.0889941 0.0193967 1.35389e-19)
(-0.00108279 0.00417911 4.13163e-20)
(-0.004199 0.0103322 -5.83458e-20)
(-0.00897546 0.0146354 -1.46375e-20)
(-0.0144881 0.0175319 2.73711e-20)
(-0.0202694 0.0193549 7.77131e-20)
(-0.0260658 0.0203717 1.70147e-19)
(-0.0316998 0.0208064 1.66264e-19)
(-0.0370605 0.0208452 1.38181e-20)
(-0.042091 0.020643 1.0197e-19)
(-0.0467734 0.0203285 1.5609e-19)
(-0.0511187 0.0200087 -1.24739e-19)
(-0.0551588 0.0197718 1.84608e-19)
(-0.0589409 0.0196895 -4.18268e-20)
(-0.0625225 0.0198178 1.05389e-20)
(-0.0659681 0.0201982 4.36887e-20)
(-0.0693494 0.0208566 5.80782e-20)
(-0.0727405 0.0218044 -9.13736e-20)
(-0.0761712 0.0230445 -7.62972e-20)
(-0.0796049 0.0245775 -1.35089e-19)
(-0.0833473 0.0263524 1.96849e-19)
(-0.00143899 0.00528567 -2.15843e-20)
(-0.00504842 0.0130733 -2.20959e-19)
(-0.0101104 0.0185173 -6.53582e-20)
(-0.0157493 0.022173 -1.5927e-19)
(-0.0215279 0.0244599 6.02073e-20)
(-0.0272135 0.025715 -9.49533e-20)
(-0.0326443 0.0262208 3.26622e-20)
(-0.0377208 0.0262129 -2.01129e-19)
(-0.0423935 0.025887 1.06113e-19)
(-0.0466496 0.0254069 -1.26546e-19)
(-0.0505031 0.0249099 -1.1255e-19)
(-0.0539884 0.0245106 -1.26041e-19)
(-0.0571552 0.0243039 1.14421e-19)
(-0.0600645 0.0243658 -1.02753e-19)
(-0.0627856 0.0247546 1.43088e-19)
(-0.0653975 0.0255095 4.13732e-20)
(-0.0679836 0.0266507 1.02434e-19)
(-0.0705827 0.0281867 4.49901e-20)
(-0.0731603 0.0301238 -1.78083e-19)
(-0.0760439 0.0323945 2.9006e-19)
(-0.00187533 0.00633641 9.51791e-20)
(-0.00609144 0.0156751 7.3128e-21)
(-0.0115077 0.0221968 3.92063e-20)
(-0.0173057 0.026561 1.36795e-19)
(-0.0230852 0.0292686 -2.09351e-20)
(-0.0286395 0.0307222 2.22145e-19)
(-0.0338267 0.0312592 9.86069e-20)
(-0.0385615 0.0311611 8.2896e-21)
(-0.0428041 0.0306623 2.53569e-19)
(-0.0465476 0.0299598 8.30961e-20)
(-0.0498094 0.0292204 3.94226e-20)
(-0.0526265 0.0285853 1.25118e-19)
(-0.0550509 0.0281741 1.14701e-19)
(-0.0571472 0.0280857 2.09435e-19)
(-0.0589903 0.0283992 -1.87199e-19)
(-0.0606673 0.0291718 2.64711e-19)
(-0.0622739 0.0304373 3.52794e-21)
(-0.0638613 0.032216 -3.38491e-19)
(-0.0654009 0.034524 4.38925e-19)
(-0.0672504 0.0372783 1.81974e-19)
(-0.00238693 0.00732447 -5.60905e-20)
(-0.00731648 0.0181176 -1.01828e-19)
(-0.0131522 0.0256428 -2.11872e-19)
(-0.0191403 0.0306565 -6.2786e-21)
(-0.0249238 0.0337355 3.61598e-20)
(-0.0303274 0.0353432 -2.7054e-19)
(-0.0352336 0.0358678 -2.00715e-19)
(-0.0395744 0.0356327 -2.87094e-20)
(-0.0433217 0.0349074 -2.53902e-19)
(-0.0464755 0.0339197 -1.75807e-19)
(-0.0490574 0.0328638 -5.12377e-20)
(-0.0511063 0.0319075 -1.64997e-19)
(-0.0526762 0.031196 -2.68162e-21)
(-0.0538344 0.0308542 -2.19156e-19)
(-0.0546612 0.0309866 9.22197e-20)
(-0.0552533 0.0316744 -1.05209e-19)
(-0.0557206 0.032973 8.06479e-20)
(-0.056131 0.0349215 -1.02552e-19)
(-0.0564676 0.037555 -2.9332e-19)
(-0.057129 0.0407764 -8.91562e-20)
(-0.00296857 0.00824496 -2.06571e-20)
(-0.00870974 0.020385 -2.24292e-20)
(-0.0150236 0.0288302 1.77648e-19)
(-0.0212277 0.0344274 -2.89097e-19)
(-0.0270147 0.0378241 4.24114e-20)
(-0.0322461 0.0395397 -1.66997e-19)
(-0.0368333 0.0400082 7.8912e-20)
(-0.0407294 0.03959 3.54709e-19)
(-0.04392 0.0385854 -2.27497e-20)
(-0.0464139 0.0372489 -2.64633e-19)
(-0.0482368 0.0357995 4.8085e-20)
(-0.0494291 0.0344297 9.31852e-21)
(-0.0500457 0.0333106 -5.43521e-20)
(-0.0501555 0.0325954 5.48108e-21)
(-0.0498434 0.032419 4.77522e-19)
(-0.0492155 0.0328944 -6.79907e-20)
(-0.048398 0.0341077 -1.32673e-19)
(-0.0474798 0.0361291 -2.38136e-19)
(-0.0464637 0.0390247 2.4293e-19)
(-0.0458048 0.0426899 1.04736e-19)
(-0.0036147 0.00909441 1.04256e-19)
(-0.0102549 0.0224646 -1.36412e-19)
(-0.0170958 0.0317382 1.92852e-19)
(-0.0235326 0.0378477 1.94129e-19)
(-0.0293141 0.0415064 1.78947e-19)
(-0.0343443 0.0432848 3.62858e-19)
(-0.0385685 0.0436574 2.34648e-19)
(-0.0419645 0.043016 -5.04226e-19)
(-0.044535 0.0416864 2.57877e-19)
(-0.0462988 0.0399445 2.02362e-19)
(-0.0472867 0.0380297 -2.8697e-21)
(-0.0475403 0.0361556 2.26538e-19)
(-0.0471138 0.0345179 1.76629e-19)
(-0.046076 0.0332986 -9.60805e-20)
(-0.0445143 0.0326675 3.24709e-19)
(-0.0425437 0.0327772 -4.02533e-19)
(-0.0403075 0.033757 1.6114e-19)
(-0.0379198 0.0357243 2.07293e-19)
(-0.0354129 0.0387947 -4.83465e-20)
(-0.0333209 0.0428686 4.162e-19)
(-0.00431926 0.00986996 2.0956e-19)
(-0.0119323 0.0243451 1.08623e-20)
(-0.019335 0.0343487 -7.52028e-20)
(-0.0260069 0.0408954 -7.9424e-20)
(-0.0317592 0.0447604 -3.67806e-19)
(-0.0365448 0.0465607 5.20881e-20)
(-0.0403476 0.0468057 1.47566e-19)
(-0.043175 0.0459129 -7.09779e-20)
(-0.0450499 0.0442275 5.85477e-20)
(-0.0460037 0.0420402 -1.55257e-20)
(-0.0460734 0.0396045 -7.64802e-20)
(-0.045302 0.0371495 7.26023e-20)
(-0.043742 0.034891 -3.15711e-19)
(-0.0414598 0.0330382 3.02642e-19)
(-0.0385429 0.0317976 -2.62169e-19)
(-0.0351125 0.0313687 8.09895e-20)
(-0.0313295 0.0319375 1.84301e-19)
(-0.0273358 0.0336888 -3.83452e-20)
(-0.0232052 0.0368154 -1.27603e-19)
(-0.0195812 0.041244 -8.6654e-20)
(-0.00507537 0.0105685 -2.61052e-19)
(-0.0137186 0.0260152 -1.71571e-20)
(-0.0216988 0.0366442 5.49712e-20)
(-0.0285875 0.0435501 1.41308e-19)
(-0.0342652 0.0475672 -1.99498e-19)
(-0.0387393 0.0493551 -1.7408e-19)
(-0.0420383 0.0494529 4.0631e-19)
(-0.0442032 0.0482984 -2.24517e-19)
(-0.0452815 0.0462491 -1.44826e-19)
(-0.0453203 0.043604 -2.07801e-19)
(-0.0443653 0.0406224 1.37563e-19)
(-0.0424621 0.0375411 -3.72995e-21)
(-0.0396613 0.0345878 -2.56889e-19)
(-0.0360254 0.0319935 -4.20224e-19)
(-0.0316389 0.0299986 3.20141e-19)
(-0.0266262 0.028853 -2.59388e-19)
(-0.0211636 0.0288118 3.67794e-19)
(-0.0154228 0.0301514 -1.03024e-19)
(-0.00952983 0.0331785 2.16768e-19)
(-0.00428011 0.0378811 -7.34555e-19)
(-0.00587497 0.0111862 -5.28741e-19)
(-0.0155855 0.0274622 3.46656e-19)
(-0.0241348 0.0386052 4.71425e-20)
(-0.031195 0.0457898 9.11824e-21)
(-0.0367225 0.0499072 -2.1369e-19)
(-0.0407852 0.0516562 3.14235e-19)
(-0.043461 0.0516022 3.42997e-20)
(-0.0448299 0.0501978 -6.44347e-20)
(-0.0449679 0.0478074 -2.06802e-19)
(-0.0439424 0.0447306 2.23544e-19)
(-0.0418111 0.0412242 5.6673e-19)
(-0.0386253 0.0375225 -1.25208e-19)
(-0.0344356 0.0338546 2.82881e-19)
(-0.0293004 0.0304612 -3.34141e-19)
(-0.0232994 0.0276082 -3.20358e-19)
(-0.0165572 0.0255923 1.92654e-19)
(-0.0092621 0.0247435 3.18322e-19)
(-0.00161445 0.0254536 -1.03144e-18)
(0.00619965 0.0281893 1.211e-19)
(0.0131781 0.0330522 1.64508e-19)
(-0.00670845 0.0117177 3.91542e-19)
(-0.0174992 0.0286705 1.28782e-19)
(-0.0265799 0.0402093 6.70759e-19)
(-0.0337323 0.0475886 3.4508e-20)
(-0.0389953 0.0517559 -7.45889e-20)
(-0.0425026 0.0534477 -3.55169e-19)
(-0.0443863 0.0532526 3.02043e-19)
(-0.0447694 0.051635 5.41866e-19)
(-0.0437613 0.0489613 3.61007e-19)
(-0.041454 0.0455262 2.60609e-19)
(-0.0379227 0.0415765 2.24646e-19)
(-0.0332294 0.0373333 -4.03435e-19)
(-0.0274293 0.0330138 -1.26373e-19)
(-0.0205803 0.0288527 -9.30352e-20)
(-0.0127585 0.0251238 9.97103e-19)
(-0.00408712 0.0221559 -3.4614e-21)
(0.00523638 0.020348 -2.48454e-19)
(0.0149874 0.0202213 -7.83895e-20)
(0.0249204 0.0224538 7.13082e-19)
(0.0337611 0.0273302 9.34025e-20)
(-0.00756443 0.0121565 -1.93138e-20)
(-0.0194202 0.0296218 -3.70336e-19)
(-0.0289598 0.0414295 -5.50884e-19)
(-0.0360845 0.0489147 -1.53268e-19)
(-0.0409216 0.0530813 8.4632e-20)
(-0.0436749 0.0547034 1.82279e-20)
(-0.0445343 0.0543916 4.83275e-19)
(-0.0436694 0.0526205 -5.99371e-19)
(-0.0412266 0.0497571 -2.27983e-19)
(-0.0373275 0.0460881 -4.59433e-19)
(-0.0320707 0.0418453 -3.91298e-19)
(-0.0255363 0.0372289 -3.46441e-19)
(-0.0177925 0.0324314 8.66162e-20)
(-0.00890523 0.0276634 -1.12441e-19)
(0.00104614 0.0231824 4.81721e-19)
(0.011936 0.0193207 -2.64107e-19)
(0.0235572 0.0165205 -8.27508e-19)
(0.0356673 0.0154251 -1.66926e-19)
(0.0479769 0.0169667 4.08312e-19)
(0.058873 0.0216941 -3.55245e-19)
(-0.00842971 0.0124951 -6.24675e-20)
(-0.0213027 0.0302954 4.52913e-19)
(-0.0311891 0.0422352 -5.77586e-19)
(-0.0381191 0.0497306 1.33508e-19)
(-0.0423138 0.0538431 -2.74952e-19)
(-0.04405 0.055385 6.1243e-19)
(-0.0435778 0.0549898 -4.37702e-19)
(-0.0411152 0.0531431 5.00761e-19)
(-0.0368481 0.0502136 -4.74782e-19)
(-0.0309315 0.0464813 2.02572e-19)
(-0.0234938 0.0421632 -9.83164e-20)
(-0.014642 0.0374361 -2.46806e-19)
(-0.00446964 0.0324608 -3.04912e-19)
(0.00693494 0.0274084 3.03815e-19)
(0.0194739 0.0224944 -2.54394e-19)
(0.0330059 0.0180163 -5.56058e-19)
(0.0473047 0.0144096 5.78866e-19)
(0.0621128 0.012396 -7.38222e-19)
(0.0771343 0.0131737 3.32133e-19)
(0.0903748 0.0176257 8.43476e-21)
(-0.00928943 0.0127261 -5.66317e-19)
(-0.0230949 0.0306697 -6.11386e-19)
(-0.0331709 0.0425934 7.04588e-20)
(-0.0396856 0.0499948 -5.89497e-19)
(-0.0429589 0.0539943 -5.24449e-20)
(-0.0433423 0.0554438 -4.33609e-19)
(-0.0411462 0.0550014 -9.94717e-20)
(-0.036637 0.0531667 -2.9071e-19)
(-0.0300409 0.050314 2.58922e-21)
(-0.0215487 0.0467221 -1.27198e-19)
(-0.0113236 0.0425994 9.01987e-21)
(0.000490908 0.0381052 -3.66509e-19)
(0.0137616 0.0333711 4.03905e-19)
(0.0283578 0.0285251 -5.73041e-19)
(0.0441384 0.0237239 2.02968e-19)
(0.0609201 0.0191929 7.64878e-21)
(0.0784315 0.0152952 -3.23039e-19)
(0.0963874 0.0127412 8.00893e-19)
(0.114543 0.012943 -1.91131e-19)
(0.13055 0.017133 -1.23744e-19)
(-0.0101272 0.0128424 6.35663e-19)
(-0.0247387 0.0307239 3.43199e-19)
(-0.034796 0.0424723 3.1922e-19)
(-0.0406152 0.0496667 4.76526e-20)
(-0.0426185 0.0534874 4.31615e-19)
(-0.041233 0.0548277 6.22107e-19)
(-0.0368281 0.0543723 5.09343e-19)
(-0.0297171 0.0526382 4.55895e-20)
(-0.020165 0.0500112 3.73017e-19)
(-0.00839882 0.0467774 5.76369e-19)
(0.00537991 0.0431478 -1.49511e-19)
(0.020983 0.0392782 2.50924e-19)
(0.0382235 0.0352864 2.02629e-19)
(0.0569055 0.0312702 2.0614e-19)
(0.0768135 0.0273324 1.21889e-18)
(0.0976829 0.023611 -4.56837e-19)
(0.119151 0.020338 -2.78385e-20)
(0.140856 0.018087 5.29301e-19)
(0.162658 0.0183417 -3.0003e-19)
(0.182026 0.0226041 1.48145e-19)
(-0.0109254 0.0128385 -5.14001e-19)
(-0.026169 0.0304404 3.29023e-20)
(-0.0359417 0.0418451 -4.11357e-19)
(-0.0407178 0.0487126 -5.35379e-20)
(-0.0410258 0.0522838 3.01114e-19)
(-0.0373682 0.0534944 -8.96433e-19)
(-0.0301719 0.0530567 -6.69446e-22)
(-0.0197938 0.0515081 4.17195e-19)
(-0.00653569 0.0492514 3.91986e-19)
(0.00933981 0.0465889 -1.72581e-19)
(0.027591 0.0437477 5.69095e-20)
(0.0479792 0.0408985 1.31998e-19)
(0.0702512 0.0381708 -6.25164e-20)
(0.0941246 0.0356647 -7.0093e-19)
(0.119274 0.0334651 1.77469e-19)
(0.145304 0.0316532 4.88119e-19)
(0.171689 0.0303246 -6.95377e-19)
(0.197893 0.0298157 3.39038e-19)
(0.223878 0.0315037 9.09224e-20)
(0.247327 0.0369795 4.59615e-19)
(-0.0116643 0.0127107 -7.58526e-20)
(-0.0273115 0.0298062 -3.60072e-19)
(-0.0364678 0.0406939 1.65697e-19)
(-0.0397775 0.0471136 7.7789e-22)
(-0.0378801 0.0503659 -7.22078e-19)
(-0.0313538 0.0514282 1.12685e-19)
(-0.020681 0.0510404 -2.14025e-20)
(-0.00626085 0.0497611 1.45782e-19)
(0.01157 0.048013 -6.67319e-19)
(0.0325134 0.0461202 -4.67857e-20)
(0.0562862 0.0443356 -1.56785e-19)
(0.082596 0.0428624 1.39484e-19)
(0.111118 0.0418693 4.70836e-19)
(0.141471 0.0415034 -7.28058e-20)
(0.173195 0.0419015 2.8204e-20)
(0.205705 0.0431888 1.85239e-19)
(0.238206 0.0454528 -4.5801e-20)
(0.269776 0.048919 3.73319e-19)
(0.300226 0.0549671 -2.16966e-19)
(0.327882 0.0650007 -3.41854e-19)
(-0.0123216 0.0124564 7.03842e-20)
(-0.0280809 0.0288143 1.71914e-20)
(-0.0362129 0.0390142 1.44374e-19)
(-0.0375471 0.044873 3.53596e-19)
(-0.0328404 0.0477486 1.98426e-19)
(-0.0227483 0.0486582 2.0705e-20)
(-0.00780988 0.0483665 -2.36887e-19)
(0.0115327 0.0474508 6.07213e-20)
(0.0349044 0.0463514 3.19408e-19)
(0.0619678 0.0454123 -5.41271e-19)
(0.0923945 0.0449116 4.08457e-19)
(0.125839 0.0450867 -3.07774e-19)
(0.161916 0.046155 2.61184e-19)
(0.200173 0.0483366 -5.63327e-19)
(0.240067 0.0518782 6.19701e-19)
(0.280907 0.0570707 -6.6277e-19)
(0.321711 0.0642495 -1.72249e-19)
(0.361137 0.0740565 5.40463e-19)
(0.398017 0.0886547 -1.82703e-19)
(0.42894 0.108916 8.05692e-20)
(-0.0128707 0.0120742 -5.325e-20)
(-0.0283766 0.0274641 5.02549e-19)
(-0.0349888 0.0368172 -2.1031e-21)
(-0.0337422 0.0420221 -3.11982e-19)
(-0.0255196 0.04449 -2.09813e-19)
(-0.0110595 0.0452734 3.84396e-19)
(0.00903661 0.045157 -1.52255e-19)
(0.0342736 0.0447298 -1.91808e-20)
(0.0642244 0.0444413 3.17373e-19)
(0.0984944 0.0446423 -3.94283e-19)
(0.136691 0.0456179 4.32369e-20)
(0.1784 0.0476127 -5.12652e-19)
(0.223175 0.0508557 2.69957e-19)
(0.27053 0.0555881 -7.72426e-19)
(0.319951 0.0621001 1.23035e-18)
(0.370908 0.0707805 -2.25493e-19)
(0.422888 0.0822281 2.34807e-19)
(0.475675 0.097789 -6.0983e-19)
(0.529696 0.120517 4.40498e-21)
(0.576799 0.146797 6.88763e-19)
(-0.0132784 0.0115626 -1.61287e-19)
(-0.0280788 0.0257609 1.39326e-19)
(-0.0325768 0.0341315 -5.13232e-19)
(-0.0280376 0.0386243 7.59134e-19)
(-0.0154832 0.0406971 -5.48089e-19)
(0.00425358 0.041432 2.82968e-20)
(0.0304929 0.0416258 -5.9112e-19)
(0.0626635 0.0418692 4.22661e-19)
(0.100254 0.0426058 -6.03817e-20)
(0.142769 0.0441726 -3.73072e-19)
(0.189701 0.0468298 -2.17727e-19)
(0.24051 0.0507834 2.30077e-19)
(0.294618 0.0562035 1.52136e-19)
(0.351429 0.0632416 -6.73176e-19)
(0.41035 0.0720466 2.43077e-19)
(0.470843 0.0827775 -3.5832e-19)
(0.532489 0.0956217 4.33715e-20)
(0.595201 0.110984 -3.03863e-19)
(0.659729 0.130024 1.23632e-19)
(0.718941 0.149182 -4.54412e-19)
(-0.0135025 0.0109198 4.59169e-19)
(-0.0270453 0.0237164 -2.78132e-19)
(-0.0287247 0.0310038 2.29176e-19)
(-0.0200675 0.0347764 -2.89335e-19)
(-0.00225446 0.0365279 4.8496e-19)
(0.0237666 0.0373623 -8.47247e-21)
(0.0572077 0.0380778 -5.90582e-20)
(0.0973793 0.0392533 -4.37973e-20)
(0.143629 0.0413076 2.69547e-19)
(0.195294 0.0445384 4.58383e-19)
(0.251669 0.049149 -2.70762e-19)
(0.311996 0.0552663 2.63254e-19)
(0.375473 0.0629555 4.80788e-19)
(0.441276 0.0722297 -3.37125e-19)
(0.508602 0.0830564 -6.84269e-19)
(0.576713 0.0953543 1.25085e-18)
(0.644985 0.108978 -2.23419e-19)
(0.712988 0.123756 -7.24474e-20)
(0.780855 0.139984 7.78065e-19)
(0.843621 0.157015 -1.6541e-19)
(-0.0134904 0.0101436 -7.47411e-19)
(-0.0251097 0.0213492 -4.97537e-19)
(-0.0231481 0.0275001 -1.90995e-19)
(-0.00943244 0.0306082 3.68518e-19)
(0.0146702 0.0321884 -8.32045e-19)
(0.0480621 0.033355 4.3096e-19)
(0.0897982 0.0348932 5.46267e-20)
(0.139005 0.0373506 5.52598e-20)
(0.194809 0.0410965 -5.64645e-19)
(0.256284 0.0463588 -1.99404e-19)
(0.32243 0.0532481 -3.51512e-19)
(0.392176 0.0617765 3.3948e-19)
(0.464404 0.0718711 9.62782e-20)
(0.537992 0.0833867 1.87437e-20)
(0.611864 0.0961141 4.41806e-19)
(0.685039 0.109782 -4.47719e-19)
(0.75667 0.124051 -1.85058e-20)
(0.826083 0.138528 1.17135e-20)
(0.892919 0.153035 6.15794e-20)
(0.954532 0.169229 3.44773e-19)
(-0.0131779 0.00923264 2.37953e-19)
(-0.0220814 0.0186871 6.12828e-19)
(-0.0155357 0.0237065 4.9178e-19)
(0.00428822 0.0262819 -1.6954e-19)
(0.0357959 0.0279282 5.89776e-19)
(0.0776865 0.0297524 -4.96912e-20)
(0.128785 0.0325051 -7.00083e-20)
(0.187942 0.0366746 4.16795e-20)
(0.253955 0.042547 5.70362e-19)
(0.325528 0.0502411 3.35169e-19)
(0.401264 0.059735 9.78958e-20)
(0.479698 0.0708892 6.05997e-21)
(0.559348 0.083468 -6.49045e-19)
(0.638783 0.0971611 5.63967e-19)
(0.716686 0.111603 9.6567e-20)
(0.79191 0.126387 -1.59219e-19)
(0.86351 0.141076 -6.88923e-19)
(0.930772 0.155236 -5.78077e-20)
(0.993175 0.168404 2.71393e-19)
(1.05011 0.183694 -5.49621e-20)
(-0.0124893 0.00818821 -6.03645e-19)
(-0.0177495 0.01577 2.52564e-19)
(-0.00555821 0.0197322 -1.23323e-18)
(0.0215168 0.0219927 5.05173e-19)
(0.0615962 0.0240356 -4.0291e-19)
(0.113099 0.0269351 2.97065e-19)
(0.174518 0.0313746 -4.61595e-19)
(0.244309 0.0377435 4.23707e-20)
(0.320821 0.0461981 -2.38085e-20)
(0.402274 0.0567003 1.24194e-19)
(0.486793 0.0690517 1.79315e-19)
(0.572485 0.0829282 -3.38873e-19)
(0.657521 0.0979165 1.79507e-19)
(0.740233 0.11355 1.64741e-19)
(0.819185 0.12934 7.1073e-19)
(0.893229 0.144806 -3.08929e-19)
(0.961522 0.159493 -2.04686e-19)
(1.02354 0.173016 3.43927e-19)
(1.07891 0.184842 1.82659e-19)
(1.12835 0.198698 -3.44937e-19)
(-0.0113389 0.00701663 5.28638e-19)
(-0.0118877 0.0126548 5.09712e-19)
(0.00711845 0.0157136 1.4711e-19)
(0.0426532 0.0179693 6.19591e-19)
(0.0924739 0.0208337 3.04463e-19)
(0.154612 0.0253098 -5.48908e-19)
(0.227101 0.0319667 8.315e-19)
(0.307864 0.0410403 -4.09218e-19)
(0.394673 0.0524993 4.08561e-19)
(0.485177 0.0660944 5.28636e-19)
(0.576994 0.0814088 -3.02112e-19)
(0.667837 0.0979128 5.74072e-20)
(0.755635 0.11502 3.19817e-19)
(0.838641 0.132137 2.25206e-19)
(0.915502 0.148707 5.18177e-19)
(0.985283 0.164243 -2.07625e-19)
(1.04746 0.178344 -2.58408e-20)
(1.10188 0.190733 3.25788e-19)
(1.1486 0.200977 -7.02056e-20)
(1.18904 0.212804 2.00908e-22)
(-0.00963286 0.00573222 -2.72865e-19)
(-0.00426314 0.0094208 -1.0029e-18)
(0.0228168 0.0118187 2.36208e-19)
(0.068048 0.014476 -1.79835e-19)
(0.12872 0.0186755 -4.15239e-19)
(0.202343 0.0252943 -2.96587e-19)
(0.286335 0.0347237 -1.83244e-19)
(0.377944 0.0469759 4.44988e-19)
(0.474263 0.0617656 -2.64284e-19)
(0.572336 0.0785801 -2.70721e-19)
(0.669323 0.0967564 -3.42279e-19)
(0.76267 0.115562 -5.64966e-20)
(0.850259 0.134269 -3.84129e-20)
(0.930494 0.152216 -7.90644e-19)
(1.00234 0.168853 3.82814e-19)
(1.0653 0.183762 -5.03535e-19)
(1.11934 0.196663 1.57657e-19)
(1.1648 0.207428 -1.20043e-18)
(1.20224 0.215833 3.61971e-19)
(1.23343 0.225227 4.56513e-19)
(-0.00727323 0.00435992 -6.85364e-20)
(0.00535413 0.00617431 4.89119e-19)
(0.0418292 0.00825134 3.13692e-20)
(0.0979725 0.0118121 7.54788e-20)
(0.170475 0.0179364 -1.53468e-19)
(0.256159 0.0273013 -2.54931e-21)
(0.351669 0.040038 -3.96127e-21)
(0.453451 0.0558537 -9.26692e-20)
(0.557873 0.0741433 3.28696e-19)
(0.661423 0.0940935 1.27045e-19)
(0.76095 0.114795 5.76746e-19)
(0.85386 0.135348 -1.57207e-19)
(0.938247 0.154952 1.09704e-19)
(1.01293 0.17296 -1.41617e-20)
(1.07741 0.18891 3.03614e-19)
(1.13179 0.202529 1.85545e-19)
(1.17662 0.213711 4.46473e-19)
(1.21276 0.222497 -7.20696e-19)
(1.24123 0.228904 9.06044e-19)
(1.26389 0.235746 -2.86911e-19)
(-0.00416106 0.00293747 -6.37336e-19)
(0.017179 0.00305232 -1.99047e-19)
(0.0643973 0.00525242 1.55509e-19)
(0.132589 0.0103088 9.80613e-20)
(0.217687 0.0190027 1.00578e-19)
(0.31565 0.0317163 1.01929e-19)
(0.422194 0.0482225 -2.55197e-19)
(0.532892 0.0678402 -1.05497e-19)
(0.643425 0.0895926 3.27437e-20)
(0.749885 0.112359 -3.12596e-19)
(0.849059 0.135023 -1.41347e-19)
(0.938607 0.156594 8.54022e-19)
(1.01712 0.176291 -2.20362e-19)
(1.08406 0.193577 -3.03448e-19)
(1.13964 0.208163 -1.43765e-19)
(1.1846 0.21997 9.96995e-20)
(1.22007 0.229093 1.21257e-19)
(1.24735 0.23574 -5.80982e-19)
(1.2678 0.240138 8.40099e-19)
(1.28327 0.244564 -7.27789e-19)
(-0.000200913 0.00151683 -7.20503e-20)
(0.031399 0.000223993 2.0628e-20)
(0.090691 0.00309859 -2.63777e-20)
(0.171924 0.0103206 3.85084e-19)
(0.270092 0.0222546 2.12693e-20)
(0.380113 0.0388727 1.4147e-19)
(0.496665 0.0594839 -2.9401e-19)
(0.614463 0.0829462 -1.07157e-20)
(0.728653 0.107892 4.08443e-19)
(0.835199 0.132929 5.69047e-20)
(0.931151 0.156817 -3.5573e-19)
(1.01474 0.178582 -3.12613e-20)
(1.0853 0.197571 -2.91946e-19)
(1.1431 0.213447 2.90812e-19)
(1.18908 0.226146 4.03435e-19)
(1.22464 0.235816 -4.44558e-20)
(1.25134 0.242741 -5.40642e-20)
(1.2708 0.247272 1.64859e-19)
(1.28454 0.249788 -5.29305e-19)
(1.29432 0.252096 4.66394e-19)
(0.00469462 0.0001647 7.24499e-20)
(0.0481605 -0.00211037 -4.6713e-19)
(0.120787 0.00209622 1.24995e-19)
(0.21584 0.0122121 -3.87983e-19)
(0.327189 0.0280444 1.33437e-19)
(0.448559 0.0490256 -4.95591e-19)
(0.573562 0.0739008 1.99938e-19)
(0.696182 0.101025 -6.36802e-20)
(0.811304 0.128666 -2.59898e-21)
(0.915116 0.155248 6.51235e-20)
(1.00528 0.179525 -2.37125e-19)
(1.08088 0.200663 -3.38437e-19)
(1.14215 0.218237 -6.93273e-20)
(1.19022 0.232174 -3.11204e-20)
(1.22672 0.242664 -7.89354e-20)
(1.25352 0.250067 -2.56928e-20)
(1.27252 0.254829 -7.68945e-20)
(1.28545 0.2574 -6.66344e-20)
(1.29387 0.258248 -1.97991e-19)
(1.29937 0.258803 3.13948e-19)
(0.0106001 -0.00103779 1.7407e-19)
(0.0675558 -0.00372316 -1.93347e-19)
(0.154651 0.00257125 4.16187e-19)
(0.264024 0.0163399 -1.79713e-19)
(0.388244 0.0366724 4.80349e-19)
(0.519759 0.0623288 6.90595e-21)
(0.651193 0.0914154 2.413e-19)
(0.776055 0.121789 -6.47003e-20)
(0.889344 0.151435 2.6969e-19)
(0.987863 0.178725 1.94464e-20)
(1.0702 0.202549 6.41732e-19)
(1.13648 0.222325 -4.42866e-19)
(1.1879 0.237933 5.97229e-20)
(1.22636 0.249593 1.13876e-19)
(1.25405 0.257739 5.95439e-19)
(1.27316 0.26291 -2.13908e-19)
(1.28572 0.265664 -4.23621e-20)
(1.29345 0.266503 -2.2414e-19)
(1.29783 0.265933 -2.35158e-20)
(1.30024 0.265092 1.12072e-19)
(0.017572 -0.00199642 -8.34735e-20)
(0.0896101 -0.00436596 2.41253e-19)
(0.192123 0.00485542 -2.47182e-19)
(0.315978 0.0230314 9.75599e-20)
(0.452315 0.0483633 -1.168e-19)
(0.59231 0.0788208 4.28565e-19)
(0.727813 0.11184 -5.97609e-20)
(0.852235 0.144845 1.47013e-19)
(0.961117 0.175677 -8.66306e-20)
(1.05224 0.20281 -2.31611e-21)
(1.12536 0.225405 9.88274e-20)
(1.18169 0.243229 -7.65692e-20)
(1.22335 0.256501 1.98558e-19)
(1.25286 0.265726 -9.9001e-20)
(1.27278 0.271545 -4.35432e-19)
(1.28543 0.274628 4.32788e-19)
(1.29283 0.27559 -1.94843e-19)
(1.29658 0.274945 1.55575e-19)
(1.29799 0.273202 2.69521e-19)
(1.29823 0.27127 1.10707e-19)
(0.0256439 -0.002606 2.07751e-19)
(0.114271 -0.0037784 -4.28165e-19)
(0.232905 0.00926977 8.19008e-20)
(0.371029 0.0325632 -5.94547e-20)
(0.518288 0.0632482 -2.39974e-19)
(0.664721 0.0984208 -1.88352e-19)
(0.801753 0.134878 -3.70513e-20)
(0.923155 0.169741 -3.35785e-19)
(1.02544 0.200879 -2.04766e-20)
(1.10765 0.227035 -6.23911e-20)
(1.17082 0.247754 -1.6931e-19)
(1.21721 0.263202 -3.76318e-20)
(1.24969 0.273937 -1.29526e-19)
(1.27124 0.280713 -2.16039e-19)
(1.28457 0.284328 2.21142e-19)
(1.29201 0.285522 3.04052e-20)
(1.29541 0.284927 6.0589e-20)
(1.2962 0.283032 -2.54485e-19)
(1.29549 0.280328 -6.40337e-21)
(1.29426 0.277545 -3.92287e-19)
(0.0348217 -0.00275352 2.2761e-19)
(0.141401 -0.00169898 1.51861e-19)
(0.276569 0.0161071 -2.45005e-19)
(0.428348 0.0451426 3.82592e-19)
(0.584937 0.0813545 -4.12887e-20)
(0.735515 0.120939 1.42967e-19)
(0.871536 0.160157 4.95101e-20)
(0.987619 0.19601 1.75376e-19)
(1.08161 0.226588 -1.37333e-19)
(1.154 0.251046 4.57653e-20)
(1.20707 0.269392 -4.3916e-20)
(1.24401 0.282202 -1.92908e-20)
(1.26824 0.290341 3.67218e-20)
(1.28297 0.294758 -6.76321e-20)
(1.29091 0.296346 -2.07631e-20)
(1.29425 0.29587 -6.35533e-20)
(1.29464 0.293937 -1.0326e-19)
(1.2933 0.29099 6.66813e-20)
(1.29111 0.287497 -9.14063e-20)
(1.28889 0.284037 3.95027e-19)
(0.0450799 -0.00232202 -1.13607e-19)
(0.170773 0.00212283 -3.21994e-19)
(0.322553 0.0256144 -4.28764e-20)
(0.486987 0.0608919 -1.1715e-20)
(0.650997 0.102604 -1.44336e-19)
(0.803312 0.146096 -2.37038e-19)
(0.935947 0.187263 7.75873e-20)
(1.04482 0.223209 -1.06618e-19)
(1.12939 0.252427 -1.1945e-19)
(1.19161 0.2746 6.65453e-20)
(1.23493 0.290231 -5.02824e-20)
(1.26323 0.30028 -1.01729e-19)
(1.28029 0.305869 -3.41329e-21)
(1.28935 0.308076 6.89045e-20)
(1.29301 0.307836 -7.02697e-20)
(1.29322 0.305895 9.75081e-20)
(1.2914 0.30281 2.62455e-20)
(1.28854 0.29897 6.60768e-20)
(1.28536 0.294817 1.28723e-19)
(1.28249 0.290795 -1.10256e-19)
(0.0563584 -0.00119512 1.08491e-19)
(0.202071 0.007914 -9.52863e-21)
(0.370189 0.037978 4.87504e-20)
(0.545922 0.0798405 -6.61235e-20)
(0.715228 0.126822 5.47078e-21)
(0.86691 0.173545 2.29567e-19)
(0.994082 0.215775 -1.50788e-19)
(1.09435 0.250943 6.38958e-20)
(1.16888 0.27811 5.63517e-20)
(1.22108 0.297552 -1.58321e-19)
(1.25531 0.310262 1.4879e-19)
(1.27599 0.317538 1.32529e-21)
(1.287 0.320688 -1.04846e-19)
(1.29148 0.320863 1.26374e-19)
(1.29181 0.318987 -5.01592e-20)
(1.28969 0.31576 3.83519e-20)
(1.28629 0.311674 -4.28924e-20)
(1.28238 0.307058 -1.71715e-20)
(1.27854 0.302335 -1.5012e-19)
(1.27525 0.297822 4.59976e-20)
(0.0685618 0.000737834 -3.65423e-20)
(0.234898 0.0158654 9.81566e-20)
(0.418722 0.0533106 1.53193e-20)
(0.604101 0.101922 6.42278e-20)
(0.776483 0.15375 3.06663e-20)
(0.925326 0.202903 1.43773e-20)
(1.04535 0.245285 8.14846e-20)
(1.13609 0.278878 -9.88055e-21)
(1.20046 0.303428 3.59413e-20)
(1.24313 0.319829 5.77463e-20)
(1.26919 0.329528 2.78705e-20)
(1.28331 0.334095 2.00123e-20)
(1.28935 0.334955 8.11545e-20)
(1.29022 0.333275 -7.85633e-20)
(1.28803 0.329937 1.68626e-20)
(1.28421 0.32557 -1.58005e-20)
(1.27969 0.320594 2.44327e-20)
(1.27509 0.315285 2.04741e-20)
(1.27084 0.310052 4.27579e-20)
(1.26728 0.305083 1.78477e-21)
(0.0815593 0.00357653 2.16659e-20)
(0.268783 0.0261204 1.97911e-20)
(0.46734 0.0716433 -2.74088e-20)
(0.660495 0.12698 1.7129e-20)
(0.833749 0.183061 9.68231e-21)
(0.977818 0.233767 -3.01241e-20)
(1.08943 0.275419 9.94172e-21)
(1.17019 0.306738 1.79794e-21)
(1.22467 0.328234 1.71503e-20)
(1.25856 0.341405 -4.60005e-20)
(1.27746 0.348092 -1.44363e-22)
(1.28609 0.350062 1.27549e-20)
(1.28813 0.348795 -1.01649e-20)
(1.28623 0.345427 1.02836e-20)
(1.28217 0.340769 2.68478e-20)
(1.27714 0.335375 -1.52815e-20)
(1.27188 0.32959 4.2518e-21)
(1.26684 0.323644 1.67488e-20)
(1.26233 0.317934 -2.76082e-20)
(1.25864 0.312524 1.32548e-20)
(0.0815415 -0.00357618 5.8343e-20)
(0.268731 -0.0261178 -3.20813e-20)
(0.467256 -0.0716368 3.78908e-20)
(0.660388 -0.12697 -2.82298e-20)
(0.833626 -0.183051 -1.27867e-20)
(0.977688 -0.233757 3.93174e-21)
(1.0893 -0.275412 -1.26687e-20)
(1.17006 -0.306736 4.58296e-20)
(1.22455 -0.328236 -3.83797e-20)
(1.25845 -0.341412 8.77527e-21)
(1.27735 -0.348103 -6.77238e-21)
(1.28599 -0.350075 -4.45649e-20)
(1.28804 -0.348811 4.34346e-20)
(1.28614 -0.345445 1.68625e-20)
(1.28209 -0.34079 -1.62584e-20)
(1.27706 -0.335398 3.90938e-20)
(1.2718 -0.329614 -4.55166e-22)
(1.26676 -0.323669 -3.81906e-20)
(1.26226 -0.317961 2.80641e-20)
(1.25856 -0.312552 9.36343e-21)
(0.0685457 -0.000738072 -2.09018e-20)
(0.234849 -0.0158644 5.67113e-20)
(0.418643 -0.0533065 6.63539e-20)
(0.603996 -0.101915 -3.21074e-20)
(0.77636 -0.153741 5.55108e-20)
(0.925194 -0.202895 9.01517e-20)
(1.04521 -0.24528 -5.08128e-21)
(1.13595 -0.278876 -1.62209e-20)
(1.20033 -0.303431 8.03122e-20)
(1.24301 -0.319836 3.97282e-20)
(1.26908 -0.329539 -7.47212e-21)
(1.28321 -0.33411 6.05869e-20)
(1.28925 -0.334974 -6.51451e-20)
(1.29013 -0.333296 1.04242e-19)
(1.28794 -0.32996 -1.7053e-20)
(1.28412 -0.325595 5.20047e-20)
(1.27961 -0.320621 1.02045e-20)
(1.27501 -0.315313 3.72577e-20)
(1.27076 -0.310081 -3.50007e-20)
(1.26721 -0.305114 9.693e-21)
(0.056344 0.00119442 -3.10433e-20)
(0.202026 -0.00791447 6.79338e-20)
(0.370114 -0.0379761 5.06914e-20)
(0.545821 -0.0798359 -8.10073e-21)
(0.715108 -0.126816 8.49062e-20)
(0.866777 -0.173539 -6.69592e-20)
(0.993945 -0.21577 -7.07079e-21)
(1.09421 -0.250942 6.04931e-20)
(1.16875 -0.278113 2.01912e-20)
(1.22095 -0.297559 2.81648e-20)
(1.2552 -0.310274 -4.15326e-20)
(1.27588 -0.317554 1.15936e-19)
(1.2869 -0.320708 2.25525e-20)
(1.29139 -0.320885 -1.02404e-19)
(1.29172 -0.319012 1.57675e-19)
(1.2896 -0.315788 -1.86772e-19)
(1.2862 -0.311703 -8.89057e-20)
(1.2823 -0.307089 1.51343e-20)
(1.27846 -0.302368 8.57796e-20)
(1.27517 -0.297856 -1.62493e-19)
(0.0450673 0.00232098 -6.51407e-20)
(0.170732 -0.00212448 -1.53042e-19)
(0.322483 -0.0256143 -1.34916e-19)
(0.486891 -0.0608894 -1.84603e-19)
(0.650879 -0.1026 -1.09773e-19)
(0.80318 -0.146091 -2.33333e-19)