1.22 	3.45254e-18 	-6.98323e-18 	-0.122495 	0.00964511 	-7.75206e-22
1.66 	3.45254e-18 	-6.96118e-18 	-0.24056 	0.0309369 	-3.84042e-23
2.1 	3.45254e-18 	-6.93894e-18 	-0.260922 	0.0665297 	-2.2053e-21
2.54 	3.45254e-18 	-8.30431e-18 	-0.32931 	0.0627363 	1.00782e-23
2.98 	3.45254e-18 	-8.28171e-18 	-0.35644 	-0.0109432 	2.47065e-21
3.42 	3.45254e-18 	-6.87115e-18 	-0.397547 	-0.116779 	2.65881e-21
3.86 	3.45254e-18 	-6.84819e-18 	-0.348012 	-0.165269 	5.20497e-22
4.3 	3.45254e-18 	-6.82504e-18 	-0.30221 	-0.125524 	1.86829e-21
4.74 	3.45254e-18 	-5.41391e-18 	-0.175762 	-0.0436952 	-9.86255e-22
5.18 	3.45254e-18 	-2.61482e-18 	-0.0904215 	0.0401402 	-4.26936e-22
5.62 	3.45254e-18 	-1.2033e-18 	0.00161938 	0.0954714 	1.50711e-22
6.06 	3.45254e-18 	-1.17937e-18 	0.0597275 	0.119198 	2.66157e-22
6.5 	3.45254e-18 	-1.15524e-18 	0.125329 	0.115991 	-5.77153e-23
