/*--------------------------------*- C++ -*----------------------------------*\
  =========                 |
  \\      /  F ield         | OpenFOAM: The Open Source CFD Toolbox
   \\    /   O peration     | Website:  https://openfoam.org
    \\  /    A nd           | Version:  6.0
     \\/     M anipulation  |
\*---------------------------------------------------------------------------*/
FoamFile
{
    version     2.0;
    format      ascii;
    class       volVectorField;
    location    "4";
    object      U;
}
// * * * * * * * * * * * * * * * * * * * * * * * * * * * * * * * * * * * * * //

dimensions      [0 1 -1 0 0 0 0];

internalField   nonuniform List<vector> 
4000
(
(0.120102 0.00843972 7.81244e-20)
(0.371426 0.0426557 -4.2749e-20)
(0.617473 0.0990836 5.04853e-20)
(0.838239 0.160365 -3.75801e-20)
(1.01961 0.216042 -1.68105e-20)
(1.15644 0.260814 5.15785e-21)
(1.25129 0.292952 -1.64208e-20)
(1.31128 0.313278 5.8867e-20)
(1.34496 0.323954 -4.89009e-20)
(1.36036 0.32749 1.14835e-20)
(1.36397 0.326156 -8.54119e-21)
(1.36053 0.321741 -5.52233e-20)
(1.35325 0.315527 5.34596e-20)
(1.34415 0.308368 2.02549e-20)
(1.33446 0.3008 -2.0085e-20)
(1.32487 0.293144 4.70162e-20)
(1.31578 0.285569 -7.57919e-22)
(1.30742 0.278204 -4.52338e-20)
(1.29989 0.271377 3.33282e-20)
(1.29326 0.264867 1.04832e-20)
(0.135273 0.0142662 -2.74226e-20)
(0.407049 0.0599685 7.92121e-20)
(0.663369 0.125808 9.18191e-20)
(0.885281 0.192943 -4.34329e-20)
(1.06102 0.250816 7.53672e-20)
(1.18848 0.294937 1.19087e-19)
(1.27295 0.324691 -6.66005e-21)
(1.32338 0.341897 -2.03938e-20)
(1.34928 0.349409 1.00369e-19)
(1.35889 0.350114 4.88719e-20)
(1.35849 0.34642 -8.80404e-21)
(1.35246 0.340113 7.26254e-20)
(1.34361 0.332403 -7.75214e-20)
(1.33363 0.324055 1.20826e-19)
(1.32348 0.315526 -2.00701e-20)
(1.31372 0.307075 5.74333e-20)
(1.30463 0.298826 1.02817e-20)
(1.29636 0.290895 4.07039e-20)
(1.28897 0.283617 -3.8687e-20)
(1.28252 0.276636 9.52654e-21)
(0.150415 0.0212419 -4.2646e-20)
(0.441374 0.0796845 9.95347e-20)
(0.706015 0.155063 7.42413e-20)
(0.927179 0.227471 -1.12902e-20)
(1.09604 0.286712 1.16026e-19)
(1.21372 0.32943 -8.74222e-20)
(1.28813 0.356277 -6.66364e-21)
(1.3298 0.370085 7.64138e-20)
(1.3489 0.374341 2.41605e-20)
(1.35368 0.372234 3.39434e-20)
(1.35011 0.36625 -5.00831e-20)
(1.34215 0.358127 1.30692e-19)
(1.3322 0.348982 2.43121e-20)
(1.32167 0.339484 -1.15305e-19)
(1.31131 0.330013 1.68568e-19)
(1.30153 0.320772 -1.98408e-19)
(1.29255 0.311847 -9.08174e-20)
(1.28447 0.303345 1.5347e-20)
(1.27728 0.295601 8.76562e-20)
(1.27106 0.288125 -1.66239e-19)
(0.165286 0.0293532 -9.42894e-20)
(0.473844 0.101639 -2.23309e-19)
(0.744797 0.18651 -1.94142e-19)
(0.963501 0.263516 -2.63396e-19)
(1.12453 0.323299 -1.49851e-19)
(1.23233 0.363933 -3.10134e-19)
(1.29721 0.387445 3.9469e-20)
(1.33101 0.397657 -1.64614e-19)
(1.34428 0.398624 -1.81729e-20)
(1.34513 0.393758 2.70957e-20)
(1.33913 0.385564 -5.95673e-20)
(1.32979 0.375699 7.47978e-20)
(1.31917 0.365173 1.32968e-19)
(1.30837 0.354558 -1.86642e-19)
(1.29799 0.344162 3.03989e-20)
(1.28834 0.334133 8.67223e-20)
(1.27956 0.324528 1.44975e-19)
(1.27173 0.315451 -1.25038e-19)
(1.2648 0.307232 -5.9461e-21)
(1.25887 0.299242 1.46907e-19)
(0.17964 0.0385567 -1.76918e-19)
(0.50394 0.125607 4.87737e-19)
(0.779193 0.219761 -8.55009e-20)
(0.993935 0.30062 1.14564e-19)
(1.14648 0.360151 -1.11544e-19)
(1.24454 0.398105 3.44001e-19)
(1.30058 0.417944 -5.46332e-20)
(1.32743 0.424443 3.23948e-20)
(1.33583 0.422137 -1.67736e-20)
(1.33357 0.414591 5.36113e-20)
(1.32579 0.404277 3.47266e-20)
(1.31556 0.392744 4.44777e-20)
(1.30459 0.380888 -1.25246e-19)
(1.29377 0.369186 1.84079e-19)
(1.28354 0.357877 -1.39982e-19)
(1.27412 0.347066 2.70883e-20)
(1.26564 0.336781 -9.00565e-20)
(1.25814 0.327128 1.94386e-20)
(1.25152 0.318426 2.20344e-20)
(1.24593 0.30991 -2.03088e-19)
(0.193235 0.0487794 1.17704e-20)
(0.531192 0.151311 -2.44551e-19)
(0.808782 0.254386 1.3608e-19)
(1.01829 0.338315 -4.72576e-19)
(1.16197 0.396847 2.29587e-19)
(1.25063 0.431613 -3.92926e-19)
(1.29862 0.447536 -3.07741e-19)
(1.31948 0.45027 -1.18015e-20)
(1.32389 0.444749 -1.04909e-19)
(1.31928 0.434619 -3.28577e-19)
(1.31029 0.422278 -4.17424e-20)
(1.29958 0.40915 -3.17859e-19)
(1.28856 0.396013 5.71472e-20)
(1.27792 0.383253 -4.637e-20)
(1.26797 0.371046 2.73904e-20)
(1.25891 0.359459 -2.1688e-19)
(1.25081 0.348497 1.00733e-20)
(1.24369 0.33827 4.27756e-20)
(1.23744 0.329081 -1.01988e-19)
(1.23225 0.320036 8.85995e-20)
(0.205843 0.0599201 -9.97773e-20)
(0.555189 0.178424 4.45472e-19)
(0.833244 0.289926 4.24981e-21)
(1.03648 0.376126 -3.85954e-19)
(1.17114 0.432979 2.93259e-19)
(1.25093 0.464144 1.23726e-19)
(1.29172 0.475987 2.5014e-20)
(1.30751 0.474965 -2.10309e-19)
(1.30877 0.46632 3.41871e-19)
(1.30247 0.453717 -2.02794e-19)
(1.29277 0.439446 7.18505e-20)
(1.28195 0.424796 3.45141e-19)
(1.27113 0.410426 -3.12559e-19)
(1.26084 0.396638 3.44017e-19)
(1.25132 0.383552 -2.23797e-19)
(1.2427 0.371198 -4.36209e-20)
(1.23506 0.359568 5.31243e-20)
(1.22839 0.348774 6.85812e-20)
(1.22258 0.339099 9.54281e-20)
(1.21784 0.329531 5.69444e-20)
(0.217251 0.0718509 3.92792e-20)
(0.57559 0.206585 -3.98418e-19)
(0.85236 0.325903 7.1001e-20)
(1.04852 0.413584 9.30701e-19)
(1.17422 0.468153 -8.5564e-20)
(1.24577 0.495396 2.59856e-19)
(1.28025 0.503075 1.6298e-19)
(1.29186 0.498355 2.67084e-20)
(1.29074 0.486702 -1.91696e-19)
(1.28335 0.471749 3.14878e-19)
(1.27338 0.455648 -3.83036e-20)
(1.26275 0.439549 4.86642e-19)
(1.25235 0.423996 1.89541e-19)
(1.24258 0.409212 1.20035e-19)
(1.2336 0.395269 -2.50598e-19)
(1.22553 0.382165 5.34847e-20)
(1.21842 0.36988 1.9647e-19)
(1.21227 0.35853 5.22166e-20)
(1.20694 0.348376 -2.4096e-19)
(1.20273 0.338301 -6.06369e-20)
(0.227266 0.0844203 -2.21056e-19)
(0.592125 0.235401 7.1295e-19)
(0.866004 0.361833 -3.88368e-19)
(1.05449 0.450228 -3.58604e-19)
(1.17146 0.501991 -3.13386e-19)
(1.2355 0.52508 -2.65723e-19)
(1.26456 0.52858 -3.3015e-19)
(1.27283 0.520264 4.16216e-19)
(1.27003 0.505744 -3.00244e-19)
(1.26208 0.488569 -2.4682e-20)
(1.25222 0.470742 -1.62341e-21)
(1.24205 0.453268 -5.84649e-20)
(1.23228 0.436585 -1.53015e-19)
(1.22318 0.420843 -1.73018e-19)
(1.21486 0.40607 -9.25931e-21)
(1.20742 0.392238 -3.88099e-20)
(1.20092 0.379316 -9.80549e-20)
(1.19535 0.367428 -3.14012e-20)
(1.19057 0.356805 3.18931e-20)
(1.18695 0.346252 -2.13845e-19)
(0.235725 0.0974567 3.84152e-19)
(0.604596 0.264461 3.99784e-19)
(0.874141 0.397228 -2.48704e-19)
(1.05457 0.485613 1.53454e-19)
(1.16318 0.534136 2.67063e-19)
(1.22047 0.552925 -5.69863e-20)
(1.24498 0.552292 6.58451e-20)
(1.25071 0.540519 7.67826e-20)
(1.24686 0.523286 1.28298e-19)
(1.23881 0.504026 -1.52162e-19)
(1.2294 0.484578 7.41587e-20)
(1.21995 0.465806 -5.36603e-20)
(1.21098 0.448049 2.36179e-19)
(1.20269 0.431393 1.07027e-19)
(1.19514 0.415823 -2.39897e-19)
(1.18842 0.40129 1.34377e-19)
(1.1826 0.387757 6.62507e-20)
(1.17767 0.375351 -1.26744e-19)
(1.17351 0.364279 3.4143e-19)
(1.17054 0.353286 -2.54443e-19)
(0.242491 0.110772 -2.82183e-19)
(0.612881 0.293344 -3.67887e-19)
(0.876816 0.431613 2.60172e-19)
(1.04896 0.519317 -2.39506e-19)
(1.14971 0.564253 -2.08513e-20)
(1.20105 0.578673 -2.69675e-19)
(1.22186 0.574009 2.22013e-19)
(1.22577 0.558946 4.22202e-19)
(1.22142 0.539171 -5.884e-19)
(1.21369 0.517967 3.02e-20)
(1.20502 0.497004 2.40806e-20)
(1.1965 0.477015 -1.23004e-19)
(1.18851 0.458245 8.26339e-20)
(1.18116 0.440722 -3.70006e-20)
(1.17449 0.424396 2.542e-19)
(1.16859 0.409195 -2.74104e-19)
(1.16352 0.395079 -9.9248e-20)
(1.1593 0.382181 2.53519e-19)
(1.15582 0.370682 -3.90643e-19)
(1.15356 0.3593 2.46357e-19)
(0.24746 0.124167 5.8785e-19)
(0.616929 0.321627 5.23412e-19)
(0.87415 0.464527 -8.75605e-20)
(1.03796 0.550939 -1.14213e-20)
(1.13139 0.592027 -2.70096e-19)
(1.17759 0.602084 1.14627e-19)
(1.19549 0.593538 5.82067e-19)
(1.19824 0.575378 -5.13945e-19)
(1.1939 0.553241 3.34284e-19)
(1.18685 0.530237 -3.12849e-20)
(1.17918 0.50787 2.11535e-19)
(1.17179 0.486745 -4.82031e-20)
(1.16493 0.467026 1.30272e-19)
(1.15866 0.448689 1.75443e-19)
(1.15299 0.431651 -9.24751e-20)
(1.14798 0.415821 1.22719e-19)
(1.14375 0.401155 -1.82875e-19)
(1.14029 0.387788 4.63238e-19)
(1.13756 0.375885 -2.98114e-19)
(1.1361 0.364171 2.149e-19)
(0.250562 0.137433 -2.89252e-19)
(0.61676 0.348895 -5.40759e-19)
(0.86633 0.495535 -3.74002e-19)
(1.02186 0.580112 -2.86931e-20)
(1.1086 0.617173 9.11049e-20)
(1.15046 0.622935 -4.99813e-20)
(1.16618 0.610696 -3.3009e-19)
(1.16837 0.589653 -1.48702e-19)
(1.16448 0.565343 -2.78508e-19)
(1.15842 0.540688 -1.47107e-19)
(1.15198 0.517028 7.26487e-20)
(1.14589 0.494852 -3.47398e-19)
(1.14031 0.47425 -8.78709e-20)
(1.13525 0.455155 -8.95961e-20)
(1.13068 0.437453 -2.79629e-19)
(1.12668 0.421035 1.2504e-19)
(1.12335 0.405851 -3.28506e-21)
(1.12073 0.392036 1.2251e-19)
(1.11882 0.379744 -5.18766e-20)
(1.11822 0.367755 -1.994e-19)
(0.251759 0.15036 6.68364e-19)
(0.612455 0.374746 5.82201e-19)
(0.853602 0.524228 7.3189e-19)
(1.00104 0.606496 -7.57457e-20)
(1.08173 0.639429 -2.75033e-19)
(1.12 0.641027 8.05827e-19)
(1.13424 0.625318 -4.1279e-19)
(1.1364 0.601622 4.65688e-19)
(1.13334 0.575333 -8.90648e-20)
(1.12853 0.549178 2.96264e-19)
(1.12352 0.524337 3.23082e-20)
(1.11888 0.501194 1.56273e-19)
(1.11472 0.479778 -3.61773e-20)
(1.11099 0.459982 1.65829e-19)
(1.10766 0.441666 -1.48515e-19)
(1.10475 0.424704 2.5346e-21)
(1.1024 0.409034 7.4019e-20)
(1.10069 0.394785 1.25234e-19)
(1.09967 0.382111 -2.43654e-20)
(1.09998 0.369908 7.82755e-20)
(0.251048 0.162739 -2.06194e-19)
(0.604159 0.398799 -5.84888e-19)
(0.836263 0.550232 -3.56952e-19)
(0.975874 0.629789 -6.29948e-19)
(1.05117 0.658566 6.8711e-19)
(1.08658 0.656178 -4.995e-19)
(1.09995 0.637253 3.2248e-19)
(1.10255 0.611148 -1.09071e-19)
(1.10064 0.58308 -1.45923e-19)
(1.09731 0.555579 -1.04651e-19)
(1.09389 0.529669 5.39236e-20)
(1.09084 0.505644 8.31683e-20)
(1.08821 0.483478 7.76189e-20)
(1.08595 0.463035 -9.41398e-20)
(1.08396 0.444154 -8.12489e-20)
(1.08227 0.426689 2.60744e-19)
(1.08099 0.410564 -1.69749e-20)
(1.08025 0.395892 -1.21706e-19)
(1.08019 0.382847 2.57499e-22)
(1.08142 0.370514 -3.69852e-20)
(0.24846 0.174367 9.25642e-19)
(0.592068 0.4207 4.38051e-19)
(0.814651 0.573209 4.09068e-19)
(0.946765 0.649722 -2.47055e-19)
(1.01732 0.674381 3.29675e-20)
(1.05054 0.668234 3.58516e-19)
(1.0636 0.646368 5.22574e-20)
(1.06704 0.61811 1.18593e-19)
(1.06656 0.588471 1.35165e-19)
(1.0649 0.559778 2.13859e-20)
(1.0632 0.532916 8.60909e-20)
(1.06183 0.508091 -7.33291e-21)
(1.06085 0.485236 -3.41894e-20)
(1.06015 0.464193 -1.45506e-19)
(1.05965 0.444783 3.18052e-20)
(1.0593 0.426848 3.87946e-21)
(1.0592 0.410291 -3.28192e-21)
(1.05951 0.395197 9.31338e-21)
(1.06044 0.381788 -2.74855e-20)
(1.06265 0.369431 4.26792e-20)
(0.244055 0.185049 -6.70822e-19)
(0.576427 0.440129 -5.82276e-19)
(0.789145 0.592862 2.85852e-19)
(0.914142 0.666066 -3.58832e-19)
(0.980594 0.686706 -2.47069e-20)
(1.01225 0.677062 6.18199e-20)
(1.02549 0.652555 -6.11457e-20)
(1.03011 0.622409 -4.49804e-20)
(1.03129 0.591411 -1.25581e-19)
(1.03144 0.561688 -7.67179e-20)
(1.03155 0.533989 1.25341e-21)
(1.03194 0.508449 -9.29462e-20)
(1.03267 0.484964 2.62678e-20)
(1.03363 0.463357 -3.27152e-20)
(1.03473 0.443443 1.36606e-20)
(1.03589 0.425055 2.77241e-20)
(1.0371 0.408075 7.89911e-21)
(1.03856 0.392528 2.59779e-21)
(1.04062 0.378681 2.69866e-21)
(1.04406 0.366323 3.9223e-21)
(0.237923 0.194607 6.38932e-19)
(0.557523 0.456799 1.56326e-20)
(0.760151 0.608936 -5.61145e-20)
(0.878445 0.678629 6.84564e-20)
(0.941403 0.6954 2.71938e-19)
(0.97206 0.682558 -1.89794e-19)
(0.985907 0.655725 1.07981e-19)
(0.991996 0.623967 -1.33928e-19)
(0.995002 0.591829 5.76865e-20)
(0.997064 0.561242 -4.05542e-20)
(0.999045 0.532829 8.99739e-21)
(1.00124 0.506656 -1.17374e-21)
(1.00369 0.482589 -5.90918e-21)
(1.00637 0.46044 -6.33681e-21)
(1.00918 0.440025 -4.31416e-20)
(1.012 0.421187 3.40273e-20)
(1.01474 0.403781 -3.46552e-20)
(1.01759 0.387702 -2.70403e-20)
(1.02117 0.373155 2.13366e-20)
(1.02634 0.360588 -2.99379e-20)
(0.230184 0.202877 -1.32765e-19)
(0.53568 0.470463 1.39502e-19)
(0.728101 0.62122 1.16173e-19)
(0.840127 0.687258 -1.77683e-19)
(0.900166 0.700358 9.43802e-20)
(0.930324 0.684642 -1.62811e-19)
(0.945142 0.655816 -1.17036e-20)
(0.952933 0.622732 -1.23898e-20)
(0.957902 0.589685 -1.78324e-20)
(0.961939 0.558411 -3.11849e-20)
(0.965803 0.529413 -1.18047e-20)
(0.969766 0.502691 -2.08163e-20)
(0.973915 0.478073 4.39409e-20)
(0.978269 0.455356 -1.46443e-19)
(0.982792 0.434359 1.36523e-19)
(0.987355 0.414959 7.92169e-20)
(0.991824 0.397002 -2.63212e-20)
(0.99647 0.380163 9.94235e-21)
(1.00222 0.36445 1.41854e-19)
(1.00942 0.35134 -5.75832e-20)
(0.220977 0.209714 -4.38741e-20)
(0.511249 0.480914 1.13262e-19)
(0.693443 0.629542 -1.40804e-19)
(0.799646 0.691837 1.91298e-19)
(0.8573 0.701503 9.92003e-21)
(0.887407 0.683262 -6.04899e-20)
(0.903504 0.652789 -5.36042e-21)
(0.913181 0.61868 -1.03705e-20)
(0.920206 0.584972 1.24452e-20)
(0.926246 0.553214 1.71999e-20)
(0.931968 0.523797 1.76486e-20)
(0.937624 0.496645 -2.93213e-21)
(0.943323 0.471535 6.06252e-20)
(0.949142 0.448214 -6.64257e-20)
(0.955117 0.426465 7.5445e-20)
(0.961172 0.406148 -1.53452e-19)
(0.967219 0.387055 1.78307e-19)
(0.973726 0.368538 -1.55065e-19)
(0.981711 0.350352 -9.66173e-20)
(0.990075 0.335972 1.76206e-19)
(0.210465 0.214998 7.99134e-20)
(0.484606 0.487987 2.12369e-20)
(0.65664 0.633778 3.80586e-20)
(0.757466 0.692284 1.70644e-20)
(0.813226 0.698785 -3.28108e-20)
(0.843672 0.678386 1.20967e-20)
(0.861306 0.646624 -6.30439e-20)
(0.873015 0.611804 4.14526e-20)
(0.882164 0.577703 5.2986e-20)
(0.89022 0.545702 -8.54023e-20)
(0.897767 0.516089 1.13253e-19)
(0.905025 0.488732 -4.06718e-20)
(0.912096 0.463357 9.23412e-20)
(0.919061 0.439652 -1.45165e-19)
(0.925969 0.417315 3.06262e-19)
(0.93278 0.39609 -6.53383e-20)
(0.939521 0.375554 -1.7994e-20)
(0.946889 0.354416 2.11299e-19)
(0.955668 0.330724 -1.0165e-19)
(0.960755 0.3071 5.26203e-20)
(0.198824 0.218629 1.39283e-20)
(0.45614 0.491558 -9.64284e-20)
(0.618159 0.63384 -2.36057e-20)
(0.71405 0.688554 -1.46341e-20)
(0.768364 0.692182 -1.06275e-21)
(0.799487 0.670003 -9.79789e-20)
(0.81887 0.637315 1.44228e-19)
(0.832727 0.602101 1.236e-20)
(0.844051 0.567885 -1.72212e-20)
(0.854141 0.535893 5.71204e-21)
(0.863507 0.506339 6.04286e-20)
(0.872345 0.479058 1.06692e-19)
(0.880734 0.453775 6.18037e-20)
(0.888713 0.430197 -1.50215e-19)
(0.896272 0.408066 -4.72326e-20)
(0.903352 0.387188 -2.07369e-21)
(0.91007 0.367291 3.21875e-20)
(0.917045 0.347671 6.05703e-21)
(0.924209 0.327612 3.37704e-19)
(0.926791 0.309285 -2.34801e-19)
(0.186243 0.220527 3.25829e-20)
(0.426249 0.491539 3.21959e-20)
(0.578471 0.629679 -7.71111e-20)
(0.669857 0.680631 1.86624e-19)
(0.723127 0.681697 6.86436e-20)
(0.755214 0.658122 -1.55133e-19)
(0.776517 0.62487 1.55291e-19)
(0.792608 0.589577 -4.26132e-20)
(0.806146 0.555519 1.46642e-19)
(0.818282 0.523781 7.41794e-20)
(0.829481 0.49451 -3.16541e-19)
(0.839929 0.467516 -3.45268e-20)
(0.849714 0.442519 4.53707e-19)
(0.858873 0.419236 -5.58118e-19)
(0.867388 0.397419 5.16429e-19)
(0.875192 0.376864 1.8214e-19)
(0.882362 0.357285 -6.40035e-19)
(0.889322 0.338091 3.13798e-19)
(0.895884 0.318984 -6.21115e-20)
(0.898474 0.302425 7.48833e-20)
(0.17292 0.220635 -1.6848e-19)
(0.395338 0.487882 -1.80599e-19)
(0.53804 0.621286 1.22559e-19)
(0.625338 0.668531 -1.74994e-19)
(0.677923 0.667356 -5.21197e-19)
(0.711212 0.642768 -2.78295e-20)
(0.734567 0.60931 -1.58905e-19)
(0.75295 0.574249 1.20098e-22)
(0.768721 0.540622 -3.38504e-19)
(0.782906 0.509386 -3.45326e-19)
(0.795931 0.480633 -2.42246e-19)
(0.807982 0.454162 -1.09716e-20)
(0.819155 0.429701 -5.90421e-19)
(0.829506 0.406985 -1.04504e-20)
(0.839041 0.385799 2.90542e-19)
(0.847732 0.365975 -2.87616e-19)
(0.855665 0.347288 -2.25915e-19)
(0.863184 0.329289 2.17933e-19)
(0.870093 0.311795 -1.55172e-19)
(0.873468 0.296743 2.98562e-20)
(0.159056 0.218922 1.62334e-19)
(0.36381 0.480579 1.25275e-19)
(0.497326 0.608686 -1.09695e-20)
(0.580935 0.652301 -1.29526e-19)
(0.633147 0.649212 2.79187e-19)
(0.667831 0.623988 4.78296e-19)
(0.693331 0.590671 -5.22365e-20)
(0.714041 0.556143 3.65581e-21)
(0.732053 0.523205 8.83044e-20)
(0.748287 0.492699 2.16452e-19)
(0.763146 0.464675 3.18886e-19)
(0.776824 0.438922 -2.62918e-19)
(0.789433 0.415174 2.53624e-19)
(0.801046 0.393182 -9.18173e-20)
(0.81169 0.372743 2.99978e-19)
(0.821369 0.353699 -1.17438e-19)
(0.8302 0.335851 -2.95977e-19)
(0.838525 0.318849 1.75292e-19)
(0.84618 0.302629 -2.54485e-19)
(0.85061 0.288819 -2.87686e-19)
(0.144858 0.215375 9.24633e-20)
(0.332061 0.469654 1.57749e-19)
(0.456776 0.591941 -1.64171e-19)
(0.537073 0.632019 1.12257e-21)
(0.589181 0.627341 2.84164e-20)
(0.625407 0.601848 2.44112e-19)
(0.65311 0.569008 -3.55764e-19)
(0.676154 0.535299 3.36619e-19)
(0.696391 0.503297 -3.5584e-20)
(0.714657 0.473739 9.14432e-20)
(0.731341 0.446637 1.51603e-19)
(0.74665 0.421778 -2.89642e-19)
(0.760719 0.398906 1.35586e-19)
(0.773643 0.377785 1.30047e-19)
(0.785478 0.358227 4.85089e-20)
(0.796259 0.340084 -2.47672e-19)
(0.806126 0.32317 8.33799e-19)
(0.815416 0.307185 -4.69453e-19)
(0.823962 0.2921 8.48163e-19)
(0.829498 0.279263 -5.53367e-20)
(0.130528 0.210002 7.33862e-20)
(0.30048 0.455169 3.90629e-19)
(0.416819 0.571145 1.43949e-19)
(0.494162 0.607789 2.87063e-19)
(0.546392 0.601843 7.86591e-20)
(0.584264 0.576436 -4.69715e-19)
(0.614193 0.544392 7.31577e-19)
(0.639552 0.511776 3.82822e-19)
(0.661981 0.480941 1.68618e-20)
(0.682246 0.452532 4.95485e-19)
(0.70073 0.42653 8.32483e-20)
(0.717657 0.402721 5.15007e-20)
(0.733185 0.380859 2.95524e-19)
(0.747434 0.360719 -1.11747e-19)
(0.760487 0.342122 -1.14894e-19)
(0.772407 0.324925 6.88383e-19)
(0.783361 0.308955 -5.72408e-19)
(0.793675 0.293951 2.20675e-20)
(0.803171 0.279902 7.25414e-19)
(0.809835 0.267915 -8.24037e-22)
(0.116266 0.202835 -8.55229e-19)
(0.26944 0.437217 -1.33138e-19)
(0.37787 0.546426 -1.90203e-19)
(0.452593 0.579747 -1.48353e-19)
(0.505127 0.572844 -3.83046e-19)
(0.544709 0.547862 1.30917e-19)
(0.576853 0.516917 -1.85656e-19)
(0.604481 0.485649 5.7623e-20)
(0.629047 0.456199 -2.68935e-19)
(0.65126 0.429125 -2.50246e-19)
(0.671503 0.404387 5.65323e-20)
(0.690019 0.38177 -4.0889e-19)
(0.706988 0.361038 3.29667e-19)
(0.722556 0.34198 -1.19246e-19)
(0.736828 0.324423 3.68659e-19)
(0.749896 0.308228 -7.95961e-19)
(0.761944 0.293232 -1.51713e-19)
(0.773278 0.279203 -2.85721e-19)
(0.783721 0.266135 -7.64273e-19)
(0.791497 0.254924 -1.23387e-19)
(0.102265 0.19392 1.37619e-19)
(0.2393 0.41592 -1.32514e-20)
(0.34032 0.51794 -2.21557e-19)
(0.412733 0.548054 7.87299e-20)
(0.465716 0.540492 -1.59178e-19)
(0.507031 0.516257 -1.64624e-21)
(0.541347 0.486696 2.15075e-19)
(0.571175 0.457016 -3.22565e-19)
(0.597801 0.429154 1.24434e-19)
(0.621892 0.403588 -7.24226e-20)
(0.643833 0.380262 2.06563e-20)
(0.663887 0.358966 -3.60185e-19)
(0.682258 0.339473 -4.36525e-19)
(0.699111 0.321584 -1.67539e-20)
(0.714577 0.305136 4.85458e-19)
(0.72877 0.289991 2.19906e-20)
(0.741883 0.275998 6.12329e-19)
(0.754207 0.262951 -8.9332e-19)
(0.765569 0.250841 4.73817e-19)
(0.774426 0.240382 8.18406e-19)
(0.088713 0.183325 -1.26795e-19)
(0.210399 0.391431 6.80083e-20)
(0.304538 0.485875 4.44049e-19)
(0.37493 0.512896 1.10532e-19)
(0.428466 0.504962 -1.47847e-19)
(0.471503 0.481774 1.17378e-19)
(0.507918 0.453863 4.59956e-19)
(0.539849 0.425994 -3.7432e-19)
(0.568439 0.399906 3.45591e-20)
(0.594319 0.37601 -1.36286e-19)
(0.617881 0.354234 4.91818e-19)
(0.639405 0.334375 3.51014e-19)
(0.659118 0.316222 -5.11292e-20)
(0.677206 0.299586 -5.30085e-19)
(0.693818 0.284311 2.88257e-20)
(0.709089 0.270267 -6.51058e-20)
(0.72322 0.257312 3.10888e-19)
(0.73648 0.245266 5.04279e-19)
(0.748717 0.23411 4.39013e-19)
(0.75861 0.224404 -7.35396e-19)
(0.0757847 0.171133 -8.09762e-20)
(0.183056 0.363931 3.44534e-19)
(0.270868 0.450445 -3.34255e-19)
(0.339505 0.474488 4.68131e-19)
(0.393664 0.466448 -2.52545e-19)
(0.438375 0.444588 1.83388e-19)
(0.476789 0.418571 4.6144e-19)
(0.510706 0.392719 -5.56254e-19)
(0.541144 0.368579 2.53297e-19)
(0.568707 0.346499 3.19651e-19)
(0.593793 0.3264 -4.33189e-19)
(0.616703 0.308088 -2.95637e-20)
(0.637682 0.291367 -3.45226e-19)
(0.656935 0.27606 5.55332e-19)
(0.674631 0.262021 -2.99855e-19)
(0.690918 0.249128 3.21698e-19)
(0.706001 0.23725 -5.74092e-20)
(0.720134 0.22623 1.98814e-19)
(0.73319 0.216039 4.55431e-20)
(0.744064 0.207105 -1.15511e-19)
(0.063646 0.157443 -2.51101e-19)
(0.157565 0.333625 -5.73372e-19)
(0.239628 0.411888 1.50779e-19)
(0.306754 0.433063 -4.83391e-19)
(0.361571 0.425166 -4.58379e-19)
(0.40788 0.404892 -3.29697e-19)
(0.448167 0.380995 2.56438e-19)
(0.48393 0.357347 1.96782e-19)
(0.516084 0.335313 -1.01133e-21)
(0.545207 0.315184 -1.711e-19)
(0.571707 0.296877 -3.09401e-19)
(0.595903 0.280212 2.7804e-19)
(0.618058 0.265008 -9.58677e-20)
(0.638394 0.251102 -4.71367e-19)
(0.657093 0.238359 3.05716e-19)
(0.674322 0.226667 -2.29623e-19)
(0.690284 0.215907 -9.31978e-20)
(0.705217 0.205941 -2.60943e-19)
(0.719029 0.196734 -2.35084e-19)
(0.730819 0.188602 6.10314e-20)
(0.0524497 0.142371 2.19068e-19)
(0.134199 0.300742 1.12847e-19)
(0.211108 0.370469 1.73345e-19)
(0.276947 0.38888 -5.94287e-19)
(0.332429 0.381353 6.35416e-19)
(0.380229 0.362898 1.70664e-21)
(0.422238 0.341324 4.77384e-21)
(0.459692 0.320051 -3.85492e-19)
(0.49341 0.300264 3.59338e-19)
(0.523956 0.282208 -2.50379e-19)
(0.551747 0.265799 7.44247e-20)
(0.577117 0.250873 -3.33243e-19)
(0.600345 0.237263 -1.58162e-19)
(0.621668 0.224825 -7.50822e-20)
(0.641284 0.213436 5.67643e-19)
(0.659368 0.202991 -2.78251e-19)
(0.676126 0.193388 -2.50765e-19)
(0.691782 0.184508 2.56784e-19)
(0.706279 0.176308 -2.10621e-19)
(0.718911 0.169014 1.64164e-19)
(0.0423351 0.126045 4.70395e-19)
(0.113201 0.265533 -2.84238e-19)
(0.185569 0.32647 4.23172e-20)
(0.250327 0.342215 4.96202e-19)
(0.30645 0.335263 1.97403e-19)
(0.355612 0.318837 2.43812e-19)
(0.399173 0.299766 2.4247e-19)
(0.438142 0.281018 5.13161e-19)
(0.473262 0.263608 -1.17272e-19)
(0.505081 0.247734 2.80101e-19)
(0.534026 0.233316 4.05895e-19)
(0.560445 0.220209 1.49175e-19)
(0.584634 0.208265 2.69351e-19)
(0.60684 0.197356 9.74389e-20)
(0.627274 0.187371 5.67935e-20)
(0.646123 0.17822 -4.13985e-20)
(0.663588 0.169813 3.31392e-19)
(0.679883 0.162048 2.03556e-19)
(0.694992 0.154879 -1.85331e-19)
(0.708383 0.148461 1.74729e-19)
(0.0334264 0.108606 -3.13111e-19)
(0.0947899 0.228266 3.47866e-20)
(0.163243 0.280197 -9.02455e-20)
(0.227106 0.293362 -2.7446e-19)
(0.283826 0.287166 -1.446e-19)
(0.334195 0.272951 -2.63359e-19)
(0.379121 0.256543 1.22844e-19)
(0.419416 0.240453 -4.72374e-19)
(0.455759 0.225529 2.7883e-19)
(0.48869 0.211932 -3.84688e-19)
(0.518643 0.19959 -2.38181e-19)
(0.54598 0.188374 -3.14618e-19)
(0.571007 0.178158 7.20027e-20)
(0.593984 0.168831 -7.10512e-20)
(0.615132 0.160299 8.41278e-20)
(0.634645 0.152482 4.50622e-20)
(0.652725 0.145305 8.94391e-20)
(0.669573 0.138684 -7.51633e-19)
(0.685216 0.13257 3.73515e-19)
(0.699274 0.127066 -2.24123e-19)
(0.0258324 0.0902049 1.04003e-19)
(0.0791537 0.18923 2.09744e-19)
(0.144328 0.231969 -1.36673e-19)
(0.20747 0.242632 3.37683e-19)
(0.264719 0.237347 -5.3621e-20)
(0.316124 0.2255 3.89921e-19)
(0.362211 0.21189 7.559e-20)
(0.40363 0.198569 -7.87259e-20)
(0.44101 0.186228 2.86811e-19)
(0.474882 0.17499 2.18484e-19)
(0.505688 0.164793 8.09847e-20)
(0.533801 0.15553 1.06143e-19)
(0.559536 0.147097 5.30584e-20)
(0.583165 0.139399 -2.25198e-19)
(0.604916 0.13236 -3.10827e-20)
(0.624991 0.125914 2.33933e-19)
(0.643587 0.119998 -1.59825e-19)
(0.660901 0.114545 -7.78078e-21)
(0.676995 0.109509 -3.32879e-19)
(0.691621 0.104953 6.70009e-19)
(0.0196449 0.0710043 2.79802e-19)
(0.0664516 0.148725 -3.35054e-19)
(0.128993 0.182123 1.57348e-19)
(0.191573 0.190347 -2.2181e-19)
(0.249268 0.186101 1.95977e-19)
(0.301521 0.176752 -3.39444e-19)
(0.348551 0.16605 -2.48222e-19)
(0.390882 0.155593 1.85278e-20)
(0.429101 0.145912 -3.37126e-19)
(0.463736 0.137101 -2.09946e-19)
(0.495233 0.129108 -3.62436e-19)
(0.523974 0.12185 -1.17803e-20)
(0.550284 0.115243 -1.40111e-19)
(0.57444 0.109214 3.54618e-19)
(0.59668 0.103703 2.4359e-19)
(0.617208 0.0986569 -8.19997e-20)
(0.636222 0.0940279 -7.39375e-20)
(0.653909 0.0897643 -3.38048e-21)
(0.670369 0.0858263 9.18031e-21)
(0.685459 0.0822493 1.32658e-19)
(0.0149382 0.051173 -7.00127e-20)
(0.0568118 0.107065 -2.39643e-19)
(0.117372 0.131005 -1.49287e-19)
(0.179541 0.136841 -9.33333e-20)
(0.237582 0.133736 -1.93127e-19)
(0.290482 0.126986 3.30423e-19)
(0.338229 0.119279 -3.56416e-20)
(0.381251 0.111757 -7.93826e-20)
(0.420107 0.104798 3.19166e-21)
(0.455318 0.0984666 2.32143e-19)
(0.487339 0.0927245 -2.20167e-19)
(0.516556 0.0875109 2.14978e-19)
(0.5433 0.0827661 1.00616e-19)
(0.567856 0.0784378 -1.83132e-19)
(0.590464 0.0744814 4.00177e-20)
(0.611336 0.0708596 1.17191e-19)
(0.630664 0.0675382 4.0512e-20)
(0.648634 0.0644808 -2.85036e-20)
(0.665371 0.0616564 -2.45269e-19)
(0.680813 0.0590834 1.95241e-19)
(0.0117689 0.0308869 6.32435e-20)
(0.0503311 0.0645738 7.66333e-20)
(0.109569 0.0789709 2.153e-20)
(0.171468 0.0824582 -1.61694e-20)
(0.229745 0.0805661 4.62507e-20)
(0.283081 0.0764867 7.05805e-20)
(0.331311 0.0718376 2.67584e-20)
(0.374798 0.0673038 3.26176e-20)
(0.41408 0.0631106 -6.893e-20)
(0.449679 0.0592964 1.29179e-19)
(0.48205 0.0558379 -3.04417e-20)
(0.511587 0.0526981 -2.43354e-21)
(0.538623 0.049841 3.07725e-20)
(0.563446 0.047235 3.46648e-20)
(0.586303 0.0448533 -9.28219e-20)
(0.607404 0.0426732 6.11949e-20)
(0.626943 0.0406745 4.00247e-20)
(0.645102 0.0388352 3.41264e-20)
(0.662025 0.0371361 7.28864e-20)
(0.677705 0.0355851 3.01022e-20)
(0.0101748 0.0103259 -1.29547e-20)
(0.0470746 0.0215804 2.69136e-20)
(0.10565 0.0263854 -3.76231e-20)
(0.167415 0.0275457 2.36342e-20)
(0.225813 0.0269103 1.38324e-20)
(0.279369 0.0255458 6.17878e-21)
(0.327841 0.023992 1.45996e-20)
(0.371561 0.0224773 -4.18058e-20)
(0.411058 0.0210767 2.66528e-20)
(0.446851 0.0198028 9.32078e-21)
(0.479399 0.0186478 -5.12563e-22)
(0.509096 0.0175993 5.68386e-20)
(0.536278 0.0166453 -1.72734e-20)
(0.561236 0.0157752 -1.6498e-20)
(0.584217 0.0149801 -1.57999e-20)
(0.605433 0.0142523 2.45482e-21)
(0.625078 0.0135851 -2.10058e-20)
(0.643332 0.0129713 4.03391e-21)
(0.660348 0.0124042 7.86998e-22)
(0.676148 0.0118862 -2.65926e-21)
(0.0101749 -0.0103269 8.2257e-21)
(0.0470747 -0.0215807 -4.3769e-20)
(0.10565 -0.0263845 5.21316e-20)
(0.167415 -0.0275436 -3.91538e-20)
(0.225813 -0.0269076 -1.82292e-20)
(0.279369 -0.0255427 5.4571e-20)
(0.327841 -0.0239886 4.53029e-21)
(0.371561 -0.0224738 1.23926e-21)
(0.411058 -0.021073 2.53258e-20)
(0.446851 -0.0197989 1.30504e-20)
(0.479399 -0.0186437 -1.03499e-20)
(0.509096 -0.017595 -3.61117e-20)
(0.536279 -0.0166407 3.4827e-21)
(0.561236 -0.0157704 -3.09968e-21)
(0.584217 -0.014975 3.34951e-20)
(0.605434 -0.014247 -2.01233e-20)
(0.625078 -0.0135796 2.75119e-20)
(0.643333 -0.0129656 -4.12098e-20)
(0.660349 -0.0123983 4.83654e-23)
(0.676148 -0.0118801 -8.64423e-21)
(0.0117691 -0.0308879 -2.73234e-20)
(0.0503314 -0.0645742 1.37736e-19)
(0.109569 -0.07897 9.27133e-20)
(0.171468 -0.0824562 6.12603e-20)
(0.229746 -0.0805634 7.63369e-20)
(0.283082 -0.0764836 -1.86603e-20)
(0.331311 -0.0718343 8.43788e-20)
(0.374799 -0.0673003 1.71549e-20)
(0.414081 -0.0631069 -7.65487e-21)
(0.44968 -0.0592925 -6.00458e-20)
(0.482051 -0.0558338 6.20589e-20)
(0.511588 -0.0526938 -8.41405e-20)
(0.538624 -0.0498364 6.10088e-20)
(0.563448 -0.0472302 6.97123e-20)
(0.586304 -0.0448482 9.19358e-20)
(0.607405 -0.0426679 -6.05415e-20)
(0.626944 -0.0406689 1.69166e-20)
(0.645104 -0.0388295 6.34072e-20)
(0.662026 -0.0371301 -5.99718e-20)
(0.677706 -0.035579 4.5203e-20)
(0.0149385 -0.0511742 -2.63845e-19)
(0.0568122 -0.107066 -1.32342e-19)
(0.117373 -0.131004 -1.47098e-19)
(0.179542 -0.13684 -1.15522e-20)
(0.237583 -0.133734 -7.92351e-20)
(0.290483 -0.126983 -9.70158e-20)
(0.33823 -0.119276 1.71131e-19)
(0.381253 -0.111754 8.69594e-20)
(0.420109 -0.104795 1.06688e-19)
(0.45532 -0.0984627 -1.16083e-19)
(0.48734 -0.0927204 8.5836e-20)
(0.516558 -0.0875066 1.04312e-19)
(0.543302 -0.0827615 3.66701e-20)
(0.567858 -0.0784329 -3.48562e-20)
(0.590466 -0.0744763 7.32548e-21)
(0.611338 -0.0708542 -1.51287e-20)
(0.630666 -0.0675326 -1.46248e-19)
(0.648636 -0.0644749 2.28386e-20)
(0.665373 -0.0616504 1.41598e-19)
(0.680815 -0.0590772 -1.90147e-19)
(0.0196452 -0.0710056 -8.64588e-20)
(0.0664523 -0.148726 1.28664e-19)
(0.128994 -0.182123 2.96332e-20)
(0.191575 -0.190345 -5.52943e-20)
(0.249269 -0.186099 -1.56392e-19)
(0.301522 -0.176749 -3.34596e-19)
(0.348553 -0.166047 -3.17857e-19)
(0.390884 -0.155589 -2.26017e-20)
(0.429104 -0.145908 -1.84176e-19)
(0.463738 -0.137097 -2.74976e-19)
(0.495235 -0.129104 2.1279e-19)
(0.523977 -0.121845 -3.13742e-19)
(0.550287 -0.115238 6.1706e-20)
(0.574443 -0.10921 -2.01324e-20)
(0.596682 -0.103698 -6.5132e-20)
(0.617211 -0.0986515 -8.19671e-20)
(0.636224 -0.0940221 1.33336e-19)
(0.653912 -0.0897583 1.06161e-19)
(0.670372 -0.0858201 1.82038e-19)
(0.685461 -0.0822429 -2.72549e-19)
(0.0258329 -0.0902066 4.70157e-20)
(0.0791547 -0.189231 4.55288e-19)
(0.144329 -0.23197 1.30131e-19)
(0.207471 -0.24263 3.14491e-19)
(0.264721 -0.237345 -1.1744e-19)
(0.316127 -0.225498 1.80413e-19)
(0.362213 -0.211887 -5.63171e-20)
(0.403633 -0.198566 3.64681e-19)
(0.441013 -0.186224 -1.87271e-19)
(0.474885 -0.174986 2.20518e-19)
(0.505691 -0.164789 1.91073e-19)
(0.533804 -0.155526 2.03579e-19)
(0.55954 -0.147092 -1.81948e-19)
(0.583168 -0.139394 1.55552e-19)
(0.60492 -0.132355 -2.16225e-19)
(0.624995 -0.125908 -5.92127e-20)
(0.643591 -0.119992 -1.41404e-19)
(0.660904 -0.114538 -5.98822e-20)
(0.676998 -0.109503 2.37499e-19)
(0.691624 -0.104946 -3.93081e-19)
(0.0334271 -0.108608 -1.87645e-19)
(0.0947912 -0.228268 -2.25097e-20)
(0.163245 -0.280198 -7.46558e-20)
(0.227108 -0.293361 -2.62765e-19)
(0.283829 -0.287165 4.50931e-20)
(0.334198 -0.272949 -4.10347e-19)
(0.379125 -0.256541 -1.71696e-19)
(0.41942 -0.24045 -1.31806e-20)
(0.455763 -0.225526 -4.31135e-19)
(0.488694 -0.211929 -1.33216e-19)
(0.518648 -0.199586 -6.07016e-20)