/*--------------------------------*- C++ -*----------------------------------*\
  =========                 |
  \\      /  F ield         | OpenFOAM: The Open Source CFD Toolbox
   \\    /   O peration     | Website:  https://openfoam.org
    \\  /    A nd           | Version:  6.0
     \\/     M anipulation  |
\*---------------------------------------------------------------------------*/
FoamFile
{
    version     2.0;
    format      ascii;
    class       volScalarField;
    location    "54";
    object      p;
}
// * * * * * * * * * * * * * * * * * * * * * * * * * * * * * * * * * * * * * //

dimensions      [0 2 -2 0 0 0 0];

internalField   nonuniform List<scalar> 
8000
(
-0.248797
-0.249659
-0.250228
-0.25064
-0.25098
-0.251261
-0.251495
-0.251693
-0.251864
-0.252013
-0.252147
-0.25227
-0.252386
-0.252501
-0.252617
-0.252744
-0.252884
-0.252994
-0.253048
-0.253512
-0.248607
-0.249465
-0.250028
-0.250431
-0.25076
-0.251028
-0.251245
-0.251425
-0.251575
-0.251701
-0.25181
-0.251905
-0.251993
-0.252076
-0.25216
-0.252254
-0.252359
-0.252432
-0.25245
-0.252871
-0.248511
-0.249365
-0.24992
-0.250312
-0.250626
-0.250875
-0.25107
-0.251225
-0.251347
-0.251443
-0.251518
-0.251579
-0.25163
-0.251675
-0.251719
-0.251771
-0.251835
-0.251867
-0.251841
-0.252217
-0.248511
-0.249363
-0.249909
-0.250286
-0.25058
-0.250805
-0.250972
-0.251095
-0.251182
-0.25124
-0.251275
-0.251293
-0.251299
-0.251297
-0.251293
-0.251296
-0.251311
-0.251294
-0.251219
-0.251547
-0.24861
-0.24946
-0.249996
-0.250355
-0.250625
-0.25082
-0.250953
-0.251037
-0.251082
-0.251094
-0.25108
-0.251047
-0.250998
-0.25094
-0.250879
-0.250825
-0.250783
-0.250711
-0.250579
-0.250857
-0.248813
-0.249662
-0.250186
-0.250523
-0.250764
-0.250924
-0.251016
-0.251054
-0.251049
-0.251007
-0.250936
-0.250841
-0.250729
-0.250605
-0.250476
-0.250355
-0.250247
-0.25011
-0.249913
-0.250139
-0.249126
-0.249975
-0.250484
-0.250796
-0.251002
-0.251121
-0.251165
-0.251151
-0.251087
-0.250983
-0.250845
-0.250679
-0.250491
-0.250289
-0.250081
-0.24988
-0.249694
-0.249483
-0.249211
-0.249382
-0.249557
-0.250405
-0.250897
-0.251178
-0.251345
-0.251416
-0.251406
-0.251332
-0.251202
-0.251027
-0.250811
-0.250563
-0.250289
-0.249995
-0.249694
-0.249398
-0.24912
-0.24882
-0.248462
-0.248574
-0.250118
-0.250962
-0.251432
-0.251678
-0.251799
-0.251816
-0.251745
-0.251603
-0.251401
-0.251146
-0.250844
-0.250502
-0.250128
-0.249729
-0.249317
-0.248909
-0.248521
-0.248114
-0.247652
-0.247698
-0.250819
-0.251654
-0.252096
-0.252301
-0.25237
-0.252327
-0.25219
-0.251974
-0.251692
-0.251349
-0.250953
-0.250507
-0.25002
-0.2495
-0.248959
-0.248418
-0.247895
-0.247356
-0.246767
-0.246737
-0.251674
-0.252493
-0.2529
-0.253056
-0.253067
-0.252957
-0.252747
-0.252453
-0.252086
-0.251651
-0.251152
-0.250594
-0.249982
-0.249325
-0.248634
-0.247934
-0.247249
-0.246543
-0.245793
-0.245669
-0.252696
-0.253488
-0.253852
-0.253951
-0.253895
-0.253712
-0.253425
-0.253048
-0.252592
-0.252061
-0.251456
-0.25078
-0.250034
-0.249225
-0.248364
-0.247478
-0.246593
-0.245678
-0.244715
-0.244465
-0.2539
-0.254652
-0.25496
-0.254991
-0.254861
-0.254599
-0.254228
-0.253766
-0.25322
-0.252592
-0.25188
-0.251083
-0.250197
-0.249226
-0.248176
-0.247074
-0.245949
-0.244768
-0.243521
-0.243091
-0.255301
-0.255993
-0.256232
-0.256185
-0.255969
-0.255619
-0.25516
-0.254609
-0.253972
-0.253248
-0.252431
-0.251514
-0.250489
-0.24935
-0.248098
-0.246753
-0.245343
-0.24383
-0.2422
-0.241504
-0.25691
-0.257524
-0.257677
-0.257537
-0.257223
-0.256774
-0.256219
-0.255574
-0.254845
-0.254026
-0.253108
-0.252077
-0.250917
-0.249611
-0.248149
-0.246541
-0.244806
-0.242886
-0.240749
-0.239653
-0.258742
-0.259254
-0.259302
-0.25905
-0.258622
-0.258062
-0.2574
-0.256653
-0.255827
-0.254913
-0.253897
-0.252758
-0.25147
-0.250005
-0.248337
-0.246458
-0.244368
-0.241975
-0.239189
-0.237506
-0.260809
-0.261195
-0.261114
-0.260731
-0.260169
-0.259478
-0.258693
-0.257833
-0.2569
-0.255886
-0.254771
-0.253529
-0.252124
-0.250514
-0.248656
-0.246517
-0.244073
-0.241182
-0.237635
-0.235116
-0.263126
-0.263359
-0.263125
-0.262585
-0.261864
-0.26102
-0.260091
-0.259098
-0.258045
-0.25692
-0.255702
-0.254358
-0.252847
-0.251113
-0.249093
-0.246723
-0.243949
-0.240567
-0.236146
-0.232393
-0.26571
-0.265761
-0.265346
-0.26462
-0.263712
-0.262688
-0.26159
-0.260442
-0.259249
-0.258
-0.256673
-0.255235
-0.25364
-0.251828
-0.249715
-0.247202
-0.244167
-0.240259
-0.234634
-0.228857
-0.268586
-0.268424
-0.267795
-0.266853
-0.265726
-0.264491
-0.263197
-0.261869
-0.260515
-0.25913
-0.257695
-0.256188
-0.254577
-0.252822
-0.250874
-0.248668
-0.246087
-0.242671
-0.237211
-0.230849
-0.271783
-0.271373
-0.270498
-0.269305
-0.267927
-0.26645
-0.26493
-0.263397
-0.261865
-0.260334
-0.258798
-0.257253
-0.255705
-0.254178
-0.252742
-0.251548
-0.250879
-0.25119
-0.254141
-0.266766
-0.275339
-0.274644
-0.273484
-0.272006
-0.270344
-0.268595
-0.266824
-0.265066
-0.26334
-0.261654
-0.260018
-0.258446
-0.256976
-0.255682
-0.2547
-0.254271
-0.254784
-0.25682
-0.261641
-0.274018
-0.2793
-0.278275
-0.276793
-0.274996
-0.273018
-0.270972
-0.268928
-0.266929
-0.264999
-0.263156
-0.261419
-0.259823
-0.258427
-0.257332
-0.2567
-0.256774
-0.257907
-0.260547
-0.265329
-0.274927
-0.283718
-0.282313
-0.280469
-0.27832
-0.276
-0.273634
-0.271302
-0.26905
-0.26691
-0.264906
-0.263065
-0.261431
-0.260075
-0.259102
-0.258662
-0.258957
-0.260239
-0.262779
-0.266853
-0.273696
-0.288648
-0.286807
-0.284561
-0.282029
-0.279343
-0.27664
-0.274007
-0.271496
-0.269139
-0.266962
-0.264998
-0.263291
-0.261906
-0.260935
-0.260496
-0.260726
-0.261771
-0.263752
-0.266761
-0.271084
-0.294148
-0.29181
-0.28912
-0.286177
-0.283104
-0.280051
-0.277108
-0.274326
-0.271738
-0.269366
-0.267238
-0.265393
-0.263881
-0.262768
-0.262133
-0.262052
-0.26259
-0.263769
-0.26561
-0.267889
-0.30027
-0.29737
-0.294196
-0.290818
-0.287342
-0.283925
-0.280659
-0.277591
-0.274743
-0.272133
-0.269778
-0.267702
-0.265938
-0.264527
-0.26351
-0.262922
-0.262776
-0.263049
-0.263734
-0.264415
-0.307061
-0.303532
-0.299836
-0.296002
-0.292107
-0.288313
-0.284705
-0.28132
-0.278167
-0.275251
-0.272576
-0.270151
-0.267994
-0.266125
-0.264563
-0.263319
-0.262384
-0.261728
-0.261332
-0.260792
-0.314556
-0.310332
-0.30608
-0.301771
-0.297442
-0.293251
-0.289272
-0.28552
-0.281992
-0.278674
-0.27556
-0.272649
-0.269947
-0.267469
-0.265223
-0.263215
-0.261436
-0.259864
-0.258481
-0.256972
-0.322774
-0.317793
-0.312957
-0.308158
-0.303377
-0.29876
-0.294359
-0.290169
-0.286165
-0.282322
-0.278628
-0.275079
-0.271684
-0.268459
-0.265419
-0.262575
-0.259928
-0.25747
-0.255186
-0.252865
-0.331717
-0.325924
-0.320481
-0.315177
-0.309921
-0.304832
-0.299938
-0.295206
-0.290597
-0.286081
-0.28165
-0.277311
-0.273085
-0.269002
-0.265088
-0.261366
-0.257849
-0.254541
-0.251425
-0.248378
-0.341363
-0.334714
-0.328648
-0.322823
-0.317055
-0.311428
-0.305939
-0.300533
-0.295163
-0.28981
-0.284482
-0.279209
-0.274037
-0.269012
-0.264175
-0.259561
-0.255187
-0.251067
-0.247177
-0.243452
-0.35166
-0.344126
-0.337426
-0.331061
-0.324728
-0.31847
-0.312255
-0.306012
-0.299707
-0.293345
-0.286969
-0.280643
-0.274436
-0.268417
-0.262639
-0.257138
-0.251936
-0.247045
-0.242428
-0.238063
-0.362528
-0.354093
-0.346755
-0.33982
-0.332848
-0.325837
-0.318732
-0.31147
-0.304046
-0.296514
-0.28896
-0.281487
-0.274194
-0.26716
-0.260445
-0.254083
-0.248092
-0.242473
-0.237177
-0.232205
-0.373849
-0.364517
-0.356538
-0.34899
-0.341279
-0.333362
-0.32518
-0.316704
-0.307985
-0.299139
-0.290308
-0.281633
-0.273231
-0.265191
-0.257566
-0.250384
-0.243649
-0.237351
-0.231422
-0.225887
-0.385467
-0.375258
-0.366636
-0.358415
-0.349838
-0.340835
-0.331375
-0.321493
-0.311321
-0.301051
-0.290881
-0.280981
-0.271482
-0.262466
-0.253976
-0.246024
-0.238598
-0.231674
-0.225162
-0.219111
-0.397186
-0.386138
-0.376867
-0.367892
-0.358297
-0.34801
-0.337067
-0.325603
-0.313853
-0.302088
-0.290555
-0.279445
-0.268884
-0.258943
-0.249645
-0.240981
-0.232924
-0.225429
-0.218387
-0.211876
-0.408769
-0.396937
-0.387006
-0.377174
-0.366386
-0.35461
-0.341994
-0.328804
-0.315391
-0.302103
-0.289222
-0.276943
-0.26538
-0.254579
-0.244539
-0.235228
-0.226602
-0.218597
-0.211079
-0.20417
-0.419941
-0.407395
-0.396783
-0.385973
-0.373804
-0.36034
-0.345888
-0.330871
-0.315758
-0.30096
-0.28678
-0.273401
-0.260911
-0.249326
-0.238618
-0.228732
-0.219603
-0.211149
-0.203216
-0.195974
-0.430394
-0.417214
-0.405891
-0.393966
-0.380229
-0.3649
-0.348489
-0.331593
-0.31479
-0.298538
-0.283137
-0.268747
-0.255419
-0.243137
-0.231841
-0.221452
-0.21189
-0.203054
-0.194768
-0.18726
-0.43979
-0.426068
-0.413993
-0.400809
-0.385329
-0.367994
-0.349551
-0.330777
-0.312341
-0.294724
-0.278207
-0.262911
-0.248846
-0.235959
-0.22416
-0.213348
-0.203427
-0.194276
-0.185702
-0.177999
-0.447772
-0.433603
-0.42073
-0.406145
-0.388773
-0.369338
-0.34885
-0.328252
-0.308282
-0.289421
-0.271912
-0.255828
-0.241135
-0.227741
-0.215529
-0.204377
-0.194174
-0.18478
-0.175985
-0.168159
-0.453972
-0.439455
-0.425735
-0.409619
-0.390246
-0.368673
-0.346183
-0.323865
-0.302498
-0.282538
-0.264177
-0.247435
-0.232229
-0.218433
-0.205903
-0.194498
-0.184094
-0.17453
-0.165587
-0.157711
-0.458023
-0.443258
-0.428643
-0.410893
-0.389457
-0.36577
-0.341379
-0.317489
-0.294892
-0.273998
-0.254939
-0.237674
-0.222079
-0.20799
-0.19524
-0.183674
-0.173153
-0.163496
-0.154479
-0.146629
-0.459568
-0.444654
-0.429106
-0.409651
-0.386148
-0.360432
-0.334291
-0.309017
-0.285382
-0.263735
-0.244139
-0.226497
-0.210639
-0.196372
-0.183506
-0.171873
-0.161322
-0.151654
-0.14264
-0.134892
-0.458274
-0.443306
-0.426801
-0.405614
-0.380099
-0.352497
-0.324806
-0.298365
-0.273903
-0.251695
-0.231732
-0.213861
-0.197872
-0.183544
-0.170671
-0.15907
-0.14858
-0.138985
-0.130055
-0.122488
-0.453836
-0.43891
-0.421444
-0.398549
-0.371136
-0.341843
-0.312839
-0.285473
-0.260408
-0.237837
-0.217681
-0.199734
-0.183749
-0.169484
-0.156714
-0.145247
-0.134914
-0.125478
-0.116716
-0.109407
-0.445997
-0.431205
-0.412801
-0.388268
-0.35913
-0.328388
-0.298336
-0.270302
-0.244867
-0.222136
-0.201964
-0.184095
-0.168254
-0.154175
-0.141622
-0.130396
-0.120316
-0.111131
-0.102624
-0.0956524
-0.434544
-0.419978
-0.400688
-0.374642
-0.343998
-0.312085
-0.281273
-0.252838
-0.227268
-0.204582
-0.184571
-0.166937
-0.151379
-0.137614
-0.125395
-0.114517
-0.104791
-0.0959499
-0.0877893
-0.0812325
-0.419323
-0.405074
-0.384982
-0.357592
-0.325707
-0.292927
-0.261656
-0.233091
-0.207621
-0.185182
-0.165506
-0.148263
-0.133126
-0.119803
-0.108037
-0.097618
-0.0883499
-0.0799523
-0.072233
-0.0661712
-0.400242
-0.386402
-0.36562
-0.337101
-0.304271
-0.270947
-0.239521
-0.211094
-0.185953
-0.163958
-0.144789
-0.128087
-0.113511
-0.100756
-0.0895615
-0.0797148
-0.0710116
-0.0631617
-0.055986
-0.0505066
-0.377269
-0.363931
-0.342602
-0.313203
-0.279748
-0.246211
-0.214932
-0.186904
-0.162314
-0.14095
-0.122453
-0.106439
-0.0925554
-0.0804927
-0.0699882
-0.060826
-0.0527969
-0.0456041
-0.0390834
-0.0342812
-0.350441
-0.337698
-0.31599
-0.285988
-0.252243
-0.218822
-0.187984
-0.160605
-0.136773
-0.116218
-0.0985446
-0.0833559
-0.0702917
-0.0590402
-0.0493389
-0.0409715
-0.0337256
-0.027304
-0.0215567
-0.0175187
-0.319858
-0.307804
-0.285905
-0.255596
-0.221899
-0.188919
-0.158802
-0.132303
-0.109423
-0.0898369
-0.073128
-0.0588889
-0.0467584
-0.0364272
-0.0276357
-0.0201694
-0.0138164
-0.00828553
-0.00342961
-0.000211965
-0.28568
-0.27441
-0.252526
-0.222216
-0.188903
-0.156672
-0.127537
-0.102132
-0.0803764
-0.0619046
-0.046282
-0.0330994
-0.0220005
-0.0126831
-0.00489538
0.00157103
0.00692175
0.0114382
0.0152884
0.0176396
-0.248129
-0.237736
-0.216082
-0.18608
-0.153477
-0.122284
-0.0943713
-0.0702517
-0.0497745
-0.03254
-0.0181055
-0.00606559
0.00392592
0.0121578
0.0188675
0.0242514
0.0285031
0.0318874
0.0345943
0.0359148
-0.207479
-0.198054
-0.17685
-0.14746
-0.115875
-0.0859907
-0.0595156
-0.0368506
-0.0177822
-0.00188638
0.0112814
0.0221167
0.0309496
0.0380479
0.0436265
0.0478661
0.0509441
0.0530714
0.0543753
0.0542304
-0.164054
-0.155681
-0.135147
-0.106664
-0.0763863
-0.0480535
-0.0232083
-0.00214362
0.0154081
0.0298886
0.0417393
0.0513414
0.0590019
0.064957
0.069388
0.0724544
0.0742937
0.0749463
0.0743149
0.0721432
-0.118216
-0.110978
-0.0913262
-0.0640289
-0.0353238
-0.00876189
0.0142842
0.0336233
0.0495706
0.0625823
0.073097
0.081483
0.0880256
0.0929271
0.0963324
0.0983694
0.099064
0.0980685
0.0949334
0.0906631
-0.0703654
-0.0643349
-0.0457694
-0.0199159
0.00697645
0.0315725
0.0526702
0.0701733
0.0844391
0.0959372
0.105108
0.112319
0.117852
0.121909
0.124647
0.126211
0.126506
0.1247
0.120101
0.115453
-0.0209283
-0.0161695
0.0011216
0.0252968
0.0501633
0.0726228
0.0916409
0.107208
0.119716
0.129645
0.137437
0.143463
0.148022
0.151351
0.153691
0.155313
0.156194
0.155373
0.152588
0.155979
0.0296577
0.033088
0.0489327
0.0712212
0.0938777
0.114055
0.130881
0.144423
0.155101
0.163395
0.169745
0.174515
0.178003
0.180458
0.182137
0.183299
0.183935
0.183583
0.183118
0.188638
0.0809353
0.0829919
0.0972402
0.117464
0.137758
0.155535
0.170079
0.181523
0.190306
0.196908
0.201758
0.205211
0.207559
0.209051
0.209932
0.210421
0.210503
0.209891
0.209474
0.213904
0.132444
0.133094
0.14562
0.163634
0.181446
0.196735
0.208929
0.21822
0.225057
0.229914
0.233203
0.235264
0.236378
0.23678
0.236697
0.236324
0.235657
0.234479
0.233524
0.236484
0.183723
0.182946
0.193651
0.209346
0.224592
0.237335
0.247139
0.254244
0.259105
0.262182
0.263869
0.26449
0.264302
0.263526
0.262363
0.260978
0.259357
0.257306
0.255502
0.25709
0.23432
0.23211
0.240923
0.254225
0.266857
0.277028
0.284429
0.28934
0.292216
0.2935
0.293566
0.292716
0.291191
0.289187
0.286886
0.284426
0.281777
0.278768
0.276041
0.276312
0.28379
0.280155
0.287035
0.297907
0.307914
0.31552
0.320534
0.323269
0.324175
0.323676
0.322125
0.319803
0.316927
0.313679
0.310216
0.306654
0.302952
0.298967
0.295312
0.294339
0.331704
0.326667
0.331602
0.340044
0.34745
0.352532
0.355204
0.355806
0.35478
0.352532
0.349391
0.345617
0.341409
0.336929
0.332315
0.327662
0.322927
0.317989
0.31343
0.311274
0.377651
0.37125
0.374258
0.380306
0.38517
0.387798
0.3882
0.386737
0.383842
0.379899
0.375217
0.370034
0.364532
0.358854
0.353123
0.347415
0.341687
0.335842
0.330417
0.327137
0.421241
0.413528
0.414656
0.41838
0.420794
0.421068
0.419298
0.415861
0.41118
0.405618
0.399463
0.392933
0.386194
0.379372
0.372573
0.365863
0.359197
0.352499
0.346253
0.341913
0.462107
0.453147
0.45247
0.453973
0.45406
0.452107
0.448287
0.442989
0.436624
0.429536
0.421993
0.414194
0.406289
0.398391
0.390591
0.382941
0.375402
0.367913
0.360899
0.355564
0.499906
0.489781
0.487399
0.486814
0.484725
0.480697
0.47497
0.467943
0.460015
0.45151
0.442679
0.433703
0.424718
0.415822
0.407095
0.398579
0.390238
0.382025
0.374298
0.36804
0.534325
0.523128
0.519166
0.516654
0.512566
0.506637
0.499166
0.49056
0.481204
0.471406
0.461399
0.451349
0.441379
0.431575
0.422005
0.412702
0.403636
0.394769
0.386392
0.379289
0.56508
0.552916
0.547522
0.543268
0.53738
0.529744
0.52071
0.51069
0.500055
0.4891
0.47804
0.467031
0.456179
0.445564
0.435241
0.425238
0.415528
0.40608
0.39712
0.389259
0.591918
0.578904
0.572245
0.566456
0.558988
0.549857
0.539456
0.528198
0.516446
0.50448
0.492501
0.480653
0.469033
0.45771
0.446731
0.436118
0.425849
0.415897
0.406427
0.397898
0.614619
0.600881
0.593141
0.586044
0.577232
0.566833
0.555273
0.542967
0.530269
0.517447
0.50469
0.492132
0.479862
0.467941
0.456407
0.445279
0.43454
0.424164
0.414259
0.405164
0.632999
0.618671
0.610048
0.601885
0.591982
0.580553
0.568052
0.554897
0.541433
0.527916
0.514529
0.501396
0.4886
0.476194
0.464212
0.452668
0.441549
0.43083
0.420572
0.411015
0.646907
0.632131
0.622834
0.613861
0.603129
0.590919
0.577706
0.563907
0.549861
0.535819
0.521955
0.508386
0.495192
0.48242
0.470098
0.45824
0.446834
0.435855
0.425329
0.415422
0.656229
0.641151
0.631401
0.621882
0.610592
0.597857
0.584165
0.569934
0.555498
0.541103
0.526918
0.513058
0.499596
0.486578
0.474029
0.461959
0.450361
0.439209
0.428502
0.418359
0.66089
0.645659
0.63568
0.625888
0.614317
0.601318
0.587386
0.572937
0.558306
0.543733
0.529387
0.51538
0.501784
0.488642
0.475979
0.463804
0.452109
0.440869
0.430072
0.419811
0.66085
0.645618
0.63564
0.625847
0.614276
0.601277
0.587344
0.572895
0.558263
0.54369
0.529344
0.515337
0.501741
0.488599
0.475936
0.463761
0.452066
0.440827
0.43003
0.419769
0.656109
0.641027
0.631277
0.621759
0.610468
0.597733
0.58404
0.569808
0.555371
0.540975
0.52679
0.512929
0.499467
0.486448
0.4739
0.46183
0.450233
0.43908
0.428375
0.418234
0.646704
0.631923
0.622626
0.613654
0.602921
0.590709
0.577495
0.563695
0.549648
0.535604
0.521739
0.50817
0.494975
0.482203
0.469882
0.458024
0.446619
0.435641
0.425116
0.415213
0.632709
0.618376
0.609752
0.601591
0.591687
0.580256
0.567754
0.554597
0.541131
0.527613
0.514225
0.501091
0.488295
0.475889
0.463908
0.452365
0.441247
0.430528
0.420272
0.410721
0.614238
0.600493
0.592753
0.585658
0.576846
0.566446
0.554884
0.542577
0.529877
0.517053
0.504295
0.491737
0.479467
0.467546
0.456013
0.444887
0.434149
0.423774
0.413871
0.404784
0.591438
0.578415
0.571758
0.565973
0.558506
0.549375
0.538972
0.527713
0.51596
0.503993
0.492013
0.480164
0.468545
0.457223
0.446245
0.435634
0.425368
0.415418
0.40595
0.397431
0.564493
0.55232
0.54693
0.542681
0.536796
0.529161
0.520127
0.510106
0.499471
0.488515
0.477456
0.466446
0.455596
0.444983
0.434662
0.424661
0.414955
0.405509
0.396553
0.388703
0.533623
0.522415
0.51846
0.515956
0.511873
0.505947
0.498478
0.489872
0.480517
0.47072
0.460713
0.450665
0.440697
0.430895
0.421328
0.412029
0.402968
0.394104
0.385732
0.378643
0.499077
0.488941
0.486568
0.485996
0.483916
0.479893
0.47417
0.467145
0.459219
0.450717
0.441887
0.432915
0.423933
0.415041
0.406318
0.397807
0.389472
0.381264
0.373543
0.367301
0.461139
0.452169
0.451505
0.453025
0.453125
0.451181
0.447367
0.442074
0.435714
0.42863
0.421091
0.413297
0.405397
0.397504
0.38971
0.382067
0.374535
0.367053
0.360045
0.35473
0.420122
0.412398
0.413544
0.417291
0.419724
0.420011
0.418251
0.414822
0.410148
0.404593
0.398444
0.391922
0.385189
0.378375
0.371585
0.364883
0.358226
0.351536
0.345299
0.340981
0.376366
0.369955
0.372986
0.379064
0.383953
0.386601
0.387017
0.385566
0.382681
0.378749
0.374076
0.368903
0.36341
0.357742
0.352021
0.346325
0.340608
0.334772
0.329358
0.326105
0.330237
0.325192
0.330157
0.338637
0.346075
0.351183
0.353875
0.354494
0.353483
0.351249
0.348121
0.344359
0.340164
0.335696
0.331095
0.326457
0.321735
0.31681
0.312264
0.310137
0.282125
0.278484
0.285401
0.296321
0.306369
0.314009
0.31905
0.321807
0.322732
0.322252
0.320718
0.318411
0.315552
0.31232
0.308873
0.305328
0.301643
0.297672
0.294033
0.293093
0.232441
0.230227
0.239085
0.252446
0.265129
0.275342
0.282777
0.287717
0.290619
0.291926
0.292014
0.291185
0.289679
0.287695
0.285413
0.282973
0.280344
0.277353
0.274644
0.274953
0.181613
0.180834
0.191594
0.207359
0.222668
0.235463
0.24531
0.252451
0.257345
0.26045
0.262164
0.262809
0.262646
0.261893
0.260753
0.259392
0.257794
0.255764
0.253981
0.255612
0.130084
0.130735
0.143326
0.161424
0.179312
0.194664
0.206911
0.216247
0.223124
0.228016
0.231336
0.233428
0.23457
0.234999
0.234944
0.234597
0.233958
0.232803
0.231871
0.23488
0.0783093
0.0803701
0.0946941
0.115016
0.1354
0.153253
0.167861
0.179359
0.188189
0.194834
0.199722
0.20321
0.205591
0.207115
0.208027
0.208546
0.208657
0.20807
0.207678
0.212163
0.0267477
0.0301855
0.0461174
0.0685195
0.0912815
0.111549
0.128451
0.142058
0.152791
0.161136
0.167531
0.172342
0.175868
0.178358
0.180072
0.181268
0.181935
0.181609
0.181168
0.186747
-0.0241392
-0.0193694
-0.00197919
0.0223262
0.0473153
0.06988
0.0889872
0.10463
0.117204
0.127192
0.135036
0.141111
0.145713
0.149082
0.151459
0.153117
0.154032
0.153234
0.150461
0.153899
-0.0738934
-0.0678484
-0.0491714
-0.0231702
0.0038629
0.0285809
0.0497822
0.0673738
0.0817165
0.0932825
0.102514
0.109779
0.115362
0.119463
0.122241
0.123841
0.124166
0.122381
0.117791
0.113144
-0.122076
-0.11482
-0.0950444
-0.0675811
-0.0387159
-0.012014
0.0111515
0.0305928
0.0466288
0.0597187
0.0703028
0.0787512
0.0853497
0.0903013
0.0937513
0.0958278
0.0965569
0.0955893
0.092473
0.0882081
-0.16826
-0.159866
-0.139195
-0.110527
-0.0800692
-0.0515771
-0.0265955
-0.00541374
0.0122397
0.0268097
0.0387401
0.0484136
0.0561385
0.0621515
0.0666348
0.0697483
0.0716305
0.0723222
0.0717242
0.0695715
-0.212043
-0.202592
-0.18124
-0.151647
-0.11986
-0.0897961
-0.0631662
-0.040368
-0.0211838
-0.0051859
0.00807288
0.0189899
0.0278967
0.0350621
0.0407019
0.0449975
0.0481274
0.050304
0.0516528
0.051538
-0.25306
-0.242639
-0.220826
-0.190601
-0.157774
-0.126381
-0.0982933
-0.0740234
-0.0534151
-0.036065
-0.0215272
-0.00939438
0.000681501
0.00899042
0.0157708
0.0212199
0.0255324
0.0289752
0.0317363
0.0330955
-0.290985
-0.279685
-0.257631
-0.227081
-0.193522
-0.161067
-0.131737
-0.106164
-0.0842611
-0.0656592
-0.0499203
-0.0366328
-0.0254383
-0.0160333
-0.00816503
-0.00162397
0.00379677
0.00838069
0.0122939
0.0146919
-0.325542
-0.313455
-0.291378
-0.260811
-0.226847
-0.19362
-0.163287
-0.1366
-0.113556
-0.0938248
-0.0769858
-0.062629
-0.0503913
-0.0399616
-0.0310792
-0.0235284
-0.017096
-0.0114887
-0.00656094
-0.00328818
-0.356506
-0.343728
-0.321834
-0.291559
-0.257525
-0.223835
-0.192759
-0.165172
-0.141159
-0.120442
-0.102624
-0.0873048
-0.0741212
-0.0627599
-0.052957
-0.0444952
-0.0371605
-0.0306535
-0.0248257
-0.0207241
-0.383712
-0.370337
-0.348817
-0.319132
-0.285368
-0.25154
-0.220001
-0.191745
-0.166954
-0.145413
-0.126756
-0.110598
-0.0965827
-0.0843987
-0.0737818
-0.0645151
-0.0563878
-0.0491008
-0.0424911
-0.0376167
-0.407056
-0.393178
-0.372203
-0.343387
-0.31023
-0.276594
-0.244885
-0.21621
-0.19085
-0.168661
-0.149318
-0.132458
-0.117737
-0.104849
-0.0935314
-0.0835701
-0.0747593
-0.0668064
-0.0595332
-0.0539731
-0.4265
-0.412212
-0.391926
-0.364232
-0.332005
-0.298893
-0.267318
-0.238484
-0.212776
-0.190126
-0.170261
-0.152845
-0.137552
-0.124083
-0.112183
-0.10164
-0.0922547
-0.0837453
-0.0759201
-0.0697689
-0.44207
-0.427464
-0.407983
-0.381628
-0.350631
-0.318367
-0.287232
-0.258508
-0.232682
-0.209768
-0.189551
-0.171732
-0.156004
-0.142082
-0.129718
-0.118706
-0.108853
-0.0998914
-0.0916164
-0.0849615
-0.453855
-0.439021
-0.420431
-0.395591
-0.36609
-0.334983
-0.304589
-0.276247
-0.250538
-0.227563
-0.20717
-0.189102
-0.173079
-0.158832
-0.146123
-0.134751
-0.124535
-0.11522
-0.106591
-0.0995123
-0.462006
-0.447036
-0.429391
-0.406193
-0.378415
-0.348745
-0.319383
-0.291691
-0.266335
-0.243503
-0.223112
-0.204952
-0.188772
-0.174327
-0.16139
-0.149768
-0.139289
-0.129716
-0.120822
-0.113398
-0.466729
-0.451716
-0.435041
-0.413562
-0.387683
-0.359696
-0.331635
-0.304853
-0.280084
-0.257599
-0.237386
-0.219289
-0.203092
-0.188574
-0.175523
-0.163756
-0.153112
-0.14337
-0.134299
-0.126607
-0.468282
-0.45332
-0.437613
-0.417879
-0.394019
-0.367917
-0.341397
-0.315769
-0.291812
-0.269874
-0.250015
-0.232133
-0.216056
-0.201586
-0.188533
-0.176724
-0.166009
-0.156185
-0.147022
-0.13914
-0.466966
-0.452149
-0.437388
-0.419376
-0.397595
-0.373527
-0.348751
-0.324498
-0.301567
-0.280369
-0.261033
-0.243517
-0.22769
-0.213388
-0.20044
-0.188688
-0.177993
-0.168172
-0.158997
-0.151004
-0.463111
-0.448539
-0.434684
-0.418328
-0.398628
-0.376682
-0.35381
-0.331122
-0.309411
-0.289136
-0.270487
-0.253481
-0.238034
-0.224014
-0.211274
-0.199675
-0.189087
-0.179349
-0.17024
-0.162212
-0.457074
-0.442845
-0.42985
-0.415046
-0.397371
-0.377578
-0.356714
-0.335746
-0.315426
-0.29624
-0.278433
-0.262076
-0.24713
-0.233502
-0.221071
-0.209715
-0.19932
-0.189742
-0.180773
-0.172785
-0.449221
-0.435434
-0.423249
-0.40987
-0.394113
-0.376441
-0.357636
-0.338496
-0.319708
-0.30176
-0.284937
-0.269358
-0.255031
-0.2419
-0.229873
-0.218847
-0.208724
-0.199381
-0.190623
-0.182748
-0.439921
-0.426671
-0.415247
-0.403152
-0.389167
-0.373528
-0.356772
-0.33952
-0.322368
-0.305783
-0.290071
-0.27539
-0.261792
-0.249257
-0.237724
-0.227112
-0.217339
-0.208301
-0.199822
-0.192133
-0.429532
-0.416909
-0.406206
-0.395249
-0.382862
-0.369119
-0.354346
-0.33899
-0.323536
-0.308408
-0.293913
-0.280238
-0.26747
-0.255625
-0.244672
-0.234553
-0.225203
-0.216539
-0.208404
-0.20097
-0.418393
-0.40648
-0.396465
-0.386507
-0.37553
-0.363508
-0.350601
-0.337095
-0.323355
-0.309743
-0.296549
-0.283971
-0.272125
-0.261057
-0.250763
-0.241212
-0.232356
-0.224131
-0.216402
-0.209291
-0.406816
-0.395682
-0.386333
-0.37725
-0.367495
-0.356996
-0.345796
-0.334042
-0.321986
-0.30991
-0.29807
-0.286662
-0.275816
-0.265602
-0.256044
-0.247131
-0.238835
-0.231112
-0.223848
-0.217125
-0.395079
-0.384779
-0.376083
-0.367769
-0.359059
-0.349877
-0.340195
-0.330055
-0.319604
-0.309041
-0.298576
-0.288385
-0.2786
-0.269309
-0.260553
-0.252345
-0.244672
-0.237509
-0.230766
-0.224491
-0.38342
-0.373996
-0.365945
-0.358317
-0.350495
-0.34243
-0.334062
-0.325364
-0.316397
-0.307283
-0.298175
-0.289218
-0.280537
-0.272221
-0.264327
-0.256882
-0.249892
-0.243346
-0.237175
-0.231405
-0.372041
-0.363513
-0.356105
-0.349098
-0.342034
-0.334904
-0.327647
-0.3202
-0.312563
-0.304793
-0.296986
-0.289249
-0.281686
-0.274381
-0.267396
-0.260767
-0.254513
-0.248636
-0.243088
-0.237871
-0.361102
-0.353474
-0.346705
-0.340275
-0.333865
-0.327512
-0.321176
-0.314786
-0.308304
-0.301741
-0.295141
-0.288574
-0.282114
-0.275833
-0.269787
-0.264017
-0.258546
-0.253387
-0.248507
-0.243885
-0.350723
-0.343982
-0.337846
-0.331961
-0.326126
-0.320424
-0.314844
-0.309325
-0.303817
-0.298301
-0.292784
-0.287301
-0.281897
-0.276624
-0.271528
-0.266645
-0.261998
-0.257602
-0.253436
-0.249443
-0.34099
-0.335106
-0.329594
-0.324231
-0.318916
-0.313767
-0.308806
-0.303994
-0.299285
-0.294646
-0.290066
-0.28555
-0.281123
-0.276813
-0.272653
-0.268667
-0.264873
-0.261282
-0.257877
-0.254548
-0.331958
-0.326887
-0.321981
-0.317123
-0.31229
-0.307625
-0.303177
-0.298935
-0.294866
-0.290941
-0.287139
-0.283454
-0.279892
-0.276469
-0.273201
-0.270103
-0.26718
-0.26443
-0.261842
-0.259224
-0.323652
-0.319339
-0.315016
-0.310648
-0.30627
-0.30204
-0.29803
-0.294251
-0.290691
-0.28733
-0.28415
-0.281145
-0.278317
-0.275673
-0.273225
-0.270978
-0.268927
-0.267057
-0.265352
-0.263525
-0.316075
-0.312458
-0.308688
-0.304793
-0.300851
-0.297025
-0.293401
-0.290009
-0.286854
-0.28393
-0.28123
-0.278756
-0.276514
-0.27452
-0.272788
-0.271326
-0.270128
-0.269167
-0.26843
-0.267538
-0.30921
-0.306219
-0.302969
-0.29953
-0.296007
-0.292565
-0.289294
-0.286238
-0.283413
-0.280828
-0.278487
-0.276404
-0.2746
-0.273106
-0.271956
-0.271177
-0.270781
-0.270747
-0.271069
-0.271353
-0.303021
-0.300589
-0.29782
-0.294816
-0.291699
-0.288626
-0.285689
-0.282936
-0.280393
-0.278075
-0.275997
-0.274185
-0.272677
-0.271526
-0.270797
-0.270559
-0.270866
-0.27174
-0.2732
-0.275019
-0.297464
-0.295521
-0.293195
-0.290602
-0.287876
-0.28516
-0.282545
-0.280078
-0.277786
-0.275689
-0.273806
-0.27217
-0.270831
-0.269865
-0.269375
-0.269485
-0.270327
-0.272011
-0.274625
-0.278416
-0.29248
-0.290965
-0.28904
-0.286833
-0.284479
-0.282109
-0.279806
-0.277614
-0.275559
-0.273658
-0.271926
-0.270397
-0.269124
-0.268197
-0.26775
-0.267966
-0.269078
-0.27134
-0.27501
-0.281248
-0.288008
-0.286864
-0.285301
-0.283451
-0.281448
-0.279409
-0.277407
-0.275483
-0.273658
-0.271939
-0.270337
-0.268874
-0.267594
-0.266583
-0.265985
-0.266022
-0.267023
-0.269412
-0.27379
-0.282722
-0.283986
-0.283162
-0.281923
-0.280399
-0.278721
-0.276994
-0.27528
-0.273615
-0.272011
-0.27047
-0.268991
-0.267577
-0.266252
-0.265075
-0.264163
-0.263735
-0.264153
-0.265965
-0.270363
-0.282
-0.280352
-0.279807
-0.278854
-0.277624
-0.276243
-0.274802
-0.273357
-0.271935
-0.270544
-0.269176
-0.267818
-0.266454
-0.265075
-0.263693
-0.262358
-0.261204
-0.260483
-0.260615
-0.263144
-0.275003
-0.277053
-0.276751
-0.276049
-0.27508
-0.273965
-0.272781
-0.271578
-0.270379
-0.269184
-0.267981
-0.266744
-0.265436
-0.264016
-0.262433
-0.260621
-0.258502
-0.255951
-0.25249
-0.246826
-0.240251
-0.274041
-0.273952
-0.27347
-0.272729
-0.271846
-0.270889
-0.2699
-0.268897
-0.26788
-0.26683
-0.265716
-0.264495
-0.26311
-0.261488
-0.259535
-0.257138
-0.254171
-0.250266
-0.244492
-0.23864
-0.271282
-0.271378
-0.271086
-0.270542
-0.269859
-0.269097
-0.268292
-0.26746
-0.266597
-0.265686
-0.264696
-0.263585
-0.262299
-0.260776
-0.258939
-0.256719
-0.25406
-0.250744
-0.246255
-0.242592
-0.268746
-0.269004
-0.268875
-0.268498
-0.267987
-0.267391
-0.266742
-0.266055
-0.265325
-0.264537
-0.263663
-0.262667
-0.261505
-0.260127
-0.258481
-0.25653
-0.254259
-0.251508
-0.24799
-0.245723
-0.266413
-0.266811
-0.26682
-0.266586
-0.266219
-0.265764
-0.265248
-0.264684
-0.26407
-0.263392
-0.262627
-0.261747
-0.260719
-0.259507
-0.25808
-0.256431
-0.25457
-0.252387
-0.249727
-0.248429
-0.264269
-0.264784
-0.264911
-0.264798
-0.264554
-0.264219
-0.263817
-0.263361
-0.26285
-0.262273
-0.261615
-0.260854
-0.259968
-0.258936
-0.257745
-0.256407
-0.254953
-0.253307
-0.251382
-0.250772
-0.262303
-0.262916
-0.26314
-0.263129
-0.26299
-0.262758
-0.262456
-0.262097
-0.261682
-0.261205
-0.260653
-0.260015
-0.259277
-0.25843
-0.257475
-0.256436
-0.255352
-0.254167
-0.252822
-0.25268
-0.260504
-0.261196
-0.261502
-0.261576
-0.261527
-0.261386
-0.261175
-0.260905
-0.260582
-0.260201
-0.259757
-0.259244
-0.258655
-0.257991
-0.25726
-0.256493
-0.255728
-0.254918
-0.254009
-0.254175
-0.258866
-0.259619
-0.259991
-0.260138
-0.260167
-0.260107
-0.259977
-0.259791
-0.259555
-0.259269
-0.258932
-0.258541
-0.258097
-0.257605
-0.257077
-0.256546
-0.256045
-0.255528
-0.254941
-0.255305
-0.257378
-0.258177
-0.258603
-0.258812
-0.258908
-0.258919
-0.258863
-0.258755
-0.258602
-0.258407
-0.258171
-0.257896
-0.257587
-0.257249
-0.256898
-0.256563
-0.256273
-0.255978
-0.255625
-0.256114
-0.256032
-0.256864
-0.257333
-0.257593
-0.257748
-0.257821
-0.257832
-0.257795
-0.257719
-0.257608
-0.257465
-0.257296
-0.257105
-0.2569
-0.256696
-0.256519
-0.256391
-0.256261
-0.256075
-0.256641
-0.25482
-0.255674
-0.256176
-0.256479
-0.256683
-0.256811
-0.256881