1.275 	2.15223e-18 	-2.76991e-20 	-0.389459 	0.00205973 	-3.60566e-22
1.825 	2.15223e-18 	-1.39322e-20 	-0.276844 	-0.00996966 	2.48483e-21
2.375 	2.15223e-18 	-2.66896e-23 	0.123527 	-0.0113414 	-5.6397e-22
