1.275 	2.15223e-18 	-2.76991e-20 	-0.389457 	0.00203514 	-3.60555e-22
1.825 	2.15223e-18 	-1.39322e-20 	-0.276824 	-0.0099547 	2.48447e-21
2.375 	2.15223e-18 	-2.66896e-23 	0.123554 	-0.0113047 	-5.63843e-22
