/*--------------------------------*- C++ -*----------------------------------*\
  =========                 |
  \\      /  F ield         | OpenFOAM: The Open Source CFD Toolbox
   \\    /   O peration     | Website:  https://openfoam.org
    \\  /    A nd           | Version:  6.0
     \\/     M anipulation  |
\*---------------------------------------------------------------------------*/
FoamFile
{
    version     2.0;
    format      ascii;
    class       volScalarField;
    location    "35";
    object      p;
}
// * * * * * * * * * * * * * * * * * * * * * * * * * * * * * * * * * * * * * //

dimensions      [0 2 -2 0 0 0 0];

internalField   nonuniform List<scalar> 
12500
(
-0.245949
-0.246709
-0.247234
-0.247633
-0.247975
-0.248266
-0.248515
-0.248731
-0.248921
-0.249091
-0.249245
-0.249386
-0.249517
-0.249641
-0.249759
-0.249875
-0.249991
-0.250109
-0.25023
-0.250358
-0.250498
-0.25065
-0.250782
-0.250875
-0.251268
-0.246096
-0.246849
-0.247367
-0.247762
-0.248099
-0.248385
-0.248629
-0.248841
-0.249028
-0.249194
-0.249344
-0.249482
-0.24961
-0.249731
-0.249848
-0.249963
-0.250077
-0.250194
-0.250316
-0.250445
-0.250586
-0.250741
-0.250877
-0.250975
-0.251373
-0.246308
-0.247051
-0.247562
-0.24795
-0.248281
-0.24856
-0.248797
-0.249001
-0.249181
-0.24934
-0.249483
-0.249614
-0.249735
-0.24985
-0.24996
-0.250069
-0.250178
-0.250291
-0.250409
-0.250535
-0.250674
-0.250829
-0.250966
-0.251065
-0.251467
-0.246581
-0.247315
-0.247819
-0.248199
-0.24852
-0.24879
-0.249017
-0.249211
-0.249379
-0.249528
-0.24966
-0.24978
-0.24989
-0.249994
-0.250094
-0.250192
-0.250292
-0.250395
-0.250505
-0.250624
-0.250757
-0.250908
-0.251042
-0.251138
-0.251542
-0.246917
-0.247642
-0.248136
-0.248506
-0.248817
-0.249074
-0.249288
-0.249468
-0.249623
-0.249756
-0.249873
-0.249978
-0.250073
-0.250161
-0.250246
-0.250329
-0.250414
-0.250503
-0.250599
-0.250706
-0.250829
-0.250971
-0.251099
-0.251188
-0.251593
-0.247315
-0.24803
-0.248514
-0.248873
-0.24917
-0.249412
-0.24961
-0.249773
-0.249909
-0.250024
-0.250122
-0.250206
-0.250281
-0.250349
-0.250412
-0.250475
-0.250539
-0.250609
-0.250686
-0.250775
-0.250883
-0.251012
-0.251129
-0.251206
-0.25161
-0.247774
-0.248479
-0.248953
-0.249299
-0.24958
-0.249805
-0.249983
-0.250125
-0.250239
-0.25033
-0.250404
-0.250464
-0.250513
-0.250554
-0.250591
-0.250627
-0.250665
-0.250708
-0.25076
-0.250825
-0.250911
-0.251021
-0.251122
-0.251183
-0.251583
-0.248296
-0.248992
-0.249454
-0.249784
-0.250047
-0.250251
-0.250406
-0.250523
-0.250611
-0.250675
-0.250719
-0.250749
-0.250767
-0.250776
-0.25078
-0.250782
-0.250786
-0.250796
-0.250815
-0.250849
-0.250906
-0.250991
-0.251069
-0.251108
-0.251502
-0.248883
-0.249569
-0.250017
-0.25033
-0.250572
-0.250752
-0.250881
-0.250969
-0.251026
-0.251057
-0.251068
-0.251062
-0.251043
-0.251014
-0.250978
-0.250939
-0.250901
-0.250869
-0.250846
-0.25084
-0.25086
-0.250912
-0.25096
-0.25097
-0.251356
-0.249536
-0.250211
-0.250645
-0.250938
-0.251156
-0.251309
-0.251407
-0.251463
-0.251484
-0.251479
-0.251451
-0.251404
-0.251341
-0.251267
-0.251184
-0.251096
-0.251008
-0.250924
-0.250851
-0.250794
-0.250767
-0.250775
-0.250784
-0.250757
-0.251132
-0.250259
-0.250922
-0.251339
-0.25161
-0.251801
-0.251922
-0.251987
-0.252006
-0.251988
-0.251941
-0.251869
-0.251776
-0.251664
-0.251538
-0.2514
-0.251255
-0.251107
-0.250962
-0.250826
-0.250708
-0.250621
-0.250575
-0.250533
-0.250459
-0.250818
-0.251055
-0.251705
-0.252102
-0.252348
-0.252508
-0.252595
-0.252622
-0.2526
-0.252539
-0.252447
-0.252326
-0.252181
-0.252016
-0.251831
-0.251631
-0.25142
-0.251202
-0.250985
-0.250774
-0.25058
-0.25042
-0.250304
-0.250197
-0.250063
-0.250401
-0.25193
-0.252563
-0.252937
-0.253155
-0.253281
-0.253329
-0.253314
-0.253248
-0.25314
-0.252998
-0.252825
-0.252625
-0.2524
-0.252152
-0.251883
-0.251598
-0.2513
-0.250998
-0.250699
-0.250415
-0.250163
-0.249959
-0.249769
-0.249557
-0.249867
-0.252888
-0.253501
-0.253849
-0.254033
-0.25412
-0.254126
-0.254066
-0.253952
-0.253794
-0.253599
-0.253371
-0.253112
-0.252823
-0.252506
-0.252163
-0.251797
-0.251411
-0.251012
-0.25061
-0.250217
-0.249854
-0.249542
-0.249245
-0.248931
-0.2492
-0.253935
-0.254523
-0.25484
-0.254986
-0.255031
-0.25499
-0.254879
-0.254714
-0.254503
-0.254252
-0.253966
-0.253646
-0.253292
-0.252903
-0.252482
-0.252028
-0.251545
-0.251039
-0.250519
-0.25
-0.249503
-0.249054
-0.24862
-0.248173
-0.248382
-0.255077
-0.255635
-0.255914
-0.256018
-0.256014
-0.255921
-0.255757
-0.255536
-0.255269
-0.254961
-0.254615
-0.254232
-0.253811
-0.25335
-0.252848
-0.252303
-0.251717
-0.251095
-0.250444
-0.249778
-0.249122
-0.248506
-0.247896
-0.247272
-0.247392
-0.256321
-0.256841
-0.257077
-0.257131
-0.257073
-0.256923
-0.2567
-0.25642
-0.256093
-0.255725
-0.255319
-0.254873
-0.254385
-0.253852
-0.253268
-0.252632
-0.25194
-0.251195
-0.2504
-0.24957
-0.248729
-0.24791
-0.247078
-0.246217
-0.246204
-0.257674
-0.258147
-0.258333
-0.258331
-0.258211
-0.257997
-0.25771
-0.257365
-0.256975
-0.256545
-0.256076
-0.255568
-0.255014
-0.25441
-0.253748
-0.253021
-0.252223
-0.251351
-0.250406
-0.249395
-0.248344
-0.247283
-0.246174
-0.245002
-0.244789
-0.259143
-0.25956
-0.259687
-0.25962
-0.259431
-0.259146
-0.258786
-0.258372
-0.257914
-0.257418
-0.256885
-0.256312
-0.255694
-0.255021
-0.254284
-0.25347
-0.25257
-0.251573
-0.250474
-0.249273
-0.247988
-0.246648
-0.245201
-0.243621
-0.243113
-0.260736
-0.261087
-0.261145
-0.261005
-0.260736
-0.26037
-0.25993
-0.259438
-0.258906
-0.258339
-0.257738
-0.2571
-0.256417
-0.255678
-0.254869
-0.253974
-0.252977
-0.251861
-0.250611
-0.249215
-0.247682
-0.246029
-0.244183
-0.242082
-0.241144
-0.26246
-0.262735
-0.262714
-0.262489
-0.26213
-0.261672
-0.261143
-0.260564
-0.259948
-0.259303
-0.25863
-0.257923
-0.257173
-0.256368
-0.25549
-0.254521
-0.253436
-0.252212
-0.250821
-0.249238
-0.247454
-0.245469
-0.243171
-0.240429
-0.238884
-0.264326
-0.264514
-0.264402
-0.26408
-0.263619
-0.263057
-0.262425
-0.261748
-0.261039
-0.260308
-0.259553
-0.258771
-0.257951
-0.257079
-0.256136
-0.255099
-0.253939
-0.252624
-0.251116
-0.249372
-0.247361
-0.245058
-0.242301
-0.238829
-0.236453
-0.266346
-0.266434
-0.266219
-0.265786
-0.265209
-0.264529
-0.263782
-0.262993
-0.26218
-0.26135
-0.260505
-0.25964
-0.258745
-0.257805
-0.256801
-0.255706
-0.25449
-0.253114
-0.251529
-0.249674
-0.247491
-0.244921
-0.241736
-0.23744
-0.233849
-0.268534
-0.268508
-0.268176
-0.267619
-0.26691
-0.266097
-0.26522
-0.264306
-0.263374
-0.262434
-0.261488
-0.260532
-0.259558
-0.258551
-0.257493
-0.256361
-0.255124
-0.253743
-0.252163
-0.250307
-0.248077
-0.245345
-0.241712
-0.236221
-0.23055
-0.270907
-0.270753
-0.270288
-0.26959
-0.268733
-0.267772
-0.266749
-0.265696
-0.264632
-0.26357
-0.262513
-0.26146
-0.260404
-0.259334
-0.25824
-0.257105
-0.255912
-0.254641
-0.253262
-0.251731
-0.249981
-0.247868
-0.244829
-0.239484
-0.233089
-0.273484
-0.273185
-0.272572
-0.271716
-0.270696
-0.26957
-0.268386
-0.267179
-0.265971
-0.264776
-0.2636
-0.262443
-0.261305
-0.26018
-0.259067
-0.257967
-0.256889
-0.255854
-0.254908
-0.254138
-0.253711
-0.253901
-0.255114
-0.259092
-0.272279
-0.27629
-0.275826
-0.275046
-0.274017
-0.272815
-0.271509
-0.27015
-0.268776
-0.267413
-0.266076
-0.264773
-0.263511
-0.262291
-0.261117
-0.259997
-0.25895
-0.258007
-0.257224
-0.256695
-0.256572
-0.257104
-0.25866
-0.261749
-0.267828
-0.281617
-0.279349
-0.2787
-0.277734
-0.276512
-0.275113
-0.273612
-0.272065
-0.270514
-0.268986
-0.2675
-0.266067
-0.264697
-0.263397
-0.262177
-0.261057
-0.260066
-0.259255
-0.258699
-0.258513
-0.258866
-0.26
-0.262244
-0.265976
-0.271989
-0.283477
-0.282691
-0.281831
-0.280659
-0.279227
-0.277615
-0.275904
-0.274158
-0.27242
-0.27072
-0.269081
-0.267516
-0.266038
-0.264657
-0.263392
-0.262268
-0.261323
-0.260616
-0.260227
-0.260271
-0.2609
-0.262311
-0.264742
-0.268423
-0.273701
-0.282748
-0.286345
-0.285247
-0.283846
-0.282187
-0.280345
-0.278413
-0.276458
-0.274526
-0.272651
-0.270855
-0.269156
-0.267566
-0.266103
-0.264785
-0.263642
-0.262714
-0.262058
-0.26175
-0.261886
-0.262584
-0.263979
-0.266216
-0.269401
-0.273616
-0.280284
-0.290342
-0.288974
-0.287322
-0.285417
-0.283333
-0.281168
-0.278995
-0.276864
-0.274809
-0.272853
-0.271016
-0.269311
-0.267754
-0.266367
-0.265176
-0.26422
-0.263547
-0.263219
-0.263306
-0.263886
-0.26504
-0.266834
-0.269294
-0.272363
-0.276919
-0.29471
-0.293039
-0.291113
-0.288946
-0.286605
-0.284198
-0.281801
-0.279465
-0.277226
-0.275106
-0.273123
-0.27129
-0.269623
-0.268138
-0.266859
-0.265816
-0.265046
-0.264592
-0.264498
-0.26481
-0.265559
-0.266765
-0.268405
-0.270364
-0.273142
-0.299478
-0.297468
-0.295244
-0.292798
-0.290189
-0.287531
-0.284904
-0.282358
-0.279928
-0.277636
-0.275494
-0.273515
-0.271708
-0.270087
-0.268666
-0.267468
-0.266515
-0.265833
-0.265446
-0.26537
-0.265611
-0.266158
-0.266969
-0.267914
-0.269259
-0.30467
-0.302284
-0.299738
-0.296999
-0.29411
-0.291194
-0.28833
-0.285568
-0.282938
-0.280459
-0.278139
-0.275985
-0.274
-0.27219
-0.270565
-0.269135
-0.267912
-0.266909
-0.266134
-0.265587
-0.265259
-0.265125
-0.265146
-0.265196
-0.265413
-0.310306
-0.307506
-0.304618
-0.301571
-0.298393
-0.29521
-0.292102
-0.289113
-0.28627
-0.283582
-0.281055
-0.278685
-0.276472
-0.274413
-0.272512
-0.270771
-0.269195
-0.267787
-0.266549
-0.265473
-0.264546
-0.263744
-0.263032
-0.262304
-0.261641
-0.316401
-0.313152
-0.309899
-0.306532
-0.303055
-0.299598
-0.296236
-0.293007
-0.289928
-0.287003
-0.284226
-0.28159
-0.279086
-0.276709
-0.274454
-0.272323
-0.270315
-0.268433
-0.266674
-0.265034
-0.263499
-0.262054
-0.260674
-0.259269
-0.257907
-0.322963
-0.31923
-0.315594
-0.311897
-0.308113
-0.304371
-0.300742
-0.297251
-0.293907
-0.290702
-0.287625
-0.28466
-0.281794
-0.27902
-0.276334
-0.273735
-0.271227
-0.268813
-0.266494
-0.264268
-0.262132
-0.260074
-0.258083
-0.256083
-0.254148
-0.329994
-0.325744
-0.32171
-0.317673
-0.313574
-0.309536
-0.305619
-0.301838
-0.298187
-0.294651
-0.291208
-0.28784
-0.284534
-0.281283
-0.278088
-0.274952
-0.271884
-0.268894
-0.265988
-0.263171
-0.260445
-0.257808
-0.255254
-0.252722
-0.250293
-0.337484
-0.332689
-0.328244
-0.323862
-0.319438
-0.315087
-0.310857
-0.306746
-0.302736
-0.298801
-0.294917
-0.291065
-0.287235
-0.283427
-0.27965
-0.275916
-0.272242
-0.268645
-0.265138
-0.261733
-0.258435
-0.255249
-0.252174
-0.249157
-0.246285
-0.345414
-0.340053
-0.335188
-0.330454
-0.325693
-0.321008
-0.316429
-0.311937
-0.307502
-0.303091
-0.298681
-0.294257
-0.28982
-0.28538
-0.280957
-0.276576
-0.272262
-0.268039
-0.263929
-0.259944
-0.256097
-0.252391
-0.248828
-0.245361
-0.242078
-0.353755
-0.34781
-0.342521
-0.337428
-0.332316
-0.327268
-0.322294
-0.317357
-0.312419
-0.307445
-0.302417
-0.297333
-0.292207
-0.287067
-0.281946
-0.276881
-0.271906
-0.267053
-0.262344
-0.257798
-0.253423
-0.249226
-0.245205
-0.241314
-0.237646
-0.362462
-0.355923
-0.350208
-0.344752
-0.339269
-0.333819
-0.328392
-0.322935
-0.317404
-0.311771
-0.306032
-0.300202
-0.294316
-0.288419
-0.28256
-0.276788
-0.271145
-0.265664
-0.260372
-0.255283
-0.250406
-0.245744
-0.241292
-0.237004
-0.232969
-0.371477
-0.364342
-0.358203
-0.352376
-0.346496
-0.340596
-0.334645
-0.32858
-0.32236
-0.31597
-0.309427
-0.302772
-0.296064
-0.289367
-0.282746
-0.276257
-0.269948
-0.263854
-0.257997
-0.25239
-0.247038
-0.241938
-0.237082
-0.232417
-0.228038
-0.380728
-0.373002
-0.366443
-0.360235
-0.353925
-0.347515
-0.340959
-0.334189
-0.327176
-0.319931
-0.312499
-0.304953
-0.297375
-0.28985
-0.282455
-0.275252
-0.268291
-0.261602
-0.255206
-0.249109
-0.243308
-0.237799
-0.232563
-0.227546
-0.222845
-0.390123
-0.381821
-0.37485
-0.368246
-0.361462
-0.354474
-0.34722
-0.339642
-0.331734
-0.32354
-0.315146
-0.306654
-0.298174
-0.289808
-0.281642
-0.273739
-0.266147
-0.258891
-0.251983
-0.245424
-0.239205
-0.233313
-0.227726
-0.222378
-0.217381
-0.399559
-0.390701
-0.383326
-0.376307
-0.368999
-0.361351
-0.353301
-0.344809
-0.335906
-0.326683
-0.317265
-0.307791
-0.298394
-0.289189
-0.280265
-0.271686
-0.263491
-0.255698
-0.248312
-0.241322
-0.234714
-0.228469
-0.222556
-0.216903
-0.211636
-0.408913
-0.399529
-0.391758
-0.384299
-0.376407
-0.368011
-0.359061
-0.349552
-0.339565
-0.329244
-0.318759
-0.308284
-0.29797
-0.287941
-0.278286
-0.269061
-0.260297
-0.252003
-0.244171
-0.236783
-0.229817
-0.223248
-0.217038
-0.211105
-0.205598
-0.418047
-0.408176
-0.400016
-0.392086
-0.383541
-0.374304
-0.364351
-0.353729
-0.342581
-0.331111
-0.319536
-0.308057
-0.296843
-0.286018
-0.275666
-0.265834
-0.25654
-0.24778
-0.239539
-0.231787
-0.224496
-0.217634
-0.211156
-0.204969
-0.199252
-0.42681
-0.416495
-0.407954
-0.399515
-0.390244
-0.380069
-0.369015
-0.357196
-0.344829
-0.332179
-0.319508
-0.307042
-0.294957
-0.283375
-0.272369
-0.261972
-0.25219
-0.243006
-0.234392
-0.226312
-0.218729
-0.211605
-0.204889
-0.198477
-0.192582
-0.435038
-0.424329
-0.415412
-0.406421
-0.396346
-0.385142
-0.372897
-0.359813
-0.346187
-0.332347
-0.318595
-0.305173
-0.292261
-0.27997
-0.268358
-0.257445
-0.247219
-0.237653
-0.228706
-0.220335
-0.212494
-0.205142
-0.198217
-0.191609
-0.18557
-0.442558
-0.43151
-0.42222
-0.412629
-0.401673
-0.389351
-0.375843
-0.361445
-0.346543
-0.331524
-0.316723
-0.302393
-0.288707
-0.275761
-0.263599
-0.25222
-0.241599
-0.231694
-0.222456
-0.213831
-0.205768
-0.198222
-0.191121
-0.184347
-0.178196
-0.449186
-0.437858
-0.428195
-0.417957
-0.406045
-0.39253
-0.377701
-0.361964
-0.345791
-0.329626
-0.313826
-0.298647
-0.284249
-0.270712
-0.258057
-0.246268
-0.235301
-0.225105
-0.215617
-0.206778
-0.198531
-0.190825
-0.183581
-0.176671
-0.170444
-0.454738
-0.443191
-0.433155
-0.42222
-0.409284
-0.394515
-0.37833
-0.361252
-0.343837
-0.326576
-0.309843
-0.293886
-0.278848
-0.264786
-0.251702
-0.239558
-0.228299
-0.217858
-0.208165
-0.199153
-0.19076
-0.182931
-0.175578
-0.168565
-0.162296
-0.459027
-0.447324
-0.436913
-0.425235
-0.411217
-0.395153
-0.377599
-0.359202
-0.340596
-0.322309
-0.30472
-0.288066
-0.272464
-0.25795
-0.244501
-0.232064
-0.220566
-0.20993
-0.200078
-0.190936
-0.182437
-0.174522
-0.167095
-0.160013
-0.153736
-0.461868
-0.450073
-0.439285
-0.426823
-0.411681
-0.3943
-0.375391
-0.35572
-0.335994
-0.316766
-0.298412
-0.281147
-0.265065
-0.250174
-0.236429
-0.223759
-0.212079
-0.2013
-0.191337
-0.182108
-0.173545
-0.165584
-0.158118
-0.151
-0.144753
-0.463083
-0.451259
-0.440094
-0.426817
-0.410524
-0.391827
-0.3716
-0.350725
-0.329967
-0.309897
-0.290877
-0.273097
-0.256621
-0.241431
-0.227461
-0.214623
-0.202818
-0.191949
-0.181924
-0.172655
-0.164071
-0.156103
-0.148636
-0.141519
-0.135336
-0.462504
-0.450713
-0.439174
-0.425059
-0.407608
-0.387621
-0.366138
-0.344148
-0.322465
-0.301663
-0.282084
-0.263888
-0.247108
-0.2317
-0.217578
-0.204636
-0.192767
-0.181863
-0.171826
-0.162565
-0.154003
-0.146071
-0.13864
-0.13156
-0.125479
-0.459975
-0.448279
-0.43637
-0.421409
-0.402813
-0.381587
-0.358933
-0.335936
-0.313447
-0.292033
-0.272007
-0.253497
-0.236506
-0.220962
-0.206762
-0.193785
-0.181912
-0.17103
-0.161034
-0.151829
-0.143336
-0.135481
-0.128127
-0.121122
-0.115179
-0.455357
-0.443815
-0.431548
-0.415745
-0.39604
-0.373647
-0.349927
-0.32605
-0.302885
-0.280984
-0.260629
-0.24191
-0.224801
-0.209207
-0.195003
-0.18206
-0.170246
-0.159444
-0.149542
-0.140443
-0.132065
-0.124332
-0.117095
-0.110204
-0.104437
-0.448527
-0.437198
-0.42459
-0.407968
-0.387208
-0.363745
-0.339083
-0.314461
-0.29076
-0.268503
-0.247938
-0.229118
-0.211986
-0.196425
-0.182296
-0.169455
-0.157765
-0.147101
-0.137349
-0.128407
-0.120193
-0.112627
-0.10555
-0.0988131
-0.0932574
-0.439387
-0.428326
-0.415401
-0.397997
-0.376261
-0.351841
-0.326377
-0.30116
-0.277066
-0.254588
-0.233932
-0.215118
-0.198059
-0.182617
-0.168638
-0.15597
-0.144468
-0.134003
-0.124456
-0.115725
-0.107725
-0.100372
-0.0934983
-0.0869577
-0.0816511
-0.427859
-0.417119
-0.40391
-0.385778
-0.363161
-0.337917
-0.311802
-0.286146
-0.261808
-0.239244
-0.218619
-0.199916
-0.183024
-0.167786
-0.154035
-0.14161
-0.130361
-0.120155
-0.110872
-0.102405
-0.0946687
-0.0875777
-0.080953
-0.0746522
-0.0696318
-0.41389
-0.403524
-0.39007
-0.371279
-0.347896
-0.321974
-0.29537
-0.269435
-0.245003
-0.222487
-0.20201
-0.183525
-0.166892
-0.151942
-0.138495
-0.126383
-0.115454
-0.105569
-0.0966057
-0.0884575
-0.0810382
-0.0742584
-0.0679303
-0.0619146
-0.0572182
-0.397452
-0.387509
-0.37386
-0.354496
-0.330474
-0.304032
-0.277107
-0.251055
-0.226677
-0.204341
-0.18413
-0.165963
-0.149682
-0.135101
-0.122033
-0.110304
-0.0997583
-0.0902557
-0.0816717
-0.0738983
-0.0668491
-0.0604317
-0.05445
-0.0487673
-0.0444323
-0.378544
-0.369073
-0.355285
-0.335444
-0.310924
-0.284128
-0.257053
-0.231047
-0.206869
-0.184842
-0.165008
-0.147258
-0.131416
-0.117283
-0.104667
-0.0933895
-0.0832916
-0.0742321
-0.0660857
-0.0587438
-0.0521196
-0.046118
-0.0405355
-0.0352364
-0.0313006
-0.357191
-0.348237
-0.334373
-0.314165
-0.289299
-0.26232
-0.235266
-0.209464
-0.185628
-0.164033
-0.144683
-0.127445
-0.112125
-0.0985167
-0.0864218
-0.0756603
-0.0660722
-0.0575157
-0.0498652
-0.043012
-0.0368692
-0.0313396
-0.026213
-0.0213523
-0.017856
-0.333442
-0.32505
-0.31118
-0.290724
-0.265668
-0.238679
-0.211816
-0.186373
-0.163015
-0.141969
-0.123204
-0.106566
-0.0918459
-0.0788323
-0.0673239
-0.05714
-0.0481206
-0.0401247
-0.0330272
-0.0267199
-0.0211166
-0.016118
-0.0115092
-0.0071493
-0.00414037
-0.307373
-0.299586
-0.285785
-0.265207
-0.240122
-0.213296
-0.186788
-0.161853
-0.139101
-0.118713
-0.100628
-0.0846692
-0.0706216
-0.0582672
-0.0474047
-0.0378544
-0.029458
-0.0220765
-0.0155865
-0.00988173
-0.00487654
-0.000471194
0.00355123
0.00733655
0.00980116
-0.279084
-0.27194
-0.258289
-0.237719
-0.212769
-0.186274
-0.160282
-0.135995
-0.113968
-0.0943394
-0.077019
-0.0618145
-0.0485027
-0.0368643
-0.0266994
-0.0178311
-0.0101049
-0.00338552
0.00244682
0.00749551
0.0118443
0.0155912
0.0189498
0.0220741
0.0239399
-0.248696
-0.242233
-0.228815
-0.208386
-0.183732
-0.157734
-0.132408
-0.108901
-0.08771
-0.0689332
-0.0524545
-0.0380688
-0.0255478
-0.014673
-0.00524765
0.00290018
0.00991926
0.0159389
0.0210727
0.0254187
0.0290565
0.0320785
0.034688
0.0370586
0.0382866
-0.216352
-0.210606
-0.197504
-0.177352
-0.153152
-0.127808
-0.103291
-0.0806843
-0.0604313
-0.0425895
-0.0270208
-0.0135096
-0.00182529
0.00824859
0.0169037
0.0243051
0.030594
0.035891
0.0403006
0.0439117
0.0467957
0.0490342
0.0508133
0.0523346
0.0528586
-0.182216
-0.177217
-0.164518
-0.144774
-0.121181
-0.0966408
-0.0730652
-0.0514713
-0.0322475
-0.0154149
-0.000815596
0.0117741
0.0225857
0.0318318
0.0396979
0.0463409
0.0518921
0.056461
0.0601383
0.0629984
0.0651013
0.0665138
0.0673843
0.0679009
0.0674829
-0.146465
-0.142243
-0.13003
-0.110825
-0.0879849
-0.0643879
-0.0418763
-0.0213971
-0.00328486
0.012473
0.0260517
0.0376814
0.0475932
0.0559957
0.0630675
0.0689566
0.0737828
0.0776403
0.0805987
0.0827087
0.0840131
0.0845512
0.0843568
0.0834695
0.0815913
-0.109295
-0.105876
-0.0942305
-0.075688
-0.053739
-0.0312149
-0.00987896
0.00939366
0.0263205
0.0409455
0.0534592
0.064097
0.0730897
0.0806428
0.0869296
0.0920913
0.0962382
0.0994487
0.101767
0.103213
0.103803
0.103497
0.102033
0.099096
0.0952543
-0.0709123
-0.0683181
-0.0573191
-0.0395577
-0.0186272
0.00270552
0.0227647
0.0407482
0.0564238
0.0698641
0.0812729
0.0908903
0.0989474
0.105648
0.111165
0.11564
0.119183
0.121872
0.123748
0.124834
0.125158
0.124594
0.122429
0.117949
0.11321
-0.0315371
-0.0297846
-0.0195051
-0.00263473
0.01716
0.0371945
0.0558869
0.0725082
0.0868739
0.0990825
0.109349
0.117918
0.125019
0.130856
0.135604
0.139408
0.14239
0.144645
0.146249
0.147297
0.147939
0.14813
0.146974
0.143941
0.146244
0.0086125
0.00950777
0.0189983
0.0348759
0.0534287
0.07207
0.0893165
0.104512
0.117516
0.128451
0.137541
0.145031
0.151151
0.156103
0.16006
0.16317
0.165559
0.16733
0.16858
0.16943
0.170043
0.170395
0.169981
0.169221
0.173733
0.0493045
0.0493314
0.0579705
0.0727639
0.0899816
0.107148
0.122881
0.136596
0.148195
0.15782
0.165701
0.172085
0.177197
0.181237
0.184376
0.186761
0.18852
0.18976
0.190584
0.191115
0.191493
0.191691
0.19135
0.19096
0.194954
0.0903049
0.089457
0.0971896
0.110819
0.126621
0.142243
0.156408
0.1686
0.178758
0.187043
0.193689
0.198939
0.203016
0.206115
0.208402
0.21002
0.211094
0.211731
0.21203
0.212109
0.212091
0.211957
0.211403
0.210829
0.213877
0.131379
0.129654
0.136433
0.14883
0.163151
0.177174
0.189728
0.200363
0.209056
0.215978
0.221367
0.225463
0.228483
0.230614
0.232018
0.232831
0.233171
0.233141
0.232832
0.232348
0.231797
0.231147
0.230122
0.229096
0.231241
0.172293
0.169693
0.17548
0.186589
0.199377
0.211761
0.222675
0.231733
0.238942
0.244488
0.248608
0.251536
0.253482
0.254626
0.255122
0.255099
0.254668
0.253923
0.252948
0.251835
0.250672
0.249418
0.247819
0.246244
0.247517
0.212815
0.209346
0.214111
0.22389
0.235109
0.245828
0.255086
0.262557
0.268278
0.272444
0.27529
0.277044
0.277908
0.278054
0.277627
0.276749
0.275521
0.274031
0.272352
0.270568
0.26875
0.266848
0.264634
0.262483
0.262922
0.252716
0.24839
0.252114
0.260534
0.270162
0.279205
0.286804
0.292692
0.29693
0.299721
0.301298
0.301881
0.301665
0.300811
0.299456
0.297714
0.295679
0.293428
0.291031
0.288557
0.286067
0.283507
0.280674
0.277945
0.277585
0.291774
0.286605
0.289278
0.296324
0.304355
0.311726
0.317678
0.321996
0.324769
0.326201
0.326524
0.325949
0.324661
0.322815
0.320538
0.317935
0.315093
0.312082
0.308963
0.305798
0.302639
0.299428
0.295988
0.292694
0.291567
0.329772
0.323781
0.325401
0.331073
0.337515
0.343231
0.34756
0.350337
0.351671
0.351771
0.350863
0.349152
0.346812
0.343991
0.340805
0.337354
0.333716
0.329955
0.326125
0.322281
0.318465
0.314622
0.310597
0.306756
0.304893
0.366501
0.359712
0.36029
0.364599
0.369475
0.373569
0.376311
0.377585
0.377517
0.376321
0.374216
0.371399
0.368036
0.364263
0.360193
0.355915
0.351501
0.347008
0.342486
0.337982
0.333532
0.329081
0.324499
0.320132
0.317563
0.40176
0.394202
0.393756
0.396728
0.400075
0.402591
0.403796
0.403617
0.402197
0.399749
0.396488
0.392603
0.388252
0.383562
0.378637
0.373561
0.368398
0.3632
0.358011
0.352873
0.347815
0.342787
0.337676
0.332807
0.329562
0.435357
0.427063
0.425623
0.427296
0.429164
0.430161
0.429889
0.428316
0.4256
0.421955
0.417589
0.412683
0.407385
0.401818
0.396075
0.390235
0.384356
0.378485
0.372661
0.366919
0.361285
0.355711
0.350103
0.344758
0.340869
0.467111
0.458119
0.455722
0.456146
0.456598
0.456146
0.454469
0.451573
0.447627
0.442846
0.437431
0.431556
0.425363
0.418963
0.412446
0.405883
0.399326
0.392819
0.386394
0.380084
0.373907
0.367822
0.36175
0.355956
0.351457
0.496852
0.487204
0.483896
0.483132
0.482244
0.480423
0.477423
0.473282
0.46818
0.462332
0.455933
0.449149
0.442114
0.434934
0.427691
0.420449
0.413258
0.406154
0.399168
0.392326
0.385644
0.379085
0.372582
0.366368
0.361295
0.52442
0.514162
0.509998
0.50812
0.505976
0.502878
0.498645
0.493346
0.48717
0.480331
0.473018
0.46539
0.457574
0.449669
0.441752
0.433881
0.426102
0.418446
0.410941
0.403607
0.396459
0.389463
0.382565
0.375962
0.370354
0.549669
0.53885
0.533893
0.530982
0.52768
0.523405
0.518038
0.511675
0.504514
0.496765
0.488614
0.480212
0.47168
0.463111
0.454576
0.44613
0.437811
0.429651
0.42167
0.413889
0.406315
0.398921
0.391664
0.384704
0.378603
0.572466
0.561139
0.555458
0.551605
0.547249
0.541907
0.535513
0.528188
0.520135
0.511564
0.502655
0.493554
0.484375
0.475206
0.466114
0.457147
0.448343
0.439727
0.431319
0.423133
0.415176
0.407426
0.399846
0.392563
0.386015
0.59269
0.580911
0.574581
0.569886
0.56459
0.558297
0.55099
0.542809
0.533964
0.524663
0.515082
0.50536
0.495607
0.485906
0.476319
0.466891
0.457656
0.448637
0.439849
0.431305
0.42301
0.414945
0.407081
0.399511
0.392564
0.610234
0.598062
0.591166
0.585735
0.579618
0.572498
0.564396
0.555472
0.54594
0.536005
0.52584
0.51558
0.505329
0.495166
0.48515
0.475322
0.465714
0.456345
0.447229
0.438376
0.429787
0.42145
0.413341
0.405521
0.398226
0.625006
0.612503
0.605126
0.599073
0.592263
0.584443
0.575672
0.566121
0.55601
0.545541
0.534884
0.52417
0.5135
0.502949
0.492571
0.482407
0.472485
0.462822
0.45343
0.444316
0.435481
0.426915
0.4186
0.410571
0.402981
0.63693
0.624158
0.616392
0.609833
0.602462
0.594077
0.584764
0.574708
0.564128
0.553229
0.542175
0.531095
0.520086
0.509221
0.498552
0.488117
0.477941
0.468041
0.458426
0.449102
0.440069
0.43132
0.422839
0.414639
0.406811
0.645942
0.632967
0.624905
0.617963
0.610167
0.601354
0.591632
0.581193
0.570259
0.559034
0.54768
0.536324
0.525059
0.513957
0.503068
0.492428
0.482061
0.471981
0.462199
0.452716
0.443534
0.434646
0.426039
0.417711
0.409702
0.651995
0.638884
0.630623
0.623423
0.615341
0.60624
0.596243
0.585547
0.574376
0.562932
0.551377
0.539834
0.528398
0.517137
0.5061
0.495322
0.484827
0.474627
0.464732
0.455143
0.44586
0.436879
0.428189
0.419774
0.411644
0.655058
0.641879
0.633517
0.626187
0.617959
0.608713
0.598576
0.58775
0.576459
0.564905
0.553247
0.541611
0.530088
0.518747
0.507635
0.496788
0.486228
0.475968
0.466015
0.456373
0.447039
0.438011
0.429279
0.420821
0.412629
0.655116
0.641936
0.633572
0.626239
0.618009
0.60876
0.598621
0.587793
0.5765
0.564944
0.553285
0.541647
0.530123
0.51878
0.507668
0.496819
0.486258
0.475997
0.466044
0.456401
0.447067
0.438038
0.429305
0.420846
0.412654
0.652167
0.639054
0.630788
0.623581
0.615491
0.606383
0.596378
0.585675
0.574498
0.563049
0.551489
0.539942
0.528501
0.517237
0.506197
0.495416
0.484917
0.474715
0.464818
0.455227
0.445942
0.436959
0.428267
0.419851
0.411718
0.646228
0.633249
0.625179
0.618225
0.610416
0.601591
0.591857
0.581406
0.570463
0.559229
0.547867
0.536503
0.525232
0.514124
0.503229
0.492584
0.482212
0.472128
0.462342
0.452856
0.44367
0.434779
0.42617
0.417839
0.409826
0.63733
0.624552
0.616774
0.610199
0.60281
0.594408
0.585078
0.575006
0.564413
0.553501
0.542436
0.531345
0.520327
0.509454
0.498777
0.488335
0.478152
0.468246
0.458626
0.449297
0.44026
0.431506
0.423021
0.414818
0.406984
0.625519
0.613008
0.605616
0.599542
0.592709
0.584867
0.576075
0.566504
0.556375
0.54589
0.535219
0.524492
0.513809
0.503247
0.49286
0.482687
0.472756
0.463085
0.453686
0.444566
0.435725
0.427154
0.418834
0.4108
0.403204
0.610859
0.598677
0.591763
0.586307
0.580162
0.573014
0.564887
0.555939
0.546385
0.536431
0.526248
0.515971
0.505706
0.49553
0.485501
0.475663
0.466045
0.456666
0.447542
0.438681
0.430085
0.421741
0.413626
0.405801
0.398498
0.593425
0.581635
0.575284
0.570559
0.56523
0.558905
0.551567
0.543358
0.534488
0.525164
0.515562
0.505821
0.496051
0.486334
0.476733
0.467292
0.458046
0.449015
0.440218
0.431665
0.423361
0.415288
0.407417
0.399841
0.392884
0.57331
0.56197
0.556264
0.552378
0.547984
0.542605
0.536177
0.528819
0.520737
0.51214
0.503207
0.494084
0.484886
0.475699
0.46659
0.457609
0.448791
0.440162
0.431742
0.423546
0.415579
0.40782
0.400233
0.392943
0.386384
0.550619
0.539787
0.534802
0.531853
0.528509
0.524192
0.518786
0.512387
0.505193
0.497414
0.489236
0.48081
0.472256
0.463667
0.455114
0.44665
0.438317
0.430142
0.422149
0.414355
0.40677
0.399366
0.3921
0.385132
0.379019
0.525475
0.515201
0.511007
0.509087
0.506897
0.503753
0.499476
0.494137
0.487925
0.481053
0.47371
0.466055
0.458215
0.450287
0.44235
0.43446
0.426664
0.418993
0.411473
0.404126
0.396965
0.389958
0.383051
0.376438
0.370817
0.498008
0.488344
0.485003
0.484194
0.483255
0.481384
0.478336
0.474151
0.469009
0.463125
0.456693
0.44988
0.442818
0.435613
0.428348
0.421086
0.413876
0.406755
0.399753
0.392897
0.386201
0.37963
0.373116
0.366892
0.361805
0.468367
0.459358
0.456925
0.4573
0.457697
0.45719
0.455462
0.452518
0.448529
0.443708
0.438258
0.432352
0.426129
0.419703
0.413162
0.406576
0.399999
0.393473
0.387031
0.380705
0.374514
0.368416
0.362332
0.356527
0.352013
0.43671
0.428397
0.426919
0.428539
0.430349
0.431287
0.43096
0.429336
0.426573
0.422886
0.418482
0.413541
0.408212
0.402616
0.396848
0.390984
0.385083
0.379193
0.37335
0.367591
0.361941
0.356353
0.350732
0.345376
0.341471
0.403206
0.395628
0.395142
0.398058
0.401343
0.403797
0.404943
0.404709
0.403239
0.400747
0.397445
0.393524
0.389139
0.384419
0.379466
0.374364
0.369178
0.363959
0.35875
0.353594
0.348519
0.343476
0.338351
0.33347
0.330209
0.368038
0.361227
0.361763
0.366013
0.370824
0.374852
0.377531
0.378747
0.378628
0.377384
0.375236
0.372379
0.368981
0.365176
0.361077
0.356772
0.352333
0.347818
0.343274
0.338751
0.334283
0.329817
0.325219
0.32084
0.318253
0.331395
0.325381
0.326958
0.332569
0.338942
0.344589
0.348851
0.351568
0.352846
0.352896
0.351943
0.350191
0.347814
0.344959
0.341743
0.338263
0.334599
0.330814
0.326962
0.323098
0.319263
0.315403
0.311363
0.307508
0.305627
0.293479
0.288287
0.290914
0.297897
0.305857
0.313155
0.319038
0.323293
0.326008
0.327388
0.327663
0.327045
0.325719
0.323837
0.321527
0.318895
0.316026
0.31299
0.309848
0.306662
0.303483
0.300254
0.296798
0.29349
0.292343
0.2545
0.250149
0.253826
0.262181
0.271735
0.280703
0.288231
0.294052
0.29823
0.300967
0.302494
0.303033
0.302776
0.301885
0.300497
0.298724
0.29666
0.294384
0.291962
0.289466
0.286956
0.284377
0.281527
0.278783
0.278403
0.214672
0.211178
0.215896
0.225608
0.23675
0.247392
0.256576
0.263978
0.269637
0.273746
0.276541
0.278249
0.279071
0.279179
0.278717
0.277807
0.27655
0.275033
0.27333
0.271522
0.269683
0.267761
0.265529
0.263363
0.263781
0.174219
0.171593
0.177332
0.188372
0.201083
0.213387
0.224225
0.233212
0.240357
0.245845
0.249912
0.252792
0.254695
0.255801
0.256261
0.256205
0.255744
0.254971
0.25397
0.252833
0.251649
0.250374
0.248756
0.247166
0.248417
0.133369
0.131618
0.138348
0.150675
0.164917
0.178859
0.191335
0.201898
0.210524
0.217386
0.222722
0.226769
0.229745
0.231836
0.233203
0.233983
0.234292
0.234234
0.233899
0.233391
0.232816
0.232145
0.231102
0.230059
0.232182
0.0923541
0.0914793
0.0991626
0.112722
0.128443
0.143983
0.158068
0.170186
0.180277
0.188501
0.195092
0.200292
0.204324
0.207382
0.209632
0.211217
0.212259
0.212867
0.213141
0.213195
0.213154
0.212998
0.212425
0.211833
0.214858
0.0514071
0.0514068
0.0599966
0.0747198
0.091856
0.108938
0.124591
0.138231
0.149762
0.159325
0.16715
0.173483
0.178549
0.182548
0.18565
0.188001
0.189728
0.19094
0.191738