/*--------------------------------*- C++ -*----------------------------------*\
  =========                 |
  \\      /  F ield         | OpenFOAM: The Open Source CFD Toolbox
   \\    /   O peration     | Website:  https://openfoam.org
    \\  /    A nd           | Version:  6.0
     \\/     M anipulation  |
\*---------------------------------------------------------------------------*/
FoamFile
{
    version     2.0;
    format      ascii;
    class       surfaceScalarField;
    location    "35";
    object      phi;
}
// * * * * * * * * * * * * * * * * * * * * * * * * * * * * * * * * * * * * * //

dimensions      [0 3 -1 0 0 0 0];

internalField   nonuniform List<scalar> 
24700
(
-1.27184e-06
2.89641e-06
-1.62458e-06
-4.62747e-06
7.64113e-06
-4.2855e-06
-9.67237e-06
1.15223e-05
-6.47737e-06
-1.60612e-05
1.4666e-05
-8.27722e-06
-2.34966e-05
1.7186e-05
-9.75053e-06
-3.17275e-05
1.91863e-05
-1.09554e-05
-4.05457e-05
2.0761e-05
-1.19429e-05
-4.97826e-05
2.1994e-05
-1.2757e-05
-5.9306e-05
2.29591e-05
-1.34357e-05
-6.90166e-05
2.37214e-05
-1.40108e-05
-7.88445e-05
2.43367e-05
-1.45087e-05
-8.87469e-05
2.48533e-05
-1.49509e-05
-9.87044e-05
2.53118e-05
-1.53543e-05
-0.000108719
2.57465e-05
-1.57322e-05
-0.00011881
2.61855e-05
-1.60945e-05
-0.000129013
2.66518e-05
-1.64485e-05
-0.000139377
2.71634e-05
-1.67991e-05
-0.000149962
2.77338e-05
-1.71494e-05
-0.000160833
2.83728e-05
-1.75013e-05
-0.000172065
2.90865e-05
-1.78553e-05
-0.000183731
2.98775e-05
-1.82112e-05
-0.000195909
3.07459e-05
-1.85682e-05
-0.000208672
3.16888e-05
-1.8925e-05
-0.000222094
3.27012e-05
-1.92794e-05
3.37782e-05
-1.96286e-05
-0.000236244
-1.2571e-06
4.15351e-06
-4.5753e-06
1.09593e-05
-9.56446e-06
1.65114e-05
-1.58821e-05
2.09836e-05
-2.32329e-05
2.45368e-05
-3.13668e-05
2.73202e-05
-4.00758e-05
2.94701e-05
-4.91912e-05
3.11094e-05
-5.858e-05
3.2348e-05
-6.81417e-05
3.32831e-05
-7.78053e-05
3.40003e-05
-8.75261e-05
3.4574e-05
-9.72831e-05
3.50688e-05
-0.000107076
3.55397e-05
-0.000116924
3.60335e-05
-0.000126861
3.65888e-05
-0.000136935
3.72372e-05
-0.000147204
3.8003e-05
-0.000157736
3.89043e-05
-0.000168603
3.99532e-05
-0.000179881
4.1156e-05
-0.000191649
4.25138e-05
-0.000203983
4.40226e-05
-0.000216957
4.56749e-05
4.74638e-05
-0.000230642
-1.24219e-06
5.3957e-06
-4.52121e-06
1.42384e-05
-9.44998e-06
2.14402e-05
-1.56877e-05
2.72214e-05
-2.29399e-05
3.1789e-05
-3.09562e-05
3.53365e-05
-3.9528e-05
3.80418e-05
-4.84849e-05
4.00663e-05
-5.76919e-05
4.15549e-05
-6.70458e-05
4.26371e-05
-7.64727e-05
4.34271e-05
-8.59246e-05
4.40259e-05
-9.53772e-05
4.45214e-05
-0.000104827
4.499e-05
-0.000114291
4.54969e-05
-0.0001238
4.60975e-05
-0.000133399
4.68371e-05
-0.000143149
4.7752e-05
-0.000153114
4.88695e-05
-0.000163369
5.02086e-05
-0.000173993
5.17802e-05
-0.000185067
5.35872e-05
-0.00019667
5.56255e-05
-0.00020888
5.78855e-05
6.03587e-05
-0.000221775
-1.22753e-06
6.62323e-06
-4.46652e-06
1.74774e-05
-9.33149e-06
2.63052e-05
-1.54821e-05
3.3372e-05
-2.26235e-05
3.89303e-05
-3.05041e-05
4.32171e-05
-3.89134e-05
4.64511e-05
-4.76783e-05
4.88312e-05
-5.66604e-05
5.05371e-05
-6.57526e-05
5.17292e-05
-7.48762e-05
5.25507e-05
-8.39784e-05
5.31282e-05
-9.30301e-05
5.35731e-05
-0.000102023
5.39831e-05
-0.000110969
5.44429e-05
-0.000119896
5.50246e-05
-0.000128848
5.57888e-05
-0.000137881
5.67848e-05
-0.000147062
5.80507e-05
-0.000156467
5.96137e-05
-0.000166178
6.14908e-05
-0.000176279
6.36885e-05
-0.000186857
6.62032e-05
-0.000197996
6.90245e-05
7.21425e-05
-0.000209779
-1.2136e-06
7.83683e-06
-4.41267e-06
2.06764e-05
-9.21173e-06
3.11042e-05
-1.52697e-05
3.943e-05
-2.22901e-05
4.59508e-05
-3.00196e-05
5.09465e-05
-3.82445e-05
5.4676e-05
-4.67883e-05
5.7375e-05
-5.55078e-05
5.92566e-05
-6.42907e-05
6.05121e-05
-7.30522e-05
6.13122e-05
-8.17331e-05
6.1809e-05
-9.02974e-05
6.21374e-05
-9.87307e-05
6.24164e-05
-0.000107038
6.27503e-05
-0.000115243
6.32294e-05
-0.000123385
6.39308e-05
-0.000131518
6.49182e-05
-0.00013971
6.62424e-05
-0.000148037
6.79412e-05
-0.000156586
7.00396e-05
-0.000165448
7.25497e-05
-0.000174715
7.54706e-05
-0.000184483
7.87922e-05
8.25041e-05
-0.000194844
-1.20085e-06
9.03768e-06
-4.36098e-06
2.38366e-05
-9.09317e-06
3.58364e-05
-1.50543e-05
4.53911e-05
-2.19457e-05
5.28422e-05
-2.95111e-05
5.85119e-05
-3.75333e-05
6.26982e-05
-4.58313e-05
6.5673e-05
-5.42566e-05
6.76819e-05
-6.26901e-05
6.89456e-05
-7.10399e-05
6.9662e-05
-7.92386e-05
7.00077e-05
-8.72417e-05
7.01406e-05
-9.50263e-05
7.0201e-05
-0.00010259
7.03136e-05
-0.000109948
7.05876e-05
-0.000117135
7.11181e-05
-0.000124202
7.19853e-05
-0.000131215
7.32553e-05
-0.000138253
7.4979e-05
-0.000145406
7.71925e-05
-0.000152772
7.99162e-05
-0.000160456
8.31546e-05
-0.000168564
8.69003e-05
9.11438e-05
-0.000177204
-1.18964e-06
1.02273e-05
-4.3124e-06
2.69593e-05
-8.97749e-06
4.05015e-05
-1.48387e-05
5.12523e-05
-2.15942e-05
5.95977e-05
-2.89846e-05
6.59022e-05
-3.67887e-05
7.05023e-05
-4.48206e-05
7.37049e-05
-5.29256e-05
7.57869e-05
-6.09774e-05
7.69975e-05
-6.88754e-05
7.756e-05
-7.65429e-05
7.76751e-05
-8.3925e-05
7.75226e-05
-9.09882e-05
7.72643e-05
-9.77195e-05
7.70449e-05
-0.000104126
7.6994e-05
-0.000110234
7.72258e-05
-0.000116088
7.78398e-05
-0.000121753
7.89198e-05
-0.000127307
8.05338e-05
-0.000132848
8.27326e-05
-0.00013848
8.55489e-05
-0.000144322
8.89965e-05
-0.000150496
9.30739e-05
9.7775e-05
-0.000157127
-1.18015e-06
1.14075e-05
-4.26723e-06
3.00464e-05
-8.865e-06
4.50993e-05
-1.46231e-05
5.70104e-05
-2.12363e-05
6.62109e-05
-2.84415e-05
7.31074e-05
-3.60138e-05
7.80746e-05
-4.37621e-05
8.14532e-05
-5.15254e-05
8.35502e-05
-5.91697e-05
8.46417e-05
-6.6585e-05
8.49754e-05
-7.36837e-05
8.47738e-05
-8.03993e-05
8.42382e-05
-8.66855e-05
8.35505e-05
-9.25166e-05
8.2876e-05
-9.78874e-05
8.23648e-05
-0.000102814
8.21521e-05
-0.000107333
8.23588e-05
-0.000111503
8.30901e-05
-0.000115404
8.44349e-05
-0.000119136
8.6464e-05
-0.000122814
8.92276e-05
-0.000126572
9.2754e-05
-0.000130551
9.70529e-05
0.000102125
-0.000134901
-1.17227e-06
1.25797e-05
-4.22483e-06
3.3099e-05
-8.75409e-06
4.96285e-05
-1.44047e-05
6.2661e-05
-2.08676e-05
7.26739e-05
-2.78766e-05
8.01164e-05
-3.52028e-05
8.54009e-05
-4.26506e-05
8.8901e-05
-5.00531e-05
9.09526e-05
-5.72682e-05
9.18569e-05
-6.41764e-05
9.18836e-05
-7.06786e-05
9.1276e-05
-7.66949e-05
9.02545e-05
-8.21647e-05
8.90202e-05
-8.70468e-05
8.77581e-05
-9.13208e-05
8.66388e-05
-9.49886e-05
8.58199e-05
-9.80756e-05
8.54457e-05
-0.000100632
8.56467e-05
-0.000102735
8.65375e-05
-0.000104485
8.82147e-05
-0.000106011
9.07532e-05
-0.00010746
9.42033e-05
-0.000109001
9.85932e-05
0.000103938
-0.000110813
-1.16558e-06
1.37453e-05
-4.18341e-06
3.61168e-05
-8.64071e-06
5.40858e-05
-1.41764e-05
6.81967e-05
-2.04778e-05
7.89754e-05
-2.72756e-05
8.69142e-05
-3.43381e-05
9.24633e-05
-4.14658e-05
9.60286e-05
-4.84863e-05
9.79732e-05
-5.52507e-05
9.86213e-05
-6.163e-05
9.82629e-05
-6.75134e-05
9.71593e-05
-7.28068e-05
9.55479e-05
-7.74336e-05
9.3647e-05
-8.1335e-05
9.16595e-05
-8.44723e-05
8.97761e-05
-8.6829e-05
8.81767e-05
-8.84145e-05
8.70312e-05
-8.92665e-05
8.64986e-05
-8.94539e-05
8.67248e-05
-8.90787e-05
8.78395e-05
-8.82763e-05
8.99509e-05
-8.7214e-05
9.3141e-05
-8.60882e-05
9.74675e-05
0.000102968
-8.5119e-05
-1.15927e-06
1.49046e-05
-4.13982e-06
3.90973e-05
-8.51802e-06
5.8464e-05
-1.39265e-05
7.36052e-05
-2.0049e-05
8.50978e-05
-2.66139e-05
9.34791e-05
-3.33875e-05
9.92369e-05
-4.01676e-05
0.000102809
-4.67782e-05
0.000104584
-5.30643e-05
0.000104907
-5.88887e-05
0.000104087
-6.41294e-05
0.0001024
-6.86786e-05
0.000100097
-7.24425e-05
9.7411e-05
-7.5343e-05
9.456e-05
-7.73198e-05
9.17529e-05
-7.83345e-05
8.91914e-05
-7.83748e-05
8.70715e-05
-7.74598e-05
8.55836e-05
-7.56452e-05
8.49103e-05
-7.30278e-05
8.52221e-05
-6.97483e-05
8.66714e-05
-6.59926e-05
8.93853e-05
-6.19905e-05
9.34653e-05
9.89883e-05
-5.80105e-05
-1.15212e-06
1.60567e-05
-4.08956e-06
4.20348e-05
-8.37629e-06
6.27508e-05
-1.36381e-05
7.8867e-05
-1.95553e-05
9.1015e-05
-2.58547e-05
9.97785e-05
-3.2302e-05
0.000105684
-3.86939e-05
0.000109201
-4.48523e-05
0.000110742
-5.06183e-05
0.000110673
-5.58484e-05
0.000109317
-6.04113e-05
0.000106963
-6.41863e-05
0.000103872
-6.70632e-05
0.000100288
-6.89435e-05
9.64403e-05
-6.97435e-05
9.25529e-05
-6.93986e-05
8.88465e-05
-6.78698e-05
8.55426e-05
-6.51506e-05
8.28644e-05
-6.12756e-05
8.10353e-05
-5.63288e-05
8.02753e-05
-5.04505e-05
8.07931e-05
-4.38424e-05
8.27773e-05
-3.67706e-05
8.63936e-05
9.17802e-05
-2.95625e-05
-1.14256e-06
1.71993e-05
-4.02686e-06
4.49191e-05
-8.20297e-06
6.69269e-05
-1.32893e-05
8.39533e-05
-1.89628e-05
9.66885e-05
-2.49495e-05
0.000105765
-3.10154e-05
0.00011175
-3.69582e-05
0.000115143
-4.25995e-05
0.000116384
-4.77794e-05
0.000115853
-5.23506e-05
0.000113889
-5.61753e-05
0.000110788
-5.91228e-05
0.00010682
-6.10682e-05
0.000102233
-6.18939e-05
9.72661e-05
-6.1492e-05
9.2151e-05
-5.97695e-05
8.71239e-05
-5.66553e-05
8.24285e-05
-5.21104e-05
7.83195e-05
-4.6139e-05
7.50639e-05
-3.88018e-05
7.29381e-05
-3.02292e-05
7.22205e-05
-2.06325e-05
7.31806e-05
-1.03142e-05
7.60752e-05
8.11363e-05
3.29654e-07
-1.12875e-06
1.8328e-05
-3.94491e-06
4.77352e-05
-7.98324e-06
7.09652e-05
-1.28539e-05
8.8824e-05
-1.82304e-05
0.000102065
-2.38381e-05
0.000111373
-2.94446e-05
0.000117357
-3.48496e-05
0.000120548
-3.98772e-05
0.000121411
-4.43688e-05
0.000120345
-4.81769e-05
0.000117697
-5.11613e-05
0.000113772
-5.31848e-05
0.000108843
-5.41124e-05
0.000103161
-5.38104e-05
9.69641e-05
-5.2149e-05
9.04896e-05
-4.90065e-05
8.39814e-05
-4.42773e-05
7.76993e-05
-3.78832e-05
7.19254e-05
-2.97883e-05
6.69689e-05
-2.00173e-05
6.31671e-05
-8.67675e-06
6.08799e-05
4.0241e-06
6.04797e-05
1.77515e-05
6.23478e-05
6.68559e-05
3.2032e-05
-1.10868e-06
1.94367e-05
-3.83629e-06
5.04629e-05
-7.70068e-06
7.48296e-05
-1.23026e-05
9.34259e-05
-1.73112e-05
0.000107073
-2.24511e-05
0.000116513
-2.74916e-05
0.000122397
-3.22356e-05
0.000125293
-3.65112e-05
0.000125687
-4.01638e-05
0.000123997
-4.30493e-05
0.000120582
-4.50293e-05
0.000115752
-4.59661e-05
0.00010978
-4.572e-05
0.000102915
-4.4148e-05
9.5392e-05
-4.11035e-05
8.74451e-05
-3.64404e-05
7.93184e-05
-3.00196e-05
7.12785e-05
-2.17207e-05
6.36264e-05
-1.1459e-05
5.67073e-05
7.90162e-07
5.0918e-05
1.49621e-05
4.6708e-05
3.08682e-05
4.45737e-05
4.81561e-05
4.50599e-05
4.87397e-05
6.62722e-05
-1.08039e-06
2.05171e-05
-3.69349e-06
5.3076e-05
-7.33835e-06
7.84744e-05
-1.16045e-05
9.76921e-05
-1.6155e-05
0.000111624
-2.07128e-05
0.000121071
-2.5048e-05
0.000126732
-2.89667e-05
0.000129211
-3.23016e-05
0.000129022
-3.49038e-05
0.000126599
-3.66357e-05
0.000122314
-3.73651e-05
0.000116481
-3.69599e-05
0.000109375
-3.52835e-05
0.000101238
-3.2192e-05
9.23005e-05
-2.75324e-05
8.27855e-05
-2.11432e-05
7.29292e-05
-1.28593e-05
6.29946e-05
-2.52088e-06
5.3288e-05
1.00083e-05
4.41781e-05
2.48141e-05
3.61121e-05
4.18937e-05
2.96284e-05
6.1105e-05
2.53624e-05
8.21014e-05
2.40634e-05
2.65843e-05
0.000104257
-1.04211e-06
2.15592e-05
-3.50946e-06
5.55433e-05
-6.87986e-06
8.18448e-05
-1.07289e-05
0.000101541
-1.47113e-05
0.000115606
-1.85454e-05
0.000124905
-2.20003e-05
0.000130187
-2.48836e-05
0.000132094
-2.70316e-05
0.00013117
-2.83015e-05
0.000127869
-2.85635e-05
0.000122576
-2.76948e-05
0.000115613
-2.55742e-05
0.000107254
-2.20767e-05
9.77409e-05
-1.70684e-05
8.72922e-05
-1.04033e-05
7.61204e-05
-1.92006e-06
6.4446e-05
8.55731e-06
5.25172e-05
2.12144e-05
4.0631e-05
3.62324e-05
2.916e-05
5.37623e-05
1.85823e-05
7.38801e-05
9.51054e-06
9.65219e-05
2.72066e-06
0.000121386
-8.00329e-07
1.71543e-07
0.000147798
-9.92444e-07
2.25516e-05
-3.27814e-06
5.7829e-05
-6.31045e-06
8.48772e-05
-9.64746e-06
0.000104878
-1.29315e-05
0.00011889
-1.5873e-05
0.000127846
-1.8236e-05
0.00013255
-1.9826e-05
0.000133684
-2.04802e-05
0.000131824
-2.00591e-05
0.000127448
-1.84396e-05
0.000120957
-1.55094e-05
0.000112683
-1.11615e-05
0.000102906
-5.28878e-06
9.18682e-05
2.22116e-06
7.97823e-05
1.1492e-05
6.68495e-05
2.26643e-05
5.32738e-05
3.59001e-05
3.92813e-05
5.13851e-05
2.5146e-05
6.93228e-05
1.12223e-05
8.99162e-05
-2.01104e-06
0.000113326
-1.3899e-05
0.000139596
-2.35492e-05
0.000168522
-2.97272e-05
-3.07473e-05
0.000199441
-9.30465e-07
2.34821e-05
-2.9948e-06
5.98933e-05
-5.61772e-06
8.75001e-05
-8.3351e-06
0.000107596
-1.07721e-05
0.000121327
-1.26257e-05
0.0001297
-1.36497e-05
0.000133574
-1.36418e-05
0.000133677
-1.24344e-05
0.000130616
-9.8859e-06
0.0001249
-5.87565e-06
0.000116946
-2.98577e-07
0.000107105
6.93885e-06
9.56687e-05
1.59227e-05
8.28843e-05
2.67365e-05
6.89685e-05
3.94669e-05
5.41192e-05
5.4211e-05
3.85297e-05
7.10858e-05
2.24065e-05
9.02374e-05
5.99435e-06
0.000111848
-1.03885e-05
0.000136134
-2.62967e-05
0.000163318
-4.10831e-05
0.000193566
-5.37973e-05
0.000226836
-6.29966e-05
-6.64782e-05
0.000262566
-8.55738e-07
2.43379e-05
-2.65611e-06
6.16937e-05
-4.79185e-06
8.96358e-05
-6.77092e-06
0.000109575
-8.19525e-06
0.000122752
-8.74198e-06
0.000130247
-8.14742e-06
0.000132979
-6.19409e-06
0.000131723
-2.70102e-06
0.000127123
2.48335e-06
0.000119715
9.48595e-06
0.000109944
1.84123e-05
9.81791e-05
2.93487e-05
8.47324e-05
4.23638e-05
6.98691e-05
5.7511e-05
5.38214e-05
7.48316e-05
3.67986e-05
9.43612e-05
1.9e-05
0.00011614
6.28143e-07
0.000140225
-1.80914e-05
0.000166715
-3.68785e-05
0.000195764
-5.53452e-05
0.00022759
-7.29095e-05
0.000262451
-8.8658e-05
0.000300512
-0.000101058
-0.000107427
0.000341461
-7.68218e-07
2.51061e-05
-2.25985e-06
6.31854e-05
-3.82512e-06
9.12011e-05
-4.93753e-06
0.000110687
-5.16885e-06
0.000122983
-4.16885e-06
0.000129247
-1.64809e-06
0.000130459
2.63541e-06
0.00012744
8.88585e-06
0.000120873
1.7276e-05
0.000111325
2.79508e-05
9.9269e-05
4.10287e-05
8.51012e-05
5.66011e-05
6.916e-05
7.47307e-05
5.17395e-05
9.54498e-05
3.31023e-05
0.000118758
1.34903e-05
0.000144624
-6.86592e-06
0.000172989
-2.77369e-05
0.000203781
-4.88829e-05
0.000236936
-7.00338e-05
0.000272441
-9.085e-05
0.000310379
-0.000110848
0.000350981
-0.00012926
0.000394604
-0.000144681
-0.000154152
0.000441329
-6.68023e-07
2.57741e-05
-1.80421e-06
6.43215e-05
-2.71067e-06
9.21075e-05
-2.8192e-06
0.000110796
-1.66397e-06
0.000121828
1.14076e-06
0.000126442
5.91909e-06
0.00012568
1.29475e-05
0.000120411
2.24646e-05
0.000111356
3.46768e-05
9.9113e-05
4.97611e-05
8.41847e-05
6.78644e-05
6.69979e-05
8.91007e-05
4.79237e-05
0.000113546
2.72941e-05
0.000141232
5.41648e-06
0.000172136
-1.74142e-05
0.000206176
-4.09057e-05
0.0002432
-6.47607e-05
0.000282987
-8.867e-05
0.00032526
-0.000112306
0.000369719
-0.000135309
0.000416121
-0.000157249
0.00046441
-0.00017755
0.000514917
-0.000195188
-0.000207472
0.000568237
-5.55093e-07
2.63292e-05
-1.28678e-06
6.50532e-05
-1.4406e-06
9.22614e-05
-3.99045e-07
0.000109754
2.34904e-06
0.00011908
7.23304e-06
0.000121558
1.46206e-05
0.000118293
2.48325e-05
0.0001102
3.81525e-05
9.80359e-05
5.4833e-05
8.24325e-05
7.50966e-05
6.39211e-05
9.9135e-05
4.29595e-05
0.000127104
1.99544e-05
0.000159117
-4.71914e-06
0.000195234
-3.07003e-05
0.000235447
-5.76268e-05
0.000279662
-8.51212e-05
0.000327681
-0.000112779
0.00037917
-0.000140159
0.000433642
-0.000166779
0.00049045
-0.000192118
0.000548824
-0.000215623
0.000608021
-0.000236746
0.000667747
-0.000254915
-0.000269139
0.000729415
-4.28804e-07
2.6758e-05
-7.03392e-07
6.53278e-05
-3.75292e-09
9.15617e-05
2.34461e-06
0.000107406
6.90565e-06
0.000114519
1.41601e-05
0.000114303
2.45273e-05
0.000107926
3.83806e-05
9.63462e-05
5.6058e-05
8.03585e-05
7.78672e-05
6.06233e-05
0.000104087
3.7701e-05
0.000134967
1.20797e-05
0.000170721
-1.57993e-05
0.00021152
-4.55189e-05
0.000257486
-7.66659e-05
0.00030867
-0.000108811
0.000365039
-0.00014149
0.000426437
-0.000174178
0.000492548
-0.000206269
0.000562814
-0.000237046
0.000636353
-0.000265656
0.000711842
-0.000291112
0.000787456
-0.000312361
0.000861263
-0.000328721
-0.000343436
0.00093556
-2.87573e-07
2.70456e-05
-4.6925e-08
6.50872e-05
1.61652e-06
8.98983e-05
5.44167e-06
0.00010358
1.20522e-05
0.000107908
2.1987e-05
0.000104369
3.57233e-05
9.41893e-05
5.36933e-05
7.83762e-05
7.62942e-05
5.77575e-05
0.000103893
3.30241e-05
0.00013683
4.76439e-06
0.000175414
-2.65039e-05
0.000219922
-6.03072e-05
0.000270595
-9.61919e-05
0.000327633
-0.000133704
0.000391191
-0.000172369
0.000461371
-0.000211669
0.000538213
-0.000251019
0.000621672
-0.000289728
0.00071157
-0.000326944
0.000807485
-0.000361571
0.000908507
-0.000392135
0.00101255
-0.000416399
0.00111446
-0.00043064
-0.000430606
0.00120164
-1.2906e-07
2.71746e-05
6.92728e-07
6.42654e-05
3.44303e-06
8.7148e-05
8.93186e-06
9.80916e-05
1.78486e-05
9.89914e-05
3.07954e-05
9.14219e-05
4.83118e-05
7.6673e-05
7.08908e-05
5.57972e-05
9.89886e-05
2.96597e-05
0.000133029
-1.01626e-06
0.000173404
-3.56102e-05
0.000220471
-7.35716e-05
0.000274556
-0.000114392
0.000335949
-0.000157584
0.000404908
-0.000202663
0.000481673
-0.000249134
0.000566481
-0.000296478
0.00065961
-0.000344148
0.000761443
-0.000391561
0.000872591
-0.000438092
0.000994108
-0.000483089
0.00112785
-0.000525872
0.00127728
-0.000565836
0.00144999
-0.000603352
-0.000643709
0.0016631
5.1788e-08
2.71228e-05
1.53215e-06
6.2785e-05
5.50913e-06
8.3171e-05
1.28696e-05
9.07312e-05
2.43733e-05
8.74876e-05
4.06889e-05
7.51063e-05
6.24191e-05
5.49429e-05
9.01153e-05
2.81009e-05
0.000124286
-4.51095e-06
0.000165398
-4.21281e-05
0.000213875
-8.40873e-05
0.000270095
-0.000129792
0.000334389
-0.000178686
0.00040704
-0.000230235
0.000488288
-0.000283912
0.000578348
-0.000339194
0.00067743
-0.00039556
0.000785785
-0.000452503
0.000903767
-0.000509543
0.00103194
-0.000566262
0.0011712
-0.00062235
0.001323
-0.000677668
0.00148951
-0.000732353
0.00167327
-0.000787106
-0.000841756
0.00187131
2.6001e-07
2.68628e-05
2.48952e-06
6.05555e-05
7.85242e-06
7.78081e-05
1.73166e-05
8.12671e-05
3.17149e-05
7.30893e-05
5.17832e-05
5.5038e-05
7.81839e-05
2.85422e-05
0.000111519
-5.23412e-06
0.000152334
-4.53258e-05
0.000201115
-9.09095e-05
0.000258286
-0.000141258
0.000324198
-0.000195704
0.000399128
-0.000253617
0.000483276
-0.000314383
0.000576767
-0.000377403
0.000679662
-0.000442089
0.000791977
-0.000507875
0.000913709
-0.000574235
0.00104487
-0.000640704
0.00118553
-0.00070692
0.00133584
-0.000772663
0.00149607
-0.000837894
0.00166647
-0.000902754
0.00184673
-0.000967369
-0.00102872
0.0020337
5.02192e-07
2.63606e-05
3.58682e-06
5.74709e-05
1.05166e-05
7.08783e-05
2.23424e-05
6.94413e-05
3.99706e-05
5.54611e-05
6.42006e-05
3.08079e-05
9.57468e-05
-3.00395e-06
0.000135246
-4.47335e-05
0.000183257
-9.3337e-05
0.000240253
-0.000147905
0.000306609
-0.000207614
0.000382594
-0.000271689
0.000468361
-0.000339383
0.000563941
-0.000409963
0.000669248
-0.00048271
0.000784083
-0.000556924
0.000908148
-0.00063194
0.00104106
-0.000707149
0.00118238
-0.000782021
0.0013316
-0.000856138
0.00148815
-0.000929216
0.00165138
-0.00100112
0.00182044
-0.00107182
0.00199411
-0.00114103
-0.00120477
0.00217015
7.85532e-07
2.55751e-05
4.84753e-06
5.34089e-05
1.35474e-05
6.21785e-05
2.80179e-05
5.49707e-05
4.92356e-05
3.42435e-05
7.80556e-05
1.98782e-06
0.000115229
-4.01774e-05
0.000161405
-9.09089e-05
0.00021712
-0.000149052
0.000282788
-0.000213573
0.000358681
-0.000283507
0.000444917
-0.000357925
0.000541446
-0.000435913
0.000648052
-0.000516569
0.000764351
-0.000599009
0.000889805
-0.000682377
0.00102373
-0.000765868
0.00116533
-0.000848749
0.0013137
-0.000930386
0.00146782
-0.00101026
0.0016266
-0.00108799
0.00178881
-0.00116333
0.00195308
-0.0012361
0.00211791
-0.00130586
-0.00136864
0.00228178
1.1173e-06
2.44578e-05
6.29484e-06
4.82314e-05
1.69885e-05
5.14848e-05
3.44084e-05
3.75507e-05
5.95928e-05
9.05908e-06
9.34384e-05
-3.18578e-05
0.00013671
-8.34489e-05
0.000190034
-0.000144233
0.000253881
-0.0002129
0.000328549
-0.000288241
0.000414139
-0.000369097
0.000510542
-0.000454327
0.000617431
-0.000542802
0.000734266
-0.000633404
0.000860301
-0.000725045
0.000994611
-0.000816687
0.00113611
-0.000907369
0.0012836
-0.000996235
0.00143576
-0.00108255
0.00159123
-0.00116573
0.00174857
-0.00124533
0.00190629
-0.00132105
0.00206288
-0.00139268
0.00221686
-0.00145983
-0.00151909
0.0023673
1.50431e-06
2.29535e-05
7.94972e-06
4.17859e-05
2.08778e-05
3.85568e-05
4.15666e-05
1.68619e-05
7.11016e-05
-2.0476e-05
0.000110399
-7.11549e-05
0.000160203
-0.000133254
0.000221075
-0.000205104
0.000293361
-0.000285186
0.000377174
-0.000372055
0.000472371
-0.000464294
0.000578541
-0.000560497
0.000695007
-0.000659268
0.000820846
-0.000759243
0.000954914
-0.000859113
0.00109589
-0.000957659
0.0012423
-0.00105379
0.00139262
-0.00114655
0.00154524
-0.00123518
0.00169859
-0.00131908
0.00185109
-0.00139784
0.00200126
-0.00147122
0.00214766
-0.00153909
0.00228905
-0.00160123
-0.00165501
0.00242497
1.95241e-06
2.10011e-05
9.82924e-06
3.39091e-05
2.52438e-05
2.31422e-05
4.95263e-05
-7.42064e-06
8.3788e-05
-5.47376e-05
0.000128932
-0.000116299
0.00018564
-0.000189962
0.000254348
-0.000273812
0.000335212
-0.00036605
0.000428085
-0.000464928
0.000532502
-0.00056871
0.000647677
-0.000675672
0.000772529
-0.000784121
0.000905717
-0.000892432
0.0010457
-0.00099909
0.00119077
-0.00110273
0.00133918
-0.00120219
0.00148914
-0.00129651
0.00163893
-0.00138496
0.00178691
-0.00146706
0.0019316
-0.00154252
0.00207165
-0.00161127
0.00220594
-0.00167337
0.00233357
-0.00172885
-0.00177592
0.00245448
2.46613e-06
1.8535e-05
1.19452e-05
2.443e-05
3.01023e-05
4.98512e-06
5.82975e-05
-3.56158e-05
9.76365e-05
-9.40767e-05
0.000148967
-0.00016763
0.000212853
-0.000253848
0.000289538
-0.000350496
0.00037891
-0.000455422
0.000480484
-0.000566502
0.000593398
-0.000681624
0.000716439
-0.000798712
0.000848086
-0.000915768
0.000986583
-0.00103093
0.00113002
-0.00114252
0.0012764
-0.00124912
0.00142378
-0.00134957
0.00157028
-0.00144301
0.00171419
-0.00152887
0.00185401
-0.00160688
0.00198847
-0.00167699
0.00211656
-0.00173936
0.00223752
-0.00179433
0.00235088
-0.00184222
-0.00188199
0.00245696
3.04844e-06
1.54865e-05
1.43033e-05
1.31752e-05
3.54548e-05
-1.61664e-05
6.78621e-05
-6.80231e-05
0.000112585
-0.0001388
0.000170364
-0.000225408
0.000241574
-0.000325058
0.000326192
-0.000435114
0.000423757
-0.000552988
0.000533371
-0.000676116
0.000653718
-0.000801971
0.00078312
-0.000928115
0.000919623
-0.00105227
0.00106109
-0.0011724
0.00120533
-0.00128676
0.00135017
-0.00139396
0.0014936
-0.001493
0.00163382
-0.00158322
0.00176928
-0.00166434
0.00189875
-0.00173636
0.00202133
-0.00179956
0.00213637
-0.00185441
0.00224357
-0.00190153
0.00234288
-0.00194152
-0.00197402
0.0024349
3.70067e-06
1.17858e-05
1.69023e-05
-2.63838e-08
4.12867e-05
-4.05508e-05
7.81725e-05
-0.000104909
0.000128523
-0.000189151
0.000192904
-0.000289789
0.000271431
-0.000403585
0.000363726
-0.000527409
0.000468904
-0.000658166
0.00058559
-0.000792802
0.000711976
-0.000928358
0.000845925
-0.00106206
0.000985085
-0.00119143
0.00112703
-0.00131434
0.00126939
-0.00142912
0.00140998
-0.00153455
0.00154686
-0.00162988
0.00167845
-0.00171481
0.00180351
-0.0017894
0.0019212
-0.00185404
0.002031
-0.00190935
0.00213271
-0.00195613
0.00222643
-0.00199525
0.00231247
-0.00202756
-0.00205325
0.00239169
4.42241e-06
7.36344e-06
1.97341e-05
-1.53381e-05
4.75669e-05
-6.83836e-05
8.91503e-05
-0.000146492
0.000145289
-0.000245289
0.0002163
-0.0003608
0.000301955
-0.000489239
0.000401442
-0.000626897
0.000513382
-0.000770106
0.000635879
-0.000915299
0.000766635
-0.00105911
0.000903086
-0.00119851
0.00104257
-0.00133092
0.00118249
-0.00145426
0.00132045
-0.00156708
0.00145438
-0.00166848
0.00158259
-0.00175809
0.00170382
-0.00183605
0.00181726
-0.00190284
0.00192246
-0.00195924
0.00201934
-0.00200623
0.0021081
-0.00204489
0.00218917
-0.00207632
0.00226316
-0.00210156
-0.00212116
0.00233108
5.21156e-06
2.15188e-06
2.27834e-05
-3.29099e-05
5.4248e-05
-9.98482e-05
0.000100687
-0.000192931
0.000162674
-0.000307277
0.000240198
-0.000438323
0.000332597
-0.000581639
0.000438556
-0.000732855
0.000556148
-0.000887697
0.000682948
-0.0010421
0.000816197
-0.00119236
0.000952991
-0.00133531
0.00109047
-0.0014684
0.00122602
-0.00158981
0.00135737
-0.00169843
0.0014827
-0.00179381
0.0016007
-0.00187609
0.00171052
-0.00194587
0.00181178
-0.0020041
0.00190448
-0.00205193
0.0019889
-0.00209066
0.00206558
-0.00212157
0.00213521
-0.00214595
0.00219859
-0.00216493
-0.00217934
0.00225676
6.06428e-06
-3.9124e-06
2.6028e-05
-5.28736e-05
6.12658e-05
-0.000135086
0.000112644
-0.000244309
0.000180426
-0.000375059
0.000264183
-0.00052208
0.000362746
-0.000680202
0.00047423
-0.000844339
0.000596141
-0.00100961
0.000725549
-0.00117151
0.000859309
-0.00132612
0.00099429
-0.00147029
0.00112759
-0.0016017
0.00125672
-0.00171893
0.00137967
-0.00182138
0.00149502
-0.00190916
0.00160187
-0.00198295
0.00169986
-0.00204386
0.00178902
-0.00209325
0.00186972
-0.00213264
0.00194258
-0.00216352
0.00200837
-0.00218736
0.00206794
-0.00220551
0.00212216
-0.00221916
-0.00222925
0.00217207
6.97498e-06
-1.08874e-05
2.94382e-05
-7.53368e-05
6.85405e-05
-0.000174188
0.000124856
-0.000300624
0.000198253
-0.000448456
0.000287801
-0.000611628
0.00039175
-0.000784151
0.000507612
-0.000960202
0.000632338
-0.00113433
0.000762554
-0.00130172
0.000894839
-0.00145841
0.00102598
-0.00160143
0.00115319
-0.00172891
0.00127423
-0.00183998
0.00138751
-0.00193466
0.00149204
-0.00201369
0.00158741
-0.00207831
0.00167368
-0.00213012
0.00175127
-0.00217085
0.00182087
-0.00220224
0.00188332
-0.00222597
0.00193953
-0.00224357
0.00199041
-0.0022564
0.00203687
-0.00226561
-0.00227223
0.00207984
7.93624e-06
-1.88236e-05
3.29776e-05
-0.000100378
7.59773e-05
-0.000217188
0.000137134
-0.000361781
0.000215834
-0.000527156
0.000310565
-0.000706359
0.000418947
-0.000892533
0.000537883
-0.00107914
0.000663812
-0.00126026
0.000793019
-0.00143093
0.000921947
-0.00158733
0.00104745
-0.00172694
0.00116701
-0.00184846
0.00127877
-0.00195174
0.00138159
-0.00203749
0.001475
-0.00210709
0.00155901
-0.00216233
0.0016341
-0.00220521
0.00170099
-0.00223774
0.00176058
-0.00226183
0.00181386
-0.00227924
0.00186178
-0.00229149
0.00190527
-0.00229988
0.00194517
-0.00230552
-0.00230937
0.00198232
8.93879e-06
-2.77624e-05
3.66031e-05
-0.000128042
8.34679e-05
-0.000264053
0.00014927
-0.000427582
0.000232827
-0.000610713
0.000331981
-0.000805514
0.000443696
-0.00100425
0.00056429
-0.00119973
0.00068978
-0.00138575
0.000816236
-0.00155739
0.000940115
-0.00171121
0.0010585
-0.00184533
0.00116924
-0.0019592
0.00127097
-0.00205346
0.00136304
-0.00212956
0.00144544
-0.00218949
0.00151861
-0.0022355
0.00158332
-0.00226993
0.00164054
-0.00229495
0.00169129
-0.00231258
0.0017366
-0.00232455
0.00177744
-0.00233233
0.00181465
-0.0023371
0.00184902
-0.00233988
-0.00234158
0.00188123
9.97151e-06
-3.77339e-05
4.02652e-05
-0.000158336
9.08929e-05
-0.000314681
0.000161041
-0.000497731
0.000248883
-0.000698555
0.000351567
-0.000908198
0.000465404
-0.00111808
0.000586195
-0.00132052
0.000709643
-0.0015092
0.000831756
-0.0016795
0.000949159
-0.00182862
0.00105929
-0.00195546
0.00116046
-0.00206037
0.00125182
-0.00214482
0.00133323
-0.00221096
0.00140508
-0.00226134
0.00146816
-0.00229858
0.00152346
-0.00232523
0.00157209
-0.00234358
0.00161513
-0.00235562
0.00165358
-0.00236301
0.00168836
-0.0023671
0.00172024
-0.00236899
0.00174989
-0.00236953
-0.00236955
0.00177786
1.10215e-05
-4.87554e-05
4.39094e-05
-0.000191224
9.81244e-05
-0.000368896
0.000172219
-0.000571825
0.000263656
-0.000789992
0.000368872
-0.00101341
0.000483558
-0.00123277
0.000603093
-0.00144006
0.000723009
-0.00162912
0.000839399
-0.00179589
0.000949197
-0.00193841
0.00105029
-0.00205655
0.00114152
-0.00215161
0.00122255
-0.00222585
0.00129367
-0.00228209
0.00135566
-0.00232332
0.00140953
-0.00235246
0.00145644
-0.00237214
0.00149752
-0.00238467
0.00153387
-0.00239196
0.00156643
-0.00239557
0.00159601
-0.00239669
0.00162331
-0.00239628
0.00164886
-0.00239509
-0.00239381
0.00167312
1.20743e-05
-6.08298e-05
4.74766e-05
-0.000226626
0.00010503
-0.000426449
0.000182575
-0.000649371
0.000276821
-0.000884237
0.000383495
-0.00112009
0.000497743
-0.00134702
0.000614639
-0.00155696
0.000729695
-0.00174417
0.000839236
-0.00190543
0.000940613
-0.00203979
0.00103224
-0.00214818
0.00111348
-0.00223285
0.00118448
-0.00229684
0.00124592
-0.00234353
0.00129884
-0.00237624
0.00134443
-0.00239805
0.00138391
-0.00241162
0.00141841
-0.00241917
0.00144896
-0.00242251
0.00147641
-0.00242302
0.0015015
-0.00242177
0.00152478
-0.00241956
0.00154672
-0.00241702
-0.00241474
0.00156765
1.31141e-05
-7.39438e-05
5.09053e-05
-0.000264418
0.000111476
-0.00048702
0.000191892
-0.000729786
0.000288082
-0.000980428
0.000395107
-0.00122711
0.000507659
-0.00145957
0.000620653
-0.00166995
0.000729723
-0.00185324
0.000831555
-0.00200726
0.000924
-0.00213224
0.00100601
-0.00223019
0.00107748
-0.00230431
0.00113895
-0.00235832
0.00119143
-0.00239601
0.00123614
-0.00242095
0.00127435
-0.00243626
0.00130729
-0.00244455
0.00133604
-0.00244792
0.00136152
-0.002448
0.00138452
-0.00244602
0.00140563
-0.00244288
0.00142534
-0.00243927
0.00144401
-0.00243569
-0.00243262
0.00146188
1.4124e-05
-8.80678e-05
5.41329e-05
-0.000304427
0.000117333
-0.00055022
0.000199967
-0.00081242
0.000297189
-0.00107765
0.000403455
-0.00133338
0.00051313
-0.00156924
0.00062111
-0.00177793
0.000723293
-0.00195543
0.000816821
-0.00210079
0.000900092
-0.00221551
0.000972601
-0.0023027
0.00103469
-0.0023664
0.00108726
-0.00241089
0.00113155
-0.0024403
0.00116888
-0.00245828
0.00120054
-0.00246793
0.00122772
-0.00247173
0.00125141
-0.00247161
0.00127244
-0.00246903
0.00129148
-0.00246505
0.00130903
-0.00246043
0.00132548
-0.00245572
0.00134111
-0.00245132
-0.00244763
0.00135612
1.50868e-05
-0.000103155
5.70978e-05
-0.000346438
0.00012248
-0.000615602
0.000206625
-0.000896565
0.000303942
-0.00117497
0.000408377
-0.00143781
0.0005141
-0.00167497
0.000616133
-0.00187996
0.000710754
-0.00205005
0.000795629
-0.00218567
0.000869713
-0.00228959
0.000933005
-0.00236599
0.000986245
-0.00241964
0.00103061
-0.00245526
0.00106746
-0.00247715
0.00109819
-0.002489
0.00112404
-0.00249378
0.00114612
-0.0024938
0.00116532
-0.00249082
0.00118237
-0.00248608
0.00119783
-0.00248051
0.00121211
-0.00247471
0.00122552
-0.00246914
0.0012383
-0.0024641