/*--------------------------------*- C++ -*----------------------------------*\
  =========                 |
  \\      /  F ield         | OpenFOAM: The Open Source CFD Toolbox
   \\    /   O peration     | Website:  https://openfoam.org
    \\  /    A nd           | Version:  6.0
     \\/     M anipulation  |
\*---------------------------------------------------------------------------*/
FoamFile
{
    version     2.0;
    format      ascii;
    class       volScalarField;
    location    "24.9";
    object      p;
}
// * * * * * * * * * * * * * * * * * * * * * * * * * * * * * * * * * * * * * //

dimensions      [0 2 -2 0 0 0 0];

internalField   nonuniform List<scalar> 
8000
(
-0.260792
-0.261793
-0.262447
-0.26292
-0.263314
-0.263646
-0.263929
-0.264177
-0.264399
-0.2646
-0.264787
-0.264964
-0.265135
-0.265305
-0.265477
-0.26566
-0.265858
-0.266027
-0.266148
-0.26667
-0.26092
-0.261916
-0.262566
-0.263035
-0.263424
-0.26375
-0.264028
-0.264269
-0.264485
-0.26468
-0.26486
-0.26503
-0.265194
-0.265355
-0.26552
-0.265697
-0.265888
-0.266051
-0.266165
-0.266684
-0.261165
-0.262154
-0.262796
-0.263255
-0.263634
-0.263948
-0.264213
-0.264442
-0.264643
-0.264824
-0.26499
-0.265144
-0.265293
-0.265439
-0.265588
-0.265749
-0.265926
-0.266076
-0.266175
-0.266686
-0.261528
-0.262505
-0.263134
-0.263579
-0.263942
-0.264239
-0.264485
-0.264693
-0.264873
-0.265032
-0.265174
-0.265304
-0.265428
-0.265549
-0.265673
-0.265811
-0.265965
-0.266093
-0.266169
-0.266667
-0.262008
-0.262969
-0.263582
-0.264008
-0.264349
-0.264621
-0.26484
-0.26502
-0.265171
-0.265299
-0.265408
-0.265505
-0.265594
-0.26568
-0.265768
-0.265871
-0.265992
-0.26609
-0.266134
-0.266614
-0.262606
-0.263547
-0.264139
-0.264541
-0.264853
-0.265093
-0.265279
-0.265423
-0.265535
-0.265622
-0.265689
-0.265742
-0.265784
-0.265823
-0.265864
-0.265919
-0.265996
-0.266052
-0.266053
-0.266509
-0.26332
-0.264239
-0.264806
-0.265177
-0.265454
-0.265656
-0.265799
-0.265899
-0.265963
-0.266
-0.266014
-0.26601
-0.265994
-0.265971
-0.26595
-0.265944
-0.265963
-0.265963
-0.265908
-0.266333
-0.264155
-0.265047
-0.265583
-0.265918
-0.266153
-0.266309
-0.266402
-0.266448
-0.266455
-0.266431
-0.26638
-0.266308
-0.266219
-0.26612
-0.266021
-0.265936
-0.265879
-0.265807
-0.265681
-0.266068
-0.265111
-0.265973
-0.266473
-0.266765
-0.266951
-0.267052
-0.267087
-0.267071
-0.267012
-0.266918
-0.266791
-0.266637
-0.266461
-0.266269
-0.266073
-0.26589
-0.265736
-0.265569
-0.265353
-0.26569
-0.266194
-0.267019
-0.267477
-0.26772
-0.267849
-0.267888
-0.267857
-0.267771
-0.267638
-0.267463
-0.26725
-0.267002
-0.266724
-0.266423
-0.266109
-0.265803
-0.265527
-0.265239
-0.264903
-0.265177
-0.26741
-0.268192
-0.268599
-0.268784
-0.268848
-0.268818
-0.268714
-0.26855
-0.268336
-0.268074
-0.267766
-0.267414
-0.267021
-0.266592
-0.266139
-0.265684
-0.265253
-0.264808
-0.264317
-0.264505
-0.268766
-0.269495
-0.269843
-0.269961
-0.269952
-0.269844
-0.269659
-0.269412
-0.269111
-0.268756
-0.268348
-0.267884
-0.267365
-0.266794
-0.26618
-0.265548
-0.264926
-0.264278
-0.263577
-0.263644
-0.27027
-0.270935
-0.271213
-0.271254
-0.271161
-0.270967
-0.270695
-0.27036
-0.269967
-0.269517
-0.269005
-0.268426
-0.267774
-0.267049
-0.266256
-0.265417
-0.264563
-0.263655
-0.262673
-0.262561
-0.271931
-0.272519
-0.272715
-0.272666
-0.272479
-0.272189
-0.271821
-0.271391
-0.270904
-0.270357
-0.269741
-0.269046
-0.268261
-0.267376
-0.26639
-0.265318
-0.264189
-0.262957
-0.261595
-0.261215
-0.273761
-0.274256
-0.274355
-0.274202
-0.273906
-0.273507
-0.273033
-0.272502
-0.271916
-0.271271
-0.270553
-0.269745
-0.26883
-0.267786
-0.2666
-0.265276
-0.263833
-0.262205
-0.26034
-0.259557
-0.275771
-0.276156
-0.27614
-0.275865
-0.275443
-0.27492
-0.274328
-0.273684
-0.272993
-0.272245
-0.271426
-0.27051
-0.26947
-0.268273
-0.26689
-0.265308
-0.263523
-0.261435
-0.25893
-0.257554
-0.277977
-0.278232
-0.27808
-0.277663
-0.277094
-0.276428
-0.275699
-0.274929
-0.27412
-0.273263
-0.272338
-0.271316
-0.270159
-0.268823
-0.267258
-0.265426
-0.263299
-0.260728
-0.257474
-0.255254
-0.280397
-0.2805
-0.28019
-0.279606
-0.278866
-0.278032
-0.277145
-0.276227
-0.275284
-0.274306
-0.273269
-0.27214
-0.270875
-0.269416
-0.267694
-0.265641
-0.263192
-0.260138
-0.256023
-0.252563
-0.283056
-0.282983
-0.282488
-0.281709
-0.280769
-0.27974
-0.278668
-0.277581
-0.276484
-0.275369
-0.274213
-0.272983
-0.271631
-0.270093
-0.268282
-0.266092
-0.26339
-0.25982
-0.254517
-0.24903
-0.285984
-0.285707
-0.284997
-0.283993
-0.282823
-0.28157
-0.280287
-0.279005
-0.277734
-0.27647
-0.275197
-0.273888
-0.272512
-0.271026
-0.269375
-0.267489
-0.265244
-0.262176
-0.257049
-0.250956
-0.289221
-0.288707
-0.28775
-0.286489
-0.285057
-0.28355
-0.282029
-0.280529
-0.279068
-0.277646
-0.27626
-0.274902
-0.273576
-0.272301
-0.271138
-0.270225
-0.269827
-0.27037
-0.27341
-0.285906
-0.292814
-0.292025
-0.290783
-0.289232
-0.287509
-0.285721
-0.283938
-0.282203
-0.280537
-0.278951
-0.277452
-0.276055
-0.274792
-0.273729
-0.272993
-0.272806
-0.273536
-0.275734
-0.280581
-0.292739
-0.296816
-0.295706
-0.294144
-0.29227
-0.290226
-0.288133
-0.286071
-0.284086
-0.282208
-0.280454
-0.278845
-0.277409
-0.276201
-0.275313
-0.274893
-0.275169
-0.27647
-0.279219
-0.284007
-0.293394
-0.301287
-0.299803
-0.29788
-0.295652
-0.293263
-0.290846
-0.288491
-0.286248
-0.284153
-0.282229
-0.280502
-0.279013
-0.277823
-0.277027
-0.276763
-0.277216
-0.278617
-0.281219
-0.285276
-0.291924
-0.306285
-0.304369
-0.302044
-0.299433
-0.296676
-0.293921
-0.291263
-0.288756
-0.286437
-0.284331
-0.282468
-0.280885
-0.27964
-0.278815
-0.278512
-0.278857
-0.279979
-0.281984
-0.284961
-0.289121
-0.311871
-0.309459
-0.306689
-0.303668
-0.300526
-0.29742
-0.294449
-0.291669
-0.289111
-0.286799
-0.284755
-0.283011
-0.28161
-0.280607
-0.280069
-0.280062
-0.280639
-0.281816
-0.283613
-0.285768
-0.318098
-0.315121
-0.311867
-0.308412
-0.304867
-0.301398
-0.298104
-0.295032
-0.292207
-0.289642
-0.287351
-0.285349
-0.283663
-0.282325
-0.281366
-0.280814
-0.280675
-0.280925
-0.281557
-0.282146
-0.325011
-0.3214
-0.317623
-0.313712
-0.30975
-0.305905
-0.302267
-0.298871
-0.29573
-0.292842
-0.290206
-0.287826
-0.285711
-0.283876
-0.282334
-0.281091
-0.280136
-0.279438
-0.278983
-0.278369
-0.332643
-0.32833
-0.323996
-0.319611
-0.315216
-0.310973
-0.306959
-0.303189
-0.299656
-0.296344
-0.293241
-0.290341
-0.287645
-0.285163
-0.2829
-0.280861
-0.279037
-0.277407
-0.275957
-0.274381
-0.341012
-0.335934
-0.331013
-0.326138
-0.321291
-0.316619
-0.312177
-0.307955
-0.303926
-0.300063
-0.296348
-0.292774
-0.289348
-0.286083
-0.282993
-0.28009
-0.277375
-0.274845
-0.272484
-0.270092
-0.350114
-0.344217
-0.338686
-0.333306
-0.327981
-0.322832
-0.317885
-0.313104
-0.308445
-0.303879
-0.299392
-0.294991
-0.290698
-0.286541
-0.282549
-0.278743
-0.275139
-0.271744
-0.268542
-0.265414
-0.359925
-0.353165
-0.347008
-0.341106
-0.335265
-0.329569
-0.32401
-0.318531
-0.313083
-0.307644
-0.302225
-0.296856
-0.291583
-0.286454
-0.281513
-0.276794
-0.272318
-0.268098
-0.26411
-0.260294
-0.37039
-0.362738
-0.355945
-0.349499
-0.343086
-0.336745
-0.330438
-0.324094
-0.317677
-0.311195
-0.304692
-0.298235
-0.291899
-0.285751
-0.279847
-0.274225
-0.268907
-0.263904
-0.25918
-0.254713
-0.381424
-0.372866
-0.365433
-0.358412
-0.351348
-0.344234
-0.33701
-0.329614
-0.322043
-0.314354
-0.30664
-0.299008
-0.291559
-0.284376
-0.277518
-0.271022
-0.264903
-0.259163
-0.253751
-0.248669
-0.392905
-0.383446
-0.37537
-0.367728
-0.35991
-0.351864
-0.343532
-0.334886
-0.325983
-0.316946
-0.307925
-0.299065
-0.290487
-0.282281
-0.274501
-0.267173
-0.260301
-0.253874
-0.247823
-0.242169
-0.404673
-0.394336
-0.385613
-0.377288
-0.368582
-0.359421
-0.349774
-0.339684
-0.329292
-0.318801
-0.308415
-0.29831
-0.288618
-0.279423
-0.270768
-0.262661
-0.255092
-0.248033
-0.241392
-0.235219
-0.416527
-0.405351
-0.395975
-0.386881
-0.377131
-0.366652
-0.355485
-0.343775
-0.331773
-0.319759
-0.307989
-0.296657
-0.285891
-0.275762
-0.266291
-0.257466
-0.24926
-0.241625
-0.23445
-0.227813
-0.428225
-0.416267
-0.406225
-0.396257
-0.385283
-0.373277
-0.360398
-0.346928
-0.333233
-0.319674
-0.306539
-0.294027
-0.28225
-0.271254
-0.261035
-0.25156
-0.24278
-0.234631
-0.226978
-0.219941
-0.439488
-0.426819
-0.416088
-0.405119
-0.392732
-0.378999
-0.364246
-0.348917
-0.333499
-0.318413
-0.303966
-0.290345
-0.277636
-0.265852
-0.254961
-0.244906
-0.235621
-0.227022
-0.218951
-0.21158
-0.450002
-0.436704
-0.425252
-0.413143
-0.399152
-0.383516
-0.366769
-0.349535
-0.332407
-0.315854
-0.300179
-0.285542
-0.271991
-0.259506
-0.248025
-0.237467
-0.227748
-0.218765
-0.21034
-0.202704
-0.459427
-0.445591
-0.433376
-0.419979
-0.404209
-0.38653
-0.367723
-0.348589
-0.329814
-0.311888
-0.295093
-0.279547
-0.265257
-0.252166
-0.240182
-0.2292
-0.219122
-0.209824
-0.201111
-0.193281
-0.467401
-0.453122
-0.440096
-0.425269
-0.407571
-0.38776
-0.366883
-0.345909
-0.325592
-0.306417
-0.288628
-0.272294
-0.257377
-0.24378
-0.231383
-0.220062
-0.209703
-0.200162
-0.19123
-0.183279
-0.473553
-0.458932
-0.445043
-0.428656
-0.408923
-0.386947
-0.36405
-0.341346
-0.319628
-0.299354
-0.280714
-0.263723
-0.248295
-0.234298
-0.221585
-0.210013
-0.199454
-0.189746
-0.180666
-0.172669
-0.477515
-0.46265
-0.447851
-0.4298
-0.407976
-0.383864
-0.359053
-0.334773
-0.311825
-0.29062
-0.271285
-0.253776
-0.237961
-0.223675
-0.210745
-0.199014
-0.188341
-0.178543
-0.169392
-0.161424
-0.47893
-0.463919
-0.448171
-0.428388
-0.404473
-0.378316
-0.351749
-0.326085
-0.302103
-0.28015
-0.260284
-0.242402
-0.22633
-0.21187
-0.198829
-0.187035
-0.176336
-0.16653
-0.157386
-0.149525
-0.477463
-0.462402
-0.445681
-0.424144
-0.398198
-0.370146
-0.342028
-0.315201
-0.290399
-0.267892
-0.247666
-0.229563
-0.213366
-0.198851
-0.185807
-0.17405
-0.163418
-0.153688
-0.144632
-0.136957
-0.472812
-0.457797
-0.4401
-0.416834
-0.388978
-0.359233
-0.329805
-0.302062
-0.276667
-0.253807
-0.233397
-0.215225
-0.19904
-0.184594
-0.171659
-0.160043
-0.149572
-0.140007
-0.131124
-0.123713
-0.46472
-0.449842
-0.431194
-0.406277
-0.376688
-0.345496
-0.315031
-0.286631
-0.260877
-0.237869
-0.217453
-0.19937
-0.183336
-0.169084
-0.156374
-0.145005
-0.134793
-0.125485
-0.116863
-0.109795
-0.452979
-0.438329
-0.418785
-0.392344
-0.36125
-0.328895
-0.297682
-0.268896
-0.243021
-0.220071
-0.199827
-0.181989
-0.166247
-0.152317
-0.13995
-0.128936
-0.119085
-0.110128
-0.101858
-0.095212
-0.437437
-0.423107
-0.402752
-0.374964
-0.342634
-0.309424
-0.277768
-0.248868
-0.223108
-0.200419
-0.180524
-0.163087
-0.147777
-0.134299
-0.122392
-0.111846
-0.102461
-0.0939538
-0.0861321
-0.0799885
-0.418006
-0.404086
-0.383038
-0.354122
-0.320856
-0.287119
-0.255325
-0.226582
-0.201169
-0.178938
-0.159563
-0.14268
-0.127942
-0.115041
-0.103716
-0.0937509
-0.084939
-0.0769869
-0.0697163
-0.064163
-0.394659
-0.381243
-0.359647
-0.329856
-0.295979
-0.262048
-0.230423
-0.202098
-0.177253
-0.155669
-0.136979
-0.120797
-0.106763
-0.0945663
-0.0839409
-0.0746694
-0.0665403
-0.0592534
-0.052646
-0.0477782
-0.367436
-0.354618
-0.332644
-0.30226
-0.268111
-0.234318
-0.203156
-0.1755
-0.151432
-0.130672
-0.112822
-0.0974774
-0.0842751
-0.0729006
-0.0630888
-0.0546219
-0.0472851
-0.0407782
-0.0349527
-0.0308576
-0.336441
-0.324317
-0.302157
-0.271479
-0.237399
-0.204069
-0.173651
-0.146896
-0.123798
-0.104025
-0.087154
-0.0727725
-0.0605165
-0.0500737
-0.0411826
-0.0336268
-0.0271925
-0.0215855
-0.0166602
-0.0133933
-0.301841
-0.290504
-0.268367
-0.237704
-0.204032
-0.171476
-0.142063
-0.116423
-0.0944689
-0.0758265
-0.0600563
-0.046745
-0.0355329
-0.0261155
-0.0182392
-0.0116937
-0.00627161
-0.00168858
0.00222204
0.00461508
-0.263861
-0.253405
-0.231508
-0.201172
-0.168234
-0.136743
-0.108576
-0.0842424
-0.0635846
-0.046196
-0.0316286
-0.0194734
-0.00938118
-0.00106097
0.00572643
0.0111788
0.0154916
0.0189324
0.0216903
0.0230434
-0.222779
-0.213295
-0.191861
-0.162159
-0.130264
-0.100106
-0.0734008
-0.050543
-0.0313122
-0.0152783
-0.00199208
0.00894546
0.017867
0.0250422
0.0306876
0.0349851
0.0381139
0.040287
0.0416299
0.0415033
-0.178922
-0.170498
-0.149746
-0.120973
-0.0904118
-0.0618317
-0.0367792
-0.0155419
0.00215452
0.0167575
0.0287129
0.0384047
0.0461425
0.0521637
0.0566511
0.0597654
0.0616455
0.0623318
0.0617232
0.0595525
-0.132658
-0.125374
-0.10552
-0.0779561
-0.0489937
-0.0222097
0.00102113
0.0205132
0.0365883
0.0497077
0.060314
0.0687783
0.0753878
0.0803461
0.083799
0.0858759
0.0866027
0.0856284
0.0824982
0.0782196
-0.0843891
-0.0783184
-0.0595673
-0.0334709
-0.00634743
0.018446
0.0397068
0.0573439
0.0717212
0.083313
0.0925634
0.099842
0.105433
0.10954
0.11232
0.11392
0.114243
0.112451
0.10785
0.103203
-0.0345444
-0.0297516
-0.0122919
0.0121021
0.0371742
0.0598072
0.0789674
0.0946502
0.107254
0.117263
0.125123
0.131208
0.135816
0.139189
0.141567
0.143224
0.144136
0.143332
0.140552
0.143996
0.0164359
0.0198937
0.03589
0.0583734
0.0812104
0.101538
0.118487
0.132127
0.142886
0.151248
0.157654
0.162473
0.166002
0.168493
0.170205
0.171398
0.172062
0.17173
0.171285
0.17687
0.0680925
0.07017
0.0845527
0.104948
0.125399
0.143305
0.157951
0.169477
0.178327
0.184984
0.189879
0.193371
0.195753
0.197274
0.198183
0.198698
0.198803
0.198208
0.197811
0.202298
0.119963
0.120627
0.133271
0.151434
0.16938
0.184776
0.197055
0.206412
0.213303
0.218202
0.221526
0.223618
0.224757
0.225181
0.225119
0.224766
0.224119
0.222955
0.222016
0.225023
0.171585
0.170817
0.181623
0.197445
0.212803
0.225633
0.235505
0.242661
0.247563
0.250672
0.252384
0.253025
0.252856
0.252095
0.250946
0.249575
0.247966
0.245926
0.244134
0.245759
0.222506
0.220298
0.229196
0.242605
0.255328
0.265569
0.273021
0.27797
0.280874
0.282179
0.282261
0.281424
0.279908
0.277912
0.275619
0.273167
0.270525
0.267521
0.264801
0.265102
0.272279
0.268641
0.27559
0.28655
0.296629
0.304289
0.30934
0.312099
0.313021
0.312533
0.310989
0.308671
0.305798
0.302551
0.29909
0.29553
0.29183
0.287844
0.284191
0.283241
0.320476
0.31543
0.320421
0.328932
0.336393
0.341513
0.344208
0.344822
0.343803
0.341556
0.338414
0.334636
0.330424
0.325938
0.32132
0.316664
0.311925
0.306982
0.302421
0.300281
0.366685
0.36027
0.363321
0.369421
0.374324
0.376975
0.377388
0.375927
0.373028
0.369078
0.364387
0.359194
0.353681
0.347992
0.342251
0.336535
0.330798
0.324943
0.319512
0.316243
0.410516
0.402784
0.403942
0.407704
0.410143
0.410427
0.408656
0.405211
0.400518
0.394941
0.38877
0.382223
0.375467
0.368629
0.361816
0.355092
0.348413
0.341702
0.335447
0.331112
0.451601
0.442619
0.441962
0.443489
0.443587
0.441633
0.437802
0.432487
0.426102
0.418993
0.411427
0.403606
0.395679
0.38776
0.379941
0.372273
0.364717
0.357212
0.350184
0.344849
0.4896
0.479449
0.477077
0.476504
0.474415
0.470375
0.464628
0.457577
0.449622
0.44109
0.43223
0.423227
0.414215
0.405295
0.396544
0.388007
0.379646
0.371413
0.36367
0.357407
0.524198
0.512972
0.509012
0.506501
0.502402
0.496453
0.488955
0.480318
0.470929
0.461099
0.451058
0.440977
0.430976
0.421144
0.411546
0.402219
0.39313
0.384241
0.375844
0.368734
0.555113
0.542918
0.537518
0.533256
0.527349
0.519685
0.510618
0.500561
0.489889
0.478896
0.467799
0.456753
0.445869
0.435222
0.424869
0.414838
0.405102
0.39563
0.386648
0.378775
0.582093
0.569045
0.562374
0.55657
0.549075
0.53991
0.52947
0.518171
0.506377
0.494369
0.48235
0.470463
0.458806
0.447449
0.436437
0.425794
0.415498
0.40552
0.396025
0.387482
0.604917
0.591144
0.583386
0.576268
0.567424
0.556985
0.545382
0.533031
0.520288
0.50742
0.49462
0.482021
0.469712
0.457754
0.446187
0.435027
0.424258
0.413853
0.403923
0.39481
0.623402
0.609039
0.600393
0.592204
0.582264
0.570792
0.558245
0.545042
0.531529
0.517966
0.504533
0.491357
0.47852
0.466076
0.454058
0.442481
0.431331
0.420582
0.410298
0.400721
0.637398
0.622586
0.613265
0.604262
0.59349
0.581234
0.567972
0.554123
0.540027
0.525936
0.512025
0.498413
0.485176
0.472364
0.460006
0.448113
0.436675
0.425665
0.415112
0.405183
0.646793
0.631679
0.621902
0.612351
0.601019
0.588237
0.574494
0.560212
0.545725
0.53128
0.517048
0.503142
0.489637
0.476579
0.463992
0.451887
0.440256
0.429072
0.418338
0.408171
0.651511
0.636245
0.626239
0.616412
0.604799
0.591752
0.577768
0.563268
0.548585
0.533963
0.519569
0.505516
0.491876
0.478694
0.465992
0.453781
0.442053
0.430782
0.419956
0.40967
0.651514
0.636247
0.626242
0.616415
0.604802
0.591754
0.577771
0.563271
0.548587
0.533965
0.519571
0.505518
0.491879
0.478696
0.465995
0.453783
0.442056
0.430784
0.419958
0.409672
0.646802
0.631688
0.621911
0.61236
0.601027
0.588245
0.574502
0.560219
0.545733
0.531288
0.517055
0.503149
0.489644
0.476586
0.463999
0.451894
0.440263
0.429079
0.418344
0.408177
0.637413
0.622601
0.61328
0.604276
0.593503
0.581247
0.567985
0.554135
0.54004
0.525949
0.512037
0.498425
0.485188
0.472376
0.460017
0.448124
0.436686
0.425676
0.415123
0.405193
0.623423
0.60906
0.600414
0.592224
0.582284
0.570811
0.558264
0.54506
0.531547
0.517983
0.50455
0.491374
0.478537
0.466093
0.454075
0.442497
0.431347
0.420598
0.410313
0.400736
0.604944
0.591172
0.583412
0.576293
0.567449
0.55701
0.545406
0.533054
0.520311
0.507443
0.494642
0.482043
0.469734
0.457775
0.446207
0.435047
0.424278
0.413873
0.403943
0.39483
0.582126
0.569079
0.562406
0.556601
0.549106
0.53994
0.529499
0.518199
0.506405
0.494397
0.482377
0.470489
0.458832
0.447475
0.436463
0.425819
0.415523
0.405544
0.39605
0.387506
0.555154
0.542958
0.537557
0.533294
0.527386
0.519721
0.510653
0.500595
0.489922
0.478928
0.467831
0.456785
0.4459
0.435252
0.424899
0.414867
0.405132
0.395659
0.386677
0.378803
0.524246
0.513019
0.509058
0.506545
0.502445
0.496494
0.488996
0.480358
0.470968
0.461137
0.451096
0.441014
0.431012
0.421179
0.411581
0.402254
0.393164
0.384274
0.375877
0.368766
0.489654
0.479503
0.477129
0.476555
0.474464
0.470422
0.464675
0.457623
0.449666
0.441133
0.432273
0.423269
0.414256
0.405335
0.396584
0.388046
0.379684
0.371451
0.363707
0.357444
0.451663
0.442681
0.442021
0.443546
0.443643
0.441686
0.437854
0.432538
0.426152
0.419041
0.411475
0.403653
0.395726
0.387806
0.379986
0.372318
0.364761
0.357255
0.350226
0.344891
0.410585
0.402853
0.404009
0.407769
0.410205
0.410487
0.408715
0.405268
0.400573
0.394996
0.388823
0.382276
0.375519
0.36868
0.361866
0.355142
0.348461
0.34175
0.335494
0.331158
0.366762
0.360347
0.363395
0.369493
0.374393
0.377042
0.377453
0.37599
0.37309
0.369139
0.364446
0.359252
0.353738
0.348048
0.342306
0.336589
0.330851
0.324996
0.319564
0.316294
0.320561
0.315515
0.320503
0.329011
0.336469
0.341586
0.344279
0.344892
0.343871
0.341622
0.338479
0.334699
0.330486
0.326
0.32138
0.316723
0.311983
0.30704
0.302478
0.300336
0.272373
0.268734
0.275681
0.286637
0.296713
0.30437
0.309418
0.312175
0.313096
0.312606
0.31106
0.30874
0.305866
0.302618
0.299156
0.295594
0.291893
0.287906
0.284253
0.283301
0.222608
0.2204
0.229295
0.2427
0.25542
0.265657
0.273107
0.278053
0.280955
0.282258
0.282339
0.281499
0.279982
0.277985
0.275691
0.273237
0.270594
0.267589
0.264868
0.265167
0.171698
0.170928
0.181731
0.197549
0.212902
0.225729
0.235598
0.242752
0.247651
0.250757
0.252468
0.253107
0.252936
0.252173
0.251023
0.249651
0.248041
0.245999
0.244206
0.245829
0.120085
0.120748
0.133388
0.151547
0.169488
0.18488
0.197155
0.20651
0.213398
0.218295
0.221616
0.223706
0.224843
0.225266
0.225202
0.224848
0.224199
0.223034
0.222094
0.225098
0.0682243
0.0703006
0.0846794
0.10507
0.125515
0.143417
0.158059
0.169582
0.178429
0.185083
0.189976
0.193466
0.195846
0.197365
0.198272
0.198785
0.198889
0.198293
0.197895
0.202379
0.016578
0.0200346
0.0360265
0.0585044
0.0813359
0.101659
0.118603
0.13224
0.142995
0.151354
0.157758
0.162574
0.166101
0.16859
0.170301
0.171492
0.172154
0.17182
0.171375
0.176956
-0.0343916
-0.0296002
-0.0121451
0.0122428
0.0373088
0.0599365
0.079092
0.0947708
0.107371
0.117377
0.125234
0.131316
0.135923
0.139293
0.141669
0.143325
0.144234
0.143429
0.140648
0.144091
-0.0842254
-0.078156
-0.05941
-0.0333203
-0.00620333
0.0185843
0.0398399
0.0574726
0.071846
0.0834344
0.0926817
0.0999576
0.105546
0.109651
0.112429
0.114027
0.114349
0.112556
0.107953
0.103307
-0.132483
-0.1252
-0.105352
-0.0777953
-0.0488399
-0.0220623
0.00116294
0.0206502
0.036721
0.0498367
0.0604397
0.068901
0.0755079
0.0804638
0.0839147
0.0859897
0.0867149
0.0857393
0.0826081
0.0783293
-0.178736
-0.170313
-0.149567
-0.120802
-0.0902481
-0.0616749
-0.0366285
-0.0153965
0.00229531
0.0168943
0.028846
0.0385347
0.0462695
0.0522882
0.0567733
0.0598855
0.0617638
0.0624484
0.0618384
0.0596671
-0.222581
-0.213099
-0.191671
-0.161977
-0.13009
-0.0999402
-0.0732412
-0.0503891
-0.0311633
-0.0151338
-0.00185147
0.00908257
0.018001
0.0251733
0.0308162
0.0351114
0.0382381
0.0404092
0.0417504
0.0416226
-0.263651
-0.253198
-0.231307
-0.20098
-0.16805
-0.136567
-0.108407
-0.0840799
-0.0634275
-0.0460436
-0.0314805
-0.0193291
-0.00924032
-0.000923208
0.00586136
0.0113111
0.0156215
0.0190602
0.0218159
0.0231676
-0.30162
-0.290285
-0.268155
-0.237501
-0.203837
-0.17129
-0.141885
-0.116252
-0.0943036
-0.0756663
-0.0599007
-0.0465935
-0.0353852
-0.0259712
-0.0180979
-0.0115553
-0.00613584
-0.00155533
0.00235295
0.00474429
-0.336209
-0.324086
-0.301934
-0.271264
-0.237195
-0.203874
-0.173464
-0.146716
-0.123625
-0.103857
-0.086991
-0.072614
-0.0603619
-0.0499228
-0.0410351
-0.0334825
-0.027051
-0.0214468
-0.0165241
-0.0132592
-0.367192
-0.354377
-0.33241
-0.302035
-0.267896
-0.234113
-0.20296
-0.175311
-0.15125
-0.130496
-0.112651
-0.0973116
-0.0841138
-0.0727432
-0.0629351
-0.0544716
-0.0471379
-0.040634
-0.0348114
-0.0307184
-0.394404
-0.380991
-0.359401
-0.32962
-0.295754
-0.261833
-0.230217
-0.201901
-0.177063
-0.155485
-0.136802
-0.120624
-0.106595
-0.0944024
-0.083781
-0.0745131
-0.0663874
-0.0591038
-0.0524994
-0.047634
-0.417741
-0.403823
-0.382782
-0.353875
-0.320621
-0.286894
-0.255111
-0.226376
-0.200971
-0.178746
-0.159378
-0.1425
-0.127767
-0.114871
-0.10355
-0.0935887
-0.0847804
-0.0768318
-0.0695645
-0.0640138
-0.437162
-0.422833
-0.402486
-0.374708
-0.342389
-0.309191
-0.277544
-0.248653
-0.222902
-0.20022
-0.180331
-0.1629
-0.147596
-0.134122
-0.12222
-0.111678
-0.102297
-0.0937932
-0.085975
-0.0798343
-0.452694
-0.438046
-0.418509
-0.392078
-0.360996
-0.328652
-0.29745
-0.268673
-0.242807
-0.219864
-0.199627
-0.181795
-0.166059
-0.152134
-0.139771
-0.128762
-0.118916
-0.109962
-0.101696
-0.0950528
-0.464427
-0.44955
-0.430909
-0.406001
-0.376424
-0.345245
-0.31479
-0.2864
-0.260655
-0.237655
-0.217246
-0.199169
-0.183141
-0.168895
-0.15619
-0.144825
-0.134618
-0.125313
-0.116695
-0.109631
-0.472511
-0.457497
-0.439806
-0.41655
-0.388706
-0.358972
-0.329556
-0.301823
-0.276437
-0.253586
-0.233183
-0.215018
-0.198839
-0.184398
-0.171469
-0.159857
-0.149391
-0.13983
-0.130951
-0.123544
-0.477154
-0.462096
-0.44538
-0.423852
-0.397917
-0.369877
-0.341771
-0.314955
-0.290162
-0.267664
-0.247446
-0.229349
-0.213158
-0.198649
-0.18561
-0.173859
-0.163231
-0.153506
-0.144454
-0.136782
-0.478615
-0.463607
-0.447863
-0.42809
-0.404185
-0.37804
-0.351485
-0.325831
-0.301859
-0.279915
-0.260057
-0.242182
-0.226116
-0.211662
-0.198626
-0.186838
-0.176144
-0.166342
-0.157202
-0.149345
-0.477195
-0.462332
-0.447538
-0.429495
-0.407681
-0.383581
-0.358781
-0.334512
-0.311574
-0.290377
-0.271051
-0.253549
-0.237741
-0.223461
-0.210537
-0.198811
-0.188143
-0.17835
-0.169203
-0.16124
-0.473229
-0.45861
-0.444726
-0.428345
-0.408623
-0.386658
-0.363771
-0.341078
-0.31937
-0.299105
-0.280474
-0.26349
-0.248069
-0.234078
-0.221371
-0.209804
-0.19925
-0.189547
-0.180472
-0.172479
-0.467073
-0.452797
-0.439775
-0.424954
-0.407265
-0.387464
-0.366598
-0.345635
-0.325328
-0.306163
-0.288382
-0.272055
-0.257145
-0.243554
-0.231163
-0.219848
-0.209494
-0.199958
-0.191031
-0.183084
-0.459097
-0.445263
-0.433052
-0.419661
-0.403899
-0.38623
-0.367433
-0.348309
-0.329544
-0.311627
-0.29484
-0.279302
-0.265019
-0.251935
-0.239956
-0.22898
-0.218907
-0.209614
-0.200906
-0.193081
-0.449671
-0.436376
-0.424927
-0.412823
-0.398839
-0.383211
-0.366474
-0.34925
-0.332131
-0.315587
-0.299921
-0.285291
-0.271747
-0.259269
-0.247794
-0.237242
-0.227528
-0.21855
-0.21013
-0.202498
-0.439157
-0.42649
-0.415762
-0.404798
-0.392417
-0.378692
-0.363947
-0.348627
-0.333218
-0.318141
-0.303703
-0.290089
-0.277386
-0.265609
-0.254724
-0.244675
-0.235396
-0.226802
-0.218736
-0.211369
-0.427894
-0.415939
-0.4059
-0.395935
-0.384967
-0.372967
-0.360096
-0.346634
-0.332948
-0.319397
-0.30627
-0.293765
-0.281995
-0.271005
-0.260792
-0.251323
-0.242548
-0.234405
-0.226757
-0.219725
-0.416197
-0.405024
-0.395651
-0.38656
-0.376815
-0.366341
-0.35518
-0.343478
-0.331483
-0.319478
-0.307715
-0.29639
-0.285631
-0.275508
-0.266042
-0.257224
-0.249022
-0.241393
-0.234223
-0.227591
-0.404345
-0.394011
-0.38529
-0.376968
-0.368266
-0.35911
-0.349469
-0.339384
-0.329
-0.318515
-0.308136
-0.298038
-0.288352
-0.279163
-0.270514
-0.262413
-0.254849
-0.247794
-0.241159
-0.23499
-0.392579
-0.383124
-0.375049
-0.367411
-0.359595
-0.351554
-0.343226
-0.334585
-0.325688
-0.316657
-0.307642
-0.298788
-0.290216
-0.282015
-0.274241
-0.266918
-0.260052
-0.25363
-0.247583
-0.241935
-0.381101
-0.372546
-0.365115
-0.358097
-0.351035
-0.343924
-0.336704
-0.329312
-0.321746
-0.314062
-0.306353
-0.298726
-0.291283
-0.284105
-0.277252
-0.270761
-0.264647
-0.258911
-0.253505
-0.248427
-0.37007
-0.362421
-0.35563
-0.349187
-0.342775
-0.336437
-0.330133
-0.323792
-0.317379
-0.3109
-0.304402
-0.297949
-0.291618
-0.285474
-0.279575
-0.273958
-0.268644
-0.263646
-0.258927
-0.254464
-0.359608
-0.352851
-0.346696
-0.340797
-0.334957
-0.329263
-0.323707
-0.31823
-0.312784
-0.307348
-0.301932
-0.296566
-0.291296
-0.286171
-0.281235
-0.27652
-0.272048
-0.267832
-0.263849
-0.260038
-0.349801
-0.343906
-0.338378
-0.333
-0.327677
-0.322529
-0.317584
-0.312804
-0.308147
-0.303582
-0.299097
-0.294698
-0.290407
-0.286253
-0.282264
-0.278462
-0.274861
-0.271471
-0.268272
-0.265149
-0.340701
-0.335626
-0.330707
-0.325835
-0.32099
-0.316319
-0.311878
-0.307656
-0.303628
-0.299766
-0.296051
-0.292478
-0.289053
-0.285789
-0.282702
-0.279801
-0.27709
-0.274563
-0.272206
-0.269818
-0.332336
-0.328025
-0.323693
-0.319311
-0.314918
-0.310676
-0.306662
-0.302892
-0.299359
-0.296047
-0.292943
-0.290042
-0.287346
-0.284863
-0.282602
-0.280565
-0.278743
-0.277116
-0.27567
-0.274098
-0.324706
-0.321098
-0.317323
-0.313415
-0.309454
-0.30561
-0.301972
-0.298577
-0.295434
-0.292544
-0.289906
-0.287524
-0.285408
-0.283572
-0.282029
-0.280786
-0.279833
-0.279137
-0.278686
-0.278077
-0.317795
-0.314821
-0.311569
-0.308117
-0.304574
-0.301106
-0.297812
-0.294739
-0.291912
-0.289345
-0.28705
-0.285045
-0.283356
-0.282015
-0.281054
-0.280502
-0.280363
-0.280615
-0.28125
-0.281844
-0.311569
-0.30916
-0.306394
-0.303375
-0.300234
-0.29713
-0.294159
-0.291377
-0.288817
-0.286501
-0.284453
-0.282704
-0.281298
-0.280291
-0.27975
-0.279741
-0.280317
-0.281495
-0.283295
-0.285456
-0.305985
-0.304072
-0.30175
-0.299141
-0.296386
-0.293632
-0.290973
-0.288465
-0.286142
-0.284032
-0.282163
-0.280575
-0.279324
-0.278493
-0.278186
-0.278527
-0.279646
-0.281652
-0.284631
-0.288798
-0.300987
-0.299507
-0.297586
-0.295361
-0.292974
-0.290558
-0.288201
-0.285957
-0.283857
-0.281928
-0.280196
-0.278699
-0.277502
-0.276699
-0.276429
-0.276876
-0.278274
-0.280875
-0.284934
-0.291589
-0.296517
-0.295411
-0.293852
-0.29198
-0.289938
-0.287845
-0.285781
-0.283793
-0.281911
-0.280151
-0.278534
-0.277091
-0.275875
-0.274978
-0.27455
-0.274819
-0.276115
-0.278861
-0.283651
-0.293045
-0.292515
-0.291731
-0.290492
-0.288943
-0.287221
-0.285432
-0.283647
-0.281908
-0.280237
-0.278644
-0.277138
-0.275732
-0.274459
-0.273387
-0.272642
-0.272446
-0.27317
-0.275363
-0.28021
-0.292378
-0.288923
-0.288415
-0.28746
-0.286201
-0.284769
-0.283261
-0.281737
-0.280233
-0.278765
-0.277336
-0.275941
-0.274574
-0.273237
-0.271952
-0.270778
-0.269856
-0.269448
-0.269985
-0.273024
-0.285527
-0.285688
-0.285417
-0.28471
-0.283707
-0.282537
-0.281281
-0.279994
-0.278707
-0.277429
-0.276157
-0.274874
-0.273555
-0.272167
-0.27067
-0.269008
-0.26711
-0.264853
-0.261774
-0.25664
-0.250538
-0.282763
-0.282697
-0.282204
-0.281426
-0.280485
-0.279453
-0.278377
-0.277283
-0.276178
-0.275054
-0.273888
-0.272646
-0.271282
-0.269732
-0.267909
-0.265706
-0.262992
-0.25941
-0.254098
-0.248599
-0.28011
-0.280219
-0.279911
-0.279327
-0.278585
-0.277747
-0.276855
-0.27593
-0.274978
-0.273989
-0.272941
-0.271801
-0.270523
-0.269051
-0.267317
-0.26525
-0.262789
-0.259722
-0.255599
-0.252124
-0.277697
-0.277957
-0.277808
-0.27739
-0.276819
-0.276148
-0.275413
-0.274634
-0.273816
-0.272948
-0.272011
-0.270977
-0.269807
-0.268457
-0.266879
-0.265033
-0.262893
-0.260309
-0.257046
-0.254811
-0.275501
-0.27589
-0.275875
-0.2756
-0.275174
-0.274647
-0.274048
-0.273395
-0.272694
-0.271935
-0.271103
-0.270174
-0.26912
-0.26791
-0.266513
-0.264916
-0.263118
-0.261016
-0.258503
-0.257109
-0.273502
-0.274001
-0.2741
-0.273946
-0.273646
-0.273242
-0.272761
-0.272221
-0.271625
-0.270967
-0.270237
-0.269416
-0.268487
-0.267428
-0.266228
-0.264891
-0.263433
-0.261791
-0.259917
-0.259116
-0.271686
-0.272276
-0.272472
-0.272422
-0.27223
-0.271934
-0.271559
-0.27112
-0.270623
-0.270064
-0.269436
-0.268727
-0.267928
-0.267029
-0.266028
-0.264942
-0.263799
-0.262552
-0.26118
-0.260782
-0.27004
-0.270706
-0.270984
-0.271022
-0.270926
-0.270726
-0.270446
-0.270102
-0.269699
-0.269237
-0.268712
-0.26812
-0.267455
-0.266715
-0.265908
-0.265055
-0.264185
-0.263264
-0.262271
-0.26214
-0.268552
-0.269281
-0.269629
-0.269744
-0.26973
-0.269617
-0.269425
-0.269169
-0.268858
-0.268492
-0.268071
-0.267595
-0.267062
-0.266477
-0.265849
-0.265203
-0.264566
-0.263904
-0.263193
-0.26324
-0.267215
-0.267995
-0.268401
-0.268583
-0.268643
-0.268607
-0.268495
-0.268323
-0.268099
-0.267827
-0.267507
-0.267143
-0.266737
-0.266295
-0.265828
-0.26536
-0.264915
-0.264456
-0.263953
-0.264122
-0.266017
-0.266841
-0.267296
-0.267535
-0.26766
-0.267694
-0.267657
-0.267562
-0.26742
-0.267236
-0.267012
-0.266752
-0.266462
-0.266148
-0.265821
-0.265503
-0.265212
-0.264911
-0.264565
-0.26482
-0.264953
-0.265812
-0.26631
-0.266599
-0.266781
-0.266877