/*--------------------------------*- C++ -*----------------------------------*\
  =========                 |
  \\      /  F ield         | OpenFOAM: The Open Source CFD Toolbox
   \\    /   O peration     | Website:  https://openfoam.org
    \\  /    A nd           | Version:  6.0
     \\/     M anipulation  |
\*---------------------------------------------------------------------------*/
FoamFile
{
    version     2.0;
    format      ascii;
    class       volVectorField;
    location    "24.9";
    object      U;
}
// * * * * * * * * * * * * * * * * * * * * * * * * * * * * * * * * * * * * * //

dimensions      [0 1 -1 0 0 0 0];

internalField   nonuniform List<vector> 
8000
(
(-0.000475294 0.000570191 -3.44266e-21)
(-0.00259769 0.00140429 1.8402e-20)
(-0.00651878 0.00197787 -2.23814e-20)
(-0.0113317 0.00235142 1.70429e-20)
(-0.016563 0.00257162 8.29922e-21)
(-0.0219448 0.00267628 -2.49221e-20)
(-0.0272854 0.00269717 -2.20274e-21)
(-0.0324606 0.00266064 -7.81622e-22)
(-0.0374011 0.00258838 -1.29366e-20)
(-0.0420782 0.00249826 -7.00862e-21)
(-0.0464922 0.00240492 5.22676e-21)
(-0.0506645 0.00232023 1.98701e-20)
(-0.0546313 0.00225367 -1.48801e-21)
(-0.0584377 0.00221255 2.12898e-21)
(-0.0621346 0.00220221 -2.00137e-20)
(-0.0657811 0.00222604 1.23316e-20)
(-0.0694369 0.00228561 -1.76677e-20)
(-0.0730966 0.00238207 2.67359e-20)
(-0.0766758 0.00251692 -2.99287e-23)
(-0.0806342 0.00268091 5.77299e-21)
(-0.000560995 0.00165431 1.14331e-20)
(-0.00280725 0.00410371 -5.84286e-20)
(-0.0068085 0.0058147 -4.0355e-20)
(-0.0116665 0.0069556 -2.74048e-20)
(-0.0169139 0.00765644 -3.52552e-20)
(-0.0222873 0.00802315 7.75772e-21)
(-0.0275986 0.00814558 -4.06975e-20)
(-0.0327264 0.00809904 -9.14083e-21)
(-0.0376036 0.00794623 2.88825e-21)
(-0.0422029 0.00773924 3.0417e-20)
(-0.0465258 0.00752119 -3.31807e-20)
(-0.0505948 0.00732739 4.61553e-20)
(-0.054447 0.00718626 -3.45635e-20)
(-0.0581286 0.00711994 -4.09872e-20)
(-0.0616918 0.0071447 -5.64819e-20)
(-0.0651972 0.00727098 3.6072e-20)
(-0.0687062 0.00750382 -1.16662e-20)
(-0.0722153 0.00784687 -4.24744e-20)
(-0.0756391 0.00830484 4.01608e-20)
(-0.0794403 0.00884975 -2.98238e-20)
(-0.000730489 0.00272519 1.11769e-19)
(-0.00322178 0.00676922 5.78802e-20)
(-0.00738112 0.00960098 6.5093e-20)
(-0.0123274 0.0114952 5.4164e-21)
(-0.0176054 0.0126641 3.59768e-20)
(-0.0229606 0.013281 4.49009e-20)
(-0.0282123 0.0134931 -8.16008e-20)
(-0.0332446 0.0134238 -4.32113e-20)
(-0.0379945 0.0131764 -5.62778e-20)
(-0.0424379 0.012837 6.00742e-20)
(-0.0465784 0.0124771 -4.58849e-20)
(-0.0504406 0.0121556 -5.90374e-20)
(-0.0540634 0.0119206 -2.14984e-20)
(-0.0574951 0.0118095 2.04219e-20)
(-0.0607904 0.0118506 -5.67669e-21)
(-0.0640128 0.0120622 8.18663e-21)
(-0.0672277 0.0124538 9.47506e-20)
(-0.0704346 0.0130323 -1.33136e-20)
(-0.0735471 0.0138066 -9.63178e-20)
(-0.0770339 0.0147299 1.2695e-19)
(-0.000982408 0.00377437 3.8887e-20)
(-0.00383802 0.00937864 -5.49295e-20)
(-0.0082323 0.0133035 -1.37781e-20)
(-0.0133095 0.0159277 2.57607e-20)
(-0.0186323 0.0175442 7.31461e-20)
(-0.0239599 0.018392 1.60145e-19)
(-0.0291225 0.0186743 1.56484e-19)
(-0.0340127 0.0185618 1.30011e-20)
(-0.0385737 0.0181972 9.59594e-20)
(-0.0427856 0.0177001 1.46878e-19)
(-0.0466557 0.0171701 -1.17361e-19)
(-0.0502111 0.0166904 1.7369e-19)
(-0.0534933 0.016329 -3.93312e-20)
(-0.0565538 0.0161402 9.92148e-21)
(-0.0594507 0.0161656 4.10721e-20)
(-0.062252 0.0164333 5.45799e-20)
(-0.0650288 0.0169585 -8.58984e-20)
(-0.0677858 0.0177531 -7.16874e-20)
(-0.070436 0.018832 -1.26854e-19)
(-0.0734569 0.0201291 1.84646e-19)
(-0.00131478 0.00479416 -2.03173e-20)
(-0.00465105 0.0119114 -2.07969e-19)
(-0.0093551 0.0168912 -6.15143e-20)
(-0.0146044 0.0202134 -1.49903e-19)
(-0.0199854 0.0222495 5.66636e-20)
(-0.0252758 0.0233025 -8.93661e-20)
(-0.0303207 0.0236295 3.07346e-20)
(-0.0350239 0.0234467 -1.89277e-19)
(-0.0393369 0.022935 9.98548e-20)
(-0.0432456 0.0222462 -1.19078e-19)
(-0.0467614 0.0215082 -1.05898e-19)
(-0.0499148 0.0208281 -1.18575e-19)
(-0.0527506 0.0202951 1.07631e-19)
(-0.0553237 0.019982 -9.66393e-20)
(-0.0576967 0.0199459 1.34564e-19)
(-0.0599436 0.0202268 3.88901e-20)
(-0.0621432 0.0208488 9.62635e-20)
(-0.0643078 0.0218309 4.22342e-20)
(-0.0663506 0.0231969 -1.67271e-19)
(-0.0687627 0.0248619 2.7234e-19)
(-0.0017251 0.00577784 8.95597e-20)
(-0.00565412 0.0143488 6.89081e-21)
(-0.0107394 0.0203353 3.68949e-20)
(-0.0161991 0.0243155 1.28739e-19)
(-0.0216497 0.0267371 -1.97083e-20)
(-0.0268922 0.0279643 2.0906e-19)
(-0.0317907 0.028306 9.27911e-20)
(-0.036263 0.0280213 7.8009e-21)
(-0.0402712 0.0273272 2.38602e-19)
(-0.0438082 0.0264066 7.81824e-20)
(-0.0468905 0.0254141 3.70899e-20)
(-0.0495523 0.0244813 1.17711e-19)
(-0.0518417 0.0237196 1.07897e-19)
(-0.0538173 0.0232219 1.96979e-19)
(-0.055547 0.0230636 -1.76063e-19)
(-0.0571119 0.0233005 2.48875e-19)
(-0.0586007 0.0239688 3.26365e-21)
(-0.0600357 0.025099 -3.18075e-19)
(-0.0613327 0.0267281 4.12326e-19)
(-0.0630027 0.028753 1.70987e-19)
(-0.00221037 0.00671953 -5.27792e-20)
(-0.0068385 0.0166736 -9.58046e-20)
(-0.0123712 0.0236095 -1.99372e-19)
(-0.0180749 0.0282009 -5.90981e-21)
(-0.0236022 0.0309687 3.4022e-20)
(-0.0287829 0.032336 -2.5459e-19)
(-0.0335039 0.03266 -1.88879e-19)
(-0.0377009 0.0322399 -2.70184e-20)
(-0.0413481 0.0313259 -2.38915e-19)
(-0.0444474 0.0301296 -1.65419e-19)
(-0.0470207 0.0288311 -4.82092e-20)
(-0.049106 0.0275858 -1.55234e-19)
(-0.0507545 0.0265276 -2.53019e-21)
(-0.0520287 0.025772 -2.06156e-19)
(-0.0530017 0.0254159 8.67184e-20)
(-0.0537624 0.0255352 -9.89377e-20)
(-0.0544117 0.0261838 7.57915e-20)
(-0.0549849 0.0274095 -9.64687e-20)
(-0.0554039 0.0292689 -2.75604e-19)
(-0.0562077 0.0316434 -8.37621e-20)
(-0.00276705 0.00761395 -1.94236e-20)
(-0.00819303 0.01887 -2.10954e-20)
(-0.0142316 0.0266895 1.67159e-19)
(-0.020205 0.031839 -2.72021e-19)
(-0.025809 0.0349106 3.9906e-20)
(-0.0309073 0.0363826 -1.57138e-19)
(-0.0354147 0.0366571 7.4257e-20)
(-0.0392876 0.0360694 3.33773e-19)
(-0.0425155 0.0348997 -2.14101e-20)
(-0.0451101 0.0333849 -2.49003e-19)
(-0.0470998 0.0317282 4.524e-20)
(-0.0485263 0.030107 8.77239e-21)
(-0.0494435 0.028678 -5.11323e-20)
(-0.0499167 0.0275804 5.16487e-21)
(-0.050024 0.0269364 4.49188e-19)
(-0.0498627 0.0268477 -6.39519e-20)
(-0.0495472 0.0273925 -1.24777e-19)
(-0.0491293 0.0286445 -2.23852e-19)
(-0.0485413 0.0306901 2.28347e-19)
(-0.0483627 0.0333996 9.85375e-20)
(-0.00339094 0.00845598 9.80841e-20)
(-0.00970359 0.0209225 -1.28326e-19)
(-0.0162954 0.0295516 1.8143e-19)
(-0.0225532 0.0352016 1.82648e-19)
(-0.0282224 0.0385326 1.68373e-19)
(-0.033207 0.040075 3.41434e-19)
(-0.037454 0.0402718 2.20797e-19)
(-0.0409449 0.0394903 -4.74466e-19)
(-0.043687 0.038036 2.42657e-19)
(-0.0457039 0.0361668 1.9042e-19)
(-0.0470311 0.0341052 -2.70728e-21)
(-0.0477141 0.032048 2.13172e-19)
(-0.0478088 0.0301731 1.66202e-19)
(-0.0473823 0.028644 -9.04006e-20)
(-0.0465162 0.0276111 3.05507e-19)
(-0.0453161 0.0272074 -3.78711e-19)
(-0.0439108 0.0275447 1.51595e-19)
(-0.0423713 0.0287341 1.94937e-19)
(-0.0406467 0.0309063 -4.54179e-20)
(-0.0393736 0.0339293 3.91962e-19)
(-0.00407689 0.00924018 1.97091e-19)
(-0.0113524 0.0228152 1.0224e-20)
(-0.0185303 0.0321724 -7.07427e-20)
(-0.0250712 0.0382608 -7.47278e-20)
(-0.0307778 0.0418064 -3.46074e-19)
(-0.0356004 0.0433884 4.90073e-20)
(-0.0395235 0.0434865 1.38855e-19)
(-0.0425578 0.0424952 -6.6791e-20)
(-0.0447316 0.0407401 5.50966e-20)
(-0.0460829 0.0384952 -1.46041e-20)
(-0.0466557 0.0359971 -7.19697e-20)
(-0.0464997 0.033457 6.83386e-20)
(-0.0456721 0.0310705 -2.97111e-19)
(-0.0442405 0.029024 2.84837e-19)
(-0.0422883 0.0274973 -2.46734e-19)
(-0.0399276 0.0266604 7.62093e-20)
(-0.0373021 0.0266678 1.7345e-19)
(-0.0345043 0.0276834 -3.60761e-20)
(-0.0315061 0.0299027 -1.19983e-19)
(-0.0290244 0.0332065 -8.16617e-20)
(-0.00481851 0.00996035 -2.4551e-19)
(-0.0131172 0.0245304 -1.61635e-20)
(-0.0208951 0.0345265 5.1707e-20)
(-0.0276971 0.0409876 1.32956e-19)
(-0.033391 0.0447037 -1.87702e-19)
(-0.0379791 0.0462997 -1.63802e-19)
(-0.0414894 0.0462881 3.82339e-19)
(-0.0439659 0.0450859 -2.1127e-19)
(-0.0454619 0.0430337 -1.36289e-19)
(-0.0460328 0.040415 -1.95568e-19)
(-0.0457333 0.0374743 1.2947e-19)
(-0.0446185 0.0344309 -3.488e-21)
(-0.0427471 0.0314918 -2.41791e-19)
(-0.0401862 0.0288614 -3.95579e-19)
(-0.037019 0.0267473 3.01379e-19)
(-0.0333617 0.0253586 -2.44226e-19)
(-0.0293717 0.0249018 3.46257e-19)
(-0.0251638 0.0256108 -9.70094e-20)
(-0.0207386 0.0277743 2.03896e-19)
(-0.0169236 0.0313097 -6.92732e-19)
(-0.00560785 0.0106092 -4.9723e-19)
(-0.0149706 0.0260484 3.26054e-19)
(-0.0233393 0.036586 4.43432e-20)
(-0.030354 0.0433501 8.57873e-21)
(-0.0359555 0.0471934 -2.01071e-19)
(-0.0402046 0.048784 2.95687e-19)
(-0.0431774 0.048664 3.22751e-20)
(-0.0449564 0.0472685 -6.0634e-20)
(-0.045624 0.0449479 -1.9464e-19)
(-0.0452564 0.0419898 2.10396e-19)
(-0.0439227 0.038639 5.3346e-19)
(-0.041686 0.035115 -1.17846e-19)
(-0.0386083 0.0316272 2.66339e-19)
(-0.0347562 0.0283892 -3.14636e-19)
(-0.0302116 0.0256291 -3.01733e-19)
(-0.0250925 0.0235925 1.81405e-19)
(-0.0195672 0.0225424 2.99762e-19)
(-0.0137716 0.0228 -9.71356e-19)
(-0.00773744 0.0247821 1.14047e-19)
(-0.00244131 0.0284787 1.55167e-19)
(-0.00643509 0.0111784 3.68199e-19)
(-0.0168793 0.0273471 1.21138e-19)
(-0.0258015 0.0383193 6.31049e-19)
(-0.0329485 0.0453119 3.248e-20)
(-0.0383415 0.049239 -7.01861e-20)
(-0.0421054 0.0508109 -3.3424e-19)
(-0.0443697 0.0505962 2.84236e-19)
(-0.0452592 0.0490455 5.09984e-19)
(-0.0448897 0.046515 3.39783e-19)
(-0.0433629 0.0432915 2.45328e-19)
(-0.0407664 0.0396137 2.11513e-19)
(-0.0371762 0.0356924 -3.79805e-19)
(-0.0326615 0.0317288 -1.1898e-19)
(-0.0272918 0.0279329 -8.76497e-20)
(-0.0211485 0.0245398 9.39229e-19)
(-0.0143505 0.0218196 -3.18046e-21)
(-0.00707482 0.0200868 -2.34129e-19)
(0.000526404 0.0197604 -7.38038e-20)
(0.00839397 0.0214246 6.71828e-19)
(0.0153587 0.0251905 8.79241e-20)
(-0.00728848 0.0116585 -1.81458e-20)
(-0.0188042 0.0284019 -3.48357e-19)
(-0.0282099 0.0396914 -5.18288e-19)
(-0.0353707 0.0468313 -1.44232e-19)
(-0.0403951 0.0507974 7.96455e-20)
(-0.0434771 0.0523409 1.7148e-20)
(-0.0448032 0.0520564 4.54839e-19)
(-0.0445444 0.0504082 -5.64105e-19)
(-0.0428534 0.0477567 -2.14577e-19)
(-0.0398619 0.0443849 -4.32457e-19)
(-0.0356815 0.0405216 -3.68356e-19)
(-0.0304075 0.036362 -3.26197e-19)
(-0.0241238 0.0320888 8.15617e-20)
(-0.0169101 0.027893 -1.05919e-19)
(-0.00885335 0.0239972 4.539e-19)
(-7.65371e-05 0.0206734 -2.48743e-19)
(0.00923441 0.0182668 -7.80045e-19)
(0.0189165 0.0172875 -1.57391e-19)
(0.0288994 0.0185195 3.85047e-19)
(0.0377801 0.0222528 -3.3582e-19)
(-0.00815443 0.0120401 -5.87471e-20)
(-0.0207 0.0291872 4.26108e-19)
(-0.0304816 0.0406643 -5.43469e-19)
(-0.0374937 0.0478624 1.2561e-19)
(-0.0419382 0.0518182 -2.58769e-19)
(-0.0440818 0.0533247 5.76419e-19)
(-0.0441705 0.0530024 -4.11976e-19)
(-0.0424238 0.0513297 4.71343e-19)
(-0.0390338 0.0486722 -4.46918e-19)
(-0.0341659 0.0453101 1.90698e-19)
(-0.0279614 0.0414617 -9.25421e-20)
(-0.0205428 0.0373049 -2.32382e-19)
(-0.0120196 0.0329972 -2.87165e-19)
(-0.0024941 0.0286984 2.86164e-19)
(0.00792739 0.0245968 -2.39688e-19)
(0.0191063 0.0209349 -5.24222e-19)
(0.0308394 0.0180473 5.45799e-19)
(0.0429546 0.0164987 -6.96433e-19)
(0.0554035 0.0172806 3.1327e-19)
(0.0665299 0.0209104 8.40024e-21)
(-0.00901769 0.0123141 -5.32746e-19)
(-0.0225155 0.0296774 -5.75278e-19)
(-0.0325228 0.0411998 6.62879e-20)
(-0.0391735 0.0483568 -5.54841e-19)
(-0.0427684 0.0522468 -4.94006e-20)
(-0.043649 0.053705 -4.08144e-19)
(-0.0421218 0.0533791 -9.36367e-20)
(-0.0384549 0.0517638 -2.73665e-19)
(-0.0328809 0.049233 2.42331e-21)
(-0.0256008 0.0460687 -1.19745e-19)
(-0.0167903 0.0424843 8.50653e-21)
(-0.00660764 0.038645 -3.45079e-19)
(0.00479973 0.0346855 3.80387e-19)
(0.0172885 0.0307309 -5.39733e-19)
(0.030711 0.026921 1.91286e-19)
(0.0448885 0.0234374 7.30605e-21)
(0.0595764 0.0205492 -3.04793e-19)
(0.0745797 0.0187989 7.55945e-19)
(0.0899178 0.019337 -1.80631e-19)
(0.103722 0.0229119 -1.1745e-19)
(-0.00986171 0.0124725 5.98078e-19)
(-0.0241932 0.0298493 3.22961e-19)
(-0.0342275 0.0412619 3.00432e-19)
(-0.0402478 0.0482686 4.48521e-20)
(-0.0426576 0.0520297 4.06276e-19)
(-0.0418747 0.0534235 5.85606e-19)
(-0.0382654 0.0531261 4.79495e-19)
(-0.0321448 0.0516514 4.29034e-20)
(-0.0237845 0.0493866 3.51148e-19)
(-0.0134213 0.046623 5.42588e-19)
(-0.00126806 0.0435791 -1.40754e-19)
(0.0124747 0.0404197 2.3623e-19)
(0.0276089 0.0372705 1.90741e-19)
(0.04393 0.0342338 1.94062e-19)
(0.0612198 0.0314057 1.14856e-18)
(0.0792224 0.028894 -4.30532e-19)
(0.0976054 0.026852 -2.63384e-20)
(0.1161 0.0256898 5.001e-19)
(0.134831 0.0265859 -2.83724e-19)
(0.151872 0.0304383 1.40534e-19)
(-0.0106687 0.0125093 -4.83708e-19)
(-0.0256692 0.0296834 3.10199e-20)
(-0.0354766 0.0408206 -3.87285e-19)
(-0.040533 0.0475602 -5.04134e-20)
(-0.0413493 0.0511237 2.83512e-19)
(-0.0384193 0.0524328 -8.43969e-19)
(-0.0321672 0.0521927 -6.03204e-22)
(-0.0229524 0.050939 3.92757e-19)
(-0.0110827 0.049077 3.69019e-19)
(0.003171 0.0469151 -1.6247e-19)
(0.0195582 0.0446894 5.35729e-20)
(0.0378323 0.0425816 1.2426e-19)
(0.0577344 0.0407323 -5.88273e-20)
(0.0789801 0.0392511 -6.60189e-19)
(0.101248 0.0382248 1.67134e-19)
(0.124157 0.0377181 4.60496e-19)
(0.147213 0.0377669 -6.56404e-19)
(0.169969 0.0385598 3.20263e-19)
(0.192625 0.0411385 8.61349e-20)
(0.213544 0.0463697 4.37392e-19)
(-0.0114192 0.0124207 -7.14586e-20)
(-0.0268711 0.029166 -3.38995e-19)
(-0.0361341 0.0398562 1.55979e-19)
(-0.0398206 0.0462092 6.99834e-22)
(-0.038553 0.0495065 -6.79896e-19)
(-0.0329016 0.050712 1.06096e-19)
(-0.0233463 0.0505594 -2.01438e-20)
(-0.0102881 0.0496062 1.37248e-19)
(0.00593184 0.0482784 -6.28229e-19)
(0.0250107 0.0469069 -4.40336e-20)
(0.0466616 0.0457545 -1.47594e-19)
(0.0705918 0.0450367 1.31293e-19)
(0.0964794 0.044936 4.43324e-19)
(0.123951 0.0456137 -6.85292e-20)
(0.15256 0.0472173 2.65647e-20)
(0.18174 0.0498711 1.74776e-19)
(0.210724 0.053629 -4.31163e-20)
(0.238656 0.0586039 3.53709e-19)
(0.265528 0.065838 -2.04557e-19)
(0.290336 0.0758546 -3.25059e-19)
(-0.0120916 0.0122043 6.62599e-20)
(-0.0277158 0.0282896 1.61414e-20)
(-0.0360432 0.0383623 1.3595e-19)
(-0.0378709 0.0442158 3.32979e-19)
(-0.0339382 0.0471884 1.86844e-19)
(-0.024893 0.048284 1.94942e-20)
(-0.011271 0.0482617 -2.23053e-19)
(0.00648566 0.047698 5.71839e-20)
(0.0280019 0.0470372 3.00697e-19)
(0.0529422 0.0466304 -5.09543e-19)
(0.0809842 0.0467668 3.845e-19)
(0.111794 0.0476974 -2.89728e-19)
(0.145005 0.0496573 2.45943e-19)
(0.180189 0.0528867 -5.30614e-19)
(0.216831 0.0576558 5.8412e-19)
(0.254268 0.0642781 -6.24965e-19)
(0.29154 0.073104 -1.62778e-19)
(0.327327 0.0847589 5.12255e-19)
(0.360495 0.101178 -1.72507e-19)
(0.388108 0.122209 7.8027e-20)
(-0.01266 0.0118592 -5.01657e-20)
(-0.0281058 0.0270537 4.73377e-19)
(-0.0350218 0.0363489 -1.99399e-21)
(-0.0344079 0.0416081 -2.93851e-19)
(-0.0271287 0.0442221 -1.97627e-19)
(-0.0139138 0.0452304 3.62038e-19)
(0.00464104 0.0454117 -1.43396e-19)
(0.0280455 0.045355 -1.80657e-20)
(0.0558803 0.0455134 2.98786e-19)
(0.087764 0.0462457 -3.71187e-19)
(0.123325 0.0478483 4.0703e-20)
(0.162183 0.0505812 -4.82615e-19)
(0.203932 0.0546931 2.54247e-19)
(0.24814 0.0604508 -7.27802e-19)
(0.294356 0.0681775 1.16037e-18)
(0.342124 0.0783052 -2.12463e-19)
(0.391012 0.0914953 2.23004e-19)
(0.440918 0.109192 -5.78679e-19)
(0.49235 0.134408 2.61701e-21)
(0.537464 0.162655 6.64951e-19)
(-0.0130927 0.0113845 -1.52014e-19)
(-0.0279253 0.0254639 1.31354e-19)
(-0.0328573 0.0338433 -4.83605e-19)
(-0.0291151 0.0384462 7.15255e-19)
(-0.0177004 0.0407092 -5.16365e-19)
(0.000566027 0.041701 2.66382e-20)
(0.0250148 0.0422125 -5.56709e-19)
(0.0550881 0.0428343 3.98016e-19)
(0.0902942 0.0440139 -5.68695e-20)
(0.130169 0.0460962 -3.51216e-19)
(0.174247 0.049353 -2.04975e-19)
(0.222044 0.0540052 2.16561e-19)
(0.273056 0.0602418 1.43324e-19)
(0.326768 0.0682367 -6.34719e-19)
(0.382687 0.0781658 2.29011e-19)
(0.440382 0.0902182 -3.38579e-19)
(0.499552 0.104618 4.10686e-20)
(0.560257 0.121831 -2.89214e-19)
(0.623389 0.143029 1.20456e-19)
(0.681662 0.164003 -4.36845e-19)
(-0.0133492 0.0107789 4.32751e-19)
(-0.0270366 0.0235321 -2.62049e-19)
(-0.0293045 0.0308912 2.15929e-19)
(-0.0216355 0.0348236 -2.72597e-19)
(-0.00518572 0.0368018 4.56969e-19)
(0.0191143 0.0379159 -8.01518e-21)
(0.0504958 0.0389585 -5.56172e-20)
(0.0882956 0.0405083 -4.12324e-20)
(0.1319 0.0429888 2.53795e-19)
(0.180697 0.0467061 4.31531e-19)
(0.234053 0.0518755 -2.54923e-19)
(0.291293 0.0586391 2.47865e-19)
(0.351715 0.0670794 4.53033e-19)
(0.414604 0.077228 -3.17649e-19)
(0.479273 0.0890702 -6.4653e-19)
(0.545101 0.10254 1.1834e-18)
(0.611582 0.117501 -2.11183e-19)
(0.678407 0.133793 -6.8929e-20)
(0.745831 0.151756 7.47215e-19)
(0.808527 0.170333 -1.56765e-19)
(-0.0133791 0.0100409 -7.04672e-19)
(-0.0252782 0.0212773 -4.6911e-19)
(-0.0240859 0.0275572 -1.80082e-19)
(-0.0115768 0.030867 3.4739e-19)
(0.0109128 0.0327007 -7.84176e-19)
(0.0423115 0.0341588 4.06034e-19)
(0.0817076 0.0360212 5.14505e-20)
(0.128273 0.0388367 5.20035e-20)
(0.181196 0.042981 -5.31698e-19)
(0.239632 0.0486922 -1.87767e-19)
(0.302679 0.0560952 -3.31031e-19)
(0.36938 0.0652184 3.19754e-19)
(0.438737 0.0760063 9.09182e-20)
(0.509753 0.0883296 1.79056e-20)
(0.581467 0.101991 4.18234e-19)
(0.653008 0.116724 -4.23258e-19)
(0.723618 0.132184 -1.77185e-20)
(0.792691 0.147962 1.02597e-20)
(0.859937 0.163915 5.75501e-20)
(0.922322 0.181519 3.3259e-19)
(-0.0131204 0.00916954 2.24394e-19)
(-0.0224644 0.0187268 5.77963e-19)
(-0.0168959 0.0239257 4.63819e-19)
(0.00147649 0.0267352 -1.5985e-19)
(0.0310989 0.0286504 5.55856e-19)
(0.0707109 0.0307654 -4.6826e-20)
(0.119191 0.0338274 -6.59602e-20)
(0.17546 0.0383286 3.92608e-20)
(0.238411 0.0445645 5.3713e-19)
(0.306858 0.0526685 3.15585e-19)
(0.379534 0.0626366 9.2142e-20)
(0.45511 0.0743484 5.61835e-21)
(0.532237 0.0875861 -6.1222e-19)
(0.609604 0.102053 5.3194e-19)
(0.685996 0.117389 9.15376e-20)
(0.760339 0.133186 -1.50389e-19)
(0.831733 0.148989 -6.55109e-19)
(0.899476 0.164335 -5.60347e-20)
(0.963043 0.17876 2.59849e-19)
(1.02151 0.195399 -5.34782e-20)
(-0.0124995 0.0081661 -5.69621e-19)
(-0.0183887 0.0159197 2.38328e-19)
(-0.00740944 0.0201038 -1.1634e-18)
(0.0179451 0.0226196 4.76389e-19)
(0.0558511 0.0249343 -3.79889e-19)
(0.104787 0.0281116 2.80056e-19)
(0.163329 0.0328347 -4.34969e-19)
(0.230036 0.0395016 3.99333e-20)
(0.303384 0.0482842 -2.24068e-20)
(0.38174 0.0591646 1.16959e-19)
(0.463383 0.071967 1.68995e-19)
(0.546564 0.0863892 -3.19433e-19)
(0.629583 0.102035 1.69101e-19)
(0.71087 0.118447 1.55505e-19)
(0.789052 0.135137 6.73294e-19)
(0.863005 0.151609 -2.92091e-19)
(0.931872 0.167383 -1.95056e-19)
(0.995077 0.182039 3.28475e-19)
(1.05219 0.195 1.76505e-19)
(1.1037 0.210171 -3.3032e-19)
(-0.0114328 0.00703658 4.99104e-19)
(-0.0128283 0.0129112 4.81273e-19)
(0.00470537 0.0162246 1.38778e-19)
(0.038232 0.0187447 5.84566e-19)
(0.0855844 0.0218709 2.87094e-19)
(0.144883 0.0265998 -5.17489e-19)
(0.214276 0.0335068 7.83693e-19)
(0.291832 0.0428432 -3.85648e-19)
(0.375485 0.0546012 3.84941e-19)
(0.463058 0.0685587 4.98147e-19)
(0.552335 0.0843258 -2.84688e-19)
(0.641165 0.101395 5.40564e-20)
(0.727579 0.119194 3.01863e-19)
(0.809884 0.13713 2.1289e-19)
(0.886735 0.154635 4.91226e-19)
(0.957161 0.171197 -1.96104e-19)
(1.02056 0.18638 -2.38087e-20)
(1.0767 0.199865 3.11672e-19)
(1.12548 0.211154 -6.68098e-20)
(1.16824 0.224239 4.13376e-22)
(-0.00982832 0.00579446 -2.57679e-19)
(-0.00555229 0.0097779 -9.47105e-19)
(0.0197719 0.012452 2.22994e-19)
(0.0626953 0.0153697 -1.69744e-19)
(0.12061 0.0198084 -3.91733e-19)
(0.19115 0.0266457 -2.79565e-19)
(0.271893 0.0362878 -1.72696e-19)
(0.36027 0.0487725 4.19464e-19)
(0.453569 0.0638467 -2.49106e-19)
(0.549023 0.0810313 -2.55031e-19)
(0.643946 0.0996917 -3.22792e-19)
(0.735894 0.119114 -5.32895e-20)
(0.822799 0.138574 -3.59501e-20)
(0.90306 0.157401 -7.47842e-19)
(0.975587 0.175019 3.63248e-19)
(1.03978 0.190973 -4.77582e-19)
(1.0955 0.204942 1.50709e-19)
(1.14296 0.216753 -1.14711e-18)
(1.18258 0.226114 3.45582e-19)
(1.21605 0.236663 4.3898e-19)
(-0.00758901 0.00446339 -6.46836e-20)
(0.00366883 0.00662249 4.62243e-19)
(0.0380866 0.00898484 2.96208e-20)
(0.0916195 0.0127886 7.12866e-20)
(0.161095 0.0191179 -1.44923e-19)
(0.243506 0.0286609 -2.35652e-21)
(0.335698 0.0415749 -3.69816e-21)
(0.434339 0.0576047 -8.73776e-20)
(0.536012 0.0761858 3.0991e-19)
(0.637387 0.0965415 1.19873e-19)
(0.735434 0.117787 5.44296e-19)
(0.827615 0.139032 -1.48477e-19)
(0.912011 0.159465 1.03767e-19)
(0.987367 0.178414 -1.361e-20)
(1.05308 0.19538 2.87711e-19)
(1.1091 0.210042 1.76391e-19)
(1.15584 0.222251 4.25988e-19)
(1.19404 0.232004 -6.88571e-19)
(1.22458 0.239261 8.67636e-19)
(1.24932 0.247111 -2.75108e-19)
(-0.00461656 0.00307942 -6.02803e-19)
(0.0150515 0.00357761 -1.88074e-19)
(0.0598988 0.00605828 1.47064e-19)
(0.125186 0.011327 9.27005e-20)
(0.207025 0.0201828 9.48802e-20)
(0.301593 0.0330324 9.62375e-20)
(0.404851 0.0496893 -2.40757e-19)
(0.512624 0.0695213 -9.95885e-20)
(0.620803 0.0915979 3.08793e-20)
(0.725632 0.114832 -2.94987e-19)
(0.823963 0.138122 -1.33521e-19)
(0.913442 0.160471 8.07167e-19)
(0.992576 0.181069 -2.08175e-19)
(1.0607 0.199341 -2.87475e-19)
(1.11786 0.214947 -1.36799e-19)
(1.16466 0.227761 9.45478e-20)
(1.20208 0.237834 1.15787e-19)
(1.23132 0.245342 -5.55226e-19)
(1.25363 0.250472 8.04477e-19)
(1.27086 0.255737 -6.97719e-19)
(-0.000815399 0.00169256 -6.83199e-20)
(0.0287868 0.000807615 1.9586e-20)
(0.0853896 0.00394318 -2.48894e-20)
(0.163443 0.0113347 3.64055e-19)
(0.258172 0.0233819 1.99899e-20)
(0.364761 0.0400982 1.33644e-19)
(0.478172 0.0608485 -2.77561e-19)
(0.593376 0.0845488 -1.01244e-20)
(0.705707 0.109877 3.85605e-19)
(0.81122 0.135466 5.378e-20)
(0.906958 0.160072 -3.36144e-19)
(0.99106 0.182695 -2.95086e-20)
(1.06272 0.202637 -2.76639e-19)
(1.12204 0.21951 2.75313e-19)
(1.16978 0.233199 3.83055e-19)
(1.2072 0.243804 -4.22506e-20)
(1.23574 0.251577 -5.16605e-20)
(1.25693 0.256846 1.57437e-19)
(1.27226 0.25997 -5.07013e-19)
(1.28347 0.262949 4.46368e-19)
(0.0039027 0.000367396 6.84894e-20)
(0.045027 -0.00149209 -4.42173e-19)
(0.114651 0.00294056 1.18364e-19)
(0.206284 0.0131731 -3.66863e-19)
(0.314079 0.0290689 1.26116e-19)
(0.432076 0.0501207 -4.68352e-19)
(0.554192 0.0751437 1.88885e-19)
(0.674647 0.102555 -6.01024e-20)
(0.788462 0.130659 -2.42516e-21)
(0.89184 0.157887 6.15629e-20)
(0.982356 0.182969 -2.24358e-19)
(1.05893 0.205025 -3.20479e-19)
(1.12163 0.223574 -6.58093e-20)
(1.17138 0.238485 -2.95459e-20)
(1.20965 0.249899 -7.50103e-20)
(1.23821 0.258142 -2.44673e-20)
(1.25884 0.263634 -7.32646e-20)
(1.27326 0.266817 -6.35742e-20)
(1.28298 0.268157 -1.89481e-19)
(1.28962 0.26923 3.00882e-19)
(0.00961386 -0.000817116 1.64971e-19)
(0.0638724 -0.00309847 -1.83181e-19)
(0.147666 0.00337209 3.94151e-19)
(0.253424 0.0171975 -1.70054e-19)
(0.374054 0.0375479 4.54468e-19)
(0.502353 0.0632634 6.41339e-21)
(0.631248 0.0925299 2.28194e-19)
(0.75444 0.123261 -6.10521e-20)
(0.866986 0.153465 2.55058e-19)
(0.965618 0.181494 1.84867e-20)
(1.04877 0.206193 6.07658e-19)
(1.11634 0.226919 -4.19574e-19)
(1.16935 0.243489 5.64943e-20)
(1.20952 0.256068 1.07894e-19)
(1.23889 0.26505 5.66071e-19)
(1.25957 0.27095 -2.03411e-19)
(1.27353 0.274316 -4.03759e-20)
(1.28249 0.27565 -2.14158e-19)
(1.28792 0.275469 -2.26428e-20)
(1.29124 0.275021 1.07251e-19)
(0.016377 -0.00176879 -7.92872e-20)
(0.0853582 -0.00376704 2.28876e-19)
(0.184295 0.00556682 -2.34129e-19)
(0.304398 0.0237365 9.25547e-20)
(0.437192 0.0490504 -1.1047e-19)
(0.57422 0.0795755 4.05662e-19)
(0.707604 0.11283 -5.6436e-20)
(0.830878 0.146281 1.39253e-19)
(0.939549 0.177766 -8.19416e-20)
(1.03125 0.205719 -2.10984e-21)
(1.10551 0.229234 9.37367e-20)
(1.16332 0.248008 -7.26322e-20)
(1.20661 0.262198 1.88463e-19)
(1.23774 0.272264 -9.39367e-20)
(1.25918 0.27882 -4.14133e-19)
(1.27319 0.28252 4.11878e-19)
(1.28177 0.283985 -1.85745e-19)
(1.28652 0.283735 1.48335e-19)
(1.28877 0.282295 2.57452e-19)
(1.28975 0.28066 1.05774e-19)
(0.0242289 -0.00238431 1.97248e-19)
(0.109444 -0.0032403 -4.06429e-19)
(0.224265 0.00984508 7.77881e-20)
(0.358563 0.0330708 -5.6396e-20)
(0.502409 0.0637164 -2.27307e-19)
(0.646201 0.0989869 -1.78382e-19)
(0.781577 0.135754 -3.5041e-20)
(0.90234 0.171159 -3.18046e-19)
(1.00487 0.20304 -1.93444e-20)
(1.08801 0.230074 -5.91003e-20)
(1.15253 0.251729 -1.60503e-19)
(1.20047 0.268098 -3.56536e-20)
(1.23453 0.279687 -1.22917e-19)
(1.25756 0.287214 -2.05274e-19)
(1.27222 0.291463 2.10309e-19)
(1.2808 0.293173 2.90496e-20)
(1.28517 0.292986 5.7892e-20)
(1.28678 0.291403 -2.42551e-19)
(1.28675 0.288937 -6.04293e-21)
(1.28612 0.28638 -3.74528e-19)
(0.0331793 -0.00255215 2.16421e-19)
(0.136005 -0.00125838 1.443e-19)
(0.267164 0.016501 -2.32512e-19)
(0.415116 0.0454135 3.63087e-19)
(0.568499 0.0815825 -3.91065e-20)
(0.716815 0.121316 1.35574e-19)
(0.851652 0.160932 4.69301e-20)
(0.967561 0.197422 1.66293e-19)
(1.06218 0.228816 -1.30207e-19)
(1.13574 0.254186 4.33997e-20)
(1.19026 0.273458 -4.16741e-20)
(1.22872 0.287139 -1.83616e-20)
(1.25441 0.296054 3.48786e-20)
(1.27045 0.301129 -6.42939e-20)
(1.27953 0.303256 -1.97723e-20)
(1.28382 0.303206 -6.04906e-20)
(1.28501 0.301603 -9.83733e-20)
(1.28433 0.298906 6.35062e-20)
(1.28272 0.295603 -8.7203e-20)
(1.281 0.292318 3.76791e-19)
(0.0432071 -0.0021564 -1.08133e-19)
(0.164827 0.00242906 -3.06169e-19)
(0.312456 0.0257852 -4.07464e-20)
(0.473129 0.0608947 -1.10511e-20)
(0.634203 0.10258 -1.37064e-19)
(0.784667 0.14629 -2.24993e-19)
(0.91657 0.187949 7.36498e-20)
(1.02567 0.224618 -1.01198e-19)
(1.11114 0.254706 -1.13422e-19)
(1.17468 0.2778 6.31866e-20)
(1.21945 0.294324 -4.77613e-20)
(1.24919 0.30518 -9.66623e-20)
(1.26756 0.311461 -3.27814e-21)
(1.27776 0.314239 6.54709e-20)
(1.28237 0.314453 -6.68128e-20)
(1.28338 0.312865 9.27253e-20)
(1.28222 0.310051 2.49344e-20)
(1.27992 0.306414 6.28839e-20)
(1.27721 0.302416 1.22631e-19)
(1.27477 0.298536 -1.05064e-19)
(0.0542572 -0.00108126 1.03315e-19)
(0.195609 0.00805026 -9.18849e-21)
(0.359489 0.037889 4.62934e-20)
(0.531592 0.0795524 -6.28647e-20)
(0.698278 0.126542 5.14346e-21)
(0.848525 0.173565 2.18039e-19)
(0.975374 0.216378 -1.43254e-19)
(1.07618 0.252342 6.06628e-20)
(1.15181 0.280411 5.34848e-20)
(1.20537 0.300762 -1.50407e-19)
(1.24101 0.314316 1.41348e-19)
(1.263 0.322328 1.2461e-21)
(1.27517 0.32609 -9.96324e-20)
(1.28062 0.326755 1.20105e-19)
(1.28176 0.325263 -4.76677e-20)
(1.28031 0.322332 3.64589e-20)
(1.27745 0.31847 -4.07799e-20)
(1.27402 0.314025 -1.62973e-20)
(1.27059 0.309434 -1.4284e-19)
(1.26768 0.305042 4.37323e-20)
(0.066239 0.000783982 -3.48728e-20)
(0.227965 0.0157989 9.35057e-20)
(0.407521 0.052932 1.45653e-20)
(0.589457 0.101329 6.11219e-20)
(0.759563 0.153216 2.91468e-20)
(0.90737 0.202757 1.3661e-20)
(1.02742 0.245809 7.747e-20)
(1.11894 0.28025 -9.41038e-21)
(1.18451 0.305713 3.41541e-20)
(1.22853 0.322995 5.48867e-20)
(1.25591 0.333481 2.6486e-20)
(1.27121 0.338712 1.90137e-20)
(1.27825 0.34011 7.71106e-20)
(1.27995 0.338852 -7.46399e-20)
(1.27844 0.33584 1.60232e-20)
(1.27518 0.331724 -1.49949e-20)
(1.27114 0.326941 2.32202e-20)
(1.26695 0.321781 1.94533e-20)
(1.26305 0.316665 4.06257e-20)
(1.25985 0.311805 1.72004e-21)
(0.0790268 0.00353973 2.06713e-20)
(0.261436 0.0258229 1.88805e-20)
(0.455751 0.0709533 -2.61273e-20)
(0.645695 0.126077 1.63242e-20)
(0.817026 0.182282 9.2181e-21)
(0.960422 0.233463 -2.86743e-20)
(1.07234 0.275858 9.46196e-21)
(1.15405 0.308063 1.70253e-21)
(1.20976 0.330465 1.63172e-20)
(1.24496 0.344476 -4.37419e-20)
(1.26505 0.351888 -1.33472e-22)
(1.27472 0.354453 1.21194e-20)
(1.27763 0.353658 -9.65702e-21)
(1.27643 0.350656 9.77146e-21)
(1.27296 0.346282 2.54907e-20)
(1.26841 0.341106 -1.44988e-20)
(1.26356 0.335491 4.03857e-21)
(1.25888 0.32968 1.58829e-20)
(1.2547 0.324079 -2.61881e-20)
(1.25133 0.318772 1.25693e-20)
(0.0924624 0.00727092 5.76734e-20)
(0.295506 0.0382147 -3.13505e-20)
(0.503349 0.0919077 3.69039e-20)
(0.699333 0.153563 -2.74545e-20)
(0.869799 0.213372 -1.23087e-20)
(1.00714 0.26528 3.71998e-21)
(1.11004 0.306184 -1.20782e-20)
(1.18181 0.335552 4.34356e-20)
(1.22818 0.354566 -3.61601e-20)
(1.25542 0.36521 8.48317e-21)
(1.26927 0.36961 -6.32261e-21)
(1.27431 0.369653 -4.11561e-20)
(1.27397 0.366835 3.99126e-20)
(1.27058 0.362246 1.51878e-20)
(1.26569 0.356636 -1.51111e-20)
(1.26026 0.350493 3.5458e-20)
(1.25488 0.344109 -5.24971e-22)
(1.24991 0.337686 -3.43829e-20)
(1.24559 0.331624 2.54688e-20)
(1.24214 0.325871 8.01825e-21)
(0.106358 0.0120424 -2.02083e-20)
(0.329613 0.0530047 5.86127e-20)
(0.54949 0.115666 6.76995e-20)
(0.749494 0.183484 -3.19257e-20)
(0.917197 0.246084 5.55537e-20)
(1.04719 0.297815 8.78809e-20)
(1.14058 0.336483 -4.8333e-21)
(1.20265 0.362536 -1.50689e-20)
(1.24038 0.377947 7.44735e-20)
(1.26065 0.385211 3.62979e-20)
(1.26925 0.386704 -6.57622e-21)
(1.27059 0.384382 5.4071e-20)
(1.26776 0.379696 -5.79453e-20)
(1.26277 0.373653 9.02096e-20)
(1.2569 0.366907 -1.50465e-20)
(1.25089 0.359864 4.3056e-20)
(1.2452 0.352752 7.74387e-21)
(1.2401 0.345742 3.07891e-20)
(1.23574 0.339228 -2.93127e-20)
(1.23229 0.333022 7.0363e-21)
(0.120499 0.0178947 -3.1449e-20)
(0.363177 0.0701567 7.47216e-20)
(0.593385 0.142019 5.54889e-20)
(0.795416 0.21548 -8.4008e-21)
(0.958712 0.280002 8.63768e-20)
(1.08044 0.330694 -6.44508e-20)
(1.16419 0.366482 -5.02771e-21)
(1.21706 0.38886 5.69117e-20)
(1.24702 0.400553 1.80843e-20)
(1.26129 0.404485 2.52673e-20)
(1.2656 0.403205 -3.7294e-20)
(1.26405 0.398672 9.71587e-20)
(1.25937 0.39226 1.81127e-20)
(1.25326 0.384872 -8.5994e-20)
(1.24675 0.377065 1.25509e-19)
(1.24041 0.369169 -1.48028e-19)
(1.23458 0.361355 -6.78789e-20)
(1.22946 0.353772 1.12635e-20)
(1.22514 0.346807 6.59041e-20)
(1.22176 0.340136 -1.24096e-19)
(0.134655 0.0248407 -7.08764e-20)
(0.395614 0.0895665 -1.67143e-19)
(0.634303 0.170686 -1.44457e-19)
(0.836475 0.249145 -1.9667e-19)
(0.994008 0.3147 -1.11526e-19)
(1.10691 0.363562 -2.3121e-19)
(1.18119 0.395941 2.93748e-20)
(1.22553 0.414391 -1.22669e-19)