/*--------------------------------*- C++ -*----------------------------------*\
  =========                 |
  \\      /  F ield         | OpenFOAM: The Open Source CFD Toolbox
   \\    /   O peration     | Website:  https://openfoam.org
    \\  /    A nd           | Version:  6.0
     \\/     M anipulation  |
\*---------------------------------------------------------------------------*/
FoamFile
{
    version     2.0;
    format      ascii;
    class       volVectorField;
    location    "23";
    object      U;
}
// * * * * * * * * * * * * * * * * * * * * * * * * * * * * * * * * * * * * * //

dimensions      [0 1 -1 0 0 0 0];

internalField   nonuniform List<vector> 
4000
(
(-0.000486677 0.000492287 -3.48618e-21)
(-0.00265993 0.0012186 1.86345e-20)
(-0.0066734 0.00172072 -2.26646e-20)
(-0.0115979 0.00205094 1.72587e-20)
(-0.01695 0.00224901 8.40444e-21)
(-0.0224568 0.00234705 -2.52378e-20)
(-0.0279237 0.00237225 -2.23073e-21)
(-0.0332247 0.00234746 -7.91707e-22)
(-0.03829 0.0022917 -1.31006e-20)
(-0.0430905 0.00222086 -7.0976e-21)
(-0.047627 0.00214818 5.29308e-21)
(-0.0519214 0.00208452 2.01232e-20)
(-0.0560105 0.00203868 -1.50696e-21)
(-0.0599401 0.00201753 2.156e-21)
(-0.0637618 0.00202612 -2.02687e-20)
(-0.0675346 0.00206767 1.24887e-20)
(-0.0713173 0.00214374 -1.78935e-20)
(-0.0751137 0.00225533 2.70776e-20)
(-0.0788589 0.00240365 -3.0318e-23)
(-0.0829461 0.0025808 5.84752e-21)
(-0.000570822 0.00160487 1.1577e-20)
(-0.00286522 0.00398441 -5.91632e-20)
(-0.00695612 0.00564881 -4.08633e-20)
(-0.0119231 0.00676283 -2.77507e-20)
(-0.0172885 0.00745241 -3.57e-20)
(-0.022784 0.00781972 7.8565e-21)
(-0.0282185 0.0079515 -4.12114e-20)
(-0.0334685 0.00792052 -9.25645e-21)
(-0.0384664 0.00778754 2.92484e-21)
(-0.0431844 0.00760322 3.08025e-20)
(-0.0476244 0.00740962 -3.36006e-20)
(-0.0518092 0.00724133 4.67393e-20)
(-0.0557766 0.00712626 -3.50007e-20)
(-0.0595736 0.00708619 -4.15059e-20)
(-0.0632528 0.00713712 -5.71974e-20)
(-0.0668748 0.00728931 3.65287e-20)
(-0.0705003 0.00754771 -1.18135e-20)
(-0.0741345 0.00791535 -4.30155e-20)
(-0.0777123 0.00839568 4.06724e-20)
(-0.0816295 0.00896432 -3.02131e-20)
(-0.000740507 0.00270332 1.13168e-19)
(-0.00327852 0.00671428 5.8608e-20)
(-0.00752396 0.00952362 6.59115e-20)
(-0.0125746 0.0114068 5.48445e-21)
(-0.0179651 0.0125749 3.64295e-20)
(-0.0234363 0.0131991 4.54682e-20)
(-0.0288041 0.0134248 -8.26267e-20)
(-0.0339509 0.0133743 -4.37561e-20)
(-0.0388128 0.0131493 -5.69858e-20)
(-0.043365 0.012835 6.0833e-20)
(-0.0476116 0.0125023 -4.64637e-20)
(-0.0515773 0.0122098 -5.97803e-20)
(-0.0553016 0.0120049 -2.1767e-20)
(-0.0588335 0.0119251 2.0679e-20)
(-0.0622283 0.0119984 -5.74844e-21)
(-0.0655492 0.0122429 8.29069e-21)
(-0.0688609 0.0126679 9.59465e-20)
(-0.0721719 0.0132793 -1.34768e-20)
(-0.0754163 0.0140837 -9.75327e-20)
(-0.078996 0.01504 1.28564e-19)
(-0.000994195 0.00377822 3.93727e-20)
(-0.00389634 0.00938401 -5.56187e-20)
(-0.00837251 0.0133093 -1.39519e-20)
(-0.0135476 0.0159374 2.60825e-20)
(-0.0189751 0.0175626 7.40632e-20)
(-0.0244095 0.0184237 1.62156e-19)
(-0.029678 0.0187234 1.58449e-19)
(-0.0346712 0.0186318 1.31632e-20)
(-0.0393312 0.018291 9.71648e-20)
(-0.0436378 0.0178202 1.48723e-19)
(-0.0475979 0.0173188 -1.18837e-19)
(-0.0512391 0.0168697 1.75872e-19)
(-0.0546032 0.0165409 -3.98217e-20)
(-0.0577422 0.0163867 1.00467e-20)
(-0.0607148 0.0164483 4.15871e-20)
(-0.0635888 0.0167539 5.52628e-20)
(-0.0664346 0.0173186 -8.69714e-20)
(-0.069266 0.0181527 -7.25831e-20)
(-0.0720166 0.0192677 -1.28445e-19)
(-0.0750985 0.0206057 1.86967e-19)
(-0.00132965 0.00482113 -2.05708e-20)
(-0.00471333 0.0119713 -2.10571e-19)
(-0.00949456 0.0169724 -6.22847e-20)
(-0.0148339 0.0203123 -1.51781e-19)
(-0.0203098 0.0223657 5.73722e-20)
(-0.0256955 0.023437 -9.04862e-20)
(-0.0308332 0.0237841 3.11176e-20)
(-0.0356248 0.0236233 -1.91649e-19)
(-0.0400205 0.0231356 1.01104e-19)
(-0.0440058 0.0224727 -1.2057e-19)
(-0.0475916 0.0217627 -1.07225e-19)
(-0.0508085 0.0211128 -1.20057e-19)
(-0.0537015 0.0206124 1.08977e-19)
(-0.0563258 0.0203345 -9.78438e-20)
(-0.0587448 0.0203361 1.36244e-19)
(-0.0610321 0.0206575 3.93744e-20)
(-0.0632659 0.0213225 9.74607e-20)
(-0.0654675 0.0223485 4.2766e-20)
(-0.0675716 0.0237548 -1.69348e-19)
(-0.070005 0.0254663 2.75659e-19)
(-0.00174403 0.00582474 9.06778e-20)
(-0.0057222 0.014456 6.97727e-21)
(-0.0108797 0.0204825 3.73561e-20)
(-0.0164207 0.0244926 1.3035e-19)
(-0.0219547 0.0269389 -1.99563e-20)
(-0.0272792 0.0281886 2.11674e-19)
(-0.0322553 0.028552 9.39497e-20)
(-0.0367991 0.0282891 7.8981e-21)
(-0.0408712 0.0276176 2.41583e-19)
(-0.0444639 0.0267205 7.91583e-20)
(-0.0475931 0.0257533 3.75518e-20)
(-0.0502926 0.0248477 1.1918e-19)
(-0.0526106 0.0241156 1.09242e-19)
(-0.0546061 0.0236505 1.99429e-19)
(-0.0563473 0.0235281 -1.78252e-19)
(-0.057915 0.0238047 2.51959e-19)
(-0.0593974 0.0245165 3.29909e-21)
(-0.0608261 0.0256922 -3.22019e-19)
(-0.0621392 0.027363 4.17431e-19)
(-0.0637849 0.0294379 1.73016e-19)
(-0.00223399 0.0067828 -5.3438e-20)
(-0.00691361 0.0168203 -9.7001e-20)
(-0.0125134 0.0238121 -2.01863e-19)
(-0.0182889 0.0284437 -5.98361e-21)
(-0.0238874 0.0312425 3.44457e-20)
(-0.0291354 0.0326353 -2.57771e-19)
(-0.0339175 0.0329815 -1.91238e-19)
(-0.0381675 0.0325816 -2.73563e-20)
(-0.0418583 0.0316871 -2.41898e-19)
(-0.0449906 0.03051 -1.67483e-19)
(-0.0475856 0.0292314 -4.88106e-20)
(-0.0496807 0.0280073 -1.57167e-19)
(-0.0513269 0.0269725 -2.56254e-21)
(-0.0525866 0.0262432 -2.08716e-19)
(-0.0535333 0.0259171 8.77935e-20)
(-0.0542557 0.0260711 -1.00165e-19)
(-0.0548541 0.0267597 7.67251e-20)
(-0.0553732 0.0280288 -9.76536e-20)
(-0.0557586 0.0299285 -2.79009e-19)
(-0.056489 0.0323536 -8.47905e-20)
(-0.00279563 0.00768988 -1.96668e-20)
(-0.00827575 0.0190477 -2.13588e-20)
(-0.0143762 0.026936 1.69246e-19)
(-0.0204119 0.0321343 -2.75416e-19)
(-0.0260742 0.0352418 4.04043e-20)
(-0.0312248 0.0367411 -1.59096e-19)
(-0.0357759 0.037037 7.51839e-20)
(-0.0396826 0.0364669 3.37933e-19)
(-0.0429328 0.0353119 -2.16778e-20)
(-0.0455369 0.03381 -2.52103e-19)
(-0.0475223 0.0321652 4.58056e-20)
(-0.0489297 0.030556 8.88233e-21)
(-0.0498124 0.0291403 -5.17618e-20)
(-0.0502355 0.0280584 5.23531e-21)
(-0.0502772 0.0274338 4.54735e-19)
(-0.0500346 0.0273699 -6.47477e-20)
(-0.0496214 0.0279463 -1.26308e-19)
(-0.049099 0.0292352 -2.26596e-19)
(-0.0484254 0.0313158 2.31154e-19)
(-0.0481229 0.0340735 9.97035e-20)
(-0.00342439 0.00854091 9.93089e-20)
(-0.00979389 0.0211228 -1.29929e-19)
(-0.0164426 0.0298307 1.83696e-19)
(-0.0227529 0.0355359 1.84926e-19)
(-0.0284677 0.0389063 1.70473e-19)
(-0.0334891 0.0404767 3.4569e-19)
(-0.0377626 0.0406933 2.23548e-19)
(-0.0412679 0.0399253 -4.80374e-19)
(-0.0440109 0.0384796 2.45677e-19)
(-0.0460139 0.0366149 1.92787e-19)
(-0.0473108 0.034555 -2.73974e-21)
(-0.047946 0.0324976 2.15812e-19)
(-0.0479742 0.030622 1.68253e-19)
(-0.0474621 0.0290934 -9.15211e-20)
(-0.046491 0.028064 3.09264e-19)
(-0.0451661 0.0276696 -3.83367e-19)
(-0.0436158 0.0280243 1.53448e-19)
(-0.0419209 0.0292388 1.97319e-19)
(-0.0400583 0.031436 -4.59702e-20)
(-0.0386116 0.0345012 3.96516e-19)
(-0.00411484 0.00933065 1.99556e-19)
(-0.0114497 0.0230299 1.03504e-20)
(-0.0186796 0.0324729 -7.16264e-20)
(-0.0252635 0.0386211 -7.56605e-20)
(-0.0310031 0.0422081 -3.50386e-19)
(-0.0358474 0.0438178 4.96172e-20)
(-0.0397798 0.0439331 1.40584e-19)
(-0.0428094 0.0429504 -6.76209e-20)
(-0.0449633 0.0411967 5.5781e-20)
(-0.0462777 0.0389466 -1.47876e-20)
(-0.046795 0.0364378 -7.28631e-20)
(-0.0465633 0.0338826 6.91846e-20)
(-0.0456383 0.031478 -3.00779e-19)
(-0.0440867 0.0294124 2.88352e-19)
(-0.0419914 0.0278682 -2.49763e-19)
(-0.0394637 0.0270187 7.71482e-20)
(-0.0366469 0.0270228 1.75562e-19)
(-0.0336435 0.0280452 -3.65183e-20)
(-0.0304563 0.030274 -1.21455e-19)
(-0.0277546 0.0336095 -8.26156e-20)
(-0.00486035 0.0100532 -2.4858e-19)
(-0.0132203 0.0247521 -1.6362e-20)
(-0.0210454 0.034838 5.23523e-20)
(-0.0278812 0.0413614 1.34611e-19)
(-0.0335957 0.0451196 -1.9004e-19)
(-0.0381908 0.0467422 -1.6584e-19)
(-0.0416935 0.0467446 3.87094e-19)
(-0.0441468 0.0455456 -2.13897e-19)
(-0.0456025 0.0434867 -1.37983e-19)
(-0.0461142 0.0408524 -1.97994e-19)
(-0.045735 0.0378875 1.31074e-19)
(-0.0445178 0.0348123 -3.53654e-21)
(-0.0425198 0.0318351 -2.44782e-19)
(-0.0398062 0.0291625 -4.00446e-19)
(-0.0364596 0.0270049 3.05084e-19)
(-0.0325952 0.0255759 -2.47204e-19)
(-0.0283698 0.0250882 3.50476e-19)
(-0.0239084 0.0257787 -9.81869e-20)
(-0.019246 0.0279296 2.06343e-19)
(-0.0151697 0.0314813 -7.00843e-19)
(-0.00565279 0.0107018 -5.03447e-19)
(-0.0150779 0.0262704 3.30123e-19)
(-0.0234889 0.0368991 4.48968e-20)
(-0.0305284 0.0437261 8.68524e-21)
(-0.0361384 0.0476109 -2.03571e-19)
(-0.04038 0.0492262 2.99362e-19)
(-0.0433287 0.0491164 3.2677e-20)
(-0.0450662 0.0477185 -6.13877e-20)
(-0.0456734 0.0453834 -1.97055e-19)
(-0.0452249 0.0423991 2.13006e-19)
(-0.0437877 0.0390105 5.40068e-19)
(-0.0414229 0.0354375 -1.19307e-19)
(-0.0381903 0.0318906 2.69628e-19)
(-0.0341545 0.0285851 -3.18507e-19)
(-0.0293962 0.0257524 -3.05427e-19)
(-0.0240321 0.0236431 1.83628e-19)
(-0.0182299 0.0225282 3.03399e-19)
(-0.0121358 0.0227346 -9.83152e-19)
(-0.00581967 0.024675 1.15441e-19)
(-0.000227568 0.028367 1.5703e-19)
(-0.00648223 0.0112684 3.72803e-19)
(-0.0169891 0.0275637 1.22644e-19)
(-0.0259483 0.0386257 6.38896e-19)
(-0.0331112 0.04568 3.28816e-20)
(-0.0385006 0.0496469 -7.10582e-20)
(-0.0422425 0.0512406 -3.38388e-19)
(-0.044466 0.0510324 2.87764e-19)
(-0.0452954 0.0494738 5.16309e-19)
(-0.0448451 0.0469215 3.43998e-19)
(-0.0432152 0.043662 2.48368e-19)
(-0.0404914 0.0399338 2.14131e-19)
(-0.0367471 0.0359475 -3.84505e-19)
(-0.0320494 0.0319046 -1.20447e-19)
(-0.0264655 0.0280163 -8.8728e-20)
(-0.0200751 0.0245205 9.50754e-19)
(-0.0129959 0.0216929 -3.23339e-21)
(-0.00540377 0.0198574 -2.36975e-19)
(0.00253835 0.0194415 -7.4703e-20)
(0.0107293 0.0210282 6.80014e-19)
(0.0180177 0.0247626 8.91316e-20)
(-0.00733688 0.0117441 -1.83768e-20)
(-0.0189143 0.0286084 -3.52697e-19)
(-0.0283514 0.0399839 -5.24729e-19)
(-0.0355187 0.0471826 -1.4602e-19)
(-0.0405272 0.0511856 8.06311e-20)
(-0.0435723 0.0527476 1.73605e-20)
(-0.0448402 0.0524655 4.60477e-19)
(-0.0445018 0.0508043 -5.71098e-19)
(-0.0427085 0.0481245 -2.17237e-19)
(-0.0395903 0.0447086 -4.37818e-19)
(-0.0352569 0.0407844 -3.72921e-19)
(-0.0298013 0.0365463 -3.30236e-19)
(-0.0233049 0.0321764 8.25714e-20)
(-0.015845 0.0278663 -1.07229e-19)
(-0.00750708 0.0238404 4.59479e-19)
(0.00158746 0.0203761 -2.51807e-19)
(0.0112535 0.0178283 -7.89553e-19)
(0.0213174 0.0167184 -1.59301e-19)
(0.0316632 0.017833 3.89717e-19)
(0.0408893 0.0215031 -3.39732e-19)
(-0.00820314 0.01212 -5.94816e-20)
(-0.0208082 0.0293797 4.31396e-19)
(-0.0306148 0.0409372 -5.50205e-19)
(-0.0376235 0.0481893 1.2717e-19)
(-0.0420391 0.0521779 -2.61972e-19)
(-0.0441299 0.0536989 5.83547e-19)
(-0.0441419 0.0533747 -4.17075e-19)
(-0.0422944 0.0516844 4.77181e-19)
(-0.0387784 0.0489932 -4.52453e-19)
(-0.0337577 0.0455804 1.93061e-19)
(-0.0273715 0.0416632 -9.3689e-20)
(-0.0197404 0.0374179 -2.35264e-19)
(-0.0109712 0.0330008 -2.90724e-19)
(-0.00116423 0.0285711 2.89703e-19)
(0.00957578 0.0243181 -2.42647e-19)
(0.0211113 0.0204882 -5.3065e-19)
(0.0332396 0.0174258 5.5247e-19)
(0.045778 0.0157082 -7.04916e-19)
(0.0586294 0.016333 3.17055e-19)
(0.0701191 0.019866 8.25476e-21)
(-0.00906583 0.0123872 -5.39361e-19)
(-0.0226194 0.0298531 -5.82397e-19)
(-0.0326444 0.0414482 6.71112e-20)
(-0.0392809 0.0486531 -5.61687e-19)
(-0.0428327 0.0525704 -5.0004e-20)
(-0.0436431 0.0540383 -4.13183e-19)
(-0.0420188 0.053706 -9.47927e-20)
(-0.0382276 0.0520685 -2.77047e-19)
(-0.032501 0.0494994 2.45491e-21)
(-0.0250384 0.0462795 -1.21228e-19)
(-0.0160137 0.0426209 8.61258e-21)
(-0.00558289 0.0386867 -3.49362e-19)
(0.00610849 0.0346099 3.85103e-19)
(0.018919 0.0305144 -5.46434e-19)
(0.0327021 0.0265397 1.93647e-19)
(0.0472794 0.0228701 7.38598e-21)
(0.062406 0.0197829 -3.08536e-19)
(0.0778761 0.017834 7.65156e-19)
(0.0936591 0.0181821 -1.82832e-19)
(0.107845 0.0216296 -1.18722e-19)
(-0.00990847 0.0125383 6.05481e-19)
(-0.0242907 0.030006 3.26949e-19)
(-0.034334 0.0414821 3.04139e-19)
(-0.0403277 0.0485291 4.54054e-20)
(-0.0426789 0.052311 4.11279e-19)
(-0.0418065 0.0537088 5.92824e-19)
(-0.0380773 0.0533998 4.85404e-19)
(-0.031806 0.0518983 4.34393e-20)
(-0.023263 0.049591 3.55492e-19)
(-0.0126838 0.0467679 5.49308e-19)
(-0.000279395 0.043646 -1.42502e-19)
(0.0137516 0.0403881 2.39162e-19)
(0.0292126 0.0371179 1.93112e-19)
(0.0459006 0.0339358 1.96472e-19)
(0.0635977 0.030937 1.16282e-18)
(0.0820475 0.0282308 -4.35872e-19)
(0.100916 0.0259774 -2.66622e-20)
(0.119925 0.0245995 5.0619e-19)
(0.139146 0.025286 -2.87147e-19)
(0.156592 0.028991 1.42096e-19)
(-0.0107133 0.0125676 -4.89671e-19)
(-0.0257579 0.0298199 3.13879e-20)
(-0.035564 0.04101 -3.92029e-19)
(-0.0405799 0.047781 -5.1032e-20)
(-0.0413197 0.0513577 2.86986e-19)
(-0.0382785 0.0526641 -8.54336e-19)
(-0.031881 0.0524068 -6.23486e-22)
(-0.022486 0.0511213 3.97597e-19)
(-0.0104002 0.0492126 3.73577e-19)
(0.00410666 0.0469878 -1.64475e-19)
(0.0207857 0.0446812 5.424e-20)
(0.0393915 0.0424727 1.25805e-19)
(0.0596664 0.0405008 -5.95568e-20)
(0.0813263 0.0388728 -6.68411e-19)
(0.10405 0.0376744 1.69218e-19)
(0.127453 0.0369708 4.66182e-19)
(0.151042 0.036804 -6.6447e-19)
(0.174357 0.037375 3.24181e-19)
(0.197554 0.0397397 8.71704e-20)
(0.218908 0.0448201 4.42186e-19)
(-0.0114612 0.0124714 -7.2321e-20)
(-0.0269487 0.0292815 -3.43142e-19)
(-0.036198 0.0400131 1.57895e-19)
(-0.0398278 0.0463877 7.19749e-22)
(-0.0384634 0.0496896 -6.88215e-19)
(-0.0326763 0.0508853 1.07395e-19)
(-0.0229469 0.0507093 -2.03944e-20)
(-0.00967571 0.0497192 1.38938e-19)
(0.00679694 0.0483404 -6.35978e-19)
(0.0261691 0.0469025 -4.45882e-20)
(0.0481547 0.0456669 -1.49433e-19)
(0.0724613 0.0448466 1.3292e-19)
(0.0987671 0.0446221 4.48845e-19)
(0.126698 0.0451521 -6.93836e-20)
(0.155805 0.0465819 2.68969e-20)
(0.185522 0.0490352 1.7693e-19)
(0.215077 0.0525701 -4.36586e-20)
(0.24361 0.0573112 3.57949e-19)
(0.271072 0.0643194 -2.07095e-19)
(0.296354 0.0741828 -3.28823e-19)
(-0.0121303 0.0122477 6.70708e-20)
(-0.0277797 0.028384 1.63501e-20)
(-0.0360789 0.0384861 1.37607e-19)
(-0.0378308 0.0443505 3.37038e-19)
(-0.033778 0.0473189 1.89128e-19)
(-0.0245693 0.0483971 1.97339e-20)
(-0.010741 0.0483452 -2.25785e-19)
(0.00726482 0.0477396 5.78813e-20)
(0.0290734 0.0470238 3.04404e-19)
(0.0543489 0.046548 -5.15835e-19)
(0.0827686 0.0465992 3.89262e-19)
(0.113998 0.0474264 -2.93325e-19)
(0.147666 0.0492614 2.49001e-19)
(0.183343 0.0523412 -5.37212e-19)
(0.220512 0.056932 5.91364e-19)
(0.258504 0.0633433 -6.32695e-19)
(0.29636 0.071923 -1.6476e-19)
(0.332759 0.0832967 5.18334e-19)
(0.366552 0.099413 -1.74623e-19)
(0.394699 0.120215 7.86086e-20)
(-0.0126948 0.0118955 -5.07701e-20)
(-0.0281532 0.0271272 4.79103e-19)
(-0.0350235 0.0364395 -2.0126e-21)
(-0.0343116 0.0416991 -2.97415e-19)
(-0.0268852 0.0443001 -2.00025e-19)
(-0.0134751 0.0452836 3.66439e-19)
(0.00532181 0.0454296 -1.4514e-19)
(0.0290148 0.0453268 -1.82848e-20)
(0.0571837 0.0454276 3.02463e-19)
(0.0894451 0.0460895 -3.75753e-19)
(0.125425 0.0476069 4.12113e-20)
(0.164738 0.0502372 -4.88592e-19)
(0.206972 0.0542257 2.57397e-19)
(0.251689 0.0598347 -7.36795e-19)
(0.298428 0.0673819 1.17461e-18)
(0.346721 0.0772916 -2.15105e-19)
(0.396128 0.0902144 2.25545e-19)
(0.446528 0.107577 -5.85321e-19)
(0.498417 0.132397 2.88586e-21)
(0.543877 0.160336 6.70735e-19)
(-0.0131229 0.011414 -1.53827e-19)
(-0.0279528 0.0255169 1.32912e-19)
(-0.0328183 0.0339015 -4.89414e-19)
(-0.028952 0.0384947 7.23865e-19)
(-0.0173589 0.0407363 -5.22594e-19)
(0.00113837 0.0416971 2.69663e-20)
(0.025869 0.0421687 -5.63481e-19)
(0.0562731 0.0427418 4.02871e-19)
(0.0918564 0.043863 -5.75575e-20)
(0.13215 0.0458759 -3.55535e-19)
(0.176683 0.0490502 -2.07511e-19)
(0.224962 0.0536043 2.19244e-19)
(0.276473 0.0597237 1.45092e-19)
(0.33069 0.0675786 -6.42486e-19)
(0.387102 0.0773398 2.31833e-19)
(0.445265 0.0891909 -3.42639e-19)
(0.504858 0.103349 4.15627e-20)
(0.565917 0.120268 -2.92368e-19)
(0.629312 0.14112 1.21296e-19)
(0.687771 0.16181 -4.40898e-19)
(-0.0133738 0.0108018 4.37918e-19)
(-0.0270402 0.0235652 -2.65202e-19)
(-0.0292168 0.0309182 2.18527e-19)
(-0.0213934 0.0348317 -2.75883e-19)
(-0.00472969 0.0367815 4.62458e-19)
(0.0198411 0.0378597 -8.0998e-21)
(0.0515474 0.0388596 -5.62927e-20)
(0.0897223 0.0403601 -4.1736e-20)
(0.133746 0.0427836 2.56898e-19)
(0.183 0.0464348 4.36838e-19)
(0.236839 0.0515269 -2.58053e-19)
(0.294577 0.0581993 2.50923e-19)
(0.355494 0.0665314 4.58594e-19)
(0.418862 0.0765514 -3.21544e-19)
(0.483973 0.0882414 -6.54237e-19)
(0.55019 0.101532 1.1973e-18)
(0.616986 0.116285 -2.13687e-19)
(0.684033 0.132336 -6.96714e-20)
(0.751565 0.150019 7.54244e-19)
(0.814311 0.168357 -1.58585e-19)
(-0.0133967 0.0100573 -7.13014e-19)
(-0.0252528 0.021291 -4.74662e-19)
(-0.0239405 0.0275545 -1.82214e-19)
(-0.0112421 0.0308376 3.51522e-19)
(0.0115013 0.0326375 -7.93549e-19)
(0.0432145 0.0340567 4.10922e-19)
(0.0829807 0.0358759 5.20747e-20)
(0.129965 0.0386436 5.26491e-20)
(0.183347 0.0427343 -5.38176e-19)
(0.242269 0.0483844 -1.90057e-19)
(0.305815 0.0557163 -3.35083e-19)
(0.37301 0.0647554 3.23674e-19)
(0.442838 0.0754433 9.20073e-20)
(0.514281 0.0876477 1.81035e-20)
(0.586362 0.101169 4.23092e-19)
(0.65819 0.115739 -4.28257e-19)
(0.728994 0.131013 -1.78927e-20)
(0.798155 0.146585 1.05123e-20)
(0.865371 0.162305 5.83449e-20)
(0.927669 0.17969 3.35445e-19)
(-0.0131293 0.00917939 2.27037e-19)
(-0.0224045 0.0187218 5.84763e-19)
(-0.0166824 0.0238952 4.69273e-19)
(0.00191855 0.026672 -1.61743e-19)
(0.0318387 0.0285499 5.62493e-19)
(0.0718113 0.0306253 -4.73895e-20)
(0.120707 0.0336456 -6.67523e-20)
(0.177436 0.0381024 3.97361e-20)
(0.240877 0.0442895 5.43657e-19)
(0.309827 0.0523379 3.19443e-19)
(0.382999 0.0622405 9.32773e-20)
(0.459043 0.0738735 5.6989e-21)
(0.536589 0.0870159 -6.19598e-19)
(0.614307 0.101368 5.38366e-19)
(0.690964 0.11657 9.25763e-20)
(0.765476 0.132211 -1.52179e-19)
(0.836933 0.14784 -6.62239e-19)
(0.904631 0.162998 -5.64802e-20)
(0.968041 0.177219 2.62395e-19)
(1.0263 0.193647 -5.38614e-20)
(-0.0124976 0.00816934 -5.76236e-19)
(-0.0182876 0.0158965 2.41097e-19)
(-0.00711696 0.0200477 -1.17701e-18)
(0.0185097 0.0225266 4.82005e-19)
(0.0567602 0.024803 -3.84383e-19)
(0.106104 0.027942 2.83374e-19)
(0.165104 0.0326269 -4.40175e-19)
(0.232305 0.0392543 4.04093e-20)
(0.306163 0.0479932 -2.26841e-20)
(0.38502 0.0588226 1.18387e-19)
(0.467133 0.0715626 1.71041e-19)
(0.55073 0.0859073 -3.23289e-19)
(0.634091 0.101457 1.71167e-19)
(0.715628 0.117753 1.57362e-19)
(0.793959 0.134306 6.80981e-19)
(0.867953 0.150623 -2.95511e-19)
(0.936755 0.166226 -1.97103e-19)
(0.999796 0.180701 3.31817e-19)
(1.05665 0.193476 1.77974e-19)
(1.10786 0.208439 -3.33546e-19)
(-0.0114176 0.00703312 5.04834e-19)
(-0.0126788 0.0128707 4.86791e-19)
(0.00508849 0.0161454 1.40402e-19)
(0.038934 0.0186266 5.91383e-19)
(0.0866793 0.0217156 2.90478e-19)
(0.146431 0.0264098 -5.23619e-19)
(0.21632 0.0332836 7.93027e-19)
(0.294392 0.0425857 -3.90253e-19)
(0.378556 0.0543044 3.89569e-19)
(0.466608 0.0682129 5.04145e-19)
(0.556304 0.0839168 -2.88123e-19)
(0.645474 0.100905 5.47145e-20)
(0.732129 0.118601 3.05449e-19)
(0.81457 0.136413 2.15375e-19)
(0.891446 0.153774 4.96762e-19)
(0.961792 0.170176 -1.98425e-19)
(1.02502 0.185186 -2.41828e-20)
(1.0809 0.198495 3.14755e-19)
(1.12937 0.209612 -6.7527e-20)
(1.17178 0.222495 3.83366e-22)
(-0.00979686 0.00578428 -2.60622e-19)
(-0.00534658 0.00972113 -9.57925e-19)
(0.0202573 0.0123529 2.25559e-19)
(0.0635486 0.015232 -1.71705e-19)
(0.121904 0.0196367 -3.96304e-19)
(0.192938 0.0264446 -2.82886e-19)
(0.274204 0.0360592 -1.74756e-19)
(0.363103 0.0485141 4.24446e-19)
(0.456895 0.0635511 -2.52072e-19)
(0.552781 0.080685 -2.58107e-19)
(0.648051 0.0992765 -3.26636e-19)
(0.740241 0.118608 -5.39204e-20)
(0.827275 0.137955 -3.64168e-20)
(0.907554 0.156647 -7.56487e-19)
(0.979993 0.174112 3.67283e-19)
(1.04401 0.1899 -4.82916e-19)
(1.09948 0.203697 1.52215e-19)
(1.14663 0.215338 -1.15864e-18)
(1.18591 0.22454 3.49105e-19)
(1.21902 0.2349 4.42955e-19)
(-0.00753826 0.00444665 -6.54317e-20)
(0.00393853 0.00655106 4.6744e-19)
(0.0386852 0.00886941 2.99601e-20)
(0.0926359 0.0126372 7.20986e-20)
(0.162597 0.0189379 -1.46578e-19)
(0.245535 0.0284577 -2.39661e-21)
(0.338263 0.0413498 -3.75277e-21)
(0.437416 0.0573527 -8.84134e-20)
(0.539541 0.075895 3.13581e-19)
(0.641278 0.0961938 1.21277e-19)
(0.73958 0.11736 5.50711e-19)
(0.831896 0.138501 -1.50201e-19)
(0.916309 0.158807 1.04959e-19)
(0.991575 0.177609 -1.37356e-20)
(1.0571 0.194414 2.90957e-19)
(1.11288 0.208909 1.78297e-19)
(1.15932 0.22095 4.30362e-19)
(1.1972 0.230544 -6.95503e-19)
(1.22742 0.237659 8.76076e-19)
(1.25183 0.245342 -2.77725e-19)
(-0.00454331 0.00305654 -6.09461e-19)
(0.0153929 0.00349375 -1.90197e-19)
(0.0606205 0.00593113 1.48693e-19)
(0.126374 0.0111687 9.37358e-20)
(0.208738 0.0200028 9.5988e-20)
(0.303855 0.032836 9.73406e-20)
(0.407647 0.0494752 -2.43563e-19)
(0.515899 0.0692799 -1.00744e-19)
(0.624469 0.0913121 3.12381e-20)
(0.729575 0.114479 -2.98448e-19)
(0.828058 0.137675 -1.3508e-19)
(0.917565 0.159904 8.16494e-19)
(0.996615 0.180362 -2.10599e-19)
(1.06456 0.198478 -2.9071e-19)
(1.12148 0.21392 -1.38253e-19)
(1.16799 0.22657 9.55989e-20)
(1.20511 0.236488 1.16961e-19)
(1.23403 0.243853 -5.60794e-19)
(1.25605 0.248859 8.12309e-19)
(1.273 0.253983 -7.0439e-19)
(-0.000716439 0.00166425 -6.90339e-20)
(0.029207 0.000714328 1.97848e-20)
(0.0862425 0.00380976 -2.51783e-20)
(0.164808 0.0111771 3.68113e-19)
(0.260093 0.0232105 2.02409e-20)
(0.367239 0.0399164 1.35159e-19)
(0.481164 0.0606508 -2.80752e-19)
(0.596796 0.0843198 -1.02419e-20)
(0.709439 0.109594 3.90066e-19)
(0.815134 0.135101 5.44006e-20)
(0.910921 0.159597 -3.40012e-19)
(0.994954 0.182086 -2.986e-20)
(1.06645 0.201877 -2.79738e-19)
(1.12553 0.21859 2.78426e-19)
(1.173 0.232119 3.87239e-19)
(1.21012 0.24257 -4.27057e-20)
(1.23837 0.250202 -5.21802e-20)
(1.25929 0.255347 1.59033e-19)
(1.27436 0.258367 -5.11933e-19)
(1.28535 0.261232 4.5076e-19)
(0.00403048 0.000334724 6.92537e-20)
(0.0455323 -0.00159102 -4.46974e-19)
(0.115641 0.00280716 1.19639e-19)
(0.207826 0.0130242 -3.70936e-19)
(0.316198 0.0289142 1.27529e-19)
(0.434745 0.0499601 -4.73618e-19)
(0.557336 0.0749658 1.91028e-19)
(0.678152 0.102337 -6.07983e-20)
(0.792191 0.130373 -2.4597e-21)
(0.895652 0.157503 6.22679e-20)
(0.986124 0.18246 -2.26884e-19)
(1.06255 0.20437 -3.24072e-19)
(1.12503 0.222762 -6.65304e-20)
(1.17451 0.237515 -2.98699e-20)
(1.21251 0.248779 -7.58196e-20)
(1.24078 0.256882 -2.47246e-20)
(1.26115 0.262252 -7.40304e-20)
(1.27533 0.265331 -6.42267e-20)
(1.28484 0.266586 -1.91347e-19)
(1.2913 0.26757 3.03788e-19)
(0.00977331 -0.000852724 1.66716e-19)
(0.0644677 -0.00319853 -1.85133e-19)
(0.148796 0.00324573 3.98384e-19)
(0.25514 0.0170654 -1.71914e-19)
(0.376355 0.0374175 4.59452e-19)
(0.505181 0.0631291 6.51019e-21)
(0.634495 0.0923728 2.3073e-19)
(0.757969 0.123053 -6.17628e-20)
(0.870647 0.153172 2.57922e-19)
(0.969273 0.181086 1.86837e-20)
(1.0523 0.205646 6.14429e-19)
(1.11967 0.22622 -4.24221e-19)
(1.17243 0.242634 5.71289e-20)
(1.21233 0.255063 1.09091e-19)
(1.24143 0.263907 5.72138e-19)
(1.26186 0.269686 -2.05586e-19)
(1.27559 0.272948 -4.07954e-20)
(1.28436 0.274197 -2.16324e-19)
(1.28962 0.273948 -2.28521e-20)
(1.29279 0.273431 1.08315e-19)
(0.0165706 -0.00180557 -8.00866e-20)
(0.086047 -0.00386299 2.31245e-19)
(0.185564 0.00545497 -2.36635e-19)
(0.306278 0.0236293 9.35124e-20)
(0.43965 0.0489509 -1.11691e-19)
(0.577166 0.0794707 4.10077e-19)
(0.710904 0.112693 -5.70803e-20)
(0.834374 0.146078 1.40765e-19)
(0.94309 0.177462 -8.28557e-20)
(1.03471 0.205285 -2.15312e-21)
(1.10879 0.228653 9.47498e-20)
(1.16637 0.247273 -7.34256e-20)
(1.2094 0.261313 1.90505e-19)
(1.24027 0.27124 -9.49622e-20)
(1.26146 0.277673 -4.18549e-19)
(1.27525 0.28127 4.16243e-19)
(1.28364 0.282649 -1.87678e-19)
(1.28823 0.282331 1.49879e-19)
(1.29034 0.280837 2.60076e-19)
(1.29121 0.27915 1.06856e-19)
(0.0244586 -0.00242016 1.99255e-19)
(0.110228 -0.00332646 -4.10585e-19)
(0.225668 0.00975537 7.85735e-20)
(0.360591 0.0329959 -5.69813e-20)
(0.504996 0.0636527 -2.29742e-19)
(0.649225 0.0989129 -1.80305e-19)
(0.78488 0.135635 -3.54292e-20)
(0.905756 0.170957 -3.21498e-19)
(1.00826 0.202721 -1.95706e-20)
(1.09126 0.229615 -5.97485e-20)
(1.15556 0.251119 -1.62251e-19)
(1.20325 0.267338 -3.60437e-20)
(1.23706 0.278786 -1.24247e-19)
(1.25985 0.286188 -2.07479e-19)
(1.27429 0.290331 2.12554e-19)
(1.28269 0.291954 2.9349e-20)
(1.2869 0.291696 5.84896e-20)
(1.28838 0.29006 -2.45094e-19)
(1.28824 0.287551 -6.10896e-21)
(1.28751 0.284953 -3.78416e-19)
(0.0334465 -0.00258474 2.18554e-19)
(0.136883 -0.00132873 1.45744e-19)
(0.268695 0.0164409 -2.34902e-19)
(0.417274 0.0453773 3.6682e-19)
(0.571183 0.0815582 -3.9525e-20)
(0.719876 0.121273 1.36999e-19)
(0.854914 0.160829 4.74295e-20)
(0.97086 0.19722 1.68065e-19)
(1.06538 0.228484 -1.31598e-19)
(1.13876 0.253707 4.38695e-20)
(1.19305 0.272828 -4.21195e-20)
(1.23126 0.286366 -1.8552e-20)
(1.25672 0.295151 3.5253e-20)
(1.27254 0.300117 -6.49814e-20)
(1.28143 0.302153 -1.99835e-20)
(1.28558 0.302031 -6.11382e-20)
(1.28664 0.300371 -9.94175e-20)
(1.28585 0.29763 6.41807e-20)
(1.28414 0.294292 -8.81241e-20)
(1.28235 0.290976 3.80784e-19)
(0.0435123 -0.00218319 -1.09176e-19)
(0.165796 0.00238059 -3.09187e-19)
(0.314104 0.0257616 -4.11536e-20)
(0.475393 0.0609025 -1.11787e-20)
(0.636951 0.102597 -1.38458e-19)
(0.787725 0.146276 -2.27312e-19)
(0.919755 0.187859 7.44138e-20)
(1.02883 0.224414 -1.02251e-19)
(1.11415 0.254362 -1.14604e-19)
(1.17748 0.277306 6.38524e-20)
(1.22202 0.293683 -4.82638e-20)
(1.25153 0.304406 -9.76876e-20)
(1.26968 0.310572 -3.31584e-21)
(1.2797 0.313254 6.61696e-20)
(1.28416 0.313391 -6.75349e-20)
(1.28504 0.311743 9.37233e-20)
(1.28377 0.308881 2.52036e-20)
(1.28138 0.305209 6.35616e-20)
(1.2786 0.301182 1.23955e-19)
(1.27609 0.297277 -1.06199e-19)
(0.0546002 -0.00109961 1.043e-19)
(0.196665 0.0080296 -9.25209e-21)
(0.361238 0.037908 4.6763e-20)
(0.533937 0.0796081 -6.34874e-20)
(0.701058 0.126601 5.20522e-21)
(0.851546 0.173579 2.20262e-19)
(0.978454 0.216301 -1.4471e-19)
(1.07918 0.252137 6.12953e-20)
(1.15463 0.280059 5.40506e-20)
(1.20797 0.300261 -1.51977e-19)
(1.24339 0.313676 1.42837e-19)
(1.26516 0.321567 1.2629e-21)
(1.27714 0.325226 -1.007e-19)
(1.28244 0.325809 1.21394e-19)
(1.28344 0.324251 -4.81872e-20)
(1.28188 0.321269 3.68564e-20)
(1.27894 0.317368 -4.12214e-20)
(1.27543 0.312892 -1.64776e-20)
(1.27194 0.308277 -1.44418e-19)
(1.26897 0.303863 4.42247e-20)
(0.0666189 0.000776722 -3.51902e-20)
(0.2291 0.0158115 9.43911e-20)
(0.409356 0.0529986 1.4709e-20)
(0.591858 0.101435 6.17158e-20)
(0.762342 0.153316 2.94392e-20)
(0.910325 0.202798 1.37988e-20)
(1.03037 0.245743 7.82489e-20)
(1.12177 0.280047 -9.50086e-21)
(1.18715 0.305361 3.45071e-20)
(1.23095 0.322497 5.54558e-20)
(1.25811 0.332853 2.67655e-20)
(1.27322 0.337973 1.92176e-20)
(1.28009 0.339281 7.7941e-20)
(1.28166 0.337952 -7.54466e-20)
(1.28005 0.334884 1.61976e-20)
(1.2767 0.330725 -1.51659e-20)
(1.27258 0.325908 2.34751e-20)
(1.26832 0.320721 1.96696e-20)
(1.26437 0.315584 4.10865e-20)
(1.26111 0.310704 1.73517e-21)
(0.0794418 0.00354608 2.08603e-20)
(0.262641 0.0258735 1.90538e-20)
(0.457652 0.0710712 -2.63716e-20)
(0.648126 0.126233 1.64779e-20)
(0.819777 0.182422 9.3077e-21)
(0.963288 0.233529 -2.89537e-20)
(1.07516 0.275804 9.55553e-21)
(1.15671 0.307864 1.72084e-21)
(1.21223 0.330118 1.64821e-20)
(1.24721 0.34399 -4.41917e-20)
(1.26711 0.351281 -1.36555e-22)
(1.27661 0.353746 1.22491e-20)
(1.27938 0.352872 -9.76066e-21)
(1.27806 0.349808 9.87639e-21)
(1.2745 0.345385 2.57739e-20)
(1.26987 0.340172 -1.46639e-20)
(1.26495 0.334527 4.08245e-21)
(1.26022 0.328692 1.60687e-20)
(1.25599 0.323071 -2.64956e-20)
(1.25257 0.317746 1.27171e-20)
(0.0794255 -0.00354654 5.62164e-20)
(0.262609 -0.0258757 -3.08973e-20)
(0.457618 -0.0710777 3.64731e-20)
(0.648099 -0.126247 -2.7165e-20)
(0.819763 -0.182444 -1.22988e-20)
(0.96329 -0.233559 3.78787e-21)
(1.07518 -0.275842 -1.21835e-20)
(1.15674 -0.30791 4.40654e-20)
(1.21227 -0.330169 -3.69015e-20)
(1.24726 -0.344045 8.44027e-21)
(1.26717 -0.35134 -6.51135e-21)
(1.27667 -0.353807 -4.2832e-20)
(1.27944 -0.352934 4.17427e-20)
(1.27813 -0.349871 1.62039e-20)
(1.27457 -0.345448 -1.56195e-20)
(1.26994 -0.340235 3.75616e-20)
(1.26502 -0.33459 -4.3689e-22)
(1.26029 -0.328754 -3.66932e-20)
(1.25606 -0.323133 2.69601e-20)
(1.25264 -0.317807 9.0004e-21)
(0.0666021 -0.000777742 -2.0155e-20)
(0.229066 -0.0158146 5.4552e-20)
(0.409317 -0.0530056 6.38029e-20)
(0.591825 -0.101448 -3.08724e-20)
(0.76232 -0.153337 5.33484e-20)
(0.910318 -0.202826 8.66358e-20)
(1.03038 -0.245779 -4.89719e-21)
(1.12179 -0.280091 -1.56003e-20)
(1.18718 -0.305411 7.71736e-20)
(1.231 -0.322552 3.8178e-20)
(1.25817 -0.332911 -7.18238e-21)
(1.27328 -0.338034 5.82282e-20)
(1.28016 -0.339343 -6.26137e-20)
(1.28173 -0.338015 1.00198e-19)
(1.28011 -0.334948 -1.63899e-20)
(1.27677 -0.330789 5.0008e-20)
(1.27265 -0.325972 9.82253e-21)
(1.26839 -0.320785 3.58354e-20)
(1.26444 -0.315647 -3.36604e-20)
(1.26118 -0.310767 9.33312e-21)
(0.0545832 0.00109801 -2.98768e-20)
(0.196629 -0.00803373 6.5294e-20)
(0.361196 -0.0379157 4.868e-20)
(0.533897 -0.0796208 -7.77228e-21)
(0.701027 -0.126621 8.14952e-20)
(0.851529 -0.173606 -6.4367e-20)
(0.978453 -0.216336 -6.78791e-21)
(1.07919 -0.252179 5.80625e-20)
(1.15466 -0.280108 1.9346e-20)
(1.20801 -0.300315 2.70583e-20)
(1.24343 -0.313734 -3.99178e-20)
(1.26522 -0.321627 1.11391e-19)
(1.2772 -0.325289 2.16852e-20)
(1.2825 -0.325873 -9.84404e-20)
(1.28351 -0.324316 1.51629e-19)
(1.28195 -0.321334 -1.79651e-19)
(1.27901 -0.317434 -8.55696e-20)
(1.27551 -0.312958 1.45584e-20)
(1.27202 -0.308342 8.25833e-20)
(1.26905 -0.303928 -1.56427e-19)
(0.0434953 0.00218099 -6.26451e-20)
(0.165759 -0.00238584 -1.4708e-19)
(0.314058 -0.0257701 -1.29646e-19)
(0.475348 -0.0609155 -1.77164e-19)
(0.636913 -0.102616 -1.0536e-19)