/*--------------------------------*- C++ -*----------------------------------*\
  =========                 |
  \\      /  F ield         | OpenFOAM: The Open Source CFD Toolbox
   \\    /   O peration     | Website:  https://openfoam.org
    \\  /    A nd           | Version:  6.0
     \\/     M anipulation  |
\*---------------------------------------------------------------------------*/
FoamFile
{
    version     2.0;
    format      ascii;
    class       volVectorField;
    location    "12";
    object      U;
}
// * * * * * * * * * * * * * * * * * * * * * * * * * * * * * * * * * * * * * //

dimensions      [0 1 -1 0 0 0 0];

internalField   nonuniform List<vector> 
4000
(
(-0.000644064 0.000750912 -3.88784e-21)
(-0.00344855 0.00184768 2.0783e-20)
(-0.00858147 0.00262346 -2.52856e-20)
(-0.0148722 0.00316388 1.92577e-20)
(-0.0217362 0.00352945 9.38201e-21)
(-0.0288598 0.00376708 -2.81744e-20)
(-0.0360247 0.00391519 -2.49198e-21)
(-0.0430952 0.00400518 -8.87106e-22)
(-0.0500013 0.00406276 -1.46452e-20)
(-0.0567203 0.00410896 -7.94117e-21)
(-0.0632625 0.0041609 5.91559e-21)
(-0.0696618 0.00423224 2.25301e-20)
(-0.0759676 0.00433358 -1.67489e-21)
(-0.0822372 0.00447265 2.42743e-21)
(-0.0885337 0.00465443 -2.2744e-20)
(-0.094935 0.00488106 1.40261e-20)
(-0.101514 0.00515217 -2.01341e-20)
(-0.10819 0.0054677 3.04798e-20)
(-0.114733 0.00582879 -3.37925e-23)
(-0.122176 0.0062134 6.65957e-21)
(-0.000749313 0.00219277 1.29108e-20)
(-0.00368307 0.00538445 -6.59941e-20)
(-0.00886635 0.00762942 -4.55974e-20)
(-0.0151538 0.00918115 -3.09741e-20)
(-0.0219737 0.0102187 -3.98584e-20)
(-0.0290192 0.0108807 8.76219e-21)
(-0.0360772 0.0112802 -4.60332e-20)
(-0.043015 0.0115096 -1.03519e-20)
(-0.0497646 0.0116444 3.25268e-21)
(-0.056304 0.0117463 3.44318e-20)
(-0.0626445 0.0118658 -3.75932e-20)
(-0.0688206 0.0120434 5.23199e-20)
(-0.0748824 0.0123107 -3.92082e-20)
(-0.0808882 0.012691 -4.65425e-20)
(-0.0869028 0.0131997 -6.42346e-20)
(-0.0930061 0.0138437 4.09746e-20)
(-0.0992745 0.0146227 -1.33237e-20)
(-0.105629 0.015537 -4.84712e-20)
(-0.111836 0.0165911 4.58456e-20)
(-0.118933 0.0177188 -3.42954e-20)
(-0.000956203 0.00359243 1.26237e-19)
(-0.00414583 0.00882474 6.54019e-20)
(-0.00943139 0.0125035 7.35611e-20)
(-0.0157159 0.0150407 6.1242e-21)
(-0.022452 0.0167292 4.06666e-20)
(-0.0293471 0.0177962 5.07679e-20)
(-0.0361974 0.0184272 -9.22794e-20)
(-0.0428766 0.0187742 -4.88955e-20)
(-0.0493202 0.0189615 -6.37243e-20)
(-0.0555086 0.0190912 6.80227e-20)
(-0.0614542 0.0192472 -5.19833e-20)
(-0.0671926 0.0194973 -6.69439e-20)
(-0.0727753 0.0198954 -2.43864e-20)
(-0.0782629 0.0204817 2.31745e-20)
(-0.083723 0.0212837 -6.50297e-21)
(-0.0892398 0.022315 9.26793e-21)
(-0.0948963 0.0235766 1.0796e-19)
(-0.100619 0.0250712 -1.50888e-20)
(-0.106166 0.0268083 -1.10021e-19)
(-0.112584 0.0286772 1.4615e-19)
(-0.00125923 0.00492537 4.39583e-20)
(-0.00482754 0.0121114 -6.20495e-20)
(-0.0102697 0.0171662 -1.55776e-20)
(-0.0165567 0.0206467 2.91229e-20)
(-0.0231766 0.0229516 8.26994e-20)
(-0.0298571 0.0243917 1.811e-19)
(-0.0364086 0.0252219 1.7701e-19)
(-0.042714 0.0256508 1.47275e-20)
(-0.0487144 0.0258502 1.08625e-19)
(-0.0543932 0.0259617 1.66332e-19)
(-0.0597647 0.0261027 -1.33012e-19)
(-0.0648658 0.0263694 1.96837e-19)
(-0.0697499 0.026839 -4.46931e-20)
(-0.0744805 0.0275716 1.12121e-20)
(-0.0791295 0.0286094 4.67235e-20)
(-0.0837874 0.0299758 6.21972e-20)
(-0.0885473 0.0316764 -9.77449e-20)
(-0.0933451 0.0337188 -8.17219e-20)
(-0.0979284 0.0361215 -1.4491e-19)
(-0.103356 0.0387287 2.12293e-19)
(-0.00165092 0.00617146 -2.29576e-20)
(-0.00571524 0.0151958 -2.35092e-19)
(-0.0113711 0.021549 -6.95525e-20)
(-0.017673 0.0259149 -1.695e-19)
(-0.0241534 0.0287889 6.40734e-20)
(-0.0305664 0.0305588 -1.01081e-19)
(-0.036741 0.031544 3.47822e-20)
(-0.0425724 0.0320067 -2.14204e-19)
(-0.0480089 0.0321634 1.1303e-19)
(-0.0530381 0.0321942 -1.34837e-19)
(-0.0576762 0.0322493 -1.19978e-19)
(-0.0619618 0.0324542 -1.34435e-19)
(-0.0659499 0.0329119 1.22104e-19)
(-0.0697075 0.033705 -1.09724e-19)
(-0.0733117 0.0348949 1.52843e-19)
(-0.0768615 0.0365197 4.42733e-20)
(-0.0804634 0.0385939 1.09699e-19)
(-0.0840674 0.0411349 4.82524e-20)
(-0.087411 0.0441764 -1.90996e-19)
(-0.0915676 0.0475179 3.13291e-19)
(-0.00212257 0.00731607 1.01309e-19)
(-0.00679323 0.0180406 7.76334e-21)
(-0.0127224 0.0255964 4.17284e-20)
(-0.0190586 0.0307759 1.45591e-19)
(-0.0253861 0.0341599 -2.22798e-20)
(-0.0314911 0.0362063 2.3648e-19)
(-0.0372255 0.0372928 1.05e-19)
(-0.0424997 0.0377309 8.8223e-21)
(-0.0472714 0.0377783 2.70132e-19)
(-0.051533 0.0376512 8.85782e-20)
(-0.055303 0.0375321 4.20311e-20)
(-0.0586211 0.037576 1.33421e-19)
(-0.0615439 0.0379138 1.22386e-19)
(-0.0641412 0.0386545 2.23641e-19)
(-0.0664962 0.0398839 -1.99909e-19)
(-0.0687176 0.0416613 2.83115e-19)
(-0.0709289 0.0440176 3.95804e-21)
(-0.0730997 0.046987 -3.62454e-19)
(-0.0749614 0.0506275 4.70416e-19)
(-0.0776046 0.0546971 1.96731e-19)
(-0.00266507 0.0083504 -5.97007e-20)
(-0.008044 0.02062 -1.08412e-19)
(-0.014307 0.0292678 -2.25528e-19)
(-0.0207025 0.0351767 -6.6836e-21)
(-0.0268725 0.0390021 3.85048e-20)
(-0.0326404 0.0412636 -2.88017e-19)
(-0.0378855 0.042391 -2.13717e-19)
(-0.0425365 0.0427389 -3.05603e-20)
(-0.0465626 0.0426024 -2.70463e-19)
(-0.0499621 0.04223 -1.87348e-19)
(-0.0527559 0.0418346 -5.46113e-20)
(-0.054984 0.0416002 -1.75928e-19)
(-0.0567034 0.0416873 -2.82022e-21)
(-0.0579862 0.042235 -2.33881e-19)
(-0.0589209 0.0433599 9.85622e-20)
(-0.0596269 0.0451508 -1.12417e-19)
(-0.0602478 0.047665 8.63699e-20)
(-0.0607792 0.0509648 -1.09654e-19)
(-0.0609533 0.0551455 -3.14116e-19)
(-0.0618842 0.0599315 -9.56965e-20)
(-0.00326958 0.00927124 -2.20149e-20)
(-0.00944889 0.0229196 -2.38914e-20)
(-0.0161044 0.0325373 1.89113e-19)
(-0.0225866 0.0390815 -3.0777e-19)
(-0.0286 0.0432723 4.51514e-20)
(-0.03401 0.0456827 -1.77794e-19)
(-0.0387276 0.0467871 8.40221e-20)
(-0.0427036 0.0469773 3.77754e-19)
(-0.0459208 0.0465796 -2.41936e-20)
(-0.0483849 0.0458705 -2.81941e-19)
(-0.0501193 0.0450892 5.12501e-20)
(-0.0511635 0.0444472 9.90066e-21)
(-0.0515735 0.0441344 -5.80244e-20)
(-0.0514215 0.0443232 5.75515e-21)
(-0.0508001 0.0451675 5.09842e-19)
(-0.0498389 0.0467955 -7.25576e-20)
(-0.0487036 0.0493041 -1.41819e-19)
(-0.0474228 0.0527993 -2.54822e-19)
(-0.0457412 0.0574336 2.59895e-19)
(-0.0448065 0.0629128 1.12557e-19)
(-0.003928 0.01008 1.11008e-19)
(-0.0109884 0.0249352 -1.45266e-19)
(-0.0180895 0.0353921 2.05344e-19)
(-0.0246834 0.0424705 2.06674e-19)
(-0.0305408 0.046946 1.90501e-19)
(-0.035574 0.0494375 3.86298e-19)
(-0.0397303 0.0504567 2.49834e-19)
(-0.0429865 0.0504255 -5.369e-19)
(-0.0453422 0.0496947 2.74624e-19)
(-0.046812 0.0485621 2.15554e-19)
(-0.0474224 0.0472879 -3.01714e-21)
(-0.047212 0.0461066 2.41429e-19)
(-0.0462336 0.0452356 1.88373e-19)
(-0.0445572 0.0448815 -1.0244e-19)
(-0.0422762 0.0452406 3.46578e-19)
(-0.0395292 0.046491 -4.29718e-19)
(-0.0365043 0.0487853 1.72166e-19)
(-0.0332694 0.0522949 2.21688e-19)
(-0.0295974 0.0572571 -5.19159e-20)
(-0.0266891 0.0633849 4.46892e-19)
(-0.00463314 0.0107815 2.2324e-19)
(-0.0126421 0.0266698 1.15522e-20)
(-0.0202311 0.0378298 -8.00861e-20)
(-0.0269525 0.0453366 -8.45588e-20)
(-0.0326465 0.0500146 -3.91554e-19)
(-0.0372772 0.052522 5.54376e-20)
(-0.0408328 0.0534007 1.57105e-19)
(-0.0433207 0.0530954 -7.55424e-20)
(-0.0447605 0.0519737 6.23169e-20)
(-0.0451788 0.0503472 -1.65388e-20)
(-0.0446065 0.0484894 -8.14556e-20)
(-0.0430811 0.0466505 7.72696e-20)
(-0.0406506 0.0450699 -3.36513e-19)
(-0.0373798 0.0439856 3.22495e-19)
(-0.0333595 0.0436382 -2.79613e-19)
(-0.0287332 0.0442648 8.638e-20)
(-0.0237105 0.0460905 1.96755e-19)
(-0.0184034 0.0493795 -4.09828e-20)
(-0.0126316 0.0544923 -1.36384e-19)
(-0.00768151 0.0611906 -9.27092e-20)
(-0.00537855 0.0113819 -2.78088e-19)
(-0.0143877 0.0281306 -1.82195e-20)
(-0.0224904 0.0398545 5.85402e-20)
(-0.0293381 0.0476815 1.5041e-19)
(-0.0348435 0.0524811 -2.12363e-19)
(-0.0390273 0.0549453 -1.85286e-19)
(-0.0419241 0.0556403 4.32472e-19)
(-0.0435758 0.0550265 -2.38958e-19)
(-0.0440269 0.0534808 -1.54147e-19)
(-0.043319 0.05132 -2.21194e-19)
(-0.0414902 0.0488213 1.46445e-19)
(-0.0385781 0.0462407 -3.97654e-21)
(-0.0346258 0.0438299 -2.73528e-19)
(-0.02969 0.0418502 -4.47674e-19)
(-0.0238553 0.0405827 3.41053e-19)
(-0.0172653 0.0403268 -2.76533e-19)
(-0.0101476 0.0413955 3.92251e-19)
(-0.00266068 0.0441757 -1.09929e-19)
(0.00530923 0.0492018 2.32111e-19)
(0.0123419 0.0563456 -7.83594e-19)
(-0.00615802 0.0118875 -5.63232e-19)
(-0.0162003 0.0293255 3.69155e-19)
(-0.0248194 0.0414725 5.02041e-20)
(-0.0317658 0.0495112 9.7026e-21)
(-0.0370285 0.0543544 -2.27408e-19)
(-0.0406896 0.0567252 3.3439e-19)
(-0.042834 0.0572094 3.65242e-20)
(-0.0435437 0.0562773 -6.85815e-20)
(-0.0428919 0.0543085 -2.19981e-19)
(-0.0409402 0.0516166 2.37835e-19)
(-0.0377375 0.0484723 6.0297e-19)
(-0.033325 0.0451256 -1.33253e-19)
(-0.0277425 0.0418267 3.00943e-19)
(-0.0210388 0.0388458 -3.55632e-19)
(-0.013289 0.0364923 -3.41008e-19)
(-0.00463264 0.0351216 2.05188e-19)
(0.00468957 0.035141 3.39425e-19)
(0.0144738 0.0370888 -1.0995e-18)
(0.0247515 0.0417329 1.28979e-19)
(0.0339019 0.0491422 1.74617e-19)
(-0.00696495 0.0123031 4.17075e-19)
(-0.0180509 0.0302603 1.37073e-19)
(-0.0271592 0.0426884 7.13917e-19)
(-0.0341413 0.0508301 3.66911e-20)
(-0.0390667 0.0556432 -7.93667e-20)
(-0.0420825 0.0578804 -3.7782e-19)
(-0.0433287 0.0581446 3.21328e-19)
(-0.0429307 0.0569129 5.76265e-19)
(-0.0409954 0.0545623 3.83966e-19)
(-0.0376088 0.0513967 2.77031e-19)
(-0.0328364 0.0476719 2.38737e-19)
(-0.0267283 0.0436198 -4.29084e-19)
(-0.0193263 0.0394729 -1.34532e-19)
(-0.0106751 0.0354911 -9.88639e-20)
(-0.000841494 0.0319896 1.06066e-18)
(0.0100412 0.0293601 -3.67493e-21)
(0.0217233 0.0280942 -2.64438e-19)
(0.0339602 0.0288957 -8.35423e-20)
(0.0466952 0.0328303 7.5901e-19)
(0.058027 0.0402736 9.7244e-20)
(-0.00779168 0.0126311 -2.0634e-20)
(-0.0199053 0.0309362 -3.94268e-19)
(-0.0294385 0.0435016 -5.86273e-19)
(-0.036349 0.0516376 -1.63033e-19)
(-0.0407901 0.05635 9.00045e-20)
(-0.0429778 0.0584226 1.94066e-20)
(-0.0431096 0.0584751 5.13892e-19)
(-0.0413573 0.0569899 -6.37368e-19)
(-0.0378651 0.0543402 -2.42411e-19)
(-0.0327479 0.0508174 -4.88446e-19)
(-0.0260941 0.046657 -4.16025e-19)
(-0.0179706 0.042064 -3.68185e-19)
(-0.00843047 0.0372392 9.20308e-20)
(0.00247622 0.0324102 -1.19412e-19)
(0.0146829 0.027869 5.11885e-19)
(0.0280581 0.024008 -2.80821e-19)
(0.0423433 0.0213684 -8.79796e-19)
(0.0572585 0.0208056 -1.7753e-19)
(0.072673 0.0237323 4.3412e-19)
(0.086326 0.0309564 -3.76907e-19)
(-0.00862881 0.0128711 -6.65408e-20)
(-0.0217227 0.0313492 4.81945e-19)
(-0.0315732 0.043905 -6.14487e-19)
(-0.0382512 0.051925 1.42076e-19)
(-0.0419984 0.0564681 -2.9237e-19)
(-0.0431017 0.0583515 6.51089e-19)
(-0.0418172 0.0582136 -4.65279e-19)
(-0.0383645 0.0565442 5.3227e-19)
(-0.0329265 0.053714 -5.04503e-19)
(-0.0256511 0.050004 2.15268e-19)
(-0.0166553 0.0456302 -1.04486e-19)
(-0.00603263 0.0407686 -2.62119e-19)
(0.0061395 0.0355807 -3.2376e-19)
(0.0197893 0.0302458 3.22707e-19)
(0.034833 0.0250027 -2.70162e-19)
(0.051126 0.0201987 -5.90541e-19)
(0.0683901 0.0163632 6.14896e-19)
(0.086312 0.0144443 -7.83852e-19)
(0.104727 0.0162095 3.53173e-19)
(0.120974 0.0230113 1.14201e-20)
(-0.00946479 0.01302 -6.0264e-19)
(-0.0234548 0.0314895 -6.50387e-19)
(-0.0334649 0.0438846 7.49793e-20)
(-0.0396887 0.0516762 -6.26735e-19)
(-0.0424603 0.0559811 -5.56366e-20)
(-0.0421386 0.0576539 -4.60879e-19)
(-0.0390383 0.0573549 -1.05687e-19)
(-0.0334256 0.0555846 -3.08795e-19)
(-0.0255221 0.0527169 2.88076e-21)
(-0.0155104 0.0490282 -1.35021e-19)
(-0.00354181 0.0447229 9.6113e-21)
(0.010254 0.0399549 -3.89115e-19)
(0.0257592 0.0348509 4.28884e-19)
(0.0428583 0.0295383 -6.08191e-19)
(0.0614225 0.0241854 2.1546e-19)
(0.0812651 0.0190527 8.09022e-21)
(0.102061 0.014581 -3.42536e-19)
(0.123449 0.0117002 8.49632e-19)
(0.145295 0.0124624 -2.0233e-19)
(0.164599 0.0188155 -1.31555e-19)
(-0.0102855 0.013073 6.76217e-19)
(-0.0250449 0.0313436 3.65024e-19)
(-0.0349998 0.0434219 3.3944e-19)
(-0.040479 0.05087 5.06714e-20)
(-0.0419133 0.0548672 4.58808e-19)
(-0.0397341 0.056309 6.61141e-19)
(-0.0343126 0.0558809 5.41079e-19)
(-0.0259595 0.0540991 4.84786e-20)
(-0.0149335 0.0513469 3.96156e-19)
(-0.00145225 0.0479061 6.11979e-19)
(0.0142946 0.0439814 -1.58635e-19)
(0.0321317 0.0397206 2.66366e-19)
(0.0518848 0.0352326 2.15087e-19)
(0.0733692 0.0306089 2.18882e-19)
(0.0963767 0.0259537 1.29292e-18)
(0.120637 0.0214254 -4.8457e-19)
(0.145732 0.017312 -2.93737e-20)
(0.171204 0.0143784 5.60585e-19)
(0.197012 0.0147899 -3.17615e-19)
(0.220066 0.0210418 1.57089e-19)
(-0.0110739 0.0130239 -5.46586e-19)
(-0.026426 0.0308958 3.48921e-20)
(-0.0360471 0.0424974 -4.3714e-19)
(-0.0404152 0.0494862 -5.68562e-20)
(-0.0400632 0.0531074 3.19875e-19)
(-0.0354953 0.0542999 -9.52279e-19)
(-0.027137 0.053777 -7.12993e-22)
(-0.0153409 0.052074 4.43086e-19)
(-0.000401069 0.0495904 4.16122e-19)
(0.0174293 0.0466224 -1.8329e-19)
(0.0379185 0.0433894 6.03869e-20)
(0.0608369 0.0400524 1.40056e-19)
(0.0859384 0.0367297 -6.63988e-20)
(0.112944 0.0335107 -7.434e-19)
(0.141527 0.0304745 1.88219e-19)
(0.17128 0.0277101 5.17194e-19)
(0.201627 0.0253478 -7.36628e-19)
(0.231923 0.0238729 3.58913e-19)
(0.26222 0.0253489 9.60225e-20)
(0.289867 0.0326851 4.84925e-19)
(-0.0118095 0.0128661 -8.05376e-20)
(-0.0275196 0.0301306 -3.82693e-19)
(-0.0364555 0.0410949 1.76118e-19)
(-0.0392618 0.0475129 8.46579e-22)
(-0.0365804 0.0506967 -7.67086e-19)
(-0.0289888 0.0516298 1.19748e-19)
(-0.0169662 0.0510535 -2.27165e-20)
(-0.00090603 0.0495242 1.54772e-19)
(0.0188618 0.0474603 -7.08397e-19)
(0.0420457 0.0451789 -4.96211e-20)
(0.0683669 0.0429237 -1.66339e-19)
(0.0975336 0.040886 1.48014e-19)
(0.129217 0.0392206 4.99428e-19)
(0.163026 0.0380588 -7.72483e-20)
(0.198487 0.037523 2.99351e-20)
(0.234998 0.0377312 1.96131e-19)
(0.271721 0.0387788 -4.8625e-20)
(0.307638 0.0409789 3.94239e-19)
(0.342642 0.0463425 -2.30055e-19)
(0.375065 0.0579914 -3.58804e-19)
(-0.0124671 0.0125929 7.48069e-20)
(-0.0282324 0.0290348 1.83303e-20)
(-0.0360496 0.0392059 1.53403e-19)
(-0.036751 0.0449539 3.75646e-19)
(-0.0310955 0.0476562 2.1077e-19)
(-0.0197374 0.0483392 2.19681e-20)
(-0.00321229 0.0477705 -2.51509e-19)
(0.0180418 0.0465257 6.44907e-20)
(0.0436523 0.0450401 3.39038e-19)
(0.0732805 0.0436498 -5.74472e-19)
(0.10659 0.0426217 4.33432e-19)
(0.14322 0.0421784 -3.26544e-19)
(0.18276 0.0425189 2.76983e-19)
(0.224728 0.0438395 -5.97239e-19)
(0.268543 0.0463588 6.56651e-19)
(0.313478 0.0503353 -7.02079e-19)
(0.35852 0.0560651 -1.82204e-19)
(0.402266 0.0641682 5.70357e-19)
(0.443671 0.0772322 -1.93418e-19)
(0.479717 0.0980742 8.5367e-20)
(-0.013016 0.0121978 -5.65526e-20)
(-0.0284542 0.0275993 5.33787e-19)
(-0.0346264 0.0368342 -2.24119e-21)
(-0.032578 0.0418363 -3.31359e-19)
(-0.0231963 0.0440432 -2.22772e-19)
(-0.00721993 0.0445209 4.08175e-19)
(0.0147502 0.0440586 -1.61667e-19)
(0.0422174 0.0432446 -2.03636e-20)
(0.0747476 0.0425228 3.36875e-19)
(0.111929 0.0422356 -4.18524e-19)
(0.153342 0.0426549 4.58458e-20)
(0.198529 0.0440084 -5.43905e-19)
(0.246989 0.0465021 2.86246e-19)
(0.298167 0.0503474 -8.1866e-19)
(0.351468 0.0557953 1.30287e-18)
(0.406271 0.063182 -2.38989e-19)
(0.461965 0.0730277 2.47238e-19)
(0.51819 0.0865524 -6.42519e-19)
(0.575285 0.106871 6.08837e-21)
(0.6249 0.13146 7.14312e-19)
(-0.0134178 0.0116741 -1.71223e-19)
(-0.0280541 0.0258201 1.47876e-19)
(-0.0319521 0.0339985 -5.44942e-19)
(-0.0263996 0.0382147 8.06047e-19)
(-0.0124284 0.0399588 -5.8195e-19)
(0.00912367 0.04033 3.00489e-20)
(0.0375705 0.0401316 -6.27605e-19)
(0.0723279 0.0399542 4.48734e-19)
(0.11286 0.0402362 -6.41274e-20)
(0.158633 0.041305 -3.9601e-19)
(0.209082 0.043407 -2.31005e-19)
(0.263591 0.0467297 2.44158e-19)
(0.321492 0.0514204 1.61276e-19)
(0.382078 0.0576026 -7.13064e-19)
(0.444639 0.0653928 2.5766e-19)
(0.508506 0.0749123 -3.78804e-19)
(0.57312 0.0863041 4.57964e-20)
(0.638227 0.0998985 -3.1921e-19)
(0.704428 0.116822 1.27096e-19)
(0.764907 0.134365 -4.72716e-19)
(-0.0136251 0.0110156 4.87489e-19)
(-0.0268788 0.0237003 -2.95353e-19)
(-0.0277607 0.0307354 2.43353e-19)
(-0.0178358 0.0341758 -3.07223e-19)
(0.00169694 0.0355514 5.14884e-19)
(0.0298756 0.0359861 -8.98682e-21)
(0.065893 0.0362863 -6.27069e-20)
(0.109028 0.0370309 -4.65113e-20)
(0.158579 0.0386328 2.86177e-19)
(0.213813 0.0413786 4.86567e-19)
(0.273932 0.0454559 -2.8741e-19)
(0.338067 0.0509721 2.79313e-19)
(0.405289 0.0579694 5.09652e-19)
(0.474637 0.0664364 -3.57403e-19)
(0.545167 0.0763162 -7.23464e-19)
(0.616002 0.0875071 1.32092e-18)
(0.686387 0.0998502 -2.36106e-19)
(0.755768 0.113156 -7.61037e-20)
(0.824144 0.127659 8.10779e-19)
(0.887069 0.143283 -1.74182e-19)
(-0.0135801 0.0102171 -7.93305e-19)
(-0.0247518 0.0212519 -5.28071e-19)
(-0.0217569 0.0271021 -2.02713e-19)
(-0.00647796 0.0298394 3.91173e-19)
(0.0196867 0.0310165 -8.83295e-19)
(0.055611 0.031769 4.57558e-19)
(0.10031 0.0328906 5.80005e-20)
(0.152852 0.0349277 5.86594e-20)
(0.212279 0.0382415 -5.99543e-19)
(0.277556 0.0430456 -2.11717e-19)
(0.347554 0.0494314 -3.7305e-19)
(0.421053 0.0573884 3.60131e-19)
(0.496783 0.0668199 1.01841e-19)
(0.57347 0.0775583 1.95538e-20)
(0.649898 0.0893763 4.66308e-19)
(0.724969 0.101993 -4.73152e-19)
(0.797744 0.115072 -1.9334e-20)
(0.867486 0.128234 1.31759e-20)
(0.933775 0.141252 6.57146e-20)
(0.994485 0.15608 3.57586e-19)
(-0.0132142 0.00927558 2.52529e-19)
(-0.0214743 0.0184986 6.50325e-19)
(-0.0136213 0.0231788 5.21858e-19)
(0.00809791 0.0253607 -1.79945e-19)
(0.0420405 0.0265952 6.26102e-19)
(0.0868552 0.0280108 -5.27455e-20)
(0.141298 0.0303645 -7.4335e-20)
(0.204124 0.0341404 4.42503e-20)
(0.274005 0.0396115 6.05637e-19)
(0.349493 0.046877 3.55854e-19)
(0.429023 0.0558904 1.03943e-19)
(0.510957 0.0664856 6.53346e-21)
(0.593648 0.0784021 -6.87561e-19)
(0.675521 0.09131 5.97416e-19)
(0.755148 0.104832 1.01812e-19)
(0.83131 0.118564 -1.68413e-19)
(0.903031 0.132083 -7.24171e-19)
(0.969607 0.144987 -5.97123e-20)
(1.03055 0.156806 2.83506e-19)
(1.08563 0.170705 -5.65913e-20)
(-0.0124485 0.00819232 -6.40351e-19)
(-0.0168293 0.01548 2.67923e-19)
(-0.00302063 0.0190731 -1.30846e-18)
(0.0263118 0.0209316 5.36124e-19)
(0.0692171 0.0225714 -4.27643e-19)
(0.124033 0.0250852 3.1534e-19)
(0.189145 0.0291585 -4.90095e-19)
(0.262867 0.03517 4.49874e-20)
(0.343375 0.0432559 -2.5278e-20)
(0.428695 0.0533504 1.31832e-19)
(0.516758 0.0652243 1.90184e-19)
(0.605484 0.0785239 -3.59363e-19)
(0.692894 0.0928122 1.9043e-19)
(0.777212 0.107608 1.74406e-19)
(0.856944 0.122424 7.4977e-19)
(0.930938 0.13679 -3.26502e-19)
(0.998391 0.150281 -2.14734e-19)
(1.05886 0.162553 3.60078e-19)
(1.1121 0.173113 1.89189e-19)
(1.15905 0.185545 -3.60153e-19)
(-0.0111951 0.00697507 5.60589e-19)
(-0.0105873 0.0122555 5.40483e-19)
(0.0103794 0.0149239 1.56083e-19)
(0.0485556 0.0167829 6.57362e-19)
(0.101597 0.0192687 3.23157e-19)
(0.167413 0.0233966 -5.82662e-19)
(0.243882 0.0297302 8.82776e-19)
(0.328731 0.0384851 -4.3447e-19)
(0.419512 0.0495994 4.33754e-19)
(0.513651 0.062788 5.6102e-19)
(0.608558 0.077598 -3.20575e-19)
(0.701778 0.0934705 6.09574e-20)
(0.79113 0.109801 3.38699e-19)
(0.874821 0.125993 2.38104e-19)
(0.951512 0.141505 5.46306e-19)
(1.02034 0.155876 -2.19664e-19)
(1.0809 0.168747 -2.79646e-20)
(1.13317 0.179887 3.4049e-19)
(1.17736 0.188932 -7.37362e-20)
(1.21506 0.199353 -9.92159e-24)
(-0.00935936 0.00564058 -2.89314e-19)
(-0.00251437 0.00890977 -1.06333e-18)
(0.0268976 0.0109057 2.505e-19)
(0.075166 0.0131852 -1.9074e-19)
(0.13944 0.0170448 -4.406e-19)
(0.217056 0.0233642 -3.14871e-19)
(0.305222 0.0325171 -1.94549e-19)
(0.400936 0.0444827 4.72371e-19)
(0.501033 0.0589339 -2.8054e-19)
(0.602319 0.0753145 -2.87441e-19)
(0.701763 0.0929249 -3.62963e-19)
(0.796691 0.111009 -5.99015e-20)
(0.884943 0.128834 -4.10612e-20)
(0.964956 0.145754 -8.35504e-19)
(1.03579 0.161246 4.03224e-19)
(1.09709 0.174937 -5.30601e-19)
(1.14898 0.186597 1.64854e-19)
(1.19198 0.196146 -1.25583e-18)
(1.22681 0.203435 3.78977e-19)
(1.25531 0.211515 4.74779e-19)
(-0.00684274 0.00421688 -7.27008e-20)
(0.00761777 0.00555638 5.18317e-19)
(0.0468186 0.00723144 3.3261e-20)
(0.106395 0.0104475 8.00245e-20)
(0.182846 0.0162829 -1.62734e-19)
(0.272768 0.0254035 -2.7414e-21)
(0.372527 0.0379069 -4.21935e-21)
(0.478276 0.0534527 -9.83242e-20)
(0.586104 0.0713833 3.48824e-19)
(0.692277 0.0908394 1.34718e-19)
(0.793501 0.110881 6.11159e-19)
(0.887137 0.130599 -1.66482e-19)
(0.971322 0.149206 1.15941e-19)
(1.04499 0.16609 -1.47168e-20)
(1.10782 0.180835 3.20236e-19)
(1.16008 0.19322 1.95052e-19)
(1.2025 0.203194 4.67659e-19)
(1.23614 0.210842 -7.53933e-19)
(1.26213 0.216241 9.45696e-19)
(1.2824 0.221923 -2.99145e-19)
(-0.00354679 0.00274506 -6.74982e-19)
(0.0200202 0.00234057 -2.10959e-19)
(0.0703721 0.00415293 1.64707e-19)
(0.142378 0.00891155 1.03894e-19)
(0.231721 0.017377 1.06729e-19)
(0.334067 0.0299016 1.08089e-19)
(0.444798 0.0462059 -2.70779e-19)
(0.559163 0.0655463 -1.11826e-19)
(0.672572 0.0868877 3.47772e-20)
(0.780942 0.109068 -3.31369e-19)
(0.880997 0.130955 -1.49604e-19)
(0.970444 0.15157 9.03521e-19)
(1.04801 0.170168 -2.33239e-19)
(1.11334 0.186264 -3.20166e-19)
(1.16684 0.199626 -1.50972e-19)
(1.20948 0.210233 1.05074e-19)
(1.24254 0.218227 1.2687e-19)
(1.26748 0.223853 -6.07498e-19)
(1.28574 0.227376 8.76597e-19)
(1.29918 0.230827 -7.58705e-19)
(0.000622909 0.00128053 -7.61525e-20)
(0.0348741 -0.000560088 2.17778e-20)
(0.0977116 0.00195744 -2.79873e-20)
(0.183109 0.0089418 4.07978e-19)
(0.285746 0.020713 2.26348e-20)
(0.400179 0.0371903 1.49955e-19)
(0.52071 0.0576106 -3.11794e-19)
(0.641724 0.0807585 -1.13377e-20)
(0.75814 0.10521 4.32943e-19)
(0.865826 0.129546 6.02085e-20)
(0.961867 0.152533 -3.76541e-19)
(1.04464 0.173234 -3.31048e-20)
(1.11367 0.191052 -3.07964e-19)
(1.16948 0.205715 3.07085e-19)
(1.21322 0.217221 4.24617e-19)
(1.24646 0.225769 -4.67359e-20)
(1.27092 0.231682 -5.65363e-20)
(1.28831 0.235331 1.72422e-19)
(1.3002 0.237113 -5.51981e-19)
(1.30833 0.238634 4.86838e-19)
(0.0057521 -0.000106719 7.67631e-20)
(0.0523171 -0.00293735 -4.94406e-19)
(0.128893 0.000960722 1.32248e-19)
(0.228414 0.0109101 -4.10991e-19)
(0.344366 0.0266447 1.41402e-19)
(0.470051 0.0475184 -5.25163e-19)
(0.598685 0.0721871 2.11896e-19)
(0.723949 0.0989283 -6.75384e-20)
(0.84058 0.125966 -2.78031e-21)
(0.944774 0.151721 6.88979e-20)
(1.03433 0.174983 -2.50674e-19)
(1.10855 0.194978 -3.57337e-19)
(1.16794 0.211351 -7.29737e-20)
(1.21385 0.2241 -3.2752e-20)
(1.24811 0.233471 -8.29948e-20)
(1.27276 0.239865 -2.69455e-20)
(1.28977 0.24375 -8.06182e-20)
(1.30095 0.245584 -6.97685e-20)
(1.30785 0.245832 -2.0661e-19)
(1.31204 0.24577 3.27112e-19)
(0.0119128 -0.00133248 1.84052e-19)
(0.0724302 -0.0045567 -2.04483e-19)
(0.163859 0.00149586 4.40305e-19)
(0.277941 0.0151766 -1.90258e-19)
(0.406794 0.0354692 5.08579e-19)
(0.542399 0.06103 7.43208e-21)
(0.676993 0.0898641 2.55507e-19)
(0.803853 0.119759 -6.86264e-20)
(0.91793 0.148678 2.8536e-19)
(1.01615 0.175022 2.04269e-20)
(1.09732 0.19774 6.77745e-19)
(1.16185 0.216333 -4.67408e-19)
(1.2112 0.230755 6.31509e-20)
(1.2475 0.241293 1.20154e-19)
(1.2731 0.248424 6.25691e-19)
(1.2903 0.252714 -2.24687e-19)
(1.30117 0.254728 -4.4394e-20)
(1.30745 0.254964 -2.34156e-19)
(1.31061 0.253914 -2.4332e-20)
(1.31197 0.252595 1.16901e-19)
(0.0191583 -0.00229973 -8.80878e-20)
(0.0952247 -0.00516418 2.54856e-19)
(0.202419 0.00389888 -2.61473e-19)
(0.331149 0.0220681 1.0306e-19)
(0.472039 0.0474041 -1.23691e-19)
(0.615782 0.0777512 4.53509e-19)
(0.753888 0.110443 -6.33609e-20)
(0.879634 0.142854 1.55355e-19)
(0.988633 0.172834 -9.16744e-20)
(1.07889 0.198919 -2.52622e-21)
(1.15046 0.220355 1.04193e-19)
(1.20484 0.236995 -8.06854e-20)
(1.24441 0.249134 2.09068e-19)
(1.27188 0.257329 -1.04285e-19)
(1.28992 0.262254 -4.57248e-19)
(1.30093 0.264585 4.54114e-19)
(1.30692 0.264936 -2.04038e-19)
(1.30949 0.263804 1.62858e-19)
(1.30991 0.261678 2.81539e-19)
(1.30932 0.259378 1.15588e-19)
(0.0275178 -0.00290093 2.19318e-19)
(0.120633 -0.00449556 -4.52083e-19)
(0.24425 0.00849208 8.64303e-20)
(0.387326 0.0318568 -6.28159e-20)
(0.53895 0.0625702 -2.53817e-19)
(0.688694 0.0975892 -1.99193e-19)
(0.827725 0.13362 -3.92355e-20)
(0.949802 0.167765 -3.54891e-19)
(1.05162 0.197939 -2.16651e-20)
(1.13255 0.222974 -6.58907e-20)
(1.19392 0.242515 -1.78615e-19)
(1.23831 0.256815 -3.97302e-20)
(1.2688 0.266496 -1.36426e-19)
(1.2885 0.272352 -2.27126e-19)
(1.3002 0.275193 2.32203e-19)
(1.30625 0.275757 3.17197e-20)
(1.30849 0.27466 6.3197e-20)
(1.30832 0.272372 -2.6643e-19)
(1.30681 0.269363 -6.81426e-21)
(1.30489 0.266292 -4.09771e-19)
(0.0369922 -0.00302117 2.3996e-19)
(0.148499 -0.00228733 1.60194e-19)
(0.288891 0.0155663 -2.58734e-19)
(0.445611 0.0447421 4.04011e-19)
(0.60628 0.0809831 -4.36802e-20)
(0.759664 0.120344 1.51018e-19)
(0.897074 0.159021 5.23043e-20)
(1.01325 0.194035 1.85124e-19)
(1.10632 0.223557 -1.44974e-19)
(1.17714 0.246854 4.82607e-20)
(1.22831 0.264038 -4.62786e-20)
(1.2633 0.275762 -2.02361e-20)
(1.2857 0.282943 3.86305e-20)
(1.2988 0.286552 -7.10411e-20)
(1.30535 0.287479 -2.17469e-20)
(1.30754 0.286477 -6.66065e-20)
(1.30697 0.284131 -1.08108e-19)
(1.30483 0.280866 6.98478e-20)
(1.30199 0.277124 -9.54788e-20)
(1.29918 0.273433 4.12813e-19)
(0.0475498 -0.00254217 -1.19655e-19)
(0.178579 0.00171109 -3.39449e-19)
(0.335757 0.0253642 -4.52162e-20)
(0.505029 0.0608366 -1.24413e-20)
(0.672754 0.102553 -1.523e-19)
(0.827338 0.14573 -2.50157e-19)
(0.960785 0.186235 8.18362e-20)
(1.06926 0.221233 -1.12457e-19)
(1.15256 0.249332 -1.25874e-19)
(1.21306 0.270334 7.00876e-20)
(1.25449 0.284844 -5.29248e-20)
(1.28097 0.293888 -1.06962e-19)
(1.29639 0.298619 -3.50398e-21)
(1.30404 0.300124 7.24405e-20)
(1.30653 0.299323 -7.37349e-20)
(1.30577 0.296943 1.02322e-19)
(1.30316 0.293516 2.7583e-20)
(1.29964 0.289411 6.92417e-20)
(1.29589 0.28505 1.34633e-19)
(1.29251 0.280835 -1.15292e-19)
(0.0591243 -0.00134697 1.14213e-19)
(0.21054 0.00772473 -9.91123e-21)
(0.384155 0.0380647 5.14534e-20)
(0.564541 0.0801585 -6.97064e-20)
(0.737142 0.127096 5.83793e-21)
(0.890555 0.173398 2.421e-19)
(1.01802 0.214847 -1.58953e-19)
(1.11749 0.248979 6.73517e-20)
(1.19055 0.27499 5.93896e-20)
(1.24097 0.293278 -1.66654e-19)
(1.2734 0.304928 1.56559e-19)
(1.29242 0.311287 1.40894e-21)
(1.30198 0.313678 -1.10167e-19)
(1.30526 0.313244 1.3275e-19)
(1.30461 0.310892 -5.26506e-20)
(1.30168 0.307294 4.02354e-20)
(1.2976 0.302918 -4.50096e-20)
(1.29313 0.298076 -1.80518e-20)
(1.2888 0.293172 -1.57144e-19)
(1.28504 0.28849 4.81772e-20)
(0.0716137 0.000674938 -3.83888e-20)
(0.243967 0.0159405 1.03294e-19)
(0.433314 0.0537716 1.61517e-20)
(0.62309 0.10263 6.76382e-20)
(0.798314 0.154344 3.23215e-20)
(0.948379 0.202963 1.51576e-20)
(1.06826 0.244458 8.58128e-20)
(1.15791 0.276948 -1.0391e-20)
(1.22069 0.30033 3.78299e-20)
(1.26162 0.315616 6.07428e-20)
(1.286 0.324327 2.92994e-20)
(1.29864 0.328065 2.10316e-20)
(1.30342 0.328257 8.5259e-20)
(1.30327 0.32605 -8.25334e-20)
(1.30025 0.322302 1.77048e-20)
(1.29574 0.317616 -1.65847e-20)
(1.29064 0.312388 2.56358e-20)
(1.28555 0.306879 2.14772e-20)
(1.28085 0.301483 4.48058e-20)
(1.27687 0.29636 1.84702e-21)
(0.0848806 0.00362224 2.27667e-20)
(0.278376 0.0264961 2.07965e-20)
(0.482408 0.0725058 -2.88203e-20)
(0.679651 0.128084 1.80137e-20)
(0.855288 0.183967 1.01855e-20)
(1.00012 0.234026 -3.16987e-20)
(1.11123 0.274698 1.04553e-20)
(1.19072 0.304873 1.9024e-21)
(1.24357 0.325212 1.80272e-20)
(1.2758 0.33732 -4.83619e-20)
(1.29317 0.343096 -1.50779e-22)
(1.3005 0.34432 1.34006e-20)
(1.30146 0.342464 -1.06808e-20)
(1.29868 0.338636 1.08037e-20)
(1.29391 0.333621 2.81961e-20)
(1.28829 0.327946 -1.60479e-20)
(1.28252 0.321935 4.46717e-21)
(1.27703 0.315806 1.75794e-20)
(1.27212 0.309944 -2.8959e-20)
(1.26804 0.304386 1.39133e-20)
(0.0848992 -0.00362206 6.13292e-20)
(0.27842 -0.0264957 -3.37417e-20)
(0.482467 -0.072504 3.98754e-20)
(0.679715 -0.128079 -2.97174e-20)
(0.85535 -0.183957 -1.34626e-20)
(1.00017 -0.234009 4.1321e-21)
(1.11127 -0.274675 -1.33344e-20)
(1.19075 -0.304844 4.824e-20)
(1.24359 -0.325177 -4.03854e-20)
(1.27581 -0.337281 9.22564e-21)
(1.29317 -0.343054 -7.12568e-21)
(1.3005 -0.344277 -4.68692e-20)
(1.30146 -0.342419 4.56742e-20)
(1.29867 -0.33859 1.77258e-20)
(1.2939 -0.333575 -1.70905e-20)
(1.28828 -0.327899 4.10793e-20)
(1.2825 -0.321889 -4.83464e-22)
(1.27702 -0.315759 -4.01045e-20)
(1.27211 -0.309898 2.94638e-20)
(1.26802 -0.30434 9.82033e-21)
(0.0716319 -0.000674125 -2.19509e-20)
(0.244011 -0.0159387 5.97397e-20)
(0.433374 -0.0537685 6.99258e-20)
(0.623157 -0.102624 -3.3831e-20)
(0.79838 -0.154333 5.85264e-20)
(0.948438 -0.202947 9.50216e-20)
(1.06831 -0.244435 -5.3329e-21)
(1.15795 -0.276919 -1.70606e-20)
(1.22072 -0.300296 8.45895e-20)
(1.26163 -0.315577 4.1827e-20)
(1.28601 -0.324285 -7.8548e-21)
(1.29864 -0.32802 6.37432e-20)
(1.30342 -0.328211 -6.84866e-20)
(1.30327 -0.326003 1.09593e-19)
(1.30024 -0.322254 -1.79223e-20)
(1.29573 -0.317568 5.46088e-20)
(1.29063 -0.31234 1.06943e-20)
(1.28554 -0.306831 3.90796e-20)
(1.28083 -0.301435 -3.67149e-20)
(1.27686 -0.296313 1.01603e-20)
(0.059142 0.00134838 -3.26799e-20)
(0.210584 -0.00772162 7.16363e-20)
(0.384217 -0.0380601 5.35089e-20)
(0.564611 -0.0801514 -8.55828e-21)
(0.737213 -0.127085 8.96521e-20)
(0.890621 -0.173382 -7.05413e-20)
(1.01808 -0.214825 -7.44163e-21)
(1.11754 -0.248951 6.38417e-20)
(1.19058 -0.274956 2.13651e-20)
(1.24099 -0.293239 2.96663e-20)
(1.27341 -0.304885 -4.37036e-20)
(1.29242 -0.311241 1.22046e-19)
(1.30198 -0.31363 2.36985e-20)
(1.30526 -0.313196 -1.07654e-19)
(1.3046 -0.310842 1.65651e-19)
(1.30166 -0.307244 -1.9611e-19)
(1.29759 -0.302868 -9.32387e-20)
(1.29312 -0.298025 1.59063e-20)
(1.28878 -0.293122 8.98883e-20)
(1.28502 -0.288441 -1.70303e-19)
(0.0475667 0.00254413 -6.8643e-20)
(0.178622 -0.00170668 -1.614e-19)
(0.335818 -0.0253581 -1.42299e-19)
(0.505102 -0.0608282 -1.94991e-19)
(0.672829 -0.102542 -1.15916e-19)
(0.82741 -0.145714 -2.46426e-19)
(0.960849 -0.186213 3.136e-20)
(1.06931 -0.221206 -1.41529e-19)