1.275 	2.15223e-18 	-2.76991e-20 	-0.150218 	0.00636804 	-2.79131e-22
1.825 	2.15223e-18 	-1.39322e-20 	-0.34743 	0.00743539 	4.1143e-21
2.375 	2.15223e-18 	-2.66896e-23 	-0.457456 	0.00453071 	-2.09724e-21
