/*--------------------------------*- C++ -*----------------------------------*\
  =========                 |
  \\      /  F ield         | OpenFOAM: The Open Source CFD Toolbox
   \\    /   O peration     | Website:  https://openfoam.org
    \\  /    A nd           | Version:  6.0
     \\/     M anipulation  |
\*---------------------------------------------------------------------------*/
FoamFile
{
    version     2.0;
    format      ascii;
    class       volScalarField;
    location    "8";
    object      p;
}
// * * * * * * * * * * * * * * * * * * * * * * * * * * * * * * * * * * * * * //

dimensions      [0 2 -2 0 0 0 0];

internalField   nonuniform List<scalar> 
12500
(
-0.312356
-0.314128
-0.315299
-0.31618
-0.316966
-0.317693
-0.318392
-0.319094
-0.319815
-0.32057
-0.321365
-0.322208
-0.323102
-0.324052
-0.32506
-0.326131
-0.32727
-0.32848
-0.329765
-0.331136
-0.332613
-0.334185
-0.335677
-0.337075
-0.340031
-0.312587
-0.314329
-0.315482
-0.316351
-0.317127
-0.317846
-0.318539
-0.319234
-0.319949
-0.320698
-0.321488
-0.322325
-0.323214
-0.324157
-0.325159
-0.326224
-0.327356
-0.32856
-0.329839
-0.331203
-0.332676
-0.334245
-0.335735
-0.337128
-0.340086
-0.313045
-0.314726
-0.315842
-0.316688
-0.317444
-0.318147
-0.318825
-0.319508
-0.320212
-0.320949
-0.321728
-0.322553
-0.323429
-0.32436
-0.32535
-0.326401
-0.32752
-0.32871
-0.329977
-0.331329
-0.332792
-0.334354
-0.335841
-0.337223
-0.340183
-0.313714
-0.315307
-0.316371
-0.317181
-0.317908
-0.318586
-0.319243
-0.319906
-0.320592
-0.321311
-0.322072
-0.322879
-0.323736
-0.324648
-0.325617
-0.326647
-0.327745
-0.328914
-0.33016
-0.331494
-0.33294
-0.334491
-0.33597
-0.337336
-0.340294
-0.314576
-0.316056
-0.317053
-0.317817
-0.318505
-0.31915
-0.319778
-0.320414
-0.321074
-0.321768
-0.322503
-0.323284
-0.324115
-0.324999
-0.325939
-0.32694
-0.328007
-0.329147
-0.330364
-0.331669
-0.33309
-0.334622
-0.336089
-0.337431
-0.340382
-0.315605
-0.316955
-0.317871
-0.318578
-0.31922
-0.319823
-0.320414
-0.321015
-0.321641
-0.322301
-0.323002
-0.323748
-0.324543
-0.325389
-0.326291
-0.327253
-0.328279
-0.329378
-0.330554
-0.331821
-0.333207
-0.334711
-0.336158
-0.337466
-0.3404
-0.316776
-0.31798
-0.318805
-0.319448
-0.320033
-0.320587
-0.321132
-0.321689
-0.322272
-0.322889
-0.323546
-0.324248
-0.324996
-0.325794
-0.326646
-0.327555
-0.328529
-0.329575
-0.330698
-0.331914
-0.333252
-0.334716
-0.336133
-0.337397
-0.340302
-0.318059
-0.319108
-0.319835
-0.320405
-0.320927
-0.321422
-0.321913
-0.322417
-0.322946
-0.32351
-0.324113
-0.324758
-0.325448
-0.326185
-0.326974
-0.327819
-0.328727
-0.329705
-0.330762
-0.331912
-0.333188
-0.334599
-0.335973
-0.337181
-0.340042
-0.319424
-0.320315
-0.32094
-0.321432
-0.321883
-0.322312
-0.322738
-0.323179
-0.323645
-0.324144
-0.32468
-0.325257
-0.325876
-0.32654
-0.327252
-0.328018
-0.328844
-0.32974
-0.330714
-0.331783
-0.33298
-0.334322
-0.335641
-0.336783
-0.339584
-0.320845
-0.32158
-0.3221
-0.32251
-0.322884
-0.323238
-0.323592
-0.323959
-0.324351
-0.324774
-0.325231
-0.325726
-0.32626
-0.326836
-0.327457
-0.328129
-0.328858
-0.329654
-0.330529
-0.331499
-0.332601
-0.333858
-0.335107
-0.336171
-0.338898
-0.322297
-0.322884
-0.3233
-0.323625
-0.323916
-0.324189
-0.324461
-0.324745
-0.325051
-0.325385
-0.325751
-0.326151
-0.326587
-0.327061
-0.327576
-0.328137
-0.328753
-0.329433
-0.33019
-0.331044
-0.332032
-0.333185
-0.334349
-0.335327
-0.337968
-0.323761
-0.324211
-0.324527
-0.324764
-0.324968
-0.325153
-0.325335
-0.325526
-0.325735
-0.32597
-0.326233
-0.326525
-0.32685
-0.327208
-0.327602
-0.328038
-0.328524
-0.329071
-0.329693
-0.330411
-0.331266
-0.332296
-0.333358
-0.334238
-0.336786
-0.325221
-0.325549
-0.32577
-0.32592
-0.326033
-0.326124
-0.326208
-0.326297
-0.326401
-0.326525
-0.326673
-0.326847
-0.327049
-0.327278
-0.327539
-0.327836
-0.328177
-0.328574
-0.329042
-0.329605
-0.330306
-0.331192
-0.332131
-0.332902
-0.335351
-0.326669
-0.326893
-0.327026
-0.327089
-0.327108
-0.3271
-0.327079
-0.327058
-0.327047
-0.327052
-0.327077
-0.327124
-0.327193
-0.327284
-0.327401
-0.327547
-0.32773
-0.327961
-0.328258
-0.328645
-0.32917
-0.329886
-0.330676
-0.33132
-0.333662
-0.328104
-0.328242
-0.328293
-0.32827
-0.328194
-0.328082
-0.32795
-0.327813
-0.327681
-0.32756
-0.327455
-0.327367
-0.327297
-0.327244
-0.32721
-0.327197
-0.327212
-0.327265
-0.327373
-0.327563
-0.327886
-0.328402
-0.329009
-0.329495
-0.331714
-0.32953
-0.329599
-0.329576
-0.329468
-0.329295
-0.329076
-0.328829
-0.32857
-0.328311
-0.32806
-0.327821
-0.327596
-0.327384
-0.327184
-0.326996
-0.32682
-0.326661
-0.326527
-0.326433
-0.326406
-0.326496
-0.326773
-0.327149
-0.327424
-0.329484
-0.330959
-0.330976
-0.330885
-0.330692
-0.33042
-0.33009
-0.329724
-0.32934
-0.328951
-0.328567
-0.328193
-0.32783
-0.327477
-0.327133
-0.326793
-0.326456
-0.326123
-0.325797
-0.32549
-0.325225
-0.325052
-0.325042
-0.325122
-0.325103
-0.326933
-0.332408
-0.332387
-0.332231
-0.331953
-0.33158
-0.331137
-0.330648
-0.330136
-0.329616
-0.329098
-0.32859
-0.328092
-0.327603
-0.32712
-0.326635
-0.326143
-0.32564
-0.325124
-0.324598
-0.324077
-0.323607
-0.323256
-0.322955
-0.32252
-0.324
-0.333901
-0.33385
-0.333632
-0.333268
-0.33279
-0.33223
-0.331617
-0.330974
-0.330321
-0.329672
-0.329032
-0.328404
-0.327785
-0.32717
-0.32655
-0.325914
-0.32525
-0.324549
-0.323803
-0.323014
-0.322214
-0.321461
-0.320679
-0.319668
-0.320615
-0.335467
-0.33539
-0.335109
-0.334655
-0.334069
-0.333388
-0.332646
-0.331871
-0.331086
-0.330305
-0.329537
-0.328784
-0.328043
-0.327306
-0.326561
-0.325792
-0.324979
-0.324103
-0.32314
-0.322075
-0.320916
-0.319703
-0.318331
-0.316551
-0.316711
-0.337136
-0.337033
-0.336685
-0.336135
-0.335435
-0.334629
-0.333755
-0.332846
-0.331928
-0.331017
-0.330123
-0.329249
-0.328392
-0.327541
-0.326681
-0.325791
-0.324842
-0.323802
-0.322631
-0.32129
-0.319755
-0.318034
-0.315978
-0.313232
-0.312298
-0.338945
-0.338807
-0.338384
-0.337731
-0.33691
-0.335973
-0.334963
-0.333917
-0.332864
-0.331823
-0.330805
-0.329814
-0.328845
-0.327887
-0.326921
-0.32592
-0.324848
-0.323659
-0.322297
-0.320693
-0.318788
-0.316545
-0.31376
-0.309909
-0.307547
-0.34093
-0.340743
-0.340233
-0.339467
-0.338518
-0.337442
-0.33629
-0.335103
-0.333914
-0.332742
-0.3316
-0.330493
-0.329415
-0.328355
-0.32729
-0.326189
-0.32501
-0.323696
-0.322171
-0.320339
-0.318097
-0.315353
-0.311829
-0.306761
-0.302554
-0.343128
-0.342873
-0.342261
-0.341369
-0.34028
-0.339057
-0.337758
-0.336426
-0.335096
-0.333791
-0.332525
-0.331302
-0.330118
-0.32896
-0.327805
-0.326623
-0.325367
-0.323974
-0.32236
-0.320403
-0.31795
-0.314818
-0.310561
-0.303985
-0.297195
-0.345576
-0.345227
-0.344494
-0.343463
-0.342221
-0.340842
-0.339387
-0.337905
-0.336431
-0.33499
-0.333598
-0.332259
-0.330971
-0.329722
-0.328493
-0.327256
-0.325976
-0.324602
-0.323069
-0.321283
-0.319118
-0.316378
-0.312467
-0.305779
-0.29788
-0.348308
-0.347836
-0.346961
-0.345773
-0.344366
-0.34282
-0.341201
-0.339562
-0.337939
-0.33636
-0.334839
-0.333385
-0.331994
-0.33066
-0.32937
-0.328106
-0.326852
-0.325591
-0.324317
-0.323042
-0.321832
-0.320828
-0.320231
-0.321102
-0.329468
-0.351359
-0.350729
-0.349687
-0.348324
-0.346736
-0.345012
-0.343221
-0.341417
-0.339641
-0.33792
-0.336269
-0.334698
-0.333205
-0.331789
-0.330443
-0.329161
-0.327945
-0.326805
-0.325778
-0.324934
-0.324414
-0.324454
-0.325389
-0.328161
-0.33701
-0.354757
-0.353933
-0.352699
-0.351141
-0.349357
-0.347441
-0.345468
-0.343494
-0.341559
-0.339692
-0.337908
-0.336217
-0.334621
-0.33312
-0.331714
-0.330407
-0.329213
-0.328161
-0.327305
-0.326737
-0.326603
-0.32712
-0.328547
-0.331361
-0.338221
-0.358532
-0.357474
-0.35602
-0.354247
-0.352249
-0.350129
-0.347964
-0.345813
-0.343714
-0.341696
-0.339775
-0.33796
-0.336253
-0.334658
-0.333177
-0.33182
-0.330606
-0.32957
-0.328769
-0.328286
-0.328237
-0.328772
-0.33004
-0.332214
-0.336954
-0.362707
-0.361376
-0.359674
-0.357665
-0.355437
-0.353099
-0.350733
-0.348396
-0.346127
-0.343952
-0.341887
-0.339937
-0.338106
-0.336396
-0.334811
-0.333361
-0.332064
-0.330953
-0.330073
-0.329485
-0.329264
-0.329495
-0.330239
-0.331502
-0.33428
-0.367307
-0.365661
-0.363683
-0.361417
-0.358942
-0.356374
-0.353797
-0.351266
-0.348819
-0.346478
-0.344256
-0.342156
-0.340178
-0.338322
-0.33659
-0.334988
-0.333531
-0.332241
-0.33115
-0.330296
-0.329718
-0.329451
-0.329507
-0.329819
-0.330957
-0.372351
-0.37035
-0.368068
-0.365524
-0.362787
-0.359977
-0.357178
-0.354444
-0.351808
-0.349288
-0.346891
-0.344615
-0.342457
-0.340411
-0.338475
-0.336651
-0.334948
-0.333378
-0.33196
-0.330713
-0.329654
-0.328789
-0.328107
-0.32752
-0.327338
-0.377857
-0.375461
-0.372849
-0.370009
-0.366994
-0.36393
-0.360899
-0.35795
-0.355111
-0.352391
-0.349792
-0.347306
-0.344921
-0.342629
-0.340422
-0.338299
-0.336261
-0.334316
-0.332474
-0.330743
-0.329128
-0.327626
-0.32622
-0.324826
-0.323612
-0.38384
-0.381011
-0.378044
-0.374892
-0.371586
-0.368255
-0.36498
-0.361801
-0.358738
-0.355792
-0.352953
-0.350208
-0.34754
-0.344935
-0.342381
-0.339875
-0.337418
-0.335014
-0.332671
-0.330394
-0.328187
-0.326045
-0.323957
-0.321851
-0.31983
-0.390311
-0.387013
-0.383669
-0.380189
-0.37658
-0.372971
-0.369437
-0.366009
-0.362693
-0.359481
-0.356355
-0.353292
-0.350271
-0.347275
-0.344294
-0.341324
-0.338369
-0.335436
-0.332535
-0.329674
-0.32686
-0.324096
-0.321376
-0.318644
-0.315979
-0.397278
-0.393476
-0.389735
-0.385915
-0.381992
-0.378092
-0.374281
-0.370575
-0.366969
-0.363442
-0.359967
-0.356514
-0.353061
-0.349592
-0.346101
-0.342589
-0.339068
-0.335549
-0.332051
-0.328586
-0.325169
-0.321807
-0.318504
-0.315216
-0.312014
-0.404739
-0.400403
-0.396249
-0.392079
-0.387831
-0.383624
-0.379511
-0.375492
-0.371546
-0.367641
-0.363742
-0.359817
-0.355846
-0.351819
-0.347738
-0.343616
-0.339471
-0.335327
-0.331207
-0.327133
-0.323124
-0.319193
-0.315349
-0.311557
-0.307888
-0.412687
-0.40779
-0.40321
-0.398683
-0.394098
-0.389564
-0.385116
-0.380736
-0.376388
-0.37203
-0.367621
-0.363134
-0.358556
-0.353888
-0.349145
-0.344352
-0.339541
-0.334745
-0.329993
-0.325315
-0.320732
-0.31626
-0.311911
-0.307654
-0.303561
-0.421105
-0.415624
-0.41061
-0.405718
-0.400783
-0.395895
-0.39107
-0.386271
-0.381445
-0.376545
-0.371532
-0.366389
-0.361115
-0.355728
-0.35026
-0.344752
-0.339246
-0.333784
-0.328403
-0.323132
-0.317996
-0.313012
-0.308187
-0.303497
-0.299006
-0.429963
-0.423882
-0.418429
-0.413166
-0.407862
-0.402586
-0.397331
-0.392039
-0.386647
-0.381107
-0.375391
-0.369497
-0.363444
-0.357271
-0.35103
-0.344775
-0.338558
-0.33243
-0.326428
-0.320584
-0.31492
-0.309449
-0.304177
-0.299077
-0.29421
-0.439219
-0.432527
-0.426634
-0.420992
-0.415297
-0.409589
-0.403838
-0.397966
-0.391909
-0.385625
-0.379105
-0.37237
-0.365465
-0.358453
-0.351403
-0.344382
-0.337454
-0.330668
-0.324063
-0.317669
-0.311502
-0.305571
-0.299877
-0.294389
-0.289164
-0.448814
-0.441509
-0.435177
-0.429148
-0.423031
-0.416836
-0.410509
-0.403961
-0.397131
-0.389996
-0.382575
-0.374919
-0.367102
-0.359211
-0.351332
-0.343543
-0.33591
-0.328485
-0.321301
-0.314382
-0.307739
-0.301375
-0.295283
-0.289428
-0.283865
-0.458676
-0.450763
-0.443996
-0.437567
-0.430989
-0.424242
-0.417248
-0.409916
-0.402202
-0.394112
-0.3857
-0.377055
-0.368281
-0.359488
-0.350775
-0.342226
-0.333908
-0.325867
-0.318131
-0.310717
-0.303626
-0.296855
-0.290392
-0.284191
-0.278311
-0.468714
-0.460207
-0.453011
-0.446163
-0.439078
-0.431699
-0.423937
-0.415709
-0.407
-0.397857
-0.388379
-0.378693
-0.368935
-0.359231
-0.349692
-0.340403
-0.331426
-0.322799
-0.314542
-0.306662
-0.299152
-0.292003
-0.285193
-0.278668
-0.272497
-0.478821
-0.469741
-0.462122
-0.454835
-0.447184
-0.439084
-0.430445
-0.421207
-0.411397
-0.401116
-0.390512
-0.379752
-0.368998
-0.358392
-0.348047
-0.338046
-0.328441
-0.319262
-0.310517
-0.302203
-0.294305
-0.286805
-0.279675
-0.27285
-0.266414
-0.488873
-0.479249
-0.471215
-0.463458
-0.455174
-0.446257
-0.436628
-0.426269
-0.415264
-0.403776
-0.392004
-0.380154
-0.36841
-0.356922
-0.345803
-0.335125
-0.32493
-0.315235
-0.306038
-0.297323
-0.289068
-0.281247
-0.273823
-0.266724
-0.260052
-0.49873
-0.4886
-0.480156
-0.471892
-0.462901
-0.453064
-0.442334
-0.430751
-0.418471
-0.405724
-0.392763
-0.379826
-0.367114
-0.354778
-0.342923
-0.33161
-0.320867
-0.310696
-0.301083
-0.292001
-0.283421
-0.275309
-0.267621
-0.260272
-0.253395
-0.508238
-0.497644
-0.488794
-0.479982
-0.470202
-0.45934
-0.447403
-0.434507
-0.420891
-0.406856
-0.392705
-0.378703
-0.365058
-0.351917
-0.339373
-0.327471
-0.316223
-0.305618
-0.295627
-0.286215
-0.277342
-0.26897
-0.261048
-0.253478
-0.246426
-0.517227
-0.506219
-0.496967
-0.487557
-0.476902
-0.464915
-0.451674
-0.437394
-0.422402
-0.407072
-0.39175
-0.376719
-0.36219
-0.348297
-0.335117
-0.322676
-0.310971
-0.299973
-0.289644
-0.279939
-0.270808
-0.26221
-0.254082
-0.246319
-0.239126
-0.52552
-0.514152
-0.504496
-0.494437
-0.48282
-0.469613
-0.45499
-0.439274
-0.422892
-0.406281
-0.389825
-0.373818
-0.358463
-0.343878
-0.330119
-0.317193
-0.305079
-0.293735
-0.283109
-0.273148
-0.263796
-0.255004
-0.246703
-0.238778
-0.231477
-0.53293
-0.52126
-0.511198
-0.500433
-0.487774
-0.473263
-0.457197
-0.440019
-0.422252
-0.404398
-0.386863
-0.369945
-0.353831
-0.33862
-0.324343
-0.310989
-0.298518
-0.286874
-0.275995
-0.265817
-0.25628
-0.247331
-0.238889
-0.230832
-0.223458
-0.539263
-0.527351
-0.51688
-0.505354
-0.491577
-0.475696
-0.458148
-0.439506
-0.420388
-0.401346
-0.382804
-0.36505
-0.348253
-0.332486
-0.317757
-0.304033
-0.291258
-0.279363
-0.268275
-0.257922
-0.248239
-0.239168
-0.23062
-0.222462
-0.215051
-0.544326
-0.532236
-0.521349
-0.50901
-0.49405
-0.476753
-0.45771
-0.437628
-0.417214
-0.397058
-0.377592
-0.359089
-0.341689
-0.325441
-0.310327
-0.296295
-0.283272
-0.271176
-0.259925
-0.249441
-0.239652
-0.230497
-0.221876
-0.213652
-0.206238
-0.547929
-0.535722
-0.524414
-0.511216
-0.495025
-0.476285
-0.45576
-0.434288
-0.412652
-0.391474
-0.37118
-0.352019
-0.334104
-0.317453
-0.302025
-0.287748
-0.274534
-0.262289
-0.250923
-0.240351
-0.230499
-0.221298
-0.212642
-0.204386
-0.197006
-0.549884
-0.537624
-0.525891
-0.511795
-0.494341
-0.47416
-0.452191
-0.4294
-0.406639
-0.384543
-0.363526
-0.343806
-0.325466
-0.308493
-0.292824
-0.278367
-0.265021
-0.252681
-0.24125
-0.230637
-0.220763
-0.211558
-0.202903
-0.19465
-0.187341
-0.550016
-0.537763
-0.525605
-0.510583
-0.491856
-0.470257
-0.446909
-0.422896
-0.39912
-0.376223
-0.354594
-0.33442
-0.315747
-0.298537
-0.282701
-0.268132
-0.254713
-0.242334
-0.23089
-0.220283
-0.210433
-0.201264
-0.192649
-0.184436
-0.177235
-0.548159
-0.535975
-0.523393
-0.507433
-0.487442
-0.464477
-0.439838
-0.414716
-0.390052
-0.36648
-0.344357
-0.323835
-0.304927
-0.287564
-0.271638
-0.257024
-0.243596
-0.231235
-0.21983
-0.209279
-0.199498
-0.190409
-0.181872
-0.173738
-0.166683
-0.544165
-0.532109
-0.51911
-0.502214
-0.480994
-0.456738
-0.430918
-0.404819
-0.379403
-0.355288
-0.332795
-0.312035
-0.292988
-0.275559
-0.259619
-0.245031
-0.231659
-0.219375
-0.208062
-0.197617
-0.187953
-0.178988
-0.170571
-0.162554
-0.155682
-0.537903
-0.526032
-0.512631
-0.494817
-0.472424
-0.446976
-0.420106
-0.393174
-0.367153
-0.342633
-0.319893
-0.299007
-0.279919
-0.262511
-0.246638
-0.232146
-0.218894
-0.206746
-0.195583
-0.185296
-0.175797
-0.167
-0.158746
-0.150886
-0.144235
-0.529263
-0.517633
-0.503853
-0.485157
-0.461669
-0.435147
-0.407374
-0.379766
-0.353292
-0.328507
-0.305647
-0.284745
-0.265716
-0.248418
-0.232689
-0.218367
-0.2053
-0.19335
-0.182392
-0.172316
-0.163032
-0.154451
-0.146402
-0.138742
-0.13235
-0.518159
-0.506823
-0.492694
-0.47317
-0.448686
-0.421229
-0.392712
-0.364591
-0.337821
-0.312913
-0.290059
-0.269253
-0.250381
-0.23328
-0.217775
-0.203694
-0.190879
-0.179189
-0.168495
-0.158684
-0.149666
-0.141347
-0.133549
-0.126131
-0.120035
-0.504528
-0.493538
-0.479099
-0.458818
-0.433455
-0.405217
-0.376125
-0.347662
-0.320753
-0.295864
-0.273141
-0.25254
-0.233922
-0.217105
-0.201903
-0.188135
-0.17564
-0.164272
-0.153899
-0.144409
-0.135709
-0.127703
-0.120202
-0.113071
-0.107309
-0.488334
-0.47774
-0.463039
-0.442087
-0.415979
-0.387125
-0.357636
-0.329002
-0.302112
-0.27738
-0.25491
-0.234623
-0.216354
-0.199907
-0.185085
-0.171703
-0.159594
-0.14861
-0.138619
-0.129505
-0.121175
-0.113533
-0.106377
-0.0995794
-0.0941906
-0.469564
-0.459415
-0.44451
-0.422987
-0.396282
-0.366987
-0.337282
-0.308648
-0.281931
-0.257493
-0.235394
-0.215524
-0.197697
-0.181703
-0.167338
-0.154412
-0.142756
-0.132219
-0.122668
-0.113987
-0.106084
-0.0988563
-0.0920973
-0.0856816
-0.0807033
-0.448235
-0.438578
-0.423533
-0.401553
-0.374409
-0.344854
-0.315114
-0.28665
-0.260256
-0.236244
-0.21463
-0.195276
-0.17798
-0.162519
-0.148685
-0.136284
-0.125145
-0.115117
-0.106066
-0.097876
-0.0904538
-0.0836957
-0.077387
-0.0714047
-0.0668748
-0.424388
-0.415268
-0.400156
-0.377842
-0.350426
-0.320794
-0.2912
-0.26307
-0.237144
-0.213681
-0.192661
-0.173918
-0.157236
-0.142385
-0.129152
-0.117341
-0.106782
-0.0973237
-0.0888313
-0.0811898
-0.0743063
-0.0680745
-0.0622738
-0.0567808
-0.0527398
-0.39809
-0.389551
-0.374451
-0.351936
-0.324417
-0.294892
-0.265619
-0.237982
-0.212661
-0.189866
-0.169539
-0.151496
-0.135506
-0.121335
-0.108768
-0.0976098
-0.08769
-0.0788586
-0.0709825
-0.0639474
-0.0576611
-0.0520158
-0.0467861
-0.0418456
-0.0383421
-0.369434
-0.361518
-0.346512
-0.323934
-0.296485
-0.267247
-0.238467
-0.211473
-0.186885
-0.164866
-0.145327
-0.128063
-0.112837
-0.0994103
-0.087568
-0.0771177
-0.0678912
-0.0597407
-0.0525357
-0.0461638
-0.040534
-0.0355381
-0.0309494
-0.0266367
-0.0237285
-0.338534
-0.331281
-0.316457
-0.293958
-0.266751
-0.237976
-0.20985
-0.18364
-0.159905
-0.138763
-0.120095
-0.103683
-0.0892825
-0.0766559
-0.0655893
-0.0558946
-0.0474078
-0.0399856
-0.0335015
-0.0278464
-0.0229317
-0.0186512
-0.0147822
-0.0111851
-0.00892699
-0.305528
-0.298976
-0.284424
-0.262145
-0.23535
-0.207207
-0.179888
-0.154592
-0.13182
-0.111645
-0.093924
-0.078427
-0.0649055
-0.0531244
-0.0428741
-0.0339719
-0.0262605
-0.0196032
-0.01388
-0.00898799
-0.00484277
-0.00134459
0.00171844
0.00450672
0.00607732
-0.270574
-0.264757
-0.250569
-0.228653
-0.202432
-0.175082
-0.148712
-0.124452
-0.102741
-0.0836135
-0.0669051
-0.0523763
-0.0397775
-0.0288771
-0.0194715
-0.0113857
-0.00447078
0.00140064
0.00633857
0.0104364
0.0137699
0.0164273
0.0186023
0.0204854
0.0213038
-0.233848
-0.228799
-0.215063
-0.193649
-0.16816
-0.141753
-0.116464
-0.0933487
-0.0727883
-0.05478
-0.0391407
-0.0256243
-0.0139816
-0.00398583
0.00455924
0.0118194
0.017933
0.0230153
0.0271619
0.0304509
0.032946
0.0347193
0.0359251
0.0367426
0.0365627
-0.195541
-0.191289
-0.178095
-0.157317
-0.132708
-0.107384
-0.0832965
-0.0614251
-0.0420942
-0.0252673
-0.0107451
0.00172369
0.0123866
0.0214651
0.0291478
0.0355905
0.0409191
0.0452325
0.048604
0.051087
0.0527268
0.0535651
0.0536368
0.0529723
0.0512501
-0.15586
-0.15243
-0.139863
-0.11985
-0.0962605
-0.0721465
-0.0493703
-0.0288313
-0.0108
0.00479094
0.0181552
0.0295479
0.0392153
0.0473747
0.0542084
0.0598649
0.0644597
0.0680749
0.070757
0.0725266
0.0734009
0.0733386
0.0720648
0.0692591
0.0654772
-0.115022
-0.112436
-0.100578
-0.0814495
-0.0590074
-0.0362208
-0.0148531
0.00427494
0.0209446
0.0352513
0.0474213
0.057713
0.0663718
0.073613
0.0796176
0.0845335
0.0884766
0.0915284
0.0937316
0.0951098
0.0956927
0.0953445
0.0933311
0.0889353
0.084255
-0.0732551
-0.071531
-0.0604574
-0.0423244
-0.0211455
0.000209574
0.0200824
0.0377304
0.0529836
0.065963
0.0769049
0.0860701
0.0937032
0.100018
0.105198
0.109394
0.112733
0.115315
0.11722
0.118546
0.119448
0.119874
0.118915
0.116033
0.118513
-0.0307869
-0.0299395
-0.0197207
-0.00268568
0.0171255
0.0369575
0.0552606
0.071369
0.0851584
0.0967721
0.106454
0.114467
0.121051
0.126421
0.130756
0.13421
0.136914
0.138978
0.140499
0.141607
0.142466
0.143056
0.142866
0.142336
0.147135
0.0121439
0.0121038
0.0214045
0.037251
0.0556038
0.0738346
0.0905051
0.105024
0.11731
0.127525
0.13592
0.142753
0.148266
0.152665
0.156129
0.158812
0.160846
0.162342
0.163409
0.164173
0.164777
0.165196
0.165067
0.164899
0.169174
0.0552975
0.0543637
0.0626911
0.0772703
0.094088
0.110653
0.125641
0.138532
0.149283
0.158073
0.165155
0.170787
0.175202
0.178604
0.181165
0.183035
0.184343
0.185199
0.18571
0.185993
0.186178
0.186245
0.185887
0.185517
0.188812
0.0984339
0.0966047
0.103912
0.117158
0.132379
0.147228
0.160495
0.17173
0.180924
0.188271
0.194023
0.198435
0.201732
0.204112
0.20574
0.206759
0.207293
0.207445
0.207312
0.207002
0.206624
0.206147
0.205293
0.204445
0.206805
0.141315
0.138593
0.144843
0.156703
0.170279
0.183378
0.1949
0.204462
0.212087
0.21798
0.222394
0.225573
0.227739
0.229079
0.229751
0.22989
0.229611
0.229011
0.228178
0.227205
0.226185
0.225074
0.223616
0.222191
0.223647
0.183706
0.180098
0.185263
0.195698
0.207597
0.218925
0.228691
0.236576
0.242632
0.247071
0.250144
0.252089
0.253117
0.253408
0.25311
0.25235
0.251235
0.249853
0.248281
0.246604
0.244896
0.243107
0.241004
0.238973
0.239564
0.225375
0.220893
0.224955
0.23394
0.244147
0.253698
0.261711
0.267927
0.272423
0.275418
0.277158
0.277875
0.277769
0.277011
0.275741
0.274076
0.272114
0.269935
0.26761
0.265211
0.262801
0.260322
0.257571
0.254934
0.254697
0.266098
0.260759
0.263709
0.271234
0.279747
0.28753
0.293807
0.298374
0.301331
0.302902
0.303328
0.302832
0.301605
0.299808
0.297572
0.295007
0.292201
0.289227
0.286147
0.283026
0.279915
0.276757
0.273371
0.270143
0.269111
0.305657
0.299481
0.301322
0.30739
0.314223
0.320262
0.324833
0.327783
0.329233
0.32941
0.328549
0.326865
0.324539
0.321722
0.318538
0.315087
0.311449
0.307692
0.303869
0.300039
0.296243
0.292425
0.288428
0.284627
0.282833
0.343842
0.336854
0.337599
0.342227
0.347408
0.351741
0.354649
0.356025
0.356011
0.354833
0.352722
0.349884
0.34649
0.342682
0.338574
0.33426
0.329813
0.325293
0.320749
0.316231
0.311773
0.307321
0.302742
0.298393
0.295868
0.380451
0.372682
0.372353
0.375571
0.379143
0.381821
0.38312
0.382977
0.381552
0.379069
0.375754
0.371803
0.367379
0.362615
0.357617
0.352471
0.347245
0.34199
0.336752
0.331573
0.326483
0.321429
0.316299
0.311426
0.308203
0.415294
0.406778
0.405406
0.407257
0.409277
0.410365
0.410121
0.408525
0.405748
0.402019
0.397553
0.392539
0.387131
0.381454
0.375606
0.369665
0.363694
0.357739
0.35184
0.346033
0.340343
0.334722
0.329074
0.323705
0.319817
0.448189
0.438964
0.436592
0.437132
0.437668
0.437241
0.435531
0.432556
0.4285
0.423589
0.418033
0.412013
0.405673
0.399132
0.392479
0.385787
0.379112
0.372495
0.365972
0.359574
0.35332
0.347168
0.341037
0.335201
0.330684
0.478967
0.469076
0.465753
0.465048
0.464182
0.462326
0.459238
0.454968
0.449712
0.443692
0.437114
0.43015
0.422938
0.415585
0.408179
0.400783
0.393449
0.386213
0.379107
0.372158
0.365379
0.358734
0.352156
0.345883
0.340774
0.507468
0.496959
0.492742
0.490871
0.488695
0.485508
0.481137
0.475665
0.469293
0.462245
0.45472
0.44688
0.438858
0.430754
0.422649
0.414601
0.406656
0.398849
0.391204
0.383745
0.376482
0.369384
0.362395
0.355718
0.350059
0.533548
0.52247
0.517427
0.514477
0.511092
0.506681
0.501133
0.494556
0.487163
0.479173
0.470778
0.462137
0.453373
0.444581
0.435836
0.427191
0.418689
0.410358
0.402221
0.394297
0.386594
0.379083
0.371722
0.364675
0.358508
0.557074
0.545481
0.539685
0.535752
0.53127
0.525749
0.519135
0.511561
0.503244
0.494403
0.485224
0.475859
0.466426
0.457014
0.447691
0.438508
0.429503
0.420701
0.412121
0.403778
0.395678
0.387798
0.380102
0.372721
0.366094
0.577925
0.565875
0.559405
0.554595
0.549135
0.542627
0.535066
0.526606
0.51747
0.507873
0.497999
0.487992
0.477965
0.468003
0.458168
0.448509
0.439058
0.429839
0.420866
0.412154
0.403704
0.395498
0.387507
0.379829
0.372792
0.595997
0.583549
0.576491
0.570916
0.564603
0.557237
0.548854
0.539625
0.529778
0.519527
0.50905
0.498487
0.487945
0.477505
0.467228
0.457156
0.447319
0.437738
0.428426
0.419393
0.410641
0.402153
0.393908
0.385972
0.378578
0.611198
0.598415
0.590859
0.584636
0.577604
0.569514
0.560438
0.550563
0.540117
0.529315
0.51833
0.507299
0.496324
0.485484
0.474834
0.464414
0.454253
0.444368
0.434772
0.425469
0.416463
0.407739
0.399281
0.391127
0.383431
0.623452
0.610398
0.602438
0.595691
0.588078
0.579403
0.569768
0.55937
0.548443
0.537196
0.525802
0.514393
0.50307
0.491906
0.480955
0.470256
0.459833
0.449704
0.439878
0.430359
0.421148
0.412234
0.403605
0.395275
0.387335
0.632696
0.619437
0.611172
0.604029
0.595976
0.586859
0.576802
0.56601
0.554718
0.543136
0.531433
0.51974
0.508153
0.496745
0.485568
0.474658
0.464038
0.453725
0.443725
0.434043
0.424678
0.415621
0.406863
0.398401
0.390275
0.638885
0.625489
0.617019
0.609609
0.601261
0.591849
0.581508
0.570452
0.558917
0.54711
0.535201
0.523317
0.511554
0.499983
0.488654
0.477602
0.466851
0.456414
0.446299
0.436507
0.427039
0.417887
0.409042
0.400491
0.392242
0.641987
0.628522
0.619949
0.612405
0.60391
0.594349
0.583867
0.572678
0.56102
0.549102
0.537089
0.525109
0.513258
0.501605
0.4902
0.479077
0.46826
0.457761
0.447588
0.437742
0.428222
0.419022
0.410134
0.401538
0.393226
0.641986
0.628521
0.619949
0.612405
0.603909
0.594348
0.583866
0.572678
0.56102
0.549101
0.537088
0.525109
0.513258
0.501605
0.4902
0.479077
0.46826
0.457761
0.447588
0.437742
0.428222
0.419022
0.410134
0.401538
0.393227
0.638883
0.625487
0.617017
0.609607
0.60126
0.591848
0.581508
0.570452
0.558916
0.54711
0.535201
0.523317
0.511554
0.499983
0.488654
0.477602
0.466851
0.456414
0.446299
0.436508
0.427039
0.417887
0.409042
0.400491
0.392242
0.632693
0.619435
0.61117
0.604026
0.595974
0.586858
0.576801
0.566009
0.554717
0.543135
0.531433
0.51974
0.508153
0.496745
0.485568
0.474658
0.464038
0.453725
0.443726
0.434044
0.424678
0.415622
0.406864
0.398401
0.390276
0.623448
0.610394
0.602435
0.595688
0.588075
0.579401
0.569766
0.559369
0.548441
0.537195
0.525801
0.514393
0.50307
0.491906
0.480955
0.470256
0.459834
0.449705
0.439879
0.43036
0.421149
0.412235
0.403606
0.395277
0.387336
0.611193
0.59841
0.590854
0.584632
0.577601
0.569511
0.560436
0.550561
0.540116
0.529314
0.518329
0.507298
0.496324
0.485484
0.474834
0.464414
0.454253
0.444369
0.434772
0.42547
0.416464
0.40774
0.399282
0.391129
0.383433
0.595991
0.583543
0.576486
0.570911
0.564599
0.557234
0.548851
0.539623
0.529777
0.519526
0.509049
0.498486
0.487945
0.477505
0.467228
0.457156
0.447319
0.437739
0.428427
0.419394
0.410642
0.402155
0.39391
0.385974
0.37858
0.577918
0.565868
0.559399
0.55459
0.54913
0.542623
0.535062
0.526603
0.517468
0.507872
0.497998
0.487992
0.477965
0.468003
0.458169
0.44851
0.439059
0.42984
0.420868
0.412155
0.403706
0.3955
0.387509
0.379831
0.372794
0.557066
0.545473
0.539678
0.535746
0.531265
0.525745
0.519132
0.511558
0.503242
0.494401
0.485223
0.475859
0.466425
0.457014
0.447691
0.438509
0.429504
0.420702
0.412122
0.40378
0.39568
0.387801
0.380105
0.372724
0.366097
0.53354
0.522462
0.51742
0.51447
0.511086
0.506676
0.501129
0.494553
0.48716
0.479171
0.470777
0.462136
0.453373
0.444582
0.435836
0.427192
0.41869
0.41036
0.402223
0.394299
0.386596
0.379086
0.371724
0.364678
0.358511
0.507459
0.49695
0.492734
0.490864
0.488689
0.485503
0.481133
0.475661
0.469291
0.462243
0.454718
0.44688
0.438858
0.430755
0.422649
0.414602
0.406658
0.398851
0.391206
0.383747
0.376485
0.369387
0.362398
0.355722
0.350062
0.478957
0.469067
0.465744
0.46504
0.464175
0.462321
0.459233
0.454965
0.449709
0.44369
0.437113
0.43015
0.422938
0.415586
0.40818
0.400784
0.393451
0.386216
0.37911
0.37216
0.365382
0.358737
0.352159
0.345887
0.340778
0.448179
0.438955
0.436583
0.437123
0.437661
0.437235
0.435526
0.432552
0.428497
0.423587
0.418032
0.412012
0.405674
0.399132
0.39248
0.385789
0.379114
0.372498
0.365975
0.359577
0.353324
0.347172
0.341041
0.335205
0.330688
0.415284
0.406768
0.405397
0.407249
0.40927
0.410359
0.410116
0.408521
0.405746
0.402017
0.397552
0.392538
0.387131
0.381455
0.375607
0.369668
0.363697
0.357742
0.351843
0.346037
0.340347
0.334726
0.329078
0.32371
0.319822
0.38044
0.372672
0.372343
0.375562
0.379136
0.381815
0.383115
0.382974
0.381549
0.379067
0.375753
0.371803
0.36738
0.362616
0.357619
0.352474
0.347248
0.341994
0.336756
0.331577
0.326487
0.321434
0.316304
0.311431
0.308209
0.343831
0.336844
0.33759
0.342218
0.3474
0.351735
0.354644
0.356021
0.356008
0.354832
0.352722
0.349884
0.346491
0.342683
0.338577
0.334263
0.329817
0.325297
0.320753
0.316235
0.311778
0.307327
0.302748
0.298399
0.295874
0.305646
0.29947
0.301313
0.307382
0.314215
0.320256
0.324829
0.327779
0.329231
0.329409
0.328549
0.326865
0.32454
0.321725
0.318541
0.31509
0.311453
0.307696
0.303874
0.300044
0.296249
0.292431
0.288434
0.284634
0.28284
0.266087
0.260748
0.2637
0.271226
0.27974
0.287524
0.293803
0.298371
0.30133
0.302901
0.303328
0.302833
0.301607
0.299811
0.297575
0.295011
0.292205
0.289231
0.286152
0.283032
0.279922
0.276763
0.273378
0.27015
0.269118
0.225364
0.220883
0.224946
0.233932
0.24414
0.253692
0.261708
0.267924
0.272422
0.275418
0.277159
0.277876
0.277772
0.277014
0.275744
0.27408
0.272119
0.269941
0.267616
0.265218
0.262807
0.26033
0.257578
0.254942
0.254705
0.183696
0.180089
0.185254
0.19569
0.207591
0.21892
0.228688
0.236574
0.242631
0.247072
0.250145
0.252091
0.25312
0.253411
0.253115
0.252356
0.251241
0.249859
0.248288
0.246611
0.244904
0.243115
0.241012
0.238981
0.239573
0.141306
0.138584
0.144835
0.156696
0.170274
0.183374
0.194897
0.20446
0.212087
0.217981
0.222396
0.225576
0.227743
0.229083
0.229756
0.229896
0.229618
0.229018
0.228185
0.227213
0.226193
0.225083
0.223625
0.2222
0.223656
0.0984255
0.096597
0.103905
0.117152
0.132374
0.147225
0.160493
0.171729
0.180925
0.188272
0.194026
0.198439
0.201737
0.204117
0.205746
0.206766
0.2073
0.207452
0.20732
0.207011
0.206633
0.206156
0.205303
0.204455
0.206815
0.0552901
0.054357
0.0626852
0.0772653
0.0940842
0.110651
0.12564
0.138532
0.149284
0.158076
0.165159
0.170792
0.175208
0.17861
0.181172
0.183042
0.184351
0.185208
0.185719
0.186002
0.186188
0.186255
0.185898
0.185528
0.188823
0.0121379
0.0120984
0.0213998
0.0372471
0.0556011
0.0738333
0.0905051
0.105026
0.117313
0.127529
0.135924
0.142759
0.148272
0.152672
0.156137
0.158821
0.160855