/*--------------------------------*- C++ -*----------------------------------*\
  =========                 |
  \\      /  F ield         | OpenFOAM: The Open Source CFD Toolbox
   \\    /   O peration     | Website:  https://openfoam.org
    \\  /    A nd           | Version:  6.0
     \\/     M anipulation  |
\*---------------------------------------------------------------------------*/
FoamFile
{
    version     2.0;
    format      ascii;
    class       surfaceScalarField;
    location    "8";
    object      phi;
}
// * * * * * * * * * * * * * * * * * * * * * * * * * * * * * * * * * * * * * //

dimensions      [0 3 -1 0 0 0 0];

internalField   nonuniform List<scalar> 
24700
(
-3.16648e-06
3.1177e-06
4.87853e-08
-1.121e-05
7.90777e-06
1.35789e-07
-2.30977e-05
1.1674e-05
2.1364e-07
-3.80452e-05
1.46647e-05
2.82814e-07
-5.54465e-05
1.70574e-05
3.43866e-07
-7.48335e-05
1.89895e-05
3.97554e-07
-9.58477e-05
2.05695e-05
4.44759e-07
-0.000118218
2.18838e-05
4.86417e-07
-0.000141744
2.3003e-05
5.2345e-07
-0.000166286
2.39851e-05
5.56712e-07
-0.000191751
2.48783e-05
5.86959e-07
-0.000218089
2.57231e-05
6.1482e-07
-0.000245284
2.65535e-05
6.40795e-07
-0.000273347
2.73977e-05
6.65253e-07
-0.000302315
2.82795e-05
6.88459e-07
-0.000332243
2.92179e-05
7.10589e-07
-0.000363203
3.0228e-05
7.31742e-07
-0.000395276
3.13211e-05
7.51963e-07
-0.000428551
3.25043e-05
7.71261e-07
-0.000463123
3.37816e-05
7.8961e-07
-0.000499083
3.5153e-05
8.06971e-07
-0.000536521
3.66154e-05
8.23282e-07
-0.00057552
3.81604e-05
8.38453e-07
-0.000616151
3.97783e-05
8.52414e-07
4.14719e-05
8.65186e-07
-0.000658488
-3.10506e-06
6.22275e-06
-1.10035e-05
1.58063e-05
-2.26855e-05
2.33559e-05
-3.73809e-05
2.93601e-05
-5.44917e-05
3.41682e-05
-7.35543e-05
3.80521e-05
-9.42117e-05
4.12268e-05
-0.000116192
4.38643e-05
-0.000139294
4.6105e-05
-0.000163374
4.80648e-05
-0.000188336
4.98403e-05
-0.000214125
5.15125e-05
-0.000240722
5.31496e-05
-0.000268133
5.48087e-05
-0.00029639
5.65372e-05
-0.000325546
5.83741e-05
-0.000355668
6.035e-05
-0.000386835
6.24881e-05
-0.000419135
6.48038e-05
-0.000452659
6.73054e-05
-0.0004875
6.99943e-05
-0.000523749
7.28647e-05
-0.00056149
7.5901e-05
-0.000600795
7.90837e-05
8.24182e-05
-0.000641741
-2.98425e-06
9.20701e-06
-1.05969e-05
2.34189e-05
-2.18731e-05
3.46322e-05
-3.60704e-05
4.35574e-05
-5.26072e-05
5.07049e-05
-7.10283e-05
5.64733e-05
-9.09799e-05
6.11784e-05
-0.00011219
6.5074e-05
-0.000134452
6.83676e-05
-0.000157618
7.1231e-05
-0.000181586
7.38076e-05
-0.000206291
7.62181e-05
-0.000231706
7.85642e-05
-0.000257829
8.09317e-05
-0.000284684
8.33923e-05
-0.000312315
8.60051e-05
-0.000340783
8.88175e-05
-0.00037016
9.18658e-05
-0.000400532
9.51754e-05
-0.000431987
9.87607e-05
-0.000464619
0.000102626
-0.00049852
0.000106765
-0.000533776
0.000111157
-0.000570467
0.000115774
0.000120622
-0.000608671
-2.80956e-06
1.20166e-05
-1.00076e-05
3.06169e-05
-2.0694e-05
4.53186e-05
-3.41659e-05
5.70293e-05
-4.98652e-05
6.64042e-05
-6.73496e-05
7.39577e-05
-8.62696e-05
8.00985e-05
-0.000106352
8.51566e-05
-0.000127387
8.94026e-05
-0.000149217
9.30612e-05
-0.00017173
9.63205e-05
-0.000194851
9.93393e-05
-0.000218539
0.000102252
-0.00024278
0.000105173
-0.000267586
0.000108198
-0.000292989
0.000111408
-0.000319039
0.000114868
-0.000345802
0.000118629
-0.000373356
0.000122729
-0.000401787
0.000127192
-0.000431189
0.000132028
-0.000461657
0.000137234
-0.000493284
0.000142785
-0.000526157
0.000148646
0.000154828
-0.000560362
-2.58885e-06
1.46054e-05
-9.26079e-06
3.72889e-05
-1.91964e-05
5.52542e-05
-3.17422e-05
6.95751e-05
-4.63702e-05
8.10323e-05
-6.2654e-05
9.02414e-05
-8.02505e-05
9.7695e-05
-9.8886e-05
0.000103792
-0.000118344
0.000108861
-0.000138459
0.000113175
-0.000159104
0.000116966
-0.000180191
0.000120426
-0.000201662
0.000123724
-0.000223489
0.000126999
-0.000245665
0.000130374
-0.000268208
0.000133951
-0.000291156
0.000137815
-0.000314562
0.000142035
-0.000338498
0.000146664
-0.000363045
0.000151739
-0.000388298
0.000157281
-0.000414356
0.000163292
-0.000441323
0.000169751
-0.000469297
0.000176621
0.000183911
-0.00049838
-2.3319e-06
1.69373e-05
-8.38789e-06
4.33449e-05
-1.74406e-05
6.43069e-05
-2.88937e-05
8.10282e-05
-4.22537e-05
9.43923e-05
-5.71133e-05
0.000105101
-7.31374e-05
0.000113719
-9.00519e-05
0.000120706
-0.000107634
0.000126443
-0.000125707
0.000131248
-0.000144131
0.000135389
-0.000162799
0.000139095
-0.000181636
0.000142561
-0.000200593
0.000145956
-0.000219645
0.000149426
-0.000238791
0.000153097
-0.000258051
0.000157075
-0.000277465
0.00016145
-0.000297095
0.000166294
-0.000317018
0.000171663
-0.000337329
0.000177591
-0.000358134
0.000184097
-0.000379551
0.000191168
-0.000401698
0.000198768
0.000206911
-0.000424698
-2.04986e-06
1.89872e-05
-7.42492e-06
4.87199e-05
-1.54963e-05
7.23782e-05
-2.57292e-05
9.12611e-05
-3.76682e-05
0.000106331
-5.09272e-05
0.00011836
-6.51805e-05
0.000127972
-8.01546e-05
0.000135681
-9.56211e-05
0.00014191
-0.000111391
0.000147018
-0.000127309
0.000151307
-0.000143251
0.000155037
-0.00015912
0.00015843
-0.000174846
0.000161681
-0.00019038
0.00016496
-0.000205699
0.000168416
-0.000220803
0.000172179
-0.000235717
0.000176364
-0.000250488
0.000181065
-0.000265188
0.000186362
-0.000279911
0.000192314
-0.000294774
0.00019896
-0.000309911
0.000206306
-0.000325471
0.000214327
0.000223048
-0.000341608
-1.75468e-06
2.07419e-05
-6.41062e-06
5.33759e-05
-1.34387e-05
7.94063e-05
-2.2367e-05
0.000100189
-3.27797e-05
0.000116744
-4.43137e-05
0.000129894
-5.6654e-05
0.000140313
-6.95286e-05
0.000148555
-8.27041e-05
0.000155085
-9.59804e-05
0.000160294
-0.000109187
0.000164514
-0.000122181
0.000168031
-0.000134843
0.000171092
-0.000147078
0.000173916
-0.000158814
0.000176696
-0.000170001
0.000179603
-0.000180616
0.000182794
-0.000190661
0.00018641
-0.00020017
0.000190574
-0.000209203
0.000195396
-0.000217856
0.000200967
-0.000226255
0.000207359
-0.000234559
0.000214609
-0.000242951
0.00022272
0.000231731
-0.000251634
-1.4584e-06
2.22003e-05
-5.38445e-06
5.73019e-05
-1.13447e-05
8.53666e-05
-1.89287e-05
0.000107773
-2.77598e-05
0.000125575
-3.74986e-05
0.000139633
-4.78421e-05
0.000150656
-5.85217e-05
0.000159235
-6.93001e-05
0.000165864
-7.99677e-05
0.000170962
-9.03399e-05
0.000174886
-0.000100254
0.000177945
-0.00010957
0.000180408
-0.000118166
0.000182512
-0.000125943
0.000184472
-0.000132823
0.000186484
-0.000138757
0.000188727
-0.000143719
0.000191373
-0.000147723
0.000194577
-0.000150816
0.000198489
-0.000153089
0.00020324
-0.00015468
0.000208949
-0.000155773
0.000215703
-0.000156601
0.000223547
0.00023256
-0.000157429
-1.17261e-06
2.33729e-05
-4.3845e-06
6.05138e-05
-9.2892e-06
9.02713e-05
-1.55328e-05
0.000114017
-2.27763e-05
0.000132819
-3.07036e-05
0.00014756
-3.9025e-05
0.000158978
-4.7477e-05
0.000167687
-5.58206e-05
0.000174207
-6.38389e-05
0.00017898
-7.13347e-05
0.000182382
-7.81289e-05
0.000184739
-8.40587e-05
0.000186338
-8.89784e-05
0.000187432
-9.27596e-05
0.000188254
-9.52948e-05
0.000189019
-9.65004e-05
0.000189933
-9.63233e-05
0.000191195
-9.47469e-05
0.000193001
-9.17996e-05
0.000195542
-8.75635e-05
0.000199004
-8.21827e-05
0.000203568
-7.58719e-05
0.000209392
-6.8918e-05
0.000216593
0.000225315
-6.16736e-05
-9.07766e-07
2.42806e-05
-3.44556e-06
6.30516e-05
-7.34074e-06
9.41665e-05
-1.22888e-05
0.000118965
-1.79846e-05
0.000138514
-2.41346e-05
0.00015371
-3.04632e-05
0.000165306
-3.67137e-05
0.000173937
-4.26484e-05
0.000180142
-4.80461e-05
0.000184378
-5.27004e-05
0.000187036
-5.64178e-05
0.000188457
-5.90166e-05
0.000188937
-6.0327e-05
0.000188742
-6.01924e-05
0.000188119
-5.84724e-05
0.000187299
-5.50482e-05
0.000186509
-4.98295e-05
0.000185977
-4.2765e-05
0.000185936
-3.38536e-05
0.00018663
-2.3159e-05
0.000188309
-1.08253e-05
0.000191235
2.90586e-06
0.000195661
1.76836e-05
0.000201815
0.000209951
3.3048e-05
-6.72746e-07
2.49534e-05
-2.59732e-06
6.49762e-05
-5.55826e-06
9.71274e-05
-9.29085e-06
0.000122698
-1.35188e-05
0.000142742
-1.79694e-05
0.000158161
-2.23815e-05
0.000169718
-2.65073e-05
0.000178063
-3.01133e-05
0.000183748
-3.29778e-05
0.000187242
-3.48893e-05
0.000188948
-3.56442e-05
0.000189212
-3.50457e-05
0.000188338
-3.2903e-05
0.0001866
-2.90328e-05
0.000184249
-2.3262e-05
0.000181528
-1.54335e-05
0.00017868
-5.41479e-06
0.000175958
6.88969e-06
0.000173632
2.15219e-05
0.000171998
3.84498e-05
0.000171382
5.75416e-05
0.000172143
7.85368e-05
0.000174666
0.000101017
0.000179335
0.000186576
0.000124392
-4.74382e-07
2.54278e-05
-1.86283e-06
6.63646e-05
-3.98773e-06
9.92523e-05
-6.61271e-06
0.000125323
-9.484e-06
0.000145614
-1.23471e-05
0.000161024
-1.49548e-05
0.000172326
-1.70704e-05
0.000180179
-1.84673e-05
0.000185145
-1.89278e-05
0.000187703
-1.82399e-05
0.00018826
-1.61954e-05
0.000187167
-1.25876e-05
0.00018473
-7.20988e-06
0.000181222
1.43907e-07
0.000176895
9.67732e-06
0.000171995
2.15862e-05
0.000166771
3.60496e-05
0.000161495
5.32153e-05
0.000156466
7.31797e-05
0.000152033
9.59589e-05
0.000148602
0.000121452
0.000146649
0.000149396
0.000146722
0.000179308
0.000149423
0.00015544
0.000210444
-3.1715e-07
2.57449e-05
-1.25732e-06
6.73048e-05
-2.65963e-06
0.000100655
-4.3032e-06
0.000126966
-5.94935e-06
0.00014726
-7.35789e-06
0.000162432
-8.29495e-06
0.000173263
-8.53557e-06
0.00018042
-7.86324e-06
0.000184473
-6.06767e-06
0.000185907
-2.94188e-06
0.000185134
1.72108e-06
0.000182504
8.13119e-06
0.00017832
1.6504e-05
0.000172849
2.70618e-05
0.000166337
4.00334e-05
0.000159023
5.56502e-05
0.000151155
7.41381e-05
0.000143007
9.57034e-05
0.000134901
0.000120509
0.000127228
0.000148637
0.000120474
0.000180043
0.000115243
0.000214484
0.000112281
0.000251428
0.000112479
0.000116907
0.000289961
-2.0296e-07
2.59479e-05
-7.87382e-07
6.78892e-05
-1.58712e-06
0.000101454
-2.38303e-06
0.000127762
-2.94299e-06
0.00014782
-3.03639e-06
0.000162526
-2.44052e-06
0.000172667
-9.42191e-07
0.000178921
1.66356e-06
0.000181867
5.57625e-06
0.000181994
1.09935e-05
0.000179717
1.81152e-05
0.000175383
2.71472e-05
0.000169288
3.83059e-05
0.000161691
5.18206e-05
0.000152822
6.79362e-05
0.000142908
8.69114e-05
0.000132179
0.000109014
0.000120904
0.000134509
0.000109407
0.000163631
9.81063e-05
0.000196548
8.75563e-05
0.000233298
7.84938e-05
0.000273688
7.18906e-05
0.000317168
6.89996e-05
7.14253e-05
0.000362649
-1.31072e-07
2.6079e-05
-4.50573e-07
6.82087e-05
-7.65054e-07
0.000101769
-8.42894e-07
0.00012784
-4.49142e-07
0.000147426
6.43246e-07
0.000161433
2.64939e-06
0.000170661
5.77247e-06
0.000175798
1.0206e-05
0.000177433
1.61375e-05
0.000176063
2.37524e-05
0.000172102
3.32388e-05
0.000165896
4.47921e-05
0.000157735
5.86206e-05
0.000147862
7.49501e-05
0.000136493
9.40286e-05
0.000123829
0.000116129
0.000110079
0.000141547
9.54856e-05
0.000170595
8.03582e-05
0.000203581
6.51209e-05
0.000240764
5.03733e-05
0.000282286
3.69719e-05
0.000328048
2.61285e-05
0.00037752
1.95277e-05
1.94871e-05
0.000429458
-9.81245e-08
2.61771e-05
-2.3544e-07
6.8346e-05
-1.6997e-07
0.000101703
3.56698e-07
0.000127313
1.59247e-06
0.00014619
3.76817e-06
0.000159258
7.09669e-06
0.000167332
1.17751e-05
0.00017112
1.79883e-05
0.00017122
2.5913e-05
0.000168138
3.57225e-05
0.000162293
4.75911e-05
0.000154028
6.16996e-05
0.000143626
7.8241e-05
0.000131321
9.74264e-05
0.000117308
0.000119492
0.000101764
0.000144705
8.48662e-05
0.000173368
6.68222e-05
0.000205819
4.79072e-05
0.000242417
2.85235e-05
0.000283506
9.28446e-06
0.000329343
-8.86548e-06
0.000379958
-2.44866e-05
0.000434901
-3.54153e-05
-3.84321e-05
0.00049282
-9.82955e-08
2.62754e-05
-1.22022e-07
6.83698e-05
2.39036e-07
0.000101342
1.28407e-06
0.000126268
3.2847e-06
0.00014419
6.4842e-06
0.000156058
1.11006e-05
0.000162716
1.73315e-05
0.000164889
2.53585e-05
0.000163193
3.53529e-05
0.000158144
4.74792e-05
0.000150166
6.19002e-05
0.000139607
7.87816e-05
0.000126745
9.82969e-05
0.000111805
0.000120634
9.49707e-05
0.000146002
7.63957e-05
0.00017464
5.62278e-05
0.000206828
3.46342e-05
0.000242891
1.18443e-05
0.0002832
-1.17854e-05
0.000328151
-3.56666e-05
0.000378102
-5.88169e-05
0.000433231
-7.96159e-05
0.000493237
-9.54212e-05
-0.000101945
0.000556751
-1.23573e-07
2.63989e-05
-8.27656e-08
6.8329e-05
5.18439e-07
0.000100741
2.03335e-06
0.000124753
4.76845e-06
0.000141454
8.98942e-06
0.000151837
1.49289e-05
0.000156777
2.27938e-05
0.000157024
3.27719e-05
0.000153215
4.50371e-05
0.000145879
5.97535e-05
0.00013545
7.70791e-05
0.000122281
9.71686e-05
0.000106655
0.000120177
8.87967e-05
0.000146265
6.88828e-05
0.000175603
4.70579e-05
0.000208381
2.34501e-05
0.000244819
-1.80411e-06
0.000285183
-2.852e-05
0.000329796
-5.63985e-05
0.00037904
-8.49101e-05
0.00043332
-0.000113097
0.000492948
-0.000139244
0.000557832
-0.000160305
-0.000170842
0.000626729
-1.64142e-07
2.65631e-05
-8.38604e-08
6.82487e-05
7.37581e-07
9.99197e-05
2.71995e-06
0.000122771
6.21587e-06
0.000137958
1.15245e-05
0.000146529
1.89039e-05
0.000149397
2.85822e-05
0.000147346
4.07646e-05
0.000141033
5.56399e-05
0.000131003
7.33834e-05
0.000117706
9.41592e-05
0.000101505
0.000118121
8.26936e-05
0.000145412
6.15054e-05
0.000176168
3.81277e-05
0.000210513
1.27124e-05
0.000248573
-1.46099e-05
0.000290478
-4.37092e-05
0.000336382
-7.44238e-05
0.000386484
-0.000106501
0.000441057
-0.000139483
0.000500452
-0.000172492
0.000565044
-0.000203836
0.000634975
-0.000230236
-0.000245178
0.000709311
-2.08882e-07
2.6772e-05
-8.69218e-08
6.81267e-05
9.7521e-07
9.88575e-05
3.47476e-06
0.000120271
7.82165e-06
0.000133612
1.436e-05
0.00013999
2.33858e-05
0.000140371
3.51608e-05
0.000135571
4.99217e-05
0.000126272
6.78859e-05
0.000113039
8.92542e-05
9.63381e-05
0.000114211
7.65487e-05
0.000142922
5.39829e-05
0.00017553
2.88972e-05
0.000212152
1.50546e-06
0.000252874
-2.80095e-05
0.000297747
-5.94834e-05
0.000346793
-9.2755e-05
0.000400011
-0.000127642
0.000457404
-0.000163894
0.000519024
-0.000201103
0.000585023
-0.000238491
0.000655687
-0.0002745
0.000731325
-0.000305874
-0.000325337
0.000811485
-2.45933e-07
2.70179e-05
-5.09614e-08
6.79317e-05
1.31546e-06
9.74911e-05
4.43753e-06
0.000117149
9.79295e-06
0.000128256
1.77823e-05
0.000132001
2.87522e-05
0.000129401
4.30112e-05
0.000121312
6.08411e-05
0.000108442
8.25023e-05
9.13781e-05
0.000108235
7.06053e-05
0.000138258
4.65257e-05
0.000172763
1.94781e-05
0.000211906
-1.0246e-05
0.000255799
-4.23879e-05
0.000304498
-7.67084e-05
0.00035799
-0.000112975
0.000416184
-0.000150949
0.000478909
-0.000190367
0.000545926
-0.000230912
0.000616971
-0.000272147
0.000691829
-0.00031335
0.000770461
-0.000353131
0.000853097
-0.000388511
-0.000412082
0.000939842
-2.63327e-07
2.72812e-05
6.54946e-08
6.76029e-05
1.84354e-06
9.57131e-05
5.74959e-06
0.000113243
1.23386e-05
0.000121667
2.20785e-05
0.000122261
3.53778e-05
0.000116102
5.26046e-05
0.000104085
7.40974e-05
8.69489e-05
0.000100171
6.53042e-05
0.000131118
3.9659e-05
0.0001672
1.04437e-05
0.000208645
-2.19673e-05
0.000255635
-5.72358e-05
0.000308289
-9.50417e-05
0.000366647
-0.000135067
0.000430653
-0.00017698
0.000500126
-0.000220422
0.000574746
-0.000264986
0.000654035
-0.000310201
0.000737369
-0.000355481
0.000824044
-0.000400024
0.00091342
-0.000442508
0.00100519
-0.000480285
-0.000506973
0.00110008
-2.49622e-07
2.75309e-05
3.02267e-07
6.7051e-05
2.64137e-06
9.3374e-05
7.5467e-06
0.000108338
1.56583e-05
0.000113556
2.75208e-05
0.000110399
4.36142e-05
0.000100009
6.43751e-05
8.3324e-05
9.02075e-05
6.11165e-05
0.000121487
3.40244e-05
0.000158561
2.58545e-06
0.000201739
-3.27347e-05
0.000251288
-7.15165e-05
0.000307416
-0.000113364
0.000370258
-0.000157883
0.000439855
-0.000204664
0.000516137
-0.000253262
0.000598888
-0.000303174
0.000687718
-0.000353816
0.000782011
-0.000404493
0.000880874
-0.000454344
0.000983107
-0.000502257
0.00108723
-0.000546632
0.0011918
-0.000584857
-0.000613316
0.00129815
-1.94479e-07
2.77253e-05
6.95573e-07
6.6161e-05
3.78365e-06
9.02859e-05
9.95247e-06
0.000102169
1.9933e-05
0.000103575
3.43531e-05
9.59786e-05
5.37711e-05
8.05906e-05
7.86963e-05
5.83988e-05
0.0001096
3.02128e-05
0.000146917
-3.29292e-06
0.000191044
-4.15414e-05
0.000242329
-8.40198e-05
0.000301064
-0.000130251
0.000367469
-0.000179769
0.000441685
-0.0002321
0.00052376
-0.000286739
0.000613638
-0.00034314
0.000711152
-0.000400687
0.000816008
-0.000458673
0.000927766
-0.000516251
0.00104579
-0.000572365
0.00116911
-0.000625582
0.00129601
-0.000673535
0.00142247
-0.000711314
-0.000729457
0.00153861
-8.96412e-08
2.7815e-05
1.27562e-06
6.47957e-05
5.3336e-06
8.62279e-05
1.30719e-05
9.44309e-05
2.53155e-05
9.13314e-05
4.2779e-05
7.85151e-05
6.61002e-05
5.72694e-05
9.58602e-05
2.86389e-05
0.000132591
-6.51765e-06
0.000176774
-4.74759e-05
0.000228835
-9.36024e-05
0.000289133
-0.000144318
0.00035795
-0.000199068
0.00043548
-0.000257299
0.000521823
-0.000318443
0.000616987
-0.000381903
0.000720896
-0.000447049
0.000833416
-0.000513208
0.000954413
-0.00057967
0.00108385
-0.000645687
0.00122197
-0.000710481
0.00136961
-0.000773226
0.00152903
-0.000832957
0.00170637
-0.000888652
-0.000939351
0.00191626
7.26115e-08
2.77424e-05
2.06864e-06
6.27997e-05
7.34447e-06
8.09521e-05
1.69912e-05
8.47841e-05
3.19282e-05
7.63944e-05
5.29555e-05
5.74878e-05
8.07867e-05
2.94382e-05
0.000116065
-6.63936e-06
0.000159366
-4.98188e-05
0.000211194
-9.93036e-05
0.000271968
-0.000154377
0.000342013
-0.000214363
0.000421543
-0.000278598
0.000510656
-0.000346411
0.000609325
-0.000417113
0.000717413
-0.000489991
0.000834682
-0.000564318
0.000960833
-0.000639359
0.00109556
-0.000714396
0.00123863
-0.000788755
0.00139
-0.000861853
0.00155001
-0.000933239
0.00171967
-0.00100262
0.00190078
-0.00106976
-0.00113105
0.00209248
2.96677e-07
2.74457e-05
3.09191e-06
6.00045e-05
9.85292e-06
7.41911e-05
2.17704e-05
7.28667e-05
3.98541e-05
5.83107e-05
6.4984e-05
3.23579e-05
9.79381e-05
-3.51589e-06
0.000139403
-4.81044e-05
0.000189972
-0.000100387
0.000250131
-0.000159463
0.000320246
-0.000224492
0.000400543
-0.00029466
0.000491097
-0.000369152
0.000591822
-0.000447136
0.000702471
-0.000527762
0.000822647
-0.000610167
0.000951824
-0.000693494
0.00108938
-0.000776911
0.00123462
-0.000859644
0.00138688
-0.000941011
0.0015455
-0.00102047
0.0017099
-0.00109764
0.00187961
-0.00117233
0.00205401
-0.00124416
-0.00130852
0.00223147
5.85637e-07
2.68601e-05
4.35717e-06
5.62329e-05
1.28831e-05
6.56651e-05
2.74469e-05
5.8303e-05
4.91407e-05
3.66168e-05
7.8912e-05
2.58666e-06
0.000117584
-4.2188e-05
0.000165859
-9.63796e-05
0.000224307
-0.000158836
0.000293348
-0.000228503
0.000373227
-0.000304371
0.000464003
-0.000385436
0.000565527
-0.000470676
0.000677444
-0.000559053
0.000799196
-0.000649514
0.000930041
-0.000741012
0.00106908
-0.000832532
0.00121529
-0.000923121
0.00136757
-0.00101192
0.00152476
-0.00109821
0.0016857
-0.0011814
0.00184918
-0.00126113
0.00201398
-0.00133713
0.00217879
-0.00140898
-0.00147225
0.00234252
9.4107e-07
2.5919e-05
5.87062e-06
5.13034e-05
1.64471e-05
5.50886e-05
3.40362e-05
4.07139e-05
5.97996e-05
1.08534e-05
9.47329e-05
-3.23466e-05
0.000139677
-8.71318e-05
0.000195309
-0.000152012
0.000262126
-0.000225653
0.000340416
-0.000306793
0.000430235
-0.00039419
0.000531389
-0.00048659
0.000643428
-0.000582715
0.000765647
-0.000681273
0.00089711
-0.000780977
0.00103668
-0.000880579
0.00118305
-0.000978904
0.00133482
-0.00107489
0.0014905
-0.0011676
0.00164859
-0.0012563
0.0018076
-0.00134041
0.00196604
-0.00141957
0.00212245
-0.00149354
0.00227547
-0.00156199
-0.00162123
0.00242445
1.36351e-06
2.45555e-05
7.63409e-06
4.50328e-05
2.05466e-05
4.21761e-05
4.15345e-05
1.9726e-05
7.18098e-05
-1.94219e-05
0.000112389
-7.29256e-05
0.000164091
-0.000138834
0.00022752
-0.000215441
0.000303034
-0.000301167
0.000390718
-0.000394476
0.000490356
-0.000493828
0.000601425
-0.000597659
0.000723095
-0.000704385
0.000854257
-0.000812434
0.000993555
-0.000920275
0.00113945
-0.00102647
0.00129026
-0.00112972
0.00144427
-0.00122889
0.00159972
-0.00132306
0.00175495
-0.00141152
0.00190834
-0.00149381
0.00205842
-0.00156964
0.00220383
-0.00163895
0.00234342
-0.00170159
-0.00175481
0.00247701
1.85289e-06
2.27026e-05
9.64628e-06
3.72394e-05
2.51748e-05
2.66476e-05
4.99206e-05
-5.01979e-06
8.51197e-05
-5.4621e-05
0.000131773
-0.000119578
0.000190628
-0.00019769
0.000262154
-0.000286966
0.000346496
-0.00038551
0.000443455
-0.000491435
0.000552463
-0.000602837
0.000672593
-0.000717789
0.000802581
-0.000834374
0.00094088
-0.000950733
0.00108572
-0.00106512
0.0012352
-0.00117595
0.00138735
-0.00128187
0.00154023
-0.00138178
0.00169201
-0.00147484
0.001841
-0.00156051
0.00198571
-0.00163851
0.00212485
-0.00170879
0.00225739
-0.00177149
0.00238256
-0.00182676
-0.00187279
0.00250053
2.40891e-06
2.02937e-05
1.19036e-05
2.77447e-05
3.03181e-05
8.23313e-06
5.9158e-05
-3.38597e-05
9.96491e-05
-9.51121e-05
0.000152729
-0.000172659
0.000219017
-0.000263978
0.000298769
-0.000366718
0.000391839
-0.00047858
0.00049766
-0.000597256
0.000615237
-0.000720414
0.000743184
-0.000845735
0.000879774
-0.000970965
0.00102303
-0.00109399
0.00117082
-0.0012129
0.00132095
-0.00132608
0.0014713
-0.00143222
0.00161987
-0.00153035
0.00176489
-0.00161986
0.00190485
-0.00170047
0.00203853
-0.00177219
0.002165
-0.00183526
0.00228364
-0.00189012
0.00239412
-0.00193724
-0.00197562
0.00249696
3.03126e-06
1.72624e-05
1.44007e-05
1.63752e-05
3.59562e-05
-1.33224e-05
6.91948e-05
-6.70983e-05
0.000115289
-0.000141206
0.000175056
-0.000232426
0.000248912
-0.000337833
0.000336821
-0.000454627
0.000438261
-0.000580021
0.000552219
-0.000711213
0.000677214
-0.000845409
0.00081137
-0.000979891
0.000952507
-0.0011121
0.00109827
-0.00123975
0.00124624
-0.00136088
0.0013941
-0.00147394
0.00153969
-0.0015778
0.00168113
-0.00167179
0.00181688
-0.00175561
0.00194574
-0.00182933
0.00206688
-0.00189333
0.0021798
-0.00194818
0.00228432
-0.00199465
0.00238055
-0.00203346
-0.00206434
0.00246927
3.71949e-06
1.35429e-05
1.71301e-05
2.96462e-06
4.20617e-05
-3.8254e-05
7.99628e-05
-0.000104999
0.000131898
-0.000193141
0.000198497
-0.000299025
0.000279892
-0.000419229
0.000375669
-0.000550404
0.000484848
-0.000689199
0.000605904
-0.000832269
0.000736839
-0.000976344
0.000875292
-0.00111834
0.00101868
-0.00125549
0.00116437
-0.00138544
0.0013098
-0.00150631
0.00145265
-0.00161678
0.0015909
-0.00171606
0.00172295
-0.00180384
0.00184761
-0.00188026
0.00196408
-0.00194581
0.00207199
-0.00200124
0.00217128
-0.00204747
0.00226217
-0.00208554
0.00234513
-0.00211642
-0.00214036
0.00242115
4.47286e-06
9.07008e-06
2.00815e-05
-1.2644e-05
4.85985e-05
-6.6771e-05
9.13741e-05
-0.000147775
0.000149302
-0.000251069
0.000222745
-0.000372468
0.000311466
-0.000507949
0.000414586
-0.000653524
0.000530596
-0.000805209
0.000657421
-0.000959094
0.000792544
-0.00111147
0.000933171
-0.00125897
0.00107642
-0.00139874
0.00121948
-0.00152851
0.00135984
-0.00164666
0.00149531
-0.00175225
0.00162419
-0.00184494
0.00174524
-0.0019249
0.00185773
-0.00199274
0.00196131
-0.00204939
0.00205603
-0.00209596
0.00214225
-0.00213369
0.00222052
-0.0021638
0.00229157
-0.00218747
-0.00220529
0.00235649
5.28989e-06
3.78019e-06
2.32405e-05
-3.05946e-05
5.55192e-05
-9.90498e-05
0.000103319
-0.000195575
0.000167289
-0.000315039
0.000247439
-0.000452619
0.000343074
-0.000603584
0.000452773
-0.000763223
0.000574447
-0.000926884
0.000705465
-0.00109011
0.000842831
-0.00124883
0.000983411
-0.00139955
0.00112414
-0.00153947
0.00126224
-0.0016666
0.00139533
-0.00177976
0.00152157
-0.00187849
0.00163965
-0.00196302
0.0017488
-0.00203405
0.00184874
-0.00209268
0.00193958
-0.00214023
0.00202176
-0.00217814
0.00209593
-0.00220786
0.00216289
-0.00223077
0.00222354
-0.00224812
-0.00226074
0.00227899
6.16791e-06
-2.38772e-06
2.65873e-05
-5.1014e-05
6.27636e-05
-0.000135226
0.000115664
-0.000248475
0.000185609
-0.000384984
0.000272168
-0.000539177
0.000374101
-0.000705517
0.000489387
-0.000878509
0.000615337
-0.00105283
0.000748791
-0.00122357
0.000886363
-0.00138641
0.0010247
-0.00153789
0.00116073
-0.0016755
0.00129183
-0.0017977
0.00141596
-0.00190388
0.00153167
-0.00199421
0.00163816
-0.00206951
0.00173513
-0.00213102
0.00182275
-0.00218029
0.00190151
-0.00221899
0.00197215
-0.00224878
0.00203556
-0.00227126
0.00209266
-0.00228787
0.00214442
-0.00229988
-0.00230822
0.00219189
7.10265e-06
-9.49036e-06
3.00959e-05
-7.40072e-05
7.02567e-05
-0.000175387
0.000128248
-0.000306466
0.000203976
-0.000460712
0.000296477
-0.000631678
0.000403897
-0.000812938
0.000523578
-0.00099819
0.000652247
-0.0011815
0.000786286
-0.0013576
0.000922039
-0.00152216
0.0010561
-0.00167195
0.00118553
-0.00180493
0.00130803
-0.0019202
0.00142199
-0.00201784
0.00152647
-0.00209869
0.00162115
-0.00216418
0.00170619
-0.00221607
0.00178215
-0.00225626
0.00184984
-0.00228667
0.00191018
-0.00230913
0.00196419
-0.00232527
0.00201285
-0.00233653
0.0020571
-0.00234413
-0.00234902
0.00209791
8.08786e-06
-1.75782e-05
3.37327e-05
-9.9652e-05
7.79082e-05
-0.000219563
0.000140888
-0.000369446
0.000222072
-0.000541895
0.000319883
-0.00072949
0.000431803
-0.000924857
0.000554528
-0.00112092
0.000684257
-0.00131123
0.000817026
-0.00149037
0.000949059
-0.00165419
0.00107705
-0.00179994
0.00119836
-0.00192625
0.00131113
-0.00203297
0.00141425
-0.00212095
0.00150729
-0.00219174
0.00159041
-0.0022473
0.00166418
-0.00228983
0.00172944
-0.00232152
0.00178721
-0.00234444
0.00183854
-0.00236046
0.00188448
-0.00237121
0.00192599
-0.00237804
0.00196393
-0.00238207
-0.00238424
0.00199915
9.11519e-06
-2.66934e-05
3.74569e-05
-0.000127994
8.56132e-05
-0.000267719
0.000153379
-0.000437212
0.000239558
-0.000628074
0.000341894
-0.000831827
0.000457176
-0.00104014
0.00058149
-0.00124523
0.000710598
-0.00144034
0.00084033
-0.00162011
0.000966948
-0.00178081
0.00108741
-0.0019204
0.0011995
-0.00203834
0.00130186
-0.00213534
0.00139393
-0.00221302
0.00147576
-0.00227357
0.00154793
-0.00231947
0.00161131
-0.00235322
0.00166698
-0.00237718
0.00171604
-0.0023935
0.00175959
-0.00240402
0.00179865
-0.00241027
0.00183411
-0.0024135
0.00186675
-0.00241471
-0.00241475
0.00189725
1.01741e-05
-3.68675e-05
4.12205e-05
-0.00015904
9.3254e-05
-0.000319752
0.000165499
-0.000509458
0.000256085
-0.000718659
0.000362026
-0.000937768
0.000479425
-0.00115754
0.000603829
-0.00136963
0.000730686
-0.0015672
0.000855778
-0.0017452
0.000975566
-0.0019006
0.0010874
-0.00203223
0.00118958
-0.00214052
0.00128129
-0.00222705
0.00136248
-0.0022942
0.00143364
-0.00234474
0.00149568
-0.00238151
0.00154971
-0.00240724
0.00159689
-0.00242436
0.00163839
-0.002435
0.00167528
-0.0024409
0.00170848
-0.00244348
0.00173881
-0.00244383
0.00176693
-0.00244283
-0.00244121
0.00179339
1.12519e-05
-4.81194e-05
4.49695e-05
-0.000192758
0.000100703
-0.000375486
0.00017702
-0.000585774
0.000271305
-0.000812944
0.000379826
-0.00104629
0.000498037
-0.00127575
0.000621051
-0.00149265
0.000744148
-0.00169029
0.000863221
-0.00186427
0.000975076
-0.00201245
0.00107755
-0.00213471
0.00116951
-0.00223247
0.00125067
-0.00230821
0.00132144
-0.00236497
0.00138269
-0.00240598
0.00143554
-0.00243437
0.00148124
-0.00245294
0.00152101
-0.00246414
0.00155599
-0.00246998
0.00158715
-0.00247207
0.00161536
-0.00247168
0.00164128
-0.00246975
0.00166548
-0.00246703
-0.00246412
0.00168839
1.23343e-05
-6.04537e-05
4.86451e-05
-0.000229069
0.000107828
-0.000434669
0.000187711
-0.000665658
0.000284891
-0.000910124
0.000394893
-0.00115629
0.000512601
-0.00139346
0.00063282
-0.00161287
0.000750821
-0.00180829
0.00086276
-0.00197621
0.0009659
-0.00211559
0.00105864
-0.00222745
0.00114038
-0.00231422
0.00121136
-0.00237919
0.00127237
-0.00242598
0.00132455
-0.00245816
0.00136918
-0.002479
0.00140756
-0.00249131
0.00144088
-0.00249746
0.00147021
-0.00249931
0.00149645
-0.00249831
0.00152031
-0.00249554
0.00154239
-0.00249183
0.00156313
-0.00248776
-0.00248386
0.00158286
1.34053e-05
-7.38591e-05
5.2185e-05
-0.000267848
0.000114493
-0.000496977
0.000197353
-0.000748517
0.000296545
-0.00100932
0.000406895
-0.00126664
0.000522821
-0.00150938
0.000638964
-0.00172901
0.000750746
-0.00192007
0.000854713
-0.00208018
0.000948661
-0.00220954
0.00103156
-0.00231035
0.00110337
-0.00238602
0.00116473
-0.00244055
0.00121674
-0.002478
0.00126073
-0.00250215
0.00129806
-0.00251632
0.00133001
-0.00252326
0.00135772
-0.00252517
0.00138214
-0.00252373
0.00140407
-0.00252023
0.00142412
-0.00251559
0.00144276
-0.00251047
0.00146037
-0.00250537
-0.00250067
0.00147718
1.44481e-05
-8.83072e-05
5.55262e-05
-0.000308926
0.000120568
-0.00056202
0.00020574
-0.000833689
0.000306014
-0.00110959
0.000415583
-0.00137621
0.000528524
-0.00162232
0.000639475
-0.00183996
0.000744144
-0.00202474
0.000839567
-0.0021756
0.000924121
-0.00229409
0.000997341
-0.00238357
0.00105965
-0.00244833
0.00111205
-0.00249296
0.00115588
-0.00252182
0.00119254
-0.00253882
0.00122341
-0.0025472
0.00124972
-0.00254957
0.0012725
-0.00254795
0.0012926
-0.00254384
0.00131071
-0.00253834
0.00132733
-0.00253221
0.00134285
-0.002526
0.00135756
-0.00252007
-0.00251475
0.00137163
1.54451e-05
-0.000103752
5.86063e-05
-0.000352087
0.00012593
-0.000629343
0.000212696
-0.000920455
0.000313096
-0.00120999
0.000420791
-0.00148391
0.000529661
-0.00173119
0.000634485
-0.00194479
0.000731379
-0.00212164
0.000817937
-0.00226216
0.00089312
-0.00236928
0.000956988
-0.00244744
0.00101037
-0.00250171
0.00105454
-0.00253713
0.00109096
-0.00255824
0.00112108
-0.00256894
0.00114624
-0.00257235
0.00116755
-0.00257089
0.00118597
-0.00256637
0.00120223
-0.00256009
0.00121688
-0.00255299
0.00123036
-0.00254569
0.00124297
-0.00253861
0.00125493
-0.00253204
-0.0025262
0.00126639
1.63788e-05
-0.000120131
6.13655e-05
-0.000397074
0.000130467
-0.000698445
0.000218071
-0.00100806
0.000317649
-0.00130957
0.000422447
-0.0015887
0.000526295
-0.00183504
0.000624251
-0.00204274
0.000712928
-0.00221032
0.000790512
-0.00233974
0.000856526
-0.00243529
0.000911497
-0.00250241
0.000956577
-0.00254679
0.000993231
-0.00257378
0.00102299
-0.002588
0.00104727
-0.00259323
0.00106734
-0.00259242
0.00108422
-0.00258776
0.00109872
-0.00258087
0.00111147
-0.00257284
0.00112294
-0.00256446
0.00113348
-0.00255623
0.00114333
-0.00254846
0.00115266
-0.00254137
-0.00253511
0.00116158
1.72321e-05
-0.000137363
6.37491e-05
-0.000443591
0.000134085
-0.000768781
0.000221753
-0.00109573