/*--------------------------------*- C++ -*----------------------------------*\
  =========                 |
  \\      /  F ield         | OpenFOAM: The Open Source CFD Toolbox
   \\    /   O peration     | Website:  https://openfoam.org
    \\  /    A nd           | Version:  6.0
     \\/     M anipulation  |
\*---------------------------------------------------------------------------*/
FoamFile
{
    version     2.0;
    format      ascii;
    class       surfaceScalarField;
    location    "80";
    object      phi;
}
// * * * * * * * * * * * * * * * * * * * * * * * * * * * * * * * * * * * * * //

dimensions      [0 3 -1 0 0 0 0];

internalField   nonuniform List<scalar> 
24700
(
-4.91297e-06
1.39662e-05
-9.05319e-06
-1.6701e-05
1.01966e-05
1.59143e-06
-3.33844e-05
-1.48729e-05
3.15564e-05
-5.35576e-05
-5.34676e-05
7.36408e-05
-7.61777e-05
-9.99873e-05
0.000122607
-0.000100431
-0.00015064
0.000174893
-0.000125641
-0.000202994
0.000228204
-0.00015122
-0.000255571
0.00028115
-0.000176635
-0.000307513
0.000332929
-0.000201409
-0.000358309
0.000383082
-0.000225114
-0.000407605
0.000431311
-0.000247383
-0.000455096
0.000477365
-0.000267909
-0.000500466
0.000520992
-0.000286453
-0.000543384
0.000561928
-0.000302843
-0.00058352
0.00059991
-0.000316969
-0.000620579
0.000634706
-0.000328784
-0.000654334
0.000666149
-0.000338293
-0.000684655
0.000694163
-0.000345545
-0.000711533
0.000718785
-0.000350625
-0.000735098
0.000740178
-0.000353643
-0.000755626
0.000758643
-0.000354723
-0.000773534
0.000774614
-0.000354003
-0.00078938
0.00078866
-0.000351624
-0.000803906
0.000801526
-0.000818112
0.000814232
-0.000347744
-5.3796e-06
1.93457e-05
-1.83437e-05
2.31607e-05
-3.6761e-05
3.54434e-06
-5.91084e-05
-3.11203e-05
-8.42505e-05
-7.48452e-05
-0.000111303
-0.000123587
-0.000139541
-0.000174756
-0.000168338
-0.000226774
-0.000197139
-0.000278712
-0.000225445
-0.000330003
-0.00025281
-0.00038024
-0.000278842
-0.000429065
-0.000303204
-0.000476104
-0.00032562
-0.000520968
-0.000345873
-0.000563267
-0.00036381
-0.000602643
-0.000379336
-0.000638807
-0.000392419
-0.000671572
-0.000403079
-0.000700873
-0.000411383
-0.000726794
-0.000417441
-0.000749568
-0.000421392
-0.000769582
-0.000423399
-0.000787373
-0.000423633
-0.000803672
-0.000819452
-0.000422293
-5.71213e-06
2.50579e-05
-1.95521e-05
3.70007e-05
-3.92942e-05
2.32865e-05
-6.33331e-05
-7.08144e-06
-9.04629e-05
-4.77153e-05
-0.000119745
-9.43053e-05
-0.000150415
-0.000144086
-0.000181821
-0.000195368
-0.000213391
-0.000247142
-0.000244613
-0.000298781
-0.000275024
-0.000349829
-0.00030421
-0.000399878
-0.000331804
-0.00044851
-0.000357487
-0.000495285
-0.000380992
-0.000539761
-0.000402111
-0.000581523
-0.000420696
-0.000620223
-0.000436662
-0.000655606
-0.00044999
-0.000687545
-0.000460724
-0.00071606
-0.000468965
-0.000741326
-0.000474866
-0.000763682
-0.000478617
-0.000783623
-0.000480433
-0.000801856
-0.00081932
-0.000480566
-5.88438e-06
3.09423e-05
-2.0242e-05
5.13583e-05
-4.08246e-05
4.38691e-05
-6.59868e-05
1.80807e-05
-9.44788e-05
-1.92233e-05
-0.000125325
-6.34595e-05
-0.000157733
-0.000111678
-0.000191037
-0.000162064
-0.000224655
-0.000213524
-0.000258066
-0.000265369
-0.000290798
-0.000317097
-0.000322417
-0.00036826
-0.000352523
-0.000418404
-0.000380757
-0.000467052
-0.000406797
-0.00051372
-0.000430375
-0.000557946
-0.000451276
-0.000599321
-0.000469358
-0.000637524
-0.000484549
-0.000672354
-0.00049686
-0.000703749
-0.000506376
-0.00073181
-0.00051326
-0.000756798
-0.000517732
-0.00077915
-0.000520064
-0.000799524
-0.000818804
-0.00052058
-5.8768e-06
3.68191e-05
-2.0351e-05
6.58325e-05
-4.12316e-05
6.47498e-05
-6.68815e-05
4.37306e-05
-9.60369e-05
9.93204e-06
-0.000127703
-3.17934e-05
-0.000161074
-7.83069e-05
-0.000195476
-0.000127662
-0.000230326
-0.000178675
-0.0002651
-0.000230595
-0.000299322
-0.000282876
-0.000332541
-0.000335041
-0.000364333
-0.000386612
-0.000394295
-0.000437089
-0.000422056
-0.00048596
-0.000447281
-0.000532721
-0.000469689
-0.000576912
-0.000489068
-0.000618146
-0.000505285
-0.000656137
-0.000518304
-0.00069073
-0.000528191
-0.000721923
-0.000535107
-0.000749881
-0.000539311
-0.000774947
-0.000541139
-0.000797696
-0.000818931
-0.000541011
-5.67872e-06
4.24978e-05
-1.98422e-05
7.9996e-05
-4.04415e-05
8.5349e-05
-6.58991e-05
6.91882e-05
-9.49684e-05
3.90013e-05
-0.000126655
-1.06926e-07
-0.000160151
-4.4811e-05
-0.000194782
-9.30305e-05
-0.00022997
-0.000143487
-0.000265197
-0.000195368
-0.000299983
-0.000248089
-0.000333873
-0.000301151
-0.000366422
-0.000354063
-0.000397195
-0.000406316
-0.000425773
-0.000457382
-0.000451762
-0.000506732
-0.000474813
-0.000553862
-0.00049464
-0.000598319
-0.000511043
-0.000639733
-0.000523931
-0.000677842
-0.000533334
-0.00071252
-0.000539414
-0.000743802
-0.000542458
-0.000771902
-0.000542883
-0.000797271
-0.000820587
-0.000541227
-5.28953e-06
4.77873e-05
-1.87091e-05
9.34156e-05
-3.84354e-05
0.000105075
-6.3002e-05
9.37548e-05
-9.12112e-05
6.72105e-05
-0.000122088
3.07695e-05
-0.000154832
-1.20664e-05
-0.000188779
-5.90838e-05
-0.000223357
-0.000108909
-0.000258059
-0.000160666
-0.000292414
-0.000213734
-0.000325965
-0.0002676
-0.00035826
-0.000321769
-0.000388842
-0.000375734
-0.000417257
-0.000428967
-0.000443063
-0.000480926
-0.00046585
-0.000531075
-0.000485262
-0.000578907
-0.000501029
-0.000623966
-0.000512997
-0.000665874
-0.000521151
-0.000704366
-0.000525638
-0.000739314
-0.000526778
-0.000770763
-0.000525065
-0.000798983
-0.000824479
-0.000521174
-4.71945e-06
5.25068e-05
-1.69777e-05
0.000105674
-3.52532e-05
0.000123351
-5.82397e-05
0.000116741
-8.48189e-05
9.37897e-05
-0.000114053
6.00036e-05
-0.000145162
1.90423e-05
-0.000177492
-2.6753e-05
-0.000210488
-7.59135e-05
-0.000243655
-0.000127499
-0.000276536
-0.000180854
-0.000308684
-0.000235451
-0.000339651
-0.000290802
-0.000368975
-0.00034641
-0.000396185
-0.000401757
-0.000420807
-0.000456304
-0.000442384
-0.000509497
-0.000460505
-0.000560786
-0.000474832
-0.000609639
-0.000485143
-0.000655563
-0.000491371
-0.000698139
-0.000493634
-0.000737051
-0.000492269
-0.000772129
-0.000487847
-0.000803405
-0.000831139
-0.000481186
-3.98935e-06
5.64961e-05
-1.47059e-05
0.00011639
-3.09941e-05
0.000139639
-5.17505e-05
0.000137498
-7.59648e-05
0.000118004
-0.000102754
8.67925e-05
-0.000131366
4.76543e-05
-0.000161166
3.04764e-06
-0.000191615
-4.54649e-05
-0.000222236
-9.6878e-05
-0.00025259
-0.0001505
-0.000282251
-0.00020579
-0.000310786
-0.000262267
-0.000337746
-0.00031945
-0.000362662
-0.000376841
-0.000385054
-0.000433913
-0.00040444
-0.000490111
-0.000420368
-0.000544858
-0.000432449
-0.000597558
-0.000440396
-0.000647616
-0.00044408
-0.000694455
-0.000443577
-0.000737554
-0.000439217
-0.000776489
-0.000431632
-0.000810991
-0.000840993
-0.000421778
-3.12967e-06
5.96258e-05
-1.19817e-05
0.000125242
-2.58131e-05
0.00015347
-4.37578e-05
0.000155442
-6.49382e-05
0.000139184
-8.85415e-05
0.000110396
-0.000113854
7.29664e-05
-0.000140263
2.94572e-05
-0.000167248
-1.84803e-05
-0.000194351
-6.97745e-05
-0.000221158
-0.000123693
-0.000247267
-0.000179681
-0.000272274
-0.00023726
-0.000295758
-0.000295966
-0.000317274
-0.000355324
-0.000336357
-0.00041483
-0.000352529
-0.000473938
-0.000365327
-0.00053206
-0.000374325
-0.00058856
-0.000379186
-0.000642755
-0.000379717
-0.000693925
-0.000375933
-0.000741337
-0.000368132
-0.00078429
-0.000356971
-0.000822152
-0.000854437
-0.000343527
-2.17862e-06
6.18044e-05
-8.91822e-06
0.000131982
-1.99136e-05
0.000164466
-3.45603e-05
0.000170089
-5.2133e-05
0.000156757
-7.19036e-05
0.000130166
-9.32042e-05
9.4267e-05
-0.00011545
5.17033e-05
-0.00013814
4.20921e-06
-0.000160837
-4.70774e-05
-0.00018315
-0.00010138
-0.000204708
-0.000158123
-0.000225144
-0.000216824
-0.000244075
-0.000277034
-0.000261099
-0.0003383
-0.000275789
-0.00040014
-0.0002877
-0.000462028
-0.000296381
-0.000523379
-0.000301402
-0.000583538
-0.000302395
-0.000641762
-0.000299109
-0.000697211
-0.000291487
-0.000748959
-0.000279763
-0.000796013
-0.000264577
-0.000837338
-0.000871929
-0.000247085
-1.17956e-06
6.29839e-05
-5.6466e-06
0.000136449
-1.35358e-05
0.000172355
-2.45159e-05
0.000181069
-3.80275e-05
0.000170269
-5.34395e-05
0.000145578
-7.0138e-05
0.000110965
-8.75699e-05
6.91353e-05
-0.000105255
2.18938e-05
-0.000122776
-2.9556e-05
-0.000139766
-8.43899e-05
-0.000155886
-0.000142003
-0.000170806
-0.000201904
-0.00018419
-0.00026365
-0.00019569
-0.000326801
-0.000204934
-0.000390896
-0.00021153
-0.000455431
-0.000215072
-0.000519837
-0.000215156
-0.000583454
-0.000211409
-0.00064551
-0.000203538
-0.000705082
-0.000191417
-0.000761081
-0.000175189
-0.000812241
-0.000155426
-0.000857101
-0.000894044
-0.000133312
-1.78007e-07
6.31619e-05
-2.30755e-06
0.000138579
-6.9417e-06
0.000176989
-1.40202e-05
0.000188148
-2.31572e-05
0.000179406
-3.38267e-05
0.000156248
-4.54766e-05
0.000122615
-5.75898e-05
8.12485e-05
-6.97085e-05
3.40125e-05
-8.14358e-05
-1.78286e-05
-9.24256e-05
-7.34001e-05
-0.000102366
-0.000132062
-0.000110965
-0.000193306
-0.000117934
-0.000256681
-0.000122981
-0.000321754
-0.000125799
-0.000388078
-0.000126065
-0.000455165
-0.000123442
-0.000522461
-0.000117576
-0.00058932
-0.000108124
-0.000654962
-9.47829e-05
-0.000718422
-7.73664e-05
-0.000778497
-5.59184e-05
-0.000833689
-3.08999e-05
-0.000882119
-0.000921484
-3.46009e-06
7.81597e-07
6.23803e-05
9.58217e-07
0.000138402
-3.97684e-07
0.000178345
-3.48173e-06
0.000191232
-8.08039e-06
0.000184004
-1.37784e-05
0.000161946
-2.00914e-05
0.000128928
-2.65424e-05
8.76995e-05
-3.26982e-05
4.01683e-05
-3.81803e-05
-1.23465e-05
-4.26607e-05
-6.89197e-05
-4.58509e-05
-0.000128872
-4.74897e-05
-0.000191667
-4.73315e-05
-0.000256839
-4.51367e-05
-0.000323949
-4.06649e-05
-0.00039255
-3.36684e-05
-0.000462161
-2.3888e-05
-0.000532241
-1.10501e-05
-0.000602158
5.12959e-06
-0.000671142
2.49273e-05
-0.00073822
4.85589e-05
-0.000802129
7.60711e-05
-0.000861201
0.000107139
-0.000913187
-0.00095505
0.000140705
1.65903e-06
6.07213e-05
4.01972e-06
0.000136041
5.84313e-06
0.000176522
6.70599e-06
0.000190369
6.65839e-06
0.000184052
6.00446e-06
0.0001626
5.15694e-06
0.000129776
4.54896e-06
8.83075e-05
4.58739e-06
4.01299e-05
5.63372e-06
-1.33929e-05
8.00146e-06
-7.12875e-05
1.19618e-05
-0.000132832
1.77522e-05
-0.000197457
2.55848e-05
-0.000264672
3.56534e-05
-0.000334018
4.81395e-05
-0.000405036
6.32174e-05
-0.000477239
8.10607e-05
-0.000550085
0.000101851
-0.000622948
0.000125783
-0.000695074
0.00015307
-0.000765507
0.000183912
-0.000832971
0.000218414
-0.000895703
0.000256387
-0.00095116
-0.000995572
0.000296909
2.42098e-06
5.83003e-05
6.76458e-06
0.000131698
1.15586e-05
0.000171728
1.61914e-05
0.000185736
2.05669e-05
0.000179676
2.48829e-05
0.000158284
2.948e-05
0.000125179
3.47455e-05
8.3042e-05
4.10591e-05
3.38162e-05
4.87666e-05
-2.11003e-05
5.81707e-05
-8.06916e-05
6.95317e-05
-0.000144193
8.30711e-05
-0.000210997
9.8977e-05
-0.000280578
0.000117407
-0.000352448
0.000138492
-0.000426122
0.00016234
-0.000501086
0.000189039
-0.000576783
0.000218669
-0.000652578
0.000251318
-0.000727724
0.000287096
-0.000801285
0.000326139
-0.000872014
0.000368559
-0.000938123
0.000414272
-0.000996873
-0.00104382
0.000462516
3.04314e-06
5.52572e-05
9.10656e-06
0.000125634
1.65725e-05
0.000164262
2.46896e-05
0.000177619
3.32403e-05
0.000171126
4.23269e-05
0.000149197
5.22215e-05
0.000115284
6.32664e-05
7.19971e-05
7.5815e-05
2.12676e-05
9.01992e-05
-3.54846e-05
0.000106715
-9.72073e-05
0.000125617
-0.000163095
0.000147117
-0.000232497
0.000171387
-0.000304848
0.000198556
-0.000379617
0.000228711
-0.000456277
0.000261897
-0.000534272
0.000298119
-0.000613005
0.000337352
-0.000691811
0.000379559
-0.000769931
0.000424719
-0.000846446
0.000472853
-0.000920148
0.000524018
-0.000989287
0.000578184
-0.00105104
-0.00110038
0.000634748
3.51155e-06
5.17456e-05
1.09909e-05
0.000118155
2.07669e-05
0.000154486
3.20029e-05
0.000166383
4.43914e-05
0.000158737
5.79561e-05
0.000135632
7.2909e-05
0.000100331
8.95521e-05
5.5354e-05
0.000108215
2.60437e-06
0.00012922
-5.64892e-05
0.000152858
-0.000120846
0.000179383
-0.00018962
0.000209002
-0.000262116
0.000241871
-0.000337717
0.000278094
-0.00041584
0.000317714
-0.000495897
0.000360711
-0.000577269
0.000407004
-0.000659297
0.000456455
-0.000741262
0.000508889
-0.000822366
0.000564131
-0.000901687
0.000622045
-0.000978062
0.000682573
-0.00104981
0.000745674
-0.00111414
-0.00116559
0.000810881
3.82318e-06
4.79224e-05
1.23975e-05
0.000109581
2.40894e-05
0.000142794
3.80346e-05
0.000152438
5.38721e-05
0.0001429
7.15696e-05
0.000117935
9.12924e-05
8.06086e-05
0.000113311
3.33356e-05
0.000137937
-2.20218e-05
0.000165485
-8.40375e-05
0.000196247
-0.000151607
0.000230474
-0.000223847
0.000268367
-0.000300009
0.000310065
-0.000379416
0.000355637
-0.000461413
0.000405074
-0.000545333
0.000458279
-0.000630474
0.00051507
-0.000716089
0.000575185
-0.000801377
0.000638297
-0.000885478
0.000704055
-0.000967445
0.000772138
-0.00104615
0.000842323
-0.00112
0.000914497
-0.00118631
-0.00123938
0.000988292
3.98579e-06
4.39367e-05
1.33416e-05
0.000100225
2.65563e-05
0.000129579
4.27957e-05
0.000136198
6.16849e-05
0.00012401
8.31625e-05
9.64575e-05
0.000107365
5.64057e-05
0.000134544
6.15704e-06
0.000165
-5.2478e-05
0.000199045
-0.000118083
0.000236969
-0.000189531
0.00027902
-0.000265897
0.000325382
-0.000346371
0.000376164
-0.000430197
0.000431383
-0.000516632
0.000490954
-0.000604903
0.000554681
-0.000694201
0.000622258
-0.000783666
0.000693275
-0.000872394
0.000767237
-0.000959439
0.000843601
-0.00104381
0.000921847
-0.00112439
0.00100156
-0.00119971
0.0010825
-0.00126726
-0.00132125
0.00116436
4.01705e-06
3.99196e-05
1.38719e-05
9.03699e-05
2.82505e-05
0.000115201
4.64034e-05
0.000118046
6.79826e-05
0.000102431
9.29268e-05
7.15133e-05
0.000121366
2.79664e-05
0.000153545
-2.60216e-05
0.000189762
-8.86956e-05
0.000230329
-0.000158649
0.000275529
-0.000234731
0.000325593
-0.000315961
0.000380673
-0.000401451
0.000440822
-0.000490346
0.000505974
-0.000581784
0.000575935
-0.000674864
0.000650375
-0.000768641
0.00072883
-0.000862121
0.000810715
-0.000954279
0.000895349
-0.00104407
0.000981992
-0.00113045
0.00106992
-0.00121232
0.00115852
-0.00128831
0.00124741
-0.00135615
-0.00141013
0.0013363
3.94318e-06
3.59764e-05
1.40665e-05
8.02466e-05
2.93147e-05
9.99526e-05
4.90714e-05
9.82888e-05
7.30548e-05
7.8448e-05
0.000101234
4.33337e-05
0.000133755
-4.55412e-06
0.000170868
-6.31351e-05
0.000212878
-0.000130705
0.000260087
-0.000205859
0.000312765
-0.000287409
0.000371102
-0.000374299
0.000435188
-0.000465537
0.00050498
-0.000560139
0.000580289
-0.000657093
0.000660767
-0.000755342
0.000745906
-0.00085378
0.000835048
-0.000951263
0.000927407
-0.00104664
0.0010221
-0.00113877
0.00111821
-0.00122655
0.00121481
-0.00130892
0.00131112
-0.00138463
0.00140662
-0.00145165
-0.00150448
0.00150097
3.79701e-06
3.21794e-05
1.40269e-05
7.00166e-05
2.99392e-05
8.40403e-05
5.10915e-05
7.71364e-05
7.73032e-05
5.22363e-05
0.000108603
1.20341e-05
0.000145169
-4.11206e-05
0.000187273
-0.000105239
0.000235218
-0.00017865
0.000289295
-0.000259935
0.000349728
-0.000347841
0.000416637
-0.000441208
0.000490003
-0.000538903
0.000569642
-0.000639777
0.000655186
-0.000742637
0.000746083
-0.000846239
0.000841605
-0.000949301
0.000940866
-0.00105052
0.00104286
-0.00114863
0.00114651
-0.00124241
0.0012507
-0.00133074
0.00135438
-0.0014126
0.00145667
-0.00148693
0.00155695
-0.00155192
-0.00160235
0.00165482
3.61548e-06
2.85639e-05
1.387e-05
5.97621e-05
3.03468e-05
6.75635e-05
5.28087e-05
5.46745e-05
8.12048e-05
2.38402e-05
0.000115645
-2.24065e-05
0.000156358
-8.18331e-05
0.000203633
-0.000152514
0.000257769
-0.000232786
0.000319015
-0.000321181
0.000387517
-0.000416343
0.000463275
-0.000516967
0.000546109
-0.000621737
0.00063563
-0.000729299
0.00073124
-0.000838247
0.000832133
-0.000947133
0.000937326
-0.00105449
0.00104569
-0.00115889
0.00115601
-0.00125895
0.00126701
-0.00135342
0.00137744
-0.00144117
0.00148612
-0.00152129
0.00159209
-0.0015929
0.00169473
-0.00165455
-0.00170158
0.00179395
3.437e-06
2.51269e-05
1.37187e-05
4.94804e-05
3.0774e-05
5.05082e-05
5.45905e-05
3.0858e-05
8.52671e-05
-6.83639e-06
0.00012301
-6.01497e-05
0.000168101
-0.000126923
0.000220842
-0.000205255
0.000281502
-0.000293446
0.000350251
-0.00038993
0.000427108
-0.0004932
0.000511893
-0.000601752
0.000604197
-0.000714041
0.00070337
-0.000828472
0.000808526
-0.000943402
0.000918571
-0.00105718
0.00103225
-0.00116818
0.00114822
-0.00127485
0.00126507
-0.0013758
0.00138144
-0.00146979
0.00149604
-0.00155578
0.0016077
-0.00163294
0.00171524
-0.00170044
0.00181724
-0.00175655
-0.00179695
0.00191261
3.29805e-06
2.18289e-05
1.36916e-05
3.90869e-05
3.14507e-05
3.27491e-05
5.67947e-05
5.51402e-06
8.99811e-05
-4.00228e-05
0.000131316
-0.000101485
0.000181125
-0.000176733
0.000239703
-0.000263833
0.000307249
-0.000360992
0.000383805
-0.000466486
0.000469197
-0.000578592
0.000562997
-0.000695552
0.000664503
-0.000815547
0.000772742
-0.00093671
0.000886501
-0.00105716
0.00100438
-0.00117506
0.00112486
-0.00128866
0.00124638
-0.00139638
0.00136745
-0.00149687
0.00148669
-0.00158903
0.00160296
-0.00167205
0.00171542
-0.0017454
0.00182374
-0.00180875
0.00192898
-0.00186179
-0.00190271
0.00203474
3.23169e-06
1.85972e-05
1.38956e-05
2.8423e-05
3.25822e-05
1.40625e-05
5.97374e-05
-2.16412e-05
9.57734e-05
-7.60588e-05
0.000141085
-0.000146796
0.000196021
-0.000231669
0.00026083
-0.000328641
0.00033559
-0.000435752
0.000420148
-0.000551044
0.000514069
-0.000672514
0.000616607
-0.00079809
0.000726704
-0.000925644
0.000843022
-0.00105303
0.000964001
-0.00117814
0.00108794
-0.00129899
0.00121307
-0.00141379
0.0013377
-0.001521
0.00146023
-0.00161941
0.00157933
-0.00170812
0.00169389
-0.00178662
0.0018032
-0.00185471
0.00190696
-0.00191251
0.00200549
-0.00196033
-0.00199674
0.00209953
3.26332e-06
1.53339e-05
1.4415e-05
1.72713e-05
3.43321e-05
-5.85457e-06
6.36679e-05
-5.0977e-05
0.000102972
-0.000115363
0.000152702
-0.000196526
0.000213192
-0.000292159
0.00028459
-0.000400039
0.000366789
-0.000517952
0.000459371
-0.000643626
0.000561564
-0.000774707
0.000672242
-0.000908768
0.000789949
-0.00104335
0.000912965
-0.00117604
0.00103939
-0.00130457
0.00116726
-0.00142686
0.00129464
-0.00154117
0.00141975
-0.00164611
0.00154102
-0.00174067
0.00165718
-0.00182428
0.00176729
-0.00189673
0.00187076
-0.00195817
0.00196729
-0.00200905
0.00205687
-0.0020499
-0.00207981
0.00213993
3.41054e-06
1.19233e-05
1.53087e-05
5.37312e-06
3.68125e-05
-2.73583e-05
6.87514e-05
-8.29159e-05
0.000111779
-0.000158391
0.000166378
-0.000251125
0.000232811
-0.000358592
0.000311062
-0.00047829
0.000400765
-0.000607654
0.000501158
-0.000744019
0.000611072
-0.000884621
0.000728954
-0.00102665
0.000852933
-0.00116733
0.000980919
-0.00130403
0.00111073
-0.00143438
0.0012402
-0.00155633
0.00136732
-0.0016683
0.00149035
-0.00176913
0.00160783
-0.00185815
0.00171869
-0.00193514
0.00182222
-0.00200027
0.00191807
-0.00205403
0.00200619
-0.00209716
0.00208678
-0.00213049
-0.00215373
0.0021607
3.68229e-06
8.24103e-06
1.66077e-05
-7.55226e-06
4.00804e-05
-5.08311e-05
7.50631e-05
-0.000117899
0.000122269
-0.000205596
0.000182146
-0.000311002
0.000254823
-0.00043127
0.000340043
-0.00056351
0.000437103
-0.000704714
0.000544831
-0.000851747
0.000661608
-0.0010014
0.000785435
-0.00115048
0.000914038
-0.00129593
0.00104501
-0.00143501
0.00117596
-0.00156533
0.00130465
-0.00168502
0.00142911
-0.00179275
0.00154772
-0.00188774
0.00165928
-0.00196972
0.00176301
-0.00203887
0.0018585
-0.00209576
0.00194572
-0.00214124
0.00202489
-0.00217634
0.0020965
-0.0022021
-0.00221876
0.00216153
4.07944e-06
4.16159e-06
1.83162e-05
-2.1789e-05
4.41398e-05
-7.66547e-05
8.25921e-05
-0.000156351
0.000134387
-0.00025739
0.000199871
-0.000376487
0.000278963
-0.000510362
0.000371082
-0.000655629
0.000475115
-0.000808747
0.000589425
-0.000966057
0.000711916
-0.00112389
0.000840152
-0.00127871
0.00097151
-0.00142729
0.00110335
-0.00156685
0.00123318
-0.00169516
0.00135881
-0.00181065
0.00147842
-0.00191237
0.00159068
-0.002
0.00169469
-0.00207373
0.00179002
-0.0021342
0.00187662
-0.00218236
0.00195478
-0.0022194
0.00202504
-0.00224659
0.00208811
-0.00226518
-0.00227578
0.00214512
4.59631e-06
-4.34719e-07
2.04163e-05
-3.7609e-05
4.89495e-05
-0.000105188
9.12539e-05
-0.000198655
0.000147974
-0.000314111
0.000219281
-0.000447793
0.000304794
-0.000595875
0.000403534
-0.000754369
0.000513911
-0.000919124
0.000633788
-0.00108593
0.000760595
-0.0012507
0.000891505
-0.00140962
0.00102362
-0.00155941
0.0011542
-0.00169742
0.00128076
-0.00182172
0.00140129
-0.00193118
0.00151426
-0.00202534
0.00161867
-0.00210441
0.00171402
-0.00216907
0.00180024
-0.00222042
0.00187765
-0.00225977
0.00194683
-0.00228858
0.00200856
-0.00230832
0.00206374
-0.00232036
-0.00232557
0.00211353
5.22255e-06
-5.65727e-06
2.28734e-05
-5.52599e-05
5.44334e-05
-0.000136748
0.000100907
-0.000245129
0.000162792
-0.000375996
0.000239995
-0.000524996
0.000331756
-0.000687637
0.000436621
-0.000859234
0.00055248
-0.00103498
0.000676682
-0.00121014
0.000806221
-0.00138024
0.000937955
-0.00154136
0.00106883
-0.00169029
0.00119611
-0.0018247
0.0013175
-0.00194311
0.00143125
-0.00204493
0.00153622
-0.0021303
0.00163179
-0.00219998
0.00171788
-0.00225516
0.0017948
-0.00229734
0.00186316
-0.00232813
0.0019238
-0.00234922
0.00197766
-0.00236218
0.00202576
-0.00236846
-0.00236906
0.00206926
5.94522e-06
-1.16025e-05
2.56422e-05
-7.49568e-05
6.04926e-05
-0.000171598
0.000111371
-0.000296007
0.000178542
-0.000443168
0.000261563
-0.000608017
0.000359211
-0.000785284
0.000469497
-0.00096952
0.000589766
-0.00115525
0.000716876
-0.00133725
0.000847452
-0.00151081
0.000978143
-0.00167205
0.00110588
-0.00181803
0.00122806
-0.00194688
0.00134268
-0.00205773
0.00144838
-0.00215063
0.00154444
-0.00222636
0.00163068
-0.00228622
0.00170738
-0.00233187
0.0017752
-0.00236515
0.001835
-0.00238793
0.00188777
-0.00240199
0.00193459
-0.00240899
0.00197649
-0.00241037
-0.00240714
0.00201458
6.75043e-06
-1.83529e-05
2.86719e-05
-9.68782e-05
6.70142e-05
-0.000209941
0.00012244
-0.000351432
0.000194896
-0.000515623
0.000283496
-0.000696617
0.000386485
-0.000888273
0.000501298
-0.00108433
0.000624735
-0.00127869
0.000753222
-0.00146573
0.000883108
-0.0016407
0.00101097
-0.00179991
0.00113385
-0.00194091
0.00124942
-0.00206245
0.00135607
-0.00216438
0.00145289
-0.00224745
0.00153958
-0.00231305
0.0016164
-0.00236303
0.00168397
-0.00239944
0.0017432
-0.00242438
0.00179513
-0.00243986
0.00184087
-0.00244774
0.00188151
-0.00244963
0.00191808
-0.00244693
-0.00244064
0.00195158
7.62443e-06
-2.59774e-05
3.19096e-05
-0.000121163
7.38789e-05
-0.00025191
0.000133898
-0.000411452
0.000211503
-0.000593229
0.000305287
-0.0007904
0.000412899
-0.000995885
0.000531182
-0.00120262
0.000656429
-0.00140394
0.000784714
-0.00159402
0.000912239
-0.00176822
0.00103564
-0.00192331
0.00115222
-0.00205748
0.00126002
-0.00217025
0.00135789
-0.00226225
0.00144539
-0.00233495
0.00152267
-0.00239033
0.00159033
-0.0024307
0.00164929
-0.0024584
0.00170063
-0.00247573
0.00174552
-0.00248475
0.00178508
-0.0024873
0.00182039
-0.00248494
0.00185241
-0.00247895
-0.00247026
0.00188203
8.55413e-06
-3.45315e-05
3.53025e-05
-0.000147912
8.09648e-05
-0.000297572
0.000145523
-0.000476009
0.000228013
-0.000675719
0.000326432
-0.00088882
0.000437798
-0.00110725
0.000558373
-0.00132319
0.000684007
-0.00152957
0.000810535
-0.00172055
0.000934152
-0.00189184
0.0010517
-0.00204086
0.00116083
-0.00216661
0.00126006
-0.00226948
0.00134872
-0.00235092
0.00142684
-0.00241306
0.00149495
-0.00245844
0.00155397
-0.00248971
0.00160501
-0.00250944
0.00164928
-0.00251999
0.00168796
-0.00252343
0.00172218
-0.00252152
0.00175293
-0.00251569
0.00178108
-0.00250711
-0.00249658
0.00180741
9.52704e-06
-4.40585e-05
3.87984e-05
-0.000177183
8.81495e-05
-0.000346923
0.00015709
-0.00054495
0.000244075
-0.000762704
0.000346446
-0.00099119
0.000460573
-0.00122138
0.000582182
-0.0014448
0.000706775
-0.00165416
0.000830081
-0.00184385
0.000948427
-0.00201019
0.00105898
-0.00215141
0.00115985
-0.00226748
0.00125006
-0.00235969
0.00132942
-0.00243029
0.00139839
-0.00248203
0.00145783
-0.00251788
0.00150887
-0.00254076
0.00155278
-0.00255335
0.00159079
-0.002558
0.00162407
-0.00255672
0.00165368
-0.00255113
0.00168053
-0.00254254
0.00170538
-0.00253196
-0.00252008
0.00172888
1.0531e-05
-5.45895e-05
4.23447e-05
-0.000208997
9.53103e-05
-0.000399889
0.000168379
-0.000618019
0.00025935
-0.000853674
0.000364869
-0.00109671
0.000480677
-0.00133719
0.000602031
-0.00156615
0.000724207
-0.00177634
0.00084297
-0.00196262
0.000954911
-0.00212213
0.00105763
-0.00225413
0.00114974
-0.00235959
0.00123078
-0.00244074
0.00130103
-0.00250053
0.00136129
-0.00254229
0.00141269
-0.00256928
0.00145651
-0.00258459
0.00149407
-0.00259091
0.0015266
-0.00259053
0.00155522
-0.00258533
0.00158087
-0.00257678
0.00160436
-0.00256603
0.00162635
-0.00255395
-0.00254109
0.00164735
1.15536e-05
-6.61431e-05
4.58886e-05
-0.000243332
0.000102325
-0.000456325
0.000179172
-0.000694867
0.000273514
-0.000948016
0.000381287
-0.00120448
0.000497642
-0.00145354
0.000617471
-0.00168598
0.000735958
-0.00189483
0.000849041
-0.0020757
0.000953694
-0.00222678
0.00104801
-0.00234845
0.00113116
-0.00244273
0.00120315
-0.00251273
0.00126466
-0.00256205
0.00131681
-0.00259443
0.00136088
-0.00261336
0.00139825
-0.00262196
0.00143022
-0.00262288
0.00145798
-0.00261829
0.00148253
-0.00260989
0.00150475
-0.00259899
0.00152531
-0.00258659
0.00154476
-0.0025734
-0.00255986
0.00156353
1.25819e-05
-7.8725e-05
4.93764e-05
-0.000280126
0.00010907
-0.000516019
0.00018926
-0.000775056
0.000286268
-0.00104502
0.000395333
-0.00131355
0.000511092
-0.0015693
0.000628188
-0.00180308
0.000741856
-0.00200849
0.000848335
-0.00218218
0.00094507
-0.00232351
0.0010307
-0.00243408
0.00110491
-0.00251694
0.00116816
-0.00257598
0.00122148
-0.00261537
0.00126617
-0.00263911
0.00130364
-0.00265083
0.00133528
-0.00265359
0.00136234
-0.00264994
0.00138592
-0.00264187
0.00140694
-0.0026309
0.00142613
-0.00261818
0.00144408
-0.00260454
0.00146123
-0.00259055
-0.00257655
0.00147793
1.36025e-05
-9.23275e-05
5.27531e-05
-0.000319277
0.000115427
-0.000578693
0.000198442
-0.000858072
0.000297342
-0.00114392
0.000406706
-0.00142291
0.00052075
-0.00168335
0.000634007
-0.00191633
0.000741896
-0.00211638
0.000841067
-0.00228135
0.000929496
-0.00241194
0.00100637
-0.00251096
0.00107187
-0.00258243
0.00112685
-0.00263096
0.00117257
-0.00266109
0.00121048
-0.00267703
0.00124205
-0.0026824
0.00126862
-0.00268016
0.00129137
-0.00267269
0.00131128
-0.00266178
0.00132916
-0.00264878
0.00134564
-0.00263466
0.00136121
-0.0026201
0.00137622
-0.00260556
-0.00259127
0.00139094
1.46009e-05
-0.000106928
5.59636e-05
-0.00036064
0.000121278
-0.000644007
0.000206537
-0.000943331
0.000306506
-0.00124389
0.00041517
-0.00153158
0.000526443
-0.00179462
0.000634884
-0.00202478
0.00073622
-0.00221772
0.000827595
-0.00237272
0.000907546
-0.00249189
0.000975797
-0.00257921
0.00103295
-0.00263959
0.00108019
-0.00267819
0.00111895
-0.00269986
0.00115077
-0.00270885
0.00117707
-0.0027087
0.00119914
-0.00270224
0.00121806
-0.00269161
0.00123471
-0.00267843
0.00124976
-0.00266384
0.00126376
-0.00264866
0.0012771
-0.00263344
0.00129006
-0.00261853
-0.00260407
0.00130286
1.55623e-05
-0.000122491
5.89531e-05
-0.00040403
0.000126513
-0.000711567
0.000213381
-0.0010302
0.000313571
-0.00134408
0.000420563
-0.00163857
0.000528098
-0.00190215
0.000630894
-0.00212757
0.000725093
-0.00231192
0.000808384
-0.00245601
0.000879869
-0.00256338
0.000939762
-0.0026391
0.000989042
-0.00268887
0.00102912
-0.00271826
0.00106155
-0.00273229
0.00108788
-0.00273517
0.00110948
-0.00273031
0.00112755
-0.0027203
0.00114305
-0.00270711
0.00115673
-0.00269211
0.00116919
-0.0026763
0.00118086
-0.00266033
0.00119207
-0.00264465
0.00120304
-0.0026295
-0.00261497
0.00121393
1.64715e-05
-0.000138962
6.16691e-05
-0.000449228
0.000131033
-0.000780931
0.000218837
-0.001118
0.000318397
-0.00144364
0.000422796
-0.00174297
0.000525737
-0.00200509
0.000622218
-0.00222405
0.000708875
-0.00239857
0.000783969
-0.00253111
0.000847144
-0.00262655
0.000899051
-0.00269101
0.000940969
-0.00273079
0.000974467
-0.00275176
0.00100116
-0.00275898
0.00102255
-0.00275657
0.00103995
-0.0027477
0.00105441
-0.00273477
0.00106679
-0.00271949
0.00107775
-0.00270307
0.00108777
-0.00268632
0.00109722
-0.00266978
0.00110635
-0.00265377
0.00111534
-0.00263849
-0.00262394
0.00112431
1.73137e-05
-0.000156276
6.4062e-05
-0.000495976
0.000134748
-0.000851617
0.000222795
-0.00120605
0.000320895
-0.00154174
0.000421853
-0.00184393
0.000519465
-0.00210271
0.000609118
-0.00231371
0.000687992
-0.00247745
0.000754924
-0.00259804
0.000810057
-0.00268169
0.000854415
-0.00273536
0.000889501
-0.00276587
0.000916985
-0.00277924
0.000938481
-0.00278048
0.000955421
-0.00277351
0.000969003
-0.00276128
0.000980181
-0.00274595
0.000989692
-0.002729
0.00099809
-0.00271146
0.00100578
-0.00269401
0.00101305
-0.00267705
0.00102012
-0.00266084
0.00102713
-0.0026455
-0.00263098
0.00103416
1.80743e-05
-0.00017435
6.60871e-05
-0.000543989
0.000137587
-0.000923116
0.000225178
-0.00129364
0.000321024
-0.00163759
0.000417782
-0.00194068
0.000509462
-0.00219439
0.00059192
-0.00239616
0.000662914
-0.00254844
0.000721835
-0.00265696
0.000769271
-0.00272912
0.000806546
-0.00277264
0.000835325
-0.00279465
0.000857315
-0.00280123
0.000874088
-0.00279725
0.000886983
-0.0027864
0.000897082
-0.00277138
0.000905224
-0.00275409
0.000912039
-0.00273582
0.00091799
-0.00271742
0.000923413
-0.00269943
0.000928546
-0.00268219
0.000933555
-0.00266585
0.00093855
-0.00265049
-0.00263603
0.000943606
1.87399e-05
-0.00019309
6.77053e-05
-0.000592955
0.00013949
-0.000994901
0.000225938
-0.00138009
0.000318792
-0.00173044
0.000410686
-0.00203258
0.000495958
-0.00227966
0.000570993
-0.0024712
0.000634131
-0.00261158
0.000685278
-0.00270811
0.000725407
-0.00276925
0.000756075
-0.00280331
0.000779042
-0.00281762
0.000796008
-0.0028182
0.000808469
-0.00280971
0.000817656
-0.00279559
0.000824533
-0.00277826
0.000829826
-0.00275938
0.00083407
-0.00274006