/*--------------------------------*- C++ -*----------------------------------*\
  =========                 |
  \\      /  F ield         | OpenFOAM: The Open Source CFD Toolbox
   \\    /   O peration     | Website:  https://openfoam.org
    \\  /    A nd           | Version:  6.0
     \\/     M anipulation  |
\*---------------------------------------------------------------------------*/
FoamFile
{
    version     2.0;
    format      ascii;
    class       volVectorField;
    location    "80";
    object      U;
}
// * * * * * * * * * * * * * * * * * * * * * * * * * * * * * * * * * * * * * //

dimensions      [0 1 -1 0 0 0 0];

internalField   nonuniform List<vector> 
12500
(
(-0.00116832 0.00567761 -1.3161e-21)
(-0.00570625 0.00190731 1.99596e-20)
(-0.0137665 -0.0120512 -2.92344e-20)
(-0.0234817 -0.0324292 1.35061e-20)
(-0.0339667 -0.0565079 7.68563e-22)
(-0.0447444 -0.0824444 -1.60589e-21)
(-0.0554418 -0.109054 -2.48972e-20)
(-0.0657692 -0.135617 1.36964e-20)
(-0.0755021 -0.161716 9.182e-21)
(-0.0844646 -0.187107 9.27406e-21)
(-0.0925224 -0.211625 -1.57793e-20)
(-0.0995796 -0.235129 9.16912e-21)
(-0.105577 -0.257476 -4.33251e-21)
(-0.110487 -0.278516 7.38494e-21)
(-0.114315 -0.2981 -1.87876e-20)
(-0.11709 -0.316097 2.69282e-20)
(-0.118861 -0.332409 -5.04181e-21)
(-0.119696 -0.346987 -1.91919e-20)
(-0.119669 -0.35984 9.9332e-21)
(-0.118866 -0.371045 -9.44128e-21)
(-0.117383 -0.380747 8.36623e-21)
(-0.115316 -0.389165 1.08685e-20)
(-0.112625 -0.396579 1.12557e-21)
(-0.109143 -0.40336 -3.12638e-20)
(-0.105812 -0.410028 1.75898e-20)
(-0.0015641 0.00821686 2.59922e-20)
(-0.00659806 0.00791333 -6.92607e-20)
(-0.0151815 -0.00373532 2.03753e-20)
(-0.0254035 -0.0225987 1.38062e-20)
(-0.0363842 -0.0457378 -1.10206e-20)
(-0.04766 -0.0711729 -6.33575e-20)
(-0.0588618 -0.0976313 1.88364e-20)
(-0.0697002 -0.124337 -3.60152e-20)
(-0.0799501 -0.150834 4.30623e-20)
(-0.0894346 -0.176843 -5.75695e-20)
(-0.0980181 -0.202168 3.06159e-20)
(-0.105603 -0.226638 1.02506e-20)
(-0.112125 -0.250076 -2.50918e-20)
(-0.117553 -0.2723 -1.08842e-20)
(-0.121884 -0.293128 8.12925e-20)
(-0.125139 -0.312398 -7.20581e-20)
(-0.127361 -0.329983 1.74408e-20)
(-0.128606 -0.345806 2.98659e-20)
(-0.128948 -0.359855 -6.32944e-21)
(-0.128465 -0.372188 4.73383e-20)
(-0.127256 -0.382939 8.7211e-21)
(-0.125412 -0.392317 -3.6683e-21)
(-0.122913 -0.400595 -6.00771e-20)
(-0.119658 -0.408138 5.46123e-20)
(-0.116457 -0.415485 -1.1237e-19)
(-0.00210502 0.0109389 8.4543e-20)
(-0.00776109 0.0143903 2.8868e-20)
(-0.0168342 0.00527103 -3.87821e-20)
(-0.0274416 -0.0119104 1.70384e-20)
(-0.0387431 -0.0339853 1.53258e-20)
(-0.0503069 -0.0588265 5.95149e-20)
(-0.0617807 -0.0850651 -7.63203e-20)
(-0.0728843 -0.111861 -1.30732e-20)
(-0.0833983 -0.138712 -5.18249e-20)
(-0.0931495 -0.165305 -4.3261e-20)
(-0.102004 -0.191414 5.50458e-20)
(-0.109863 -0.216836 -1.86906e-19)
(-0.11666 -0.241368 -6.45939e-21)
(-0.122358 -0.264797 -1.12977e-19)
(-0.126946 -0.286912 -1.33487e-20)
(-0.130435 -0.30752 1.56364e-20)
(-0.132856 -0.326464 -8.80821e-20)
(-0.134258 -0.343637 -5.50891e-20)
(-0.134705 -0.358998 -6.4593e-20)
(-0.134275 -0.37258 1.00723e-19)
(-0.13306 -0.384497 3.60992e-20)
(-0.131153 -0.39494 -1.64765e-19)
(-0.128559 -0.40417 -7.84753e-20)
(-0.12524 -0.412547 -8.7797e-20)
(-0.121865 -0.420613 2.52762e-19)
(-0.00279519 0.0137645 -1.7454e-21)
(-0.00919455 0.021167 -6.72884e-20)
(-0.0187017 0.014753 -3.41108e-20)
(-0.0295435 -0.000597519 2.15184e-20)
(-0.0409581 -0.021486 1.28824e-19)
(-0.0525659 -0.0456337 -5.76023e-20)
(-0.0640449 -0.0715689 1.25019e-19)
(-0.0751337 -0.0983819 1.20369e-19)
(-0.0856249 -0.125522 7.31229e-20)
(-0.0953532 -0.15264 -6.58224e-22)
(-0.104189 -0.17948 1.48729e-19)
(-0.112036 -0.205814 2.61998e-20)
(-0.118824 -0.231416 1.14406e-19)
(-0.124511 -0.256047 2.64557e-19)
(-0.129077 -0.279471 -3.07253e-19)
(-0.13252 -0.301466 4.63047e-19)
(-0.134862 -0.321845 1.00376e-19)
(-0.13614 -0.340466 -2.23752e-19)
(-0.136408 -0.357256 -3.07171e-20)
(-0.135739 -0.372212 7.96692e-20)
(-0.134222 -0.385418 -4.07332e-20)
(-0.131951 -0.397038 -2.4859e-20)
(-0.12896 -0.407313 -2.36049e-20)
(-0.125278 -0.416594 -9.40098e-20)
(-0.121429 -0.42541 3.51935e-19)
(-0.00362915 0.0166029 4.55817e-20)
(-0.0108815 0.028051 -2.17743e-19)
(-0.0207469 0.0244679 2.67297e-19)
(-0.0316483 0.0110772 -1.06456e-19)
(-0.0429428 -0.00850488 1.29816e-19)
(-0.0543237 -0.0318503 1.07779e-19)
(-0.0655139 -0.0573822 4.12282e-20)
(-0.0762799 -0.0841182 3.9641e-21)
(-0.0864326 -0.111456 2.33041e-19)
(-0.0958188 -0.139012 1.63316e-19)
(-0.104317 -0.166501 -6.33633e-20)
(-0.111832 -0.193678 -4.14116e-20)
(-0.118295 -0.220293 1.79533e-19)
(-0.123659 -0.246094 3.34982e-20)
(-0.127893 -0.270821 9.34786e-20)
(-0.130986 -0.294228 2.20174e-19)
(-0.132946 -0.316097 -1.87195e-19)
(-0.133798 -0.336252 1.49513e-19)
(-0.133587 -0.354577 -3.28391e-19)
(-0.132378 -0.371029 2.74793e-19)
(-0.130259 -0.385649 1.86466e-21)
(-0.127324 -0.398561 -2.19181e-19)
(-0.123641 -0.409977 8.63896e-20)
(-0.119306 -0.420225 1.96523e-19)
(-0.114711 -0.429807 -3.09388e-19)
(-0.00459157 0.0193574 2.39034e-19)
(-0.0127878 0.0348341 -2.64191e-19)
(-0.0229187 0.0341533 -4.10179e-20)
(-0.0336886 0.0228294 5.54863e-20)
(-0.0446131 0.00467108 -1.17696e-19)
(-0.055479 -0.0177543 -1.83571e-19)
(-0.0660677 -0.0427669 -1.55088e-19)
(-0.076183 -0.0693107 -3.75562e-20)
(-0.0856599 -0.0967321 -2.67685e-19)
(-0.0943614 -0.12461 2.20445e-19)
(-0.102176 -0.152639 -3.3727e-19)
(-0.109015 -0.180553 1.73718e-19)
(-0.11481 -0.208094 -5.40169e-20)
(-0.119509 -0.234995 1.32502e-19)
(-0.123076 -0.260983 -3.34926e-19)
(-0.125491 -0.285793 1.66661e-19)
(-0.126748 -0.309176 1.43027e-20)
(-0.12686 -0.330922 7.27223e-20)
(-0.125862 -0.35087 4.37101e-19)
(-0.123814 -0.368927 9.82725e-20)
(-0.1208 -0.385078 -8.03224e-21)
(-0.116919 -0.399395 2.7686e-20)
(-0.112272 -0.412042 1.79456e-19)
(-0.107023 -0.423314 5.21054e-20)
(-0.101464 -0.433663 1.78307e-19)
(-0.00565735 0.0219297 -1.48611e-19)
(-0.0148635 0.0413039 2.20031e-19)
(-0.0251545 0.0435386 1.45593e-20)
(-0.035594 0.0343634 -2.74435e-19)
(-0.0458922 0.0177405 5.86794e-19)
(-0.0559479 -0.00364064 -1.89504e-19)
(-0.0656142 -0.0280043 2.81693e-19)
(-0.0747404 -0.0542226 2.58238e-19)
(-0.0831914 -0.0815903 -2.1407e-19)
(-0.0908501 -0.109652 -3.15203e-19)
(-0.0976183 -0.138079 8.72872e-20)
(-0.103415 -0.166596 -9.32616e-20)
(-0.108177 -0.194938 -4.10141e-19)
(-0.111851 -0.222831 5.04843e-19)
(-0.114397 -0.249996 -2.42678e-19)
(-0.115787 -0.276153 -1.66258e-19)
(-0.116006 -0.301031 4.95804e-21)
(-0.115057 -0.324386 1.40377e-19)
(-0.112967 -0.346009 5.53222e-20)
(-0.109789 -0.365752 -2.18419e-19)
(-0.105607 -0.383532 2.53014e-19)
(-0.100524 -0.399353 -4.30361e-19)
(-0.0946763 -0.413313 2.64691e-19)
(-0.088295 -0.425654 -1.96793e-19)
(-0.0816152 -0.436752 5.96541e-20)
(-0.00679274 0.0242264 2.24405e-19)
(-0.0170445 0.0472533 -1.79461e-19)
(-0.0273824 0.0523555 -1.14583e-19)
(-0.037294 0.0453811 -2.05017e-19)
(-0.0467141 0.0303954 -3.7604e-19)
(-0.0556687 0.0101847 -2.792e-19)
(-0.0640942 -0.0133913 1.78204e-19)
(-0.0718934 -0.039137 -2.71361e-19)
(-0.0789661 -0.0662973 3.45667e-19)
(-0.085219 -0.0943825 -5.67407e-19)
(-0.0905699 -0.123045 2.54218e-19)
(-0.0949498 -0.152001 5.3903e-19)
(-0.0983009 -0.180982 -7.62514e-19)
(-0.100575 -0.209717 1.09978e-19)
(-0.101731 -0.237928 1.43874e-19)
(-0.101738 -0.265325 1.36507e-19)
(-0.100577 -0.291624 -1.46246e-19)
(-0.0982442 -0.31655 -3.4239e-20)
(-0.0947599 -0.33985 -1.11976e-19)
(-0.0901736 -0.361315 -8.91083e-20)
(-0.0845695 -0.380789 -4.95033e-19)
(-0.078061 -0.398188 -3.3283e-20)
(-0.0708129 -0.413526 5.83815e-21)
(-0.0631235 -0.42696 -2.18044e-19)
(-0.0552265 -0.438774 2.40148e-19)
(-0.00795715 0.0261644 8.14056e-21)
(-0.0192558 0.0524921 7.37127e-20)
(-0.0295252 0.0603504 7.87115e-20)
(-0.038722 0.0555941 4.34162e-20)
(-0.0470269 0.0423311 3.88109e-19)
(-0.0546054 0.0234124 3.70291e-19)
(-0.0614862 0.00076561 -3.01483e-19)
(-0.0676325 -0.0243534 -9.56971e-20)
(-0.0729841 -0.0511419 -8.3714e-20)
(-0.0774744 -0.0790773 4.33373e-19)
(-0.081041 -0.107794 1.59456e-19)
(-0.0836288 -0.136999 -2.28165e-19)
(-0.0851907 -0.16643 -1.96953e-19)
(-0.0856857 -0.19582 4.74704e-19)
(-0.0850787 -0.224895 -1.183e-19)
(-0.0833412 -0.253371 -1.44943e-19)
(-0.0804541 -0.280953 -1.99796e-19)
(-0.0764131 -0.307345 -1.56908e-19)
(-0.0712362 -0.332257 -1.99868e-19)
(-0.0649729 -0.35542 -1.27882e-19)
(-0.0577109 -0.376599 5.33091e-19)
(-0.0495746 -0.395612 -2.6365e-19)
(-0.0407555 -0.412364 1.76601e-19)
(-0.0316128 -0.426899 -4.61561e-19)
(-0.0224434 -0.43938 1.99736e-19)
(-0.0091057 0.0276758 -2.06662e-19)
(-0.0214157 0.0568564 -5.76705e-20)
(-0.0315034 0.0672956 -4.42043e-19)
(-0.0398175 0.0647343 -2.15803e-19)
(-0.0467956 0.0532559 -4.26032e-19)
(-0.0527496 0.0357387 -4.51478e-20)
(-0.0578077 0.0141573 2.32193e-19)
(-0.0619994 -0.0101816 -1.45391e-19)
(-0.0653085 -0.0364317 3.11402e-19)
(-0.067699 -0.0640384 -7.64629e-19)
(-0.0691304 -0.0926172 -2.40664e-20)
(-0.069565 -0.121871 1.37354e-19)
(-0.0689695 -0.151537 -1.75199e-19)
(-0.0673151 -0.181362 1.60478e-19)
(-0.0645769 -0.211081 -1.25842e-19)
(-0.0607349 -0.240419 -2.68837e-19)
(-0.055777 -0.269082 4.87509e-19)
(-0.049704 -0.296764 3.0151e-19)
(-0.0425378 -0.323145 -6.50964e-20)
(-0.034332 -0.347905 1.98064e-19)
(-0.0251819 -0.370733 -3.90833e-19)
(-0.0152253 -0.391341 5.54885e-19)
(-0.00467533 -0.409504 -7.5541e-19)
(0.00605609 -0.425121 1.53542e-19)
(0.0165417 -0.43821 -3.01314e-19)
(-0.0101922 0.0287125 1.18658e-20)
(-0.0234406 0.0602178 -1.99023e-19)
(-0.0332401 0.073 2.89964e-19)
(-0.0405293 0.0725651 6.0137e-19)
(-0.0460026 0.0629017 -1.18915e-20)
(-0.0501201 0.0468744 6.95171e-20)
(-0.053114 0.026481 -2.67228e-19)
(-0.0550845 0.00306602 1.22535e-19)
(-0.0560632 -0.0224854 8.76266e-19)
(-0.0560477 -0.0495884 -1.99119e-19)
(-0.0550223 -0.0778394 -2.40725e-19)
(-0.0529691 -0.106934 9.10282e-19)
(-0.0498719 -0.136613 3.03193e-19)
(-0.0457175 -0.166633 1.44221e-19)
(-0.0404958 -0.196745 1.50659e-19)
(-0.0342012 -0.226685 4.04831e-19)
(-0.0268346 -0.25617 -1.53145e-19)
(-0.0184087 -0.284893 4.16316e-19)
(-0.00895547 -0.31252 5.57185e-19)
(0.00146181 -0.338692 -4.6845e-19)
(0.0127362 -0.36303 6.9379e-19)
(0.0247132 -0.385144 2.44205e-19)
(0.0371626 -0.404666 -9.24171e-19)
(0.0496321 -0.421315 1.32958e-18)
(0.061498 -0.434941 -1.1272e-18)
(-0.0111725 0.0292489 -5.47209e-19)
(-0.0252499 0.0624904 3.04959e-19)
(-0.0346641 0.0773187 -2.07738e-19)
(-0.0408167 0.0788915 -1.96536e-19)
(-0.0446469 0.0710347 -2.18734e-19)
(-0.0467598 0.056556 -2.37999e-19)
(-0.0474926 0.0374502 6.35791e-20)
(-0.0470195 0.015085 6.3316e-19)
(-0.045423 -0.00962294 -1.32784e-19)
(-0.042737 -0.0360603 -3.58558e-19)
(-0.0389733 -0.0638042 -2.23528e-19)
(-0.0341359 -0.092541 -9.05505e-20)
(-0.0282279 -0.122013 2.80907e-19)
(-0.0212547 -0.151986 -1.75795e-19)
(-0.0132246 -0.182223 -5.77415e-19)
(-0.00415037 -0.212479 -6.40725e-19)
(0.00594835 -0.242486 2.57559e-19)
(0.0170411 -0.271946 -4.74541e-19)
(0.0290794 -0.300522 4.15041e-19)
(0.0419849 -0.327835 -1.16523e-18)
(0.0556339 -0.353457 8.87927e-19)
(0.0698513 -0.376908 -1.1639e-18)
(0.0843934 -0.397673 -1.59577e-20)
(0.0987823 -0.415268 -3.74999e-19)
(0.112139 -0.429348 1.17361e-18)
(-0.0120074 0.0292829 8.44386e-19)
(-0.0267711 0.0636343 1.29768e-19)
(-0.0357142 0.0801592 -8.6765e-20)
(-0.0406505 0.0835692 -3.52877e-20)
(-0.0427421 0.077465 6.8179e-19)
(-0.0427298 0.064556 2.26473e-19)
(-0.0410543 0.0468063 2.09076e-19)
(-0.037965 0.0255902 -1.66869e-19)
(-0.0335981 0.00184714 6.53335e-19)
(-0.0280262 -0.0237846 -3.21371e-19)
(-0.0212903 -0.0508624 2.07418e-19)
(-0.0134183 -0.0790616 5.43407e-19)
(-0.00443434 -0.108123 -3.07266e-19)
(0.00563607 -0.137815 3.40328e-19)
(0.0167639 -0.167918 3.23371e-19)
(0.0289149 -0.198198 1.09668e-19)
(0.042047 -0.228407 -2.69582e-19)
(0.056107 -0.258262 7.54594e-19)
(0.0710245 -0.287438 -6.81448e-20)
(0.0867006 -0.315552 -7.36317e-20)
(0.10299 -0.342148 8.91491e-19)
(0.119692 -0.366681 -6.22432e-19)
(0.136551 -0.388502 1.0457e-18)
(0.153079 -0.406906 -8.48533e-19)
(0.168095 -0.421338 1.14985e-18)
(-0.0126656 0.0288356 -4.14666e-19)
(-0.0279445 0.0636577 9.73115e-20)
(-0.0363408 0.0814859 -1.02168e-19)
(-0.0400124 0.0865109 -4.74797e-19)
(-0.0403115 0.0820556 2.75679e-20)
(-0.0381014 0.0706932 2.79317e-19)
(-0.0339209 0.0543298 -1.13792e-18)
(-0.0280945 0.0343288 8.60324e-19)
(-0.0208132 0.0116418 -8.4354e-19)
(-0.0121905 -0.0130727 -5.36526e-19)
(-0.0022985 -0.0393532 4.89396e-19)
(0.00880994 -0.0668622 -1.07026e-18)
(0.0210886 -0.0953346 9.09341e-19)
(0.0344908 -0.124542 -2.88438e-19)
(0.048966 -0.154269 -8.33198e-19)
(0.0644565 -0.184298 2.05613e-19)
(0.0808954 -0.214395 -1.92186e-19)
(0.0982032 -0.244297 7.09981e-20)
(0.116283 -0.273696 -2.61506e-19)
(0.135011 -0.302221 -8.63571e-19)
(0.154214 -0.329414 1.94457e-19)
(0.173663 -0.354695 3.8669e-21)
(0.193086 -0.377307 -8.61664e-19)
(0.212004 -0.396327 6.07932e-19)
(0.228903 -0.41098 -5.34787e-19)
(-0.0131259 0.0279491 1.69559e-19)
(-0.028726 0.0626139 3.25662e-19)
(-0.0365089 0.0813205 4.5554e-19)
(-0.0388933 0.0876899 2.38311e-19)
(-0.0373832 0.0847287 -2.34237e-19)
(-0.0329457 0.0748414 5.64584e-19)
(-0.0262102 0.0598514 4.2359e-19)
(-0.0175734 0.0410928 -1.51045e-19)
(-0.00728153 0.0195181 5.61656e-19)
(0.00450996 -0.00420041 -5.81074e-19)
(0.0176966 -0.0295846 -1.71202e-19)
(0.0321993 -0.0562835 1.75334e-19)
(0.0479494 -0.084023 3.56344e-19)
(0.0648786 -0.112572 3.15528e-21)
(0.0829139 -0.141718 2.29428e-19)
(0.101974 -0.17125 4.20748e-19)
(0.121964 -0.200947 -7.17956e-19)
(0.142777 -0.230562 8.93691e-19)
(0.164285 -0.259809 3.01238e-19)
(0.186333 -0.288339 1.0163e-19)
(0.20872 -0.315711 -1.07142e-18)
(0.231178 -0.341343 1.55315e-19)
(0.253417 -0.36441 2.31328e-19)
(0.274982 -0.383788 -4.93841e-20)
(0.294018 -0.398487 2.60908e-19)
(-0.0133782 0.0266825 1.53972e-20)
(-0.0290897 0.0605973 -8.4029e-19)
(-0.0361974 0.0797393 -1.82353e-20)
(-0.0372912 0.087141 -2.14404e-19)
(-0.033983 0.0854696 -1.42553e-18)
(-0.027323 0.0769367 1.24363e-18)
(-0.0180198 0.0632612 -8.92896e-19)
(-0.00653769 0.0457309 -4.32899e-20)
(0.00682305 0.0252872 -4.3256e-19)
(0.0218648 0.0026087 7.5633e-19)
(0.03845 -0.0218138 -8.21793e-19)
(0.0564729 -0.0476157 -3.89174e-19)
(0.0758413 -0.0745127 1.02264e-20)
(0.0964648 -0.102267 -8.57922e-19)
(0.118247 -0.130663 1.1756e-18)
(0.141081 -0.159492 -1.36761e-18)
(0.164845 -0.188539 2.89973e-21)
(0.189397 -0.217568 2.11492e-19)
(0.214576 -0.246313 -5.22824e-19)
(0.240192 -0.27445 5.01816e-19)
(0.266008 -0.301569 -7.15896e-19)
(0.291715 -0.327115 -4.62809e-19)
(0.316997 -0.350241 8.52148e-19)
(0.341438 -0.369658 -9.18453e-19)
(0.362864 -0.384176 -1.57941e-20)
(-0.0134239 0.0251075 -6.91977e-19)
(-0.0290282 0.0577349 8.20441e-19)
(-0.0353992 0.0768663 -2.53582e-19)
(-0.0352074 0.0849568 4.93967e-19)
(-0.0301277 0.084327 5.36762e-19)
(-0.0212706 0.0769807 -4.76667e-19)
(-0.00941032 0.0645156 -3.23787e-19)
(0.00492802 0.0481584 -3.89562e-19)
(0.0213933 0.0288272 3.58064e-19)
(0.0397466 0.00719849 -2.30075e-20)
(0.0598171 -0.0162285 5.34074e-19)
(0.0814716 -0.0410777 5.31809e-19)
(0.104593 -0.0670533 -6.42731e-19)
(0.129069 -0.0939079 1.2712e-18)
(0.154776 -0.12142 -8.47683e-19)
(0.181578 -0.149376 -1.47738e-19)
(0.209322 -0.17756 1.66379e-18)
(0.23783 -0.205745 -7.72113e-19)
(0.266898 -0.233673 4.87944e-19)
(0.296296 -0.261048 9.4789e-19)
(0.325745 -0.287495 -6.15025e-19)
(0.354893 -0.312507 6.63326e-20)
(0.383386 -0.33526 -3.85065e-20)
(0.41086 -0.354343 -2.35869e-19)
(0.434878 -0.368393 4.63089e-19)
(-0.013275 0.0233032 1.59764e-19)
(-0.0285512 0.0541772 -5.24567e-19)
(-0.034118 0.072865 2.89759e-19)
(-0.0326419 0.0812815 -2.92785e-21)
(-0.0258178 0.0814102 2.20172e-19)
(-0.0147923 0.0750418 -3.83151e-19)
(-0.0003906 0.0636419 2.20456e-19)
(0.0168103 0.0483639 6.06927e-19)
(0.0364132 0.0300921 -1.988e-20)
(0.0581397 0.00949272 -3.19101e-19)
(0.0817863 -0.0129322 3.24077e-19)
(0.107191 -0.0367977 -5.88908e-21)
(0.134211 -0.061797 -1.04196e-18)
(0.162705 -0.0876714 3.88043e-19)
(0.192521 -0.114189 8.64278e-20)
(0.22349 -0.141129 -1.53157e-19)
(0.255417 -0.16827 -2.72242e-19)
(0.288079 -0.195382 1.04769e-18)
(0.321225 -0.222218 2.52752e-19)
(0.354574 -0.248495 -5.44296e-19)
(0.387799 -0.273879 -6.30978e-20)
(0.420498 -0.29792 7.2949e-19)
(0.452272 -0.319853 -3.42576e-19)
(0.482819 -0.338197 1.40228e-19)
(0.509533 -0.351442 9.7817e-20)
(-0.0129524 0.0213498 -3.2044e-19)
(-0.0276828 0.0500872 3.28021e-19)
(-0.032365 0.0679259 -1.86383e-19)
(-0.0295887 0.0763009 -6.03029e-19)
(-0.0210296 0.0768821 -5.59007e-19)
(-0.00784812 0.0712515 -2.52001e-19)
(0.00909554 0.060738 -2.09511e-19)
(0.029183 0.0464135 -6.25656e-19)
(0.0519766 0.0291194 -2.55495e-19)
(0.0771616 0.00950441 2.3451e-19)
(0.104502 -0.0119324 -3.37709e-19)
(0.133805 -0.0348001 -3.59922e-19)
(0.164897 -0.0587819 -3.41355e-19)
(0.197603 -0.0836078 6.26587e-19)
(0.231734 -0.109034 -1.31939e-18)
(0.267076 -0.134828 7.57225e-19)
(0.303383 -0.16076 -1.29726e-18)
(0.340378 -0.186595 -1.99184e-19)
(0.377747 -0.212086 -7.08963e-19)
(0.41515 -0.236965 -1.62474e-19)
(0.452204 -0.260929 -2.00088e-19)
(0.488452 -0.28359 -6.56917e-19)
(0.523446 -0.304267 -6.47483e-20)
(0.556947 -0.321461 3.87241e-19)
(0.586309 -0.333529 -1.00416e-18)
(-0.0124835 0.0193241 2.76447e-19)
(-0.0264565 0.0456297 3.73996e-19)
(-0.0301533 0.0622544 1.31266e-18)
(-0.0260293 0.0702306 -2.32886e-19)
(-0.0157093 0.07095 5.56066e-19)
(-0.000346958 0.0657985 1.33748e-18)
(0.0191782 0.0559698 -3.6693e-19)
(0.0422171 0.0424506 5.0176e-19)
(0.0682982 0.0260328 2.95283e-19)
(0.097073 0.0073412 5.41049e-19)
(0.128272 -0.0131326 -1.09884e-19)
(0.161667 -0.0349954 7.4115e-20)
(0.197047 -0.0579222 -1.97644e-19)
(0.234194 -0.0816316 1.0601e-18)
(0.272867 -0.105867 1.35882e-19)
(0.312794 -0.130385 9.93177e-19)
(0.353664 -0.154945 -2.53854e-19)
(0.395128 -0.179304 9.09361e-19)
(0.436799 -0.203215 1.25037e-19)
(0.478263 -0.226421 4.55408e-19)
(0.519073 -0.248644 -1.92394e-19)
(0.558721 -0.269556 -2.56739e-20)
(0.596704 -0.288577 1.05323e-18)
(0.632842 -0.304231 6.26637e-19)
(0.664609 -0.314747 -2.62731e-19)
(-0.0118987 0.0172946 -6.6914e-19)
(-0.0249094 0.0409606 -7.00565e-19)
(-0.0274913 0.0560578 -7.36437e-19)
(-0.0219272 0.0633031 2.71965e-19)
(-0.00976722 0.0638535 -5.50196e-19)
(0.00785868 0.0589185 -8.26941e-20)
(0.0300656 0.0495643 -2.19374e-19)
(0.0561837 0.0366916 -9.21036e-19)
(0.0857135 0.0210401 -1.47015e-19)
(0.118274 0.00320598 2.40472e-19)
(0.153557 -0.0163309 -7.6253e-19)
(0.191295 -0.037178 1.06356e-18)
(0.231224 -0.0590043 -1.45506e-18)
(0.273069 -0.0815188 3.52693e-19)
(0.31652 -0.104454 -8.99737e-19)
(0.361228 -0.127554 -7.32583e-19)
(0.406798 -0.15057 -4.1398e-20)
(0.45279 -0.173254 -1.09033e-19)
(0.498733 -0.195359 8.87183e-20)
(0.544129 -0.216638 -4.12602e-19)
(0.588464 -0.236837 -2.82119e-19)
(0.631179 -0.255683 3.41581e-19)
(0.671722 -0.272706 -9.39087e-19)
(0.709964 -0.286491 3.0159e-19)
(0.743664 -0.295108 1.98755e-19)
(-0.0112278 0.0153176 -1.1849e-19)
(-0.0230755 0.0362184 -2.03323e-19)
(-0.0243764 0.049533 7.9659e-19)
(-0.0172221 0.0557538 2.98062e-19)
(-0.00307409 0.0558508 3.97773e-19)
(0.0169736 0.0508822 -5.34893e-19)
(0.0420416 0.0417982 6.6324e-22)
(0.0714476 0.0294177 -4.41474e-19)
(0.104667 0.0144271 8.20302e-19)
(0.141283 -0.00260835 2.71371e-19)
(0.180945 -0.0212237 3.09162e-19)
(0.223327 -0.0410302 -1.22468e-18)
(0.2681 -0.0616937 1.52336e-18)
(0.314908 -0.0829158 -4.57887e-19)
(0.363351 -0.104421 -3.28843e-19)
(0.412979 -0.125946 9.90725e-19)
(0.463292 -0.147236 4.41461e-19)
(0.513748 -0.168042 -1.11694e-18)
(0.563776 -0.188125 -4.59555e-19)
(0.612793 -0.20725 1.3925e-18)
(0.660221 -0.225189 -1.04944e-18)
(0.705464 -0.241723 6.29945e-19)
(0.747936 -0.256489 3.40552e-19)
(0.787549 -0.26817 -4.38427e-19)
(0.82249 -0.274601 -4.03745e-19)
(-0.0104964 0.0134353 -4.36403e-19)
(-0.0209788 0.031517 7.03635e-19)
(-0.0207879 0.0428568 3.00971e-19)
(-0.0118258 0.047809 -4.37137e-19)
(0.00453956 0.0472058 -7.00222e-20)
(0.0272561 0.0419816 -4.64132e-19)
(0.0554569 0.0329857 -1.86377e-19)
(0.0884504 0.020962 2.11901e-19)
(0.125685 0.00654544 -5.22474e-20)
(0.166703 -0.00973067 4.06606e-19)
(0.211093 -0.0274185 -3.55569e-19)
(0.258456 -0.0461364 9.90394e-19)
(0.308372 -0.0655505 -1.23593e-18)
(0.360377 -0.0853597 7.74189e-19)
(0.413957 -0.105285 9.65453e-19)
(0.468536 -0.125062 -1.39696e-18)
(0.523493 -0.144438 -4.21653e-19)
(0.578168 -0.163172 7.14736e-19)
(0.63189 -0.181035 -4.36478e-19)
(0.683996 -0.197814 4.16804e-19)
(0.733854 -0.213315 -1.00504e-18)
(0.780852 -0.227367 1.71045e-19)
(0.824408 -0.239723 6.38131e-19)
(0.864492 -0.249153 -1.01325e-18)
(0.899796 -0.253173 2.81963e-19)
(-0.00972263 0.0116738 -4.02686e-19)
(-0.0186273 0.0269421 1.30988e-18)
(-0.0166824 0.0361777 2.52261e-19)
(-0.00561967 0.039675 -6.86964e-19)
(0.0132809 0.0381745 4.95448e-19)
(0.0390092 0.0325149 2.54384e-19)
(0.0707114 0.0234619 4.08747e-19)
(0.107684 0.0116929 -2.49084e-20)
(0.149341 -0.00220489 -4.24402e-20)
(0.195165 -0.01773 -9.18617e-20)
(0.244669 -0.0344539 -4.02442e-19)
(0.29735 -0.0520057 -1.46836e-20)
(0.352667 -0.070057 9.47401e-19)
(0.410024 -0.0883108 -1.56099e-18)
(0.468759 -0.106492 1.11381e-18)
(0.528157 -0.124345 2.27577e-19)
(0.58746 -0.141626 4.01231e-19)
(0.645892 -0.158112 -2.00539e-19)
(0.702688 -0.173596 1.80038e-18)
(0.75712 -0.187891 -1.10564e-18)
(0.808524 -0.200835 8.75515e-19)
(0.856287 -0.212314 2.00354e-19)
(0.899868 -0.222158 -6.26955e-19)
(0.939325 -0.229168 5.27503e-19)
(0.973717 -0.230715 7.91245e-19)
(-0.00891427 0.010044 -1.16365e-19)
(-0.0160086 0.0225491 -4.61535e-19)
(-0.0119903 0.0296119 -7.92575e-19)
(0.00154416 0.0315303 -4.53823e-19)
(0.0233884 0.028994 -6.35567e-20)
(0.0525667 0.0227733 -1.8107e-19)
(0.0882309 0.0135669 -8.49562e-19)
(0.129655 0.00199593 1.41739e-19)
(0.176201 -0.0113961 -9.70327e-19)
(0.227272 -0.0261391 -7.66298e-20)
(0.28227 -0.0418266 -9.43098e-19)
(0.340559 -0.0581033 -3.37355e-19)
(0.401445 -0.0746538 1.94775e-19)
(0.464166 -0.091194 -9.27688e-19)
(0.527896 -0.107464 8.76257e-21)
(0.591764 -0.123227 -8.00138e-19)
(0.654878 -0.138264 3.08684e-19)
(0.716362 -0.152377 -1.10752e-18)
(0.775385 -0.165391 -1.86077e-19)
(0.831196 -0.17715 -1.88559e-20)
(0.883141 -0.187523 -1.80416e-19)
(0.930647 -0.196426 -1.8259e-19)
(0.973256 -0.203667 -9.01667e-20)
(1.01098 -0.208068 -3.53264e-19)
(1.0423 -0.208081 -7.46749e-19)
(-0.00806708 0.00854279 2.14643e-19)
(-0.0130866 0.0183647 5.83605e-19)
(-0.00661509 0.0232415 7.04868e-19)
(0.00983947 0.0235206 -5.66357e-19)
(0.0351215 0.0198742 1.05944e-18)
(0.0682738 0.0130283 -5.78158e-19)
(0.108438 0.00363048 3.1642e-19)
(0.154845 -0.00774551 4.98426e-19)
(0.206779 -0.0205956 4.56463e-19)
(0.263529 -0.0344814 2.24053e-19)
(0.32435 -0.0490223 3.62918e-19)
(0.388438 -0.0638859 2.1297e-19)
(0.45491 -0.0787793 1.44015e-18)
(0.522815 -0.093443 -1.0464e-18)
(0.591148 -0.107646 1.19829e-18)
(0.658884 -0.121184 -4.92912e-19)
(0.725015 -0.133876 1.06675e-18)
(0.788593 -0.145567 -5.12284e-20)
(0.848771 -0.156123 -2.19716e-19)
(0.904832 -0.165431 -3.10086e-20)
(0.956216 -0.173396 7.96059e-19)
(1.00253 -0.179925 -7.45389e-19)
(1.04365 -0.184726 5.35577e-19)
(1.07955 -0.187128 5.56786e-19)
(1.10577 -0.189655 1.01825e-19)
(-0.00716414 0.00715547 1.48245e-19)
(-0.00980169 0.0143904 -8.31788e-19)
(-0.000435962 0.0171167 -3.04072e-19)
(0.019459 0.0157581 2.80719e-19)
(0.0487475 0.0109932 -8.66536e-19)
(0.0864667 0.0035236 -1.71585e-19)
(0.131722 -0.0060411 1.2032e-19)
(0.183671 -0.0171669 4.80212e-19)
(0.24148 -0.0293866 -1.219e-18)
(0.304286 -0.0422958 9.38631e-20)
(0.371158 -0.0555457 -3.60728e-19)
(0.44108 -0.0688359 -1.10131e-18)
(0.512957 -0.081908 7.51157e-19)
(0.585631 -0.0945408 3.45762e-20)
(0.65792 -0.106546 -2.48776e-20)
(0.728662 -0.117767 7.57394e-19)
(0.796766 -0.128075 -1.3263e-18)
(0.861257 -0.137368 1.0434e-18)
(0.921318 -0.14557 -1.9788e-19)
(0.976318 -0.152625 5.73741e-19)
(1.02583 -0.158502 -9.54187e-19)
(1.06963 -0.163176 5.24627e-19)
(1.10777 -0.166529 -9.06468e-19)
(1.14045 -0.168407 8.91631e-19)
(1.16431 -0.171233 -3.06389e-19)
(-0.00617653 0.00585926 9.86986e-19)
(-0.00607246 0.0106087 -1.6544e-19)
(0.00668797 0.0112613 1.23574e-18)
(0.0306056 0.00832396 5.76246e-19)
(0.0645274 0.0024969 4.75438e-20)
(0.107452 -0.00552921 2.54665e-19)
(0.158411 -0.0151728 6.21138e-20)
(0.216446 -0.025935 1.05278e-18)
(0.280564 -0.0373858 3.41839e-19)
(0.3497 -0.0491591 -4.62906e-20)
(0.422693 -0.0609466 9.31276e-20)
(0.498288 -0.0724917 3.58279e-19)
(0.575156 -0.0835839 2.99123e-19)
(0.651934 -0.0940545 6.39227e-19)
(0.727282 -0.103772 -7.32169e-19)
(0.79994 -0.112639 2.17272e-19)
(0.868782 -0.120586 7.1914e-20)
(0.932866 -0.12757 3.19104e-19)
(0.991464 -0.133573 8.37382e-19)
(1.04408 -0.138592 -5.5959e-19)
(1.09046 -0.142646 3.6111e-20)
(1.13056 -0.145764 -7.2145e-19)
(1.16458 -0.147927 6.58222e-19)
(1.1928 -0.149121 -5.97491e-19)
(1.21285 -0.151208 8.44104e-20)
(-0.00506509 0.00462733 -8.21694e-19)
(-0.00179975 0.0069903 6.51549e-19)
(0.014911 0.00567953 -1.06645e-18)
(0.043483 0.00127471 9.23642e-20)
(0.0827021 -0.00549801 7.60754e-19)
(0.131486 -0.0139505 -1.2751e-18)
(0.188747 -0.0235245 1.01916e-18)
(0.253359 -0.0337553 -1.62677e-18)
(0.324117 -0.044254 3.25443e-19)
(0.399707 -0.0547006 7.03709e-20)
(0.4787 -0.0648388 5.54562e-19)
(0.559578 -0.0744691 -1.84967e-18)
(0.640778 -0.0834438 3.21629e-19)
(0.720754 -0.09166 3.38602e-19)
(0.798049 -0.0990536 -2.01009e-19)
(0.871361 -0.105593 -1.2365e-18)
(0.939599 -0.111272 5.87679e-19)
(1.00192 -0.116106 1.06576e-18)
(1.05776 -0.120123 -1.10274e-18)
(1.10681 -0.123363 7.87265e-19)
(1.14901 -0.125876 -9.82286e-19)
(1.18454 -0.127717 7.05444e-19)
(1.21376 -0.128898 -1.76679e-19)
(1.2371 -0.129429 1.00864e-18)
(1.25301 -0.130805 -1.12047e-18)
(-0.003783 0.0034326 1.16553e-19)
(0.00312805 0.00350184 9.60745e-20)
(0.0243934 0.000365754 2.3477e-19)
(0.0582856 -0.00534948 8.47785e-19)
(0.10348 -0.0128962 -2.7354e-20)
(0.158764 -0.0215873 1.91308e-19)
(0.222874 -0.0308884 8.61151e-19)
(0.294458 -0.040373 3.49827e-19)
(0.372045 -0.0497009 -1.16405e-19)
(0.454025 -0.0586101 9.91373e-19)
(0.538675 -0.06691 -1.13256e-18)
(0.624209 -0.0744737 1.74196e-18)
(0.708849 -0.0812295 -6.91984e-19)
(0.79091 -0.0871514 1.24856e-18)
(0.868882 -0.0922494 -4.23045e-19)
(0.941497 -0.0965596 1.5284e-19)
(1.00778 -0.100135 1.83939e-19)
(1.06706 -0.103038 -3.39797e-19)
(1.11898 -0.105332 2.89024e-19)
(1.16349 -0.107084 1.83361e-19)
(1.20076 -0.108353 2.42107e-19)
(1.23118 -0.109195 4.85387e-19)
(1.25529 -0.109624 -5.43686e-20)
(1.27368 -0.109657 -2.17642e-19)
(1.28545 -0.110502 5.89859e-19)
(-0.00227868 0.00225134 -6.81294e-19)
(0.00882906 0.000113573 7.45453e-20)
(0.0352941 -0.00468631 -1.35277e-18)
(0.0751902 -0.0115144 -3.24744e-19)
(0.12703 -0.0196144 -6.14258e-19)
(0.189409 -0.0283053 -1.31904e-19)
(0.260828 -0.037083 -6.66545e-19)
(0.339648 -0.0455688 -4.01733e-19)
(0.424076 -0.0534837 5.33184e-19)
(0.512171 -0.0606388 -8.94644e-19)
(0.601905 -0.0669253 -2.49606e-19)
(0.69124 -0.0723034 9.23076e-21)
(0.778227 -0.0767891 -1.68208e-18)
(0.86111 -0.08044 7.13487e-19)
(0.938408 -0.0833409 -1.03319e-18)
(1.00897 -0.0855907 -2.97685e-20)
(1.07202 -0.0872906 1.93771e-19)
(1.12713 -0.0885363 -3.2352e-19)
(1.17423 -0.0894119 -2.79218e-19)
(1.2135 -0.0899872 1.28207e-19)
(1.24538 -0.0903181 1.37941e-19)
(1.27047 -0.0904453 -9.05238e-19)
(1.28949 -0.0903638 5.12192e-19)
(1.30313 -0.0900907 2.34954e-19)
(1.31096 -0.0906349 4.16722e-20)
(-0.000498765 0.00106593 6.94073e-19)
(0.015422 -0.00319392 -7.66891e-19)
(0.0477634 -0.00947433 1.08601e-18)
(0.0943488 -0.0171814 1.72355e-19)
(0.15347 -0.0255706 -5.27345e-20)
(0.223468 -0.0339789 -3.71944e-19)
(0.302539 -0.0419452 5.65016e-20)
(0.388696 -0.0491535 5.74768e-19)
(0.479776 -0.0554035 -7.97114e-19)
(0.573491 -0.0605972 8.41038e-19)
(0.667514 -0.0647244 -8.9452e-20)
(0.759596 -0.0678453 4.35706e-20)
(0.847689 -0.070071 1.09207e-18)
(0.930051 -0.0715431 1.45111e-18)
(1.00532 -0.0724151 -5.71089e-19)
(1.07257 -0.0728368 9.87e-19)
(1.13128 -0.072942 4.83534e-19)
(1.18133 -0.0728418 -3.03918e-19)
(1.22294 -0.0726212 9.18971e-19)
(1.25658 -0.0723389 -5.09049e-20)
(1.28291 -0.0720312 -8.51376e-19)
(1.30273 -0.071713 8.70401e-19)
(1.31689 -0.0713549 1.0887e-19)
(1.32618 -0.0709707 -5.06712e-19)
(1.33049 -0.0714128 1.6327e-19)
(0.0016093 -0.000133176 -9.61123e-19)
(0.0230211 -0.00642465 1.04434e-18)
(0.0619375 -0.0139798 -6.66752e-19)
(0.115883 -0.0222986 -2.07928e-19)
(0.182867 -0.0306749 -4.73817e-19)
(0.26091 -0.0384823 8.44309e-19)
(0.347832 -0.0453221 -4.9233e-19)
(0.441242 -0.0509618 -2.27013e-19)
(0.538577 -0.0553007 -6.51534e-19)
(0.637198 -0.0583516 1.77997e-20)
(0.734516 -0.0602182 -2.57558e-19)
(0.828139 -0.0610697 1.225e-19)
(0.916011 -0.0611131 -1.30723e-18)
(0.996507 -0.0605672 3.74158e-19)
(1.06849 -0.0596412 -4.4306e-19)
(1.13132 -0.0585177 -3.48289e-19)
(1.1848 -0.0573436 1.05088e-19)
(1.22916 -0.0562256 -4.95401e-19)
(1.26492 -0.0552318 -1.98637e-19)
(1.2928 -0.0543956 5.94528e-19)
(1.3137 -0.0537236 2.35871e-19)
(1.32853 -0.0531988 -1.01347e-18)
(1.33825 -0.0527644 7.24174e-19)
(1.34369 -0.052429 -1.35101e-19)
(1.34496 -0.0529205 -2.69602e-19)
(0.00409522 -0.00134648 -3.46858e-19)
(0.0317313 -0.00956401 -1.92604e-19)
(0.0779324 -0.0181627 -3.76841e-20)
(0.139879 -0.0267939 2.89875e-19)
(0.215235 -0.0348225 3.16157e-19)
(0.301626 -0.0416837 2.76081e-19)
(0.396434 -0.047067 3.47277e-19)
(0.496817 -0.050849 5.31954e-19)
(0.599799 -0.0530529 8.17346e-19)
(0.702413 -0.0538212 8.08914e-19)
(0.801872 -0.0533835 4.27089e-19)
(0.895737 -0.0520203 -1.16489e-19)
(0.982048 -0.0500279 2.84528e-20)
(1.0594 -0.0476879 -3.11966e-20)
(1.12698 -0.0452451 3.35941e-19)
(1.1845 -0.0428931 -7.90178e-20)
(1.23214 -0.0407699 9.49787e-19)
(1.27046 -0.0389588 -4.33204e-19)
(1.30027 -0.037496 1.9493e-21)
(1.32254 -0.0363793 2.74605e-19)
(1.33829 -0.0355793 -6.10948e-19)
(1.34858 -0.0350455 9.79532e-19)
(1.35438 -0.0346948 -7.84362e-19)
(1.35654 -0.0345308 1.33813e-19)
(1.3553 -0.0351732 -4.88729e-19)
(0.0070044 -0.00256532 7.43171e-19)
(0.0416447 -0.0125774 5.20988e-19)