/*--------------------------------*- C++ -*----------------------------------*\
  =========                 |
  \\      /  F ield         | OpenFOAM: The Open Source CFD Toolbox
   \\    /   O peration     | Website:  https://openfoam.org
    \\  /    A nd           | Version:  6.0
     \\/     M anipulation  |
\*---------------------------------------------------------------------------*/
FoamFile
{
    version     2.0;
    format      ascii;
    class       volScalarField;
    location    "5.1";
    object      p;
}
// * * * * * * * * * * * * * * * * * * * * * * * * * * * * * * * * * * * * * //

dimensions      [0 2 -2 0 0 0 0];

internalField   nonuniform List<scalar> 
8000
(
-0.342389
-0.346283
-0.348656
-0.35045
-0.352214
-0.354054
-0.356019
-0.358126
-0.360362
-0.362698
-0.365097
-0.367521
-0.369932
-0.372294
-0.374574
-0.376746
-0.378773
-0.380588
-0.382213
-0.384081
-0.343244
-0.347008
-0.349317
-0.351076
-0.352818
-0.354643
-0.3566
-0.358703
-0.36094
-0.363281
-0.365688
-0.368123
-0.370547
-0.372924
-0.375221
-0.37741
-0.379456
-0.381289
-0.382926
-0.384805
-0.344914
-0.348424
-0.350606
-0.352298
-0.353993
-0.355788
-0.357726
-0.359821
-0.362057
-0.364404
-0.366824
-0.369278
-0.371725
-0.374128
-0.376454
-0.378675
-0.380755
-0.382622
-0.384282
-0.386182
-0.347301
-0.350448
-0.352447
-0.354038
-0.355662
-0.357407
-0.359312
-0.361388
-0.363616
-0.365965
-0.368396
-0.370867
-0.37334
-0.375774
-0.378135
-0.380395
-0.382517
-0.384427
-0.386118
-0.388048
-0.350269
-0.352967
-0.354733
-0.35619
-0.357715
-0.359388
-0.361241
-0.36328
-0.365485
-0.367823
-0.370253
-0.372734
-0.375223
-0.377682
-0.380074
-0.38237
-0.384534
-0.386489
-0.388214
-0.390181
-0.353661
-0.355848
-0.357341
-0.358632
-0.36003
-0.361602
-0.363376
-0.365353
-0.367511
-0.369815
-0.372223
-0.374693
-0.377182
-0.379649
-0.382057
-0.384376
-0.386572
-0.388566
-0.390322
-0.392331
-0.357309
-0.358951
-0.360142
-0.361239
-0.362478
-0.363918
-0.36558
-0.367462
-0.369539
-0.371776
-0.374131
-0.376559
-0.379018
-0.381465
-0.383864
-0.386184
-0.388392
-0.390409
-0.392188
-0.394244
-0.361049
-0.362143
-0.363015
-0.363893
-0.364942
-0.366213
-0.367725
-0.369471
-0.371426
-0.373555
-0.375815
-0.378162
-0.380552
-0.382944
-0.385299
-0.387588
-0.389781
-0.391799
-0.393586
-0.395691
-0.364736
-0.365308
-0.365856
-0.366494
-0.367323
-0.368389
-0.369706
-0.371271
-0.373057
-0.37503
-0.377147
-0.379366
-0.381643
-0.383936
-0.386207
-0.388428
-0.390571
-0.392562
-0.394336
-0.396494
-0.368252
-0.368352
-0.368586
-0.368968
-0.36955
-0.370372
-0.371452
-0.372787
-0.374353
-0.376119
-0.378044
-0.380086
-0.382201
-0.384349
-0.386492
-0.388603
-0.390659
-0.392587
-0.394322
-0.39653
-0.371514
-0.371212
-0.371152
-0.37127
-0.37158
-0.372124
-0.372926
-0.373984
-0.375283
-0.376792
-0.378476
-0.380293
-0.3822
-0.384158
-0.386128
-0.388086
-0.390011
-0.391835
-0.393492
-0.395739
-0.374477
-0.373858
-0.373531
-0.373383
-0.373404
-0.373642
-0.374128
-0.374869
-0.375857
-0.377068
-0.378468
-0.380018
-0.381678
-0.383405
-0.385163
-0.386924
-0.388671
-0.390338
-0.391855
-0.394104
-0.377137
-0.37629
-0.375729
-0.375318
-0.375038
-0.374948
-0.375091
-0.375485
-0.37613
-0.377009
-0.378094
-0.379348
-0.38073
-0.382196
-0.383705
-0.385228
-0.386745
-0.388185
-0.389466
-0.391626
-0.379525
-0.378536
-0.377776
-0.377109
-0.376523
-0.376093
-0.375876
-0.375903
-0.376185
-0.376714
-0.377467
-0.378409
-0.379496
-0.380681
-0.381915
-0.383159
-0.384387
-0.38551
-0.386408
-0.388303
-0.38171
-0.380653
-0.379723
-0.378808
-0.377918
-0.377145
-0.376563
-0.376217
-0.376132
-0.376307
-0.376725
-0.377351
-0.37814
-0.379035
-0.379974
-0.3809
-0.381769
-0.382463
-0.382778
-0.384123
-0.383787
-0.382717
-0.38164
-0.380487
-0.379299
-0.378187
-0.377244
-0.376532
-0.376087
-0.375918
-0.37601
-0.37633
-0.376825
-0.377428
-0.378056
-0.378625
-0.37906
-0.379195
-0.378698
-0.379103
-0.385876
-0.384822
-0.383611
-0.382226
-0.380747
-0.379308
-0.378019
-0.376958
-0.376172
-0.375677
-0.375462
-0.37549
-0.375699
-0.376007
-0.376306
-0.376475
-0.376395
-0.37585
-0.374339
-0.373363
-0.388109
-0.387074
-0.385728
-0.384115
-0.382355
-0.380605
-0.37899
-0.377603
-0.3765
-0.375703
-0.3752
-0.37495
-0.374879
-0.374884
-0.374828
-0.374545
-0.373857
-0.372495
-0.36978
-0.366967
-0.390624
-0.389582
-0.388087
-0.386245
-0.384214
-0.382169
-0.380252
-0.378566
-0.377172
-0.376096
-0.375324
-0.374807
-0.37446
-0.374162
-0.373744
-0.372993
-0.371652
-0.369337
-0.365112
-0.359881
-0.393554
-0.392452
-0.390784
-0.388705
-0.386408
-0.384086
-0.381889
-0.379927
-0.378266
-0.376929
-0.3759
-0.375125
-0.374511
-0.373933
-0.373222
-0.372166
-0.370497
-0.367728
-0.362625
-0.355821
-0.397018
-0.395781
-0.393903
-0.391575
-0.389014
-0.386424
-0.383965
-0.381747
-0.379834
-0.378245
-0.37696
-0.375918
-0.37503
-0.374181
-0.373238
-0.372075
-0.370587
-0.368698
-0.366592
-0.368094
-0.401113
-0.399653
-0.397518
-0.394921
-0.39209
-0.389239
-0.386527
-0.384061
-0.3819
-0.380054
-0.378494
-0.377154
-0.375946
-0.374763
-0.3735
-0.372075
-0.37045
-0.368665
-0.366962
-0.367457
-0.405914
-0.404133
-0.401688
-0.398796
-0.395683
-0.392566
-0.3896
-0.386885
-0.384465
-0.38234
-0.380468
-0.378777
-0.377174
-0.375563
-0.373854
-0.371984
-0.369937
-0.367747
-0.365544
-0.364156
-0.411474
-0.40927
-0.40646
-0.40324
-0.399824
-0.396429
-0.3932
-0.390219
-0.387515
-0.385069
-0.382826
-0.380705
-0.378611
-0.376452
-0.37415
-0.371655
-0.368948
-0.36604
-0.363004
-0.360041
-0.417825
-0.415102
-0.411867
-0.408285
-0.404542
-0.400847
-0.397332
-0.394055
-0.391022
-0.388193
-0.385496
-0.382843
-0.38014
-0.377305
-0.374273
-0.371009
-0.367499
-0.363751
-0.35982
-0.355629
-0.424987
-0.421654
-0.41794
-0.413959
-0.409859
-0.405837
-0.402
-0.398379
-0.39495
-0.391649
-0.388392
-0.385086
-0.381646
-0.378007
-0.374129
-0.369997
-0.365618
-0.361013
-0.356243
-0.351171
-0.43297
-0.428946
-0.424702
-0.420288
-0.415799
-0.411413
-0.407206
-0.40317
-0.399251
-0.395364
-0.391415
-0.38732
-0.383013
-0.378457
-0.373642
-0.368585
-0.363318
-0.357886
-0.352351
-0.346601
-0.441776
-0.436989
-0.432174
-0.427296
-0.422384
-0.417585
-0.412937
-0.40839
-0.403859
-0.399244
-0.394456
-0.38943
-0.384132
-0.378563
-0.372751
-0.366744
-0.360601
-0.354384
-0.348156
-0.341854
-0.451398
-0.445788
-0.440367
-0.434998
-0.429622
-0.424348
-0.419164
-0.413979
-0.408684
-0.403179
-0.397392
-0.391296
-0.384901
-0.378249
-0.371408
-0.364452
-0.357458
-0.350499
-0.343633
-0.336829
-0.461814
-0.455334
-0.449284
-0.443395
-0.437505
-0.43167
-0.425826
-0.419846
-0.413611
-0.407037
-0.400095
-0.392805
-0.385229
-0.377453
-0.369575
-0.36169
-0.353881
-0.346221
-0.338755
-0.331472
-0.472983
-0.465599
-0.458903
-0.452466
-0.445995
-0.439486
-0.432826
-0.425865
-0.418495
-0.410675
-0.402433
-0.39385
-0.38504
-0.376126
-0.367227
-0.358445
-0.349862
-0.341538
-0.333502
-0.325746
-0.48484
-0.476531
-0.469178
-0.462155
-0.455016
-0.44769
-0.440027
-0.431877
-0.423173
-0.41394
-0.404279
-0.394335
-0.384268
-0.374227
-0.364341
-0.354706
-0.345391
-0.336441
-0.327863
-0.319644
-0.497284
-0.488046
-0.480028
-0.472368
-0.464448
-0.456131
-0.447253
-0.437697
-0.427468
-0.416679
-0.405513
-0.394174
-0.382856
-0.371723
-0.360896
-0.350458
-0.340458
-0.330921
-0.321827
-0.313163
-0.51018
-0.500025
-0.491333
-0.482968
-0.474123
-0.464613
-0.454293
-0.443117
-0.431194
-0.418741
-0.406021
-0.393287
-0.380752
-0.368577
-0.356867
-0.345681
-0.335046
-0.324962
-0.315383
-0.3063
-0.523349
-0.512305
-0.502928
-0.493767
-0.483827
-0.472902
-0.460908
-0.447917
-0.434167
-0.419983
-0.4057
-0.391602
-0.377905
-0.364752
-0.352223
-0.340348
-0.329128
-0.318542
-0.308514
-0.299048
-0.536575
-0.524685
-0.514604
-0.504535
-0.493304
-0.48073
-0.466846
-0.451877
-0.436208
-0.420271
-0.404452
-0.389049
-0.374262
-0.360205
-0.346925
-0.334423
-0.322674
-0.311631
-0.301194
-0.291389
-0.549596
-0.536919
-0.526106
-0.514991
-0.50226
-0.487808
-0.471842
-0.454777
-0.437149
-0.419479
-0.402184
-0.385556
-0.369764
-0.354884
-0.340928
-0.327864
-0.315642
-0.304195
-0.293393
-0.283299
-0.562115
-0.548721
-0.537136
-0.524822
-0.510373
-0.493834
-0.475638
-0.456411
-0.436832
-0.417488
-0.398808
-0.381052
-0.36435
-0.348735
-0.334179
-0.320621
-0.307989
-0.296191
-0.285072
-0.274746
-0.573801
-0.559769
-0.547362
-0.533683
-0.517308
-0.498506
-0.477984
-0.456584
-0.43511
-0.41419
-0.394235
-0.375464
-0.357956
-0.341697
-0.326623
-0.312643
-0.299664
-0.287574
-0.276192
-0.265694
-0.584296
-0.569713
-0.556424
-0.54121
-0.522724
-0.501533
-0.478646
-0.455118
-0.43185
-0.409481
-0.388383
-0.36872
-0.350515
-0.333709
-0.318202
-0.303875
-0.290619
-0.278297
-0.266711
-0.256104
-0.593227
-0.578182
-0.563944
-0.547037
-0.52629
-0.502639
-0.477412
-0.451854
-0.426931
-0.403264
-0.38117
-0.360746
-0.341961
-0.324709
-0.308857
-0.294265
-0.280803
-0.268316
-0.256587
-0.245939
-0.600208
-0.584792
-0.569539
-0.550798
-0.527692
-0.501573
-0.474092
-0.446651
-0.420246
-0.395453
-0.372519
-0.351474
-0.332229
-0.314638
-0.298535
-0.283761
-0.270171
-0.257587
-0.245781
-0.235161
-0.604859
-0.589163
-0.572834
-0.552152
-0.526643
-0.498117
-0.468524
-0.439388
-0.411699
-0.385967
-0.362361
-0.34084
-0.321262
-0.303441
-0.287186
-0.272318
-0.25868
-0.246074
-0.234261
-0.223741
-0.606813
-0.590927
-0.573473
-0.550784
-0.522893
-0.492082
-0.460571
-0.429963
-0.401209
-0.374737
-0.350632
-0.328786
-0.309005
-0.29107
-0.274765
-0.259897
-0.246297
-0.233745
-0.221998
-0.211652
-0.605728
-0.589739
-0.57113
-0.546418
-0.516229
-0.483316
-0.450125
-0.418294
-0.38871
-0.361706
-0.337282
-0.315264
-0.295415
-0.277484
-0.261237
-0.246467
-0.232992
-0.220575
-0.208972
-0.198876
-0.601293
-0.585288
-0.565519
-0.538822
-0.506484
-0.471704
-0.437106
-0.404323
-0.374152
-0.346829
-0.322268
-0.300237
-0.280457
-0.262654
-0.246574
-0.232003
-0.218747
-0.206548
-0.195171
-0.185404
-0.593244
-0.577307
-0.556403
-0.527815
-0.493533
-0.457166
-0.421462
-0.388009
-0.357503
-0.330076
-0.305562
-0.283677
-0.264108
-0.246558
-0.230761
-0.216493
-0.20355
-0.191659
-0.180592
-0.17123
-0.581363
-0.565582
-0.543602
-0.51327
-0.477301
-0.439661
-0.403169
-0.369338
-0.338748
-0.311431
-0.287149
-0.265571
-0.246356
-0.229187
-0.213789
-0.199931
-0.187401
-0.175908
-0.16524
-0.156361
-0.565493
-0.549955
-0.526991
-0.495112
-0.457756
-0.419183
-0.382232
-0.348314
-0.317891
-0.290896
-0.267029
-0.245918
-0.227198
-0.210541
-0.195661
-0.182323
-0.170306
-0.159306
-0.149128
-0.14081
-0.545533
-0.53033
-0.506508
-0.473326
-0.434913
-0.395763
-0.358683
-0.324967
-0.294954
-0.268489
-0.245216
-0.22473
-0.206648
-0.19063
-0.176388
-0.163682
-0.152284
-0.141876
-0.132284
-0.124607
-0.521451
-0.506674
-0.482153
-0.447945
-0.408831
-0.369466
-0.332584
-0.299349
-0.269981
-0.244245
-0.221738
-0.20203
-0.184724
-0.169475
-0.15599
-0.144029
-0.133357
-0.123647
-0.114743
-0.107794
-0.493274
-0.479021
-0.453986
-0.419059
-0.379611
-0.34039
-0.304024
-0.271535
-0.243035
-0.218217
-0.196639
-0.177854
-0.161458
-0.147101
-0.134491
-0.123387
-0.11355
-0.104648
-0.096546
-0.0904196
-0.461096
-0.447467
-0.422125
-0.386807
-0.347396
-0.308668
-0.273119
-0.241627
-0.2142
-0.190474
-0.169977
-0.15225
-0.136888
-0.123541
-0.111918
-0.101781
-0.0928869
-0.0849071
-0.0777259
-0.0725067
-0.425074
-0.412169
-0.386747
-0.351373
-0.312364
-0.274465
-0.240013
-0.209747
-0.183582
-0.161104
-0.141823
-0.125276
-0.111059
-0.0988276
-0.0882971
-0.0792307
-0.0713886
-0.0644506
-0.0583066
-0.0540438
-0.385423
-0.373344
-0.348078
-0.312985
-0.274732
-0.237975
-0.204879
-0.176046
-0.151308
-0.130216
-0.112267
-0.0970011
-0.0840216
-0.0729957
-0.0636476
-0.0557482
-0.0490658
-0.0432922
-0.038296
-0.0350267
-0.342411
-0.331259
-0.306391
-0.271913
-0.234751
-0.199425
-0.167917
-0.140698
-0.117532
-0.0979396
-0.0814165
-0.0675102
-0.0558382
-0.0460838
-0.0379877
-0.0313347
-0.0259067
-0.0214138
-0.0177015
-0.0155931
-0.29636
-0.286231
-0.262003
-0.22846
-0.192702
-0.159068
-0.129353
-0.103906
-0.0824303
-0.064429
-0.0494004
-0.0369067
-0.0265853
-0.0181437
-0.0113477
-0.00599891
-0.00189744
0.00118706
0.00334241
0.00382607
-0.247631
-0.238618
-0.215265
-0.182962
-0.148892
-0.117185
-0.0894417
-0.0658985
-0.0462085
-0.0298622
-0.0163667
-0.00530273
0.00366508
0.0107936
0.0162808
0.0203029
0.0230154
0.0244622
0.0244934
0.0227561
-0.196623
-0.188813
-0.16656
-0.135778
-0.103656
-0.0740815
-0.0484642
-0.0269353
-0.00910446
0.00554712
0.0175047
0.0271708
0.034855
0.0407769
0.0450954
0.0479541
0.0493861
0.0490161
0.0463322
0.0423362
-0.143766
-0.137235
-0.116293
-0.0872893
-0.0573457
-0.0300836
-0.00672565
0.0126934
0.0286022
0.0415279
0.051954
0.0602786
0.0668067
0.0717554
0.0752967
0.0775916
0.0785373
0.0772385
0.0729596
0.0686122
-0.0895113
-0.0843277
-0.0648875
-0.0378913
-0.0103253
0.0144696
0.0354531
0.052677
0.0666006
0.0777568
0.0866273
0.0936127
0.0990314
0.10314
0.106196
0.108492
0.109991
0.109651
0.107213
0.111339
-0.0343172
-0.0305391
-0.012773
0.0120158
0.0370348
0.0592343
0.0777475
0.0927021
0.10458
0.113912
0.121173
0.126753
0.130969
0.134089
0.136388
0.138139
0.139323
0.139438
0.139434
0.145767
0.0213427
0.0236692
0.0396142
0.0620291
0.0843651
0.103869
0.119837
0.132464
0.142245
0.149706
0.155307
0.159429
0.162381
0.164429
0.165832
0.166821
0.167369
0.167167
0.167173
0.17232
0.0769949
0.0778374
0.091841
0.111751
0.131302
0.148039
0.161411
0.171668
0.179314
0.184859
0.188748
0.191344
0.192941
0.193791
0.194133
0.194171
0.193895
0.193068
0.192479
0.196036
0.13217
0.13151
0.143481
0.16079
0.177492
0.191422
0.202175
0.210044
0.215534
0.219141
0.221286
0.222312
0.222492
0.222057
0.221221
0.220156
0.21884
0.217067
0.21556
0.217644
0.18641
0.184243
0.19412
0.208771
0.222593
0.233711
0.241847
0.247334
0.250672
0.252336
0.252726
0.25216
0.250891
0.249128
0.247061
0.244833
0.242408
0.239602
0.237101
0.237774
0.239265
0.235603
0.243355
0.25533
0.26628
0.27461
0.280162
0.283298
0.284511
0.284254
0.282901
0.280748
0.278026
0.274923
0.271604
0.26819
0.264633
0.260779
0.257283
0.256626
0.290307
0.285175
0.290804
0.300119
0.308242
0.313842
0.316871
0.317713
0.316851
0.314717
0.311658
0.307948
0.303796
0.299371
0.294819
0.290236
0.285572
0.280699
0.276236
0.274317
0.339124
0.332565
0.336101
0.34281
0.348184
0.351143
0.351736
0.350367
0.347505
0.343558
0.338852
0.333636
0.328101
0.322396
0.316649
0.310939
0.305214
0.299373
0.293985
0.290872
0.385328
0.377398
0.378901
0.383095
0.38583
0.386265
0.384536
0.381061
0.376293
0.37062
0.364344
0.357693
0.350839
0.343915
0.337031
0.330252
0.323529
0.31678
0.310519
0.306279
0.428554
0.419325
0.418884
0.420683
0.420921
0.418977
0.415063
0.409607
0.40305
0.395754
0.388002
0.380003
0.37191
0.363842
0.355893
0.348115
0.340464
0.332874
0.325796
0.320503
0.468465
0.458022
0.455751
0.455307
0.453219
0.449064
0.443123
0.435833
0.427616
0.418819
0.4097
0.400452
0.391214
0.382088
0.373155
0.364459
0.355957
0.347599
0.339765
0.333496
0.504751
0.493193
0.489231
0.486723
0.482503
0.476328
0.468538
0.459575
0.449848
0.439681
0.429318
0.418934
0.408653
0.398565
0.38874
0.379211
0.369942
0.360891
0.352368
0.345206
0.537131
0.524569
0.519079
0.514709
0.508575
0.50059
0.491147
0.480688
0.46961
0.458221
0.446746
0.435347
0.424135
0.41319
0.402569
0.392299
0.382349
0.372684
0.363544
0.355582
0.565358
0.551914
0.545075
0.53907
0.531258
0.521691
0.510804
0.499039
0.486782
0.474326
0.461882
0.449598
0.437575
0.425884
0.41457
0.403656
0.393117
0.382919
0.37324
0.364575
0.589215
0.575021
0.567032
0.559635
0.5504
0.539493
0.527382
0.514513
0.50126
0.487902
0.474638
0.461606
0.448898
0.436576
0.424678
0.413221
0.402185
0.391539
0.381402
0.37214
0.608522
0.593716
0.58479
0.576262
0.56587
0.553877
0.540776
0.527012
0.512952
0.498864
0.484937
0.4713
0.458038
0.445205
0.432835
0.42094
0.409504
0.398496
0.387986
0.378239
0.62313
0.607861
0.598222
0.588833
0.577565
0.564748
0.550897
0.536457
0.521786
0.507145
0.492716
0.478622
0.464941
0.451722
0.438995
0.426768
0.41503
0.403749
0.392956
0.382841
0.63293
0.617349
0.607229
0.597262
0.585405
0.572035
0.557681
0.542787
0.527706
0.512694
0.497929
0.483527
0.469565
0.456088
0.443121
0.430672
0.418732
0.407268
0.396285
0.385921
0.637847
0.622109
0.611748
0.60149
0.589337
0.57569
0.561083
0.54596
0.530674
0.515476
0.500542
0.485986
0.471883
0.458276
0.445189
0.432629
0.420587
0.409031
0.397953
0.387465
0.637844
0.622106
0.611745
0.601487
0.589335
0.575687
0.56108
0.545958
0.530671
0.515474
0.50054
0.485984
0.471881
0.458275
0.445187
0.432628
0.420585
0.40903
0.397951
0.387463
0.632921
0.61734
0.607221
0.597254
0.585397
0.572028
0.557674
0.54278
0.527699
0.512687
0.497922
0.483521
0.469559
0.456082
0.443115
0.430667
0.418726
0.407262
0.39628
0.385916
0.623115
0.607846
0.598208
0.588819
0.577552
0.564736
0.550885
0.536445
0.521775
0.507134
0.492706
0.478611
0.464931
0.451713
0.438985
0.426759
0.415021
0.40374
0.392948
0.382833
0.608501
0.593696
0.584771
0.576243
0.565852
0.553859
0.540759
0.526996
0.512936
0.498848
0.484922
0.471285
0.458024
0.445192
0.432822
0.420927
0.409491
0.398483
0.387974
0.378228
0.589188
0.574994
0.567007
0.559611
0.550376
0.53947
0.52736
0.514492
0.501239
0.487882
0.474619
0.461588
0.44888
0.436558
0.424661
0.413204
0.402169
0.391523
0.381386
0.372125
0.565325
0.551881
0.545044
0.53904
0.531229
0.521664
0.510777
0.499013
0.486758
0.474302
0.461859
0.449575
0.437553
0.425862
0.414549
0.403636
0.393097
0.3829
0.37322
0.364557
0.537092
0.524531
0.519041
0.514673
0.50854
0.500557
0.491115
0.480657
0.46958
0.458192
0.446718
0.43532
0.424109
0.413165
0.402544
0.392275
0.382326
0.372661
0.363522
0.355561
0.504706
0.493148
0.489188
0.486681
0.482463
0.47629
0.468502
0.45954
0.449814
0.439648
0.429286
0.418903
0.408622
0.398536
0.388711
0.379183
0.369914
0.360864
0.352342
0.345181
0.468414
0.457972
0.455702
0.45526
0.453174
0.449021
0.443082
0.435792
0.427578
0.418781
0.409664
0.400417
0.391179
0.382055
0.373123
0.364427
0.355926
0.347569
0.339736
0.333467
0.428497
0.419268
0.418828
0.42063
0.420871
0.418929
0.415016
0.409562
0.403006
0.395712
0.387962
0.379963
0.371872
0.363805
0.355856
0.34808
0.340429
0.332841
0.325763
0.320471
0.385264
0.377335
0.378839
0.383036
0.385774
0.386211
0.384484
0.381011
0.376245
0.370574
0.364299
0.357649
0.350797
0.343874
0.336991
0.330213
0.32349
0.316742
0.310482
0.306244
0.339053
0.332495
0.336033
0.342745
0.348122
0.351084
0.351679
0.350312
0.347452
0.343507
0.338802
0.333588
0.328054
0.322351
0.316604
0.310896
0.305172
0.299332
0.293946
0.290833
0.290229
0.285099
0.29073
0.300048
0.308174
0.313777
0.316808
0.317654
0.316794
0.314661
0.311604
0.307896
0.303746
0.299322
0.294771
0.290189
0.285526
0.280654
0.276193
0.274275
0.239181
0.235519
0.243275
0.255252
0.266206
0.27454
0.280095
0.283233
0.284448
0.284193
0.282843
0.280692
0.277971
0.274869
0.271552
0.268139
0.264584
0.260731
0.257236
0.256581
0.186318
0.184152
0.194032
0.208688
0.222513
0.233635
0.241774
0.247264
0.250604
0.252271
0.252663
0.252099
0.250832
0.249071
0.247005
0.244778
0.242354
0.23955
0.23705
0.237725
0.132072
0.131413
0.143387
0.1607
0.177406
0.19134
0.202096
0.209969
0.215461
0.219071
0.221218
0.222246
0.222428
0.221995
0.221161
0.220097
0.218783
0.217012
0.215506
0.217591
0.0768886
0.0777324
0.0917396
0.111654
0.13121
0.147951
0.161327
0.171588
0.179236
0.184784
0.188676
0.191274
0.192873
0.193725
0.194068
0.194108
0.193834
0.193009
0.192421
0.19598
0.0212289
0.0235568
0.0395056
0.0619255
0.0842665
0.103775
0.119747
0.132377
0.142161
0.149625
0.155229
0.159353
0.162308
0.164358
0.165764
0.166754
0.167304
0.167103
0.167111
0.17226
-0.0344387
-0.0306592
-0.0128889
0.0119053
0.0369297
0.059134
0.0776516
0.0926101
0.104491
0.113827
0.12109
0.126673
0.130892
0.134014
0.136315
0.138068
0.139253
0.139371
0.139368
0.145703
-0.0896406
-0.0844555
-0.0650109
-0.0380089
-0.0104372
0.0143631
0.0353513
0.0525793
0.0665066
0.0776661
0.0865397
0.0935278
0.0989491
0.10306
0.106119
0.108417
0.109917
0.109579
0.107142
0.11127
-0.143903
-0.137371
-0.116424
-0.0874141
-0.0574643
-0.0301965
-0.00683354
0.01259
0.0285027
0.041432
0.0518613
0.0601888
0.0667197
0.0716708
0.0752144
0.0775115
0.078459
0.0771619
0.0728841
0.0685375
-0.196768
-0.188956
-0.166698
-0.13591
-0.103782
-0.0742009
-0.0485782
-0.0270445
-0.00920943
0.00544595
0.017407
0.0270762
0.0347633
0.0406877
0.0450087
0.0478695
0.0493034
0.0489351
0.0462525
0.0422573
-0.247784
-0.23877
-0.215411
-0.183101
-0.149025
-0.117311
-0.0895619
-0.0660135
-0.046319
-0.0299686
-0.0164694
-0.00540215
0.00356869
0.0107
0.0161898
0.0202141
0.0229288
0.0243774
0.0244103
0.0226741
-0.296522
-0.286391
-0.262157
-0.228608
-0.192841
-0.159201
-0.129479
-0.104027
-0.0825463
-0.0645406
-0.0495082
-0.0370109
-0.0266862
-0.0182417
-0.0114429
-0.0060916
-0.00198782
0.00109884
0.00325612
0.00374117
-0.342582
-0.331427
-0.306554
-0.272068
-0.234898
-0.199564
-0.16805
-0.140825
-0.117653
-0.0980564
-0.0815291
-0.067619
-0.0559436
-0.0461859
-0.0380869
-0.0314312
-0.0260007
-0.0215054
-0.0177909
-0.015681
-0.385601
-0.37352
-0.348249
-0.313148
-0.274886
-0.238121
-0.205018
-0.176178
-0.151435
-0.130338
-0.112385
-0.0971145
-0.0841313
-0.073102
-0.0637507
-0.0558484
-0.0491633
-0.0433871
-0.0383885
-0.0351174
-0.425261
-0.412354
-0.386926
-0.351543
-0.312525
-0.274618
-0.240159
-0.209886
-0.183714
-0.161231
-0.141946
-0.125394
-0.111173
-0.0989379
-0.088404
-0.0793344
-0.0714894
-0.0645486
-0.0584021
-0.0541372
-0.461291
-0.44766
-0.422312
-0.386985
-0.347564
-0.308828
-0.273271
-0.241771
-0.214338
-0.190606
-0.170104
-0.152373
-0.137006
-0.123655
-0.112029
-0.101888
-0.092991
-0.0850082
-0.0778242
-0.0726028
-0.493477
-0.479222
-0.454181
-0.419245
-0.379787
-0.340556
-0.304182
-0.271685
-0.243178
-0.218354
-0.196771
-0.177981
-0.16158
-0.147219
-0.134605
-0.123498
-0.113657
-0.104752
-0.0966471
-0.0905182
-0.521661
-0.506883
-0.482356
-0.448138
-0.409014
-0.369639
-0.332748
-0.299504
-0.270129
-0.244387
-0.221874
-0.202161
-0.18485
-0.169597
-0.156108
-0.144143
-0.133467
-0.123754
-0.114847
-0.107896
-0.545752
-0.530546
-0.506718
-0.473526
-0.435103
-0.395943
-0.358853
-0.325128
-0.295107
-0.268636
-0.245357
-0.224865
-0.206778
-0.190756
-0.176509
-0.163799
-0.152397
-0.141986
-0.13239
-0.12471
-0.565718
-0.550179
-0.527209
-0.49532
-0.457953
-0.41937
-0.382408
-0.348481
-0.318049
-0.291048
-0.267174
-0.246057
-0.227332
-0.21067
-0.195785
-0.182443
-0.170422
-0.159418
-0.149237
-0.140916
-0.581595
-0.565813
-0.543827
-0.513485
-0.477504
-0.439854
-0.403351
-0.36951
-0.338912
-0.311587
-0.287299
-0.265714
-0.246493
-0.229319
-0.213916
-0.200054
-0.18752
-0.176022
-0.165351
-0.156469
-0.593482
-0.577544
-0.556634
-0.528037
-0.493743
-0.457365
-0.42165
-0.388187
-0.357672
-0.330236
-0.305715
-0.283824
-0.264249
-0.246694
-0.230891
-0.216618
-0.203672
-0.191776
-0.180706
-0.17134
-0.601537
-0.58553
-0.565755
-0.53905
-0.5067
-0.471908
-0.4373
-0.404506
-0.374326
-0.346994
-0.322425
-0.300387
-0.280602
-0.262793
-0.246708
-0.232131
-0.218871
-0.206668
-0.195287
-0.185515
-0.605976
-0.589986
-0.571372
-0.546651
-0.516452
-0.483526
-0.450324
-0.418482
-0.388888
-0.361876
-0.337443
-0.315419
-0.295563
-0.277626
-0.261373
-0.246597
-0.233118
-0.220696
-0.209089
-0.19899
-0.607066
-0.591179
-0.57372
-0.551023
-0.523121
-0.492297
-0.460775
-0.430156
-0.401391
-0.374911
-0.350798
-0.328944
-0.309156
-0.291214
-0.274903
-0.26003
-0.246425
-0.233868
-0.222117
-0.211767
-0.605115
-0.589418
-0.573085
-0.552395
-0.526876
-0.498337
-0.468733
-0.439585
-0.411886
-0.386144
-0.362529
-0.341001
-0.321416
-0.303588
-0.287327
-0.272454
-0.25881
-0.246199
-0.234381
-0.223857
-0.600467
-0.58505
-0.569793
-0.551045
-0.527928
-0.501798
-0.474305
-0.446853
-0.420437
-0.395634
-0.372691
-0.351638
-0.332386
-0.314788
-0.298679
-0.283898
-0.270303
-0.257714
-0.245903
-0.235279
-0.593488
-0.578441
-0.5642
-0.547286
-0.52653
-0.502867
-0.477629
-0.45206
-0.427126
-0.403449
-0.381345
-0.360913
-0.34212
-0.324862
-0.309003
-0.294404
-0.280937
-0.268444
-0.25671
-0.246058
-0.584558
-0.569974
-0.556681
-0.541462
-0.522967
-0.501765
-0.478867
-0.455327
-0.432048
-0.409669
-0.388562
-0.36889
-0.350677
-0.333864
-0.318349
-0.304017
-0.290754
-0.278427
-0.266836
-0.256224
-0.574063
-0.56003
-0.54762
-0.533936
-0.517552
-0.498741
-0.478208
-0.456796
-0.435311
-0.414381
-0.394417
-0.375637
-0.358121
-0.341854
-0.326773
-0.312787
-0.299801
-0.287705
-0.276318
-0.265815
-0.562377
-0.548981
-0.537394
-0.525075
-0.510619
-0.49407
-0.475864
-0.456626
-0.437036
-0.417683
-0.398992
-0.381228
-0.364517
-0.348894
-0.334331
-0.320766
-0.308127
-0.296323
-0.285199
-0.274867
-0.549857
-0.537178
-0.526363
-0.515244
-0.502506
-0.488046
-0.47207
-0.454995
-0.437356
-0.419676
-0.402372
-0.385734
-0.369933
-0.355045
-0.341082
-0.328011
-0.315783
-0.304329
-0.29352
-0.283421
-0.536834
-0.524942
-0.514859
-0.504786
-0.49355
-0.480969
-0.467075
-0.452097
-0.436418
-0.420471
-0.404642
-0.389229
-0.374434
-0.360368
-0.347081
-0.334572
-0.322815
-0.311766
-0.301323
-0.291511
-0.523606
-0.51256
-0.503181
-0.494017
-0.484072
-0.47314
-0.461139
-0.448138
-0.434378
-0.420185
-0.405892
-0.391785
-0.37808
-0.364918
-0.35238
-0.340498
-0.329271
-0.318678
-0.308643
-0.299171
-0.510434
-0.500276
-0.491582
-0.483214
-0.474365
-0.46485
-0.454523
-0.443339
-0.431407
-0.418945
-0.406216
-0.393473
-0.380929
-0.368745
-0.357027
-0.345833
-0.33519
-0.325099
-0.315514
-0.306424
-0.497535
-0.488295
-0.480274
-0.472612
-0.464688
-0.456366
-0.447483
-0.437919
-0.427682
-0.416885
-0.40571
-0.394362
-0.383035
-0.371893
-0.361058
-0.350612
-0.340605
-0.331059
-0.321958
-0.313287
-0.485087
-0.476776
-0.46942
-0.462395
-0.455253
-0.447923
-0.440255
-0.4321
-0.423388
-0.414148
-0.404479
-0.394526
-0.38445
-0.374401
-0.364506
-0.354863
-0.345539
-0.336581
-0.327995
-0.319769
-0.473227
-0.46584
-0.459141
-0.452702
-0.446229
-0.439716
-0.433052
-0.426087
-0.418711
-0.410884
-0.402635
-0.394044
-0.385225
-0.376302
-0.367395
-0.358604
-0.350012
-0.34168
-0.333636
-0.325872
-0.462053
-0.455571
-0.449518
-0.443628
-0.437736
-0.431897
-0.42605
-0.420067
-0.413826
-0.407247
-0.400298
-0.393001
-0.385417
-0.377633
-0.369746
-0.361852
-0.354035
-0.346365
-0.33889
-0.331599
-0.451634
-0.446021
-0.440598
-0.435227
-0.429849
-0.424572
-0.419386
-0.414199
-0.4089
-0.403389
-0.397597
-0.391495
-0.385092
-0.378432
-0.371582
-0.364618
-0.357615
-0.350647
-0.343771
-0.336958
-0.442009
-0.437218
-0.432401
-0.427521
-0.422607
-0.417807
-0.413157
-0.408608
-0.404073
-0.399455
-0.394663
-0.389631
-0.384327
-0.37875
-0.37293
-0.366914
-0.360762
-0.354535
-0.348297
-0.341985
-0.433199
-0.429172
-0.424926
-0.420509
-0.416019
-0.411631
-0.407423
-0.403385
-0.399464
-0.395575
-0.391623
-0.387524
-0.383212
-0.378649
-0.373826
-0.36876
-0.363484
-0.358041
-0.352496
-0.346735
-0.425212
-0.421877
-0.41816
-0.414177
-0.410075
-0.406052
-0.402215
-0.398593
-0.395162
-0.39186
-0.388601
-0.385292
-0.381848
-0.378204
-0.374318
-0.370178
-0.365789
-0.361174
-0.356392
-0.351308
-0.418047
-0.415322
-0.412085
-0.4085
-0.404755
-0.401059
-0.397543
-0.394267
-0.391233
-0.388404
-0.385707
-0.383052
-0.380346
-0.377506
-0.374469
-0.371196
-0.367677
-0.363918
-0.359975
-0.35577
-0.411693
-0.409487
-0.406674
-0.403452
-0.400035
-0.396639
-0.393409
-0.390429
-0.387726
-0.385281
-0.383038
-0.380916
-0.37882
-0.376658
-0.374352
-0.37185
-0.369134
-0.366215
-0.363165
-0.360188
-0.406131
-0.404347
-0.4019
-0.399006
-0.395891
-0.392773
-0.389808
-0.387094
-0.384675
-0.382552
-0.380681
-0.378991
-0.377388
-0.375775
-0.374062
-0.372187
-0.370131
-0.36793
-0.365714
-0.364309
-0.401327
-0.399864
-0.397727
-0.395128
-0.392297
-0.389445
-0.386733
-0.384269
-0.38211
-0.380266
-0.378708
-0.377371
-0.376164
-0.37498
-0.373715
-0.372285
-0.370654
-0.368859
-0.367143
-0.367619
-0.39723
-0.39599
-0.39411
-0.39178
-0.389218
-0.386629
-0.38417
-0.381954
-0.380043
-0.378458
-0.377176
-0.376137
-0.375252
-0.374403
-0.37346
-0.372294
-0.370801
-0.368904
-0.366785
-0.368268
-0.393764
-0.392659
-0.390988
-0.388908
-0.386611
-0.384288
-0.382093
-0.380133
-0.378476
-0.377143
-0.376118
-0.375346
-0.374736
-0.37416
-0.37345
-0.372394
-0.370721
-0.367947
-0.362838
-0.356026
-0.390832
-0.389787
-0.38829
-0.386446
-0.384414
-0.38237
-0.380455
-0.378771
-0.377382
-0.37631
-0.375543
-0.375031
-0.374689
-0.374393
-0.373978
-0.373227
-0.371884
-0.369566
-0.365336
-0.360097
-0.388314
-0.387276
-0.385928
-0.384313
-0.382554
-0.380805
-0.379192
-0.377808
-0.37671
-0.375917
-0.37542
-0.375175
-0.37511
-0.375119
-0.375066
-0.374784
-0.374096
-0.372731
-0.370012
-0.36719
-0.386078
-0.385021
-0.383808
-0.382422
-0.380943
-0.379506
-0.378219
-0.377162
-0.37638
-0.375891
-0.375682
-0.375716
-0.375931
-0.376244
-0.376546
-0.376718
-0.376638
-0.376092
-0.374576
-0.373592
-0.383986
-0.382912
-0.381834
-0.38068
-0.379492
-0.378382
-0.377442
-0.376734
-0.376294
-0.376131
-0.37623
-0.376556
-0.377057
-0.377665
-0.378298
-0.37887
-0.379305
-0.37944
-0.37894
-0.379337
-0.381904
-0.380844
-0.379912
-0.378997
-0.378108
-0.377337
-0.376758
-0.376416
-0.376336
-0.376518
-0.376942
-0.377575
-0.37837
-0.379271
-0.380215
-0.381145
-0.382015
-0.382708
-0.38302
-0.38436
-0.379715
-0.378722
-0.37796
-0.377293
-0.376708
-0.376281
-0.376067
-0.376099
-0.376387
-0.376922
-0.377682
-0.37863
-0.379724
-0.380914
-0.382153
-0.383401
-0.38463
-0.385754
-0.38665
-0.38854
-0.37732
-0.376469
-0.375908
-0.375496
-0.375217
-0.37513
-0.375277
-0.375676
-0.376327
-0.377212
-0.378304
-0.379564
-0.380953
-0.382424
-0.383938
-0.385464
-0.386983
-0.388424
-0.389704
-0.39186
-0.374653
-0.374031
-0.373702
-0.373555
-0.373577
-0.373817
-0.374307
-0.375054
-0.376048
-0.377265
-0.378671
-0.380228
-0.381894
-0.383627
-0.385389
-0.387153
-0.388902
-0.390569
-0.392087
-0.394333
-0.371681
-0.371376
-0.371315
-0.371434
-0.371745
-0.372292
-0.373098
-0.374162
-0.375466
-0.376982
-0.378672
-0.380495
-0.382408
-0.384371
-0.386345
-0.388306
-0.390233
-0.392058
-0.393715
-0.395959
-0.36841
-0.368506
-0.368739
-0.369122
-0.369706
-0.370531
-0.371615
-0.372955
-0.374527
-0.376299
-0.37823
-0.380278
-0.382399
-0.384551
-0.386698
-0.388812
-0.390869
-0.392798
-0.394534
-0.396739
-0.364883
-0.365451
-0.365999