/*--------------------------------*- C++ -*----------------------------------*\
  =========                 |
  \\      /  F ield         | OpenFOAM: The Open Source CFD Toolbox
   \\    /   O peration     | Website:  https://openfoam.org
    \\  /    A nd           | Version:  6.0
     \\/     M anipulation  |
\*---------------------------------------------------------------------------*/
FoamFile
{
    version     2.0;
    format      ascii;
    class       volVectorField;
    location    "51";
    object      U;
}
// * * * * * * * * * * * * * * * * * * * * * * * * * * * * * * * * * * * * * //

dimensions      [0 1 -1 0 0 0 0];

internalField   nonuniform List<vector> 
12500
(
(-0.000147899 -0.00860535 -1.05688e-21)
(-0.00132559 -0.0212188 1.48685e-20)
(-0.00383042 -0.030303 -2.16633e-20)
(-0.0070729 -0.0366256 9.99367e-21)
(-0.010717 -0.0408228 6.08547e-22)
(-0.0145443 -0.0434214 -1.25839e-21)
(-0.0183803 -0.0448481 -1.84144e-20)
(-0.0220942 -0.0454416 1.01504e-20)
(-0.0255941 -0.0454657 6.71367e-21)
(-0.0288192 -0.0451214 6.85057e-21)
(-0.0317339 -0.0445582 -1.16058e-20)
(-0.034323 -0.0438852 6.77156e-21)
(-0.0365881 -0.0431806 -3.19137e-21)
(-0.0385443 -0.0424993 5.41517e-21)
(-0.0402175 -0.0418802 -1.38339e-20)
(-0.0416424 -0.0413512 2.00526e-20)
(-0.0428605 -0.0409336 -3.85615e-21)
(-0.043918 -0.040645 -1.41717e-20)
(-0.0448639 -0.0405013 7.23459e-21)
(-0.0457489 -0.0405183 -6.90404e-21)
(-0.0466292 -0.0407117 6.20014e-21)
(-0.0475619 -0.0410964 8.23716e-21)
(-0.0485434 -0.0416851 8.09874e-22)
(-0.0494811 -0.0424929 -2.35063e-20)
(-0.0508114 -0.0435476 1.31099e-20)
(6.55236e-05 -0.00788203 1.88281e-20)
(-0.000863606 -0.019367 -5.05237e-20)
(-0.00328596 -0.0276243 1.50247e-20)
(-0.00654617 -0.0333732 1.00637e-20)
(-0.010269 -0.0372094 -8.07332e-21)
(-0.0142108 -0.0396237 -4.59549e-20)
(-0.0181781 -0.04101 1.37368e-20)
(-0.0220272 -0.0416776 -2.59439e-20)
(-0.0256569 -0.0418643 3.1162e-20)
(-0.0290007 -0.0417477 -4.17345e-20)
(-0.0320191 -0.0414566 2.23515e-20)
(-0.0346946 -0.0410814 7.1721e-21)
(-0.0370277 -0.0406832 -1.82402e-20)
(-0.039033 -0.0403016 -8.08778e-21)
(-0.0407367 -0.0399615 5.91478e-20)
(-0.042174 -0.0396782 -5.23272e-20)
(-0.0433868 -0.0394622 1.25089e-20)
(-0.0444223 -0.0393215 2.16784e-20)
(-0.0453299 -0.0392645 -5.02634e-21)
(-0.0461609 -0.0393015 3.50477e-20)
(-0.0469713 -0.0394448 6.27446e-21)
(-0.0478172 -0.0397086 -2.21123e-21)
(-0.0486988 -0.0401051 -4.40859e-20)
(-0.0495343 -0.0406484 4.05681e-20)
(-0.0507217 -0.0413805 -8.16436e-20)
(0.000227984 -0.00710287 6.0133e-20)
(-0.000534093 -0.0173902 2.08144e-20)
(-0.00293767 -0.0247839 -2.73096e-20)
(-0.00626245 -0.029944 1.17433e-20)
(-0.0100958 -0.0334186 1.11713e-20)
(-0.0141706 -0.0356575 4.23968e-20)
(-0.0182764 -0.0370184 -5.39927e-20)
(-0.0222577 -0.037779 -8.70336e-21)
(-0.0260054 -0.0381495 -3.63196e-20)
(-0.0294476 -0.0382832 -3.04051e-20)
(-0.0325413 -0.0382877 3.95084e-20)
(-0.0352672 -0.0382343 -1.32131e-19)
(-0.0376243 -0.0381669 -4.00695e-21)
(-0.0396268 -0.0381096 -7.93731e-20)
(-0.0413008 -0.038073 -9.28847e-21)
(-0.0426817 -0.03806 1.14067e-20)
(-0.0438125 -0.0380694 -6.16157e-20)
(-0.044741 -0.0380999 -3.8515e-20)
(-0.045518 -0.0381521 -4.56924e-20)
(-0.0461961 -0.0382304 7.17479e-20)
(-0.0468321 -0.0383441 2.61997e-20)
(-0.0474827 -0.0385065 -1.15976e-19)
(-0.0481529 -0.0387306 -5.58012e-20)
(-0.0487715 -0.039031 -6.2002e-20)
(-0.0497038 -0.0394633 1.77899e-19)
(0.000334501 -0.00626818 -2.04529e-21)
(-0.000347661 -0.015291 -4.79851e-20)
(-0.00279843 -0.021787 -2.28929e-20)
(-0.00623492 -0.0263461 1.42415e-20)
(-0.0102098 -0.0294608 9.01733e-20)
(-0.0144349 -0.0315354 -4.09794e-20)
(-0.0186852 -0.0328882 8.74701e-20)
(-0.0227949 -0.033763 8.34564e-20)
(-0.0266482 -0.0343411 5.10232e-20)
(-0.0301687 -0.0347512 -8.15662e-22)
(-0.0333106 -0.0350791 1.03277e-19)
(-0.0360523 -0.0353771 1.78564e-20)
(-0.0383917 -0.0356718 7.89892e-20)
(-0.0403422 -0.0359716 1.8143e-19)
(-0.0419297 -0.0362729 -2.10662e-19)
(-0.0431898 -0.0365652 3.16712e-19)
(-0.0441661 -0.0368358 6.86925e-20)
(-0.0449075 -0.0370729 -1.51717e-19)
(-0.0454667 -0.0372688 -2.15358e-20)
(-0.0458981 -0.0374213 5.54759e-20)
(-0.0462607 -0.037536 -2.73777e-20)
(-0.0466132 -0.0376251 -1.60105e-20)
(-0.0469665 -0.0377027 -1.57181e-20)
(-0.0472606 -0.0377847 -6.40093e-20)
(-0.0478335 -0.0379404 2.38981e-19)
(0.000380102 -0.00537908 3.10318e-20)
(-0.000314403 -0.0130737 -1.50074e-19)
(-0.00287964 -0.0186412 1.83014e-19)
(-0.00647414 -0.0225893 -7.34052e-20)
(-0.0106196 -0.0253479 8.80757e-20)
(-0.0150102 -0.0272709 7.20084e-20)
(-0.0194086 -0.0286339 2.74348e-20)
(-0.0236409 -0.0296452 1.06336e-21)
(-0.0275863 -0.0304564 1.55722e-19)
(-0.0311646 -0.0311711 1.07856e-19)
(-0.0343276 -0.0318535 -4.36354e-20)
(-0.0370519 -0.0325368 -2.79916e-20)
(-0.0393341 -0.0332306 1.1823e-19)
(-0.0411865 -0.0339276 2.23831e-20)
(-0.0426344 -0.0346096 6.02583e-20)
(-0.0437134 -0.0352526 1.44699e-19)
(-0.0444675 -0.0358312 -1.2558e-19)
(-0.0449468 -0.0363225 1.01507e-19)
(-0.045206 -0.0367087 -2.17635e-19)
(-0.0453026 -0.0369802 1.82652e-19)
(-0.0452984 -0.0371372 9.83169e-22)
(-0.0452556 -0.0371901 -1.44632e-19)
(-0.0451926 -0.0371532 5.89059e-20)
(-0.0450615 -0.0370445 1.32342e-19)
(-0.0451793 -0.0369469 -2.05657e-19)
(0.000359993 -0.00443776 1.59914e-19)
(-0.000443461 -0.0107447 -1.76272e-19)
(-0.00319055 -0.0153563 -2.88661e-20)
(-0.00698716 -0.0186861 3.60938e-20)
(-0.011329 -0.0210938 -7.88435e-20)
(-0.0158962 -0.0228784 -1.23707e-19)
(-0.0204428 -0.02427 -1.03077e-19)
(-0.024789 -0.0254401 -2.49603e-20)
(-0.0288103 -0.0265099 -1.79022e-19)
(-0.0324244 -0.027558 1.42173e-19)
(-0.035581 -0.0286272 -2.22262e-19)
(-0.0382552 -0.0297323 1.12312e-19)
(-0.0404421 -0.0308661 -3.77759e-20)
(-0.0421528 -0.0320059 8.67282e-20)
(-0.0434115 -0.0331189 -2.18186e-19)
(-0.0442532 -0.034167 1.05132e-19)
(-0.0447219 -0.0351111 7.48994e-21)
(-0.0448691 -0.0359156 4.69844e-20)
(-0.0447516 -0.0365513 2.82557e-19)
(-0.0444302 -0.0369988 6.16501e-20)
(-0.043971 -0.0372509 -6.41866e-21)
(-0.0434414 -0.0373142 1.7647e-20)
(-0.0428682 -0.0372017 1.17113e-19)
(-0.0422175 -0.0369333 3.28507e-20)
(-0.0417929 -0.0366056 1.14171e-19)
(0.000269778 -0.00344775 -9.96923e-20)
(-0.000742486 -0.00831365 1.4689e-19)
(-0.00373745 -0.0119459 9.17409e-21)
(-0.00777654 -0.0146521 -1.81558e-19)
(-0.0123354 -0.0167149 3.83122e-19)
(-0.0170854 -0.0183738 -1.24727e-19)
(-0.0217748 -0.0198113 1.8249e-19)
(-0.0262212 -0.0211608 1.67797e-19)
(-0.0302984 -0.0225129 -1.39519e-19)
(-0.0339229 -0.0239215 -2.03371e-19)
(-0.0370436 -0.0254091 5.57953e-20)
(-0.039634 -0.0269725 -5.89187e-20)
(-0.0416879 -0.0285889 -2.61043e-19)
(-0.0432146 -0.0302205 3.16863e-19)
(-0.0442367 -0.03182 -1.52025e-19)
(-0.0447882 -0.0333347 -1.04919e-19)
(-0.0449126 -0.0347112 6.05225e-22)
(-0.044662 -0.0358992 8.51104e-20)
(-0.0440955 -0.0368557 3.51642e-20)
(-0.0432776 -0.0375489 -1.38313e-19)
(-0.0422799 -0.0379612 1.56186e-19)
(-0.0411762 -0.0380921 -2.72627e-19)
(-0.0400038 -0.0379513 1.65881e-19)
(-0.0387448 -0.0375585 -1.26775e-19)
(-0.0376982 -0.0370242 3.6167e-20)
(0.000105744 -0.00241426 1.43788e-19)
(-0.00121698 -0.00579348 -1.14873e-19)
(-0.00452282 -0.00842769 -7.37385e-20)
(-0.00883923 -0.0105073 -1.30868e-19)
(-0.0136293 -0.0122311 -2.40898e-19)
(-0.0185606 -0.0137757 -1.79053e-19)
(-0.0233804 -0.0152736 1.11761e-19)
(-0.0279064 -0.0168195 -1.7006e-19)
(-0.0320132 -0.0184737 2.1678e-19)
(-0.0356176 -0.0202662 -3.53875e-19)
(-0.0386683 -0.0222 1.57511e-19)
(-0.0411382 -0.0242556 3.33309e-19)
(-0.0430194 -0.0263955 -4.6903e-19)
(-0.0443191 -0.0285681 6.70214e-20)
(-0.045058 -0.0307119 8.69393e-20)
(-0.0452679 -0.0327596 8.42017e-20)
(-0.0449912 -0.0346422 -9.14357e-20)
(-0.0442803 -0.0362935 -2.31049e-20)
(-0.0431957 -0.0376538 -6.63815e-20)
(-0.0418063 -0.0386753 -5.56617e-20)
(-0.0401898 -0.0393262 -3.01997e-19)
(-0.038428 -0.0395944 -1.99035e-20)
(-0.0365706 -0.039482 2.95547e-21)
(-0.0346189 -0.0390059 -1.35942e-19)
(-0.032877 -0.0382894 1.46465e-19)
(-0.000134817 -0.00134442 3.98586e-21)
(-0.00186959 -0.00320125 4.7043e-20)
(-0.00554437 -0.0048241 4.91048e-20)
(-0.0101656 -0.00627605 2.90144e-20)
(-0.0151922 -0.00766647 2.4445e-19)
(-0.0202942 -0.00910545 2.30504e-19)
(-0.0252225 -0.0106744 -1.88496e-19)
(-0.0297983 -0.0124285 -5.72479e-20)
(-0.0338994 -0.0143985 -5.1238e-20)
(-0.037445 -0.0165916 2.65414e-19)
(-0.0403845 -0.0189929 9.50898e-20)
(-0.0426907 -0.0215684 -1.39632e-19)
(-0.0443543 -0.0242676 -1.17782e-19)
(-0.0453805 -0.0270263 2.84664e-19)
(-0.0457868 -0.0297703 -7.04301e-20)
(-0.0456026 -0.032418 -8.50884e-20)
(-0.0448681 -0.0348845 -1.18632e-19)
(-0.0436346 -0.0370856 -9.21338e-20)
(-0.0419642 -0.0389427 -1.17004e-19)
(-0.0399294 -0.0403875 -7.62102e-20)
(-0.0376148 -0.0413689 3.17236e-19)
(-0.0351121 -0.0418577 -1.5576e-19)
(-0.032485 -0.041842 1.04744e-19)
(-0.0297577 -0.0413313 -2.76228e-19)
(-0.0272521 -0.0404594 1.18741e-19)
(-0.000453242 -0.000247501 -1.28467e-19)
(-0.00269936 -0.000558501 -3.45985e-20)
(-0.00679416 -0.00116307 -2.7341e-19)
(-0.0117382 -0.00198857 -1.31648e-19)
(-0.016996 -0.00305018 -2.61871e-19)
(-0.0222468 -0.00438903 -2.74469e-20)
(-0.0272497 -0.00603405 1.41777e-19)
(-0.0318335 -0.00800131 -8.64331e-20)
(-0.0358818 -0.0102927 1.87412e-19)
(-0.0393179 -0.0128938 -4.56633e-19)
(-0.0420938 -0.0157741 -1.29524e-20)
(-0.0441828 -0.0188869 8.13002e-20)
(-0.0455747 -0.0221712 -1.03385e-19)
(-0.0462722 -0.0255526 9.37354e-20)
(-0.0462898 -0.0289456 -7.19058e-20)
(-0.0456534 -0.0322557 -1.53567e-19)
(-0.0443999 -0.0353823 2.79852e-19)
(-0.0425788 -0.0382225 1.72917e-19)
(-0.0402522 -0.0406754 -3.62956e-20)
(-0.0374962 -0.0426487 1.13138e-19)
(-0.0344025 -0.0440659 -2.23805e-19)
(-0.0310739 -0.044873 3.20988e-19)
(-0.0275903 -0.045036 -4.38351e-19)
(-0.0240035 -0.0445491 9.06143e-20)
(-0.0206672 -0.043553 -1.77045e-19)
(-0.000849134 0.000864989 6.92427e-21)
(-0.00370104 0.0021085 -1.17739e-19)
(-0.00825784 0.00252166 1.76676e-19)
(-0.0135316 0.00231886 3.64487e-19)
(-0.0190027 0.00158252 -5.80837e-21)
(-0.0243663 0.000342266 4.17283e-20)
(-0.0293956 -0.00137779 -1.58238e-19)
(-0.0339303 -0.00355484 7.47729e-20)
(-0.0378631 -0.00616285 5.14869e-19)
(-0.0411235 -0.00916786 -1.17369e-19)
(-0.0436675 -0.0125253 -1.38416e-19)
(-0.0454702 -0.0161788 5.25181e-19)
(-0.046521 -0.0200593 1.71042e-19)
(-0.0468208 -0.0240852 8.13347e-20)
(-0.0463808 -0.0281624 8.32765e-20)
(-0.0452224 -0.0321856 2.2793e-19)
(-0.0433789 -0.03604 -8.7242e-20)
(-0.0408963 -0.0396038 2.30339e-19)
(-0.037836 -0.0427525 3.10922e-19)
(-0.0342763 -0.0453653 -2.64897e-19)
(-0.0303161 -0.047334 3.92026e-19)
(-0.0260706 -0.048571 1.37787e-19)
(-0.0216378 -0.0490096 -5.25755e-19)
(-0.0171015 -0.048617 7.57909e-19)
(-0.0128655 -0.0475344 -6.43979e-19)
(-0.00132002 0.00197931 -3.24522e-19)
(-0.00486444 0.00476878 1.84414e-19)
(-0.00991406 0.00619038 -1.24482e-19)
(-0.0155112 0.0066034 -1.19295e-19)
(-0.0211631 0.00618965 -1.29062e-19)
(-0.0265881 0.00505046 -1.41004e-19)
(-0.0315783 0.0032631 3.90758e-20)
(-0.0359889 0.000888694 3.70863e-19)
(-0.039724 -0.00201997 -8.01827e-20)
(-0.0427221 -0.0054109 -2.08496e-19)
(-0.0449449 -0.00922794 -1.27423e-19)
(-0.0463706 -0.0134073 -5.23558e-20)
(-0.0469895 -0.0178754 1.53972e-19)
(-0.0468012 -0.0225464 -9.9153e-20)
(-0.0458139 -0.0273217 -3.22608e-19)
(-0.0440449 -0.0320885 -3.55095e-19)
(-0.0415226 -0.0367205 1.41679e-19)
(-0.038289 -0.0410785 -2.62864e-19)
(-0.0344029 -0.0450143 2.26294e-19)
(-0.0299441 -0.0483758 -6.41137e-19)
(-0.0250182 -0.0510167 4.90083e-19)
(-0.0197531 -0.0528065 -6.4557e-19)
(-0.0142666 -0.053632 -1.0633e-20)
(-0.00867936 -0.0534181 -2.13832e-19)
(-0.00346699 -0.0522961 6.62652e-19)
(-0.00186108 0.00307973 4.97569e-19)
(-0.00617405 0.00738703 7.56902e-20)
(-0.0117342 0.00979768 -4.99843e-20)
(-0.0176338 0.0108156 -2.14168e-20)
(-0.0234179 0.0107219 3.98883e-19)
(-0.028835 0.00968981 1.30284e-19)
(-0.0337015 0.00784929 1.18561e-19)
(-0.0378915 0.00529908 -9.59319e-20)
(-0.041324 0.00211765 3.71101e-19)
(-0.0439482 -0.0016265 -1.83176e-19)
(-0.0457338 -0.00586754 1.18894e-19)
(-0.0466638 -0.010537 3.01809e-19)
(-0.0467309 -0.0155597 -1.71496e-19)
(-0.0459346 -0.0208497 1.85534e-19)
(-0.0442812 -0.0263078 1.75334e-19)
(-0.0417842 -0.0318187 6.01011e-20)
(-0.0384674 -0.0372486 -1.46645e-19)
(-0.034368 -0.0424451 4.073e-19)
(-0.0295414 -0.047238 -3.76046e-20)
(-0.0240672 -0.0514432 -4.19126e-20)
(-0.0180567 -0.0548721 4.82591e-19)
(-0.011651 -0.0573417 -3.40425e-19)
(-0.00498853 -0.0586769 5.72275e-19)
(0.00176986 -0.0587398 -4.70738e-19)
(0.00804971 -0.0576373 6.38284e-19)
(-0.00246502 0.00414892 -2.39673e-19)
(-0.00760886 0.00992433 5.51131e-20)
(-0.0136825 0.0132931 -5.77394e-20)
(-0.0198477 0.0148996 -2.76733e-19)
(-0.0256981 0.0151227 1.61072e-20)
(-0.031019 0.0142061 1.59071e-19)
(-0.0356557 0.0123319 -6.51056e-19)
(-0.0395049 0.00963566 4.87936e-19)
(-0.0425031 0.00622057 -4.77062e-19)
(-0.0446129 0.00217054 -3.01811e-19)
(-0.0458134 -0.00244053 2.71242e-19)
(-0.0460946 -0.0075416 -5.87595e-19)
(-0.0454534 -0.0130587 4.95848e-19)
(-0.0438912 -0.0189095 -1.58331e-19)
(-0.0414139 -0.024999 -4.5061e-19)
(-0.0380328 -0.0312144 1.11208e-19)
(-0.0337681 -0.037421 -1.04736e-19)
(-0.0286524 -0.0434591 3.84237e-20)
(-0.0227373 -0.0491413 -1.40847e-19)
(-0.016101 -0.0542546 -4.6155e-19)
(-0.00885933 -0.0585667 1.04031e-19)
(-0.00116596 -0.0618349 -1.30534e-22)
(0.0068203 -0.0638064 -4.6681e-19)
(0.0148966 -0.0642554 3.28405e-19)
(0.0223577 -0.063244 -2.97104e-19)
(-0.00312203 0.0051686 9.68555e-20)
(-0.00914249 0.0123394 1.85214e-19)
(-0.0157164 0.0166224 2.61512e-19)
(-0.0220936 0.0187945 1.35261e-19)
(-0.0279263 0.0193282 -1.33628e-19)
(-0.0330423 0.0185363 3.20519e-19)
(-0.0373203 0.0166515 2.38387e-19)
(-0.0406829 0.0138453 -8.74268e-20)
(-0.0430862 0.0102451 3.12432e-19)
(-0.0445081 0.00594939 -3.2266e-19)
(-0.0449394 0.00103944 -9.4866e-20)
(-0.044379 -0.00441251 9.66476e-20)
(-0.0428299 -0.0103358 1.91408e-19)
(-0.0402978 -0.0166548 2.37018e-21)
(-0.0367908 -0.0232828 1.21002e-19)
(-0.0323206 -0.0301155 2.22981e-19)
(-0.0269058 -0.0370243 -3.79595e-19)
(-0.0205765 -0.0438501 4.71208e-19)
(-0.0133807 -0.0503975 1.573e-19)
(-0.00539497 -0.0564314 5.35701e-20)
(0.00326162 -0.0616799 -5.65125e-19)
(0.0124236 -0.065838 8.06449e-20)
(0.0219137 -0.0685621 1.23295e-19)
(0.0314888 -0.0695093 -2.83204e-20)
(0.0402764 -0.0686724 1.45395e-19)
(-0.00382003 0.00612033 7.49584e-21)
(-0.0107437 0.01459 -4.77064e-19)
(-0.0177872 0.019729 -1.22133e-20)
(-0.0243057 0.0224351 -1.22055e-19)
(-0.0300181 0.023269 -8.07366e-19)
(-0.0348 0.0226094 7.01035e-19)
(-0.0385669 0.020738 -5.01431e-19)
(-0.04127 0.0178614 -2.54594e-20)
(-0.0428871 0.0141308 -2.38831e-19)
(-0.043413 0.00965944 4.14337e-19)
(-0.0428519 0.00453567 -4.47319e-19)
(-0.0412131 -0.00116726 -2.09825e-19)
(-0.0385084 -0.00738284 4.57043e-21)
(-0.0347505 -0.0140439 -4.54549e-19)
(-0.0299528 -0.0210752 6.21179e-19)
(-0.0241312 -0.0283858 -7.18752e-19)
(-0.0173062 -0.0358606 2.02894e-21)
(-0.00950862 -0.0433506 1.10446e-19)
(-0.000785665 -0.0506636 -2.73293e-19)
(0.00878701 -0.0575552 2.63174e-19)
(0.0190875 -0.0637243 -3.7484e-19)
(0.0299395 -0.0688098 -2.44727e-19)
(0.0411509 -0.0723694 4.53548e-19)
(0.0524453 -0.0739151 -4.92637e-19)
(0.0627442 -0.0733416 -9.01051e-21)
(-0.00454502 0.0069864 -3.88319e-19)
(-0.0123771 0.0166347 4.62948e-19)
(-0.0198418 0.0225561 -1.44016e-19)
(-0.026413 0.0257545 2.79093e-19)
(-0.0318839 0.0268713 3.02957e-19)
(-0.0361816 0.0263476 -2.68379e-19)
(-0.0392616 0.0245117 -1.78648e-19)
(-0.0411052 0.0216045 -2.15017e-19)
(-0.0417138 0.0178006 1.97739e-19)
(-0.0411001 0.0132286 -1.3229e-20)
(-0.039283 0.00798493 2.90108e-19)
(-0.0362842 0.0021446 2.86603e-19)
(-0.0321263 -0.00422934 -3.42476e-19)
(-0.0268318 -0.0110781 6.7385e-19)
(-0.0204235 -0.0183392 -4.46843e-19)
(-0.0129256 -0.0259382 -7.60697e-20)
(-0.00436621 -0.033779 8.68948e-19)
(0.00521824 -0.0417323 -4.03007e-19)
(0.0157765 -0.0496221 2.54442e-19)
(0.0272307 -0.057211 4.95151e-19)
(0.0394547 -0.0641875 -3.21421e-19)
(0.0522622 -0.0701505 3.43596e-20)
(0.0654507 -0.0745642 -2.11302e-20)
(0.0787251 -0.0767719 -1.27718e-19)
(0.0907643 -0.076543 2.55189e-19)
(-0.00528162 0.00775083 8.86154e-20)
(-0.0140043 0.0184349 -2.93224e-19)
(-0.0218229 0.0250492 1.61347e-19)
(-0.0283408 0.0286864 -2.03385e-21)
(-0.0334304 0.0300601 1.23193e-19)
(-0.0370733 0.0296692 -2.1322e-19)
(-0.0392671 0.0278861 1.22671e-19)
(-0.040025 0.0249844 3.35637e-19)
(-0.0393723 0.0211625 -1.01558e-20)
(-0.037341 0.0165651 -1.72707e-19)
(-0.0339655 0.0112979 1.74234e-19)
(-0.0292812 0.00544002 -4.22683e-21)
(-0.0233235 -0.000946789 -5.54006e-19)
(-0.016128 -0.0078101 2.06188e-19)
(-0.00773079 -0.0150989 4.57947e-20)
(0.00183035 -0.0227556 -7.99167e-20)
(0.0125134 -0.0307057 -1.41366e-19)
(0.024269 -0.0388464 5.46309e-19)
(0.0370345 -0.04703 1.32147e-19)
(0.0507236 -0.0550441 -2.83783e-19)
(0.0652023 -0.062592 -3.31152e-20)
(0.0802723 -0.069261 3.84972e-19)
(0.0957261 -0.0744434 -1.80421e-19)
(0.111273 -0.0773051 7.5763e-20)
(0.125325 -0.0774698 5.42808e-20)
(-0.00601374 0.00840023 -1.77527e-19)
(-0.0155849 0.0199568 1.83381e-19)
(-0.0236709 0.0271583 -1.04125e-19)
(-0.0300114 0.0311681 -3.36547e-19)
(-0.0345613 0.0327625 -3.11904e-19)
(-0.0373587 0.0324927 -1.38827e-19)
(-0.0384444 0.0307721 -1.15662e-19)
(-0.0378645 0.0279056 -3.43706e-19)
(-0.0356692 0.0241152 -1.39402e-19)
(-0.0319098 0.0195624 1.27497e-19)
(-0.0266372 0.0143645 -1.82801e-19)
(-0.0199017 0.00860743 -1.93723e-19)
(-0.0117535 0.00235488 -1.81993e-19)
(-0.00224392 -0.00434313 3.30236e-19)
(0.00857351 -0.0114432 -6.95943e-19)
(0.0206415 -0.0189012 3.96313e-19)
(0.0338971 -0.0266634 -6.79073e-19)
(0.0482687 -0.0346549 -1.04306e-19)
(0.0636727 -0.0427641 -3.70654e-19)
(0.0800044 -0.05082 -8.57961e-20)
(0.0971141 -0.0585665 -1.05209e-19)
(0.114787 -0.0656186 -3.47707e-19)
(0.132812 -0.0713387 -3.62565e-20)
(0.150936 -0.0747293 2.09143e-19)
(0.167306 -0.0752662 -5.65184e-19)
(-0.00672524 0.00892448 1.52197e-19)
(-0.0170775 0.0211726 2.06776e-19)
(-0.0253246 0.0288407 7.30233e-19)
(-0.0313449 0.0331438 -1.2907e-19)
(-0.0351777 0.0349113 3.09191e-19)
(-0.0369183 0.0347411 7.41191e-19)
(-0.0366518 0.0330838 -2.03072e-19)
(-0.0344574 0.0302737 2.76265e-19)
(-0.0304108 0.0265558 1.61895e-19)
(-0.0245831 0.0221094 2.94512e-19)
(-0.0170422 0.0170653 -5.92326e-20)
(-0.00785444 0.0115189 4.01423e-20)
(0.00291318 0.0055403 -1.03489e-19)
(0.0151908 -0.000817987 5.64015e-19)
(0.0289032 -0.00751428 7.26851e-20)
(0.0439681 -0.0145116 5.2334e-19)
(0.0602934 -0.0217707 -1.33405e-19)
(0.0777757 -0.029241 4.77253e-19)
(0.0962979 -0.036847 6.59672e-20)
(0.115723 -0.0444675 2.40551e-19)
(0.135873 -0.0519088 -1.02856e-19)
(0.156505 -0.0588548 -1.55472e-20)
(0.177401 -0.0646982 5.64011e-19)
(0.198386 -0.0683231 3.41077e-19)
(0.217385 -0.0690851 -1.48293e-19)
(-0.00740056 0.0093172 -3.6907e-19)
(-0.018441 0.0220623 -3.88636e-19)
(-0.0267215 0.0300624 -4.09327e-19)
(-0.0322589 0.0345672 1.50943e-19)
(-0.0351768 0.0364494 -3.05291e-19)
(-0.035628 0.0363475 -4.57824e-20)
(-0.0337423 0.0347453 -1.21291e-19)
(-0.0296325 0.032004 -5.05611e-19)
(-0.0233997 0.0283908 -7.92643e-20)
(-0.0151357 0.024103 1.30789e-19)
(-0.00492632 0.0192863 -4.11662e-19)
(0.00714476 0.0140486 5.72406e-19)
(0.0209918 0.00847003 -7.79002e-19)
(0.0365231 0.00261119 1.87724e-19)
(0.0536381 -0.00348115 -4.78473e-19)
(0.0722231 -0.00976885 -3.87867e-19)
(0.0921497 -0.0162176 -2.1705e-20)
(0.113272 -0.022791 -5.79115e-20)
(0.135426 -0.029441 4.68327e-20)
(0.158425 -0.0360927 -2.19186e-19)
(0.182045 -0.0426234 -1.51007e-19)
(0.205995 -0.0488175 1.84011e-19)
(0.230033 -0.0541676 -5.06874e-19)
(0.254097 -0.0575167 1.63998e-19)
(0.276005 -0.0581642 1.16156e-19)
(-0.00802518 0.00957588 -6.55021e-20)
(-0.0196346 0.0226137 -1.12877e-19)
(-0.027798 0.0308006 4.41683e-19)
(-0.0326677 0.0354049 1.65444e-19)
(-0.0344504 0.0373338 2.20408e-19)
(-0.0333565 0.0372605 -2.96095e-19)
(-0.0295602 0.0356978 4.84757e-22)
(-0.0232085 0.0330309 -2.42197e-19)
(-0.0144287 0.0295474 4.49716e-19)
(-0.00333388 0.0254625 1.47363e-19)
(0.00997071 0.0209374 1.65704e-19)
(0.0253819 0.0160943 -6.61936e-19)
(0.0427926 0.0110269 8.18056e-19)
(0.0620861 0.00580817 -2.4664e-19)
(0.0831316 0.000496529 -1.76438e-19)
(0.105779 -0.00486007 5.28447e-19)
(0.129856 -0.0102209 2.34969e-19)
(0.155165 -0.0155493 -5.95778e-19)
(0.18148 -0.0208085 -2.46603e-19)
(0.20855 -0.0259533 7.46107e-19)
(0.236081 -0.0309205 -5.66662e-19)
(0.263706 -0.0356054 3.40137e-19)
(0.291119 -0.0396617 1.86802e-19)
(0.318388 -0.0419905 -2.40398e-19)
(0.343417 -0.0419131 -2.34051e-19)
(-0.00858581 0.00970157 -2.40912e-19)
(-0.020618 0.0228233 3.88588e-19)
(-0.0284886 0.0310436 1.66789e-19)
(-0.0324805 0.0356376 -2.4249e-19)
(-0.0328824 0.0375387 -3.90132e-20)
(-0.0299612 0.0374494 -2.57457e-19)
(-0.023936 0.0359065 -1.03173e-19)
(-0.0149885 0.0333162 1.16426e-19)
(-0.00327326 0.0299846 -2.91994e-20)
(0.0110733 0.0261433 2.2171e-19)
(0.0279243 0.0219691 -1.9324e-19)
(0.047154 0.017599 5.36511e-19)
(0.0686301 0.0131417 -6.66575e-19)
(0.0922068 0.00868563 4.17003e-19)
(0.117718 0.00430552 5.18155e-19)
(0.144972 6.63532e-05 -7.4949e-19)
(0.173746 -0.00397374 -2.27498e-19)
(0.203783 -0.00776209 3.83797e-19)
(0.234785 -0.0112504 -2.36452e-19)
(0.266415 -0.014393 2.2647e-19)
(0.298285 -0.017151 -5.48512e-19)
(0.329914 -0.0195034 9.23587e-20)
(0.360865 -0.0212853 3.5208e-19)
(0.391315 -0.021516 -5.61749e-19)
(0.419545 -0.0195861 1.58511e-19)
(-0.00907025 0.00969837 -2.22817e-19)
(-0.0213512 0.0226948 7.24964e-19)
(-0.0287248 0.030792 1.4022e-19)
(-0.0315999 0.0352622 -3.81456e-19)
(-0.0303453 0.0370588 2.75017e-19)
(-0.0252843 0.0369078 1.40591e-19)
(-0.0166813 0.035366 2.25765e-19)
(-0.00475386 0.0328571 -1.4745e-20)
(0.0103141 0.0297028 -2.36587e-20)
(0.0283597 0.0261492 -4.98752e-20)
(0.0492305 0.0223871 -2.18766e-19)
(0.0727732 0.0185674 -7.24851e-21)
(0.0988247 0.0148131 5.14476e-19)
(0.127204 0.0112284 -8.44766e-19)
(0.157705 0.00790529 6.02709e-19)
(0.19009 0.00492942 1.22307e-19)
(0.224083 0.0023838 2.16173e-19)
(0.259363 0.000351839 -1.09733e-19)
(0.295561 -0.00108032 9.81316e-19)
(0.332244 -0.00182192 -6.06365e-19)
(0.368899 -0.00178819 4.82287e-19)
(0.404867 -0.000940971 1.1177e-19)
(0.439448 0.000837802 -3.4847e-19)
(0.472733 0.00458613 2.9393e-19)
(0.503614 0.0107837 4.57369e-19)
(-0.00946703 0.00957268 -6.47462e-20)
(-0.0217928 0.0222389 -2.55573e-19)
(-0.0284332 0.0300576 -4.39904e-19)
(-0.0299191 0.0342921 -2.5238e-19)
(-0.026698 0.0359101 -3.54906e-20)
(-0.01915 0.0356569 -1.00854e-19)
(-0.00758576 0.0341049 -4.70538e-19)
(0.00773891 0.0316914 7.83373e-20)
(0.0266068 0.0287504 -5.34067e-19)
(0.0488237 0.0255398 -4.16238e-20)
(0.0742044 0.0222614 -5.16294e-19)
(0.10256 0.0190769 -1.84392e-19)
(0.133689 0.0161199 1.06035e-19)
(0.167366 0.013506 -5.06215e-19)
(0.203337 0.01134 4.735e-21)
(0.241315 0.00972367 -4.36583e-19)
(0.280975 0.00876169 1.68307e-19)
(0.32195 0.00856977 -6.08346e-19)
(0.363825 0.00928428 -1.03229e-19)
(0.406129 0.0110755 -1.34144e-20)
(0.448296 0.0141523 -1.01491e-19)
(0.489568 0.0187474 -1.04072e-19)
(0.52898 0.0253251 -5.26529e-20)
(0.565922 0.0355195 -2.05191e-19)
(0.598202 0.0493169 -4.40595e-19)
(-0.00976473 0.00933229 1.18254e-19)
(-0.0218995 0.0214713 3.24e-19)
(-0.0275341 0.0288627 3.92195e-19)
(-0.0273199 0.0327564 -3.15422e-19)
(-0.0217832 0.0341309 5.89273e-19)
(-0.0113618 0.0337466 -3.21756e-19)
(0.00358476 0.0321873 1.7575e-19)
(0.0227582 0.0298997 2.75572e-19)
(0.0459019 0.027227 2.51932e-19)
(0.0727815 0.0244345 1.23053e-19)
(0.103168 0.0217306 1.99592e-19)
(0.136826 0.019282 1.16542e-19)
(0.173497 0.0172262 7.88689e-19)
(0.2129 0.0156808 -5.74198e-19)
(0.25472 0.0147514 6.56534e-19)
(0.298611 0.0145391 -2.72512e-19)
(0.344197 0.0151487 5.8809e-19)
(0.391076 0.0166984 -2.89268e-20)
(0.438837 0.0193351 -1.21775e-19)
(0.487064 0.0232568 -2.09323e-20)
(0.535361 0.0287436 4.54656e-19)
(0.583371 0.0362387 -4.38641e-19)
(0.631006 0.0467691 3.09783e-19)
(0.6786 0.0624178 3.33768e-19)
(0.721124 0.0796637 6.65263e-20)
(-0.00995098 0.00898536 8.1833e-20)
(-0.0216236 0.0204117 -4.63223e-19)
(-0.0259395 0.0272384 -1.69422e-19)
(-0.0236716 0.0306997 1.55949e-19)
(-0.0154268 0.0317814 -4.82871e-19)
(-0.00170341 0.0312554 -9.58038e-20)
(0.0170855 0.029713 6.68506e-20)
(0.0405924 0.0276064 2.65641e-19)
(0.0685111 0.0252831 -6.75339e-19)
(0.100554 0.0230111 5.15932e-20)
(0.136432 0.0209993 -1.99144e-19)
(0.175841 0.0194119 -6.06754e-19)
(0.21845 0.0183804 4.1451e-19)
(0.263894 0.0180119 1.78765e-20)
(0.311776 0.0183961 -1.25054e-20)
(0.361665 0.0196114 4.18463e-19)
(0.413112 0.0217309 -7.39358e-19)
(0.465656 0.0248283 5.8415e-19)
(0.51885 0.028985 -1.09477e-19)
(0.572283 0.0342969 3.34099e-19)
(0.625613 0.0408772 -5.52957e-19)
(0.678608 0.048875 3.11638e-19)
(0.731337 0.0586668 -5.52989e-19)
(0.784287 0.0710026 5.59775e-19)
(0.832257 0.0820536 -1.81682e-19)
(-0.0100114 0.00853978 5.49764e-19)
(-0.0209118 0.0190822 -9.29e-20)
(-0.0235514 0.0252236 6.8995e-19)
(-0.01883 0.0281803 3.21592e-19)
(-0.00743863 0.028942 2.61145e-20)
(0.0100584 0.0282891 1.42087e-19)
(0.0331871 0.026816 3.45001e-20)
(0.0615396 0.0249761 5.85299e-19)
(0.0947449 0.0231157 1.89464e-19)
(0.132443 0.0214996 -2.55123e-20)
(0.174262 0.0203291 5.1463e-20)
(0.219804 0.0197572 1.98381e-19)
(0.268633 0.019898 1.65748e-19)
(0.320275 0.0208346 3.54498e-19)
(0.374218 0.0226253 -4.05538e-19)
(0.429919 0.0253083 1.21883e-19)
(0.486823 0.0289053 3.80184e-20)
(0.544378 0.0334253 1.80247e-19)
(0.602059 0.0388658 4.83237e-19)
(0.659391 0.0452121 -3.18498e-19)
(0.715977 0.05243 2.40264e-20)
(0.771516 0.0604549 -4.36959e-19)
(0.825882 0.0692811 4.07516e-19)
(0.879223 0.0792483 -3.87243e-19)
(0.927105 0.0881653 4.29964e-20)
(-0.00992873 0.00800275 -4.58465e-19)
(-0.0197036 0.0175064 3.63739e-19)
(-0.0202617 0.0228638 -5.96089e-19)
(-0.012638 0.0252686 5.17108e-20)
(0.00238473 0.0257117 4.24983e-19)
(0.0241682 0.0249778 -7.12022e-19)
(0.0521656 0.0236604 5.68082e-19)
(0.0858922 0.0222082 -9.05829e-19)
(0.124891 0.0209603 1.81293e-19)
(0.168705 0.0201698 3.89364e-20)
(0.216847 0.0200218 3.07949e-19)
(0.268795 0.0206463 -1.02703e-18)
(0.323976 0.0221279 1.7813e-19)
(0.381771 0.0245122 1.88555e-19)
(0.441526 0.0278125 -1.12911e-19)
(0.502561 0.0320134 -6.98901e-19)
(0.564196 0.0370754 3.30813e-19)
(0.625769 0.0429373 6.12875e-19)
(0.686665 0.0495172 -6.43267e-19)
(0.746334 0.0567116 4.64406e-19)
(0.804312 0.0643891 -5.94934e-19)
(0.860226 0.0723786 4.30715e-19)
(0.913817 0.0805219 -1.15653e-19)
(0.965035 0.0890442 6.59949e-19)
(1.01054 0.097071 -7.51267e-19)
(-0.0096822 0.00738063 6.551e-20)
(-0.0179306 0.0157096 5.36636e-20)
(-0.0159516 0.02021 1.32099e-19)
(-0.00492823 0.0220464 4.75282e-19)
(0.0142551 0.0222059 -1.50784e-20)
(0.0408729 0.0214735 1.07384e-19)
(0.0742884 0.0204358 4.81328e-19)
(0.113918 0.0195303 1.9525e-19)
(0.15919 0.0190802 -6.46834e-20)
(0.209514 0.0193173 5.52454e-19)
(0.264259 0.0203984 -6.31183e-19)
(0.322737 0.0224178 9.71444e-19)
(0.384203 0.0254163 -3.86332e-19)
(0.447868 0.0293889 7.01273e-19)
(0.512912 0.0342915 -2.3747e-19)
(0.578507 0.0400466 8.65077e-20)
(0.643845 0.0465491 1.04798e-19)
(0.708168 0.0536711 -1.99573e-19)
(0.770786 0.0612653 1.6834e-19)
(0.831107 0.0691669 1.07687e-19)
(0.888641 0.0771926 1.46632e-19)
(0.943009 0.0851356 3.05329e-19)
(0.993933 0.092797 -2.9086e-20)
(1.04133 0.100342 -1.3898e-19)
(1.083 0.10783 4.05409e-19)
(-0.0092468 0.00667906 -3.83019e-19)
(-0.0155164 0.013718 4.20033e-20)
(-0.0104935 0.0173187 -7.60607e-19)
(0.0044741 0.0186054 -1.82772e-19)
(0.0283857 0.0185545 -3.44626e-19)
(0.0604106 0.0179458 -7.42313e-20)
(0.0997983 0.0173518 -3.73305e-19)
(0.145835 0.0171894 -2.24383e-19)
(0.1978 0.0177553 2.98264e-19)
(0.254933 0.0192467 -5.00055e-19)
(0.316412 0.0217781 -1.39452e-19)
(0.38135 0.0253927 5.3303e-21)
(0.448803 0.0300728 -9.46043e-19)
(0.517789 0.0357495 4.02744e-19)
(0.587315 0.0423112 -5.87631e-19)
(0.656414 0.0496133 -1.79025e-20)
(0.724174 0.0574864 1.14395e-19)
(0.789772 0.0657448 -1.87972e-19)
(0.852499 0.074193 -1.64045e-19)
(0.911774 0.0826317 7.96961e-20)
(0.967158 0.0908605 8.81173e-20)
(1.01834 0.098679 -5.73496e-19)
(1.06513 0.105902 3.26455e-19)
(1.10752 0.112662 1.59428e-19)
(1.14428 0.119593 3.91423e-20)
(-0.00859329 0.00590356 3.91535e-19)
(-0.0123766 0.0115605 -4.33267e-19)
(-0.00375297 0.0142524 6.12258e-19)
(0.0157458 0.0150467 9.61943e-20)
(0.0449828 0.0149002 -2.96044e-20)
(0.0829977 0.0145793 -2.09551e-19)
(0.128895 0.0146321 3.1716e-20)
(0.181792 0.0154433 3.22383e-19)
(0.240777 0.0172686 -4.46841e-19)
(0.304875 0.020255 4.713e-19)
(0.373035 0.024457 -4.9983e-20)
(0.444138 0.0298499 2.2759e-20)
(0.517019 0.0363425 6.17555e-19)
(0.590501 0.04379 8.271e-19)
(0.663434 0.0520072 -3.24874e-19)
(0.73474 0.0607816 5.73271e-19)
(0.803454 0.0698862 2.88441e-19)
(0.868748 0.0790911 -1.78311e-19)
(0.92996 0.0881729 5.57017e-19)
(0.9866 0.0969221 -2.45722e-20)
(1.03835 0.105149 -5.30066e-19)
(1.08505 0.112684 5.54128e-19)
(1.12666 0.119385 7.61291e-20)
(1.16332 0.125372 -3.36822e-19)
(1.19455 0.131584 1.0681e-19)
(-0.00768843 0.00506027 -5.44261e-19)
(-0.00842098 0.00926922 5.90515e-19)
(0.00440799 0.01108 -3.77244e-19)
(0.0290595 0.0114813 -1.18288e-19)
(0.0642357 0.0113971 -2.67109e-19)
(0.108815 0.0115692 4.7526e-19)
(0.161715 0.0125085 -2.7728e-19)
(0.221843 0.0145514 -1.2774e-19)
(0.288046 0.0178945 -3.67143e-19)
(0.359089 0.0226153 9.65264e-21)
(0.433657 0.028689 -1.44892e-19)
(0.510378 0.0360053 7.02799e-20)
(0.587863 0.0443857 -7.44278e-19)
(0.664758 0.0536014 2.12842e-19)
(0.739796 0.0633919 -2.5596e-19)
(0.811847 0.073483 -2.05223e-19)
(0.879957 0.0836027 6.30066e-20)
(0.943374 0.0934956 -2.97929e-19)
(1.00156 0.102933 -1.25397e-19)
(1.05419 0.111719 3.66297e-19)
(1.10113 0.119696 1.5214e-19)
(1.14243 0.126745 -6.49336e-19)
(1.17825 0.132779 4.73465e-19)
(1.20891 0.137932 -8.91851e-20)
(1.23442 0.14324 -1.8266e-19)
(-0.00649561 0.00415687 -1.97971e-19)
(-0.00355494 0.00688165 -1.09879e-19)
(0.0141265 0.00787887 -2.19598e-20)
(0.0445771 0.00803012 1.63481e-19)