/*--------------------------------*- C++ -*----------------------------------*\
  =========                 |
  \\      /  F ield         | OpenFOAM: The Open Source CFD Toolbox
   \\    /   O peration     | Website:  https://openfoam.org
    \\  /    A nd           | Version:  6.0
     \\/     M anipulation  |
\*---------------------------------------------------------------------------*/
FoamFile
{
    version     2.0;
    format      ascii;
    class       volVectorField;
    location    "54";
    object      U;
}
// * * * * * * * * * * * * * * * * * * * * * * * * * * * * * * * * * * * * * //

dimensions      [0 1 -1 0 0 0 0];

internalField   nonuniform List<vector> 
8000
(
(-0.000381462 -0.000459048 -3.28382e-21)
(-0.00217309 -0.000689853 1.75472e-20)
(-0.00552718 -0.000497655 -2.13375e-20)
(-0.0096561 -4.71579e-05 1.62454e-20)
(-0.0141394 0.000542249 7.90897e-21)
(-0.0187337 0.0011886 -2.37431e-20)
(-0.0232647 0.00183945 -2.09918e-21)
(-0.0276197 0.00246393 -7.46618e-22)
(-0.0317371 0.00304644 -1.23126e-20)
(-0.0355931 0.00358173 -6.66938e-21)
(-0.0391915 0.00407124 4.97644e-21)
(-0.0425565 0.00452026 1.89215e-20)
(-0.0457264 0.00493607 -1.4224e-21)
(-0.0487481 0.00532659 2.01928e-21)
(-0.0516736 0.0056996 -1.90392e-20)
(-0.0545632 0.00606227 1.1727e-20)
(-0.0574776 0.00642117 -1.68018e-20)
(-0.0604103 0.00678347 2.54138e-20)
(-0.0632657 0.00715633 -2.8143e-23)
(-0.0665163 0.00753562 5.47208e-21)
(-0.000417976 0.000461424 1.08943e-20)
(-0.00227928 0.00161863 -5.56302e-20)
(-0.00568751 0.00278849 -3.84081e-20)
(-0.009852 0.00389031 -2.60864e-20)
(-0.0143509 0.00487387 -3.35388e-20)
(-0.0189408 0.00571619 7.41325e-21)
(-0.0234479 0.00641674 -3.87067e-20)
(-0.0277608 0.00698947 -8.68888e-21)
(-0.0318189 0.00745705 2.75887e-21)
(-0.0355993 0.00784672 2.89505e-20)
(-0.039107 0.00818725 -3.15424e-20)
(-0.0423669 0.00850661 4.38599e-20)
(-0.0454181 0.00883042 -3.28274e-20)
(-0.0483083 0.00918094 -3.89163e-20)
(-0.0510906 0.00957635 -5.36182e-20)
(-0.0538261 0.0100302 3.42495e-20)
(-0.0565768 0.0105519 -1.10409e-20)
(-0.0593383 0.01115 -4.02817e-20)
(-0.0620162 0.0118345 3.81005e-20)
(-0.065077 0.0125813 -2.8197e-20)
(-0.000528631 0.00137542 1.06309e-19)
(-0.00257419 0.00390505 5.50504e-20)
(-0.00612077 0.0060357 6.18945e-20)
(-0.0103769 0.00777164 5.14228e-21)
(-0.0149225 0.00913247 3.41987e-20)
(-0.0195167 0.0101542 4.27423e-20)
(-0.0239896 0.010888 -7.74948e-20)
(-0.0282327 0.0113923 -4.10633e-20)
(-0.0321884 0.0117275 -5.33925e-20)
(-0.0358366 0.0119531 5.70967e-20)
(-0.0391841 0.012125 -4.35726e-20)
(-0.042258 0.0122939 -5.59656e-20)
(-0.0450993 0.0125041 -2.03191e-20)
(-0.047758 0.0127928 1.93531e-20)
(-0.0502896 0.013189 -5.37442e-21)
(-0.0527579 0.0137137 7.79273e-21)
(-0.0552286 0.0143794 8.97598e-20)
(-0.057701 0.0151971 -1.25909e-20)
(-0.0600823 0.0161799 -9.11596e-20)
(-0.0628368 0.0172841 1.19867e-19)
(-0.000713525 0.00228115 3.68874e-20)
(-0.00305752 0.00616207 -5.22593e-20)
(-0.00682621 0.00922972 -1.30973e-20)
(-0.0112297 0.0115753 2.44079e-20)
(-0.0158525 0.013289 6.9408e-20)
(-0.0204603 0.014466 1.52002e-19)
(-0.024889 0.0152086 1.48469e-19)
(-0.0290362 0.015619 1.2276e-20)
(-0.0328488 0.0157949 9.09893e-20)
(-0.0363105 0.0158275 1.39216e-19)
(-0.0394315 0.0157997 -1.11264e-19)
(-0.0422419 0.0157851 1.64598e-19)
(-0.0447857 0.0158475 -3.71105e-20)
(-0.047116 0.0160398 9.43472e-21)
(-0.0492925 0.0164036 3.88485e-20)
(-0.0513836 0.0169683 5.15592e-20)
(-0.0534604 0.0177513 -8.11254e-20)
(-0.0555287 0.0187673 -6.76234e-20)
(-0.0574974 0.0200337 -1.19699e-19)
(-0.0598333 0.0214873 1.73829e-19)
(-0.000973003 0.00317729 -1.92912e-20)
(-0.0037289 0.00838316 -1.97299e-19)
(-0.00780201 0.0123577 -5.83288e-20)
(-0.0124067 0.0152818 -1.42141e-19)
(-0.017136 0.0173174 5.36757e-20)
(-0.0217654 0.0186189 -8.47075e-20)
(-0.0261403 0.0193391 2.90163e-20)
(-0.030166 0.019623 -1.79272e-19)
(-0.0337964 0.0196045 9.44775e-20)
(-0.0370201 0.0194058 -1.12737e-19)
(-0.0398517 0.0191366 -1.00241e-19)
(-0.0423248 0.0188939 -1.12069e-19)
(-0.0444871 0.0187616 1.01749e-19)
(-0.0463962 0.0188099 -9.1175e-20)
(-0.0481166 0.0190952 1.2705e-19)
(-0.0497231 0.0196576 3.66792e-20)
(-0.051295 0.0205219 9.06988e-20)
(-0.0528462 0.0217083 3.98332e-20)
(-0.0542895 0.0232413 -1.57441e-19)
(-0.0560991 0.0250382 2.55794e-19)
(-0.00130762 0.00406279 8.47883e-20)
(-0.00458756 0.0105623 6.62162e-21)
(-0.00904447 0.0154077 3.49262e-20)
(-0.0139007 0.0188734 1.21929e-19)
(-0.0187624 0.0211948 -1.87555e-20)
(-0.0234188 0.022585 1.97866e-19)
(-0.0277281 0.0232467 8.7685e-20)
(-0.0316065 0.0233662 7.35127e-21)
(-0.0350162 0.0231122 2.25477e-19)
(-0.0379524 0.0226367 7.37999e-20)
(-0.0404345 0.0220757 3.49563e-20)
(-0.0425001 0.0215495 1.11112e-19)
(-0.0442011 0.0211633 1.0176e-19)
(-0.0455997 0.0210069 1.8562e-19)
(-0.0467664 0.0211537 -1.65892e-19)
(-0.0477839 0.0216583 2.34183e-19)
(-0.0487418 0.0225561 2.84114e-21)
(-0.0496651 0.0238767 -2.99056e-19)
(-0.0504725 0.0256553 3.87256e-19)
(-0.051653 0.0277905 1.60091e-19)
(-0.001718 0.00493644 -4.99912e-20)
(-0.00563175 0.0126933 -9.05549e-20)
(-0.0105469 0.0183681 -1.88558e-19)
(-0.0156992 0.0223338 -5.57576e-21)
(-0.0207128 0.0249009 3.20584e-20)
(-0.0253962 0.0263415 -2.40694e-19)
(-0.029624 0.0269063 -1.78496e-19)
(-0.0333262 0.0268212 -2.55612e-20)
(-0.0364755 0.0262876 -2.25628e-19)
(-0.0390747 0.0254857 -1.56086e-19)
(-0.0411486 0.0245763 -4.54831e-20)
(-0.0427392 0.023703 -1.46342e-19)
(-0.0439023 0.0229932 -2.40287e-21)
(-0.0447045 0.022558 -1.94066e-19)
(-0.045223 0.0224916 8.16149e-20)
(-0.0455492 0.0228675 -9.31114e-20)
(-0.0457853 0.0237368 7.10949e-20)
(-0.0459706 0.0251442 -9.06705e-20)
(-0.046033 0.0271409 -2.58453e-19)
(-0.0464858 0.029609 -7.84164e-20)
(-0.00220461 0.00579642 -1.82633e-20)
(-0.0068579 0.0147684 -1.98413e-20)
(-0.0122981 0.0212259 1.57973e-19)
(-0.0177815 0.0256465 -2.56865e-19)
(-0.0229574 0.0284177 3.771e-20)
(-0.0276584 0.02987 -1.48206e-19)
(-0.0317807 0.0303006 7.01443e-20)
(-0.0352711 0.0299724 3.14766e-19)
(-0.0381152 0.0291168 -2.02448e-20)
(-0.0403246 0.0279392 -2.34543e-19)
(-0.0419304 0.0266234 4.27785e-20)
(-0.0429785 0.0253351 8.27478e-21)
(-0.043528 0.024224 -4.78984e-20)
(-0.0436498 0.0234248 5.06569e-21)
(-0.0434269 0.023056 4.21673e-19)
(-0.0429605 0.0232154 -6.0224e-20)
(-0.042367 0.023977 -1.16847e-19)
(-0.0417029 0.0254083 -2.09256e-19)
(-0.0409106 0.0275861 2.13607e-19)
(-0.0405402 0.0303792 9.20015e-20)
(-0.00276729 0.00663958 9.26577e-20)
(-0.00825952 0.0167774 -1.2108e-19)
(-0.0142804 0.023966 1.71211e-19)
(-0.0201168 0.0287939 1.7226e-19)
(-0.025451 0.0317277 1.58835e-19)
(-0.0301465 0.0331559 3.2203e-19)
(-0.0341258 0.0334201 2.08123e-19)
(-0.0373566 0.0328167 -4.46974e-19)
(-0.0398398 0.0316037 2.28441e-19)
(-0.0415981 0.0300079 1.79073e-19)
(-0.0426689 0.0282328 -2.44459e-21)
(-0.0431023 0.0264639 2.00102e-19)
(-0.0429598 0.0248722 1.55815e-19)
(-0.0423152 0.0236169 -8.49291e-20)
(-0.0412564 0.0228442 2.86146e-19)
(-0.039894 0.0226826 -3.54735e-19)
(-0.0383599 0.0232376 1.41707e-19)
(-0.0367312 0.024611 1.82134e-19)
(-0.0349703 0.0269182 -4.25395e-20)
(-0.0336814 0.0300224 3.6511e-19)
(-0.00340469 0.0074608 1.85734e-19)
(-0.0098258 0.0187061 9.57684e-21)
(-0.016468 0.0265688 -6.67144e-20)
(-0.0226612 0.0317551 -7.05349e-20)
(-0.0281303 0.0348124 -3.26147e-19)
(-0.0327768 0.0361865 4.61108e-20)
(-0.0365553 0.0362608 1.3075e-19)
(-0.0394587 0.0353621 -6.27619e-20)
(-0.0415068 0.03377 5.17518e-20)
(-0.042735 0.0317285 -1.3861e-20)
(-0.0431887 0.0294559 -6.76179e-20)
(-0.0429221 0.0271531 6.40193e-20)
(-0.0419984 0.0250097 -2.78449e-19)
(-0.0404929 0.0232083 2.66772e-19)
(-0.0384965 0.021925 -2.30776e-19)
(-0.036128 0.0213247 7.13881e-20)
(-0.0335352 0.0215545 1.61744e-19)
(-0.0308178 0.0227655 -3.39338e-20)
(-0.0279651 0.025131 -1.12005e-19)
(-0.0256584 0.0285216 -7.59803e-20)
(-0.00411365 0.00825247 -2.31091e-19)
(-0.0115402 0.0205355 -1.52381e-20)
(-0.0188244 0.0290095 4.86593e-20)
(-0.025355 0.034504 1.25141e-19)
(-0.0309099 0.0376492 -1.76721e-19)
(-0.0354364 0.0389475 -1.54149e-19)
(-0.0389272 0.0388216 3.59602e-19)
(-0.0414057 0.0376247 -1.98704e-19)
(-0.0429141 0.0356536 -1.28071e-19)
(-0.0435038 0.0331635 -1.83533e-19)
(-0.0432301 0.0303815 1.21417e-19)
(-0.0421523 0.0275179 -3.51227e-21)
(-0.0403353 0.0247751 -2.26546e-19)
(-0.0378544 0.0223551 -3.69904e-19)
(-0.0348018 0.020463 2.81694e-19)
(-0.0313018 0.0193036 -2.27685e-19)
(-0.0275175 0.0190755 3.22793e-19)
(-0.0235719 0.0199967 -9.05957e-20)
(-0.0194871 0.0223254 1.89217e-19)
(-0.0160521 0.0259614 -6.43706e-19)
(-0.00488849 0.00900412 -4.67366e-19)
(-0.0133792 0.0222404 3.06584e-19)
(-0.0213014 0.0312557 4.17459e-20)
(-0.028121 0.0370071 8.0511e-21)
(-0.03368 0.040209 -1.89079e-19)
(-0.0379794 0.0414197 2.78018e-19)
(-0.0410566 0.0410992 3.03655e-20)
(-0.0429705 0.0396235 -5.69929e-20)
(-0.0437904 0.0373018 -1.82559e-19)
(-0.0435873 0.0343951 1.97357e-19)
(-0.0424298 0.0311323 4.99724e-19)
(-0.0403848 0.0277249 -1.10488e-19)
(-0.0375205 0.0243796 2.48966e-19)
(-0.0339119 0.0213097 -2.93796e-19)
(-0.029651 0.0187433 -2.812e-19)
(-0.0248655 0.0169234 1.69283e-19)
(-0.0197309 0.0161061 2.78894e-19)
(-0.0143926 0.0165948 -9.02894e-19)
(-0.0089078 0.0187674 1.0643e-19)
(-0.00421188 0.0225855 1.44182e-19)
(-0.0057205 0.00970253 3.45952e-19)
(-0.015311 0.0237901 1.13633e-19)
(-0.0238377 0.0332676 5.93138e-19)
(-0.0308629 0.0392223 3.04986e-20)
(-0.0363043 0.0424533 -6.59603e-20)
(-0.0402247 0.0435748 -3.13977e-19)
(-0.042712 0.0430822 2.67069e-19)
(-0.0438657 0.0413719 4.78598e-19)
(-0.043787 0.0387622 3.18668e-19)
(-0.0425712 0.0355146 2.29698e-19)
(-0.0403047 0.0318535 1.97716e-19)
(-0.0370665 0.0279828 -3.5538e-19)
(-0.032932 0.0241026 -1.11224e-19)
(-0.0279793 0.020425 -8.16198e-20)
(-0.0223004 0.0171879 8.75299e-19)
(-0.0160251 0.0146627 -3.40511e-21)
(-0.00933896 0.0131598 -2.17465e-19)
(-0.00240501 0.0130808 -6.79263e-20)
(0.00468849 0.014963 6.23301e-19)
(0.0108157 0.018876 8.1848e-20)
(-0.00659757 0.0103322 -1.71459e-20)
(-0.0172953 0.0251482 -3.27349e-19)
(-0.0263581 0.0349979 -4.87068e-19)
(-0.0334651 0.0410979 -1.35511e-19)
(-0.0386205 0.0443322 7.47864e-20)
(-0.0419557 0.0453709 1.61635e-20)
(-0.0436149 0.0447445 4.26897e-19)
(-0.0437425 0.0428687 -5.29464e-19)
(-0.0424758 0.0400691 -2.01317e-19)
(-0.0399392 0.0366053 -4.05276e-19)
(-0.036243 0.0326924 -3.44873e-19)
(-0.0314849 0.0285196 -3.04865e-19)
(-0.0257551 0.0242694 7.61926e-20)
(-0.0191416 0.0201372 -9.87068e-20)
(-0.0117424 0.0163513 4.22461e-19)
(-0.00369225 0.0131895 -2.31953e-19)
(0.00481378 0.0109976 -7.24383e-19)
(0.0136016 0.0102722 -1.45344e-19)
(0.0225687 0.0117454 3.56521e-19)
(0.0303563 0.0156509 -3.10994e-19)
(-0.00750425 0.0108761 -5.52146e-20)
(-0.0192828 0.0262751 4.00083e-19)
(-0.028774 0.0363933 -5.10414e-19)
(-0.0357928 0.0425734 1.18012e-19)
(-0.0404403 0.0457839 -2.42987e-19)
(-0.0429221 0.0467511 5.41106e-19)
(-0.0434423 0.046041 -3.86587e-19)
(-0.0421936 0.0440892 4.42064e-19)
(-0.0393527 0.0412298 -4.1892e-19)
(-0.0350775 0.0377213 1.78534e-19)
(-0.029508 0.0337691 -8.67408e-20)
(-0.0227696 0.029545 -2.17174e-19)
(-0.0149779 0.0252066 -2.67857e-19)
(-0.00624415 0.0209188 2.66824e-19)
(0.00331452 0.0168778 -2.23135e-19)
(0.0135475 0.0133353 -4.86887e-19)
(0.0242426 0.0106327 5.06587e-19)
(0.0352189 0.00932807 -6.45035e-19)
(0.0463938 0.0103605 2.8976e-19)
(0.0561543 0.0141777 7.32368e-21)
(-0.00842207 0.0113175 -4.99845e-19)
(-0.0212161 0.0271296 -5.4007e-19)
(-0.0309837 0.0373971 6.22483e-20)
(-0.0376932 0.0435824 -5.2099e-19)
(-0.0415512 0.0467374 -4.63403e-20)
(-0.0428415 0.0476444 -3.83127e-19)
(-0.0418305 0.0469062 -8.78468e-20)
(-0.0387601 0.044981 -2.56567e-19)
(-0.033848 0.0422146 2.3607e-21)
(-0.0272883 0.0388692 -1.12102e-19)
(-0.0192563 0.035146 7.8296e-21)
(-0.00991359 0.0312037 -3.22484e-19)
(0.000585189 0.0271768 3.54899e-19)
(0.0120873 0.0231944 -5.03094e-19)
(0.0244339 0.0194043 1.7789e-19)
(0.0374343 0.0159985 6.50644e-21)
(0.0508359 0.0132566 -2.82507e-19)
(0.0644402 0.0117223 6.99612e-19)
(0.0782352 0.0124976 -1.66996e-19)
(0.0903903 0.01625 -1.0847e-19)
(-0.00933013 0.0116405 5.61172e-19)
(-0.02303 0.0276722 3.03193e-19)
(-0.0328726 0.0379534 2.82086e-19)
(-0.0389952 0.0440579 4.21424e-20)
(-0.0417167 0.047118 3.81525e-19)
(-0.0414018 0.0479724 5.49747e-19)
(-0.0383791 0.0472614 4.4994e-19)
(-0.0329393 0.0454686 4.01673e-20)
(-0.02534 0.0429573 3.29058e-19)
(-0.0158123 0.0400013 5.08087e-19)
(-0.00456934 0.0368078 -1.31605e-19)
(0.00818358 0.0335354 2.20906e-19)
(0.02224 0.0303086 1.78364e-19)
(0.0373849 0.0272324 1.8133e-19)
(0.053388 0.0244087 1.06848e-18)
(0.069981 0.0219536 -4.00311e-19)
(0.0868246 0.0200293 -2.43246e-20)
(0.103655 0.0190494 4.62375e-19)
(0.120574 0.0201461 -2.61889e-19)
(0.135688 0.0241231 1.29946e-19)
(-0.0102057 0.0118323 -4.53923e-19)
(-0.0246518 0.0278684 2.91766e-20)
(-0.0343129 0.0380121 -3.63745e-19)
(-0.0395085 0.0439389 -4.735e-20)
(-0.0406755 0.0468574 2.66238e-19)
(-0.0382606 0.0476612 -7.92321e-19)
(-0.0326535 0.0470284 -4.05431e-22)
(-0.0241912 0.0454704 3.68436e-19)
(-0.0131688 0.0433731 3.45848e-19)
(0.000147638 0.0410304 -1.52342e-19)
(0.0155065 0.0386689 5.00501e-20)
(0.0326553 0.0364653 1.1619e-19)
(0.0513261 0.0345591 -5.51314e-20)
(0.0712232 0.033062 -6.15249e-19)
(0.0920126 0.0320652 1.5581e-19)
(0.113298 0.0316377 4.27262e-19)
(0.134581 0.0318176 -6.08372e-19)
(0.155422 0.0327882 2.96605e-19)
(0.176023 0.0355325 7.94566e-20)
(0.194773 0.040784 4.03439e-19)
(-0.0110244 0.0118831 -6.71763e-20)
(-0.0260013 0.027691 -3.18392e-19)
(-0.035162 0.0375344 1.46473e-19)
(-0.0390208 0.0431793 5.90945e-22)
(-0.0381378 0.0459056 -6.38591e-19)
(-0.0330421 0.0466587 9.9662e-20)
(-0.0241829 0.0461528 -1.88675e-20)
(-0.0119408 0.0449271 1.2874e-19)
(0.0033545 0.0433928 -5.89009e-19)
(0.0214046 0.0418697 -4.10196e-20)
(0.0419217 0.0406141 -1.37875e-19)
(0.0646077 0.0398388 1.22982e-19)
(0.0891325 0.0397275 4.13855e-19)
(0.115113 0.0404461 -6.40405e-20)
(0.142087 0.0421484 2.46843e-20)
(0.169477 0.0449643 1.6241e-19)
(0.196502 0.0489476 -4.00496e-20)
(0.222317 0.0541975 3.26345e-19)
(0.246936 0.0616654 -1.89919e-19)
(0.269406 0.0716108 -3.00188e-19)
(-0.0117602 0.0117869 6.22136e-20)
(-0.0269887 0.0271222 1.50876e-20)
(-0.0352592 0.0364971 1.27726e-19)
(-0.0372933 0.0417566 3.12852e-19)
(-0.0337798 0.0442447 1.75502e-19)
(-0.0253312 0.044954 1.82921e-20)
(-0.0124562 0.0446303 -2.09423e-19)
(0.00442145 0.0438373 5.3732e-20)
(0.0249377 0.0430086 2.81947e-19)
(0.0487622 0.0424881 -4.77563e-19)
(0.0755739 0.0425616 3.60056e-19)
(0.105038 0.043481 -2.71048e-19)
(0.136782 0.0454866 2.29662e-19)
(0.170375 0.0488286 -4.94885e-19)
(0.205296 0.0537916 5.43725e-19)
(0.240867 0.0607068 -5.81307e-19)
(0.276116 0.0699433 -1.50895e-19)
(0.309719 0.0821424 4.73718e-19)
(0.340544 0.0991414 -1.60005e-19)
(0.36577 0.120263 7.15861e-20)
(-0.0123844 0.0115411 -4.71684e-20)
(-0.0275129 0.0261548 4.44984e-19)
(-0.0344216 0.0348971 -1.89637e-21)
(-0.0340552 0.0396794 -2.76189e-19)
(-0.0272375 0.0419011 -1.85762e-19)
(-0.0146684 0.0425954 3.40227e-19)
(0.00307997 0.0425327 -1.34757e-19)
(0.0255344 0.0422934 -1.69841e-20)
(0.0522874 0.0423236 2.8026e-19)
(0.0829657 0.0429781 -3.48226e-19)
(0.117204 0.0445528 3.79921e-20)
(0.154628 0.0473117 -4.51741e-19)
(0.194839 0.0515125 2.37555e-19)
(0.237416 0.0574363 -6.79381e-19)
(0.28192 0.0654285 1.08155e-18)
(0.32791 0.0759512 -1.97923e-19)
(0.374981 0.0897104 2.07015e-19)
(0.423082 0.108216 -5.37754e-19)
(0.472757 0.134406 2.26164e-21)
(0.51657 0.163178 6.2142e-19)
(-0.0128638 0.011145 -1.43065e-19)
(-0.0274571 0.0247918 1.2369e-19)
(-0.0324403 0.0327535 -4.54918e-19)
(-0.0289993 0.0369928 6.72741e-19)
(-0.0181034 0.0389544 -4.85612e-19)
(-0.000548172 0.039704 2.49967e-20)
(0.0230181 0.0400272 -5.23152e-19)
(0.0520547 0.0405093 3.73898e-19)
(0.0860841 0.0415938 -5.35024e-20)
(0.124656 0.043624 -3.29453e-19)
(0.167318 0.0468735 -1.91891e-19)
(0.213605 0.0515688 2.0283e-19)
(0.263032 0.0579085 1.33936e-19)
(0.315113 0.0660806 -5.92756e-19)
(0.369386 0.0762795 2.14029e-19)
(0.42546 0.0887175 -3.15548e-19)
(0.483083 0.103649 3.79455e-20)
(0.542389 0.121586 -2.69511e-19)
(0.604331 0.143673 1.13432e-19)
(0.661665 0.16516 -4.08543e-19)
(-0.0131585 0.0105997 4.07233e-19)
(-0.0266861 0.0230463 -2.46448e-19)
(-0.0290761 0.0301085 2.03088e-19)
(-0.0217801 0.0337808 -2.56371e-19)
(-0.00592734 0.0355413 4.29914e-19)
(0.0175736 0.0364781 -7.63516e-21)
(0.0479746 0.0373805 -5.2275e-20)
(0.0846314 0.0388246 -3.87296e-20)
(0.12695 0.0412322 2.38339e-19)
(0.17434 0.0449104 4.04792e-19)
(0.226192 0.0500781 -2.39132e-19)
(0.281864 0.0568845 2.32143e-19)
(0.340686 0.0654219 4.23688e-19)
(0.401987 0.0757346 -2.97205e-19)
(0.465123 0.0878219 -6.03723e-19)
(0.529526 0.101632 1.10434e-18)
(0.594742 0.117042 -1.97213e-19)
(0.660524 0.133911 -6.45048e-20)
(0.727189 0.152591 6.9876e-19)
(0.789264 0.171587 -1.45992e-19)
(-0.0132202 0.00990712 -6.63609e-19)
(-0.0250433 0.0209414 -4.41799e-19)
(-0.02406 0.0270277 -1.69608e-19)
(-0.0120175 0.0301666 3.27083e-19)
(0.00977215 0.0318541 -7.38077e-19)
(0.0402591 0.0331883 3.81952e-19)
(0.0785539 0.0349476 4.83642e-20)
(0.123853 0.0376799 4.87605e-20)
(0.175373 0.0417621 -4.99503e-19)
(0.232302 0.0474359 -1.76316e-19)
(0.293779 0.0548327 -3.10441e-19)
(0.358889 0.0639899 2.99584e-19)
(0.426685 0.0748632 8.49356e-20)
(0.496219 0.0873351 1.64194e-20)
(0.566585 0.10122 3.90677e-19)
(0.636959 0.11626 -3.95467e-19)
(0.706631 0.132115 -1.65818e-20)
(0.775035 0.148376 9.41909e-21)
(0.841927 0.164936 5.34774e-20)
(0.904062 0.182943 3.12106e-19)
(-0.0129904 0.00907025 2.11404e-19)
(-0.0223499 0.0185106 5.44578e-19)
(-0.0170955 0.0236002 4.37064e-19)
(0.000693362 0.0263111 -1.50556e-19)
(0.0294879 0.0281361 5.2324e-19)
(0.0680519 0.0301667 -4.4047e-20)
(0.115292 0.0331497 -6.206e-20)
(0.170164 0.0375788 3.69344e-20)
(0.231601 0.0437542 5.0475e-19)
(0.298466 0.0518164 2.9628e-19)
(0.369546 0.0617715 8.64369e-20)
(0.44357 0.073511 5.32303e-21)
(0.519247 0.0868297 -5.73261e-19)
(0.595323 0.101443 4.97902e-19)
(0.670631 0.117 8.56273e-20)
(0.744137 0.133097 -1.40644e-19)
(0.81497 0.149279 -6.12598e-19)
(0.882443 0.165073 -5.24751e-20)
(0.94605 0.180043 2.4325e-19)
(1.00467 0.197114 -5.03414e-20)
(-0.0123994 0.00809432 -5.37269e-19)
(-0.0184066 0.0157996 2.24784e-19)
(-0.00786582 0.0199399 -1.09677e-18)
(0.0167656 0.0224111 4.48858e-19)
(0.0536935 0.0246753 -3.57859e-19)
(0.101429 0.0277929 2.63784e-19)
(0.158585 0.0324487 -4.09363e-19)
(0.22377 0.0390457 3.7626e-20)
(0.295519 0.0477645 -2.10041e-20)
(0.372263 0.0585991 1.09766e-19)
(0.452348 0.0713878 1.5849e-19)
(0.534094 0.0858433 -2.99618e-19)
(0.615863 0.101583 1.58478e-19)
(0.696132 0.118161 1.45616e-19)
(0.773567 0.135095 6.30092e-19)
(0.84706 0.15189 -2.73371e-19)
(0.915761 0.168058 -1.8264e-19)
(0.97908 0.183165 3.07493e-19)
(1.03657 0.196645 1.6556e-19)
(1.08858 0.212298 -3.09298e-19)
(-0.0113677 0.00698858 4.71163e-19)
(-0.0129975 0.0128702 4.5435e-19)
(0.00395446 0.0161876 1.30818e-19)
(0.0365986 0.0186994 5.51223e-19)
(0.0828069 0.0217983 2.70519e-19)
(0.140744 0.0264785 -4.87429e-19)
(0.208613 0.0333198 7.37804e-19)
(0.284547 0.0425832 -3.62954e-19)
(0.366561 0.0542749 3.61939e-19)
(0.452555 0.0681896 4.67981e-19)
(0.540393 0.0839556 -2.67321e-19)
(0.627991 0.101082 5.07622e-20)
(0.713433 0.11901 2.83055e-19)
(0.79506 0.137154 1.99499e-19)
(0.871538 0.154948 4.60066e-19)
(0.941889 0.171874 -1.83649e-19)
(1.00549 0.187484 -2.2279e-20)
(1.06206 0.20144 2.91892e-19)
(1.11147 0.213235 -6.25218e-20)
(1.15496 0.226842 4.01175e-22)
(-0.00980667 0.00576879 -2.43348e-19)
(-0.00589741 0.00980381 -8.94357e-19)
(0.0186848 0.012514 2.10475e-19)
(0.0605516 0.0154432 -1.60169e-19)
(0.117149 0.0198629 -3.69373e-19)
(0.186172 0.026651 -2.63262e-19)
(0.265274 0.0362223 -1.62528e-19)
(0.351973 0.0486303 3.9489e-19)
(0.443655 0.0636419 -2.34425e-19)
(0.53764 0.0807995 -2.39724e-19)
(0.631324 0.0994892 -3.03245e-19)
(0.722318 0.119013 -5.00947e-20)
(0.808587 0.138657 -3.38445e-20)
(0.888539 0.157752 -7.01102e-19)
(0.961063 0.175715 3.40312e-19)
(1.02553 0.19208 -4.47501e-19)
(1.08174 0.206507 1.41183e-19)
(1.12985 0.218803 -1.07441e-18)
(1.17023 0.228655 3.23671e-19)
(1.20452 0.239732 4.11597e-19)
(-0.00762203 0.00445973 -6.10324e-20)
(0.00311937 0.00670616 4.36969e-19)
(0.0366206 0.00912277 2.79664e-20)
(0.0889147 0.0129434 6.73295e-20)
(0.156902 0.0192496 -1.36854e-19)
(0.237659 0.0287342 -2.159e-21)
(0.328132 0.04157 -3.38631e-21)
(0.425098 0.0575238 -8.21993e-20)
(0.525246 0.0760571 2.91691e-19)
(0.62534 0.0964178 1.12827e-19)
(0.722417 0.117741 5.11405e-19)
(0.813974 0.139149 -1.39631e-19)
(0.898092 0.159833 9.73954e-20)
(0.973492 0.179115 -1.27391e-20)
(1.03952 0.19648 2.69687e-19)
(1.09607 0.21159 1.653e-19)
(1.14349 0.224273 3.99112e-19)
(1.18246 0.234507 -6.45045e-19)
(1.2138 0.242228 8.12681e-19)
(1.23933 0.25058 -2.57755e-19)
(-0.00471708 0.00309759 -5.70524e-19)
(0.0142676 0.00371089 -1.77735e-19)
(0.0580132 0.00625187 1.39151e-19)
(0.121878 0.0115303 8.76685e-20)
(0.202072 0.0203491 8.94662e-20)
(0.294881 0.0331267 9.08214e-20)
(0.396394 0.0496997 -2.26989e-19)
(0.502559 0.0694654 -9.37815e-20)
(0.609382 0.0915233 2.91611e-20)
(0.713184 0.114812 -2.77476e-19)
(0.81086 0.138244 -1.25373e-19)
(0.900059 0.160826 7.58369e-19)
(0.979253 0.181745 -1.95537e-19)
(1.04772 0.200407 -2.69813e-19)
(1.10544 0.216452 -1.28269e-19)
(1.15293 0.229731 8.87065e-20)
(1.19112 0.240274 1.08488e-19)
(1.22113 0.248237 -5.20109e-19)
(1.24419 0.253789 7.53369e-19)
(1.26211 0.259503 -6.53356e-19)
(-0.000996987 0.00173166 -6.48797e-20)
(0.0277386 0.000981604 1.86298e-20)
(0.0830485 0.0041726 -2.34778e-20)
(0.159504 0.0115565 3.44319e-19)
(0.252454 0.0235463 1.87512e-20)
(0.357224 0.0401763 1.26215e-19)
(0.468923 0.0608434 -2.61885e-19)
(0.582657 0.0844995 -9.50857e-21)
(0.69386 0.109854 3.63299e-19)
(0.798645 0.13556 5.05487e-20)
(0.894058 0.16038 -3.16255e-19)
(0.978203 0.183309 -2.76501e-20)
(1.05021 0.203632 -2.59732e-19)
(1.11009 0.220936 2.58634e-19)
(1.15854 0.235083 3.59438e-19)
(1.19671 0.246148 -3.96468e-20)
(1.22602 0.254364 -4.83833e-20)
(1.24794 0.260044 1.47461e-19)
(1.26391 0.263539 -4.74641e-19)
(1.2757 0.2669 4.17761e-19)
(0.00362663 0.000425274 6.47799e-20)
(0.0436871 -0.00128838 -4.18915e-19)
(0.111826 0.00318484 1.12198e-19)
(0.201699 0.0133844 -3.47055e-19)
(0.307617 0.0291992 1.19233e-19)
(0.423787 0.0501541 -4.42581e-19)
(0.544287 0.0751051 1.78331e-19)
(0.66347 0.102508 -5.66628e-20)
(0.776432 0.130696 -2.25241e-21)
(0.879396 0.158112 5.79133e-20)
(0.9699 0.183482 -2.11276e-19)
(1.04679 0.205907 -3.01369e-19)
(1.11004 0.22488 -6.17537e-20)
(1.16049 0.240242 -2.77101e-20)
(1.19953 0.25211 -7.0391e-20)
(1.22884 0.260787 -2.2938e-20)
(1.25018 0.26668 -6.86686e-20)
(1.26522 0.270223 -5.95702e-20)
(1.27548 0.271878 -1.77361e-19)
(1.28258 0.273268 2.81428e-19)
(0.00923066 -0.000744107 1.56547e-19)
(0.0622171 -0.00287877 -1.73739e-19)
(0.144339 0.00360828 3.73637e-19)
(0.248199 0.0173698 -1.61019e-19)
(0.366895 0.0376163 4.30209e-19)
(0.493414 0.0632319 5.94986e-21)
(0.620849 0.0924502 2.15702e-19)
(0.743014 0.123224 -5.75235e-20)
(0.855003 0.153579 2.40571e-19)
(0.953523 0.18187 1.73728e-20)
(1.03693 0.206921 5.72143e-19)
(1.10503 0.228062 -3.94953e-19)
(1.15872 0.24508 5.32551e-20)
(1.19964 0.258108 1.01524e-19)
(1.22976 0.267521 5.31256e-19)
(1.25114 0.273815 -1.90854e-19)
(1.26572 0.277532 -3.78496e-20)
(1.27521 0.279172 -2.0036e-19)
(1.28106 0.279253 -2.1055e-20)
(1.28473 0.279062 1.00244e-19)
(0.0158754 -0.00168588 -7.54354e-20)
(0.0833695 -0.00354793 2.17435e-19)
(0.180458 0.00577 -2.21983e-19)
(0.298556 0.023842 8.79201e-20)
(0.429406 0.0490333 -1.04505e-19)
(0.564757 0.0794664 3.84059e-19)
(0.696886 0.11271 -5.32664e-20)
(0.819403 0.146264 1.31635e-19)
(0.927809 0.177973 -7.7357e-20)
(1.01966 0.206254 -1.87092e-21)
(1.09439 0.230173 8.83814e-20)
(1.15286 0.24939 -6.8325e-20)
(1.19689 0.26403 1.77275e-19)
(1.22877 0.274526 -8.83128e-20)
(1.2509 0.281475 -3.88565e-19)
(1.26553 0.285524 3.8622e-19)
(1.27462 0.287289 -1.73947e-19)
(1.2798 0.287294 1.38848e-19)
(1.28238 0.286072 2.40685e-19)
(1.28363 0.284643 9.87074e-20)
(0.0235995 -0.00229817 1.87571e-19)
(0.10711 -0.00304087 -3.86367e-19)
(0.219923 0.00998902 7.39924e-20)
(0.352145 0.0330833 -5.35658e-20)
(0.494086 0.0635952 -2.15445e-19)
(0.636354 0.0987943 -1.68924e-19)
(0.770712 0.1356 -3.31375e-20)
(0.890995 0.171176 -3.0074e-19)
(0.99353 0.203349 -1.81522e-20)
(1.07704 0.230768 -5.57612e-20)
(1.14216 0.252861 -1.51328e-19)
(1.19083 0.269682 -3.36412e-20)
(1.22563 0.281706 -1.15711e-19)
(1.24936 0.289632 -1.92848e-19)
(1.26464 0.294231 1.97324e-19)
(1.27374 0.296242 2.70809e-20)
(1.27854 0.296308 5.39363e-20)
(1.28048 0.294938 -2.26932e-19)
(1.28072 0.292652 -5.77552e-21)
(1.2803 0.290263 -3.49278e-19)
(0.0324148 -0.00247074 2.06144e-19)
(0.133323 -0.00109952 1.37332e-19)
(0.262338 0.0165593 -2.20941e-19)
(0.408181 0.0453094 3.4498e-19)
(0.559745 0.081344 -3.70783e-20)
(0.706728 0.12104 1.28571e-19)
(0.840802 0.160754 4.44496e-20)
(0.956493 0.197483 1.57327e-19)
(1.05134 0.229231 -1.23156e-19)
(1.12542 0.255028 4.09287e-20)
(1.18063 0.274753 -3.93249e-20)
(1.21983 0.288879 -1.72821e-20)
(1.24623 0.298203 3.28045e-20)
(1.2629 0.303638 -6.03666e-20)
(1.27251 0.306072 -1.84772e-20)
(1.27724 0.306279 -5.658e-20)
(1.27877 0.304889 -9.19301e-20)
(1.27836 0.30237 5.93933e-20)
(1.27696 0.299216 -8.12286e-20)
(1.27541 0.296072 3.50885e-19)
(0.042303 -0.00208862 -1.0311e-19)
(0.161801 0.00252554 -2.91591e-19)
(0.307177 0.0257325 -3.87652e-20)
(0.46575 0.0606546 -1.04349e-20)
(0.625134 0.102217 -1.3026e-19)
(0.774481 0.145933 -2.13569e-19)
(0.905872 0.187756 6.98199e-20)
(1.01499 0.224729 -9.59008e-20)
(1.10086 0.255221 -1.07346e-19)
(1.16502 0.278767 5.96876e-20)
(1.21051 0.295745 -4.5087e-20)
(1.24097 0.307027 -9.10197e-20)
(1.25999 0.313684 -2.94331e-21)
(1.27073 0.316781 6.15826e-20)
(1.2758 0.317261 -6.25621e-20)
(1.27716 0.315892 8.68642e-20)
(1.27629 0.313258 2.34103e-20)
(1.2742 0.309772 5.87608e-20)
(1.27167 0.305902 1.14201e-19)
(1.26938 0.302142 -9.77332e-20)
(0.0532118 -0.00103663 9.85633e-20)
(0.192253 0.00806262 -8.88217e-21)
(0.353802 0.0377023 4.40194e-20)
(0.523853 0.0791612 -5.98387e-20)
(0.68901 0.126051 4.8592e-21)
(0.838367 0.173134 2.07042e-19)
(0.964939 0.216177 -1.36005e-19)
(1.06595 0.252502 5.74333e-20)
(1.14211 0.281011 5.05421e-20)
(1.19635 0.301825 -1.42139e-19)
(1.23271 0.315824 1.33355e-19)
(1.25536 0.324234 1.14666e-21)
(1.2681 0.328335 -9.36118e-20)
(1.27403 0.329282 1.1276e-19)
(1.27554 0.32802 -4.46223e-20)
(1.27438 0.325276 3.40949e-20)
(1.27176 0.321569 -3.8179e-20)
(1.26851 0.317254 -1.52667e-20)
(1.26523 0.312775 -1.32852e-19)
(1.26245 0.308489 4.05907e-20)
(0.0650538 0.000795684 -3.33383e-20)
(0.224299 0.0157065 8.92255e-20)
(0.401481 0.0525919 1.38717e-20)
(0.581449 0.100777 5.82255e-20)
(0.750209 0.152597 2.77043e-20)
(0.897351 0.202259 1.29814e-20)
(1.01733 0.245602 7.35523e-20)
(1.10921 0.280453 -8.96217e-21)
(1.17539 0.30638 3.23108e-20)
(1.2201 0.324123 5.1865e-20)
(1.24816 0.335034 2.49546e-20)
(1.26406 0.340631 1.78719e-20)
(1.2716 0.342333 7.23975e-20)
(1.2737 0.341323 -7.00482e-20)
(1.27251 0.338511 1.50085e-20)
(1.26949 0.334558 -1.39585e-20)
(1.26565 0.32991 2.17018e-20)
(1.26161 0.324866 1.81439e-20)
(1.25785 0.319851 3.77283e-20)
(1.25476 0.315089 1.60889e-21)
(0.0777065 0.00350885 1.97589e-20)
(0.25749 0.025607 1.80403e-20)
(0.44942 0.0704446 -2.49384e-20)
(0.63751 0.125359 1.55744e-20)
(0.807688 0.18154 8.77126e-21)
(0.95063 0.232904 -2.72857e-20)
(1.06266 0.275647 8.98513e-21)
(1.14483 0.308297 1.61352e-21)
(1.20119 0.331174 1.54504e-20)
(1.23706 0.345637 -4.13463e-20)
(1.25779 0.353448 -1.06654e-22)
(1.26799 0.356347 1.13919e-20)
(1.27133 0.355824 -9.07647e-21)
(1.27047 0.35304 9.17857e-21)
(1.26726 0.348841 2.38291e-20)
(1.26293 0.343809 -1.35089e-20)
(1.25824 0.338317 3.78874e-21)
(1.2537 0.332611 1.4731e-20)
(1.24964 0.327104 -2.42508e-20)
(1.24638 0.32189 1.16432e-20)
(0.0910147 0.00718833 5.52178e-20)
(0.291313 0.0378594 -2.9979e-20)
(0.496794 0.0912196 3.52536e-20)
(0.69106 0.152678 -2.62091e-20)
(0.860569 0.212512 -1.17227e-20)
(0.997642 0.264663 3.54709e-21)
(1.10079 0.305964 -1.14752e-20)
(1.1731 0.335803 4.12137e-20)
(1.22012 0.355293 -3.42402e-20)
(1.24801 0.366372 8.02297e-21)
(1.26242 0.371143 -5.98137e-21)
(1.26793 0.37149 -3.86878e-20)
(1.26796 0.368915 3.74487e-20)
(1.26486 0.36452 1.41835e-20)
(1.2602 0.359066 -1.41061e-20)
(1.25495 0.353054 3.29903e-20)
(1.24971 0.346783 -5.21784e-22)
(1.24488 0.340459 -3.18212e-20)
(1.24067 0.334486 2.35191e-20)
(1.23733 0.328822 7.33984e-21)
(0.104793 0.0118999 -1.93479e-20)
(0.325216 0.0524975 5.61052e-20)
(0.542781 0.114793 6.47319e-20)
(0.741218 0.182436 -3.04809e-20)
(0.908151 0.245114 5.30291e-20)
(1.03804 0.297144 8.37039e-20)
(1.13178 0.336247 -4.5919e-21)
(1.19443 0.362786 -1.42553e-20)
(1.2328 0.378667 7.05334e-20)
(1.25366 0.386345 3.42935e-20)
(1.26277 0.388182 -6.1525e-21)
(1.26452 0.386135 5.08367e-20)
(1.262 0.381669 -5.42132e-20)
(1.25727 0.3758 8.43253e-20)
(1.25159 0.369197 -1.4034e-20)
(1.24574 0.362275 3.99163e-20)
(1.24018 0.355269 7.08637e-21)
(1.2352 0.348355 2.83526e-20)
(1.23094 0.341926 -2.70063e-20)
(1.2276 0.335808 6.42599e-21)
(0.11883 0.0176851 -3.00958e-20)
(0.358619 0.0694887 7.16536e-20)
(0.58659 0.14096 5.31477e-20)
(0.787213 0.214274 -8.01984e-21)
(0.949912 0.278929 8.24177e-20)
(1.07167 0.32997 -6.13392e-20)
(1.15584 0.366224 -4.65061e-21)
(1.2093 0.389093 5.40476e-20)
(1.23986 0.401243 1.71691e-20)
(1.25468 0.405566 2.38591e-20)
(1.25944 0.404604 -3.51287e-20)
(1.25824 0.400322 9.1141e-20)
(1.25383 0.394109 1.68419e-20)
(1.24794 0.386881 -8.02641e-20)
(1.2416 0.379207 1.16543e-19)
(1.2354 0.371425 -1.37083e-19)
(1.2297 0.363714 -6.24553e-20)
(1.2247 0.356224 1.0475e-20)
(1.22048 0.349343 6.04439e-20)
(1.2172 0.34276 -1.13298e-19)
(0.132898 0.0245583 -6.79872e-20)
(0.390941 0.088733 -1.60201e-19)
(0.627489 0.169443 -1.38319e-19)
(0.828411 0.24779 -1.88048e-19)
(0.985501 0.313532 -1.06414e-19)
(1.09854 0.362786 -2.2027e-19)
(1.17329 0.395651 2.79854e-20)
(1.2182 0.414593 -1.16232e-19)