/*--------------------------------*- C++ -*----------------------------------*\
  =========                 |
  \\      /  F ield         | OpenFOAM: The Open Source CFD Toolbox
   \\    /   O peration     | Website:  https://openfoam.org
    \\  /    A nd           | Version:  6.0
     \\/     M anipulation  |
\*---------------------------------------------------------------------------*/
FoamFile
{
    version     2.0;
    format      ascii;
    class       volScalarField;
    location    "50";
    object      p;
}
// * * * * * * * * * * * * * * * * * * * * * * * * * * * * * * * * * * * * * //

dimensions      [0 2 -2 0 0 0 0];

internalField   nonuniform List<scalar> 
12500
(
-0.273887
-0.274566
-0.275041
-0.275406
-0.275719
-0.275989
-0.276222
-0.276429
-0.276615
-0.276786
-0.276946
-0.277099
-0.277246
-0.277392
-0.27754
-0.27769
-0.277848
-0.278014
-0.278191
-0.278382
-0.278593
-0.278825
-0.279038
-0.279207
-0.279745
-0.274439
-0.275089
-0.275544
-0.275895
-0.276198
-0.276459
-0.276686
-0.276889
-0.277074
-0.277245
-0.277408
-0.277566
-0.277722
-0.277878
-0.278039
-0.278206
-0.278382
-0.278571
-0.278774
-0.278996
-0.279241
-0.279512
-0.27977
-0.279989
-0.280574
-0.275036
-0.275657
-0.276094
-0.27643
-0.27672
-0.27697
-0.277188
-0.277383
-0.277562
-0.27773
-0.277891
-0.278049
-0.278207
-0.278369
-0.278537
-0.278715
-0.278905
-0.27911
-0.279334
-0.27958
-0.279854
-0.280159
-0.280457
-0.280721
-0.281351
-0.275675
-0.276269
-0.276686
-0.277007
-0.277283
-0.277519
-0.277724
-0.277908
-0.278076
-0.278236
-0.27839
-0.278543
-0.278698
-0.278858
-0.279028
-0.279209
-0.279406
-0.279621
-0.279859
-0.280122
-0.280419
-0.280751
-0.281083
-0.281385
-0.282057
-0.276351
-0.27692
-0.277319
-0.277623
-0.277881
-0.278101
-0.27829
-0.278458
-0.278612
-0.278758
-0.2789
-0.279041
-0.279187
-0.27934
-0.279503
-0.279681
-0.279877
-0.280094
-0.280337
-0.280611
-0.280922
-0.281274
-0.281632
-0.281966
-0.282674
-0.277062
-0.277609
-0.277989
-0.278275
-0.278515
-0.278715
-0.278884
-0.279033
-0.279167
-0.279293
-0.279417
-0.279541
-0.27967
-0.279807
-0.279957
-0.280122
-0.280308
-0.280519
-0.280759
-0.281033
-0.281349
-0.281714
-0.28209
-0.282446
-0.283185
-0.277807
-0.278334
-0.278695
-0.278962
-0.279181
-0.279359
-0.279504
-0.279628
-0.279738
-0.279839
-0.279938
-0.280037
-0.280142
-0.280256
-0.280383
-0.280527
-0.280694
-0.280887
-0.281113
-0.281377
-0.281689
-0.282054
-0.282439
-0.282807
-0.283572
-0.278585
-0.279094
-0.279437
-0.279684
-0.279879
-0.280031
-0.280149
-0.280244
-0.280324
-0.280395
-0.280462
-0.280529
-0.280602
-0.280683
-0.280778
-0.280891
-0.281027
-0.281192
-0.281391
-0.281633
-0.281928
-0.282283
-0.282664
-0.283034
-0.283817
-0.279397
-0.27989
-0.280216
-0.28044
-0.280609
-0.280732
-0.280819
-0.280881
-0.280925
-0.280959
-0.280988
-0.281016
-0.281048
-0.281088
-0.281141
-0.281211
-0.281304
-0.281427
-0.281587
-0.281793
-0.282056
-0.282387
-0.282751
-0.283111
-0.283904
-0.280246
-0.280725
-0.281032
-0.281233
-0.281373
-0.281464
-0.281515
-0.281538
-0.281542
-0.281533
-0.281518
-0.281499
-0.281483
-0.281472
-0.281472
-0.281487
-0.281525
-0.281593
-0.281698
-0.281852
-0.282067
-0.282358
-0.282689
-0.283024
-0.28382
-0.281136
-0.281602
-0.281889
-0.282064
-0.282173
-0.282228
-0.282239
-0.28222
-0.282178
-0.282121
-0.282055
-0.281983
-0.28191
-0.281839
-0.281776
-0.281725
-0.281694
-0.28169
-0.281725
-0.281808
-0.281957
-0.282188
-0.282469
-0.282761
-0.28355
-0.28207
-0.282524
-0.28279
-0.282936
-0.283011
-0.283026
-0.282994
-0.282927
-0.282836
-0.282726
-0.282603
-0.282472
-0.282335
-0.282196
-0.28206
-0.281931
-0.281817
-0.281727
-0.281672
-0.281665
-0.281727
-0.281876
-0.282083
-0.282311
-0.283081
-0.283057
-0.283496
-0.283739
-0.283854
-0.283891
-0.283863
-0.283783
-0.283666
-0.28352
-0.283353
-0.28317
-0.282974
-0.282767
-0.282553
-0.282335
-0.282118
-0.281908
-0.281715
-0.281551
-0.281432
-0.281382
-0.281423
-0.281528
-0.281666
-0.282403
-0.284102
-0.284526
-0.284743
-0.284823
-0.284817
-0.284742
-0.284611
-0.284439
-0.284236
-0.284009
-0.283762
-0.283497
-0.283216
-0.282922
-0.282615
-0.2823
-0.281982
-0.281671
-0.281379
-0.281124
-0.280934
-0.280835
-0.280804
-0.280818
-0.2815
-0.285215
-0.285619
-0.285806
-0.285847
-0.285795
-0.285668
-0.285482
-0.285252
-0.284989
-0.284699
-0.284385
-0.28405
-0.283693
-0.283315
-0.282915
-0.282495
-0.28206
-0.281617
-0.281178
-0.280762
-0.2804
-0.280126
-0.279917
-0.27976
-0.280356
-0.286404
-0.286784
-0.286936
-0.286932
-0.286829
-0.286646
-0.286401
-0.286109
-0.285783
-0.285428
-0.285047
-0.28464
-0.284207
-0.283743
-0.283249
-0.282721
-0.282161
-0.281575
-0.280972
-0.280371
-0.279805
-0.279312
-0.278873
-0.278484
-0.278952
-0.287678
-0.288028
-0.288139
-0.288085
-0.287925
-0.28768
-0.287371
-0.287014
-0.286622
-0.2862
-0.28575
-0.285273
-0.284764
-0.284217
-0.283628
-0.282992
-0.282305
-0.281568
-0.280788
-0.279979
-0.279175
-0.278416
-0.277685
-0.276985
-0.277258
-0.289048
-0.289361
-0.289424
-0.289313
-0.289088
-0.288775
-0.288396
-0.287969
-0.287507
-0.287016
-0.286498
-0.28595
-0.285367
-0.28474
-0.28406
-0.283318
-0.282504
-0.281614
-0.280647
-0.279611
-0.278537
-0.277464
-0.276368
-0.275256
-0.275241
-0.290525
-0.290792
-0.290798
-0.290622
-0.290325
-0.289936
-0.28948
-0.288977
-0.288441
-0.287878
-0.287289
-0.28667
-0.286015
-0.28531
-0.284543
-0.2837
-0.282764
-0.281722
-0.280564
-0.279288
-0.277915
-0.276479
-0.274942
-0.273294
-0.272863
-0.29212
-0.292331
-0.292272
-0.292021
-0.291642
-0.291167
-0.290626
-0.290039
-0.289423
-0.288782
-0.288119
-0.287428
-0.2867
-0.28592
-0.28507
-0.284131
-0.283079
-0.28189
-0.280543
-0.279021
-0.27733
-0.275489
-0.273432
-0.271108
-0.270086
-0.293845
-0.29399
-0.293855
-0.293518
-0.293046
-0.292476
-0.291838
-0.291159
-0.290453
-0.289727
-0.288984
-0.288217
-0.287414
-0.286558
-0.285628
-0.284599
-0.283438
-0.282112
-0.280585
-0.278822
-0.276805
-0.274532
-0.271892
-0.268749
-0.26692
-0.295716
-0.295782
-0.29556
-0.295125
-0.294547
-0.293868
-0.293123
-0.292338
-0.291532
-0.290713
-0.289881
-0.28903
-0.288148
-0.287215
-0.286206
-0.285091
-0.283832
-0.282385
-0.280699
-0.278717
-0.276395
-0.273698
-0.270461
-0.266397
-0.263504
-0.297747
-0.297723
-0.297399
-0.296852
-0.296154
-0.295353
-0.294486
-0.293585
-0.292666
-0.291741
-0.290811
-0.289868
-0.2889
-0.287886
-0.286801
-0.285609
-0.284268
-0.282726
-0.280918
-0.278764
-0.276186
-0.273108
-0.269294
-0.264209
-0.259851
-0.299958
-0.299827
-0.299388
-0.298714
-0.297881
-0.296943
-0.29594
-0.294907
-0.293864
-0.292821
-0.29178
-0.290737
-0.289677
-0.288582
-0.287426
-0.286174
-0.284785
-0.283202
-0.281354
-0.279141
-0.276439
-0.273095
-0.268694
-0.262237
-0.255569
-0.302368
-0.302116
-0.301544
-0.300728
-0.299744
-0.298652
-0.297499
-0.296321
-0.295139
-0.293966
-0.292805
-0.291653
-0.290499
-0.289325
-0.288112
-0.286832
-0.285456
-0.283946
-0.282252
-0.280307
-0.278016
-0.275213
-0.271317
-0.264882
-0.257298
-0.305003
-0.304608
-0.303887
-0.302912
-0.301761
-0.3005
-0.299182
-0.297844
-0.296511
-0.295198
-0.293909
-0.292642
-0.291391
-0.290145
-0.28889
-0.287617
-0.286319
-0.284998
-0.283676
-0.282408
-0.281321
-0.280637
-0.280682
-0.282947
-0.293773
-0.307887
-0.30733
-0.30644
-0.305287
-0.303952
-0.302507
-0.30101
-0.299501
-0.298007
-0.296544
-0.29512
-0.293735
-0.292386
-0.29107
-0.289784
-0.288532
-0.28733
-0.286215
-0.285254
-0.284567
-0.284361
-0.284957
-0.2868
-0.291157
-0.302606
-0.31105
-0.310304
-0.309225
-0.307877
-0.306341
-0.304699
-0.30301
-0.301319
-0.299655
-0.298036
-0.296471
-0.294965
-0.293518
-0.292134
-0.290818
-0.289587
-0.288475
-0.287537
-0.286863
-0.286592
-0.286932
-0.28817
-0.290642
-0.295025
-0.304328
-0.31452
-0.313559
-0.312268
-0.310707
-0.308955
-0.3071
-0.305208
-0.303327
-0.301486
-0.299706
-0.297997
-0.296367
-0.29482
-0.293362
-0.292008
-0.290783
-0.289726
-0.2889
-0.288397
-0.288342
-0.288903
-0.290285
-0.292691
-0.296402
-0.303401
-0.318329
-0.31712
-0.315595
-0.313802
-0.311818
-0.309739
-0.307635
-0.305556
-0.303533
-0.301587
-0.29973
-0.29797
-0.296314
-0.294772
-0.293359
-0.292104
-0.291045
-0.290241
-0.289769
-0.289725
-0.290222
-0.291383
-0.293298
-0.29602
-0.300809
-0.322505
-0.321015
-0.319231
-0.317189
-0.314958
-0.312644
-0.31032
-0.308036
-0.305825
-0.303707
-0.301695
-0.299796
-0.298017
-0.296367
-0.294861
-0.293525
-0.292391
-0.291506
-0.290925
-0.290712
-0.290931
-0.291638
-0.292854
-0.29452
-0.297392
-0.327076
-0.32527
-0.323203
-0.320892
-0.318402
-0.315842
-0.31329
-0.310795
-0.30839
-0.306093
-0.303914
-0.301859
-0.299932
-0.298139
-0.296494
-0.295012
-0.29372
-0.292649
-0.291833
-0.291306
-0.291097
-0.291221
-0.29166
-0.292311
-0.293601
-0.332069
-0.329908
-0.327533
-0.324938
-0.322175
-0.31936
-0.316572
-0.313859
-0.31125
-0.308761
-0.306397
-0.30416
-0.30205
-0.30007
-0.298226
-0.296527
-0.29499
-0.293632
-0.292471
-0.291523
-0.290794
-0.290275
-0.289937
-0.289671
-0.289703
-0.337504
-0.334951
-0.332244
-0.329349
-0.326301
-0.323222
-0.32019
-0.317248
-0.314422
-0.311721
-0.309146
-0.306692
-0.304354
-0.302129
-0.300017
-0.298022
-0.296153
-0.294419
-0.292827
-0.291382
-0.290079
-0.288906
-0.287832
-0.286757
-0.285809
-0.343399
-0.340415
-0.337354
-0.334145
-0.330802
-0.327448
-0.324162
-0.320978
-0.317916
-0.314976
-0.312152
-0.309433
-0.306809
-0.304272
-0.301818
-0.299448
-0.297166
-0.294977
-0.292886
-0.290894
-0.288996
-0.287181
-0.285427
-0.28365
-0.281934
-0.349765
-0.346315
-0.342879
-0.339342
-0.335693
-0.332056
-0.328501
-0.325057
-0.32173
-0.318513
-0.315393
-0.312351
-0.309373
-0.30645
-0.303575
-0.300751
-0.297982
-0.295274
-0.292634
-0.290066
-0.287569
-0.285138
-0.282761
-0.280371
-0.278039
-0.356608
-0.352656
-0.348827
-0.344952
-0.340988
-0.337054
-0.333213
-0.329481
-0.325852
-0.32231
-0.318832
-0.315398
-0.31199
-0.3086
-0.305227
-0.301875
-0.298555
-0.295278
-0.292056
-0.288898
-0.28581
-0.282793
-0.279846
-0.276911
-0.274064
-0.363924
-0.35944
-0.355202
-0.350981
-0.34669
-0.342444
-0.338293
-0.334237
-0.330257
-0.326328
-0.322421
-0.318515
-0.314595
-0.310658
-0.306711
-0.302767
-0.298844
-0.294961
-0.291137
-0.287388
-0.283723
-0.280152
-0.276676
-0.27325
-0.269951
-0.3717
-0.366658
-0.362
-0.357424
-0.352796
-0.348218
-0.343723
-0.339296
-0.334904
-0.330514
-0.326096
-0.321632
-0.317115
-0.312553
-0.307964
-0.303374
-0.298809
-0.294297
-0.289864
-0.285529
-0.281309
-0.277212
-0.273244
-0.269365
-0.265654
-0.379913
-0.374292
-0.369206
-0.364269
-0.359289
-0.354351
-0.349471
-0.344614
-0.339736
-0.334801
-0.329781
-0.324669
-0.319473
-0.314214
-0.308926
-0.303647
-0.298414
-0.293263
-0.288224
-0.283318
-0.278563
-0.273969
-0.269539
-0.265236
-0.26114
-0.388529
-0.382314
-0.376796
-0.37149
-0.36614
-0.360808
-0.355489
-0.350129
-0.34468
-0.339105
-0.33339
-0.327542
-0.321588
-0.315571
-0.309539
-0.303543
-0.29763
-0.29184
-0.286205
-0.280747
-0.275482
-0.270417
-0.265552
-0.260851
-0.256389
-0.397497
-0.390681
-0.38473
-0.379049
-0.373305
-0.367534
-0.361709
-0.355763
-0.349646
-0.343333
-0.336827
-0.330159
-0.323382
-0.316557
-0.30975
-0.303023
-0.296429
-0.290009
-0.283797
-0.27781
-0.272059
-0.26655
-0.261277
-0.256198
-0.25139
-0.406755
-0.399338
-0.392957
-0.38689
-0.38072
-0.374456
-0.368047
-0.36142
-0.354533
-0.34738
-0.339993
-0.332433
-0.324777
-0.31711
-0.309511
-0.30205
-0.294785
-0.287754
-0.280987
-0.274497
-0.268288
-0.262361
-0.256704
-0.25127
-0.246136
-0.416222
-0.408213
-0.401406
-0.394941
-0.388307
-0.381481
-0.374399
-0.366989
-0.359226
-0.351136
-0.342787
-0.334272
-0.325699
-0.31717
-0.308776
-0.300593
-0.292674
-0.285057
-0.277762
-0.270797
-0.264159
-0.257841
-0.251824
-0.246056
-0.24062
-0.425804
-0.417218
-0.409992
-0.403111
-0.395964
-0.388501
-0.380647
-0.372346
-0.363603
-0.354486
-0.345106
-0.335593
-0.326079
-0.316683
-0.307505
-0.298619
-0.290073
-0.281899
-0.274107
-0.266696
-0.259658
-0.252976
-0.246627
-0.240548
-0.234834
-0.435387
-0.42625
-0.418612
-0.411292
-0.403575
-0.395386
-0.386658
-0.377357
-0.367537
-0.357317
-0.346854
-0.336313
-0.325851
-0.3156
-0.305659
-0.296097
-0.286958
-0.278259
-0.270003
-0.262179
-0.254769
-0.247753
-0.241098
-0.234731
-0.228767
-0.444844
-0.435187
-0.427145
-0.419356
-0.411003
-0.401996
-0.392285
-0.381882
-0.3709
-0.359515
-0.347933
-0.336356
-0.324956
-0.313871
-0.303198
-0.292998
-0.283301
-0.274114
-0.265429
-0.257225
-0.249476
-0.242154
-0.23522
-0.228592
-0.222406
-0.45403
-0.443893
-0.435454
-0.42716
-0.418098
-0.408174
-0.397377
-0.385779
-0.373563
-0.360971
-0.348257
-0.33565
-0.323336
-0.311452
-0.300087
-0.28929
-0.279076
-0.26944
-0.260362
-0.251812
-0.243756
-0.23616
-0.228976
-0.222112
-0.215736
-0.462789
-0.452218
-0.443385
-0.434545
-0.424695
-0.413758
-0.401776
-0.388903
-0.375403
-0.361582
-0.34774
-0.334128
-0.320938
-0.3083
-0.29629
-0.284941
-0.274254
-0.264211
-0.254779
-0.245918
-0.237588
-0.229749
-0.222345
-0.215273
-0.208738
-0.47095
-0.459996
-0.450774
-0.44134
-0.430623
-0.418576
-0.405325
-0.391117
-0.376301
-0.361252
-0.346306
-0.331729
-0.317712
-0.304373
-0.29177
-0.279919
-0.268806
-0.258398
-0.248652
-0.239518
-0.230949
-0.222899
-0.215306
-0.208055
-0.201394
-0.478336
-0.467055
-0.457444
-0.447367
-0.435701
-0.422461
-0.407871
-0.392287
-0.376149
-0.359892
-0.343883
-0.328396
-0.313612
-0.29963
-0.286492
-0.274193
-0.262703
-0.251976
-0.241956
-0.232588
-0.223815
-0.21559
-0.207838
-0.200439
-0.193685
-0.48476
-0.473212
-0.46321
-0.452438
-0.439749
-0.425242
-0.409264
-0.392287
-0.374843
-0.357421
-0.340408
-0.324077
-0.308593
-0.294035
-0.280422
-0.267732
-0.255916
-0.244916
-0.234667
-0.225103
-0.216165
-0.207798
-0.199921
-0.192404
-0.185592
-0.490033
-0.478279
-0.467885
-0.456367
-0.442589
-0.42676
-0.409366
-0.391005
-0.372294
-0.353766
-0.335822
-0.318724
-0.302615
-0.287552
-0.273529
-0.260505
-0.248417
-0.237193
-0.226758
-0.217041
-0.207976
-0.199505
-0.191537
-0.183935
-0.177099
-0.493967
-0.48207
-0.47128
-0.458971
-0.444048
-0.426861
-0.40805
-0.388337
-0.368418
-0.348864
-0.330074
-0.312294
-0.295641
-0.280147
-0.265782
-0.252486
-0.24018
-0.228782
-0.218209
-0.208382
-0.19923
-0.190693
-0.182668
-0.175014
-0.16819
-0.496377
-0.484401
-0.473212
-0.460071
-0.443965
-0.425407
-0.4052
-0.384192
-0.363147
-0.342659
-0.323119
-0.304749
-0.287639
-0.271791
-0.257153
-0.243648
-0.231182
-0.219663
-0.208999
-0.199106
-0.18991
-0.181345
-0.1733
-0.16563
-0.158854
-0.497085
-0.485092
-0.473504
-0.4595
-0.442191
-0.422272
-0.400718
-0.378493
-0.356421
-0.335104
-0.314919
-0.296058
-0.278579
-0.262458
-0.24762
-0.23397
-0.221403
-0.209817
-0.199112
-0.1892
-0.180003
-0.171451
-0.163423
-0.155772
-0.149079
-0.495924
-0.483976
-0.471991
-0.457105
-0.438591
-0.417348
-0.394519
-0.371177
-0.348191
-0.326162
-0.305444
-0.286193
-0.268438
-0.252126
-0.237162
-0.223434
-0.210827
-0.199229
-0.188535
-0.178651
-0.169497
-0.161
-0.153029
-0.145433
-0.138861
-0.49274
-0.480898
-0.468522
-0.45275
-0.433053
-0.410543
-0.386534
-0.362193
-0.33842
-0.315804
-0.294668
-0.275134
-0.257197
-0.240778
-0.225764
-0.212027
-0.199441
-0.187888
-0.177258
-0.167452
-0.158388
-0.149989
-0.142113
-0.134611
-0.128196
-0.487397
-0.475719
-0.462964
-0.446317
-0.425479
-0.401787
-0.376713
-0.351506
-0.327082
-0.30401
-0.282577
-0.262867
-0.244844
-0.228404
-0.213415
-0.199738
-0.187237
-0.175788
-0.165276
-0.155598
-0.146671
-0.138414
-0.130676
-0.123307
-0.117087
-0.479778
-0.468321
-0.455206
-0.43771
-0.415797
-0.391027
-0.365021
-0.339093
-0.314162
-0.29077
-0.269161
-0.249384
-0.231371
-0.214996
-0.200111
-0.186564
-0.174213
-0.162927
-0.152589
-0.143092
-0.13435
-0.126281
-0.118722
-0.111527
-0.105539
-0.469786
-0.458606
-0.445158
-0.426857
-0.403953
-0.37823
-0.35144
-0.324945
-0.299658
-0.276082
-0.25442
-0.234685
-0.216779
-0.200555
-0.18585
-0.172504
-0.160369
-0.149308
-0.139199
-0.129936
-0.12143
-0.113596
-0.10626
-0.0992822
-0.0935631
-0.457351
-0.4465
-0.432755
-0.413708
-0.389919
-0.363383
-0.335967
-0.309068
-0.283575
-0.259954
-0.238362
-0.218776
-0.201072
-0.185084
-0.170638
-0.157566
-0.145711
-0.134935
-0.125115
-0.116139
-0.107921
-0.10037
-0.093304
-0.086586
-0.0811734
-0.442425
-0.431955
-0.417954
-0.398239
-0.373686
-0.34649
-0.318618
-0.291479
-0.265935
-0.242403
-0.221002
-0.201671
-0.184263
-0.168597
-0.154486
-0.141757
-0.130249
-0.119821
-0.110347
-0.101714
-0.0938359
-0.0866178
-0.0798697
-0.0734578
-0.0683894
-0.424985
-0.414946
-0.400742
-0.380449
-0.355268
-0.327579
-0.299422
-0.272209
-0.246765
-0.223458
-0.202364
-0.183391
-0.166371
-0.151108
-0.137409
-0.125093
-0.113998
-0.103979
-0.0949093
-0.0866766
-0.0791917
-0.0723584
-0.0659782
-0.0599205
-0.0552341
-0.405038
-0.395476
-0.38113
-0.360363
-0.334701
-0.30669
-0.278424
-0.251304
-0.226107
-0.203155
-0.18248
-0.163965
-0.147421
-0.132641
-0.119426
-0.107592
-0.0969732
-0.0874255
-0.0788194
-0.0710433
-0.0640072
-0.0576125
-0.0516534
-0.0460009
-0.0417345
-0.382613
-0.373575
-0.359153
-0.338027
-0.312042
-0.283885
-0.255686
-0.22882
-0.204013
-0.181539
-0.161392
-0.143428
-0.127444
-0.113223
-0.100563
-0.0892749
-0.0791955
-0.0701786
-0.0620949
-0.0548328
-0.0483025
-0.042403
-0.0369221
-0.0317301
-0.0279243
-0.357767
-0.349297
-0.334872
-0.313512
-0.287367
-0.259241
-0.231282
-0.204825
-0.180546
-0.158667
-0.139149
-0.121824
-0.106478
-0.0928874
-0.0808458
-0.0701668
-0.0606856
-0.0522573
-0.0447533
-0.0380629
-0.0320967
-0.0267519
-0.0218118
-0.0171433
-0.0138463
-0.330581
-0.322721
-0.308373
-0.286909
-0.260769
-0.232852
-0.205299
-0.179402
-0.155779
-0.134605
-0.115809
-0.0992051
-0.0845676
-0.0716713
-0.0603083
-0.0502937
-0.041465
-0.0336791
-0.0268098
-0.0207478
-0.0154048
-0.0106775
-0.00634754
-0.00227695
0.000453589
-0.301161
-0.293951
-0.279762
-0.25833
-0.232363
-0.204826
-0.177841
-0.152644
-0.129796
-0.109428
-0.0914401
-0.0756298
-0.0617649
-0.0496189
-0.0389859
-0.029684
-0.0215547
-0.014459
-0.00827421
-0.00289441
0.00176676
0.0058108
0.00945237
0.0128379
0.0149468
-0.269635
-0.263112
-0.249169
-0.227905
-0.202276
-0.175286
-0.149021
-0.124656
-0.102694
-0.0832239
-0.06612
-0.0511674
-0.0381295
-0.0267809
-0.0169191
-0.00836778
-0.000974232
0.00539407
0.0108535
0.0155046
0.0194293
0.0227231
0.0255906
0.0281979
0.0296455
-0.23615
-0.23035
-0.216739
-0.195782
-0.170652
-0.144368
-0.118966
-0.0955551
-0.0745795
-0.0560894
-0.0399369
-0.025897
-0.013731
-0.00321609
0.0058445
0.0136202
0.0202556
0.0258744
0.0305835
0.0344739
0.0376193
0.0401043
0.0421156
0.0438477
0.0445675
-0.200875
-0.19583
-0.182639
-0.162125
-0.137647
-0.11222
-0.0878143
-0.065468
-0.0455698
-0.0281332
-0.0129905
9.09725e-05
0.01135
0.0210055
0.0292474
0.0362366
0.0421076
0.0469723
0.0509237
0.0540378
0.0563766
0.0580092
0.0590836
0.0597816
0.0595323
-0.163994
-0.159733
-0.147049
-0.127108
-0.103432
-0.0790013
-0.0557134
-0.0345329
-0.0157936
0.000525165
0.014608
0.0266936
0.0370201
0.0458016
0.0532211
0.0594299
0.0645508
0.0686798
0.0718881
0.0742277
0.0757424
0.0764718
0.0764478
0.0757054
0.073957
-0.125706
-0.122254
-0.11016
-0.09092
-0.0681832
-0.0448794
-0.0228206
-0.00289692
0.0146109
0.029755
0.0427348
0.0537941
0.0631701
0.0710734
0.0776815
0.0831387
0.0875577
0.0910186
0.0935665
0.0952212
0.0959987
0.0958578
0.0945294
0.0917022
0.0879438
-0.0862219
-0.0836017
-0.0721771
-0.0537576
-0.032089
-0.01003
0.0106997
0.0292851
0.0454968
0.0594155
0.0712538
0.0812595
0.0896698
0.0966938
0.102508
0.107256
0.111051
0.113974
0.116066
0.117349
0.117852
0.117443
0.115406
0.111035
0.106384
-0.0457651
-0.0439935
-0.0333134
-0.015825
0.00465807
0.025366
0.0446774
0.0618528
0.076711
0.0893587
0.100019
0.108944
0.116369
0.122504
0.127526
0.131583
0.1348
0.137275
0.139086
0.140327
0.141151
0.141512
0.140525
0.13766
0.14003
-0.00455731
-0.0036499
0.00621545
0.0226702
0.0418618
0.0611244
0.0789397
0.0946425
0.108097
0.119433
0.128882
0.136697
0.143113
0.148337
0.152546
0.15589
0.158497
0.160474
0.161919
0.162954
0.163745
0.164272
0.16404
0.16347
0.168111
0.0371664
0.0371986
0.046186
0.0615154
0.0793227
0.097059
0.113312
0.12749
0.139498
0.149487
0.157694
0.164372
0.169753
0.174041
0.177409
0.180009
0.181969
0.1834
0.184407
0.185113
0.185662
0.186029
0.185862
0.185651
0.18978
0.0791696
0.0783201
0.086374
0.100498
0.116842
0.132984
0.147621
0.160231
0.17076
0.179372
0.186312
0.191827
0.196147
0.199469
0.201964
0.203777
0.205034
0.205846
0.206315
0.206557
0.2067
0.206726
0.206337
0.205928
0.209104
0.121215
0.119482
0.126555
0.139406
0.154221
0.168716
0.181696
0.192708
0.201731
0.208946
0.214598
0.218931
0.222167
0.224498
0.226088
0.227076
0.227582
0.22771
0.227555
0.227221
0.226817
0.226314
0.22544
0.224564
0.226829
0.163068
0.160453
0.166506
0.178029
0.191265
0.204074
0.215369
0.224762
0.232266
0.238072
0.242423
0.24556
0.247698
0.249019
0.249679
0.249811
0.249528
0.248925
0.248088
0.247109
0.24608
0.244959
0.243495
0.242055
0.243437
0.204493
0.201003
0.206008
0.216161
0.227782
0.238881
0.248478
0.256245
0.262225
0.266618
0.269666
0.271602
0.272633
0.272933
0.27265
0.271907
0.270809
0.269444
0.267888
0.266222
0.264523
0.262739
0.260645
0.258613
0.259151
0.245262
0.240908
0.244845
0.253601
0.263588
0.272967
0.280864
0.28701
0.291473
0.29446
0.296211
0.296951
0.296877
0.296155
0.294923
0.293298
0.291375
0.289233
0.286941
0.284571
0.282185
0.279729
0.277
0.274376
0.274105
0.28515
0.279948
0.282807
0.290152
0.2985
0.306165
0.312375
0.316916
0.31988
0.32148
0.321949
0.321506
0.320338
0.318602
0.316429
0.313924
0.311177
0.308258
0.305229
0.302154
0.299083
0.295962
0.292613
0.28941
0.288363
0.32394
0.31791
0.319692
0.325626
0.332345
0.338315
0.342865
0.34583
0.347325
0.347563
0.346776
0.345173
0.342931
0.3402
0.337099
0.333728
0.330168
0.326483
0.322728
0.31896
0.315219
0.311452
0.307504
0.303742
0.30195
0.361422
0.354589
0.355304
0.359841
0.364955
0.369265
0.372193
0.373623
0.373687
0.372602
0.370593
0.367861
0.364574
0.360873
0.356869
0.352655
0.348303
0.343871
0.33941
0.334967
0.330579
0.326192
0.321674
0.317374
0.314867
0.397396
0.389788
0.389456
0.392623
0.396172
0.398869
0.400226
0.400171
0.398854
0.396492
0.393305
0.389483
0.385189
0.380551
0.375676
0.370647
0.365531
0.36038
0.355239
0.350149
0.345141
0.340163
0.335105
0.330293
0.327102
0.431668
0.42332
0.421971
0.423807
0.425843
0.426987
0.426835
0.425359
0.422719
0.419136
0.41482
0.409958
0.404699
0.399166
0.393457
0.387649
0.381803
0.375966
0.370176
0.364471
0.358874
0.35334
0.347774
0.342476
0.338633
0.464058
0.455008
0.45268
0.453238
0.453825
0.453488
0.451902
0.449074
0.44518
0.440438
0.435054
0.429204
0.423031
0.41665
0.410151
0.403606
0.397069
0.390582
0.38418
0.377895
0.371745
0.36569
0.35965
0.353894
0.349433
0.494395
0.484684
0.481426
0.480769
0.479985
0.478249
0.475312
0.471214
0.466142
0.460312
0.453924
0.447147
0.440116
0.432939
0.4257
0.418463
0.411279
0.404185
0.39721
0.390383
0.383718
0.377178
0.370699
0.364514
0.359472
0.522521
0.512195
0.508062
0.506264
0.504197
0.501157
0.496961
0.491682
0.485514
0.478673
0.471353
0.463715
0.455889
0.447973
0.440046
0.432169
0.424384
0.416727
0.409223
0.401895
0.394754
0.387769
0.380886
0.374304
0.368721
0.548288
0.537398
0.532453
0.529599
0.526347
0.522104
0.516751
0.510386
0.503213
0.495444
0.48727
0.478843
0.470286
0.461694
0.453137
0.444672
0.436339
0.428167
0.420178
0.412392
0.404818
0.397427
0.390177
0.383231
0.377149
0.571563
0.560161
0.554477
0.550658
0.546328
0.540995
0.534593
0.527246
0.519163
0.510556
0.501609
0.492469
0.483252
0.474048
0.464923
0.455927
0.447098
0.438462
0.430037
0.421839
0.413874
0.406119
0.39854
0.391265
0.384729
0.592226
0.580369
0.574022
0.569341
0.564048
0.557743
0.550407
0.542187
0.533295
0.523943
0.51431
0.504537
0.494734
0.484987
0.475357
0.465891
0.456623
0.447575
0.438763
0.4302
0.421889
0.413813
0.405943
0.398375
0.391435
0.610171
0.597918
0.59099
0.585555
0.579423
0.57227
0.564123
0.555143
0.545549
0.53555
0.52532
0.514997
0.504686
0.494467
0.4844
0.474526
0.464876
0.455471
0.446323
0.437444
0.428834
0.42048
0.412359
0.404537
0.397244
0.625306
0.612718
0.605298
0.599224
0.592381
0.584512
0.575679
0.566058
0.555871
0.545326
0.534593
0.523806
0.513067
0.502451
0.492014
0.481796
0.471825
0.462119
0.45269
0.443544
0.434683
0.426095
0.417763
0.409726
0.402134
0.637553
0.624695
0.616874
0.610281
0.602861
0.594411
0.585023
0.574882
0.564216
0.55323
0.54209
0.530929
0.519842
0.508905
0.49817
0.487674
0.477444
0.467495
0.457838
0.448477
0.439413
0.430637
0.422135
0.413923
0.406089
0.64685
0.633787
0.625662
0.618672
0.610814
0.601923
0.592113
0.581579
0.570549
0.559227
0.54778
0.536334
0.524985
0.513804
0.502843
0.492136
0.481709
0.471577
0.461747
0.452223
0.443005
0.434087
0.425456
0.417113
0.409094
0.65315
0.639949
0.631617
0.62436
0.616203
0.607014
0.596918
0.586118
0.574842
0.563294
0.551638
0.539999
0.528473
0.517128
0.506013
0.495165
0.484605
0.474348
0.464402
0.454769
0.445447
0.436432
0.427715
0.419283
0.411139
0.656422
0.643151
0.634712
0.627315
0.619005
0.609661
0.599417
0.588479
0.577076
0.565411
0.553648
0.54191
0.530292
0.518862
0.50767
0.496748
0.48612
0.475799
0.465793
0.456103
0.446728
0.437664
0.428903
0.420424
0.412217
0.656651
0.643377
0.634932
0.627526
0.619206
0.609853
0.5996
0.588654
0.577243
0.565572
0.553802
0.542059
0.530436
0.519002
0.507805
0.496879
0.486248
0.475924
0.465915
0.456222
0.446844
0.437778
0.429014
0.420534
0.412323
0.653835
0.640627
0.632277
0.624992
0.616807
0.607589
0.597466
0.586641
0.575343
0.563775
0.5521
0.540446
0.528904
0.517546
0.506419
0.495559
0.484989
0.474722
0.464767
0.455125
0.445795
0.436773
0.42805
0.419611
0.411459
0.647992
0.634916
0.62676
0.619727
0.611819
0.602881
0.593026
0.582451
0.571384
0.560029
0.548551
0.537078
0.525704
0.514501
0.503518
0.492793
0.482348
0.4722
0.462355
0.452817
0.443586
0.434655
0.426014
0.41766
0.409627
0.639151
0.626276
0.618412
0.611756
0.604268
0.595752
0.5863
0.576103
0.565385
0.554351
0.54317
0.53197
0.520849
0.50988
0.499116
0.488593
0.478338
0.468367
0.458688
0.449308
0.440225
0.431432
0.422915
0.414689
0.406834
0.627359
0.61475
0.607274
0.60112
0.59419
0.586235
0.577321
0.567626
0.557373
0.546768
0.535981
0.525145
0.51436
0.503704
0.493229
0.482977
0.472974
0.463239
0.453783
0.444612
0.435727
0.427117
0.418766
0.41071
0.403091
0.612679
0.6004
0.593404
0.587872
0.581633
0.574375
0.566129
0.557059
0.547384
0.537311
0.527015
0.516632
0.506266
0.495998
0.485884
0.475968
0.46628
0.456839
0.447658
0.438748
0.430109
0.421728
0.413584
0.405739
0.398413
0.595188
0.5833
0.576872
0.572077
0.566659
0.560228
0.552777
0.54445
0.535462
0.526024
0.516312
0.506467
0.4966
0.486794
0.47711
0.467595
0.458281
0.44919
0.440339
0.431739
0.423394
0.415286
0.407389
0.399795
0.392816
0.574978
0.56354
0.557763
0.553813
0.549338
0.543861
0.537325
0.529855
0.521662
0.512955
0.503917
0.494695
0.485404
0.476131
0.466944
0.457891
0.44901
0.440324
0.431854
0.423613
0.415609
0.407818
0.400206
0.392901
0.38632
0.552153
0.541223
0.536174
0.533171
0.529755
0.52535
0.519845
0.513342
0.506042
0.498161
0.489884
0.481364
0.472723
0.464053
0.455426
0.446896
0.438503
0.430275
0.422236
0.414402
0.406782
0.39935
0.392064
0.385083
0.37895
0.526836
0.516465
0.512216
0.510253
0.508003
0.504782
0.500416
0.494982
0.488674
0.481706
0.474272
0.466531
0.45861
0.450608
0.442602
0.434652
0.426801
0.419082
0.41152
0.404138
0.396947
0.389915
0.382992
0.376371
0.370731
0.499158
0.489398
0.486012
0.485173
0.484187
0.482252
0.479128
0.474859
0.469631
0.463661
0.457147
0.450256
0.443121
0.435849
0.428522
0.421205
0.413947
0.406784
0.399746
0.392859
0.386138
0.379547
0.373023
0.366795
0.361692
0.469266
0.460162
0.457695
0.458055
0.458423
0.457867
0.456076
0.453062
0.448999
0.444103
0.438581
0.432605
0.426318
0.419833
0.413239
0.406606
0.399988
0.393426
0.386954
0.380604
0.374393
0.368281
0.362191
0.356389
0.351861
0.437318
0.428913
0.427414
0.429036
0.430834
0.431741
0.431368
0.429688
0.426865
0.423115
0.41865
0.413651
0.408268
0.402622
0.396809
0.390906
0.384972
0.379053
0.373187
0.367411
0.361748
0.356152
0.350532
0.345184
0.341268
0.403486
0.395817
0.395324
0.398261
0.401554
0.403997
0.405114
0.404841
0.403326
0.400785
0.397435
0.393467
0.389039
0.38428
0.379292
0.37416
0.368949
0.36371
0.358487
0.353321
0.34824
0.343196
0.338079
0.333213
0.329944
0.367949
0.36105
0.361594
0.365886
0.370727
0.374765
0.377436
0.378632
0.378483
0.377206
0.375024
0.372135
0.368705
0.364873
0.360749
0.356424
0.35197
0.347444
0.342894
0.33837
0.333904
0.329444
0.324863
0.320506
0.317915
0.330898
0.324799
0.326401
0.332075
0.338503
0.344184
0.348461
0.351176
0.352444
0.352478
0.351506
0.349735
0.347341
0.34447
0.341242
0.337753
0.334084
0.330298
0.326449
0.322592
0.318769
0.314924
0.310908
0.307084
0.305204
0.292536
0.287261
0.289931
0.297002
0.305042
0.3124
0.318322
0.322598
0.325322
0.326704
0.326977
0.326356
0.325027
0.323143
0.320833
0.318204
0.315341
0.312314
0.309186
0.306017
0.302858
0.299654
0.296232
0.292963
0.291823
0.253071
0.248641
0.252379
0.260847
0.270511
0.279566
0.287158
0.293024
0.297234
0.299992
0.301536
0.302088
0.301843
0.300965
0.29959
0.297833
0.295787
0.293532
0.291134
0.288665
0.286185
0.283641
0.280834
0.278141
0.277771
0.212719
0.20915
0.213948
0.2238
0.235082
0.245842
0.255118
0.26259
0.268303
0.272455
0.275286
0.277025
0.277876
0.278012
0.277578
0.276696
0.27547
0.273985
0.272318
0.270548
0.268749
0.266873
0.264695
0.26259
0.263024
0.171705
0.169007
0.174846
0.186056
0.198937
0.211391
0.222351
0.231436
0.23866
0.244213
0.248336
0.251267
0.253216
0.254365
0.254868
0.254855
0.254438
0.25371
0.252756
0.251669
0.250535
0.249316
0.247764
0.246246
0.247519
0.130256
0.128437
0.135289
0.147815
0.162261
0.176386
0.189016
0.199705
0.208437
0.215388
0.220802
0.224919
0.22796
0.230112
0.231538
0.232375
0.232741
0.23274
0.232464
0.232017
0.231504
0.230898
0.229932
0.228974
0.231123
0.0886054
0.0876683
0.095494
0.109283
0.125245
0.141002
0.155275
0.16755
0.177774
0.186113
0.192804
0.198096
0.202212
0.205349
0.207673
0.20933
0.210444
0.211122
0.211466
0.211591
0.211622
0.211542
0.211057
0.210563
0.213617
0.0469886
0.0469307
0.0556844
0.0706689
0.0880819
0.10542
0.121295
0.135125
0.146818
0.156522
0.164473
0.170919
0.176089
0.180185
0.183378
0.185817
0.187629
0.188923
0.189803
0.19039
0.190825
0.191085
0.190822