/*--------------------------------*- C++ -*----------------------------------*\
  =========                 |
  \\      /  F ield         | OpenFOAM: The Open Source CFD Toolbox
   \\    /   O peration     | Website:  https://openfoam.org
    \\  /    A nd           | Version:  6.0
     \\/     M anipulation  |
\*---------------------------------------------------------------------------*/
FoamFile
{
    version     2.0;
    format      ascii;
    class       surfaceScalarField;
    location    "50";
    object      phi;
}
// * * * * * * * * * * * * * * * * * * * * * * * * * * * * * * * * * * * * * //

dimensions      [0 3 -1 0 0 0 0];

internalField   nonuniform List<scalar> 
24700
(
-1.1223e-06
8.9943e-06
-7.872e-06
-4.11125e-06
2.32845e-05
-2.02955e-05
-8.62432e-06
3.46088e-05
-3.00957e-05
-1.43497e-05
4.34804e-05
-3.7755e-05
-2.10111e-05
5.03446e-05
-4.36832e-05
-2.83694e-05
5.55945e-05
-4.82362e-05
-3.62224e-05
5.95716e-05
-5.17185e-05
-4.44039e-05
6.25688e-05
-5.43874e-05
-5.27812e-05
6.48339e-05
-5.64565e-05
-6.12541e-05
6.6573e-05
-5.81002e-05
-6.97514e-05
6.79558e-05
-5.94585e-05
-7.82298e-05
6.91191e-05
-6.06407e-05
-8.66707e-05
7.01715e-05
-6.17307e-05
-9.50782e-05
7.11975e-05
-6.279e-05
-0.000103477
7.22609e-05
-6.38623e-05
-0.000111909
7.34086e-05
-6.49766e-05
-0.000120432
7.46728e-05
-6.61498e-05
-0.000129116
7.60736e-05
-6.73892e-05
-0.000138042
7.76208e-05
-6.86948e-05
-0.000147298
7.93156e-05
-7.00603e-05
-0.000156974
8.11517e-05
-7.14749e-05
-0.000167166
8.31165e-05
-7.29245e-05
-0.000177967
8.51918e-05
-7.43917e-05
-0.000189465
8.73521e-05
-7.58539e-05
8.95697e-05
-7.72856e-05
-0.000201749
-1.06726e-06
1.00616e-05
-3.92047e-06
2.61377e-05
-8.23764e-06
3.8926e-05
-1.37217e-05
4.89644e-05
-2.01068e-05
5.67297e-05
-2.71609e-05
6.26486e-05
-3.46861e-05
6.70968e-05
-4.25183e-05
7.0401e-05
-5.05256e-05
7.28412e-05
-5.86069e-05
7.46543e-05
-6.66896e-05
7.60385e-05
-7.47278e-05
7.71574e-05
-8.27005e-05
7.81442e-05
-9.0609e-05
7.9106e-05
-9.84752e-05
8.01271e-05
-0.000106339
8.12724e-05
-0.000114256
8.25901e-05
-0.000122296
8.41137e-05
-0.00013054
8.58639e-05
-0.000139074
8.78501e-05
-0.000147994
9.00714e-05
-0.000157395
9.25182e-05
-0.000167375
9.51719e-05
-0.000178029
9.80053e-05
0.000100989
-0.000189448
-1.01592e-06
1.10775e-05
-3.74053e-06
2.88623e-05
-7.86927e-06
4.30547e-05
-1.31174e-05
5.42126e-05
-1.92276e-05
6.28399e-05
-2.59731e-05
6.9394e-05
-3.31587e-05
7.42824e-05
-4.06209e-05
7.78633e-05
-4.82269e-05
8.04471e-05
-5.58728e-05
8.23002e-05
-6.34826e-05
8.36483e-05
-7.10061e-05
8.46809e-05
-7.84175e-05
8.55556e-05
-8.57135e-05
8.6402e-05
-9.29114e-05
8.7325e-05
-0.000100047
8.84084e-05
-0.000107174
8.97172e-05
-0.00011436
9.12994e-05
-0.000121684
9.31882e-05
-0.000129237
9.54025e-05
-0.000137114
9.79488e-05
-0.000145418
0.000100822
-0.00015425
0.000104004
-0.000163713
0.000107468
0.000111184
-0.000173908
-9.69089e-07
1.20466e-05
-3.57407e-06
3.14673e-05
-7.52443e-06
4.70051e-05
-1.25452e-05
5.92334e-05
-1.83855e-05
6.86802e-05
-2.48221e-05
7.58307e-05
-3.16613e-05
8.11216e-05
-3.87386e-05
8.49406e-05
-4.59183e-05
8.76268e-05
-5.30925e-05
8.94744e-05
-6.01796e-05
9.07354e-05
-6.71231e-05
9.16245e-05
-7.38905e-05
9.2323e-05
-8.04714e-05
9.29829e-05
-8.68769e-05
9.37304e-05
-9.31373e-05
9.46688e-05
-9.93013e-05
9.58812e-05
-0.000105434
9.74319e-05
-0.000111614
9.93683e-05
-0.000117933
0.000101721
-0.000124491
0.000104507
-0.000131397
0.000107727
-0.00013876
0.000111367
-0.000146693
0.000115402
0.0001198
-0.000155309
-9.27538e-07
1.29741e-05
-3.42355e-06
3.39633e-05
-7.20788e-06
5.07894e-05
-1.20127e-05
6.40382e-05
-1.75916e-05
7.42592e-05
-2.37236e-05
8.19627e-05
-3.02147e-05
8.76127e-05
-3.68982e-05
9.16241e-05
-4.36343e-05
9.4363e-05
-5.03093e-05
9.61494e-05
-5.68344e-05
9.72604e-05
-6.31447e-05
9.79348e-05
-6.91987e-05
9.8377e-05
-7.49769e-05
9.87612e-05
-8.04816e-05
9.9235e-05
-8.57353e-05
9.99226e-05
-9.07804e-05
0.000100926
-9.56775e-05
0.000102329
-0.000100504
0.000104195
-0.000105353
0.00010657
-0.00011033
0.000109483
-0.000115548
0.000112946
-0.000121131
0.00011695
-0.000127205
0.000121475
0.000126492
-0.000133897
-8.91924e-07
1.3866e-05
-3.29098e-06
3.63623e-05
-6.92353e-06
5.44219e-05
-1.15262e-05
6.86409e-05
-1.68554e-05
7.95883e-05
-2.26906e-05
8.77979e-05
-2.88368e-05
9.37588e-05
-3.51239e-05
9.79112e-05
-4.14071e-05
0.000100646
-4.75652e-05
0.000102308
-5.35008e-05
0.000103196
-5.91387e-05
0.000103573
-6.44261e-05
0.000103664
-6.93322e-05
0.000103667
-7.38476e-05
0.00010375
-7.79846e-05
0.00010406
-8.17766e-05
0.000104718
-8.52782e-05
0.000105831
-8.85636e-05
0.000107481
-9.17261e-05
0.000109733
-9.48756e-05
0.000112633
-9.81363e-05
0.000116206
-0.000101644
0.000120458
-0.000105541
0.000125373
0.000130929
-0.000109978
-8.62709e-07
1.47287e-05
-3.17771e-06
3.86773e-05
-6.67387e-06
5.79181e-05
-1.10898e-05
7.30568e-05
-1.61827e-05
8.46812e-05
-2.17319e-05
9.33472e-05
-2.75403e-05
9.95673e-05
-3.34341e-05
0.000103805
-3.92621e-05
0.000106474
-4.48954e-05
0.000107941
-5.0226e-05
0.000108527
-5.51672e-05
0.000108514
-5.96528e-05
0.00010815
-6.36377e-05
0.000107652
-6.70985e-05
0.000107211
-7.00337e-05
0.000106995
-7.24652e-05
0.00010715
-7.44379e-05
0.000107803
-7.60209e-05
0.000109063
-7.73061e-05
0.000111018
-7.84079e-05
0.000113735
-7.94608e-05
0.000117259
-8.06164e-05
0.000121613
-8.204e-05
0.000126796
0.000132796
-8.39074e-05
-8.40078e-07
1.55688e-05
-3.08409e-06
4.09214e-05
-6.45936e-06
6.12934e-05
-1.0704e-05
7.73014e-05
-1.55747e-05
8.95519e-05
-2.08498e-05
9.86223e-05
-2.63299e-05
0.000105047
-3.18367e-05
0.000109312
-3.72132e-05
0.000111851
-4.23214e-05
0.000113049
-4.70428e-05
0.000113248
-5.12772e-05
0.000112748
-5.49433e-05
0.000111816
-5.79796e-05
0.000110688
-6.03452e-05
0.000109577
-6.20217e-05
0.000108671
-6.30151e-05
0.000108143
-6.33575e-05
0.000108146
-6.31086e-05
0.000108815
-6.23569e-05
0.000110266
-6.12195e-05
0.000112597
-5.98416e-05
0.000115881
-5.83933e-05
0.000120165
-5.7067e-05
0.00012547
0.000131802
-5.60729e-05
-8.23855e-07
1.63927e-05
-3.00922e-06
4.31067e-05
-6.27791e-06
6.45621e-05
-1.03651e-05
8.13886e-05
-1.50262e-05
9.42129e-05
-2.00378e-05
0.000103634
-2.51981e-05
0.000110208
-3.03252e-05
0.000114439
-3.52558e-05
0.000116781
-3.98439e-05
0.000117637
-4.39594e-05
0.000117364
-4.74885e-05
0.000116277
-5.03333e-05
0.000114661
-5.24134e-05
0.000112769
-5.36679e-05
0.000110831
-5.40575e-05
0.000109061
-5.35679e-05
0.000107654
-5.22133e-05
0.000106791
-5.00395e-05
0.000106641
-4.71272e-05
0.000107354
-4.35937e-05
0.000109064
-3.95935e-05
0.000111881
-3.53177e-05
0.000115889
-3.09911e-05
0.000121143
0.000127678
-2.68673e-05
-8.13435e-07
1.72061e-05
-2.95074e-06
4.5244e-05
-6.12434e-06
6.77357e-05
-1.00645e-05
8.53288e-05
-1.45241e-05
9.86724e-05
-1.92781e-05
0.000108388
-2.4123e-05
0.000115052
-2.88737e-05
0.00011919
-3.3362e-05
0.000121269
-3.74341e-05
0.000121709
-4.09497e-05
0.000120879
-4.37808e-05
0.000119109
-4.58128e-05
0.000116693
-4.6945e-05
0.000113901
-4.70935e-05
0.00011098
-4.61945e-05
0.000108162
-4.42087e-05
0.000105668
-4.11266e-05
0.000103709
-3.69739e-05
0.000102488
-3.18174e-05
0.000102197
-2.57696e-05
0.000103016
-1.89922e-05
0.000105104
-1.16977e-05
0.000108595
-4.14875e-06
0.000113594
0.000120183
3.34663e-06
-8.07751e-07
1.80139e-05
-2.90469e-06
4.7341e-05
-5.99016e-06
7.08211e-05
-9.78764e-06
8.91263e-05
-1.40465e-05
0.000102931
-1.85407e-05
0.000112882
-2.30652e-05
0.000119577
-2.74334e-05
0.000123558
-3.14736e-05
0.00012531
-3.50261e-05
0.000125262
-3.79416e-05
0.000123795
-4.00797e-05
0.000121247
-4.1309e-05
0.000117922
-4.15082e-05
0.0001141
-4.05691e-05
0.000110041
-3.84e-05
0.000105993
-3.49319e-05
0.0001022
-3.01251e-05
9.89023e-05
-2.39778e-05
9.63409e-05
-1.65349e-05
9.47546e-05
-7.89678e-06
9.4378e-05
1.77301e-06
9.54341e-05
1.22418e-05
9.81258e-05
2.32045e-05
0.000102632
0.000109101
3.42861e-05
-8.05278e-07
1.88191e-05
-2.86549e-06
4.94012e-05
-5.86349e-06
7.38191e-05
-9.51399e-06
9.27768e-05
-1.35625e-05
0.00010698
-1.77815e-05
0.000117101
-2.19661e-05
0.000123762
-2.59295e-05
0.000127521
-2.94985e-05
0.000128879
-3.251e-05
0.000128273
-3.48083e-05
0.000126093
-3.62428e-05
0.000122681
-3.66676e-05
0.000118347
-3.5942e-05
0.000113374
-3.3933e-05
0.000108032
-3.05196e-05
0.000102579
-2.55988e-05
9.7279e-05
-1.9095e-05
9.23985e-05
-1.09703e-05
8.82161e-05
-1.23758e-06
8.50219e-05
1.00251e-05
8.31153e-05
2.2661e-05
8.27982e-05
3.6422e-05
8.43648e-05
5.0958e-05
8.80957e-05
9.42456e-05
6.58135e-05
-8.04085e-07
1.96232e-05
-2.82617e-06
5.14233e-05
-5.72931e-06
7.67223e-05
-9.21761e-06
9.62651e-05
-1.30317e-05
0.000110794
-1.6943e-05
0.000121012
-2.07474e-05
0.000127566
-2.42596e-05
0.000131033
-2.73073e-05
0.000131926
-2.9727e-05
0.000130693
-3.13599e-05
0.000127726
-3.20489e-05
0.00012337
-3.16372e-05
0.000117935
-2.99679e-05
0.000111705
-2.68856e-05
0.000104949
-2.224e-05
9.79338e-05
-1.58928e-05
9.09318e-05
-7.72717e-06
8.42328e-05
2.33892e-06
7.815e-05
1.43355e-05
7.30254e-05
2.82202e-05
6.92306e-05
4.38564e-05
6.7162e-05
6.099e-05
6.72312e-05
7.92273e-05
6.98584e-05
7.54533e-05
9.80196e-05
-8.01947e-07
2.04252e-05
-2.77862e-06
5.33999e-05
-5.57013e-06
7.95138e-05
-8.86782e-06
9.95628e-05
-1.24063e-05
0.000114332
-1.59555e-05
0.000124562
-1.93127e-05
0.000130923
-2.22953e-05
0.000134016
-2.47343e-05
0.000134365
-2.64687e-05
0.000132427
-2.73405e-05
0.000128598
-2.7191e-05
0.000123221
-2.58577e-05
0.000116602
-2.31729e-05
0.00010902
-1.89637e-05
0.00010074
-1.30546e-05
9.20247e-05
-5.27328e-06
8.31505e-05
4.53991e-06
7.44196e-05
1.65171e-05
6.61728e-05
3.07423e-05
5.88002e-05
4.72242e-05
5.27487e-05
6.58637e-05
4.85225e-05
8.64171e-05
4.66777e-05
0.000108455
4.78203e-05
5.25821e-05
0.000131326
-7.9649e-07
2.12217e-05
-2.71411e-06
5.53176e-05
-5.3668e-06
8.21665e-05
-8.43066e-06
0.000102627
-1.16325e-05
0.000117534
-1.47396e-05
0.000127669
-1.75503e-05
0.000133734
-1.98854e-05
0.000136351
-2.15806e-05
0.000136061
-2.24802e-05
0.000133327
-2.24308e-05
0.000128548
-2.12772e-05
0.000122067
-1.88576e-05
0.000114182
-1.5001e-05
0.000105164
-9.52528e-06
9.52643e-05
-2.23764e-06
8.47371e-05
7.06174e-06
7.38511e-05
1.85717e-05
6.29096e-05
3.24759e-05
5.22687e-05
4.89198e-05
4.23563e-05
6.79782e-05
3.36902e-05
8.96113e-05
2.68895e-05
0.00011361
2.26795e-05
0.000139526
2.19034e-05
2.55035e-05
0.000166605
-7.85377e-07
2.2007e-05
-2.62382e-06
5.7156e-05
-5.09971e-06
8.46424e-05
-7.87074e-06
0.000105398
-1.06532e-05
0.000120317
-1.32098e-05
0.000130225
-1.53384e-05
0.000135862
-1.68624e-05
0.000137875
-1.76225e-05
0.000136821
-1.74695e-05
0.000133174
-1.62579e-05
0.000127337
-1.38404e-05
0.000119649
-1.00628e-05
0.000110405
-4.75957e-06
9.98606e-05
2.24982e-06
8.82549e-05
1.11631e-05
7.58238e-05
2.21949e-05
6.28193e-05
3.55722e-05
4.95323e-05
5.1523e-05
3.63179e-05
7.02548e-05
2.36244e-05
9.19191e-05
1.2026e-05
0.000116557
2.25149e-06
0.000144025
-4.78832e-06
0.00017389
-7.96204e-06
-5.90905e-06
0.000205303
-7.66488e-07
2.27735e-05
-2.49946e-06
5.8889e-05
-4.74986e-06
8.68928e-05
-7.15312e-06
0.000107801
-9.41137e-06
0.000122575
-1.12792e-05
0.000132093
-1.25512e-05
0.000137134
-1.30508e-05
0.000138375
-1.26221e-05
0.000136392
-1.11217e-05
0.000131674
-8.41291e-06
0.000124628
-4.35945e-06
0.000115596
1.17975e-06
0.000104866
8.35596e-06
9.26844e-05
1.73358e-05
7.92751e-05
2.83062e-05
6.48534e-05
4.14777e-05
4.96478e-05
5.70851e-05
3.39249e-05
7.53824e-05
1.80206e-05
9.66266e-05
2.38024e-06
0.000121045
-1.23923e-05
0.000148776
-2.54794e-05
0.000179776
-3.57887e-05
0.000213676
-4.18617e-05
-4.17982e-05
0.000249565
-7.3807e-07
2.35116e-05
-2.33369e-06
6.04846e-05
-4.29989e-06
8.8859e-05
-6.24507e-06
0.000109746
-7.85244e-06
0.000124182
-8.86377e-06
0.000133104
-9.06537e-06
0.000137336
-8.27654e-06
0.000137586
-6.34041e-06
0.000134456
-3.11647e-06
0.00012845
1.52547e-06
0.000119986
7.7106e-06
0.000109411
1.55642e-05
9.70121e-05
2.52166e-05
8.30319e-05
3.68093e-05
6.76824e-05
5.05012e-05
5.11615e-05
6.64754e-05
3.36736e-05
8.49458e-05
1.54545e-05
0.00010616
-3.19347e-06
0.000130394
-2.18536e-05
0.000157929
-3.99281e-05
0.000189002
-5.65523e-05
0.000223699
-7.04857e-05
0.000261774
-7.99364e-05
-8.23498e-05
0.000302325
-6.98811e-07
2.42104e-05
-2.12041e-06
6.19062e-05
-3.73464e-06
9.04732e-05
-5.11722e-06
0.000111129
-5.92657e-06
0.000124992
-5.88548e-06
0.000133063
-4.76569e-06
0.000136216
-2.37559e-06
0.000135196
1.44916e-06
0.000130631
6.85269e-06
0.000123046
1.39642e-05
0.000112874
2.29019e-05
0.000100473
3.3777e-05
8.6137e-05
4.66972e-05
7.01118e-05
6.17713e-05
5.26082e-05
7.91157e-05
3.38171e-05
9.88626e-05
1.39268e-05
0.00012117
-6.85323e-06
0.000146235
-2.82586e-05
0.000174302
-4.99197e-05
0.000205656
-7.12826e-05
0.000240599
-9.14949e-05
0.000279353
-0.00010924
0.00032186
-0.000122444
-0.000127833
0.000367344
-6.47809e-07
2.48582e-05
-1.85467e-06
6.31131e-05
-3.04105e-06
9.16596e-05
-3.7436e-06
0.000111831
-3.58915e-06
0.000124837
-2.27422e-06
0.000131748
4.51892e-07
0.00013349
4.8002e-06
0.000130848
1.09515e-05
0.00012448
1.90628e-05
0.000114935
2.92715e-05
0.000102666
4.16977e-05
8.80469e-05
5.64459e-05
7.13888e-05
7.36054e-05
5.29522e-05
9.32527e-05
3.2961e-05
0.000115454
1.16155e-05
0.000140274
-1.08925e-05
0.000167781
-3.43611e-05
0.000198073
-5.85505e-05
0.000231291
-8.31373e-05
0.000267644
-0.000107636
0.000307417
-0.000131268
0.000350925
-0.000152748
0.000398341
-0.000169859
-0.000178656
0.000449164
-5.84424e-07
2.54426e-05
-1.5322e-06
6.40608e-05
-2.20742e-06
9.23348e-05
-2.10064e-06
0.000111724
-7.99651e-07
0.000123536
2.03339e-06
0.000128915
6.68052e-06
0.000128843
1.33819e-05
0.000124146
2.23453e-05
0.000115516
3.37523e-05
0.000103528
4.77606e-05
8.86574e-05
6.4505e-05
7.13025e-05
8.40956e-05
5.17982e-05
0.000106616
3.04321e-05
0.000132119
7.45806e-06
0.000160626
-1.68918e-05
0.000192128
-4.23943e-05
0.000226588
-6.88218e-05
0.00026396
-9.59225e-05
0.000304211
-0.000123388
0.000347363
-0.000150788
0.000393548
-0.000177452
0.000443041
-0.00020224
0.000496208
-0.000223027
-0.000235424
0.000552975
-5.08004e-07
2.59506e-05
-1.14863e-06
6.47015e-05
-1.22191e-06
9.24081e-05
-1.64881e-07
0.000110667
2.48146e-06
0.00012089
7.09773e-06
0.000124299
1.40066e-05
0.000121934
2.34874e-05
0.000114665
3.57865e-05
0.000103217
5.11219e-05
8.81925e-05
6.96853e-05
7.00939e-05
9.16411e-05
4.93468e-05
0.000117122
2.63177e-05
0.000146222
1.33214e-06
0.00017899
-2.53108e-05
0.000215423
-5.33246e-05
0.000255453
-8.24237e-05
0.000298943
-0.000112312
0.00034569
-0.000142669
0.000395437
-0.000173135
0.000447915
-0.000203267
0.000502918
-0.000232455
0.000560426
-0.000259748
0.000620763
-0.000283363
-0.000299038
0.000684377
-4.17533e-07
2.63682e-05
-6.98409e-07
6.49823e-05
-7.04938e-08
9.17802e-05
2.09018e-06
0.000108507
6.29711e-06
0.000116683
1.2982e-05
0.000117614
2.25169e-05
0.000112399
3.52303e-05
0.000101952
5.14172e-05
8.70306e-05
7.13434e-05
6.82663e-05
9.52474e-05
4.619e-05
0.000123337
2.12574e-05
0.000155783
-6.1284e-06
0.000192712
-3.55973e-05
0.000234195
-6.67937e-05
0.000280231
-9.93607e-05
0.000330732
-0.000132925
0.000385502
-0.000167082
0.000444216
-0.000201383
0.000506403
-0.000235322
0.00057145
-0.000268313
0.000638646
-0.000299651
0.000707324
-0.000328427
0.000777214
-0.000353253
-0.00037131
0.000849486
-3.11264e-07
2.66794e-05
-1.73714e-07
6.48448e-05
1.26511e-06
9.03413e-05
4.69742e-06
0.000105074
1.06985e-05
0.000110682
1.97587e-05
0.000108554
3.23074e-05
9.98505e-05
4.87301e-05
8.55291e-05
6.93784e-05
6.63823e-05
9.45742e-05
4.30704e-05
0.000124611
1.61535e-05
0.000159748
-1.38802e-05
0.000200209
-4.65893e-05
0.000246168
-8.1556e-05
0.00029774
-0.000118366
0.000354968
-0.000156588
0.000417799
-0.000195756
0.00048606
-0.000235343
0.000559415
-0.000274739
0.000637311
-0.000313218
0.000718897
-0.000349899
0.000802949
-0.000383704
0.000887831
-0.000413308
0.000971825
-0.000437248
-0.000456335
0.00105685
-1.86391e-07
2.68658e-05
4.36513e-07
6.42219e-05
2.80924e-06
8.79686e-05
7.69892e-06
0.000100185
1.57492e-05
0.000102632
2.75153e-05
9.6788e-05
4.34901e-05
8.38757e-05
6.41212e-05
6.4898e-05
8.98206e-05
4.0683e-05
0.000120969
1.19224e-05
0.000157914
-2.07915e-05
0.000200969
-5.69352e-05
0.000250406
-9.60265e-05
0.000306451
-0.000137601
0.000369274
-0.00018119
0.00043899
-0.000226304
0.000515643
-0.000272409
0.000599206
-0.000318905
0.00068956
-0.000365093
0.000786463
-0.00041012
0.000889462
-0.000452898
0.000997704
-0.000491946
0.00110933
-0.000524931
0.00121968
-0.000547602
-0.000553729
0.00131707
-3.93586e-08
2.69052e-05
1.14628e-06
6.30362e-05
4.59228e-06
8.45226e-05
1.11464e-05
9.36306e-05
2.1526e-05
9.22521e-05
3.63559e-05
8.19581e-05
5.61956e-05
6.4036e-05
8.15558e-05
3.95379e-05
0.000112907
9.33182e-06
0.000150682
-2.58523e-05
0.000195273
-6.53826e-05
0.000247029
-0.000108692
0.000306252
-0.000155249
0.000373191
-0.000204539
0.000448044
-0.000256043
0.000530966
-0.000309226
0.000622086
-0.000363529
0.000721539
-0.000418359
0.000829536
-0.00047309
0.000946473
-0.000527058
0.00107314
-0.000579566
0.00121108
-0.000629882
0.00136339
-0.000677241
0.0015372
-0.000721416
-0.000765266
0.00174874
1.35928e-07
2.67693e-05
1.9755e-06
6.11967e-05
6.65406e-06
7.9844e-05
1.51045e-05
8.51802e-05
2.81215e-05
7.92351e-05
4.64018e-05
6.36777e-05
7.05713e-05
3.98665e-05
0.0001012
8.90962e-06
0.000138806
-2.82746e-05
0.000183859
-7.09053e-05
0.000236771
-0.000118295
0.000297894
-0.000169815
0.000367511
-0.000224866
0.000445834
-0.000282863
0.00053301
-0.000343219
0.000629127
-0.000405343
0.000734239
-0.000468641
0.000848405
-0.000532525
0.000971747
-0.000596432
0.00110455
-0.000659856
0.00124737
-0.000722392
0.00140127
-0.000783786
0.00156804
-0.000844004
0.00174997
-0.000903347
-0.000960261
0.00194496
3.45274e-07
2.6424e-05
2.94477e-06
5.85972e-05
9.03682e-06
7.3752e-05
1.96419e-05
7.45751e-05
3.56337e-05
6.32433e-05
5.778e-05
4.15315e-05
8.67676e-05
1.08788e-05
0.000123214
-2.75372e-05
0.00016767
-7.27306e-05
0.000220612
-0.000123847
0.000282435
-0.000180118
0.000353441
-0.00024082
0.000433832
-0.000305257
0.000523705
-0.000372736
0.000623055
-0.000442569
0.000731782
-0.00051407
0.000849712
-0.000586571
0.000976623
-0.000659436
0.00111228
-0.00073209
0.00125648
-0.000804057
0.00140909
-0.000874997
0.00157005
-0.000944748
0.00173936
-0.00101331
0.00191661
-0.0010806
-0.0011429
0.00209925
5.95617e-07
2.58284e-05
4.07717e-06
5.51156e-05
1.17862e-05
6.6043e-05
2.4831e-05
6.15303e-05
4.41623e-05
4.3912e-05
7.06136e-05
1.50802e-05
0.000104922
-2.34296e-05
0.000147735
-7.03499e-05
0.000199604
-0.0001246
0.000260976
-0.000185219
0.000332175
-0.000251317
0.000413393
-0.000322038
0.000504675
-0.000396539
0.000605917
-0.000473978
0.000716868
-0.000553519
0.000837138
-0.00063434
0.000966216
-0.000715649
0.00110349
-0.000796713
0.00124829
-0.000876884
0.00139986
-0.000955625
0.0015574
-0.00103255
0.00172007
-0.00110741
0.00188686
-0.0011801
0.0020565
-0.00125025
-0.00131365
0.00222724
8.9403e-07
2.49343e-05
5.39571e-06
5.06139e-05
1.49466e-05
5.64921e-05
3.07396e-05
4.57373e-05
5.3797e-05
2.08547e-05
8.50067e-05
-1.61295e-05
0.000125137
-6.35604e-05
0.000174837
-0.00012005
0.000234621
-0.000184384
0.000304853
-0.00025545
0.000385725
-0.000332189
0.000477245
-0.000413558
0.000579222
-0.000498516
0.000691268
-0.000586025
0.000812805
-0.000675057
0.000943082
-0.000764616
0.0010812
-0.000853763
0.00122613
-0.000941642
0.00137675
-0.00102751
0.00153188
-0.00111075
0.00169025
-0.00119092
0.00185053
-0.00126769
0.00201131
-0.00134088
0.00217111
-0.00141005
-0.00147132
0.00232878
1.2472e-06
2.36871e-05
6.92158e-06
4.49396e-05
1.85577e-05
4.4856e-05
3.74254e-05
2.68696e-05
6.46072e-05
-6.32715e-06
0.000101028
-5.25499e-05
0.000147459
-0.000109992
0.000204511
-0.000177102
0.000272609
-0.000252482
0.000351973
-0.000334814
0.000442589
-0.000422806
0.000544204
-0.000515172
0.000656312
-0.000610625
0.000778173
-0.000707885
0.000908823
-0.000805707
0.00104711
-0.000902908
0.00119175
-0.000998399
0.00134133
-0.00109122
0.00149437
-0.00118055
0.00164939
-0.00126577
0.00180486
-0.00134639
0.0019593
-0.00142213
0.00211123
-0.00149281
0.00225929
-0.00155811
-0.00161487
0.00240284
1.66095e-06
2.20262e-05
8.67245e-06
3.79281e-05
2.26502e-05
3.08783e-05
4.49285e-05
4.59121e-06
7.66321e-05
-3.80307e-05
0.000118695
-9.46125e-05
0.000171854
-0.000163151
0.00023663
-0.000241878
0.000313297
-0.000329149
0.000401854
-0.000423371
0.000502007
-0.000522959
0.000613163
-0.000626328
0.000734436
-0.000731898
0.000864678
-0.000838128
0.00100252
-0.000943549
0.00114642
-0.00104681
0.00129473
-0.00114671
0.00144576
-0.00124224
0.00159781
-0.0013326
0.00174924
-0.0014172
0.0018985
-0.00149566
0.00204417
-0.0015678
0.00218494
-0.00163358
0.00231976
-0.00169292
-0.0017435
0.00244839
2.1399e-06
1.98863e-05
1.06612e-05
2.94068e-05
2.72437e-05
1.42958e-05
5.32673e-05
-2.14324e-05
8.98724e-05
-7.46359e-05
0.000137965
-0.000142706
0.000198199
-0.000223385
0.000270941
-0.00031462
0.00035624
-0.000414447
0.000453796
-0.000520927
0.000562957
-0.00063212
0.000682721
-0.000746092
0.000811776
-0.000860953
0.000948548
-0.0009749
0.00109127
-0.00108627
0.00123807
-0.00119361
0.00138703
-0.00129567
0.00153628
-0.0013915
0.00168408
-0.00148039
0.00182881
-0.00156193
0.00196907
-0.00163592
0.00210368
-0.00170241
0.00223168
-0.00176158
0.00235238
-0.00181363
-0.00185709
0.00246597
2.68721e-06
1.71991e-05
1.28949e-05
1.91991e-05
3.23441e-05
-5.15343e-06
6.24338e-05
-5.15221e-05
0.000104285
-0.000116487
0.000158728
-0.000197149
0.00022627
-0.000290927
0.000307052
-0.000395402
0.000400815
-0.000508211
0.000506885
-0.000626997
0.000624179
-0.000749413
0.000751241
-0.000873154
0.000886311
-0.000996023
0.00102741
-0.001116
0.00117243
-0.00123129
0.00131925
-0.00134043
0.00146583
-0.00144225
0.00161028
-0.00153595
0.00175094
-0.00162105
0.00188641
-0.0016974
0.00201557
-0.00176509
0.00213761
-0.00182444
0.00225197
-0.00187594
0.00235842
-0.00192008
-0.00195612
0.00245745
3.30457e-06
1.38945e-05
1.53745e-05
7.12919e-06
3.79426e-05
-2.77216e-05
7.23925e-05
-8.5972e-05
0.00011978
-0.000163874
0.0001808
-0.000258169
0.000255741
-0.000365868
0.000344437
-0.000484098
0.000446241
-0.000610015
0.000560029
-0.000740785
0.000684237
-0.000873621
0.000816938
-0.00100585
0.000955942
-0.00113503
0.00109892
-0.00125898
0.00124353
-0.00137591
0.00138755
-0.00148444
0.00152893
-0.00158363
0.00166593
-0.00167295
0.00179714
-0.00175226
0.00192148
-0.00182174
0.00203823
-0.00188183
0.00214698
-0.00193319
0.00224763
-0.00197659
0.00234032
-0.00201277
-0.00204164
0.00242584
3.9921e-06
9.90243e-06
1.80945e-05
-6.97323e-06
4.40152e-05
-5.36423e-05
8.30785e-05
-0.000125035
0.000136219
-0.000217015
0.000203927
-0.000325877
0.000286189
-0.000448131
0.00038245
-0.000580358
0.000491597
-0.000719162
0.000612002
-0.00086119
0.000741597
-0.00100322
0.000877997
-0.00114226
0.00101865
-0.00127568
0.00116098
-0.0014013
0.00130253
-0.00151746
0.00144113
-0.00162303
0.00157489
-0.0017174
0.00170237
-0.00180043
0.00182249
-0.00187238
0.0019346
-0.00193385
0.0020384
-0.00198564
0.00213391
-0.0020287
0.0022214
-0.00206408
0.00230137
-0.00209274
-0.00211504
0.00237477
4.74843e-06
5.154e-06
2.10429e-05
-2.32677e-05
5.05221e-05
-8.31214e-05
9.43979e-05
-0.000168911
0.000153417
-0.000276034
0.000227785
-0.000400245
0.000317104
-0.00053745
0.000420345
-0.000683599
0.000535869
-0.000834686
0.000661511
-0.000986832
0.000794713
-0.00113642
0.000932693
-0.00128024
0.00107263
-0.00141562
0.00121184
-0.00154052
0.00134793
-0.00165355
0.00147889
-0.00175399
0.00160316
-0.00184167
0.00171968
-0.00191694
0.0018278
-0.00198051
0.00192731
-0.00203336
0.00201832
-0.00207665
0.00210122
-0.00211161
0.0021766
-0.00213945
0.00224517
-0.00216132
-0.00217788
0.00230801
5.57065e-06
-4.16648e-07
2.42012e-05
-4.18983e-05
5.74082e-05
-0.000116328
0.000106228
-0.000217731
0.000171144
-0.000340949
0.000251992
-0.000481092
0.000347902
-0.000633361
0.000457304
-0.000793001
0.000577991
-0.000955374
0.000707267
-0.00111611
0.000842132
-0.00127128
0.000979507
-0.00141761
0.00111644
-0.00155255
0.0012503
-0.00167437
0.00137887
-0.00178213
0.00150049
-0.00187561
0.00161401
-0.00195519
0.0017188
-0.00202173
0.00181468
-0.00207638
0.00190183
-0.00212051
0.00198074
-0.00215556
0.00205208
-0.00218295
0.00211665
-0.00220401
0.0021753
-0.00221997
-0.00223171
0.00222912
6.4543e-06
-6.87095e-06
2.75442e-05
-6.29882e-05
6.46028e-05
-0.000153387
0.00011842
-0.000271549
0.000189131
-0.00041166
0.000276113
-0.000568075
0.000377951
-0.000735198
0.000492477
-0.000907526
0.000616908
-0.00107981
0.000748057
-0.00124726
0.000882578
-0.0014058
0.00101722
-0.00155226
0.00114907
-0.0016844
0.00127567
-0.00180097
0.00139517
-0.00190163
0.00150631
-0.00198675
0.00160842
-0.0020573
0.00170132
-0.00211463
0.00178525
-0.00216031
0.00186076
-0.00219603
0.00192861
-0.0022234
0.00198965
-0.00224399
0.0020448
-0.00225917
0.00209499
-0.00227015
-0.00227793
0.00214121
7.39324e-06
-1.42642e-05
3.10399e-05
-8.66348e-05
7.20205e-05
-0.000194368
0.000130798
-0.000330326
0.000207072
-0.000487934
0.000299679
-0.000660682
0.000406589
-0.000842108
0.000525016
-0.00102595
0.000651626
-0.00120642
0.000782821
-0.00137845
0.000915034
-0.00153802
0.001045
-0.00168223
0.00116999
-0.00180938
0.00128787
-0.00191886
0.00139723
-0.00201099
0.0014973
-0.00208682
0.00158788
-0.00214787
0.00166922
-0.00219597
0.00174192
-0.00223301
0.00180679
-0.0022609
0.00186478
-0.00228139
0.00191685
-0.00229606
0.00196395
-0.00230627
0.00200697
-0.00231318
-0.00231778
0.00204683
8.37953e-06
-2.26437e-05
3.46498e-05
-0.000112905
7.95618e-05
-0.00023928
0.000143166
-0.000393931
0.000224639
-0.000569407
0.000322198
-0.000758241
0.000433159
-0.000953069
0.000554122
-0.00114692
0.000681269
-0.00133356
0.000810705
-0.00150789
0.000938791
-0.0016661
0.00106241
-0.00180584
0.00117913
-0.0019261
0.00128729
-0.00202702
0.00138596
-0.00210966
0.00147485
-0.00217572
0.00155422
-0.00222724
0.00162468
-0.00226643
0.00168711
-0.00229544
0.0017425
-0.00231629
0.00179187
-0.00233077
0.00183623
-0.00234042
0.0018765
-0.00234653
0.00191349
-0.00235017
-0.00235228
0.00194798
9.40342e-06
-3.20471e-05
3.83288e-05
-0.00014183
8.71144e-05
-0.000288065
0.00015531
-0.000462126
0.000241483
-0.00065558
0.000343176
-0.000859934
0.000457032
-0.00106693
0.000579083
-0.00126897
0.000705123
-0.0014596
0.000831103
-0.00163387
0.000953467
-0.00178847
0.00106939
-0.00192176
0.00117686
-0.00203358
0.00127474
-0.00212489
0.00136259
-0.00219751
0.0014406
-0.00225373
0.0015094
-0.00229604
0.00156988
-0.00232691
0.00162311
-0.00234867
0.00167017
-0.00236335
0.00171211
-0.00237271
0.00174989
-0.0023782
0.00178436
-0.002381
0.00181624
-0.00238205
-0.00238222
0.00184619
1.04533e-05
-4.25004e-05
4.20257e-05
-0.000173403
9.45558e-05
-0.000340595
0.000167004
-0.000534574
0.000257256
-0.000745832
0.000362139
-0.000964816
0.000477644
-0.00118243
0.000599309
-0.00139063
0.00072267
-0.00158296
0.000843676
-0.00175487
0.000959007
-0.0019038
0.00106624
-0.002029
0.00116389
-0.00213122
0.00125132
-0.00221232
0.00132859
-0.00227478
0.00139629
-0.00232143
0.00145534
-0.00235509
0.00150685
-0.00237842
0.00155196
-0.00239378
0.00159179
-0.00240318
0.00162734
-0.00240827
0.00165951
-0.00241037
0.00168903
-0.00241052
0.00171654
-0.00240956
-0.00240823
0.00174254
1.15157e-05
-5.40162e-05
4.56845e-05
-0.000207572
0.000101756
-0.000396667
0.000178019
-0.000610837
0.000271618
-0.000839432
0.000378655
-0.00107185
0.000494516
-0.00129829
0.000614357
-0.00151047
0.0007336
-0.00170221
0.000848349
-0.00186962
0.000955646
-0.00201109
0.00105357
-0.00212692
0.00114116
-0.00221882
0.0012183
-0.00228946
0.00128549
-0.00234197
0.00134363
-0.00237957
0.00139387
-0.00240532
0.0014374
-0.00242196
0.00147541
-0.00243179
0.00150898
-0.00243674
0.00153903
-0.00243832
0.00156636
-0.0024377
0.00159162
-0.00243577
0.0016153
-0.00243324
-0.00243075
0.00163783
1.25759e-05
-6.6592e-05
4.92452e-05
-0.000244241
0.000108583
-0.000456004
0.000188129
-0.000690384
0.000284253
-0.000935555
0.000392346
-0.00117995
0.000507275
-0.00141322
0.000623944
-0.00162714
0.000737815
-0.00181608
0.000845283
-0.00197709
0.00094386
-0.00210967
0.00103216
-0.00221522
0.00110977
-0.00229643
0.00117704
-0.00235672
0.00123481
-0.00239974
0.00128423
-0.002429
0.00132657
-0.00244767
0.00136308
-0.00245846
0.0013949
-0.00246361
0.00142304
-0.00246488
0.00144832
-0.00246361
0.00147144
-0.00246082
0.00149293
-0.00245726
0.00151321
-0.00245352
-0.00245013
0.00153258
1.36175e-05
-8.02096e-05
5.26457e-05
-0.000283269
0.000114902
-0.000518261
0.000197122
-0.000772603
0.00029488
-0.00103331
0.000402911
-0.00128798
0.000515669
-0.00152598
0.000627952
-0.00173943
0.000735409
-0.00192353
0.000834846
-0.00207653
0.000924306
-0.00219913
0.00100296
-0.00229387
0.0010709
-0.00236437
0.00112886
-0.00241468
0.00117796
-0.00244885
0.00121952
-0.00247056
0.00125486
-0.002483
0.00128519
-0.00248879
0.00131159
-0.00249002
0.00133497
-0.00248826
0.00135607
-0.0024847
0.00137545
-0.0024802
0.00139356
-0.00247537
0.00141073
-0.00247069
-0.00246658
0.00142718
1.46237e-05
-9.48332e-05
5.58235e-05
-0.000324469
0.000120587
-0.000583025
0.000204802
-0.000856818
0.000303265
-0.00113178
0.000410129
-0.00139484
0.000519566
-0.00163542
0.000626416
-0.00184628
0.000726646
-0.00202376
0.00081756
-0.00216744
0.000897763
-0.00227933
0.000966966
-0.00236308
0.0010257
-0.0024231
0.00107501
-0.002464
0.00111624
-0.00249007
0.00115075
-0.00250507
0.00117987
-0.00251211
0.00120475
-0.00251368
0.00122639
-0.00251165
0.00124557
-0.00250744
0.00126291
-0.00250205
0.00127891
-0.00249619
0.00129391
-0.00249038
0.00130818
-0.00248496
-0.00248028
0.00132188
1.55769e-05
-0.00011041
5.87176e-05
-0.00036761
0.000125521
-0.000649828
0.000211005
-0.000942303
0.00030923
-0.00123
0.00041387
-0.00149948
0.000518955
-0.0017405
0.000619509
-0.00194683
0.000711924
-0.00211618
0.000794056
-0.00224957
0.000865073
-0.00235035
0.000925178
-0.00242318
0.000975271
-0.0024732
0.00101665
-0.00250537
0.00105074
-0.00252416
0.00107896
-0.00253328
0.00110255
-0.00253571
0.00112261
-0.00253374
0.00113999
-0.00252904
0.00115539
-0.00252284
0.00116933
-0.00251598
0.0011822
-0.00250906
0.00119429
-0.00250246
0.00120579
-0.00249647
-0.00249133
0.00121684