/*--------------------------------*- C++ -*----------------------------------*\
  =========                 |
  \\      /  F ield         | OpenFOAM: The Open Source CFD Toolbox
   \\    /   O peration     | Website:  https://openfoam.org
    \\  /    A nd           | Version:  6.0
     \\/     M anipulation  |
\*---------------------------------------------------------------------------*/
FoamFile
{
    version     2.0;
    format      ascii;
    class       volScalarField;
    location    "37";
    object      p;
}
// * * * * * * * * * * * * * * * * * * * * * * * * * * * * * * * * * * * * * //

dimensions      [0 2 -2 0 0 0 0];

internalField   nonuniform List<scalar> 
4000
(
-0.24707
-0.24798
-0.24858
-0.249016
-0.249379
-0.249683
-0.249939
-0.250161
-0.250357
-0.250532
-0.250692
-0.250842
-0.250986
-0.251128
-0.251272
-0.251427
-0.251596
-0.251724
-0.251785
-0.252337
-0.247156
-0.248063
-0.24866
-0.249091
-0.249449
-0.249746
-0.249996
-0.25021
-0.250398
-0.250564
-0.250716
-0.250857
-0.250992
-0.251124
-0.251259
-0.251405
-0.251565
-0.251685
-0.251737
-0.252282
-0.247343
-0.248246
-0.248837
-0.24926
-0.249607
-0.249893
-0.250129
-0.250329
-0.250502
-0.250653
-0.250788
-0.250913
-0.25103
-0.251145
-0.251262
-0.251392
-0.251536
-0.251642
-0.251677
-0.252211
-0.247631
-0.248529
-0.249111
-0.249522
-0.249854
-0.250122
-0.250339
-0.250518
-0.250669
-0.250796
-0.250907
-0.251006
-0.251098
-0.251186
-0.251278
-0.251382
-0.251503
-0.251587
-0.251599
-0.252117
-0.248022
-0.248914
-0.249484
-0.249879
-0.250191
-0.250435
-0.250626
-0.250777
-0.250897
-0.250993
-0.25107
-0.251135
-0.251191
-0.251243
-0.251299
-0.251369
-0.251457
-0.25151
-0.25149
-0.251988
-0.248518
-0.249402
-0.249958
-0.250332
-0.250618
-0.250832
-0.25099
-0.251105
-0.251186
-0.251241
-0.251275
-0.251295
-0.251305
-0.25131
-0.251318
-0.251342
-0.251387
-0.251399
-0.251336
-0.251809
-0.249123
-0.249998
-0.250536
-0.250884
-0.251138
-0.251315
-0.251432
-0.251502
-0.251536
-0.251541
-0.251522
-0.251485
-0.251436
-0.251381
-0.251328
-0.251292
-0.25128
-0.251239
-0.251122
-0.251563
-0.249843
-0.250705
-0.25122
-0.251537
-0.251753
-0.251886
-0.251954
-0.251972
-0.25195
-0.251894
-0.25181
-0.251705
-0.251584
-0.251454
-0.251324
-0.251211
-0.251126
-0.251015
-0.250829
-0.251231
-0.250682
-0.251528
-0.252016
-0.252295
-0.252466
-0.252548
-0.25256
-0.252517
-0.252429
-0.252303
-0.252144
-0.251958
-0.251751
-0.251529
-0.251304
-0.251095
-0.250916
-0.250715
-0.25044
-0.250793
-0.25165
-0.252474
-0.252928
-0.253163
-0.253281
-0.253304
-0.253253
-0.253142
-0.252981
-0.252776
-0.252531
-0.252252
-0.251943
-0.251612
-0.251271
-0.250942
-0.250644
-0.250325
-0.249935
-0.250224
-0.252755
-0.253549
-0.253961
-0.254144
-0.254202
-0.25416
-0.254038
-0.253851
-0.25361
-0.253319
-0.25298
-0.252596
-0.252172
-0.251715
-0.251236
-0.25076
-0.250311
-0.24984
-0.249296
-0.2495
-0.254007
-0.254761
-0.255122
-0.255244
-0.255233
-0.255117
-0.254918
-0.254651
-0.254324
-0.253941
-0.253501
-0.253005
-0.252455
-0.251854
-0.251215
-0.250562
-0.249925
-0.249256
-0.248508
-0.248591
-0.255418
-0.256119
-0.256417
-0.256468
-0.256379
-0.256181
-0.255898
-0.255545
-0.255129
-0.25465
-0.254106
-0.253494
-0.252809
-0.252052
-0.251232
-0.250372
-0.249505
-0.248581
-0.247557
-0.247464
-0.256998
-0.25763
-0.257852
-0.257819
-0.25764
-0.257352
-0.256977
-0.256533
-0.256025
-0.25545
-0.254802
-0.254071
-0.253249
-0.25233
-0.251312
-0.250218
-0.249076
-0.247832
-0.246435
-0.24608
-0.258758
-0.259304
-0.259434
-0.259303
-0.259021
-0.258629
-0.258154
-0.257612
-0.257007
-0.256335
-0.255584
-0.254739
-0.253783
-0.252699
-0.251477
-0.250127
-0.24867
-0.247033
-0.245143
-0.244393
-0.260711
-0.26115
-0.26117
-0.260923
-0.260521
-0.260011
-0.259423
-0.258773
-0.258066
-0.257294
-0.256442
-0.255486
-0.254402
-0.25316
-0.251736
-0.25012
-0.248319
-0.246226
-0.243708
-0.242377
-0.26287
-0.263181
-0.26307
-0.262685
-0.262142
-0.261495
-0.260777
-0.260006
-0.259186
-0.258308
-0.257351
-0.256289
-0.255086
-0.2537
-0.252089
-0.25022
-0.248075
-0.245503
-0.242248
-0.240094
-0.265251
-0.26541
-0.265144
-0.264597
-0.26389
-0.263081
-0.262211
-0.2613
-0.260352
-0.259356
-0.25829
-0.257123
-0.255811
-0.254302
-0.252532
-0.25044
-0.247976
-0.244932
-0.240836
-0.237461
-0.267876
-0.267858
-0.267408
-0.266672
-0.265771
-0.264775
-0.263727
-0.262653
-0.261556
-0.260429
-0.259249
-0.257983
-0.256586
-0.254999
-0.253141
-0.250915
-0.248202
-0.244652
-0.239388
-0.234005
-0.270772
-0.270547
-0.269885
-0.268928
-0.267803
-0.266588
-0.265336
-0.264073
-0.262809
-0.261539
-0.260246
-0.258907
-0.257492
-0.255963
-0.254273
-0.252359
-0.250109
-0.247063
-0.24199
-0.236039
-0.273973
-0.273509
-0.272602
-0.271392
-0.27001
-0.268548
-0.267063
-0.265588
-0.264139
-0.262717
-0.261317
-0.259937
-0.258583
-0.257281
-0.256103
-0.255201
-0.25486
-0.255538
-0.258892
-0.271975
-0.277523
-0.276783
-0.275594
-0.274098
-0.272429
-0.270689
-0.268947
-0.267241
-0.265593
-0.264011
-0.262507
-0.261097
-0.259819
-0.258748
-0.258021
-0.257879
-0.258713
-0.261103
-0.266307
-0.279102
-0.281473
-0.280412
-0.278905
-0.277089
-0.275102
-0.273062
-0.271043
-0.269092
-0.267236
-0.265493
-0.263886
-0.262448
-0.261241
-0.260366
-0.259984
-0.260339
-0.261782
-0.26476
-0.269905
-0.279898
-0.285878
-0.284447
-0.282581
-0.280414
-0.278084
-0.275723
-0.273414
-0.271208
-0.269139
-0.267232
-0.265519
-0.264042
-0.262873
-0.262116
-0.261921
-0.262489
-0.264069
-0.266932
-0.27135
-0.278555
-0.290798
-0.288939
-0.286674
-0.284126
-0.281431
-0.278733
-0.276123
-0.273657
-0.271369
-0.26929
-0.267452
-0.265901
-0.264701
-0.263943
-0.263743
-0.264237
-0.265567
-0.267853
-0.271187
-0.27584
-0.296292
-0.293942
-0.291237
-0.288282
-0.285202
-0.282155
-0.279236
-0.276499
-0.273981
-0.271707
-0.269706
-0.268015
-0.266685
-0.265782
-0.265379
-0.265553
-0.266362
-0.267828
-0.269969
-0.272547
-0.302413
-0.299507
-0.296322
-0.292934
-0.289454
-0.286046
-0.282806
-0.279785
-0.277009
-0.274499
-0.27227
-0.270348
-0.268764
-0.267558
-0.266766
-0.266421
-0.266531
-0.267071
-0.268031
-0.268983
-0.309209
-0.305677
-0.301974
-0.298133
-0.294238
-0.290455
-0.286877
-0.283542
-0.280464
-0.27765
-0.275103
-0.272832
-0.270852
-0.269181
-0.267836
-0.266822
-0.266127
-0.265717
-0.265572
-0.265275
-0.316714
-0.312489
-0.308233
-0.303921
-0.299596
-0.29542
-0.291474
-0.287777
-0.284327
-0.281113
-0.278128
-0.27537
-0.272843
-0.270556
-0.268516
-0.266725
-0.265169
-0.263823
-0.262668
-0.261379
-0.324947
-0.319966
-0.315128
-0.310329
-0.305556
-0.300959
-0.296596
-0.292464
-0.288542
-0.284807
-0.281243
-0.277845
-0.27462
-0.27158
-0.268735
-0.266093
-0.263652
-0.261401
-0.259323
-0.2572
-0.333908
-0.328116
-0.322673
-0.317372
-0.312127
-0.307063
-0.302212
-0.297544
-0.293021
-0.288615
-0.284315
-0.280125
-0.276063
-0.272156
-0.268426
-0.264892
-0.261564
-0.258445
-0.255515
-0.252646
-0.343574
-0.336927
-0.330861
-0.325043
-0.31929
-0.313693
-0.308253
-0.302916
-0.297636
-0.292395
-0.287197
-0.282071
-0.277057
-0.272198
-0.267533
-0.263092
-0.258892
-0.254944
-0.251221
-0.247657
-0.353895
-0.346362
-0.339664
-0.333308
-0.326994
-0.320772
-0.31461
-0.308441
-0.30223
-0.295982
-0.289735
-0.283551
-0.277495
-0.271633
-0.266014
-0.260673
-0.25563
-0.250894
-0.246429
-0.242208
-0.364787
-0.356353
-0.349019
-0.342095
-0.335147
-0.328176
-0.32113
-0.313947
-0.306621
-0.299201
-0.291775
-0.284439
-0.277289
-0.270402
-0.263834
-0.25762
-0.251773
-0.246295
-0.241136
-0.236296
-0.376134
-0.366802
-0.358828
-0.351295
-0.343612
-0.335741
-0.327623
-0.319229
-0.310609
-0.301876
-0.293169
-0.284625
-0.276358
-0.268454
-0.260966
-0.253919
-0.247316
-0.241146
-0.235341
-0.229925
-0.38778
-0.37757
-0.368955
-0.360751
-0.352207
-0.343254
-0.333862
-0.324065
-0.313993
-0.303835
-0.293784
-0.28401
-0.274637
-0.265748
-0.257384
-0.249555
-0.24225
-0.235443
-0.229043
-0.2231
-0.399526
-0.388479
-0.379216
-0.370261
-0.360702
-0.35047
-0.339599
-0.328222
-0.316572
-0.304917
-0.293498
-0.282505
-0.272063
-0.26224
-0.253058
-0.244507
-0.23656
-0.229172
-0.222231
-0.215819
-0.411138
-0.399307
-0.389386
-0.379577
-0.368829
-0.357111
-0.34457
-0.331469
-0.318155
-0.304972
-0.2922
-0.280032
-0.26858
-0.257888
-0.247955
-0.238748
-0.230222
-0.222314
-0.214889
-0.20807
-0.42234
-0.409795
-0.399194
-0.388411
-0.376286
-0.362883
-0.348507
-0.333579
-0.318562
-0.303867
-0.28979
-0.276515
-0.264128
-0.252645
-0.242035
-0.232244
-0.223207
-0.214842
-0.206994
-0.199834
-0.432824
-0.419646
-0.408335
-0.396439
-0.38275
-0.367484
-0.35115
-0.334342
-0.317633
-0.301478
-0.286176
-0.271883
-0.258651
-0.246462
-0.235257
-0.224956
-0.215479
-0.206724
-0.198515
-0.191082
-0.433472
-0.420289
-0.408971
-0.397061
-0.38335
-0.368058
-0.351694
-0.334855
-0.318115
-0.301931
-0.286601
-0.272282
-0.259025
-0.246813
-0.235586
-0.225264
-0.215767
-0.206993
-0.198766
-0.191316
-0.422999
-0.410449
-0.399841
-0.389045
-0.376902
-0.363474
-0.34907
-0.334112
-0.319065
-0.304339
-0.290234
-0.276932
-0.264519
-0.253011
-0.242378
-0.232565
-0.223506
-0.215121
-0.207254
-0.200075
-0.411806
-0.399969
-0.390041
-0.380222
-0.369457
-0.357717
-0.34515
-0.33202
-0.318676
-0.305464
-0.292663
-0.280467
-0.268987
-0.25827
-0.248312
-0.239082
-0.230533
-0.222603
-0.215158
-0.208319
-0.400199
-0.389145
-0.379877
-0.370913
-0.36134
-0.351088
-0.340194
-0.32879
-0.317112
-0.305427
-0.293979
-0.282958
-0.272488
-0.262638
-0.25343
-0.244854
-0.236883
-0.229472
-0.222508
-0.216075
-0.388456
-0.37824
-0.369619
-0.361407
-0.352851
-0.343882
-0.334469
-0.324648
-0.31455
-0.304363
-0.294284
-0.28448
-0.275079
-0.266162
-0.257772
-0.249916
-0.242586
-0.235754
-0.22933
-0.223364
-0.376812
-0.367473
-0.359494
-0.351953
-0.344261
-0.336375
-0.32824
-0.319824
-0.31118
-0.302421
-0.293686
-0.285113
-0.276818
-0.268886
-0.26137
-0.254295
-0.247665
-0.241469
-0.235638
-0.230197
-0.365464
-0.357023
-0.349683
-0.342754
-0.335797
-0.328816
-0.321754
-0.314553
-0.307205
-0.299762
-0.292309
-0.284945
-0.277767
-0.270851
-0.264255
-0.258012
-0.252136
-0.246631
-0.241444
-0.236577
-0.35457
-0.347029
-0.340326
-0.333965
-0.327644
-0.321413
-0.315239
-0.309055
-0.302826
-0.296556
-0.290286
-0.284075
-0.277992
-0.272101
-0.266453
-0.261082
-0.256009
-0.251244
-0.246749
-0.2425
-0.344246
-0.337592
-0.331521
-0.325698
-0.319939
-0.314335
-0.308885
-0.303536
-0.298241
-0.292982
-0.287763
-0.282613
-0.277572
-0.272686
-0.267991
-0.26352
-0.259289
-0.255309
-0.251554
-0.24796
-0.334576
-0.328777
-0.323328
-0.318022
-0.312772
-0.307703
-0.302845
-0.298168
-0.293633
-0.289213
-0.284894
-0.280683
-0.276598
-0.272663
-0.268904
-0.265339
-0.261979
-0.258827
-0.255863
-0.252961
-0.325611
-0.320622
-0.315779
-0.310975
-0.306198
-0.301596
-0.297229
-0.293091
-0.28916
-0.285414
-0.281835
-0.278419
-0.275173
-0.272107
-0.269235
-0.266562
-0.264087
-0.261802
-0.259687
-0.257529
-0.317373
-0.313141
-0.308879
-0.304562
-0.300234
-0.296055
-0.292105
-0.288404
-0.284949
-0.281728
-0.278732
-0.275959
-0.273414
-0.271104
-0.269038
-0.267216
-0.265626
-0.264243
-0.263049
-0.261721
-0.309864
-0.306324
-0.302615
-0.29877
-0.294872
-0.291087
-0.287507
-0.28417
-0.28109
-0.278271
-0.275716
-0.273435
-0.27144
-0.26975
-0.26838
-0.267336
-0.266607
-0.266159
-0.265972
-0.265632
-0.303064
-0.300149
-0.296959
-0.293567
-0.290084
-0.286674
-0.283434
-0.280413
-0.277637
-0.275125
-0.272893
-0.270964
-0.269369
-0.268146
-0.267333
-0.266959
-0.267036
-0.267536
-0.26845
-0.269354
-0.296938
-0.294581
-0.29187
-0.28891
-0.285828
-0.28278
-0.279862
-0.277128
-0.274612
-0.272339
-0.270338
-0.268643
-0.267306
-0.26639
-0.265968
-0.266116
-0.266892
-0.268317
-0.27041
-0.272933
-0.291441
-0.289573
-0.287302
-0.284751
-0.282054
-0.279356
-0.276749
-0.274286
-0.272003
-0.269928
-0.268092
-0.26654
-0.265336
-0.264569
-0.264353
-0.264824
-0.266123
-0.268369
-0.271652
-0.276243
-0.286516
-0.285076
-0.283204
-0.281034
-0.278704
-0.276344
-0.274038
-0.271838
-0.269775
-0.267875
-0.266166
-0.264693
-0.263523
-0.26276
-0.262553
-0.263101
-0.264651
-0.267474
-0.27184
-0.278975
-0.282106
-0.281036
-0.279523
-0.277704
-0.275718
-0.273681
-0.271667
-0.269723
-0.267875
-0.266141
-0.264541
-0.263109
-0.261904
-0.261027
-0.260635
-0.260974
-0.26239
-0.265329
-0.270422
-0.280337
-0.27815
-0.2774
-0.276206
-0.274708
-0.27304
-0.271305
-0.26957
-0.267873
-0.266235
-0.264664
-0.263169
-0.261767
-0.260493
-0.259422
-0.25869
-0.258534
-0.259345
-0.261698
-0.266845
-0.279555
-0.274591
-0.274118
-0.273205
-0.271995
-0.270616
-0.26916
-0.267683
-0.266219
-0.264782
-0.263372
-0.261985
-0.260615
-0.259267
-0.257969
-0.256787
-0.255875
-0.255514
-0.256159
-0.259456
-0.272449
-0.271379
-0.271144
-0.270478
-0.269522
-0.268401
-0.267194
-0.265952
-0.264702
-0.263452
-0.262196
-0.260917
-0.259589
-0.258184
-0.256661
-0.254972
-0.253052
-0.25079
-0.247726
-0.242614
-0.236631
-0.268468
-0.268441
-0.267988
-0.267254
-0.266359
-0.265372
-0.264336
-0.263276
-0.262195
-0.261084
-0.259919
-0.258667
-0.257283
-0.255704
-0.25385
-0.251622
-0.248904
-0.245342
-0.240048
-0.234651
-0.265824
-0.265976
-0.265708
-0.265164
-0.264464
-0.263666
-0.26281
-0.261915
-0.260983
-0.260005
-0.258957
-0.257805
-0.256508
-0.255009
-0.253246
-0.251158
-0.248695
-0.245646
-0.24153
-0.23816
-0.263421
-0.263726
-0.263614
-0.263234
-0.2627
-0.262064
-0.261361
-0.260607
-0.259806
-0.258947
-0.25801
-0.256965
-0.255778
-0.254407
-0.252806
-0.250945
-0.248807
-0.246238
-0.242973
-0.240839
-0.261235
-0.261671
-0.261692
-0.26145
-0.261058
-0.260561
-0.259988
-0.259357
-0.25867
-0.257918
-0.257086
-0.25615
-0.255085
-0.25386
-0.25245
-0.250848
-0.249059
-0.246976
-0.244457
-0.243158
-0.259253
-0.259797
-0.25993
-0.259805
-0.259534
-0.259155
-0.258697
-0.258174
-0.25759
-0.256939
-0.25621
-0.255386
-0.254451
-0.253387
-0.252183
-0.25085
-0.249411
-0.247791
-0.245907
-0.245197
-0.25746
-0.258093
-0.25832
-0.258294
-0.258126
-0.257851
-0.257494
-0.257069
-0.256581
-0.256029
-0.255403
-0.254696
-0.253897
-0.252999
-0.252003
-0.25093
-0.249811
-0.248588
-0.247204
-0.246894
-0.255845
-0.256549
-0.256853
-0.256912
-0.256834
-0.256651
-0.256385
-0.256051
-0.255656
-0.2552
-0.254679
-0.25409
-0.253429
-0.252697
-0.2519
-0.251065
-0.250224
-0.249325
-0.248318
-0.248275
-0.254397
-0.255158
-0.255525
-0.255656
-0.255657
-0.255555
-0.255373
-0.255125
-0.254819
-0.254457
-0.254041
-0.253569
-0.253043
-0.252468
-0.251854
-0.251228
-0.250619
-0.249977
-0.249251
-0.249385
-0.253107
-0.25391
-0.25433
-0.254522
-0.254591
-0.254563
-0.254457
-0.254289
-0.254068
-0.253798
-0.253482
-0.253123
-0.252724
-0.252292
-0.251839
-0.251391
-0.250971
-0.250529
-0.250009
-0.250263
-0.251964
-0.252798
-0.253261
-0.253505
-0.253634
-0.253672
-0.253636
-0.253542
-0.2534
-0.253216
-0.252994
-0.252738
-0.252453
-0.252148
-0.251833
-0.251532
-0.251263
-0.250973
-0.250607
-0.250945
-0.250959
-0.251816
-0.252313
-0.252602
-0.252783
-0.252878
-0.252904
-0.252878
-0.252808
-0.252702
-0.252564
-0.2524
-0.252216
-0.252018
-0.251819
-0.251636
-0.251486
-0.251312
-0.251062
-0.251461
-0.250083
-0.250957
-0.251481
-0.251807
-0.252033
-0.252178
-0.252259
-0.252292
-0.252287
-0.252249
-0.252185
-0.2521
-0.252001
-0.251893
-0.251787
-0.2517
-0.251641
-0.251556
-0.251394
-0.251838
-0.249328
-0.250214
-0.250761
-0.251117
-0.25138
-0.251568
-0.251697
-0.251781
-0.25183
-0.251851
-0.251849
-0.251831
-0.251802
-0.251767
-0.251736
-0.251722
-0.251735
-0.251717
-0.251622
-0.252101
-0.248688
-0.249583
-0.250147
-0.250529
-0.250823
-0.251046
-0.251215
-0.251341
-0.251435
-0.251505
-0.251554
-0.25159
-0.251617
-0.25164
-0.251667
-0.251711
-0.251777
-0.25181
-0.251766
-0.252272
-0.248159
-0.24906
-0.249638
-0.250039
-0.250358
-0.25061
-0.25081
-0.250971
-0.251101
-0.251209
-0.2513
-0.251377
-0.251448
-0.251516
-0.251587
-0.251674
-0.25178
-0.25185
-0.251846
-0.252371
-0.247736
-0.248642
-0.24923
-0.249646
-0.249984
-0.250258
-0.250482
-0.250669
-0.250828
-0.250965
-0.251086
-0.251196
-0.251299
-0.2514
-0.251504
-0.251622
-0.251757
-0.251854
-0.251879
-0.252418
-0.247417
-0.248326
-0.248921
-0.249348
-0.2497
-0.24999
-0.250231
-0.250437
-0.250616
-0.250774
-0.250917
-0.251049
-0.251174
-0.251298
-0.251424
-0.251564
-0.251718
-0.251833
-0.251879
-0.252428
-0.2472
-0.248111
-0.24871
-0.249144
-0.249504
-0.249804
-0.250057
-0.250275
-0.250466
-0.250637
-0.250793
-0.250939
-0.251079
-0.251216
-0.251356
-0.251509
-0.251675
-0.251801
-0.251858
-0.252413
-0.247085
-0.247996
-0.248597
-0.249034
-0.249398
-0.249702
-0.24996
-0.250183
-0.250379
-0.250556
-0.250718
-0.25087
-0.251015
-0.251159
-0.251304
-0.251462
-0.251633
-0.251763
-0.251826
-0.252381
-0.271982
-0.256327
-0.300269
-0.299039
-0.24269
-0.173799
-0.109936
-0.0658247
-0.0354932
-0.0114971
-0.00105336
0.00759044
0.00978597
0.0117561
0.0112586
0.0107938
0.0090252
0.00749809
0.0045352
0.00269153
-0.271981
-0.256391
-0.301197
-0.300496
-0.243539
-0.173551
-0.109106
-0.0649837
-0.035022
-0.0115334
-0.00138849
0.00713956
0.00935739
0.0114939
0.0111303
0.0108297
0.00914783
0.00764355
0.00469419
0.00275409
-0.272076
-0.256494
-0.302226
-0.30219
-0.244643
-0.173514
-0.108438
-0.0642514
-0.034641
-0.0116241
-0.00176009
0.00666824
0.00891825
0.0112233
0.0109939
0.0108567
0.00926031
0.00778102
0.00484682
0.00281183
-0.272252
-0.256622
-0.303317
-0.304072
-0.245974
-0.173688
-0.107943
-0.0636421
-0.0343592
-0.0117716
-0.00216574
0.00618019
0.00847291
0.0109467
0.010851
0.0108746
0.0093616
0.00790906
0.00499119
0.00286375
-0.27249
-0.256757
-0.304422
-0.306084
-0.247497
-0.174066
-0.107632
-0.0631687
-0.0341839
-0.0119783
-0.00260326
0.00567827
0.00802478
0.0106661
0.0107028
0.0108832
0.00945074
0.00802632
0.00512557
0.00290894
-0.272763
-0.256878
-0.305489
-0.308162
-0.249174
-0.174639
-0.107511
-0.0628413
-0.0341199
-0.0122461
-0.00307064
0.0051645
0.00757634
0.0103827
0.0105501
0.0108819
0.00952681
0.0081315
0.00524842
0.00294661
-0.273044
-0.256964
-0.306464
-0.310243
-0.250965
-0.175397
-0.107585
-0.0626676
-0.0341701
-0.0125764
-0.00356606
0.00464017
0.00712909
0.0100967
0.0103932
0.0108701
0.00958899
0.00822345
0.00535845
0.00297612
-0.273307
-0.256996
-0.307296
-0.312266
-0.252834
-0.176329
-0.107856
-0.0626517
-0.0343345
-0.0129698
-0.0040878
0.00410587
0.0066837
0.00980806
0.0102319
0.010847
0.00963658
0.00830115
0.00545469
0.00299702
-0.273526
-0.256956
-0.307939
-0.314176
-0.254747
-0.177422
-0.108323
-0.0627947
-0.0346109
-0.0134262
-0.0046342
0.00356171
0.00624004
0.00951589
0.0100658
0.0108116
0.00966901
0.00836377
0.00553644
0.00300905
-0.273679
-0.256831
-0.308355
-0.315928
-0.256676
-0.178666
-0.108985
-0.0630947
-0.0349949
-0.0139442
-0.00520363
0.00300747
0.00579746
0.00921911
0.00989385
0.010763
0.00968583
0.00841068
0.00560333
0.00301214
-0.273749
-0.256609
-0.308511
-0.317484
-0.258598
-0.180051
-0.109835
-0.0635469
-0.0354804
-0.0145218
-0.00579443
0.00244275
0.00535487
0.00891637
0.00971526
0.0107003
0.00968676
0.00844145
0.00565526
0.00300641
-0.273722
-0.256287
-0.308385
-0.318815
-0.260495
-0.181568
-0.110869
-0.0641447
-0.03606
-0.0151561
-0.00640494
0.0018671
0.00491101
0.00860627
0.00952888
0.0106226
0.00967165
0.00845585
0.00569244
0.00299214
-0.273592
-0.255864
-0.307962
-0.319903
-0.262356
-0.183211
-0.11208
-0.0648804
-0.0367258
-0.0158439
-0.00703355
0.00128013
0.00446446
0.00828744
0.00933367
0.0105293
0.00964054
0.00845386
0.0057153
0.00296976
-0.273357
-0.255343
-0.30723
-0.320733
-0.264177
-0.184977
-0.113462
-0.0657464
-0.0374695
-0.0165813
-0.00767869
0.000681487
0.00401384
0.00795861
0.00912861
0.01042
0.00959358
0.00843562
0.00572446
0.00293982
-0.273008
-0.254727
-0.306182
-0.321284
-0.265942
-0.186852
-0.115002
-0.0667297
-0.0382794
-0.0173626
-0.00833771
7.15179e-05
0.00355813
0.00761871
0.0089128
0.010294
0.00953098
0.00840135
0.00572067
0.00290293
-0.272527
-0.254016
-0.304814
-0.321532
-0.267612
-0.18879
-0.116659
-0.0678045
-0.039137
-0.0181778
-0.00900582
-0.000547851
0.00309731
0.00726746
0.00868576
0.0101513
0.00945305
0.00835135
0.00570471
0.00285972
-0.27194
-0.253244
-0.30315
-0.321503
-0.269204
-0.190789
-0.118426
-0.0689628
-0.0400406
-0.0190244
-0.00968356
-0.00117574
0.00263113
0.0069059
0.00844792
0.00999328
0.0093608
0.00828696
0.00567767
0.00281092
-0.271326
-0.252503
-0.301194
-0.321333
-0.271013
-0.193148
-0.120519
-0.0703206
-0.0410696
-0.0199424
-0.0103965
-0.00182398
0.00215256
0.00653309
0.00819926
0.00982327
0.0092567
0.00821158
0.00564184
0.00275749
-0.270088
-0.251637
-0.29868
-0.320837
-0.273269
-0.196223
-0.123222
-0.0720348
-0.0422894
-0.0209768
-0.0111667
-0.00251491
0.00164707
0.00613565
0.00793331
0.00963567
0.00914053
0.00812428
0.00559917
0.00270032
-0.265863
-0.249673
-0.295239
-0.318569
-0.274095
-0.198318
-0.125293
-0.0733826
-0.0431317
-0.0218456
-0.0118154
-0.00318614
0.00114334
0.00569678
0.00763774
0.00939517
0.00899565
0.0079986
0.00554099
0.00263754
-0.225759
-0.230474
-0.272156
-0.295202
-0.266035
-0.198879
-0.128779
-0.0760846
-0.0438386
-0.0246085
-0.0140907
-0.00651278
-0.00154623
0.00296697
0.00575247
0.00761417
0.00793435
0.00697329
0.00507096
0.0022458
-0.185954
-0.213693
-0.238531
-0.25243
-0.234973
-0.184719
-0.126345
-0.0786727
-0.0473241
-0.0290456
-0.0182385
-0.0110636
-0.00587537
-0.00137445
0.00194346
0.00412172
0.00504737
0.00462546
0.0034072
0.00126134
-0.167763
-0.190848
-0.205337
-0.210243
-0.196841
-0.16227
-0.118311
-0.0789209
-0.0505319
-0.0326652
-0.0217748
-0.0147712
-0.00970828
-0.00540919
-0.0018878
0.000592256
0.00199433
0.00229289
0.00181627
0.000670727
-0.14007
-0.16355
-0.17299
-0.173345
-0.163009
-0.139781
-0.108237
-0.0774177
-0.0531951
-0.0364788
-0.0256104
-0.0184553
-0.0132895
-0.00897002
-0.0052366
-0.00240489
-0.000531362
0.000421058
0.000639033
0.000323512
-0.116575
-0.137534
-0.145412
-0.144865
-0.13713
-0.121216
-0.0989797
-0.0757679
-0.0558237
-0.0404175
-0.0292846
-0.0215654
-0.0160492
-0.0116458
-0.00785096
-0.00482389
-0.00262512
-0.00118432
-0.000386356
-7.07265e-05
-0.0969184
-0.115434
-0.123065
-0.123209
-0.117691
-0.106626
-0.090975
-0.07353
-0.0570025
-0.0428333
-0.0316909
-0.0236454
-0.0179454
-0.0135697
-0.00983947
-0.00672887
-0.00429404
-0.00247799
-0.00116756
-0.00026612
-0.0816324
-0.0976162
-0.105191
-0.106395
-0.10285
-0.0951541
-0.0837899
-0.0702116
-0.0563475
-0.0436801
-0.0331575
-0.0252036
-0.019446
-0.0150808
-0.0114114
-0.00826338
-0.00566916
-0.00356779
-0.00186805
-0.000552026
-0.0697848
-0.0835197
-0.0908683
-0.0930121
-0.0910814
-0.0856301
-0.0769519
-0.0660835
-0.0545724
-0.0436377
-0.0340765
-0.0264247
-0.0206702
-0.0163103
-0.0127006
-0.00955423
-0.00684718
-0.00451765
-0.00249713
-0.000785831
-0.0605918
-0.0723925
-0.0793409
-0.0821032
-0.0813063
-0.0773474
-0.0705676
-0.0618676
-0.0524172
-0.0430886
-0.0345254
-0.0273276
-0.0217067
-0.0173912
-0.0138136
-0.0106421
-0.00780942
-0.00527433
-0.00297639
-0.00093011
-0.0533737
-0.0635446
-0.0699752
-0.0730203
-0.0729753
-0.0701474
-0.0649084
-0.057964
-0.0501624
-0.0421857
-0.0346128
-0.0280034
-0.0226145
-0.0183312
-0.0147189
-0.0114743
-0.00851637
-0.00582037
-0.00332574
-0.00104821
-0.0476112
-0.0564165
-0.0622834
-0.0653989
-0.0659007
-0.0640105
-0.0600143
-0.0544296
-0.0479312
-0.04112
-0.0344915
-0.0284842
-0.0233328
-0.0190573
-0.0153847
-0.0120665
-0.00902182
-0.00622643
-0.00361195
-0.00117148
-0.042923
-0.0505929
-0.0559308
-0.0590387
-0.0599673
-0.0588231
-0.0557888
-0.0512755
-0.0458544
-0.0400379
-0.0342155
-0.0287324
-0.0238104
-0.0195686
-0.015862
-0.0124994
-0.00940965
-0.0065598
-0.00386428
-0.00128442
-0.0390233
-0.0457806
-0.0506831
-0.0537724
-0.0550228
-0.0544466
-0.052169
-0.0485299
-0.043993
-0.0389755
-0.0337957
-0.0287619
-0.0240833
-0.0199226
-0.0162189
-0.0128441
-0.0097348
-0.00684685
-0.00407323
-0.00136325
-0.0357077
-0.0417707
-0.0463563
-0.0494366
-0.0509262
-0.0507898
-0.049118
-0.0461775
-0.0423359
-0.0379448
-0.0332868
-0.0286482
-0.0242187
-0.0201694
-0.0165025
-0.0131419
-0.0100163
-0.00707786
-0.00421677
-0.00140528
-0.0328039
-0.0384074
-0.0428009
-0.0458954
-0.0475726
-0.0477799
-0.046578
-0.0441766
-0.0408755
-0.036986
-0.0327619
-0.0284661
-0.0242721
-0.0203468
-0.016738
-0.0133955
-0.0102397
-0.00723424
-0.00429743
-0.001431
-0.0302073
-0.035585
-0.0399136
-0.0430527
-0.0448788
-0.045343
-0.0444936
-0.0425071
-0.0396311
-0.0361453
-0.0322759
-0.0282686
-0.0242874
-0.0204837
-0.0169254
-0.0135824
-0.0103867
-0.00732648
-0.00435131
-0.00146051
-0.0278216
-0.0332446
-0.0376271
-0.0408309
-0.0427665
-0.0434157
-0.042831
-0.0411641
-0.03862
-0.035453
-0.0318645
-0.0280883
-0.0242853
-0.0205847
-0.0170538
-0.0136957
-0.0104693
-0.00738882
-0.00440715
-0.00149122
-0.0256878
-0.0313879
-0.0359104
-0.0391784
-0.0411853
-0.0419657
-0.0415775
-0.0401488
-0.0378539
-0.0349287
-0.0315519
-0.0279439
-0.0242688
-0.0206399
-0.0171253
-0.0137634
-0.0105273
-0.00744482
-0.00445747
-0.00151179
-0.0239273
-0.0300644
-0.034751
-0.0380647
-0.0401132
-0.0409802
-0.0407253
-0.0394604
-0.0373373
-0.0345769
-0.0313424
-0.0278416
-0.0242408
-0.0206496
-0.0171549
-0.0138131
-0.0105853
-0.00749194
-0.00448051
-0.00151556
-0.0228191
-0.0293588
-0.0341562
-0.0374907
-0.039559
-0.0404699
-0.0402836
-0.0391056
-0.037073
-0.0343965
-0.0312337
-0.0277858
-0.0242167
-0.0206385
-0.0171609
-0.0138437
-0.0106278
-0.00751791
-0.00448011
-0.00150852
-0.151831
-0.161835
-0.171971
-0.18233
-0.193017
-0.204149
-0.215851
-0.228256
-0.241494
-0.255674
-0.27085
-0.28698
-0.303808
-0.320846
-0.337087
-0.351355
-0.361669
-0.367255
-0.366028
-0.362676
-0.0927524
-0.0961133
-0.0991565
-0.101864
-0.104213
-0.10618
-0.107738
-0.108861
-0.109524
-0.109712
-0.10942
-0.108682
-0.10757
-0.106258
-0.104978
-0.104194
-0.104304
-0.106197
-0.110169
-0.118286
-0.0694451
-0.0737261
-0.0780413
-0.0824012
-0.0868171
-0.0913008
-0.0958647
-0.100521
-0.105282
-0.110158
-0.115153
-0.120266
-0.125477
-0.13075
-0.136003
-0.141129
-0.145935
-0.150236
-0.153707
-0.156136
-0.0567584
-0.0596771
-0.0625526
-0.0653852
-0.0681753
-0.0709228
-0.0736272
-0.0762879
-0.0789038
-0.0814743
-0.0839988
-0.0864785
-0.0889173
-0.0913244
-0.0937175
-0.0961269
-0.0986041
-0.101223
-0.104134
-0.107547
-0.0473238
-0.0497056
-0.0520898
-0.0544786
-0.0568743
-0.0592794
-0.0616962
-0.0641271
-0.0665743
-0.0690403
-0.0715271
-0.0740364
-0.0765692
-0.0791248
-0.0817017
-0.084292
-0.0868909
-0.0894729
-0.0920476
-0.0945519
-0.04163
-0.0435106
-0.045388
-0.0472629
-0.0491356
-0.0510069
-0.0528773
-0.0547474
-0.0566179
-0.0584895
-0.060363
-0.0622393
-0.0641196
-0.0660048
-0.0678978
-0.0697994
-0.0717187
-0.0736538
-0.0756473
-0.077689
-0.0370966
-0.0386122
-0.0401285
-0.0416459
-0.0431648
-0.0446859
-0.0462097
-0.0477366
-0.0492673
-0.0508022
-0.052342
-0.053887
-0.0554379
-0.0569948
-0.0585586
-0.0601281
-0.0617075
-0.063289
-0.0648985
-0.0665061
-0.0337583
-0.0349973
-0.0362363
-0.0374754
-0.0387149
-0.0399549
-0.0411955
-0.042437
-0.0436797
-0.0449238
-0.0461695
-0.0474171
-0.048667
-0.0499192
-0.0511747
-0.0524325
-0.0536964
-0.0549612
-0.0562482
-0.0575338
-0.0310834
-0.0321067
-0.0331299
-0.0341532
-0.0351765
-0.0362001
-0.0372241
-0.0382485
-0.0392735
-0.0402992
-0.0413258
-0.0423533
-0.0433818
-0.0444115
-0.0454426
-0.0464746
-0.0475096
-0.0485436
-0.0495923
-0.0506355
-0.0289711
-0.029824
-0.0306767
-0.0315292
-0.0323816
-0.033234
-0.0340863
-0.0349386
-0.035791
-0.0366435
-0.0374961
-0.0383489
-0.0392019
-0.0400551
-0.0409086
-0.041762
-0.0426169
-0.0434702
-0.0443336
-0.0451921
-0.0272438
-0.027957
-0.0286702
-0.0293835
-0.0300969
-0.0308104
-0.0315239
-0.0322377
-0.0329515
-0.0336655
-0.0343795
-0.0350937
-0.0358079
-0.0365221
-0.0372364
-0.0379503
-0.0386649
-0.039378
-0.0400983
-0.0408149
-0.0258016
-0.0263987
-0.0269965
-0.0275948
-0.0281937
-0.0287933
-0.0293934
-0.0299941
-0.0305953
-0.031197
-0.0317991
-0.0324015
-0.0330041
-0.0336069
-0.0342097
-0.0348123
-0.0354154
-0.0360172
-0.0366242
-0.0372294
-0.0244974
-0.024996
-0.0254961
-0.0259979
-0.0265013
-0.0270062
-0.0275126
-0.0280205
-0.0285297
-0.0290401
-0.0295516
-0.0300641
-0.0305775
-0.0310915
-0.0316061
-0.032121
-0.0326365
-0.0331515
-0.0336705
-0.0341897
-0.023252
-0.0236678
-0.0240868
-0.0245088
-0.0249338
-0.0253616
-0.0257922
-0.0262253
-0.0266609
-0.0270986
-0.0275384
-0.0279799
-0.028423
-0.0288674
-0.0293129
-0.0297591
-0.0302062
-0.0306535
-0.0311038
-0.0315561
-0.0218255
-0.0221719
-0.0225239
-0.0228813
-0.0232439
-0.0236115
-0.0239838
-0.0243604
-0.0247412
-0.0251257
-0.0255136
-0.0259045
-0.0262982
-0.0266943
-0.0270924
-0.0274921
-0.0278934
-0.0282956
-0.0287006
-0.0291092
-0.0201937
-0.0204891
-0.0207935
-0.0211063
-0.0214271
-0.0217552
-0.0220902
-0.0224314
-0.0227784
-0.0231304
-0.0234871
-0.0238478
-0.024212
-0.0245792
-0.024949
-0.0253207
-0.0256941
-0.0260688
-0.0264456
-0.0268266
-0.0176931
-0.0179809
-0.0182816
-0.0185942
-0.0189174
-0.0192502
-0.0195917
-0.0199408
-0.0202966
-0.0206583
-0.021025
-0.0213959
-0.0217704
-0.0221478
-0.0225273
-0.0229085
-0.0232908
-0.0236739
-0.0240579
-0.0244459
-0.01443
-0.0147813
-0.0151453
-0.0155204
-0.0159052
-0.0162983
-0.0166983
-0.0171041
-0.0175147
-0.0179291
-0.0183463
-0.0187656
-0.0191862
-0.0196074
-0.0200286
-0.0204494
-0.0208691
-0.0212877
-0.0217045
-0.0221232
-0.00942004
-0.0100349
-0.0106439
-0.0112468
-0.0118431
-0.0124326
-0.013015
-0.01359
-0.0141575
-0.0147175
-0.0152696
-0.015814
-0.0163505
-0.0168791
-0.0173998
-0.0179127
-0.0184176
-0.018915
-0.0194043
-0.0198892
-0.00391564
-0.00489106
-0.00583227
-0.00674117
-0.00761955
-0.00846911
-0.00929143
-0.010088
-0.0108603
-0.0116094
-0.0123368
-0.0130435
-0.0137306
-0.0143991
-0.01505
-0.015684
-0.0163021
-0.0169052
-0.0174933
-0.0180703
-0.00385227
-0.00482807
-0.00576967
-0.00667897
-0.00755776
-0.00840774
-0.0092305
-0.0100275
-0.0108002
-0.0115499
-0.0122777
-0.0129849
-0.0136725
-0.0143415
-0.0149929
-0.0156275
-0.0162461
-0.0168497
-0.0174384
-0.0180159
-0.00935617
-0.00997135
-0.0105808
-0.011184
-0.0117807
-0.0123706
-0.0129534
-0.0135288
-0.0140968
-0.0146571
-0.0152097
-0.0157546
-0.0162915
-0.0168206
-0.0173418
-0.0178552
-0.0183606
-0.0188586
-0.0193484
-0.0198339
-0.0143646
-0.0147161
-0.0150805
-0.015456
-0.0158411
-0.0162345
-0.0166349
-0.0170411
-0.0174521
-0.0178668
-0.0182844