/*--------------------------------*- C++ -*----------------------------------*\
  =========                 |
  \\      /  F ield         | OpenFOAM: The Open Source CFD Toolbox
   \\    /   O peration     | Website:  https://openfoam.org
    \\  /    A nd           | Version:  6.0
     \\/     M anipulation  |
\*---------------------------------------------------------------------------*/
FoamFile
{
    version     2.0;
    format      ascii;
    class       volScalarField;
    location    "2";
    object      p;
}
// * * * * * * * * * * * * * * * * * * * * * * * * * * * * * * * * * * * * * //

dimensions      [0 2 -2 0 0 0 0];

internalField   nonuniform List<scalar> 
2000
(
-0.349772
-0.364464
-0.375619
-0.385996
-0.393015
-0.393073
-0.384188
-0.366703
-0.343368
-0.316789
-0.36166
-0.375042
-0.386095
-0.39709
-0.405251
-0.406767
-0.399185
-0.381925
-0.356909
-0.328209
-0.382445
-0.393311
-0.403929
-0.415757
-0.425717
-0.429702
-0.424579
-0.408427
-0.381504
-0.349116
-0.407351
-0.414717
-0.424155
-0.436271
-0.447757
-0.454284
-0.452122
-0.438266
-0.411066
-0.374843
-0.431636
-0.434905
-0.442064
-0.453154
-0.464913
-0.473013
-0.473321
-0.462231
-0.436949
-0.398395
-0.452111
-0.451256
-0.45507
-0.463565
-0.47394
-0.482147
-0.483819
-0.474927
-0.452608
-0.413735
-0.46776
-0.463357
-0.463273
-0.468079
-0.475829
-0.482929
-0.484872
-0.477145
-0.457301
-0.419438
-0.479483
-0.472482
-0.46869
-0.469647
-0.474379
-0.479669
-0.480832
-0.47303
-0.454203
-0.418028
-0.489401
-0.48073
-0.474019
-0.471801
-0.473744
-0.476571
-0.475211
-0.464987
-0.444443
-0.410212
-0.500034
-0.490275
-0.481627
-0.477192
-0.476552
-0.475787
-0.469237
-0.45254
-0.424781
-0.389512
-0.513544
-0.502804
-0.492949
-0.486876
-0.483271
-0.477361
-0.463468
-0.437881
-0.399061
-0.34985
-0.531232
-0.5192
-0.508336
-0.50045
-0.492742
-0.479987
-0.457697
-0.424185
-0.380558
-0.329044
-0.5535
-0.539621
-0.527391
-0.516772
-0.503344
-0.482408
-0.451711
-0.411959
-0.365512
-0.315062
-0.580158
-0.563796
-0.549404
-0.534539
-0.513655
-0.483842
-0.445613
-0.401531
-0.354744
-0.307605
-0.610678
-0.591198
-0.573499
-0.552422
-0.522541
-0.483818
-0.439235
-0.392282
-0.34585
-0.301211
-0.644196
-0.620962
-0.598444
-0.568952
-0.529014
-0.4819
-0.432213
-0.383437
-0.337662
-0.295284
-0.679298
-0.651716
-0.622427
-0.582472
-0.532105
-0.477522
-0.423864
-0.373902
-0.328675
-0.28776
-0.713805
-0.681419
-0.643089
-0.591218
-0.530799
-0.46993
-0.413317
-0.362646
-0.317911
-0.278281
-0.744779
-0.707295
-0.657793
-0.593461
-0.524034
-0.458215
-0.39957
-0.348575
-0.304312
-0.265803
-0.768833
-0.726009
-0.663959
-0.587647
-0.510766
-0.44142
-0.381643
-0.330754
-0.287137
-0.249963
-0.782588
-0.734138
-0.659322
-0.572484
-0.490053
-0.418647
-0.35865
-0.308362
-0.265701
-0.230151
-0.783027
-0.728687
-0.642084
-0.546961
-0.461104
-0.38914
-0.329889
-0.280823
-0.239619
-0.206169
-0.767674
-0.707452
-0.611038
-0.51039
-0.423338
-0.352336
-0.294851
-0.247736
-0.208622
-0.177801
-0.734685
-0.669125
-0.56562
-0.462479
-0.376475
-0.307945
-0.253287
-0.208949
-0.172663
-0.14503
-0.68292
-0.613255
-0.505878
-0.403358
-0.320602
-0.256032
-0.205272
-0.164575
-0.131898
-0.108033
-0.612056
-0.540172
-0.432393
-0.333535
-0.256159
-0.197052
-0.151317
-0.115219
-0.0870563
-0.0677079
-0.522693
-0.450927
-0.346183
-0.253756
-0.183718
-0.131572
-0.0921589
-0.0619447
-0.0396076
-0.025861
-0.416425
-0.347295
-0.248711
-0.16495
-0.103716
-0.0597059
-0.0279065
-0.00530941
0.00921156
0.0160594
-0.295822
-0.2318
-0.14206
-0.068556
-0.0167967
0.0188595
0.0427133
0.0566749
0.0618602
0.0611767
-0.164276
-0.107646
-0.0290382
0.032996
0.0750625
0.102977
0.120187
0.127461
0.126474
0.122289
-0.0257648
0.0215463
0.0871362
0.136561
0.168291
0.188235
0.199454
0.202747
0.202714
0.216154
0.115397
0.151981
0.203302
0.239347
0.259902
0.270412
0.273606
0.271772
0.272379
0.286776
0.254744
0.279784
0.316292
0.338881
0.348423
0.349915
0.345777
0.33828
0.333726
0.340455
0.387894
0.401163
0.422881
0.432187
0.430832
0.42348
0.412411
0.399662
0.39001
0.389368
0.510712
0.512628
0.520357
0.517276
0.505789
0.490119
0.472241
0.453858
0.438822
0.431741
0.619379
0.610888
0.605978
0.591831
0.571366
0.548408
0.524625
0.501321
0.481383
0.468254
0.710581
0.693137
0.677472
0.653961
0.625892
0.59674
0.567939
0.540478
0.516386
0.498125
0.781526
0.756996
0.732896
0.70209
0.668116
0.634162
0.601472
0.570754
0.543327
0.520948
0.830055
0.800619
0.770713
0.734902
0.69688
0.659642
0.624301
0.591354
0.561607
0.536361
0.854694
0.822751
0.78989
0.751537
0.711459
0.672553
0.635867
0.601783
0.570841
0.544127
0.854695
0.822752
0.78989
0.751537
0.711459
0.672554
0.635867
0.601783
0.570841
0.544127
0.830058
0.800621
0.770715
0.734904
0.696881
0.659643
0.624302
0.591355
0.561608
0.536362
0.781531
0.757
0.732899
0.702093
0.668118
0.634164
0.601474
0.570755
0.543329
0.52095
0.710587
0.693143
0.677477
0.653965
0.625896
0.596743
0.567942
0.540481
0.516388
0.498127
0.619386
0.610895
0.605984
0.591836
0.57137
0.548412
0.524628
0.501324
0.481386
0.468256
0.510721
0.512636
0.520364
0.517282
0.505794
0.490124
0.472246
0.453862
0.438825
0.431745
0.387905
0.401173
0.42289
0.432194
0.430839
0.423485
0.412417
0.399666
0.390014
0.389372
0.254755
0.279795
0.316302
0.338889
0.34843
0.349922
0.345782
0.338285
0.333731
0.34046
0.115409
0.151993
0.203313
0.239356
0.25991
0.270419
0.273612
0.271778
0.272384
0.286781
-0.0257507
0.0215592
0.0871475
0.136571
0.1683
0.188243
0.199461
0.202753
0.20272
0.21616
-0.164261
-0.107632
-0.029026
0.0330068
0.075072
0.102985
0.120194
0.127468
0.126481
0.122295
-0.295806
-0.231786
-0.142047
-0.0685445
-0.0167864
0.0188687
0.0427216
0.0566826
0.0618675
0.061184
-0.416409
-0.34728
-0.248697
-0.164938
-0.103705
-0.0596961
-0.0278976
-0.0053012
0.00921928
0.0160669
-0.522676
-0.450912
-0.346169
-0.253743
-0.183706
-0.131562
-0.0921495
-0.0619361
-0.0395996
-0.0258533
-0.612038
-0.540156
-0.432379
-0.333522
-0.256147
-0.197041
-0.151307
-0.11521
-0.0870478
-0.0677
-0.682902
-0.613239
-0.505863
-0.403345
-0.32059
-0.256021
-0.205262
-0.164566
-0.131889
-0.108025
-0.734667
-0.669107
-0.565604
-0.462465
-0.376463
-0.307933
-0.253276
-0.208939
-0.172653
-0.145021
-0.767655
-0.707434
-0.611022
-0.510376
-0.423326
-0.352324
-0.29484
-0.247727
-0.208613
-0.177792
-0.783007
-0.728669
-0.642068
-0.546946
-0.461091
-0.389128
-0.329878
-0.280813
-0.23961
-0.206161
-0.782568
-0.734118
-0.659304
-0.572469
-0.490039
-0.418635
-0.358639
-0.308352
-0.265692
-0.230142
-0.768812
-0.72599
-0.663941
-0.587632
-0.510753
-0.441408
-0.381632
-0.330744
-0.287128
-0.249954
-0.744759
-0.707276
-0.657776
-0.593446
-0.524021
-0.458203
-0.399559
-0.348565
-0.304302
-0.265795
-0.713786
-0.6814
-0.643072
-0.591202
-0.530785
-0.469917
-0.413305
-0.362635
-0.317901
-0.278272
-0.67928
-0.651698
-0.62241
-0.582456
-0.532089
-0.477508
-0.423852
-0.37389
-0.328665
-0.287751
-0.64418
-0.620946
-0.598427
-0.568936
-0.528998
-0.481885
-0.4322
-0.383425
-0.337652
-0.295275
-0.610662
-0.591182
-0.573482
-0.552405
-0.522524
-0.483803
-0.439221
-0.39227
-0.34584
-0.301202
-0.580142
-0.56378
-0.549388
-0.534523
-0.513639
-0.483827
-0.445599
-0.401519
-0.354734
-0.307596
-0.553485
-0.539605
-0.527376
-0.516756
-0.503328
-0.482393
-0.451698
-0.411947
-0.365501
-0.315053
-0.531217
-0.519185
-0.508321
-0.500435
-0.492727
-0.479972
-0.457683
-0.424172
-0.380547
-0.329035
-0.513531
-0.50279
-0.492935
-0.486861
-0.483256
-0.477346
-0.463454
-0.437867
-0.39905
-0.34984
-0.500021
-0.490262
-0.481614
-0.477178
-0.476539
-0.475773
-0.469223
-0.452526
-0.424767
-0.389499
-0.489387
-0.480717
-0.474006
-0.471789
-0.473731
-0.476557
-0.475196
-0.464971
-0.444428
-0.410198
-0.479469
-0.472469
-0.468678
-0.469635
-0.474367
-0.479655
-0.480816
-0.473014
-0.454186
-0.418012
-0.467745
-0.463344
-0.46326
-0.468067
-0.475816
-0.482914
-0.484855
-0.477128
-0.457283
-0.419422
-0.452097
-0.451242
-0.455057
-0.463552
-0.473926
-0.482131
-0.483801
-0.474908
-0.452589
-0.413718
-0.431623
-0.434892
-0.442052
-0.453141
-0.464898
-0.472996
-0.473303
-0.462212
-0.43693
-0.398378
-0.407339
-0.414705
-0.424144
-0.436258
-0.447742
-0.454268
-0.452105
-0.438248
-0.411048
-0.374827
-0.382434
-0.393301
-0.40392
-0.415746
-0.425705
-0.429688
-0.424564
-0.408412
-0.38149
-0.349104
-0.361653
-0.375036
-0.386089
-0.397083
-0.405243
-0.406758
-0.399175
-0.381915
-0.356901
-0.328202
-0.349769
-0.364462
-0.375617
-0.385993
-0.393012
-0.39307
-0.384185
-0.366699
-0.343365
-0.316787
-0.0371026
0.0265075
0.0199124
0.0103914
0.00406303
0.00202235
0.00113447
0.000600756
0.000286763
8.38817e-05
-0.0451314
0.0252486
0.0198051
0.010354
0.00404823
0.00201667
0.0011324
0.000599863
0.000286289
8.36955e-05
-0.0600054
0.0229177
0.019575
0.0102791
0.0040188
0.00200531
0.00112824
0.000598074
0.000285353
8.33263e-05
-0.0797735
0.0196114
0.0191971
0.0101669
0.00397513
0.0019882
0.00112197
0.000595399
0.000283952
8.27748e-05
-0.102091
0.0152683
0.0186549
0.0100199
0.00391778
0.00196522
0.0011136
0.000591852
0.000282087
8.20451e-05
-0.12432
0.00990256
0.0179613
0.00984465
0.00384771
0.00193619
0.00110311
0.000587432
0.000279756
8.11439e-05
-0.144847
0.00358083
0.0171281
0.00964823
0.00376593
0.00190092
0.00109041
0.000582104
0.000276939
8.00731e-05
-0.166136
-0.00424814
0.0160344
0.00942238
0.00367384
0.00185974
0.00107563
0.00057593
0.000273639
7.88326e-05
-0.1917
-0.0144842
0.0144926
0.00915783
0.00357547
0.00181431
0.00105965
0.00056936
0.000270039
7.74716e-05
-0.207138
-0.0241342
0.0130694
0.00891787
0.00346389
0.00176067
0.00104132
0.000562056
0.000266143
7.60544e-05
-0.195877
-0.0444349
0.0109239
0.0086093
0.00308154
0.00154409
0.000964746
0.000531225
0.000250561
7.0886e-05
-0.143634
-0.046613
0.00363129
0.0054442
0.00160388
0.000786402
0.00062719
0.000385659
0.000186874
5.28308e-05
-0.0897555
-0.0405548
-0.00203941
0.00308173
0.000753069
0.000229972
0.000296517
0.000220716
0.000111302
3.08289e-05
-0.0577464
-0.034732
-0.00659871
0.000614245
-5.55836e-05
-0.000253079
-2.18887e-05
5.0968e-05
3.30427e-05
9.19451e-06
-0.0372864
-0.0275176
-0.00875649
-0.00136717
-0.000759067
-0.000639671
-0.000299401
-0.000110136
-4.36583e-05
-1.19916e-05
-0.0233797
-0.0211565
-0.00949322
-0.00289895
-0.00140583
-0.000960452
-0.000530573
-0.00025346
-0.000114269
-3.15273e-05
-0.0148246
-0.0162673
-0.0094245
-0.00396267
-0.00195898
-0.00122187
-0.000712914
-0.000372275
-0.000174869
-4.83936e-05
-0.00948134
-0.0127142
-0.00900173
-0.00462961
-0.00238982
-0.00142462
-0.0008478
-0.000462998
-0.000222567
-6.17793e-05
-0.0063525
-0.0104351
-0.00856444
-0.00500352
-0.00268222
-0.00156431
-0.00093684
-0.000523941
-0.000255365
-7.10471e-05
-0.00492099
-0.00932734
-0.00830302
-0.00516836
-0.00282955
-0.00163572
-0.000981096
-0.0005545
-0.000272067
-7.57835e-05
-0.118831
-0.125722
-0.129189
-0.12915
-0.125035
-0.116755
-0.104189
-0.090616
-0.0818981
-0.0950695
-0.0477907
-0.0513216
-0.0543755
-0.0580274
-0.0634053
-0.07201
-0.0847219
-0.101413
-0.118791
-0.131052
-0.0256717
-0.0314903
-0.0376273
-0.0440116
-0.0501237
-0.0549887
-0.0575037
-0.0570502
-0.055105
-0.055766
-0.00962875
-0.0125842
-0.014948
-0.0166198
-0.0176139
-0.0181381
-0.0187904
-0.0202305
-0.0231406
-0.0273214
0.000106499
-0.00208837
-0.00419982
-0.00634422
-0.00866071
-0.0112114
-0.0140037
-0.0168128
-0.019474
-0.0217341
0.00375041
0.00179811
-0.000107034
-0.0019552
-0.00372281
-0.00535014
-0.00682044
-0.00811649
-0.00939215
-0.0107955
0.00616709
0.00471849
0.00333475
0.00201702
0.000756414
-0.00045339
-0.00164374
-0.00282372
-0.00404208
-0.00528966
0.00750575
0.00632139
0.00516584
0.00403745
0.00293209
0.00185245
0.000794761
-0.000230425
-0.00123706
-0.00221909
0.00814056
0.00711721
0.0061129
0.00512985
0.00416884
0.00323349
0.00232253
0.00144027
0.000577525
-0.000263353
0.00840372
0.00746824
0.0065478
0.00564437
0.0047584
0.00389181
0.00304379
0.00221738
0.00140871
0.00062237
0.0966525
0.0593711
0.0322391
0.0108814
-0.0112409
-0.0349769
-0.0579014
-0.0780987
-0.0949842
-0.108586
0.0766874
0.0597344
0.039533
0.0221905
0.00813653
-0.00464967
-0.0168222
-0.0276693
-0.0364449
-0.0430438
0.0577904
0.0474481
0.0346235
0.0229202
0.0136493
0.00602163
-0.000986579
-0.00770696
-0.0140391
-0.0199606
0.0434391
0.0363308
0.0283128
0.0211841
0.0154202
0.0105961
0.00615564
0.00184241
-0.00231199
-0.00617404
0.0341662
0.0298301
0.0249406
0.020501
0.0167847
0.0135861
0.0106295
0.00778032
0.00504315
0.0024752
0.0281231
0.0254075
0.0222761
0.0192983
0.0166726
0.0143241
0.0121127
0.00995455
0.00783255
0.00576117
0.0237916
0.021953
0.0198527
0.0177972
0.0159057
0.0141561
0.0124852
0.010851
0.00924517
0.00767923
0.0207807
0.0194659
0.0180022
0.0165394
0.0151414
0.0138054
0.0125064
0.0112269
0.00996316
0.00872076
0.0188923
0.0178638
0.0167576
0.0156377
0.0145332
0.0134465
0.0123706
0.0113002
0.0102359
0.00918128
0.0179835
0.0170753
0.0161243
0.0151567
0.0141859
0.0132156
0.0122455
0.0112765
0.0103109
0.00935224
0.240515
0.240634
0.240924
0.2408
0.239564
0.236112
0.228989
0.214909
0.189569
0.145387
0.179051
0.177832
0.17506
0.170714
0.164248
0.155439
0.143451
0.128462
0.110347
0.0910787
0.128435
0.127039
0.124056
0.119675
0.113888
0.106969
0.0988359
0.0897829
0.079475
0.0677302
0.0922651
0.0913129
0.0893616
0.0865197
0.0827932
0.078344
0.0730553
0.0669492
0.0596515
0.0510436
0.0679261
0.0673413
0.0661319
0.0642871
0.0617432
0.0585513
0.054653
0.050114
0.0448602
0.0390197
0.0514629
0.0510513
0.05019
0.0488543
0.0470027
0.0446767
0.0418805
0.0386917
0.0351152
0.0312517
0.0403424
0.040036
0.0394025
0.0384304
0.0371028
0.0354487
0.0334771
0.0312314
0.0287196
0.0260006
0.0331031
0.0328741
0.0324044
0.0316847
0.0307048
0.0294797
0.0280172
0.0263424
0.0244692
0.0224369
0.02877
0.0285875
0.028214
0.0276404
0.0268597
0.0258811
0.0247135
0.0233732
0.0218749
0.0202399
0.0267411
0.0265795
0.0262493
0.0257421
0.0250534
0.0241896
0.0231597
0.0219753
0.02065
0.0191961
0.340612
0.343782
0.350371
0.36036
0.374026
0.391481
0.413429
0.439992
0.472332
0.510147
0.338757
0.341905
0.34841
0.358208
0.371597
0.388671
0.410139
0.436058
0.467597
0.504216
0.335127
0.338228
0.344571
0.353996
0.366844
0.383169
0.403692
0.428334
0.45828
0.492489
0.329871
0.3329
0.339008
0.347895
0.359962
0.375194
0.394326
0.41706
0.444605
0.475133
0.323193
0.326126
0.331934
0.340143
0.351215
0.365036
0.382359
0.402564
0.426869
0.452369
0.315331
0.318148
0.323607
0.331025
0.340922
0.353048
0.368165
0.385238
0.405446
0.42451
0.306535
0.309222
0.314307
0.320865
0.329459
0.339653
0.352181
0.365517
0.38077
0.391867
0.297043
0.299585
0.304306
0.309995
0.317242
0.325366
0.335003
0.343972
0.353286
0.35498
0.287079
0.289418
0.293775
0.298625
0.304578
0.310622
0.317327
0.321585
0.323534
0.314535
0.276871
0.278863
0.282673
0.286625
0.291258
0.295247
0.299194
0.299182
0.294291
0.270312
0.276873
0.278865
0.282675
0.286627
0.29126
0.29525
0.299197
0.299185
0.294294
0.270316
0.287081
0.28942
0.293777
0.298627
0.30458
0.310624
0.31733
0.321588
0.323537
0.314539
0.297045
0.299587
0.304308
0.309996
0.317244
0.325368
0.335006
0.343975
0.353289
0.354984
0.306537
0.309224
0.314309
0.320867
0.32946
0.339654
0.352183
0.365519
0.380773
0.391871
0.315332
0.318149
0.323608
0.331026
0.340923
0.35305
0.368167
0.38524
0.405448
0.424512
0.323194
0.326127
0.331935
0.340144
0.351216
0.365037
0.38236
0.402565
0.426871
0.452372
0.329872
0.332901
0.339009
0.347896
0.359963
0.375194
0.394327
0.417062
0.444607
0.475135
0.335128
0.338228
0.344571
0.353996
0.366845
0.38317
0.403693
0.428335
0.458281
0.492491
0.338758
0.341905
0.34841
0.358208
0.371597
0.388671
0.410139
0.436058
0.467598
0.504216
0.340612
0.343783
0.350371
0.36036
0.374026
0.391481
0.413429
0.439993
0.472332
0.510147
0.0267454
0.0265838
0.0262535
0.0257464
0.0250577
0.0241938
0.0231639
0.0219795
0.0206542
0.0192005
0.0287743
0.0285918
0.0282183
0.0276447
0.026864
0.0258854
0.0247178
0.0233774
0.021879
0.020244
0.0331074
0.0328783
0.0324086
0.0316889
0.0307091
0.029484
0.0280216
0.0263467
0.0244735
0.0224411
0.0403466
0.0400403
0.0394067
0.0384346
0.037107
0.0354529
0.0334814
0.0312357
0.0287239
0.0260048
0.0514671
0.0510554
0.0501941
0.0488585
0.0470069
0.0446809
0.0418847
0.0386958
0.0351193
0.0312557
0.0679302
0.0673454
0.066136
0.0642912
0.0617472
0.0585553
0.0546571
0.0501181
0.0448643
0.0390239
0.092269
0.0913169
0.0893655
0.0865237
0.0827973
0.078348
0.0730593
0.0669532
0.0596555
0.0510477
0.128439
0.127043
0.12406
0.119679
0.113892
0.106973
0.09884
0.0897871
0.0794793
0.0677346
0.179054
0.177835
0.175063
0.170717
0.164252
0.155443
0.143455
0.128466
0.110351
0.091083
0.240517
0.240637
0.240927
0.240803
0.239567
0.236115
0.228992
0.214913
0.189573
0.145392
0.017988
0.0170798
0.0161286
0.015161
0.0141903
0.0132199
0.01225
0.011281
0.0103155
0.00935698
0.0188965
0.0178681
0.016762
0.0156421
0.0145376
0.013451
0.0123751
0.0113048
0.0102405
0.00918594
0.0207849
0.0194701
0.0180063
0.0165436
0.0151456
0.0138096
0.0125106
0.0112311
0.00996745
0.00872514
0.0237958
0.0219572
0.0198569
0.0178014
0.0159099
0.0141603
0.0124893
0.0108551
0.00924927
0.00768335
0.0281271
0.0254117
0.0222803
0.0193026
0.0166768
0.0143283
0.0121169
0.00995873
0.00783671
0.00576529
0.0341706
0.0298346
0.0249449
0.0205052
0.0167887
0.0135901
0.0106335
0.00778429
0.00504707
0.00247909
0.0434436
0.0363355
0.0283175
0.0211886
0.0154246
0.0106005
0.00616006
0.0018468
-0.00230771
-0.00616995
0.0577951
0.0474529
0.0346281
0.0229244
0.0136534
0.00602576
-0.000982403
-0.00770278
-0.014035
-0.0199565
0.0766924
0.0597399
0.0395385
0.0221957
0.00814146
-0.00464489
-0.0168174
-0.0276646
-0.0364403
-0.0430395
0.0966588
0.0593782
0.0322457
0.0108875
-0.0112348
-0.0349707
-0.057895
-0.0780924
-0.0949781
-0.10858
0.00840865
0.00747324
0.00655273
0.0056492
0.00476312
0.00389641
0.00304829
0.0022218
0.00141307
0.000626648
0.00814535
0.00712212
0.00611786
0.00513476
0.00417367
0.00323824
0.0023272
0.00144485
0.000582018
-0.000258978
0.00751023
0.00632593
0.0051704
0.004042
0.0029366
0.00185692
0.00079919
-0.000226034
-0.00123273
-0.00221484
0.00617126
0.0047227
0.00333893
0.00202111
0.000760381
-0.000449519
-0.00163994
-0.00281996
-0.00403835
-0.00528597
0.00375448
0.00180216
-0.000103025
-0.00195125
-0.00371895
-0.00534636
-0.00681676
-0.00811292
-0.00938866
-0.010792
0.000110326
-0.00208469
-0.00419626
-0.0063407
-0.00865716
-0.0112078
-0.0140001
-0.0168093
-0.0194705
-0.0217306
-0.00962482
-0.0125802
-0.0149441
-0.0166161
-0.0176105
-0.0181348
-0.0187872
-0.0202273
-0.0231374
-0.0273182
-0.0256676
-0.0314863
-0.0376233
-0.0440076
-0.0501197
-0.0549847
-0.0574998
-0.0570466
-0.0551016
-0.0557627
-0.0477867
-0.0513178
-0.0543719
-0.0580239
-0.0634018
-0.0720066
-0.0847185
-0.10141
-0.118787
-0.131048
-0.118825
-0.125716
-0.129183
-0.129145
-0.12503
-0.116751
-0.104186
-0.0906144
-0.0818975
-0.0950692
-0.00491774
-0.00932487
-0.00830036
-0.0051661
-0.00282806
-0.00163477
-0.000980475
-0.000554088
-0.000271833
-7.57121e-05
-0.00634914
-0.0104326
-0.00856197
-0.00500144
-0.00268078
-0.00156337
-0.000936238
-0.000523532
-0.000255132
-7.09846e-05
-0.00947787
-0.0127114
-0.00899946
-0.00462781
-0.00238847
-0.00142369
-0.000847197
-0.000462575
-0.000222357
-6.17492e-05
-0.0148211
-0.0162643
-0.00942231
-0.00396106
-0.00195768
-0.00122096
-0.000712308
-0.000371856
-0.000174702
-4.83951e-05
-0.0233762
-0.0211534
-0.00949114
-0.00289744
-0.00140461
-0.00095959
-0.000530004
-0.000253076
-0.000114128
-3.15371e-05
-0.0372829
-0.0275147
-0.0087545
-0.00136576
-0.000757981
-0.000638901
-0.000298905
-0.000109785
-4.3506e-05
-1.19947e-05
-0.0577429
-0.0347292
-0.00659675
0.000615505
-5.46522e-05
-0.000252414
-2.1487e-05
5.12947e-05
3.3228e-05
9.19712e-06
-0.0897518
-0.040552
-0.00203759
0.00308276
0.000753845
0.000230537
0.000296785
0.000221011
0.000111532
3.08286e-05
-0.14363
-0.0466105
0.00363277
0.00544492
0.00160449
0.000786897
0.000627312
0.000385866
0.000187131
5.28373e-05
-0.195873
-0.0444328
0.0109248
0.00860972
0.00308202
0.00154448
0.00096483
0.00053137
0.000250762
7.09181e-05
-0.207133
-0.0241327
0.01307
0.00891826
0.00346431
0.00176107
0.00104138
0.000562152
0.000266317
7.61e-05
-0.191696
-0.0144829
0.0144931
0.0091582
0.00357585
0.00181469
0.00105969
0.000569443
0.000270202
7.75165e-05
-0.166133
-0.00424696
0.0160348
0.00942273
0.00367416
0.0018601
0.00107564
0.000576001
0.000273787
7.88739e-05
-0.144844
0.00358188
0.0171285
0.00964855
0.0037662
0.00190125
0.00109039
0.000582162
0.00027707
8.01101e-05
-0.124316
0.00990348
0.0179616
0.00984494
0.0038479
0.00193649
0.00110307
0.000587478
0.00027987
8.11766e-05
-0.102087
0.0152691
0.0186551
0.0100201
0.0039179
0.00196549
0.00111353
0.000591885
0.000282182
8.20729e-05
-0.079769
0.0196121
0.0191972
0.0101672
0.00397516
0.00198846
0.00112188
0.000595419
0.000284028
8.27972e-05
-0.0600015
0.0229183
0.0195751
0.0102793
0.00401876
0.00200553
0.00112814
0.000598082
0.000285408
8.33425e-05
-0.0451287
0.025249
0.0198052
0.0103542
0.00404816
0.00201682
0.00113232
0.000599862
0.000286324
8.37054e-05
-0.0371016
0.0265076
0.0199124
0.0103914
0.004063
0.0020224
0.00113444
0.000600754
0.000286775
8.38852e-05
)
;

boundaryField
{
    inlet
    {
        type            zeroGradient;
    }
    outlet
    {
        type            fixedValue;
        value           uniform 0;
    }
    cylinder
    {
        type            zeroGradient;
    }
    top
    {
        type            symmetryPlane;
    }
    bottom
    {
        type            symmetryPlane;
    }
    defaultFaces
    {
        type            empty;
    }
}


// ************************************************************************* //
