/*--------------------------------*- C++ -*----------------------------------*\
  =========                 |
  \\      /  F ield         | OpenFOAM: The Open Source CFD Toolbox
   \\    /   O peration     | Website:  https://openfoam.org
    \\  /    A nd           | Version:  6.0
     \\/     M anipulation  |
\*---------------------------------------------------------------------------*/
FoamFile
{
    version     2.0;
    format      ascii;
    class       volVectorField;
    location    "2";
    object      U;
}
// * * * * * * * * * * * * * * * * * * * * * * * * * * * * * * * * * * * * * //

dimensions      [0 1 -1 0 0 0 0];

internalField   nonuniform List<vector> 
4000
(
(0.150033 0.00927502 9.01754e-20)
(0.450023 0.0448915 -4.94734e-20)
(0.729658 0.0999644 5.83719e-20)
(0.966871 0.155776 -4.3333e-20)
(1.14965 0.202581 -1.91054e-20)
(1.27757 0.236762 5.99034e-21)
(1.35827 0.258272 -1.83762e-20)
(1.40278 0.269115 6.53361e-20)
(1.42204 0.272025 -5.37353e-20)
(1.42515 0.269598 1.25522e-20)
(1.41876 0.263905 -9.34103e-21)
(1.40733 0.256417 -5.87703e-20)
(1.39361 0.248093 5.64711e-20)
(1.37922 0.239516 2.10224e-20)
(1.36503 0.231017 -2.07286e-20)
(1.3515 0.222772 4.80002e-20)
(1.33884 0.214857 -9.58778e-22)
(1.32713 0.207344 -4.51875e-20)
(1.31635 0.200463 3.29254e-20)
(1.30645 0.19389 1.0161e-20)
(0.165535 0.0161318 -3.17114e-20)
(0.484439 0.0644868 9.11452e-20)
(0.771394 0.129187 1.05544e-19)
(1.00668 0.190571 -4.97446e-20)
(1.18169 0.239304 8.59628e-20)
(1.29948 0.272841 1.34325e-19)
(1.37024 0.292284 -7.54855e-21)
(1.40643 0.300531 -2.234e-20)
(1.41948 0.30087 1.10173e-19)
(1.41836 0.296166 5.31377e-20)
(1.40933 0.288562 -9.21985e-21)
(1.3964 0.279506 7.75551e-20)
(1.38193 0.269893 -8.12063e-20)
(1.36726 0.260238 1.26542e-19)
(1.35307 0.250819 -2.07806e-20)
(1.3397 0.241774 5.85992e-20)
(1.32729 0.233148 1.01087e-20)
(1.31588 0.225011 4.04326e-20)
(1.30542 0.217601 -3.84093e-20)
(1.29587 0.210475 9.55213e-21)
(0.180659 0.0241375 -4.9202e-20)
(0.516801 0.0863747 1.13481e-19)
(0.809129 0.160741 8.46688e-20)
(1.04095 0.227127 -1.2746e-20)
(1.20748 0.277048 1.30699e-19)
(1.31518 0.309299 -9.83938e-20)
(1.37661 0.326227 -6.51274e-21)
(1.40536 0.331623 8.45274e-20)
(1.41311 0.329277 2.66683e-20)
(1.40855 0.32226 3.68255e-20)
(1.39752 0.312748 -5.38166e-20)
(1.38355 0.302135 1.39225e-19)
(1.36867 0.291239 2.51923e-20)
(1.35395 0.280506 -1.20514e-19)
(1.33991 0.270162 1.74179e-19)
(1.3268 0.260306 -2.03081e-19)
(1.31472 0.250958 -9.12926e-20)
(1.30368 0.24219 1.61314e-20)
(1.29359 0.23424 8.69079e-20)
(1.28443 0.226538 -1.64561e-19)
(0.19518 0.0332471 -1.0745e-19)
(0.546652 0.110334 -2.55e-19)
(0.842431 0.19425 -2.22222e-19)
(1.06948 0.264995 -2.98466e-19)
(1.22704 0.315381 -1.68876e-19)
(1.32492 0.345764 -3.46789e-19)
(1.37773 0.359809 4.41759e-20)
(1.39993 0.362166 -1.8062e-19)
(1.40324 0.357068 -1.97208e-20)
(1.39599 0.347737 2.94155e-20)
(1.38351 0.336337 -6.37249e-20)
(1.36892 0.324188 7.91892e-20)
(1.35391 0.312023 1.39064e-19)
(1.33932 0.300218 -1.95518e-19)
(1.32557 0.288948 3.11372e-20)
(1.31282 0.278275 8.82546e-20)
(1.30115 0.268202 1.46165e-19)
(1.29053 0.258799 -1.26102e-19)
(1.28084 0.250303 -5.71597e-21)
(1.27212 0.242011 1.45314e-19)
(0.20888 0.0433896 -2.00586e-19)
(0.573582 0.136099 5.54367e-19)
(0.870948 0.2293 -9.70312e-20)
(1.09209 0.303716 1.29051e-19)
(1.24043 0.353872 -1.24361e-19)
(1.32891 0.381879 3.83358e-19)
(1.3739 0.392747 -6.04397e-20)
(1.39044 0.391941 3.61502e-20)
(1.39013 0.38407 -1.75002e-20)
(1.38084 0.372451 5.81538e-20)
(1.36741 0.359201 3.73359e-20)
(1.35255 0.345548 4.69959e-20)
(1.33766 0.332135 -1.31858e-19)
(1.32339 0.319268 1.9196e-19)
(1.31004 0.307076 -1.45256e-19)
(1.29775 0.295588 2.73791e-20)
(1.28655 0.28479 -9.19866e-20)
(1.27641 0.274755 1.90104e-20)
(1.26719 0.26571 2.12624e-20)
(1.25895 0.256824 -2.00706e-19)
(0.221553 0.0544687 1.24923e-20)
(0.597236 0.163358 -2.76476e-19)
(0.894417 0.26545 1.54393e-19)
(1.10875 0.342822 -5.30832e-19)
(1.24781 0.392099 2.57357e-19)
(1.32743 0.417296 -4.3638e-19)
(1.36543 0.424767 -3.3858e-19)
(1.37718 0.420733 -1.29167e-20)
(1.37401 0.410108 -1.14381e-19)
(1.36329 0.396249 -3.5404e-19)
(1.34936 0.3812 -4.43284e-20)
(1.33454 0.366082 -3.36742e-19)
(1.31998 0.351448 6.09362e-20)
(1.30617 0.337538 -4.83527e-20)
(1.29335 0.324434 2.84104e-20)
(1.28161 0.31214 -2.21253e-19)
(1.27095 0.300624 1.19524e-20)
(1.26134 0.289966 4.42142e-20)
(1.25263 0.280377 -1.00647e-19)
(1.24494 0.2709 8.7883e-20)
(0.233007 0.0663643 -1.12691e-19)
(0.617316 0.191771 5.01827e-19)
(0.912654 0.302242 5.01568e-21)
(1.11947 0.381844 -4.31382e-19)
(1.24936 0.429652 3.26214e-19)
(1.32077 0.451682 1.36189e-19)
(1.35262 0.45561 2.7969e-20)
(1.36042 0.448334 -2.28535e-19)
(1.35509 0.435006 3.70899e-19)
(1.34348 0.418976 -2.17727e-19)
(1.32944 0.402189 7.76606e-20)
(1.31494 0.385655 3.65702e-19)
(1.3009 0.369835 -3.29091e-19)
(1.28771 0.354906 3.58382e-19)
(1.27552 0.34091 -2.335e-19)
(1.2644 0.327822 -4.54527e-20)
(1.25436 0.315604 5.36729e-20)
(1.24534 0.304338 6.82976e-20)
(1.23719 0.294214 9.46614e-20)
(1.2301 0.284162 5.64566e-20)
(0.243071 0.0789357 4.32121e-20)
(0.633587 0.220966 -4.45937e-19)
(0.925558 0.339205 8.05434e-20)
(1.12433 0.420322 1.03654e-18)
(1.24532 0.466135 -9.56311e-20)
(1.30922 0.484721 2.85396e-19)
(1.33578 0.485022 1.78385e-19)
(1.34042 0.474539 2.92597e-20)
(1.33358 0.458588 -2.06926e-19)
(1.32155 0.440473 3.39261e-19)
(1.30774 0.422022 -3.95278e-20)
(1.29381 0.404127 5.16804e-19)
(1.28048 0.387163 1.98306e-19)
(1.26803 0.371246 1.238e-19)
(1.25658 0.356383 -2.5935e-19)
(1.24616 0.342526 5.60241e-20)
(1.23681 0.329626 1.99649e-19)
(1.22844 0.317773 5.15134e-20)
(1.2209 0.307129 -2.40662e-19)
(1.21447 0.296527 -5.9986e-20)
(0.251597 0.0920232 -2.47237e-19)
(0.645875 0.250556 7.95405e-19)
(0.933102 0.375868 -4.33196e-19)
(1.12348 0.457808 -3.98002e-19)
(1.23596 0.50117 -3.46821e-19)
(1.29309 0.516111 -2.92213e-19)
(1.31519 0.512765 -3.60614e-19)
(1.31741 0.499148 4.52478e-19)
(1.30964 0.480679 -3.24472e-19)
(1.29764 0.460579 -2.60499e-20)
(1.28437 0.440544 -1.49225e-21)
(1.27123 0.421353 -6.25107e-20)
(1.25877 0.403295 -1.61799e-19)
(1.24719 0.386431 -1.80903e-19)
(1.23657 0.370734 -9.57781e-21)
(1.22694 0.356137 -3.98615e-20)
(1.21833 0.342583 -9.94854e-20)
(1.21068 0.330169 -3.13003e-20)
(1.20382 0.319028 3.16359e-20)
(1.1981 0.307914 -2.10685e-19)
(0.258461 0.105452 4.24659e-19)
(0.654072 0.28014 4.44377e-19)
(0.935329 0.411764 -2.75602e-19)
(1.11712 0.493871 1.70676e-19)
(1.22155 0.534401 2.93812e-19)
(1.2727 0.545566 -6.15824e-20)
(1.29113 0.538608 7.21434e-20)
(1.29162 0.521967 8.29509e-20)
(1.28346 0.501105 1.38422e-19)
(1.27186 0.479132 -1.62854e-19)
(1.25941 0.457605 7.94343e-20)
(1.24726 0.437188 -5.72523e-20)
(1.23583 0.418093 2.47629e-19)
(1.22524 0.40033 1.10076e-19)
(1.21555 0.38384 -2.49067e-19)
(1.20679 0.368539 1.38189e-19)
(1.199 0.354366 6.6894e-20)
(1.19211 0.341422 -1.27407e-19)
(1.18599 0.329813 3.38098e-19)
(1.18104 0.318235 -2.52737e-19)
(0.263568 0.119036 -3.11397e-19)
(0.65813 0.309315 -4.06293e-19)
(0.932345 0.44644 2.87055e-19)
(1.10549 0.528102 -2.64245e-19)
(1.20243 0.565493 -2.35836e-20)
(1.24837 0.572822 -2.94057e-19)
(1.2639 0.562335 2.4222e-19)
(1.26328 0.54281 4.57055e-19)
(1.2552 0.519698 -6.35925e-19)
(1.24435 0.495974 3.21162e-20)
(1.23296 0.473052 2.47606e-20)
(1.22199 0.451488 -1.30433e-19)
(1.21172 0.431419 8.80293e-20)
(1.20225 0.412812 -3.83645e-20)
(1.19359 0.395577 2.62935e-19)
(1.18578 0.379615 -2.82409e-19)
(1.17887 0.364862 -1.00383e-19)
(1.17281 0.351423 2.54147e-19)
(1.16748 0.339381 -3.87128e-19)
(1.16337 0.327399 2.43399e-19)
(0.26685 0.132581 6.47918e-19)
(0.658061 0.337679 5.77721e-19)
(0.924315 0.47946 -9.68218e-20)
(1.08888 0.560116 -1.24687e-20)
(1.17892 0.594134 -2.9602e-19)
(1.22042 0.597631 1.25386e-19)
(1.23376 0.583742 6.33038e-19)
(1.23261 0.561499 -5.58115e-19)
(1.22503 0.536294 3.6102e-19)
(1.21522 0.51095 -3.41145e-20)
(1.20512 0.486737 2.26271e-19)
(1.19549 0.464108 -5.09488e-20)
(1.18654 0.443136 1.37693e-19)
(1.17829 0.423744 1.83577e-19)
(1.17076 0.405819 -9.62219e-20)
(1.16398 0.389243 1.26316e-19)
(1.15802 0.373954 -1.84855e-19)
(1.15285 0.360057 4.64827e-19)
(1.14839 0.347616 -2.95344e-19)
(1.14517 0.335299 2.1126e-19)
(0.268269 0.145886 -3.1741e-19)
(0.653934 0.364842 -5.95098e-19)
(0.911456 0.510413 -4.11104e-19)
(1.06761 0.589559 -3.10705e-20)
(1.15137 0.620042 9.95145e-20)
(1.18916 0.619766 -5.53014e-20)
(1.20098 0.602641 -3.60134e-19)
(1.19982 0.577868 -1.61739e-19)
(1.19311 0.550739 -3.01197e-19)
(1.18462 0.523912 -1.58985e-19)
(1.17599 0.498517 7.83635e-20)
(1.16785 0.474911 -3.70672e-19)
(1.16034 0.453109 -9.23623e-20)
(1.15345 0.432998 -9.34937e-20)
(1.14714 0.41444 -2.89863e-19)
(1.14148 0.397303 1.30618e-19)
(1.13654 0.381521 -2.4881e-21)
(1.13232 0.367199 1.22161e-19)
(1.12879 0.354391 -5.31769e-20)
(1.12654 0.341811 -1.93663e-19)
(0.267817 0.158753 7.32896e-19)
(0.64587 0.390427 6.40166e-19)
(0.894033 0.538913 8.03101e-19)
(1.04202 0.616106 -8.30114e-20)
(1.12014 0.642958 -3.00607e-19)
(1.15493 0.639024 8.80352e-19)
(1.16584 0.618861 -4.5044e-19)
(1.16513 0.591764 5.07884e-19)
(1.15962 0.562891 -9.69325e-20)
(1.15266 0.534723 3.2121e-19)
(1.14568 0.508258 3.49078e-20)
(1.13917 0.483765 1.6788e-19)
(1.13322 0.461208 -3.89305e-20)
(1.12779 0.440445 1.7553e-19)
(1.12283 0.421314 -1.55328e-19)
(1.11838 0.403669 4.16647e-21)
(1.11453 0.387437 7.67254e-20)
(1.11131 0.372718 1.26242e-19)
(1.10878 0.359568 -2.32223e-20)
(1.10755 0.346799 7.56029e-20)
(0.265513 0.170984 -2.25835e-19)
(0.63404 0.414082 -6.41763e-19)
(0.872351 0.564611 -3.92099e-19)
(1.01249 0.639465 -6.90581e-19)
(1.08561 0.662657 7.53057e-19)
(1.11807 0.655223 -5.48228e-19)
(1.12861 0.632251 3.53596e-19)
(1.12875 0.603052 -1.18999e-19)
(1.12472 0.57262 -1.60182e-19)
(1.11949 0.543259 -1.13827e-19)
(1.1143 0.515838 5.89483e-20)
(1.10953 0.490548 9.1099e-20)
(1.10526 0.467312 8.45121e-20)
(1.1014 0.445959 -1.00766e-19)
(1.09789 0.426312 -8.51265e-20)
(1.09475 0.408211 2.72785e-19)
(1.09207 0.39157 -1.8704e-20)
(1.08993 0.376477 -1.21809e-19)
(1.08845 0.363004 1.83546e-21)
(1.08825 0.350138 -3.25444e-20)
(0.261406 0.18239 1.01494e-18)
(0.618659 0.435478 4.81704e-19)
(0.846748 0.587189 4.49309e-19)
(0.979396 0.659382 -2.71614e-19)
(1.04814 0.67894 3.71112e-20)
(1.07889 0.66821 3.93681e-19)
(1.08956 0.642679 5.81039e-20)
(1.0909 0.611613 1.32819e-19)
(1.08859 0.579816 1.5125e-19)
(1.08524 0.549415 2.5617e-20)
(1.08195 0.521154 9.72798e-20)
(1.07902 0.495158 -7.41107e-21)
(1.07651 0.471312 -3.74845e-20)
(1.07433 0.449427 -1.58846e-19)
(1.07239 0.429313 3.53007e-20)
(1.07067 0.410797 4.70569e-21)
(1.06925 0.393779 -3.27071e-21)
(1.06825 0.37832 8.35355e-21)
(1.06787 0.364538 -2.62643e-20)
(1.06876 0.351674 3.87814e-20)
(0.255572 0.192791 -7.36962e-19)
(0.599981 0.454318 -6.41056e-19)
(0.817596 0.606371 3.15749e-19)
(0.943153 0.675636 -3.97255e-19)
(1.00813 0.691642 -2.70408e-20)
(1.03773 0.677854 7.09113e-20)
(1.04897 0.650037 -6.80685e-20)
(1.05181 0.617351 -4.81169e-20)
(1.0514 0.58439 -1.41906e-19)
(1.05007 0.553106 -8.54232e-20)
(1.04875 0.524126 4.96522e-21)
(1.04773 0.497514 -1.08976e-19)
(1.04704 0.473125 3.0339e-20)
(1.04662 0.450759 -3.53417e-20)
(1.04636 0.430215 1.60063e-20)
(1.0462 0.411317 3.30979e-20)
(1.04617 0.393941 9.29399e-21)
(1.0464 0.3781 1.85457e-21)
(1.04724 0.363957 1.50644e-21)
(1.0494 0.35114 7.75289e-21)
(0.248109 0.202019 7.05257e-19)
(0.578296 0.470336 1.55182e-20)
(0.78529 0.621916 -6.06664e-20)
(0.90418 0.688047 7.43165e-20)
(0.965964 0.70063 3.0603e-19)
(0.994928 0.684052 -2.10901e-19)
(1.00711 0.65424 1.26831e-19)
(1.0117 0.62019 -1.53984e-19)
(1.01334 0.586276 7.10839e-20)
(1.01411 0.55427 -4.70839e-20)
(1.01482 0.524695 1.77649e-20)
(1.01573 0.497556 3.90033e-21)
(1.0169 0.472684 -1.0951e-20)
(1.01829 0.449871 -4.43199e-21)
(1.01982 0.428918 -3.39253e-20)
(1.02137 0.409658 2.66504e-20)
(1.0229 0.391945 -3.12692e-20)
(1.02458 0.375674 -2.64546e-20)
(1.02697 0.360988 2.40128e-20)
(1.03081 0.348111 -3.13774e-20)
(0.239141 0.209924 -1.46063e-19)
(0.553922 0.483304 1.53003e-19)
(0.750245 0.633627 1.33406e-19)
(0.862905 0.696467 -2.04405e-19)
(0.922037 0.705801 1.11175e-19)
(0.950824 0.68673 -1.90174e-19)
(0.964273 0.655229 -1.10753e-20)
(0.97081 0.620085 -1.7873e-20)
(0.974614 0.585435 -2.06486e-20)
(0.977527 0.552881 -1.93969e-20)
(0.98027 0.52284 -1.83015e-20)
(0.983097 0.495261 -2.50265e-20)
(0.986088 0.469945 3.47183e-20)
(0.989262 0.446672 -1.29815e-19)
(0.992587 0.42525 1.22499e-19)
(0.995954 0.405543 7.43891e-20)
(0.999257 0.387394 -2.54906e-20)
(1.00275 0.370512 9.82036e-21)
(1.00728 0.354926 1.44789e-19)
(1.01315 0.341826 -5.90707e-20)
(0.228812 0.216372 -4.919e-20)
(0.527204 0.493032 1.28375e-19)
(0.712892 0.641348 -1.63219e-19)
(0.819765 0.700789 2.2217e-19)
(0.876746 0.707081 1.91591e-20)
(0.905761 0.685838 -8.03097e-20)
(0.920746 0.65297 -1.1454e-20)
(0.929386 0.617013 1.21436e-21)
(0.935429 0.581864 2.24019e-21)
(0.940507 0.548957 1.23063e-20)
(0.945258 0.51861 1.68921e-20)
(0.949921 0.490708 -3.65516e-21)
(0.954603 0.465007 5.58469e-20)
(0.959376 0.441245 -6.2583e-20)
(0.964278 0.419197 7.15018e-20)
(0.969241 0.398718 -1.45578e-19)
(0.974198 0.379596 1.73412e-19)
(0.979595 0.361236 -1.51571e-19)
(0.986374 0.343489 -9.76013e-20)
(0.993641 0.329515 1.77687e-19)
(0.217282 0.221252 9.57113e-20)
(0.498505 0.499369 3.0822e-20)
(0.673673 0.64496 4.96423e-20)
(0.7752 0.700937 3.11524e-20)
(0.83049 0.704429 -4.30356e-20)
(0.860087 0.68135 1.38883e-20)
(0.876833 0.647449 -4.40051e-20)
(0.887696 0.610974 2.89138e-20)
(0.89603 0.57558 4.38054e-20)
(0.903275 0.542549 -7.50166e-20)
(0.909996 0.512109 1.03964e-19)
(0.916408 0.484096 -3.6946e-20)
(0.922615 0.458221 8.74987e-20)
(0.928696 0.434169 -1.37852e-19)
(0.934702 0.411642 2.93254e-19)
(0.940599 0.390387 -6.2158e-20)
(0.946416 0.369996 -1.74792e-20)
(0.95283 0.349255 2.06628e-19)
(0.960618 0.326378 -9.92249e-20)
(0.965017 0.303971 5.15329e-20)
(0.204725 0.224473 3.16838e-20)
(0.468201 0.5022 -1.3852e-19)
(0.633035 0.644386 -2.1866e-20)
(0.729651 0.696872 -2.84672e-20)
(0.783669 0.697825 3.88635e-21)
(0.814152 0.673261 -8.59404e-20)
(0.832841 0.638665 1.24669e-19)
(0.84602 0.601971 1.16764e-20)
(0.856681 0.566596 -1.57871e-20)
(0.866098 0.533681 5.47278e-21)
(0.874776 0.503388 5.70377e-20)
(0.882909 0.475527 1.01935e-19)
(0.890582 0.449809 5.9132e-20)
(0.897842 0.425936 -1.44329e-19)
(0.904687 0.40365 -4.60094e-20)
(0.91107 0.382755 -1.59403e-21)
(0.917114 0.362985 3.15305e-20)
(0.923434 0.343648 5.9573e-21)
(0.929999 0.324067 3.30103e-19)
(0.932253 0.306391 -2.29719e-19)
(0.191323 0.225959 3.17526e-21)
(0.436674 0.501446 4.60458e-20)
(0.591425 0.639584 -7.01257e-20)
(0.683554 0.688582 1.48183e-19)
(0.736677 0.687279 6.9053e-20)
(0.768302 0.661585 -1.43018e-19)
(0.789079 0.626635 1.45952e-19)
(0.804641 0.59002 -4.22106e-20)
(0.817649 0.554924 1.41021e-19)
(0.829241 0.522359 7.31041e-20)
(0.839876 0.492426 -3.03786e-19)
(0.849748 0.464915 -3.28734e-20)
(0.858947 0.439535 4.39704e-19)
(0.867524 0.415996 -5.41985e-19)
(0.875469 0.394049 5.0211e-19)
(0.88273 0.373489 1.77839e-19)
(0.889398 0.354028 -6.24429e-19)
(0.895911 0.335085 3.06495e-19)
(0.902112 0.316365 -6.06902e-20)
(0.904511 0.30027 7.31658e-20)
(0.17727 0.225661 -1.41537e-19)
(0.404313 0.497067 -1.54379e-19)
(0.549289 0.630547 1.04755e-19)
(0.637339 0.67609 -1.57759e-19)
(0.689901 0.672824 -4.85605e-19)
(0.722882 0.646358 -2.91096e-20)
(0.745854 0.611389 -1.4992e-19)
(0.763838 0.575149 -1.72024e-21)
(0.779198 0.540592 -3.26935e-19)
(0.792952 0.508611 -3.34189e-19)
(0.805528 0.479263 -2.36179e-19)
(0.817117 0.452326 -1.09729e-20)
(0.827826 0.427518 -5.75243e-19)
(0.837718 0.404568 -1.11716e-20)
(0.846811 0.383254 2.83819e-19)
(0.855089 0.363405 -2.80888e-19)
(0.862652 0.344789 -2.21184e-19)
(0.869859 0.32695 2.13338e-19)
(0.876532 0.309707 -1.51908e-19)
(0.879772 0.294973 2.92065e-20)
(0.162761 0.22355 1.47416e-19)
(0.371503 0.489057 1.13392e-19)
(0.507066 0.617308 -1.2024e-20)
(0.591429 0.659447 -1.26587e-19)
(0.643722 0.654517 2.6342e-19)
(0.678226 0.627631 4.6026e-19)
(0.703467 0.592974 -5.09693e-20)
(0.72389 0.557394 2.25113e-21)
(0.741593 0.523622 8.41271e-20)
(0.757497 0.492446 2.10122e-19)
(0.772007 0.463884 3.10933e-19)
(0.785323 0.437707 -2.57298e-19)
(0.797568 0.41364 2.4747e-19)
(0.808824 0.391428 -9.0258e-20)
(0.81913 0.370859 2.93667e-19)
(0.828499 0.351772 -1.15058e-19)
(0.837059 0.333957 -2.90481e-19)
(0.845166 0.317054 1.71679e-19)
(0.85266 0.300994 -2.49694e-19)
(0.856986 0.287395 -2.82083e-19)
(0.147994 0.219616 9.07184e-20)
(0.338627 0.477447 1.5209e-19)
(0.465183 0.599931 -1.57826e-19)
(0.546231 0.638734 -6.68875e-22)
(0.598506 0.63244 2.7316e-20)
(0.634659 0.605481 2.3917e-19)
(0.662207 0.571452 -3.47584e-19)
(0.68506 0.536807 3.28752e-19)
(0.705078 0.504057 -3.53555e-20)
(0.723101 0.473895 8.93167e-20)
(0.739521 0.446306 1.48935e-19)
(0.754554 0.42106 -2.84609e-19)
(0.768344 0.397891 1.32746e-19)
(0.780995 0.37656 1.27564e-19)
(0.792574 0.356868 4.76802e-20)
(0.803121 0.33866 -2.43231e-19)
(0.81279 0.321744 8.18804e-19)
(0.821925 0.305806 -4.61197e-19)
(0.830359 0.290814 8.32431e-19)
(0.835811 0.278115 -5.44874e-20)
(0.133164 0.213871 7.3544e-20)
(0.306056 0.462297 3.81282e-19)
(0.424053 0.578512 1.41806e-19)
(0.502138 0.614061 2.79771e-19)
(0.554603 0.606701 7.76012e-20)
(0.592493 0.580003 -4.60985e-19)
(0.622354 0.546907 7.1889e-19)
(0.647604 0.513457 3.77163e-19)
(0.66989 0.481953 1.68186e-20)
(0.689986 0.453 4.88173e-19)
(0.708279 0.426556 8.25967e-20)
(0.725002 0.402392 5.06767e-20)
(0.740322 0.380254 2.91111e-19)
(0.754368 0.359911 -1.10273e-19)
(0.767228 0.341177 -1.12937e-19)
(0.778976 0.323901 6.77996e-19)
(0.789784 0.307903 -5.63267e-19)
(0.799987 0.292909 2.18124e-20)
(0.809403 0.278906 7.13609e-19)
(0.815999 0.267003 -8.38025e-22)
(0.118467 0.206344 -8.39063e-19)
(0.274152 0.443704 -1.27872e-19)
(0.384074 0.553181 -1.85349e-19)
(0.459526 0.585566 -1.45366e-19)
(0.51235 0.57743 -3.77148e-19)
(0.552024 0.551314 1.28827e-19)
(0.584174 0.519441 -1.83374e-19)
(0.61176 0.487432 5.76712e-20)
(0.636248 0.457385 -2.65656e-19)
(0.658355 0.429821 -2.4643e-19)
(0.678469 0.404682 5.64952e-20)
(0.69684 0.38174 -4.03458e-19)
(0.71366 0.360752 3.25811e-19)
(0.729079 0.341499 -1.1786e-19)
(0.743211 0.323804 3.63511e-19)
(0.756152 0.30752 -7.84963e-19)
(0.768093 0.292475 -1.49719e-19)
(0.779349 0.278431 -2.81677e-19)
(0.789735 0.265375 -7.52626e-19)
(0.797454 0.254212 -1.21471e-19)
(0.104088 0.197084 1.3459e-19)
(0.243258 0.421789 -1.22042e-20)
(0.345623 0.524096 -2.18879e-19)
(0.418749 0.553413 7.7905e-20)
(0.472065 0.54478 -1.57551e-19)
(0.513532 0.519553 -1.55399e-21)
(0.547915 0.489175 2.12559e-19)
(0.577758 0.45884 -3.19117e-19)
(0.60436 0.430444 1.22833e-19)
(0.628397 0.40444 -7.15886e-20)
(0.65026 0.380751 2.05982e-20)
(0.67022 0.359158 -3.5623e-19)
(0.688488 0.339428 -4.31421e-19)
(0.705238 0.321355 -1.65808e-20)
(0.720604 0.30477 4.79549e-19)
(0.734706 0.28953 2.16022e-20)
(0.747743 0.275477 6.04281e-19)
(0.760011 0.262397 -8.81579e-19)
(0.771334 0.250277 4.67311e-19)
(0.780143 0.239839 8.07372e-19)
(0.0902075 0.186159 -1.25587e-19)
(0.213703 0.396706 6.73255e-20)
(0.309055 0.491444 4.40037e-19)
(0.380141 0.517792 1.09756e-19)
(0.434044 0.508931 -1.46527e-19)
(0.477282 0.484879 1.16486e-19)
(0.513814 0.456252 4.56084e-19)
(0.545807 0.427805 -3.71374e-19)
(0.574419 0.401245 3.42452e-20)
(0.600289 0.376956 -1.35137e-19)
(0.623814 0.354854 4.87451e-19)
(0.645285 0.334726 3.47793e-19)
(0.664934 0.316355 -5.07091e-20)
(0.682954 0.299546 -5.24636e-19)
(0.699499 0.284138 2.86872e-20)
(0.714707 0.269998 -6.43251e-20)
(0.728785 0.256976 3.07472e-19)
(0.742007 0.244885 4.98317e-19)
(0.754216 0.233705 4.3342e-19)
(0.764069 0.224002 -7.2655e-19)
(0.0769973 0.173651 -8.05442e-20)
(0.185796 0.368633 3.42492e-19)
(0.274703 0.45544 -3.31928e-19)
(0.344015 0.478918 4.65594e-19)
(0.398565 0.470081 -2.50784e-19)
(0.443517 0.447472 1.82543e-19)
(0.482088 0.420832 4.58476e-19)
(0.516107 0.394473 -5.52894e-19)
(0.546605 0.369916 2.51721e-19)
(0.574193 0.347488 3.17434e-19)
(0.599278 0.327097 -4.29925e-19)
(0.622167 0.308543 -2.91198e-20)
(0.643114 0.291623 -3.42105e-19)
(0.662327 0.276156 5.50582e-19)
(0.67998 0.261992 -2.96997e-19)
(0.696227 0.249005 3.18554e-19)
(0.711275 0.237057 -5.66811e-20)
(0.725384 0.225986 1.96793e-19)
(0.738421 0.215763 4.51068e-20)
(0.749262 0.20682 -1.14232e-19)
(0.0646176 0.159659 -2.5035e-19)
(0.159822 0.337776 -5.70763e-19)
(0.242876 0.416323 1.50063e-19)
(0.310656 0.437027 -4.81109e-19)
(0.365884 0.42845 -4.56302e-19)
(0.412465 0.407531 -3.28208e-19)
(0.452941 0.383095 2.55171e-19)
(0.488838 0.359006 1.95709e-19)
(0.521081 0.336607 -9.3766e-22)
(0.550259 0.316172 -1.70041e-19)
(0.576787 0.297607 -3.07574e-19)
(0.600989 0.280727 2.76176e-19)
(0.623137 0.265343 -9.52625e-20)
(0.643456 0.251292 -4.67698e-19)
(0.662134 0.238433 3.0306e-19)
(0.679338 0.226651 -2.27625e-19)
(0.69528 0.215821 -9.23024e-20)
(0.710199 0.205804 -2.58421e-19)
(0.723999 0.19656 -2.32533e-19)
(0.735762 0.188411 6.04215e-20)
(0.0532172 0.144298 2.18356e-19)
(0.136044 0.304361 1.12343e-19)
(0.213854 0.374355 1.7271e-19)
(0.280327 0.392378 -5.92649e-19)
(0.336232 0.384277 6.33434e-19)
(0.384329 0.365273 1.48404e-21)
(0.426555 0.343237 4.69172e-21)
(0.464167 0.321584 -3.83824e-19)
(0.498 0.301483 3.57627e-19)
(0.528625 0.28316 -2.49241e-19)
(0.556466 0.266526 7.38685e-20)
(0.581864 0.251409 -3.31165e-19)
(0.605105 0.237641 -1.5707e-19)
(0.626429 0.225072 -7.44579e-20)
(0.646039 0.213577 5.63325e-19)
(0.664114 0.20305 -2.76047e-19)
(0.680862 0.193381 -2.48675e-19)
(0.696511 0.184451 2.54382e-19)
(0.711003 0.176212 -2.08592e-19)
(0.723613 0.168896 1.62609e-19)
(0.0429316 0.127693 4.6981e-19)
(0.1147 0.268638 -2.83914e-19)
(0.187892 0.329821 4.22179e-20)
(0.253262 0.345248 4.95251e-19)
(0.309819 0.337818 1.97082e-19)
(0.359297 0.320931 2.43192e-19)
(0.403095 0.30147 2.41785e-19)
(0.442243 0.2824 5.11421e-19)
(0.477497 0.264721 -1.168e-19)
(0.509414 0.248619 2.78949e-19)
(0.538428 0.234008 4.03946e-19)
(0.564893 0.220736 1.48369e-19)
(0.58911 0.208654 2.67716e-19)
(0.611333 0.19763 9.67766e-20)
(0.631774 0.187552 5.62993e-20)
(0.650623 0.178326 -4.10862e-20)
(0.668087 0.169859 3.28711e-19)
(0.684382 0.162047 2.01737e-19)
(0.69949 0.154841 -1.83736e-19)
(0.712863 0.1484 1.73242e-19)
(0.0338819 0.109986 -3.12868e-19)
(0.0960028 0.230873 3.46583e-20)
(0.165212 0.283022 -9.01268e-20)
(0.229671 0.295934 -2.74143e-19)
(0.286831 0.289346 -1.44256e-19)
(0.337531 0.274752 -2.62809e-19)
(0.38271 0.258021 1.22655e-19)
(0.4232 0.241663 -4.71049e-19)
(0.459693 0.226515 2.77984e-19)
(0.492737 0.212727 -3.83303e-19)
(0.522773 0.200222 -2.37154e-19)
(0.55017 0.188867 -3.13095e-19)
(0.575238 0.178534 7.16353e-20)
(0.598242 0.169109 -7.06829e-20)
(0.619408 0.160496 8.35152e-20)
(0.63893 0.152614 4.46873e-20)
(0.657015 0.145384 8.86728e-20)
(0.673867 0.13872 -7.45802e-19)
(0.689512 0.132573 3.70503e-19)
(0.703557 0.127046 -2.22375e-19)
(0.0261742 0.091326 1.04019e-19)
(0.080135 0.191353 2.09716e-19)
(0.146011 0.234278 -1.36608e-19)
(0.209733 0.244743 3.37549e-19)
(0.267426 0.239147 -5.34673e-20)
(0.319173 0.226997 3.89462e-19)
(0.365524 0.213126 7.55263e-20)
(0.407151 0.19959 -7.85181e-20)
(0.444693 0.187067 2.86106e-19)
(0.47869 0.175674 2.17752e-19)
(0.509591 0.165344 8.0689e-20)
(0.537774 0.155968 1.05681e-19)
(0.563561 0.147438 5.2787e-20)
(0.587226 0.13966 -2.24018e-19)
(0.609002 0.132554 -3.08601e-20)
(0.629093 0.126052 2.32431e-19)
(0.647699 0.120091 -1.58783e-19)
(0.66502 0.114602 -7.8034e-21)
(0.681119 0.109538 -3.30311e-19)
(0.695735 0.104961 6.64837e-19)
(0.019898 0.0718735 2.80009e-19)
(0.0672518 0.150375 -3.35114e-19)
(0.130451 0.183923 1.57409e-19)
(0.193599 0.192001 -2.21707e-19)
(0.251739 0.187519 1.95934e-19)
(0.304341 0.177937 -3.39148e-19)
(0.351646 0.167035 -2.47891e-19)
(0.394195 0.156412 1.84825e-20)
(0.432585 0.14659 -3.36338e-19)
(0.467353 0.137659 -2.09334e-19)
(0.498953 0.129563 -3.61107e-19)
(0.527773 0.122216 -1.16501e-20)
(0.554142 0.115534 -1.39435e-19)
(0.578341 0.109442 3.52899e-19)
(0.600611 0.103878 2.42217e-19)
(0.62116 0.0987876 -8.15788e-20)
(0.640187 0.0941229 -7.35193e-20)
(0.657886 0.0898302 -3.37893e-21)
(0.674351 0.0858686 9.13501e-21)
(0.689434 0.0822743 1.31702e-19)
(0.0151262 0.0517962 -7.00694e-20)
(0.0574785 0.108251 -2.39824e-19)
(0.118664 0.132303 -1.49362e-19)
(0.18139 0.13804 -9.33523e-20)
(0.239879 0.134768 -1.93076e-19)
(0.293133 0.127853 3.30173e-19)
(0.341161 0.120005 -3.56718e-20)
(0.384407 0.112365 -7.92728e-20)
(0.42344 0.105305 3.18055e-21)
(0.458792 0.0988875 2.31516e-19)
(0.490922 0.0930712 -2.1947e-19)
(0.520223 0.0877938 2.14193e-19)
(0.547032 0.0829946 1.00174e-19)
(0.571635 0.0786203 -1.82255e-19)
(0.594278 0.0746253 3.98198e-20)
(0.615174 0.0709716 1.16492e-19)
(0.634518 0.067624 4.02056e-20)
(0.652501 0.064545 -2.83703e-20)
(0.669245 0.061703 -2.43525e-19)
(0.684683 0.0591167 1.93869e-19)
(0.0119139 0.0312682 6.33119e-20)
(0.0509094 0.0653019 7.6687e-20)
(0.11075 0.0797721 2.15405e-20)
(0.173199 0.0832018 -1.61614e-20)
(0.231925 0.0812108 4.62754e-20)
(0.285619 0.0770328 7.05688e-20)
(0.334134 0.0722983 2.67517e-20)
(0.377849 0.0676927 3.25982e-20)
(0.417313 0.0634385 -6.87633e-20)
(0.453056 0.0595718 1.28873e-19)
(0.485541 0.056068 -3.03484e-20)
(0.515165 0.0528891 -2.41818e-21)
(0.542269 0.0499986 3.06428e-20)
(0.567143 0.0473642 3.45098e-20)
(0.590037 0.0449586 -9.23233e-20)
(0.611164 0.0427587 6.08964e-20)
(0.630721 0.0407435 3.98015e-20)
(0.648894 0.0388906 3.39234e-20)
(0.665826 0.0371801 7.23899e-20)
(0.681503 0.0356206 2.98868e-20)
(0.0102979 0.010468 -1.29694e-20)
(0.0476081 0.0218548 2.69417e-20)
(0.106775 0.0266921 -3.76523e-20)
(0.169087 0.0278357 2.36492e-20)
(0.227933 0.0271672 1.3828e-20)
(0.281849 0.0257683 6.17098e-21)
(0.330608 0.0241843 1.45849e-20)
(0.374558 0.0226438 -4.17489e-20)
(0.414239 0.021221 2.6612e-20)
(0.450179 0.019928 9.30782e-21)
(0.482842 0.0187564 -5.02202e-22)
(0.512628 0.0176935 5.66385e-20)
(0.53988 0.016727 -1.72188e-20)
(0.56489 0.0158462 -1.64331e-20)
(0.587909 0.0150419 -1.57232e-20)
(0.609154 0.0143064 2.44411e-21)
(0.628817 0.0136328 -2.08769e-20)
(0.647086 0.0130134 4.0144e-21)
(0.664111 0.0124417 7.81551e-22)
(0.679908 0.0119199 -2.64168e-21)
(0.010297 -0.0104233 8.23462e-21)
(0.0476061 -0.0217587 -4.38141e-20)
(0.106773 -0.0265713 5.21722e-20)
(0.169084 -0.0277068 -3.91763e-20)
(0.22793 -0.0270389 -1.82254e-20)
(0.281846 -0.0256444 5.4557e-20)
(0.330605 -0.0240659 4.5239e-21)
(0.374556 -0.022531 1.23083e-21)
(0.414237 -0.0211136 2.52687e-20)
(0.450176 -0.0198255 1.30094e-20)
(0.482839 -0.0186583 -1.03283e-20)
(0.512626 -0.0175994 -3.59837e-20)
(0.539878 -0.0166367 3.48315e-21)
(0.564888 -0.0157594 -3.07646e-21)
(0.587907 -0.0149583 3.33302e-20)
(0.609151 -0.0142258 -2.00159e-20)
(0.628815 -0.0135549 2.73444e-20)
(0.647084 -0.0129382 -4.09522e-20)
(0.664109 -0.0123689 4.80836e-23)
(0.679906 -0.0118494 -8.58485e-21)
(0.0119111 -0.0312236 -2.73529e-20)
(0.0509036 -0.0652058 1.37863e-19)
(0.110743 -0.0796514 9.27715e-20)
(0.173191 -0.083073 6.12702e-20)
(0.231917 -0.0810826 7.63068e-20)
(0.285611 -0.0769089 -1.86831e-20)
(0.334126 -0.07218 8.42782e-20)
(0.377841 -0.0675801 1.71025e-20)
(0.417306 -0.0633312 -7.67361e-21)
(0.453049 -0.0594694 -5.99194e-20)
(0.485534 -0.05597 6.18711e-20)
(0.515158 -0.0527952 -8.38486e-20)
(0.542262 -0.0499085 6.07636e-20)
(0.567136 -0.0472775 6.93883e-20)
(0.59003 -0.0448751 9.14415e-20)
(0.611158 -0.0426781 -6.02457e-20)
(0.630715 -0.0406657 1.6793e-20)
(0.648889 -0.0388154 6.29777e-20)
(0.66582 -0.0371075 -5.95671e-20)
(0.681497 -0.0355502 4.48976e-20)
(0.0151217 -0.0517516 -2.64081e-19)
(0.0574688 -0.108155 -1.32421e-19)
(0.118652 -0.132182 -1.47161e-19)
(0.181377 -0.137911 -1.15472e-20)
(0.239865 -0.13464 -7.92348e-20)
(0.293119 -0.12773 -9.69665e-20)
(0.341148 -0.119887 1.70981e-19)
(0.384395 -0.112252 8.68111e-20)
(0.423428 -0.105198 1.06397e-19)
(0.45878 -0.0987853 -1.15799e-19)
(0.49091 -0.0929735 8.55787e-20)
(0.520212 -0.0877002 1.03897e-19)
(0.54702 -0.0829048 3.65034e-20)
(0.571624 -0.0785339 -3.46965e-20)
(0.594267 -0.0745421 7.25386e-21)
(0.615163 -0.0708914 -1.50771e-20)
(0.634508 -0.0675466 -1.45335e-19)
(0.652491 -0.0644701 2.27313e-20)
(0.669235 -0.0616306 1.40606e-19)
(0.684673 -0.0590466 -1.88832e-19)
(0.0198917 -0.071829 -8.64727e-20)
(0.0672383 -0.150279 1.28775e-19)
(0.130433 -0.183803 2.96266e-20)
(0.19358 -0.191873 -5.52881e-20)
(0.25172 -0.187391 -1.56331e-19)
(0.304322 -0.177814 -3.34303e-19)
(0.351628 -0.166918 -3.17414e-19)
(0.394177 -0.1563 -2.25083e-20)
(0.432568 -0.146484 -1.83724e-19)
(0.467336 -0.137557 -2.74178e-19)
(0.498937 -0.129466 2.12043e-19)
(0.527757 -0.122123 -3.12624e-19)
(0.554126 -0.115444 6.13325e-20)
(0.578326 -0.109356 -2.00954e-20)
(0.600596 -0.103795 -6.47532e-20)
(0.621146 -0.0987079 -8.1413e-20)
(0.640173 -0.0940459 1.32511e-19)
(0.657872 -0.0897558 1.05418e-19)
(0.674338 -0.0857967 1.80677e-19)
(0.689421 -0.0822046 -2.70581e-19)
(0.026166 -0.0912815 4.70428e-20)
(0.0801175 -0.191257 4.55277e-19)
(0.145988 -0.234158 1.30071e-19)
(0.209709 -0.244616 3.14292e-19)
(0.267401 -0.23902 -1.17356e-19)
(0.319148 -0.226874 1.80163e-19)
(0.365501 -0.213009 -5.61565e-20)
(0.407128 -0.199479 3.63854e-19)
(0.444671 -0.186961 -1.86764e-19)
(0.478668 -0.175573 2.1985e-19)
(0.509569 -0.165248 1.90399e-19)
(0.537753 -0.155875 2.02684e-19)
(0.563541 -0.147349 -1.81094e-19)
(0.587206 -0.139574 1.5469e-19)
(0.608983 -0.132471 -2.15016e-19)
(0.629074 -0.125973 -5.88265e-20)
(0.647681 -0.120015 -1.40391e-19)
(0.665002 -0.114528 -5.94198e-20)
(0.681101 -0.109466 2.35665e-19)
(0.695719 -0.104892 -3.90089e-19)
(0.0338719 -0.109942 -1.875e-19)
(0.0959814 -0.230778 -2.26138e-20)
(0.165185 -0.282902 -7.45712e-20)
(0.229641 -0.295806 -2.62506e-19)
(0.286801 -0.28922 4.51076e-20)
(0.337501 -0.27463 -4.09647e-19)
(0.382681 -0.257904 -1.71227e-19)
(0.423172 -0.241552 -1.31258e-20)
(0.459666 -0.226409 -4.29704e-19)
(0.49271 -0.212627 -1.32622e-19)
(0.522748 -0.200126 -6.03886e-20)
(0.550145 -0.188775 -1.97843e-19)