/*--------------------------------*- C++ -*----------------------------------*\
  =========                 |
  \\      /  F ield         | OpenFOAM: The Open Source CFD Toolbox
   \\    /   O peration     | Website:  https://openfoam.org
    \\  /    A nd           | Version:  6.0
     \\/     M anipulation  |
\*---------------------------------------------------------------------------*/
FoamFile
{
    version     2.0;
    format      ascii;
    class       volVectorField;
    location    "2";
    object      U;
}
// * * * * * * * * * * * * * * * * * * * * * * * * * * * * * * * * * * * * * //

dimensions      [0 1 -1 0 0 0 0];

internalField   nonuniform List<vector> 
2000
(
(-0.0270953 0.0232033 6.01473e-20)
(-0.0954456 0.0372588 5.9863e-20)
(-0.179396 0.0372129 -5.44026e-20)
(-0.248414 0.031045 -1.08341e-19)
(-0.296431 0.0213963 -7.42577e-20)
(-0.322516 0.00923061 9.37451e-20)
(-0.3259 -0.00458399 5.11137e-20)
(-0.307732 -0.0186331 -2.03667e-20)
(-0.272694 -0.0305085 -4.58451e-20)
(-0.227044 -0.0369869 2.41578e-20)
(-0.0294264 0.0659306 -1.52821e-19)
(-0.0930614 0.107493 1.76658e-19)
(-0.167745 0.108558 1.82063e-20)
(-0.227463 0.0915155 -9.27389e-20)
(-0.26696 0.0641507 4.41617e-19)
(-0.285699 0.0293555 -1.89068e-19)
(-0.283314 -0.0104925 -1.95441e-19)
(-0.26056 -0.0515965 2.24657e-19)
(-0.220847 -0.0873128 -1.92032e-19)
(-0.172369 -0.108018 8.11255e-20)
(-0.0333141 0.0985194 2.50789e-20)
(-0.0888268 0.165436 1.01217e-20)
(-0.146705 0.170609 5.22118e-19)
(-0.188972 0.14654 1.87755e-19)
(-0.211946 0.105677 4.72693e-20)
(-0.21574 0.0529144 2.82944e-19)
(-0.20075 -0.00832492 -5.16323e-19)
(-0.16761 -0.0730371 3.69233e-21)
(-0.117606 -0.132106 -2.74819e-19)
(-0.060088 -0.170266 1.95918e-19)
(-0.0375451 0.116884 -5.01858e-20)
(-0.0837684 0.204605 2.48529e-19)
(-0.120616 0.217054 -6.70705e-19)
(-0.139926 0.190772 -8.28773e-20)
(-0.140313 0.14182 -4.7981e-19)
(-0.122647 0.07725 4.95855e-19)
(-0.0881394 0.00134588 -5.0937e-19)
(-0.0380837 -0.0808302 3.4062e-19)
(0.0276451 -0.160237 1.35068e-19)
(0.103556 -0.218824 -9.08049e-20)
(-0.0409652 0.12037 -5.87005e-19)
(-0.0790519 0.221459 4.0879e-21)
(-0.0947082 0.242592 8.53788e-19)
(-0.0893057 0.21813 2.68387e-19)
(-0.0642997 0.165971 -7.8036e-19)
(-0.0214297 0.0951569 4.78149e-19)
(0.03756 0.0110693 5.343e-19)
(0.110379 -0.0812327 -4.57046e-19)
(0.195487 -0.174443 3.13906e-19)
(0.298471 -0.252695 6.18745e-20)
(-0.0429411 0.11176 8.02474e-20)
(-0.0754229 0.216546 1.42275e-20)
(-0.0730367 0.244699 -1.08142e-18)
(-0.0445413 0.223916 -6.0031e-19)
(0.00576208 0.171788 7.07612e-19)
(0.0751944 0.0985567 -8.07725e-19)
(0.161584 0.0107752 9.24987e-19)
(0.261836 -0.0856306 -8.06623e-20)
(0.368566 -0.184455 -2.56128e-19)
(0.502642 -0.27582 -5.00085e-19)
(-0.0435918 0.0960367 -1.71912e-19)
(-0.072835 0.194502 -2.54495e-19)
(-0.0566557 0.224986 -3.07823e-19)
(-0.00795352 0.206978 6.19228e-19)
(0.0668961 0.156038 1.15622e-18)
(0.164359 0.0825641 -2.24767e-19)
(0.281138 -0.00594378 -5.80969e-19)
(0.412417 -0.102035 1.7109e-19)
(0.542256 -0.1989 -1.00759e-18)
(0.704019 -0.292424 8.14562e-19)
(-0.0436061 0.0784246 1.04285e-18)
(-0.0702955 0.162437 -4.55911e-19)
(-0.0427441 0.18902 8.68428e-19)
(0.0251987 0.170746 -1.36904e-18)
(0.126199 0.12042 -6.53646e-19)
(0.255427 0.0479656 -8.92524e-19)
(0.406305 -0.0382937 2.41888e-19)
(0.569221 -0.129671 -7.06438e-19)
(0.720691 -0.217935 1.4914e-18)
(0.897181 -0.302325 2.79342e-19)
(-0.0436428 0.0626528 5.88632e-20)
(-0.0656691 0.127367 7.41946e-19)
(-0.0247926 0.144466 1.39153e-18)
(0.0660895 0.122529 4.28171e-19)
(0.198776 0.0720504 1.2148e-18)
(0.364662 0.00251231 6.9848e-20)
(0.550095 -0.0771334 -1.97466e-20)
(0.737618 -0.158494 4.59829e-19)
(0.901927 -0.232135 3.70578e-19)
(1.07168 -0.301218 -8.89292e-19)
(-0.043654 0.0501817 -5.84459e-19)
(-0.0556005 0.0940929 -8.10428e-19)
(0.00589948 0.0986014 -1.13715e-18)
(0.128448 0.0713904 1.11899e-20)
(0.300408 0.02186 -5.55544e-19)
(0.504477 -0.0407905 8.50738e-19)
(0.716462 -0.108028 -2.3039e-18)
(0.911818 -0.173806 1.00667e-18)
(1.07046 -0.228319 3.73808e-19)
(1.20833 -0.285259 8.06414e-19)
(-0.0426209 0.0405138 2.93189e-19)
(-0.0360269 0.0645281 -9.07823e-19)
(0.057505 0.0565862 7.70858e-19)
(0.222652 0.0256319 -2.92e-19)
(0.438649 -0.0191222 3.04512e-19)
(0.674748 -0.0694645 6.53401e-19)
(0.897283 -0.119134 -8.4566e-19)
(1.08074 -0.165127 1.07134e-19)
(1.21196 -0.200635 -3.66461e-19)
(1.29156 -0.255237 3.32952e-19)
(-0.0388328 0.0321926 4.00885e-19)
(-0.0030419 0.0385104 -8.13186e-19)
(0.135348 0.0213281 1.06418e-18)
(0.351606 -0.0086291 -6.38584e-19)
(0.608593 -0.0431141 -2.28174e-19)
(0.86172 -0.0768774 1.28475e-19)
(1.07529 -0.10731 8.24824e-20)
(1.23195 -0.133109 8.1181e-19)
(1.32786 -0.152633 2.27257e-19)
(1.38071 -0.175142 5.34175e-19)
(-0.0303774 0.0238875 -3.53692e-19)
(0.04662 0.0154419 1.04431e-18)
(0.241318 -0.00516754 -8.45892e-19)
(0.51043 -0.0271981 -9.62357e-19)
(0.795655 -0.0463675 1.28444e-18)
(1.04535 -0.0623319 -9.2312e-19)
(1.23204 -0.0758606 2.3534e-19)
(1.35139 -0.0873975 -1.17357e-18)
(1.41278 -0.095987 8.34348e-19)
(1.43425 -0.107729 1.21242e-20)
(-0.015482 0.0150635 -4.60112e-19)
(0.115465 -0.00418264 -3.74918e-19)
(0.373943 -0.0202869 -7.77869e-19)
(0.688147 -0.0273454 8.91428e-19)
(0.98157 -0.0288845 -3.89751e-20)
(1.20802 -0.0293443 5.20358e-19)
(1.35626 -0.0309767 8.50581e-19)
(1.43653 -0.0337219 -2.51747e-19)
(1.4663 -0.0367942 -6.90848e-19)
(1.46514 -0.0418653 1.04397e-18)
(0.00736181 0.00611769 -2.40907e-19)
(0.204877 -0.018082 -2.43216e-19)
(0.527845 -0.0206407 4.27545e-19)
(0.870172 -0.00818339 -7.4305e-19)
(1.15006 0.00637674 1.26603e-19)
(1.33918 0.0165274 1.03532e-19)
(1.44528 0.0211354 1.77744e-20)
(1.48993 0.0216809 -3.13927e-20)
(1.49504 0.0196347 -1.08691e-19)
(1.47886 0.0167605 -8.63952e-19)
(0.0393518 -0.00179087 9.92318e-19)
(0.314243 -0.0225004 -5.88179e-19)
(0.693479 -0.00342734 7.1257e-21)
(1.04181 0.0288153 -8.07952e-19)
(1.29047 0.0547956 -2.57419e-19)
(1.43589 0.0698517 2.47903e-19)
(1.50246 0.0757771 1.49147e-19)
(1.51846 0.07594 -5.33834e-19)
(1.50618 0.0729694 3.73842e-19)
(1.48074 0.0699082 -3.76647e-19)
(0.0812437 -0.00694656 4.37737e-19)
(0.439931 -0.0132899 -3.41652e-19)
(0.858715 0.0320763 1.2983e-18)
(1.19168 0.0802631 1.2268e-19)
(1.39853 0.11159 2.67669e-19)
(1.50061 0.126414 1.06202e-18)
(1.53392 0.130073 -1.69527e-19)
(1.52883 0.127539 1.04299e-19)
(1.50538 0.122184 2.73759e-20)
(1.47541 0.117925 -5.16553e-20)
(0.133072 -0.00725616 3.17124e-19)
(0.574982 0.0126616 6.31678e-19)
(1.01188 0.0842217 -6.34402e-19)
(1.31331 0.142015 -1.91546e-19)
(1.47482 0.172798 -2.16338e-19)
(1.53831 0.183492 3.20661e-19)
(1.5459 0.182636 -1.46711e-19)
(1.52656 0.176234 3.74486e-19)
(1.49673 0.168216 1.08697e-19)
(1.46476 0.161818 -1.44078e-19)
(0.193789 -0.000502785 -3.45131e-19)
(0.710166 0.0563107 2.63173e-19)
(1.14417 0.149773 -5.18257e-19)
(1.4046 0.210136 2.04336e-19)
(1.52256 0.235534 -1.95706e-19)
(1.55436 0.239498 -2.19027e-19)
(1.54349 0.232878 -1.55686e-19)
(1.51531 0.222065 1.64376e-19)
(1.48229 0.211006 -2.83294e-19)
(1.45009 0.201853 1.38535e-19)
(0.261004 0.0152698 -1.26755e-19)
(0.836113 0.11624 -2.08715e-19)
(1.25037 0.224834 9.39899e-20)
(1.46642 0.281271 7.8466e-21)
(1.54591 0.297767 6.44751e-20)
(1.5534 0.293514 7.70471e-20)
(1.53028 0.280593 6.27722e-20)
(1.49728 0.265216 -8.15381e-20)
(1.46316 0.251031 6.32706e-20)
(1.43169 0.238529 -7.7213e-20)
(0.331033 0.0413062 -7.96774e-20)
(0.945111 0.189271 -2.75178e-20)
(1.32828 0.305471 8.50375e-20)
(1.50116 0.352704 -3.88503e-20)
(1.54886 0.358057 8.26417e-20)
(1.53899 0.344927 -9.96699e-20)
(1.50859 0.325584 2.33683e-20)
(1.47359 0.305625 2.20715e-20)
(1.43972 0.288059 -7.59023e-21)
(1.40969 0.2717 2.44978e-20)
(0.399308 0.0777696 -9.3362e-20)
(1.03191 0.271311 -3.25237e-19)
(1.37785 0.387986 -1.87157e-20)
(1.51178 0.422214 4.5006e-21)
(1.53483 0.415289 -2.92898e-19)
(1.51367 0.393214 3.6972e-20)
(1.47982 0.367599 -2.94084e-20)
(1.44481 0.343157 -6.45629e-20)
(1.41215 0.322079 1.26626e-19)
(1.38412 0.301617 -1.79996e-19)
(0.461067 0.123597 -5.13189e-20)
(1.09361 0.357986 6.89811e-19)
(1.40043 0.469007 7.24481e-20)
(1.50131 0.487867 -4.84956e-19)
(1.50661 0.468403 -4.83883e-20)
(1.47919 0.437709 -3.64367e-19)
(1.4448 0.406132 2.48296e-19)
(1.41123 0.377353 -8.42365e-20)
(1.38054 0.352642 1.47812e-19)
(1.35506 0.328006 -8.51135e-20)
(0.51206 0.176612 -2.9438e-19)
(1.12926 0.445028 2.40883e-19)
(1.39814 0.545553 -1.38585e-19)
(1.47262 0.547961 9.429e-19)
(1.4664 0.516365 3.98726e-19)
(1.43682 0.477655 -8.52434e-20)
(1.4041 0.440564 2.79328e-19)
(1.37312 0.407702 -1.71399e-19)
(1.34512 0.379434 -4.46743e-20)
(1.32269 0.350927 2.46174e-19)
(0.549064 0.233811 -5.26605e-19)
(1.13928 0.528418 5.76865e-19)
(1.37357 0.614983 -9.32988e-19)
(1.42835 0.600932 1.28976e-19)
(1.41606 0.558112 2.19189e-19)
(1.38761 0.51219 -3.15148e-19)
(1.35831 0.47013 -3.5853e-19)
(1.33089 0.433511 1.5975e-19)
(1.30625 0.401906 -1.8506e-19)
(1.28732 0.370044 1.93118e-19)
(0.570115 0.291718 -1.32609e-19)
(1.1252 0.604456 -5.76364e-19)
(1.32949 0.674944 2.84194e-19)
(1.37095 0.645283 4.12248e-19)
(1.35723 0.592531 -2.23909e-19)
(1.33258 0.5404 -1.51661e-19)
(1.30815 0.494066 -1.13894e-19)
(1.28524 0.45414 -4.84081e-20)
(1.26471 0.419611 4.6623e-22)
(1.24986 0.385202 1.13923e-19)
(0.574522 0.346737 1.5578e-19)
(1.08927 0.669828 -6.18372e-19)
(1.26878 0.723338 8.01506e-19)
(1.30268 0.67955 -4.31398e-19)
(1.29138 0.618405 1.24153e-19)
(1.27271 0.56124 -1.53885e-19)
(1.25454 0.51151 1.52807e-19)
(1.23727 0.468872 6.82584e-20)
(1.22193 0.431946 7.01789e-20)
(1.21195 0.395935 -9.19726e-20)
(0.562757 0.395483 -4.652e-19)
(1.03429 0.721714 6.6932e-19)
(1.1943 0.758387 -3.1377e-20)
(1.22557 0.702339 -1.50297e-19)
(1.21973 0.63436 -1.65968e-19)
(1.20875 0.573286 2.86821e-20)
(1.19816 0.521062 -7.40193e-20)
(1.18807 0.476434 3.94218e-22)
(1.17955 0.437906 -8.00143e-21)
(1.17541 0.401707 1.86105e-20)
(0.536284 0.435049 5.68446e-19)
(0.96353 0.757921 -1.86411e-19)
(1.10896 0.778802 -1.11096e-19)
(1.14158 0.712654 2.66652e-19)
(1.14326 0.639258 -1.38984e-19)
(1.14095 0.57493 -5.36025e-22)
(1.13887 0.520396 -8.68461e-20)
(1.1375 0.473795 -4.39463e-20)
(1.13753 0.434318 -5.89347e-20)
(1.13943 0.400365 2.36516e-20)
(0.497352 0.463152 -3.93161e-19)
(0.880625 0.776913 1.73728e-19)
(1.01584 0.783868 -8.75593e-20)
(1.05278 0.710253 -5.0907e-20)
(1.06311 0.633133 6.41105e-21)
(1.06954 0.566092 1.99711e-19)
(1.07587 0.508501 -6.06791e-20)
(1.08351 0.457754 6.0264e-20)
(1.09193 0.41466 9.47568e-20)
(1.09704 0.384117 2.72868e-19)
(0.448744 0.478154 1.20584e-20)
(0.789451 0.777691 -3.96846e-20)
(0.918176 0.773177 3.69267e-19)
(0.961643 0.695272 -7.39269e-20)
(0.981226 0.61709 4.3672e-19)
(0.99594 0.549549 2.72429e-19)
(1.00954 0.490488 -6.11249e-19)
(1.0245 0.435326 9.13455e-19)
(1.03874 0.381693 -1.89629e-19)
(1.03695 0.337273 3.26333e-19)
(0.393523 0.479044 -6.20864e-20)
(0.693942 0.759742 -1.63373e-19)
(0.819281 0.746374 1.72183e-19)
(0.870977 0.667235 -2.99632e-19)
(0.900484 0.590694 -9.76903e-19)
(0.923695 0.52591 -3.8894e-19)
(0.943985 0.470858 -3.23647e-19)
(0.963137 0.422695 1.6053e-19)
(0.976787 0.381608 1.2627e-18)
(0.972708 0.351666 -2.25486e-19)
(0.334818 0.465452 1.22746e-19)
(0.597893 0.723182 -4.2899e-19)
(0.722236 0.703608 1.00675e-19)
(0.783247 0.625835 -6.89463e-19)
(0.82332 0.552174 1.44295e-18)
(0.855997 0.489722 -1.64131e-19)
(0.884152 0.43592 7.31853e-19)
(0.90893 0.388064 -9.91543e-19)
(0.926587 0.347364 3.06101e-19)
(0.928572 0.320494 4.11972e-20)
(0.275715 0.437605 7.36254e-20)
(0.504952 0.668726 4.79839e-19)
(0.629945 0.645742 -1.5203e-18)
(0.70037 0.572508 6.92145e-19)
(0.750242 0.50475 2.35415e-21)
(0.791266 0.448197 -2.19497e-19)
(0.82633 0.400406 2.64877e-19)
(0.856638 0.358696 -2.50247e-19)
(0.879319 0.322902 -8.24869e-19)
(0.888247 0.296841 -1.99412e-19)
(0.219126 0.396221 3.22077e-19)
(0.418581 0.59743 3.34779e-19)
(0.545492 0.573323 1.32405e-18)
(0.6254 0.506686 -7.05367e-19)
(0.684804 0.445766 1.38113e-18)
(0.733769 0.394963 -2.84286e-19)
(0.775234 0.352147 -2.8284e-19)
(0.810846 0.315356 3.18854e-19)
(0.838747 0.284553 2.02079e-19)
(0.854317 0.262173 6.35863e-19)
(0.167637 0.342543 -3.72395e-19)
(0.341641 0.511091 9.57687e-20)
(0.47094 0.488209 2.84282e-20)
(0.559466 0.43068 7.31374e-19)
(0.627356 0.378786 -1.72923e-18)
(0.683443 0.335803 2.84186e-19)
(0.7307 0.299734 5.814e-19)
(0.771056 0.268768 -6.77222e-19)
(0.803628 0.242587 2.3e-19)
(0.825347 0.222866 -9.26892e-19)
(0.123569 0.278196 8.1547e-20)
(0.276878 0.41173 3.76828e-19)
(0.408715 0.391852 1.42552e-19)
(0.504694 0.345057 1.7681e-19)
(0.579738 0.303173 3.16794e-19)
(0.641799 0.26861 8.83174e-19)
(0.693956 0.239786 -1.03136e-18)
(0.738389 0.215253 -5.51095e-19)
(0.775023 0.194523 8.95376e-20)
(0.802055 0.178528 6.05016e-19)
(0.0887976 0.205166 -4.94975e-19)
(0.226368 0.301875 -4.90409e-20)
(0.360461 0.286577 -3.95192e-19)
(0.462368 0.252104 5.19267e-20)
(0.543025 0.221438 -3.00562e-19)
(0.609734 0.196191 -3.24761e-19)
(0.665674 0.175181 -4.57226e-19)
(0.713261 0.157344 1.1788e-18)
(0.75314 0.142233 1.93719e-19)
(0.784474 0.130376 -2.59113e-19)
(0.0647865 0.125723 2.66977e-19)
(0.191761 0.184279 3.02497e-19)
(0.327522 0.174644 1.11283e-19)
(0.433534 0.15352 -5.69144e-19)
(0.51805 0.134805 -2.49182e-19)
(0.587956 0.119429 -5.14488e-20)
(0.646491 0.106666 9.47298e-20)
(0.696244 0.0958571 7.28807e-20)
(0.738388 0.0866846 -5.3483e-19)
(0.772739 0.0794062 2.68222e-19)
(0.0525303 0.0423513 -1.40893e-19)
(0.174179 0.0619597 -1.35546e-19)
(0.310825 0.0586727 1.02144e-19)
(0.418937 0.0515587 8.50267e-20)
(0.505416 0.0452677 8.24168e-20)
(0.576946 0.0401037 1.18009e-19)
(0.636799 0.0358218 -7.03381e-21)
(0.687658 0.0322005 -1.41367e-19)
(0.730974 0.0291256 1.28047e-19)
(0.766883 0.0266741 -1.67815e-19)
(0.0525301 -0.0423456 -1.42545e-19)
(0.174178 -0.0619511 -1.30003e-19)
(0.310825 -0.0586642 1.12584e-19)
(0.418936 -0.051551 2.0584e-19)
(0.505416 -0.0452607 1.28062e-19)
(0.576945 -0.0400974 -1.60586e-19)
(0.636799 -0.0358162 -8.17496e-20)
(0.687658 -0.0321954 3.53829e-20)
(0.730974 -0.0291209 7.47797e-20)
(0.766883 -0.0266698 -3.86744e-20)
(0.0647859 -0.125718 3.38843e-19)
(0.19176 -0.18427 -3.61315e-19)
(0.327521 -0.174636 -2.88076e-20)
(0.433533 -0.153513 1.77787e-19)
(0.518049 -0.134798 -7.55937e-19)
(0.587955 -0.119423 3.05631e-19)
(0.646491 -0.10666 2.9797e-19)
(0.696244 -0.095852 -3.37996e-19)
(0.738388 -0.0866799 3.09649e-19)
(0.772739 -0.0794019 -1.19812e-19)
(0.0887967 -0.20516 -5.67215e-20)
(0.226367 -0.301866 -1.80601e-21)
(0.36046 -0.286569 -9.17094e-19)
(0.462367 -0.252096 -2.69951e-19)
(0.543023 -0.221431 -2.20686e-20)
(0.609733 -0.196185 -3.98265e-19)
(0.665673 -0.175175 7.0883e-19)
(0.71326 -0.157339 -2.59768e-20)
(0.753139 -0.142229 3.7479e-19)
(0.784473 -0.130372 -2.83982e-19)
(0.123567 -0.278191 9.48112e-20)
(0.276876 -0.411722 -3.75787e-19)
(0.408713 -0.391844 1.10036e-18)
(0.504692 -0.34505 1.48513e-19)
(0.579737 -0.303166 6.78427e-19)
(0.641797 -0.268604 -6.25198e-19)
(0.693955 -0.23978 6.27493e-19)
(0.738387 -0.215248 -4.36957e-19)
(0.775022 -0.194519 -1.86281e-19)
(0.802054 -0.178524 1.34625e-19)
(0.167635 -0.342537 8.12327e-19)
(0.341639 -0.511083 1.87646e-20)
(0.470938 -0.488201 -1.13266e-18)
(0.559464 -0.430673 -3.09426e-19)
(0.627354 -0.378779 9.83973e-19)
(0.683441 -0.335797 -5.4675e-19)
(0.730698 -0.299728 -5.98352e-19)
(0.771054 -0.268763 5.20604e-19)
(0.803626 -0.242583 -3.3959e-19)
(0.825346 -0.222862 -6.42422e-20)
(0.219124 -0.396216 -1.24217e-19)
(0.418577 -0.597422 -7.94969e-21)
(0.545489 -0.573316 1.18635e-18)
(0.625397 -0.506679 6.56089e-19)
(0.684802 -0.445759 -7.33418e-19)
(0.733766 -0.394957 8.52088e-19)
(0.775232 -0.352142 -8.69334e-19)
(0.810844 -0.315352 8.74299e-20)
(0.838745 -0.284549 2.42896e-19)
(0.854315 -0.262169 4.83706e-19)
(0.275713 -0.437601 1.05681e-19)
(0.504949 -0.668719 1.48275e-19)
(0.629941 -0.645734 1.70299e-19)
(0.700366 -0.572501 -5.8219e-19)
(0.750239 -0.504744 -9.97103e-19)
(0.791263 -0.448191 2.03687e-19)
(0.826328 -0.400401 5.63887e-19)
(0.856636 -0.358691 -1.55044e-19)
(0.879317 -0.322898 8.89065e-19)
(0.888246 -0.296837 -7.56449e-19)
(0.334816 -0.465448 -5.65092e-19)
(0.597889 -0.723175 1.33269e-19)
(0.722232 -0.703601 -5.92e-19)
(0.783243 -0.625828 9.36617e-19)
(0.823317 -0.552168 4.6121e-19)
(0.855993 -0.489717 6.17058e-19)
(0.884149 -0.435915 -1.32788e-19)
(0.908927 -0.388059 5.2005e-19)
(0.926584 -0.34736 -1.06556e-18)
(0.92857 -0.32049 -2.42654e-19)
(0.39352 -0.479041 1.21974e-19)
(0.693937 -0.759735 -2.55494e-19)
(0.819276 -0.746367 -4.76998e-19)
(0.870973 -0.667229 -2.61446e-19)
(0.90048 -0.590688 -6.75347e-19)
(0.923691 -0.525905 -7.26879e-20)
(0.943982 -0.470853 5.93258e-20)
(0.963134 -0.42269 -2.30217e-19)
(0.976784 -0.381604 -2.60865e-19)
(0.972705 -0.351663 5.87971e-19)
(0.448741 -0.478151 2.09538e-20)
(0.789446 -0.777685 7.51976e-20)
(0.918171 -0.773171 3.67262e-19)
(0.961638 -0.695266 5.23152e-20)
(0.981222 -0.617084 2.71898e-19)
(0.995936 -0.549544 -3.41955e-19)
(1.00954 -0.490484 1.02498e-18)
(1.02449 -0.435321 -4.35494e-19)
(1.03874 -0.381689 -2.13953e-19)
(1.03694 -0.33727 -5.56926e-19)
(0.497349 -0.463149 3.10545e-22)
(0.88062 -0.776907 -1.52155e-19)
(1.01583 -0.783863 5.15833e-20)
(1.05277 -0.710248 3.07575e-20)
(1.06311 -0.633128 -4.47511e-20)
(1.06954 -0.566087 -1.50238e-19)
(1.07586 -0.508497 1.89044e-19)
(1.08351 -0.45775 -7.62923e-20)
(1.09193 -0.414657 8.97173e-20)
(1.09704 -0.384114 -1.5928e-19)
(0.536281 -0.435046 1.88265e-19)
(0.963525 -0.757916 -3.87113e-19)
(1.10896 -0.778797 2.906e-19)
(1.14157 -0.712649 -3.36211e-20)
(1.14325 -0.639254 -6.39424e-20)
(1.14095 -0.574926 2.53515e-20)
(1.13887 -0.520392 -2.31032e-21)
(1.1375 -0.473791 -1.08775e-19)
(1.13752 -0.434314 -6.48065e-20)
(1.13943 -0.400362 -1.16555e-19)
(0.562753 -0.39548 -2.57768e-19)
(1.03428 -0.721709 6.79534e-19)
(1.19429 -0.758382 -3.52928e-19)
(1.22557 -0.702335 -1.88949e-19)
(1.21972 -0.634356 2.19274e-19)
(1.20875 -0.573282 -6.9624e-20)
(1.19816 -0.521058 2.5659e-20)
(1.18807 -0.47643 2.52366e-21)
(1.17955 -0.437903 -1.71991e-20)
(1.17541 -0.401704 2.73997e-21)
(0.574518 -0.346734 -4.31462e-19)
(1.08926 -0.669824 -2.67559e-19)
(1.26877 -0.723335 -4.41304e-19)
(1.30267 -0.679547 4.86455e-19)
(1.29138 -0.618402 -1.9005e-20)
(1.27271 -0.561238 1.44144e-19)
(1.25454 -0.511508 1.79985e-19)
(1.23727 -0.468869 -5.81237e-20)
(1.22192 -0.431944 -7.37123e-20)
(1.21194 -0.395934 1.03448e-19)
(0.57011 -0.291716 -2.52962e-19)
(1.1252 -0.604453 -2.60398e-19)
(1.32948 -0.674941 3.13561e-19)
(1.37094 -0.645281 -4.47742e-19)
(1.35722 -0.592529 8.38495e-20)
(1.33257 -0.540398 3.90254e-20)
(1.30815 -0.494064 5.07827e-20)
(1.28524 -0.454139 -3.32291e-20)
(1.2647 -0.41961 -4.57744e-20)
(1.24985 -0.385201 -2.15143e-19)
(0.549059 -0.23381 1.03091e-18)
(1.13928 -0.528415 -6.06965e-19)
(1.37356 -0.614981 1.34657e-20)
(1.42834 -0.600931 -6.08947e-19)
(1.41605 -0.558111 -1.44812e-19)
(1.3876 -0.51219 1.27776e-19)
(1.3583 -0.47013 7.82824e-20)
(1.33089 -0.43351 -2.57983e-19)
(1.30624 -0.401906 1.30356e-19)
(1.28732 -0.370045 -1.63874e-19)
(0.512055 -0.17661 4.72135e-19)
(1.12925 -0.445026 -3.48676e-19)
(1.39813 -0.545552 1.17466e-18)
(1.47261 -0.547961 6.67346e-20)
(1.46639 -0.516366 2.09351e-19)
(1.43682 -0.477656 6.77802e-19)
(1.4041 -0.440564 -1.32309e-19)
(1.37312 -0.407703 3.51297e-20)
(1.34511 -0.379435 -9.50593e-21)
(1.32268 -0.350928 -2.5747e-20)
(0.461061 -0.123596 3.39109e-19)
(1.0936 -0.357984 6.56434e-19)
(1.40042 -0.469006 -5.70646e-19)
(1.5013 -0.487867 -1.33374e-19)
(1.5066 -0.468404 -1.35986e-19)
(1.47918 -0.43771 2.60608e-19)
(1.44479 -0.406134 -1.12618e-19)
(1.41122 -0.377356 2.57548e-19)
(1.38054 -0.352644 6.177e-20)
(1.35505 -0.328008 -8.64621e-20)
(0.399302 -0.0777688 -3.66116e-19)
(1.0319 -0.271309 2.65492e-19)
(1.37784 -0.387985 -5.07875e-19)
(1.51177 -0.422215 1.87221e-19)
(1.53482 -0.415291 -1.69645e-19)
(1.51366 -0.393216 -1.81389e-19)
(1.47982 -0.367601 -1.27123e-19)
(1.4448 -0.34316 1.34122e-19)
(1.41214 -0.322082 -2.22276e-19)
(1.38412 -0.301621 1.11789e-19)
(0.331027 -0.0413056 -1.30753e-19)
(0.9451 -0.18927 -2.11579e-19)
(1.32827 -0.30547 9.38056e-20)
(1.50115 -0.352704 8.93681e-21)
(1.54885 -0.358058 5.92826e-20)
(1.53898 -0.34493 7.38928e-20)
(1.50859 -0.325588 5.59552e-20)
(1.47358 -0.305629 -7.43227e-20)
(1.43972 -0.288063 5.64137e-20)
(1.40968 -0.271704 -6.95998e-20)
(0.260999 -0.0152694 -7.66881e-20)
(0.836101 -0.116238 -2.556e-20)
(1.25035 -0.224834 8.76401e-20)
(1.46641 -0.281273 -3.94037e-20)
(1.54589 -0.29777 8.9911e-20)
(1.55339 -0.293519 -1.05746e-19)
(1.53027 -0.280598 2.72175e-20)
(1.49727 -0.265222 2.1297e-20)
(1.46315 -0.251036 -6.12981e-21)
(1.43168 -0.238534 2.41997e-20)
(0.193786 0.000502865 -8.37547e-20)
(0.710154 -0.05631 -3.17857e-19)
(1.14415 -0.149774 -2.43146e-20)
(1.40459 -0.210139 8.46612e-21)
(1.52255 -0.235538 -3.40893e-19)
(1.55435 -0.239503 3.47577e-20)
(1.54348 -0.232883 -3.47018e-20)
(1.5153 -0.22207 -8.08658e-20)
(1.48228 -0.211012 1.61178e-19)
(1.45008 -0.201858 -2.28457e-19)
(0.13307 0.00725612 -4.41047e-20)
(0.574971 -0.0126617 6.71582e-19)
(1.01187 -0.084222 8.56837e-20)
(1.31329 -0.142017 -5.40177e-19)
(1.4748 -0.172801 -7.22247e-20)
(1.5383 -0.183496 -5.00589e-19)
(1.54589 -0.18264 3.55978e-19)
(1.52655 -0.176239 -1.25427e-19)
(1.49672 -0.168221 2.32096e-19)
(1.46475 -0.161823 -1.44402e-19)
(0.0812426 0.00694665 -2.72861e-19)
(0.439922 0.0132897 2.59795e-19)
(0.858699 -0.0320768 -1.72147e-19)
(1.19166 -0.0802647 1.16286e-18)
(1.39851 -0.111593 5.59706e-19)
(1.50059 -0.126419 -1.27676e-19)
(1.53391 -0.130078 4.83378e-19)
(1.52882 -0.127545 -2.82205e-19)
(1.50537 -0.122191 -6.57842e-20)
(1.4754 -0.117931 4.5524e-19)
(0.0393517 0.00179115 -5.03431e-19)
(0.314236 0.0225001 6.1147e-19)
(0.693464 0.00342668 -1.13438e-18)
(1.04179 -0.028817 1.84093e-19)
(1.29046 -0.0547988 4.23851e-19)
(1.43587 -0.0698564 -5.09887e-19)
(1.50245 -0.0757829 -7.9661e-19)
(1.51845 -0.0759466 4.02269e-19)
(1.50618 -0.0729763 -4.43071e-19)
(1.48073 -0.069915 5.33881e-19)
(0.00736257 -0.00611712 -1.22843e-19)
(0.204872 0.018082 -6.27724e-19)
(0.527832 0.0206399 2.93349e-19)
(0.870152 0.0081815 7.01409e-19)
(1.15004 -0.00638022 -3.61823e-19)
(1.33916 -0.0165326 -3.28175e-19)
(1.44527 -0.021142 -5.0445e-19)
(1.48992 -0.0216885 -1.79312e-19)
(1.49503 -0.0196427 -1.18577e-20)
(1.47886 -0.0167686 5.07212e-19)
(-0.0154806 -0.0150626 2.00851e-19)
(0.115463 0.00418311 -8.3379e-19)
(0.373932 0.0202863 1.38107e-18)
(0.688128 0.0273434 -7.28381e-19)
(0.981547 0.0288807 4.54712e-19)
(1.208 0.0293386 -5.3022e-19)
(1.35624 0.0309692 5.60272e-19)
(1.43651 0.033713 4.42437e-19)
(1.46629 0.0367847 7.63005e-19)
(1.46513 0.0418552 -9.53241e-19)
(-0.0303755 -0.0238863 -6.19659e-19)
(0.0466198 -0.0154408 1.05899e-18)
(0.241311 0.00516738 1.95613e-20)
(0.510414 0.0271962 -3.43421e-19)
(0.795633 0.0463636 -1.71156e-19)
(1.04532 0.0623256 1.2393e-19)
(1.23202 0.075852 -9.13771e-19)
(1.35137 0.0873869 5.84818e-19)
(1.41277 0.0959756 -7.43158e-19)
(1.43424 0.107717 -2.03639e-19)
(-0.0388308 -0.0321912 1.07912e-18)
(-0.00304058 -0.0385087 -2.79932e-19)
(0.135344 -0.0213276 -5.12956e-19)
(0.351594 0.0086277 1.33628e-18)
(0.608573 0.0431102 -1.27073e-18)
(0.861693 0.0768706 6.82671e-19)
(1.07527 0.1073 6.77969e-19)
(1.23193 0.133097 1.56832e-19)
(1.32784 0.15262 1.56351e-19)
(1.3807 0.175127 -1.22667e-19)
(-0.0426189 -0.0405123 -1.0466e-18)
(-0.0360245 -0.0645259 8.34659e-19)
(0.0575041 -0.0565847 -7.02106e-19)
(0.222645 -0.0256322 8.58888e-19)
(0.438633 0.019119 -2.43855e-19)
(0.674723 0.069458 -8.4828e-19)
(0.897253 0.119124 2.40691e-19)
(1.08071 0.165114 -3.23002e-19)
(1.21193 0.20062 -3.2947e-19)
(1.29154 0.255218 -6.61712e-19)
(-0.0436523 -0.0501803 -1.35656e-18)
(-0.0555977 -0.09409 8.89215e-19)
(0.00590029 -0.0985984 -1.66491e-18)
(0.128443 -0.0713887 2.88584e-19)
(0.300396 -0.0218611 -1.09357e-18)
(0.504456 0.0407855 -6.56087e-19)
(0.716432 0.108019 1.51949e-18)
(0.911783 0.173792 -2.04102e-18)
(1.07042 0.228303 3.90505e-19)
(1.2083 0.285239 -4.36081e-19)
(-0.0436413 -0.0626513 6.74497e-19)
(-0.0656665 -0.127363 2.47824e-19)
(-0.0247915 -0.144461 -8.33685e-20)
(0.066087 -0.122524 6.12713e-19)
(0.198768 -0.0720479 1.79523e-18)
(0.364644 -0.00251381 6.26235e-19)
(0.550068 0.0771268 6.34029e-19)
(0.737583 0.158482 -2.21899e-19)
(0.901887 0.23212 -1.979e-18)
(1.07163 0.301197 3.86345e-19)
(-0.043605 -0.0784225 -2.01562e-19)
(-0.0702935 -0.162431 5.29304e-19)
(-0.0427438 -0.189011 -1.34663e-19)
(0.0251957 -0.170736 8.96668e-19)
(0.126191 -0.120412 -2.00072e-18)
(0.255411 -0.0479621 1.8457e-19)
(0.406281 0.0382918 -9.51717e-19)
(0.569188 0.129663 1.37782e-18)
(0.720651 0.217922 -3.94176e-19)
(0.897135 0.302304 -3.04351e-20)
(-0.0435907 -0.0960331 -1.36211e-19)
(-0.0728337 -0.194492 -6.33467e-19)
(-0.0566568 -0.224972 1.53978e-18)
(-0.00795835 -0.206964 -7.67115e-19)
(0.0668865 -0.156025 3.90858e-20)
(0.164344 -0.082555 2.3467e-19)
(0.281116 0.00594727 -2.37844e-19)
(0.412386 0.102031 2.83681e-19)
(0.542218 0.19889 9.17746e-19)
(0.703971 0.292404 1.12912e-19)
(-0.04294 -0.111754 -3.1468e-19)
(-0.0754222 -0.216531 -2.86157e-19)
(-0.0730391 -0.24468 -1.20596e-18)
(-0.044548 -0.223896 6.31577e-19)
(0.0057507 -0.17177 -1.28287e-18)
(0.0751778 -0.0985425 2.79035e-19)
(0.161562 -0.0107669 3.16879e-19)
(0.261807 0.0856317 -3.23211e-19)
(0.368531 0.184448 -1.80774e-19)
(0.502596 0.275802 -5.85954e-19)
(-0.040964 -0.120361 2.4241e-19)
(-0.0790516 -0.221439 -4.30759e-20)
(-0.0947115 -0.242567 -2.48628e-21)
(-0.0893133 -0.218105 -5.81781e-19)
(-0.0643119 -0.165948 1.40996e-18)
(-0.0214465 -0.0951389 -2.09067e-19)
(0.0375385 -0.0110576 -5.35154e-19)
(0.110352 0.0812365 6.34566e-19)
(0.195455 0.174437 -1.94572e-19)
(0.298429 0.252679 7.77428e-19)
(-0.0375439 -0.116871 -4.3556e-20)
(-0.0837684 -0.204579 -2.13823e-19)
(-0.12062 -0.217024 -7.86675e-20)
(-0.139933 -0.190743 -9.47139e-20)
(-0.140324 -0.141795 -2.06903e-19)
(-0.122662 -0.0772299 -6.5775e-19)
(-0.0881579 -0.001333 7.97095e-19)
(-0.0381056 0.0808343 4.3255e-19)
(0.0276191 0.160231 -9.90763e-20)
(0.103523 0.21881 -4.50638e-19)
(-0.033313 -0.0985035 2.41275e-19)
(-0.0888268 -0.165406 3.89296e-20)
(-0.146708 -0.170576 2.29712e-19)
(-0.188977 -0.146509 -2.45966e-20)
(-0.211954 -0.10565 2.03176e-19)
(-0.215751 -0.0528938 2.20793e-19)
(-0.200764 0.00833731 3.0425e-19)
(-0.167626 0.07304 -8.50962e-19)
(-0.117625 0.1321 -1.40783e-19)
(-0.0601097 0.170252 1.88293e-19)
(-0.0294256 -0.0659124 -1.17944e-19)
(-0.0930613 -0.10746 -1.37626e-19)
(-0.167746 -0.108522 -6.95369e-20)
(-0.227467 -0.0914825 3.04482e-19)
(-0.266965 -0.064123 1.46599e-19)
(-0.285706 -0.0293351 2.6789e-20)
(-0.283321 0.0105038 -6.38285e-20)
(-0.260568 0.051598 -3.89039e-20)
(-0.220857 0.0873054 3.36925e-19)
(-0.17238 0.108005 -1.72067e-19)
(-0.027095 -0.0231838 5.87917e-20)
(-0.0954455 -0.0372252 6.10812e-20)
(-0.179397 -0.0371767 -5.0373e-20)
(-0.248415 -0.0310114 -4.48367e-20)
(-0.296433 -0.0213683 -4.49933e-20)
(-0.322518 -0.0092104 -6.81943e-20)
(-0.325902 0.00459472 4.04662e-21)
(-0.307735 0.0186338 8.68223e-20)
(-0.272697 0.0305007 -7.7043e-20)
(-0.227048 0.0369743 1.00308e-19)
(0.313452 -0.0380031 1.14896e-21)
(0.738069 -0.0110136 -8.75151e-22)
(0.89923 -0.00449237 -1.06529e-22)
(0.958855 -0.0016972 7.47108e-23)
(0.98208 -0.000633389 1.27746e-23)
(0.991021 -0.000268741 -9.1047e-24)
(0.995199 -0.000127971 -1.24772e-23)
(0.997386 -6.54917e-05 3.984e-24)
(0.998481 -3.70413e-05 -3.05796e-25)
(0.999282 -1.54816e-05 2.88894e-24)
(0.315963 -0.11107 6.12711e-21)
(0.740553 -0.0332826 1.16805e-21)
(0.899858 -0.0134998 1.18876e-21)
(0.959063 -0.0050913 -1.17495e-21)
(0.982142 -0.00190036 -5.05106e-23)
(0.99104 -0.000806596 4.31565e-23)
(0.995206 -0.000385257 -4.87126e-23)
(0.99739 -0.000195772 -1.18984e-23)
(0.998483 -0.000112062 -2.42431e-23)
(0.999283 -4.73308e-05 -2.49721e-24)
(0.345238 -0.176578 -2.59145e-21)
(0.748077 -0.055788 3.21492e-22)
(0.901513 -0.0224891 -1.1587e-21)
(0.959529 -0.00847004 1.00864e-21)
(0.982273 -0.00316573 -5.95652e-23)
(0.991079 -0.0013436 3.75841e-23)
(0.995221 -0.000642188 1.78553e-23)
(0.997397 -0.00032587 -4.13302e-24)
(0.998488 -0.000186935 1.67364e-23)
(0.999286 -7.9105e-05 -3.38865e-24)
(0.420096 -0.231889 -4.73993e-21)
(0.76328 -0.0775535 -1.98348e-21)
(0.90463 -0.0312755 1.13728e-21)
(0.960312 -0.0118036 -8.97778e-22)
(0.98248 -0.00442553 8.43306e-22)
(0.991139 -0.00187892 -2.46724e-22)
(0.995243 -0.000898528 1.43404e-23)
(0.997409 -0.000455676 -1.92122e-23)
(0.998496 -0.000261556 1.96613e-23)
(0.99929 -0.00011075 1.44856e-24)
(0.535447 -0.275367 1.83381e-20)
(0.786872 -0.0970344 -4.4278e-21)
(0.909363 -0.0395822 -1.28406e-21)
(0.961442 -0.0150494 1.90174e-21)
(0.982773 -0.00567319 -6.13183e-22)
(0.991223 -0.00241107 -1.89484e-22)
(0.995274 -0.00115378 -1.47381e-22)
(0.997424 -0.000585004 -3.19147e-23)
(0.998506 -0.0003358 -4.66214e-23)
(0.999295 -0.000142213 -6.33064e-24)
(0.670627 -0.305278 -1.72451e-20)
(0.817194 -0.112689 8.5475e-21)
(0.915524 -0.047089 8.5133e-23)
(0.962918 -0.0181541 -2.13157e-21)
(0.983161 -0.00689983 4.16775e-22)
(0.991336 -0.00293801 2.42195e-22)
(0.995315 -0.00140737 1.56712e-22)
(0.997444 -0.0007136 3.77015e-23)
(0.998519 -0.00040951 1.99186e-23)
(0.999302 -0.000173426 9.24655e-24)
(0.80521 -0.321026 1.6295e-20)
(0.850939 -0.123678 -3.6326e-21)
(0.92268 -0.0535544 1.44362e-21)
(0.964717 -0.0210753 1.02913e-21)
(0.983661 -0.00809894 -3.88169e-22)
(0.991488 -0.00345845 1.08522e-22)
(0.99537 -0.00165903 -1.48932e-22)
(0.99747 -0.000841388 -4.55018e-23)
(0.998534 -0.000482619 7.43682e-24)
(0.999309 -0.000204342 3.18705e-24)
(0.925929 -0.329846 1.00978e-20)
(0.884538 -0.132121 -1.35444e-22)
(0.930348 -0.0593523 -4.04687e-21)
(0.966818 -0.0238622 2.52653e-21)
(0.984293 -0.00927027 -6.96837e-22)
(0.991688 -0.00397045 4.57869e-22)
(0.995442 -0.00190811 2.19011e-22)
(0.997503 -0.000968205 6.54878e-23)
(0.998553 -0.000555108 5.31543e-23)
(0.999318 -0.000234965 3.98989e-24)
(1.02562 -0.346841 -3.69364e-20)
(0.916085 -0.143664 -1.40614e-21)
(0.938317 -0.0655616 2.37982e-21)
(0.969237 -0.0265983 -2.97715e-21)
(0.985083 -0.0103876 8.33354e-22)