/*--------------------------------*- C++ -*----------------------------------*\
  =========                 |
  \\      /  F ield         | OpenFOAM: The Open Source CFD Toolbox
   \\    /   O peration     | Website:  https://openfoam.org
    \\  /    A nd           | Version:  6.0
     \\/     M anipulation  |
\*---------------------------------------------------------------------------*/
FoamFile
{
    version     2.0;
    format      ascii;
    class       volScalarField;
    location    "1";
    object      p;
}
// * * * * * * * * * * * * * * * * * * * * * * * * * * * * * * * * * * * * * //

dimensions      [0 2 -2 0 0 0 0];

internalField   nonuniform List<scalar> 
4000
(
-0.910656
-0.893444
-0.869419
-0.833811
-0.788097
-0.736827
-0.68421
-0.633162
-0.585307
-0.541315
-0.501269
-0.464958
-0.432046
-0.402172
-0.374991
-0.350191
-0.3275
-0.306625
-0.287282
-0.269788
-0.909658
-0.892189
-0.866526
-0.828385
-0.78012
-0.726829
-0.672885
-0.621124
-0.573011
-0.529054
-0.489222
-0.453222
-0.420674
-0.391187
-0.3644
-0.339995
-0.31769
-0.297178
-0.278173
-0.261098
-0.90487
-0.887192
-0.859924
-0.819385
-0.768828
-0.713842
-0.658898
-0.606716
-0.558583
-0.514855
-0.475391
-0.439831
-0.407753
-0.378746
-0.352434
-0.328494
-0.306639
-0.286546
-0.267933
-0.251336
-0.896101
-0.878268
-0.849459
-0.806706
-0.754158
-0.697828
-0.642219
-0.589904
-0.541989
-0.498682
-0.459742
-0.424751
-0.393255
-0.364822
-0.33907
-0.315672
-0.294335
-0.274724
-0.256563
-0.240505
-0.883201
-0.865276
-0.835028
-0.790292
-0.736092
-0.678784
-0.622849
-0.570687
-0.523221
-0.480523
-0.442262
-0.40797
-0.377167
-0.349408
-0.324305
-0.301529
-0.280783
-0.261717
-0.244074
-0.228618
-0.866064
-0.848118
-0.816564
-0.770112
-0.714618
-0.656709
-0.600786
-0.549058
-0.502271
-0.460367
-0.42294
-0.38948
-0.359485
-0.332503
-0.308142
-0.286071
-0.265992
-0.247541
-0.230485
-0.215697
-0.844627
-0.826742
-0.794045
-0.746176
-0.689769
-0.631637
-0.576058
-0.525041
-0.479154
-0.438228
-0.401788
-0.369293
-0.340224
-0.314124
-0.290599
-0.269322
-0.249989
-0.232227
-0.215829
-0.201775
-0.818875
-0.801141
-0.767492
-0.718532
-0.661602
-0.603624
-0.548715
-0.498673
-0.453904
-0.414133
-0.378834
-0.347435
-0.319411
-0.294299
-0.271709
-0.251314
-0.232809
-0.215812
-0.200149
-0.186895
-0.788839
-0.771354
-0.73697
-0.687265
-0.630206
-0.572753
-0.518827
-0.470017
-0.426573
-0.388131
-0.354119
-0.323948
-0.297085
-0.273069
-0.251512
-0.232091
-0.214499
-0.198347
-0.183497
-0.171107
-0.7546
-0.737469
-0.702585
-0.652493
-0.5957
-0.539131
-0.486489
-0.439151
-0.397229
-0.360282
-0.327701
-0.298885
-0.2733
-0.250486
-0.230061
-0.211707
-0.195114
-0.179891
-0.165935
-0.154474
-0.716283
-0.699619
-0.664486
-0.614372
-0.558232
-0.502892
-0.451814
-0.406177
-0.365963
-0.330666
-0.299652
-0.272314
-0.248118
-0.226611
-0.207416
-0.190222
-0.174717
-0.160511
-0.147533
-0.137066
-0.674063
-0.657981
-0.622861
-0.573091
-0.517977
-0.46419
-0.414941
-0.371213
-0.332878
-0.299376
-0.270057
-0.244312
-0.221612
-0.201512
-0.183644
-0.167704
-0.153377
-0.140279
-0.128371
-0.118964
-0.628157
-0.612775
-0.577935
-0.52887
-0.475139
-0.423206
-0.376025
-0.334398
-0.298097
-0.266522
-0.239013
-0.214965
-0.193861
-0.175263
-0.158815
-0.144218
-0.131163
-0.11927
-0.10853
-0.100254
-0.578825
-0.564262
-0.529971
-0.481958
-0.429944
-0.380143
-0.335247
-0.29589
-0.261759
-0.232225
-0.206626
-0.184368
-0.164945
-0.147935
-0.132992
-0.119827
-0.108136
-0.0975531
-0.0880864
-0.0810008
-0.526365
-0.512739
-0.479261
-0.432633
-0.382644
-0.335224
-0.292805
-0.255864
-0.224019
-0.196623
-0.173016
-0.152622
-0.13495
-0.119597
-0.106231
-0.0945743
-0.0843346
-0.0751656
-0.0670767
-0.0612323
-0.471114
-0.458539
-0.42613
-0.381197
-0.333514
-0.288695
-0.248917
-0.214517
-0.185054
-0.159869
-0.138318
-0.11984
-0.103968
-0.0903191
-0.0785809
-0.0684904
-0.0597715
-0.0521085
-0.0455056
-0.0409856
-0.413439
-0.402022
-0.370924
-0.327975
-0.282847
-0.240821
-0.203823
-0.172063
-0.145055
-0.122136
-0.10268
-0.0861501
-0.0721053
-0.0601893
-0.0501145
-0.0416338
-0.0344946
-0.028441
-0.0235051
-0.0205294
-0.353733
-0.343574
-0.314016
-0.273309
-0.230958
-0.191886
-0.157781
-0.128737
-0.104233
-0.0836104
-0.0662623
-0.0516807
-0.0394576
-0.0292738
-0.0208761
-0.0140413
-0.00856506
-0.0043351
-0.00148669
-0.000468965
-0.292413
-0.283603
-0.255792
-0.217561
-0.178176
-0.142192
-0.111068
-0.0847962
-0.0628249
-0.0445031
-0.029244
-0.0165658
-0.00609355
0.00245098
0.00928044
0.014581
0.0184415
0.0206488
0.0208629
0.0195606
-0.229914
-0.222533
-0.196656
-0.161103
-0.124841
-0.0920534
-0.0639794
-0.0405193
-0.0210984
-0.00507214
0.00813128
0.018978
0.0278281
0.0349469
0.0405498
0.0448321
0.0477514
0.0486266
0.0469405
0.0445742
-0.166684
-0.160799
-0.137018
-0.104313
-0.071304
-0.0417948
-0.016821
0.003798
0.0206533
0.0343811
0.0455393
0.0545847
0.0618785
0.0677104
0.0723644
0.0761457
0.0790324
0.0800558
0.0790125
0.0839379
-0.103168
-0.0988353
-0.0772903
-0.0475731
-0.0179136
0.00825863
0.0300999
0.0478598
0.0621386
0.0735586
0.0826584
0.0898775
0.0955662
0.100016
0.103521
0.106362
0.108507
0.109429
0.11002
0.116585
-0.0398225
-0.0370841
-0.0178861
0.00873815
0.0349821
0.0577849
0.0764809
0.0913778
0.103079
0.112189
0.119225
0.124608
0.128674
0.131707
0.133982
0.135729
0.136906
0.137163
0.137453
0.142766
0.0229017
0.024019
0.0407872
0.0642475
0.0870419
0.106469
0.122028
0.134074
0.143207
0.150009
0.154973
0.158497
0.160898
0.162442
0.16338
0.163918
0.164022
0.163426
0.162954
0.166663
0.0845609
0.0840453
0.0983302
0.118591
0.137934
0.154009
0.166462
0.175688
0.18228
0.186794
0.189697
0.191359
0.192074
0.192088
0.191622
0.190851
0.189733
0.188041
0.186554
0.188765
0.144721
0.142577
0.154355
0.171414
0.187339
0.200111
0.209514
0.215974
0.22007
0.222334
0.223202
0.223019
0.222055
0.220531
0.218646
0.216545
0.214175
0.211338
0.208783
0.209546
0.202963
0.199209
0.208486
0.22238
0.23495
0.244498
0.250932
0.2547
0.256368
0.256438
0.255318
0.253327
0.250711
0.247669
0.244374
0.240949
0.237331
0.233356
0.229743
0.22913
0.258883
0.253554
0.260367
0.271162
0.280475
0.286906
0.290475
0.29165
0.290976
0.288929
0.285889
0.282148
0.277931
0.273413
0.268749
0.264037
0.259214
0.254144
0.249507
0.247578
0.312095
0.305242
0.309656
0.317455
0.323638
0.327086
0.327919
0.326617
0.323708
0.319639
0.314764
0.30935
0.303598
0.297668
0.291692
0.285752
0.279783
0.273677
0.268062
0.264883
0.362236
0.353925
0.356032
0.360969
0.364178
0.364802
0.363049
0.359409
0.354388
0.34841
0.341801
0.334805
0.327605
0.32034
0.313125
0.306027
0.298984
0.291912
0.285372
0.281011
0.408964
0.399275
0.399196
0.401434
0.401852
0.399834
0.395666
0.389843
0.382852
0.375092
0.366864
0.358392
0.34984
0.34133
0.332961
0.324786
0.31675
0.308784
0.30138
0.29591
0.451963
0.440991
0.43887
0.438599
0.436434
0.431978
0.425583
0.417749
0.408945
0.399544
0.389826
0.379995
0.370198
0.360542
0.351113
0.341951
0.333007
0.324225
0.316022
0.309523
0.490944
0.478796
0.4748
0.472234
0.467717
0.461045
0.45263
0.442972
0.432523
0.421633
0.410565
0.399502
0.388577
0.377885
0.367495
0.357441
0.347679
0.338162
0.329231
0.321791
0.525644
0.512439
0.506756
0.502134
0.495514
0.486866
0.476651
0.465369
0.453455
0.441241
0.42897
0.416812
0.404884
0.39327
0.382027
0.371181
0.360695
0.350527
0.340943
0.332659
0.55583
0.541699
0.534535
0.528112
0.519658
0.509288
0.497506
0.484812
0.471623
0.458258
0.444942
0.431831
0.419032
0.406616
0.394632
0.3831
0.371987
0.361255
0.3511
0.342076
0.581301
0.566383
0.557959
0.55001
0.540004
0.52818
0.515076
0.501189
0.486927
0.47259
0.458392
0.444478
0.430945
0.417854
0.405245
0.393135
0.381494
0.370288
0.359649
0.349994
0.601886
0.586328
0.57688
0.567693
0.556431
0.54343
0.529258
0.514407
0.499277
0.484156
0.469246
0.454683
0.440556
0.42692
0.413808
0.40123
0.389165
0.377576
0.366543
0.356377
0.617447
0.601403
0.591178
0.581053
0.568839
0.554949
0.539968
0.52439
0.508603
0.492889
0.477441
0.462389
0.447814
0.433766
0.420272
0.407343
0.394957
0.383079
0.371747
0.361191
0.62788
0.61151
0.600762
0.590006
0.577154
0.562667
0.547145
0.531078
0.514852
0.49874
0.482932
0.467551
0.452676
0.438351
0.424603
0.411437
0.398837
0.386765
0.375232
0.364415
0.633117
0.616583
0.605572
0.594498
0.581326
0.56654
0.550745
0.534434
0.517987
0.501676
0.485687
0.470141
0.455115
0.440652
0.426776
0.413491
0.400784
0.388614
0.37698
0.366031
0.633121
0.616587
0.605576
0.594502
0.58133
0.566543
0.550749
0.534437
0.51799
0.501679
0.48569
0.470144
0.455117
0.440654
0.426778
0.413493
0.400786
0.388616
0.376983
0.366033
0.627894
0.611524
0.600775
0.590018
0.577165
0.562678
0.547155
0.531089
0.514862
0.49875
0.482941
0.46756
0.452683
0.438359
0.42461
0.411444
0.398843
0.386771
0.375239
0.364421
0.617469
0.601426
0.5912
0.581073
0.568858
0.554967
0.539986
0.524407
0.508619
0.492905
0.477456
0.462403
0.447827
0.433778
0.420284
0.407354
0.394968
0.383089
0.371758
0.361202
0.601918
0.586359
0.57691
0.567722
0.556458
0.543456
0.529283
0.514431
0.499299
0.484177
0.469267
0.454703
0.440575
0.426938
0.413825
0.401247
0.389182
0.377592
0.366559
0.356392
0.581342
0.566423
0.557998
0.550047
0.540039
0.528213
0.515108
0.501219
0.486955
0.472618
0.458419
0.444504
0.430969
0.417878
0.405268
0.393157
0.381516
0.370309
0.359669
0.350014
0.55588
0.541748
0.534582
0.528157
0.519701
0.509328
0.497545
0.484848
0.471658
0.458292
0.444974
0.431863
0.419063
0.406646
0.394661
0.383128
0.372014
0.361281
0.351126
0.3421
0.525703
0.512497
0.506812
0.502187
0.495564
0.486913
0.476696
0.465412
0.453496
0.441281
0.429008
0.416849
0.40492
0.393305
0.382061
0.371214
0.360727
0.350558
0.340973
0.332688
0.491012
0.478862
0.474864
0.472295
0.467775
0.4611
0.452682
0.443022
0.43257
0.421679
0.410608
0.399545
0.388619
0.377925
0.367534
0.357479
0.347716
0.338198
0.329265
0.321824
0.452039
0.441066
0.438942
0.438667
0.436499
0.43204
0.425642
0.417806
0.408998
0.399595
0.389875
0.380043
0.370244
0.360588
0.351156
0.341993
0.333048
0.324264
0.31606
0.30956
0.409048
0.399358
0.399275
0.40151
0.401924
0.399903
0.395732
0.389906
0.382913
0.37515
0.36692
0.358446
0.349892
0.34138
0.333009
0.324833
0.316795
0.308827
0.301423
0.295951
0.362328
0.354015
0.356119
0.361053
0.364257
0.364878
0.363122
0.359479
0.354455
0.348475
0.341863
0.334865
0.327662
0.320395
0.313178
0.306078
0.299033
0.29196
0.285419
0.281056
0.312196
0.305341
0.309751
0.317546
0.323724
0.327169
0.327999
0.326694
0.323782
0.31971
0.314832
0.309416
0.303662
0.297729
0.291751
0.285808
0.279837
0.27373
0.268114
0.264933
0.258993
0.253661
0.26047
0.271261
0.280569
0.286996
0.290562
0.291733
0.291056
0.289006
0.285964
0.28222
0.277999
0.273479
0.268813
0.264099
0.259273
0.254202
0.249563
0.247632
0.203082
0.199325
0.208598
0.222486
0.235051
0.244594
0.251024
0.25479
0.256454
0.256521
0.255399
0.253405
0.250786
0.24774
0.244444
0.241016
0.237396
0.233419
0.229805
0.229189
0.144848
0.142701
0.154474
0.171528
0.187447
0.200214
0.209613
0.216069
0.220162
0.222422
0.223287
0.223101
0.222134
0.220608
0.218721
0.216618
0.214246
0.211406
0.20885
0.20961
0.0846962
0.084178
0.0984578
0.118712
0.13805
0.154119
0.166567
0.175789
0.182376
0.186887
0.189787
0.191446
0.192159
0.19217
0.191702
0.190928
0.189809
0.188114
0.186625
0.188833
0.023045
0.0241596
0.0409226
0.0643768
0.087165
0.106587
0.12214
0.134181
0.143309
0.150108
0.155069
0.158589
0.160987
0.162529
0.163465
0.164
0.164102
0.163503
0.16303
0.166736
-0.0396714
-0.0369359
-0.0177432
0.00887482
0.0351124
0.0579091
0.0765994
0.091491
0.103187
0.112293
0.119326
0.124705
0.128769
0.131799
0.134071
0.135816
0.13699
0.137245
0.137533
0.142844
-0.103009
-0.0986796
-0.0771401
-0.0474294
-0.0177763
0.00838963
0.0302251
0.0479795
0.0622534
0.073669
0.082765
0.0899807
0.0956663
0.100114
0.103615
0.106453
0.108596
0.109516
0.110105
0.116667
-0.166517
-0.160635
-0.13686
-0.104163
-0.0711601
-0.0416573
-0.0166894
0.00392415
0.0207746
0.0344979
0.045652
0.0546937
0.0619842
0.0678128
0.0724638
0.0762423
0.0791265
0.0801479
0.0791033
0.0840264
-0.229739
-0.222362
-0.19649
-0.160945
-0.124691
-0.0919096
-0.0638417
-0.040387
-0.0209711
-0.00494935
0.0082499
0.0190928
0.0279392
0.0350546
0.0406544
0.044934
0.0478509
0.0487242
0.0470367
0.0446699
-0.29223
-0.283424
-0.255619
-0.217396
-0.178018
-0.142041
-0.110924
-0.0846581
-0.062692
-0.0443748
-0.0291199
-0.0164458
-0.00597739
0.00256365
0.00939004
0.014688
0.0185462
0.0207513
0.0209636
0.0196605
-0.353542
-0.343387
-0.313835
-0.273136
-0.230794
-0.191729
-0.157631
-0.128594
-0.104095
-0.0834769
-0.0661333
-0.0515558
-0.0393366
-0.0291563
-0.0207617
-0.0139296
-0.00845598
-0.00422852
-0.0013823
-0.000365916
-0.413241
-0.401827
-0.370736
-0.327794
-0.282676
-0.240657
-0.203667
-0.171914
-0.144911
-0.121998
-0.102546
-0.0860204
-0.0719794
-0.060067
-0.0499953
-0.0415175
-0.0343813
-0.0283304
-0.0233969
-0.0204229
-0.470909
-0.458338
-0.425935
-0.38101
-0.333335
-0.288525
-0.248755
-0.214361
-0.184904
-0.159725
-0.138179
-0.119705
-0.103837
-0.090192
-0.0784571
-0.0683698
-0.059654
-0.0519939
-0.0453934
-0.0408752
-0.526153
-0.512531
-0.47906
-0.432439
-0.382458
-0.335047
-0.292636
-0.255702
-0.223864
-0.196473
-0.172872
-0.152482
-0.134815
-0.119465
-0.106103
-0.0944496
-0.0842131
-0.0750471
-0.0669607
-0.0611184
-0.578606
-0.564047
-0.529762
-0.481757
-0.429751
-0.379959
-0.335071
-0.295721
-0.261597
-0.23207
-0.206476
-0.184223
-0.164805
-0.147799
-0.13286
-0.119699
-0.108011
-0.0974308
-0.0879668
-0.0808835
-0.627931
-0.612552
-0.577719
-0.528662
-0.474939
-0.423016
-0.375843
-0.334224
-0.29793
-0.266361
-0.238858
-0.214816
-0.193716
-0.175123
-0.158679
-0.144086
-0.131034
-0.119144
-0.108407
-0.100133
-0.67383
-0.657751
-0.622637
-0.572876
-0.517771
-0.463993
-0.414752
-0.371033
-0.332705
-0.299211
-0.269898
-0.244158
-0.221463
-0.201368
-0.183504
-0.167567
-0.153245
-0.14015
-0.128245
-0.11884
-0.716043
-0.699382
-0.664255
-0.614149
-0.558018
-0.502688
-0.45162
-0.405991
-0.365785
-0.330495
-0.299488
-0.272156
-0.247965
-0.226462
-0.207272
-0.190082
-0.174581
-0.160379
-0.147404
-0.136939
-0.754352
-0.737225
-0.702347
-0.652262
-0.595479
-0.53892
-0.486288
-0.438959
-0.397046
-0.360106
-0.327532
-0.298722
-0.273143
-0.250334
-0.229912
-0.211563
-0.194974
-0.179755
-0.165802
-0.154344
-0.788584
-0.771102
-0.736724
-0.687026
-0.629977
-0.572535
-0.51862
-0.469819
-0.426384
-0.38795
-0.353945
-0.323781
-0.296924
-0.272913
-0.25136
-0.231944
-0.214355
-0.198208
-0.183361
-0.170975
-0.818612
-0.800881
-0.767238
-0.718286
-0.661366
-0.603399
-0.548501
-0.49847
-0.45371
-0.413948
-0.378655
-0.347264
-0.319246
-0.294139
-0.271554
-0.251164
-0.232663
-0.21567
-0.20001
-0.186759
-0.844356
-0.826474
-0.793783
-0.745922
-0.689525
-0.631405
-0.575838
-0.524831
-0.478955
-0.438037
-0.401605
-0.369117
-0.340055
-0.313961
-0.290441
-0.269169
-0.24984
-0.232082
-0.215688
-0.201637
-0.865785
-0.847843
-0.816293
-0.769849
-0.714367
-0.656469
-0.600558
-0.548843
-0.502066
-0.460171
-0.422752
-0.3893
-0.359312
-0.332337
-0.307981
-0.285915
-0.265841
-0.247394
-0.230341
-0.215557
-0.882915
-0.864992
-0.834749
-0.790021
-0.735832
-0.678537
-0.622616
-0.570467
-0.523012
-0.480323
-0.442071
-0.407787
-0.376991
-0.349239
-0.324141
-0.30137
-0.280629
-0.261567
-0.243928
-0.228476
-0.895807
-0.877976
-0.849172
-0.806427
-0.75389
-0.697573
-0.641978
-0.589677
-0.541774
-0.498478
-0.459548
-0.424565
-0.393076
-0.36465
-0.338904
-0.315511
-0.29418
-0.274572
-0.256416
-0.240362
-0.904568
-0.886893
-0.859629
-0.819098
-0.768552
-0.713581
-0.658652
-0.606484
-0.558364
-0.514648
-0.475194
-0.439642
-0.407572
-0.378572
-0.352266
-0.328331
-0.306481
-0.286394
-0.267785
-0.251192
-0.90935
-0.891882
-0.866223
-0.82809
-0.779836
-0.72656
-0.672632
-0.620887
-0.572787
-0.528843
-0.489021
-0.45303
-0.42049
-0.391011
-0.364231
-0.339831
-0.317531
-0.297025
-0.278024
-0.260953
-0.910342
-0.89313
-0.869107
-0.833506
-0.787802
-0.736545
-0.683945
-0.632913
-0.585074
-0.541096
-0.501063
-0.464762
-0.43186
-0.401995
-0.37482
-0.350027
-0.327341
-0.306471
-0.287132
-0.269642
0.0278211
0.0112685
-0.00183083
-0.0127307
-0.0241301
-0.0363447
-0.0485277
-0.0602051
-0.0713918
-0.0821766
-0.0925372
-0.10239
-0.111659
-0.1203
-0.128277
-0.135563
-0.142133
-0.147966
-0.153049
-0.157373
0.00646683
-0.00130128
-0.00975311
-0.0175639
-0.0247049
-0.0316814
-0.0386094
-0.0453033
-0.0516322
-0.0575988
-0.0632438
-0.0685833
-0.0736146
-0.0783375
-0.0827614
-0.0869014
-0.0907745
-0.0943979
-0.0977897
-0.100969
0.00069987
-0.00311225
-0.00652572
-0.0102617
-0.0140565
-0.0176349
-0.0209762
-0.0241383
-0.0271462
-0.0300014
-0.0327072
-0.0352709
-0.0376998
-0.0399995
-0.0421756
-0.0442331
-0.0461762
-0.0480078
-0.0497303
-0.0513462
0.000493341
-0.00238258
-0.00402227
-0.00578813
-0.00796523
-0.0102362
-0.0123685
-0.014353
-0.0162572
-0.0181179
-0.0199354
-0.0217001
-0.0234079
-0.0250599
-0.0266591
-0.0282076
-0.0297063
-0.0311561
-0.0325579
-0.0339142
0.00331673
0.00141313
0.000577701
-0.000339476
-0.00163299
-0.00306807
-0.0044294
-0.00568107
-0.00687266
-0.00804211
-0.00919484
-0.0103225
-0.0114192
-0.0124847
-0.0135215
-0.0145316
-0.015516
-0.0164754
-0.0174104
-0.0183225
0.00612686
0.0047622
0.00415795
0.00351533
0.0026079
0.00158094
0.00058532
-0.000344016
-0.00123587
-0.00211722
-0.00299416
-0.00386178
-0.0047154
-0.00555395
-0.00637839
-0.0071897
-0.00798826
-0.00877404
-0.00954699
-0.0103078
0.00845812
0.00745412
0.00696424
0.00646258
0.00579138
0.00503643
0.00429491
0.00359345
0.00291655
0.00224723
0.00158071
0.000919558
0.000266745
-0.000376786
-0.00101145
-0.00163785
-0.00225626
-0.00286673
-0.00346928
-0.00406447
0.010165
0.0093963
0.00896471
0.00853669
0.00800502
0.00741725
0.00683339
0.00627231
0.00572624
0.00518507
0.00464546
0.00410869
0.00357657
0.00304985
0.00252843
0.00201206
0.00150065
0.000994261
0.000492989
-3.49078e-06
0.0113737
0.0107699
0.0103845
0.0100105
0.00957569
0.00910462
0.00863347
0.00817525
0.00772648
0.00728132
0.00683756
0.0063958
0.00595713
0.00552207
0.00509065
0.00466277
0.00423842
0.00381764
0.00340053
0.00298681
0.0121932
0.0117067
0.0113608
0.0110298
0.0106646
0.0102764
0.0098863
0.00950331
0.00912617
0.00875164
0.00837831
0.00800641
0.00763659
0.00726924
0.00690443
0.00654216
0.00618247
0.00582543
0.00547116
0.0051195
0.0127296
0.0123304
0.0120207
0.0117266
0.0114146
0.0110881
0.0107593
0.0104342
0.0101128
0.00979325
0.00947475
0.00915737
0.00884148
0.00852736
0.00821512
0.0079048
0.00759644
0.00729013
0.00698597
0.00668385
0.0130628
0.0127301
0.0124536
0.0121914
0.0119208
0.0116414
0.0113597
0.0110798
0.0108022
0.0105259
0.0102505
0.00997591
0.00970245
0.0094303
0.00915955
0.00889027
0.00862252
0.00835638
0.00809198
0.00782924
0.0132527
0.0129703
0.0127233
0.0124892
0.012252
0.0120094
0.0117648
0.0115209
0.0112783
0.0110366
0.0107957
0.0105554
0.0103159
0.0100774
0.00983992
0.00960359
0.00936845
0.0091346
0.00890212
0.00867099
0.0133466
0.0131034
0.0128824
0.0126723
0.012462
0.0122484
0.0120331
0.0118178
0.0116032
0.0113893
0.011176
0.010963
0.0107507
0.0105391
0.0103282
0.0101183
0.00990925
0.00970124
0.00949435
0.00928856
0.0133807
0.0131693
0.012971
0.0127808
0.0125915
0.0124003
0.0122078
0.0120151
0.0118227
0.0116307
0.0114391
0.0112478
0.011057
0.0108667
0.010677
0.010488
0.0102997
0.0101122
0.00992564
0.00973998
0.0133781
0.0131911
0.0130113
0.0128373
0.0126645
0.0124907
0.0123159
0.0121407
0.0119657
0.011791
0.0116165
0.0114422
0.0112683
0.0110947
0.0109216
0.0107491
0.0105771
0.0104058
0.0102353
0.0100655
0.0133558
0.0131861
0.0130206
0.0128597
0.0126998
0.0125394
0.012378
0.0122164
0.0120548
0.0118933
0.011732
0.0115709
0.0114099
0.0112493
0.0110891
0.0109293
0.01077
0.0106112
0.0104531
0.0102956
0.0133284
0.0131705
0.0130155
0.012864
0.0127136
0.0125626
0.012411
0.012259
0.0121071
0.0119552
0.0118035
0.0116518
0.0115004
0.0113492
0.0111984
0.0110479
0.0108978
0.0107482
0.0105991
0.0104505
0.013306
0.0131559
0.0130079
0.0128624
0.0127178
0.0125728
0.0124273
0.0122816
0.0121359
0.0119903
0.0118449
0.0116995
0.0115544
0.0114095
0.0112649
0.0111206
0.0109767
0.0108332
0.0106902
0.0105478
0.0132931
0.0131461
0.0130006
0.0128573
0.0127149
0.0125724
0.0124295
0.0122866
0.0121438
0.0120011
0.0118586
0.0117164
0.0115744
0.0114328
0.0112914
0.0111505
0.0110099
0.0108698
0.0107301
0.0105908
0.0981695
0.0985207
0.0992405
0.10031
0.101735
0.103539
0.105731
0.108311
0.111267
0.114586
0.118212
0.122068
0.12599
0.129543
0.132523
0.133062
0.130983
0.121301
0.101432
0.0644159
0.0915944
0.0918038
0.0922348
0.0928733
0.0936999
0.094693
0.0958155
0.0970266
0.0982499
0.0994242
0.10035
0.100926
0.100663
0.099324
0.096048
0.0900733
0.0804888
0.0662907
0.04653
0.0228254
0.0840211
0.0840939
0.0842304
0.0844198
0.0846436
0.0848665
0.0850304
0.085072
0.0848945
0.0844125
0.0834188
0.0818058
0.0791651
0.0754088
0.0699864
0.0627772
0.0535835
0.0421897
0.0283983
0.0119517
0.0759994
0.0759553
0.0758553
0.0756972
0.0754655
0.0751215
0.0746053
0.0738562
0.0727926
0.0713436
0.0693641
0.0667976
0.0634134
0.0592436
0.0540361
0.047864
0.0406718
0.0322554
0.0222682
0.00993028
0.0680763
0.0679581
0.0677113
0.0673362
0.0668211
0.0661345
0.065231
0.0640664
0.0625864
0.0607486
0.0584707
0.0557373
0.0524303
0.0486001
0.0441107
0.0390103
0.0332465
0.0266662
0.019062
0.0100334
0.0606484
0.0604933
0.0601739
0.0596914
0.0590392
0.0581962
0.0571334
0.0558238
0.0542353
0.0523459
0.0501109
0.0475303
0.0445376
0.0411732
0.0373566
0.0331272
0.028472
0.0233224
0.0175749
0.0109703
0.0539352
0.0537691
0.0534293
0.0529173
0.0522298
0.0513545
0.0502749
0.0489765
0.0474408
0.0456575
0.0436022
0.0412812
0.038657
0.0357647
0.0325613
0.0290861
0.0253461
0.0213068
0.0169083
0.011987
0.0480224
0.0478612
0.0475323
0.0470373
0.0463744
0.0455369
0.0445169
0.0433076
0.0418993
0.0402881
0.0384619
0.0364304
0.0341739
0.0317234
0.0290565
0.0262073
0.0231878
0.0199784
0.0165479
0.0127963
0.0429088
0.0427605
0.0424585
0.0420039
0.0413955
0.0406299
0.0397046
0.0386175
0.0373643
0.0359451
0.034355
0.0326048
0.0306848
0.0286216
0.0264032
0.0240581
0.0215994
0.0190161
0.0162952
0.0133774
0.0385448
0.0384124
0.0381432
0.0377379
0.0371955
0.0365142
0.0356946
0.0347376
0.0336419
0.0324099
0.0310404
0.0295444
0.0279174
0.0261816
0.0243313
0.0223898
0.0203695
0.0182648
0.0160722
0.0137563
0.0348584
0.0347423
0.0345064
0.0341512
0.0336755
0.0330785
0.0323622
0.0315293
0.0305803
0.0295185
0.0283447
0.0270689
0.02569
0.0242261
0.022675
0.0210554
0.0193788
0.0176421
0.0158473
0.0139742
0.031772
0.031671
0.031466
0.0311573
0.0307437
0.0302243
0.0296022
0.0288809
0.0280618
0.0271483
0.0261424
0.0250528
0.0238801
0.0226392
0.0213296
0.0199666
0.0185597
0.0171079
0.0156157
0.0140732
0.029211
0.0291234
0.0289455
0.0286778
0.0283187
0.0278676
0.0273278
0.0267029
0.025995
0.0252071
0.0243418
0.0234065
0.0224029
0.0213429
0.0202275
0.0190685
0.0178746
0.0166456
0.0153866
0.0140921
0.0271083
0.027032
0.0268772
0.0266443
0.0263315
0.0259383
0.0254679
0.0249241
0.0243089
0.0236251
0.0228752
0.0220658
0.0211989
0.0202842
0.0193233
0.0183257
0.0172988
0.0162434
0.0151641
0.0140577
0.0254062
0.0253392
0.0252034
0.0249991
0.0247245
0.024379
0.0239657
0.0234883
0.0229485
0.0223489
0.0216921
0.0209835
0.0202255
0.0194258
0.0185863
0.0177149
0.0168172
0.0158953
0.0149533
0.0139914
0.0240565
0.0239971
0.0238764
0.0236949
0.0234509
0.0231435
0.0227758
0.0223512
0.0218712
0.0213381
0.0207545
0.020125
0.0194521
0.0187418
0.0179964
0.0172222
0.016424
0.0156043
0.014767
0.0139139
0.0230208
0.0229671
0.0228581
0.0226942
0.0224736
0.0221955
0.0218629
0.0214787
0.0210444
0.0205621
0.0200344
0.0194649
0.0188565
0.0182137
0.0175394
0.0168387
0.0161155
0.0153731
0.0146139
0.0138399
0.0222691
0.0222196
0.022119
0.0219678
0.0217642
0.0215075
0.0212002
0.0208452
0.020444
0.0199984
0.0195109
0.0189847
0.0184225
0.0178283
0.0172049
0.0165568
0.0158873
0.0151998
0.0144959
0.013777
0.0217797
0.0217329
0.0216378
0.0214949
0.0213024
0.0210594
0.0207686
0.0204326
0.0200529
0.0196312
0.0191697
0.0186714
0.0181391
0.0175761
0.0169855
0.0163711
0.0157357
0.0150829
0.0144139
0.0137306
0.0215385
0.021493
0.0214006
0.0212617
0.0210746
0.0208385
0.0205558
0.0202292
0.0198601
0.0194501
0.0190014
0.0185168
0.0179991
0.0174514
0.0168768
0.0162787
0.0156599
0.0150241
0.0143723
0.0137063
0.105878
0.106318
0.107252
0.108686
0.11066
0.113198
0.116403
0.120262
0.12502
0.130571
0.137474
0.145402
0.155459
0.166998
0.181911
0.199289
0.222185
0.24934
0.286256
0.330126
0.105851
0.10629
0.107224
0.108656
0.110629
0.113165
0.116367
0.120223
0.124976
0.13052
0.137414
0.145328
0.155367
0.166879
0.181753
0.199071
0.221868
0.24888
0.285544
0.329
0.105796
0.106235
0.107168
0.108598
0.110568
0.1131
0.116297
0.120145
0.124887
0.130418
0.137294
0.145182
0.155185
0.166643
0.181437
0.198638
0.221238
0.247963
0.284125
0.326755
0.105714
0.106153
0.107084
0.108511
0.110476
0.113003
0.116191
0.120029
0.124756
0.130267
0.137114
0.144964
0.154914
0.16629
0.180966
0.19799
0.220298
0.246594
0.282006
0.323404
0.105605
0.106044
0.106973
0.108395
0.110355
0.112874
0.116052
0.119875
0.124581
0.130066
0.136876
0.144674
0.154553
0.165821
0.180343
0.197131
0.219051
0.244782
0.279193
0.318962
0.10547
0.105908
0.106834
0.108252
0.110204
0.112714
0.115877
0.119683
0.124364
0.129816
0.13658
0.144314
0.154105
0.165239
0.17957
0.196064
0.217505
0.242534
0.275698
0.313449
0.105308
0.105745
0.106668
0.10808
0.110024
0.112522
0.11567
0.119454
0.124104
0.129518
0.136227
0.143885
0.153572
0.164544
0.17865
0.194792
0.215666
0.239861
0.271534
0.306893
0.105119
0.105557
0.106476
0.107881
0.109815
0.112301
0.115429
0.119189
0.123804
0.129173
0.135817
0.143389
0.152955
0.163741
0.177589
0.19332
0.213543
0.236777
0.266716
0.299325
0.104905
0.105342
0.106258
0.107655
0.109578
0.112049
0.115156
0.118889
0.123463
0.128782
0.135354
0.142827
0.152257
0.16283
0.176391
0.191652
0.211147
0.233293
0.261261
0.290782
0.104665
0.105102
0.106013
0.107402
0.109313
0.111769
0.114852
0.118554
0.123083
0.128346
0.134837
0.142202
0.151481
0.161816
0.175062
0.189793
0.208491
0.229424
0.255189
0.28131
0.1044
0.104838
0.105744
0.107124
0.109022
0.11146
0.114517
0.118185
0.122665
0.127867
0.134269
0.141515
0.150628
0.160701
0.173608
0.187748
0.205587
0.225184
0.248525
0.270957
0.104111
0.104548
0.10545
0.10682
0.108704
0.111123
0.114152
0.117783
0.122209
0.127346
0.133651
0.140769
0.149701
0.159491
0.172034
0.185522
0.202451
0.220587
0.241294
0.259777
0.103797
0.104235
0.105132
0.106493
0.108362
0.110761
0.113758
0.11735
0.121718
0.126785
0.132984
0.139966
0.148704
0.158188
0.170346
0.183122
0.199101
0.215643
0.233529
0.247831
0.103459
0.103898
0.10479
0.106142
0.107995
0.110372
0.113336
0.116886
0.121192
0.126185
0.132272
0.13911
0.147638
0.156798
0.16855
0.180554
0.195553
0.210364
0.22527
0.23518
0.103099
0.103538
0.104426
0.105767
0.107605
0.109959
0.112888
0.116392
0.120633
0.125547
0.131515
0.138201
0.146507
0.155324
0.16665
0.177823
0.191824
0.20476
0.216563
0.221881
0.102715
0.103156
0.104039
0.105371
0.107193
0.109522
0.112413
0.115869
0.12004
0.124871
0.130712
0.137241
0.145307
0.153767
0.164643
0.174932
0.187924
0.198832
0.207469
0.207987
0.10231
0.102753
0.103632
0.104955
0.106759
0.109062
0.111913
0.115319
0.119418
0.124162
0.12987
0.136235
0.144048
0.152138
0.162542
0.171899
0.183877
0.192596
0.198065
0.19355
0.101884
0.102329
0.103207
0.104522
0.106312
0.10859
0.111401
0.114758
0.118785
0.123446
0.129022
0.135226
0.142782
0.150503
0.160421
0.168804
0.179785
0.186111
0.18845
0.1785
0.101436
0.101885
0.102762
0.104074
0.105852
0.108108
0.110883
0.114193
0.118153
0.122736
0.128184
0.134234
0.141529
0.148884
0.158291
0.165655
0.175629
0.179337
0.178643
0.162168
0.100965
0.10141
0.102279
0.103576
0.105329
0.107545
0.110264
0.113503
0.117361
0.121819
0.127077
0.132902
0.139825
0.146727
0.155421
0.161736
0.170375
0.171626
0.168215
0.144774
0.100974
0.101419
0.102289
0.103587
0.105339
0.107557
0.110276
0.113515
0.117374
0.121834
0.127093
0.132919
0.139845
0.146751
0.155448
0.161767
0.170411
0.17167
0.16827
0.144845
0.101445
0.101894
0.102771
0.104084
0.105862
0.108119
0.110894
0.114205
0.118166
0.12275
0.128199
0.134251
0.141548
0.148907
0.158317
0.165684
0.175663
0.179379
0.178696
0.162236
0.101892
0.102338
0.103215
0.104531
0.106321
0.1086
0.111412
0.114769
0.118797
0.123459
0.129036
0.135242
0.1428
0.150524
0.160445
0.168832
0.179817
0.186151
0.1885
0.178564
0.102318
0.102761
0.10364
0.104963
0.106768
0.109072
0.111924
0.11533
0.119429
0.124175
0.129884
0.13625
0.144065
0.152158
0.162565
0.171926
0.183908
0.192633
0.198111
0.193611
0.102723
0.103164
0.104047
0.105379
0.107201
0.109531
0.112422
0.115879
0.120051
0.124883
0.130725
0.137255
0.145323
0.153786
0.164665
0.174957
0.187953
0.198867
0.207513
0.208044
0.103106
0.103545
0.104433
0.105775
0.107613
0.109968
0.112897
0.116402
0.120643
0.125558
0.131527
0.138215
0.146522
0.155341
0.16667
0.177846
0.191852
0.204792
0.216604
0.221934
0.103466
0.103905
0.104797
0.106149
0.108003
0.11038
0.113345
0.116895
0.121202
0.126195
0.132284
0.139122
0.147652
0.156814
0.168569
0.180575
0.195579
0.210395
0.225307
0.23523
0.103803
0.104241
0.105138
0.106499
0.108369
0.110768
0.113766
0.117358
0.121727
0.126795
0.132995
0.139978
0.148717
0.158203
0.170363
0.183142
0.199124
0.215671
0.233564
0.247877
0.104116
0.104554
0.105456
0.106827
0.108711
0.11113
0.114159
0.117791
0.122217
0.127355
0.133661
0.14078
0.149713
0.159504
0.17205
0.185541
0.202473
0.220613
0.241326
0.259819
0.104405
0.104843
0.105749
0.10713
0.109028
0.111466
0.114523
0.118192
0.122672
0.127875
0.134278
0.141525
0.150639
0.160714
0.173623
0.187765
0.205607
0.225208
0.248554
0.270995
0.10467
0.105107
0.106018
0.107407
0.109318
0.111774
0.114858
0.11856
0.12309
0.128354
0.134845
0.142211
0.151491
0.161827
0.175076
0.189808
0.208508
0.229446
0.255216
0.281345
0.104909
0.105346
0.106262
0.107659
0.109582
0.112054
0.115162
0.118894
0.123469
0.128789
0.135361
0.142835
0.152266
0.16284
0.176403
0.191666
0.211163
0.233312
0.261284
0.290813
0.105123
0.10556
0.10648
0.107885
0.109819
0.112305
0.115434
0.119194
0.123809
0.129179
0.135824
0.143396
0.152963
0.16375
0.177599
0.193332
0.213557
0.236794
0.266737
0.299352
0.105311