/*--------------------------------*- C++ -*----------------------------------*\
  =========                 |
  \\      /  F ield         | OpenFOAM: The Open Source CFD Toolbox
   \\    /   O peration     | Website:  https://openfoam.org
    \\  /    A nd           | Version:  6.0
     \\/     M anipulation  |
\*---------------------------------------------------------------------------*/
FoamFile
{
    version     2.0;
    format      ascii;
    class       volVectorField;
    location    "1";
    object      U;
}
// * * * * * * * * * * * * * * * * * * * * * * * * * * * * * * * * * * * * * //

dimensions      [0 1 -1 0 0 0 0];

internalField   nonuniform List<vector> 
8000
(
(-0.0066721 0.00646605 -3.11316e-21)
(-0.0290009 0.0127614 1.671e-20)
(-0.0624377 0.0146987 -2.05449e-20)
(-0.0952683 0.0139398 1.56583e-20)
(-0.12259 0.0115029 7.4368e-21)
(-0.142503 0.00802845 -2.23391e-20)
(-0.154103 0.00393725 -1.77692e-21)
(-0.157172 -0.000481029 -2.61708e-22)
(-0.151963 -0.00501331 -9.41116e-21)
(-0.139022 -0.00949396 -4.27145e-21)
(-0.119087 -0.0137915 3.93448e-21)
(-0.0930086 -0.0178029 1.02825e-20)
(-0.0616985 -0.0214517 -1.89752e-21)
(-0.0260804 -0.0246856 1.28795e-23)
(0.0129464 -0.0274746 -6.1305e-21)
(0.054525 -0.0298062 3.01824e-21)
(0.0978388 -0.0316764 -2.36211e-21)
(0.14222 -0.033066 3.11764e-21)
(0.187431 -0.0338834 -7.52336e-24)
(0.231931 -0.0338624 3.74997e-23)
(-0.00746515 0.0191059 1.03754e-20)
(-0.0301459 0.0377638 -5.42032e-20)
(-0.0630193 0.0435397 -3.79708e-20)
(-0.094883 0.0413148 -2.54431e-20)
(-0.121051 0.0340944 -3.24054e-20)
(-0.139724 0.0237787 7.0828e-21)
(-0.150053 0.0116206 -3.5111e-20)
(-0.151859 -0.00151479 -6.44611e-21)
(-0.145422 -0.0149899 4.17526e-21)
(-0.131311 -0.0283093 2.21794e-20)
(-0.110285 -0.0410797 -2.1011e-20)
(-0.0832177 -0.0529931 2.64801e-20)
(-0.05104 -0.0638205 -1.71068e-20)
(-0.0146936 -0.0734059 -1.6074e-20)
(0.0249069 -0.0816601 -1.4961e-20)
(0.0668925 -0.088547 1.2415e-20)
(0.110438 -0.0940572 -6.05887e-22)
(0.154871 -0.09814 -3.39115e-21)
(0.199976 -0.100533 2.95875e-21)
(0.244222 -0.100461 -1.1204e-21)
(-0.00899853 0.0310916 1.0486e-19)
(-0.0323643 0.0616273 5.56809e-20)
(-0.0641355 0.0711871 6.27315e-20)
(-0.0940994 0.067619 5.41786e-21)
(-0.117996 0.0558038 3.47144e-20)
(-0.13422 0.0388543 3.9044e-20)
(-0.142041 0.0188372 -7.6694e-20)
(-0.141354 -0.00281232 -3.5438e-20)
(-0.132496 -0.0250322 -4.38759e-20)
(-0.116085 -0.0469945 4.29126e-20)
(-0.0929244 -0.0680402 -3.04216e-20)
(-0.0639287 -0.0876527 -3.49094e-20)
(-0.0300679 -0.105447 -1.32182e-20)
(0.00768171 -0.12116 1.01744e-20)
(0.0483772 -0.134645 1.86038e-21)
(0.0911293 -0.145843 4.4618e-21)
(0.135099 -0.154749 1.65985e-20)
(0.179609 -0.161303 -6.77268e-21)
(0.224481 -0.165107 -8.09461e-21)
(0.268224 -0.164936 5.76099e-21)
(-0.0111772 0.0420317 3.97948e-20)
(-0.0355311 0.0836536 -5.1237e-20)
(-0.0657146 0.0968934 -1.33492e-20)
(-0.0929173 0.0921705 2.81098e-20)
(-0.113494 0.0760613 7.3672e-20)
(-0.126127 0.0528145 1.5561e-19)
(-0.130264 0.0252791 1.47978e-19)
(-0.125918 -0.00454961 1.20066e-20)
(-0.11351 -0.0351857 8.17466e-20)
(-0.0937356 -0.0654653 1.17069e-19)
(-0.0674645 -0.094459 -7.68194e-20)
(-0.0356754 -0.121436 1.18898e-19)
(0.00060509 -0.145851 -1.77677e-20)
(0.0403527 -0.167333 8.903e-21)
(0.0825869 -0.185674 1.23533e-20)
(0.126394 -0.200801 1.08984e-20)
(0.170924 -0.212725 -2.71634e-20)
(0.215493 -0.221404 -1.54396e-20)
(0.259983 -0.226363 -1.43006e-20)
(0.302969 -0.226014 1.54858e-20)
(-0.0138686 0.0515992 -2.0014e-20)
(-0.0394675 0.103234 -2.14739e-19)
(-0.0676497 0.119985 -6.42999e-20)
(-0.0913289 0.114337 -1.55793e-19)
(-0.107635 0.094326 6.19503e-20)
(-0.115627 0.0652316 -9.03495e-20)
(-0.114991 0.0306406 3.49613e-20)
(-0.1059 -0.00690719 -1.80162e-19)
(-0.088897 -0.045505 9.61477e-20)
(-0.0647807 -0.0836506 -1.02851e-19)
(-0.0345156 -0.120139 -8.1864e-20)
(0.000835458 -0.154021 -8.45982e-20)
(0.0401721 -0.184587 6.57387e-20)
(0.0824104 -0.211357 -5.44196e-20)
(0.126527 -0.234063 6.62524e-20)
(0.171587 -0.252623 1.23598e-20)
(0.216733 -0.267081 2.5131e-20)
(0.261292 -0.277446 2.55697e-21)
(0.305212 -0.283233 -3.05277e-20)
(0.347183 -0.282603 3.13446e-20)
(-0.016914 0.0595496 9.9279e-20)
(-0.0439525 0.119876 3.18765e-21)
(-0.0698011 0.139888 4.14304e-20)
(-0.0893118 0.133555 1.40873e-19)
(-0.100515 0.110097 -1.60895e-20)
(-0.102928 0.075696 2.28035e-19)
(-0.0965324 0.0346184 1.03132e-19)
(-0.0817091 -0.0100747 1.08489e-20)
(-0.0591619 -0.0560619 2.36926e-19)
(-0.0298239 -0.101502 6.95444e-20)
(0.0052186 -0.144912 3.34725e-20)
(0.0447954 -0.185121 9.43564e-20)
(0.0877162 -0.221254 7.65362e-20)
(0.132828 -0.252722 1.1683e-19)
(0.179065 -0.279205 -1.02565e-19)
(0.225474 -0.300618 1.04644e-19)
(0.27121 -0.317053 -1.11427e-20)
(0.315623 -0.328604 -9.59959e-20)
(0.358742 -0.334841 1.0274e-19)
(0.399426 -0.333806 2.38136e-20)
(-0.0201422 0.0657303 -5.71714e-20)
(-0.0487372 0.133225 -1.13752e-19)
(-0.0720013 0.156144 -2.3155e-19)
(-0.0868242 0.149345 -7.30885e-21)
(-0.0922231 0.122926 4.39602e-20)
(-0.0882401 0.0838231 -2.904e-19)
(-0.075213 0.0369126 -2.11349e-19)
(-0.0537779 -0.014254 -3.07443e-20)
(-0.0248387 -0.0669522 -2.49351e-19)
(0.0104999 -0.119005 -1.61366e-19)
(0.0509999 -0.168652 -4.46553e-20)
(0.0953596 -0.214499 -1.34815e-19)
(0.142282 -0.25551 -8.22533e-21)
(0.19054 -0.290993 -1.48568e-19)
(0.239023 -0.320583 4.27066e-20)
(0.286777 -0.344206 -5.26536e-20)
(0.332988 -0.362015 2.50906e-20)
(0.377051 -0.374218 -4.92487e-20)
(0.419091 -0.3805 -8.81611e-20)
(0.458198 -0.378922 -1.71327e-20)
(-0.0233827 0.0700844 -2.82779e-20)
(-0.0535584 0.143076 -3.05832e-20)
(-0.0740579 0.168435 2.00126e-19)
(-0.083796 0.16133 -3.35042e-19)
(-0.08282 0.132429 4.77389e-20)
(-0.0717514 0.0892619 -1.98049e-19)
(-0.0513378 0.0372315 8.56002e-20)
(-0.0225198 -0.019659 3.90005e-19)
(0.0135541 -0.0782996 -3.1456e-20)
(0.0555685 -0.136185 -2.72195e-19)
(0.1021 -0.19128 4.19242e-20)
(0.15169 -0.241977 1.4184e-20)
(0.202919 -0.287082 -3.61448e-20)
(0.254477 -0.325813 1.69344e-20)
(0.305223 -0.357775 3.08806e-19)
(0.354211 -0.382919 -4.58592e-20)
(0.400688 -0.401476 -6.9765e-20)
(0.444126 -0.413786 -9.6403e-20)
(0.48476 -0.419706 9.72788e-20)
(0.521975 -0.417439 2.78584e-20)
(-0.0264775 0.0726454 1.19308e-19)
(-0.0581535 0.14937 -1.6397e-19)
(-0.0757586 0.176585 2.31837e-19)
(-0.0801218 0.169247 2.39104e-19)
(-0.072322 0.138303 2.17641e-19)
(-0.0535992 0.0917087 4.35112e-19)
(-0.025159 0.035302 2.77706e-19)
(0.0117038 -0.0265084 -5.91366e-19)
(0.055549 -0.0902506 2.96077e-19)
(0.104807 -0.153104 2.21502e-19)
(0.157832 -0.212769 -1.29493e-20)
(0.212979 -0.267434 2.20414e-19)
(0.268694 -0.315765 1.44186e-19)
(0.323583 -0.356907 -8.60752e-20)
(0.376483 -0.390454 2.25667e-19)
(0.426486 -0.416403 -2.70591e-19)
(0.472926 -0.435077 9.30784e-20)
(0.515393 -0.446965 9.76901e-20)
(0.554248 -0.452132 -1.17844e-20)
(0.589232 -0.449037 1.35863e-19)
(-0.0292913 0.0735256 2.64998e-19)
(-0.0622729 0.152194 1.75758e-20)
(-0.0768757 0.180562 -9.2644e-20)
(-0.0756544 0.17296 -9.43557e-20)
(-0.0606842 0.14034 -4.60529e-19)
(-0.0338465 0.0909231 7.2527e-20)
(0.00315339 0.0308868 1.81781e-19)
(0.0486169 -0.0350087 -9.53236e-20)
(0.100761 -0.102959 7.6144e-20)
(0.157714 -0.169847 -1.77315e-20)
(0.217568 -0.233127 -8.67804e-20)
(0.278466 -0.290801 8.84536e-20)
(0.338703 -0.341417 -2.88881e-19)
(0.396812 -0.384075 2.8836e-19)
(0.451625 -0.418385 -2.06441e-19)
(0.502305 -0.444414 6.55641e-20)
(0.548311 -0.462593 1.1914e-19)
(0.589391 -0.473566 -2.5508e-20)
(0.626059 -0.477629 -6.13138e-20)
(0.658457 -0.473587 -3.53124e-20)
(-0.0317175 0.0728991 -3.4812e-19)
(-0.06569 0.151755 -2.28071e-20)
(-0.0771709 0.18048 7.42509e-20)
(-0.0702007 0.172464 1.88891e-19)
(-0.0477873 0.138442 -2.63434e-19)
(-0.0124611 0.0867485 -2.29821e-19)
(0.0335372 0.023807 5.29744e-19)
(0.0880554 -0.0453296 -2.97687e-19)
(0.148913 -0.11656 -1.8723e-19)
(0.213885 -0.186497 -2.56803e-19)
(0.280759 -0.252373 1.63863e-19)
(0.347443 -0.312033 -1.2494e-20)
(0.412076 -0.36394 -2.8459e-19)
(0.473131 -0.407182 -3.98877e-19)
(0.529471 -0.44142 2.99022e-19)
(0.580367 -0.466815 -2.02439e-19)
(0.625451 -0.483925 2.72344e-19)
(0.664672 -0.493551 -7.66467e-20)
(0.698724 -0.496219 9.69172e-20)
(0.728178 -0.491154 -3.53962e-19)
(-0.0336808 0.0709819 -7.51618e-19)
(-0.0682072 0.148361 4.89659e-19)
(-0.0763985 0.176575 6.2794e-20)
(-0.0635197 0.167881 1.40763e-20)
(-0.0334285 0.132628 -2.96963e-19)
(0.0106992 0.0791318 4.36764e-19)
(0.0660557 0.0139692 4.11299e-20)
(0.129985 -0.0575724 -8.50993e-20)
(0.19985 -0.131136 -2.83983e-19)
(0.273019 -0.203099 2.97207e-19)
(0.346937 -0.270506 7.137e-19)
(0.419256 -0.331083 -1.56916e-19)
(0.48797 -0.383256 3.27149e-19)
(0.551522 -0.426139 -3.45161e-19)
(0.608849 -0.459483 -2.97965e-19)
(0.659384 -0.483572 1.76655e-19)
(0.702978 -0.499101 2.28067e-19)
(0.739829 -0.507027 -7.35573e-19)
(0.770835 -0.508094 9.59874e-20)
(0.797008 -0.501979 9.2917e-20)
(-0.0351353 0.0680108 5.67277e-19)
(-0.0696574 0.14239 2.06526e-19)
(-0.0743087 0.16919 9.757e-19)
(-0.0553236 0.159462 5.25582e-20)
(-0.0173197 0.123048 -1.05825e-19)
(0.0358901 0.0681414 -5.11658e-19)
(0.100902 0.00139197 4.34335e-19)
(0.174502 -0.071738 7.87215e-19)
(0.253538 -0.146682 5.01544e-19)
(0.334915 -0.219623 3.66034e-19)
(0.415703 -0.287467 3.03828e-19)
(0.493296 -0.347874 -5.09453e-19)
(0.565569 -0.399281 -1.32593e-19)
(0.630981 -0.440885 -1.03514e-19)
(0.688606 -0.47256 1.00964e-18)
(0.738096 -0.49474 -2.70215e-20)
(0.779577 -0.508266 -2.08298e-19)
(0.813533 -0.514237 -2.83245e-20)
(0.841089 -0.513592 5.30437e-19)
(0.863692 -0.506471 7.41229e-20)
(-0.0360601 0.064223 -1.65876e-20)
(-0.069902 0.134256 -5.43484e-19)
(-0.0706496 0.158749 -8.09857e-19)
(-0.0452826 0.147563 -2.28551e-19)
(0.000905533 0.109975 1.3137e-19)
(0.0634729 0.0539785 2.69703e-20)
(0.138387 -0.0137726 7.20856e-19)
(0.221818 -0.0876972 -8.86174e-19)
(0.310037 -0.16307 -3.36632e-19)
(0.399438 -0.235934 -6.5731e-19)
(0.486699 -0.303116 -5.34243e-19)
(0.568973 -0.362274 -4.55099e-19)
(0.644064 -0.411918 1.14592e-19)
(0.710516 -0.451377 -1.37769e-19)
(0.767614 -0.480692 5.17933e-19)
(0.815297 -0.50046 -2.87434e-19)
(0.854013 -0.511671 -7.61136e-19)
(0.884567 -0.515546 -1.08785e-19)
(0.908328 -0.513185 3.33907e-19)
(0.927142 -0.50517 -2.33244e-19)
(-0.0364514 0.0598399 -8.78033e-20)
(-0.0688242 0.124384 7.07059e-19)
(-0.0651685 0.145725 -8.91809e-19)
(-0.0330336 0.132631 2.00119e-19)
(0.0216768 0.0938014 -4.21385e-19)
(0.0938907 0.0369806 9.5275e-19)
(0.178907 -0.0312263 -6.75378e-19)
(0.27222 -0.105173 7.61504e-19)
(0.36946 -0.180032 -7.2857e-19)
(0.46648 -0.251773 2.92627e-19)
(0.559567 -0.317215 -1.48824e-19)
(0.645682 -0.374086 -3.47659e-19)
(0.722634 -0.421042 -3.96836e-19)
(0.789143 -0.457594 3.74724e-19)
(0.844786 -0.483974 -2.93451e-19)
(0.889858 -0.500957 -5.70085e-19)
(0.925171 -0.509669 5.66402e-19)
(0.951869 -0.511427 -6.73329e-19)
(0.971568 -0.507445 2.65778e-19)
(0.986469 -0.49872 -2.34174e-20)
(-0.0363144 0.0550537 -9.21336e-19)
(-0.0663217 0.113177 -9.82075e-19)
(-0.0576134 0.130612 1.08305e-19)
(-0.018194 0.115178 -9.42081e-19)
(0.0454607 0.0750198 -9.18994e-20)
(0.127631 0.0176138 -6.87292e-19)
(0.222895 -0.0505244 -1.59938e-19)
(0.326007 -0.123735 -4.65128e-19)
(0.431905 -0.197154 -6.2895e-21)
(0.535887 -0.266754 -2.02208e-19)
(0.633891 -0.329429 1.00512e-23)
(0.722765 -0.383063 -5.30046e-19)
(0.800429 -0.42652 5.31538e-19)
(0.865885 -0.459538 -7.4764e-19)
(0.919093 -0.482562 2.31413e-19)
(0.960759 -0.496536 -7.24783e-21)
(0.992088 -0.502701 -3.42783e-19)
(1.01457 -0.502439 7.54633e-19)
(1.03004 -0.49703 -1.95179e-19)
(1.041 -0.487832 -9.21737e-20)
(-0.0356543 0.0500209 1.05602e-18)
(-0.0622979 0.101003 5.61897e-19)
(-0.0477353 0.113902 5.16326e-19)
(-0.000378077 0.0957537 7.38042e-20)
(0.0727286 0.0542034 6.99534e-19)
(0.165177 -0.00354335 1.00685e-18)
(0.270758 -0.0710896 8.36294e-19)
(0.383421 -0.142815 6.2358e-20)
(0.49738 -0.213893 5.93283e-19)
(0.607401 -0.280384 9.05598e-19)
(0.709151 -0.339356 -2.31013e-19)
(0.799486 -0.388928 3.77253e-19)
(0.876567 -0.42823 3.04132e-19)
(0.939793 -0.45726 2.93428e-19)
(0.989587 -0.476678 1.50255e-18)
(1.02711 -0.487578 -5.5013e-19)
(1.05398 -0.491289 -3.431e-20)
(1.072 -0.489216 5.29305e-19)
(1.08322 -0.482656 -2.85827e-19)
(1.09033 -0.473252 1.20726e-19)
(-0.0344692 0.0448594 -8.77649e-19)
(-0.0566544 0.0881793 6.6915e-20)
(-0.0352919 0.0960627 -6.9622e-19)
(0.020783 0.0749254 -8.7269e-20)
(0.103919 0.0319797 5.12052e-19)
(0.206951 -0.0258258 -1.50244e-18)
(0.322808 -0.0922386 1.10317e-20)
(0.444574 -0.161735 6.89746e-19)
(0.565739 -0.229608 6.46364e-19)
(0.680605 -0.292109 -2.82063e-19)
(0.784695 -0.346567 8.40828e-20)
(0.875026 -0.391414 2.02835e-19)
(0.950148 -0.426091 -9.99005e-20)
(1.00997 -0.450868 -9.48007e-19)
(1.05544 -0.466606 2.44654e-19)
(1.0882 -0.474522 5.6438e-19)
(1.11025 -0.475995 -7.76203e-19)
(1.12368 -0.472418 3.7636e-19)
(1.13076 -0.465029 9.37264e-20)
(1.13421 -0.455683 3.86723e-19)
(-0.0327448 0.0396514 -1.39873e-19)
(-0.0492861 0.0749723 -6.2018e-19)
(-0.0200528 0.0775266 2.7555e-19)
(0.0456207 0.0532553 -7.98923e-21)
(0.139397 0.00900616 -1.2342e-18)
(0.253263 -0.0485121 1.88373e-19)
(0.379197 -0.113218 -3.50825e-20)
(0.509383 -0.179751 2.47189e-19)
(0.636631 -0.243617 -1.11845e-18)
(0.754897 -0.301357 -6.20322e-20)
(0.859737 -0.350653 -2.32023e-19)
(0.948509 -0.390306 2.29247e-19)
(1.0203 -0.420092 6.81216e-19)
(1.07561 -0.440542 -1.09752e-19)
(1.11597 -0.45269 3.36589e-20)
(1.14349 -0.457834 2.2902e-19)
(1.16049 -0.457366 -5.39048e-20)
(1.16933 -0.452623 3.87539e-19)
(1.17242 -0.444691 -2.45192e-19)
(1.17232 -0.43577 -3.3289e-19)
(-0.0304518 0.0344494 1.24225e-19)
(-0.0400797 0.0616002 2.29264e-20)
(-0.00180677 0.0586872 2.52665e-19)
(0.0744084 0.0312884 6.14833e-19)
(0.179425 -0.0140532 3.4235e-19)
(0.304263 -0.0708566 3.72955e-20)
(0.439872 -0.133248 -4.15014e-19)
(0.577537 -0.196105 1.06256e-19)
(0.709481 -0.255247 5.40372e-19)
(0.8295 -0.307604 -9.05835e-19)
(0.933391 -0.351281 6.64263e-19)
(1.01905 -0.385482 -4.83128e-19)
(1.08623 -0.410318 3.81883e-19)
(1.13611 -0.42655 -7.87462e-19)
(1.17077 -0.435333 8.10264e-19)
(1.19275 -0.438001 -8.41213e-19)
(1.20465 -0.435907 -1.97674e-19)
(1.20897 -0.430256 5.8263e-19)
(1.20816 -0.421984 -2.08222e-19)
(1.204 -0.414387 6.13696e-20)
(-0.0275464 0.0292847 -9.93796e-20)
(-0.0289156 0.0482426 9.10584e-19)
(0.0196303 0.0399004 -7.73891e-21)
(0.107344 0.00954402 -5.5651e-19)
(0.224129 -0.0365471 -3.81314e-19)
(0.359911 -0.092121 6.89746e-19)
(0.504552 -0.151562 -2.74811e-19)
(0.648484 -0.210075 -3.55879e-20)
(0.783511 -0.263893 5.46855e-19)
(0.903498 -0.310418 -6.85313e-19)
(1.00472 -0.348227 6.12959e-20)
(1.0858 -0.376937 -8.17613e-19)
(1.14727 -0.396961 3.99716e-19)
(1.191 -0.409243 -1.09688e-18)
(1.21962 -0.415005 1.63809e-18)
(1.23603 -0.415551 -3.02707e-19)
(1.24303 -0.412131 2.52718e-19)
(1.24321 -0.405762 -6.79454e-19)
(1.23877 -0.397512 2.694e-20)
(1.22934 -0.39286 6.16121e-19)
(-0.023972 0.0241763 -3.10199e-19)
(-0.0156726 0.0350538 2.6731e-19)
(0.0444055 0.0214931 -9.509e-19)
(0.144532 -0.0114855 1.40096e-18)
(0.273484 -0.0578501 -1.01162e-18)
(0.419962 -0.111601 4.71993e-20)
(0.57272 -0.167448 -1.08219e-18)
(0.721455 -0.221021 7.66019e-19)
(0.857781 -0.269058 -1.16119e-19)
(0.975905 -0.309494 -6.46337e-19)
(1.07283 -0.341402 -3.47105e-19)
(1.14804 -0.364783 3.77829e-19)
(1.20292 -0.380308 2.24551e-19)
(1.24003 -0.389042 -9.50311e-19)
(1.2625 -0.392214 3.56328e-19)
(1.27349 -0.391053 -4.54159e-19)
(1.27592 -0.386673 4.47896e-20)
(1.27239 -0.379965 -3.32033e-19)
(1.26494 -0.372003 9.93418e-20)
(1.25369 -0.36736 -4.43499e-19)
(-0.0196636 0.0191401 8.75772e-19)
(-0.000235047 0.0221768 -5.14805e-19)
(0.0726192 0.00377343 4.22344e-19)
(0.185977 -0.0313329 -5.32248e-19)
(0.327302 -0.0773732 9.08071e-19)
(0.483968 -0.128648 -2.76242e-20)
(0.643654 -0.180279 -1.11647e-19)
(0.795515 -0.228416 -8.19322e-20)
(0.93126 -0.27038 4.87449e-19)
(1.04573 -0.304675 7.93791e-19)
(1.13688 -0.330846 -4.66853e-19)
(1.20517 -0.34924 4.25312e-19)
(1.25287 -0.360715 7.20114e-19)
(1.28317 -0.366391 -5.11045e-19)
(1.29958 -0.367451 -9.11714e-19)
(1.30545 -0.36501 1.59128e-18)
(1.30373 -0.360043 -2.9159e-19)
(1.2969 -0.353311 -8.54983e-20)
(1.28684 -0.34578 7.57548e-19)
(1.2738 -0.341281 -1.964e-19)
(-0.0145528 0.0141961 -1.45243e-18)
(0.0174981 0.00975572 -9.6036e-19)
(0.104316 -0.0129595 -3.70138e-19)
(0.231574 -0.0495547 7.09974e-19)
(0.385241 -0.0945723 -1.59043e-18)
(0.5513 -0.142689 8.15833e-19)
(0.716469 -0.189535 1.01521e-19)
(0.869625 -0.231873 9.35592e-20)
(1.00291 -0.267652 -1.03597e-18)
(1.11208 -0.295942 -3.57563e-19)
(1.19621 -0.316722 -5.93014e-19)
(1.25683 -0.330608 5.49357e-19)
(1.29703 -0.338574 1.27952e-19)
(1.32055 -0.341732 1.16513e-21)
(1.33119 -0.341168 5.6452e-19)
(1.33238 -0.337856 -5.96716e-19)
(1.327 -0.33261 -1.94433e-20)
(1.31739 -0.326042 3.00355e-20)
(1.30526 -0.318967 8.62632e-20)
(1.29093 -0.314595 3.34871e-19)
(-0.0085729 0.00937396 4.67226e-19)
(0.0376046 -0.00205478 1.19814e-18)
(0.139478 -0.0284073 9.63662e-19)
(0.281104 -0.0657283 -3.29604e-19)
(0.446807 -0.108955 1.13885e-18)
(0.621179 -0.153237 -9.0658e-20)
(0.790172 -0.19482 -1.3536e-19)
(0.942721 -0.231144 8.01781e-20)
(1.07174 -0.260806 1.05747e-18)
(1.17417 -0.283404 5.98064e-19)
(1.25033 -0.29928 1.70472e-19)
(1.30281 -0.309235 1.9276e-20)
(1.33546 -0.314285 -9.80379e-19)
(1.35245 -0.315475 8.4219e-19)
(1.35775 -0.313761 1.2527e-19)
(1.35477 -0.309959 -2.21351e-19)
(1.34626 -0.304722 -8.2386e-19)
(1.33437 -0.298525 -4.47568e-20)
(1.3206 -0.292054 2.88397e-19)
(1.30536 -0.287951 -4.5277e-20)
(-0.00166423 0.00471622 -1.20948e-18)
(0.0601292 -0.0130833 5.05765e-19)
(0.178014 -0.0422679 -2.44585e-18)
(0.334242 -0.0794533 9.96306e-19)
(0.511382 -0.120084 -7.95364e-19)
(0.692719 -0.159904 5.90223e-19)
(0.863726 -0.195863 -8.98526e-19)
(1.01378 -0.226123 8.68161e-20)
(1.13689 -0.249907 -3.97271e-20)
(1.23142 -0.267273 2.16307e-19)
(1.29896 -0.278832 2.94049e-19)
(1.34313 -0.285488 -5.57746e-19)
(1.3684 -0.288227 2.89785e-19)
(1.37927 -0.28798 2.44959e-19)
(1.37975 -0.28555 9.47498e-19)
(1.37315 -0.28159 -4.30323e-19)
(1.36203 -0.276601 -2.44191e-19)
(1.34832 -0.270927 3.87405e-19)
(1.33333 -0.265141 1.68575e-19)
(1.31745 -0.261389 -3.82877e-19)
(0.00622159 0.00027972 1.0735e-18)
(0.0850764 -0.0231394 1.03507e-18)
(0.219757 -0.0542352 2.89619e-19)
(0.390554 -0.0903549 1.24552e-18)
(0.578241 -0.127592 6.11557e-19)
(0.764973 -0.162403 -1.08946e-18)
(0.936107 -0.19252 1.63241e-18)
(1.08186 -0.21683 -7.9466e-19)
(1.19767 -0.235125 7.62076e-19)
(1.28341 -0.247827 9.3924e-19)
(1.34199 -0.25572 -5.26004e-19)
(1.37792 -0.259724 1.01223e-19)
(1.39619 -0.260736 5.00724e-19)
(1.40146 -0.259542 3.30691e-19)
(1.3977 -0.256781 6.99729e-19)
(1.38803 -0.252947 -3.00666e-19)
(1.37479 -0.248403 -5.25551e-20)
(1.35967 -0.243386 3.61572e-19)
(1.34378 -0.238366 -8.39939e-20)
(1.3275 -0.235057 -4.20347e-21)
(0.0151177 -0.00386479 -5.57226e-19)
(0.112403 -0.032015 -2.04437e-18)
(0.264462 -0.0640029 4.80882e-19)
(0.449516 -0.0980908 -3.65032e-19)
(0.646585 -0.131177 -8.41733e-19)
(0.836975 -0.160548 -5.87601e-19)
(1.00635 -0.18476 -3.53523e-19)
(1.14618 -0.203391 8.64154e-19)
(1.25356 -0.216708 -5.04034e-19)
(1.32994 -0.22539 -4.99822e-19)
(1.37948 -0.230293 -5.91608e-19)
(1.40747 -0.232277 -9.80673e-20)
(1.41924 -0.232104 -8.14535e-20)
(1.4195 -0.230396 -1.16513e-18)
(1.41207 -0.227628 5.13069e-19)
(1.39986 -0.22415 -6.85034e-19)
(1.38494 -0.220202 1.81116e-19)
(1.36877 -0.215936 -1.37788e-18)
(1.35227 -0.211727 4.22419e-19)
(1.33577 -0.208924 4.85561e-19)
(0.0250388 -0.00763419 -1.39717e-19)
(0.142015 -0.0394891 1.00892e-18)
(0.311807 -0.0712715 6.35871e-20)
(0.510522 -0.10236 1.5601e-19)
(0.715572 -0.130618 -3.1764e-19)
(0.907786 -0.154257 -4.00574e-21)
(1.07361 -0.17266 -3.20486e-22)
(1.2061 -0.186017 -1.69268e-19)
(1.3042 -0.194961 6.22259e-19)
(1.37096 -0.200307 2.33116e-19)
(1.41163 -0.202889 9.78666e-19)
(1.43213 -0.203443 -2.69846e-19)
(1.43799 -0.202569 1.68359e-19)
(1.43385 -0.200716 -1.27346e-20)
(1.42334 -0.198208 4.2673e-19)
(1.40906 -0.195264 2.42586e-19)
(1.39284 -0.192027 5.40763e-19)
(1.37591 -0.188579 -8.44287e-19)
(1.35903 -0.185212 1.01245e-18)
(1.34246 -0.182969 -3.22368e-19)
(0.0359792 -0.0109356 -1.32545e-18)
(0.173762 -0.0453337 -4.11381e-19)
(0.361395 -0.0757581 3.23274e-19)
(0.572904 -0.102911 2.04419e-19)
(0.784346 -0.125775 2.05543e-19)
(0.976528 -0.143542 2.04635e-19)
(1.13713 -0.156381 -5.12628e-19)
(1.26114 -0.164987 -1.92109e-19)
(1.34942 -0.17022 7.16144e-20)
(1.40653 -0.172923 -5.56002e-19)
(1.43871 -0.173821 -2.27291e-19)
(1.45229 -0.173483 1.38812e-18)
(1.45288 -0.172326 -3.57606e-19)
(1.44496 -0.170636 -4.50643e-19)
(1.43188 -0.168595 -1.89775e-19)
(1.41596 -0.166319 1.42819e-19)
(1.39877 -0.163869 1.47383e-19)
(1.38134 -0.161279 -6.83205e-19)
(1.36424 -0.158766 9.47558e-19)
(1.34771 -0.15712 -8.23121e-19)
(0.0479107 -0.0136692 -1.51115e-19)
(0.20744 -0.0493221 4.33073e-20)
(0.412764 -0.0772065 -5.45825e-20)
(0.635954 -0.0995536 8.03611e-19)
(0.852068 -0.116589 4.2021e-20)
(1.0424 -0.128502 2.85235e-19)
(1.19633 -0.13616 -5.8854e-19)
(1.31098 -0.140621 -1.61087e-20)
(1.38916 -0.14284 7.61445e-19)
(1.43685 -0.143576 9.33584e-20)
(1.46103 -0.14338 -6.0988e-19)
(1.46834 -0.142623 -4.77639e-20)
(1.46432 -0.141537 -4.37162e-19)
(1.4532 -0.140253 4.50716e-19)
(1.43803 -0.138839 5.71283e-19)
(1.42084 -0.137323 -6.24763e-20)
(1.40296 -0.135711 -6.31156e-20)
(1.38521 -0.133996 2.01344e-19)
(1.36806 -0.132334 -5.95277e-19)
(1.35166 -0.131311 5.48337e-19)
(0.0607823 -0.0157323 1.51878e-19)
(0.242792 -0.0512376 -9.76995e-19)
(0.465396 -0.0753977 2.61534e-19)
(0.698938 -0.0921611 -8.09503e-19)
(0.917937 -0.103084 2.77891e-19)
(1.10472 -0.109315 -1.00722e-18)
(1.25074 -0.112288 3.96202e-19)
(1.35544 -0.11327 -1.2457e-19)
(1.42351 -0.113176 -4.02807e-21)
(1.46215 -0.112585 1.09705e-19)
(1.47896 -0.111827 -4.03677e-19)
(1.48068 -0.111059 -5.40907e-19)
(1.47268 -0.110333 -9.83664e-20)
(1.45891 -0.109649 -4.32625e-20)
(1.44207 -0.108978 -1.11144e-19)
(1.42393 -0.108285 -3.422e-20)
(1.40558 -0.107534 -9.93663e-20)
(1.38768 -0.106697 -8.30634e-20)
(1.37057 -0.10587 -2.28418e-19)
(1.35437 -0.105483 3.59054e-19)
(0.0745196 -0.0170221 3.63198e-19)
(0.279511 -0.0508817 -4.04038e-19)
(0.51873 -0.0701592 8.7074e-19)
(0.761126 -0.0806788 -3.74216e-19)
(0.981214 -0.0853619 9.94761e-19)
(1.16289 -0.0862235 1.6723e-20)
(1.30003 -0.0850991 4.76725e-19)
(1.39443 -0.0833019 -1.24183e-19)
(1.45258 -0.0815773 4.8955e-19)
(1.48272 -0.0802532 2.54291e-20)
(1.49284 -0.0794025 1.06574e-18)
(1.48966 -0.0789667 -7.2228e-19)
(1.4783 -0.078837 1.03234e-19)
(1.46235 -0.0788988 1.82141e-19)
(1.44421 -0.0790525 8.41843e-19)
(1.42539 -0.0792189 -3.00153e-19)
(1.40675 -0.079338 -5.51554e-20)
(1.38882 -0.079366 -2.71003e-19)
(1.37186 -0.0793501 -2.17184e-20)
(1.3559 -0.0796035 1.32088e-19)
(0.0890258 -0.0174401 -1.71992e-19)
(0.317247 -0.0480826 5.01327e-19)
(0.572176 -0.0613726 -5.16564e-19)
(0.821801 -0.0651243 2.02122e-19)
(1.04123 -0.0635965 -2.38752e-19)
(1.21644 -0.0595241 8.64637e-19)
(1.34397 -0.0549574 -1.19116e-19)
(1.42799 -0.0510888 2.7072e-19)
(1.47659 -0.0483845 -1.61455e-19)
(1.49886 -0.0468627 -1.82297e-21)
(1.503 -0.0463252 1.64145e-19)
(1.4956 -0.0465076 -1.19949e-19)
(1.48143 -0.0471597 3.07508e-19)
(1.46375 -0.0480789 -1.5061e-19)
(1.44463 -0.0491146 -6.13516e-19)
(1.42534 -0.0501609 5.95806e-19)
(1.40657 -0.0511461 -2.52769e-19)
(1.38872 -0.0520203 2.00503e-19)
(1.37195 -0.0527852 3.27378e-19)
(1.35629 -0.053676 1.34283e-19)
(0.104183 -0.0168952 4.29316e-19)
(0.355614 -0.0427021 -8.86098e-19)
(0.625129 -0.0489793 1.68433e-19)
(0.88028 -0.0455868 -1.2378e-19)
(1.0974 -0.0380256 -4.90786e-19)
(1.26499 -0.029558 -3.72315e-19)
(1.38244 -0.0222449 -7.37868e-20)
(1.45618 -0.0170013 -6.26186e-19)
(1.49575 -0.0139218 -3.30146e-20)
(1.51085 -0.0126774 -1.08331e-19)
(1.50974 -0.0127983 -2.84023e-19)
(1.49875 -0.0138325 -6.43524e-20)
(1.48229 -0.0154134 -2.04937e-19)
(1.46327 -0.0172738 -3.20549e-19)
(1.44345 -0.0192314 3.15237e-19)
(1.42387 -0.0211679 3.5642e-20)
(1.40509 -0.0230107 7.05524e-20)
(1.38739 -0.024709 -3.31815e-19)
(1.37088 -0.0262237 -1.18423e-20)
(1.35553 -0.0277469 -4.82483e-19)
(0.119852 -0.015307 4.63925e-19)
(0.394197 -0.0346418 3.1139e-19)
(0.676982 -0.0329838 -5.04654e-19)
(0.935929 -0.0222246 7.82694e-19)
(1.14921 -0.00894304 -8.60146e-20)
(1.30827 0.00330131 2.80345e-19)
(1.41538 0.0126467 9.46424e-20)
(1.47915 0.0185976 3.19318e-19)
(1.51031 0.0215024 -2.49012e-19)
(1.51897 0.022056 7.66437e-20)
(1.51332 0.0209877 -7.35514e-20)
(1.49934 0.0189127 -2.93612e-20)
(1.48107 0.0162875 5.63563e-20)
(1.46104 0.0134217 -9.96911e-20)
(1.44075 0.0105126 -2.72e-20)
(1.42104 0.00767939 -8.66011e-20)
(1.40235 0.00498757 -1.35159e-19)
(1.38486 0.00248553 8.87932e-20)
(1.36866 0.000248595 -1.1146e-19)
(1.35363 -0.00190416 4.91162e-19)
(0.135879 -0.012609 -2.28772e-19)
(0.432563 -0.0238475 -6.54567e-19)
(0.727141 -0.0134544 -8.57292e-20)
(0.988167 0.00474044 -2.57783e-20)
(1.19626 0.0233106 -2.87e-19)
(1.34609 0.0386575 -4.60095e-19)
(1.44283 0.0493238 1.43965e-19)
(1.49707 0.0553564 -1.96381e-19)
(1.5205 0.0575962 -2.10539e-19)
(1.52347 0.0571059 1.1249e-19)
(1.51396 0.0548527 -8.33822e-20)
(1.49756 0.0515856 -1.60309e-19)
(1.47789 0.0478249 -4.06504e-22)
(1.45715 0.0439025 1.06025e-19)
(1.43659 0.0400173 -1.00497e-19)
(1.41688 0.0362803 1.38846e-19)
(1.39836 0.0327441 3.91245e-20)
(1.38114 0.029453 8.94113e-20)
(1.36526 0.0265146 1.62761e-19)
(1.35059 0.023729 -1.39038e-19)
(0.152094 -0.00875109 2.17011e-19)
(0.470269 -0.0103129 -1.61588e-20)
(0.775036 0.0094771 9.97132e-20)
(1.03648 0.035029 -1.32066e-19)
(1.2382 0.0583575 1.37911e-20)
(1.37832 0.0760997 4.38783e-19)
(1.46486 0.0873966 -2.83318e-19)
(1.51012 0.0929373 1.13981e-19)
(1.52657 0.094084 9.70849e-20)
(1.52459 0.0922547 -2.6716e-19)
(1.51187 0.0886245 2.43494e-19)
(1.49355 0.0840457 1.22476e-21)
(1.47285 0.0790771 -1.59797e-19)
(1.45166 0.0740559 1.89521e-19)
(1.431 0.0691714 -7.2898e-20)
(1.41141 0.0645199 5.43843e-20)
(1.39313 0.0601377 -6.11501e-20)
(1.37623 0.0560643 -2.57766e-20)
(1.36069 0.052436 -1.93605e-19)
(1.34639 0.0490059 6.01299e-20)
(0.168316 -0.00370172 -7.08651e-20)
(0.506869 0.00591922 1.94852e-19)
(0.820132 0.035619 3.12549e-20)
(1.08041 0.0683118 1.2563e-19)
(1.27479 0.0957912 5.8729e-20)
(1.40494 0.115211 2.75318e-20)
(1.48157 0.126484 1.49226e-19)
(1.5185 0.131018 -1.83554e-20)
(1.52872 0.130706 6.15113e-20)
(1.52253 0.127297 9.63888e-20)
(1.50719 0.122138 4.44944e-20)
(1.48742 0.116155 3.09229e-20)
(1.46602 0.109921 1.23329e-19)
(1.4446 0.103764 -1.19456e-19)
(1.424 0.0978568 2.47604e-20)
(1.40462 0.0922758 -2.22958e-20)
(1.38664 0.087039 3.46343e-20)
(1.3701 0.0821821 2.84599e-20)
(1.35493 0.0778655 5.63965e-20)
(1.34101 0.0737704 1.69406e-21)
(0.184356 0.00255029 4.22548e-20)
(0.541929 0.0247563 3.83171e-20)
(0.861937 0.0647234 -5.31013e-20)
(1.11959 0.104217 3.30256e-20)
(1.30583 0.135185 1.78651e-20)
(1.42593 0.155572 -5.6153e-20)
(1.4931 0.166215 1.76781e-20)
(1.52242 0.169292 3.45836e-21)
(1.52718 0.167219 2.91138e-20)
(1.51745 0.162038 -7.66335e-20)
(1.50006 0.155235 1.71485e-22)
(1.47924 0.147776 1.99586e-20)
(1.45745 0.140231 -1.59694e-20)
(1.43601 0.132908 1.57679e-20)
(1.4156 0.125954 3.94582e-20)
(1.39652 0.119425 -2.19512e-20)
(1.3789 0.113319 6.44244e-21)
(1.36275 0.107671 2.29636e-20)
(1.34797 0.102659 -3.68007e-20)
(1.33444 0.097871 1.80465e-20)
(0.200022 0.00999461 1.13712e-19)
(0.575028 0.0460572 -6.26241e-20)
(0.900008 0.0964922 7.37472e-20)
(1.15371 0.142341 -5.45151e-20)
(1.33122 0.176101 -2.35749e-20)
(1.44137 0.196769 7.5889e-21)
(1.49962 0.206234 -2.23002e-20)
(1.52207 0.207469 7.86445e-20)
(1.52213 0.203389 -6.40906e-20)
(1.50952 0.196292 1.48869e-20)
(1.49058 0.187761 -1.10902e-20)
(1.46909 0.178776 -6.83117e-20)
(1.44716 0.169887 6.52874e-20)
(1.42588 0.16137 2.40226e-20)
(1.40578 0.153348 -2.3554e-20)
(1.38709 0.14585 5.42211e-20)
(1.36989 0.138858 -1.20571e-21)
(1.35416 0.132405 -5.03523e-20)
(1.3398 0.126684 3.64156e-20)
(1.32668 0.121172 1.1214e-20)
(0.215121 0.0185991 -4.01036e-20)
(0.605773 0.0696352 1.14348e-19)
(0.933959 0.130584 1.3214e-19)
(1.18252 0.182251 -6.19806e-20)
(1.35091 0.218094 1.06498e-19)
(1.45134 0.238399 1.64317e-19)
(1.50131 0.246199 -9.2919e-21)
(1.51765 0.245274 -2.65662e-20)
(1.51374 0.238998 1.31365e-19)
(1.49886 0.22988 6.28699e-20)
(1.47884 0.219566 -1.06023e-20)
(1.45702 0.209023 9.05455e-20)
(1.43519 0.198766 -9.34842e-20)
(1.41422 0.189037 1.4589e-19)
(1.39455 0.179925 -2.37402e-20)
(1.37632 0.17144 6.65576e-20)
(1.3596 0.163544 1.12792e-20)
(1.34433 0.156274 4.51552e-20)
(1.33041 0.149829 -4.28504e-20)
(1.31773 0.143562 1.08818e-20)
(0.229459 0.0283086 -6.1933e-20)
(0.633797 0.0952595 1.40487e-19)
(0.963461 0.166619 1.04827e-19)
(1.20587 0.223499 -1.5567e-20)
(1.36489 0.26072 1.59498e-19)
(1.45599 0.280066 -1.20138e-19)
(1.49836 0.285785 -6.83551e-21)
(1.50937 0.282445 1.01472e-19)
(1.50218 0.273837 3.20119e-20)
(1.4856 0.262633 4.35507e-20)
(1.46491 0.250505 -6.31341e-20)
(1.44306 0.238388 1.62807e-19)
(1.42154 0.226752 2.89528e-20)
(1.40104 0.215797 -1.38993e-19)
(1.38189 0.205583 1.9998e-19)
(1.36421 0.196095 -2.31793e-19)
(1.34802 0.187282 -1.03278e-19)
(1.33326 0.179184 1.87682e-20)
(1.3198 0.172001 9.74837e-20)
(1.3076 0.164952 -1.85558e-19)
(0.242852 0.0390462 -1.33017e-19)
(0.658771 0.12266 -3.16516e-19)
(0.988248 0.204187 -2.76553e-19)
(1.22364 0.265624 -3.66607e-19)
(1.37323 0.303538 -2.06219e-19)
(1.45546 0.321391 -4.20182e-19)
(1.49097 0.32468 5.3544e-20)
(1.49741 0.318734 -2.15451e-19)
(1.48761 0.307705 -2.32773e-20)
(1.46984 0.294384 3.48059e-20)
(1.44887 0.280434 -7.46914e-20)
(1.42726 0.266744 9.26715e-20)
(1.40623 0.253729 1.61264e-19)
(1.38634 0.241545 -2.26793e-19)
(1.36782 0.230222 3.60101e-20)
(1.35076 0.219724 1.00965e-19)
(1.33515 0.209985 1.66471e-19)
(1.32095 0.201055 -1.43653e-19)
(1.308 0.193123 -6.37269e-21)
(1.29631 0.185276 1.64695e-19)
(0.255125 0.0507133 -2.46596e-19)
(0.680409 0.151534 6.83686e-19)
(1.00812 0.242858 -1.19391e-19)
(1.23579 0.308163 1.57389e-19)