1.275 	2.15223e-18 	-2.76991e-20 	-0.272588 	0.0102859 	-3.37119e-22
1.825 	2.15223e-18 	-1.39322e-20 	-0.540331 	0.00163823 	5.22463e-21
2.375 	2.15223e-18 	1.38775e-18 	-0.356889 	-0.0056295 	-2.02118e-21
2.925 	2.15223e-18 	2.78958e-18 	-0.289809 	-0.00676137 	5.54728e-24
3.475 	2.15223e-18 	4.53849e-18 	-0.036419 	-0.00731377 	-1.31761e-22
4.025 	2.15223e-18 	6.28755e-18 	0.11052 	-0.0058648 	1.00885e-22
4.575 	2.15223e-18 	6.30203e-18 	0.303229 	-0.00528111 	-4.42874e-22
5.125 	2.15223e-18 	6.31666e-18 	0.444185 	-0.00402455 	5.79333e-22
5.675 	2.15223e-18 	6.33144e-18 	0.559699 	-0.00304761 	1.10062e-22
6.225 	2.15223e-18 	4.61166e-18 	0.641144 	-0.00230893 	2.33071e-22
