1.275 	2.15223e-18 	-2.76991e-20 	-0.133861 	-0.000646654 	-2.52617e-22
1.825 	2.15223e-18 	-1.39322e-20 	-0.267811 	-0.0371312 	3.44895e-21
2.375 	2.15223e-18 	-2.66896e-23 	-0.296774 	-0.0698418 	-1.5511e-21
