1.22 	3.45254e-18 	-6.98323e-18 	-0.125297 	0.00154018 	-4.26956e-22
1.66 	3.45254e-18 	-6.96118e-18 	-0.25023 	-0.000586025 	-2.17685e-23
2.1 	3.45254e-18 	-6.93894e-18 	-0.268463 	0.00498686 	-1.20795e-21
2.54 	3.45254e-18 	-8.30431e-18 	-0.372226 	0.0172194 	8.84526e-24
2.98 	3.45254e-18 	-8.28171e-18 	-0.425066 	0.0233936 	1.40549e-21
3.42 	3.45254e-18 	-6.87115e-18 	-0.449425 	0.0115885 	1.45967e-21
3.86 	3.45254e-18 	-6.84819e-18 	-0.341474 	-0.00642225 	2.70978e-22
4.3 	3.45254e-18 	-6.82504e-18 	-0.284596 	-0.019439 	9.11682e-22
4.74 	3.45254e-18 	-5.41391e-18 	-0.162253 	-0.0264232 	-4.2903e-22
5.18 	3.45254e-18 	-2.61482e-18 	-0.0833791 	-0.0242561 	-1.52168e-22
5.62 	3.45254e-18 	-1.2033e-18 	0.0226107 	-0.0170949 	4.40615e-23
6.06 	3.45254e-18 	-1.17937e-18 	0.101451 	-0.00820014 	4.14566e-23
6.5 	3.45254e-18 	-1.15524e-18 	0.187793 	0.000257017 	1.87712e-23
