/*--------------------------------*- C++ -*----------------------------------*\
  =========                 |
  \\      /  F ield         | OpenFOAM: The Open Source CFD Toolbox
   \\    /   O peration     | Website:  https://openfoam.org
    \\  /    A nd           | Version:  6.0
     \\/     M anipulation  |
\*---------------------------------------------------------------------------*/
FoamFile
{
    version     2.0;
    format      ascii;
    class       volScalarField;
    location    "20.6";
    object      p;
}
// * * * * * * * * * * * * * * * * * * * * * * * * * * * * * * * * * * * * * //

dimensions      [0 2 -2 0 0 0 0];

internalField   nonuniform List<scalar> 
8000
(
-0.268762
-0.269814
-0.270498
-0.27099
-0.2714
-0.271744
-0.272039
-0.272298
-0.27253
-0.272743
-0.272941
-0.273129
-0.273313
-0.273496
-0.273684
-0.273884
-0.2741
-0.274307
-0.274493
-0.274943
-0.268886
-0.269931
-0.27061
-0.271096
-0.2715
-0.271838
-0.272126
-0.272377
-0.272602
-0.272807
-0.272996
-0.273177
-0.273352
-0.273526
-0.273705
-0.273896
-0.274104
-0.274303
-0.274482
-0.274927
-0.269138
-0.270171
-0.270839
-0.271315
-0.271706
-0.272031
-0.272306
-0.272543
-0.272753
-0.272942
-0.273115
-0.273278
-0.273436
-0.273592
-0.273754
-0.273928
-0.274119
-0.274303
-0.274465
-0.274901
-0.269517
-0.270533
-0.271185
-0.271644
-0.272018
-0.272324
-0.272577
-0.272793
-0.27298
-0.273144
-0.273293
-0.27343
-0.27356
-0.273689
-0.273823
-0.27397
-0.274136
-0.274295
-0.274432
-0.274855
-0.270022
-0.271015
-0.271647
-0.272085
-0.272434
-0.272713
-0.272939
-0.273124
-0.273279
-0.273411
-0.273525
-0.273625
-0.273718
-0.273808
-0.273903
-0.274011
-0.274141
-0.274267
-0.274369
-0.274774
-0.27065
-0.271617
-0.272223
-0.272634
-0.272952
-0.273198
-0.273387
-0.273534
-0.273648
-0.273737
-0.273805
-0.273858
-0.273901
-0.27394
-0.273982
-0.27404
-0.274121
-0.274201
-0.274258
-0.274638
-0.2714
-0.272337
-0.272914
-0.273291
-0.273571
-0.273775
-0.27392
-0.274019
-0.274083
-0.274118
-0.27413
-0.274122
-0.274102
-0.274075
-0.274051
-0.274042
-0.27406
-0.27408
-0.274079
-0.274429
-0.272273
-0.273176
-0.273718
-0.274055
-0.274291
-0.274446
-0.274537
-0.27458
-0.274584
-0.274554
-0.274497
-0.274416
-0.274318
-0.27421
-0.274102
-0.274008
-0.273944
-0.273886
-0.273812
-0.274125
-0.273269
-0.274135
-0.274636
-0.274928
-0.275111
-0.275208
-0.275239
-0.275216
-0.27515
-0.275046
-0.274908
-0.274741
-0.27455
-0.274343
-0.27413
-0.273931
-0.273764
-0.273605
-0.273437
-0.273704
-0.274393
-0.275216
-0.275671
-0.275909
-0.276032
-0.276064
-0.276025
-0.275929
-0.275785
-0.275597
-0.275369
-0.275102
-0.274803
-0.274479
-0.274141
-0.273812
-0.273513
-0.273226
-0.272937
-0.273143
-0.275649
-0.276423
-0.276823
-0.277
-0.277055
-0.277015
-0.276899
-0.276723
-0.276494
-0.276215
-0.275887
-0.275511
-0.275091
-0.274632
-0.274147
-0.27366
-0.273196
-0.272742
-0.272293
-0.272417
-0.277042
-0.277759
-0.278098
-0.278204
-0.278183
-0.278062
-0.277863
-0.277601
-0.277282
-0.276907
-0.276474
-0.275982
-0.27543
-0.274822
-0.274168
-0.273492
-0.272826
-0.272156
-0.271491
-0.271496
-0.278583
-0.279232
-0.279498
-0.279525
-0.279417
-0.279207
-0.278919
-0.278565
-0.278153
-0.27768
-0.277141
-0.27653
-0.275841
-0.275072
-0.27423
-0.273336
-0.272423
-0.271477
-0.270517
-0.270341
-0.280279
-0.280849
-0.281029
-0.280964
-0.280759
-0.280451
-0.280064
-0.279615
-0.279107
-0.278536
-0.277892
-0.277164
-0.276338
-0.275405
-0.274361
-0.273222
-0.272017
-0.270722
-0.26936
-0.268905
-0.282143
-0.282617
-0.282698
-0.282526
-0.28221
-0.281792
-0.281298
-0.280746
-0.280139
-0.27947
-0.278724
-0.277883
-0.276926
-0.275829
-0.274578
-0.273175
-0.271636
-0.269914
-0.268011
-0.267129
-0.284186
-0.284549
-0.284512
-0.284217
-0.283773
-0.283228
-0.282615
-0.28195
-0.281238
-0.280468
-0.279622
-0.278674
-0.277592
-0.276341
-0.274887
-0.27321
-0.271306
-0.269086
-0.266489
-0.264968
-0.286425
-0.286656
-0.286483
-0.286042
-0.28545
-0.28476
-0.284009
-0.283218
-0.282388
-0.28151
-0.280561
-0.279509
-0.278311
-0.276918
-0.275275
-0.273336
-0.271063
-0.268315
-0.264897
-0.262466
-0.288879
-0.288958
-0.288623
-0.288014
-0.287248
-0.286388
-0.285478
-0.28454
-0.283577
-0.282579
-0.28152
-0.280362
-0.279057
-0.277539
-0.275731
-0.273553
-0.27093
-0.267647
-0.263284
-0.259525
-0.291573
-0.291475
-0.290953
-0.290147
-0.289179
-0.288123
-0.287028
-0.285919
-0.284802
-0.283668
-0.282491
-0.281232
-0.279839
-0.278238
-0.276333
-0.274004
-0.271102
-0.267257
-0.261625
-0.255749
-0.294541
-0.294237
-0.293498
-0.292464
-0.291264
-0.289982
-0.288673
-0.287369
-0.286079
-0.284796
-0.2835
-0.282161
-0.280739
-0.279185
-0.277431
-0.275392
-0.272928
-0.269561
-0.264056
-0.257491
-0.297822
-0.297279
-0.29629
-0.294996
-0.293532
-0.291995
-0.290446
-0.288924
-0.287441
-0.285999
-0.284587
-0.283195
-0.281816
-0.280461
-0.279175
-0.278079
-0.277413
-0.277572
-0.280028
-0.291642
-0.301464
-0.300642
-0.299367
-0.297781
-0.296023
-0.294202
-0.292391
-0.290631
-0.288942
-0.287333
-0.285805
-0.284366
-0.283041
-0.281884
-0.281007
-0.280613
-0.28105
-0.282837
-0.287105
-0.298414
-0.305521
-0.304376
-0.302777
-0.300865
-0.298785
-0.296658
-0.294565
-0.292554
-0.29065
-0.288869
-0.287224
-0.285738
-0.284455
-0.283456
-0.282875
-0.282923
-0.283911
-0.28624
-0.290475
-0.29908
-0.310054
-0.308531
-0.306568
-0.3043
-0.301872
-0.29942
-0.297033
-0.294761
-0.292637
-0.290679
-0.288908
-0.287356
-0.286075
-0.285148
-0.2847
-0.284904
-0.285975
-0.288151
-0.291677
-0.297622
-0.315122
-0.313163
-0.310794
-0.308141
-0.305343
-0.302551
-0.299859
-0.29732
-0.294966
-0.292819
-0.290899
-0.289237
-0.287882
-0.286903
-0.286395
-0.286471
-0.287251
-0.288835
-0.291309
-0.294854
-0.320785
-0.318324
-0.315508
-0.312442
-0.309257
-0.306112
-0.303105
-0.300288
-0.297688
-0.295323
-0.293209
-0.291367
-0.289833
-0.288654
-0.287888
-0.287597
-0.287828
-0.288597
-0.289926
-0.291554
-0.327097
-0.324066
-0.320761
-0.317259
-0.31367
-0.31016
-0.306825
-0.303709
-0.300832
-0.298201
-0.29582
-0.293699
-0.291856
-0.290318
-0.289114
-0.288266
-0.287784
-0.287644
-0.287847
-0.287985
-0.334102
-0.33043
-0.326599
-0.322639
-0.31863
-0.31474
-0.311056
-0.307608
-0.304402
-0.301429
-0.298682
-0.296158
-0.293862
-0.291806
-0.290002
-0.288458
-0.287165
-0.2861
-0.285254
-0.284249
-0.341832
-0.337451
-0.33306
-0.328624
-0.324179
-0.319887
-0.315819
-0.311984
-0.308369
-0.304951
-0.301713
-0.298643
-0.295742
-0.293019
-0.290483
-0.288141
-0.285989
-0.284014
-0.282207
-0.280285
-0.350302
-0.345151
-0.34017
-0.335242
-0.330342
-0.325614
-0.321106
-0.316804
-0.312672
-0.308679
-0.304801
-0.301032
-0.297379
-0.293858
-0.290487
-0.287282
-0.284251
-0.281397
-0.278709
-0.276004
-0.359509
-0.353534
-0.347941
-0.342504
-0.337121
-0.331907
-0.32688
-0.321998
-0.317213
-0.312489
-0.307813
-0.303193
-0.298654
-0.294229
-0.289951
-0.285848
-0.281941
-0.278242
-0.274738
-0.271322
-0.369426
-0.362584
-0.356362
-0.3504
-0.344493
-0.338719
-0.333063
-0.32746
-0.321858
-0.316234
-0.310599
-0.304989
-0.299455
-0.29405
-0.288824
-0.283816
-0.27905
-0.274543
-0.270275
-0.266193
-0.379997
-0.372259
-0.365399
-0.358889
-0.3524
-0.345965
-0.339538
-0.333044
-0.326443
-0.319748
-0.313006
-0.306291
-0.299682
-0.293255
-0.287069
-0.281166
-0.275571
-0.270298
-0.265314
-0.260597
-0.391133
-0.382487
-0.374984
-0.367893
-0.360741
-0.353514
-0.346144
-0.338568
-0.330784
-0.322855
-0.314882
-0.306977
-0.29925
-0.291787
-0.284653
-0.277886
-0.271504
-0.265508
-0.259852
-0.254536
-0.40271
-0.393162
-0.385013
-0.377293
-0.369371
-0.361189
-0.352682
-0.343825
-0.334681
-0.325382
-0.316085
-0.306943
-0.298084
-0.289601
-0.281552
-0.273963
-0.266841
-0.260173
-0.253891
-0.248018
-0.414565
-0.404138
-0.39534
-0.386925
-0.378097
-0.368772
-0.35892
-0.348589
-0.337931
-0.327158
-0.316483
-0.306092
-0.29612
-0.286653
-0.277737
-0.26938
-0.261572
-0.254285
-0.247427
-0.241046
-0.426493
-0.415228
-0.405773
-0.396577
-0.386681
-0.376009
-0.364605
-0.352627
-0.340336
-0.328026
-0.31596
-0.30434
-0.293297
-0.282903
-0.273179
-0.264115
-0.255681
-0.24783
-0.240449
-0.233617
-0.43825
-0.426205
-0.416078
-0.405991
-0.394846
-0.382617
-0.369471
-0.355708
-0.341707
-0.327841
-0.314407
-0.301607
-0.289558
-0.278305
-0.267843
-0.258138
-0.249141
-0.240787
-0.232939
-0.225717
-0.449552
-0.436798
-0.425976
-0.41487
-0.402285
-0.388298
-0.373251
-0.357608
-0.34187
-0.326471
-0.311725
-0.297821
-0.284845
-0.272812
-0.261688
-0.251413
-0.241921
-0.233127
-0.224871
-0.217325
-0.460083
-0.446704
-0.435152
-0.422885
-0.408668
-0.392749
-0.375685
-0.358119
-0.340664
-0.323796
-0.307824
-0.292909
-0.2791
-0.266375
-0.254669
-0.243901
-0.233984
-0.224815
-0.216214
-0.208412
-0.469502
-0.455587
-0.443263
-0.429686
-0.413662
-0.395674
-0.37653
-0.357053
-0.337946
-0.319706
-0.302619
-0.286802
-0.272263
-0.25894
-0.24674
-0.235557
-0.22529
-0.215815
-0.206935
-0.198948
-0.477442
-0.463089
-0.449942
-0.434912
-0.416934
-0.396791
-0.375562
-0.354239
-0.333589
-0.314105
-0.296031
-0.279435
-0.264276
-0.250457
-0.237853
-0.226339
-0.2158
-0.206091
-0.197
-0.188901
-0.483533
-0.46884
-0.454819
-0.438207
-0.41817
-0.395844
-0.372585
-0.349529
-0.327482
-0.306905
-0.287988
-0.270744
-0.255084
-0.240874
-0.227962
-0.216207
-0.205477
-0.195607
-0.186377
-0.17824
-0.487405
-0.472472
-0.457528
-0.439231
-0.417082
-0.392607
-0.367429
-0.342799
-0.319528
-0.298028
-0.278426
-0.260673
-0.244636
-0.230146
-0.217027
-0.205121
-0.194285
-0.184334
-0.175039
-0.16694
-0.488701
-0.473625
-0.457719
-0.437671
-0.413415
-0.386887
-0.359953
-0.333944
-0.309647
-0.28741
-0.267287
-0.249172
-0.232887
-0.218232
-0.205011
-0.193051
-0.182197
-0.172246
-0.162966
-0.154981
-0.487087
-0.471963
-0.455072
-0.433253
-0.406955
-0.378529
-0.350047
-0.322884
-0.297778
-0.274998
-0.254527
-0.236201
-0.219801
-0.205101
-0.191886
-0.179972
-0.169193
-0.159326
-0.150141
-0.14235
-0.482262
-0.467184
-0.449308
-0.425747
-0.397532
-0.367414
-0.33763
-0.309561
-0.283874
-0.260754
-0.24011
-0.221727
-0.20535
-0.190728
-0.177632
-0.165867
-0.155257
-0.145563
-0.136559
-0.129039
-0.473971
-0.459031
-0.440195
-0.414973
-0.385024
-0.353464
-0.322653
-0.29394
-0.267908
-0.244653
-0.224016
-0.205732
-0.189517
-0.1751
-0.162238
-0.150728
-0.140386
-0.130956
-0.12222
-0.115051
-0.462007
-0.447296
-0.427557
-0.400806
-0.369353
-0.336639
-0.305094
-0.27601
-0.249872
-0.226687
-0.206235
-0.188208
-0.172296
-0.158211
-0.145701
-0.134556
-0.124583
-0.115512
-0.107135
-0.100396
-0.446222
-0.431831
-0.411276
-0.383177
-0.350494
-0.316938
-0.284964
-0.255782
-0.229774
-0.206865
-0.186774
-0.169161
-0.153692
-0.140068
-0.128029
-0.11736
-0.107862
-0.0992481
-0.0913276
-0.0850985
-0.426528
-0.41255
-0.391299
-0.362073
-0.328464
-0.294395
-0.262301
-0.233293
-0.207647
-0.185211
-0.165653
-0.148606
-0.13372
-0.120685
-0.109236
-0.0991576
-0.0902407
-0.0821901
-0.0748283
-0.0691974
-0.402904
-0.389432
-0.367631
-0.337537
-0.30333
-0.269083
-0.237175
-0.208603
-0.183542
-0.161767
-0.142908
-0.126574
-0.112403
-0.100082
-0.0893428
-0.0799671
-0.0717416
-0.0643642
-0.0576735
-0.0527359
-0.375392
-0.36252
-0.340344
-0.309664
-0.2752
-0.24111
-0.209684
-0.181798
-0.157529
-0.136594
-0.118588
-0.103104
-0.0897756
-0.0782871
-0.0683716
-0.0598096
-0.0523849
-0.0457956
-0.0398948
-0.0357377
-0.3441
-0.331922
-0.309565
-0.278603
-0.244224
-0.210617
-0.179954
-0.152987
-0.129705
-0.10977
-0.0927563
-0.0782474
-0.0658768
-0.0553305
-0.0463453
-0.0387037
-0.03219
-0.0265088
-0.0215161
-0.0181945
-0.309196
-0.297808
-0.27548
-0.244546
-0.210593
-0.177779
-0.148141
-0.122307
-0.100185
-0.0813951
-0.0654952
-0.0520684
-0.0407529
-0.0312423
-0.0232814
-0.0166592
-0.0111664
-0.00651737
-0.00254706
-0.000105967
-0.270909
-0.260405
-0.238325
-0.207733
-0.174533
-0.142805
-0.114432
-0.0899215
-0.069111
-0.0515894
-0.0369049
-0.0246459
-0.014461
-0.00605762
0.00080473
0.0063249
0.0106997
0.0141983
0.0170079
0.0184016
-0.229519
-0.219991
-0.198382
-0.16844
-0.136304
-0.10593
-0.0790376
-0.0560199
-0.0366516
-0.0204983
-0.00710733
0.00392279
0.0129266
0.0201753
0.0258863
0.0302429
0.0334251
0.0356473
0.0370328
0.0369362
-0.185357
-0.176892
-0.155976
-0.126981
-0.0961986
-0.0674218
-0.042201
-0.0208205
-0.00300119
0.0117082
0.0237566
0.0335304
0.0413406
0.0474261
0.0519704
0.0551352
0.0570605
0.0577865
0.0572084
0.0550549
-0.138793
-0.131471
-0.111465
-0.0836964
-0.0545333
-0.0275724
-0.00419118
0.0154283
0.0316121
0.0448256
0.0555139
0.0640502
0.0707233
0.0757376
0.0792399
0.0813603
0.0821251
0.0811808
0.078068
0.0737986
-0.0902291
-0.0841261
-0.0652342
-0.0389514
-0.0116473
0.0133038
0.0346975
0.0524467
0.0669194
0.0785935
0.0879155
0.0952571
0.100904
0.10506
0.107884
0.109523
0.109881
0.108113
0.103523
0.0988908
-0.0400983
-0.035278
-0.0176898
0.00687229
0.0321053
0.0548772
0.0741537
0.089934
0.102621
0.112701
0.120622
0.126762
0.131418
0.134834
0.137252
0.138947
0.139892
0.139113
0.13635
0.139839
0.0111581
0.0146387
0.0307505
0.0533841
0.0763629
0.0968119
0.113861
0.127585
0.138413
0.146835
0.153294
0.158159
0.161729
0.164257
0.166004
0.16723
0.167924
0.167617
0.167198
0.172833
0.0630795
0.0651749
0.0796604
0.100188
0.120762
0.138772
0.153503
0.1651
0.174008
0.180715
0.185653
0.189183
0.191599
0.193151
0.194089
0.194632
0.194763
0.194191
0.193819
0.198349
0.115202
0.11588
0.128613
0.146892
0.164943
0.180427
0.192776
0.202191
0.209129
0.214068
0.217426
0.219548
0.220714
0.221164
0.221125
0.220795
0.220169
0.219025
0.218108
0.221151
0.167064
0.166304
0.177187
0.193108
0.208554
0.221457
0.231385
0.238587
0.243525
0.246664
0.248403
0.249066
0.248917
0.248175
0.247044
0.24569
0.244099
0.242073
0.240298
0.241954
0.218209
0.216005
0.224969
0.23846
0.251256
0.261554
0.269051
0.274033
0.276964
0.27829
0.27839
0.277568
0.276065
0.274083
0.271802
0.269362
0.266732
0.263739
0.261031
0.261357
0.268193
0.264554
0.271557
0.282584
0.292721
0.300425
0.305507
0.30829
0.309229
0.308754
0.307221
0.30491
0.302045
0.298805
0.29535
0.291797
0.288105
0.284125
0.280481
0.27955
0.316586
0.311534
0.316568
0.325133
0.332637
0.337788
0.340504
0.341131
0.34012
0.337878
0.334739
0.330963
0.326752
0.322268
0.317652
0.312998
0.308262
0.303322
0.298765
0.296639
0.362975
0.35655
0.359633
0.365774
0.370708
0.373379
0.373802
0.372344
0.369446
0.365493
0.360799
0.355601
0.350084
0.344392
0.338648
0.332929
0.327191
0.321335
0.315905
0.312645
0.406971
0.399225
0.400406
0.404197
0.406654
0.406947
0.405177
0.401728
0.397027
0.391441
0.38526
0.378704
0.371938
0.365092
0.358272
0.351542
0.344857
0.338142
0.331884
0.327554
0.448206
0.439206
0.438562
0.440107
0.440213
0.438258
0.434419
0.429093
0.422693
0.415569
0.407988
0.400152
0.392211
0.38428
0.376449
0.368772
0.361207
0.353694
0.346661
0.341327
0.486338
0.476166
0.4738
0.473234
0.471144
0.467094
0.461332
0.454262
0.446287
0.437734
0.428854
0.419831
0.410801
0.401865
0.393099
0.384549
0.376176
0.367932
0.360181
0.353917
0.521054
0.509804
0.505843
0.503331
0.499222
0.493255
0.485735
0.477073
0.467659
0.457802
0.447737
0.437633
0.42761
0.417758
0.408142
0.398799
0.389695
0.380793
0.372386
0.36527
0.552072
0.53985
0.534442
0.530172
0.524247
0.516559
0.507464
0.497376
0.486673
0.475651
0.464525
0.453453
0.442543
0.431873
0.4215
0.41145
0.401698
0.392211
0.383217
0.375335
0.579138
0.566061
0.559377
0.553558
0.546039
0.536844
0.526371
0.515037
0.503209
0.491168
0.479116
0.467199
0.455515
0.444133
0.433098
0.422434
0.412119
0.402124
0.392615
0.384062
0.602034
0.58823
0.580454
0.573315
0.564443
0.553969
0.542328
0.529939
0.517158
0.504254
0.49142
0.478788
0.466449
0.454464
0.442871
0.431689
0.4209
0.410477
0.400531
0.391406
0.620575
0.606179
0.597513
0.589299
0.579325
0.567815
0.555227
0.541983
0.52843
0.514827
0.501358
0.488148
0.475279
0.462806
0.450761
0.43916
0.427988
0.41722
0.406918
0.397328
0.634612
0.619766
0.610421
0.60139
0.590581
0.578284
0.564979
0.551087
0.536949
0.522817
0.508868
0.495219
0.48195
0.469107
0.456721
0.444803
0.433342
0.422313
0.411741
0.401798
0.644032
0.628883
0.619082
0.6095
0.59813
0.585304
0.571517
0.55719
0.542659
0.528173
0.513901
0.499958
0.48642
0.47333
0.460714
0.448584
0.43693
0.425725
0.414972
0.40479
0.64876
0.633459
0.623427
0.613569
0.601917
0.588826
0.574797
0.560251
0.545523
0.530858
0.516425
0.502335
0.488661
0.475447
0.462716
0.450479
0.438728
0.427435
0.416591
0.406289
0.648758
0.633457
0.623425
0.613567
0.601915
0.588824
0.574795
0.560249
0.545521
0.530857
0.516423
0.502333
0.488659
0.475445
0.462714
0.450477
0.438726
0.427434
0.416589
0.406287
0.644026
0.628877
0.619075
0.609494
0.598124
0.585299
0.571512
0.557184
0.542654
0.528167
0.513895
0.499953
0.486414
0.473324
0.460709
0.448578
0.436924
0.42572
0.414966
0.404785
0.634601
0.619755
0.610411
0.60138
0.590572
0.578275
0.56497
0.551077
0.536939
0.522808
0.508858
0.49521
0.48194
0.469098
0.456712
0.444794
0.433333
0.422304
0.411733
0.401789
0.62056
0.606164
0.597498
0.589285
0.579312
0.567801
0.555214
0.541969
0.528416
0.514814
0.501345
0.488135
0.475266
0.462793
0.450749
0.439147
0.427976
0.417207
0.406906
0.397316
0.602015
0.588211
0.580436
0.573297
0.564425
0.553952
0.542311
0.529922
0.517141
0.504237
0.491403
0.478771
0.466433
0.454447
0.442855
0.431672
0.420884
0.410461
0.400515
0.39139
0.579114
0.566038
0.559354
0.553535
0.546017
0.536822
0.526349
0.515016
0.503188
0.491147
0.479096
0.467179
0.455495
0.444112
0.433078
0.422414
0.4121
0.402104
0.392596
0.384043
0.552043
0.539822
0.534415
0.530145
0.52422
0.516533
0.507438
0.497351
0.486648
0.475626
0.464501
0.453429
0.442519
0.431849
0.421476
0.411426
0.401675
0.392187
0.383193
0.375313
0.521021
0.509771
0.505811
0.503299
0.499191
0.493225
0.485705
0.477044
0.467629
0.457773
0.447708
0.437604
0.427582
0.41773
0.408115
0.398771
0.389668
0.380766
0.372359
0.365244
0.4863
0.476128
0.473762
0.473198
0.471108
0.467059
0.461298
0.454228
0.446253
0.437701
0.428821
0.419799
0.410769
0.401833
0.393068
0.384517
0.376145
0.367902
0.360151
0.353887
0.448162
0.439163
0.43852
0.440065
0.440173
0.438218
0.43438
0.429054
0.422655
0.415531
0.40795
0.400115
0.392175
0.384244
0.376413
0.368736
0.361172
0.353659
0.346626
0.341294
0.406922
0.399176
0.400358
0.40415
0.406608
0.406902
0.405133
0.401685
0.396984
0.391399
0.385218
0.378663
0.371898
0.365052
0.358232
0.351502
0.344818
0.338103
0.331846
0.327517
0.362921
0.356495
0.35958
0.365722
0.370657
0.373329
0.373753
0.372296
0.369398
0.365447
0.360753
0.355556
0.350039
0.344348
0.338604
0.332886
0.327148
0.321293
0.315863
0.312604
0.316525
0.311474
0.316508
0.325075
0.332581
0.337733
0.34045
0.341078
0.340068
0.337827
0.334688
0.330913
0.326703
0.32222
0.317604
0.312951
0.308215
0.303275
0.298719
0.296594
0.268126
0.264486
0.271491
0.28252
0.292659
0.300364
0.305448
0.308232
0.309172
0.308698
0.307165
0.304855
0.301991
0.298752
0.295298
0.291746
0.288053
0.284074
0.280431
0.279501
0.218135
0.215931
0.224896
0.23839
0.251188
0.261488
0.268986
0.27397
0.276902
0.278229
0.27833
0.277508
0.276007
0.274025
0.271745
0.269306
0.266677
0.263684
0.260977
0.261304
0.166982
0.166222
0.177108
0.193031
0.20848
0.221385
0.231315
0.238518
0.243457
0.246598
0.248337
0.249002
0.248853
0.248112
0.246982
0.24563
0.244039
0.242014
0.24024
0.241897
0.115113
0.115791
0.128527
0.146808
0.164862
0.180348
0.192699
0.202116
0.209055
0.213996
0.217355
0.219478
0.220645
0.221096
0.221059
0.220729
0.220104
0.218961
0.218045
0.221089
0.0629822
0.0650781
0.0795662
0.100097
0.120674
0.138687
0.153421
0.165019
0.173929
0.180637
0.185577
0.189108
0.191525
0.193079
0.194018
0.194561
0.194693
0.194122
0.193751
0.198283
0.0110525
0.0145337
0.0306484
0.0532856
0.0762679
0.09672
0.113771
0.127498
0.138328
0.146752
0.153212
0.158078
0.16165
0.164179
0.165927
0.167154
0.167849
0.167543
0.167125
0.172762
-0.0402125
-0.0353915
-0.0178002
0.00676605
0.0320029
0.0547783
0.0740577
0.0898404
0.102529
0.112611
0.120535
0.126675
0.131334
0.134751
0.13717
0.138865
0.139812
0.139034
0.136271
0.139761
-0.0903522
-0.0842484
-0.065353
-0.0390658
-0.0117573
0.0131975
0.0345945
0.0523465
0.0668216
0.0784979
0.0878218
0.0951651
0.100814
0.104971
0.107796
0.109436
0.109795
0.108028
0.103438
0.0988058
-0.138925
-0.131603
-0.111593
-0.0838191
-0.0546512
-0.0276862
-0.00430131
0.0153212
0.0315078
0.0447237
0.055414
0.0639523
0.070627
0.0756428
0.0791464
0.0812679
0.0820338
0.0810902
0.077978
0.0737086
-0.185499
-0.177033
-0.156113
-0.127112
-0.0963247
-0.0675433
-0.0423184
-0.0209344
-0.00311216
0.0115999
0.0236506
0.0334265
0.0412386
0.0473257
0.0518715
0.0550376
0.0569641
0.0576911
0.0571139
0.0549608
-0.229671
-0.220142
-0.198528
-0.16858
-0.136439
-0.106059
-0.0791624
-0.0561409
-0.0367694
-0.0206132
-0.00721954
0.00381289
0.0128188
0.0200693
0.0257821
0.0301401
0.0333237
0.0355472
0.0369339
0.0368379
-0.27107
-0.260565
-0.23848
-0.207882
-0.174676
-0.142942
-0.114564
-0.0900497
-0.0692356
-0.0517107
-0.0370234
-0.0247619
-0.0145746
-0.00616916
0.000695081
0.00621697
0.0105934
0.0140935
0.0169046
0.0182991
-0.309367
-0.297978
-0.275645
-0.244704
-0.210744
-0.177925
-0.148282
-0.122443
-0.100316
-0.0815231
-0.06562
-0.0521904
-0.0408723
-0.0313594
-0.0233965
-0.0167722
-0.0112777
-0.0066269
-0.00265495
-0.000212725
-0.34428
-0.332101
-0.30974
-0.27877
-0.244384
-0.21077
-0.180102
-0.15313
-0.129843
-0.109905
-0.0928874
-0.0783754
-0.0660021
-0.0554532
-0.0464657
-0.0388219
-0.0323062
-0.0266231
-0.0216285
-0.0183056
-0.375582
-0.362709
-0.340528
-0.309841
-0.275369
-0.241272
-0.20984
-0.181948
-0.157675
-0.136735
-0.118725
-0.103238
-0.0899067
-0.0784154
-0.0684973
-0.059933
-0.0525061
-0.0459146
-0.0400117
-0.0358532
-0.403104
-0.38963
-0.367825
-0.337723
-0.303508
-0.269253
-0.237339
-0.208761
-0.183694
-0.161915
-0.143052
-0.126714
-0.11254
-0.100216
-0.0894739
-0.0800956
-0.0718676
-0.064488
-0.057795
-0.0528557
-0.426737
-0.412758
-0.391501
-0.362268
-0.328651
-0.294573
-0.262473
-0.233458
-0.207807
-0.185365
-0.165804
-0.148753
-0.133863
-0.120824
-0.109373
-0.0992913
-0.0903718
-0.0823186
-0.0749545
-0.0693216
-0.446439
-0.432048
-0.411488
-0.383381
-0.350689
-0.317124
-0.285143
-0.255954
-0.229941
-0.207026
-0.186931
-0.169313
-0.153841
-0.140213
-0.128171
-0.117499
-0.107998
-0.0993815
-0.0914584
-0.0852273
-0.462233
-0.447521
-0.427777
-0.401019
-0.369557
-0.336834
-0.305281
-0.276189
-0.250045
-0.226855
-0.206398
-0.188367
-0.172451
-0.158362
-0.145848
-0.1347
-0.124725
-0.11565
-0.107271
-0.10053
-0.474205
-0.459264
-0.440423
-0.415194
-0.385235
-0.353667
-0.322847
-0.294127
-0.268089
-0.244828
-0.224185
-0.205897
-0.189678
-0.175256
-0.16239
-0.150877
-0.140533
-0.131099
-0.12236
-0.115189
-0.482504
-0.467425
-0.449544
-0.425976
-0.397752
-0.367624
-0.337832
-0.309755
-0.284061
-0.260935
-0.240285
-0.221897
-0.205516
-0.19089
-0.17779
-0.166021
-0.155409
-0.145711
-0.136704
-0.129182
-0.487336
-0.47221
-0.455315
-0.433489
-0.407182
-0.378746
-0.350256
-0.323085
-0.297972
-0.275185
-0.254708
-0.236377
-0.219973
-0.205268
-0.19205
-0.180132
-0.169349
-0.159479
-0.150291
-0.142497
-0.488956
-0.473878
-0.457968
-0.437913
-0.413649
-0.387112
-0.360168
-0.334151
-0.309847
-0.287603
-0.267475
-0.249355
-0.233065
-0.218405
-0.20518
-0.193216
-0.182359
-0.172405
-0.163121
-0.155133
-0.487665
-0.47273
-0.457783
-0.439479
-0.417322
-0.392838
-0.367651
-0.343013
-0.319734
-0.298227
-0.278619
-0.260861
-0.244819
-0.230324
-0.217201
-0.205291
-0.194452
-0.184497
-0.175199
-0.167097
-0.483797
-0.469103
-0.455079
-0.43846
-0.418416
-0.396081
-0.372813
-0.349749
-0.327694
-0.30711
-0.288187
-0.270938
-0.255273
-0.241058
-0.228142
-0.216382
-0.205648
-0.195776
-0.186542
-0.178401
-0.47771
-0.463355
-0.450205
-0.43517
-0.417184
-0.397033
-0.375796
-0.354464
-0.333807
-0.314316
-0.296236
-0.279634
-0.26447
-0.250646
-0.238038
-0.22652
-0.215977
-0.206264
-0.197169
-0.189067
-0.469772
-0.455856
-0.443529
-0.429948
-0.413917
-0.395921
-0.376769
-0.357284
-0.33817
-0.319923
-0.302829
-0.287007
-0.272462
-0.259135
-0.24693
-0.235743
-0.225473
-0.215994
-0.20711
-0.19912
-0.460356
-0.446975
-0.43542
-0.423149
-0.408927
-0.393
-0.375929
-0.358355
-0.340892
-0.324017
-0.30804
-0.293119
-0.279305
-0.266575
-0.254865
-0.244092
-0.234172
-0.224999
-0.216394
-0.208589
-0.449825
-0.43707
-0.426245
-0.415136
-0.402545
-0.388552
-0.373499
-0.357848
-0.342103
-0.326698
-0.311946
-0.298036
-0.285056
-0.273018
-0.261889
-0.25161
-0.242114
-0.233316
-0.225056
-0.217507
-0.438523
-0.426477
-0.416348
-0.406258
-0.395109
-0.382874
-0.369722
-0.355952
-0.341945
-0.328073
-0.314632
-0.301828
-0.289773
-0.278515
-0.268049
-0.25834
-0.24934
-0.240982
-0.23313
-0.225905
-0.426767
-0.4155
-0.406043
-0.396844
-0.386944
-0.376267
-0.364859
-0.352875
-0.340578
-0.328262
-0.31619
-0.304565
-0.293517
-0.283119
-0.273391
-0.264323
-0.255885
-0.248031
-0.240646
-0.23381
-0.414838
-0.404408
-0.395608
-0.387191
-0.37836
-0.369031
-0.359175
-0.348839
-0.338176
-0.327397
-0.316718
-0.306322
-0.296345
-0.286875
-0.277954
-0.269594
-0.261782
-0.254491
-0.24763
-0.241245
-0.402982
-0.393431
-0.38528
-0.377558
-0.369634
-0.361448
-0.352938
-0.344077
-0.334929
-0.325625
-0.316323
-0.307178
-0.298315
-0.289828
-0.281775
-0.274183
-0.267057
-0.260385
-0.2541
-0.248223
-0.391403
-0.382754
-0.375249
-0.368156
-0.361003
-0.353773
-0.346401
-0.338821
-0.331034
-0.323102
-0.315124
-0.307217
-0.299486
-0.29202
-0.284882
-0.278112
-0.271726
-0.265727
-0.260068
-0.254748
-0.380265
-0.372524
-0.365662
-0.35915
-0.35266
-0.346224
-0.339795
-0.333298
-0.326695
-0.319996
-0.313252
-0.306534
-0.299923
-0.293493
-0.287304
-0.281398
-0.2758
-0.270524
-0.265537
-0.260816
-0.369692
-0.362847
-0.356623
-0.35066
-0.344751
-0.338976
-0.333319
-0.327714
-0.32211
-0.316485
-0.310848
-0.305236
-0.2997
-0.294293
-0.289065
-0.284054
-0.279286
-0.274776
-0.270506
-0.26642
-0.359773
-0.353795
-0.3482
-0.342762
-0.337377
-0.332162
-0.327134
-0.322252
-0.317466
-0.312741
-0.308064
-0.303444
-0.298904
-0.294477
-0.290198
-0.286094
-0.282184
-0.278483
-0.274976
-0.271559
-0.350563
-0.34541
-0.340427
-0.335497
-0.330595
-0.325867
-0.321359
-0.317056
-0.312925
-0.308932
-0.305055
-0.301286
-0.297634
-0.294112
-0.29074
-0.287534
-0.284502
-0.281646
-0.278957
-0.276249
-0.34209
-0.337708
-0.333315
-0.328877
-0.324431
-0.320138
-0.316069
-0.312235
-0.308622
-0.305206
-0.301968
-0.2989
-0.296001
-0.293279
-0.290744
-0.288401
-0.286248
-0.284273
-0.282464
-0.28054
-0.334359
-0.330685
-0.326852
-0.32289
-0.31888
-0.314989
-0.311305
-0.307859
-0.304654
-0.301684
-0.298939
-0.296418
-0.294125
-0.292072
-0.29027
-0.288726
-0.287434
-0.286368
-0.285521
-0.284514
-0.327353
-0.324319
-0.321012
-0.317508
-0.313917
-0.310407
-0.307073
-0.303959
-0.301084
-0.298456
-0.296079
-0.293962
-0.292124
-0.290589
-0.289388
-0.288542
-0.288061
-0.287922
-0.288125
-0.288261
-0.32104
-0.318576
-0.315757
-0.31269
-0.309503
-0.306358
-0.303352
-0.300537
-0.297941
-0.29558
-0.29347
-0.291633
-0.290104
-0.28893
-0.288169
-0.287881
-0.288115
-0.288885
-0.290215
-0.291841
-0.315376
-0.313413
-0.311042
-0.308387
-0.305589
-0.302797
-0.300105
-0.297569
-0.295219
-0.293077
-0.291163
-0.289507
-0.288158
-0.287186
-0.286683
-0.286764
-0.287548
-0.289134
-0.291609
-0.295152
-0.310307
-0.308781
-0.306815
-0.304545
-0.302117
-0.299665
-0.297279
-0.295011
-0.292891
-0.290939
-0.289175
-0.28763
-0.286355
-0.285436
-0.284996
-0.285205
-0.286281
-0.288461
-0.291989
-0.297931
-0.305773
-0.304624
-0.303022
-0.30111
-0.299029
-0.296903
-0.294813
-0.292805
-0.290907
-0.289132
-0.287494
-0.286015
-0.28474
-0.28375
-0.283177
-0.283233
-0.284227
-0.286561
-0.2908
-0.299402
-0.301714
-0.300889
-0.299612
-0.298024
-0.296266
-0.294447
-0.292639
-0.290884
-0.289201
-0.287598
-0.286078
-0.284648
-0.283332
-0.282184
-0.281316
-0.280931
-0.281376
-0.28317
-0.287442
-0.298748
-0.29807
-0.297523
-0.296532
-0.295238
-0.293774
-0.292239
-0.290695
-0.289177
-0.287701
-0.286267
-0.284864
-0.283481
-0.282112
-0.280766
-0.279491
-0.278404
-0.277748
-0.277916
-0.280378
-0.291992
-0.294786
-0.294478
-0.293737
-0.292703
-0.291504
-0.290225
-0.288921
-0.287623
-0.28634
-0.285065
-0.283779
-0.28245
-0.281039
-0.279495
-0.277752
-0.275723
-0.27327
-0.269916
-0.264422
-0.257868
-0.291814
-0.291711
-0.291188
-0.290382
-0.289416
-0.288364
-0.287274
-0.286172
-0.285064
-0.283939
-0.282771
-0.281523
-0.28014
-0.27855
-0.276657
-0.274339
-0.271447
-0.267613
-0.261991
-0.256126
-0.289113
-0.289188
-0.288852
-0.288244
-0.28748
-0.286626
-0.285721
-0.28479
-0.283837
-0.282848
-0.281799
-0.280652
-0.279358
-0.277851
-0.276054
-0.273888
-0.271274
-0.268002
-0.263646
-0.259895
-0.28665
-0.286879
-0.286705
-0.286266
-0.285676
-0.284991
-0.284247
-0.283464
-0.282643
-0.281775
-0.280837
-0.279796
-0.278609
-0.277228
-0.275595
-0.273666
-0.271404
-0.268664
-0.265252
-0.262827
-0.284402
-0.284762
-0.284726
-0.284432
-0.283992
-0.283453
-0.282846
-0.28219
-0.281486
-0.280726
-0.279891
-0.278954
-0.277884
-0.276644
-0.2752
-0.273534
-0.271638
-0.269427
-0.266833
-0.265319
-0.282347
-0.28282
-0.282901
-0.282732
-0.28242
-0.282007
-0.28152
-0.280977
-0.280378
-0.279719
-0.278984
-0.278154
-0.277208
-0.276122
-0.274881
-0.273488
-0.271957
-0.270242
-0.268342
-0.267466
-0.280471
-0.28104
-0.281221
-0.281159
-0.280958
-0.280655
-0.280276
-0.279834
-0.279335
-0.278774
-0.278141
-0.277423
-0.276607
-0.275684
-0.27465
-0.27352
-0.272323
-0.271034
-0.269675
-0.269227
-0.27876
-0.27941
-0.279677
-0.279707
-0.279604
-0.2794
-0.279117
-0.278772
-0.278368
-0.277904
-0.277375
-0.276774
-0.276095
-0.275336
-0.274502
-0.273617
-0.272711
-0.271771
-0.270814
-0.270645
-0.277205
-0.277923
-0.278264
-0.278374
-0.278356
-0.278241
-0.278048
-0.277793
-0.277482
-0.277116
-0.276693
-0.27621
-0.275667
-0.275067
-0.274421
-0.273754
-0.273094
-0.27243
-0.271768
-0.27178
-0.275795
-0.276572
-0.276975
-0.277155
-0.277214
-0.277179
-0.27707
-0.2769
-0.276679
-0.276407
-0.276088
-0.275721
-0.275309
-0.274858
-0.274381
-0.2739
-0.273444
-0.272995
-0.272549
-0.27268
-0.274524
-0.275351
-0.275808
-0.276049
-0.276176
-0.276213
-0.27618
-0.27609
-0.275953
-0.275772
-0.275551
-0.275293
-0.275001
-0.274684
-0.274354
-0.274031
-0.273738
-0.273456
-0.27317
-0.273383
-0.273385
-0.274255
-0.274759
-0.275053
-0.27524
-0.275342