/*--------------------------------*- C++ -*----------------------------------*\
  =========                 |
  \\      /  F ield         | OpenFOAM: The Open Source CFD Toolbox
   \\    /   O peration     | Website:  https://openfoam.org
    \\  /    A nd           | Version:  6.0
     \\/     M anipulation  |
\*---------------------------------------------------------------------------*/
FoamFile
{
    version     2.0;
    format      ascii;
    class       surfaceScalarField;
    location    "20.6";
    object      phi;
}
// * * * * * * * * * * * * * * * * * * * * * * * * * * * * * * * * * * * * * //

dimensions      [0 3 -1 0 0 0 0];

internalField   nonuniform List<scalar> 
15760
(
-2.92616e-06
2.90374e-06
2.242e-08
-1.03323e-05
7.38464e-06
2.15101e-08
-2.11342e-05
1.08133e-05
-1.14445e-08
-3.44505e-05
1.33817e-05
-6.53498e-08
-4.95766e-05
1.52579e-05
-1.31803e-07
-6.59623e-05
1.65907e-05
-2.04962e-07
-8.3192e-05
1.75107e-05
-2.81018e-07
-0.000100966
1.81318e-05
-3.57699e-07
-0.000119085
1.85529e-05
-4.33831e-07
-0.000137436
1.88598e-05
-5.08979e-07
-0.000155979
1.9126e-05
-5.8314e-07
-0.000174736
1.94143e-05
-6.56526e-07
-0.000193784
1.97767e-05
-7.29412e-07
-0.000213237
2.02554e-05
-8.0204e-07
-0.000233245
2.08827e-05
-8.74549e-07
-0.000253979
2.16811e-05
-9.46958e-07
-0.000275624
2.26638e-05
-1.01917e-06
-0.000298368
2.38347e-05
-1.09094e-06
-0.000322397
2.51909e-05
-1.16188e-06
2.67293e-05
-1.23152e-06
-0.000347895
-2.90842e-06
5.81216e-06
-1.02687e-05
1.47449e-05
-2.09986e-05
2.15432e-05
-3.42163e-05
2.65994e-05
-4.92149e-05
3.02565e-05
-6.54409e-05
3.28167e-05
-8.24738e-05
3.45436e-05
-0.000100008
3.5666e-05
-0.000117837
3.63823e-05
-0.000135841
3.68638e-05
-0.000153973
3.72576e-05
-0.000172248
3.76892e-05
-0.000190735
3.82638e-05
-0.000209546
3.90667e-05
-0.000228828
4.01642e-05
-0.00024875
4.16036e-05
-0.0002695
4.34134e-05
-0.000291269
4.56037e-05
-0.000314249
4.81706e-05
5.11084e-05
-0.000338628
-2.87565e-06
8.68781e-06
-1.01504e-05
2.20197e-05
-2.0745e-05
3.21378e-05
-3.37764e-05
3.96308e-05
-4.85335e-05
4.50136e-05
-6.44559e-05
4.87391e-05
-8.11137e-05
5.12014e-05
-9.819e-05
5.27423e-05
-0.000115465
5.36575e-05
-0.000132804
5.42026e-05
-0.000150145
5.45982e-05
-0.000167489
5.50334e-05
-0.000184893
5.56679e-05
-0.00020246
5.66334e-05
-0.000220329
5.8034e-05
-0.000238672
5.99461e-05
-0.000257677
6.24181e-05
-0.000277543
6.54704e-05
-0.000298474
6.91015e-05
7.33044e-05
-0.00032067
-2.8303e-06
1.15181e-05
-9.98458e-06
2.91739e-05
-2.03873e-05
4.25405e-05
-3.31534e-05
5.23969e-05
-4.75661e-05
5.94263e-05
-6.30554e-05
6.42284e-05
-7.91785e-05
6.73245e-05
-9.56018e-05
6.91657e-05
-0.000112086
7.01421e-05
-0.000128476
7.05917e-05
-0.000144685
7.08077e-05
-0.000160695
7.10432e-05
-0.000176542
7.15151e-05
-0.000192314
7.24055e-05
-0.000208142
7.38619e-05
-0.000224193
7.59967e-05
-0.00024066
7.88857e-05
-0.000257756
8.25667e-05
-0.000275702
8.70468e-05
9.23207e-05
-0.000294718
-2.77544e-06
1.42935e-05
-9.78057e-06
3.61791e-05
-1.99431e-05
5.2703e-05
-3.23758e-05
6.48296e-05
-4.63551e-05
7.34056e-05
-6.13002e-05
7.91735e-05
-7.67528e-05
8.2777e-05
-9.23589e-05
8.47718e-05
-0.000107855
8.56383e-05
-0.000123057
8.57935e-05
-0.00013785
8.5601e-05
-0.000152185
8.53782e-05
-0.000166072
8.54014e-05
-0.000179574
8.5908e-05
-0.000192809
8.70965e-05
-0.000205937
8.91247e-05
-0.000219158
9.21066e-05
-0.0002327
9.61089e-05
-0.00024681
0.000101157
0.000107255
-0.000261745
-2.71425e-06
1.70078e-05
-9.54759e-06
4.30124e-05
-1.94299e-05
6.25853e-05
-3.14715e-05
7.68712e-05
-4.49426e-05
8.68768e-05
-5.92515e-05
9.34824e-05
-7.39232e-05
9.74487e-05
-8.85816e-05
9.94302e-05
-0.000102935
9.99919e-05
-0.000116766
9.96245e-05
-0.000129924
9.87586e-05
-0.00014232
9.77744e-05
-0.000153928
9.70091e-05
-0.00016478
9.67603e-05
-0.00017497
9.72861e-05
-0.000184647
9.88019e-05
-0.000194015
0.000101475
-0.000203324
0.000105418
-0.000212857
0.000110691
0.000117318
-0.00022292
-2.64937e-06
1.96572e-05
-9.29299e-06
4.9656e-05
-1.88609e-05
7.21532e-05
-3.04614e-05
8.84717e-05
-4.336e-05
9.97753e-05
-5.69553e-05
0.000107078
-7.07572e-05
0.000111251
-8.43674e-05
0.00011304
-9.74649e-05
0.000113089
-0.000109795
0.000111955
-0.000121166
0.000110129
-0.000131441
0.00010805
-0.000140548
0.000106116
-0.000148476
0.000104688
-0.000155283
0.000104094
-0.0001611
0.000104619
-0.00016613
0.000106504
-0.000170643
0.000109931
-0.000174973
0.000115021
0.000121842
-0.000179497
-2.58229e-06
2.22394e-05
-9.02014e-06
5.60939e-05
-1.82411e-05
8.13741e-05
-2.93523e-05
9.9583e-05
-4.16167e-05
0.00011204
-5.44269e-05
0.000119888
-6.72807e-05
0.000124104
-7.97606e-05
0.00012552
-9.15176e-05
0.000124846
-0.00010226
0.000122698
-0.00011175
0.000119618
-0.000119798
0.000116098
-0.000126275
0.000112593
-0.000131113
0.000109527
-0.000134322
0.000107302
-0.000135996
0.000106293
-0.000136328
0.000106836
-0.000135609
0.000109213
-0.000134231
0.000113643
0.000120278
-0.000132667
-2.51285e-06
2.47523e-05
-8.72689e-06
6.23079e-05
-1.75639e-05
9.02111e-05
-2.81306e-05
0.00011015
-3.96904e-05
0.0001236
-5.16345e-05
0.000131832
-6.34544e-05
0.000135924
-7.4719e-05
0.000136785
-8.50564e-05
0.000135184
-9.41413e-05
0.000131783
-0.00010169
0.000127166
-0.000107457
0.000121866
-0.000111248
0.000116383
-0.000112925
0.000111204
-0.00011243
0.000106807
-0.000109803
0.000103666
-0.000105206
0.00010224
-9.89422e-05
0.000102949
-9.14652e-05
0.000106166
0.000112186
-8.33735e-05
-2.43904e-06
2.71913e-05
-8.40471e-06
6.82736e-05
-1.6809e-05
9.86154e-05
-2.67581e-05
0.000120099
-3.75193e-05
0.000134361
-4.84874e-05
0.0001428
-5.91548e-05
0.000146592
-6.90849e-05
0.000146715
-7.78915e-05
0.00014399
-8.52238e-05
0.000139115
-9.07584e-05
0.000132701
-9.41973e-05
0.000125305
-9.52754e-05
0.000117461
-9.37753e-05
0.000109703
-8.95519e-05
0.000102583
-8.25659e-05
9.66802e-05
-7.29221e-05
9.25957e-05
-6.09096e-05
9.09363e-05
-4.70405e-05
9.2297e-05
9.72124e-05
-3.20664e-05
-2.35709e-06
2.95484e-05
-8.03878e-06
7.39553e-05
-1.5942e-05
0.000106519
-2.51713e-05
0.000129328
-3.49993e-05
0.000144189
-4.48293e-05
0.00015263
-5.41615e-05
0.000155924
-6.25633e-05
0.000155117
-6.96459e-05
0.000151073
-7.50459e-05
0.000144515
-7.84133e-05
0.000136068
-7.94068e-05
0.000126299
-7.7698e-05
0.000115753
-7.29859e-05
0.000104991
-6.50254e-05
9.46227e-05
-5.36704e-05
8.53252e-05
-3.89319e-05
7.78571e-05
-2.10476e-05
7.3052e-05
-5.63694e-07
7.18131e-05
7.50524e-05
2.15963e-05
-2.26194e-06
3.18104e-05
-7.60939e-06
7.93027e-05
-1.49171e-05
0.000113826
-2.32841e-05
0.000137695
-3.19874e-05
0.000152892
-4.04405e-05
0.000161083
-4.81566e-05
0.00016364
-5.47158e-05
0.000161676
-5.97391e-05
0.000156096
-6.28664e-05
0.000147642
-6.37404e-05
0.000136942
-6.19969e-05
0.000124555
-5.72625e-05
0.000111018
-4.91649e-05
9.68936e-05
-3.73582e-05
8.28161e-05
-2.15716e-05
6.95386e-05
-1.68334e-06
5.79689e-05
2.21742e-05
4.91945e-05
4.94718e-05
4.45155e-05
4.54058e-05
7.91185e-05
-2.148e-06
3.39584e-05
-7.09418e-06
8.42489e-05
-1.36812e-05
0.000120413
-2.09947e-05
0.000145009
-2.83106e-05
0.000160208
-3.50501e-05
0.000167823
-4.07393e-05
0.000169329
-4.49756e-05
0.000165912
-4.7399e-05
0.00015852
-4.76685e-05
0.000147912
-4.54423e-05
0.000134716
-4.0362e-05
0.000119475
-3.20434e-05
0.0001027
-2.00755e-05
8.49258e-05
-4.03677e-06
6.67773e-05
1.64636e-05
4.90383e-05
4.17045e-05
3.2728e-05
7.17195e-05
1.91794e-05
0.00010608
1.0155e-05
7.90876e-06
0.000143577
-2.01018e-06
3.59685e-05
-6.47109e-06
8.87098e-05
-1.21795e-05
0.000126122
-1.8195e-05
0.000151024
-2.37814e-05
0.000165794
-2.83573e-05
0.000172399
-3.1455e-05
0.000172427
-3.2685e-05
0.000167142
-3.17083e-05
0.000157543
-2.82123e-05
0.000144416
-2.18903e-05
0.000128394
-1.24225e-05
0.000110007
5.40998e-07
8.97361e-05
1.73926e-05
6.80742e-05
3.85698e-05
4.56002e-05
6.45337e-05
2.30743e-05
9.57039e-05
1.5578e-06
0.00013232
-1.74366e-05
0.000174161
-3.16865e-05
-3.79568e-05
0.000220027
-1.84466e-06
3.78132e-05
-5.72093e-06
9.25861e-05
-1.03612e-05
0.000130762
-1.47811e-05
0.000155444
-1.82138e-05
0.000169227
-2.00584e-05
0.000174243
-1.98355e-05
0.000172204
-1.71541e-05
0.000164461
-1.16847e-05
0.000152074
-3.1398e-06
0.000135871
8.74441e-06
0.00011651
2.42245e-05
9.45269e-05
4.35688e-05
7.03918e-05
6.70785e-05
4.45644e-05
9.51097e-05
1.7569e-05
0.000128084
-9.89987e-06
0.000166466
-3.68246e-05
0.00021067
-6.16402e-05
0.000260776
-8.17925e-05
-9.29861e-05
0.000315805
-1.64933e-06
3.94625e-05
-4.82876e-06
9.57656e-05
-8.18286e-06
0.000134116
-1.06595e-05
0.000157921
-1.14375e-05
0.000170005
-9.87004e-06
0.000172676
-5.43942e-06
0.000167773
2.27537e-06
0.000156746
1.36205e-05
0.000140728
2.88813e-05
0.00012061
4.82917e-05
9.70995e-05
7.20419e-05
7.07767e-05
0.00010029
4.21441e-05
0.000133178
1.16759e-05
0.000170866
-2.01189e-05
0.000213568
-5.26016e-05
0.000261591
-8.48475e-05
0.00031534
-0.00011539
0.000375174
-0.000141626
-0.000158387
0.000440575
-1.42347e-06
4.0886e-05
-3.78316e-06
9.81252e-05
-5.60734e-06
0.00013594
-5.74851e-06
0.000158062
-3.30184e-06
0.000167558
2.45748e-06
0.000166917
1.21211e-05
0.00015811
2.61786e-05
0.000142689
4.50342e-05
0.000121873
6.90127e-05
9.66317e-05
9.83571e-05
6.7755e-05
0.000133222
3.59122e-05
0.000173664
1.70201e-06
0.000219642
-3.43025e-05
0.00027103
-7.15069e-05
0.000327655
-0.000109226
0.000389371
-0.000146563
0.00045617
-0.000182188
0.000528315
-0.000213772
-0.000235989
0.000605917
-1.16654e-06
4.20526e-05
-2.5728e-06
9.95315e-05
-2.5985e-06
0.000135966
2.95815e-08
0.000155434
6.33208e-06
0.000161256
1.7147e-05
0.000156102
3.31793e-05
0.000142077
5.5031e-05
0.000120837
8.32134e-05
9.36904e-05
0.000118145
6.16997e-05
0.000160139
2.57613e-05
0.000209376
-1.33247e-05
0.000265875
-5.47967e-05
0.000329455
-9.78823e-05
0.000399702
-0.000141754
0.000475954
-0.000185479
0.000557334
-0.000227943
0.000642856
-0.000267711
0.000731768
-0.000302683
-0.000329107
0.000824885
-8.76256e-07
4.29288e-05
-1.18097e-06
9.98362e-05
8.89143e-07
0.000133896
6.76412e-06
0.000149559
1.76124e-05
0.000150408
3.44195e-05
0.000139295
5.80407e-05
0.000118456
8.9231e-05
8.96467e-05
0.000128654
5.42673e-05
0.000176876
1.34781e-05
0.000234343
-3.1706e-05
0.000301352
-8.03331e-05
0.000377996
-0.000131442
0.000464107
-0.000183993
0.000559153
-0.0002368
0.000662122
-0.000288449
0.000771375
-0.000337196
0.000884475
-0.000380811
0.000998312
-0.00041652
-0.000444318
0.00111352
-5.46397e-07
4.34752e-05
4.20767e-07
9.8869e-05
4.92222e-06
0.000129394
1.45745e-05
0.000139906
3.07229e-05
0.000134259
5.45289e-05
0.000115489
8.70253e-05
8.59598e-05
0.000129145
4.75273e-05
0.000181726
1.6855e-06
0.000245509
-5.0305e-05
0.000321115
-0.000107312
0.000409025
-0.000168243
0.000509557
-0.000231973
0.000622828
-0.000297264
0.000748705
-0.000362676
0.000886691
-0.000426435
0.00103566
-0.000486168
0.00119298
-0.00053813
0.0013514
-0.00057494
-0.000581202
0.00148829
-1.65735e-07
4.36409e-05
2.27662e-06
9.64267e-05
9.59693e-06
0.000122074
2.36243e-05
0.000125879
4.59037e-05
0.00011198
7.77898e-05
8.36025e-05
0.000120501
4.32488e-05
0.000175141
-7.11287e-06
0.000242702
-6.58757e-05
0.000324054
-0.000131656
0.000419931
-0.000203189
0.000530936
-0.000279248
0.000657561
-0.000358598
0.000800259
-0.000439962
0.000959596
-0.000522014
0.00113655
-0.000603389
0.00133306
-0.000682679
0.00155331
-0.000758375
0.00180756
-0.000829192
-0.000891875
0.00211823
2.8548e-07
4.33555e-05
4.45299e-06
9.22592e-05
1.50473e-05
0.00011148
3.41303e-05
0.000106796
6.34603e-05
8.26498e-05
0.000104586
4.24767e-05
0.000158892
-1.10571e-05
0.000227606
-7.58272e-05
0.000311788
-0.000150057
0.000412301
-0.00023217
0.000529799
-0.000320687
0.000664722
-0.000414171
0.000817319
-0.000511196
0.000987724
-0.000610367
0.00117608
-0.000710365
0.00138272
-0.00081003
0.00160852
-0.000908476
0.00185535
-0.00100521
0.00212631
-0.00110015
-0.00118573
0.00242017
8.3092e-07
4.25245e-05
7.02945e-06
8.60607e-05
2.1432e-05
9.70772e-05
4.63442e-05
8.18838e-05
8.37374e-05
4.52566e-05
0.000135333
-9.11926e-06
0.00020263
-7.83537e-05
0.000286886
-0.000160083
0.000389081
-0.000252252
0.000509875
-0.000352964
0.000649575
-0.000460387
0.000808122
-0.000572718
0.000985116
-0.000688189
0.00117986
-0.000805113
0.00139145
-0.000921954
0.00161885
-0.00103743
0.00186097
-0.0011506
0.00211672
-0.00126095
0.00238475
-0.00136819
-0.00146386
0.00266288
1.49882e-06
4.10257e-05
1.00962e-05
7.74633e-05
2.89238e-05
7.82496e-05
6.05286e-05
5.02789e-05
0.000107074
-1.28901e-06
0.000170404
-7.24491e-05
0.000252035
-0.000159985
0.00035311
-0.000261158
0.000474332
-0.000373473
0.0006159
-0.000494533
0.000777483
-0.00062197
0.000958208
-0.000753444
0.00115671
-0.000886691
0.00137119
-0.0010196
0.00159952
-0.00115029
0.00183931
-0.00127722
0.00208795
-0.00139924
0.00234264
-0.00151564
0.00260041
-0.00162596
-0.00172308
0.00285963
2.3182e-06
3.87075e-05
1.37426e-05
6.60388e-05
3.76865e-05
5.43057e-05
7.69157e-05
1.10498e-05
0.000133737
-5.811e-05
0.000210023
-0.000148735
0.000307164
-0.000257127
0.000425985
-0.000379979
0.000566654
-0.000514142
0.000728629
-0.000656507
0.000910642
-0.000803983
0.00111075
-0.000953554
0.00132644
-0.00110238
0.00155473
-0.00124789
0.00179238
-0.00138793
0.00203595
-0.00152079
0.00228196
-0.00164525
0.00252693
-0.00176061
0.00276754
-0.00186657
-0.00195804
0.0030025
3.31555e-06
3.5392e-05
1.80463e-05
5.13081e-05
4.7851e-05
2.45009e-05
9.56642e-05
-3.67633e-05
0.000163847
-0.000126293
0.000254161
-0.000239049
0.000367665
-0.000370631
0.000504604
-0.000516918
0.000664322
-0.00067386
0.000845239
-0.000837424
0.00104491
-0.00100366
0.00126017
-0.00116881
0.00148732
-0.00132952
0.00172235
-0.00148293
0.00196121
-0.00162679
0.00219994
-0.00175951
0.00243485
-0.00188017
0.00266263
-0.00198839
0.00288046
-0.0020844
-0.00216517
0.00308758
4.51217e-06
3.08798e-05
2.30631e-05
3.27572e-05
5.9494e-05
-1.193e-05
0.000116822
-9.40914e-05
0.000197328
-0.000206799
0.000302459
-0.00034418
0.000432682
-0.000500854
0.000587361
-0.000671597
0.000764713
-0.000851212
0.000961874
-0.00103459
0.00117508
-0.00121686
0.00139994
-0.00139368
0.00163177
-0.00156135
0.00186587
-0.00171703
0.00209785
-0.00185877
0.00232384
-0.0019855
0.00254058
-0.00209691
0.00274554
-0.00219335
0.00293691
-0.00227576
-0.00234294
0.00311468
5.92228e-06
2.49575e-05
2.88205e-05
9.85899e-06
7.26226e-05
-5.57322e-05
0.000140299
-0.000161768
0.00023386
-0.00030036
0.000354179
-0.000464499
0.000500823
-0.000647497
0.000671959
-0.000842734
0.000864418
-0.00104367
0.00107391
-0.00124408
0.00129537
-0.00143833
0.00152341
-0.00162171
0.0017527
-0.00179064
0.00197839
-0.00194271
0.00219633
-0.00207672
0.00240329
-0.00219246
0.00259697
-0.00229059
0.00277599
-0.00237237
0.00293976
-0.00243954
-0.00249236
0.00308918
7.55216e-06
1.74054e-05
3.53131e-05
-1.7902e-05
8.71647e-05
-0.000107584
0.000165853
-0.000240457
0.000272868
-0.000407374
0.000408202
-0.000599834
0.000570193
-0.000809487
0.000755531
-0.00102807
0.000959502
-0.00124764
0.00117641
-0.00146099
0.00140013
-0.00166204
0.00162465
-0.00184623
0.00184456
-0.00201055
0.00205541
-0.00215356
0.00225386
-0.00227517
0.00243776
-0.00237635
0.00260601
-0.00245885
0.00275851
-0.00252487
0.00289583
-0.00257685
-0.00261617
0.00301964
9.39982e-06
8.00553e-06
4.2501e-05
-5.10032e-05
0.000102965
-0.000168047
0.000193082
-0.000330574
0.000313523
-0.000527816
0.000463064
-0.000749374
0.0006385
-0.000984924
0.00083486
-0.00122443
0.00104588
-0.00145866
0.00126469
-0.00167979
0.00148451
-0.00188186
0.00169928
-0.002061
0.00190408
-0.00221536
0.00209538
-0.00234487
0.00227105
-0.00245083
0.00243021
-0.00253551
0.00257304
-0.00260168
0.00270052
-0.00265234
0.00281411
-0.00269045
-0.00271808
0.00291602
1.1455e-05
-3.44943e-06
5.0309e-05
-8.98573e-05
0.000119784
-0.000237522
0.000221434
-0.000432224
0.000354775
-0.000661156
0.000517027
-0.000911626
0.000703216
-0.00117111
0.000906657
-0.00142787
0.00111975
-0.00167175
0.00133484
-0.00189489
0.00154508
-0.00209211
0.00174494
-0.00226086
0.00193052
-0.00240093
0.00209957
-0.00251391
0.0022513
-0.00260257
0.00238613
-0.00267033
0.00250529
-0.00272084
0.00261054
-0.0027576
0.0027039
-0.00278381
-0.00280192
0.00278774
1.36987e-05
-1.71482e-05
5.86264e-05
-0.000134785
0.000137302
-0.000316198
0.000250221
-0.000545143
0.00039539
-0.000806325
0.000568194
-0.00108443
0.000761775
-0.00136469
0.000967883
-0.00163398
0.00117796
-0.00188183
0.00138416
-0.00210109
0.00158013
-0.00228808
0.00176141
-0.00244214
0.00192546
-0.00256498
0.00207144
-0.00265989
0.00219988
-0.00273101
0.00231223
-0.00278268
0.00241047
-0.00281908
0.00249681
-0.00284394
0.00257346
-0.00286046
-0.00287117
0.00264271
1.61034e-05
-3.32516e-05
6.73078e-05
-0.000185989
0.000155125
-0.000404015
0.000278642
-0.00066866
0.000434029
-0.000961712
0.000614643
-0.00126504
0.000811803
-0.00156185
0.00101603
-0.00183821
0.00121835
-0.00208414
0.00141133
-0.00229407
0.00158967
-0.00246642
0.0017503
-0.00260277
0.00189217
-0.00270685
0.0020158
-0.00278352
0.00212277
-0.00283798
0.00221527
-0.00287518
0.00229569
-0.0028995
0.00236638
-0.00291463
0.00242946
-0.00292354
-0.00292868
0.00248697
1.86322e-05
-5.18838e-05
7.61749e-05
-0.000243532
0.000172798
-0.000500639
0.000305826
-0.000801688
0.000469325
-0.00112521
0.000654574
-0.00145029
0.000851318
-0.0017586
0.00104934
-0.00203623
0.00123987
-0.00227467
0.00141644
-0.00247064
0.00157516
-0.00262514
0.00171452
-0.00274213
0.00183488
-0.00282721
0.00193788
-0.00288652
0.00202585
-0.00292595
0.00210137
-0.00295069
0.00216693
-0.00296506
0.00222479
-0.00297248
0.00227685
-0.0029756
-0.00297663
0.0023248
2.12391e-05
-7.31229e-05
8.50208e-05
-0.000307314
0.000189821
-0.000605439
0.000330874
-0.000942741
0.000499978
-0.00129431
0.000686457
-0.00163677
0.000878893
-0.00195103
0.00106693
-0.00222427
0.00124257
-0.00245032
0.00140073
-0.0026288
0.00153913
-0.00276353
0.00165775
-0.00286075
0.00175816
-0.00292762
0.00184277
-0.00297114
0.00191434
-0.00299753
0.00197557
-0.00301192
0.00202884
-0.00301833
0.00207616
-0.0030198
0.00211914
-0.00301859
-0.0030166
0.00215912
2.38698e-05
-9.69928e-05
9.36165e-05
-0.00037706
0.000205672
-0.000717494
0.000352919
-0.00108999
0.000524856
-0.00146625
0.000709141
-0.00182106
0.000893736
-0.00213563
0.00106874
-0.00239928
0.00122742
-0.00260899
0.0013663
-0.00276768
0.00148469
-0.00288192
0.00158388
-0.00295994
0.00166632
-0.00301005
0.00173491
-0.00303973
0.00179255
-0.00305517
0.00184182
-0.00306118
0.00188486
-0.00306137
0.00192339
-0.00305832
0.0019587
-0.0030539
-0.00304971
0.00199181
2.64629e-05
-0.000123456
0.00010172
-0.000452317
0.000219838
-0.000835612
0.000371177
-0.00124133
0.000543063
-0.00163814
0.000721925
-0.00199992
0.000895695
-0.0023094
0.00105547
-0.00255905
0.00119606
-0.00274959
0.0013157
-0.00288731
0.00141511
-0.00298134
0.00149661
-0.00304145
0.00156322
-0.00307666
0.00161803
-0.00309454
0.00166386
-0.003101
0.00170305
-0.00310038
0.00173745
-0.00309577
0.00176845
-0.00308932
0.00179707
-0.00308253
-0.00307669
0.00182405
2.8952e-05
-0.000152408
0.000109088
-0.000532453
0.000231842
-0.000958366
0.000385001
-0.00139449
0.000553999
-0.00180713
0.000724568
-0.00217049
0.000885185
-0.00247002
0.00102834
-0.0027022
0.00115057
-0.00287182
0.00125166
-0.0029884
0.00133355
-0.00306322
0.00139924
-0.00310714
0.00145205
-0.00312947
0.00149505
-0.00313754
0.00153082
-0.00313676
0.00156139
-0.00313095
0.0015883
-0.00312268
0.00161266
-0.00311368
0.00163524
-0.00310511
-0.00309802
0.00165657
3.12688e-05
-0.000183676
0.000115488
-0.000616672
0.000241271
-0.00108415
0.000393919
-0.00154713
0.000557377
-0.00197059
0.000717257
-0.00233037
0.000863072
-0.00261583
0.000988963
-0.0028281
0.00109317
-0.00297603
0.00117686
-0.00307209
0.00124285
-0.00312921
0.00129458
-0.00315888
0.00133541
-0.0031703
0.00136821
-0.00317034
0.00139528
-0.00316383
0.00141832
-0.00315399
0.00143856
-0.00314293
0.00145687
-0.00313199
0.00147383
-0.00312208
-0.00311401
0.00148982
3.33458e-05
-0.000217022
0.000120709
-0.000704036
0.0002478
-0.00121124
0.000397647
-0.00169698
0.000553211
-0.00212616
0.000700533
-0.00247769
0.000830536
-0.00274583
0.000939116
-0.00293668
0.00102609
-0.003063
0.00109373
-0.00313973
0.00114547
-0.00318095
0.00118491
-0.00319832
0.00121528
-0.00320067
0.00123918
-0.00319424
0.00125857
-0.00318322
0.00127485
-0.00317027
0.00128898
-0.00315706
0.00130164
-0.00314465
0.00131326
-0.00313369
-0.00312483
0.00132408
3.51232e-05
-0.000252145
0.000124584
-0.000793496
0.000251213
-0.00133787
0.000396114
-0.00184188
0.000541798
-0.00227184
0.000675219
-0.00261111
0.000788952
-0.00285957
0.00088062
-0.00302834
0.000951402
-0.00313378
0.00100442
-0.00319275
0.00104344
-0.00321997
0.00107203
-0.00322692
0.00109319
-0.00322183
0.00110919
-0.00321024
0.00112166
-0.00319568
0.00113171
-0.00318032
0.00114011
-0.00316546
0.00114736
-0.00315189
0.00115378
-0.00314012
-0.00313061
0.00115955
3.65381e-05
-0.000288683
0.000126963
-0.000883922
0.000251375
-0.00146228
0.000389386
-0.00197989
0.000523599
-0.00240605
0.000642261
-0.00272977
0.000739708
-0.00295701
0.000815167
-0.0031038
0.000870935
-0.00318955
0.000910703
-0.00323252
0.000938359
-0.00324763
0.000957314
-0.00324587
0.000970242
-0.00323476
0.000979081
-0.00321908
0.000985158
-0.00320176
0.000989357
-0.00318452
0.000992261
-0.00316836
0.000994256
-0.00315389
0.000995583
-0.00314144
-0.00313138
0.00099636
3.75462e-05
-0.00032623
0.000127764
-0.000974139
0.000248284
-0.0015828
0.000377723
-0.00210933
0.000499271
-0.0025276
0.000602736
-0.00283324
0.000684214
-0.00303849
0.000744348
-0.00316394
0.000786295
-0.00323149
0.000814078
-0.0032603
0.000831537
-0.00326508
0.00084182
-0.00325616
0.000847266
-0.0032402
0.000849489
-0.0032213
0.000849552
-0.00320182
0.000848142
-0.00318311
0.000845705
-0.00316593
0.000842537
-0.00315072
0.00083882
-0.00313773
-0.0031272
0.000834637
3.81108e-05
-0.000364341
0.000126942
-0.00106297
0.000242021
-0.00169788
0.00036149
-0.0022288
0.000469548
-0.00263566
0.000557721
-0.00292141
0.000623778
-0.00310455
0.000669555
-0.00320971
0.000698822
-0.00326076
0.000715735
-0.00327721
0.000723962
-0.00327331
0.000726338
-0.00325853
0.000724865
-0.00323873
0.000720862
-0.0032173
0.000715167
-0.00319613
0.000708307
-0.00317625
0.000700625
-0.00315824
0.000692348
-0.00314244
0.000683617
-0.00312899
-0.00311808
0.000674492
3.82069e-05
-0.000402547
0.000124503
-0.00114927
0.000232752
-0.00180613
0.00034114
-0.00233719
0.000435207
-0.00272973
0.000508258
-0.00299446
0.000559585
-0.00315588
0.000591983
-0.00324211
0.000609616
-0.00327839
0.000616615
-0.00328421
0.000616392
-0.00327309
0.000611451
-0.00325359
0.000603472
-0.00323075
0.000593519
-0.00320735
0.000582239
-0.00318485
0.000570034
-0.00316404
0.000557165
-0.00314538
0.000543811
-0.00312909
0.000530084
-0.00311527
-0.00310402
0.000516031
3.78219e-05
-0.000440369
0.00012049
-0.00123193
0.000220705
-0.00190635
0.000317176
-0.00243366
0.000397025
-0.00280958
0.000455316
-0.00305275
0.000492678
-0.00319324
0.000512639
-0.00326207
0.000519566
-0.00328532
0.00051745
-0.0032821
0.000509401
-0.00326504
0.000497588
-0.00324178
0.000483404
-0.00321657
0.000467692
-0.00319164
0.000450944
-0.0031681
0.000433461
-0.00314656
0.000415442
-0.00312736
0.00039703
-0.00311068
0.00037832
-0.00309656
-0.00308506
0.000359352
3.69548e-05
-0.000477324
0.000114983
-0.00130996
0.000206154
-0.00199752
0.000290122
-0.00251763
0.00035575
-0.0028752
0.000399773
-0.00309678
0.000423958
-0.00321742
0.000432355
-0.00327047
0.000429382
-0.00328235
0.000418808
-0.00327152
0.000403418
-0.00324965
0.000385066
-0.00322343
0.000364892
-0.0031964
0.000343552
-0.0031703
0.000321414
-0.00314596
0.000298698
-0.00312384
0.000275553
-0.00310421
0.000252096
-0.00308722
0.000228412
-0.00307287
-0.00306119
0.000204542
3.56155e-05
-0.00051294
0.000108091
-0.00138244
0.0001894
-0.00207883
0.000260502
-0.00258873
0.000312079
-0.00292678
0.000342408
-0.0031271
0.000354189
-0.0032292
0.000351813
-0.00326809
0.000339627
-0.00327016
0.000321125
-0.00325302
0.000298766
-0.00322729
0.000274119
-0.00319878
0.000248104
-0.00317038
0.000221225
-0.00314342
0.00019375
-0.00311849
0.000165831
-0.00309593
0.000137578
-0.00307596
0.000109087
-0.00305873
8.0439e-05
-0.00304423
-0.00303243
5.1682e-05
3.38236e-05
-0.000546763
9.99436e-05
-0.00144856
0.00017076
-0.00214964
0.000228824
-0.00264679
0.000266649
-0.00296461
0.000283899
-0.00314436
0.000284014
-0.00322932
0.000271566
-0.00325565
0.000250744
-0.00324934
0.000224735
-0.00322701
0.00019569
-0.00319824
0.000164921
-0.00316801
0.000133167
-0.00313863
0.000100808
-0.00311106
6.80303e-05
-0.00308571
3.49298e-05
-0.00306282
1.58192e-06
-0.00304261
-3.19336e-05
-0.00302521
-6.55329e-05
-0.00301063
-0.0029988
-9.91574e-05
3.16073e-05
-0.00057837
9.06859e-05
-0.00150764
0.000150551
-0.00220951
0.000195566
-0.00269181
0.000220031
-0.00298907
0.000224832
-0.00314916
0.000213967
-0.00321845
0.000192063
-0.00323374
0.000163082
-0.00322036
0.000129902
-0.00319383
9.43791e-05
-0.00316272
5.76082e-05
-0.00313124
2.01781e-05
-0.0031012
-1.76271e-05
-0.00307325
-5.56881e-05
-0.00304765
-9.39557e-05
-0.00302456
-0.000132388
-0.00300418
-0.000170919
-0.00298668
-0.000209457
-0.00297209
-0.00296033
-0.000247927
2.90012e-05
-0.000607372
8.04718e-05
-0.00155911
0.000129086
-0.00225812
0.000161169
-0.00272389
0.000172731
-0.00300063
0.000165709
-0.00314213
0.000144495
-0.00319724
0.000113669
-0.00320292
7.69277e-05
-0.00318362
3.68351e-05
-0.00315374
-5.01364e-06
-0.00312087
-4.77111e-05
-0.00308854
-9.0786e-05
-0.00305812
-0.000134027
-0.00303001
-0.000177366
-0.00300431
-0.000220797
-0.00298113
-0.00026431
-0.00296067
-0.000307856
-0.00294314
-0.000351329
-0.00292861
-0.00291703
-0.000394629
2.60456e-05
-0.000633417
6.94591e-05
-0.00160252
0.000106664
-0.00229533
0.000126038
-0.00274327
0.000125196
-0.00299979
0.000106957
-0.0031239
7.59718e-05
-0.00316625
3.66894e-05
-0.00316364
-7.48458e-06
-0.00313944
-5.42857e-05
-0.00310694
-0.000102355
-0.0030728
-0.000150939
-0.00303996
-0.000199656
-0.0030094
-0.000248347
-0.00298132
-0.00029698
-0.00295568
-0.000345587
-0.00293252
-0.000394195
-0.00291206
-0.000442774
-0.00289456
-0.000491206
-0.00288018
-0.00286889
-0.00053935
2.27848e-05
-0.000656202
5.78058e-05
-0.00163754
8.35665e-05
-0.00232109
9.05387e-05
-0.00275024
7.78178e-05
-0.00298707
4.89474e-05
-0.00309503
8.71634e-06
-0.00312602
-3.86159e-05
-0.0031163
-8.99468e-05
-0.00308811
-0.000143296
-0.00305359
-0.000197513
-0.00301859
-0.000251973
-0.0029855
-0.00030636
-0.00295502
-0.000360543
-0.00292714
-0.000414512
-0.00290171
-0.000468331
-0.0028787
-0.000522071
-0.00285832
-0.000575734
-0.00284089
-0.00062919
-0.00282673
-0.00281584
-0.000682238
1.9266e-05
-0.000675468
4.56671e-05
-0.00166394
6.00571e-05
-0.00233548
5.50007e-05
-0.00274518
3.09404e-05
-0.00296301
-8.0009e-06
-0.00305608
-5.69946e-05
-0.00307703
-0.000112015
-0.00306128
-0.000170264
-0.00302986
-0.000230029
-0.00299382
-0.000290344
-0.00295827
-0.000350692
-0.00292515
-0.000410803
-0.00289491
-0.000470554
-0.00286739
-0.000529937
-0.00284233
-0.000589035
-0.0028196
-0.00064797
-0.00279938
-0.000706791
-0.00278207
-0.000765366
-0.00276815
-0.00275781
-0.000823401
1.55381e-05
-0.000691006
3.31929e-05
-0.0016816
3.63795e-05
-0.00233866
1.972e-05
-0.00272852
-1.5133e-05
-0.00292816
-6.36066e-05
-0.00300761
-0.000120913
-0.00301972
-0.00018329
-0.00299891
-0.000248241
-0.00296491
-0.0003143
-0.00292776
-0.000380674
-0.0028919
-0.000446936
-0.00285889
-0.00051285
-0.00282899
-0.000578286
-0.00280195
-0.000643212
-0.0027774
-0.000707707
-0.00275511
-0.000771931
-0.00273516
-0.000835999
-0.002718
-0.000899793
-0.00270436
-0.00269472
-0.000962879
1.16505e-05
-0.000702657
2.05261e-05
-0.00169047
1.27572e-05
-0.00233089
-1.50393e-05
-0.00270073
-6.01344e-05
-0.00288306
-0.00011762
-0.00295012
-0.000182812
-0.00295453
-0.000252229
-0.00292949
-0.000323668
-0.00289347
-0.000395897
-0.00285554
-0.000468277
-0.00281952
-0.000540476
-0.00278669
-0.000612289
-0.00275718
-0.000683573
-0.00273067
-0.000754248
-0.00270672
-0.000824349
-0.00268501
-0.000894046
-0.00266546
-0.00096353
-0.00264852
-0.00103271
-0.00263517
-0.00262638
-0.00110105
7.65257e-06
-0.000710309
7.80102e-06
-0.00169062
-1.06072e-05
-0.00231249
-4.90426e-05
-0.00266229
-0.000103828
-0.00282828
-0.000169817
-0.00288414
-0.00024248
-0.00288187
-0.000318622
-0.00285335
-0.000396322
-0.00281577
-0.000474567
-0.00277729
-0.000552871
-0.00274121
-0.000630997
-0.00270856
-0.000708792
-0.00267938
-0.000786111
-0.00265335
-0.000862825
-0.00263001
-0.000938893
-0.00260894
-0.00101446
-0.0025899
-0.0010898
-0.00257318
-0.00116491
-0.00256006
-0.00255186
-0.00123943
3.59203e-06
-0.000713901
-4.85824e-06
-0.00168217
-3.35327e-05
-0.00228381
-8.20842e-05
-0.00261374
-0.000146006
-0.00276435
-0.000219999
-0.00281014
-0.000299718
-0.00280215
-0.000382256
-0.00277081
-0.000465961
-0.00273207
-0.000550023
-0.00269323
-0.000634107
-0.00265713
-0.000718091
-0.00262458
-0.000801904
-0.00259557
-0.000885443
-0.00256981
-0.000968561
-0.00254689
-0.00105114
-0.00252636
-0.00113329
-0.00250775
-0.00121538
-0.00249108
-0.00129764
-0.0024778
-0.00246886
-0.00138065
-4.85789e-07
-0.000713415
-1.73395e-05
-0.00166532
-5.58606e-05
-0.00224529
-0.000113988
-0.00255561
-0.000186494
-0.00269185
-0.000267992
-0.00272864
-0.000354342
-0.0027158
-0.00044292
-0.00268223
-0.000532319
-0.00264267
-0.000621922
-0.00260362
-0.000711544
-0.00256751
-0.000801196
-0.00253493
-0.000890949
-0.00250582
-0.000980833
-0.00247993
-0.00107079
-0.00245693
-0.00116072
-0.00243643
-0.00125062
-0.00241785
-0.00134084
-0.00240087
-0.00143194
-0.0023867
-0.00237414
-0.00152666
-4.53916e-06
-0.000708876
-2.95443e-05
-0.00164031
-7.74568e-05
-0.00219738
-0.000144609
-0.00248846
-0.00022515
-0.00261131
-0.000313656
-0.00264014
-0.000406201
-0.00262325
-0.000500424
-0.00258801
-0.000595137
-0.00254795
-0.000689884
-0.00250888
-0.00078461
-0.00247278
-0.000879466
-0.00244007
-0.000974701
-0.00241058
-0.0010706
-0.00238402
-0.00116746
-0.00236008
-0.00126545
-0.00233843
-0.00136472
-0.00231859
-0.00146581
-0.00229977
-0.00157098
-0.00228153
-0.00227524
-0.00166989
-8.51875e-06
-0.000700358
-4.13692e-05
-0.00160746
-9.81896e-05
-0.00214056
-0.000173813