/*--------------------------------*- C++ -*----------------------------------*\
  =========                 |
  \\      /  F ield         | OpenFOAM: The Open Source CFD Toolbox
   \\    /   O peration     | Website:  https://openfoam.org
    \\  /    A nd           | Version:  6.0
     \\/     M anipulation  |
\*---------------------------------------------------------------------------*/
FoamFile
{
    version     2.0;
    format      ascii;
    class       volVectorField;
    location    "20.6";
    object      U;
}
// * * * * * * * * * * * * * * * * * * * * * * * * * * * * * * * * * * * * * //

dimensions      [0 1 -1 0 0 0 0];

internalField   nonuniform List<vector> 
8000
(
(-0.000504209 0.000567457 -3.54813e-21)
(-0.0027454 0.00142161 1.89657e-20)
(-0.00687662 0.00203434 -2.30679e-20)
(-0.0119417 0.00246075 1.75659e-20)
(-0.0174453 0.00274261 8.55412e-21)
(-0.0231095 0.00291408 -2.56873e-20)
(-0.0287366 0.00300445 -2.27049e-21)
(-0.0341994 0.0030386 -8.05875e-22)
(-0.0394281 0.00303751 -1.33342e-20)
(-0.0443945 0.00301881 -7.22429e-21)
(-0.0491003 0.0029972 5.38743e-21)
(-0.0535689 0.00298477 2.04829e-20)
(-0.0578388 0.0029912 -1.53361e-21)
(-0.0619574 0.00302396 2.19485e-21)
(-0.0659779 0.00308839 -2.06323e-20)
(-0.0699588 0.00318777 1.2713e-20)
(-0.0739588 0.00332347 -1.82164e-20)
(-0.077994 0.00349581 2.75667e-20)
(-0.0820261 0.00370486 -3.08926e-23)
(-0.0863537 0.00394376 5.95511e-21)
(-0.000592027 0.00171395 1.17827e-20)
(-0.00295692 0.00426631 -6.02156e-20)
(-0.00716271 0.0060711 -4.15908e-20)
(-0.0122644 0.0073015 -2.82448e-20)
(-0.0177737 0.00808898 -3.63358e-20)
(-0.0234175 0.00854025 7.99632e-21)
(-0.0290019 0.00874589 -4.19455e-20)
(-0.0344027 0.00878207 -9.42151e-21)
(-0.0395519 0.00871247 2.97675e-21)
(-0.0444228 0.00859022 3.13516e-20)
(-0.0490182 0.00845942 -3.42001e-20)
(-0.0533624 0.00835624 4.75739e-20)
(-0.0574948 0.00830973 -3.56263e-20)
(-0.0614638 0.00834234 -4.2249e-20)
(-0.0653239 0.00847034 -5.82242e-20)
(-0.0691352 0.00870388 3.71831e-20)
(-0.0729582 0.00904746 -1.20277e-20)
(-0.0768105 0.00950252 -4.37969e-20)
(-0.0806537 0.0100699 4.14105e-20)
(-0.0847897 0.0107292 -3.0778e-20)
(-0.000767196 0.00284264 1.15183e-19)
(-0.00337936 0.00706689 5.96521e-20)
(-0.00773539 0.0100437 6.70857e-20)
(-0.012912 0.0120618 5.58224e-21)
(-0.0184347 0.0133408 3.70785e-20)
(-0.0240401 0.0140585 4.62777e-20)
(-0.0295421 0.014366 -8.40986e-20)
(-0.034822 0.0143898 -4.45356e-20)
(-0.0398158 0.0142358 -5.80018e-20)
(-0.0444997 0.0139922 6.19176e-20)
(-0.0488785 0.0137325 -4.72926e-20)
(-0.0529785 0.0135172 -6.08479e-20)
(-0.0568404 0.0133954 -2.21558e-20)
(-0.060515 0.0134052 2.10487e-20)
(-0.064059 0.013575 -5.85292e-21)
(-0.0675357 0.0139226 8.43837e-21)
(-0.0710096 0.0144569 9.76763e-20)
(-0.0745015 0.0151812 -1.37121e-20)
(-0.0779727 0.016098 -9.93004e-20)
(-0.0817323 0.0171732 1.30919e-19)
(-0.00102773 0.00394299 4.00766e-20)
(-0.00400847 0.00979667 -5.66085e-20)
(-0.00858969 0.0139131 -1.42003e-20)
(-0.0138796 0.0166924 2.65485e-20)
(-0.0194241 0.0184397 7.53837e-20)
(-0.0249747 0.0194026 1.65046e-19)
(-0.0303566 0.0197904 1.61272e-19)
(-0.0354596 0.0197788 1.33981e-20)
(-0.0402258 0.0195146 9.88967e-20)
(-0.0446355 0.0191208 1.51375e-19)
(-0.0486965 0.0186999 -1.20958e-19)
(-0.0524374 0.0183374 1.79011e-19)
(-0.0559016 0.0181029 -4.05348e-20)
(-0.0591424 0.018052 1.02252e-20)
(-0.0622202 0.0182264 4.23337e-20)
(-0.0652031 0.0186541 5.62577e-20)
(-0.0681613 0.0193496 -8.85325e-20)
(-0.0711212 0.0203202 -7.38944e-20)
(-0.0740442 0.0215716 -1.30781e-19)
(-0.0772516 0.0230555 1.90378e-19)
(-0.00137084 0.00500575 -2.09383e-20)
(-0.00483803 0.0124315 -2.14333e-19)
(-0.00971785 0.0176432 -6.33963e-20)
(-0.015159 0.0211476 -1.54489e-19)
(-0.0207342 0.0233324 5.83968e-20)
(-0.0262149 0.0245118 -9.20992e-20)
(-0.0314414 0.0249514 3.1673e-20)
(-0.0363151 0.0248739 -1.95065e-19)
(-0.0407861 0.0244657 1.02907e-19)
(-0.04484 0.0238829 -1.2272e-19)
(-0.0484885 0.0232573 -1.09138e-19)
(-0.051763 0.022699 -1.222e-19)
(-0.0547097 0.0222999 1.10924e-19)
(-0.0573854 0.0221344 -9.95934e-20)
(-0.0598548 0.0222605 1.38683e-19)
(-0.0621922 0.0227187 4.00819e-20)
(-0.0644761 0.0235324 9.9216e-20)
(-0.0667404 0.0247154 4.3549e-20)
(-0.0689488 0.0262799 -1.72417e-19)
(-0.0714399 0.0281627 2.80574e-19)
(-0.00179314 0.00602317 9.23058e-20)
(-0.00585982 0.0149502 7.10033e-21)
(-0.0111088 0.0212019 3.80246e-20)
(-0.0167374 0.0253867 1.32678e-19)
(-0.0223517 0.0279712 -2.03109e-20)
(-0.0277476 0.0293329 2.15452e-19)
(-0.0327854 0.0297907 9.56261e-20)
(-0.0373806 0.0296116 8.0389e-21)
(-0.0414934 0.0290191 2.45891e-19)
(-0.0451161 0.0282012 8.05698e-20)
(-0.0482649 0.0273174 3.82213e-20)
(-0.0509742 0.0265032 1.21306e-19)
(-0.053293 0.0258734 1.11192e-19)
(-0.0552816 0.0255238 2.02993e-19)
(-0.0570099 0.0255315 -1.81438e-19)
(-0.0585595 0.0259537 2.56475e-19)
(-0.0600192 0.0268269 3.36933e-21)
(-0.0614339 0.028176 -3.27832e-19)
(-0.0627719 0.0300237 4.24994e-19)
(-0.0643971 0.0322933 1.76049e-19)
(-0.00229071 0.00698893 -5.4398e-20)
(-0.00706359 0.0173344 -9.87434e-20)
(-0.0127477 0.024561 -2.05475e-19)
(-0.0185961 0.029374 -6.08938e-21)
(-0.024255 0.0323149 3.50615e-20)
(-0.0295502 0.033821 -2.62372e-19)
(-0.0343657 0.0342607 -1.94649e-19)
(-0.0386347 0.0339419 -2.78442e-20)
(-0.0423297 0.0331219 -2.46211e-19)
(-0.045451 0.0320184 -1.70468e-19)
(-0.0480197 0.0308168 -4.96805e-20)
(-0.0500732 0.0296775 -1.59969e-19)
(-0.0516629 0.0287388 -2.60717e-21)
(-0.0528526 0.0281202 -2.12439e-19)
(-0.053717 0.0279219 8.93645e-20)
(-0.0543463 0.0282228 -1.01956e-19)
(-0.0548415 0.0290785 7.81071e-20)
(-0.0552616 0.0305316 -9.93859e-20)
(-0.0555844 0.0326229 -2.84054e-19)
(-0.0562088 0.0352634 -8.63113e-20)
(-0.00285919 0.0078979 -2.00227e-20)
(-0.00843677 0.0195683 -2.17432e-20)
(-0.0146144 0.0276959 1.72276e-19)
(-0.0207086 0.0330785 -2.80345e-19)
(-0.0264117 0.0363288 4.11282e-20)
(-0.0315852 0.0379399 -1.61937e-19)
(-0.0361415 0.0383256 7.65258e-20)
(-0.0400348 0.0378302 3.43958e-19)
(-0.0432524 0.0367413 -2.20651e-20)
(-0.0458041 0.0353021 -2.56594e-19)
(-0.0477164 0.0337218 4.66242e-20)
(-0.0490297 0.0321835 9.03992e-21)
(-0.0497972 0.0308495 -5.26817e-20)
(-0.0500847 0.0298644 5.32946e-21)
(-0.0499717 0.0293556 4.62836e-19)
(-0.0495568 0.0294299 -6.59041e-20)
(-0.0489553 0.03017 -1.2856e-19)
(-0.0482436 0.031646 -2.30669e-19)
(-0.0474152 0.0339271 2.35315e-19)
(-0.046918 0.0369175 1.01437e-19)
(-0.00349367 0.00874561 1.01094e-19)
(-0.00996399 0.0216375 -1.32265e-19)
(-0.016683 0.0305842 1.86995e-19)
(-0.0230384 0.0364728 1.88238e-19)
(-0.0287752 0.0399836 1.73523e-19)
(-0.0337965 0.0416616 3.51865e-19)
(-0.0380478 0.041961 2.27535e-19)
(-0.0415084 0.0412582 -4.88935e-19)
(-0.0441834 0.0398658 2.50052e-19)
(-0.0460936 0.0380482 1.96215e-19)
(-0.047272 0.036034 -2.78624e-21)
(-0.0477617 0.034026 2.19644e-19)
(-0.0476166 0.0322088 1.71238e-19)
(-0.0469036 0.0307527 -9.31488e-20)
(-0.0457053 0.0298156 3.14753e-19)
(-0.0441281 0.0295389 -3.90175e-19)
(-0.0423028 0.0300423 1.56171e-19)
(-0.0403263 0.0314367 2.00842e-19)
(-0.0382152 0.0338357 -4.67989e-20)
(-0.0364864 0.0371462 4.03292e-19)
(-0.00418847 0.0095277 2.03159e-19)
(-0.0116265 0.023528 1.05326e-20)
(-0.0189203 0.0332045 -7.29144e-20)
(-0.0255368 0.0395315 -7.70162e-20)
(-0.0312811 0.0432537 -3.56648e-19)
(-0.0361037 0.0449639 5.05044e-20)
(-0.0399885 0.0451526 1.4309e-19)
(-0.0429442 0.0442225 -6.88239e-20)
(-0.0449966 0.0425059 5.67719e-20)
(-0.0461806 0.0402825 -1.50538e-20)
(-0.0465365 0.0377949 -7.41577e-20)
(-0.0461107 0.0352604 7.04071e-20)
(-0.0449574 0.0328818 -3.06106e-19)
(-0.0431425 0.0308537 2.93451e-19)
(-0.0407498 0.0293658 -2.54178e-19)
(-0.0378918 0.0285997 7.8516e-20)
(-0.0347146 0.0287233 1.78661e-19)
(-0.0313385 0.0299055 -3.71637e-20)
(-0.0278113 0.0323268 -1.23632e-19)
(-0.0247456 0.0359139 -8.40233e-20)
(-0.00493689 0.0102393 -2.53066e-19)
(-0.0134011 0.025225 -1.66464e-20)
(-0.0212842 0.0355348 5.32933e-20)
(-0.0281413 0.0422292 1.37015e-19)
(-0.0338446 0.0461145 -1.93436e-19)
(-0.0383983 0.0478282 -1.68797e-19)
(-0.0418299 0.0478922 3.93984e-19)
(-0.0441823 0.0467308 -2.17705e-19)
(-0.0455058 0.0446902 -1.40434e-19)
(-0.0458524 0.0420589 -2.01504e-19)
(-0.0452723 0.0390861 1.33395e-19)
(-0.0438164 0.035997 -3.60769e-21)
(-0.0415391 0.0330056 -2.49109e-19)
(-0.0385043 0.0303253 -4.07504e-19)
(-0.0347945 0.0281754 3.10456e-19)
(-0.0305263 0.0267808 -2.5154e-19)
(-0.0258592 0.0263673 3.56634e-19)
(-0.0209378 0.0271815 -9.99021e-20)
(-0.0158491 0.0295022 2.10004e-19)
(-0.0113371 0.033303 -7.12713e-19)
(-0.00573083 0.0108745 -5.12529e-19)
(-0.0152601 0.0267116 3.36057e-19)
(-0.0237232 0.0375509 4.5704e-20)
(-0.0307736 0.0445379 8.84013e-21)
(-0.0363579 0.0485394 -2.07199e-19)
(-0.0405398 0.0502345 3.04693e-19)
(-0.0433958 0.0501732 3.32594e-20)
(-0.0450072 0.0487966 -6.24798e-20)
(-0.0454538 0.0464593 -2.00542e-19)
(-0.044808 0.0434526 2.16777e-19)
(-0.0431338 0.0400247 5.49605e-19)
(-0.0404892 0.0363994 -1.21418e-19)
(-0.0369306 0.0327923 2.74367e-19)
(-0.0325206 0.0294261 -3.24094e-19)
(-0.0273388 0.0265418 -3.10761e-19)
(-0.0215028 0.0244039 1.86849e-19)
(-0.0151835 0.0233013 3.08708e-19)
(-0.00854812 0.0235775 -1.00035e-18)
(-0.00172711 0.0256487 1.17461e-19)
(0.00435866 0.029576 1.5972e-19)
(-0.0065605 0.0114263 3.79528e-19)
(-0.0171699 0.0279687 1.24839e-19)
(-0.0261754 0.0392251 6.50315e-19)
(-0.033339 0.0464258 3.34628e-20)
(-0.038689 0.050497 -7.23233e-20)
(-0.0423537 0.0521579 -3.44396e-19)
(-0.0444637 0.051984 2.92877e-19)
(-0.045143 0.0504301 5.25453e-19)
(-0.0445047 0.0478553 3.50084e-19)
(-0.0426467 0.0445481 2.52745e-19)
(-0.0396512 0.040749 2.17892e-19)
(-0.0355884 0.0366714 -3.91276e-19)
(-0.0305211 0.0325209 -1.22565e-19)
(-0.0245136 0.028515 -9.02714e-20)
(-0.0176441 0.0249015 9.67336e-19)
(-0.0100305 0.0219716 -3.31375e-21)
(-0.00185215 0.0200717 -2.41079e-19)
(0.00670536 0.019654 -7.60272e-20)
(0.0154714 0.0213146 6.9186e-19)
(0.023295 0.0252572 9.08039e-20)
(-0.0074143 0.0118869 -1.87177e-20)
(-0.0190911 0.0289746 -3.5902e-19)
(-0.028568 0.0405259 -5.34099e-19)
(-0.0357258 0.0478555 -1.48613e-19)
(-0.0406809 0.0519486 8.20611e-20)
(-0.0436312 0.0535642 1.76713e-20)
(-0.0447644 0.0533021 4.6863e-19)
(-0.0442513 0.0516295 -5.81211e-19)
(-0.042242 0.0489082 -2.2108e-19)
(-0.038864 0.0454213 -4.45548e-19)
(-0.0342238 0.0413975 -3.79493e-19)
(-0.0284104 0.0370322 -3.36034e-19)
(-0.0215011 0.0325098 8.40192e-20)
(-0.0135696 0.028027 -1.09097e-19)
(-0.00469917 0.0238168 4.67455e-19)
(0.00498857 0.0201724 -2.56209e-19)
(0.0153048 0.0174746 -8.03161e-19)
(0.0260517 0.016277 -1.62047e-19)
(0.037035 0.017392 3.96395e-19)
(0.0468213 0.0212292 -3.45299e-19)
(-0.00827885 0.0122476 -6.05538e-20)
(-0.0209785 0.0297062 4.39091e-19)
(-0.0308172 0.041419 -5.59997e-19)
(-0.0378052 0.0487847 1.29439e-19)
(-0.0421522 0.0528482 -2.66612e-19)
(-0.0441291 0.0544085 5.93866e-19)
(-0.0439835 0.0540903 -4.24444e-19)
(-0.0419343 0.0523736 4.85607e-19)
(-0.0381715 0.0496241 -4.60429e-19)
(-0.0328561 0.0461207 1.96462e-19)
(-0.0261244 0.0420799 -9.53419e-20)
(-0.0180928 0.0376776 -2.39392e-19)
(-0.00886418 0.0330704 -2.95807e-19)
(0.00146489 0.0284205 2.9476e-19)
(0.0127918 0.0239236 -2.46863e-19)
(0.0249787 0.0198407 -5.39783e-19)
(0.0378182 0.0165429 5.61957e-19)
(0.0511029 0.0146458 -7.16923e-19)
(0.0646492 0.0151864 3.22464e-19)
(0.0767116 0.0188332 8.13119e-21)
(-0.00913917 0.0125003 -5.48992e-19)
(-0.0227808 0.0301399 -5.92752e-19)
(-0.0328285 0.0418689 6.83089e-20)
(-0.039431 0.0491687 -5.71614e-19)
(-0.0428968 0.0531447 -5.08708e-20)
(-0.0435716 0.0546372 -4.20475e-19)
(-0.0417633 0.0542971 -9.64619e-20)
(-0.0377395 0.0526197 -2.81921e-19)
(-0.0317303 0.0499782 2.50708e-21)
(-0.0239328 0.0466522 -1.23358e-19)
(-0.0145177 0.0428519 8.76173e-21)
(-0.00363744 0.0387387 -3.55493e-19)
(0.0085662 0.0344446 3.91838e-19)
(0.0219549 0.0300936 -5.55973e-19)
(0.0363837 0.0258294 1.96997e-19)
(0.051673 0.0218476 7.48681e-21)
(0.0675723 0.0184509 -3.13777e-19)
(0.0838502 0.0162361 7.78081e-19)
(0.100385 0.0164145 -1.85859e-19)
(0.115152 0.0199165 -1.20491e-19)
(-0.00997896 0.0126378 6.16252e-19)
(-0.0244408 0.0302543 3.32748e-19)
(-0.034495 0.0418419 3.09522e-19)
(-0.0404388 0.0489643 4.62082e-20)
(-0.0426831 0.0527878 4.18533e-19)
(-0.0416493 0.0541952 6.03269e-19)
(-0.0377051 0.0538651 4.93937e-19)
(-0.0311647 0.0523115 4.42106e-20)
(-0.0222973 0.0499201 3.61744e-19)
(-0.0113358 0.0469792 5.58963e-19)
(0.00151132 0.0437034 -1.45003e-19)
(0.0160485 0.0402527 2.43363e-19)
(0.0320821 0.0367484 1.9651e-19)
(0.049411 0.0332894 1.99927e-19)
(0.0678179 0.0299724 1.18298e-18)
(0.0870437 0.0269144 -4.43415e-19)
(0.106748 0.0242971 -2.70951e-20)
(0.126626 0.0225839 5.14601e-19)
(0.14666 0.0230266 -2.91847e-19)
(0.164704 0.0267304 1.44257e-19)
(-0.0107806 0.0126546 -4.98341e-19)
(-0.0258942 0.0300311 3.19215e-20)
(-0.0356965 0.0413102 -3.98911e-19)
(-0.0406427 0.0481364 -5.19248e-20)
(-0.0412506 0.0517371 2.92014e-19)
(-0.0380172 0.0530382 -8.69328e-19)
(-0.0313678 0.0527467 -6.44941e-22)
(-0.0216608 0.0513979 4.0458e-19)
(-0.00920161 0.0493954 3.80134e-19)
(0.00574218 0.0470443 -1.67365e-19)
(0.0229236 0.0445762 5.51933e-20)
(0.0420993 0.0421676 1.28015e-19)
(0.0630127 0.0399538 -6.06098e-20)
(0.0853804 0.0380394 -6.80073e-19)
(0.108879 0.0365093 1.72175e-19)
(0.133122 0.0354329 4.74115e-19)
(0.157605 0.0348691 -6.75671e-19)
(0.181848 0.0350569 3.29583e-19)
(0.205922 0.0371228 8.85565e-20)
(0.227912 0.0421609 4.48566e-19)
(-0.0115249 0.012547 -7.35726e-20)
(-0.0270684 0.0294575 -3.49167e-19)
(-0.0362955 0.0402556 1.60675e-19)
(-0.0398313 0.0466651 7.44581e-22)
(-0.0383046 0.0499734 -7.00264e-19)
(-0.0322886 0.0511486 1.0928e-19)
(-0.022264 0.050926 -2.07537e-20)
(-0.00863097 0.0498624 1.41373e-19)
(0.00827108 0.0483819 -6.47133e-19)
(0.0281413 0.0468118 -4.53756e-20)
(0.0506946 0.0454104 -1.52059e-19)
(0.0756383 0.0443874 1.35256e-19)
(0.10265 0.0439192 4.5671e-19)
(0.131353 0.0441605 -7.0605e-20)
(0.161295 0.0452539 2.73669e-20)
(0.191903 0.0473233 1.79934e-19)
(0.222402 0.0504368 -4.44275e-20)
(0.25191 0.0547496 3.63623e-19)
(0.280316 0.0613959 -2.10657e-19)
(0.306306 0.0711642 -3.33753e-19)
(-0.0121899 0.0123128 6.82491e-20)
(-0.0278794 0.0285266 1.66534e-20)
(-0.0361336 0.0386731 1.40013e-19)
(-0.0377619 0.0445526 3.42925e-19)
(-0.0335103 0.0475101 1.92435e-19)
(-0.0240292 0.0485535 2.00785e-20)
(-0.00985539 0.0484433 -2.2973e-19)
(0.00856903 0.0477555 5.88911e-20)
(0.0308691 0.0469319 3.09741e-19)
(0.0567088 0.0463204 -5.24885e-19)
(0.0857633 0.0462048 3.96096e-19)
(0.117695 0.04683 -2.98476e-19)
(0.152128 0.0484234 2.53357e-19)
(0.188628 0.0512162 -5.46571e-19)
(0.226667 0.0554683 6.01562e-19)
(0.265571 0.0614836 -6.4354e-19)
(0.304375 0.069607 -1.67487e-19)
(0.341753 0.0804698 5.26496e-19)
(0.376537 0.0960697 -1.77555e-19)
(0.405518 0.116585 7.9272e-20)
(-0.0127497 0.0119508 -5.16487e-20)
(-0.0282286 0.0272379 4.87423e-19)
(-0.035026 0.0365736 -2.04311e-21)
(-0.0341548 0.0418294 -3.02588e-19)
(-0.0264862 0.0444033 -2.03497e-19)
(-0.012753 0.045339 3.72813e-19)
(0.00644706 0.0454168 -1.47665e-19)
(0.0306219 0.0452251 -1.86022e-20)
(0.0593494 0.0452146 3.07761e-19)
(0.0922428 0.0457405 -3.82334e-19)
(0.128922 0.0470938 4.19352e-20)
(0.168994 0.0495277 -4.97162e-19)
(0.212036 0.0532821 2.61886e-19)
(0.257594 0.0586123 -7.4956e-19)
(0.305192 0.0658273 1.19467e-18)
(0.354343 0.07534 -2.18837e-19)
(0.404583 0.0877846 2.28964e-19)
(0.455763 0.104562 -5.94331e-19)
(0.508355 0.128702 3.37581e-21)
(0.55435 0.156099 6.77827e-19)
(-0.0131718 0.01146 -1.56464e-19)
(-0.0279986 0.0255971 1.3518e-19)
(-0.0327574 0.0339852 -4.97854e-19)
(-0.0286893 0.0385573 7.36366e-19)
(-0.0168032 0.0407576 -5.31632e-19)
(0.00207553 0.0416595 2.744e-20)
(0.0272738 0.0420556 -5.73282e-19)
(0.0582286 0.042536 4.09891e-19)
(0.0944403 0.0435459 -5.85567e-20)
(0.135433 0.0454263 -3.61762e-19)
(0.180723 0.0484439 -2.11148e-19)
(0.229804 0.0528127 2.23098e-19)
(0.282142 0.0587134 1.47611e-19)
(0.337188 0.0663098 -6.53493e-19)
(0.394407 0.0757656 2.35854e-19)
(0.453326 0.0872564 -3.48312e-19)
(0.513591 0.10099 4.22283e-20)
(0.5752 0.117403 -2.96619e-19)
(0.638984 0.137666 1.22267e-19)
(0.697704 0.157859 -4.46087e-19)
(-0.0134151 0.0108387 4.45436e-19)
(-0.0270495 0.023616 -2.69785e-19)
(-0.0290794 0.0309543 2.22302e-19)
(-0.0210042 0.0348315 -2.80652e-19)
(-0.0039891 0.0367281 4.70429e-19)
(0.0210288 0.0377394 -8.22697e-21)
(0.0532733 0.0386596 -5.72713e-20)
(0.0920709 0.040067 -4.24652e-20)
(0.136792 0.0423827 2.61383e-19)
(0.186805 0.0459088 4.44487e-19)
(0.241446 0.050855 -2.62565e-19)
(0.300006 0.0573567 2.55312e-19)
(0.361741 0.0654886 4.66525e-19)
(0.425892 0.075274 -3.27108e-19)
(0.491722 0.0866899 -6.65071e-19)
(0.55856 0.0996631 1.21671e-18)
(0.62585 0.114053 -2.17202e-19)
(0.693229 0.129692 -7.06909e-20)
(0.760897 0.146903 7.63323e-19)
(0.823677 0.164819 -1.61088e-19)
(-0.0134281 0.0100849 -7.25166e-19)
(-0.0252176 0.021313 -4.82747e-19)
(-0.0237112 0.0275457 -1.85317e-19)
(-0.0107036 0.0307799 3.57533e-19)
(0.012457 0.0325179 -8.07172e-19)
(0.0446891 0.0338655 4.18018e-19)
(0.0850677 0.0356043 5.2979e-20)
(0.132747 0.0382822 5.35776e-20)
(0.186889 0.0422716 -5.47554e-19)
(0.246616 0.0478063 -1.9337e-19)
(0.310987 0.0550045 -3.4092e-19)
(0.378996 0.0638872 3.29301e-19)
(0.449595 0.0743914 9.35452e-20)
(0.521734 0.0863804 1.83518e-20)
(0.594404 0.0996511 4.29877e-19)
(0.666684 0.113935 -4.35283e-19)
(0.737779 0.128888 -1.8123e-20)
(0.80705 0.144108 1.09159e-20)
(0.874176 0.159436 5.94942e-20)
(0.936286 0.17644 3.39066e-19)
(-0.0131478 0.00919735 2.3089e-19)
(-0.0223149 0.0187154 5.94673e-19)
(-0.0163443 0.0238443 4.77222e-19)
(0.00263057 0.0265625 -1.64499e-19)
(0.03304 0.0283733 5.72144e-19)
(0.0736075 0.030376 -4.8206e-20)
(0.12319 0.0333189 -6.79036e-20)
(0.18068 0.0376921 4.04247e-20)
(0.244931 0.0437868 5.53114e-19)
(0.314711 0.0517299 3.25019e-19)
(0.3887 0.0615095 9.49157e-20)
(0.465511 0.0729966 5.82177e-21)
(0.543739 0.0859653 -6.30131e-19)
(0.622022 0.100113 5.47527e-19)
(0.6991 0.115076 9.40259e-20)
(0.773865 0.130446 -1.54711e-19)
(0.845398 0.145777 -6.72035e-19)
(0.912987 0.160616 -5.70161e-20)
(0.976106 0.174499 2.65777e-19)
(1.03397 0.190563 -5.43115e-20)
(-0.0124994 0.00817719 -5.85895e-19)
(-0.0181326 0.0158623 2.4514e-19)
(-0.00665164 0.0199575 -1.19685e-18)
(0.0194202 0.0223716 4.90188e-19)
(0.0582367 0.0245793 -3.90927e-19)
(0.108253 0.0276484 2.88209e-19)
(0.168009 0.0322619 -4.47746e-19)
(0.236025 0.0388141 4.11022e-20)
(0.310721 0.0474697 -2.30835e-20)
(0.390404 0.0582022 1.20448e-19)
(0.473289 0.0708256 1.73986e-19)
(0.557564 0.0850281 -3.28837e-19)
(0.641475 0.100406 1.74135e-19)
(0.723409 0.116496 1.60006e-19)
(0.801964 0.132811 6.91763e-19)
(0.876004 0.148859 -3.00346e-19)
(0.944673 0.164172 -1.99903e-19)
(1.00741 0.178344 3.36326e-19)
(1.06383 0.190815 1.79818e-19)
(1.11449 0.205425 -3.37833e-19)
(-0.0113984 0.00703043 5.13211e-19)
(-0.0124463 0.0128093 4.9486e-19)
(0.00569996 0.0160194 1.4277e-19)
(0.0400671 0.0184332 6.01332e-19)
(0.0884572 0.0214557 2.95413e-19)
(0.148954 0.026086 -5.32549e-19)
(0.21966 0.0328968 8.06617e-19)
(0.298581 0.0421328 -3.96954e-19)
(0.383584 0.0537757 3.9629e-19)
(0.472421 0.0675916 5.12829e-19)
(0.562803 0.0831787 -2.93088e-19)
(0.652522 0.10002 5.56685e-20)
(0.739562 0.117535 3.10584e-19)
(0.822208 0.135131 2.18908e-19)
(0.899107 0.152245 5.04532e-19)
(0.969302 0.168375 -2.01728e-19)
(1.03222 0.183097 -2.47522e-20)
(1.08766 0.196113 3.18893e-19)
(1.13559 0.20695 -6.85127e-20)
(1.17739 0.219496 3.26693e-22)
(-0.00975188 0.00577081 -2.64928e-19)
(-0.00502394 0.00963389 -9.73753e-19)
(0.0210337 0.0121954 2.29309e-19)
(0.0649265 0.0150081 -1.74569e-19)
(0.124005 0.019352 -4.0298e-19)
(0.19585 0.0261048 -2.87724e-19)
(0.277974 0.0356661 -1.77755e-19)
(0.367733 0.0480628 4.31702e-19)
(0.462332 0.0630279 -2.56388e-19)
(0.558923 0.0800673 -2.62571e-19)
(0.654754 0.098534 -3.32193e-19)
(0.747333 0.117705 -5.48351e-20)
(0.834568 0.136855 -3.7111e-20)
(0.914859 0.155315 -7.68777e-19)
(0.987136 0.172521 3.72934e-19)
(1.05084 0.188032 -4.90406e-19)
(1.10587 0.201545 1.54252e-19)
(1.15251 0.212906 -1.17425e-18)
(1.19122 0.221852 3.53895e-19)
(1.22372 0.231902 4.48154e-19)
(-0.00746237 0.0044225 -6.6525e-20)
(0.00436422 0.00644019 4.75058e-19)
(0.0396445 0.00868601 3.04561e-20)
(0.0942774 0.012392 7.32876e-20)
(0.165034 0.0186408 -1.49002e-19)
(0.248835 0.0281162 -2.45227e-21)
(0.342443 0.0409643 -3.82908e-21)
(0.442434 0.0569139 -8.99196e-20)
(0.545297 0.0753827 3.18924e-19)
(0.647625 0.0955778 1.2332e-19)
(0.746335 0.116603 5.59975e-19)
(0.838863 0.137564 -1.52695e-19)
(0.923293 0.157653 1.06663e-19)
(0.998398 0.176207 -1.39004e-20)
(1.06362 0.192744 2.95539e-19)
(1.11897 0.206961 1.80952e-19)
(1.16491 0.218729 4.36347e-19)
(1.20225 0.228064 -7.04914e-19)
(1.23192 0.234951 8.8739e-19)
(1.25578 0.242363 -2.81208e-19)
(-0.00443123 0.00302229 -6.19239e-19)
(0.0159341 0.00336263 -1.93308e-19)
(0.0617785 0.0057288 1.51086e-19)
(0.128293 0.0109127 9.52549e-20)
(0.211515 0.0197064 9.76059e-20)
(0.30753 0.0325064 9.8956e-20)
(0.412197 0.0491088 -2.47663e-19)
(0.521232 0.0688604 -1.02427e-19)
(0.630438 0.0908106 3.17658e-20)
(0.735993 0.113857 -3.03468e-19)
(0.834717 0.136891 -1.37319e-19)
(0.92426 0.158918 8.29907e-19)
(1.00316 0.179139 -2.14085e-19)
(1.07081 0.196994 -2.95307e-19)
(1.12732 0.212166 -1.40278e-19)
(1.17336 0.224548 9.70853e-20)
(1.20996 0.234212 1.18565e-19)
(1.23837 0.241346 -5.68354e-19)
(1.25989 0.246156 8.22824e-19)
(1.27637 0.251054 -7.13283e-19)
(-0.000562954 0.001621 -7.00877e-20)
(0.0298753 0.000567621 2.00789e-20)
(0.0876122 0.00359705 -2.56008e-20)
(0.167013 0.0109221 3.74071e-19)
(0.263206 0.0229281 2.06053e-20)
(0.371262 0.039611 1.37379e-19)
(0.486025 0.060312 -2.85422e-19)
(0.602356 0.083922 -1.04114e-20)
(0.715507 0.109099 3.96566e-19)
(0.821492 0.134464 5.52949e-20)
(0.917354 0.158773 -3.45608e-19)
(1.00127 0.181037 -3.0362e-20)
(1.07249 0.200578 -2.84145e-19)
(1.13118 0.217027 2.82878e-19)
(1.17819 0.230293 3.93135e-19)
(1.21482 0.240494 -4.33456e-20)
(1.24259 0.2479 -5.28857e-20)
(1.26305 0.252847 1.61214e-19)
(1.2777 0.255703 -5.18531e-19)
(1.2883 0.258387 4.56673e-19)
(0.00423037 0.000284182 7.03754e-20)
(0.0463378 -0.00174729 -4.54037e-19)
(0.117231 0.00259409 1.21515e-19)
(0.210316 0.0127829 -3.76919e-19)
(0.319628 0.0286589 1.29604e-19)
(0.439073 0.0496895 -4.81343e-19)
(0.562438 0.0746599 1.94166e-19)
(0.683841 0.10196 -6.18148e-20)
(0.798242 0.129877 -2.5093e-21)
(0.901836 0.15684 6.32863e-20)
(0.992233 0.181587 -2.30536e-19)
(1.06842 0.203256 -3.29228e-19)
(1.13053 0.221391 -6.75485e-20)
(1.17958 0.235886 -3.03257e-20)
(1.21711 0.246903 -7.6958e-20)
(1.24492 0.254782 -2.50825e-20)
(1.26486 0.259957 -7.50905e-20)
(1.27864 0.262871 -6.5123e-20)
(1.28781 0.263993 -1.93863e-19)
(1.29396 0.264838 3.07671e-19)
(0.0100242 -0.000908261 1.69288e-19)
(0.0654182 -0.00335705 -1.88008e-19)
(0.150611 0.00304354 4.04619e-19)
(0.257908 0.016851 -1.74649e-19)
(0.380075 0.0372015 4.66783e-19)
(0.50976 0.0629013 6.65002e-21)
(0.639758 0.0921016 2.3445e-19)
(0.76369 0.122691 -6.28e-20)
(0.876582 0.152667 2.62093e-19)
(0.975194 0.18039 1.89625e-20)
(1.05802 0.204721 6.24196e-19)
(1.12506 0.225045 -4.30908e-19)
(1.17741 0.241205 5.80515e-20)
(1.21686 0.253389 1.1081e-19)
(1.24552 0.26201 5.8067e-19)
(1.26553 0.267593 -2.08639e-19)
(1.2789 0.270691 -4.13762e-20)
(1.28734 0.271807 -2.19273e-19)
(1.29231 0.271453 -2.31204e-20)
(1.29524 0.27083 1.09746e-19)
(0.0168764 -0.00186323 -8.12688e-20)
(0.0871478 -0.00401538 2.34743e-19)
(0.187603 0.00527571 -2.40328e-19)
(0.309308 0.0234547 9.49275e-20)
(0.443623 0.0487846 -1.13485e-19)
(0.581934 0.0792908 4.16569e-19)
(0.716246 0.112455 -5.8024e-20)
(0.840037 0.145727 1.42976e-19)
(0.948826 0.176942 -8.41904e-20)
(1.04031 0.204552 -2.21245e-21)
(1.1141 0.227678 9.62118e-20)
(1.1713 0.246048 -7.45602e-20)
(1.2139 0.259845 1.93419e-19)
(1.24434 0.269548 -9.64233e-20)
(1.26513 0.275785 -4.24751e-19)
(1.27857 0.279216 4.22347e-19)
(1.28664 0.28046 -1.9035e-19)
(1.29097 0.280035 1.52008e-19)
(1.29286 0.278459 2.63649e-19)
(1.29352 0.276691 1.08322e-19)
(0.0248224 -0.00247659 2.02222e-19)
(0.111481 -0.00346349 -4.16727e-19)
(0.227925 0.00961136 7.97357e-20)
(0.36386 0.0328731 -5.78461e-20)
(0.509175 0.0635444 -2.33329e-19)
(0.654115 0.0987835 -1.83133e-19)
(0.790223 0.135429 -3.59994e-20)
(0.911285 0.170612 -3.26547e-19)
(1.01374 0.202184 -1.98956e-20)
(1.0965 0.228848 -6.06896e-20)
(1.16046 0.250106 -1.64777e-19)
(1.20775 0.266081 -3.66098e-20)
(1.24114 0.277302 -1.26152e-19)
(1.26354 0.284505 -2.10603e-19)
(1.27763 0.288477 2.15711e-19)
(1.28573 0.289962 2.97538e-20)
(1.28968 0.289595 5.92962e-20)
(1.29094 0.287874 -2.48608e-19)
(1.29063 0.285301 -6.20877e-21)
(1.28974 0.282642 -3.83695e-19)
(0.0338704 -0.00263616 2.21714e-19)
(0.138287 -0.00144074 1.4788e-19)
(0.271156 0.0163441 -2.38435e-19)
(0.420749 0.0453168 3.72337e-19)
(0.575517 0.0815137 -4.01423e-20)
(0.724821 0.121194 1.39096e-19)
(0.860188 0.16065 4.81627e-20)
(0.976197 0.196877 1.70655e-19)
(1.07057 0.227929 -1.33631e-19)
(1.14365 0.252912 4.45485e-20)
(1.19756 0.27179 -4.27634e-20)
(1.23538 0.285097 -1.88229e-20)
(1.26045 0.293677 3.57865e-20)
(1.27593 0.298467 -6.59533e-20)
(1.28452 0.300358 -2.02757e-20)
(1.28841 0.300121 -6.20393e-20)
(1.28926 0.298372 -1.0086e-19)
(1.28829 0.295564 6.51156e-20)
(1.28644 0.292175 -8.93774e-20)
(1.2845 0.288811 3.86214e-19)
(0.0439974 -0.00222553 -1.10721e-19)
(0.167348 0.0023034 -3.13658e-19)
(0.31675 0.0257232 -4.17564e-20)
(0.47904 0.0609128 -1.13664e-20)
(0.641386 0.10262 -1.40517e-19)
(0.792664 0.146247 -2.30729e-19)
(0.924903 0.187705 7.55349e-20)
(1.03393 0.224073 -1.03796e-19)
(1.11903 0.253794 -1.16328e-19)
(1.18202 0.276496 6.4817e-20)
(1.22618 0.292637 -4.89896e-20)
(1.25531 0.303147 -9.91551e-20)
(1.27312 0.309128 -3.36079e-21)
(1.28283 0.311658 6.71654e-20)
(1.28704 0.311673 -6.85485e-20)
(1.28771 0.30993 9.5124e-20)
(1.28627 0.306995 2.55852e-20)
(1.28373 0.303267 6.45028e-20)
(1.28082 0.299199 1.25767e-19)
(1.27819 0.295255 -1.07746e-19)
(0.055146 -0.00112865 1.05762e-19)
(0.198354 0.00799662 -9.348e-21)
(0.364048 0.0379378 4.74576e-20)
(0.537714 0.0796952 -6.44093e-20)
(0.70554 0.126692 5.29685e-21)
(0.856423 0.173597 2.23535e-19)
(0.983433 0.216169 -1.46852e-19)
(1.08403 0.251799 6.2219e-20)
(1.1592 0.279486 5.48723e-20)
(1.21219 0.299449 -1.54251e-19)
(1.24723 0.31264 1.44983e-19)
(1.26867 0.320335 1.28567e-21)
(1.28034 0.323832 -1.02217e-19)
(1.28538 0.324283 1.23221e-19)
(1.28617 0.322623 -4.89179e-20)
(1.28443 0.319561 3.74128e-20)
(1.28134 0.315599 -4.18409e-20)
(1.27771 0.311077 -1.67331e-20)
(1.27411 0.306426 -1.46584e-19)
(1.27103 0.301979 4.48997e-20)
(0.0672237 0.000765201 -3.56619e-20)
(0.230916 0.0158315 9.57052e-20)
(0.412302 0.0531047 1.4922e-20)
(0.595724 0.101603 6.25951e-20)
(0.766824 0.153475 2.98705e-20)
(0.915096 0.20286 1.40021e-20)
(1.03515 0.245633 7.93929e-20)
(1.12635 0.279717 -9.63455e-21)
(1.19142 0.304791 3.502e-20)
(1.23488 0.321695 5.62792e-20)
(1.26169 0.331843 2.71666e-20)
(1.27649 0.336786 1.9508e-20)
(1.2831 0.337951 7.91198e-20)
(1.28445 0.336509 -7.65915e-20)
(1.28265 0.333353 1.64435e-20)
(1.27915 0.329126 -1.54042e-20)
(1.2749 0.324257 2.38318e-20)
(1.27054 0.31903 1.9971e-20)
(1.26649 0.313861 4.17211e-20)
(1.26314 0.308952 1.75478e-21)
(0.0801026 0.00355616 2.11412e-20)
(0.264568 0.0259541 1.93113e-20)
(0.460705 0.0712597 -2.67343e-20)
(0.652039 0.126484 1.67058e-20)
(0.824213 0.182647 9.43979e-21)
(0.967918 0.233634 -2.93659e-20)
(1.07972 0.275717 9.69264e-21)
(1.16104 0.307547 1.74782e-21)
(1.21623 0.329562 1.67217e-20)
(1.25087 0.343213 -4.48428e-20)
(1.27046 0.350312 -1.40206e-22)
(1.27968 0.352618 1.24343e-20)
(1.28222 0.351618 -9.90864e-21)
(1.28072 0.348456 1.00256e-20)
(1.277 0.343957 2.61726e-20)
(1.27225 0.338685 -1.48951e-20)
(1.26722 0.332994 4.14472e-21)
(1.26239 0.327122 1.63262e-20)
(1.25807 0.321472 -2.69192e-20)
(1.25456 0.316118 1.2921e-20)
(0.0936224 0.00732868 5.89318e-20)
(0.298791 0.0384549 -3.20522e-20)
(0.508427 0.092354 3.77446e-20)
(0.705691 0.154103 -2.80857e-20)
(0.876852 0.213838 -1.25989e-20)
(1.01436 0.265516 3.80847e-21)
(1.11705 0.306082 -1.23685e-20)
(1.18839 0.335065 4.44887e-20)
(1.23423 0.3537 -3.70519e-20)
(1.26096 0.364003 8.69504e-21)
(1.27435 0.368116 -6.4798e-21)
(1.279 0.367927 -4.22287e-20)
(1.27834 0.364927 4.0967e-20)
(1.2747 0.360197 1.56025e-20)
(1.26959 0.354477 -1.55224e-20)
(1.26398 0.348248 3.64463e-20)
(1.25845 0.341795 -5.33612e-22)
(1.25334 0.335315 -3.53699e-20)
(1.24889 0.329206 2.62061e-20)
(1.24532 0.323407 8.26506e-21)
(0.107593 0.0121469 -2.06505e-20)
(0.333022 0.0533615 5.98905e-20)
(0.554641 0.116255 6.92046e-20)
(0.755806 0.184155 -3.26521e-20)
(0.924066 0.246647 5.68157e-20)
(1.05411 0.298114 8.99253e-20)
(1.14722 0.336423 -4.95181e-21)
(1.20884 0.362088 -1.54447e-20)
(1.24607 0.377133 7.62972e-20)
(1.26586 0.384077 3.72069e-20)
(1.27405 0.385308 -6.75444e-21)
(1.27506 0.382777 5.54819e-20)
(1.27195 0.37793 -5.95121e-20)
(1.26674 0.371761 9.26735e-20)
(1.26068 0.364916 -1.54619e-20)
(1.25451 0.357793 4.43058e-20)
(1.24868 0.350616 7.99006e-21)
(1.24346 0.343551 3.17167e-20)
(1.23897 0.33699 -3.019e-20)
(1.23541 0.330737 7.26925e-21)
(0.121799 0.0180503 -3.21404e-20)
(0.366677 0.0706351 7.62772e-20)
(0.598559 0.142751 5.66707e-20)
(0.801632 0.216275 -8.58876e-21)
(0.965357 0.280656 8.83185e-20)
(1.08705 0.331055 -6.59652e-20)
(1.17047 0.36647 -5.17789e-21)
(1.22288 0.388463 5.82593e-20)
(1.25236 0.399804 1.85111e-20)
(1.26621 0.403439 2.59011e-20)
(1.27016 0.401919 -3.82505e-20)
(1.26831 0.397197 9.97553e-20)
(1.26339 0.39064 1.8632e-20)
(1.25709 0.383137 -8.83783e-20)
(1.25041 0.375239 1.2915e-19)
(1.24393 0.367267 -1.52399e-19)
(1.23798 0.35939 -6.9978e-20)
(1.23274 0.351753 1.15944e-20)
(1.22831 0.34474 6.79716e-20)
(1.22482 0.338022 -1.28145e-19)
(0.136009 0.0250508 -7.23428e-20)
(0.399171 0.0901687 -1.70662e-19)
(0.639456 0.171557 -1.47567e-19)
(0.84255 0.250058 -2.0096e-19)
(1.0004 0.315441 -1.14035e-19)
(1.11319 0.363985 -2.3649e-19)
(1.18712 0.395982 3.00474e-20)