1.275 	2.15223e-18 	-2.76991e-20 	-0.382909 	0.00870893 	-3.73555e-22
1.825 	2.15223e-18 	-1.39322e-20 	-0.504214 	-0.0033545 	4.61858e-21
2.375 	2.15223e-18 	-2.66896e-23 	-0.207587 	-0.00819409 	-1.46234e-21
