/*--------------------------------*- C++ -*----------------------------------*\
  =========                 |
  \\      /  F ield         | OpenFOAM: The Open Source CFD Toolbox
   \\    /   O peration     | Website:  https://openfoam.org
    \\  /    A nd           | Version:  6.0
     \\/     M anipulation  |
\*---------------------------------------------------------------------------*/
FoamFile
{
    version     2.0;
    format      ascii;
    class       surfaceScalarField;
    location    "75";
    object      phi;
}
// * * * * * * * * * * * * * * * * * * * * * * * * * * * * * * * * * * * * * //

dimensions      [0 3 -1 0 0 0 0];

internalField   nonuniform List<scalar> 
24700
(
-5.20823e-07
-7.85965e-05
7.91174e-05
-2.55785e-06
-0.000213101
0.000215138
-6.38521e-06
-0.000327866
0.000331693
-1.20342e-05
-0.00042448
0.000430129
-1.92921e-05
-0.000504835
0.000512092
-2.7733e-05
-0.000571199
0.00057964
-3.67785e-05
-0.000625949
0.000634995
-4.57694e-05
-0.000671314
0.000680305
-5.40357e-05
-0.000709193
0.000717459
-6.09573e-05
-0.000741056
0.000747977
-6.60093e-05
-0.000767929
0.000772981
-6.8791e-05
-0.000790438
0.000793219
-6.90402e-05
-0.000808888
0.000809138
-6.66333e-05
-0.000823368
0.000820961
-6.1575e-05
-0.000833836
0.000828777
-5.39801e-05
-0.000840209
0.000832614
-4.40489e-05
-0.000842419
0.000832488
-3.204e-05
-0.000840455
0.000828446
-1.82408e-05
-0.000834377
0.000820578
-2.93904e-06
-0.000824323
0.000809021
1.36048e-05
-0.000810487
0.000793943
3.11833e-05
-0.000793106
0.000775528
4.96641e-05
-0.000772429
0.000753948
6.90093e-05
-0.000748646
0.000729301
-0.000721865
0.000701567
8.93076e-05
-1.58878e-06
-7.70078e-05
-6.18096e-06
-0.000208509
-1.36001e-05
-0.000320446
-2.35392e-05
-0.000414541
-3.55266e-05
-0.000492847
-4.89419e-05
-0.000557784
-6.30635e-05
-0.000611828
-7.71294e-05
-0.000657248
-9.03976e-05
-0.000695925
-0.000102197
-0.000729256
-0.000111968
-0.000758158
-0.000119283
-0.000783122
-0.000123864
-0.000804308
-0.000125576
-0.000821655
-0.000124423
-0.000834989
-0.000120525
-0.000844106
-0.0001141
-0.000848844
-0.000105431
-0.000849124
-9.48388e-05
-0.000844969
-8.26502e-05
-0.000836511
-6.91666e-05
-0.00082397
-5.4636e-05
-0.000807637
-3.92292e-05
-0.000787836
-2.30208e-05
-0.000764855
-0.000738926
-5.95989e-06
-2.69931e-06
-7.43085e-05
-9.90511e-06
-0.000201303
-2.09516e-05
-0.0003094
-3.51776e-05
-0.000400315
-5.18531e-05
-0.000476172
-7.0174e-05
-0.000539463
-8.92918e-05
-0.00059271
-0.000108359
-0.000638181
-0.000126575
-0.000677709
-0.000143227
-0.000712603
-0.000157725
-0.000743661
-0.000169612
-0.000771235
-0.000178584
-0.000795335
-0.000184485
-0.000815754
-0.0001873
-0.000832174
-0.00018714
-0.000844266
-0.000184225
-0.00085176
-0.00017885
-0.000854498
-0.000171363
-0.000852457
-0.000162125
-0.000845749
-0.00015148
-0.000834614
-0.000139725
-0.000819392
-0.00012708
-0.000800482
-0.000113668
-0.000778266
-0.0007531
-9.94936e-05
-3.81756e-06
-7.04909e-05
-1.36179e-05
-0.000191503
-2.82261e-05
-0.000294792
-4.66243e-05
-0.000381917
-6.78344e-05
-0.000454961
-9.0886e-05
-0.000516411
-0.000114824
-0.000568772
-0.000138734
-0.000614271
-0.000161774
-0.000654669
-0.000183201
-0.000691176
-0.000202394
-0.000724469
-0.000218868
-0.000754761
-0.000232282
-0.000781921
-0.000242444
-0.000805592
-0.000249303
-0.000825315
-0.000252945
-0.000840624
-0.00025357
-0.000851135
-0.000251474
-0.000856594
-0.000247017
-0.000856913
-0.000240594
-0.000852173
-0.000232592
-0.000842617
-0.00022336
-0.000828623
-0.00021318
-0.000810661
-0.000202242
-0.000789204
-0.000764724
-0.000190619
-4.90427e-06
-6.55866e-05
-1.71961e-05
-0.000179211
-3.51931e-05
-0.000276795
-5.75324e-05
-0.000359578
-8.30066e-05
-0.000429487
-0.000110502
-0.000488916
-0.00013898
-0.000540294
-0.000167481
-0.00058577
-0.000195138
-0.000627011
-0.000221189
-0.000665125
-0.000244988
-0.000700669
-0.000266018
-0.000733731
-0.000283895
-0.000764044
-0.000298376
-0.000791111
-0.000309359
-0.000814332
-0.000316878
-0.000833105
-0.000321099
-0.000846915
-0.000322297
-0.000855397
-0.000320833
-0.000858376
-0.000317125
-0.000855881
-0.000311603
-0.000848138
-0.000304678
-0.000835548
-0.000296703
-0.000818636
-0.000287949
-0.000797958
-0.000774098
-0.000278575
-5.91745e-06
-5.96692e-05
-2.05103e-05
-0.000164618
-4.16136e-05
-0.000255691
-6.75447e-05
-0.000333647
-9.68934e-05
-0.000400139
-0.000128429
-0.00045738
-0.000161055
-0.000507668
-0.000193788
-0.000553036
-0.000225755
-0.000595045
-0.000256185
-0.000634695
-0.000284417
-0.000672437
-0.000309902
-0.000708247
-0.000332207
-0.000741738
-0.000351027
-0.000772291
-0.00036619
-0.00079917
-0.000377661
-0.000821633
-0.000385546
-0.000839029
-0.00039008
-0.000850863
-0.000391607
-0.000856849
-0.000390555
-0.000856933
-0.000387396
-0.000851297
-0.000382604
-0.00084034
-0.000376617
-0.000824624
-0.0003698
-0.000804776
-0.000781482
-0.000362416
-6.81454e-06
-5.28546e-05
-2.34314e-05
-0.000148001
-4.72509e-05
-0.000231872
-7.63088e-05
-0.000304589
-0.000109024
-0.000367423
-0.000144078
-0.000422326
-0.000180341
-0.000471405
-0.00021683
-0.000516548
-0.000252679
-0.000559196
-0.000287127
-0.000600247
-0.000319506
-0.000640058
-0.000349239
-0.000678513
-0.000375846
-0.000715132
-0.00039895
-0.000749186
-0.000418297
-0.000779822
-0.000433765
-0.000806166
-0.000445376
-0.000827419
-0.000453299
-0.000842941
-0.000457841
-0.000852307
-0.000459424
-0.00085535
-0.000458551
-0.00085217
-0.00045576
-0.00084313
-0.000451581
-0.000828803
-0.000446489
-0.000809868
-0.000787103
-0.000440868
-7.55495e-06
-4.52997e-05
-2.58374e-05
-0.000129719
-5.18827e-05
-0.000205826
-8.34937e-05
-0.000272978
-0.000118956
-0.000331961
-0.00015689
-0.000384392
-0.000196158
-0.000432138
-0.000235794
-0.000476912
-0.000274962
-0.000520028
-0.000312924
-0.000562285
-0.000349018
-0.000603964
-0.000382652
-0.00064488
-0.000413299
-0.000684484
-0.000440516
-0.00072197
-0.000463956
-0.000756382
-0.000483394
-0.000786727
-0.00049875
-0.000812064
-0.000510099
-0.000831591
-0.000517684
-0.000844722
-0.000521898
-0.000851136
-0.000523258
-0.00085081
-0.00052236
-0.000844028
-0.000519828
-0.000831336
-0.00051626
-0.000813436
-0.000791188
-0.000512175
-8.10292e-06
-3.71968e-05
-2.76215e-05
-0.0001102
-5.53147e-05
-0.000178133
-8.88094e-05
-0.000239483
-0.000126296
-0.000294475
-0.000166362
-0.000344325
-0.000207881
-0.000390619
-0.000249923
-0.00043487
-0.000291698
-0.000478253
-0.000332507
-0.000521477
-0.00037171
-0.00056476
-0.000408714
-0.000607876
-0.000442962
-0.000650236
-0.000473949
-0.000690983
-0.000501239
-0.000729092
-0.000524496
-0.00076347
-0.000543519
-0.000793041
-0.000558268
-0.000816842
-0.000568888
-0.000834103
-0.000575712
-0.000844313
-0.000579244
-0.000847278
-0.000580121
-0.000843151
-0.000579056
-0.0008324
-0.000576776
-0.000815716
-0.000794012
-0.000573952
-8.43034e-06
-2.87664e-05
-2.86998e-05
-8.99307e-05
-5.73936e-05
-0.000149439
-9.20249e-05
-0.000204852
-0.000130727
-0.000255772
-0.000172081
-0.000302971
-0.000214986
-0.000347714
-0.000258563
-0.000391293
-0.000302079
-0.000434737
-0.00034489
-0.000478666
-0.000386398
-0.000523252
-0.000426026
-0.000568248
-0.000463209
-0.000613053
-0.000497397
-0.000656794
-0.000528079
-0.000698411
-0.000554811
-0.000736737
-0.000577262
-0.00077059
-0.000595254
-0.00079885
-0.000608804
-0.000820553
-0.000618144
-0.000834972
-0.00062373
-0.000841693
-0.000626206
-0.000840674
-0.00062636
-0.000832246
-0.000625043
-0.000817033
-0.000795969
-0.000623086
-8.51935e-06
-2.02471e-05
-2.90183e-05
-6.94317e-05
-5.80196e-05
-0.000120438
-9.29872e-05
-0.000169884
-0.000132035
-0.000216724
-0.000173756
-0.00026125
-0.000217089
-0.000304381
-0.000261212
-0.00034717
-0.000305458
-0.00039049
-0.000349251
-0.000434873
-0.00039205
-0.000480453
-0.00043332
-0.000526978
-0.00047251
-0.000573863
-0.000509055
-0.000620249
-0.000542391
-0.000665075
-0.000571983
-0.000707145
-0.000597376
-0.000745197
-0.000618242
-0.000777984
-0.00063444
-0.000804355
-0.000646062
-0.00082335
-0.000653461
-0.000834295
-0.000657247
-0.000836889
-0.000658242
-0.000831251
-0.000657408
-0.000817866
-0.000797637
-0.000655741
-8.36428e-06
-1.18828e-05
-2.85588e-05
-4.92372e-05
-5.71561e-05
-9.18409e-05
-9.16352e-05
-0.000135405
-0.000130125
-0.000178235
-0.000171246
-0.000220129
-0.000213982
-0.000261646
-0.000257571
-0.000303581
-0.000301416
-0.000346645
-0.000345014
-0.000391275
-0.000387895
-0.000437572
-0.000429585
-0.000485288
-0.000469577
-0.000533871
-0.000507324
-0.000582503
-0.000542243
-0.000630156
-0.000573742
-0.000675646
-0.00060126
-0.000717679
-0.000624325
-0.000754919
-0.000642621
-0.000786059
-0.00065606
-0.000809911
-0.000664837
-0.000825518
-0.000669461
-0.000832265
-0.000670737
-0.000829974
-0.0006697
-0.000818903
-0.000799833
-0.000667503
-7.97276e-06
-3.91005e-06
-2.73413e-05
-2.98686e-05
-5.48357e-05
-6.43465e-05
-8.80101e-05
-0.000102231
-0.000125038
-0.000141207
-0.000164581
-0.000180587
-0.000205668
-0.000220559
-0.000247592
-0.000261657
-0.000289823
-0.000304413
-0.000331931
-0.000349167
-0.000373525
-0.000395978
-0.000414205
-0.000444608
-0.000453535
-0.000494541
-0.000491017
-0.000545021
-0.000526093
-0.00059508
-0.000558155
-0.000643583
-0.00058658
-0.000689254
-0.000610775
-0.000730723
-0.000630256
-0.000766578
-0.000644726
-0.000795441
-0.00065417
-0.000816074
-0.000658922
-0.000827512
-0.000659694
-0.000829203
-0.000657529
-0.000821068
-0.000803645
-0.000653718
-7.36563e-06
3.45557e-06
-2.54251e-05
-1.18092e-05
-5.1161e-05
-3.86106e-05
-8.22567e-05
-7.1135e-05
-0.000116958
-0.000106506
-0.000153973
-0.000143572
-0.000192374
-0.000182158
-0.000231502
-0.000222529
-0.000270882
-0.000265033
-0.000310149
-0.0003099
-0.000348988
-0.000357139
-0.000387083
-0.000406513
-0.000424081
-0.000457544
-0.000459564
-0.000509537
-0.000493041
-0.000561604
-0.000523937
-0.000612687
-0.000551619
-0.000661573
-0.000575426
-0.000706916
-0.000594734
-0.000747269
-0.000609046
-0.000781129
-0.000618098
-0.000807022
-0.000621979
-0.000823632
-0.00062121
-0.000829971
-0.000616762
-0.000825516
-0.000810398
-0.000610008
-6.57569e-06
1.00313e-05
-2.29046e-05
4.51977e-06
-4.62998e-05
-1.52154e-05
-7.46185e-05
-4.28163e-05
-0.0001062
-7.49238e-05
-0.000139808
-0.000109964
-0.00017455
-0.000147415
-0.000209804
-0.000187275
-0.000245134
-0.000229703
-0.000280229
-0.000274806
-0.000314835
-0.000322532
-0.000348716
-0.000372632
-0.000381608
-0.000424653
-0.00041319
-0.000477955
-0.000443065
-0.000531729
-0.000470742
-0.000585009
-0.000495638
-0.000636676
-0.000517091
-0.000685463
-0.000534403
-0.000729958
-0.000546913
-0.000768619
-0.000554114
-0.000799821
-0.000555799
-0.000821947
-0.00055221
-0.000833561
-0.000544128
-0.000833598
-0.000821592
-0.000532934
-5.64526e-06
1.56765e-05
-1.99038e-05
1.87783e-05
-4.0474e-05
5.35477e-06
-6.54222e-05
-1.78681e-05
-9.31998e-05
-4.71463e-05
-0.000122627
-8.05368e-05
-0.000152846
-0.000117197
-0.000183253
-0.000156868
-0.00021344
-0.000199516
-0.000243125
-0.00024512
-0.000272104
-0.000293554
-0.000300201
-0.000344535
-0.000327233
-0.00039762
-0.000352979
-0.000452209
-0.000377151
-0.000507557
-0.000399375
-0.000562785
-0.000419172
-0.00061688
-0.000435951
-0.000668684
-0.000449025
-0.000716884
-0.000457653
-0.000759991
-0.000461136
-0.000796338
-0.000458973
-0.000824109
-0.00045106
-0.000841474
-0.000437874
-0.000846783
-0.000838785
-0.000420682
-4.62285e-06
2.02994e-05
-1.65665e-05
3.0722e-05
-3.39447e-05
2.2733e-05
-5.50556e-05
3.24279e-06
-7.84759e-05
-2.3726e-05
-0.000103088
-5.59249e-05
-0.000128059
-9.22258e-05
-0.000152799
-0.000132128
-0.000176905
-0.00017541
-0.00020011
-0.000221915
-0.000222234
-0.00027143
-0.000243143
-0.000323626
-0.000262716
-0.000378047
-0.000280816
-0.000434109
-0.000297264
-0.000491109
-0.000311815
-0.000548235
-0.000324127
-0.000604568
-0.000333744
-0.000659067
-0.000340079
-0.000710549
-0.000342418
-0.000757652
-0.000339977
-0.000798779
-0.000332026
-0.00083206
-0.000318109
-0.000855391
-0.000298311
-0.000866581
-0.00086346
-0.000273636
-3.55924e-06
2.38586e-05
-1.30455e-05
4.02082e-05
-2.69919e-05
3.66795e-05
-4.39387e-05
2.01896e-05
-6.25961e-05
-5.06855e-06
-8.19114e-05
-3.66097e-05
-0.000101076
-7.30609e-05
-0.000119503
-0.000113701
-0.000136783
-0.00015813
-0.000152645
-0.000206053
-0.000166914
-0.000257161
-0.000179475
-0.000311065
-0.000190247
-0.000367276
-0.000199154
-0.000425201
-0.00020611
-0.000484153
-0.000210987
-0.000543358
-0.000213596
-0.000601959
-0.00021365
-0.000659013
-0.000210731
-0.000713468
-0.000204264
-0.000764119
-0.000193514
-0.000809529
-0.000177656
-0.000847918
-0.000155958
-0.000877089
-0.000128086
-0.000894453
-0.000896908
-9.46375e-05
-2.50345e-06
2.63621e-05
-9.49093e-06
4.71957e-05
-1.98941e-05
4.70827e-05
-3.24924e-05
3.27879e-05
-4.61326e-05
8.5716e-06
-5.9829e-05
-2.29132e-05
-7.27971e-05
-6.00928e-05
-8.44463e-05
-0.000102052
-9.43544e-05
-0.000148222
-0.000102233
-0.000198174
-0.000107897
-0.000251498
-0.000111231
-0.000307731
-0.00011217
-0.000366336
-0.000110682
-0.00042669
-0.000106744
-0.000488091
-0.000100332
-0.00054977
-9.13931e-05
-0.000610898
-7.98184e-05
-0.000670588
-6.53995e-05
-0.000727887
-4.77798e-05
-0.000781738
-2.64072e-05
-0.000830902
-5.28802e-07
-0.000873797
3.07062e-05
-0.000908324
6.79801e-05
-0.000931727
-0.000940126
0.000111198
-1.49902e-06
2.78611e-05
-6.03904e-06
5.17357e-05
-1.29071e-05
5.39507e-05
-2.11067e-05
4.09875e-05
-2.96178e-05
1.70827e-05
-3.75227e-05
-1.50084e-05
-4.40603e-05
-5.35552e-05
-4.86366e-05
-9.74756e-05
-5.08104e-05
-0.000146048
-5.02705e-05
-0.000198714
-4.68094e-05
-0.000254959
-4.03016e-05
-0.000314239
-3.06855e-05
-0.000375952
-1.79498e-05
-0.000439426
-2.12169e-06
-0.000503919
1.67443e-05
-0.000568636
3.85822e-05
-0.000632735
6.33378e-05
-0.000695344
9.10055e-05
-0.000755555
0.000121683
-0.000812416
0.000155644
-0.000864863
0.00019341
-0.000911562
0.000235747
-0.000950662
0.000283522
-0.000979501
-0.000993738
0.000337134
-5.8097e-07
2.8442e-05
-2.80243e-06
5.39571e-05
-6.24593e-06
5.73942e-05
-1.01127e-05
4.48543e-05
-1.35059e-05
2.04759e-05
-1.55737e-05
-1.29406e-05
-1.55792e-05
-5.35497e-05
-1.29248e-05
-0.00010013
-7.15032e-06
-0.000151822
2.081e-06
-0.000207945
1.50002e-05
-0.000267878
3.17484e-05
-0.000330987
5.23894e-05
-0.000396593
7.69187e-05
-0.000463955
0.00010527
-0.00053227
0.000137323
-0.000600688
0.000172909
-0.000668322
0.000211831
-0.000734265
0.000253885
-0.000797609
0.000298911
-0.000857442
0.000346862
-0.000912814
0.000397914
-0.000962614
0.000452556
-0.0010053
0.000511596
-0.00103854
-0.00105793
0.000575786
2.26334e-07
2.82157e-05
1.37105e-07
5.40463e-05
-7.05141e-08
5.76019e-05
2.40238e-07
4.45436e-05
1.85901e-06
1.88571e-05
5.57764e-06
-1.66592e-05
1.21096e-05
-6.00817e-05
2.20543e-05
-0.000110075
3.58889e-05
-0.000165657
5.39725e-05
-0.000226029
7.65563e-05
-0.000290462
0.000103793
-0.000358224
0.000135743
-0.000428544
0.000172383
-0.000500594
0.000213602
-0.00057349
0.000259215
-0.000646301
0.000308957
-0.000718064
0.0003625
-0.000787809
0.000419467
-0.000854576
0.000479463
-0.000917437
0.000542133
-0.000975484
0.000607266
-0.00102775
0.000674927
-0.00107297
0.000745589
-0.0011092
-0.00113246
0.000820124
9.10292e-07
2.73054e-05
2.7329e-06
5.22237e-05
5.52346e-06
5.48113e-05
9.79913e-06
4.02679e-05
1.6264e-05
1.23923e-05
2.56591e-05
-2.60544e-05
3.8677e-05
-7.30995e-05
5.59169e-05
-0.000127315
7.78677e-05
-0.000187608
0.000104904
-0.000253065
0.000137285
-0.000322843
0.000175163
-0.000396102
0.000218581
-0.000471962
0.000267477
-0.00054949
0.000321685
-0.000627698
0.000380938
-0.000705554
0.000444873
-0.000781998
0.000513036
-0.000855971
0.000584894
-0.000926434
0.00065985
-0.000992394
0.000737282
-0.00105292
0.000816618
-0.00110708
0.000897469
-0.00115382
0.000979759
-0.00119149
-0.00121705
0.00106435
1.47015e-06
2.58353e-05
4.97469e-06
4.87192e-05
1.0508e-05
4.9278e-05
1.85136e-05
3.22623e-05
2.96356e-05
1.2703e-06
4.45768e-05
-4.09956e-05
6.40118e-05
-9.25345e-05
8.85371e-05
-0.00015184
0.000118645
-0.000217715
0.000154709
-0.000289129
0.000196983
-0.000365117
0.000245592
-0.000444711
0.000300534
-0.000526904
0.000361683
-0.000610638
0.000428787
-0.000694803
0.000501482
-0.000778249
0.000579297
-0.000859813
0.000661665
-0.000938339
0.000747934
-0.0010127
0.000837372
-0.00108183
0.000929164
-0.00114471
0.00102243
-0.00120035
0.0011163
-0.00124768
0.00121004
-0.00128523
-0.00131166
0.00130464
1.91617e-06
2.39191e-05
6.8868e-06
4.37486e-05
1.49203e-05
4.12445e-05
2.6433e-05
2.07496e-05
4.20363e-05
-1.4333e-05
6.24084e-05
-6.13677e-05
8.82095e-05
-0.000118336
0.000120027
-0.000183658
0.000158342
-0.00025603
0.000203509
-0.000334297
0.000255742
-0.000417349
0.000315103
-0.000504072
0.000381507
-0.000593308
0.000454717
-0.000683849
0.000534359
-0.000774445
0.000619939
-0.000863829
0.000710866
-0.00095074
0.000806487
-0.00103396
0.000906118
-0.00111233
0.00100907
-0.00118478
0.00111466
-0.0012503
0.00122215
-0.00130785
0.00133046
-0.00135599
0.00143706
-0.00139183
-0.00141047
0.00153587
2.26762e-06
2.16515e-05
8.52316e-06
3.7493e-05
1.88549e-05
3.09127e-05
3.36948e-05
5.90972e-06
5.36482e-05
-3.42863e-05
7.93815e-05
-8.71011e-05
0.000111541
-0.000150495
0.000150694
-0.000222811
0.00019729
-0.000302626
0.000251629
-0.000388636
0.000313843
-0.000479563
0.000383884
-0.000574113
0.000461521
-0.000670945
0.00054635
-0.000768678
0.000637813
-0.000865908
0.000735231
-0.000961246
0.000837848
-0.00105336
0.000944892
-0.001141
0.00105565
-0.00122309
0.00116957
-0.0012987
0.00128639
-0.00136712
0.00140639
-0.00142784
0.00153085
-0.00148045
0.00166377
-0.00152475
-0.00156097
0.00181427
2.55156e-06
1.90999e-05
9.96188e-06
3.00827e-05
2.24515e-05
1.84231e-05
4.05048e-05
-1.21436e-05
6.47438e-05
-5.85254e-05
9.58321e-05
-0.000118189
0.000134397
-0.00018906
0.000180969
-0.000269382
0.000235931
-0.000357588
0.000299485
-0.00045219
0.000371626
-0.000551704
0.00045213
-0.000654617
0.000540555
-0.00075937
0.000636257
-0.000864381
0.000738426
-0.000968077
0.000846129
-0.00106895
0.000958369
-0.0011656
0.00107416
-0.00125679
0.00119258
-0.00134152
0.00131289
-0.00141901
0.00143457
-0.0014888
0.00155746
-0.00155073
0.00168195
-0.00160493
0.00180907
-0.00165187
-0.00169052
0.00193862
2.79843e-06
1.63015e-05
1.12945e-05
2.15867e-05
2.58774e-05
3.84024e-06
4.71116e-05
-3.33778e-05
7.56518e-05
-8.70655e-05
0.000112161
-0.000154698
0.000157234
-0.000234133
0.000211333
-0.000323482
0.000274735
-0.00042099
0.000347485
-0.00052494
0.000429376
-0.000633595
0.000519935
-0.000745176
0.000618438
-0.000857873
0.000723939
-0.000969882
0.000835321
-0.00107946
0.000951355
-0.00118498
0.00107078
-0.00128502
0.00119235
-0.00137837
0.00131495
-0.00146412
0.0014376
-0.00154167
0.00155955
-0.00161075
0.00168023
-0.00167141
0.00179927
-0.00172397
0.00191627
-0.00176887
-0.00180469
0.00203044
3.04022e-06
1.32613e-05
1.26179e-05
1.2009e-05
2.93104e-05
-1.28522e-05
5.37782e-05
-5.78456e-05
8.67145e-05
-0.000120002
0.000128773
-0.000196757
0.000180494
-0.000285853
0.00024223
-0.000385219
0.000314094
-0.000492854
0.00039591
-0.000606755
0.000487192
-0.000724878
0.000587153
-0.000845136
0.000694723
-0.000965443
0.00080861
-0.00108377
0.000927364
-0.00119821
0.00104946
-0.00130708
0.00117338
-0.00140894
0.0012977
-0.00150268
0.00142113
-0.00158755
0.0015426
-0.00166313
0.00166121
-0.00172936
0.00177629
-0.00178648
0.00188729
-0.00183497
0.00199375
-0.00187534
-0.00190651
0.00209557
3.30726e-06
9.95403e-06
1.40249e-05
1.29135e-06
3.29201e-05
-3.17474e-05
6.07523e-05
-8.56778e-05
9.82471e-05
-0.000157497
0.000146029
-0.000244539
0.000204544
-0.000344368
0.000273985
-0.00045466
0.000354233
-0.000573102
0.000444816
-0.000697339
0.000544904
-0.000824965
0.000653328
-0.00095356
0.000768637
-0.00108075
0.000889173
-0.00120431
0.00101317
-0.00132221
0.00113885
-0.00143276
0.00126451
-0.0015346
0.00138863
-0.0016268
0.0015099
-0.00170882
0.00162725
-0.00178048
0.00173987
-0.00184199
0.0018472
-0.00189381
0.00194883
-0.0019366
0.00204453
-0.00197104
-0.00199657
0.00213459
3.6257e-06
6.32833e-06
1.55958e-05
-1.06787e-05
3.68521e-05
-5.30037e-05
6.82412e-05
-0.000117067
0.000110501
-0.000199757
0.000164193
-0.000298231
0.000229619
-0.000409794
0.000306744
-0.000531786
0.000395147
-0.000661504
0.000493988
-0.00079618
0.000602028
-0.000933005
0.00071768
-0.00106921
0.000839095
-0.00120217
0.000964274
-0.00132948
0.00109118
-0.00144912
0.00121788
-0.00155945
0.00134259
-0.00165931
0.00146381
-0.00174802
0.00158033
-0.00182534
0.00169126
-0.00189141
0.00179601
-0.00194674
0.00189424
-0.00199204
0.00198586
-0.00202822
0.00207097
-0.00205615
-0.00207577
0.00215018
4.01572e-06
2.31261e-06
1.73923e-05
-2.40553e-05
4.12154e-05
-7.68268e-05
7.63927e-05
-0.000152244
0.00012364
-0.000247004
0.000183405
-0.000357996
0.000255783
-0.000482172
0.000340442
-0.000616444
0.000436579
-0.000757642
0.000542924
-0.000902525
0.000657787
-0.00104787
0.000779148
-0.00119057
0.000904785
-0.0013278
0.00103241
-0.00145711
0.00115983
-0.00157654
0.00128503
-0.00168465
0.0014063
-0.00178059
0.00152229
-0.00186401
0.00163201
-0.00193506
0.00173485
-0.00199425
0.0018305
-0.0020424
0.00191898
-0.00208052
0.00200049
-0.00210973
0.00207543
-0.0021311
-0.00214497
0.00214464
4.4906e-06
-2.17798e-06
1.94542e-05
-3.90189e-05
4.6076e-05
-0.000103449
8.5284e-05
-0.000191452
0.000137722
-0.000299442
0.000203664
-0.000423938
0.000282924
-0.000561432
0.000374794
-0.000708315
0.000478026
-0.000860874
0.00059087
-0.00101537
0.000711166
-0.00116816
0.000836485
-0.00131589
0.000964292
-0.00145561
0.00109211
-0.00158493
0.00121769
-0.00170211
0.00133909
-0.00180605
0.00145478
-0.00189628
0.00156367
-0.0019729
0.0016651
-0.00203648
0.00175878
-0.00208793
0.00184477
-0.00212838
0.00192337
-0.00215912
0.0019951
-0.00218146
0.00206061
-0.00219661
-0.00220522
0.00212086
5.05664e-06
-7.23462e-06
2.17988e-05
-5.5761e-05
5.14551e-05
-0.000133105
9.49199e-05
-0.000234917
0.000152703
-0.000357225
0.000224829
-0.000496064
0.000310756
-0.000647358
0.000409325
-0.000806884
0.000518787
-0.000970336
0.000636886
-0.00113347
0.000761013
-0.00129229
0.000888384
-0.00144326
0.00101625
-0.00158347
0.00114206
-0.00171075
0.00126364
-0.00182369
0.00137926
-0.00192166
0.00148767
-0.00200469
0.00158813
-0.00207337
0.00168034
-0.0021287
0.0017644
-0.00217198
0.00184066
-0.00220465
0.00190973
-0.0022282
0.00197235
-0.00224408
0.00202934
-0.0022536
-0.0022576
0.00208172
5.71389e-06
-1.29485e-05
2.44223e-05
-7.44695e-05
5.73321e-05
-0.000166015
0.000105238
-0.000282823
0.000168442
-0.000420429
0.00024664
-0.000574263
0.000338852
-0.000739569
0.000443407
-0.000911438
0.000558019
-0.00108495
0.000679936
-0.00125539
0.000806145
-0.0014185
0.000933605
-0.00157072
0.00105947
-0.00170934
0.00118125
-0.00183253
0.00129698
-0.00193942
0.00140524
-0.00202992
0.00150516
-0.00210461
0.00159639
-0.0021646
0.00167901
-0.00221132
0.00175345
-0.00224641
0.00182036
-0.00227156
0.00188056
-0.0022884
0.00193494
-0.00229846
0.00198442
-0.00230308
-0.0023032
0.00203003
6.45728e-06
-1.94058e-05
2.73036e-05
-9.53157e-05
6.3651e-05
-0.000202362
0.00011612
-0.000335292
0.00018472
-0.000489029
0.000268738
-0.000658281
0.00036668
-0.000837511
0.000476316
-0.00102107
0.000594818
-0.00120345
0.000718974
-0.00137954
0.000845457
-0.00154498
0.000971084
-0.00169635
0.00109304
-0.0018313
0.00120906
-0.00194855
0.00131748
-0.00204784
0.00141727
-0.00212971
0.00150798
-0.00219532
0.00158966
-0.00224628
0.00166276
-0.00228442
0.00172797
-0.00231163
0.00178619
-0.00232977
0.00183836
-0.00234057
0.00188548
-0.00234557
0.00192847
-0.00234608
-0.00234304
0.00196831
7.27801e-06
-2.66838e-05
3.04078e-05
-0.000118446
7.03279e-05
-0.000242282
0.000127401
-0.000392365
0.00020126
-0.000562888
0.000290695
-0.000747716
0.000393643
-0.000940459
0.000507288
-0.00113472
0.000628283
-0.00132444
0.000753032
-0.00150429
0.000878005
-0.00166996
0.00100002
-0.00181836
0.00111643
-0.00194771
0.00122529
-0.00205741
0.00132534
-0.00214789
0.001416
-0.00222036
0.00149723
-0.00227655
0.00156947
-0.00231852
0.00163345
-0.00234839
0.0016901
-0.00236828
0.00174045
-0.00238012
0.00178554
-0.00238566
0.00182635
-0.00238638
0.0018638
-0.00238352
-0.00237799
0.00189875
8.16479e-06
-3.48486e-05
3.36905e-05
-0.000143971
7.72589e-05
-0.000285851
0.000138887
-0.000453993
0.000217742
-0.000641743
0.000312047
-0.000842021
0.000419122
-0.00104753
0.000535571
-0.00125117
0.000657584
-0.00144646
0.000781284
-0.00162799
0.000903074
-0.00179174
0.0010199
-0.00193519
0.00112944
-0.00205725
0.00123013
-0.00215811
0.00132118
-0.00223895
0.00140245
-0.00230163
0.00147431
-0.00234842
0.00153751
-0.00238171
0.00159302
-0.0024039
0.00164191
-0.00241718
0.0016853
-0.00242351
0.00172421
-0.00242458
0.00175961
-0.00242178
0.00179234
-0.00241625
-0.0024088
0.00182315
9.10478e-06
-4.39534e-05
3.71008e-05
-0.000171967
8.43267e-05
-0.000333077
0.000150364
-0.00052003
0.000233829
-0.000725209
0.000332316
-0.000940508
0.00044251
-0.00115773
0.00056047
-0.00136913
0.000682009
-0.001568
0.000803097
-0.00174908
0.000920207
-0.00190885
0.00103056
-0.00204554
0.00113222
-0.00215891
0.00122411
-0.00225
0.0013059
-0.00232074
0.00137788
-0.00237361
0.00144076
-0.0024113
0.00149554
-0.00243649
0.00154335
-0.00245171
0.00158535
-0.00245917
0.00162264
-0.0024608
0.00165623
-0.00245817
0.001687
-0.00245255
0.00171569
-0.00244494
-0.00243607
0.00174296
1.00842e-05
-5.40376e-05
4.05836e-05
-0.000202467
9.14055e-05
-0.000383898
0.000161606
-0.00059023
0.000249177
-0.00081278
0.000351038
-0.00104237
0.000463249
-0.00126994
0.000581387
-0.00148727
0.000701004
-0.00168761
0.000818053
-0.00186613
0.000929219
-0.00202002
0.0010321
-0.00214842
0.00112523
-0.00225204
0.00120803
-0.0023328
0.00128063
-0.00239334
0.00134367
-0.00243665
0.00139816
-0.00246578
0.00144525
-0.00248359
0.00148618
-0.00249264
0.00152211
-0.0024951
0.00155411
-0.0024928
0.00158311
-0.00248717
0.0016099
-0.00247933
0.00163511
-0.00247016
-0.00246024
0.00165929
1.10887e-05
-6.51263e-05
4.40814e-05
-0.000235459
9.83655e-05
-0.000438183
0.000172388
-0.000664253
0.00026345
-0.000903842
0.000367779
-0.0011467
0.000480847
-0.00138301
0.000597843
-0.00160426
0.000714187
-0.00180396
0.000825959
-0.0019779
0.000930175
-0.00212424
0.00102489
-0.00224313
0.00110916
-0.00233631
0.00118288
-0.00240652
0.00124658
-0.00245704
0.00130122
-0.0024913
0.001348
-0.00251256
0.0013882
-0.00252378
0.00142304
-0.00252748
0.00145367
-0.00252573
0.00148108
-0.00252021
0.0015061
-0.00251219
0.00152942
-0.00250265
0.00155158
-0.00249231
-0.00248166
0.00157299
1.21033e-05
-7.72295e-05
4.7535e-05
-0.000270891
0.000105076
-0.000495724
0.000182486
-0.000741663
0.000276332
-0.000997688
0.000382155
-0.00125252
0.000494903
-0.00149575
0.000609495
-0.00171886
0.00072136
-0.00191582
0.000826833
-0.00208337
0.000923362
-0.00222077
0.00100952
-0.00232929
0.00108486
-0.00241165
0.00114973
-0.00247139
0.00120501
-0.00251232
0.0012519
-0.00253818
0.0012917
-0.00255237
0.00132574
-0.00255782
0.00135523
-0.00255697
0.00138122
-0.00255173
0.00140463
-0.00254361
0.00142616
-0.00253373
0.00144641
-0.0025229
0.00146582
-0.00251172
-0.00250056
0.00148472
1.31127e-05
-9.03422e-05
5.08848e-05
-0.000308663
0.000111409
-0.000556247
0.000191691
-0.000821945
0.00028754
-0.00109354
0.000393842
-0.00135882
0.000505118
-0.00160703
0.000616145
-0.00182988
0.000722497
-0.00202217
0.000820881
-0.00218176
0.000909244
-0.00230913
0.000986687
-0.00240673
0.00105326
-0.00247822
0.00110969
-0.00252782
0.00115713
-0.00255976
0.00119694
-0.00257798
0.00123049
-0.00258592
0.00125907
-0.00258641
0.00128384
-0.00258174
0.00130576
-0.00257365
0.00132563
-0.00256347
0.00134405
-0.00255215
0.00136152
-0.00254037
0.0013784
-0.0025286
-0.00251709
0.00139493
1.41011e-05
-0.000104443
5.40715e-05
-0.000348634
0.000117239
-0.000619415
0.000199809
-0.000904515
0.000296827
-0.00119055
0.00040259
-0.00146459
0.0005113
-0.00171574
0.000617731
-0.00193631
0.00071773
-0.00212217
0.000808462
-0.00227249
0.000888414
-0.00238908
0.000957207
-0.00247552
0.00101533
-0.00253635
0.00106383
-0.00257632
0.00110407
-0.0026
0.00113747
-0.00261139
0.00116543
-0.00261388
0.00118918
-0.00261016
0.00120977
-0.00260233
0.00122807
-0.00259195
0.00124475
-0.00258015
0.00126035
-0.00256775
0.00127524
-0.00255527
0.00128973
-0.00254308
-0.00253137
0.00130401
1.50527e-05
-0.000119496
5.70369e-05
-0.000390618
0.000122452
-0.00068483
0.000206668
-0.000988731
0.000303995
-0.00128788
0.000408222
-0.00156881
0.000513362
-0.00182088
0.000614319
-0.00203727
0.000707321
-0.00221517
0.000790053
-0.00235522
0.000861548
-0.00246057
0.000921917
-0.00253589
0.000972023
-0.00258645
0.00101317
-0.00261747
0.00104682
-0.00263365
0.00107447
-0.00263903
0.00109743
-0.00263684
0.00111686
-0.0026296
0.00113372
-0.00261919
0.00114875
-0.00260698
0.00116253
-0.00259393
0.00117549
-0.00258071
0.00118795
-0.00256773
0.00120014
-0.00255527
-0.00254343
0.00121221
1.59513e-05
-0.000135447
5.97258e-05
-0.000434392
0.000126941
-0.000752045
0.000212123
-0.00107391
0.000308894
-0.00138465
0.000410641
-0.00167056
0.000511319
-0.00192156
0.000606087
-0.00213204
0.000691637
-0.00230072
0.000766208
-0.00242979
0.000829364
-0.00252373
0.000881652
-0.00258818
0.000924241
-0.00262904
0.000958609
-0.00265183
0.000986296
-0.00266134
0.00100875
-0.00266148
0.00102723
-0.00265532
0.00104279
-0.00264515
0.00105625
-0.00263266
0.00106828
-0.002619
0.00107935
-0.002605
0.00108981
-0.00259117
0.00109993
-0.00257785
0.00110987
-0.00256521
-0.00255331
0.00111974
1.67815e-05
-0.000152229
6.20866e-05
-0.000479697
0.000130615
-0.000820574
0.00021606
-0.00115936
0.000311428
-0.00148002
0.000409823
-0.00176896
0.000505274
-0.00201701
0.0005933
-0.00222007
0.000671119
-0.00237854
0.000737528
-0.0024962
0.000792584
-0.00257879
0.00083721
-0.00263281
0.00087281
-0.00266464
0.000900971
-0.00267999
0.000923241
-0.00268361
0.000941007
-0.00267925
0.000955437
-0.00266975
0.000967465
-0.00265718
0.000977817
-0.00264301
0.000987038
-0.00262822
0.00099553
-0.00261349
0.00100358
-0.00259922
0.00101139
-0.00258566
0.0010191
-0.00257292
-0.002561
0.00102679
1.75282e-05
-0.000169757
6.40728e-05
-0.000526242
0.000133399
-0.0008899
0.000218398
-0.00124436
0.000311553
-0.00157317
0.000405815