/*--------------------------------*- C++ -*----------------------------------*\
  =========                 |
  \\      /  F ield         | OpenFOAM: The Open Source CFD Toolbox
   \\    /   O peration     | Website:  https://openfoam.org
    \\  /    A nd           | Version:  6.0
     \\/     M anipulation  |
\*---------------------------------------------------------------------------*/
FoamFile
{
    version     2.0;
    format      ascii;
    class       volScalarField;
    location    "6";
    object      p;
}
// * * * * * * * * * * * * * * * * * * * * * * * * * * * * * * * * * * * * * //

dimensions      [0 2 -2 0 0 0 0];

internalField   nonuniform List<scalar> 
12500
(
-0.329672
-0.332489
-0.334315
-0.335699
-0.336982
-0.338234
-0.339513
-0.34086
-0.342299
-0.343839
-0.345483
-0.347226
-0.349066
-0.350994
-0.353005
-0.355091
-0.357248
-0.359469
-0.361749
-0.364091
-0.366515
-0.368981
-0.371235
-0.373326
-0.37753
-0.330093
-0.332849
-0.334642
-0.336005
-0.337271
-0.338511
-0.33978
-0.341119
-0.342551
-0.344085
-0.345722
-0.347461
-0.349296
-0.35122
-0.353226
-0.355309
-0.357462
-0.35968
-0.361957
-0.364297
-0.366721
-0.369188
-0.371445
-0.373534
-0.37774
-0.330928
-0.333565
-0.335291
-0.336612
-0.337846
-0.339061
-0.34031
-0.341632
-0.343049
-0.344571
-0.346197
-0.347926
-0.349751
-0.351666
-0.353664
-0.355739
-0.357885
-0.360096
-0.362368
-0.364703
-0.367125
-0.369594
-0.371857
-0.37394
-0.378148
-0.332145
-0.33461
-0.336238
-0.337498
-0.338684
-0.339861
-0.341079
-0.342375
-0.34377
-0.345271
-0.34688
-0.348592
-0.350401
-0.352302
-0.354286
-0.356347
-0.35848
-0.36068
-0.362941
-0.365268
-0.367683
-0.370153
-0.372423
-0.374495
-0.3787
-0.333702
-0.335947
-0.337449
-0.338628
-0.339751
-0.340878
-0.342053
-0.343314
-0.344677
-0.346149
-0.347731
-0.349418
-0.351204
-0.353082
-0.355044
-0.357085
-0.359198
-0.361378
-0.363622
-0.365933
-0.368335
-0.370801
-0.373075
-0.375129
-0.379322
-0.335544
-0.33753
-0.338882
-0.339963
-0.341008
-0.342071
-0.343193
-0.344406
-0.345726
-0.347159
-0.348704
-0.350356
-0.352109
-0.353954
-0.355885
-0.357894
-0.359977
-0.362129
-0.364345
-0.36663
-0.369009
-0.371461
-0.373733
-0.37576
-0.379925
-0.337608
-0.339307
-0.340489
-0.341457
-0.34241
-0.343395
-0.34445
-0.345604
-0.346869
-0.34825
-0.349746
-0.351351
-0.353057
-0.354858
-0.356744
-0.35871
-0.36075
-0.362859
-0.365035
-0.367282
-0.369625
-0.372052
-0.374311
-0.376299
-0.380418
-0.33983
-0.341223
-0.342221
-0.343063
-0.343911
-0.344806
-0.34578
-0.346859
-0.348055
-0.34937
-0.350802
-0.352345
-0.35399
-0.355731
-0.357558
-0.359465
-0.361447
-0.363499
-0.365619
-0.367812
-0.370104
-0.372489
-0.374723
-0.376659
-0.380711
-0.342143
-0.343224
-0.344029
-0.344735
-0.345466
-0.346256
-0.347136
-0.348126
-0.349236
-0.350469
-0.35182
-0.353283
-0.35485
-0.356513
-0.358264
-0.360095
-0.362001
-0.363979
-0.366026
-0.368147
-0.370369
-0.372697
-0.37489
-0.376761
-0.380723
-0.344487
-0.345258
-0.345869
-0.346431
-0.347034
-0.347707
-0.348478
-0.349362
-0.350369
-0.351501
-0.352752
-0.354117
-0.355587
-0.357153
-0.358807
-0.360543
-0.362354
-0.364238
-0.366193
-0.368223
-0.370358
-0.372607
-0.374744
-0.376537
-0.380389
-0.346804
-0.347282
-0.347699
-0.348113
-0.348579
-0.349124
-0.34977
-0.350532
-0.351418
-0.352429
-0.353561
-0.354807
-0.356158
-0.357607
-0.359145
-0.360764
-0.36246
-0.36423
-0.366072
-0.367991
-0.370018
-0.372171
-0.374233
-0.375937
-0.379662
-0.349048
-0.349256
-0.349489
-0.349753
-0.350076
-0.350481
-0.350988
-0.351611
-0.352357
-0.353228
-0.354219
-0.355325
-0.356537
-0.357847
-0.359247
-0.360729
-0.362288
-0.363923
-0.365632
-0.36742
-0.36932
-0.371355
-0.373325
-0.37493
-0.378517
-0.351183
-0.351154
-0.351214
-0.35133
-0.351505
-0.351761
-0.352116
-0.352583
-0.353172
-0.353882
-0.354713
-0.355658
-0.35671
-0.357861
-0.359102
-0.360426
-0.361829
-0.363308
-0.364863
-0.3665
-0.368251
-0.370149
-0.372007
-0.373502
-0.376944
-0.353185
-0.352957
-0.352861
-0.352833
-0.352857
-0.352955
-0.353146
-0.353444
-0.353858
-0.354391
-0.355042
-0.355808
-0.356681
-0.357654
-0.358717
-0.359865
-0.361093
-0.362396
-0.363778
-0.365243
-0.366825
-0.368563
-0.370288
-0.371659
-0.374952
-0.355044
-0.354659
-0.354426
-0.354258
-0.354131
-0.354066
-0.354083
-0.354198
-0.354423
-0.354764
-0.35522
-0.355791
-0.356469
-0.357248
-0.358119
-0.359076
-0.360112
-0.361224
-0.362414
-0.363687
-0.365077
-0.36663
-0.368194
-0.369418
-0.372552
-0.356762
-0.356262
-0.355912
-0.355613
-0.355336
-0.355103
-0.354938
-0.354861
-0.354886
-0.355022
-0.355272
-0.355636
-0.356108
-0.356683
-0.357351
-0.358106
-0.358939
-0.359848
-0.36083
-0.361893
-0.363067
-0.364405
-0.365769
-0.366805
-0.369756
-0.358354
-0.357781
-0.357333
-0.356911
-0.356485
-0.356083
-0.355732
-0.355456
-0.355274
-0.355197
-0.355233
-0.355383
-0.355644
-0.356009
-0.356471
-0.357019
-0.357644
-0.358341
-0.359105
-0.359939
-0.360872
-0.361957
-0.36307
-0.363851
-0.366563
-0.359848
-0.35924
-0.358712
-0.358173
-0.357601
-0.357029
-0.356489
-0.356011
-0.355618
-0.355326
-0.355146
-0.355082
-0.355131
-0.355288
-0.355543
-0.355887
-0.356306
-0.35679
-0.357329
-0.35792
-0.358584
-0.359372
-0.360165
-0.360591
-0.362961
-0.361283
-0.36067
-0.360076
-0.359427
-0.358712
-0.357971
-0.357242
-0.356562
-0.355958
-0.355453
-0.355059
-0.354783
-0.354626
-0.354581
-0.354639
-0.354785
-0.355005
-0.35528
-0.355593
-0.355929
-0.356299
-0.35674
-0.35713
-0.357066
-0.358931
-0.362706
-0.362111
-0.361461
-0.360706
-0.35985
-0.358941
-0.358026
-0.357146
-0.356336
-0.355621
-0.35502
-0.354541
-0.354187
-0.353951
-0.353823
-0.353786
-0.353817
-0.353893
-0.353983
-0.354058
-0.354107
-0.354151
-0.354045
-0.353331
-0.354463
-0.364174
-0.363608
-0.362907
-0.362047
-0.361052
-0.359978
-0.358879
-0.357804
-0.356794
-0.355878
-0.35508
-0.354409
-0.35387
-0.353458
-0.353158
-0.352951
-0.352809
-0.352697
-0.352571
-0.352384
-0.352096
-0.351697
-0.351012
-0.349484
-0.349608
-0.365747
-0.365211
-0.364457
-0.363491
-0.362356
-0.361118
-0.35984
-0.358578
-0.357376
-0.35627
-0.355285
-0.354436
-0.353726
-0.353151
-0.352694
-0.352333
-0.352033
-0.351748
-0.351421
-0.350979
-0.350351
-0.349488
-0.348174
-0.34572
-0.344548
-0.367488
-0.36697
-0.366156
-0.365079
-0.363803
-0.362404
-0.360951
-0.359508
-0.358124
-0.356839
-0.355681
-0.354666
-0.353799
-0.353074
-0.352477
-0.351978
-0.351537
-0.3511
-0.350592
-0.349917
-0.348964
-0.347632
-0.345657
-0.342174
-0.339359
-0.36946
-0.368938
-0.368049
-0.366853
-0.365432
-0.363872
-0.36225
-0.360633
-0.359077
-0.357624
-0.356305
-0.355136
-0.354125
-0.353266
-0.352542
-0.351925
-0.351372
-0.350821
-0.350189
-0.349358
-0.348173
-0.346453
-0.343792
-0.338999
-0.333913
-0.371721
-0.371163
-0.370179
-0.368853
-0.367282
-0.36556
-0.363771
-0.361988
-0.360269
-0.358658
-0.357188
-0.355878
-0.354734
-0.353753
-0.35292
-0.352209
-0.351583
-0.350991
-0.350364
-0.349607
-0.34859
-0.347124
-0.344672
-0.339706
-0.333626
-0.374325
-0.373689
-0.372587
-0.371117
-0.369387
-0.367501
-0.365547
-0.363603
-0.361727
-0.359967
-0.358355
-0.356911
-0.355644
-0.35455
-0.353619
-0.352832
-0.352166
-0.351594
-0.351092
-0.350651
-0.350293
-0.350104
-0.350202
-0.35132
-0.358831
-0.377317
-0.376557
-0.375308
-0.373676
-0.371777
-0.369721
-0.367603
-0.365499
-0.363473
-0.361569
-0.359821
-0.358249
-0.35686
-0.355656
-0.354627
-0.353764
-0.353054
-0.352492
-0.352084
-0.351866
-0.351921
-0.352408
-0.353559
-0.356027
-0.363511
-0.380734
-0.379799
-0.378373
-0.37656
-0.374478
-0.372245
-0.369959
-0.367697
-0.36552
-0.363475
-0.361593
-0.359892
-0.358381
-0.357059
-0.355923
-0.354965
-0.354182
-0.35358
-0.353181
-0.353032
-0.353224
-0.353897
-0.355229
-0.357524
-0.363027
-0.384607
-0.383444
-0.381806
-0.37979
-0.377511
-0.375091
-0.372631
-0.370207
-0.36788
-0.365692
-0.363672
-0.361837
-0.360192
-0.358737
-0.357468
-0.35638
-0.355472
-0.354751
-0.354241
-0.353983
-0.354041
-0.354507
-0.355472
-0.357018
-0.360496
-0.388955
-0.387512
-0.38563
-0.383388
-0.380894
-0.378276
-0.375633
-0.373042
-0.370559
-0.368221
-0.366055
-0.364072
-0.362274
-0.360659
-0.359218
-0.357947
-0.356842
-0.355908
-0.355159
-0.354621
-0.354329
-0.354325
-0.354638
-0.355237
-0.356898
-0.393794
-0.392021
-0.389862
-0.387371
-0.384644
-0.381813
-0.378978
-0.376211
-0.373562
-0.371064
-0.368735
-0.366581
-0.3646
-0.362783
-0.361119
-0.359599
-0.358215
-0.356967
-0.355859
-0.354902
-0.354108
-0.353489
-0.353039
-0.352685
-0.35286
-0.399137
-0.396986
-0.394516
-0.391753
-0.388775
-0.385718
-0.382679
-0.379724
-0.376895
-0.374217
-0.371701
-0.369344
-0.367137
-0.365066
-0.363114
-0.361269
-0.35952
-0.357861
-0.356291
-0.354811
-0.353421
-0.352119
-0.350888
-0.349651
-0.348639
-0.404989
-0.402417
-0.399607
-0.396551
-0.393305
-0.390007
-0.386749
-0.38359
-0.380561
-0.377678
-0.374939
-0.372334
-0.369846
-0.367455
-0.365141
-0.36289
-0.360689
-0.358533
-0.356418
-0.354344
-0.352309
-0.350308
-0.348328
-0.3463
-0.344357
-0.411357
-0.408322
-0.405147
-0.401778
-0.398248
-0.394693
-0.391201
-0.387817
-0.384561
-0.381435
-0.378427
-0.375517
-0.372681
-0.369894
-0.367138
-0.364398
-0.361665
-0.358938
-0.356216
-0.353505
-0.350805
-0.348118
-0.345438
-0.342711
-0.340027
-0.418242
-0.414709
-0.411145
-0.407447
-0.403617
-0.399791
-0.396044
-0.392408
-0.388888
-0.385472
-0.382135
-0.378849
-0.375586
-0.372321
-0.369038
-0.36573
-0.362394
-0.359037
-0.355667
-0.352296
-0.348933
-0.345587
-0.342261
-0.338914
-0.335621
-0.425644
-0.42158
-0.417607
-0.413567
-0.409425
-0.405309
-0.401282
-0.397359
-0.393527
-0.389759
-0.38602
-0.382276
-0.378499
-0.374669
-0.370778
-0.366829
-0.362831
-0.3588
-0.354757
-0.35072
-0.346708
-0.342736
-0.338814
-0.334911
-0.331096
-0.433555
-0.428932
-0.424536
-0.420143
-0.415674
-0.411248
-0.40691
-0.402654
-0.398448
-0.394253
-0.390027
-0.385734
-0.381351
-0.37687
-0.372295
-0.367642
-0.362936
-0.358204
-0.353478
-0.348783
-0.344143
-0.339579
-0.335103
-0.330692
-0.326411
-0.441961
-0.436756
-0.431926
-0.427171
-0.422362
-0.417599
-0.412909
-0.408262
-0.403609
-0.398899
-0.394089
-0.38915
-0.384069
-0.378854
-0.373528
-0.368123
-0.362678
-0.357232
-0.351824
-0.346487
-0.341246
-0.336122
-0.33113
-0.326248
-0.321538
-0.450839
-0.445034
-0.439762
-0.434639
-0.429471
-0.424339
-0.419245
-0.414136
-0.408947
-0.403624
-0.398128
-0.392443
-0.386576
-0.380555
-0.374424
-0.368231
-0.362031
-0.35587
-0.349794
-0.343835
-0.338022
-0.332371
-0.326895
-0.321573
-0.316458
-0.460154
-0.453736
-0.44802
-0.44252
-0.436972
-0.431429
-0.425867
-0.42021
-0.414387
-0.408343
-0.402055
-0.395528
-0.388795
-0.381909
-0.374933
-0.367933
-0.360974
-0.354109
-0.347384
-0.340831
-0.334475
-0.328329
-0.322398
-0.316661
-0.311165
-0.469856
-0.462819
-0.456658
-0.450774
-0.444817
-0.438811
-0.432704
-0.426403
-0.419835
-0.412959
-0.405776
-0.398319
-0.390653
-0.382856
-0.375011
-0.367199
-0.359489
-0.351939
-0.344591
-0.337474
-0.330606
-0.323994
-0.317637
-0.311509
-0.305652
-0.47988
-0.472226
-0.465624
-0.459342
-0.452941
-0.446408
-0.439666
-0.432613
-0.425184
-0.417366
-0.40919
-0.400729
-0.392078
-0.38334
-0.374618
-0.366
-0.357559
-0.34935
-0.34141
-0.33376
-0.326411
-0.319363
-0.312609
-0.306113
-0.299918
-0.490146
-0.481883
-0.474845
-0.468151
-0.46126
-0.454124
-0.446645
-0.438725
-0.430319
-0.421453
-0.4122
-0.402674
-0.393002
-0.383312
-0.373717
-0.364312
-0.355167
-0.346331
-0.337831
-0.329682
-0.321884
-0.31443
-0.307305
-0.300465
-0.293957
-0.500555
-0.491701
-0.484233
-0.477105
-0.46967
-0.461842
-0.453517
-0.44461
-0.435115
-0.425105
-0.414706
-0.404071
-0.393362
-0.382722
-0.372274
-0.36211
-0.352295
-0.342866
-0.333843
-0.325228
-0.317013
-0.309183
-0.301715
-0.294556
-0.287762
-0.510992
-0.501572
-0.49368
-0.486091
-0.478046
-0.46943
-0.460143
-0.450131
-0.439442
-0.428209
-0.416611
-0.404846
-0.393099
-0.381527
-0.370255
-0.359368
-0.34892
-0.338937
-0.329427
-0.320382
-0.311782
-0.303607
-0.295825
-0.288372
-0.281322
-0.521326
-0.511372
-0.503061
-0.494977
-0.486247
-0.47674
-0.466373
-0.455144
-0.443171
-0.430653
-0.417826
-0.404925
-0.392156
-0.379684
-0.367626
-0.356057
-0.345019
-0.334524
-0.324565
-0.315124
-0.306174
-0.297685
-0.289618
-0.281897
-0.274621
-0.531407
-0.52096
-0.512235
-0.503613
-0.494117
-0.483609
-0.472049
-0.459505
-0.446174
-0.43233
-0.418263
-0.40424
-0.390482
-0.37715
-0.364352
-0.35215
-0.340566
-0.3296
-0.319233
-0.309433
-0.300166
-0.291395
-0.283073
-0.275113
-0.267643
-0.541075
-0.53018
-0.521042
-0.511836
-0.501486
-0.48987
-0.477011
-0.463067
-0.448327
-0.433138
-0.417841
-0.402729
-0.388026
-0.373885
-0.3604
-0.347614
-0.335533
-0.324141
-0.313405
-0.303284
-0.293735
-0.284715
-0.276169
-0.267997
-0.260366
-0.550154
-0.538861
-0.529312
-0.519467
-0.508174
-0.495347
-0.481098
-0.465691
-0.449511
-0.432982
-0.416486
-0.400331
-0.384739
-0.369849
-0.355734
-0.342418
-0.32989
-0.318117
-0.307054
-0.296651
-0.286856
-0.277621
-0.268882
-0.260529
-0.252771
-0.558459
-0.546826
-0.536861
-0.526321
-0.513997
-0.499866
-0.484153
-0.46724
-0.449618
-0.431775
-0.414128
-0.396992
-0.380576
-0.365001
-0.350318
-0.33653
-0.323606
-0.311499
-0.300153
-0.289507
-0.279503
-0.270088
-0.261188
-0.252686
-0.244835
-0.565801
-0.553885
-0.543501
-0.532207
-0.518768
-0.503254
-0.486023
-0.467591
-0.448546
-0.429436
-0.410704
-0.392659
-0.375494
-0.359305
-0.344119
-0.329916
-0.31665
-0.304258
-0.292673
-0.281825
-0.271651
-0.262092
-0.253067
-0.244446
-0.236538
-0.571983
-0.559844
-0.549034
-0.536929
-0.522302
-0.505345
-0.486568
-0.466626
-0.446202
-0.425894
-0.406155
-0.387284
-0.36945
-0.352722
-0.337101
-0.322546
-0.308993
-0.296367
-0.284589
-0.273582
-0.263277
-0.253612
-0.244495
-0.235788
-0.22786
-0.576809
-0.56451
-0.553266
-0.540298
-0.524422
-0.505982
-0.485658
-0.464242
-0.442505
-0.421084
-0.400431
-0.380826
-0.362409
-0.345219
-0.329234
-0.31439
-0.300608
-0.287798
-0.275875
-0.264753
-0.254359
-0.244627
-0.235453
-0.226695
-0.218782
-0.580089
-0.567692
-0.556007
-0.542129
-0.524961
-0.505022
-0.483175
-0.460347
-0.437385
-0.41495
-0.393485
-0.373244
-0.354334
-0.336765
-0.320488
-0.30542
-0.291467
-0.278528
-0.266509
-0.255318
-0.244878
-0.235118
-0.225924
-0.21715
-0.20929
-0.581636
-0.569203
-0.557073
-0.542249
-0.523764
-0.502337
-0.479018
-0.454862
-0.43078
-0.407444
-0.385279
-0.364505
-0.345195
-0.32733
-0.310836
-0.295612
-0.281548
-0.268536
-0.256472
-0.245259
-0.234817
-0.225069
-0.215894
-0.207141
-0.19937
-0.581277
-0.568868
-0.556291
-0.540498
-0.520692
-0.497814
-0.473099
-0.447721
-0.42264
-0.398527
-0.375779
-0.35458
-0.334967
-0.316892
-0.300257
-0.284945
-0.270833
-0.257804
-0.245747
-0.234562
-0.224162
-0.21447
-0.205353
-0.196657
-0.189014
-0.57885
-0.566525
-0.553504
-0.536733
-0.515626
-0.491358
-0.465348
-0.438873
-0.412927
-0.388169
-0.36496
-0.343446
-0.323628
-0.30543
-0.288733
-0.273402
-0.259306
-0.246319
-0.234323
-0.223214
-0.212905
-0.203312
-0.194293
-0.185694
-0.178216
-0.574211
-0.562027
-0.548571
-0.53083
-0.508466
-0.482894
-0.45571
-0.428279
-0.401613
-0.376346
-0.352803
-0.331086
-0.311164
-0.292931
-0.27625
-0.260972
-0.246957
-0.234071
-0.222192
-0.211211
-0.201039
-0.191591
-0.182711
-0.174248
-0.166974
-0.567235
-0.555247
-0.541373
-0.522688
-0.499131
-0.472366
-0.444148
-0.415913
-0.388679
-0.363047
-0.339297
-0.317491
-0.297564
-0.279385
-0.2628
-0.247648
-0.23378
-0.221055
-0.209349
-0.19855
-0.188565
-0.179307
-0.170608
-0.162322
-0.15529
-0.557818
-0.546082
-0.531814
-0.512226
-0.487566
-0.459737
-0.43064
-0.401766
-0.374121
-0.348267
-0.324439
-0.302657
-0.282825
-0.26479
-0.248381
-0.233428
-0.219773
-0.207272
-0.195796
-0.185232
-0.175485
-0.166463
-0.15799
-0.149924
-0.143171
-0.54588
-0.534448
-0.519819
-0.49939
-0.473734
-0.444989
-0.415181
-0.385837
-0.357942
-0.332012
-0.308234
-0.286589
-0.266951
-0.249149
-0.232995
-0.218314
-0.20494
-0.192726
-0.181539
-0.171263
-0.161805
-0.153069
-0.144867
-0.137063
-0.130629
-0.531366
-0.520288
-0.505341
-0.484149
-0.457624
-0.428124
-0.397782
-0.368143
-0.340159
-0.314296
-0.290693
-0.269296
-0.249951
-0.232469
-0.216652
-0.202315
-0.189289
-0.177424
-0.166585
-0.156655
-0.147538
-0.139137
-0.131253
-0.123756
-0.117678
-0.514246
-0.503572
-0.488359
-0.466496
-0.439245
-0.409163
-0.37847
-0.348711
-0.320797
-0.295142
-0.271839
-0.250798
-0.231842
-0.214765
-0.199362
-0.185442
-0.172833
-0.16138
-0.150949
-0.14142
-0.132699
-0.124682
-0.117166
-0.110024
-0.10434
-0.494516
-0.484294
-0.468875
-0.44645
-0.418626
-0.388145
-0.357286
-0.327582
-0.299895
-0.274585
-0.2517
-0.231119
-0.212645
-0.196058
-0.181147
-0.167714
-0.155587
-0.14461
-0.134646
-0.125575
-0.117304
-0.109726
-0.102627
-0.0958885
-0.0906368
-0.472199
-0.462475
-0.44692
-0.424052
-0.39582
-0.365125
-0.334286
-0.304809
-0.2775
-0.252666
-0.230314
-0.210293
-0.192389
-0.176373
-0.162027
-0.149151
-0.137572
-0.127132
-0.117694
-0.10914
-0.101374
-0.0942886
-0.0876626
-0.0813785
-0.076597
-0.447344
-0.438164
-0.422547
-0.399365
-0.370898
-0.340177
-0.30954
-0.280456
-0.25367
-0.229438
-0.207726
-0.18836
-0.17111
-0.155741
-0.14203
-0.129777
-0.118807
-0.108965
-0.100113
-0.0921336
-0.0849308
-0.078395
-0.0722992
-0.0665259
-0.062255
-0.420025
-0.411432
-0.395836
-0.372478
-0.343951
-0.31339
-0.283134
-0.254601
-0.228476
-0.204962
-0.183992
-0.165368
-0.14885
-0.134197
-0.121186
-0.109618
-0.0993178
-0.0901312
-0.0819225
-0.0745748
-0.0679937
-0.0620677
-0.0565653
-0.0513664
-0.0476546
-0.390341
-0.382376
-0.366888
-0.343496
-0.315085
-0.284868
-0.255164
-0.227332
-0.201996
-0.17931
-0.159174
-0.141372
-0.125656
-0.111784
-0.099532
-0.0887034
-0.0791259
-0.0706485
-0.0631376
-0.0564787
-0.0505786
-0.0453255
-0.0404866
-0.0359376
-0.0328428
-0.358412
-0.351117
-0.335826
-0.312546
-0.284425
-0.25473
-0.22574
-0.198751
-0.174323
-0.152563
-0.133344
-0.116435
-0.101585
-0.0885474
-0.0771042
-0.0670624
-0.0582541
-0.0505328
-0.0437693
-0.0378525
-0.0326919
-0.0281776
-0.0240815
-0.0202705
-0.0178474
-0.324382
-0.317794
-0.302793
-0.27977
-0.252112
-0.223107
-0.194985
-0.168969
-0.145556
-0.124813
-0.106584
-0.0906316
-0.0766975
-0.0645406
-0.0539461
-0.0447272
-0.036723
-0.0297939
-0.0238174
-0.0186886
-0.0143215
-0.010613
-0.00734587
-0.00436619
-0.0026512
-0.288415
-0.282569
-0.267951
-0.245329
-0.218299
-0.190145
-0.163033
-0.138108
-0.115809
-0.0961609
-0.0789885
-0.0640433
-0.0510682
-0.0398257
-0.0301073
-0.0217343
-0.0145545
-0.00843776
-0.00327187
0.00103834
0.00457019
0.00741478
0.00977097
0.0118235
0.0127671
-0.25069
-0.245618
-0.231476
-0.209396
-0.183151
-0.156
-0.130027
-0.106302
-0.0852043
-0.0667211
-0.0506595
-0.0367648
-0.0247808
-0.0144754
-0.0056478
0.0018712
0.00822295
0.0135251
0.0178751
0.0213528
0.0240231
0.0259609
0.0273249
0.028289
0.0282142
-0.211405
-0.207136
-0.193558
-0.172157
-0.146847
-0.120835
-0.0961217
-0.0736945
-0.0538749
-0.0366175
-0.0217131
-0.00890264
0.00206793
0.0114252
0.0193616
0.0260361
0.0315774
0.0360863
0.0396378
0.0422864
0.0440787
0.0450584
0.0452632
0.0447181
0.043073
-0.170767
-0.167328
-0.154402
-0.133808
-0.10957
-0.0848274
-0.06148
-0.0404369
-0.021964
-0.00598496
0.00772291
0.0194223
0.0293653
0.0377739
0.0448342
0.0506974
0.0554813
0.0592698
0.0621102
0.0640243
0.0650302
0.0650872
0.0639187
0.0611966
0.057457
-0.129
-0.126411
-0.11422
-0.0945534
-0.071516
-0.0481561
-0.0262711
-0.00668869
0.0103774
0.0250315
0.0375082
0.0480731
0.0569771
0.0644398
0.0706455
0.0757448
0.079856
0.0830616
0.0854055
0.0869123
0.0876127
0.0873698
0.0854402
0.0810974
0.076449
-0.0863332
-0.0846131
-0.0732316
-0.0546039
-0.0328817
-0.0110074
0.009331
0.0273856
0.0429921
0.0562799
0.0674934
0.0768998
0.0847491
0.0912593
0.0966158
0.100974
0.104461
0.107181
0.109212
0.110656
0.111669
0.112199
0.111319
0.108485
0.111082
-0.0429965
-0.0421602
-0.0316596
-0.0141723
0.00613146
0.0264305
0.0451495
0.0616189
0.0757204
0.0876053
0.0975255
0.105749
0.112522
0.118061
0.12255
0.126146
0.12898
0.131163
0.132797
0.134011
0.134972
0.135658
0.135549
0.135094
0.140033
0.00076917
0.000711044
0.0102675
0.0265243
0.0453205
0.0639682
0.0810071
0.0958438
0.108402
0.118853
0.127454
0.134469
0.140143
0.144689
0.148286
0.15109
0.153235
0.154836
0.156001
0.156857
0.157552
0.158057
0.158002
0.157907
0.162312
0.0447223
0.0437636
0.0523209
0.0672696
0.0844832
0.101417
0.116728
0.129895
0.140882
0.149874
0.157132
0.162917
0.167469
0.170994
0.173666
0.175639
0.177041
0.177986
0.17858
0.178944
0.179208
0.17935
0.17906
0.178755
0.182163
0.0886218
0.0867609
0.0942729
0.107849
0.123419
0.138592
0.152139
0.163611
0.173005
0.180522
0.186421
0.19096
0.19437
0.196851
0.19857
0.199673
0.200284
0.200509
0.200445
0.200203
0.19989
0.199477
0.19868
0.197888
0.200346
0.132228
0.129468
0.135898
0.148049
0.161932
0.175311
0.187072
0.196834
0.204626
0.210659
0.215191
0.218473
0.220729
0.222148
0.222892
0.223097
0.222879
0.222337
0.221558
0.22064
0.219673
0.218614
0.217202
0.215822
0.217362
0.175306
0.171654
0.176974
0.187664
0.199829
0.211395
0.221363
0.229412
0.235603
0.240153
0.243319
0.245343
0.246439
0.246789
0.246545
0.245834
0.244764
0.243424
0.241894
0.240258
0.238591
0.236841
0.234773
0.232778
0.233439
0.217624
0.213092
0.217286
0.226491
0.236924
0.246674
0.254853
0.2612
0.265802
0.268881
0.270689
0.271462
0.271404
0.270687
0.269452
0.26782
0.265888
0.263738
0.261441
0.25907
0.256688
0.254237
0.25151
0.2489
0.24872
0.258958
0.253561
0.256622
0.264333
0.273035
0.280981
0.28739
0.292058
0.295093
0.296722
0.297193
0.296733
0.295534
0.29376
0.291543
0.288995
0.286204
0.283245
0.280181
0.277076
0.273982
0.27084
0.267469
0.264258
0.263271
0.299088
0.292849
0.29478
0.301003
0.307989
0.314158
0.318829
0.321851
0.323352
0.323564
0.322727
0.321059
0.318743
0.315932
0.312752
0.309303
0.305667
0.301912
0.298093
0.294267
0.290477
0.286665
0.282673
0.278881
0.277121
0.337805
0.330749
0.331564
0.336317
0.34162
0.346051
0.349028
0.35045
0.350463
0.349299
0.347192
0.344351
0.34095
0.337132
0.333014
0.328688
0.324231
0.319701
0.315149
0.310624
0.306162
0.301707
0.297124
0.292775
0.290274
0.374909
0.367066
0.366788
0.370104
0.373768
0.376514
0.377856
0.377735
0.376313
0.373824
0.370494
0.366523
0.362076
0.357288
0.352266
0.347097
0.341847
0.336572
0.331315
0.32612
0.321016
0.31595
0.310808
0.305927
0.302718
0.410208
0.401613
0.400275
0.402198
0.404283
0.405411
0.405185
0.403587
0.400795
0.39704
0.392542
0.387492
0.382047
0.376333
0.370448
0.364472
0.358467
0.352481
0.346553
0.340721
0.335009
0.329367
0.3237
0.318316
0.314433
0.443521
0.434213
0.431858
0.432447
0.433022
0.432611
0.430896
0.427899
0.423809
0.418855
0.413251
0.407181
0.400791
0.394199
0.387498
0.38076
0.374042
0.367385
0.360824
0.354392
0.348109
0.341928
0.335771
0.329914
0.325392
0.474679
0.464702
0.46138
0.460704
0.459853
0.457991
0.454877
0.450567
0.445258
0.43918
0.432541
0.425514
0.418238
0.410825
0.403359
0.395908
0.388521
0.381237
0.374085
0.367094
0.360278
0.353599
0.346988
0.340688
0.335567
0.503525
0.492925
0.488697
0.486834
0.484653
0.48144
0.477024
0.471494
0.465055
0.457935
0.450334
0.44242
0.434324
0.426149
0.417975
0.409863
0.401858
0.393993
0.386296
0.378788
0.371482
0.364343
0.357316
0.350607
0.344928
0.529912
0.518741
0.513674
0.510715
0.507306
0.50285
0.497241
0.490591
0.483117
0.475042
0.466561
0.457835
0.448987
0.440115
0.431293
0.422576
0.414006
0.405611
0.397415
0.389437
0.381684
0.374127
0.366722
0.359638
0.353446
0.55371
0.54202
0.53619
0.532233
0.52771
0.522129
0.515439
0.507778
0.499369
0.490431
0.481156
0.471697
0.462171
0.45267
0.443264
0.434002
0.424922
0.41605
0.407405
0.399002
0.390848
0.382917
0.375174
0.36775
0.361093
0.574798
0.562648
0.556134
0.551287
0.545771
0.539189
0.53154
0.522982
0.513742
0.50404
0.49406
0.483951
0.473824
0.463766
0.453842
0.444097
0.434566
0.425271
0.416229
0.407452
0.398943
0.390682
0.38264
0.374916
0.367844
0.593071
0.580522
0.573412
0.567787
0.561407
0.553955
0.545472
0.536136
0.526176
0.515811
0.505221
0.494548
0.483901
0.47336
0.462987
0.452824
0.442902
0.433242
0.423856
0.414755
0.405939
0.397393
0.389094
0.381108
0.373674
0.608439
0.595553
0.587938
0.581656
0.574547
0.566361
0.557177
0.547185
0.536619
0.525697
0.514593
0.503446
0.492361
0.481414
0.470663
0.460149
0.449898
0.439931
0.430257
0.420883
0.41181
0.403025
0.39451
0.386304
0.378565
0.620825
0.607667
0.599643
0.59283
0.585131
0.576353
0.566602
0.556081
0.545027
0.533655
0.522137
0.510608
0.49917
0.487896
0.476841
0.466043
0.455529
0.445313
0.435407
0.425814
0.416533
0.407557
0.398868
0.390484
0.382498
0.630168
0.616804
0.608471
0.601255
0.59311
0.583885
0.573706
0.562786
0.551364
0.539652
0.527822
0.516005
0.5043
0.49278
0.481495
0.470484
0.45977
0.449368
0.439287
0.429528
0.420092
0.41097
0.402151
0.393633
0.38546
0.636422
0.62292
0.614379
0.606893
0.598449
0.588924
0.578459
0.567272
0.555603
0.543664
0.531625
0.519615
0.507732
0.496046
0.484608
0.473454
0.462607
0.45208
0.441881
0.432012
0.422471
0.413253
0.404347
0.395739
0.38744
0.639555
0.625983
0.617338
0.609717
0.601123
0.591448
0.580839
0.569518
0.557726
0.545673
0.533529
0.521423
0.50945
0.497681
0.486167
0.474941
0.464027
0.453438
0.44318
0.433256
0.423663
0.414396
0.405446
0.396792
0.388431
0.639552
0.62598
0.617335
0.609714
0.601121
0.591445
0.580837
0.569516
0.557724
0.545671
0.533527
0.521421
0.509448
0.49768
0.486165
0.474939
0.464025
0.453436
0.443178
0.433254
0.423661
0.414395
0.405444
0.396791
0.388429
0.636413
0.622911
0.61437
0.606885
0.598441
0.588916
0.578452
0.567265
0.555596
0.543658
0.531619
0.519609
0.507726
0.49604
0.484603
0.473449
0.462601
0.452075
0.441876
0.432007
0.422467
0.413249
0.404342
0.395734
0.387436
0.630153
0.616789
0.608456
0.601241
0.593097
0.583872
0.573694
0.562775
0.551353
0.539642
0.527812
0.515995
0.50429
0.49277
0.481486
0.470475
0.459761
0.44936
0.439278
0.42952
0.420084
0.410963
0.402143
0.393626
0.385453
0.620804
0.607646
0.599623
0.59281
0.585112
0.576335
0.566585
0.556065
0.545011
0.53364
0.522122
0.510594
0.499156
0.487882
0.476828
0.466031
0.455516
0.445301
0.435395
0.425802
0.416522
0.407546
0.398857
0.390474
0.382488
0.608412
0.595526
0.587912
0.581631
0.574523
0.566338
0.557155
0.547164
0.536599
0.525677
0.514574
0.503428
0.492343
0.481397
0.470646
0.460132
0.449883
0.439915
0.430242
0.420868
0.411795
0.403011
0.394496
0.38629
0.378552
0.593038
0.580489
0.57338
0.567757
0.561378
0.553927
0.545445
0.53611
0.526151
0.515787
0.505198
0.494526
0.483879
0.473339
0.462966
0.452804
0.442883
0.433223
0.423838
0.414737
0.405921
0.397376
0.389077
0.381092
0.373658
0.574759
0.56261
0.556097
0.551251
0.545736
0.539156
0.531508
0.522951
0.513712
0.504012
0.494033
0.483924
0.473799
0.463742
0.453818
0.444073
0.434543
0.425249
0.416208
0.407431
0.398922
0.390662
0.38262
0.374896
0.367825
0.553665
0.541976
0.536146
0.532191
0.52767
0.52209
0.515402
0.507743
0.499335
0.490399
0.481125
0.471666
0.462141
0.452642
0.443236
0.433975
0.424895
0.416024
0.40738
0.398978
0.390824
0.382894
0.375151
0.367728
0.361071
0.529861
0.51869
0.513625
0.510668
0.50726
0.502807
0.497199
0.490551
0.483079
0.475005
0.466526
0.4578
0.448954
0.440083
0.431262
0.422546
0.413976
0.405582
0.397387
0.389409
0.381657
0.374101
0.366697
0.359612
0.353422
0.503468
0.492868
0.488642
0.486781
0.484602
0.481391
0.476978
0.471449
0.465012
0.457893
0.450295
0.442382
0.434287
0.426113
0.41794
0.409829
0.401824
0.393961
0.386264
0.378758
0.371452
0.364314
0.357287
0.350578
0.344901
0.474616
0.464639
0.461319
0.460645
0.459797
0.457938
0.454826
0.450517
0.445211
0.439135
0.432497
0.425471
0.418197
0.410785
0.403321
0.39587
0.388484
0.381201
0.37405
0.36706
0.360245
0.353566
0.346956
0.340657
0.335537
0.443452
0.434145
0.431791
0.432382
0.43296
0.432552
0.43084
0.427845
0.423757
0.418805
0.413203
0.407134
0.400746
0.394156
0.387456
0.380719
0.374001
0.367346
0.360786
0.354355
0.348072
0.341893
0.335736
0.329879
0.325359
0.410132
0.401539
0.400202
0.402129
0.404216
0.405347
0.405124
0.403529
0.400739
0.396986
0.39249
0.387442
0.381998
0.376285
0.370402
0.364427
0.358424
0.352439
0.346512
0.340681
0.33497
0.329329
0.323662
0.318279
0.314397
0.374828
0.366986
0.366709
0.370028
0.373695
0.376445
0.37779
0.377671
0.376252
0.373765
0.370437
0.366468
0.362023
0.357237
0.352216
0.347048
0.3418
0.336526
0.33127
0.326076
0.320973
0.315908
0.310767
0.305887
0.302679
0.337718
0.330663
0.331479
0.336236
0.341542
0.345976
0.348957
0.350382
0.350398
0.349236
0.347131
0.344292
0.340893
0.337077
0.33296
0.328636
0.324181
0.319652
0.315101
0.310577
0.306117
0.301663
0.29708
0.292732
0.290232
0.298995
0.292757
0.29469
0.300916
0.307906
0.314078
0.318753
0.321778
0.323283
0.323497
0.322662
0.320996
0.318682
0.315874
0.312695
0.309247
0.305613
0.30186
0.298042
0.294217
0.290429
0.286618
0.282626
0.278835
0.277076
0.258859
0.253463
0.256526
0.264241
0.272947
0.280897
0.287309
0.29198
0.295018
0.296651
0.297124
0.296666
0.295469
0.293697
0.291483
0.288936
0.286147
0.283189
0.280126
0.277023
0.27393
0.27079
0.267419
0.264209
0.263223
0.21752
0.212988
0.217184
0.226393
0.23683
0.246585
0.254767
0.261118
0.265723
0.268805
0.270616
0.271392
0.271336
0.27062
0.269388
0.267757
0.265827
0.263679
0.261383
0.259013
0.256633
0.254184
0.251458
0.248849
0.24867
0.175196
0.171544
0.176867
0.187561
0.19973
0.211301
0.221272
0.229325
0.23552
0.240073
0.243241
0.245268
0.246367
0.246719
0.246477
0.245768
0.2447
0.243362
0.241833
0.240198
0.238533
0.236784
0.234718
0.232724
0.233387
0.132112
0.129353
0.135785
0.147941
0.161828
0.175211
0.186977
0.196742
0.204538
0.210574
0.215109
0.218394
0.220653
0.222074
0.22282
0.223027
0.222811
0.222271
0.221494
0.220577
0.219612
0.218554
0.217143
0.215765
0.217306
0.0884994
0.0866396
0.0941544
0.107734
0.12331
0.138487
0.152039
0.163514
0.172913
0.180433
0.186335
0.190877
0.19429
0.196773
0.198494
0.1996
0.200212
0.200439
0.200378
0.200137
0.199826
0.199414
0.198619
0.197828
0.200288
0.0445942
0.0436365
0.0521968
0.0671498
0.0843684
0.101308
0.116623
0.129794
0.140785
0.149781
0.157042
0.162831
0.167385
0.170912
0.173587
0.175562
0.176966
0.177913
0.178509
0.178875
0.17914
0.179284
0.178995
0.178692
0.182101
0.000635338
0.000578282
0.0101378
0.0263991
0.0452004
0.0638533
0.0808972
0.0957384
0.108301
0.118756
0.12736
0.134378
0.140055
0.144603
0.148203