/*--------------------------------*- C++ -*----------------------------------*\
  =========                 |
  \\      /  F ield         | OpenFOAM: The Open Source CFD Toolbox
   \\    /   O peration     | Website:  https://openfoam.org
    \\  /    A nd           | Version:  6.0
     \\/     M anipulation  |
\*---------------------------------------------------------------------------*/
FoamFile
{
    version     2.0;
    format      ascii;
    class       volVectorField;
    location    "6";
    object      U;
}
// * * * * * * * * * * * * * * * * * * * * * * * * * * * * * * * * * * * * * //

dimensions      [0 1 -1 0 0 0 0];

internalField   nonuniform List<vector> 
12500
(
(-0.00111308 0.0012343 -7.28694e-22)
(-0.0060673 0.00302717 1.00561e-20)
(-0.015268 0.00431537 -1.46087e-20)
(-0.0267446 0.00524388 6.72005e-21)
(-0.0395208 0.00590687 4.09466e-22)
(-0.0530585 0.00637212 -8.2434e-22)
(-0.0669559 0.00669094 -1.22793e-20)
(-0.0809309 0.0069022 6.7432e-21)
(-0.0947974 0.00703544 4.46626e-21)
(-0.108436 0.00711322 4.54267e-21)
(-0.121773 0.00715279 -7.73733e-21)
(-0.13477 0.0071674 4.50541e-21)
(-0.14741 0.00716718 -2.13315e-21)
(-0.159693 0.00715997 3.62168e-21)
(-0.17163 0.00715184 -9.29335e-21)
(-0.183241 0.00714754 1.34894e-20)
(-0.194549 0.0071508 -2.54852e-21)
(-0.205582 0.00716451 -9.60187e-21)
(-0.216364 0.00719088 4.93665e-21)
(-0.22693 0.0072314 -4.75111e-21)
(-0.237337 0.00728658 4.26287e-21)
(-0.247614 0.00735669 5.67881e-21)
(-0.257537 0.00744458 6.12371e-22)
(-0.266829 0.00755353 -1.63339e-20)
(-0.277328 0.00765781 8.84517e-21)
(-0.00124379 0.00376365 1.3288e-20)
(-0.00631848 0.00923711 -3.43478e-20)
(-0.0154955 0.0131749 1.01462e-20)
(-0.0268688 0.0160138 6.80041e-21)
(-0.0394936 0.0180394 -5.40235e-21)
(-0.0528483 0.0194585 -3.08455e-20)
(-0.066542 0.0204281 9.15094e-21)
(-0.0802994 0.0210672 -1.74093e-20)
(-0.0939379 0.0214665 2.08353e-20)
(-0.10734 0.0216952 -2.78224e-20)
(-0.120433 0.0218059 1.49336e-20)
(-0.133177 0.0218391 4.86651e-21)
(-0.145557 0.0218255 -1.22359e-20)
(-0.157571 0.0217889 -5.48996e-21)
(-0.169229 0.0217476 3.97864e-20)
(-0.180551 0.0217159 -3.53807e-20)
(-0.191559 0.021705 8.41983e-21)
(-0.20228 0.0217238 1.46978e-20)
(-0.21274 0.0217789 -3.45127e-21)
(-0.222971 0.021875 2.39843e-20)
(-0.233031 0.0220139 4.51057e-21)
(-0.24295 0.0221965 -1.41899e-21)
(-0.252505 0.0224318 -3.05787e-20)
(-0.261408 0.0227302 2.85361e-20)
(-0.271499 0.0230144 -5.54977e-20)
(-0.00149993 0.00619252 4.26795e-20)
(-0.00681194 0.0152251 1.42402e-20)
(-0.0159438 0.0217473 -1.86816e-20)
(-0.0271149 0.0264648 8.05586e-21)
(-0.0394419 0.0298414 7.51376e-21)
(-0.0524361 0.0322144 2.86036e-20)
(-0.0657277 0.0338407 -3.63595e-20)
(-0.0790546 0.0349162 -5.94159e-21)
(-0.0922417 0.03559 -2.44526e-20)
(-0.105175 0.0359766 -2.05004e-20)
(-0.117784 0.0361634 2.64731e-20)
(-0.130028 0.0362176 -8.88903e-20)
(-0.141892 0.0361905 -2.88495e-21)
(-0.153372 0.0361216 -5.38099e-20)
(-0.164479 0.0360418 -6.49576e-21)
(-0.175229 0.035975 7.59274e-21)
(-0.185644 0.0359404 -4.22888e-20)
(-0.19575 0.035953 -2.6611e-20)
(-0.205572 0.0360244 -3.16365e-20)
(-0.215141 0.0361629 4.95996e-20)
(-0.224517 0.0363722 1.84512e-20)
(-0.233732 0.0366543 -8.13131e-20)
(-0.242563 0.0370248 -3.95354e-20)
(-0.250703 0.0375033 -4.46842e-20)
(-0.259994 0.0379604 1.2256e-19)
(-0.00186874 0.00845894 -1.20536e-21)
(-0.00752511 0.020853 -3.28535e-20)
(-0.0165935 0.0298519 -1.59837e-20)
(-0.0274725 0.0363944 9.80719e-21)
(-0.0393671 0.0411012 6.12536e-20)
(-0.0518352 0.0444264 -2.76722e-20)
(-0.0645384 0.0467181 5.90247e-20)
(-0.0772339 0.0482425 5.63785e-20)
(-0.0897577 0.049204 3.43767e-20)
(-0.102001 0.0497597 -5.78129e-22)
(-0.113897 0.0500306 6.96437e-20)
(-0.125406 0.0501098 1.21018e-20)
(-0.136509 0.0500689 5.34926e-20)
(-0.147205 0.0499634 1.23739e-19)
(-0.157499 0.0498367 -1.43915e-19)
(-0.167408 0.0497229 2.17266e-19)
(-0.176952 0.0496493 4.79169e-20)
(-0.186156 0.0496378 -1.05069e-19)
(-0.195044 0.0497057 -1.51949e-20)
(-0.203647 0.0498657 3.8403e-20)
(-0.212023 0.0501242 -1.95802e-20)
(-0.220211 0.0504851 -1.19823e-20)
(-0.22799 0.0509719 -1.17001e-20)
(-0.235023 0.0516164 -4.68265e-20)
(-0.243153 0.0522369 1.66525e-19)
(-0.00233217 0.0105085 2.24003e-20)
(-0.00842589 0.0259972 -1.04022e-19)
(-0.0174172 0.0373249 1.26364e-19)
(-0.0279273 0.0456162 -5.03727e-20)
(-0.0392711 0.0516211 6.03731e-20)
(-0.0510656 0.0558931 4.94257e-20)
(-0.063012 0.0588588 1.88316e-20)
(-0.0748924 0.0608473 1.01634e-21)
(-0.0865576 0.0621127 1.06098e-19)
(-0.0979074 0.0628518 7.37392e-20)
(-0.108878 0.0632172 -2.96435e-20)
(-0.11943 0.0633268 -1.94134e-20)
(-0.129547 0.0632722 8.06932e-20)
(-0.139223 0.0631246 1.51445e-20)
(-0.148464 0.0629403 4.16805e-20)
(-0.157284 0.0627639 1.00409e-19)
(-0.165702 0.0626315 -8.68735e-20)
(-0.17374 0.0625726 7.05619e-20)
(-0.181423 0.062611 -1.52765e-19)
(-0.188781 0.062765 1.29163e-19)
(-0.195874 0.063045 1.0274e-21)
(-0.202746 0.063458 -1.042e-19)
(-0.209181 0.064037 4.17736e-20)
(-0.214804 0.0648303 9.60737e-20)
(-0.221456 0.0656047 -1.45222e-19)
(-0.00286814 0.012297 1.1618e-19)
(-0.00947477 0.0305543 -1.23568e-19)
(-0.0183811 0.044025 -1.97436e-20)
(-0.0284617 0.0539656 2.5225e-20)
(-0.0391573 0.0612232 -5.42807e-20)
(-0.0501531 0.0664292 -8.47125e-20)
(-0.0611969 0.0700748 -7.07527e-20)
(-0.072101 0.0725422 -1.7139e-20)
(-0.0827342 0.0741289 -1.22073e-19)
(-0.0930067 0.0750674 9.76683e-20)
(-0.10286 0.0755391 -1.5194e-19)
(-0.112258 0.0756856 7.70038e-20)
(-0.121183 0.0756176 -2.56844e-20)
(-0.129628 0.0754219 5.97961e-20)
(-0.137599 0.0751677 -1.50899e-19)
(-0.145107 0.0749106 7.36091e-20)
(-0.152169 0.0746962 5.63922e-21)
(-0.158808 0.0745621 3.27308e-20)
(-0.165047 0.0745401 1.99956e-19)
(-0.170916 0.0746556 4.51105e-20)
(-0.176477 0.0749244 -3.52636e-21)
(-0.181782 0.0753583 1.29534e-20)
(-0.186625 0.076002 8.5052e-20)
(-0.190585 0.076926 2.44468e-20)
(-0.195492 0.077848 8.29369e-20)
(-0.00345202 0.0137918 -7.23408e-20)
(-0.0106274 0.0344444 1.02964e-19)
(-0.0194471 0.0498387 6.52192e-21)
(-0.0290561 0.0613053 -1.26164e-19)
(-0.0390301 0.0697536 2.65822e-19)
(-0.0491287 0.0758703 -8.59962e-20)
(-0.0591512 0.0801954 1.25826e-19)
(-0.0689442 0.0831529 1.15502e-19)
(-0.0783979 0.0850767 -9.54633e-20)
(-0.0874356 0.0862301 -1.39805e-19)
(-0.0960058 0.0868203 3.82526e-20)
(-0.104076 0.0870105 -4.04733e-20)
(-0.11163 0.0869295 -1.80456e-19)
(-0.118661 0.0866794 2.20341e-19)
(-0.125172 0.086342 -1.06187e-19)
(-0.131174 0.0859844 -7.36979e-20)
(-0.136684 0.0856621 6.23383e-22)
(-0.141722 0.0854222 6.07123e-20)
(-0.146312 0.0853053 2.53542e-20)
(-0.150486 0.0853454 -9.88816e-20)
(-0.154306 0.0855665 1.141e-19)
(-0.157836 0.0859869 -1.98802e-19)
(-0.160881 0.0866656 1.21778e-19)
(-0.162975 0.0877029 -9.44272e-20)
(-0.165926 0.0887721 2.30835e-20)
(-0.00405835 0.0149735 1.0627e-19)
(-0.0118372 0.0376141 -8.17697e-20)
(-0.0205752 0.0546836 -5.20178e-20)
(-0.0296903 0.067529 -9.19545e-20)
(-0.0388958 0.0770874 -1.68092e-19)
(-0.0480277 0.0840774 -1.24347e-19)
(-0.0569404 0.089071 7.77465e-20)
(-0.0655177 0.0925228 -1.18078e-19)
(-0.0736742 0.094795 1.50166e-19)
(-0.0813485 0.0961758 -2.44984e-19)
(-0.0884985 0.096895 1.09271e-19)
(-0.0950975 0.0971349 2.31944e-19)
(-0.101131 0.0970409 -3.26874e-19)
(-0.106593 0.0967295 4.67502e-20)
(-0.111487 0.0962951 6.15728e-20)
(-0.115823 0.0958161 5.99644e-20)
(-0.119616 0.0953584 -6.37032e-20)
(-0.122887 0.0949794 -1.53228e-20)
(-0.125662 0.09473 -4.73557e-20)
(-0.127972 0.0946549 -3.98466e-20)
(-0.129883 0.0947882 -2.21251e-19)
(-0.131472 0.0951579 -1.53206e-20)
(-0.132559 0.0958404 2.56574e-21)
(-0.132634 0.096975 -1.0157e-19)
(-0.133468 0.0981986 1.06827e-19)
(-0.00466247 0.0158357 3.26763e-21)
(-0.0130588 0.0400379 3.34693e-20)
(-0.0217264 0.0585109 3.4981e-20)
(-0.0303454 0.0725652 2.00951e-20)
(-0.0387621 0.0831322 1.71416e-19)
(-0.0468886 0.0909404 1.61412e-19)
(-0.0546349 0.0965775 -1.31189e-19)
(-0.0619244 0.100517 -4.01567e-20)
(-0.068698 0.10314 -3.57117e-20)
(-0.0749125 0.104756 1.84608e-19)
(-0.0805373 0.10561 6.68587e-20)
(-0.0855527 0.105904 -9.68066e-20)
(-0.0899482 0.105795 -8.28111e-20)
(-0.0937207 0.105415 1.99776e-19)
(-0.0968737 0.104869 -4.91495e-20)
(-0.0994169 0.104246 -6.00636e-20)
(-0.101366 0.103624 -8.45988e-20)
(-0.102743 0.103071 -6.61536e-20)
(-0.103572 0.102649 -8.51959e-20)
(-0.10389 0.102415 -5.63297e-20)
(-0.103763 0.102416 2.33917e-19)
(-0.103283 0.102695 -1.15538e-19)
(-0.102293 0.103348 7.80952e-20)
(-0.100242 0.104564 -2.09923e-19)
(-0.0988479 0.105958 8.43217e-20)
(-0.00524222 0.0163852 -9.60213e-20)
(-0.0142506 0.041718 -2.51315e-20)
(-0.0228649 0.0613067 -1.95361e-19)
(-0.0310047 0.0763786 -9.3767e-20)
(-0.038639 0.0878311 -1.84957e-19)
(-0.0457516 0.0963821 -1.93736e-20)
(-0.0523074 0.10262 9.93508e-20)
(-0.0582701 0.107025 -6.07122e-20)
(-0.0636091 0.109991 1.31116e-19)
(-0.0683009 0.111839 -3.19334e-19)
(-0.0723289 0.11283 -9.66601e-21)
(-0.0756828 0.113176 5.69519e-20)
(-0.0783577 0.113049 -7.24194e-20)
(-0.0803542 0.11259 6.67084e-20)
(-0.0816778 0.111916 -5.06417e-20)
(-0.0823388 0.111127 -1.09743e-19)
(-0.0823533 0.11031 2.01482e-19)
(-0.0817433 0.109545 1.2598e-19)
(-0.0805364 0.108906 -2.56144e-20)
(-0.078769 0.108465 8.42335e-20)
(-0.0765133 0.108286 -1.66074e-19)
(-0.0738748 0.108427 2.41285e-19)
(-0.0707258 0.109013 -3.30198e-19)
(-0.0664805 0.110294 6.80513e-20)
(-0.0627929 0.111879 -1.33565e-19)
(-0.00577928 0.0166407 5.25316e-21)
(-0.0153774 0.0426833 -8.61297e-20)
(-0.0239609 0.0630907 1.26804e-19)
(-0.0316554 0.078971 2.60073e-19)
(-0.0385376 0.0911641 -4.37755e-21)
(-0.0446564 0.10036 2.94618e-20)
(-0.0500289 0.107135 -1.11726e-19)
(-0.0546584 0.111967 5.21084e-20)
(-0.0585441 0.115253 3.61703e-19)
(-0.0616842 0.11732 -8.20468e-20)
(-0.064078 0.118439 -9.77836e-20)
(-0.0657265 0.118831 3.69628e-19)
(-0.0666328 0.118676 1.21712e-19)
(-0.0668025 0.118126 5.84156e-20)
(-0.0662439 0.117307 5.97487e-20)
(-0.0649692 0.116327 1.62928e-19)
(-0.0629952 0.115283 -6.33785e-20)
(-0.0603445 0.114265 1.67256e-19)
(-0.0570458 0.113361 2.27969e-19)
(-0.053138 0.112659 -1.95588e-19)
(-0.048697 0.112242 2.92207e-19)
(-0.0438434 0.112191 1.05672e-19)
(-0.038483 0.112663 -4.00199e-19)
(-0.0320072 0.113986 5.80841e-19)
(-0.0259977 0.115787 -4.74228e-19)
(-0.00626036 0.0166312 -2.46776e-19)
(-0.0164129 0.0429862 1.33737e-19)
(-0.024992 0.0639146 -8.98113e-20)
(-0.0322891 0.0803799 -8.51335e-20)
(-0.03847 0.0931484 -9.2118e-20)
(-0.0436402 0.10287 -9.9955e-20)
(-0.0478643 0.110097 2.72417e-20)
(-0.0511841 0.115296 2.61218e-19)
(-0.0536288 0.118861 -5.56509e-20)
(-0.0552199 0.12112 -1.46051e-19)
(-0.0559745 0.122348 -8.95251e-20)
(-0.0559068 0.12277 -3.67664e-20)
(-0.0550296 0.122575 1.09459e-19)
(-0.0533551 0.121918 -6.97383e-20)
(-0.0508961 0.120933 -2.29753e-19)
(-0.0476667 0.119735 -2.5522e-19)
(-0.0436849 0.118429 1.01869e-19)
(-0.0389736 0.117114 -1.91294e-19)
(-0.0335622 0.115893 1.67514e-19)
(-0.0274908 0.114868 -4.73364e-19)
(-0.0208384 0.114147 3.66213e-19)
(-0.0137404 0.113835 -4.8697e-19)
(-0.00614002 0.114134 -1.00514e-20)
(0.00257979 0.115463 -1.66968e-19)
(0.0109093 0.117503 4.88825e-19)
(-0.00667792 0.0163939 3.78909e-19)
(-0.0173408 0.0426994 5.54189e-20)
(-0.0259445 0.0638577 -3.64595e-20)
(-0.0329023 0.080676 -1.52949e-20)
(-0.0384482 0.0938374 2.85124e-19)
(-0.0427341 0.103943 9.28667e-20)
(-0.0458673 0.111515 8.43182e-20)
(-0.0479257 0.117001 -6.77097e-20)
(-0.048968 0.120787 2.61853e-19)
(-0.0490402 0.123196 -1.29247e-19)
(-0.0481784 0.1245 8.3071e-20)
(-0.0464121 0.124929 2.12735e-19)
(-0.0437654 0.124672 -1.21333e-19)
(-0.0402587 0.123889 1.31686e-19)
(-0.03591 0.122716 1.24738e-19)
(-0.0307367 0.121273 4.29035e-20)
(-0.0247573 0.11967 -1.07318e-19)
(-0.0179945 0.118015 2.95527e-19)
(-0.0104771 0.116418 -2.79412e-20)
(-0.00224522 0.115002 -3.33771e-20)
(0.00662091 0.113897 3.5993e-19)
(0.015973 0.113242 -2.58494e-19)
(0.0258274 0.113288 4.36372e-19)
(0.0367929 0.114567 -3.64974e-19)
(0.0474203 0.116855 4.65399e-19)
(-0.0070305 0.0159718 -1.83598e-19)
(-0.0181555 0.0419106 4.04606e-20)
(-0.026814 0.0630225 -4.23438e-20)
(-0.0334956 0.0799587 -1.99372e-19)
(-0.0384815 0.0933176 1.16172e-20)
(-0.0419599 0.103648 1.13495e-19)
(-0.0440746 0.111438 -4.61835e-19)
(-0.0449368 0.117112 3.45101e-19)
(-0.0446342 0.121041 -3.36266e-19)
(-0.0432371 0.123541 -2.12835e-19)
(-0.0408022 0.12488 1.90973e-19)
(-0.0373755 0.125282 -4.15277e-19)
(-0.0329938 0.124938 3.50396e-19)
(-0.027687 0.124006 -1.11512e-19)
(-0.0214795 0.122623 -3.21189e-19)
(-0.0143921 0.120909 7.98348e-20)
(-0.00644423 0.118977 -7.511e-20)
(0.00234259 0.116938 2.92288e-20)
(0.011942 0.11491 -1.01918e-19)
(0.0223163 0.11303 -3.41999e-19)
(0.0333863 0.111453 7.64463e-20)
(0.0449937 0.110355 -6.56835e-22)
(0.0571139 0.110047 -3.5886e-19)
(0.070329 0.111195 2.519e-19)
(0.0832256 0.11372 -2.17447e-19)
(-0.0073226 0.0154111 7.44609e-20)
(-0.018862 0.0407173 1.36567e-19)
(-0.0276043 0.061528 1.9041e-19)
(-0.0340722 0.0783508 9.78722e-20)
(-0.0385741 0.0917045 -9.59217e-20)
(-0.041325 0.102087 2.28744e-19)
(-0.0424989 0.10995 1.69395e-19)
(-0.0422371 0.115696 -6.16351e-20)
(-0.040655 0.119676 2.20677e-19)
(-0.0378471 0.122195 -2.27138e-19)
(-0.0338911 0.123514 -6.69787e-20)
(-0.0288502 0.12385 6.78439e-20)
(-0.0227751 0.12339 1.34599e-19)
(-0.0157064 0.122287 1.67489e-21)
(-0.00767545 0.120676 8.59905e-20)
(0.00129295 0.118673 1.60181e-19)
(0.0111785 0.116389 -2.73527e-19)
(0.0219618 0.113933 3.41287e-19)
(0.0336206 0.111428 1.16174e-19)
(0.0461221 0.109018 4.22214e-20)
(0.0593914 0.106881 -4.20315e-19)
(0.0732639 0.10523 5.89451e-20)
(0.0876751 0.104446 9.31259e-20)
(0.103164 0.105356 -2.3204e-20)
(0.118311 0.108078 1.07228e-19)
(-0.00756406 0.0147585 5.69341e-21)
(-0.0194745 0.0392212 -3.51557e-19)
(-0.0283257 0.0595031 -8.71872e-21)
(-0.0346352 0.0759911 -8.83635e-20)
(-0.0387214 0.0891361 -5.7968e-19)
(-0.0408172 0.0993906 5.00218e-19)
(-0.0411216 0.107173 -3.55844e-19)
(-0.0398025 0.11286 -1.8148e-20)
(-0.0370009 0.116787 -1.68375e-19)
(-0.0328347 0.119245 2.91369e-19)
(-0.0274024 0.120481 -3.14078e-19)
(-0.0207845 0.120708 -1.47431e-19)
(-0.0130464 0.120102 2.55298e-21)
(-0.00423942 0.118811 -3.21217e-19)
(0.00559705 0.116963 4.3904e-19)
(0.0164339 0.114668 -5.11333e-19)
(0.0282499 0.112028 5.51425e-22)
(0.041028 0.109146 7.84323e-20)
(0.054751 0.106141 -1.99321e-19)
(0.0693934 0.103159 1.95096e-19)
(0.0848873 0.100393 -2.76064e-19)
(0.101065 0.0980887 -1.84348e-19)
(0.117826 0.0967021 3.45055e-19)
(0.13565 0.0972445 -3.78056e-19)
(0.153063 0.100098 -7.39025e-21)
(-0.007769 0.0140586 -2.9833e-19)
(-0.020014 0.0375224 3.41263e-19)
(-0.0289917 0.0570795 -1.05275e-19)
(-0.035184 0.0730277 2.01889e-19)
(-0.038905 0.0857666 2.17489e-19)
(-0.0403993 0.0957125 -1.91496e-19)
(-0.0398857 0.103255 -1.2664e-19)
(-0.0375554 0.10875 -1.51912e-19)
(-0.0335724 0.112514 1.39106e-19)
(-0.0280767 0.114822 -9.65528e-21)
(-0.0211861 0.115913 2.03194e-19)
(-0.0129983 0.115987 2.00648e-19)
(-0.00359241 0.115213 -2.40868e-19)
(0.00696902 0.113729 4.73348e-19)
(0.0186385 0.111653 -3.1532e-19)
(0.031382 0.109085 -5.43173e-20)
(0.0451765 0.106115 6.1892e-19)
(0.0600063 0.102836 -2.87035e-19)
(0.0758592 0.0993524 1.84958e-19)
(0.0927168 0.0958043 3.63023e-19)
(0.110519 0.0923849 -2.35819e-19)
(0.129099 0.0893661 2.47278e-20)
(0.14832 0.0872727 -1.70169e-20)
(0.168599 0.0873206 -9.88095e-20)
(0.188344 0.0902238 1.8252e-19)
(-0.0079543 0.0133517 6.82773e-20)
(-0.020505 0.0357136 -2.15525e-19)
(-0.0296154 0.0543841 1.17786e-19)
(-0.0357093 0.0696094 -1.54598e-21)
(-0.0390879 0.0817584 8.8373e-20)
(-0.0400028 0.0912227 -1.51786e-19)
(-0.0386886 0.098371 8.68057e-20)
(-0.0353561 0.10354 2.36577e-19)
(-0.03019 0.107031 -7.48072e-21)
(-0.0233496 0.109107 -1.20883e-19)
(-0.0149701 0.109994 1.21312e-19)
(-0.00516447 0.10988 -2.6937e-21)
(0.00597537 0.108926 -3.86985e-19)
(0.0183764 0.10726 1.43236e-19)
(0.0319829 0.104989 3.13808e-20)
(0.0467548 0.102202 -5.60524e-20)
(0.0626655 0.0989738 -1.02031e-19)
(0.0796982 0.0953794 3.87641e-19)
(0.0978418 0.0915049 9.52094e-20)
(0.117082 0.0874707 -2.04828e-19)
(0.137364 0.0834575 -2.54337e-20)
(0.158519 0.0797418 2.86231e-19)
(0.180377 0.0769026 -1.33533e-19)
(0.203291 0.0763688 5.83209e-20)
(0.225504 0.0792489 3.78409e-20)
(-0.00813779 0.0126712 -1.36217e-19)
(-0.020972 0.0338757 1.35188e-19)
(-0.0302038 0.0515328 -7.5844e-20)
(-0.0361882 0.0658787 -2.43224e-19)
(-0.0392092 0.0772742 -2.23675e-19)
(-0.0395226 0.0860993 -9.84155e-20)
(-0.0373761 0.0927103 -8.18457e-20)
(-0.0329971 0.0974313 -2.41524e-19)
(-0.0265874 0.100551 -9.78602e-20)
(-0.0183223 0.10232 8.94894e-20)
(-0.00835164 0.102953 -1.27301e-19)
(0.00319914 0.102631 -1.33989e-19)
(0.0162271 0.101504 -1.2624e-19)
(0.0306497 0.099692 2.30734e-19)
(0.0464029 0.0972916 -4.84072e-19)
(0.0634389 0.0943789 2.78592e-19)
(0.0817237 0.0910152 -4.76403e-19)
(0.101234 0.0872551 -7.37957e-20)
(0.121952 0.0831599 -2.6477e-19)
(0.143858 0.078821 -6.23331e-20)
(0.166895 0.0743894 -7.59478e-20)
(0.190885 0.0701204 -2.563e-19)
(0.21562 0.0666151 -2.89603e-20)
(0.241401 0.065504 1.59087e-19)
(0.266286 0.0683406 -4.0901e-19)
(-0.00833613 0.0120426 1.16874e-19)
(-0.0214343 0.0320732 1.52352e-19)
(-0.0307535 0.0486246 5.31334e-19)
(-0.0365793 0.0619647 -9.30375e-20)
(-0.039179 0.0724689 2.21344e-19)
(-0.0388129 0.0805202 5.26436e-19)
(-0.0357399 0.0864715 -1.43424e-19)
(-0.0302006 0.0906401 1.93886e-19)
(-0.0224102 0.0933059 1.12793e-19)
(-0.0125565 0.0947111 2.04766e-19)
(-0.000800174 0.0950623 -4.07243e-20)
(0.0127238 0.0945324 2.78653e-20)
(0.0279039 0.0932634 -7.24571e-20)
(0.0446488 0.0913694 3.89086e-19)
(0.0628852 0.0889389 4.94545e-20)
(0.0825542 0.0860386 3.6315e-19)
(0.103608 0.0827171 -9.348e-20)
(0.126008 0.0790108 3.35329e-19)
(0.149718 0.0749554 4.7889e-20)
(0.174696 0.0706073 1.72482e-19)
(0.200865 0.0660732 -7.50121e-20)
(0.228022 0.0615587 -1.5033e-20)
(0.255913 0.0576391 4.16542e-19)
(0.284808 0.0561079 2.59314e-19)
(0.312617 0.0589881 -1.06548e-19)
(-0.00856269 0.0114816 -2.81971e-19)
(-0.0219027 0.0303518 -2.846e-19)
(-0.0312455 0.0457373 -2.96896e-19)
(-0.0368179 0.0579769 1.08904e-19)
(-0.0388756 0.0674829 -2.18091e-19)
(-0.0376858 0.0746548 -3.24388e-20)
(-0.0335171 0.0798516 -8.54216e-20)
(-0.0266209 0.0833899 -3.53781e-19)
(-0.0172222 0.0855457 -5.52274e-20)
(-0.0055172 0.0865558 9.05301e-20)
(0.00832627 0.0866207 -2.84028e-19)
(0.0241665 0.0859084 3.94224e-19)
(0.0418847 0.0845564 -5.35616e-19)
(0.0613808 0.0826746 1.29259e-19)
(0.0825693 0.0803479 -3.28748e-19)
(0.105375 0.0776379 -2.68023e-19)
(0.129728 0.0745854 -1.56422e-20)
(0.155559 0.0712144 -4.12222e-20)
(0.182795 0.0675399 3.17274e-20)
(0.211352 0.0635845 -1.56145e-19)
(0.241108 0.0594045 -1.08574e-19)
(0.271809 0.0551319 1.34641e-19)
(0.303134 0.0512593 -3.74339e-19)
(0.335344 0.0496701 1.22111e-19)
(0.366324 0.0528488 8.87801e-20)
(-0.00882545 0.0109943 -4.97586e-20)
(-0.0223745 0.0287365 -8.20761e-20)
(-0.0316411 0.0429243 3.20514e-19)
(-0.036813 0.0540012 1.18792e-19)
(-0.0381443 0.0624357 1.56929e-19)
(-0.0359123 0.0686566 -2.09447e-19)
(-0.0303957 0.0730373 6.26964e-22)
(-0.0218543 0.0759002 -1.68858e-19)
(-0.0105201 0.0775214 3.12072e-19)
(0.00340575 0.0781354 1.01836e-19)
(0.0197507 0.0779402 1.14426e-19)
(0.0383676 0.0771009 -4.53788e-19)
(0.0591302 0.0757535 5.60621e-19)
(0.0819268 0.0740073 -1.67931e-19)
(0.106655 0.0719472 -1.20535e-19)
(0.133213 0.0696353 3.62709e-19)
(0.161498 0.0671121 1.63098e-19)
(0.191393 0.064398 -4.12781e-19)
(0.222768 0.0614977 -1.74264e-19)
(0.255468 0.0584107 5.25856e-19)
(0.289295 0.0551489 -4.04468e-19)
(0.323917 0.0517611 2.44281e-19)
(0.358909 0.0486016 1.38496e-19)
(0.394527 0.0475408 -1.78331e-19)
(0.428861 0.0514976 -1.7194e-19)
(-0.00912534 0.0105768 -1.82677e-19)
(-0.0228311 0.0272317 2.84188e-19)
(-0.0318794 0.0402136 1.20776e-19)
(-0.0364469 0.0500968 -1.74217e-19)
(-0.0367987 0.0574216 -2.78796e-20)
(-0.0332274 0.0626566 -1.81834e-19)
(-0.0260232 0.0661971 -7.21553e-20)
(-0.0154538 0.0683762 8.11634e-20)
(-0.0017558 0.0694741 -2.04235e-20)
(0.0148654 0.0697263 1.52489e-19)
(0.0342331 0.06933 -1.32498e-19)
(0.0561931 0.0684501 3.67077e-19)
(0.0806077 0.0672228 -4.55374e-19)
(0.107347 0.0657594 2.84029e-19)
(0.136283 0.0641484 3.54042e-19)
(0.167276 0.0624572 -5.12848e-19)
(0.200173 0.0607336 -1.56758e-19)
(0.234795 0.0590056 2.65059e-19)
(0.270928 0.0572835 -1.63991e-19)
(0.30832 0.0555649 1.60228e-19)
(0.346663 0.0538411 -3.88909e-19)
(0.385504 0.0520933 6.44552e-20)
(0.424273 0.0505088 2.57671e-19)
(0.463196 0.0508524 -4.17711e-19)
(0.500871 0.0564729 1.09527e-19)
(-0.00945512 0.0102166 -1.68285e-19)
(-0.0232361 0.0258225 5.2807e-19)
(-0.0318765 0.0376087 1.01122e-19)
(-0.0355757 0.0462957 -2.73056e-19)
(-0.0346247 0.052507 1.95485e-19)
(-0.0293384 0.0567587 9.92973e-20)
(-0.0200213 0.0594738 1.57835e-19)
(-0.00694972 0.061 -1.02629e-20)
(0.00963372 0.0616245 -1.65814e-20)
(0.0295179 0.0615855 -3.45897e-20)
(0.0525178 0.0610813 -1.49977e-19)
(0.0784663 0.0602768 -5.12143e-21)
(0.107206 0.0593094 3.50156e-19)
(0.138577 0.0582923 -5.75503e-19)
(0.172412 0.0573187 4.09551e-19)
(0.208521 0.0564641 8.30524e-20)
(0.246687 0.0557886 1.47262e-19)
(0.28665 0.0553392 -7.71856e-20)
(0.328102 0.0551517 6.81133e-19)
(0.370672 0.0552557 -4.23421e-19)
(0.413905 0.0556741 3.41122e-19)
(0.457171 0.0563924 8.1523e-20)
(0.499654 0.057519 -2.54054e-19)
(0.541396 0.060804 2.16361e-19)
(0.581664 0.0699862 3.35651e-19)
(-0.00979886 0.00989388 -4.84981e-20)
(-0.023535 0.0244783 -1.8604e-19)
(-0.0315268 0.0350909 -3.1739e-19)
(-0.0340329 0.0426045 -1.80289e-19)
(-0.0313876 0.0477307 -2.51955e-20)
(-0.023936 0.0510383 -7.09083e-20)
(-0.0120017 0.0529814 -3.2874e-19)
(0.00412621 0.0539247 5.4726e-20)
(0.0241943 0.054164 -3.68447e-19)
(0.0479791 0.053941 -2.85642e-20)
(0.075278 0.0534545 -3.53016e-19)
(0.105899 0.0528686 -1.25687e-19)
(0.139648 0.052319 7.22537e-20)
(0.176323 0.0519184 -3.43854e-19)
(0.215697 0.0517605 3.02505e-21)
(0.257515 0.0519249 -2.97571e-19)
(0.301485 0.0524817 1.15464e-19)
(0.347269 0.0534973 -4.1808e-19)
(0.394478 0.0550437 -7.241e-20)
(0.442656 0.0572104 -9.73934e-21)
(0.491255 0.0601141 -7.14723e-20)
(0.539527 0.0638817 -7.27635e-20)
(0.58643 0.0688575 -3.51566e-20)
(0.631358 0.0771765 -1.46976e-19)
(0.672494 0.0922402 -3.16598e-19)
(-0.0101325 0.00958411 8.95183e-20)
(-0.0236563 0.0231563 2.35273e-19)
(-0.030705 0.0326246 2.82265e-19)
(-0.0316346 0.0390079 -2.2513e-19)
(-0.0268398 0.0431062 4.17604e-19)
(-0.0167058 0.045543 -2.26272e-19)
(-0.00158348 0.0468042 1.22893e-19)
(0.0182175 0.0472723 1.91284e-19)
(0.0424231 0.0472516 1.73705e-19)
(0.0707847 0.0469864 8.44535e-20)
(0.103066 0.0466735 1.36357e-19)
(0.139029 0.0464727 7.92923e-20)
(0.178425 0.0465127 5.36222e-19)
(0.220979 0.0468979 -3.89938e-19)
(0.266387 0.0477127 4.45988e-19)
(0.314308 0.0490272 -1.8563e-19)
(0.364363 0.0509037 4.0215e-19)
(0.416138 0.0534052 -1.82817e-20)
(0.46919 0.0566086 -8.35467e-20)
(0.523057 0.060625 -1.49341e-20)
(0.577271 0.0656282 3.19523e-19)
(0.631366 0.0719167 -3.11479e-19)
(0.68504 0.080299 2.20669e-19)
(0.738432 0.0930435 2.4294e-19)
(0.785616 0.108481 4.89242e-20)
(-0.0104245 0.00926031 6.18331e-20)
(-0.0235138 0.0218071 -3.35621e-19)
(-0.0292709 0.0301623 -1.21864e-19)
(-0.0281848 0.035475 1.11309e-19)
(-0.0207291 0.0386279 -3.42039e-19)
(-0.00734078 0.0402977 -6.71663e-20)
(0.0115908 0.041001 4.66577e-20)
(0.035722 0.0411368 1.84071e-19)
(0.0647425 0.041016 -4.65796e-19)
(0.0983584 0.0408822 3.53773e-20)
(0.136275 0.0409266 -1.36021e-19)
(0.178184 0.0412982 -4.13359e-19)
(0.223746 0.042111 2.81683e-19)
(0.272589 0.0434502 1.21038e-20)
(0.324296 0.0453768 -8.55995e-21)
(0.378414 0.0479332 2.85365e-19)
(0.434453 0.0511482 -5.04938e-19)
(0.491899 0.0550436 4.00839e-19)
(0.550233 0.0596418 -7.39896e-20)
(0.608951 0.0649742 2.34492e-19)
(0.667596 0.0710874 -3.85924e-19)
(0.725786 0.0780545 2.21315e-19)
(0.783356 0.0861403 -3.9353e-19)
(0.840636 0.0962805 4.02308e-19)
(0.892311 0.106293 -1.26622e-19)
(-0.0106378 0.00889585 4.1324e-19)
(-0.0230101 0.0203805 -6.70739e-20)
(-0.0270731 0.0276528 4.95722e-19)
(-0.0234815 0.031967 2.29313e-19)
(-0.0128061 0.0342788 1.84148e-20)
(0.00444988 0.0353131 9.98844e-20)
(0.0278429 0.0356136 2.41776e-20)
(0.0569769 0.0355923 4.06015e-19)
(0.0914818 0.0355626 1.30652e-19)
(0.130991 0.0357632 -1.75077e-20)
(0.175121 0.0363729 3.50498e-20)
(0.223456 0.0375222 1.34953e-19)
(0.275534 0.0393004 1.12702e-19)
(0.330845 0.0417616 2.41521e-19)
(0.388833 0.0449303 -2.7508e-19)
(0.448899 0.0488054 8.32817e-20)
(0.510417 0.0533654 2.53041e-20)
(0.572753 0.058573 1.235e-19)
(0.635286 0.0643791 3.34987e-19)
(0.697433 0.070725 -2.18975e-19)
(0.758674 0.0775403 1.86086e-20)
(0.818577 0.0847328 -3.07217e-19)
(0.876843 0.0922537 2.89365e-19)
(0.933524 0.100562 -2.75428e-19)
(0.984466 0.108855 2.86344e-20)
(-0.0107314 0.00846705 -3.44441e-19)
(-0.0220403 0.0188308 2.6327e-19)
(-0.0239541 0.0250482 -4.28128e-19)
(-0.0173219 0.0284469 3.689e-20)
(-0.00283068 0.0300409 3.00683e-19)
(0.018933 0.0305962 -5.00451e-19)
(0.0474507 0.0306776 3.96566e-19)
(0.0822486 0.030704 -6.28662e-19)
(0.122867 0.0309857 1.25232e-19)
(0.168832 0.0317489 2.67365e-20)
(0.219632 0.033152 2.1098e-19)
(0.274705 0.0352967 -7.00868e-19)
(0.333428 0.0382363 1.20972e-19)
(0.395121 0.0419823 1.2827e-19)
(0.459055 0.0465097 -7.69774e-20)
(0.52447 0.0517628 -4.779e-19)
(0.590593 0.0576608 2.25006e-19)
(0.656663 0.0641023 4.2123e-19)
(0.721963 0.0709693 -4.44079e-19)
(0.785836 0.0781299 3.21822e-19)
(0.847713 0.0854354 -4.15404e-19)
(0.907123 0.0927123 3.01567e-19)
(0.963701 0.0997917 -8.20051e-20)
(1.01734 0.106947 4.68834e-19)
(1.06516 0.114466 -5.27464e-19)
(-0.0106623 0.00795506 4.91536e-20)
(-0.020495 0.0171221 3.88418e-20)
(-0.019754 0.0223113 9.4913e-20)
(-0.00950696 0.0248875 3.38835e-19)
(0.00942364 0.0259058 -1.06147e-20)
(0.0363466 0.0261627 7.56478e-20)
(0.0706427 0.0262356 3.36352e-19)
(0.111728 0.0265421 1.35637e-19)
(0.159016 0.0273807 -4.46417e-20)
(0.211884 0.0289555 3.8014e-19)
(0.269651 0.0313933 -4.32807e-19)
(0.331565 0.0347551 6.64036e-19)
(0.396808 0.0390456 -2.63508e-19)
(0.464501 0.0442211 4.78465e-19)
(0.533728 0.0501968 -1.61575e-19)
(0.60356 0.0568549 5.89573e-20)
(0.673089 0.0640516 7.14321e-20)
(0.741454 0.0716249 -1.37844e-19)
(0.807872 0.0794005 1.15509e-19)
(0.871662 0.087196 7.43604e-20)
(0.932262 0.0948234 1.02064e-19)
(0.989232 0.102086 2.14496e-19)
(1.04224 0.108792 -1.9356e-20)
(1.09119 0.115114 -9.7798e-20)
(1.13439 0.122057 2.8581e-19)
(-0.0103871 0.00734724 -2.87498e-19)
(-0.0182641 0.0152315 3.03844e-20)
(-0.0143141 0.019422 -5.4612e-19)
(0.000155628 0.0212813 -1.30333e-19)
(0.0241663 0.021885 -2.43996e-19)
(0.0568969 0.0220482 -5.23015e-20)
(0.0975946 0.022349 -2.61067e-19)
(0.145527 0.0231931 -1.55937e-19)
(0.199937 0.0248554 2.06495e-19)
(0.260006 0.027505 -3.44549e-19)
(0.324839 0.031223 -9.56875e-20)
(0.393459 0.0360156 3.78434e-21)
(0.464819 0.041825 -6.47027e-19)
(0.537828 0.0485406 2.75098e-19)
(0.611385 0.0560094 -4.01663e-19)
(0.684413 0.0640473 -1.25143e-20)
(0.755901 0.0724505 7.91256e-20)
(0.824939 0.0810054 -1.2851e-19)
(0.890743 0.0894975 -1.12629e-19)
(0.952677 0.0977194 5.57957e-20)
(1.01026 0.105475 6.20145e-20)
(1.06318 0.11258 -4.02286e-19)
(1.11122 0.118867 2.29087e-19)
(1.15441 0.124462 1.13411e-19)
(1.19195 0.130736 2.89922e-20)
(-0.00986281 0.00663782 2.93931e-19)
(-0.0152384 0.0131527 -3.13439e-19)
(-0.0074797 0.0163822 4.39667e-19)
(0.0118481 0.0176461 6.84944e-20)
(0.0415866 0.0180184 -2.09659e-20)
(0.080754 0.0183174 -1.47652e-19)
(0.128425 0.019108 2.21905e-20)
(0.183674 0.0207693 2.24498e-19)
(0.245523 0.0235371 -3.09647e-19)
(0.312911 0.0275294 3.25167e-19)
(0.384685 0.0327647 -3.43279e-20)
(0.45961 0.039178 1.50634e-20)
(0.536398 0.0466353 4.22998e-19)
(0.613751 0.0549488 5.6687e-19)
(0.690405 0.0638925 -2.2182e-19)
(0.765181 0.0732176 3.93756e-19)
(0.837027 0.0826678 1.99658e-19)
(0.905054 0.0919926 -1.22215e-19)
(0.968559 0.100958 3.86004e-19)
(1.02703 0.109355 -1.54959e-20)
(1.08016 0.117004 -3.69445e-19)
(1.12779 0.123759 3.88126e-19)
(1.16995 0.1295 5.48069e-20)
(1.2068 0.134341 -2.38076e-19)
(1.23823 0.13977 7.45676e-20)
(-0.00904763 0.00582801 -4.08704e-19)
(-0.0113115 0.0108962 4.27209e-19)
(0.000897718 0.0132184 -2.70994e-19)
(0.0257395 0.0140298 -8.44824e-20)
(0.061849 0.0143791 -1.89313e-19)
(0.108047 0.0150695 3.34772e-19)
(0.163191 0.0166353 -1.94352e-19)
(0.226109 0.0194103 -8.90867e-20)
(0.295551 0.0235721 -2.55019e-19)
(0.370165 0.0291672 6.56362e-21)
(0.448506 0.0361325 -9.97298e-20)
(0.529065 0.0443149 4.8575e-20)
(0.610318 0.0534916 -5.11116e-19)
(0.690787 0.0633914 1.45642e-19)
(0.769098 0.0737157 -1.75728e-19)
(0.844038 0.084159 -1.41453e-19)
(0.914597 0.0944272 4.34712e-20)
(0.979996 0.104253 -2.06108e-19)
(1.03969 0.113404 -8.80698e-20)
(1.09338 0.121696 2.54107e-19)
(1.14097 0.128987 1.06869e-19)
(1.18255 0.135182 -4.54693e-19)
(1.21836 0.140222 3.33084e-19)
(1.24877 0.14424 -6.28945e-20)
(1.27409 0.148662 -1.28651e-19)
(-0.00790106 0.00492562 -1.48787e-19)
(-0.00638134 0.00849025 -7.95952e-20)
(0.0109578 0.00998277 -1.58451e-20)
(0.041982 0.0105122 1.16602e-19)
(0.0850884 0.0110752 1.26773e-19)
(0.138858 0.0124391 1.10375e-19)
(0.201876 0.0150855 1.37324e-19)
(0.272671 0.0192803 2.09602e-19)
(0.349668 0.0251189 3.20372e-19)
(0.431185 0.0325536 3.16975e-19)
(0.515463 0.0414191 1.67357e-19)
(0.600722 0.0514588 -4.49476e-20)
(0.685233 0.0623528 1.12335e-20)
(0.767394 0.0737461 -1.51551e-20)
(0.8458 0.0852757 1.32426e-19)
(0.919294 0.0965949 -3.50784e-20)
(0.986999 0.107393 3.91504e-19)
(1.04833 0.117409 -1.75686e-19)
(1.10299 0.12644 2.60657e-21)
(1.15093 0.134343 1.22677e-19)
(1.19232 0.141033 -2.68224e-19)
(1.22751 0.146479 4.44649e-19)
(1.25694 0.150682 -3.59765e-19)
(1.28117 0.153809 6.51571e-20)
(1.30077 0.157127 -2.30592e-19)
(-0.00638386 0.00394447 3.19157e-19)
(-0.000350951 0.00597961 2.15164e-19)
(0.0228284 0.00675275 -1.37804e-19)
(0.0607054 0.0072036 6.09227e-19)
(0.111402 0.00824795 -5.27152e-19)
(0.173208 0.0105921 1.1114e-19)
(0.244382 0.0146385 -8.34093e-20)
(0.323093 0.0205576 -3.68498e-19)