/*--------------------------------*- C++ -*----------------------------------*\
  =========                 |
  \\      /  F ield         | OpenFOAM: The Open Source CFD Toolbox
   \\    /   O peration     | Website:  https://openfoam.org
    \\  /    A nd           | Version:  6.0
     \\/     M anipulation  |
\*---------------------------------------------------------------------------*/
FoamFile
{
    version     2.0;
    format      ascii;
    class       surfaceScalarField;
    location    "11";
    object      phi;
}
// * * * * * * * * * * * * * * * * * * * * * * * * * * * * * * * * * * * * * //

dimensions      [0 3 -1 0 0 0 0];

internalField   nonuniform List<scalar> 
24700
(
-2.18292e-06
2.25671e-06
-7.37959e-08
-7.80345e-06
5.8139e-06
-1.93361e-07
-1.61698e-05
8.65667e-06
-2.90283e-07
-2.67364e-05
1.09347e-05
-3.68134e-07
-3.90694e-05
1.2763e-05
-4.30058e-07
-5.28266e-05
1.42362e-05
-4.78944e-07
-6.77417e-05
1.54325e-05
-5.17397e-07
-8.36115e-05
1.64176e-05
-5.4772e-07
-0.000100286
1.72468e-05
-5.71917e-07
-0.000117662
1.79673e-05
-5.91691e-07
-0.000135673
1.8619e-05
-6.0845e-07
-0.000154285
1.92361e-05
-6.23327e-07
-0.000173496
1.98475e-05
-6.37204e-07
-0.000193322
2.04776e-05
-6.50742e-07
-0.000213805
2.11467e-05
-6.64406e-07
-0.000234997
2.18712e-05
-6.78496e-07
-0.000256968
2.26639e-05
-6.93177e-07
-0.000279794
2.35345e-05
-7.085e-07
-0.000303559
2.44892e-05
-7.24422e-07
-0.00032835
2.55315e-05
-7.40832e-07
-0.000354254
2.66617e-05
-7.57561e-07
-0.000381357
2.78777e-05
-7.74388e-07
-0.00040974
2.91744e-05
-7.9106e-07
-0.000439479
3.05461e-05
-8.07311e-07
3.19912e-05
-8.22915e-07
-0.000470647
-2.15367e-06
4.41038e-06
-7.70351e-06
1.13637e-05
-1.59672e-05
1.69203e-05
-2.64043e-05
2.13719e-05
-3.85839e-05
2.49426e-05
-5.21645e-05
2.78168e-05
-6.68793e-05
3.01473e-05
-8.25239e-05
3.20621e-05
-9.89464e-05
3.36693e-05
-0.00011604
3.50607e-05
-0.000133735
3.63146e-05
-0.000151997
3.74981e-05
-0.000170818
3.86681e-05
-0.000190213
3.98727e-05
-0.000210219
4.11523e-05
-0.000230887
4.25397e-05
-0.000252285
4.40611e-05
-0.000274486
4.5736e-05
-0.000297575
4.75778e-05
-0.000321637
4.95936e-05
-0.00034676
5.17854e-05
-0.000373032
5.41493e-05
-0.000400534
5.6676e-05
-0.000429342
5.93541e-05
6.21805e-05
-0.000459531
-2.09721e-06
6.5076e-06
-7.51029e-06
1.67768e-05
-1.5575e-05
2.4985e-05
-2.5761e-05
3.15579e-05
-3.76423e-05
3.68239e-05
-5.08792e-05
4.10537e-05
-6.5204e-05
4.4472e-05
-8.04092e-05
4.72674e-05
-9.63391e-05
4.95991e-05
-0.000112881
5.1603e-05
-0.000129962
5.3395e-05
-0.000147538
5.50745e-05
-0.000165596
5.67262e-05
-0.000184146
5.84225e-05
-0.000203218
6.02239e-05
-0.000222859
6.21808e-05
-0.000243131
6.43331e-05
-0.000264106
6.67117e-05
-0.000285867
6.9338e-05
-0.000308497
7.22244e-05
-0.000332087
7.53753e-05
-0.000356724
7.87862e-05
-0.000382493
8.24443e-05
-0.000409472
8.63333e-05
9.04473e-05
-0.000437739
-2.01617e-06
8.52377e-06
-7.23233e-06
2.1993e-05
-1.50098e-05
3.27625e-05
-2.48327e-05
4.13807e-05
-3.62822e-05
4.82734e-05
-4.90208e-05
5.37923e-05
-6.27795e-05
5.82307e-05
-7.73469e-05
6.18349e-05
-9.25613e-05
6.48135e-05
-0.000108303
6.73447e-05
-0.000124489
6.95811e-05
-0.000141068
7.16536e-05
-0.000158017
7.3675e-05
-0.000175336
7.57414e-05
-0.000193047
7.79347e-05
-0.000211189
8.03232e-05
-0.000229819
8.29626e-05
-0.000249003
8.58963e-05
-0.000268821
8.91557e-05
-0.000289357
9.27606e-05
-0.000310701
9.67195e-05
-0.000332944
0.000101029
-0.000356175
0.000105675
-0.000380478
0.000110636
0.000115903
-0.000405933
-1.91429e-06
1.04381e-05
-6.88172e-06
2.69604e-05
-1.42953e-05
4.01761e-05
-2.36568e-05
5.07423e-05
-3.45567e-05
5.91732e-05
-4.66603e-05
6.58959e-05
-5.9697e-05
7.12674e-05
-7.34505e-05
7.55884e-05
-8.77515e-05
7.91145e-05
-0.000102471
8.2064e-05
-0.000117515
8.46248e-05
-0.00013282
8.69586e-05
-0.00014835
8.92052e-05
-0.000164094
9.14852e-05
-0.000180061
9.39021e-05
-0.000196281
9.65436e-05
-0.000212801
9.94826e-05
-0.000229682
0.000102777
-0.000246999
0.000106472
-0.000264835
0.000110597
-0.000283282
0.000115166
-0.000302435
0.000120183
-0.000322391
0.00012563
-0.00034324
0.000131486
0.000137737
-0.000365075
-1.79615e-06
1.22342e-05
-6.47338e-06
3.16376e-05
-1.34605e-05
4.71632e-05
-2.22797e-05
5.95614e-05
-3.25318e-05
6.94254e-05
-4.38859e-05
7.725e-05
-5.60695e-05
8.34511e-05
-6.88609e-05
8.83799e-05
-8.2082e-05
9.23355e-05
-9.55924e-05
9.55745e-05
-0.000109285
9.83175e-05
-0.000123083
0.000100756
-0.000136933
0.000103056
-0.000150811
0.000105362
-0.000164709
0.000107801
-0.000178646
0.00011048
-0.000192654
0.000113491
-0.000206788
0.000116911
-0.000221116
0.0001208
-0.00023572
0.000125201
-0.000250696
0.000130142
-0.000266143
0.00013563
-0.000282169
0.000141656
-0.000298879
0.000148196
0.000155235
-0.000316377
-1.66693e-06
1.39011e-05
-6.02412e-06
3.59948e-05
-1.25383e-05
5.36773e-05
-2.07535e-05
6.77766e-05
-3.02821e-05
7.8954e-05
-4.07972e-05
8.77651e-05
-5.2025e-05
9.46789e-05
-6.3738e-05
0.000100093
-7.57484e-05
0.000104346
-8.79039e-05
0.00010773
-0.000100082
0.000110496
-0.00011219
0.000112864
-0.000124157
0.000115024
-0.000135939
0.000117144
-0.000147512
0.000119374
-0.000158876
0.000121843
-0.00017005
0.000124665
-0.000181075
0.000127936
-0.000192013
0.000131738
-0.000202943
0.000136132
-0.000213963
0.000141161
-0.000225182
0.00014685
-0.000236722
0.000153196
-0.000248708
0.000160182
0.00016779
-0.000261263
-1.53204e-06
1.54332e-05
-5.55152e-06
4.00143e-05
-1.15631e-05
5.96889e-05
-1.9133e-05
7.53465e-05
-2.78858e-05
8.77067e-05
-3.74991e-05
9.73785e-05
-4.76984e-05
0.000104878
-5.82502e-05
0.000110645
-6.89577e-05
0.000115054
-7.96555e-05
0.000118428
-9.02061e-05
0.000121047
-0.000100497
0.000123155
-0.00011044
0.000124966
-0.000119967
0.000126671
-0.000129034
0.000128441
-0.000137619
0.000130428
-0.000145724
0.00013277
-0.000153373
0.000135586
-0.000160618
0.000138982
-0.000167533
0.000143046
-0.000174217
0.000147845
-0.000180791
0.000153424
-0.000187395
0.0001598
-0.000194181
0.000166967
0.000174914
-0.000201304
-1.39677e-06
1.683e-05
-5.07287e-06
4.36904e-05
-1.05688e-05
6.51849e-05
-1.74722e-05
8.225e-05
-2.54198e-05
9.56543e-05
-3.40947e-05
0.000106053
-4.32218e-05
0.000114005
-5.25634e-05
0.000119986
-6.19135e-05
0.000124404
-7.10944e-05
0.000127609
-7.99529e-05
0.000129905
-8.83576e-05
0.000131559
-9.61981e-05
0.000132806
-0.000103384
0.000133857
-0.000109846
0.000134903
-0.000115537
0.00013612
-0.000120435
0.000137668
-0.000124545
0.000139696
-0.000127901
0.000142338
-0.000130569
0.000145715
-0.00013265
0.000149926
-0.000134275
0.000155049
-0.000135606
0.000161132
-0.000136832
0.000168193
0.000176234
-0.000138153
-1.26598e-06
1.80959e-05
-4.60404e-06
4.70285e-05
-9.58639e-06
7.01672e-05
-1.58204e-05
8.84839e-05
-2.29545e-05
0.000102788
-3.06777e-05
0.000113777
-3.8716e-05
0.000122043
-4.6828e-05
0.000128098
-5.48007e-05
0.000132376
-6.24452e-05
0.000135253
-6.95932e-05
0.000137053
-7.60951e-05
0.000138061
-8.18181e-05
0.00013853
-8.6647e-05
0.000138686
-9.04849e-05
0.000138741
-9.32559e-05
0.000138891
-9.49091e-05
0.000139321
-9.54223e-05
0.000140209
-9.48081e-05
0.000141724
-9.31181e-05
0.000144025
-9.04474e-05
0.000147255
-8.69377e-05
0.000151539
-8.27776e-05
0.000156971
-7.81987e-05
0.000163614
0.000171499
-7.34632e-05
-1.14379e-06
1.92397e-05
-4.15844e-06
5.00431e-05
-8.64206e-06
7.46508e-05
-1.42189e-05
9.40608e-05
-2.05485e-05
0.000109118
-2.73261e-05
0.000120554
-3.42799e-05
0.000128997
-4.11671e-05
0.000134985
-4.77698e-05
0.000138979
-5.389e-05
0.000141373
-5.93468e-05
0.00014251
-6.39735e-05
0.000142688
-6.76162e-05
0.000142172
-7.01344e-05
0.000141204
-7.1402e-05
0.000140009
-7.13108e-05
0.000138799
-6.97758e-05
0.000137786
-6.67414e-05
0.000137174
-6.21894e-05
0.000137172
-5.61481e-05
0.000137984
-4.87006e-05
0.000139808
-3.99931e-05
0.000142831
-3.02403e-05
0.000147219
-1.97266e-05
0.0001531
0.000160566
-8.7943e-06
-1.03332e-06
2.02731e-05
-3.7462e-06
5.2756e-05
-7.75539e-06
7.866e-05
-1.26984e-05
9.90038e-05
-1.82444e-05
0.000114664
-2.4095e-05
0.000126405
-2.99824e-05
0.000134885
-3.56647e-05
0.000140668
-4.09214e-05
0.000144236
-4.55492e-05
0.000146001
-4.93575e-05
0.000146318
-5.21656e-05
0.000145496
-5.38014e-05
0.000143808
-5.41002e-05
0.000141503
-5.29068e-05
0.000138815
-5.00791e-05
0.000135972
-4.54935e-05
0.0001332
-3.90538e-05
0.000130735
-3.07019e-05
0.00012882
-2.04311e-05
0.000127713
-8.30109e-06
0.000127678
5.54716e-06
0.000128983
2.08768e-05
0.000131889
3.73455e-05
0.000136632
0.000143402
5.45099e-05
-9.36548e-07
2.12096e-05
-3.37359e-06
5.5193e-05
-6.93811e-06
8.22245e-05
-1.12763e-05
0.000103342
-1.60651e-05
0.000119453
-2.10126e-05
0.000131352
-2.58557e-05
0.000139728
-3.0356e-05
0.000145168
-3.42938e-05
0.000148174
-3.7464e-05
0.000149171
-3.96707e-05
0.000148525
-4.07242e-05
0.00014655
-4.04378e-05
0.000143522
-3.8627e-05
0.000139692
-3.51099e-05
0.000135298
-2.97107e-05
0.000130573
-2.22654e-05
0.000125755
-1.26316e-05
0.000121101
-7.01618e-07
0.00011689
1.35788e-05
0.000113432
3.01893e-05
0.000111067
4.90089e-05
0.000110163
6.97897e-05
0.000111108
9.21306e-05
0.000114291
0.000120066
0.000115467
-8.54195e-07
2.20638e-05
-3.04266e-06
5.73815e-05
-6.19334e-06
8.53752e-05
-9.95593e-06
0.000107105
-1.40122e-05
0.000123509
-1.8076e-05
0.000135416
-2.18902e-05
0.000143542
-2.52211e-05
0.000148499
-2.78533e-05
0.000150806
-2.95838e-05
0.000150902
-3.02166e-05
0.000149158
-2.95581e-05
0.000145891
-2.74136e-05
0.000141377
-2.35846e-05
0.000135863
-1.78685e-05
0.000129582
-1.00599e-05
0.000122764
4.39559e-08
0.000115651
1.26341e-05
0.000108511
2.78744e-05
0.00010165
4.58798e-05
9.54269e-05
6.66868e-05
9.02603e-05
9.02154e-05
8.66348e-05
0.000116225
8.50986e-05
0.000144264
8.62517e-05
9.07006e-05
0.00017363
-7.85759e-07
2.28496e-05
-2.75123e-06
5.9347e-05
-5.51553e-06
8.81395e-05
-8.72575e-06
0.000110315
-1.20651e-05
0.000126848
-1.52514e-05
0.000138602
-1.80329e-05
0.000146324
-2.01824e-05
0.000150648
-2.14907e-05
0.000152114
-2.17604e-05
0.000151171
-2.08e-05
0.000148197
-1.84185e-05
0.00014351
-1.44202e-05
0.000137379
-8.60131e-06
0.000130044
-7.46983e-07
0.000121728
9.36883e-06
0.000112648
2.19807e-05
0.000103039
3.73243e-05
9.31672e-05
5.56214e-05
8.3353e-05
7.70563e-05
7.3992e-05
0.000101739
6.55772e-05
0.000129656
5.87179e-05
0.000160601
5.41535e-05
0.000194093
5.27603e-05
5.55121e-05
0.000229281
-7.2961e-07
2.35792e-05
-2.49322e-06
6.11106e-05
-4.891e-06
9.05373e-05
-7.56062e-06
0.000112984
-1.01821e-05
0.00012947
-1.24745e-05
0.000140895
-1.419e-05
0.000148039
-1.51072e-05
0.000151565
-1.50237e-05
0.000152031
-1.37503e-05
0.000149898
-1.11033e-05
0.000145551
-6.89966e-06
0.000139306
-9.50404e-07
0.00013143
6.94421e-06
0.00012215
1.69993e-05
0.000111673
2.94485e-05
0.000100199
4.45444e-05
8.7943e-05
6.25551e-05
7.51566e-05
8.37523e-05
6.21557e-05
0.00010839
4.93548e-05
0.000136662
3.73047e-05
0.000168645
2.67349e-05
0.000204203
1.85956e-05
0.000242859
1.41046e-05
1.47449e-05
0.000283626
-6.83166e-07
2.42623e-05
-2.25916e-06
6.26866e-05
-4.29892e-06
9.2577e-05
-6.42328e-06
0.000115109
-8.30348e-06
0.00013135
-9.65529e-06
0.000142247
-1.02315e-05
0.000148615
-9.81407e-06
0.000151148
-8.2064e-06
0.000150423
-5.22652e-06
0.000146918
-7.00507e-07
0.000141025
5.54369e-06
0.000133062
1.36822e-05
0.000123291
2.39015e-05
0.000111931
3.64039e-05
9.91703e-05
5.14138e-05
8.5189e-05
6.91817e-05
7.01752e-05
8.99857e-05
5.43526e-05
0.000114127
3.80147e-05
0.000141912
2.15694e-05
0.000173619
5.5978e-06
0.000209428
-9.07373e-06
0.000249309
-2.1286e-05
0.000292844
-2.94303e-05
-3.13559e-05
0.000338945
-6.43112e-07
2.49054e-05
-2.03688e-06
6.40803e-05
-3.7128e-06
9.4253e-05
-5.26678e-06
0.000116663
-6.35448e-06
0.000132438
-6.68259e-06
0.000142575
-5.99919e-06
0.000147932
-4.08477e-06
0.000149234
-7.44208e-07
0.000147082
4.20025e-06
0.000141974
1.09151e-05
0.00013431
1.95611e-05
0.000124416
3.02991e-05
0.000112553
4.3295e-05
9.89346e-05
5.87271e-05
8.37383e-05
7.67922e-05
6.71239e-05
9.7714e-05
4.92534e-05
0.000121749
3.03173e-05
0.000149192
1.05718e-05
0.000180369
-9.60701e-06
0.000215612
-2.96451e-05
0.000255201
-4.86628e-05
0.000299242
-6.53273e-05
0.000347439
-7.76271e-05
-8.25952e-05
0.000398678
-6.05623e-07
2.55111e-05
-1.81228e-06
6.5287e-05
-3.10196e-06
9.55427e-05
-4.03709e-06
0.000117598
-4.25004e-06
0.000132651
-3.43097e-06
0.000141756
-1.31604e-06
0.000145817
2.3229e-06
0.000145595
7.68668e-06
0.000141719
1.49556e-05
0.000134705
2.42945e-05
0.000124971
3.58575e-05
0.000112853
4.97917e-05
9.86189e-05
6.62412e-05
8.24852e-05
8.53519e-05
6.46275e-05
0.000107278
4.51973e-05
0.000132192
2.43397e-05
0.000160292
2.2173e-06
0.000191817
-2.09531e-05
0.000227054
-4.48439e-05
0.000266334
-6.89254e-05
0.000309996
-9.23249e-05
0.000358281
-0.000113612
0.000411081
-0.000130427
-0.000138896
0.000467381
-5.6657e-07
2.60776e-05
-1.56997e-06
6.62904e-05
-2.43297e-06
9.64057e-05
-2.67564e-06
0.000117841
-1.89856e-06
0.000131874
2.33247e-07
0.000139624
4.00448e-06
0.000142046
9.66122e-06
0.000139938
1.74197e-05
0.00013396
2.74726e-05
0.000124652
3.99931e-05
0.00011245
5.51375e-05
9.77082e-05
7.30466e-05
8.07098e-05
9.38469e-05
6.16849e-05
0.000117652
4.08223e-05
0.000144566
1.82832e-05
0.000174689
-5.7835e-06
0.000208128
-3.12218e-05
0.000245013
-5.7838e-05
0.000285518
-8.53487e-05
0.000329882
-0.00011329
0.000378413
-0.000140856
0.000431432
-0.000166631
0.000489058
-0.000188052
-0.000200382
0.000550544
-5.2165e-07
2.65993e-05
-1.29381e-06
6.70626e-05
-1.6707e-06
9.67825e-05
-1.12123e-06
0.000117291
7.94856e-07
0.000129958
4.44702e-06
0.000135972
1.01509e-05
0.000136342
1.81812e-05
0.000131908
2.8781e-05
0.00012336
4.21675e-05
0.000111265
5.85346e-05
9.60832e-05
7.80536e-05
7.81893e-05
0.000100871
5.7892e-05
0.000127108
3.54482e-05
0.000156853
1.10771e-05
0.000190164
-1.5027e-05
0.000227062
-4.26818e-05
0.000267542
-7.17019e-05
0.000311581
-0.000101877
0.000359164
-0.000132932
0.000410328
-0.000164453
0.000465203
-0.000195731
0.000524051
-0.000225479
0.000587172
-0.000251173
-0.00026746
0.00065425
-4.66452e-07
2.70657e-05
-9.67112e-07
6.75632e-05
-7.78987e-07
9.65944e-05
6.88833e-07
0.000115823
3.92642e-06
0.00012672
9.34741e-06
0.000130551
1.73087e-05
0.000128381
2.81249e-05
0.000121091
4.20778e-05
0.000109407
5.94218e-05
9.39214e-05
8.03849e-05
7.512e-05
0.000105168
5.34065e-05
0.000133938
2.91213e-05
0.000166826
2.56022e-06
0.000203914
-2.60101e-05
0.000245225
-5.63382e-05
0.000290718
-8.81749e-05
0.000340277
-0.000121261
0.000393711
-0.000155311
0.000450768
-0.00018999
0.000511176
-0.000224861
0.000574712
-0.000259268
0.000641326
-0.000292093
0.000711258
-0.000321104
-0.000340919
0.000784717
-3.96437e-07
2.74622e-05
-5.72741e-07
6.77395e-05
2.79227e-07
9.57425e-05
2.81827e-06
0.000113284
7.59293e-06
0.000121945
1.50703e-05
0.000123073
2.56585e-05
0.000117792
3.97224e-05
0.000107028
5.75932e-05
9.15365e-05
7.95737e-05
7.1941e-05
0.000105938
4.87559e-05
0.000136928
2.24164e-05
0.000172748
-6.69852e-06
0.000213553
-3.8245e-05
0.000259438
-7.18955e-05
0.000310423
-0.000107322
0.000366429
-0.000144182
0.000427267
-0.000182098
0.000492607
-0.000220651
0.000561968
-0.000259352
0.000634724
-0.000297616
0.000710147
-0.000334691
0.000787552
-0.000369499
0.000866606
-0.000400158
-0.000422496
0.000948183
-3.06878e-07
2.77691e-05
-9.29521e-08
6.75256e-05
1.54202e-06
9.41075e-05
5.33203e-06
0.000109494
1.18919e-05
0.000115385
2.17506e-05
0.000113215
3.53758e-05
0.000104167
5.3191e-05
8.92123e-05
7.5585e-05
6.91425e-05
0.000102916
4.461e-05
0.000135511
1.61611e-05
0.00017366
-1.57332e-05
0.000217612
-5.06503e-05
0.00026756
-8.81925e-05
0.000323629
-0.000127965
0.000385864
-0.000169557
0.000454202
-0.000212519
0.000528448
-0.000256345
0.00060824
-0.000300442
0.000692987
-0.000344099
0.000781812
-0.000386441
0.000873483
-0.000426362
0.000966392
-0.000462408
0.00105888
-0.000492644
-0.000516111
0.00115249
-1.92775e-07
2.79618e-05
4.90747e-07
6.68421e-05
3.04871e-06
9.15495e-05
8.29649e-06
0.000104246
1.69219e-05
0.00010676
2.95224e-05
0.000100614
4.66314e-05
8.70581e-05
6.87361e-05
6.71077e-05
9.62857e-05
4.15929e-05
0.000129695
1.12007e-05
0.000169342
-2.34857e-05
0.000215562
-6.19534e-05
0.000268642
-0.00010373
0.00032881
-0.000148361
0.000396228
-0.000195383
0.000470983
-0.000244312
0.000553078
-0.000294614
0.000642425
-0.000345692
0.00073883
-0.000396847
0.000841962
-0.000447231
0.000951287
-0.000495765
0.0010659
-0.000540975
0.00118399
-0.000580497
0.00130116
-0.000609811
-0.000621185
0.00140623
-4.93227e-08
2.80111e-05
1.19682e-06
6.55959e-05
4.83884e-06
8.79075e-05
1.17783e-05
9.7307e-05
2.27811e-05
9.57572e-05
3.85174e-05
8.48779e-05
5.95895e-05
6.59859e-05
8.65482e-05
4.0149e-05
0.0001199
8.24116e-06
0.000160108
-2.90069e-05
0.000207586
-7.09644e-05
0.000262697
-0.000117064
0.000325739
-0.000166773
0.000396945
-0.000219566
0.000476476
-0.000274915
0.00056443
-0.000332265
0.000660851
-0.000391035
0.000765764
-0.000450605
0.000879234
-0.000510317
0.00100147
-0.00056947
0.00113304
-0.000627333
0.00127519
-0.000683124
0.00143067
-0.000735974
0.00160612
-0.000785269
-0.000832136
0.00181707
1.29931e-07
2.78812e-05
2.0467e-06
6.36791e-05
6.95554e-06
8.29986e-05
1.58474e-05
8.84151e-05
2.95691e-05
8.20355e-05
4.88653e-05
6.55817e-05
7.44057e-05
4.04455e-05
0.000106799
7.7558e-06
0.000146597
-3.15566e-05
0.000194291
-7.67012e-05
0.000250306
-0.00012698
0.000314991
-0.000181748
0.000388607
-0.000240388
0.000471326
-0.000302286
0.000563231
-0.00036682
0.000664321
-0.000433355
0.000774532
-0.000501247
0.000893777
-0.00056985
0.001022
-0.000638538
0.00115926
-0.000706733
0.00130588
-0.000773948
0.00146259
-0.00083984
0.00163087
-0.000904248
0.0018128
-0.000967205
-0.00102618
0.00200684
3.50254e-07
2.7531e-05
3.05966e-06
6.09697e-05
9.43877e-06
7.66195e-05
2.0569e-05
7.72849e-05
3.73783e-05
6.52262e-05
6.06835e-05
4.22765e-05
9.12148e-05
9.91431e-06
0.000129626
-3.0655e-05
0.000176492
-7.84228e-05
0.000232303
-0.000132513
0.000297452
-0.000192128
0.000372218
-0.000256515
0.000456761
-0.000324932
0.000551112
-0.000396637
0.000655173
-0.000470881
0.000768728
-0.00054691
0.000891463
-0.000623981
0.00102299
-0.000701377
0.00116289
-0.000778438
0.00131075
-0.000854595
0.00146622
-0.000929415
0.00162902
-0.00100264
0.00179892
-0.00107415
0.00197546
-0.00114374
-0.00120718
0.00215646
6.17428e-07
2.69135e-05
4.25537e-06
5.73318e-05
1.23277e-05
6.85472e-05
2.60047e-05
6.36079e-05
4.62922e-05
4.49387e-05
7.40718e-05
1.44968e-05
0.000110121
-2.61347e-05
0.000155116
-7.56499e-05
0.000209625
-0.000132932
0.000274092
-0.00019698
0.000348821
-0.000266858
0.00043396
-0.000341653
0.000529485
-0.000420457
0.000635199
-0.000502351
0.000750733
-0.000586415
0.000875559
-0.000671737
0.00100901
-0.000757432
0.00115031
-0.000842675
0.00129859
-0.00092672
0.00145294
-0.00100894
0.00161239
-0.00108887
0.00177593
-0.00116617
0.00194245
-0.00124067
0.00211066
-0.00131195
-0.00137562
0.0022791
9.37011e-07
2.59765e-05
5.65216e-06
5.26167e-05
1.56576e-05
5.85418e-05
3.22075e-05
4.7058e-05
5.63779e-05
2.07683e-05
8.91019e-05
-1.82272e-05
0.000131182
-6.82148e-05
0.000183286
-0.000127754
0.00024593
-0.000195575
0.000319457
-0.000270507
0.000404017
-0.000351418
0.000499547
-0.000437183
0.000605762
-0.000526671
0.000722154
-0.000618743
0.000848005
-0.000712266
0.00098241
-0.000806141
0.0011243
-0.000899326
0.0012725
-0.00099087
0.00142572
-0.00107994
0.00158264
-0.00116586
0.00174187
-0.0012481
0.00190202
-0.00132632
0.00206162
-0.00140028
0.00221924
-0.00146957
-0.00153033
0.00237394
1.31409e-06
2.46624e-05
7.26613e-06
4.66646e-05
1.94579e-05
4.635e-05
3.92184e-05
2.72975e-05
6.768e-05
-7.69335e-06
0.000105806
-5.63535e-05
0.000154394
-0.000116803
0.000214059
-0.000187418
0.000285209
-0.000266725
0.00036802
-0.000353319
0.000462411
-0.000445809
0.000568029
-0.000542801
0.000684248
-0.000642891
0.000810185
-0.000744679
0.000944721
-0.000846803
0.00108655
-0.000947967
0.00123421
-0.00104699
0.00138616
-0.00114282
0.0015408
-0.00123458
0.00169654
-0.0013216
0.00185182
-0.00140338
0.00200512
-0.00147962
0.00215501
-0.00155016
0.00230019
-0.00161475
-0.00167036
0.00244022
1.75308e-06
2.29094e-05
9.11023e-06
3.93075e-05
2.375e-05
3.17102e-05
4.70615e-05
3.98606e-06
8.02133e-05
-4.08451e-05
0.000124169
-0.000100309
0.000179678
-0.000172311
0.000247247
-0.000254987
0.00032711
-0.000346589
0.000419199
-0.000445407
0.000523121
-0.000549731
0.000638157
-0.000657838
0.000763278
-0.000768012
0.000897177
-0.000878578
0.00103832
-0.000987947
0.00118502
-0.00109466
0.00133547
-0.00119744
0.00148788
-0.00129523
0.00164048
-0.00138718
0.00179157
-0.0014727
0.00193963
-0.00155144
0.00208326
-0.00162325
0.00222125
-0.00168816
0.00235266
-0.00174616
-0.00179512
0.00247742
2.25749e-06
2.06519e-05
1.11935e-05
3.03715e-05
2.85453e-05
1.43584e-05
5.57412e-05
-2.32098e-05
9.39571e-05
-7.90611e-05
0.000144117
-0.000150469
0.000206867
-0.000235061
0.00028254
-0.00033066
0.000371118
-0.000435167
0.000472206
-0.000546495
0.000585024
-0.000662548
0.000708422
-0.000781236
0.000840924
-0.000900514
0.000980791
-0.00101845
0.0011261
-0.00113326
0.00127484
-0.0012434
0.00142499
-0.0013476
0.00157462
-0.00144486
0.00172194
-0.0015345
0.00186537
-0.00161613
0.00200355
-0.00168963
0.00213541
-0.0017551
0.00226009
-0.00181284
0.00237708
-0.00186314
-0.00190472
0.00248668
2.82984e-06
1.7822e-05
1.35204e-05
1.96809e-05
3.38436e-05
-5.96488e-06
6.5239e-05
-5.46052e-05
0.000108851
-0.000122673
0.000165512
-0.00020713
0.000235701
-0.00030525
0.000319498
-0.000414457
0.000416551
-0.00053222
0.000526059
-0.000656003
0.000646785
-0.000783275
0.000777109
-0.000911559
0.000915099
-0.0010385
0.00105861
-0.00116196
0.00120541
-0.00128006
0.00135327
-0.00139126
0.00150009
-0.00149441
0.00164395
-0.00158872
0.00178323
-0.00167377
0.00191658
-0.00174948
0.00204301
-0.00181605
0.00216181
-0.0018739
0.00227257
-0.00192361
0.00237522
-0.00196578
-0.00199986
0.00247036
3.47148e-06
1.43505e-05
1.60902e-05
7.06225e-06
3.96322e-05
-2.95069e-05
7.5511e-05
-9.0484e-05
0.000124792
-0.000171954
0.000188151
-0.00027049
0.000265825
-0.000382923
0.000357558
-0.00050619
0.00046258
-0.000637242
0.000579612
-0.000773035
0.000706919
-0.000910582
0.000842397
-0.00104704
0.000983691
-0.0011798
0.00112833
-0.0013066
0.00127388
-0.0014256
0.00141803
-0.00153541
0.00155875
-0.00163513
0.00169433
-0.0017243
0.00182342
-0.00180286
0.00194506
-0.00187112
0.00205864
-0.00192964
0.00216392
-0.00197918
0.00226092
-0.00202061
0.00234993
-0.00205479
-0.00208175
0.00243182
4.1825e-06
1.0168e-05
1.88965e-05
-7.65173e-06
4.5884e-05
-5.64944e-05
8.64865e-05
-0.000131087
0.00014163
-0.000227098
0.000211763
-0.000340622
0.000296792
-0.000467953
0.000396042
-0.00060544
0.000508249
-0.000749448
0.000631607
-0.000896393
0.000763866
-0.00104284
0.000902469
-0.00118564
0.00104471
-0.00132204
0.00118792
-0.0014498
0.00132957
-0.00156726
0.00146748
-0.00167332
0.00159982
-0.00176747
0.0017252
-0.00184968
0.00184268
-0.00192034
0.00195172
-0.00198017
0.00205218
-0.0020301
0.0021442
-0.0020712
0.00222818
-0.00210459
0.00230473
-0.00213134
-0.00215189
0.00237487
4.9616e-06
5.20643e-06
2.19269e-05
-2.4617e-05
5.25572e-05
-8.71247e-05
9.80662e-05
-0.000176596
0.000159171
-0.000288202
0.000236008
-0.00041746
0.000328071
-0.000560015
0.00043418
-0.000711549
0.00055252
-0.000867789
0.000680736
-0.00102461
0.000816087
-0.00117819
0.000955634
-0.00132519
0.00109644
-0.00146285
0.00123576
-0.00158913
0.00137119
-0.00170269
0.00150076
-0.00180289
0.001623
-0.00188971
0.00173695
-0.00196363
0.00184212
-0.00202551
0.00193842
-0.00207646
0.0020261
-0.00211778
0.00210566
-0.00215076
0.0021778
-0.00217673
0.00224331
-0.00219685
-0.00221188
0.00230329
5.80593e-06
-5.99504e-07
2.51622e-05
-4.39733e-05
5.95946e-05
-0.000121557
0.000110123
-0.000227124
0.000177176
-0.000355255
0.000260492
-0.000500776
0.000359062
-0.000658586
0.000471138
-0.000823625
0.00059432
-0.00099097
0.000725716
-0.00115601
0.000862159
-0.00131464
0.00100044
-0.00146347
0.00113754
-0.00159995
0.0012708
-0.00172239
0.00139807
-0.00182995
0.00151775
-0.00192257
0.00162881
-0.00200078
0.00173077
-0.00206558
0.00182357
-0.00211831
0.00190755
-0.00216044
0.00198329
-0.00219352
0.00205157
-0.00221904
0.00211323
-0.0022384
0.00216921
-0.00225283
-0.00226325
0.00222058
6.71096e-06
-7.31047e-06
2.85766e-05
-6.58389e-05
6.6923e-05
-0.000159903
0.000122502
-0.000282702
0.000195366
-0.000428119
0.000284767
-0.000590177
0.000389119
-0.000762937
0.000506056
-0.000940563
0.000632595
-0.00111751
0.00076536
-0.00128877
0.000900863
-0.00145014
0.00103577
-0.00159838
0.00116713
-0.00173131
0.00129254
-0.0018478
0.00141022
-0.00194763
0.00151903
-0.00203138
0.00161844
-0.00210018
0.00170841
-0.00215556
0.00178932
-0.00219922
0.00186182
-0.00223294
0.00192676
-0.00225845
0.00198506
-0.00227734
0.00203769
-0.00229102
0.00208556
-0.00230071
-0.00230738
0.0021297
7.67032e-06
-1.49808e-05
3.2137e-05
-9.03056e-05
7.4454e-05
-0.00020222
0.000135022
-0.00034327
0.000213429
-0.000506527
0.000308355
-0.000685103
0.000417575
-0.000872157
0.000538091
-0.00106108
0.000666371
-0.00124579
0.000798651
-0.00142105
0.000931259
-0.00158275
0.00106089
-0.00172801
0.00118483
-0.00185525
0.00130104
-0.00196401
0.00140823
-0.00205481
0.00150574
-0.0021289
0.00159354
-0.00218798
0.001672
-0.00223401
0.00174183
-0.00226905
0.00180394
-0.00229506
0.00185933
-0.00231384
0.001909
-0.00232701
0.00195391
-0.00233593
0.00199497
-0.00234176
-0.00234546
0.00203304
8.67571e-06
-2.36565e-05
3.58031e-05
-0.000117433
8.20843e-05
-0.000248502
0.00014748
-0.000408666
0.000231027
-0.000590073
0.000330757
-0.000784833
0.000443771
-0.000985171
0.000566455
-0.00118376
0.000694806
-0.00137414
0.000824796
-0.00155104
0.000952725
-0.00171068
0.00107548
-0.00185077
0.00119071
-0.00197048
0.00129685
-0.00207015
0.00139312
-0.00215108
0.00147938
-0.00221516
0.00155601
-0.0022646
0.00162373
-0.00230174
0.00168352
-0.00232884
0.00173643
-0.00234796
0.00178352
-0.00236093
0.0018258
-0.00236929
0.00186419
-0.00237432
0.0018995
-0.00237707
-0.00237843
0.00193247
9.71684e-06
-3.33733e-05
3.95281e-05
-0.000147244
8.96984e-05
-0.000298672
0.000159659
-0.000478627
0.000247808
-0.000678222
0.000351478
-0.000888502
0.000467087
-0.00110078
0.00059046
-0.00130714
0.000717231
-0.00150091
0.00084326
-0.00167707
0.000964976
-0.00183239
0.0010796
-0.0019654
0.00118525
-0.00207612
0.00128089
-0.0021658
0.00136626
-0.00223645
0.00144166
-0.00229056
0.00150784
-0.00233078
0.0015658
-0.0023597
0.00161665
-0.00237969
0.00166152
-0.00239283
0.00170147
-0.00240088
0.00173746
-0.00240528
0.00177031
-0.00240718
0.00180075
-0.0024075
-0.00240705
0.00182936
1.07815e-05
-4.41549e-05
4.3259e-05
-0.000179722
9.71703e-05
-0.000352583
0.000171328
-0.000552784
0.000263421
-0.000770316
0.000370048
-0.00099513
0.000486975
-0.00121771
0.000609549
-0.00142971
0.000733182
-0.00162454
0.000853779
-0.00179767
0.000968047
-0.00194666
0.00107366
-0.00207101
0.00116926
-0.00217172
0.00125435
-0.00225089
0.00132914
-0.00231124
0.00139434
-0.00235576
0.00145097
-0.00238741
0.00150018
-0.00240892
0.00154318
-0.00242269
0.00158109
-0.00243074
0.00161491
-0.0024347
0.00164552
-0.00243589
0.00167365
-0.00243531
0.00169988
-0.00243374
-0.00243188
0.00172471
1.18558e-05
-5.60107e-05
4.6938e-05
-0.000214804
0.000104367
-0.000410013
0.000182255
-0.000630672
0.000277527
-0.000865587
0.000386044
-0.00110365
0.000502977
-0.00133464
0.000623319
-0.00155005
0.000742408
-0.00174363
0.000856349
-0.00191161
0.000962255
-0.00205257
0.00105832
-0.00216708
0.00114374
-0.00225714
0.00121854
-0.00232568
0.00128333
-0.00237603
0.00133913
-0.00241156
0.00138715
-0.00243543
0.00142864
-0.0024504
0.00146479
-0.00245884
0.00149667
-0.00246262
0.00152522
-0.00246325
0.00155119
-0.00246187
0.00157521
-0.00245933
0.00159776
-0.00245629
-0.00245334
0.00161922
1.29243e-05
-6.8935e-05
5.05038e-05
-0.000252383
0.000111155
-0.000470664
0.000192216
-0.000711732
0.000289814
-0.000963186
0.000399103
-0.00121294
0.00051475
-0.00145029
0.000631531
-0.00166683
0.000744868
-0.00185697
0.000851201
-0.00201794
0.000948142
-0.00214951
0.00103445
-0.00225338
0.00110985
-0.00233255
0.00117483
-0.00239066
0.00123034
-0.00243154
0.00127761
-0.00245883
0.00131795
-0.00247577
0.00135264
-0.00248509
0.00138282
-0.00248901
0.00140948
-0.00248928
0.00143344
-0.00248721
0.00145535
-0.00248378
0.00147574
-0.00247971
0.00149498
-0.00247554
-0.00247173
0.00151338
1.39703e-05
-8.29053e-05
5.38932e-05
-0.000292306
0.0001174
-0.000534171
0.000200998
-0.00079533
0.000300012
-0.0010622
0.000408943
-0.00132187
0.000522072
-0.00156342
0.00063411
-0.00177887
0.00074071
-0.00196357
0.000838756
-0.00211599
0.000926418
-0.00223717
0.00100301
-0.00232998
0.00106877
-0.00239831
0.00112455
-0.00244644
0.00117156
-0.00247855
0.00121116
-0.00249844
0.0012447
-0.00250931
0.00127342
-0.00251381
0.00129837
-0.00251397
0.00132045
-0.00251136
0.00134036
-0.00250712
0.00135866
-0.00250207
0.00137575
-0.00249681
0.00139196
-0.00249175
-0.00248726
0.0014075
1.49766e-05
-9.78819e-05
5.70434e-05
-0.000334373
0.000122976
-0.000600103
0.000208413
-0.000880767
0.000307897
-0.00116168
0.000415364
-0.00142933
0.000524846
-0.0016729
0.000631135
-0.00188516
0.000730244
-0.00206268
0.000819581
-0.00220532
0.000897893
-0.00231548
0.000965036
-0.00239712
0.00102167
-0.00245494
0.00106894
-0.00249371
0.00110823
-0.00251785
0.00114098
-0.00253118
0.0011685
-0.00253683
0.00119195
-0.00253726
0.00121229
-0.00253431
0.0012303
-0.00252937
0.00124658
-0.0025234
0.00126158
-0.00251707
0.00127564
-0.00251087
0.001289
-0.00250511
-0.00250008
0.00130181
1.59254e-05
-0.000113807
5.98936e-05
-0.000378341
0.000127766
-0.000667976
0.000214301
-0.000967302
0.000313304
-0.00126069
0.000418259
-0.00153429
0.00052309
-0.00177773
0.000622815
-0.00198489
0.000713903
-0.00215377
0.000794337
-0.00228576
0.00086343
-0.00238458
0.00092152
-0.00245521
0.00096962
-0.00250304
0.0010091
-0.00253319
0.00104144
-0.00255019
0.00106806
-0.00255781
0.00109023
-0.002559
0.001109
-0.00255602
0.00112522
-0.00255053
0.00113956
-0.0025437
0.00115251
-0.00253635
0.00116445
-0.00252901
0.00117564
-0.00252207
0.00118629
-0.00251575
-0.00251027
0.00119648
1.67996e-05
-0.000130607
6.2387e-05
-0.000423929