/*--------------------------------*- C++ -*----------------------------------*\
  =========                 |
  \\      /  F ield         | OpenFOAM: The Open Source CFD Toolbox
   \\    /   O peration     | Website:  https://openfoam.org
    \\  /    A nd           | Version:  6.0
     \\/     M anipulation  |
\*---------------------------------------------------------------------------*/
FoamFile
{
    version     2.0;
    format      ascii;
    class       volVectorField;
    location    "11";
    object      U;
}
// * * * * * * * * * * * * * * * * * * * * * * * * * * * * * * * * * * * * * //

dimensions      [0 1 -1 0 0 0 0];

internalField   nonuniform List<vector> 
12500
(
(-0.000457143 0.00057726 -6.45397e-22)
(-0.00258937 0.00146574 8.90305e-21)
(-0.00664963 0.00213894 -1.29021e-20)
(-0.0118134 0.0026484 5.91964e-21)
(-0.017657 0.00303053 3.55542e-22)
(-0.0239344 0.00331367 -7.27555e-22)
(-0.0304557 0.00352113 -1.07458e-20)
(-0.0370841 0.00367213 5.89359e-21)
(-0.0437276 0.00378248 3.89344e-21)
(-0.0503277 0.00386534 3.95071e-21)
(-0.0568509 0.00393161 -6.68614e-21)
(-0.063283 0.00399036 3.88576e-21)
(-0.069624 0.00404902 -1.82951e-21)
(-0.0758846 0.0041137 3.09945e-21)
(-0.082083 0.00418927 -7.90617e-21)
(-0.0882429 0.00427951 1.1423e-20)
(-0.0943908 0.00438726 -2.17125e-21)
(-0.100555 0.00451441 -8.0733e-21)
(-0.106764 0.00466208 4.1345e-21)
(-0.113045 0.00483059 -3.95056e-21)
(-0.11943 0.0050195 3.53473e-21)
(-0.125948 0.00522773 4.67942e-21)
(-0.132569 0.00545441 4.85366e-22)
(-0.139203 0.00569942 -1.3395e-20)
(-0.146229 0.00595612 7.12683e-21)
(-0.000519911 0.00164911 1.1779e-20)
(-0.00273238 0.00418302 -3.04e-20)
(-0.00682625 0.00609784 8.95841e-21)
(-0.0119924 0.00754294 5.98317e-21)
(-0.017815 0.00862344 -4.7616e-21)
(-0.0240526 0.00942086 -2.70477e-20)
(-0.0305186 0.0100021 8.02997e-21)
(-0.0370787 0.0104222 -1.51641e-20)
(-0.0436422 0.0107264 1.81223e-20)
(-0.0501516 0.0109523 -2.41657e-20)
(-0.0565741 0.0111312 1.28977e-20)
(-0.0628959 0.011289 4.16943e-21)
(-0.0691171 0.0114472 -1.04878e-20)
(-0.0752487 0.0116234 -4.64217e-21)
(-0.0813091 0.011832 3.3876e-20)
(-0.087322 0.0120839 -2.99686e-20)
(-0.0933145 0.0123877 7.15217e-21)
(-0.0993151 0.0127492 1.23824e-20)
(-0.105352 0.0131719 -2.84486e-21)
(-0.111455 0.0136568 1.99755e-20)
(-0.117655 0.0142031 3.66534e-21)
(-0.123981 0.0148078 -1.25878e-21)
(-0.130406 0.0154685 -2.52167e-20)
(-0.136836 0.0161853 2.32923e-20)
(-0.143654 0.0169383 -4.47053e-20)
(-0.000642839 0.0026954 3.77892e-20)
(-0.00301314 0.00684024 1.25622e-20)
(-0.00717405 0.00997387 -1.64552e-20)
(-0.012346 0.0123387 7.06648e-21)
(-0.0181285 0.0141059 6.60362e-21)
(-0.0242891 0.0154083 2.505e-20)
(-0.0306475 0.0163553 -3.17876e-20)
(-0.0370738 0.0170367 -5.16708e-21)
(-0.0434805 0.0175268 -2.1251e-20)
(-0.0498119 0.017887 -1.77339e-20)
(-0.0560366 0.0181688 2.28732e-20)
(-0.0621413 0.0184149 -7.65132e-20)
(-0.0681268 0.0186609 -2.40357e-21)
(-0.0740043 0.018936 -4.58855e-20)
(-0.0797926 0.0192639 -5.42236e-21)
(-0.0855156 0.0196637 6.49447e-21)
(-0.0912011 0.0201494 -3.55933e-20)
(-0.0968784 0.0207313 -2.22739e-20)
(-0.102577 0.0214155 -2.63747e-20)
(-0.108326 0.0222046 4.12954e-20)
(-0.11416 0.0230972 1.51584e-20)
(-0.12011 0.0240887 -6.71449e-20)
(-0.126147 0.0251755 -3.24212e-20)
(-0.132176 0.0263583 -3.63288e-20)
(-0.138584 0.0276034 9.84783e-20)
(-0.000822876 0.00370061 -1.15663e-21)
(-0.00342588 0.00940061 -2.90357e-20)
(-0.00768769 0.0137159 -1.39614e-20)
(-0.012871 0.0169744 8.63503e-21)
(-0.0185973 0.0194089 5.37462e-20)
(-0.0246469 0.0212009 -2.42249e-20)
(-0.0308492 0.0225001 5.16043e-20)
(-0.0370806 0.0234299 4.91189e-20)
(-0.0432582 0.0240923 2.98765e-20)
(-0.0493291 0.0245724 -4.57977e-22)
(-0.0552636 0.0249411 6.01486e-20)
(-0.0610498 0.0252577 1.04076e-20)
(-0.066689 0.0255718 4.58501e-20)
(-0.0721929 0.0259245 1.05408e-19)
(-0.0775806 0.0263494 -1.22222e-19)
(-0.0828769 0.0268734 1.83736e-19)
(-0.0881101 0.0275173 4.00469e-20)
(-0.0933107 0.0282962 -8.81595e-20)
(-0.0985098 0.0292196 -1.25585e-20)
(-0.103738 0.0302919 3.20426e-20)
(-0.109033 0.0315121 -1.61157e-20)
(-0.114427 0.0328743 -9.69745e-21)
(-0.119894 0.0343743 -9.46521e-21)
(-0.125333 0.0360137 -3.79979e-20)
(-0.131138 0.0377443 1.33794e-19)
(-0.00105572 0.00465106 1.9715e-20)
(-0.00396245 0.0118312 -9.15438e-20)
(-0.00835952 0.0172776 1.10996e-19)
(-0.0135624 0.0213938 -4.41656e-20)
(-0.0192204 0.0244687 5.28459e-20)
(-0.0251302 0.0267286 4.31089e-20)
(-0.0311333 0.0283611 1.6362e-20)
(-0.0371147 0.0295212 8.14061e-22)
(-0.0429971 0.0303374 9.19561e-20)
(-0.0487317 0.0309171 6.3632e-20)
(-0.0542911 0.0313504 -2.55017e-20)
(-0.0596648 0.0317128 -1.64528e-20)
(-0.0648551 0.0320677 6.91697e-20)
(-0.0698741 0.0324683 1.30086e-20)
(-0.0747416 0.0329584 3.53517e-20)
(-0.0794829 0.0335737 8.46915e-20)
(-0.0841274 0.034342 -7.31336e-20)
(-0.0887072 0.0352844 5.90792e-20)
(-0.0932552 0.0364148 -1.27358e-19)
(-0.0978051 0.0377405 1.07114e-19)
(-0.102396 0.0392616 7.32276e-22)
(-0.107066 0.0409718 -8.55589e-20)
(-0.111792 0.0428667 3.43923e-20)
(-0.116465 0.04495 7.83699e-20)
(-0.121489 0.047158 -1.16202e-19)
(-0.00133613 0.00553542 1.02031e-19)
(-0.00461278 0.0141041 -1.08348e-19)
(-0.00917998 0.0206188 -1.74025e-20)
(-0.014414 0.0255476 2.19888e-20)
(-0.0199964 0.0292286 -4.74342e-20)
(-0.0257435 0.0319288 -7.3928e-20)
(-0.0315111 0.0338704 -6.14774e-20)
(-0.0371947 0.0352375 -1.48233e-20)
(-0.042724 0.0361838 -1.05729e-19)
(-0.0480549 0.0368376 8.42223e-20)
(-0.0531632 0.0373072 -1.30768e-19)
(-0.05804 0.037684 6.60939e-20)
(-0.0626889 0.038045 -2.1942e-20)
(-0.0671224 0.0384555 5.0844e-20)
(-0.0713609 0.0389699 -1.27861e-19)
(-0.0754305 0.0396334 6.20007e-20)
(-0.0793616 0.0404821 4.63988e-21)
(-0.0831882 0.041544 2.749e-20)
(-0.0869456 0.0428387 1.66396e-19)
(-0.0906706 0.0443781 3.69973e-20)
(-0.0944066 0.0461646 -3.25356e-21)
(-0.0981978 0.0481927 1.05687e-20)
(-0.102024 0.0504587 6.96183e-20)
(-0.105772 0.0529701 1.98763e-20)
(-0.109856 0.0556465 6.57488e-20)
(-0.00165825 0.00634517 -6.35645e-20)
(-0.00536549 0.0161974 9.02765e-20)
(-0.010138 0.023707 5.66733e-21)
(-0.0154181 0.0293946 -1.10205e-19)
(-0.0209231 0.0336405 2.31724e-19)
(-0.0264909 0.0367475 -7.48945e-20)
(-0.0319942 0.0389687 1.09327e-19)
(-0.0373403 0.0405151 1.00039e-19)
(-0.0424674 0.0415629 -8.27305e-20)
(-0.0473371 0.0422604 -1.20483e-19)
(-0.0519288 0.0427328 3.29652e-20)
(-0.0562357 0.0430864 -3.47642e-20)
(-0.0602625 0.0434117 -1.53923e-19)
(-0.0640225 0.043786 1.87082e-19)
(-0.0675365 0.0442748 -8.97661e-20)
(-0.070831 0.0449335 -6.1952e-20)
(-0.073938 0.0458077 5.50807e-22)
(-0.076893 0.0469337 5.06451e-20)
(-0.0797344 0.0483388 2.09435e-20)
(-0.0825032 0.0500409 -8.19252e-20)
(-0.0852476 0.0520473 9.37145e-20)
(-0.0880195 0.0543546 -1.62964e-19)
(-0.0908052 0.0569618 9.95562e-20)
(-0.0934861 0.059882 -7.65394e-20)
(-0.0964881 0.0630176 1.98083e-20)
(-0.00201599 0.00707473 9.26788e-20)
(-0.00620844 0.0180955 -7.12693e-20)
(-0.0112215 0.0265178 -4.53243e-20)
(-0.0165658 0.0329028 -8.00175e-20)
(-0.0219964 0.0376659 -1.4625e-19)
(-0.0273751 0.0411406 -1.0805e-19)
(-0.0325927 0.0436073 6.73617e-20)
(-0.0375703 0.0453007 -1.02039e-19)
(-0.0422556 0.0464176 1.29517e-19)
(-0.0466168 0.0471241 -2.10818e-19)
(-0.0506374 0.047561 9.36818e-20)
(-0.0543135 0.0478487 1.97969e-19)
(-0.0576508 0.0480904 -2.78224e-19)
(-0.0606632 0.0483752 3.97264e-20)
(-0.0633718 0.0487801 5.17838e-20)
(-0.0658035 0.0493712 5.0132e-20)
(-0.0679911 0.0502047 -5.37401e-20)
(-0.0699723 0.0513274 -1.31544e-20)
(-0.0717886 0.0527761 -3.95075e-20)
(-0.0734854 0.0545776 -3.30279e-20)
(-0.0751177 0.0567464 -1.81655e-19)
(-0.0767461 0.0592841 -1.23371e-20)
(-0.0783661 0.062195 2.01468e-21)
(-0.079857 0.0655004 -8.24813e-20)
(-0.0816594 0.0690858 8.52473e-20)
(-0.0024034 0.00772153 2.7097e-21)
(-0.00712938 0.0197892 2.91463e-20)
(-0.0124175 0.0290352 3.03684e-20)
(-0.0178467 0.0360496 1.75873e-20)
(-0.0232105 0.0412763 1.48907e-19)
(-0.0283958 0.0450747 1.39875e-19)
(-0.0333135 0.0477485 -1.13667e-19)
(-0.0378994 0.0495531 -3.46183e-20)
(-0.0421122 0.0507034 -3.074e-20)
(-0.0459276 0.0513812 1.58617e-19)
(-0.0493341 0.0517412 5.70029e-20)
(-0.0523306 0.0519165 -8.29044e-20)
(-0.0549243 0.052022 -7.02696e-20)
(-0.0571296 0.0521581 1.69314e-19)
(-0.0589674 0.0524131 -4.17206e-20)
(-0.0604648 0.0528646 -5.06323e-20)
(-0.061655 0.0535806 -7.07669e-20)
(-0.0625773 0.0546199 -5.51145e-20)
(-0.0632765 0.0560318 -7.04637e-20)
(-0.063803 0.0578548 -4.61894e-20)
(-0.0642193 0.0601143 1.91878e-19)
(-0.0645969 0.0628208 -9.45323e-20)
(-0.0649435 0.0659879 6.37034e-20)
(-0.0651407 0.069649 -1.69967e-19)
(-0.0656474 0.073674 6.84809e-20)
(-0.00281496 0.00828579 -8.33311e-20)
(-0.00811643 0.0212758 -2.17183e-20)
(-0.0137129 0.0312511 -1.69469e-19)
(-0.0192489 0.0388218 -8.12008e-20)
(-0.0245565 0.0444535 -1.60222e-19)
(-0.0295489 0.0485273 -1.67099e-20)
(-0.0341578 0.0513664 8.58574e-20)
(-0.0383355 0.0532439 -5.23145e-20)
(-0.0420527 0.0543899 1.12746e-19)
(-0.0452936 0.0549997 -2.73989e-19)
(-0.0480527 0.05524 -7.98705e-21)
(-0.0503321 0.0552545 4.85862e-20)
(-0.0521407 0.0551687 -6.1646e-20)
(-0.0534932 0.0550932 5.61908e-20)
(-0.0544102 0.0551271 -4.28961e-20)
(-0.054918 0.0553595 -9.20683e-20)
(-0.0550498 0.0558713 1.68113e-19)
(-0.0548459 0.0567349 1.04402e-19)
(-0.0543537 0.0580148 -2.15436e-20)
(-0.0536291 0.0597652 6.9056e-20)
(-0.0527426 0.062027 -1.36219e-19)
(-0.0517787 0.064825 1.96713e-19)
(-0.0507606 0.0681873 -2.6879e-19)
(-0.0495788 0.0721657 5.53811e-20)
(-0.0487161 0.0766178 -1.05625e-19)
(-0.00324584 0.00877018 4.52595e-21)
(-0.00915841 0.0225578 -7.42558e-20)
(-0.0150939 0.0331653 1.09814e-19)
(-0.0207585 0.0412148 2.2511e-19)
(-0.0260219 0.0471891 -3.71906e-21)
(-0.0308239 0.0514865 2.54809e-20)
(-0.0351186 0.0544468 -9.62982e-20)
(-0.0388757 0.0563574 4.50597e-20)
(-0.0420794 0.0574612 3.10797e-19)
(-0.0447235 0.0579641 -7.05083e-20)
(-0.0468092 0.0580427 -8.33539e-20)
(-0.0483428 0.0578492 3.14978e-19)
(-0.049335 0.0575175 1.02955e-19)
(-0.0498009 0.0571671 4.90621e-20)
(-0.0497601 0.0569064 5.01963e-20)
(-0.0492379 0.0568359 1.36788e-19)
(-0.0482662 0.0570492 -5.26783e-20)
(-0.0468853 0.0576343 1.39143e-19)
(-0.0451445 0.058673 1.88534e-19)
(-0.0431045 0.0602397 -1.61008e-19)
(-0.0408447 0.0623963 2.39477e-19)
(-0.0384639 0.0651887 8.57013e-20)
(-0.036005 0.0686678 -3.25154e-19)
(-0.033375 0.0729123 4.70677e-19)
(-0.0310907 0.0777734 -3.81308e-19)
(-0.00369203 0.00917933 -2.12605e-19)
(-0.0102451 0.0236425 1.15696e-19)
(-0.0165467 0.0347834 -7.76298e-20)
(-0.0223592 0.0432316 -7.36915e-20)
(-0.027589 0.0494829 -7.95441e-20)
(-0.032203 0.0539502 -8.6269e-20)
(-0.0361781 0.0569863 2.3657e-20)
(-0.0395031 0.0588904 2.24926e-19)
(-0.0421769 0.0599154 -4.81441e-20)
(-0.0442043 0.0602755 -1.25469e-19)
(-0.0455941 0.0601542 -7.66407e-20)
(-0.0463577 0.0597099 -3.13706e-20)
(-0.0465082 0.0590825 9.28308e-20)
(-0.0460611 0.0583978 -5.92752e-20)
(-0.0450351 0.0577721 -1.93685e-19)
(-0.0434532 0.0573151 -2.13899e-19)
(-0.0413454 0.0571332 8.52826e-20)
(-0.0387504 0.05733 -1.5897e-19)
(-0.0357181 0.0580071 1.38211e-19)
(-0.0323132 0.0592627 -3.90376e-19)
(-0.0286235 0.0611862 3.00334e-19)
(-0.0247636 0.0638535 -3.97653e-19)
(-0.0207998 0.0673488 -7.67135e-21)
(-0.0166662 0.0717901 -1.34587e-19)
(-0.0129273 0.0770326 3.93816e-19)
(-0.0041504 0.00951922 3.26246e-19)
(-0.011367 0.0245403 4.77717e-20)
(-0.0180565 0.0361163 -3.13925e-20)
(-0.0240319 0.0448813 -1.32279e-20)
(-0.0292346 0.0513425 2.46104e-19)
(-0.0336586 0.0559244 8.00266e-20)
(-0.0373052 0.058991 7.25572e-20)
(-0.0401832 0.0608508 -5.83228e-20)
(-0.0423075 0.061764 2.24942e-19)
(-0.0436953 0.0619506 -1.10651e-19)
(-0.0443645 0.0615983 7.13569e-20)
(-0.0443324 0.0608691 1.81599e-19)
(-0.0436154 0.0599057 -1.03064e-19)
(-0.0422301 0.0588375 1.11598e-19)
(-0.0401938 0.0577855 1.05419e-19)
(-0.0375272 0.0568666 3.61088e-20)
(-0.034257 0.0561972 -8.91616e-20)
(-0.0304189 0.0558962 2.46356e-19)
(-0.0260618 0.0560857 -2.30016e-20)
(-0.0212523 0.0568909 -2.66974e-20)
(-0.0160862 0.0584351 2.95831e-19)
(-0.0106942 0.0608338 -2.10901e-19)
(-0.00517018 0.0642189 3.55432e-19)
(0.000513468 0.068764 -2.95458e-19)
(0.00572363 0.0743453 3.78528e-19)
(-0.00461863 0.00979653 -1.57689e-19)
(-0.0125156 0.0252638 3.4873e-20)
(-0.0196078 0.0371778 -3.63922e-20)
(-0.0257536 0.0461773 -1.72021e-19)
(-0.0309278 0.0527802 9.9985e-21)
(-0.0351522 0.0574216 9.78641e-20)
(-0.038453 0.0604748 -3.98036e-19)
(-0.0408604 0.0622555 2.97089e-19)
(-0.0424064 0.0630294 -2.89204e-19)
(-0.0431224 0.0630197 -1.82458e-19)
(-0.0430366 0.062416 1.63589e-19)
(-0.0421736 0.0613806 -3.54172e-19)
(-0.0405544 0.0600562 2.98327e-19)
(-0.0381971 0.0585723 -9.4875e-20)
(-0.0351186 0.0570506 -2.71228e-19)
(-0.031337 0.0556114 6.70603e-20)
(-0.026875 0.0543779 -6.29842e-20)
(-0.0217641 0.053481 2.38595e-20)
(-0.0160499 0.0530621 -8.4942e-20)
(-0.009799 0.0532749 -2.8231e-19)
(-0.00311354 0.0542814 6.32099e-20)
(0.00385968 0.0562473 -2.28377e-22)
(0.0109963 0.0593682 -2.92158e-19)
(0.0182731 0.0638966 2.05175e-19)
(0.0249601 0.0697531 -1.77076e-19)
(-0.005095 0.010018 6.38562e-20)
(-0.0136824 0.025826 1.1742e-19)
(-0.0211833 0.037983 1.64123e-19)
(-0.0274968 0.0471354 8.43774e-20)
(-0.0326299 0.053812 -8.27173e-20)
(-0.0366327 0.0584586 1.97271e-19)
(-0.039557 0.0614567 1.45944e-19)
(-0.0414554 0.0631282 -5.31424e-20)
(-0.0423788 0.0637422 1.89714e-19)
(-0.0423736 0.0635237 -1.9514e-19)
(-0.0414801 0.0626614 -5.72702e-20)
(-0.0397318 0.0613158 5.80944e-20)
(-0.0371554 0.0596264 1.15056e-19)
(-0.0337724 0.0577187 1.39401e-21)
(-0.0296001 0.0557113 7.28755e-20)
(-0.0246549 0.0537226 1.34707e-19)
(-0.0189554 0.0518774 -2.29428e-19)
(-0.0125282 0.0503133 2.85315e-19)
(-0.00541396 0.0491869 9.63676e-20)
(0.00232283 0.0486783 3.4176e-20)
(0.0105761 0.0489905 -3.46885e-19)
(0.0191838 0.0503478 4.89779e-20)
(0.0279891 0.0530276 7.62666e-20)
(0.0369063 0.0573894 -1.852e-20)
(0.0450716 0.063432 8.69457e-20)
(-0.00557821 0.01019 4.95408e-21)
(-0.0148589 0.0262395 -3.02398e-19)
(-0.0227636 0.0385471 -7.537e-21)
(-0.0292286 0.0477715 -7.61659e-20)
(-0.034293 0.0544548 -5.00171e-19)
(-0.0380351 0.0590537 4.31694e-19)
(-0.0405334 0.0619582 -3.07088e-19)
(-0.0418636 0.0634955 -1.55021e-20)
(-0.0420968 0.0639375 -1.45019e-19)
(-0.0412957 0.0635091 2.50708e-19)
(-0.0395138 0.0623971 -2.69846e-19)
(-0.0367952 0.0607579 -1.26353e-19)
(-0.0331744 0.0587249 2.57027e-21)
(-0.0286778 0.0564167 -2.73489e-19)
(-0.0233253 0.0539441 3.7318e-19)
(-0.0171332 0.0514183 -4.3259e-19)
(-0.0101175 0.0489587 7.99565e-22)
(-0.00230037 0.0467022 6.62639e-20)
(0.00628293 0.0448128 -1.66209e-19)
(0.0155718 0.0434905 1.61471e-19)
(0.0254586 0.0429762 -2.28944e-19)
(0.0357678 0.043557 -1.51588e-19)
(0.0463096 0.0456083 2.82817e-19)
(0.0569274 0.04963 -3.08961e-19)
(0.0665783 0.0557426 -5.89393e-21)
(-0.00606704 0.0103178 -2.56135e-19)
(-0.0160356 0.0265147 2.93588e-19)
(-0.0243262 0.0388835 -9.05875e-20)
(-0.0309104 0.0481005 1.7415e-19)
(-0.0358592 0.0547245 1.87712e-19)
(-0.03928 0.0592251 -1.65298e-19)
(-0.0412785 0.062001 -1.0947e-19)
(-0.0419544 0.0633848 -1.3109e-19)
(-0.0413993 0.0636508 1.20008e-19)
(-0.0396933 0.0630238 -8.07564e-21)
(-0.0369046 0.0616876 1.74886e-19)
(-0.0330891 0.0597933 1.72375e-19)
(-0.0282909 0.057467 -2.05995e-19)
(-0.022544 0.0548176 4.04457e-19)
(-0.0158736 0.0519446 -2.68334e-19)
(-0.00829867 0.0489465 -4.60161e-20)
(0.000163966 0.0459306 5.23056e-19)
(0.00949422 0.0430236 -2.42231e-19)
(0.0196606 0.0403856 1.54596e-19)
(0.0306064 0.0382247 3.02185e-19)
(0.0422238 0.0368096 -1.96095e-19)
(0.054326 0.0364856 2.06324e-20)
(0.0666922 0.0377356 -1.36311e-20)
(0.0790925 0.0412351 -8.0855e-20)
(0.0902544 0.0472792 1.51411e-19)
(-0.00656003 0.0104054 5.8551e-20)
(-0.0172017 0.0266601 -1.85854e-19)
(-0.0258448 0.0390026 1.01568e-19)
(-0.0324965 0.0481345 -1.27712e-21)
(-0.0372602 0.054635 7.63734e-20)
(-0.0402732 0.0589886 -1.31325e-19)
(-0.0416687 0.0616043 7.51176e-20)
(-0.041571 0.0628207 2.04546e-19)
(-0.0400922 0.0629151 -6.25907e-21)
(-0.0373307 0.0621121 -1.04401e-19)
(-0.0333697 0.060593 1.0489e-19)
(-0.0282782 0.0585038 -2.42687e-21)
(-0.0221121 0.055963 -3.32464e-19)
(-0.0149151 0.0530691 1.23222e-19)
(-0.0067215 0.0499084 2.71789e-20)
(0.00244245 0.046563 -4.79176e-20)
(0.0125543 0.0431217 -8.57422e-20)
(0.0235907 0.0396918 3.28157e-19)
(0.0355191 0.0364163 8.01048e-20)
(0.0482836 0.0334943 -1.71743e-19)
(0.0617754 0.0312033 -2.07586e-20)
(0.0757975 0.0299304 2.37115e-19)
(0.090103 0.0302619 -1.1067e-19)
(0.104397 0.0330784 4.77836e-20)
(0.117129 0.0389075 3.20064e-20)
(-0.00705515 0.0104553 -1.17116e-19)
(-0.018344 0.0266805 1.16363e-19)
(-0.0272887 0.0389114 -6.54843e-20)
(-0.0339339 0.047882 -2.10136e-19)
(-0.0384166 0.0541965 -1.93378e-19)
(-0.0409053 0.0583569 -8.54339e-20)
(-0.0415608 0.0607841 -7.08207e-20)
(-0.0405317 0.061824 -2.09313e-19)
(-0.0379511 0.0617577 -8.45861e-20)
(-0.0339347 0.060811 7.71341e-20)
(-0.0285814 0.0591639 -1.10019e-19)
(-0.0219741 0.0569587 -1.16055e-19)
(-0.0141817 0.0543079 -1.08935e-19)
(-0.00526098 0.0513007 1.97964e-19)
(0.00474134 0.0480106 -4.15656e-19)
(0.0157859 0.044503 2.37578e-19)
(0.0278376 0.0408446 -4.06266e-19)
(0.0408612 0.0371165 -6.26499e-20)
(0.0548144 0.0334317 -2.23475e-19)
(0.0696344 0.029961 -5.22632e-20)
(0.0852062 0.0269643 -6.37263e-20)
(0.101321 0.0248382 -2.13249e-19)
(0.117711 0.024247 -2.35566e-20)
(0.134043 0.0262902 1.30993e-19)
(0.148452 0.0317792 -3.39103e-19)
(-0.00754952 0.0104685 1.00463e-19)
(-0.0194464 0.0265779 1.31263e-19)
(-0.0286216 0.0386132 4.59162e-19)
(-0.0351611 0.0473481 -8.05445e-20)
(-0.0392379 0.0534158 1.91651e-19)
(-0.041052 0.0573393 4.56305e-19)
(-0.0407926 0.0595527 -1.24329e-19)
(-0.0386322 0.0604111 1.68186e-19)
(-0.0347236 0.0602007 9.80161e-20)
(-0.0291999 0.0591499 1.77649e-19)
(-0.0221749 0.0574396 -3.55113e-20)
(-0.0137459 0.0552111 2.40608e-20)
(-0.00399586 0.0525735 -6.22457e-20)
(0.00700317 0.0496107 3.36309e-19)
(0.0191874 0.0463868 4.2982e-20)
(0.0324983 0.0429534 3.12049e-19)
(0.0468795 0.0393569 -7.98657e-20)
(0.0622727 0.0356499 2.85709e-19)
(0.0786126 0.0319082 4.0196e-20)
(0.0958153 0.0282574 1.45452e-19)
(0.113748 0.0249096 -6.28503e-20)
(0.132182 0.0222256 -1.14443e-20)
(0.150834 0.020895 3.46611e-19)
(0.169374 0.0222173 2.13855e-19)
(0.18563 0.0273148 -8.84842e-20)
(-0.00803906 0.0104445 -2.43148e-19)
(-0.0204894 0.0263511 -2.46142e-19)
(-0.0298015 0.0381077 -2.57118e-19)
(-0.0361081 0.046534 9.42319e-20)
(-0.0396213 0.0522969 -1.89096e-19)
(-0.0405741 0.0559424 -2.81591e-20)
(-0.0391839 0.0579204 -7.41977e-20)
(-0.0356463 0.058596 -3.07541e-19)
(-0.0301334 0.0582621 -4.79877e-20)
(-0.0227941 0.057152 7.87907e-20)
(-0.0137568 0.0554495 -2.47092e-19)
(-0.00313257 0.0532982 3.42517e-19)
(0.00898042 0.0508081 -4.64946e-19)
(0.0224928 0.0480626 1.11938e-19)
(0.0373199 0.045123 -2.8458e-19)
(0.0533779 0.0420338 -2.31018e-19)
(0.0705796 0.0388285 -1.31957e-20)
(0.0888311 0.0355371 -3.49892e-20)
(0.108027 0.0321998 2.74962e-20)
(0.128043 0.0288898 -1.32173e-19)
(0.148706 0.0257485 -9.15278e-20)
(0.169752 0.0230507 1.12642e-19)
(0.190875 0.021431 -3.11845e-19)
(0.211806 0.0223198 1.01437e-19)
(0.230149 0.0271252 7.17822e-20)
(-0.00851825 0.0103814 -4.30658e-20)
(-0.021449 0.0259961 -7.13263e-20)
(-0.0307787 0.0373914 2.77545e-19)
(-0.0366947 0.0454387 1.0311e-19)
(-0.0394516 0.0508419 1.36383e-19)
(-0.039317 0.0541725 -1.82099e-19)
(-0.0365365 0.0558975 3.78131e-22)
(-0.0313285 0.0563933 -1.47153e-19)
(-0.0238831 0.0559611 2.71946e-19)
(-0.0143641 0.0548401 8.87301e-20)
(-0.00291339 0.0532199 9.95186e-20)
(0.0103439 0.051249 -3.95501e-19)
(0.0252941 0.0490431 4.87781e-19)
(0.0418287 0.0466906 -1.46418e-19)
(0.0598388 0.0442577 -1.048e-19)
(0.0792096 0.041792 3.14004e-19)
(0.0998154 0.0393258 1.40263e-19)
(0.121514 0.0368809 -3.54959e-19)
(0.144142 0.034476 -1.4843e-19)
(0.167512 0.0321417 4.47862e-19)
(0.191384 0.0299443 -3.42482e-19)
(0.215424 0.0280366 2.06071e-19)
(0.239275 0.0269004 1.15405e-19)
(0.262788 0.0279681 -1.48463e-19)
(0.283532 0.0328374 -1.42261e-19)
(-0.00897984 0.0102761 -1.58308e-19)
(-0.0222963 0.0255066 2.46067e-19)
(-0.0314961 0.0364591 1.04736e-19)
(-0.0368302 0.0440601 -1.51185e-19)
(-0.0386004 0.0490533 -2.41866e-20)
(-0.0371104 0.0520378 -1.58286e-19)
(-0.0326351 0.0534984 -6.29879e-20)
(-0.0254148 0.0538236 7.07383e-20)
(-0.015657 0.0533235 -1.77025e-20)
(-0.00354 0.0522447 1.33302e-19)
(0.0107809 0.0507837 -1.15771e-19)
(0.0271666 0.0490965 3.20378e-19)
(0.0454864 0.0473077 -3.97107e-19)
(0.0656111 0.0455157 2.4762e-19)
(0.0874049 0.0437988 3.07793e-19)
(0.110718 0.0422179 -4.45008e-19)
(0.135381 0.0408196 -1.35533e-19)
(0.161193 0.0396378 2.28493e-19)
(0.187921 0.0386965 -1.41093e-19)
(0.215286 0.038016 1.3648e-19)
(0.24295 0.0376186 -3.30798e-19)
(0.27046 0.0375402 5.50866e-20)
(0.297344 0.0380398 2.15999e-19)
(0.32359 0.0404073 -3.478e-19)
(0.347083 0.0462702 9.3862e-20)
(-0.00941454 0.0101247 -1.46224e-19)
(-0.0229966 0.0248748 4.58466e-19)
(-0.0318874 0.0353041 8.79408e-20)
(-0.0364121 0.0423963 -2.37556e-19)
(-0.0369248 0.0469363 1.7013e-19)
(-0.0337682 0.0495517 8.64112e-20)
(-0.0272468 0.0507455 1.3779e-19)
(-0.0176238 0.0509186 -8.97559e-21)
(-0.00512404 0.0503897 -1.43545e-20)
(0.0100589 0.0494132 -3.00534e-20)
(0.0277553 0.0481926 -1.31056e-19)
(0.04781 0.0468924 -4.44737e-21)
(0.0700734 0.0456467 3.06104e-19)
(0.0943928 0.044567 -5.02191e-19)
(0.120604 0.0437473 3.57297e-19)
(0.14852 0.0432697 7.23289e-20)
(0.177927 0.0432077 1.2796e-19)
(0.208567 0.04363 -6.61457e-20)
(0.240131 0.0446032 5.86295e-19)
(0.272241 0.0461957 -3.63355e-19)
(0.304419 0.0484715 2.90874e-19)
(0.336012 0.0514585 6.85926e-20)
(0.36628 0.055306 -2.13504e-19)
(0.395174 0.0612466 1.81005e-19)
(0.421278 0.0706451 2.78821e-19)
(-0.00981072 0.00992256 -4.23761e-20)
(-0.023509 0.0240921 -1.616e-19)
(-0.0318766 0.0339203 -2.75983e-19)
(-0.0353252 0.0404477 -1.57097e-19)
(-0.0342674 0.0445007 -2.19576e-20)
(-0.0290876 0.0467357 -6.19381e-20)
(-0.0201222 0.0476734 -2.87167e-19)
(-0.00765858 0.0477263 4.7636e-20)
(0.00805869 0.0472212 -3.22402e-19)
(0.0268184 0.0464187 -2.50098e-20)
(0.0484324 0.0455285 -3.09044e-19)
(0.0727249 0.0447214 -1.10054e-19)
(0.0995223 0.0441396 6.31752e-20)
(0.128644 0.0439043 -3.00678e-19)
(0.159894 0.0441236 2.70821e-21)
(0.193051 0.0448988 -2.59209e-19)
(0.227865 0.0463327 1.00166e-19)
(0.264041 0.0485372 -3.62303e-19)
(0.301234 0.0516463 -6.2189e-20)
(0.339026 0.0558313 -8.51012e-21)
(0.376875 0.0613092 -6.13063e-20)
(0.414006 0.0683322 -6.27412e-20)
(0.449377 0.0774111 -3.11759e-20)
(0.482231 0.0903072 -1.25622e-19)
(0.51027 0.107425 -2.68503e-19)
(-0.0101542 0.00966453 7.766e-20)
(-0.0237855 0.0231498 2.04705e-19)
(-0.0313773 0.032303 2.45858e-19)
(-0.0334413 0.0382186 -1.96304e-19)
(-0.0304554 0.0417638 3.64236e-19)
(-0.02285 0.0436225 -1.97597e-19)
(-0.0109965 0.0443325 1.07311e-19)
(0.0047898 0.0443159 1.67238e-19)
(0.0242402 0.0439059 1.52072e-19)
(0.0471197 0.0433672 7.39423e-20)
(0.0732138 0.0429123 1.19449e-19)
(0.102317 0.0427141 6.94484e-20)
(0.134221 0.0429163 4.69416e-19)
(0.168707 0.0436421 -3.41159e-19)
(0.205538 0.0450015 3.8965e-19)
(0.244456 0.0471001 -1.61956e-19)
(0.285177 0.0500477 3.49817e-19)
(0.327396 0.0539708 -1.64891e-20)
(0.370791 0.0590317 -7.24629e-20)
(0.415029 0.0654567 -1.31198e-20)
(0.459779 0.0735749 2.75074e-19)
(0.50474 0.0839149 -2.68459e-19)
(0.549898 0.0976559 1.88902e-19)
(0.595699 0.116992 2.08028e-19)
(0.637476 0.13763 4.23706e-20)
(-0.010428 0.00934524 5.37091e-20)
(-0.0237706 0.0220396 -2.92512e-19)
(-0.030292 0.03045 -1.06204e-19)
(-0.0306187 0.0357191 9.70184e-20)
(-0.0253016 0.0387518 -2.98486e-19)
(-0.0148225 0.0402585 -5.87923e-20)
(0.000406829 0.0407913 4.0797e-20)
(0.0200371 0.0407802 1.61128e-19)
(0.043767 0.0405618 -4.07769e-19)
(0.071327 0.0404012 3.10017e-20)
(0.102463 0.0405087 -1.19165e-19)
(0.136924 0.0410527 -3.62121e-19)
(0.174449 0.0421696 2.46714e-19)
(0.21476 0.0439716 1.05676e-20)
(0.257559 0.0465541 -7.4148e-21)
(0.302528 0.0500019 2.48857e-19)
(0.349331 0.0543962 -4.40003e-19)
(0.397623 0.0598227 3.48468e-19)
(0.447071 0.0663805 -6.45101e-20)
(0.497369 0.0741924 2.0292e-19)
(0.548279 0.083412 -3.34166e-19)
(0.599668 0.0942476 1.91166e-19)
(0.651738 0.107175 -3.41611e-19)
(0.705153 0.123006 3.50599e-19)
(0.754589 0.137133 -1.09916e-19)
(-0.0106115 0.00895932 3.6032e-19)
(-0.0234008 0.020755 -5.86298e-20)
(-0.0285122 0.0283632 4.3243e-19)
(-0.0267028 0.0329662 2.00112e-19)
(-0.0186057 0.0355021 1.60844e-20)
(-0.00476102 0.0367051 8.72699e-20)
(0.0143711 0.0371386 2.10796e-20)
(0.0383971 0.0372371 3.55284e-19)
(0.0669706 0.0373368 1.14399e-19)
(0.0997709 0.0376982 -1.53504e-20)
(0.136485 0.0385233 3.0714e-20)
(0.176791 0.0399676 1.18247e-19)
(0.22035 0.0421494 9.86961e-20)
(0.2668 0.0451574 2.11206e-19)
(0.315749 0.0490558 -2.40619e-19)
(0.366786 0.0538896 7.26728e-20)
(0.419488 0.0596887 2.21115e-20)
(0.473428 0.0664714 1.07549e-19)
(0.528201 0.0742467 2.91138e-19)
(0.58344 0.0830136 -1.90206e-19)
(0.638847 0.0927524 1.5927e-20)
(0.694207 0.103413 -2.67594e-19)
(0.749485 0.115019 2.52319e-19)
(0.804951 0.127952 -2.42856e-19)
(0.855803 0.139515 2.41989e-20)
(-0.0106812 0.00850197 -3.00464e-19)
(-0.0226048 0.019292 2.29651e-19)
(-0.025919 0.0260502 -3.73596e-19)
(-0.021528 0.029986 3.21987e-20)
(-0.0101574 0.0320648 2.62665e-19)
(0.0075846 0.0330403 -4.37361e-19)
(0.031178 0.0334834 3.46814e-19)
(0.0601706 0.0338285 -5.50035e-19)
(0.0941517 0.034406 1.09575e-19)
(0.132727 0.0354657 2.34265e-20)
(0.175496 0.0371929 1.84725e-19)
(0.222039 0.0397205 -6.13645e-19)
(0.271907 0.0431377 1.0595e-19)
(0.324616 0.0474963 1.12225e-19)
(0.379653 0.0528158 -6.72835e-20)
(0.436483 0.0590879 -4.17244e-19)
(0.494561 0.0662794 1.96499e-19)
(0.55335 0.0743343 3.67324e-19)
(0.612342 0.0831747 -3.87244e-19)
(0.671072 0.0926978 2.80627e-19)
(0.729142 0.102768 -3.62992e-19)
(0.78622 0.113201 2.63549e-19)
(0.842067 0.123827 -7.25947e-20)
(0.896664 0.134908 4.14642e-19)
(0.94625 0.145355 -4.71174e-19)
(-0.0106101 0.0079693 4.29361e-20)
(-0.0213036 0.0176502 3.38783e-20)
(-0.0223838 0.0235253 8.2872e-20)
(-0.0149192 0.026815 2.959e-19)
(0.000259662 0.0285038 -9.28417e-21)
(0.022464 0.0293594 6.60607e-20)
(0.0510979 0.0299548 2.9406e-19)
(0.0856298 0.0307181 1.18637e-19)
(0.125559 0.031967 -3.90849e-20)
(0.170389 0.0339317 3.32634e-19)
(0.219598 0.0367711 -3.7875e-19)
(0.272634 0.0405838 5.81065e-19)
(0.328899 0.0454171 -2.30551e-19)
(0.38776 0.0512734 4.18386e-19)
(0.448551 0.0581158 -1.41271e-19)
(0.510589 0.0658729 5.15197e-20)
(0.573197 0.0744436 6.24107e-20)
(0.63572 0.0837005 -1.20404e-19)
(0.697546 0.0934918 1.00877e-19)
(0.758127 0.103642 6.48413e-20)
(0.816991 0.11395 8.9269e-20)
(0.87374 0.124179 1.88621e-19)
(0.928049 0.134096 -1.6449e-20)
(0.979784 0.143886 -8.61409e-20)
(1.02638 0.153646 2.56795e-19)
(-0.010368 0.0073588 -2.51102e-19)
(-0.0194114 0.0158343 2.65485e-20)
(-0.0177706 0.0208114 -4.76993e-19)
(-0.00669597 0.0235017 -1.13862e-19)
(0.0128622 0.0248982 -2.13182e-19)
(0.0401175 0.0257756 -4.56865e-20)
(0.0743766 0.0267013 -2.28194e-19)
(0.115001 0.0280889 -1.36373e-19)
(0.16137 0.0302336 1.80545e-19)
(0.212843 0.0333353 -3.01309e-19)
(0.268745 0.0375133 -8.36909e-20)
(0.328348 0.0428185 3.31999e-21)
(0.390877 0.0492426 -5.65747e-19)
(0.455519 0.0567257 2.405e-19)
(0.521436 0.0651642 -3.51078e-19)
(0.587797 0.074418 -1.09391e-20)
(0.653794 0.084318 6.91904e-20)
(0.718675 0.0946729 -1.12368e-19)
(0.781761 0.105274 -9.84695e-20)
(0.842466 0.115902 4.90248e-20)
(0.900305 0.126327 5.47336e-20)
(0.954894 0.13631 -3.5462e-19)
(1.00593 0.14562 2.02085e-19)
(1.05331 0.154388 1.01338e-19)
(1.0955 0.16348 2.72921e-20)
(-0.00992157 0.00666999 2.56802e-19)
(-0.0168367 0.0138552 -2.73875e-19)
(-0.0119378 0.0179417 3.84119e-19)
(0.00332378 0.0201084 5.98237e-20)
(0.0278603 0.0213437 -1.83152e-20)
(0.0607658 0.02242 -1.29005e-19)
(0.101221 0.023889 1.93941e-20)
(0.148448 0.0261385 1.96195e-19)
(0.201662 0.0294289 -2.70636e-19)
(0.260044 0.0339148 2.84251e-19)
(0.322717 0.0396609 -3.00316e-20)
(0.388745 0.0466545 1.32093e-20)
(0.457148 0.0548168 3.6969e-19)
(0.526916 0.064014 4.95486e-19)
(0.597044 0.0740678 -1.93864e-19)
(0.666563 0.0847676 3.44331e-19)
(0.734569 0.095881 1.74863e-19)
(0.800258 0.107165 -1.06941e-19)
(0.862942 0.118373 3.3866e-19)
(0.922065 0.129268 -1.30895e-20)
(0.97721 0.13962 -3.25153e-19)
(1.02809 0.149217 3.428e-19)
(1.07452 0.157864 4.9147e-20)
(1.11649 0.165667 -2.11946e-19)
(1.15333 0.173928 6.64099e-20)
(-0.00923504 0.00590491 -3.57185e-19)
(-0.0134834 0.0117311 3.7331e-19)
(-0.00474177 0.014961 -2.36817e-19)
(0.0153184 0.0167124 -7.38466e-20)
(0.0454498 0.0179534 -1.65414e-19)
(0.0845991 0.0194413 2.92508e-19)
(0.131786 0.0216995 -1.69785e-19)
(0.186049 0.025075 -7.7822e-20)
(0.246399 0.0297769 -2.2275e-19)
(0.311788 0.0358968 5.74149e-21)
(0.381102 0.0434264 -8.71454e-20)
(0.453167 0.0522723 4.2443e-20)
(0.526781 0.0622713 -4.4665e-19)
(0.600744 0.0732055 1.27257e-19)
(0.673904 0.084819 -1.5365e-19)
(0.745193 0.0968335 -1.23839e-19)
(0.813671 0.108964 3.81348e-20)
(0.878547 0.120932 -1.80751e-19)
(0.939199 0.132477 -7.76637e-20)
(0.995183 0.143366 2.2357e-19)
(1.04622 0.153397 9.4716e-20)
(1.09219 0.162405 -4.02441e-19)
(1.13309 0.17025 2.95862e-19)
(1.16908 0.177046 -5.59067e-20)
(1.20007 0.184258 -1.15493e-19)
(-0.00827044 0.00506878 -1.30107e-19)
(-0.00925337 0.00948948 -6.96006e-20)
(0.00395988 0.0119275 -1.38725e-20)
(0.0294565 0.0134076 1.01881e-19)
(0.0658034 0.0148576 1.10766e-19)
(0.111765 0.0170048 9.64157e-20)
(0.166156 0.0203264 1.19956e-19)
(0.227786 0.0251104 1.83065e-19)
(0.295409 0.0314936 2.79808e-19)
(0.367707 0.0394837 2.76816e-19)
(0.443295 0.0489793 1.46178e-19)
(0.520747 0.0597893 -3.92598e-20)
(0.598643 0.0716542 9.79786e-21)
(0.67562 0.0842674 -1.33639e-20)
(0.750425 0.0972975 1.15725e-19)
(0.82196 0.11041 -3.09086e-20)
(0.889321 0.123283 3.43288e-19)
(0.951814 0.135625 -1.53763e-19)
(1.00896 0.147187 2.43605e-21)
(1.06051 0.157765 1.08592e-19)
(1.10637 0.167204 -2.36924e-19)
(1.14664 0.1754 3.94494e-19)
(1.18153 0.182284 -3.19667e-19)