/*--------------------------------*- C++ -*----------------------------------*\
  =========                 |
  \\      /  F ield         | OpenFOAM: The Open Source CFD Toolbox
   \\    /   O peration     | Website:  https://openfoam.org
    \\  /    A nd           | Version:  6.0
     \\/     M anipulation  |
\*---------------------------------------------------------------------------*/
FoamFile
{
    version     2.0;
    format      ascii;
    class       volScalarField;
    location    "97";
    object      p;
}
// * * * * * * * * * * * * * * * * * * * * * * * * * * * * * * * * * * * * * //

dimensions      [0 2 -2 0 0 0 0];

internalField   nonuniform List<scalar> 
12500
(
-0.463458
-0.465958
-0.467419
-0.468407
-0.469277
-0.470106
-0.470933
-0.471772
-0.472613
-0.473432
-0.474203
-0.474894
-0.475477
-0.475927
-0.476221
-0.476347
-0.476297
-0.476072
-0.475682
-0.475146
-0.474484
-0.473724
-0.472946
-0.472269
-0.471263
-0.473655
-0.476149
-0.477677
-0.478802
-0.47988
-0.480981
-0.482136
-0.483347
-0.484593
-0.48584
-0.487046
-0.48817
-0.489173
-0.490019
-0.490678
-0.491128
-0.491356
-0.491359
-0.491145
-0.490731
-0.490135
-0.489391
-0.488623
-0.487967
-0.486634
-0.484222
-0.48664
-0.4882
-0.489447
-0.490724
-0.492096
-0.493581
-0.495171
-0.496829
-0.498509
-0.500157
-0.501719
-0.503144
-0.504384
-0.505399
-0.506159
-0.506642
-0.506839
-0.506754
-0.506404
-0.505804
-0.50499
-0.504126
-0.503364
-0.501617
-0.495087
-0.497358
-0.498911
-0.50026
-0.501723
-0.503356
-0.505168
-0.507134
-0.509204
-0.511318
-0.513408
-0.515407
-0.51725
-0.518878
-0.520239
-0.521292
-0.522004
-0.52236
-0.52236
-0.522013
-0.521333
-0.520361
-0.519288
-0.518286
-0.516041
-0.506163
-0.508215
-0.509721
-0.511145
-0.512773
-0.514652
-0.516777
-0.519108
-0.521582
-0.524122
-0.526647
-0.529075
-0.531328
-0.533334
-0.535027
-0.536353
-0.537271
-0.537753
-0.537791
-0.53739
-0.53656
-0.535342
-0.533951
-0.532576
-0.529755
-0.517345
-0.519108
-0.520525
-0.521994
-0.52376
-0.525861
-0.528277
-0.530953
-0.53381
-0.536758
-0.539701
-0.542543
-0.545191
-0.547559
-0.549567
-0.551148
-0.552246
-0.552823
-0.55286
-0.552354
-0.55131
-0.549769
-0.547957
-0.546085
-0.542627
-0.528514
-0.529928
-0.531214
-0.532692
-0.534564
-0.536853
-0.539526
-0.542516
-0.545727
-0.549054
-0.552387
-0.555617
-0.558636
-0.561344
-0.563646
-0.565459
-0.566714
-0.567358
-0.567361
-0.566708
-0.565398
-0.563469
-0.56115
-0.558675
-0.554533
-0.539546
-0.540559
-0.541674
-0.543125
-0.545061
-0.547496
-0.550384
-0.553644
-0.557166
-0.560831
-0.564516
-0.568097
-0.571454
-0.57447
-0.577037
-0.579057
-0.580444
-0.581131
-0.581072
-0.58024
-0.578626
-0.576261
-0.573365
-0.570201
-0.56535
-0.550314
-0.550889
-0.551797
-0.553179
-0.555134
-0.557664
-0.560714
-0.564189
-0.567967
-0.571917
-0.575903
-0.579787
-0.583435
-0.58672
-0.589516
-0.591711
-0.593203
-0.593908
-0.593763
-0.592729
-0.590784
-0.587951
-0.584432
-0.580513
-0.574948
-0.560698
-0.560812
-0.561481
-0.562755
-0.564677
-0.567245
-0.570395
-0.57402
-0.577988
-0.582157
-0.586379
-0.590505
-0.59439
-0.59789
-0.600869
-0.603199
-0.604763
-0.605459
-0.605208
-0.603953
-0.601662
-0.598342
-0.594174
-0.589457
-0.583184
-0.570587
-0.570235
-0.570641
-0.571765
-0.573603
-0.576146
-0.579326
-0.583027
-0.58711
-0.591422
-0.595805
-0.600102
-0.604154
-0.607808
-0.610914
-0.61333
-0.614925
-0.61558
-0.615198
-0.613706
-0.611057
-0.607245
-0.602415
-0.596874
-0.589911
-0.579891
-0.579085
-0.579211
-0.580148
-0.581847
-0.584301
-0.587436
-0.591132
-0.595246
-0.599617
-0.604079
-0.608466
-0.612609
-0.616345
-0.619512
-0.621956
-0.623531
-0.624105
-0.623563
-0.621815
-0.618798
-0.614491
-0.608998
-0.60262
-0.594984
-0.588541
-0.587309
-0.587147
-0.587864
-0.589374
-0.591671
-0.594685
-0.598295
-0.602352
-0.606692
-0.611145
-0.615535
-0.619686
-0.623425
-0.62658
-0.628986
-0.630485
-0.630929
-0.630188
-0.628157
-0.624757
-0.61995
-0.613798
-0.606575
-0.598273
-0.596494
-0.594879
-0.59443
-0.594899
-0.596173
-0.598252
-0.601071
-0.604511
-0.608424
-0.612645
-0.616998
-0.621302
-0.625375
-0.629035
-0.632101
-0.634398
-0.635754
-0.636012
-0.635026
-0.632676
-0.628868
-0.623549
-0.616737
-0.608664
-0.59969
-0.603736
-0.601792
-0.601066
-0.601266
-0.602263
-0.604068
-0.606622
-0.609815
-0.613501
-0.617516
-0.621683
-0.625815
-0.629726
-0.633225
-0.636123
-0.638235
-0.639381
-0.639388
-0.638102
-0.635385
-0.631134
-0.625281
-0.617801
-0.608866
-0.599196
-0.610279
-0.60807
-0.607083
-0.607002
-0.607691
-0.609172
-0.611402
-0.614278
-0.617662
-0.621392
-0.625291
-0.629172
-0.632839
-0.636099
-0.638752
-0.640605
-0.641467
-0.641156
-0.639505
-0.636367
-0.631625
-0.625203
-0.61704
-0.60723
-0.596822
-0.616165
-0.613757
-0.612531
-0.612163
-0.612521
-0.613642
-0.615498
-0.617999
-0.621016
-0.624393
-0.627954
-0.631509
-0.634861
-0.637807
-0.640141
-0.641661
-0.642166
-0.641465
-0.639381
-0.635758
-0.630471
-0.623436
-0.614568
-0.603872
-0.592673
-0.621458
-0.618917
-0.617478
-0.616826
-0.616838
-0.617573
-0.619018
-0.621098
-0.623697
-0.626664
-0.629827
-0.632994
-0.635965
-0.63853
-0.640477
-0.641591
-0.641666
-0.640501
-0.637912
-0.633735
-0.627843
-0.620149
-0.610552
-0.59897
-0.58693
-0.626245
-0.623631
-0.622006
-0.621076
-0.62074
-0.621073
-0.622083
-0.623711
-0.625853
-0.628367
-0.631084
-0.633811
-0.636343
-0.638466
-0.639958
-0.640597
-0.640167
-0.638462
-0.635293
-0.630494
-0.623937
-0.61554
-0.605199
-0.592754
-0.579845
-0.63063
-0.627994
-0.626208
-0.625011
-0.624329
-0.624257
-0.624821
-0.625979
-0.62764
-0.62967
-0.631903
-0.634145
-0.636189
-0.637811
-0.638784
-0.638877
-0.637868
-0.635546
-0.631722
-0.626234
-0.618957
-0.609822
-0.598737
-0.585482
-0.571711
-0.634729
-0.632108
-0.630183
-0.628732
-0.627714
-0.627242
-0.627359
-0.628041
-0.629208
-0.630734
-0.632454
-0.634176
-0.635684
-0.63675
-0.637139
-0.636615
-0.63495
-0.631935
-0.627384
-0.621143
-0.613104
-0.603213
-0.591404
-0.577426
-0.56285
-0.638665
-0.636082
-0.634032
-0.632342
-0.631002
-0.630141
-0.629821
-0.63003
-0.630699
-0.631708
-0.632894
-0.63406
-0.634988
-0.635443
-0.635183
-0.633967
-0.63157
-0.627785
-0.622437
-0.615391
-0.606559
-0.595916
-0.58344
-0.56887
-0.553597
-0.642564
-0.640023
-0.637858
-0.635941
-0.634294
-0.633061
-0.632318
-0.632064
-0.632238
-0.632722
-0.633353
-0.633932
-0.634235
-0.63402
-0.633042
-0.631061
-0.627853
-0.623222
-0.617012
-0.609108
-0.599456
-0.588069
-0.574983
-0.559946
-0.544156
-0.646549
-0.644038
-0.641757
-0.639623
-0.637685
-0.6361
-0.634951
-0.634246
-0.633928
-0.63388
-0.633936
-0.633894
-0.633522
-0.632578
-0.630813
-0.627991
-0.623898
-0.618355
-0.611223
-0.602417
-0.591905
-0.579733
-0.565957
-0.550339
-0.534242
-0.650734
-0.648222
-0.645818
-0.643474
-0.641259
-0.639338
-0.6378
-0.636656
-0.635849
-0.635259
-0.634716
-0.634014
-0.632916
-0.631178
-0.628556
-0.624825
-0.619785
-0.61328
-0.605199
-0.595482
-0.584121
-0.571154
-0.556546
-0.540052
-0.52388
-0.655217
-0.652662
-0.65012
-0.647568
-0.645086
-0.642844
-0.640931
-0.639355
-0.638055
-0.636908
-0.635737
-0.634329
-0.632449
-0.629853
-0.626308
-0.621605
-0.615571
-0.608079
-0.599053
-0.588474
-0.57637
-0.562802
-0.547802
-0.531689
-0.516487
-0.660084
-0.657431
-0.654729
-0.651964
-0.649221
-0.646667
-0.644385
-0.642379
-0.640577
-0.638849
-0.637012
-0.634849
-0.632125
-0.628608
-0.624078
-0.618353
-0.611291
-0.602803
-0.592855
-0.581466
-0.568707
-0.554684
-0.539524
-0.523616
-0.508192
-0.665398
-0.662586
-0.659696
-0.65671
-0.653705
-0.65084
-0.64819
-0.645745
-0.643422
-0.641081
-0.638533
-0.635558
-0.63193
-0.627429
-0.621862
-0.615076
-0.606968
-0.597492
-0.586655
-0.574514
-0.561172
-0.546763
-0.531435
-0.515505
-0.499792
-0.671205
-0.668169
-0.66506
-0.661838
-0.658563
-0.655383
-0.652355
-0.649452
-0.64658
-0.643585
-0.640273
-0.636427
-0.631832
-0.626291
-0.619642
-0.61177
-0.602617
-0.592177
-0.580497
-0.56767
-0.553822
-0.539102
-0.523665
-0.507783
-0.492063
-0.677534
-0.674209
-0.670845
-0.667369
-0.663811
-0.6603
-0.656875
-0.653489
-0.650028
-0.646328
-0.642192
-0.637412
-0.631791
-0.62516
-0.617397
-0.60843
-0.598245
-0.58688
-0.574416
-0.560974
-0.546697
-0.531739
-0.516251
-0.500477
-0.484865
-0.684395
-0.680718
-0.677066
-0.673314
-0.669453
-0.66559
-0.66174
-0.657831
-0.653732
-0.649268
-0.644244
-0.638466
-0.631762
-0.624002
-0.615105
-0.605047
-0.59386
-0.581619
-0.568437
-0.554455
-0.539823
-0.524696
-0.509218
-0.493613
-0.478213
-0.691787
-0.687702
-0.683727
-0.679674
-0.675486
-0.671242
-0.666929
-0.662449
-0.657652
-0.652357
-0.646377
-0.639536
-0.631699
-0.622778
-0.612741
-0.601611
-0.589462
-0.576403
-0.562573
-0.548121
-0.533202
-0.517963
-0.502538
-0.487131
-0.471977
-0.699697
-0.695153
-0.690824
-0.686445
-0.6819
-0.67724
-0.672417
-0.667307
-0.661743
-0.655543
-0.648533
-0.640569
-0.631555
-0.621453
-0.610281
-0.598109
-0.585047
-0.571235
-0.556823
-0.541968
-0.526819
-0.511512
-0.496166
-0.480967
-0.466068
-0.708104
-0.703059
-0.698347
-0.693617
-0.688682
-0.683561
-0.678172
-0.672363
-0.665954
-0.658769
-0.650656
-0.64151
-0.631283
-0.619991
-0.607701
-0.594527
-0.580609
-0.566107
-0.551179
-0.535978
-0.520645
-0.5053
-0.490045
-0.475044
-0.460386
-0.716978
-0.711397
-0.706278
-0.70117
-0.695811
-0.690178
-0.684156
-0.677568
-0.670228
-0.661972
-0.652683
-0.642303
-0.630838
-0.618358
-0.604978
-0.590848
-0.576134
-0.561004
-0.545619
-0.530123
-0.514641
-0.499276
-0.484111
-0.469292
-0.454849
-0.726282
-0.720138
-0.714593
-0.709081
-0.703255
-0.697053
-0.690322
-0.682865
-0.6745
-0.665087
-0.654552
-0.642893
-0.630175
-0.616519
-0.602085
-0.587052
-0.571602
-0.555905
-0.540116
-0.524365
-0.50876
-0.493384
-0.478303
-0.463643
-0.449383
-0.735969
-0.729243
-0.723255
-0.717314
-0.710976
-0.704136
-0.69661
-0.688187
-0.678698
-0.668041
-0.656196
-0.643223
-0.629247
-0.614439
-0.598995
-0.583115
-0.566988
-0.55078
-0.534633
-0.51866
-0.502951
-0.487569
-0.472562
-0.458035
-0.443928
-0.745982
-0.738663
-0.732221
-0.725821
-0.718921
-0.711367
-0.702949
-0.693455
-0.682741
-0.670757
-0.657548
-0.643238
-0.628011
-0.612083
-0.595679
-0.579009
-0.562262
-0.545594
-0.52913
-0.512963
-0.497164
-0.481774
-0.466829
-0.45241
-0.438429
-0.756253
-0.748337
-0.741432
-0.734544
-0.727022
-0.718668
-0.709255
-0.698579
-0.686542
-0.673156
-0.658537
-0.642879
-0.62642
-0.609414
-0.592103
-0.574702
-0.55739
-0.540309
-0.523562
-0.507224
-0.491343
-0.475946
-0.461051
-0.446719
-0.432841
-0.7667
-0.758192
-0.750815
-0.743406
-0.735196
-0.725949
-0.715429
-0.703461
-0.690005
-0.675151
-0.659093
-0.64209
-0.624429
-0.606393
-0.588232
-0.570158
-0.552333
-0.53488
-0.517882
-0.501391
-0.485438
-0.470031
-0.455176
-0.440912
-0.427121
-0.777229
-0.768138
-0.760284
-0.752315
-0.743343
-0.733101
-0.721359
-0.707991
-0.693032
-0.676658
-0.659144
-0.640812
-0.621991
-0.602979
-0.584028
-0.565336
-0.547047
-0.529261
-0.512039
-0.495413
-0.479394
-0.463977
-0.449155
-0.434945
-0.421229
-0.787729
-0.778073
-0.769736
-0.761163
-0.751349
-0.740003
-0.726925
-0.712054
-0.695518
-0.677588
-0.658618
-0.638988
-0.619056
-0.599128
-0.579447
-0.560192
-0.541487
-0.523404
-0.505984
-0.489238
-0.47316
-0.457734
-0.442939
-0.428773
-0.415127
-0.798074
-0.787877
-0.779051
-0.769825
-0.759081
-0.746521
-0.731994
-0.715529
-0.697358
-0.677854
-0.657445
-0.63656
-0.615575
-0.594794
-0.574444
-0.554681
-0.535602
-0.517257
-0.499662
-0.482812
-0.466685
-0.451253
-0.436484
-0.422357
-0.408779
-0.808124
-0.797417
-0.788094
-0.778161
-0.766394
-0.752509
-0.736429
-0.718292
-0.698448
-0.677369
-0.655555
-0.633469
-0.611496
-0.589929
-0.568971
-0.548754
-0.529344
-0.510768
-0.493023
-0.476085
-0.459919
-0.444486
-0.429746
-0.415655
-0.402149
-0.817727
-0.806546
-0.796716
-0.786016
-0.773131
-0.757814
-0.740088
-0.720219
-0.698683
-0.67605
-0.652879
-0.629657
-0.606767
-0.584482
-0.56298
-0.542358
-0.52266
-0.503887
-0.486016
-0.469007
-0.452814
-0.437389
-0.422682
-0.408629
-0.395202
-0.826718
-0.815102
-0.804755
-0.793225
-0.779127
-0.762278
-0.742828
-0.721188
-0.697964
-0.673814
-0.649349
-0.625066
-0.601336
-0.578404
-0.556418
-0.535444
-0.515499
-0.496561
-0.478589
-0.461529
-0.445324
-0.429919
-0.415252
-0.401242
-0.387907
-0.83492
-0.822915
-0.812038
-0.799613
-0.78421
-0.765741
-0.744508
-0.721081
-0.696192
-0.670584
-0.6449
-0.619638
-0.595148
-0.571642
-0.549234
-0.52796
-0.50781
-0.48874
-0.470694
-0.453604
-0.437405
-0.422033
-0.407418
-0.393461
-0.380231
-0.842152
-0.829805
-0.818384
-0.804998
-0.788205
-0.768044
-0.744992
-0.719784
-0.693277
-0.666284
-0.639468
-0.613318
-0.588151
-0.564146
-0.541378
-0.519857
-0.499543
-0.480377
-0.462285
-0.44519
-0.429016
-0.413694
-0.399144
-0.385252
-0.372144
-0.848226
-0.835587
-0.823607
-0.809197
-0.790939
-0.769033
-0.744147
-0.71719
-0.689134
-0.660844
-0.632995
-0.606051
-0.580294
-0.555864
-0.532801
-0.511084
-0.490652
-0.471426
-0.453319
-0.436244
-0.420118
-0.404866
-0.390398
-0.376586
-0.363621
-0.852951
-0.840073
-0.827518
-0.812026
-0.792243
-0.768559
-0.741852
-0.713202
-0.683682
-0.6542
-0.625423
-0.597785
-0.571527
-0.546748
-0.523455
-0.501597
-0.481092
-0.461844
-0.443756
-0.426729
-0.410676
-0.395517
-0.38115
-0.367436
-0.354637
-0.856141
-0.843075
-0.829932
-0.813307
-0.791954
-0.766484
-0.737995
-0.707729
-0.67685
-0.646291
-0.6167
-0.588472
-0.561803
-0.536754
-0.513296
-0.491352
-0.470821
-0.451593
-0.433558
-0.416611
-0.400659
-0.385618
-0.371374
-0.357778
-0.345169
-0.857608
-0.844408
-0.830665
-0.812866
-0.78992
-0.76268
-0.732472
-0.700691
-0.668575
-0.637063
-0.606777
-0.578065
-0.55108
-0.525839
-0.502283
-0.480311
-0.459804
-0.440638
-0.422694
-0.405861
-0.39004
-0.375144
-0.361046
-0.347591
-0.335199
-0.857176
-0.843895
-0.829544
-0.810544
-0.786002
-0.757035
-0.725196
-0.69202
-0.658799
-0.626469
-0.595611
-0.566525
-0.539317
-0.513965
-0.490381
-0.468439
-0.448006
-0.428947
-0.411135
-0.394452
-0.378795
-0.364074
-0.350149
-0.33686
-0.324712
-0.854677
-0.841368
-0.826407
-0.806193
-0.780074
-0.749449
-0.716089
-0.681655
-0.647477
-0.614468
-0.583165
-0.553817
-0.526481
-0.5011
-0.477556
-0.455706
-0.435401
-0.416497
-0.398859
-0.382364
-0.366906
-0.352391
-0.338668
-0.325572
-0.313698
-0.849957
-0.836673
-0.821105
-0.79968
-0.772029
-0.739839
-0.70509
-0.669551
-0.634569
-0.601027
-0.569408
-0.53991
-0.512542
-0.487214
-0.463783
-0.442087
-0.421965
-0.403265
-0.385846
-0.369579
-0.354358
-0.340083
-0.326592
-0.313719
-0.30215
-0.842878
-0.82967
-0.813506
-0.790893
-0.761777
-0.728136
-0.69215
-0.655669
-0.620046
-0.586119
-0.554317
-0.52478
-0.497479
-0.472287
-0.449041
-0.427563
-0.407682
-0.389237
-0.372083
-0.356088
-0.341142
-0.327143
-0.313916
-0.301297
-0.290064
-0.83332
-0.820239
-0.803499
-0.779738
-0.749245
-0.714292
-0.677234
-0.639987
-0.603889
-0.569728
-0.537873
-0.508412
-0.481273
-0.456303
-0.433316
-0.412121
-0.392539
-0.374403
-0.357562
-0.341883
-0.327254
-0.313568
-0.300639
-0.288307
-0.277443
-0.821182
-0.808278
-0.790992
-0.76614
-0.734383
-0.698273
-0.660322
-0.62249
-0.586087
-0.551844
-0.520067
-0.490795
-0.463916
-0.439252
-0.416598
-0.395754
-0.37653
-0.358758
-0.342281
-0.326963
-0.312693
-0.29936
-0.286764
-0.274754
-0.264292
-0.806384
-0.793708
-0.775916
-0.75005
-0.717158
-0.680063
-0.641408
-0.603179
-0.566642
-0.532466
-0.500898
-0.471925
-0.445404
-0.42113
-0.398885
-0.378458
-0.359656
-0.342302
-0.32624
-0.311332
-0.297465
-0.284525
-0.272301
-0.260649
-0.250622
-0.788872
-0.776472
-0.758223
-0.731437
-0.697559
-0.659664
-0.620502
-0.582063
-0.545563
-0.511604
-0.480371
-0.451809
-0.42574
-0.401941
-0.38018
-0.360239
-0.341919
-0.325042
-0.309448
-0.294998
-0.28158
-0.269076
-0.257263
-0.246006
-0.236448
-0.768613
-0.756539
-0.737893
-0.710295
-0.675595
-0.637093
-0.597625
-0.559165
-0.52287
-0.489272
-0.458501
-0.430457
-0.404935
-0.381694
-0.360493
-0.341106
-0.323331
-0.306987
-0.291915
-0.277974
-0.265052
-0.253027
-0.241666
-0.230845
-0.221789
-0.745599
-0.7339
-0.714925
-0.686641
-0.651293
-0.612386
-0.572813
-0.534519
-0.498593
-0.465499
-0.43531
-0.407888
-0.383006
-0.360406
-0.339838
-0.321073
-0.303905
-0.288154
-0.273658
-0.260278
-0.2479
-0.2364
-0.225534
-0.21519
-0.20667
-0.719847
-0.708572
-0.689346
-0.660511
-0.6247
-0.585593
-0.546117
-0.508171
-0.472774
-0.440319
-0.410828
-0.384131
-0.359977
-0.338097
-0.318235
-0.300159
-0.283662
-0.268562
-0.254697
-0.241929
-0.230145
-0.219218
-0.208893
-0.19907
-0.191121
-0.691399
-0.680597
-0.661205
-0.631965
-0.595882
-0.55678
-0.517599
-0.480178
-0.445461
-0.413775
-0.385094
-0.359218
-0.335877
-0.314794
-0.29571
-0.278388
-0.262623
-0.248231
-0.235053
-0.222951
-0.211812
-0.201507
-0.191771
-0.182516
-0.175171
-0.66032
-0.650038
-0.630573
-0.601082
-0.564921
-0.526029
-0.487334
-0.450608
-0.416715
-0.385921
-0.358155
-0.33319
-0.310743
-0.290531
-0.27229
-0.255786
-0.240812
-0.227188
-0.214752
-0.203369
-0.192928
-0.183296
-0.174202
-0.165564
-0.158858
-0.6267
-0.616985
-0.597545
-0.567962
-0.531917
-0.493436
-0.455411
-0.419539
-0.386607
-0.356818
-0.330064
-0.306094
-0.284617
-0.265343
-0.24801
-0.232383
-0.218258
-0.205455
-0.193817
-0.183208
-0.17352
-0.164616
-0.156219
-0.148253
-0.142222
-0.59065
-0.58155
-0.562236
-0.532722
-0.496987
-0.459109
-0.421929
-0.387063
-0.355216
-0.326538
-0.300884
-0.277987
-0.257547
-0.239273
-0.222905
-0.20821
-0.194987
-0.183059
-0.172271
-0.162491
-0.153611
-0.145493
-0.137857
-0.130626
-0.125317
-0.552305
-0.543863
-0.52478
-0.495498
-0.460261
-0.423171
-0.387001
-0.353279
-0.322633
-0.295161
-0.270687
-0.248931
-0.229587
-0.212368
-0.197014
-0.183298
-0.171025
-0.16002
-0.150133
-0.141235
-0.133221
-0.125952
-0.119147
-0.112728
-0.108199
-0.511818
-0.504077
-0.48533
-0.456441
-0.421885
-0.385757
-0.350751
-0.318299
-0.288958
-0.262776
-0.239552
-0.218995
-0.200799
-0.184678
-0.170379
-0.157682
-0.146396
-0.136356
-0.127415
-0.119449
-0.112356
-0.106002
-0.100109
-0.094596
-0.090902
-0.469361
-0.462362
-0.444056
-0.415717
-0.382015
-0.347014
-0.313311
-0.282246
-0.254302
-0.229484
-0.207569
-0.18826
-0.17125
-0.156261
-0.143046
-0.131395
-0.121124
-0.112076
-0.104114
-0.0971216
-0.0910025
-0.0856288
-0.0807382
-0.0762281
-0.0734013
-0.425124
-0.418904
-0.401142
-0.373505
-0.340822
-0.307099
-0.274828
-0.245252
-0.218786
-0.195395
-0.174839
-0.156815
-0.141021
-0.127185
-0.11507
-0.104475
-0.0952283
-0.0871844
-0.0802174
-0.0742224
-0.0691133
-0.0647762
-0.0609704
-0.0575604
-0.0556547
-0.379309
-0.373903
-0.356786
-0.329996
-0.298486
-0.26618
-0.235455
-0.207458
-0.18254
-0.16063
-0.141472
-0.124762
-0.110202
-0.097528
-0.0865141
-0.0769708
-0.0687403
-0.0616911
-0.0557146
-0.0507234
-0.0466447
-0.0433831
-0.0407438
-0.0386011
-0.0378755
-0.332134
-0.327573
-0.311196
-0.28539
-0.255195
-0.224431
-0.195356
-0.169018
-0.145708
-0.125322
-0.107593
-0.0922152
-0.0788963
-0.067381
-0.057454
-0.0489385
-0.0416921
-0.0356029
-0.0305886
-0.0265898
-0.0235535
-0.0214191
-0.0201301
-0.0197241
-0.0208025
-0.283825
-0.280137
-0.26459
-0.239896
-0.211145
-0.182037
-0.1547
-0.13009
-0.108439
-0.0896137
-0.0733376
-0.0593036
-0.0472251
-0.0368535
-0.0279821
-0.020444
-0.0141097
-0.00888765
-0.00472746
-0.00160659
0.000498249
0.00155083
0.00124522
-0.00085391
-0.00435439
-0.234618
-0.231826
-0.217194
-0.193728
-0.166538
-0.139185
-0.113665
-0.0908417
-0.0708926
-0.0536587
-0.0388546
-0.0261737
-0.0153327
-0.00608724
0.00176622
0.00839316
0.0139229
0.0184448
0.0220043
0.0246283
0.0263577
0.0270407
0.0258181
0.0218115
0.0172643
-0.184757
-0.182878
-0.169237
-0.147105
-0.121579
-0.096066
-0.0724299
-0.0514432
-0.0332326
-0.0176164
-0.0043026
0.00701453
0.0166148
0.0247398
0.0315931
0.0373449
0.0421356
0.0460755
0.0492513
0.0517769
0.0538362
0.0553564
0.0552151
0.05276
0.0566721
-0.134479
-0.13353
-0.120948
-0.100245
-0.0764725
-0.0528741
-0.0311771
-0.0120673
0.00437501
0.0183512
0.0301577
0.0400978
0.0484469
0.0554425
0.0612862
0.0661487
0.0701743
0.0734829
0.0761836
0.0784224
0.0803922
0.0820475
0.0827428
0.0829855
0.0895198
-0.0840343
-0.0840248
-0.0725638
-0.05337
-0.0314265
-0.00980157
0.00991309
0.0271147
0.041766
0.0540844
0.0643688
0.0729184
0.0800027
0.0858543
0.090671
0.0946219
0.0978518
0.100485
0.102639
0.104457
0.106102
0.107525
0.108262
0.108902
0.114803
-0.0336682
-0.034604
-0.0243148
-0.00669867
0.0133555
0.0329616
0.0506625
0.0659348
0.0787799
0.0894286
0.0981796
0.105326
0.111131
0.115819
0.119581
0.122583
0.124964
0.126847
0.128347
0.129598
0.130746
0.131751
0.132223
0.132631
0.13738
0.0163747
0.0144929
0.023569
0.0395533
0.0576728
0.0752289
0.0908973
0.10423
0.115262
0.124236
0.131448
0.137184
0.141698
0.145205
0.147889
0.149907
0.151393
0.15246
0.153215
0.153778
0.154271
0.154645
0.15455
0.15442
0.15809
0.065854
0.0630302
0.0708619
0.0851746
0.10133
0.116819
0.130449
0.141842
0.151066
0.158369
0.164043
0.168367
0.171584
0.1739
0.175488
0.176498
0.177052
0.177257
0.177208
0.17701
0.176767
0.176415
0.175633
0.174854
0.177488
0.114534
0.110777
0.117344
0.129959
0.144135
0.157557
0.169156
0.178622
0.18605
0.191694
0.195842
0.198761
0.200684
0.201806
0.202292
0.202278
0.201881
0.201195
0.200305
0.199305
0.198278
0.197154
0.195642
0.194183
0.19583
0.162185
0.157509
0.162801
0.173709
0.185907
0.197273
0.206861
0.214424
0.220081
0.224089
0.22673
0.22826
0.228901
0.228838
0.228224
0.227187
0.225832
0.224245
0.222502
0.220684
0.218861
0.216957
0.214714
0.212576
0.213281
0.208586
0.20301
0.207026
0.21623
0.226467
0.235805
0.243417
0.249113
0.253033
0.255438
0.256601
0.256767
0.256148
0.254918
0.253218
0.251168
0.248863
0.246381
0.243788
0.241157
0.238543
0.235872
0.232916
0.230116
0.229921
0.253522
0.247069
0.249822
0.257339
0.265646
0.272999
0.278681
0.282557
0.284787
0.285631
0.285354
0.284192
0.282344
0.279973
0.277212
0.27417
0.270933
0.267573
0.264147
0.26072
0.257336
0.253923
0.250283
0.246845
0.245789
0.29679
0.289487
0.290998
0.296861
0.303284
0.308706
0.312517
0.314632
0.315227
0.314562
0.312893
0.310447
0.307409
0.303934
0.300145
0.296141
0.292001
0.287789
0.283557
0.27936
0.275235
0.271113
0.266823
0.262774
0.260894
0.338193
0.330074
0.330375
0.334628
0.339227
0.342787
0.344798
0.345221
0.344247
0.342134
0.33913
0.33545
0.33127
0.326735
0.321957
0.31703
0.312023
0.306994
0.301989
0.297055
0.292225
0.28743
0.282526
0.277896
0.275231
0.377547
0.368649
0.367781
0.370484
0.373332
0.375109
0.375402
0.374213
0.371745
0.368253
0.363977
0.359123
0.353856
0.348311
0.342593
0.336785
0.330954
0.325148
0.319409
0.313777
0.308279
0.302853
0.297374
0.292193
0.288782
0.41468
0.405045
0.403058
0.40428
0.405462
0.405549
0.404216
0.401503
0.397623
0.39283
0.387354
0.381391
0.375098
0.3686
0.361994
0.355357
0.348748
0.34221
0.33578
0.329493
0.323369
0.317353
0.311338
0.305641
0.301524
0.449428
0.439101
0.436057
0.435878
0.435491
0.433991
0.431134
0.426993
0.421793
0.415782
0.409184
0.402185
0.394932
0.387543
0.380107
0.372695
0.365359
0.358139
0.351065
0.344168
0.337462
0.330899
0.324389
0.318209
0.31343
0.481642
0.470674
0.466639
0.465152
0.463303
0.460329
0.456056
0.450593
0.44417
0.437032
0.429395
0.421437
0.413296
0.405083
0.39688
0.388751
0.380744
0.372893
0.365225
0.357764
0.350523
0.343458
0.336494
0.329868
0.324472
0.511185
0.499629
0.494679
0.491984
0.488791
0.484462
0.478894
0.47222
0.464678
0.456509
0.447922
0.439086
0.430134
0.421167
0.412262
0.403479
0.394858
0.386431
0.378221
0.370247
0.362519
0.354998
0.347623
0.340588
0.334623
0.537933
0.525846
0.520062
0.51627
0.511858
0.506304
0.499565
0.491798
0.483245
0.474146
0.464702
0.455076
0.445392
0.435746
0.426209
0.416835
0.407662
0.398717
0.390019
0.381583
0.373417
0.365487
0.357742
0.350338
0.343856
0.561774
0.549216
0.542688
0.537916
0.532418
0.525774
0.517995
0.509258
0.49981
0.489886
0.479683
0.469355
0.459023
0.448774
0.438678
0.428781
0.419119
0.409715
0.400585
0.391741
0.383186
0.374896
0.366825
0.359092
0.352148
0.582612
0.569645
0.562467
0.556839
0.550395
0.542803
0.53412
0.524541
0.514316
0.503677
0.492815
0.481879
0.470984
0.460214
0.449631
0.439281
0.429195
0.419393
0.409888
0.40069
0.3918
0.383197
0.374845
0.366826
0.359477
0.600363
0.587053
0.579323
0.57297
0.565724
0.557332
0.547885
0.537596
0.526715
0.515473
0.504056
0.492608
0.481239
0.470029
0.459037
0.448305
0.437861
0.427723
0.417903
0.408406
0.399233
0.390367
0.381778
0.373517
0.365823
0.61496
0.601373
0.593194
0.58625
0.578353
0.569311
0.559246
0.548381
0.53697
0.52524
0.513373
0.50151
0.489757
0.478191
0.466867
0.455826
0.445093
0.434684
0.424607
0.414869
0.405466
0.396387
0.387606
0.379148
0.371171
0.626348
0.612554
0.604032
0.596635
0.58824
0.578701
0.568165
0.556862
0.545047
0.532946
0.520738
0.50856
0.496514
0.484677
0.473102
0.461825
0.450871
0.440254
0.429983
0.42006
0.410482
0.40124
0.392313
0.383704
0.375507
0.634488
0.620558
0.611799
0.604091
0.595354
0.585476
0.574618
0.563016
0.550926
0.538572
0.526131
0.513738
0.501493
0.489471
0.477724
0.466286
0.455181
0.444423
0.434018
0.423967
0.414269
0.404915
0.395887
0.387174
0.378823
0.639358
0.625361
0.616476
0.608599
0.599678
0.589618
0.578588
0.566828
0.554592
0.542104
0.52954
0.517033
0.504683
0.492563
0.480723
0.4692
0.458014
0.447179
0.436702
0.426583
0.416819
0.407404
0.398322
0.389552
0.381112
0.640948
0.626956
0.618054
0.610151
0.601205
0.591121
0.580071
0.568292
0.556041
0.543538
0.53096
0.518441
0.50608
0.493948
0.482098
0.470563
0.459367
0.448522
0.438034
0.427905
0.41813
0.408705
0.399614
0.390835
0.382373
0.639266
0.625349
0.616541
0.608755
0.59994
0.589991
0.57907
0.567414
0.555276
0.542878
0.530396
0.517966
0.505686
0.49363
0.481849
0.470379
0.459242
0.448452
0.438015
0.427933
0.418203
0.408818
0.399765
0.391024
0.382607
0.634333
0.620562
0.611955
0.604428
0.595901
0.586243
0.575602
0.564207
0.55231
0.540135
0.527859
0.515618
0.503513
0.491618
0.479986
0.468655
0.457647
0.446977
0.436652
0.426675
0.417044
0.40775
0.39878
0.390124
0.381817
0.626187
0.612631
0.604331
0.597202
0.589117
0.579904
0.56969
0.558694
0.547166
0.535331
0.523367
0.511414
0.499576
0.487927
0.476524
0.465405
0.454594
0.444109
0.433958
0.424143
0.414664
0.405511
0.396669
0.388145
0.380012
0.61488
0.601607
0.593719
0.587122
0.57963
0.571014
0.56137
0.550908
0.539874
0.528493
0.516948
0.505381
0.493899
0.48258
0.471483
0.460649
0.450104
0.439867
0.429947
0.420351
0.411078
0.402115
0.393446
0.385099
0.377205
0.600479
0.587556
0.580178
0.574246
0.567492
0.559619
0.550688
0.540891
0.530472
0.519658
0.508635
0.49755
0.486512
0.475606
0.464891
0.454412
0.444199
0.434272
0.424643
0.415321
0.406306
0.397582
0.38913
0.381004
0.373409
0.583065
0.570555
0.563784
0.558641
0.552767
0.54578
0.537697
0.528694
0.519009
0.508871
0.49847
0.487959
0.477452
0.467037
0.456779
0.446725
0.436909
0.427353
0.418072
0.409077
0.400371
0.391935
0.383742
0.37588
0.368643
0.562735
0.5507
0.544625
0.540392
0.53553
0.529565
0.522463
0.514376
0.505539
0.496182
0.486502
0.476655
0.466761
0.456915
0.447186
0.437624
0.428266
0.41914
0.410262
0.401647
0.393301
0.385198
0.377308
0.369752
0.362929
0.539598
0.528097
0.522803
0.51959
0.515868
0.511055
0.505058
0.498006
0.490127
0.481652
0.472785
0.463688
0.454488
0.445285
0.436153
0.427147
0.418309
0.409669
0.401249
0.393065
0.385126
0.377403
0.369856
0.362645
0.356289
0.513779
0.502866
0.498431
0.496341
0.493877
0.490338
0.485565
0.47966
0.472842
0.465347
0.457381
0.449116
0.440686
0.432196
0.423727
0.41534
0.40708
0.398981
0.391068
0.383365
0.37588
0.368581
0.361419
0.35459
0.348752
0.485414
0.475141
0.471634
0.470762
0.469666
0.467513
0.464075
0.459422
0.453763
0.447337
0.440357
0.433002
0.425414
0.417704
0.40996
0.402249
0.394622
0.387116
0.379761
0.372584
0.365599
0.358768
0.352029
0.345618
0.340345
0.454652
0.445067
0.442551
0.44298
0.443349
0.442687
0.440687
0.437383
0.432975
0.427703
0.421787
0.415414
0.408734
0.401867
0.394907
0.387927
0.380983
0.374119
0.367368
0.360762
0.35432
0.347998
0.341721
0.335763
0.331099
0.421655
0.412801
0.411331
0.413134
0.415056
0.415977
0.415508
0.413642
0.410569
0.406528
0.401748
0.396423
0.390713
0.384746
0.378623
0.372425
0.366213
0.360035
0.353931
0.347939
0.342081
0.336308
0.330531
0.325057
0.321043
0.386596
0.378513
0.378132
0.38137
0.38492
0.387508
0.388652
0.388305
0.386642
0.383902
0.380323
0.376106
0.371422
0.366407
0.36117
0.355799
0.350361
0.344912
0.339495
0.334154
0.328917
0.323733
0.318492
0.313532
0.310206
0.349659
0.342383
0.343126
0.347847
0.353088
0.357412
0.360241
0.361483
0.361296
0.359921
0.357599
0.354545
0.350936
0.346918
0.342609
0.338104
0.333479
0.328794
0.324099
0.319444
0.314865
0.310304
0.305633
0.301217
0.298615
0.311039
0.3046
0.306493
0.312732
0.319712
0.325829
0.330405
0.333295
0.334642
0.334683
0.333669
0.331821
0.329329
0.326347
0.323002
0.319398
0.315617
0.311726
0.307782
0.303844
0.299951
0.296047
0.29198
0.288134
0.286291
0.270941
0.265364
0.268422
0.276201
0.284954
0.292908
0.299277
0.303865
0.306792
0.308295
0.308628
0.308024
0.306682
0.304767
0.302414
0.299735
0.296822
0.293749
0.290579
0.287379
0.2842
0.280981
0.277547
0.274295
0.273245
0.229577
0.224884
0.229111
0.238438
0.248983
0.258803
0.267001
0.273323
0.277867
0.280864
0.282577
0.283245
0.283078
0.282251
0.280909
0.279173
0.277143
0.274901
0.272519
0.270071
0.267621
0.265109
0.262333
0.259695
0.259472
0.187169
0.183376
0.188767
0.199634
0.211976
0.223676
0.233724
0.241806
0.247991
0.252507
0.25562
0.257579
0.258603
0.258877
0.258556
0.257769
0.256625
0.255217
0.253623
0.251929
0.250211
0.248416
0.246312
0.244303
0.244945
0.143945
0.141065
0.147603
0.159989
0.174114
0.187695
0.199601
0.209455
0.217296
0.223344
0.227869
0.231128
0.233349
0.234727
0.235425
0.235582
0.235317
0.23473
0.233909
0.232953
0.231953
0.230864
0.229429
0.228048
0.229593
0.10014
0.0981793
0.105838
0.119707
0.135589
0.151034
0.164793
0.176418
0.185918
0.193502
0.199441
0.204
0.207414
0.209888
0.211595
0.21268
0.21327
0.213474
0.21339
0.21313
0.212802
0.212375
0.211567
0.210783
0.213275
0.0559942
0.0549551
0.0636978
0.0789992
0.0965948
0.113873
0.129465
0.142849
0.154
0.163113
0.17046
0.176309
0.180906
0.184461
0.187154
0.189139
0.190548
0.191497
0.192092
0.192459
0.192726
0.192869
0.192576
0.192287
0.195758
0.0117498
0.0116307
0.0214109
0.0380808
0.0573306
0.076396
0.0937875
0.108908
0.121692
0.132319