/*--------------------------------*- C++ -*----------------------------------*\
  =========                 |
  \\      /  F ield         | OpenFOAM: The Open Source CFD Toolbox
   \\    /   O peration     | Website:  https://openfoam.org
    \\  /    A nd           | Version:  6.0
     \\/     M anipulation  |
\*---------------------------------------------------------------------------*/
FoamFile
{
    version     2.0;
    format      ascii;
    class       volVectorField;
    location    "97";
    object      U;
}
// * * * * * * * * * * * * * * * * * * * * * * * * * * * * * * * * * * * * * //

dimensions      [0 1 -1 0 0 0 0];

internalField   nonuniform List<vector> 
12500
(
(-0.00149513 0.0293017 -1.33767e-21)
(-0.00653797 0.0613153 2.0854e-20)
(-0.0150957 0.0741075 -3.05745e-20)
(-0.0253467 0.0732664 1.4131e-20)
(-0.0363988 0.0630837 7.94403e-22)
(-0.047771 0.0467522 -1.65445e-21)
(-0.0591002 0.0265677 -2.61153e-20)
(-0.0701175 0.00412351 1.43689e-20)
(-0.080623 -0.019511 9.67584e-21)
(-0.0904603 -0.0436368 9.76154e-21)
(-0.0995021 -0.0678023 -1.66753e-20)
(-0.107644 -0.0917119 9.68891e-21)
(-0.114799 -0.115164 -4.59158e-21)
(-0.120898 -0.138014 7.84338e-21)
(-0.125889 -0.160153 -1.99736e-20)
(-0.129736 -0.181507 2.85761e-20)
(-0.13242 -0.202028 -5.2962e-21)
(-0.133942 -0.22171 -2.04638e-20)
(-0.134325 -0.240585 1.06547e-20)
(-0.133614 -0.258739 -1.01346e-20)
(-0.131876 -0.276308 8.94503e-21)
(-0.129193 -0.293485 1.15403e-20)
(-0.125717 -0.31052 1.24811e-21)
(-0.121753 -0.327779 -3.33953e-20)
(-0.117265 -0.345736 1.88244e-20)
(-0.00249065 0.0316293 2.74189e-20)
(-0.00862984 0.0669909 -7.28165e-20)
(-0.0176825 0.0821268 2.13351e-20)
(-0.0280684 0.0828911 1.45081e-20)
(-0.0390454 0.0737564 -1.15617e-20)
(-0.0502256 0.058045 -6.6678e-20)
(-0.0613025 0.0381441 1.97867e-20)
(-0.0720399 0.0157088 -3.80717e-20)
(-0.0822543 -0.00815122 4.55305e-20)
(-0.0917962 -0.0327103 -6.088e-20)
(-0.100539 -0.0574987 3.24171e-20)
(-0.108374 -0.0822065 1.09913e-20)
(-0.115208 -0.10662 -2.66924e-20)
(-0.120963 -0.130581 -1.15834e-20)
(-0.125577 -0.153967 8.66797e-20)
(-0.129003 -0.176682 -7.70285e-20)
(-0.131213 -0.198659 1.86925e-20)
(-0.132199 -0.21986 3.1983e-20)
(-0.131979 -0.240284 -6.63529e-21)
(-0.130596 -0.259974 5.05932e-20)
(-0.128115 -0.27902 9.49537e-21)
(-0.124627 -0.297558 -4.07902e-21)
(-0.120333 -0.315785 -6.46192e-20)
(-0.115635 -0.334004 5.87084e-20)
(-0.110245 -0.35258 -1.20978e-19)
(-0.00359269 0.0338343 8.96183e-20)
(-0.010906 0.0724728 3.03863e-20)
(-0.0203822 0.0899869 -4.10454e-20)
(-0.0307502 0.0924441 1.80838e-20)
(-0.0414494 0.0844635 1.61224e-20)
(-0.0522007 0.0694779 6.28547e-20)
(-0.0627652 0.0499571 -8.07637e-20)
(-0.0729459 0.0276143 -1.40039e-20)
(-0.0825812 0.00359896 -5.50866e-20)
(-0.0915317 -0.0213367 -4.61034e-20)
(-0.0996744 -0.0467044 5.85185e-20)
(-0.1069 -0.0721811 -1.99496e-19)
(-0.113112 -0.0975418 -7.12857e-21)
(-0.118226 -0.122617 -1.21291e-19)
(-0.122172 -0.14727 -1.45009e-20)
(-0.124896 -0.171388 1.66429e-20)
(-0.126362 -0.194879 -9.52405e-20)
(-0.126555 -0.217672 -5.97132e-20)
(-0.12549 -0.239727 -6.99661e-20)
(-0.12321 -0.261037 1.08974e-19)
(-0.119785 -0.281634 3.9108e-20)
(-0.115311 -0.30159 -1.79507e-19)
(-0.110042 -0.321037 -8.5638e-20)
(-0.104466 -0.340206 -9.62563e-20)
(-0.0980942 -0.359335 2.73942e-19)
(-0.00478305 0.0358387 -1.64696e-21)
(-0.0133291 0.0775882 -7.11903e-20)
(-0.0231443 0.0974678 -3.63458e-20)
(-0.0333306 0.101683 2.30237e-20)
(-0.0435383 0.0949563 1.36402e-19)
(-0.0536123 0.0808056 -6.09084e-20)
(-0.0633917 0.0617707 1.325e-19)
(-0.0727264 0.0396176 1.27923e-19)
(-0.0814815 0.015534 7.7756e-20)
(-0.0895325 -0.00970122 -7.31161e-22)
(-0.0967635 -0.0355814 1.58853e-19)
(-0.103068 -0.0617707 2.80856e-20)
(-0.108349 -0.0880342 1.228e-19)
(-0.112521 -0.114193 2.85244e-19)
(-0.11551 -0.140098 -3.31915e-19)
(-0.117257 -0.165619 5.01503e-19)
(-0.117721 -0.19064 1.09363e-19)
(-0.116885 -0.215057 -2.43733e-19)
(-0.114763 -0.238786 -3.35574e-20)
(-0.111401 -0.261764 8.66337e-20)
(-0.106871 -0.283955 -4.49251e-20)
(-0.101282 -0.305358 -2.79003e-20)
(-0.0949325 -0.326027 -2.63928e-20)
(-0.0883911 -0.346113 -1.04064e-19)
(-0.081031 -0.365709 3.84235e-19)
(-0.00603615 0.0375657 4.86881e-20)
(-0.0158493 0.0821666 -2.31596e-19)
(-0.0259102 0.104346 2.8421e-19)
(-0.0357478 0.110359 -1.12963e-19)
(-0.0452483 0.104977 1.38017e-19)
(-0.0543943 0.0917716 1.14798e-19)
(-0.063113 0.0733371 4.40036e-20)
(-0.0713084 0.0514844 4.43927e-21)
(-0.0788782 0.0274372 2.49036e-19)
(-0.0857168 0.00200086 1.75108e-19)
(-0.0917202 -0.0242993 -6.80072e-20)
(-0.0967886 -0.0511149 -4.48889e-20)
(-0.100829 -0.0782018 1.93419e-19)
(-0.103759 -0.105373 3.6057e-20)
(-0.105503 -0.13247 1.01556e-19)
(-0.106005 -0.159347 2.39862e-19)
(-0.105221 -0.185865 -2.03807e-19)
(-0.103137 -0.211888 1.63104e-19)
(-0.0997661 -0.237285 -3.60009e-19)
(-0.0951592 -0.261934 3.02052e-19)
(-0.0893957 -0.285726 2.26905e-21)
(-0.0825967 -0.308574 -2.42548e-19)
(-0.0750961 -0.330442 9.49673e-20)
(-0.0675358 -0.351393 2.17656e-19)
(-0.0592182 -0.371357 -3.37939e-19)
(-0.00731999 0.038945 2.55954e-19)
(-0.0184064 0.0860454 -2.82218e-19)
(-0.028615 0.110405 -4.35045e-20)
(-0.0379412 0.118226 5.91539e-20)
(-0.0465267 0.114265 -1.25231e-19)
(-0.0545018 0.102114 -1.95368e-19)
(-0.0618908 0.0844012 -1.65469e-19)
(-0.0686594 0.0629718 -4.01109e-20)
(-0.074743 0.039082 -2.86245e-19)
(-0.0800605 0.0135637 2.3647e-19)
(-0.0845235 -0.013039 -3.62273e-19)
(-0.0880435 -0.0403644 1.86942e-19)
(-0.0905365 -0.0681599 -5.83004e-20)
(-0.0919255 -0.0962314 1.43603e-19)
(-0.0921432 -0.124413 -3.63826e-19)
(-0.0911355 -0.152546 1.81965e-19)
(-0.0888657 -0.180472 1.59226e-20)
(-0.0853206 -0.208025 7.94272e-20)
(-0.0805187 -0.235029 4.80814e-19)
(-0.0745165 -0.261303 1.09293e-19)
(-0.0674008 -0.28666 -8.16859e-21)
(-0.0593046 -0.310918 3.07251e-20)
(-0.0505892 -0.333944 1.99198e-19)
(-0.0419581 -0.355692 5.82923e-20)
(-0.0327142 -0.375922 1.95024e-19)
(-0.00859752 0.0399173 -1.59099e-19)
(-0.0209321 0.0890809 2.3501e-19)
(-0.0311893 0.115445 1.55558e-20)
(-0.039854 0.125048 -2.92385e-19)
(-0.0473332 0.122568 6.25316e-19)
(-0.0539121 0.111575 -2.02031e-19)
(-0.0597195 0.0947059 3.00445e-19)
(-0.0647891 0.0738304 2.76048e-19)
(-0.0691001 0.0502323 -2.28753e-19)
(-0.0726001 0.0247684 -3.38144e-19)
(-0.0752212 -0.00199713 9.36173e-20)
(-0.0768906 -0.0296888 -1.00103e-19)
(-0.0775371 -0.0580449 -4.43369e-19)
(-0.0770952 -0.0868652 5.4737e-19)
(-0.0755079 -0.115977 -2.64059e-19)
(-0.0727308 -0.145215 -1.8168e-19)
(-0.0687355 -0.174403 5.27002e-21)
(-0.0635159 -0.20335 1.54261e-19)
(-0.0570969 -0.231842 6.12806e-20)
(-0.0495413 -0.25964 -2.41217e-19)
(-0.0409444 -0.286482 2.81109e-19)
(-0.0314491 -0.312087 -4.78347e-19)
(-0.0214333 -0.336211 2.94787e-19)
(-0.0116504 -0.358683 -2.19636e-19)
(-0.00147511 -0.379088 6.67496e-20)
(-0.00982889 0.0404379 2.40843e-19)
(-0.0233531 0.0911557 -1.92005e-19)
(-0.0335634 0.119294 -1.22186e-19)
(-0.0414351 0.130615 -2.18475e-19)
(-0.0476419 0.12965 -4.00673e-19)
(-0.0526265 0.119904 -2.97639e-19)
(-0.056627 0.103997 1.89963e-19)
(-0.0597508 0.0838088 -2.89782e-19)
(-0.0620261 0.060644 3.69799e-19)
(-0.0634343 0.0353831 -6.07781e-19)
(-0.063932 0.00861074 2.73036e-19)
(-0.0634661 -0.0192824 5.81143e-19)
(-0.0619823 -0.0480243 -8.23785e-19)
(-0.0594303 -0.0774087 1.18993e-19)
(-0.0557677 -0.107259 1.56807e-19)
(-0.0509634 -0.137402 1.49857e-19)
(-0.0450009 -0.167653 -1.59414e-19)
(-0.0378845 -0.197802 -3.69146e-20)
(-0.0296474 -0.227605 -1.22848e-19)
(-0.0203594 -0.256774 -9.84587e-20)
(-0.010124 -0.284975 -5.49951e-19)
(0.000907681 -0.311832 -3.73243e-20)
(0.0123521 -0.336979 6.69299e-21)
(0.0234198 -0.360108 -2.43794e-19)
(0.034593 -0.380612 2.63588e-19)
(-0.0109739 0.0404804 8.42745e-21)
(-0.0255955 0.0921858 7.83652e-20)
(-0.0356694 0.121813 8.3811e-20)
(-0.0426414 0.134746 4.63558e-20)
(-0.047442 0.135299 4.13389e-19)
(-0.0506691 0.126869 3.94295e-19)
(-0.0526727 0.11203 -3.21174e-19)
(-0.0536383 0.0926576 -1.01742e-19)
(-0.0536477 0.0700687 -8.94232e-20)
(-0.0527205 0.0451645 4.63773e-19)
(-0.0508419 0.0185503 1.71317e-19)
(-0.047982 -0.00936641 -2.44952e-19)
(-0.0441063 -0.0383021 -2.12735e-19)
(-0.0391829 -0.0680432 5.13392e-19)
(-0.0331867 -0.0984089 -1.27565e-19)
(-0.0261025 -0.129224 -1.57174e-19)
(-0.0179289 -0.160297 -2.18427e-19)
(-0.00868245 -0.191409 -1.71918e-19)
(0.00159368 -0.222294 -2.20374e-19)
(0.0128219 -0.252629 -1.42118e-19)
(0.0248911 -0.28202 5.92106e-19)
(0.0376427 -0.310002 -2.9329e-19)
(0.0506978 -0.336085 1.96826e-19)
(0.0632449 -0.359804 -5.16751e-19)
(0.0755542 -0.380356 2.199e-19)
(-0.0119945 0.0400383 -2.2144e-19)
(-0.0275891 0.0921265 -6.11969e-20)
(-0.0374457 0.122911 -4.71211e-19)
(-0.0434389 0.137301 -2.29382e-19)
(-0.0467367 0.139336 -4.52988e-19)
(-0.0480847 0.132261 -4.7979e-20)
(-0.0479441 0.118578 2.47033e-19)
(-0.0465811 0.100137 -1.54366e-19)
(-0.0441351 0.0782593 3.32073e-19)
(-0.0406677 0.0538623 -8.16068e-19)
(-0.0361965 0.0275714 -2.61847e-20)
(-0.0307172 -0.000188039 1.47299e-19)
(-0.0242177 -0.0291191 -1.88153e-19)
(-0.0166861 -0.0589998 1.73988e-19)
(-0.00811612 -0.0896448 -1.35159e-19)
(0.00148982 -0.120877 -2.91476e-19)
(0.0121172 -0.152506 5.31855e-19)
(0.0237352 -0.184307 3.30944e-19)
(0.0362899 -0.216006 -7.03022e-20)
(0.0496954 -0.247258 2.19261e-19)
(0.0638319 -0.277628 -4.32636e-19)
(0.0785338 -0.306574 6.17568e-19)
(0.0934339 -0.333487 -8.41841e-19)
(0.107714 -0.357733 1.71544e-19)
(0.121365 -0.378301 -3.30038e-19)
(-0.0128579 0.0391257 1.24793e-20)
(-0.0292714 0.0909747 -2.11973e-19)
(-0.0388391 0.122541 3.08585e-19)
(-0.043804 0.138189 6.38855e-19)
(-0.0455423 0.141625 -1.23337e-20)
(-0.0449347 0.13591 7.36446e-20)
(-0.0425496 0.123441 -2.83243e-19)
(-0.0387349 0.106025 1.30289e-19)
(-0.0336904 0.0849777 9.30474e-19)
(-0.0275229 0.0612267 -2.11596e-19)
(-0.020285 0.0354152 -2.56829e-19)
(-0.0120005 0.0079866 9.72182e-19)
(-0.0026806 -0.0207471 3.24958e-19)
(0.00766558 -0.0505537 1.55796e-19)
(0.0190255 -0.0812425 1.61995e-19)
(0.0313789 -0.112635 4.37309e-19)
(0.044695 -0.144543 -1.67561e-19)
(0.0589285 -0.176744 4.52591e-19)
(0.0740136 -0.208965 6.10076e-19)
(0.0898552 -0.240855 -5.162e-19)
(0.106324 -0.271954 7.67131e-19)
(0.123245 -0.301669 2.72034e-19)
(0.140266 -0.329283 -1.02946e-18)
(0.156576 -0.353982 1.48386e-18)
(0.171828 -0.374544 -1.23536e-18)
(-0.0135381 0.0377766 -5.84319e-19)
(-0.0305918 0.08877 3.2478e-19)
(-0.0398084 0.120712 -2.20756e-19)
(-0.0437234 0.137369 -2.0899e-19)
(-0.0438846 0.142081 -2.31378e-19)
(-0.0412903 0.137684 -2.51927e-19)
(-0.0366091 0.126451 6.74322e-20)
(-0.030269 0.110126 6.70171e-19)
(-0.0225315 0.0900046 -1.40725e-19)
(-0.0135512 0.0670182 -3.79902e-19)
(-0.00341748 0.0418243 -2.36728e-19)
(0.00781649 0.0148837 -9.66209e-20)
(0.0201153 -0.0134761 2.98197e-19)
(0.0334496 -0.0430111 -1.87356e-19)
(0.0477883 -0.0735234 -6.19982e-19)
(0.0630945 -0.104833 -6.91243e-19)
(0.0793219 -0.136752 2.77771e-19)
(0.0964105 -0.169067 -5.16493e-19)
(0.114282 -0.201512 4.53553e-19)
(0.132831 -0.233741 -1.27597e-18)
(0.151915 -0.265294 9.77608e-19)
(0.171348 -0.295548 -1.28691e-18)
(0.190789 -0.323699 -1.95724e-20)
(0.209449 -0.348757 -4.19848e-19)
(0.226595 -0.369283 1.28381e-18)
(-0.0140187 0.0360424 9.00077e-19)
(-0.0315147 0.0855922 1.37328e-19)
(-0.0403259 0.117483 -9.16705e-20)
(-0.0431939 0.134859 -3.75615e-20)
(-0.0417953 0.14067 7.19707e-19)
(-0.0372252 0.137505 2.38297e-19)
(-0.0302421 0.127487 2.1955e-19)
(-0.0213501 0.112282 -1.75697e-19)
(-0.0108721 0.0931505 6.88136e-19)
(0.000988692 0.07102 -3.40357e-19)
(0.0141048 0.0465568 2.18993e-19)
(0.0283932 0.0202367 5.73876e-19)
(0.0437946 -0.00759726 -3.26915e-19)
(0.0602599 -0.0366884 3.61065e-19)
(0.0777414 -0.0668301 3.43789e-19)
(0.0961864 -0.0978381 1.17461e-19)
(0.115534 -0.129527 -2.92492e-19)
(0.13571 -0.161689 8.14077e-19)
(0.156622 -0.194069 -7.48734e-20)
(0.17815 -0.22634 -8.38906e-20)
(0.20014 -0.258052 9.76019e-19)
(0.222382 -0.288583 -6.87145e-19)
(0.244546 -0.317067 1.15617e-18)
(0.265876 -0.342352 -9.44159e-19)
(0.285218 -0.362784 1.25412e-18)
(-0.0142931 0.033989 -4.40618e-19)
(-0.032022 0.0815561 1.01918e-19)
(-0.0403785 0.112961 -1.07634e-19)
(-0.0422202 0.130733 -5.01197e-19)
(-0.0393068 0.13742 2.93245e-20)
(-0.0328064 0.13535 2.92926e-19)
(-0.0235542 0.126481 -1.19558e-18)
(-0.012124 0.112381 9.03154e-19)
(0.00110224 0.0942673 -8.86026e-19)
(0.0158734 0.0730508 -5.65252e-19)
(0.0320239 0.049401 5.14188e-19)
(0.0494411 0.0238046 -1.12835e-18)
(0.0680427 -0.00338153 9.59196e-19)
(0.087761 -0.0318877 -3.0503e-19)
(0.108532 -0.0614972 -8.86071e-19)
(0.13029 -0.0920194 2.20032e-19)
(0.152958 -0.123268 -2.06443e-19)
(0.176447 -0.155039 7.84972e-20)
(0.200649 -0.187091 -2.82067e-19)
(0.225426 -0.219114 -9.39026e-19)
(0.250602 -0.250686 2.11193e-19)
(0.275942 -0.281203 2.36791e-21)
(0.30111 -0.309777 -9.51536e-19)
(0.325402 -0.335105 6.70757e-19)
(0.34723 -0.355336 -5.8285e-19)
(-0.0143656 0.0316922 1.7983e-19)
(-0.0321133 0.0768048 3.4328e-19)
(-0.0399676 0.107299 4.79661e-19)
(-0.0408132 0.125117 2.49898e-19)
(-0.0364466 0.132415 -2.458e-19)
(-0.0280844 0.131257 5.91493e-19)
(-0.0166224 0.123421 4.43233e-19)
(-0.00269582 0.110369 -1.59068e-19)
(0.0132591 0.09326 5.8777e-19)
(0.0309458 0.0729794 -6.08363e-19)
(0.0501621 0.0501917 -1.80288e-19)
(0.0707668 0.02539 1.84061e-19)
(0.0926554 -0.00105782 3.72694e-19)
(0.115743 -0.0288699 3.74309e-21)
(0.13995 -0.0578186 2.41541e-19)
(0.165195 -0.0877048 4.47537e-19)
(0.191386 -0.118337 -7.65486e-19)
(0.218415 -0.149513 9.5583e-19)
(0.246151 -0.181 3.24192e-19)
(0.274435 -0.212504 1.1247e-19)
(0.303061 -0.243636 -1.16149e-18)
(0.331757 -0.273831 1.66828e-19)
(0.360172 -0.302205 2.53084e-19)
(0.387659 -0.327338 -5.61178e-20)
(0.412221 -0.347195 2.84267e-19)
(-0.0142505 0.0292331 1.51452e-20)
(-0.0318055 0.0715007 -8.8471e-19)
(-0.0391072 0.10068 -2.00682e-20)
(-0.0389856 0.118182 -2.252e-19)
(-0.0332308 0.125795 -1.49186e-18)
(-0.0230825 0.125322 1.29918e-18)
(-0.00948073 0.11836 -9.31813e-19)
(0.00688949 0.106256 -4.63368e-20)
(0.0255443 0.0900971 -4.50745e-19)
(0.0461457 0.0707367 7.8777e-19)
(0.0684578 0.048826 -8.56461e-19)
(0.0923126 0.0248585 -4.06084e-19)
(0.117584 -0.000790605 8.83555e-21)
(0.14417 -0.0278287 -8.99306e-19)
(0.171975 -0.0560167 1.23411e-18)
(0.200898 -0.0851451 -1.4421e-18)
(0.230828 -0.115014 1.93586e-21)
(0.261631 -0.145418 2.23181e-19)
(0.293146 -0.176126 -5.59722e-19)
(0.32518 -0.206859 5.41733e-19)
(0.357487 -0.237257 -7.7098e-19)
(0.389751 -0.266803 -5.03594e-19)
(0.421585 -0.294651 9.31534e-19)
(0.452412 -0.319293 -1.00879e-18)
(0.479885 -0.338533 -1.66219e-20)
(-0.0139707 0.0266929 -7.27823e-19)
(-0.0311303 0.065815 8.61935e-19)
(-0.037821 0.0933119 -2.66769e-19)
(-0.0367478 0.110136 5.17004e-19)
(-0.0296569 0.117747 5.60965e-19)
(-0.0177875 0.1177 -4.97679e-19)
(-0.00210596 0.111415 -3.35765e-19)
(0.0166654 0.100117 -4.04916e-19)
(0.0380038 0.0848181 3.72334e-19)
(0.0615358 0.0663278 -2.50681e-20)
(0.0869956 0.0452777 5.55221e-19)
(0.11419 0.0221557 5.53277e-19)
(0.142973 -0.00265923 -6.70932e-19)
(0.173221 -0.0288659 1.32734e-18)
(0.204819 -0.0562139 -8.88395e-19)
(0.237642 -0.0844815 -1.55184e-19)
(0.271549 -0.113458 1.7549e-18)
(0.306369 -0.142928 -8.15609e-19)
(0.341899 -0.172658 5.20863e-19)
(0.377897 -0.202378 1.01642e-18)
(0.414067 -0.231752 -6.60193e-19)
(0.450035 -0.260315 7.09123e-20)
(0.485363 -0.287281 -4.34122e-20)
(0.519549 -0.311088 -2.58762e-19)
(0.55 -0.329397 4.99778e-19)
(-0.0135558 0.0241486 1.67716e-19)
(-0.0301302 0.0599181 -5.48019e-19)
(-0.0361367 0.0854121 3.02393e-19)
(-0.0341021 0.101213 -3.44257e-21)
(-0.0256971 0.108497 2.29298e-19)
(-0.0121402 0.108598 -3.97849e-19)
(0.00559361 0.102764 2.2884e-19)
(0.0267579 0.0921001 6.29665e-19)
(0.0508012 0.0775387 -2.10315e-20)
(0.0773218 0.0598399 -3.30301e-19)
(0.106027 0.0396087 3.3476e-19)
(0.136702 0.0173224 -5.97046e-21)
(0.169175 -0.00664009 -1.08217e-18)
(0.203299 -0.0319709 4.02442e-19)
(0.23893 -0.0584088 8.91423e-20)
(0.275908 -0.0857189 -1.59909e-19)
(0.314048 -0.113677 -2.88689e-19)
(0.353127 -0.142055 1.10351e-18)
(0.392882 -0.170612 2.68299e-19)
(0.433007 -0.199079 -5.79135e-19)
(0.47314 -0.22714 -6.90428e-20)
(0.512837 -0.254381 7.87313e-19)
(0.5516 -0.280091 -3.69359e-19)
(0.589 -0.302692 1.5395e-19)
(0.622347 -0.319703 1.0466e-19)
(-0.013039 0.0216681 -3.35201e-19)
(-0.0288527 0.0539691 3.43492e-19)
(-0.0340807 0.0771959 -1.94458e-19)
(-0.0310355 0.0916574 -6.28245e-19)
(-0.0212911 0.0982989 -5.81558e-19)
(-0.00602768 0.098261 -2.60266e-19)
(0.0137865 0.092638 -2.17077e-19)
(0.0373949 0.0824178 -6.46813e-19)
(0.0642272 0.0684516 -2.64483e-19)
(0.09386 0.0514465 2.43223e-19)
(0.125978 0.0319767 -3.49295e-19)
(0.16034 0.0105048 -3.71462e-19)
(0.196748 -0.0125938 -3.53225e-19)
(0.235019 -0.0370063 6.51455e-19)
(0.274967 -0.0624612 -1.37113e-18)
(0.31638 -0.0887103 7.91966e-19)
(0.359008 -0.115514 -1.35754e-18)
(0.402559 -0.142632 -2.09649e-19)
(0.446688 -0.169812 -7.5002e-19)
(0.491007 -0.196784 -1.73445e-19)
(0.535076 -0.223246 -2.13242e-19)
(0.578377 -0.24883 -7.06274e-19)
(0.620343 -0.272916 -7.21024e-20)
(0.660611 -0.293938 4.22055e-19)
(0.696578 -0.309265 -1.08284e-18)
(-0.012454 0.0193073 2.88791e-19)
(-0.0273441 0.0481074 3.90151e-19)
(-0.0316698 0.0688643 1.36658e-18)
(-0.0275138 0.0817103 -2.41724e-19)
(-0.0163404 0.0874176 5.77386e-19)
(0.000720627 0.0869663 1.38539e-18)
(0.0227214 0.0813143 -3.79881e-19)
(0.0489068 0.071342 5.18558e-19)
(0.0786972 0.0578217 3.04544e-19)
(0.111652 0.0414065 5.58182e-19)
(0.147433 0.022637 -1.12974e-19)
(0.185768 0.00195811 7.66308e-20)
(0.22642 -0.0202601 -2.05342e-19)
(0.269158 -0.0437017 1.09612e-18)
(0.313731 -0.0680865 1.3979e-19)
(0.359853 -0.0931536 1.03317e-18)
(0.407188 -0.11865 -2.65698e-19)
(0.455346 -0.144321 9.54077e-19)
(0.503886 -0.169908 1.33365e-19)
(0.552321 -0.195138 4.83429e-19)
(0.600124 -0.219724 -2.05813e-19)
(0.646705 -0.243339 -3.15008e-20)
(0.69143 -0.265458 1.13422e-18)
(0.733996 -0.284568 6.82904e-19)
(0.772082 -0.297849 -2.8186e-19)
(-0.011831 0.0171071 -6.97068e-19)
(-0.0256424 0.042446 -7.28659e-19)
(-0.0289048 0.0605938 -7.65004e-19)
(-0.023475 0.0715996 2.82669e-19)
(-0.0107045 0.0761184 -5.70226e-19)
(0.0083343 0.0750045 -8.55097e-20)
(0.0327235 0.0691008 -2.26763e-19)
(0.0617188 0.0591921 -9.50046e-19)
(0.0947361 0.0459769 -1.51326e-19)
(0.131319 0.0300557 2.47621e-19)
(0.1711 0.0119353 -7.85285e-19)
(0.213767 -0.0079585 1.09602e-18)
(0.259026 -0.0292629 -1.5011e-18)
(0.306572 -0.0516609 3.64703e-19)
(0.356067 -0.0748653 -9.31188e-19)
(0.407121 -0.0986052 -7.61442e-19)
(0.459286 -0.122617 -4.39461e-20)
(0.512055 -0.14664 -1.15277e-19)
(0.564871 -0.170409 9.18264e-20)
(0.617141 -0.193657 -4.36967e-19)
(0.668253 -0.216111 -3.00249e-19)
(0.717555 -0.237488 3.66288e-19)
(0.764367 -0.257358 -1.0114e-18)
(0.808432 -0.274297 3.26044e-19)
(0.847894 -0.285245 2.16872e-19)
(-0.011194 0.0150921 -1.23127e-19)
(-0.0237708 0.0370663 -2.10757e-19)
(-0.0257635 0.052528 8.27502e-19)
(-0.018825 0.0615267 3.08939e-19)
(-0.00420025 0.0646519 4.11508e-19)
(0.0170971 0.0626667 -5.53038e-19)
(0.044184 0.0563216 9.8737e-22)
(0.0763305 0.0463193 -4.5481e-19)
(0.112949 0.0332925 8.45039e-19)
(0.15356 0.0177927 2.79331e-19)
(0.197757 0.000293707 3.18464e-19)
(0.245166 -0.0187979 -1.26102e-18)
(0.295411 -0.0391284 1.57081e-18)
(0.348086 -0.0603819 -4.7191e-19)
(0.402733 -0.082268 -3.40209e-19)
(0.45883 -0.104511 1.02791e-18)
(0.515792 -0.126844 4.61022e-19)
(0.572979 -0.149005 -1.16712e-18)
(0.629709 -0.170735 -4.85001e-19)
(0.685288 -0.191782 1.46903e-18)
(0.739031 -0.211895 -1.11394e-18)
(0.790253 -0.230834 6.70814e-19)
(0.838258 -0.248272 3.67377e-19)
(0.88284 -0.262902 -4.73375e-19)
(0.922725 -0.271349 -4.36362e-19)
(-0.010557 0.0132706 -4.53059e-19)
(-0.0217318 0.0320165 7.30914e-19)
(-0.0221961 0.0447732 3.12272e-19)
(-0.0134362 0.0516587 -4.53363e-19)
(0.00339467 0.0532431 -7.27794e-20)
(0.0273367 0.0502302 -4.80078e-19)
(0.05754 0.0433004 -1.92399e-19)
(0.093286 0.0330891 2.18358e-19)
(0.133975 0.0201721 -5.40173e-20)
(0.179093 0.00505714 4.185e-19)
(0.228171 -0.0118129 -3.66068e-19)
(0.280745 -0.030051 1.0198e-18)
(0.336326 -0.0493141 -1.27432e-18)
(0.394372 -0.0692917 7.9833e-19)
(0.454273 -0.0896958 9.98972e-19)
(0.51535 -0.110253 -1.44893e-18)
(0.57686 -0.130703 -4.39675e-19)
(0.638023 -0.150793 7.46371e-19)
(0.698039 -0.170284 -4.57326e-19)
(0.756129 -0.188948 4.40602e-19)
(0.811564 -0.206571 -1.06418e-18)
(0.863662 -0.222967 1.80253e-19)
(0.911771 -0.237917 6.84878e-19)
(0.95577 -0.250226 -1.09464e-18)
(0.994979 -0.256157 3.00093e-19)
(-0.00992226 0.011635 -4.17708e-19)
(-0.0195037 0.0273122 1.35911e-18)
(-0.0181228 0.0373958 2.61523e-19)
(-0.00714899 0.0421234 -7.1173e-19)
(0.0123339 0.0420825 5.12888e-19)
(0.0394083 0.0379461 2.62661e-19)
(0.0732481 0.030345 4.21605e-19)
(0.113134 0.0198621 -2.6225e-20)
(0.158439 0.00702561 -4.38178e-20)
(0.208588 -0.00769503 -9.43503e-20)
(0.263017 -0.0238857 -4.14306e-19)
(0.321142 -0.0411796 -1.55822e-20)
(0.382319 -0.0592478 9.76742e-19)
(0.445838 -0.0777907 -1.61302e-18)
(0.510907 -0.0965305 1.15135e-18)
(0.576669 -0.115207 2.35334e-19)
(0.642223 -0.133575 4.1628e-19)
(0.706651 -0.151407 -2.11216e-19)
(0.769057 -0.168491 1.88731e-18)
(0.828608 -0.184639 -1.16281e-18)
(0.884561 -0.199686 9.26022e-19)
(0.936274 -0.213512 2.14464e-19)
(0.983201 -0.22599 -6.71549e-19)
(1.02539 -0.235987 5.67458e-19)
(1.06249 -0.239708 8.54123e-19)
(-0.00927877 0.0101647 -1.20622e-19)
(-0.0170389 0.0229395 -4.78983e-19)
(-0.0134349 0.0304244 -8.22176e-19)
(0.000222749 0.0330074 -4.70335e-19)
(0.0228908 0.031321 -6.59559e-20)
(0.0536747 0.0260301 -1.87544e-19)
(0.0917539 0.0177344 -8.77255e-19)
(0.136387 0.00697708 1.46169e-19)
(0.18689 -0.00575218 -1.0002e-18)
(0.242593 -0.0200176 -7.88595e-20)
(0.302801 -0.0354325 -9.71928e-19)
(0.366763 -0.0516528 -3.48206e-19)
(0.433649 -0.0683689 2.01187e-19)
(0.502543 -0.0852999 -9.5892e-19)
(0.572458 -0.102189 8.79825e-21)
(0.642353 -0.118799 -8.30435e-19)
(0.711178 -0.134915 3.21487e-19)
(0.777908 -0.150343 -1.15578e-18)
(0.841591 -0.16491 -1.95856e-19)
(0.901381 -0.178471 -2.00955e-20)
(0.956573 -0.190911 -1.90439e-19)
(1.00659 -0.202169 -1.92291e-19)
(1.05103 -0.212128 -9.35195e-20)
(1.09002 -0.219724 -3.75626e-19)
(1.1226 -0.222656 -7.99648e-19)
(-0.00860261 0.00882885 2.22591e-19)
(-0.0142652 0.0188608 6.05398e-19)
(-0.00799839 0.0238545 7.30905e-19)
(0.00888373 0.0243592 -5.87214e-19)
(0.0353437 0.0210685 1.09698e-18)
(0.0704838 0.0146578 -5.98564e-19)
(0.11346 0.00570926 3.27154e-19)
(0.163478 -0.0052624 5.14303e-19)
(0.219755 -0.0177994 4.71019e-19)
(0.281484 -0.0314965 2.30899e-19)
(0.347795 -0.0459956 3.74481e-19)
(0.417729 -0.0609795 2.19407e-19)
(0.490231 -0.0761659 1.48791e-18)
(0.564166 -0.0913033 -1.08267e-18)
(0.638341 -0.106167 1.24122e-18)
(0.711551 -0.120558 -5.12036e-19)
(0.782628 -0.134302 1.11036e-18)
(0.850488 -0.147249 -5.19935e-20)
(0.914182 -0.159273 -2.29409e-19)
(0.972926 -0.170273 -3.27456e-20)
(1.02612 -0.180174 8.3909e-19)
(1.07337 -0.18892 -7.88394e-19)
(1.11454 -0.196321 5.6781e-19)
(1.14958 -0.201911 5.9509e-19)
(1.17417 -0.208252 1.09752e-19)
(-0.0078581 0.00759065 1.537e-19)
(-0.0110886 0.0150222 -8.63386e-19)
(-0.00166004 0.0176564 -3.15475e-19)
(0.0190472 0.0161946 2.90602e-19)
(0.0499618 0.0113988 -8.98114e-19)
(0.0901477 0.00396544 -1.77964e-19)
(0.138701 -0.00553009 1.24475e-19)
(0.194726 -0.0165946 4.95818e-19)
(0.257299 -0.0287979 -1.25987e-18)
(0.325425 -0.0417653 9.68368e-20)
(0.398008 -0.055171 -3.72579e-19)
(0.473844 -0.0687322 -1.13845e-18)
(0.551634 -0.0822043 7.77199e-19)
(0.630014 -0.0953773 3.54162e-20)
(0.707604 -0.108073 -2.55947e-20)
(0.783069 -0.120141 7.86951e-19)
(0.855176 -0.13146 -1.38048e-18)
(0.922849 -0.141934 1.08862e-18)
(0.98521 -0.151489 -2.05718e-19)
(1.0416 -0.160074 6.03653e-19)
(1.09161 -0.167656 -1.00285e-18)
(1.13505 -0.174211 5.54735e-19)
(1.172 -0.179635 -9.59099e-19)
(1.20267 -0.183798 9.47233e-19)
(1.22413 -0.188839 -3.24338e-19)
(-0.00700009 0.00641147 1.02489e-18)
(-0.00739899 0.011362 -1.72071e-19)
(0.00574526 0.0117848 1.28298e-18)
(0.0309249 0.00850724 5.97799e-19)
(0.0669907 0.00235681 4.885e-20)
(0.112926 -0.0059437 2.64005e-19)
(0.167718 -0.0158208 6.41171e-20)
(0.23032 -0.0267994 1.08998e-18)
(0.299609 -0.0384769 3.53494e-19)
(0.374348 -0.0505125 -4.79118e-20)
(0.453176 -0.0626198 9.60308e-20)
(0.534614 -0.0745611 3.70638e-19)
(0.617108 -0.0861419 3.09826e-19)
(0.699083 -0.0972072 6.63036e-19)
(0.779013 -0.107637 -7.59168e-19)
(0.855486 -0.117341 2.26064e-19)
(0.927278 -0.126259 7.42944e-20)
(0.993392 -0.134349 3.32793e-19)
(1.0531 -0.141592 8.76847e-19)
(1.10593 -0.147982 -5.85153e-19)
(1.15169 -0.153526 3.93455e-20)
(1.19043 -0.158238 -7.59564e-19)
(1.22243 -0.162086 6.95502e-19)
(1.24807 -0.165044 -6.31393e-19)
(1.26535 -0.168825 8.85632e-20)
(-0.00597709 0.00525513 -8.53581e-19)
(-0.00307547 0.00781995 6.76719e-19)
(0.0143867 0.00619003 -1.10763e-18)
(0.0447178 0.00127981 9.60182e-20)
(0.0866431 -0.00602944 7.89394e-19)
(0.139016 -0.0149896 -1.32283e-18)
(0.200657 -0.0250292 1.05651e-18)
(0.270308 -0.0356929 -1.68605e-18)
(0.346588 -0.0466099 3.37471e-19)
(0.427969 -0.0574813 7.28355e-20)
(0.512788 -0.068071 5.74861e-19)
(0.59928 -0.0781993 -1.91708e-18)
(0.68565 -0.0877356 3.33155e-19)
(0.770151 -0.0965923 3.51321e-19)
(0.851166 -0.104718 -2.08927e-19)
(0.927291 -0.112089 -1.28705e-18)
(0.997386 -0.118705 6.11333e-19)
(1.06062 -0.12458 1.11241e-18)
(1.11647 -0.129738 -1.15298e-18)
(1.16472 -0.134209 8.24414e-19)
(1.20543 -0.138027 -1.031e-18)
(1.23889 -0.141223 7.41433e-19)
(1.26559 -0.143784 -1.8625e-19)
(1.28608 -0.145716 1.065e-18)
(1.29911 -0.148458 -1.18221e-18)
(-0.00473434 0.00409131 1.21351e-19)
(0.00200707 0.00434451 9.98922e-20)
(0.0244305 0.000828965 2.44508e-19)
(0.0606088 -0.00550341 8.81363e-19)
(0.109091 -0.0137359 -2.82147e-20)
(0.168542 -0.0231021 1.9896e-19)
(0.237556 -0.0330386 8.94252e-19)
(0.314596 -0.0431167 3.63213e-19)
(0.397966 -0.053007 -1.2062e-19)
(0.485805 -0.0624646 1.02888e-18)
(0.576125 -0.0713182 -1.1754e-18)
(0.666885 -0.0794606 1.80809e-18)
(0.756086 -0.0868383 -7.18368e-19)
(0.841869 -0.0934415 1.29756e-18)
(0.922614 -0.0992924 -4.39637e-19)
(0.997005 -0.104435 1.59023e-19)
(1.06408 -0.108924 1.91522e-19)
(1.12324 -0.112818 -3.55061e-19)
(1.17425 -0.116176 3.0173e-19)
(1.21716 -0.119047 1.91846e-19)
(1.25231 -0.121475 2.53864e-19)
(1.28022 -0.123492 5.10214e-19)
(1.30157 -0.125089 -5.65651e-20)
(1.31706 -0.126285 -2.29098e-19)
(1.32603 -0.128298 6.22596e-19)
(-0.00321675 0.0028981 -7.0924e-19)
(0.00797246 0.000899963 7.761e-20)
(0.0360333 -0.00432557 -1.40795e-18)
(0.0787569 -0.0118446 -3.38136e-19)
(0.134462 -0.0207293 -6.38864e-19)
(0.201563 -0.0302081 -1.37366e-19)
(0.278357 -0.0397374 -6.93013e-19)
(0.362966 -0.0489279 -4.17307e-19)
(0.453324 -0.0575065 5.54402e-19)
(0.547208 -0.0652987 -9.29844e-19)
(0.642307 -0.0722148 -2.59364e-19)
(0.736335 -0.0782348 9.49999e-21)
(0.82715 -0.0833934 -1.74901e-18)
(0.912871 -0.0877638 7.42159e-19)
(0.991963 -0.0914414 -1.07552e-18)
(1.0633 -0.0945302 -3.11507e-20)
(1.12618 -0.0971311 2.02409e-19)
(1.18029 -0.0993333 -3.37356e-19)
(1.22572 -0.10121 -2.9154e-19)
(1.26282 -0.102816 1.34475e-19)
(1.29219 -0.10419 1.44905e-19)
(1.31456 -0.105352 -9.50823e-19)
(1.33077 -0.106278 5.38315e-19)
(1.34163 -0.106996 2.47864e-19)
(1.34686 -0.108555 4.45586e-20)
(-0.00137116 0.00166344 7.23199e-19)
(0.0149386 -0.00252929 -7.9935e-19)
(0.0493376 -0.00927711 1.13134e-18)
(0.0992929 -0.0177228 1.78983e-19)
(0.162835 -0.0269566 -5.48153e-20)
(0.238063 -0.0362206 -3.87885e-19)
(0.322905 -0.0450086 5.8742e-20)
(0.415079 -0.0529902 5.9838e-19)
(0.512112 -0.0599682 -8.29619e-19)
(0.611403 -0.0658584 8.7498e-19)
(0.710346 -0.0706697 -9.28828e-20)
(0.806468 -0.0744824 4.49552e-20)
(0.897573 -0.0774255 1.13705e-18)
(0.981854 -0.079654 1.51128e-18)
(1.05797 -0.0813293 -5.94695e-19)
(1.12507 -0.0826024 1.02929e-18)
(1.18278 -0.0836026 5.05198e-19)
(1.23114 -0.0844317 -3.17135e-19)
(1.27055 -0.0851614 9.6124e-19)
(1.30165 -0.0858355 -5.25496e-20)
(1.32528 -0.0864743 -8.92375e-19)
(1.34235 -0.0870767 9.13648e-19)
(1.35382 -0.0875981 1.15123e-19)
(1.36054 -0.0880703 -5.33475e-19)
(1.36252 -0.0894007 1.71872e-19)
(0.00085198 0.000385631 -1.00245e-18)
(0.0230136 -0.00593625 1.08882e-18)
(0.0644672 -0.0140009 -6.95304e-19)
(0.122316 -0.0230875 -2.17306e-19)
(0.194243 -0.0323378 -4.93892e-19)
(0.277959 -0.0410317 8.79856e-19)
(0.370955 -0.0487253 -5.13399e-19)
(0.470496 -0.0551711 -2.36656e-19)
(0.573673 -0.0602721 -6.79333e-19)
(0.677523 -0.0640557 1.84811e-20)
(0.779196 -0.0666453 -2.68235e-19)
(0.876119 -0.0682294 1.27746e-19)
(0.966146 -0.0690307 -1.36218e-18)
(1.04766 -0.0692779 3.89875e-19)
(1.1196 -0.069183 -4.61938e-19)
(1.18149 -0.0689251 -3.63569e-19)
(1.23331 -0.0686422 1.0981e-19)
(1.27548 -0.0684288 -5.17783e-19)
(1.3087 -0.0683386 -2.08272e-19)
(1.33389 -0.0683912 6.2226e-19)
(1.35205 -0.0685795 2.47567e-19)
(1.36424 -0.0688751 -1.06356e-18)
(1.37148 -0.0692109 7.61042e-19)
(1.37463 -0.0696176 -1.42153e-19)
(1.37386 -0.070881 -2.84288e-19)
(0.00349771 -0.000927139 -3.62432e-19)
(0.0322934 -0.00929096 -2.01271e-19)
(0.0815238 -0.0184423 -3.96494e-20)
(0.147889 -0.0278563 3.02114e-19)
(0.228662 -0.0367633 3.29937e-19)
(0.321095 -0.0445117 2.88431e-19)
(0.422181 -0.0507497 3.62296e-19)
(0.528686 -0.0553426 5.55145e-19)
(0.637268 -0.0583201 8.52645e-19)
(0.744645 -0.0598414 8.43996e-19)
(0.847802 -0.0601557 4.45431e-19)
(0.944175 -0.0595609 -1.21338e-19)
(1.03179 -0.058365 2.98711e-20)
(1.10932 -0.0568537 -3.27396e-20)
(1.17609 -0.0552685 3.50483e-19)
(1.23203 -0.0537941 -8.27715e-20)
(1.27752 -0.0525554 9.92234e-19)
(1.31332 -0.0516217 -4.5231e-19)
(1.34044 -0.0510148 2.22931e-21)
(1.35999 -0.0507204 2.87935e-19)
(1.37313 -0.0506992 -6.40218e-19)
(1.38097 -0.0508934 1.02832e-18)
(1.38455 -0.0512149 -8.2399e-19)
(1.38472 -0.051692 1.41034e-19)
(1.38173 -0.0529981 -5.15114e-19)
(0.00660603 -0.00225768 7.76667e-19)
(0.0428592 -0.0125418 5.44321e-19)
(0.100583 -0.0225178 -3.50855e-19)
(0.176037 -0.0319159 1.56697e-18)