/*--------------------------------*- C++ -*----------------------------------*\
  =========                 |
  \\      /  F ield         | OpenFOAM: The Open Source CFD Toolbox
   \\    /   O peration     | Website:  https://openfoam.org
    \\  /    A nd           | Version:  6.0
     \\/     M anipulation  |
\*---------------------------------------------------------------------------*/
FoamFile
{
    version     2.0;
    format      ascii;
    class       surfaceScalarField;
    location    "110";
    object      phi;
}
// * * * * * * * * * * * * * * * * * * * * * * * * * * * * * * * * * * * * * //

dimensions      [0 3 -1 0 0 0 0];

internalField   nonuniform List<scalar> 
24700
(
-4.58407e-07
6.70033e-05
-6.65449e-05
-2.12655e-06
0.000187063
-0.000185395
-5.18774e-06
0.00029405
-0.000290989
-9.66351e-06
0.000387878
-0.000383402
-1.53892e-05
0.000468949
-0.000463223
-2.20192e-05
0.000538252
-0.000531622
-2.90648e-05
0.00059713
-0.000590084
-3.59506e-05
0.000647046
-0.00064016
-4.20756e-05
0.000689387
-0.000683262
-4.68705e-05
0.000725334
-0.000720539
-4.98437e-05
0.000755793
-0.00075282
-5.06127e-05
0.000781393
-0.000780624
-4.89215e-05
0.000802524
-0.000804215
-4.4643e-05
0.000819396
-0.000823674
-3.77715e-05
0.000832105
-0.000838976
-2.84054e-05
0.000840697
-0.000850063
-1.67254e-05
0.000845213
-0.000856893
-2.96775e-06
0.000845717
-0.000859474
1.26025e-05
0.000842317
-0.000857887
2.97185e-05
0.00083516
-0.000852276
4.81378e-05
0.000824427
-0.000842846
6.7666e-05
0.000810317
-0.000829845
8.81776e-05
0.000793031
-0.000813543
0.000109634
0.000772723
-0.00079418
0.000749503
-0.000771978
0.000132109
4.82312e-07
6.6521e-05
1.13156e-06
0.000186414
1.41125e-06
0.000293771
1.02325e-06
0.000388266
-9.40067e-08
0.000470066
-1.78027e-06
0.000539938
-3.6965e-06
0.000599046
-5.38466e-06
0.000648734
-6.33278e-06
0.000690335
-6.03597e-06
0.000725037
-4.04652e-06
0.000753804
-9.41956e-09
0.000777356
6.31788e-06
0.000796197
1.50599e-05
0.000810654
2.62296e-05
0.000820935
3.97435e-05
0.000827183
5.54426e-05
0.000829513
7.31172e-05
0.000828042
9.25312e-05
0.000822903
0.000113447
0.000814244
0.000135651
0.000802223
0.00015897
0.000786997
0.0001833
0.000768701
0.000208619
0.000747404
0.000723099
0.000235023
1.32293e-06
6.51981e-05
4.08863e-06
0.000183648
7.47195e-06
0.000290387
1.09391e-05
0.000384799
1.42249e-05
0.00046678
1.73126e-05
0.00053685
2.03905e-05
0.000595968
2.37922e-05
0.000645332
2.79319e-05
0.000686196
3.32419e-05
0.000719727
4.01201e-05
0.000746925
4.88924e-05
0.000768584
5.97892e-05
0.0007853
7.29374e-05
0.000797505
8.83635e-05
0.000805509
0.000106007
0.00080954
0.000125738
0.000809782
0.000147379
0.000806401
0.000170728
0.000799554
0.000195578
0.000789393
0.000221741
0.000776061
0.000249065
0.000759674
0.000277457
0.000740309
0.000306904
0.000717958
0.000692495
0.000337508
2.04585e-06
6.31523e-05
6.67991e-06
0.000179014
1.28587e-05
0.000284209
1.98605e-05
0.000377797
2.72465e-05
0.000459394
3.48393e-05
0.000529257
4.26822e-05
0.000588125
5.0983e-05
0.000637031
6.00527e-05
0.000677126
7.02444e-05
0.000709536
8.19014e-05
0.000735268
9.53167e-05
0.000755169
0.000110708
0.000769909
0.000128206
0.000780008
0.000147854
0.000785861
0.000169619
0.000787775
0.000193405
0.000785997
0.00021907
0.000780736
0.000246447
0.000772176
0.000275364
0.000760477
0.000305655
0.000745769
0.000337186
0.000728143
0.00036987
0.000707625
0.00040369
0.000684138
0.00065744
0.000438744
2.63974e-06
6.05125e-05
8.85944e-06
0.000172794
1.74695e-05
0.000275599
2.76121e-05
0.000367654
3.87114e-05
0.000448295
5.04521e-05
0.000517516
6.27444e-05
0.000575833
7.56744e-05
0.000624101
8.94488e-05
0.000663352
0.000104338
0.000694646
0.000120625
0.000718981
0.000138566
0.000737227
0.000158364
0.000750111
0.000180152
0.00075822
0.00020399
0.000762022
0.000229875
0.000761891
0.000257743
0.000758129
0.000287492
0.000750987
0.000318992
0.000740676
0.000352101
0.000727367
0.000386681
0.00071119
0.000422608
0.000692215
0.000459796
0.000670437
0.000498218
0.000645716
0.000617705
0.000537953
3.09902e-06
5.74135e-05
1.0599e-05
0.000165294
2.1235e-05
0.000264963
3.40668e-05
0.000354822
4.84212e-05
0.00043394
6.38734e-05
0.000502064
8.02181e-05
0.000559488
9.74295e-05
0.00060689
0.000115613
0.000645168
0.000134956
0.000675304
0.000155677
0.00069826
0.000177993
0.000714911
0.000202086
0.000726018
0.000228089
0.000732217
0.000256078
0.000734033
0.000286073
0.000731895
0.000318049
0.000726153
0.000351938
0.000717098
0.000387649
0.000704966
0.00042507
0.000689946
0.000464086
0.000672174
0.000504586
0.000651715
0.00054648
0.000628543
0.000589721
0.000602474
0.00057307
0.000634357
3.42206e-06
5.39914e-05
1.18843e-05
0.000156832
2.41133e-05
0.000252734
3.9139e-05
0.000339797
5.62328e-05
0.000416847
7.48916e-05
0.000483405
9.48174e-05
0.000539562
0.000115887
0.00058582
0.000138112
0.000622943
0.000161598
0.000651818
0.000186502
0.000673356
0.000212994
0.000688419
0.000241233
0.000697779
0.000271347
0.000702103
0.000303423
0.000701957
0.000337505
0.000697813
0.000373597
0.000690061
0.000411669
0.000679026
0.000451662
0.000664972
0.000493499
0.000648109
0.000537086
0.000628586
0.000582325
0.000606477
0.000629118
0.000581749
0.000677393
0.000554199
0.000523312
0.000727151
3.6111e-06
5.03803e-05
1.27147e-05
0.000147728
2.60897e-05
0.000239359
4.2786e-05
0.0003231
6.20606e-05
0.000397572
8.3366e-05
0.0004621
0.000106337
0.000516591
0.000130771
0.000561387
0.000156598
0.000597115
0.000183848
0.000624567
0.000212616
0.000644589
0.000243026
0.000658009
0.00027521
0.000665595
0.000309284
0.000668028
0.000345343
0.000665899
0.000383448
0.000659708
0.000423631
0.000649879
0.000465894
0.000636763
0.000510214
0.000620652
0.000556543
0.00060178
0.000604814
0.000580315
0.00065494
0.000556352
0.000706818
0.000529871
0.000760346
0.000500671
0.000468197
0.000815461
3.67127e-06
4.6709e-05
1.31004e-05
0.000138299
2.71727e-05
0.000225286
4.50034e-05
0.00030527
6.58742e-05
0.000376701
8.92261e-05
0.000438748
0.000114654
0.000491163
0.000141897
0.000534144
0.000170819
0.000568194
0.000201382
0.000594004
0.000233624
0.000612347
0.000267623
0.00062401
0.000303481
0.000629737
0.0003413
0.000630209
0.000381175
0.000626024
0.000423181
0.000617702
0.000467373
0.000605687
0.000513782
0.000590353
0.00056242
0.000572015
0.000613272
0.000550928
0.000666298
0.000527289
0.000721429
0.00050122
0.000778565
0.000472735
0.000837569
0.000441667
0.000407466
0.0008983
3.60976e-06
4.30993e-05
1.30608e-05
0.000128848
2.73916e-05
0.000210955
4.58225e-05
0.000286839
6.76955e-05
0.000354828
9.24712e-05
0.000413973
0.000119732
0.000463903
0.000149179
0.000504696
0.000180628
0.000536745
0.000213987
0.000560645
0.00024924
0.000577095
0.000286423
0.000586826
0.000325607
0.000590554
0.000366876
0.000588939
0.000410321
0.000582579
0.000456027
0.000571997
0.000504066
0.000557647
0.0005545
0.000539919
0.000607372
0.000519142
0.000662706
0.000495595
0.000720497
0.000469498
0.000780707
0.00044101
0.000843246
0.000410196
0.000907953
0.00037696
0.000340832
0.000974587
3.43527e-06
3.9664e-05
1.26225e-05
0.000119661
2.67934e-05
0.000196784
4.53072e-05
0.000268325
6.75963e-05
0.000332539
9.31693e-05
0.0003884
0.000121621
0.000435452
0.000152638
0.000473679
0.000186003
0.00050338
0.000221583
0.000525065
0.000259318
0.000539359
0.000299208
0.000546937
0.00034129
0.000548471
0.000385632
0.000544597
0.000432316
0.000535895
0.000481431
0.000522882
0.000533068
0.00050601
0.000587314
0.000485673
0.00064425
0.000462207
0.000703942
0.000435902
0.000766436
0.000407004
0.000831739
0.000375708
0.000899794
0.000342141
0.00097043
0.000306324
0.000267973
0.00104329
3.15773e-06
3.65063e-05
1.18189e-05
0.000111
2.54419e-05
0.000183161
4.35522e-05
0.000250215
6.56981e-05
0.000310393
9.14595e-05
0.000362638
0.000120466
0.000406446
0.00015241
0.000441734
0.000187058
0.000468732
0.000224251
0.000487872
0.000263896
0.000499714
0.000305957
0.000504875
0.000350449
0.00050398
0.000397416
0.00049763
0.000446934
0.000486377
0.000499094
0.000470722
0.000554002
0.000451102
0.000611774
0.000427901
0.000672529
0.000401451
0.000736389
0.000372042
0.000803464
0.00033993
0.000873831
0.000305341
0.000947493
0.000268479
0.00102429
0.000229524
0.000188529
0.00110374
2.78839e-06
3.37179e-05
1.06902e-05
0.000103098
2.34178e-05
0.000170434
4.06844e-05
0.000232948
6.21736e-05
0.000288904
8.75556e-05
0.000337256
0.000116513
0.000377488
0.000148763
0.000409485
0.000184073
0.000433422
0.000222269
0.000449676
0.000263237
0.000458746
0.000306919
0.000461194
0.000353303
0.000457596
0.00040242
0.000448512
0.000454337
0.00043446
0.000509149
0.00041591
0.000566978
0.000393274
0.000627968
0.00036691
0.000692288
0.000337131
0.000760122
0.000304209
0.000831659
0.000268392
0.000907072
0.000229928
0.000986455
0.000189096
0.00106969
0.000146292
0.000102091
0.00115613
2.34033e-06
3.13775e-05
9.28449e-06
9.61539e-05
2.08205e-05
0.000158898
3.6865e-05
0.000216904
5.72506e-05
0.000268518
8.17525e-05
0.000312754
0.000110122
0.000349119
0.000142114
0.000377492
0.000177515
0.000398021
0.00021615
0.00041104
0.000257897
0.000416999
0.000302681
0.00041641
0.000350479
0.000409799
0.000401311
0.00039768
0.000455241
0.00038053
0.000512372
0.000358779
0.000572844
0.000332801
0.000636838
0.000302917
0.000704571
0.000269398
0.000776299
0.00023248
0.000852304
0.000192388
0.000932863
0.000149369
0.00101818
0.000103778
0.0011082
5.62743e-05
8.18767e-06
0.0012021
1.82921e-06
2.95483e-05
7.65971e-06
9.03233e-05
1.77713e-05
0.000148786
3.22939e-05
0.000202381
5.12185e-05
0.000249594
7.44353e-05
0.000289538
0.000101776
0.000321779
0.000133049
0.000346219
0.000168071
0.000362999
0.000206684
0.000372427
0.000248769
0.000374914
0.000294254
0.000370925
0.000343111
0.000360941
0.000395364
0.000345427
0.000451083
0.000324812
0.000510385
0.000299477
0.000573437
0.000269749
0.000640459
0.000235895
0.000711719
0.000198137
0.000787542
0.000156657
0.000868294
0.000111636
0.000954351
6.33112e-05
0.00104602
1.21086e-05
0.0011433
-4.10037e-05
-9.36985e-05
0.00124518
1.27409e-06
2.82742e-05
5.8856e-06
8.57118e-05
1.4416e-05
0.000140256
2.72136e-05
0.000189583
4.44327e-05
0.000232375
6.60857e-05
0.000267885
9.20945e-05
0.00029577
0.000122334
0.000315979
0.000156666
0.000328667
0.000194965
0.000334128
0.000237136
0.000332743
0.000283122
0.000324939
0.000332914
0.000311149
0.000386551
0.00029179
0.000444124
0.000267238
0.000505779
0.000237822
0.000571716
0.000203812
0.00064219
0.000165421
0.000717517
0.00012281
0.000798067
7.61073e-05
0.000884258
2.54452e-05
0.000976523
-2.8954e-05
0.00107522
-8.65884e-05
0.00118036
-0.000146148
-0.00020409
0.00129076
6.98104e-07
2.75761e-05
4.04487e-06
8.23651e-05
1.09266e-05
0.000133374
2.19106e-05
0.000178599
3.73163e-05
0.000216969
5.72835e-05
0.000247917
8.18337e-05
0.00027122
0.00011092
0.000286893
0.000144468
0.00029512
0.000182402
0.000296193
0.000224671
0.000290474
0.000271257
0.000278353
0.000322188
0.000260219
0.00037754
0.000236437
0.000437444
0.000207335
0.00050208
0.000173186
0.000571685
0.000134207
0.000646545
9.05616e-05
0.000726993
4.23625e-05
0.000813404
-1.03039e-05
0.000906183
-6.73336e-05
0.00100573
-0.000128502
0.00111236
-0.000193221
0.00122604
-0.000259824
-0.000323413
0.00134536
1.2849e-07
2.74476e-05
2.23269e-06
8.02609e-05
7.49949e-06
0.000128107
1.67114e-05
0.000169387
3.03531e-05
0.000203327
4.86964e-05
0.000229574
7.18715e-05
0.000248045
9.99243e-05
0.00025884
0.00013286
0.000262184
0.000170677
0.000258376
0.000213389
0.000247763
0.00026104
0.000230701
0.000313718
0.00020754
0.000371556
0.0001786
0.000434732
0.000144159
0.00050347
0.000104448
0.000578032
5.96459e-05
0.000658706
9.887e-06
0.000745801
-4.47319e-05
0.000839624
-0.000104128
0.000940473
-0.000168183
0.0010486
-0.000236631
0.00116415
-0.000308773
0.00128693
-0.000382605
-0.000451853
0.00141537
-4.04191e-07
2.78518e-05
5.53597e-07
7.93031e-05
4.34847e-06
0.000124313
1.1971e-05
0.000161765
2.40698e-05
0.000191229
4.10533e-05
0.00021259
6.31707e-05
0.000225927
9.05752e-05
0.000231436
0.000123371
0.000229387
0.000161651
0.000220097
0.000205514
0.000203899
0.000255091
0.000181125
0.000310543
0.000152088
0.000372069
0.000117074
0.000439898
7.63299e-05
0.000514282
3.0064e-05
0.000595478
-2.15503e-05
0.000683732
-7.83677e-05
0.000779258
-0.000140257
0.000882208
-0.000207078
0.00099266
-0.000278635
0.0011106
-0.000354566
0.00123586
-0.000434036
0.001368
-0.000514748
-0.000589183
0.00150533
-8.67886e-07
2.87197e-05
-8.84522e-07
7.93197e-05
1.69276e-06
0.000121735
8.05226e-06
0.000155405
1.90047e-05
0.000180276
3.50999e-05
0.000196495
5.67163e-05
0.000204311
8.41289e-05
0.000204023
0.000117559
0.000195958
0.000157207
0.000180448
0.000203281
0.000157825
0.000256002
0.000128404
0.000315612
9.24784e-05
0.000382368
5.03185e-05
0.000456529
2.16897e-06
0.000538338
-5.17453e-05
0.000627998
-0.00011121
0.000725643
-0.000176012
0.000831305
-0.000245919
0.000944889
-0.000320663
0.00106615
-0.000399899
0.0011947
-0.000483109
0.00132996
-0.000569305
0.0014712
-0.00065598
-0.000734614
0.00161663
-1.23177e-06
2.99515e-05
-1.97898e-06
8.00669e-05
-2.5986e-07
0.000120016
5.29869e-06
0.000149847
1.56665e-05
0.000169908
3.15387e-05
0.000180623
5.34323e-05
0.000182417
8.17554e-05
0.0001757
0.000116857
0.000160856
0.000159059
0.000138246
0.000208675
0.000108209
0.000266017
7.10623e-05
0.000331388
2.71064e-05
0.000405076
-2.33695e-05
0.000487325
-8.00797e-05
0.00057831
-0.00014273
0.000678105
-0.000211006
0.00078665
-0.000284556
0.000903712
-0.000362982
0.00102887
-0.000445816
0.00116147
-0.000532504
0.00130069
-0.000622325
0.00144552
-0.000714138
0.00159487
-0.000805325
-0.000886677
0.00174693
-1.4695e-06
3.14209e-05
-2.64219e-06
8.12396e-05
-1.33216e-06
0.000118706
4.00285e-06
0.000144512
1.4487e-05
0.000159424
3.09632e-05
0.000164147
5.40913e-05
0.000159289
8.44181e-05
0.000145373
0.000122423
0.000122852
0.000168542
9.21265e-05
0.000223185
5.35661e-05
0.000286727
7.52053e-06
0.000359498
-4.56638e-05
0.000441758
-0.00010563
0.00053367
-0.000171992
0.000635267
-0.000244327
0.00074641
-0.000322149
0.000866763
-0.000404909
0.000995757
-0.000491976
0.00113258
-0.000582635
0.00127615
-0.000676082
0.00142521
-0.000771377
0.00157831
-0.00086724
0.00173403
-0.000961047
-0.00104319
0.00189055
-1.56229e-06
3.29832e-05
-2.81093e-06
8.24882e-05
-1.39534e-06
0.00011729
4.37775e-06
0.000138739
1.57795e-05
0.000148022
3.37976e-05
0.000146129
5.9234e-05
0.000133853
9.27689e-05
0.000111838
0.000135
8.06205e-05
0.000186461
4.0666e-05
0.00024762
-7.59301e-06
0.000318871
-6.37306e-05
0.000400508
-0.000127301
0.000492697
-0.000197819
0.00059544
-0.000274735
0.000708539
-0.000357426
0.000831568
-0.000445179
0.000963846
-0.000537187
0.00110442
-0.000632549
0.00125206
-0.000730279
0.00140529
-0.00082931
0.00156241
-0.000928497
0.00172164
-0.00102647
0.00188131
-0.00112071
-0.00120144
0.00203956
-1.50122e-06
3.44845e-05
-2.45308e-06
8.34401e-05
-3.81694e-07
0.000115219
6.53663e-06
0.00013182
1.97085e-05
0.000134851
4.02581e-05
0.000125579
6.91182e-05
0.000104993
0.000107086
7.38704e-05
0.000154852
3.28544e-05
0.000213006
-1.7488e-05
0.000282028
-7.66147e-05
0.000362264
-0.000143967
0.000453899
-0.000218936
0.000556919
-0.000300839
0.000671081
-0.000388897
0.000795886
-0.00048223
0.000930556
-0.000579848
0.00107403
-0.00068066
0.00122496
-0.000783483
0.00138175
-0.000887063
0.00154253
-0.000990095
0.00170528
-0.00109125
0.0018679
-0.00118909
0.00202853
-0.00128134
-0.00135847
0.00218556
-1.28802e-06
3.57725e-05
-1.56992e-06
8.3722e-05
1.71109e-06
0.000111938
1.04864e-05
0.000123045
2.62819e-05
0.000119055
5.0342e-05
0.000101519
8.37095e-05
7.16252e-05
0.000127269
3.0311e-05
0.000181762
-2.16386e-05
0.000247782
-8.35078e-05
0.000325751
-0.000154584
0.000415894
-0.000234109
0.000518198
-0.000321241
0.000632389
-0.000415029
0.000757901
-0.000514409
0.000893868
-0.000618197
0.00103913
-0.000725107
0.00119224
-0.000833769
0.00135151
-0.000942759
0.00151508
-0.00105063
0.0016809
-0.00115592
0.00184685
-0.0012572
0.00201064
-0.00135288
0.00216957
-0.00144027
-0.00150901
0.00232011
-9.34776e-07
3.67072e-05
-1.94392e-07
8.29816e-05
4.82416e-06
0.000106919
1.61357e-05
0.000111733
3.5364e-05
9.98268e-05
6.38498e-05
7.30331e-05
0.000102714
3.27606e-05
0.000152888
-1.98623e-05
0.000215109
-8.38597e-05
0.000289907
-0.000158306
0.000377571
-0.000242248
0.000478115
-0.000334654
0.000591248
-0.000434373
0.000716349
-0.000540131
0.000852465
-0.000650525
0.000998317
-0.000764049
0.00115234
-0.000879128
0.00131272
-0.000994155
0.00147751
-0.00110755
0.00164466
-0.00121778
0.00181221
-0.00132347
0.00197837
-0.00142336
0.00214183
-0.00151634
0.00230272
-0.00160116
-0.0016719
0.0024656
-4.59126e-07
3.71664e-05
1.62016e-06
8.09023e-05
8.85603e-06
9.96836e-05
2.33218e-05
9.72676e-05
4.67132e-05
7.64354e-05
8.04358e-05
3.93105e-05
0.000125649
-1.24523e-05
0.000183275
-7.74884e-05
0.000253985
-0.00015457
0.000338169
-0.00024249
0.000435897
-0.000339977
0.000546888
-0.000445645
0.000670487
-0.000557972
0.000805658
-0.000675302
0.000951006
-0.000795873
0.00110482
-0.000917861
0.00126512
-0.00103943
0.00142978
-0.00115882
0.00159659
-0.00127435
0.00176338
-0.00138457
0.00192813
-0.00148822
0.00208911
-0.00158433
0.00224497
-0.00167221
0.00239512
-0.0017513
-0.00181728
0.0025405
1.15911e-07
3.70505e-05
3.80479e-06
7.72134e-05
1.36757e-05
8.98128e-05
3.18351e-05
7.91081e-05
6.00212e-05
4.82493e-05
9.9666e-05
-3.34293e-07
0.000151917
-6.47036e-05
0.000217629
-0.0001432
0.000297331
-0.000234272
0.000391189
-0.000336348
0.000498969
-0.000447756
0.000620009
-0.000566684
0.000753216
-0.000691179
0.000897091
-0.000819177
0.00104977
-0.000948555
0.00120912
-0.00107721
0.00137281
-0.00120312
0.00153844
-0.00132444
0.00170365
-0.00143957
0.00186625
-0.00154717
0.0020243
-0.00164627
0.00217617
-0.0017362
0.00232062
-0.00181665
0.00245679
-0.00188748
-0.00194561
0.00258512
7.68102e-07
3.62823e-05
6.29013e-06
7.16914e-05
1.91481e-05
7.69548e-05
4.1457e-05
5.67993e-05
7.49637e-05
1.47426e-05
0.000121083
-4.64532e-05
0.000180893
-0.000124514
0.00025511
-0.000217417
0.000344041
-0.000323203
0.000447541
-0.000439848
0.000564983
-0.000565199
0.000695251
-0.000696952
0.000836762
-0.00083269
0.000987522
-0.000969938
0.00114522
-0.00110626
0.00130735
-0.00123933
0.0014713
-0.00136708
0.00163456
-0.0014877
0.00179476
-0.00159977
0.00194983
-0.00170224
0.00209805
-0.00179449
0.00223811
-0.00187626
0.00236909
-0.00194763
0.00249049
-0.00200887
-0.00205816
0.00260303
1.47864e-06
3.48037e-05
9.01509e-06
6.41549e-05
2.51513e-05
6.08185e-05
5.19853e-05
2.99653e-05
9.12358e-05
-2.45079e-05
0.000144249
-9.94662e-05
0.00021197
-0.000192235
0.000294898
-0.000300345
0.00039303
-0.000421335
0.000505822
-0.00055264
0.000632175
-0.000691552
0.000770457
-0.000835234
0.000918565
-0.000980798
0.00107403
-0.0011254
0.00123414
-0.00126637
0.00139612
-0.00140131
0.00155724
-0.0015282
0.00171499
-0.00164545
0.00186718
-0.00175196
0.00201204
-0.0018471
0.00214822
-0.00193067
0.00227485
-0.00200289
0.00239146
-0.00206424
0.002498
-0.00211541
-0.00215556
0.0025954
2.23425e-06
3.25695e-05
1.19332e-05
5.4456e-05
3.15876e-05
4.11641e-05
6.32516e-05
-1.69869e-06
0.000108574
-6.983e-05
0.000168774
-0.000159666
0.000244591
-0.000268053
0.000336221
-0.000391975
0.00044326
-0.000528373
0.00056468
-0.00067406
0.000698842
-0.000825714
0.000843565
-0.000979957
0.000996235
-0.00113347
0.00115396
-0.00128313
0.00131374
-0.00142616
0.00147267
-0.00156023
0.00162805
-0.00168358
0.00177758
-0.00179497
0.00191939
-0.00189377
0.00205213
-0.00197984
0.00217494
-0.00205349
0.00228745
-0.0021154
0.0023897
-0.00216649
0.00248205
-0.00220777
-0.00223917
0.00256566
3.02791e-06
2.95415e-05
1.50147e-05
4.24691e-05
3.83872e-05
1.77916e-05
7.51249e-05
-3.84363e-05
0.000126758
-0.000121463
0.000194314
-0.000227222
0.000278243
-0.000351982
0.000378346
-0.000492077
0.000493728
-0.000643756
0.000622802
-0.000803134
0.000763348
-0.00096626
0.000912634
-0.00112924
0.00106759
-0.00128842
0.001225
-0.00144054
0.00138174
-0.00158289
0.00153491
-0.00171341
0.00168205
-0.00183072
0.0018212
-0.00193412
0.00195096
-0.00202353
0.00207049
-0.00209936
0.00217945
-0.00216245
0.00227796
-0.00221391
0.00236649
-0.00225502
0.00244578
-0.00228706
-0.00231048
0.0025171
3.85809e-06
2.56835e-05
1.82448e-05
2.80825e-05
4.55045e-05
-9.46817e-06
8.75052e-05
-8.0437e-05
0.000145602
-0.00017956
0.000220555
-0.000302175
0.000312434
-0.000443861
0.000420552
-0.000600196
0.000543442
-0.000766646
0.000678903
-0.000938595
0.000824123
-0.00111148
0.000975867
-0.00128099
0.00113071
-0.00144326
0.00128526
-0.00159509
0.00143641
-0.00173404
0.0015815
-0.0018585
0.00171843
-0.00196765
0.00184572
-0.00206141
0.0019625
-0.00214031
0.00206847
-0.00220533
0.00216381
-0.00225778
0.00224905
-0.00229915
0.002325
-0.00233097
0.00239267
-0.00235472
-0.00237118
0.00245336
4.72708e-06
2.09564e-05
2.16183e-05
1.11912e-05
5.2909e-05
-4.07588e-05
0.000100309
-0.000127837
0.000164933
-0.000244184
0.000247186
-0.000384428
0.000346666
-0.000543341
0.000462109
-0.000715638
0.000591407
-0.000895944
0.000731726
-0.00107891
0.000879695
-0.00125945
0.00103167
-0.00143296
0.001184
-0.00159559
0.00133331
-0.00174441
0.0014767
-0.00187743
0.00161187
-0.00199367
0.00173723
-0.00209301
0.00185185
-0.00217603
0.00195541
-0.00224387
0.00204813
-0.00229805
0.0021306
-0.00234025
0.00220371
-0.00237226
0.00226849
-0.00239576
0.00232608
-0.00241231
-0.00242286
0.00237777
5.63884e-06
1.53175e-05
2.51341e-05
-8.30407e-06
6.05736e-05
-7.61983e-05
0.000113453
-0.000180717
0.000184567
-0.000315298
0.000273878
-0.000473738
0.000380415
-0.000649878
0.000502259
-0.000837482
0.000636627
-0.00103031
0.000780067
-0.00122235
0.000928732
-0.00140811
0.0010787
-0.00158293
0.00122628
-0.00174318
0.00136828
-0.00188641
0.00150217
-0.00201132
0.00162615
-0.00211766
0.0017392
-0.00220606
0.00184097
-0.00227779
0.00193165
-0.00233455
0.00201189
-0.00237829
0.00208262
-0.00241099
0.00214496
-0.00243459
0.00220006
-0.00245086
0.00224909
-0.00246134
-0.00246704
0.00229327
6.59684e-06
8.72068e-06
2.87886e-05
-3.04959e-05
6.84642e-05
-0.000115874
0.000126837
-0.000239089
0.000204296
-0.000392757
0.000300263
-0.000569705
0.000413113
-0.000762729
0.000540221
-0.00096459
0.000678125
-0.00116822
0.000822819
-0.00136705
0.000970104
-0.0015554
0.00111595
-0.00172877
0.00125681
-0.00188404
0.00138983
-0.00201943
0.001513
-0.00213448
0.00162509
-0.00222976
0.00172567
-0.00230664
0.00181491
-0.00236703
0.00189347
-0.00241311
0.00196232
-0.00244714
0.00202263
-0.0024713
0.00207562
-0.00248758
0.00212248
-0.00249773
0.00216435
-0.0025032
-0.00250499
0.0022023
7.60247e-06
1.1182e-06
3.2571e-05
-5.54644e-05
7.65313e-05
-0.000159834
0.000140334
-0.000302892
0.000223872
-0.000476295
0.000325931
-0.000671764
0.000444165
-0.000880963
0.000575215
-0.00109564
0.000714987
-0.00130799
0.000859027
-0.00151109
0.00100294
-0.00169931
0.00114278
-0.00186861
0.0012753
-0.00201656
0.00139815
-0.00214228
0.00150989
-0.00224621
0.00160991
-0.00232977
0.00169831
-0.00239504
0.00177575
-0.00244446
0.00184322
-0.00248058
0.00190193
-0.00250586
0.00195317
-0.00252254
0.00199818
-0.00253259
0.00203811
-0.00253766
0.002074
-0.00253909
-0.00253778
0.0021068
8.65394e-06
-7.53574e-06
3.64603e-05
-8.32708e-05
8.47054e-05
-0.000208079
0.00015379
-0.000371976
0.00024301
-0.000565516
0.000350439
-0.000779192
0.000472959
-0.00100348
0.000606497
-0.00122918
0.000746408
-0.0014479
0.000887937
-0.00165262
0.00102668
-0.00183805
0.00115893
-0.00200086
0.00128191
-0.00213954
0.00139386
-0.00225423
0.00149394
-0.00234629
0.00158212
-0.00241796
0.00165901
-0.00247193
0.00172561
-0.00251106
0.00178317
-0.00253814
0.00183301
-0.0025557
0.00187646
-0.00256598
0.00191472
-0.00257084
0.00194885
-0.00257179
0.00197976
-0.00257001
-0.00256627
0.00200825
9.74595e-06
-1.72817e-05
4.04247e-05
-0.00011395
9.2897e-05
-0.000260551
0.000167017
-0.000446097
0.000261397
-0.000659896
0.000373325
-0.00089112
0.000498902
-0.00112906
0.000633396
-0.00136367
0.000771735
-0.00158624
0.000909034
-0.00178992
0.00104105
-0.00197007
0.0011645
-0.00212431
0.00127717
-0.00225221
0.00137791
-0.00235497
0.0014665
-0.00243488
0.00154342
-0.00249489
0.00160968
-0.00253818
0.00166653
-0.00256791
0.00171536
-0.00258697
0.00175755
-0.0025979
0.00179437
-0.0026028
0.00182693
-0.00260341
0.00185619
-0.00260105
0.00188292
-0.00259674
-0.00259112
0.00190777
1.08698e-05
-2.81515e-05
4.44219e-05
-0.000147502
0.000100998
-0.000317127
0.00017981
-0.000524909
0.000278701
-0.000758787
0.000394134
-0.00100655
0.000521451
-0.00125638
0.000655355
-0.00149758
0.000790502
-0.00172139
0.000922058
-0.00192147
0.00104611
-0.00209413
0.00115991
-0.00223811
0.00126188
-0.00235418
0.00135149
-0.00244458
0.00142906
-0.00251245
0.00149551
-0.00256134
0.00155213
-0.0025948
0.00160034
-0.00261612
0.00164159
-0.00262822
0.00167722
-0.00263352
0.0017084
-0.00263399
0.00173615
-0.00263115
0.00176127
-0.00262618
0.00178443
-0.0026199
-0.00261282
0.00180613
1.20137e-05
-4.01651e-05
4.84008e-05
-0.000183889
0.000108886
-0.000377613
0.000191947
-0.00060797
0.00029459
-0.00086143
0.000412439
-0.0011244
0.000540137
-0.00138407
0.000671954
-0.00162939
0.000802445
-0.00185188
0.000926999
-0.00204602
0.00104218
-0.00220931
0.00114585
-0.00234177
0.00123707
-0.0024454
0.0013159
-0.00252341
0.00138314
-0.00257969
0.00144003
-0.00261823
0.00148804
-0.00264281
0.00152868
-0.00265677
0.00156337
-0.00266291
0.00159337
-0.00266352
0.00161975
-0.00266036
0.00164338
-0.00265478
0.00166494
-0.00264774
0.00168498
-0.00263993
-0.00263173
0.00170389
1.31636e-05
-5.33288e-05
5.23038e-05
-0.000223029
0.000116432
-0.00044174
0.000203205
-0.000694743
0.000308746
-0.000966972
0.000427863
-0.00124352
0.000554594
-0.00151081
0.00068293
-0.00175773
0.0008075
-0.00197645
0.000924073
-0.0021626
0.00102979
-0.00231503
0.00112316
-0.00243514
0.00120387
-0.0025261
0.00127249
-0.00259204
0.0013302
-0.0026374
0.00137847
-0.0026665
0.00141887
-0.00268321
0.00145291
-0.0026908
0.00148193
-0.00269193
0.00150709
-0.00268868
0.00152932
-0.0026826
0.00154937
-0.00267483
0.00156781
-0.00266618
0.00158506
-0.00265718
-0.00264811
0.00160143
1.43037e-05
-6.76325e-05
5.60695e-05
-0.000264795
0.000123501
-0.000509172
0.000213366
-0.000784608
0.000320885
-0.00107449
0.000440099
-0.00136273
0.000564571
-0.00163528
0.000688178
-0.00188134
0.000805792
-0.00209406
0.000913683
-0.00227049
0.00100963
-0.00241098
0.0010928
-0.00251831
0.00116343
-0.00259674
0.00122255
-0.00265115
0.00127158
-0.00268644
0.00131215
-0.00270708
0.00134586
-0.00271692
0.00137414
-0.00271909
0.00139825
-0.00271604
0.0014192
-0.00270963
0.0014378
-0.0027012
0.00145469
-0.00269171
0.00147031
-0.0026818
0.001485
-0.00267188
-0.00266212
0.00149902
1.54169e-05
-8.30494e-05
5.96347e-05
-0.000309013
0.000129965
-0.000579503
0.000222231
-0.000876874
0.000330762
-0.00118302
0.000448921
-0.00148089
0.000569936
-0.00175629
0.000687745
-0.00199915
0.000797604
-0.00220392
0.000896379
-0.00236926
0.000982513
-0.00249711
0.00105578
-0.00259157
0.00111692
-0.00265787
0.00116728
-0.00270151
0.00120849
-0.00272765
0.00124222
-0.00274081
0.00127004
-0.00274473
0.00129329
-0.00274234
0.00131309
-0.00273584
0.00133034
-0.00272687
0.00134571
-0.00271657
0.00135972
-0.00270572
0.00137275
-0.00269483
0.00138505
-0.00268419
-0.00267389
0.00139681
1.64857e-05
-9.95351e-05
6.2937e-05
-0.000355464
0.000135701
-0.000652267
0.000229626
-0.000970799
0.000338188
-0.00129158
0.000454186
-0.00159689
0.000570676
-0.00187278
0.000681809
-0.00211028
0.000783348
-0.00230546
0.000872806
-0.00245872
0.000949277
-0.00257358
0.00101309
-0.00265539
0.00106539
-0.00271018
0.00110777
-0.00274389
0.00114196
-0.00276184
0.00116963
-0.00276849
0.00119226
-0.00276736
0.00121107
-0.00276115
0.00122706
-0.00275183
0.00124098
-0.00274079
0.00125341
-0.002729
0.00126476
-0.00271707
0.00127534
-0.00270541
0.00128535
-0.0026942
-0.00268347
0.00129494
1.74924e-05
-0.000117028
6.59167e-05
-0.000403888
0.000140598
-0.000726949
0.000235406
-0.00106561
0.000343031
-0.00139921
0.000455841
-0.0017097
0.000566882
-0.00198382
0.00067066
-0.00221406
0.000763529
-0.00239833
0.000843667
-0.00253886
0.000910783
-0.0026407
0.000965682
-0.00271028
0.00100983
-0.00275432
0.00104498
-0.00277904
0.00107289
-0.00278975
0.00109517
-0.00279076
0.00111318
-0.00278537
0.00112804
-0.002776
0.00114058
-0.00276438
0.00115147
-0.00275168
0.00116117
-0.0027387
0.00117001
-0.00272592
0.00117825
-0.00271364
0.00118603
-0.00270198
-0.00269091
0.00119347
1.84199e-05
-0.000135447
6.85189e-05
-0.000453987
0.000144563
-0.000802993
0.000239463
-0.00116051
0.000345219
-0.00150496
0.000453915
-0.0018184
0.00055874
-0.00208865
0.000654673
-0.00230999
0.00073871
-0.00248236
0.000809684
-0.00260983
0.00086786
-0.00269887
0.000914439
-0.00275686
0.000951116
-0.002791
0.000979724
-0.00280764
0.001002
-0.00281203
0.00101946
-0.00280822
0.00103334
-0.00279925
0.00104462
-0.00278728
0.00105402
-0.00277377
0.00106208
-0.00275974
0.00106919
-0.00274581
0.00107562
-0.00273235
0.00108157
-0.00271959
0.00108716
-0.00270757
-0.00269622
0.00109246
1.9252e-05
-0.000154699
7.06949e-05
-0.00050543
0.000147519
-0.000879817
0.000241725
-0.00125471
0.000344737
-0.00160798
0.000448508
-0.00192217
0.000546509
-0.00218665
0.000634281
-0.00239776
0.000709483
-0.00255757
0.00077157
-0.00267192
0.000821287
-0.00274859
0.00086015
-0.00279573
0.000890003
-0.00282085
0.000912698
-0.00283034
0.000929905
-0.00282924
0.000943021
-0.00282134
0.000953153
-0.00280939
0.000961141
-0.00279526
0.000967605
-0.00278024
0.000972991
-0.00276513
0.000977614
-0.00275043
0.000981696
-0.00273644
0.000985389
-0.00272328
0.000988791
-0.00271097
-0.0026994
0.000991968
1.99736e-05
-0.000174673
7.24037e-05
-0.00055786
0.000149412
-0.000956825
0.000242157
-0.00134746
0.000341624
-0.00170744
0.000439782
-0.00202032
0.000530505
-0.00227737
0.000609953
-0.00247721
0.000676444
-0.00262406
0.000730001
-0.00272548
0.000771775
-0.00279037
0.000803514
-0.00282747
0.000827139
-0.00284448
0.000844473
-0.00284767
0.000857087
-0.00284185
0.000866248
-0.0028305
0.000872931
-0.00281607
0.000877856
-0.00280019
0.000881541
-0.00278392
0.000884354
-0.00276794
0.000886553
-0.00275263
0.000888317
-0.0027382