/*--------------------------------*- C++ -*----------------------------------*\
  =========                 |
  \\      /  F ield         | OpenFOAM: The Open Source CFD Toolbox
   \\    /   O peration     | Website:  https://openfoam.org
    \\  /    A nd           | Version:  6.0
     \\/     M anipulation  |
\*---------------------------------------------------------------------------*/
FoamFile
{
    version     2.0;
    format      ascii;
    class       surfaceScalarField;
    location    "91";
    object      phi;
}
// * * * * * * * * * * * * * * * * * * * * * * * * * * * * * * * * * * * * * //

dimensions      [0 3 -1 0 0 0 0];

internalField   nonuniform List<scalar> 
7840
(
-5.96876e-06
2.45462e-05
-1.85775e-05
-1.99921e-05
9.07705e-05
-7.67472e-05
-3.95075e-05
0.000165927
-0.000146412
-6.26603e-05
0.000243384
-0.000220231
-8.798e-05
0.000318839
-0.00029352
-0.000114201
0.000390032
-0.00036381
-0.000140186
0.00045604
-0.000430056
-0.000164913
0.000516694
-0.000491967
-0.000187505
0.000572132
-0.00054954
-0.000207263
0.00062253
-0.000602772
-0.000223695
0.000667981
-0.00065155
-0.000236522
0.000708483
-0.000695656
-0.000245673
0.000743991
-0.000734839
-0.00025126
0.000774493
-0.000768907
-0.000253534
0.000800085
-0.000797811
-0.000252848
0.000821022
-0.000821708
-0.000249611
0.00083775
-0.000840987
-0.000244254
0.000850914
-0.000856271
-0.00023721
0.000861387
-0.000868431
0.000870449
-0.00087872
-0.000228939
-4.35836e-06
2.89046e-05
-1.46549e-05
0.000101067
-2.8996e-05
0.000180269
-4.59816e-05
0.000260369
-6.44693e-05
0.000337327
-8.34354e-05
0.000408998
-0.000101921
0.000474526
-0.000119041
0.000533814
-0.000134019
0.000587109
-0.000146233
0.000634744
-0.000155246
0.000676995
-0.000160825
0.000714061
-0.000162922
0.000746088
-0.000161654
0.000773226
-0.000157263
0.000795694
-0.000150066
0.000813824
-0.000140419
0.000828103
-0.000128688
0.000839183
-0.000115233
0.000847932
0.000855663
-0.000100447
-2.79784e-06
3.17025e-05
-9.43142e-06
0.000107701
-1.86296e-05
0.000189467
-2.94225e-05
0.000271162
-4.09907e-05
0.000348895
-5.25604e-05
0.000420567
-6.33685e-05
0.000485335
-7.26794e-05
0.000543125
-7.98301e-05
0.00059426
-8.42786e-05
0.000639192
-8.56422e-05
0.000678359
-8.37137e-05
0.000712133
-7.84557e-05
0.00074083
-6.99765e-05
0.000764747
-5.84917e-05
0.000784209
-4.4282e-05
0.000799615
-2.76551e-05
0.000811476
-8.92155e-06
0.00082045
1.16144e-05
0.000827397
0.00083367
3.36075e-05
-1.36619e-06
3.30686e-05
-4.57762e-06
0.000110912
-8.8973e-06
0.000193786
-1.37337e-05
0.000275998
-1.85631e-05
0.000353725
-2.28524e-05
0.000424857
-2.60365e-05
0.000488519
-2.7539e-05
0.000544627
-2.68173e-05
0.000593538
-2.34136e-05
0.000635788
-1.6995e-05
0.00067194
-7.37548e-06
0.000702513
5.48503e-06
0.000727969
2.14989e-05
0.000748733
4.04829e-05
0.000765225
6.21963e-05
0.000777901
8.63749e-05
0.000787298
0.000112751
0.000794073
0.000141061
0.000799087
0.000803744
0.000170986
-1.27295e-07
3.31959e-05
-3.06515e-07
0.000111091
-2.18914e-07
0.000193699
4.24286e-07
0.000275355
1.89849e-06
0.00035225
4.52156e-06
0.000422234
8.67112e-06
0.000484369
1.4766e-05
0.000538533
2.32252e-05
0.000585079
3.442e-05
0.000624593
4.86333e-05
0.000657727
6.60341e-05
0.000685113
8.66715e-05
0.000707332
0.000110486
0.000724919
0.000137333
0.000738378
0.000167012
0.000748221
0.000199301
0.000755009
0.000233963
0.00075941
0.000270756
0.000762295
0.000765133
0.000309367
8.71783e-07
3.23242e-05
3.21519e-06
0.000108748
7.06537e-06
0.000189849
1.24998e-05
0.000269921
1.9608e-05
0.000345142
2.85329e-05
0.000413309
3.94881e-05
0.000473414
5.27459e-05
0.000525275
6.86059e-05
0.000569219
8.73532e-05
0.000605846
0.00010922
0.00063586
0.00013436
0.000659973
0.000162834
0.000678858
0.000194615
0.000693137
0.000229602
0.000703392
0.00026764
0.000710184
0.000308542
0.000714107
0.0003521
0.000715853
0.000398071
0.000716324
0.000717084
0.000446119
1.59883e-06
3.07253e-05
5.86808e-06
0.000104479
1.27012e-05
0.000183015
2.20641e-05
0.000260558
3.39324e-05
0.000333274
4.83248e-05
0.000398916
6.5325e-05
0.000456414
8.50802e-05
0.00050552
0.000107781
0.000546518
0.000133632
0.000579995
0.000162816
0.000606676
0.000195471
0.000627318
0.000231671
0.000642657
0.000271427
0.000653382
0.000314684
0.000660134
0.000361339
0.000663529
0.000411245
0.000664201
0.000464215
0.000662883
0.000519993
0.000660546
0.000658897
0.000578181
2.03657e-06
2.86888e-05
7.58081e-06
9.89344e-05
1.65254e-05
0.000174071
2.8825e-05
0.000248258
4.44164e-05
0.000317683
6.32507e-05
0.000380082
8.53229e-05
0.000434342
0.000110683
0.000480159
0.000139433
0.000517769
0.000171703
0.000547725
0.000207632
0.000570746
0.000247346
0.000587605
0.000290934
0.000599069
0.000338448
0.000605868
0.000389889
0.000608693
0.000445214
0.000608204
0.000504327
0.000605088
0.000567068
0.000600142
0.000633157
0.000594457
0.000589969
0.000702085
2.18077e-06
2.6508e-05
8.32815e-06
9.2787e-05
1.84673e-05
0.000163932
3.26361e-05
0.00023409
5.08048e-05
0.000299514
7.29134e-05
0.000357973
9.89117e-05
0.000408343
0.000128786
0.000450285
0.00016257
0.000483985
0.000200337
0.000509958
0.000242191
0.000528893
0.000288244
0.000541551
0.000338611
0.000548703
0.000393386
0.000551093
0.000452642
0.000549437
0.000516413
0.000544433
0.000584679
0.000536821
0.000657326
0.000527495
0.000734051
0.000517732
0.000509832
0.000814188
2.03928e-06
2.44687e-05
8.13011e-06
8.66962e-05
1.8551e-05
0.000153511
3.35068e-05
0.000219134
5.30653e-05
0.000279955
7.72068e-05
0.000333832
0.000105879
0.000379672
0.000139036
0.000417127
0.00017667
0.000446351
0.000218813
0.000467815
0.000265542
0.000482164
0.000316969
0.000490125
0.000373231
0.000492441
0.000434481
0.000489842
0.000500878
0.00048304
0.000572563
0.000472749
0.000649629
0.000459755
0.000732053
0.00044507
0.000819539
0.000430246
0.000418155
0.000911217
1.63217e-06
2.28365e-05
7.05329e-06
8.1275e-05
1.69003e-05
0.000143664
3.16144e-05
0.00020442
5.14139e-05
0.000260156
7.63628e-05
0.000308883
0.000106443
0.000349592
0.00014161
0.00038196
0.000181836
0.000406125
0.000227132
0.000422519
0.00027756
0.000431736
0.000333236
0.000434449
0.00039433
0.000431347
0.000461063
0.000423109
0.000533697
0.000410406
0.000612516
0.00039393
0.000697779
0.000374491
0.000789627
0.000353222
0.00088783
0.000332042
0.000314691
0.000991294
9.93135e-07
2.18434e-05
5.21467e-06
7.70535e-05
1.37462e-05
0.000135132
2.73192e-05
0.000190847
4.63425e-05
0.000241133
7.09988e-05
0.000284227
0.000101335
0.000319255
0.000137337
0.000345958
0.000178983
0.000364479
0.000226281
0.000375221
0.000279291
0.000378726
0.000338144
0.000375596
0.000403049
0.000366442
0.0004743
0.000351858
0.00055228
0.000332427
0.000637441
0.000308769
0.000730265
0.000281667
0.000831132
0.000252356
0.000939981
0.000223194
0.000199166
0.00105551
1.71797e-07
2.16716e-05
2.78661e-06
7.44387e-05
9.43575e-06
0.000128483
2.11785e-05
0.000179104
3.86436e-05
0.000223667
6.216e-05
0.00026071
9.1869e-05
0.000289546
0.000127814
0.000310013
0.000170007
0.000322286
0.000218477
0.000326751
0.000273306
0.000323898
0.000334649
0.000314253
0.000402762
0.000298329
0.000478015
0.000276605
0.000560905
0.000249536
0.000652061
0.000217613
0.000752199
0.000181529
0.000861991
0.000142563
0.000981641
0.000103545
7.11072e-05
0.0011097
-7.64501e-07
2.24361e-05
-3.44906e-10
7.36745e-05
4.4344e-06
0.000124048
1.39502e-05
0.000169588
2.94175e-05
0.0002082
5.13362e-05
0.000238792
7.99716e-05
0.000260911
0.000115459
0.000274525
0.00015788
0.000279865
0.000207322
0.000277309
0.000263916
0.000267304
0.000327868
0.000250301
0.000399488
0.000226709
0.000479212
0.000196881
0.000567623
0.000161124
0.000665468
0.000119768
0.000773635
7.33619e-05
0.00089304
2.31582e-05
0.00102418
-2.75972e-05
-7.03029e-05
0.00116559
-1.73094e-06
2.4167e-05
-2.86131e-06
7.48049e-05
-6.83832e-07
0.000121871
6.57503e-06
0.000162329
2.00454e-05
0.00019473
4.04254e-05
0.000218412
6.81404e-05
0.000233196
0.000103462
0.000239204
0.000146591
0.000236736
0.00019772
0.000226179
0.000257075
0.000207949
0.000324946
0.00018243
0.000401704
0.000149951
0.000487826
0.000110759
0.000583908
6.50419e-05
0.000690686
1.29913e-05
0.000809032
-4.49843e-05
0.0009399
-0.00010771
0.00108397
-0.000171666
-0.000226237
0.0012399
-2.62933e-06
2.67964e-05
-5.47226e-06
7.76478e-05
-5.26842e-06
0.000121667
1.21788e-07
0.000156939
1.21067e-05
0.000182745
3.16152e-05
0.000198903
5.92778e-05
0.000205533
9.5555e-05
0.000202927
0.000140826
0.000191464
0.000195448
0.000171557
0.00025979
0.000143607
0.00033425
0.000107971
0.000419262
6.49386e-05
0.000515291
1.47302e-05
0.000622828
-4.24947e-05
0.00074239
-0.000106571
0.000874541
-0.000177135
0.0010199
-0.000253066
0.001179
-0.000330765
-0.00039799
0.00135075
-3.35702e-06
3.01534e-05
-7.49847e-06
8.17893e-05
-8.64919e-06
0.000122818
-4.30697e-06
0.000152597
7.23461e-06
0.000171203
2.7172e-05
0.000178966
5.63894e-05
0.000176316
9.55922e-05
0.000163724
0.000145392
0.000141664
0.000206357
0.000110593
0.000279027
7.09369e-05
0.000363914
2.30835e-05
0.000461475
-3.26216e-05
0.000572072
-9.58672e-05
0.000695936
-0.000166358
0.000833131
-0.000243767
0.000983571
-0.000327576
0.00114709
-0.000416589
0.00132358
-0.000507253
-0.000586484
0.00151208
-3.81979e-06
3.39732e-05
-8.63376e-06
8.66032e-05
-1.02128e-05
0.000124397
-5.70178e-06
0.000148086
6.92214e-06
0.000158579
2.91575e-05
0.00015673
6.21834e-05
0.00014329
0.00010699
0.000118918
0.00016445
8.42039e-05
0.00023535
3.9692e-05
0.000320387
-1.40999e-05
0.00042013
-7.66596e-05
0.000534968
-0.000147459
0.000665032
-0.000225931
0.000810116
-0.000311443
0.000969615
-0.000403265
0.00114251
-0.000500475
0.00132752
-0.000601599
0.00152338
-0.000703106
-0.000791869
0.00172876
-3.94597e-06
3.79192e-05
-8.64247e-06
9.12997e-05
-9.48401e-06
0.000125238
-3.27939e-06
0.000141881
1.23206e-05
0.000142979
3.91374e-05
0.000129914
7.86633e-05
0.000103764
0.000132176
6.54048e-05
0.000200791
1.55888e-05
0.000285464
-4.49806e-05
0.000386958
-0.000115594
0.000505785
-0.000195486
0.000642126
-0.0002838
0.000795739
-0.000379544
0.000965856
-0.00048156
0.00115108
-0.000588491
0.00134934
-0.00069873
0.00155795
-0.000810215
0.00177414
-0.000919293
-0.00101332
0.00199559
-3.69796e-06
4.16171e-05
-7.39279e-06
9.49946e-05
-6.18895e-06
0.000124034
3.41375e-06
0.000132278
2.40853e-05
0.000122308
5.79648e-05
9.6034e-05
0.000106838
5.48915e-05
0.000172222
2.08037e-08
0.000255388
-6.75776e-05
0.000357335
-0.000146927
0.000478731
-0.00023699
0.000619847
-0.000336602
0.000780482
-0.000444435
0.000959902
-0.000558964
0.00115679
-0.000678447
0.0013692
-0.0008009
0.00159449
-0.000924022
0.0018291
-0.00104483
0.00206753
-0.00115772
-0.00124222
0.00229643
-3.07761e-06
4.46947e-05
-4.87154e-06
9.67885e-05
-2.82607e-07
0.000119446
1.44597e-05
0.000117536
4.23175e-05
9.44499e-05
8.5708e-05
5.26435e-05
0.000146641
-6.04162e-06
0.000226766
-8.01039e-05
0.000327352
-0.000168164
0.000449237
-0.000268812
0.00059275
-0.000380503
0.000757655
-0.000501508
0.000943114
-0.000629894
0.0011477
-0.000763546
0.00136945
-0.000900206
0.0016061
-0.00103755
0.00185533
-0.00117325
0.00211553
-0.00130503
0.00238836
-0.00143055
-0.00153823
0.00268437
-2.11953e-06
4.68142e-05
-1.16836e-06
9.58373e-05
8.07817e-06
0.000110199
2.96103e-05
9.6004e-05
6.66283e-05
5.74319e-05
0.000121749
-2.47733e-06
0.000197089
-8.13816e-05
0.00029426
-0.000177274
0.000414309
-0.000288213
0.00055764
-0.000412143
0.000723944
-0.000546806
0.000912156
-0.00068972
0.00112047
-0.000838212
0.00134643
-0.000989505
0.00158705
-0.00114083
0.00183904
-0.00128954
0.00209907
-0.00143328
0.00236414
-0.0015701
0.00263227
-0.00169867
-0.00181065
0.00290469
-8.82804e-07
4.76971e-05
3.55246e-06
9.14021e-05
1.85916e-05
9.51599e-05
4.83835e-05
6.62122e-05
9.62864e-05
9.52897e-06
0.000165
-7.11912e-05
0.000256581
-0.000172963
0.000372382
-0.000293075
0.000512956
-0.000428787
0.00067797
-0.000577157
0.000866157
-0.000734993
0.00107533
-0.000898897
0.0013025
-0.00106538
0.001544
-0.001231
0.00179574
-0.00139257
0.00205348
-0.00154727
0.00231302
-0.00169281
0.00257042
-0.00182751
0.00282218
-0.00195043
-0.00205594
0.00306747
5.68139e-07
4.71289e-05
9.10291e-06
8.28673e-05
3.0902e-05
7.33608e-05
7.02013e-05
2.69129e-05
0.000130412
-5.06813e-05
0.00021416
-0.00015494
0.00032323
-0.000282033
0.000458446
-0.000428291
0.000619558
-0.000589899
0.00080518
-0.000762779
0.00101281
-0.00094262
0.00123894
-0.00112503
0.00147929
-0.00130573
0.0017291
-0.0014808
0.00198339
-0.00164687
0.00223736
-0.00180124
0.00248657
-0.00194202
0.00272715
-0.00206808
0.00295587
-0.00217916
-0.00227238
0.00317232
2.17864e-06
4.49503e-05
1.53147e-05
6.97313e-05
4.46781e-05
4.39975e-05
9.45085e-05
-2.29175e-05
0.000168134
-0.000124307
0.000267912
-0.000254719
0.000395092
-0.000409212
0.000549657
-0.000582856
0.00073023
-0.000770473
0.000934082
-0.000966631
0.00115728
-0.00116581
0.00139494
-0.0013627
0.00164165
-0.00155244
0.00189181
-0.00173096
0.00214008
-0.00189513
0.00238166
-0.00204283
0.0026126
-0.00217295
0.00282981
-0.0022853
0.00303117
-0.00238051
-0.00245792
0.00321671
3.91431e-06
4.1036e-05
2.20688e-05
5.15768e-05
5.96645e-05
6.40172e-06
0.000120842
-8.40952e-05
0.000208676
-0.000212141
0.00032501
-0.000371052
0.000470246
-0.000554448
0.000643192
-0.000755801
0.000841033
-0.000968314
0.00105949
-0.00118509
0.00129314
-0.00139947
0.00153591
-0.00160546
0.00178156
-0.00179809
0.0020242
-0.00197361
0.00225871
-0.00212965
0.00248099
-0.00226511
0.00268811
-0.00238007
0.00287828
-0.00247547
0.0030508
-0.00255303
-0.00261368
0.00320657
5.76392e-06
3.52721e-05
2.9303e-05
2.80378e-05
7.56916e-05
-3.99869e-05
0.000148838
-0.000157242
0.000251346
-0.000314649
0.000384246
-0.000503952
0.00054675
-0.000716952
0.000736155
-0.000945206
0.000947972
-0.00118013
0.00117631
-0.00141342
0.00141442
-0.00163758
0.00165539
-0.00184643
0.00189273
-0.00203543
0.0021209
-0.00220177
0.0023356
-0.00234435
0.00253394
-0.00246345
0.00271437
-0.0025605
0.00287656
-0.00263767
0.00302113
-0.0026976
-0.00274234
0.00314979
7.73471e-06
2.75374e-05
3.69987e-05
-1.22624e-06
9.26477e-05
-9.56358e-05
0.00017818
-0.000242774
0.000295458
-0.000431927
0.000444356
-0.00065285
0.000622541
-0.000895136
0.000825522
-0.00114819
0.00104704
-0.00140165
0.00127974
-0.00164611
0.00151593
-0.00187378
0.00174844
-0.00207894
0.00197117
-0.00225816
0.00217953
-0.00241013
0.00237053
-0.00253535
0.00254278
-0.0026357
0.0026962
-0.00271392
0.00283175
-0.00277322
0.00295109
-0.00281694
-0.00284779
0.00305654
9.84308e-06
1.76943e-05
4.51542e-05
-3.65374e-05
0.000110429
-0.000160911
0.000208524
-0.000340869
0.000340238
-0.000563641
0.00050392
-0.000816533
0.000695375
-0.00108659
0.000908181
-0.00136099
0.00113441
-0.00162789
0.00136561
-0.00187731
0.00159375
-0.00210192
0.00181203
-0.00229722
0.00201538
-0.00246151
0.0022006
-0.00259535
0.00236629
-0.00270105
0.00251255
-0.00278195
0.00264057
-0.00284194
0.0027523
-0.00288495
0.00285002
-0.00291467
-0.00293409
0.00293632
1.2104e-05
5.59035e-06
5.37547e-05
-7.81881e-05
0.000128888
-0.000236043
0.000239428
-0.00045141
0.000384748
-0.00070896
0.00056132
-0.000993105
0.000762873
-0.00128814
0.000981092
-0.00157921
0.00120672
-0.00185351
0.00143076
-0.00210136
0.00164552
-0.00231667
0.00184522
-0.00249692
0.00202625
-0.00264254
0.00218706
-0.00275616
0.00232778
-0.00284177
0.00244979
-0.00290396
0.00255524
-0.00294738
0.00264662
-0.00297633
0.0027265
-0.00299455
-0.00300501
0.00279742
1.45221e-05
-8.93179e-06
6.27486e-05
-0.000126415
0.000147793
-0.000321088
0.00027031
-0.000573926
0.000427869
-0.000866519
0.000614786
-0.00118002
0.00082266
-0.00149602
0.00104154
-0.00179809
0.00126137
-0.00207335
0.00147332
-0.0023133
0.00167063
-0.00251399
0.00184904
-0.00267533
0.00200663
-0.00280013
0.00214344
-0.00289297
0.00226093
-0.00295926
0.00236141
-0.00300444
0.00244757
-0.00303354
0.00252212
-0.00305088
0.00258758
-0.00306001
-0.00306367
0.00264624
1.70872e-05
-2.6019e-05
7.20347e-05
-0.000181362
0.000166817
-0.00041587
0.000300445
-0.000707555
0.000468345
-0.00103442
0.000662514
-0.00137419
0.000872571
-0.00170608
0.0010874
-0.00201292
0.00129681
-0.00228276
0.00149278
-0.00250927
0.00167004
-0.00269125
0.00182604
-0.00283134
0.00196056
-0.00293464
0.002075
-0.00300741
0.00217179
-0.00305605
0.0022538
-0.00308645
0.00232391
-0.00310365
0.00238477
-0.00311174
0.00243865
-0.00311389
-0.00311252
0.0024875
1.97722e-05
-4.57912e-05
8.146e-05
-0.00024305
0.00018554
-0.00051995
0.000329003
-0.000851018
0.000504868
-0.00121028
0.000702822
-0.00157214
0.000910865
-0.00191412
0.00111733
-0.00221938
0.00131257
-0.002478
0.00148995
-0.00268664
0.00164593
-0.00284723
0.00177974
-0.00296515
0.00189261
-0.00304751
0.00198699
-0.00310179
0.0020659
-0.00313496
0.00213242
-0.00315296
0.00218935
-0.00316058
0.00223909
-0.00316148
0.00228359
-0.00315839
-0.00315334
0.00232441
2.25349e-05
-6.83261e-05
9.08275e-05
-0.000311342
0.000203475
-0.000632598
0.000355107
-0.00100265
0.000536191
-0.00139137
0.000734309
-0.00177026
0.000936369
-0.00211618
0.00113083
-0.00241385
0.00130922
-0.00265639
0.0014666
-0.00284402
0.00160128
-0.00298191
0.00171407
-0.00307794
0.00180733
-0.00314077
0.0018842
-0.00317866
0.00194795
-0.00319871
0.0020016
-0.00320661
0.00204771
-0.00320669
0.00208833
-0.00320211
0.00212507
-0.00319513
-0.0031874
0.00215913
2.53209e-05
-9.3647e-05
9.99081e-05
-0.00038593
0.000220102
-0.000752792
0.000377899
-0.00116045
0.000561235
-0.00157471
0.000755969
-0.001965
0.000948553
-0.00230876
0.00112823
-0.00259353
0.00128812
-0.00281628
0.00142517
-0.00298106
0.0015394
-0.00309615
0.00163291
-0.00317145
0.00170886
-0.00321672
0.00177071
-0.00324051
0.00182171
-0.00324971
0.00186465
-0.00324955
0.00190177
-0.0032438
0.00193475
-0.0032351
0.00196487
-0.00322525
-0.00321555
0.00199302
2.80668e-05
-0.000121714
0.000108456
-0.000466318
0.000234904
-0.00087924
0.000396614
-0.00132216
0.000579175
-0.00175727
0.000767254
-0.00215307
0.000947511
-0.00248902
0.00111051
-0.00275653
0.00125122
-0.00295698
0.00136842
-0.00309826
0.00146361
-0.00319134
0.00153985
-0.00324769
0.00160074
-0.00327761
0.00164979
-0.00328956
0.00169006
-0.00328998
0.001724
-0.00328349
0.00175348
-0.00327328
0.00177986
-0.00326149
0.00180412
-0.00324951
-0.00323835
0.00182693
3.07048e-05
-0.000152419
0.000116223
-0.000551837
0.000247406
-0.00101042
0.000410631
-0.00148538
0.000589493
-0.00193613
0.000768078
-0.00233166
0.000933869
-0.00265481
0.00107912
-0.00290178
0.00120072
-0.00307859
0.00129913
-0.00319667
0.001377
-0.00326922
0.00143799
-0.00330868
0.00148587
-0.00332549
0.001524
-0.0033277
0.00155513
-0.00332111
0.00158134
-0.0033097
0.00160416
-0.0032961
0.00162466
-0.00328199
0.00164357
-0.00326842
-0.00325615
0.00166137
3.31671e-05
-0.000185586
0.000122979
-0.000641649
0.000257202
-0.00114465
0.000419512
-0.00164769
0.000591987
-0.0021086
0.000758769
-0.00249844
0.000908657
-0.0028047
0.00103581
-0.00302893
0.00113895
-0.00318173
0.00121994
-0.00327766
0.00128226
-0.00333154
0.00132989
-0.00335631
0.00136653
-0.00336213
0.00139527
-0.00335643
0.00141848
-0.00334432
0.00143789
-0.00332912
0.00145472
-0.00331293
0.00146979
-0.00329706
0.00148366
-0.00328228
-0.00326915
0.00149666
3.53821e-05
-0.000220968
0.000128503
-0.00073477
0.00026396
-0.0012801
0.000422993
-0.00180673
0.000586732
-0.00227234
0.000739964
-0.00265167
0.000873157
-0.00293789
0.000982412
-0.00313819
0.00106811
-0.00326743
0.0011332
-0.00334275
0.0011817
-0.00338004
0.00121763
-0.00339224
0.00124449
-0.00338899
0.00126502
-0.00337695
0.00128121
-0.00336051
0.00129447
-0.00334238
0.00130576
-0.00332422
0.0013157
-0.003307
0.0013247
-0.00329129
-0.00327748
0.00133303
3.72793e-05
0.000132607
0.000267453
0.000421018
0.00057408
0.000712561
0.000828805
0.000920774
0.000990246
0.00104096
0.00107718
0.00110282
0.00112107
0.00113427
0.0011441
0.00115166
0.00115769
0.00116267
0.00116691
0.0011706
3.78782e-05
0.000290434
0.000131123
0.000900896
0.000258408
0.00150572
0.000398024
0.00205768
0.000531832
0.00252067
0.000648044
0.00287836
0.000741458
0.0031331
0.000811953
0.00329937
0.000862436
0.00339668
0.000897049
0.00344442
0.000919952
0.00345897
0.00093469
0.00345282
0.000943983
0.00343475
0.000949767
0.00341054
0.000953357
0.00338381
0.000955619
0.00335673
0.000957123
0.00333061
0.000958244
0.00330618
0.000959217
0.00328386
0.00326397
0.000960178
3.64932e-05
0.000253941
0.000128854
0.000808536
0.000258471
0.0013761
0.000405036
0.00191112
0.000550171
0.00237553
0.000680673
0.00274785
0.00078955
0.00302422
0.000875132
0.00321378
0.000939311
0.00333251
0.000985765
0.00339796
0.00101863
0.00342611
0.00104166
0.00342979
0.00105793
0.00341848
0.00106972
0.00339876
0.00107863
0.0033749
0.00108575
0.00334961
0.00109183
0.00332453
0.00109734
0.00330066
0.0011026
0.0032786
0.00325877
0.0011078
3.47771e-05
0.000219164
0.000125202
0.000718111
0.000255531
0.00124578
0.000407285
0.00175936
0.000562353
0.00222046
0.000706452
0.00260376
0.000830863
0.00289981
0.000932219
0.00311243
0.00101115
0.00325357
0.00107064
0.00333848
0.00111458
0.00338217
0.00114687
0.0033975
0.00117085
0.0033945
0.00118915
0.00338046
0.0012037
0.00336034
0.00121587
0.00333744
0.0012266
0.0033138
0.00123651
0.00329075
0.00124603
0.00326909
0.0032494
0.00125541
3.27732e-05
0.000186391
0.000120274
0.00063061
0.000249672
0.00111638
0.000404665
0.00160437
0.000567929
0.0020572
0.000724527
0.00244716
0.000864187
0.00276015
0.000981779
0.00299484
0.00107645
0.0031589
0.00115022
0.00326472
0.00120652
0.00332586
0.00124922
0.00335481
0.00128185
0.00336187
0.00130736
0.00335494
0.00132805
0.00333966
0.00134557
0.00331991
0.00136112
0.00329826
0.0013755
0.00327637
0.00138926
0.00325532
0.00323589
0.00140277
3.05348e-05
0.000155856
0.000114214
0.000546931
0.000241059
0.000989533
0.000397197
0.00144823
0.000566587
0.00188781
0.000734141
0.0022796
0.000888329
0.00260596
0.00102229
0.00286088
0.00113352
0.00304767
0.0012228
0.00317544
0.00129287
0.00325578
0.00134732
0.00330036
0.00138978
0.00331942
0.00142345
0.00332126
0.00145096
0.00331215
0.0014743
0.00329657
0.00149494
0.00327762
0.00151394
0.00325738
0.00153201
0.00323725
0.00321827
0.00154963
2.8125e-05
0.000127731
0.000107211
0.000467845
0.000229977
0.000866767
0.000385104
0.0012931
0.000558265
0.00171465
0.000734765
0.0021031
0.000902231
0.0024385
0.00105222
0.00271089
0.00118052
0.00291937
0.00128643
0.00306953
0.00137171
0.0031705
0.00143944
0.00323263
0.00149313
0.00326573
0.00153615
0.00327824
0.00157142
0.00327689
0.00160126
0.00326673
0.00162746
0.00325141
0.00165136
0.00323349
0.00167387
0.00321473
0.00319647
0.00169567
2.5606e-05
0.000102125
9.94744e-05
0.000393976
0.000216786
0.000749456
0.000368775
0.00114112
0.000543153
0.00154027
0.000726154
0.0019201
0.000905068
0.00225958
0.00107018
0.00254577
0.00121558
0.00277397
0.00133896
0.00294614
0.00144082
0.00306865
0.00152344
0.00315001
0.00158998
0.00319918
0.00164382
0.0032244
0.00168807
0.00323265
0.00172535
0.00322944
0.00175781
0.00321896
0.00178706
0.00320424
0.00181431
0.00318748
0.00317036
0.00184043
2.30378e-05
7.90871e-05
9.12248e-05
0.000325789
0.000201908
0.000638772
0.000348757
0.000994267
0.000521713
0.00136731
0.000708408
0.00173341
0.000896359
0.00207163
0.001075
0.00236713
0.00123693
0.00261205
0.00137816
0.00280491
0.00149771
0.0029491
0.0015968
0.00305092
0.00167796
0.00311801
0.00174433
0.00315803
0.00179908
0.0031779
0.00184508
0.00318344
0.00188476
0.00317928
0.00192007
0.00316892
0.00195254
0.00315502
0.00313962
0.00198327
2.04776e-05
5.86095e-05
8.26863e-05
0.000263581
0.000185811
0.000535648
0.000325733
0.000854345
0.000494672
0.00119838
0.00068202
0.00154606
0.000876067
0.00187758
0.00106593
0.00217726
0.00124305
0.00243493
0.00140185
0.00264611
0.00153977
0.00281118
0.00165668
0.00293401
0.00175422
0.00302047
0.00183502
0.00307724
0.00190208
0.00311084
0.00195838
0.00312714
0.0020066
0.00313106
0.002049
0.00312651
0.00208743
0.00311659
0.00310376
0.0021233
1.7979e-05
4.06305e-05
7.40816e-05
0.000207478
0.000168985
0.000440745
0.000300489
0.00072284
0.000463001
0.00103586
0.000647886
0.00136118
0.000844685
0.00168078
0.00104277
0.00197917
0.00123289
0.00224481
0.00140815
0.00247085
0.0015644
0.00265493
0.00170005
0.00279836
0.00181552
0.00290499
0.00191265
0.00298011
0.00199404
0.00302946
0.00206255
0.00305863
0.00212099
0.00307262
0.00217187
0.00307564
0.00221733
0.00307112
0.00306196
0.00225913
1.55929e-05
2.50376e-05
6.56282e-05
0.000157443
0.000151932
0.000354441
0.000273884
0.000600888
0.000427868
0.000881879
0.000607282
0.00118176
0.000803271
0.00148479
0.001006
0.00177644
0.00120608
0.00204473
0.00139571
0.00228122
0.00156935
0.00248129
0.00172389
0.00264383
0.00185837
0.00277051
0.00197354
0.00286493
0.0020713
0.0029317
0.00215416
0.00297578
0.00222483
0.00300195
0.00228596
0.0030145
0.00233995
0.00301714
0.00301307
0.00238883
1.33684e-05
1.16692e-05
5.75376e-05
0.000113274
0.000135152
0.000276827
0.00024681
0.00048923
0.000390583
0.000738105
0.000561809
0.00101054
0.000753429
0.00129318
0.000956848
0.00157302
0.00116311
0.00183847
0.00136401
0.00208032
0.00155299
0.00229231
0.00172555
0.00247127
0.0018793
0.00261677
0.0020137
0.00273053
0.00212965
0.00281575
0.002229
0.00287642
0.00231415
0.0029168
0.00238766
0.00294099
0.00245205
0.00295275
0.00295553
0.00250959
1.13551e-05
3.14051e-07
5.00147e-05
7.4614e-05
0.000119129
0.000207713
0.000220161
0.000388198
0.000352528
0.000605738
0.000513297
0.000849766
0.000697231
0.00110924
0.000897272
0.00137298
0.00110539
0.00163036
0.00131356
0.00187215
0.00151467
0.00209119
0.00170317
0.00228277
0.00187532
0.00244462
0.00202922
0.00257663
0.00216457
0.0026804
0.00228229
0.0027587
0.00238415
0.00281494
0.00247238
0.00285276
0.00254941
0.00287572
0.00288733
0.00261762
9.602e-06
-9.28795e-06
4.32529e-05
4.0963e-05
0.000104321
0.000146645
0.000194795
0.000297724
0.000315083
0.00048545
0.000463693
0.000701157
0.000637085
0.000935849
0.000829865
0.0011802
0.00103529
0.00142493
0.00124605
0.0016614
0.00145503
0.00188221
0.00165605
0.00208174
0.00184436
0.00225631
0.00201677
0.00240422
0.0021717
0.00252547
0.00230895
0.00262146
0.00242937
0.00269451
0.0025346
0.00274753
0.00262667
0.00278364
0.00280612
0.00270788
8.15429e-06
-1.74422e-05
3.7422e-05
1.16953e-05
9.11251e-05
9.29418e-05
0.000171478
0.000217371
0.000279538
0.000377391
0.000414915
0.00056578
0.000575545
0.000775219
0.000757651
0.000998094
0.000955988
0.00122659
0.00116433
0.00145306
0.0013761
0.00167044
0.00158505
0.00187279
0.00178581
0.00205556
0.0019742
0.00221582
0.00214748
0.0023522
0.00230423
0.00246471
0.00244424
0.0025545
0.00256824
0.00262353
0.00267765
0.00267423
0.00270934
0.00277444
7.04613e-06
-2.44884e-05
3.2646e-05
-1.39046e-05
7.98421e-05
4.57458e-05
0.000150819
0.000146394
0.000246973
0.000281237
0.000368686
0.000444067
0.000515067
0.000628838
0.000683789
0.000829372
0.000871115
0.00103927
0.00107215
0.00125202
0.00128128
0.00146132
0.00149267
0.00166139
0.00170086
0.00184737
0.00190113
0.00201556
0.00208981
0.00216351
0.00226444
0.00229008
0.00242368
0.00239526
0.00256723
0.00247998
0.00269558
0.00254588
0.00259481
0.00281011
6.2909e-06
-3.07793e-05
2.89758e-05
-3.65895e-05
7.0621e-05
4.10055e-06
0.00013318
8.38343e-05
0.000218136
0.000196282
0.000326334
0.000335869
0.000457741
0.000497432
0.000611213
0.000675899
0.000784397
0.000866083
0.000973787
0.00106263
0.00117496
0.00126015
0.00138293
0.00145341
0.00159263
0.00163768
0.00179926
0.00180892
0.00199871
0.00196406
0.00218774
0.00210105
0.0023641
0.0022189
0.00252649
0.00231759
0.00267443
0.00239794
0.00246047
0.00280877
5.87174e-06
-3.6651e-05
2.63625e-05
-5.70802e-05
6.34116e-05
-3.29486e-05
0.000118602
2.86437e-05
0.000193315
0.000121569
0.000288609
0.000240575
0.000405003
0.000381038
0.000542241
0.000538662
0.000699115
0.000709209
0.000873402
0.000888344
0.00106194
0.00107161
0.00126083
0.00125452
0.00146577
0.00143274
0.00167236
0.00160233
0.0018765
0.00175992
0.00207465
0.00190291
0.00226399
0.00202955
0.00244257
0.00213902
0.00260903
0.00223148
0.00230632
0.00276318
5.73556e-06
-4.23866e-05
2.46425e-05
-7.59872e-05
5.79364e-05
-6.62425e-05
0.000106754
-2.01736e-05
0.000172258
5.60646e-05
0.000255537
0.000157295
0.000357413
0.000279162
0.00047822
0.000417855
0.000617612
0.000569817
0.00077443
0.000731526
0.000946675
0.000899365
0.00113158
0.00106961
0.00132582
0.00123851
0.00152572
0.00140243
0.00172761
0.00155803
0.00192807
0.00170244
0.00212424
0.00183338
0.0023141
0.00194916
0.00249682
0.00204875
0.00212986
0.00267328
5.79354e-06
-4.81801e-05
2.35416e-05
-9.37352e-05
5.36998e-05
-9.64008e-05
9.69439e-05
-6.34177e-05
0.000154174
-1.16559e-06
0.000226398
8.50712e-05
0.000314556
0.000191004
0.000419326
0.000313085
0.000540936
0.000448207
0.000679018
0.000593444
0.00083252
0.000745862
0.000999701
0.000902428
0.00117821
0.00106
0.00136526
0.00121539
0.00155781
0.00136547
0.00175292
0.00150733
0.00194798
0.00163833
0.00214119
0.00175595
0.00233326
0.00185668
0.00193103
0.00253209
5.92954e-06
-5.41097e-05
2.27015e-05
-0.000110507
5.00403e-05
-0.00012374
8.82014e-05
-0.000101579
0.000137835
-5.07995e-05
0.000199829
2.30777e-05
0.000275131
0.000115703
0.000364577
0.000223639
0.00046873
0.000344054
0.000587738
0.000474435
0.000721233
0.000612368
0.000868273
0.000755387
0.00102735
0.000900917
0.00119647
0.00104627
0.00137322
0.00118872
0.00155496
0.00132559
0.00173894
0.00145435
0.00192222
0.00157267
0.00210132
0.00167757
0.00176017
0.00227219
6.01121e-06
-6.01209e-05
2.17211e-05
-0.000126217
4.62149e-05
-0.000148233
7.94136e-05
-0.000134778
0.000121776
-9.31616e-05
0.000174079
-2.92259e-05
0.000237235
5.25472e-05
0.000312125
0.000148749
0.000399468
0.00025671
0.000499706
0.000374198
0.000612901
0.000499173
0.000738675
0.000629613
0.000876171
0.000763421
0.00102406
0.000898386
0.00118058
0.0010322
0.00134362
0.00116254
0.00151089
0.00128709
0.00168018
0.00140338
0.00185001
0.00150775
0.00159007
0.0020201
5.91032e-06
-6.60312e-05
2.02144e-05
-0.000140521
4.15092e-05
-0.000169528
6.9499e-05
-0.000162767
0.000104536
-0.000128198
0.000147335
-7.20248e-05
0.000198767
1.11499e-06
0.000259708
8.78074e-05
0.000330927
0.000185491
0.000412998
0.000292127
0.000506226
0.000405944
0.000610589
0.00052525
0.000725697
0.000648314
0.000850774
0.000773309