/*--------------------------------*- C++ -*----------------------------------*\
  =========                 |
  \\      /  F ield         | OpenFOAM: The Open Source CFD Toolbox
   \\    /   O peration     | Website:  https://openfoam.org
    \\  /    A nd           | Version:  6.0
     \\/     M anipulation  |
\*---------------------------------------------------------------------------*/
FoamFile
{
    version     2.0;
    format      ascii;
    class       volScalarField;
    location    "29";
    object      p;
}
// * * * * * * * * * * * * * * * * * * * * * * * * * * * * * * * * * * * * * //

dimensions      [0 2 -2 0 0 0 0];

internalField   nonuniform List<scalar> 
4000
(
-0.254977
-0.255936
-0.256565
-0.257021
-0.257401
-0.25772
-0.257991
-0.258227
-0.258437
-0.258627
-0.258802
-0.258966
-0.259125
-0.259281
-0.25944
-0.25961
-0.259794
-0.25994
-0.260024
-0.260581
-0.255077
-0.256032
-0.256657
-0.257109
-0.257484
-0.257797
-0.258061
-0.25829
-0.258492
-0.258674
-0.258841
-0.258997
-0.259147
-0.259294
-0.259444
-0.259606
-0.259781
-0.25992
-0.259995
-0.260545
-0.255286
-0.256235
-0.256854
-0.257296
-0.257661
-0.257962
-0.258213
-0.258428
-0.258616
-0.258783
-0.258933
-0.259073
-0.259206
-0.259336
-0.259469
-0.259614
-0.259774
-0.259898
-0.259957
-0.260496
-0.255606
-0.256546
-0.257154
-0.257583
-0.257932
-0.258215
-0.258447
-0.258641
-0.258807
-0.25895
-0.259076
-0.259191
-0.259298
-0.259402
-0.259509
-0.259629
-0.259765
-0.259866
-0.259901
-0.260425
-0.256036
-0.256965
-0.257559
-0.25797
-0.258297
-0.258556
-0.258762
-0.258927
-0.259063
-0.259174
-0.259268
-0.259348
-0.259419
-0.259487
-0.259558
-0.259642
-0.259745
-0.259815
-0.259817
-0.260319
-0.256578
-0.257493
-0.258069
-0.258458
-0.258757
-0.258985
-0.259157
-0.259286
-0.259383
-0.259453
-0.259504
-0.259539
-0.259564
-0.259584
-0.259606
-0.259644
-0.259702
-0.25973
-0.259688
-0.260164
-0.257234
-0.258132
-0.258686
-0.259046
-0.259312
-0.259502
-0.259633
-0.259717
-0.259766
-0.259786
-0.259783
-0.259761
-0.259727
-0.259687
-0.259647
-0.259624
-0.259624
-0.259596
-0.259499
-0.259942
-0.258006
-0.258885
-0.259412
-0.259739
-0.259964
-0.260109
-0.26019
-0.260221
-0.260214
-0.260173
-0.260105
-0.260015
-0.259908
-0.259792
-0.259675
-0.259573
-0.259499
-0.2594
-0.259231
-0.259633
-0.258901
-0.259756
-0.26025
-0.260537
-0.260715
-0.260807
-0.260831
-0.260801
-0.260727
-0.260616
-0.260473
-0.260301
-0.260108
-0.259899
-0.259686
-0.259487
-0.259317
-0.259125
-0.258865
-0.259216
-0.259923
-0.260748
-0.261204
-0.261444
-0.261567
-0.261599
-0.261558
-0.261459
-0.261311
-0.261121
-0.260891
-0.260627
-0.260332
-0.260014
-0.259685
-0.259365
-0.259074
-0.258763
-0.258385
-0.25867
-0.26108
-0.261868
-0.262278
-0.262462
-0.262524
-0.262487
-0.262374
-0.262199
-0.261971
-0.261694
-0.26137
-0.261002
-0.260592
-0.260148
-0.259681
-0.259214
-0.25877
-0.258305
-0.257772
-0.257969
-0.262381
-0.263122
-0.263477
-0.263597
-0.263587
-0.263475
-0.263283
-0.263026
-0.262712
-0.262342
-0.261918
-0.261438
-0.260904
-0.260318
-0.259691
-0.259048
-0.258416
-0.257751
-0.257012
-0.257087
-0.263835
-0.264518
-0.264806
-0.264852
-0.264761
-0.264565
-0.264287
-0.263942
-0.263538
-0.263073
-0.262546
-0.26195
-0.261283
-0.260544
-0.259738
-0.25889
-0.25803
-0.25711
-0.256093
-0.25599
-0.265452
-0.266062
-0.266271
-0.26623
-0.266047
-0.265757
-0.265385
-0.264948
-0.26445
-0.263889
-0.263258
-0.262546
-0.261745
-0.260845
-0.259847
-0.258768
-0.257636
-0.256397
-0.255008
-0.25464
-0.267243
-0.267764
-0.267879
-0.267736
-0.267447
-0.267051
-0.266576
-0.266039
-0.265443
-0.264784
-0.26405
-0.263226
-0.262293
-0.261233
-0.260035
-0.258706
-0.257264
-0.255636
-0.253756
-0.252991
-0.269222
-0.269634
-0.269636
-0.269375
-0.268962
-0.268445
-0.267854
-0.267206
-0.266506
-0.265746
-0.26491
-0.263977
-0.262918
-0.261706
-0.26031
-0.258722
-0.256943
-0.254866
-0.25236
-0.251014
-0.271401
-0.271684
-0.271553
-0.271152
-0.270595
-0.269937
-0.269212
-0.26844
-0.267625
-0.266756
-0.265816
-0.264776
-0.2636
-0.262247
-0.26067
-0.258835
-0.256719
-0.254169
-0.250934
-0.248764
-0.273798
-0.27393
-0.273642
-0.273077
-0.272352
-0.271529
-0.270649
-0.269733
-0.268785
-0.267797
-0.266746
-0.2656
-0.264316
-0.262841
-0.261108
-0.259055
-0.256624
-0.253607
-0.249535
-0.246149
-0.276437
-0.276393
-0.275921
-0.275163
-0.274242
-0.273227
-0.272166
-0.271082
-0.269984
-0.268861
-0.267693
-0.266447
-0.265077
-0.263524
-0.261705
-0.259519
-0.256842
-0.253322
-0.248085
-0.242698
-0.279347
-0.279098
-0.278412
-0.277431
-0.276283
-0.275047
-0.273777
-0.272502
-0.271232
-0.269964
-0.26868
-0.267358
-0.265967
-0.26447
-0.262816
-0.260939
-0.258724
-0.255712
-0.250668
-0.244705
-0.282565
-0.282078
-0.281145
-0.279909
-0.278502
-0.277015
-0.27551
-0.27402
-0.272562
-0.271139
-0.269745
-0.268378
-0.267043
-0.265765
-0.26461
-0.263726
-0.263389
-0.264044
-0.267297
-0.280158
-0.286136
-0.285372
-0.284158
-0.282633
-0.280936
-0.279171
-0.277406
-0.275683
-0.274023
-0.272438
-0.270936
-0.269534
-0.268269
-0.267212
-0.266497
-0.266355
-0.267168
-0.269501
-0.274574
-0.287108
-0.290111
-0.289027
-0.287492
-0.285647
-0.283631
-0.281563
-0.27952
-0.27755
-0.27568
-0.273931
-0.272322
-0.270888
-0.269686
-0.268815
-0.26843
-0.268767
-0.270168
-0.273067
-0.278077
-0.287814
-0.294549
-0.293093
-0.291198
-0.289001
-0.28664
-0.28425
-0.281915
-0.279689
-0.277605
-0.275689
-0.273969
-0.272489
-0.271316
-0.27055
-0.270336
-0.270867
-0.272385
-0.27515
-0.279425
-0.286392
-0.29951
-0.297623
-0.295328
-0.292748
-0.290021
-0.287293
-0.284657
-0.282168
-0.279863
-0.27777
-0.27592
-0.274357
-0.273141
-0.27236
-0.272124
-0.272563
-0.273814
-0.275989
-0.279178
-0.28362
-0.30505
-0.30267
-0.299933
-0.296944
-0.293832
-0.290753
-0.287807
-0.285047
-0.282507
-0.280214
-0.278193
-0.27648
-0.275121
-0.274179
-0.273723
-0.273825
-0.274541
-0.275888
-0.277887
-0.280282
-0.311226
-0.308284
-0.305064
-0.301642
-0.298128
-0.294688
-0.29142
-0.288372
-0.285571
-0.283033
-0.280775
-0.278818
-0.277191
-0.275928
-0.275068
-0.274636
-0.274642
-0.275059
-0.27588
-0.276676
-0.318082
-0.31451
-0.310769
-0.306892
-0.302962
-0.299147
-0.295537
-0.292171
-0.289061
-0.28621
-0.283621
-0.281301
-0.279261
-0.277518
-0.276087
-0.274974
-0.274167
-0.273632
-0.273354
-0.272919
-0.325653
-0.321382
-0.317086
-0.312736
-0.308375
-0.304164
-0.300182
-0.296448
-0.292956
-0.289695
-0.286654
-0.283829
-0.281225
-0.27885
-0.27671
-0.274809
-0.273134
-0.271662
-0.270377
-0.268962
-0.333955
-0.328924
-0.324043
-0.319205
-0.314393
-0.309757
-0.305353
-0.301176
-0.2972
-0.293403
-0.289766
-0.286285
-0.282966
-0.279821
-0.276864
-0.274103
-0.271538
-0.269161
-0.266956
-0.264712
-0.342989
-0.337143
-0.331654
-0.326311
-0.321025
-0.315917
-0.311016
-0.306291
-0.3017
-0.297216
-0.292825
-0.288533
-0.284362
-0.280337
-0.276484
-0.272824
-0.269368
-0.266122
-0.263067
-0.260079
-0.35273
-0.346024
-0.33991
-0.334048
-0.328249
-0.322601
-0.3171
-0.311691
-0.306327
-0.300989
-0.295682
-0.290438
-0.285299
-0.280312
-0.275516
-0.270943
-0.266613
-0.262537
-0.25869
-0.255009
-0.363125
-0.355529
-0.348782
-0.342379
-0.336013
-0.32973
-0.323493
-0.317236
-0.310922
-0.304557
-0.298184
-0.291866
-0.285674
-0.279674
-0.273917
-0.268441
-0.263267
-0.258403
-0.253815
-0.249477
-0.37409
-0.365592
-0.358205
-0.351231
-0.344222
-0.337178
-0.330041
-0.322749
-0.3153
-0.307746
-0.300176
-0.292694
-0.285397
-0.278365
-0.271656
-0.265305
-0.259326
-0.253721
-0.24844
-0.243483
-0.385507
-0.376108
-0.36808
-0.36049
-0.352737
-0.344776
-0.336548
-0.328026
-0.319263
-0.310378
-0.301514
-0.292812
-0.284391
-0.276338
-0.268706
-0.261521
-0.254786
-0.24849
-0.242565
-0.237032
-0.397216
-0.386939
-0.378267
-0.37
-0.361372
-0.352312
-0.342789
-0.332843
-0.322609
-0.312282
-0.302063
-0.292122
-0.28259
-0.273549
-0.26504
-0.257074
-0.249638
-0.242706
-0.236187
-0.23013
-0.409019
-0.397903
-0.388581
-0.379553
-0.369895
-0.359535
-0.348512
-0.336966
-0.325136
-0.313299
-0.301702
-0.290538
-0.279934
-0.269957
-0.26063
-0.251943
-0.243866
-0.236355
-0.229297
-0.222773
-0.420676
-0.408777
-0.398792
-0.3889
-0.378035
-0.366168
-0.353453
-0.340163
-0.326654
-0.31328
-0.300323
-0.287981
-0.276364
-0.265519
-0.255442
-0.2461
-0.237446
-0.229417
-0.221877
-0.214949
-0.43191
-0.419298
-0.408629
-0.397749
-0.385488
-0.371914
-0.357344
-0.342209
-0.326987
-0.312092
-0.297826
-0.284375
-0.271824
-0.260188
-0.249436
-0.239512
-0.230349
-0.221865
-0.213904
-0.206637
-0.442409
-0.429167
-0.417782
-0.405775
-0.391929
-0.376471
-0.359924
-0.342896
-0.325971
-0.309612
-0.294119
-0.27965
-0.266255
-0.253916
-0.24257
-0.232138
-0.222538
-0.213667
-0.205347
-0.197811
-0.442771
-0.429526
-0.418137
-0.406123
-0.392268
-0.376799
-0.36024
-0.343199
-0.326262
-0.309891
-0.294387
-0.279908
-0.266504
-0.254155
-0.242801
-0.232361
-0.222754
-0.213875
-0.205549
-0.198007
-0.432272
-0.419658
-0.408985
-0.3981
-0.385831
-0.372247
-0.357665
-0.342519
-0.327284
-0.312377
-0.298101
-0.284639
-0.272079
-0.260434
-0.249673
-0.23974
-0.23057
-0.222079
-0.214111
-0.206837
-0.421039
-0.409137
-0.399149
-0.389252
-0.37838
-0.366504
-0.353779
-0.340477
-0.326958
-0.313572
-0.300604
-0.288251
-0.276625
-0.26577
-0.255685
-0.246335
-0.237673
-0.229636
-0.222089
-0.215154
-0.409381
-0.398262
-0.388937
-0.379905
-0.370241
-0.359874
-0.348842
-0.337285
-0.325445
-0.313596
-0.301989
-0.290815
-0.280201
-0.270215
-0.260879
-0.252183
-0.244098
-0.236579
-0.229514
-0.222983
-0.397577
-0.387297
-0.378622
-0.370351
-0.361718
-0.352652
-0.343121
-0.333166
-0.322922
-0.312585
-0.302356
-0.292405
-0.282864
-0.273813
-0.265295
-0.25732
-0.249876
-0.242936
-0.236409
-0.230345
-0.385866
-0.376464
-0.368433
-0.36084
-0.353083
-0.345116
-0.336882
-0.328352
-0.319581
-0.310686
-0.301812
-0.293101
-0.284671
-0.276608
-0.268967
-0.261773
-0.25503
-0.248726
-0.242793
-0.237252
-0.374446
-0.365944
-0.358555
-0.351578
-0.344566
-0.337517
-0.330375
-0.323077
-0.31562
-0.308058
-0.30048
-0.292989
-0.285682
-0.278642
-0.271924
-0.265564
-0.259577
-0.253963
-0.248674
-0.243709
-0.363478
-0.355879
-0.349129
-0.342723
-0.336354
-0.330067
-0.323827
-0.317564
-0.311244
-0.304873
-0.298492
-0.292166
-0.285966
-0.279957
-0.274192
-0.268707
-0.263524
-0.258652
-0.254055
-0.249709
-0.353079
-0.34637
-0.340254
-0.334389
-0.328588
-0.322937
-0.317432
-0.312019
-0.306651
-0.301307
-0.295994
-0.290743
-0.285597
-0.280601
-0.275797
-0.271216
-0.266877
-0.262793
-0.258937
-0.255247
-0.343335
-0.337485
-0.331994
-0.326649
-0.32136
-0.31625
-0.311346
-0.306618
-0.302024
-0.297535
-0.29314
-0.288843
-0.284665
-0.280633
-0.276773
-0.273104
-0.26964
-0.266385
-0.263321
-0.260324
-0.334298
-0.329263
-0.32438
-0.319539
-0.314725
-0.310087
-0.305681
-0.301501
-0.297524
-0.293724
-0.290083
-0.286598
-0.283274
-0.280124
-0.27716
-0.274391
-0.271818
-0.269432
-0.267217
-0.264964
-0.325992
-0.321718
-0.317419
-0.313067
-0.308703
-0.304491
-0.300508
-0.296772
-0.293279
-0.290017
-0.286974
-0.284146
-0.281539
-0.279159
-0.277014
-0.275105
-0.273422
-0.271941
-0.270646
-0.269221
-0.318418
-0.314843
-0.311099
-0.30722
-0.303288
-0.299471
-0.29586
-0.292493
-0.289383
-0.286532
-0.283943
-0.281621
-0.279579
-0.277834
-0.276398
-0.275279
-0.274464
-0.27392
-0.273631
-0.273186
-0.311559
-0.308614
-0.305392
-0.301967
-0.298451
-0.29501
-0.29174
-0.288692
-0.285892
-0.283355
-0.281099
-0.279142
-0.277514
-0.27625
-0.275386
-0.274949
-0.274948
-0.275357
-0.276167
-0.27695
-0.305382
-0.302998
-0.300258
-0.297266
-0.294152
-0.291072
-0.288125
-0.285366
-0.282828
-0.280537
-0.278518
-0.276807
-0.275449
-0.274507
-0.27405
-0.274148
-0.274857
-0.276196
-0.278183
-0.280564
-0.299839
-0.297949
-0.295651
-0.293068
-0.290339
-0.28761
-0.284974
-0.282486
-0.280184
-0.278094
-0.276247
-0.274687
-0.273474
-0.272695
-0.272458
-0.272895
-0.274141
-0.276308
-0.279485
-0.28391
-0.294878
-0.293418
-0.29152
-0.289319
-0.286957
-0.284566
-0.282232
-0.280007
-0.277926
-0.276014
-0.274298
-0.272823
-0.271654
-0.270891
-0.270679
-0.271209
-0.272723
-0.27548
-0.279744
-0.286692
-0.290439
-0.28935
-0.287812
-0.285965
-0.283947
-0.281878
-0.279837
-0.277869
-0.276003
-0.274258
-0.272655
-0.271226
-0.27003
-0.269164
-0.268781
-0.26912
-0.270518
-0.273411
-0.278409
-0.288125
-0.286463
-0.285694
-0.284476
-0.28295
-0.281251
-0.279486
-0.277723
-0.276003
-0.274347
-0.272767
-0.271272
-0.269877
-0.268619
-0.267568
-0.266857
-0.266718
-0.26753
-0.269858
-0.274918
-0.287428
-0.282891
-0.282398
-0.281462
-0.280224
-0.278816
-0.27733
-0.275827
-0.274341
-0.272889
-0.271472
-0.270085
-0.268726
-0.267399
-0.266128
-0.264979
-0.264099
-0.263763
-0.264415
-0.267655
-0.280492
-0.27967
-0.279415
-0.278726
-0.277744
-0.276595
-0.275361
-0.274094
-0.272824
-0.271561
-0.270299
-0.269024
-0.267711
-0.266329
-0.26484
-0.263193
-0.261323
-0.259113
-0.256103
-0.251054
-0.245088
-0.276757
-0.276706
-0.276231
-0.275472
-0.274551
-0.273539
-0.272482
-0.271405
-0.270313
-0.269199
-0.26804
-0.266804
-0.265444
-0.263901
-0.26209
-0.259912
-0.257242
-0.253726
-0.248488
-0.243105
-0.274112
-0.274238
-0.273947
-0.273381
-0.272658
-0.271838
-0.270963
-0.270054
-0.269115
-0.268136
-0.267095
-0.265959
-0.264686
-0.263222
-0.261499
-0.259455
-0.257033
-0.254024
-0.249953
-0.246579
-0.271707
-0.271985
-0.271851
-0.27145
-0.270896
-0.270242
-0.269523
-0.268758
-0.267952
-0.267094
-0.266164
-0.265136
-0.263972
-0.262631
-0.261065
-0.259241
-0.257136
-0.254597
-0.251366
-0.249214
-0.269518
-0.269925
-0.269926
-0.269665
-0.269256
-0.268743
-0.268158
-0.267519
-0.266829
-0.266079
-0.265256
-0.264334
-0.263289
-0.262089
-0.260707
-0.259132
-0.257365
-0.255301
-0.252803
-0.251479
-0.267528
-0.268045
-0.268158
-0.268017
-0.267731
-0.26734
-0.266872
-0.266344
-0.265758
-0.265111
-0.264389
-0.263578
-0.262659
-0.261614
-0.26043
-0.259114
-0.257688
-0.256075
-0.254205
-0.253465
-0.265723
-0.26633
-0.266539
-0.266499
-0.26632
-0.266035
-0.265671
-0.265243
-0.264755
-0.264206
-0.263588
-0.26289
-0.262103
-0.261218
-0.260235
-0.259172
-0.258057
-0.256835
-0.255459
-0.255117
-0.26409
-0.264771
-0.26506
-0.265107
-0.26502
-0.26483
-0.26456
-0.264225
-0.263831
-0.263378
-0.262864
-0.262282
-0.26163
-0.260906
-0.260116
-0.259285
-0.258443
-0.257541
-0.256539
-0.256463
-0.262619
-0.263359
-0.263715
-0.263838
-0.263832
-0.263726
-0.263541
-0.263293
-0.26299
-0.262632
-0.262221
-0.261755
-0.261236
-0.260665
-0.260055
-0.259429
-0.258816
-0.25817
-0.257446
-0.25755
-0.261299
-0.262088
-0.262499
-0.262686
-0.262751
-0.262721
-0.262615
-0.262449
-0.262231
-0.261966
-0.261655
-0.2613
-0.260906
-0.260477
-0.260026
-0.259576
-0.259152
-0.258705
-0.258189
-0.258414
-0.260122
-0.260949
-0.261407
-0.261649
-0.261777
-0.261814
-0.26178
-0.26169
-0.261552
-0.261373
-0.261156
-0.260905
-0.260625
-0.260322
-0.260008
-0.259705
-0.259432
-0.25914
-0.258779
-0.259091
-0.25908
-0.259937
-0.260433
-0.260723
-0.260905
-0.261003
-0.261033
-0.261011
-0.260947
-0.260847
-0.260715
-0.260556
-0.260376
-0.260182
-0.259984
-0.259801
-0.259648
-0.259474
-0.259231
-0.259607
-0.258165
-0.259046
-0.259575
-0.259905
-0.260134
-0.260284
-0.260371
-0.26041
-0.260411
-0.26038
-0.260323
-0.260244
-0.26015
-0.260047
-0.259944
-0.259858
-0.259799
-0.259716
-0.259563
-0.259989
-0.257371
-0.258272
-0.258828
-0.259191
-0.259461
-0.259656
-0.259791
-0.259883
-0.25994
-0.259968
-0.259975
-0.259964
-0.259941
-0.259912
-0.259886
-0.259876
-0.259891
-0.259878
-0.259794
-0.260258
-0.256694
-0.257612
-0.258189
-0.258581
-0.258884
-0.259116
-0.259293
-0.259428
-0.259531
-0.259609
-0.259668
-0.259712
-0.259747
-0.259778
-0.259812
-0.259861
-0.259932
-0.259973
-0.259943
-0.260438
-0.256131
-0.257062
-0.257658
-0.258072
-0.258401
-0.258664
-0.258874
-0.259044
-0.259185
-0.259303
-0.259403
-0.259491
-0.259571
-0.259648
-0.259728
-0.259822
-0.259936
-0.260016
-0.260029
-0.260547
-0.255679
-0.256622
-0.257231
-0.257663
-0.258013
-0.258299
-0.258534
-0.258733
-0.258903
-0.259051
-0.259183
-0.259304
-0.259417
-0.259528
-0.259643
-0.259771
-0.259915
-0.260025
-0.260068
-0.260604
-0.255339
-0.256289
-0.256909
-0.257353
-0.257719
-0.258022
-0.258276
-0.258494
-0.258685
-0.258855
-0.25901
-0.259154
-0.259291
-0.259427
-0.259565
-0.259716
-0.259882
-0.260012
-0.260077
-0.260625
-0.255108
-0.256064
-0.256691
-0.257143
-0.257519
-0.257833
-0.258099
-0.25833
-0.258534
-0.258718
-0.258887
-0.259046
-0.259198
-0.259349
-0.259502
-0.259667
-0.259846
-0.259989
-0.260068
-0.260623
-0.254988
-0.255947
-0.256576
-0.257032
-0.257413
-0.257732
-0.258004
-0.25824
-0.258451
-0.258641
-0.258817
-0.258982
-0.259142
-0.259299
-0.259459
-0.259631
-0.259816
-0.259963
-0.260049
-0.260607
-0.279611
-0.266771
-0.327831
-0.299991
-0.220824
-0.156315
-0.0941257
-0.0511196
-0.0228949
-0.00165903
0.00683711
0.0133904
0.014378
0.0150603
0.0137848
0.0125321
0.0102304
0.00829304
0.00499591
0.00283942
-0.279654
-0.266829
-0.32841
-0.300849
-0.221339
-0.156372
-0.0939602
-0.0509138
-0.0228007
-0.00169295
0.00671819
0.0132477
0.0142461
0.0149713
0.0137356
0.0125218
0.0102456
0.00831503
0.00502404
0.0028511
-0.27979
-0.266942
-0.329204
-0.302054
-0.222109
-0.156616
-0.0939555
-0.050816
-0.0227965
-0.00178656
0.00655565
0.0130736
0.0140916
0.0148651
0.0136729
0.0125006
0.0102515
0.00832941
0.00504669
0.0028582
-0.280002
-0.267091
-0.330162
-0.303561
-0.223116
-0.157045
-0.0941131
-0.0508307
-0.0228844
-0.00194131
0.00634995
0.0128688
0.0139153
0.0147425
0.0135971
0.0124687
0.0102479
0.0083359
0.00506355
0.00286051
-0.280266
-0.267252
-0.33122
-0.305311
-0.224334
-0.157654
-0.0944328
-0.0509611
-0.0230654
-0.00215864
0.00610154
0.0126334
0.0137182
0.0146037
0.0135086
0.012426
0.0102347
0.00833424
0.00507436
0.00285784
-0.280556
-0.267396
-0.332302
-0.307239
-0.22574
-0.158435
-0.0949127
-0.0512093
-0.0233393
-0.00243986
0.00581082
0.0123675
0.0135006
0.014449
0.0134075
0.0123725
0.0102119
0.00832418
0.00507896
0.00285006
-0.280841
-0.267492
-0.333332
-0.309278
-0.227304
-0.15938
-0.0955496
-0.0515761
-0.0237048
-0.00278592
0.0054782
0.0120707
0.0132627
0.0142781
0.0132939
0.0123081
0.0101792
0.00830552
0.00507721
0.00283707
-0.281094
-0.267512
-0.334237
-0.311363
-0.229002
-0.16048
-0.0963392
-0.0520604
-0.0241594
-0.00319724
0.00510422
0.0117425
0.0130046
0.0140908
0.0131678
0.0122325
0.0101367
0.00827808
0.00506909
0.00281884
-0.281289
-0.267431
-0.334948
-0.313436
-0.230809
-0.161723
-0.0972761
-0.0526597
-0.0246995
-0.00367365
0.00468952
0.0113824
0.0127261
0.0138868
0.0130293
0.0121457
0.0100843
0.00824174
0.00505464
0.00279541
-0.281407
-0.26723
-0.33541
-0.315448
-0.232706
-0.163098
-0.0983538
-0.0533701
-0.0253208
-0.00421422
0.004235
0.0109903
0.012427
0.0136656
0.012878
0.0120475
0.0100221
0.00819645
0.00503397
0.00276685
-0.281432
-0.266895
-0.33558
-0.317362
-0.234678
-0.164596
-0.0995651
-0.0541865
-0.0260177
-0.00481728
0.00374175
0.0105658
0.0121071
0.0134268
0.012714
0.0119377
0.00995014
0.00814221
0.00500725
0.00273332
-0.281357
-0.266421
-0.335423
-0.319149
-0.236716
-0.166205
-0.100902
-0.0551028
-0.0267845
-0.00548042
0.00321118
0.0101093
0.0117663
0.0131703
0.0125372
0.0118163
0.00986859
0.00807911
0.00497471
0.00269502
-0.281183
-0.265805
-0.334919
-0.320792
-0.238817
-0.167919
-0.102359
-0.056113
-0.0276153
-0.00620083
0.00264481
0.00962106
0.0114047
0.0128958
0.0123475
0.0116834
0.00977765
0.00800729
0.00493663
0.00265217
-0.280911
-0.265054
-0.33405
-0.322276
-0.240983
-0.169733
-0.103929
-0.0572114
-0.0285043
-0.0069752
0.00204436
0.00910185
0.0110223
0.0126034
0.0121451
0.0115392
0.00967759
0.00792695
0.00489331
0.00260506
-0.28054
-0.264172
-0.332803
-0.323574
-0.243208
-0.171636
-0.105598
-0.0583867
-0.0294415
-0.00779776
0.00141285
0.00855297
0.0106195
0.0122931
0.01193
0.0113837
0.00956866
0.0078383
0.00484504
0.00255396
-0.280056
-0.263166
-0.331165
-0.324638
-0.245452
-0.173585
-0.107329
-0.0596144
-0.0304092
-0.00865806
0.000755629
0.00797724
0.0101974
0.0119653
0.0117023
0.0112171
0.00945111
0.00774149
0.00479207
0.00249911
-0.279489
-0.26207
-0.329165
-0.325507
-0.247723
-0.175577
-0.109119
-0.0608922
-0.0314101
-0.00955413
7.35695e-05
0.0073777
0.00975787
0.0116224
0.0114635
0.0110409
0.00932569
0.00763747
0.00473487
0.00244097
-0.278912
-0.260946
-0.326822
-0.32644
-0.250345
-0.177882
-0.111182
-0.0623501
-0.0325346
-0.0105303
-0.000656222
0.00674811
0.00930024
0.0112674
0.0112163
0.0108584
0.00919464
0.00752894
0.00467502
0.00238048
-0.277725
-0.259628
-0.323778
-0.327287
-0.253683
-0.180859
-0.11378
-0.0641404
-0.0338504
-0.0116336
-0.00145685
0.00606748
0.00881261
0.010891
0.0109571
0.0106676
0.0090586
0.00741538
0.00461362
0.00231762
-0.273602
-0.257423
-0.319277
-0.325692
-0.255884
-0.18302
-0.115675
-0.0654637
-0.0347372
-0.0125596
-0.00216812
0.00536441
0.00828772
0.0104572
0.0106602
0.0104387
0.00890294
0.00727495
0.00454175
0.0022461
-0.234509
-0.238863
-0.287608
-0.300829
-0.255492
-0.185205
-0.118048
-0.0674096
-0.0353654
-0.0155583
-0.00503001
0.0015119
0.00514192
0.00758044
0.00866557
0.00881072
0.00784109
0.00624886
0.00402424
0.00177305
-0.194807
-0.220711
-0.244824
-0.255457
-0.230793
-0.174786
-0.115606
-0.0688545
-0.0381503
-0.020388
-0.0104877
-0.00458483
-0.000579975
0.00244283
0.00450105
0.00548162
0.0053374
0.00430323
0.00272924
0.000911481
-0.174739
-0.195931
-0.20809
-0.211215
-0.194253
-0.155122
-0.108904
-0.0693405
-0.041648
-0.0249966
-0.0154808
-0.00973367
-0.00561062
-0.0022106
0.000480644
0.00219053
0.00280692
0.0024998
0.00161576
0.000485752
-0.145167
-0.167243
-0.174651
-0.173183
-0.16051
-0.134501
-0.101051
-0.0695758
-0.0455757
-0.02979
-0.0201392
-0.0140778
-0.00971049
-0.00604184
-0.00295665
-0.000711074
0.000584536
0.0010086
0.000819888
0.000311236
-0.12036
-0.140325
-0.146564
-0.144235
-0.13478
-0.117374
-0.093938
-0.0697734
-0.0493423
-0.0342498
-0.0240705
-0.0173757
-0.0126812
-0.00890395
-0.00571016
-0.0031712
-0.00135154
-0.000289198
0.00012123
8.12767e-06
-0.0998678
-0.117588
-0.123906
-0.122584
-0.115803
-0.1038
-0.0872823
-0.0687697
-0.0513923
-0.0371228
-0.0266435
-0.0194945
-0.0146302
-0.0109498
-0.00786445
-0.0052179
-0.0030232
-0.00144382
-0.000525
-0.000197006
-0.0840328
-0.0993443
-0.105874
-0.105962
-0.10142
-0.0928768
-0.0807682
-0.0662655
-0.0515292
-0.0384911
-0.0282894
-0.0210688
-0.0161974
-0.0126784
-0.00972022
-0.0070132
-0.00453192
-0.00253808
-0.00117735
-0.000408429
-0.0718158
-0.0849715
-0.0914751
-0.092738
-0.0899343
-0.0836488
-0.0743414
-0.0627348
-0.0503936
-0.0389216
-0.029472
-0.0224908
-0.0176939
-0.0142532
-0.0112922
-0.00848596
-0.00578403
-0.00347765
-0.00173079
-0.000533668
-0.0623628
-0.0736559
-0.0798927
-0.0819035
-0.080327
-0.0756076
-0.068266
-0.0589043
-0.0486992
-0.0388692
-0.0304036
-0.0238389
-0.0191108
-0.015585
-0.0124724
-0.00954181
-0.00672351
-0.00422551
-0.00219111
-0.000664563
-0.0549524
-0.0646674
-0.070472
-0.0728498
-0.0721255
-0.0686092
-0.0628081
-0.055262
-0.0468775
-0.0385665
-0.0311089
-0.0249962
-0.0202684
-0.0165435
-0.0132471
-0.0102573
-0.00745002
-0.00486457
-0.00263301
-0.000830894
-0.0490412
-0.0574258
-0.0627273
-0.0652471
-0.0651478
-0.06261
-0.0580745
-0.0520113
-0.0451208
-0.0380963
-0.0315243
-0.0258024
-0.0210467
-0.0171654
-0.0137886
-0.0108335
-0.00808821
-0.00544722
-0.00304209
-0.000970389
-0.0442337
-0.0515072
-0.0563308
-0.0589009
-0.0592765
-0.0575402
-0.05405
-0.0491829
-0.043472
-0.0374629
-0.0316009
-0.0262179
-0.0215198
-0.0176339
-0.014293
-0.0113783
-0.00863908
-0.00592055
-0.00335075
-0.00105909
-0.0402363
-0.0466169
-0.0510494
-0.0536441
-0.0543893
-0.0533063
-0.0506547
-0.0467191
-0.0419121
-0.0366825
-0.0313926
-0.0263644
-0.0218624
-0.0180897
-0.014798
-0.0118386
-0.009032
-0.00623935
-0.00356377
-0.00113689
-0.0368418
-0.0425462
-0.0466979
-0.0493239
-0.0503672
-0.0498001
-0.0477869
-0.0445571
-0.0404442
-0.0358283
-0.0310404
-0.0264117
-0.0221801
-0.0185181
-0.0152066
-0.0121443
-0.00927018
-0.00645693
-0.0037441
-0.00122334
-0.0338765
-0.0391379
-0.0431279
-0.045809
-0.0470905
-0.0469084
-0.0453695
-0.0426796
-0.0391119
-0.0350041
-0.0306822
-0.0264466
-0.0224462
-0.0188232
-0.0154601
-0.0123345
-0.00944343
-0.00664816
-0.00390928
-0.00129195
-0.0312341
-0.0362842
-0.0402358
-0.042994
-0.0444509
-0.0445471
-0.0433701
-0.0411035
-0.0379747
-0.0343003
-0.0303815
-0.02645
-0.0225941
-0.018983
-0.0156197
-0.0125002
-0.00960962
-0.00681283
-0.00402802
-0.00132977
-0.0288161
-0.0339238
-0.0379493
-0.0407897
-0.0423676
-0.0426691
-0.0417721
-0.0398389
-0.0370722
-0.0337535
-0.0301265
-0.0263848
-0.0226319
-0.0190737
-0.0157649
-0.0126635
-0.0097426
-0.00691459
-0.00409493
-0.0013547
-0.0266616
-0.0320553
-0.036231
-0.0391431
-0.0408039
-0.0412557
-0.0405665
-0.0388902
-0.0364089
-0.0333459
-0.0298996
-0.0262829
-0.0226382
-0.0191593
-0.0158959
-0.0127843
-0.00981639
-0.00696548
-0.00414084
-0.0013801
-0.0248893
-0.0307246
-0.0350685
-0.0380312
-0.0397429
-0.0402948
-0.0397515
-0.0382564
-0.03596
-0.0330481
-0.029719
-0.0262101
-0.0226601
-0.0192259
-0.0159692
-0.0128429
-0.00985337
-0.00700238
-0.0041788
-0.00139808
-0.0237759
-0.0300148
-0.0344722
-0.0374591
-0.0391927
-0.0397959
-0.0393351
-0.0379347
-0.0357201
-0.0328752
-0.0296184
-0.0261843
-0.0226825
-0.0192512
-0.0159859
-0.0128597
-0.00987379
-0.00702844
-0.00419927
-0.00140265
-0.157809
-0.167848
-0.178016
-0.188405
-0.199119
-0.210272
-0.221992
-0.23441
-0.247655
-0.261842
-0.277024
-0.293172
-0.310037
-0.327153
-0.343529
-0.358016
-0.368627
-0.374602
-0.373761
-0.370824
-0.0983044
-0.101729
-0.104841
-0.107624
-0.110055
-0.112111
-0.113766
-0.114993
-0.115768
-0.116074
-0.115908
-0.115302
-0.114322
-0.11314
-0.111983
-0.111313
-0.11152
-0.113504
-0.117571
-0.125817
-0.0741072
-0.0783989
-0.0827258
-0.0870985
-0.0915285
-0.0960277
-0.100609
-0.105284
-0.110066
-0.114966
-0.119988
-0.125132
-0.13038
-0.135697
-0.141004
-0.146195
-0.151081
-0.155478
-0.159068
-0.16164
-0.0608419
-0.0637595
-0.0666351
-0.0694693
-0.0722625
-0.0750148
-0.0777259
-0.0803953
-0.0830223
-0.0856062
-0.0881468
-0.0906453
-0.0931058
-0.0955374
-0.0979577
-0.100397
-0.102907
-0.105563
-0.108519
-0.111995
-0.0508635
-0.0532312
-0.0556017
-0.0579774
-0.0603607
-0.0627539
-0.0651596
-0.0675801
-0.0700179
-0.0724753
-0.0749545
-0.0774573
-0.079985
-0.0825368
-0.0851116
-0.0877018
-0.0903033
-0.0928914
-0.0954795
-0.0980117
-0.0447442
-0.0466054
-0.0484637
-0.0503198
-0.0521741
-0.0540274
-0.0558802
-0.0577332
-0.0595871
-0.0614428
-0.0633011
-0.0651629
-0.0670295
-0.0689019
-0.070783
-0.0726736
-0.0745833
-0.0765104
-0.0784998
-0.0805459
-0.0398596
-0.0413534
-0.042848
-0.0443439
-0.0458416
-0.0473416
-0.0488446
-0.0503511
-0.0518616
-0.0533767
-0.054897
-0.056423
-0.0579552
-0.059494
-0.0610402
-0.0625927
-0.0641558
-0.0657222
-0.0673191
-0.06892
-0.0362389
-0.0374557
-0.0386727
-0.0398899
-0.0411075
-0.0423258
-0.0435449
-0.0447651
-0.0459867
-0.0472099
-0.048435
-0.0496622
-0.050892
-0.0521246
-0.0533606
-0.0545995
-0.055845
-0.057092
-0.058363
-0.0596366
-0.0333326
-0.0343342
-0.0353358
-0.0363375
-0.0373394
-0.0383417
-0.0393444
-0.0403477
-0.0413517
-0.0423566
-0.0433625
-0.0443696
-0.045378
-0.0463877
-0.0473992
-0.0484117
-0.0494278
-0.0504432
-0.0514746
-0.0525033
-0.0310313
-0.0318633
-0.0326953
-0.0335271
-0.0343588
-0.0351905
-0.0360222
-0.0368541
-0.0376861
-0.0385183
-0.0393508
-0.0401837
-0.0410169
-0.0418504
-0.0426846
-0.0435188
-0.0443548
-0.0451895
-0.0460353
-0.0468781
-0.0291481
-0.0298415
-0.0305348
-0.0312282
-0.0319217
-0.0326153
-0.0333091
-0.0340031
-0.0346973
-0.0353917
-0.0360863
-0.0367811
-0.0374761
-0.0381712
-0.0388665
-0.0395617
-0.0402578
-0.0409527
-0.0416554
-0.0423558
-0.027577
-0.0281551
-0.0287338
-0.029313
-0.0298929
-0.0304734
-0.0310545
-0.0316362
-0.0322184
-0.0328012
-0.0333844
-0.033968
-0.034552
-0.0351362
-0.0357206
-0.0363049
-0.0368898
-0.0374736
-0.0380633
-0.0386519
-0.0261658
-0.0266461
-0.0271281
-0.0276115
-0.0280966
-0.0285832
-0.0290712
-0.0295607
-0.0300515
-0.0305436
-0.0310368
-0.031531
-0.0320262
-0.0325221
-0.0330186
-0.0335155
-0.0340132
-0.0345104
-0.0350123
-0.0355145
-0.0248323
-0.0252307
-0.0256321
-0.0260366
-0.0264439
-0.026854
-0.0272669
-0.0276822
-0.0281
-0.0285199
-0.0289419
-0.0293656
-0.0297909
-0.0302175
-0.0306453
-0.0310738
-0.0315034
-0.031933
-0.0323663
-0.0328013
-0.023335
-0.0236646
-0.0239998
-0.0243402
-0.0246858
-0.0250363
-0.0253915
-0.0257509
-0.0261144
-0.0264816
-0.0268521
-0.0272258
-0.0276021
-0.0279807
-0.0283614
-0.0287437
-0.0291276
-0.0295124
-0.0299006
-0.0302918
-0.0216478
-0.0219271
-0.0222152
-0.0225117
-0.0228161
-0.0231277
-0.023446
-0.0237706
-0.0241007
-0.024436
-0.0247757
-0.0251195
-0.0254667
-0.0258168
-0.0261695
-0.0265241
-0.0268804
-0.0272379
-0.0275979
-0.0279615
-0.0191073
-0.0193796
-0.0196646
-0.0199613
-0.0202685
-0.0205853
-0.0209106
-0.0212433
-0.0215828
-0.0219279
-0.0222781
-0.0226324
-0.0229901
-0.0233507
-0.0237134
-0.0240777
-0.0244431
-0.0248091
-0.0251765
-0.0255469
-0.0158187
-0.0161547
-0.0165034
-0.016863
-0.0172321
-0.0176093
-0.0179934
-0.0183832
-0.0187776
-0.0191757
-0.0195765
-0.0199793
-0.0203833
-0.0207879
-0.0211924
-0.0215964
-0.0219993
-0.0224008
-0.0228011
-0.0232022
-0.0107997
-0.011399
-0.0119924
-0.0125796
-0.01316
-0.0137335
-0.0142998
-0.0148586
-0.0154099
-0.0159534
-0.0164891
-0.0170169
-0.0175367
-0.0180486
-0.0185525
-0.0190485
-0.0195365
-0.0200167
-0.0204893
-0.0209564
-0.0052987
-0.00625801
-0.00718303
-0.00807569
-0.00893775
-0.00977092
-0.0105768
-0.0113568
-0.0121124
-0.0128449
-0.0135555
-0.0142454
-0.0149156
-0.0155671
-0.0162008
-0.0168177
-0.0174186
-0.0180043
-0.0185754
-0.0191341
-0.00529905
-0.00625839
-0.00718344
-0.00807611
-0.00893819
-0.00977137
-0.0105773
-0.0113573
-0.012113
-0.0128455
-0.0135561
-0.014246
-0.0149162
-0.0155677
-0.0162015
-0.0168185
-0.0174194
-0.0180051
-0.0185763
-0.0191351
-0.0108
-0.0113993
-0.0119928
-0.0125799
-0.0131604
-0.0137339
-0.0143001
-0.014859
-0.0154103
-0.0159538
-0.0164895
-0.0170173
-0.0175372
-0.0180491
-0.0185531
-0.019049
-0.0195371
-0.0200174
-0.02049
-0.0209572
-0.0158189
-0.0161549
-0.0165035
-0.0168631
-0.0172322
-0.0176094
-0.0179935
-0.0183833
-0.0187777
-0.0191758
-0.0195766
-0.0199794
-0.0203835
-0.0207881
-0.0211926