/*--------------------------------*- C++ -*----------------------------------*\
  =========                 |
  \\      /  F ield         | OpenFOAM: The Open Source CFD Toolbox
   \\    /   O peration     | Website:  https://openfoam.org
    \\  /    A nd           | Version:  6.0
     \\/     M anipulation  |
\*---------------------------------------------------------------------------*/
FoamFile
{
    version     2.0;
    format      ascii;
    class       surfaceScalarField;
    location    "29";
    object      phi;
}
// * * * * * * * * * * * * * * * * * * * * * * * * * * * * * * * * * * * * * //

dimensions      [0 3 -1 0 0 0 0];

internalField   nonuniform List<scalar> 
7840
(
-2.63515e-06
2.55412e-06
8.10317e-08
-9.34731e-06
6.5541e-06
1.58054e-07
-1.91644e-05
9.64273e-06
1.74385e-07
-3.12801e-05
1.19672e-05
1.48515e-07
-4.50401e-05
1.36653e-05
9.46546e-08
-5.99272e-05
1.48639e-05
2.32924e-08
-7.55463e-05
1.56772e-05
-5.80555e-08
-9.1609e-05
1.62069e-05
-1.44182e-07
-0.00010792
1.65429e-05
-2.31616e-07
-0.000124366
1.67641e-05
-3.18146e-07
-0.000140903
1.69389e-05
-4.02431e-07
-0.000157545
1.71261e-05
-4.83708e-07
-0.000174359
1.73753e-05
-5.61588e-07
-0.00019145
1.7727e-05
-6.3592e-07
-0.000208956
1.82127e-05
-7.06701e-07
-0.000227037
1.88554e-05
-7.74036e-07
-0.000245868
1.96693e-05
-8.38161e-07
-0.000265629
2.06604e-05
-8.99416e-07
-0.000286499
2.1828e-05
-9.58017e-07
2.31721e-05
-1.01415e-06
-0.000308657
-2.62809e-06
5.18222e-06
-9.31889e-06
1.32449e-05
-1.90983e-05
1.94221e-05
-3.11573e-05
2.40262e-05
-4.48386e-05
2.73466e-05
-5.96214e-05
2.96467e-05
-7.51062e-05
3.1162e-05
-9.09997e-05
3.21004e-05
-0.000107101
3.26444e-05
-0.000123291
3.29537e-05
-0.000139518
3.31665e-05
-0.000155794
3.34017e-05
-0.000172178
3.37594e-05
-0.000188773
3.43222e-05
-0.000205715
3.51549e-05
-0.000223165
3.63048e-05
-0.000241298
3.78024e-05
-0.000260298
3.96607e-05
-0.00028035
4.18795e-05
4.44593e-05
-0.000301637
-2.61568e-06
7.7979e-06
-9.26769e-06
1.98969e-05
-1.89775e-05
2.91319e-05
-3.09308e-05
3.59795e-05
-4.44644e-05
4.08802e-05
-5.90507e-05
4.42329e-05
-7.42816e-05
4.63929e-05
-8.9854e-05
4.76728e-05
-0.000105556
4.83467e-05
-0.000121256
4.8654e-05
-0.000136893
4.88026e-05
-0.000152463
4.89723e-05
-0.000168019
4.93155e-05
-0.000183656
4.99591e-05
-0.000199506
5.10045e-05
-0.000215728
5.25275e-05
-0.000232504
5.45783e-05
-0.000250024
5.71807e-05
-0.000268483
6.03384e-05
6.40533e-05
-0.000288077
-2.59917e-06
1.03971e-05
-9.19724e-06
2.6495e-05
-1.88087e-05
3.87433e-05
-3.06116e-05
4.77825e-05
-4.39347e-05
5.42032e-05
-5.82404e-05
5.85387e-05
-7.3109e-05
6.12616e-05
-8.82235e-05
6.27872e-05
-0.000103356
6.34791e-05
-0.000118357
6.36549e-05
-0.000133146
6.35918e-05
-0.000147704
6.35306e-05
-0.000162067
6.36786e-05
-0.000176319
6.42108e-05
-0.000190584
6.52696e-05
-0.000205022
6.69655e-05
-0.000219819
6.93748e-05
-0.000235177
7.25384e-05
-0.000251307
7.64691e-05
8.11736e-05
-0.000268427
-2.57999e-06
1.29771e-05
-9.11149e-06
3.30265e-05
-1.85991e-05
4.82309e-05
-3.02117e-05
5.93951e-05
-4.3268e-05
6.72595e-05
-5.72192e-05
7.24899e-05
-7.16315e-05
7.56738e-05
-8.61703e-05
7.73261e-05
-0.000100587
7.78963e-05
-0.00011471
7.77779e-05
-0.000128434
7.73158e-05
-0.000141716
7.68124e-05
-0.000154569
7.65318e-05
-0.00016706
7.67011e-05
-0.000179301
7.7511e-05
-0.00019145
7.91142e-05
-0.000203698
8.16227e-05
-0.000216264
8.51043e-05
-0.000229384
8.95895e-05
9.50964e-05
-0.000243307
-2.55935e-06
1.55364e-05
-9.01336e-06
3.94805e-05
-1.83538e-05
5.75714e-05
-2.97392e-05
7.07804e-05
-4.2478e-05
7.99983e-05
-5.60095e-05
8.60214e-05
-6.98847e-05
8.95491e-05
-8.37501e-05
9.11914e-05
-9.73337e-05
9.14798e-05
-0.000110435
9.08795e-05
-0.00012292
8.98003e-05
-0.000134713
8.86051e-05
-0.000145797
8.76163e-05
-0.000156214
8.71178e-05
-0.000166058
8.73558e-05
-0.00017548
8.85359e-05
-0.000184676
9.08187e-05
-0.000193885
9.4313e-05
-0.000203377
9.90813e-05
0.000105164
-0.000213444
-2.53775e-06
1.80742e-05
-8.9033e-06
4.58461e-05
-1.80728e-05
6.67408e-05
-2.91937e-05
8.19013e-05
-4.15651e-05
9.23697e-05
-5.46155e-05
9.90718e-05
-6.78817e-05
0.000102815
-8.09908e-05
0.0001043
-9.36457e-05
0.000104135
-0.000105616
0.000102849
-0.00011673
0.000100914
-0.000126875
9.87502e-05
-0.000135996
9.67371e-05
-0.000144097
9.52195e-05
-0.000151248
9.45066e-05
-0.000157582
9.48698e-05
-0.000163298
9.65347e-05
-0.000168656
9.9671e-05
-0.00017397
0.000104395
0.000110788
-0.000179594
-2.51453e-06
2.05887e-05
-8.77777e-06
5.21093e-05
-1.77474e-05
7.57104e-05
-2.85603e-05
9.27142e-05
-4.0508e-05
0.000104317
-5.30108e-05
0.000111575
-6.5594e-05
0.000115399
-7.78676e-05
0.000116574
-8.95105e-05
0.000115778
-0.00010026
0.000113599
-0.000109907
0.000110561
-0.000118294
0.000107136
-0.000125316
0.000103759
-0.000130932
0.000100836
-0.000135171
9.87452e-05
-0.000138138
9.78371e-05
-0.000140026
9.84227e-05
-0.000141114
0.000100759
-0.000141767
0.000105048
0.000111444
-0.000142423
-2.48755e-06
2.30762e-05
-8.62815e-06
5.82499e-05
-1.73584e-05
8.44407e-05
-2.78054e-05
0.000103161
-3.92558e-05
0.000115768
-5.11257e-05
0.000123445
-6.29335e-05
0.000127206
-7.42769e-05
0.000127917
-8.48147e-05
0.000126316
-9.42554e-05
0.00012304
-0.00010235
0.000118656
-0.000108893
0.000113679
-0.000113724
0.000108591
-0.000116743
0.000103855
-0.000117921
9.99235e-05
-0.000117321
9.72366e-05
-0.000115111
9.62125e-05
-0.000111581
9.72295e-05
-0.000107152
0.000100618
0.00010666
-0.000102367
-2.45306e-06
2.55293e-05
-8.44027e-06
6.42371e-05
-1.68745e-05
9.28749e-05
-2.68738e-05
0.00011316
-3.77227e-05
0.000126617
-4.88379e-05
0.00013456
-5.97369e-05
0.000138105
-7.00119e-05
0.000138192
-7.9309e-05
0.000135613
-8.73141e-05
0.000131045
-9.37438e-05
0.000125086
-9.83447e-05
0.00011828
-0.000100898
0.000111144
-0.000101233
0.00010419
-9.92483e-05
9.79387e-05
-9.49381e-05
9.29263e-05
-8.84246e-05
8.9699e-05
-7.99892e-05
8.87941e-05
-7.01017e-05
9.07307e-05
9.59925e-05
-5.94344e-05
-2.4059e-06
2.79352e-05
-8.1948e-06
7.0026e-05
-1.62529e-05
0.000100933
-2.56886e-05
0.000122596
-3.57864e-05
0.000136715
-4.59678e-05
0.000144741
-5.57557e-05
0.000147893
-6.47451e-05
0.000147182
-7.25792e-05
0.000143447
-7.8932e-05
0.000137398
-8.34964e-05
0.00012965
-8.59798e-05
0.000120763
-8.61076e-05
0.000111272
-8.36357e-05
0.000101718
-7.83754e-05
9.26783e-05
-7.02295e-05
8.47804e-05
-5.92407e-05
7.87102e-05
-4.5648e-05
7.52014e-05
-2.99502e-05
7.50328e-05
7.90033e-05
-1.2961e-05
-2.33996e-06
3.02751e-05
-7.86867e-06
7.55547e-05
-1.54413e-05
0.000108506
-2.41541e-05
0.000131309
-3.32915e-05
0.000145852
-4.22814e-05
0.000153731
-5.06567e-05
0.000156269
-5.80229e-05
0.000154548
-6.40311e-05
0.000149455
-6.83575e-05
0.000141724
-7.06877e-05
0.000131981
-7.07074e-05
0.000120783
-6.8101e-05
0.000108665
-6.25599e-05
9.61771e-05
-5.38059e-05
8.39243e-05
-4.1632e-05
7.26066e-05
-2.59659e-05
6.3044e-05
-6.95531e-06
5.61908e-05
1.49169e-05
5.31606e-05
5.52181e-05
3.87021e-05
-2.24901e-06
3.25242e-05
-7.43742e-06
8.07431e-05
-1.43826e-05
0.000115451
-2.21631e-05
0.00013909
-3.00586e-05
0.000153747
-3.75012e-05
0.000161174
-4.40344e-05
0.000162802
-4.92779e-05
0.000159791
-5.28994e-05
0.000153077
-5.45916e-05
0.000143416
-5.40525e-05
0.000131442
-5.09721e-05
0.000117703
-4.50227e-05
0.000102716
-3.58597e-05
8.7014e-05
-2.31347e-05
7.11993e-05
-6.53271e-06
5.60046e-05
1.41589e-05
4.23524e-05
3.89393e-05
3.14104e-05
6.74173e-05
2.46826e-05
2.40795e-05
9.8556e-05
-2.12762e-06
3.46518e-05
-6.87795e-06
8.54935e-05
-1.30204e-05
0.000121593
-1.96054e-05
0.000145675
-2.5898e-05
0.00016004
-3.13263e-05
0.000166602
-3.54375e-05
0.000166913
-3.78624e-05
0.000162216
-3.82871e-05
0.000153501
-3.64291e-05
0.000141558
-3.20178e-05
0.00012703
-2.47767e-05
0.000110461
-1.44077e-05
9.2347e-05
-5.80115e-07
7.31864e-05
1.70717e-05
5.35475e-05
3.89296e-05
3.41468e-05
6.53356e-05
1.59464e-05
9.64757e-05
2.70333e-07
0.00013215
-1.09921e-05
-1.51196e-05
0.000171349
-1.97197e-06
3.66238e-05
-6.17112e-06
8.96926e-05
-1.13041e-05
0.000126726
-1.63775e-05
0.000150748
-2.0626e-05
0.000164288
-2.3457e-05
0.000169433
-2.44059e-05
0.000167862
-2.31006e-05
0.000160911
-1.92353e-05
0.000149636
-1.25497e-05
0.000134873
-2.81231e-06
0.000117293
1.01963e-05
9.74528e-05
2.67007e-05
7.58427e-05
4.69501e-05
5.2937e-05
7.12384e-05
2.92592e-05
9.99151e-05
5.47004e-06
0.000133368
-1.75066e-05
0.000171946
-3.83074e-05
0.00021573
-5.4776e-05
-6.33252e-05
0.000263935
-1.78029e-06
3.84041e-05
-5.30314e-06
9.32154e-05
-9.19245e-06
0.000130616
-1.23898e-05
0.000153945
-1.40772e-05
0.000165976
-1.36174e-05
0.000168973
-1.05082e-05
0.000164753
-4.34827e-06
0.000154751
5.18542e-06
0.000140102
1.83519e-05
0.000121706
3.5356e-05
0.000100289
5.63562e-05
7.64526e-05
8.14753e-05
5.07236e-05
0.000110817
2.35957e-05
0.000144492
-4.41639e-06
0.000182661
-3.26987e-05
0.000225566
-6.04119e-05
0.000273552
-8.6293e-05
0.000326962
-0.000108186
-0.000121824
0.000385461
-1.55258e-06
3.99566e-05
-4.26491e-06
9.59278e-05
-6.65279e-06
0.000133003
-7.56741e-06
0.00015486
-6.1103e-06
0.000164519
-1.56916e-06
0.000164432
6.63016e-06
0.000156553
1.89558e-05
0.000142425
3.57878e-05
0.00012327
5.7425e-05
0.000100069
8.40837e-05
7.36301e-05
0.000115891
4.46451e-05
0.000152878
1.37367e-05
0.000194976
-1.85019e-05
0.000242027
-5.14678e-05
0.000293823
-8.44948e-05
0.000350172
-0.000116761
0.000411015
-0.000147136
0.000476601
-0.000173773
-0.000192427
0.000547204
-1.28946e-06
4.12461e-05
-3.04885e-06
9.76872e-05
-3.65602e-06
0.000133611
-1.84306e-06
0.000153047
3.39955e-06
0.000159276
1.28936e-05
0.000154938
2.73237e-05
0.000142123
4.72684e-05
0.000122481
7.32141e-05
9.73244e-05
0.000105555
6.77284e-05
0.000144579
3.46056e-05
0.000190449
-1.2242e-06
0.000243165
-3.89795e-05
0.000302534
-7.78707e-05
0.000368127
-0.000117062
0.000439264
-0.000155632
0.000515028
-0.000192525
0.000594374
-0.000226481
0.000676498
-0.000255897
-0.000278356
0.000762427
-9.90298e-07
4.22364e-05
-1.64342e-06
9.83403e-05
-1.6642e-07
0.000132134
4.85761e-06
0.000148023
1.45804e-05
0.000149553
2.9967e-05
0.000139551
5.18498e-05
0.000120241
8.0959e-05
9.33714e-05
0.000117935
6.03486e-05
0.000163322
2.23409e-05
0.000217554
-1.96257e-05
0.000280916
-6.45869e-05
0.000353507
-0.00011157
0.000435162
-0.000159526
0.000525361
-0.000207261
0.000623093
-0.000253364
0.000726685
-0.000296117
0.000833596
-0.000333392
0.00094052
-0.000362822
-0.000386169
0.00104833
-6.50927e-07
4.28873e-05
-2.65846e-08
9.77159e-05
3.8705e-06
0.000128237
1.26353e-05
0.000139258
2.75903e-05
0.000134598
4.98725e-05
0.000117269
8.049e-05
8.96232e-05
0.000120352
5.35095e-05
0.000170279
1.04214e-05
0.000231
-3.83804e-05
0.000303139
-9.17641e-05
0.000387194
-0.000148642
0.000483517
-0.000207894
0.000592281
-0.000268289
0.000713415
-0.000328395
0.000846488
-0.000386437
0.0009904
-0.000440029
0.00114242
-0.000485408
0.00129489
-0.000515294
-0.00051558
0.0014243
-2.62384e-07
4.31497e-05
1.83883e-06
9.56147e-05
8.53749e-06
0.000121538
2.16326e-05
0.000126163
4.26404e-05
0.00011359
7.28878e-05
8.70217e-05
0.000113568
4.89428e-05
0.000165767
1.31085e-06
0.000230467
-5.42792e-05
0.000308547
-0.00011646
0.000400769
-0.000183987
0.000507794
-0.000255666
0.000630202
-0.000330302
0.000768576
-0.000406663
0.000923658
-0.000483478
0.00109666
-0.000559438
0.00128982
-0.000633191
0.00150771
-0.000703301
0.00176113
-0.000768713
-0.000827521
0.00207307
1.92862e-07
4.29568e-05
4.0124e-06
9.17952e-05
1.39558e-05
0.000111595
3.20466e-05
0.000108072
6.00094e-05
8.56277e-05
9.93633e-05
4.76678e-05
0.000151471
-3.1644e-06
0.000217549
-6.47679e-05
0.000298666
-0.000135396
0.000395717
-0.000213511
0.00050942
-0.000297689
0.00064031
-0.000386557
0.00078878
-0.000478771
0.000955145
-0.000573028
0.00113978
-0.000668111
0.00134331
-0.000762973
0.00156697
-0.000856847
0.00181304
-0.000949369
0.00208494
-0.00104062
-0.00112346
0.00238088
7.36697e-07
4.22201e-05
6.56825e-06
8.59636e-05
2.02737e-05
9.7889e-05
4.4114e-05
8.4232e-05
8.00227e-05
4.9719e-05
0.000129693
-2.0028e-06
0.000194608
-6.80796e-05
0.000276031
-0.000146191
0.000374974
-0.000234338
0.000492161
-0.000330697
0.000627999
-0.000433527
0.000782573
-0.000541131
0.000955663
-0.000651861
0.00114679
-0.000764158
0.00135531
-0.000876623
0.00158044
-0.000988104
0.00182139
-0.0010978
0.00207736
-0.00120533
0.00234723
-0.00131049
-0.00140476
0.00262854
1.39627e-06
4.08239e-05
9.59334e-06
7.77666e-05
2.76587e-05
7.98237e-05
5.809e-05
5.38007e-05
0.000103013
4.79609e-06
0.000164248
-6.3238e-05
0.000243312
-0.000147143
0.000341374
-0.000244253
0.000459201
-0.000352165
0.000597099
-0.000468595
0.00075488
-0.000591309
0.000931861
-0.000718111
0.00112689
-0.000846889
0.00133841
-0.000975676
0.00156452
-0.00110274
0.00180307
-0.00122666
0.00205167
-0.0013464
0.00230765
-0.00146132
0.00256818
-0.00157101
-0.00166802
0.00283143
2.20033e-06
3.86235e-05
1.31766e-05
6.67903e-05
3.62745e-05
5.67258e-05
7.42094e-05
1.58657e-05
0.000129255
-5.02491e-05
0.000203273
-0.000137256
0.000297676
-0.000241546
0.000413349
-0.000359926
0.000550567
-0.000489383
0.000708939
-0.000626967
0.000887391
-0.000769761
0.0010842
-0.000914922
0.00129709
-0.00105977
0.00152331
-0.0012019
0.00175982
-0.00133925
0.00200336
-0.0014702
0.00225056
-0.00159359
0.00249797
-0.00170873
0.00274224
-0.00181528
-0.00190776
0.00298198
3.17599e-06
3.54476e-05
1.73976e-05
5.25688e-05
4.62572e-05
2.78661e-05
9.26427e-05
-3.05198e-05
0.000158893
-0.0001165
0.00024678
-0.000225143
0.000357417
-0.000352184
0.000491154
-0.000493663
0.000647488
-0.000645718
0.000825041
-0.00080452
0.0010216
-0.000966318
0.00123423
-0.00112756
0.00145948
-0.00128502
0.00169353
-0.00143596
0.00193247
-0.00157819
0.00217242
-0.00171015
0.00240969
-0.00183087
0.0026409
-0.00193994
0.00286308
-0.00203746
-0.00212004
0.00307536
4.34572e-06
3.11018e-05
2.23166e-05
3.45978e-05
5.76935e-05
-7.51078e-06
0.000113457
-8.62833e-05
0.000191885
-0.000194927
0.000294465
-0.000327723
0.000421762
-0.000479481
0.000573294
-0.000645195
0.000747484
-0.000819907
0.000941707
-0.000998743
0.00115245
-0.00117706
0.00137557
-0.00135067
0.00160654
-0.001516
0.00184083
-0.00167024
0.00207409
-0.00181145
0.00230241
-0.00193847
0.00252246
-0.00205091
0.00273152
-0.002149
0.00292758
-0.00223353
-0.00230295
0.00311049
5.72531e-06
2.53765e-05
2.79667e-05
1.23564e-05
7.06032e-05
-5.01472e-05
0.000136586
-0.000152266
0.000227949
-0.00028629
0.000345651
-0.000445425
0.000489403
-0.000623233
0.000657581
-0.000813373
0.000847264
-0.00100959
0.00105442
-0.0012059
0.00127425
-0.00139689
0.00150152
-0.00157795
0.00173106
-0.00174554
0.00195804
-0.00189722
0.00217828
-0.00203168
0.00238842
-0.0021486
0.00258598
-0.00224847
0.00276937
-0.00233239
0.00293779
-0.00240195
-0.00245712
0.00309196
7.32268e-06
1.80539e-05
3.43486e-05
-1.46695e-05
8.49277e-05
-0.000100726
0.000161812
-0.000229151
0.000266554
-0.000391032
0.000399278
-0.000578149
0.000558523
-0.000782477
0.000741232
-0.000996083
0.000942967
-0.00121133
0.00115829
-0.00142123
0.00138128
-0.00161987
0.00160604
-0.00180271
0.00182721
-0.0019667
0.00204026
-0.00211027
0.00224173
-0.00223316
0.00242928
-0.00233615
0.00260161
-0.00242081
0.00275838
-0.00248917
0.00289998
-0.00254354
-0.00258508
0.00302794
9.13736e-06
8.91649e-06
4.14282e-05
-4.69603e-05
0.000100525
-0.000159824
0.000188759
-0.000317384
0.000306909
-0.000509182
0.000453935
-0.000725176
0.000626888
-0.000955429
0.000821078
-0.00119027
0.00103052
-0.00142077
0.00124856
-0.00163927
0.00146856
-0.00183987
0.00168448
-0.00201863
0.00189134
-0.00217357
0.00208548
-0.00230441
0.00226455
-0.00241223
0.00242748
-0.00249908
0.00257425
-0.00256757
0.00270563
-0.00262055
0.00282295
-0.00266086
-0.00269045
0.00292832
1.11604e-05
-2.24392e-06
4.91357e-05
-8.49356e-05
0.00011717
-0.000227858
0.000216897
-0.000417112
0.000347995
-0.000640279
0.000507923
-0.000885104
0.000691999
-0.0011395
0.000893833
-0.00139211
0.00110606
-0.001633
0.00132121
-0.00185441
0.00153244
-0.0020511
0.00173418
-0.00222037
0.00192237
-0.00236176
0.00209457
-0.00247661
0.00224979
-0.00256745
0.00238823
-0.00263752
0.00251095
-0.00269029
0.00261959
-0.00272918
0.00271606
-0.00275733
-0.00277711
0.00280272
1.33742e-05
-1.56181e-05
5.73656e-05
-0.000128927
0.000134552
-0.000305044
0.000245557
-0.000528117
0.000388604
-0.000783326
0.000559365
-0.00105586
0.000751292
-0.00133143
0.000956413
-0.00159723
0.00116635
-0.00184294
0.00137333
-0.00206139
0.00157096
-0.00224872
0.00175461
-0.00240402
0.00192155
-0.00252871
0.00207075
-0.0026258
0.00220251
-0.00269921
0.00231812
-0.00275313
0.00241944
-0.00279162
0.00250862
-0.00281836
0.00258781
-0.00283652
-0.00284862
0.00265932
1.57521e-05
-3.13702e-05
6.59767e-05
-0.000179152
0.000152288
-0.000391355
0.000273953
-0.000649782
0.00042741
-0.000936784
0.000606338
-0.00123479
0.000802362
-0.00152746
0.00100623
-0.0018011
0.00120907
-0.00204578
0.00140344
-0.00225576
0.00158388
-0.00242917
0.00174715
-0.00256729
0.00189197
-0.00267353
0.00201866
-0.00275249
0.00212864
-0.0028092
0.00222398
-0.00284847
0.002307
-0.00287464
0.00238
-0.00289137
0.00244513
-0.00290165
-0.00290795
0.00250445
1.82583e-05
-4.96285e-05
7.4795e-05
-0.000235688
0.000169929
-0.000486489
0.00030122
-0.000781073
0.000463047
-0.00109861
0.000647023
-0.00141877
0.000843169
-0.0017236
0.00104143
-0.00199935
0.00123304
-0.00223739
0.00141142
-0.00243414
0.00157251
-0.00259025
0.00171457
-0.00270935
0.00183776
-0.00279672
0.00194355
-0.00285828
0.00203415
-0.00289979
0.00211207
-0.00292638
0.00217978
-0.00294235
0.00223952
-0.00295111
0.00229324
-0.00295538
-0.00295737
0.00234266
2.0848e-05
-7.04765e-05
8.36166e-05
-0.000298457
0.000186982
-0.000589854
0.000326465
-0.000920556
0.000494206
-0.00126635
0.000679852
-0.00160441
0.000872208
-0.00191596
0.00106099
-0.00218814
0.00123813
-0.00241453
0.00139838
-0.00259439
0.00153923
-0.00273111
0.00166047
-0.00283059
0.00176347
-0.00289972
0.00185054
-0.00294536
0.00192437
-0.00297362
0.0019876
-0.00298962
0.00204263
-0.00299738
0.0020915
-0.00299998
0.00213585
-0.00299972
-0.00299856
0.00217704
2.34676e-05
-9.39441e-05
9.2215e-05
-0.000367204
0.000202926
-0.000700565
0.000348812
-0.00106644
0.000519728
-0.00143727
0.000703623
-0.00178831
0.000888606
-0.00210094
0.00106477
-0.0023643
0.00122523
-0.00257499
0.00136631
-0.00273547
0.00148711
-0.00285191
0.00158874
-0.00293221
0.00167349
-0.00298448
0.00174421
-0.00301607
0.00180375
-0.00303315
0.00185468
-0.00304055
0.00189919
-0.00304189
0.001939
-0.00303979
0.00197546
-0.00303618
-0.00303271
0.0020096
2.60565e-05
-0.000120001
0.00010035
-0.000441497
0.000217246
-0.000817461
0.000367468
-0.00121666
0.00053869
-0.00160849
0.000717576
-0.0019672
0.000892127
-0.00227549
0.00105335
-0.00252552
0.00119588
-0.00271752
0.00131772
-0.00285731
0.00141941
-0.0029536
0.00150311
-0.00301591
0.00157175
-0.00305311
0.00162838
-0.0030727
0.00167581
-0.00308058
0.0017164
-0.00308114
0.00175203
-0.00307751
0.00178412
-0.00307188
0.00181372
-0.00306579
-0.00306059
0.00184161
2.85488e-05
-0.000148549
0.000107777
-0.000520725
0.000229462
-0.000939146
0.00038177
-0.00136897
0.000550453
-0.00177717
0.000721414
-0.00213816
0.00088312
-0.0024372
0.00102792
-0.00267032
0.00115213
-0.00284174
0.00125535
-0.00296052
0.00133933
-0.00303758
0.00140698
-0.00308356
0.00146154
-0.00310768
0.00150609
-0.00311725
0.00154321
-0.0031177
0.00157497
-0.0031129
0.00160293
-0.00310548
0.00162824
-0.00309719
0.00165169
-0.00308925
-0.00308274
0.00167384
3.08765e-05
-0.000179426
0.000114263
-0.000604111
0.000239151
-0.00106403
0.00039122
-0.00152104
0.000554691
-0.00194064
0.000715271
-0.00229874
0.000862398
-0.00258432
0.000990029
-0.00279795
0.00109619
-0.0029479
0.00118187
-0.0030462
0.00124975
-0.00310546
0.0013032
-0.00313701
0.00134554
-0.00315002
0.00137966
-0.00315137
0.00140789
-0.00314593
0.00143195
-0.00313697
0.00145312
-0.00312664
0.00147228
-0.00311634
0.00149003
-0.003107
-0.00309948
0.00150677
3.29718e-05
0.000119594
0.000245978
0.000395516
0.000551384
0.000699649
0.000831106
0.000941451
0.00103029
0.00109976
0.00115318
0.00119412
0.00122581
0.00125085
0.00127125
0.00128844
0.0013034
0.00131683
0.00132917
0.0013407
3.29798e-05
0.000179544
0.000119616
0.000604443
0.00024601
0.00106455
0.000395546
0.00152168
0.000551397
0.00194136
0.00069963
0.00229947
0.000831045
0.00258504
0.000941341
0.00279862
0.00103013
0.00294851
0.00109955
0.00304674
0.00115293
0.00310595
0.00119384
0.00313745
0.00122549
0.00315042
0.00125051
0.00315174
0.00127088
0.00314627
0.00128804
0.00313729
0.00130299
0.00312694
0.00131639
0.00311663
0.00132872
0.00310727
0.00309973
0.00134023
3.08852e-05
0.000148659
0.000114288
0.00052104
0.000239192
0.000939641
0.000391266
0.00136961
0.000554726
0.0017779
0.000715279
0.00213892
0.000862365
0.00243795
0.000989947
0.00267103
0.00109606
0.0028424
0.00118168
0.00296112
0.00124952
0.00303812
0.00130292
0.00308405
0.00134522
0.00310812
0.00137932
0.00311765
0.00140751
0.00311807
0.00143155
0.00311325
0.0014527
0.0031058
0.00147183
0.00309749
0.00148957
0.00308953
0.00308302
0.00150628
2.8558e-05
0.000120101
0.000107805
0.000441793
0.00022951
0.000817936
0.00038183
0.00121729
0.00055051
0.00160922
0.000721451
0.00196798
0.00088312
0.00227628
0.00102787
0.00252628
0.00115203
0.00271824
0.00125519
0.00285796
0.00133912
0.00295419
0.00140672
0.00301645
0.00146124
0.0030536
0.00150574
0.00307314
0.00154283
0.00308098
0.00157456
0.00308151
0.0016025
0.00307786
0.00162778
0.00307221
0.00165121
0.0030661
0.00306089
0.00167334
2.6066e-05
9.40352e-05
0.00010038
0.000367479
0.000217301
0.000701015
0.000367542
0.00106705
0.00053877
0.00143799
0.000717644
0.0017891
0.000892165
0.00210176
0.00105334
0.00236511
0.00119582
0.00257576
0.0013176
0.00273618
0.00141923
0.00285256
0.00150288
0.0029328
0.00157146
0.00298501
0.00162805
0.00301656
0.00167544
0.0030336
0.00171599
0.00304096
0.00175159
0.00304227
0.00178365
0.00304015
0.00181323
0.00303652
0.00303302
0.00184109
2.34772e-05
7.0558e-05
9.22471e-05
0.000298709
0.000202986
0.000590277
0.000348898
0.000921135
0.00051983
0.00126706
0.000703723
0.00160521
0.000888684
0.0019168
0.00106481
0.00218898
0.00122521
0.00241535
0.00136624
0.00259516
0.00148697
0.00273182
0.00158854
0.00283124
0.00167323
0.00290031
0.0017439
0.00294589
0.00180339
0.00297411
0.00185428
0.00299007
0.00189875
0.0029978
0.00193853
0.00300037
0.00197495
0.00300009
0.00299891
0.00200907
2.08575e-05
4.97005e-05
8.36495e-05
0.000235917
0.000187046
0.00048688
0.000326561
0.00078162
0.000494326
0.00109929
0.000679982
0.00141955
0.000872328
0.00172445
0.00106108
0.00200023
0.00123818
0.00223826
0.00139836
0.00243497
0.00153915
0.00259104
0.00166032
0.00271007
0.00176325
0.00279738
0.00185026
0.00285888
0.00192403
0.00290034
0.00198721
0.00292689
0.0020422
0.00294281
0.00209103
0.00295154
0.00213534
0.00295578
0.00295774
0.0021765
1.82676e-05
3.14329e-05
7.48279e-05
0.000179357
0.000169996
0.000391712
0.000301324
0.000650292
0.000463183
0.000937433
0.000647181
0.00123556
0.000843329
0.0015283
0.00104157
0.00180199
0.00123314
0.00204668
0.00141147
0.00225664
0.00157249
0.00243001
0.00171448
0.00256808
0.0018376
0.00267426
0.00194332
0.00275317
0.00203385
0.00280981
0.00211171
0.00284903
0.00217936
0.00287515
0.00223906
0.00289185
0.00229273
0.0029021
0.00290836
0.00234211
1.57609e-05
1.5672e-05
6.6009e-05
0.000129109
0.000152355
0.000305367
0.000274061
0.000528586
0.000427559
0.000783935
0.000606519
0.0010566
0.00080256
0.00133226
0.00100643
0.00159812
0.00120925
0.00184386
0.00140356
0.00206232
0.00158395
0.00224963
0.00174714
0.00240489
0.00189188
0.00252952
0.00201849
0.00262656
0.0021284
0.0026999
0.00222367
0.00275376
0.00230662
0.00279221
0.00237956
0.0028189
0.00244464
0.00283702
0.00284909
0.00250391
1.33823e-05
2.28966e-06
5.73965e-05
8.50946e-05
0.000134618
0.000228145
0.000245667
0.000417537
0.000388761
0.00064084
0.000559564
0.000885793
0.000751523
0.0011403
0.000956657
0.00139299
0.00116659
0.00163394
0.00137354
0.00185537
0.00157111
0.00205206
0.0017547
0.0022213
0.00192156
0.00236265
0.00207067
0.00247745
0.00220234
0.00256823
0.00231787
0.00263824
0.00241912
0.00269096
0.00250822
0.0027298
0.00258735
0.0027579
0.00277764
0.0026588
1.11678e-05
-8.87814e-06
4.91648e-05
4.70976e-05
0.000117234
0.000160076
0.000217007
0.000317763
0.000348156
0.000509692
0.000508135
0.000725813
0.000692255
0.000956184
0.000894119
0.00119113
0.00110636
0.00142169
0.00132149
0.00164024
0.00153269
0.00184086
0.00173437
0.00201962
0.00192249
0.00217453
0.00209461
0.00230533
0.00224974
0.0024131
0.00238808
0.0024999
0.00251071
0.00256833
0.00261926
0.00262125
0.00271565
0.00266151
0.00269105
0.00280223
9.14396e-06
-1.80221e-05
4.14553e-05
1.47863e-05
0.000100587
0.000100945
0.000188867
0.000229484
0.000307071
0.000391487
0.000454155
0.000578729
0.000627163
0.000783176
0.000821399
0.00099689
0.00103087
0.00121222
0.00124892
0.00142219
0.0014689
0.00162088
0.00168478
0.00180374
0.00189159
0.00196773
0.00208564
0.00211127
0.00226462
0.00223412
0.00242746
0.00233706
0.00257412
0.00242167
0.0027054
0.00248997
0.00282262
0.00254429
0.00258577
0.0029279
7.32855e-06
-2.53506e-05
3.43738e-05
-1.2259e-05
8.49862e-05
5.03326e-05
0.000161917
0.000152553
0.000266715
0.000286689
0.000399502
0.000445941
0.000558811
0.000623868
0.000741579
0.000814121
0.000943361
0.00101044
0.00115871
0.00120684
0.00138171
0.00139789
0.00160645
0.00157899
0.00182758
0.0017466
0.00204057
0.00189828
0.00224196
0.00203273
0.0024294
0.00214962
0.00260163
0.00224944
0.00275829
0.00233331
0.00289977
0.0024028
0.00245792
0.00302762
5.73071e-06
-3.10814e-05
2.79908e-05
-3.45191e-05
7.06598e-05
7.66359e-06
0.000136688
8.65244e-05
0.000228109
0.000195269
0.000345876
0.000328174
0.000489699
0.000480045
0.000657947
0.000645874
0.000847692
0.000820695
0.0010549
0.000999629
0.00127476
0.00117803
0.00150204
0.00135171
0.00173156
0.00151708
0.0019585
0.00167135
0.00217867
0.00181256
0.00238872
0.00193957
0.00258618
0.00205199
0.00276945
0.00215003
0.00293775
0.00223451
0.00230388
0.00309179
4.35104e-06
-3.54324e-05
2.23407e-05
-5.25087e-05
5.77502e-05
-2.77459e-05
0.00011356
3.07149e-05
0.000192045
0.000116783
0.000294693
0.000225526
0.000422065
0.000352674
0.000573674
0.000494264
0.000747939
0.000646431
0.000942228
0.00080534
0.00115303
0.000967236
0.00137617
0.00112856
0.00160716
0.00128609
0.00184143
0.00143708
0.00207465
0.00157934
0.0023029
0.00171131
0.00252285
0.00183203
0.00273181
0.00194108
0.00292774
0.00203857
0.00212111
0.00311052
3.18179e-06
-3.86142e-05
1.74232e-05
-6.67501e-05
4.63166e-05
-5.66394e-05
9.27492e-05
-1.57177e-05
0.000159059
5.04734e-05
0.000247015
0.00013757
0.00035773
0.000241959
0.000491548
0.000360445
0.000647966
0.000490013
0.000825597
0.000627708
0.00102222
0.000770608
0.00123492
0.000915869
0.0014602
0.00106081
0.00169426
0.00120301
0.00193319
0.00134042
0.00217309
0.00147141
0.00241029
0.00159483
0.00264141
0.00170997
0.00286347
0.00181651
0.00190896
0.00307561
2.20727e-06
-4.08215e-05
1.32056e-05
-7.77484e-05
3.634e-05
-7.97738e-05
7.43244e-05
-5.37022e-05
0.000129431
-4.63284e-06
0.00020352
6.34803e-05
0.000298003
0.000147477
0.000413761
0.000244687
0.000551068
0.000352707
0.000709528
0.000469248
0.000888062
0.000592073
0.00108495
0.000718985
0.00129789
0.000847866
0.00152415
0.000976748
0.00176068
0.00110389
0.00200421
0.00122788
0.00225136
0.00134768
0.0024987
0.00146263
0.00274286
0.00157234
0.00166935
0.00298247
1.40499e-06
-4.22265e-05
9.62769e-06
-8.59711e-05
2.77336e-05
-9.78797e-05
5.82182e-05
-8.41868e-05
0.000103205
-4.962e-05
0.000164514
2.17147e-06
0.000243659
6.83316e-05
0.000341809
0.000146537
0.000459728
0.000234788
0.00059772
0.000331256
0.000755594
0.0004342
0.00093266
0.000541918
0.00112776
0.000652762
0.00133934
0.00076517
0.0015655
0.000877738
0.00180407
0.000989314
0.00205265
0.0010991
0.00230859
0.00120669
0.00256902
0.0013119
0.00140621
0.00283217
7.47749e-07
-4.29742e-05
6.60937e-06
-9.18327e-05
2.03605e-05
-0.000111631
4.42591e-05
-0.000108085
8.02364e-05
-8.55973e-05
0.000129984
-4.75762e-05
0.000194983
3.3321e-06
0.000276497
6.50241e-05
0.000375534
0.00013575
0.000492818
0.000213972
0.000628754
0.000298263
0.000783424
0.000387248
0.000956604
0.000479583
0.00114781
0.00057396
0.00135639
0.000669163
0.00158156
0.000764142
0.00182253
0.000858128
0.00207847
0.000950753
0.00234828
0.00104209
0.00112499
0.0026295
2.0655e-07
-4.31808e-05
4.06107e-06
-9.56872e-05
1.40557e-05
-0.000121626
3.22104e-05
-0.00012624
6.02465e-05
-0.000113633
9.96816e-05
-8.70112e-05
0.000151876
-4.88625e-05
0.000218048
-1.14734e-06
0.000299261
5.45368e-05
0.000396413
0.00011682
0.000510218
0.000184458
0.000641211
0.000256255
0.000789781
0.000331013
0.000956239
0.000407502
0.00114095
0.000484449
0.00134455
0.000560545
0.00156824
0.000634436
0.00181431
0.000704685
0.00208617
0.000770229
0.00082912
0.00238204
-2.46056e-07
-4.29347e-05
1.89488e-06
-9.78282e-05
8.65015e-06
-0.000128381
2.1814e-05
-0.000139404
4.28996e-05
-0.000134719
7.32316e-05
-0.000117343
0.000114002
-8.96329e-05
0.000166295
-5.34408e-05
0.000231095
-1.02627e-05
0.000309277
3.86384e-05
0.000401606
9.21298e-05
0.000508738
0.000149123
0.000631255
0.000208497
0.000769736
0.000269022
0.00092492
0.000329265
0.00109801
0.000387452
0.00129125
0.000441201
0.00150918
0.000486746
0.00176262
0.000516793
0.00051719
0.00207455
-6.32297e-07
-4.23024e-05
3.56596e-08
-9.84961e-05
3.9934e-06
-0.000132339
1.28305e-05
-0.000148241
2.7866e-05
-0.000149754
5.02346e-05
-0.000139712
8.09432e-05
-0.000120341
0.0001209
-9.33979e-05
0.000170927
-6.02892e-05
0.000231751
-2.21862e-05
0.000303997
1.98837e-05
0.000388165
6.49556e-05
0.000484605
0.000112056
0.000593489
0.000160137
0.000714749
0.000208005
0.000847952
0.000254249
0.000992004
0.00029715
0.00114418
0.000334573
0.00129684
0.000364127
0.000387487
0.00142654
-9.70021e-07
-4.13324e-05
-1.57712e-06
-9.7889e-05
-3.74522e-08
-0.000133878
5.06001e-06
-0.000153338
1.48633e-05
-0.000159558
3.03352e-05
-0.000155184
5.23071e-05
-0.000142313
8.15089e-05
-0.0001226
0.000118581
-9.73613e-05
0.000164069
-6.76742e-05
0.000218406
-3.44532e-05
0.00028188
1.48119e-06
0.00035459
3.93469e-05
0.000436373
7.8354e-05
0.000526712
0.000117666
0.0006246
0.000156362