/*--------------------------------*- C++ -*----------------------------------*\
  =========                 |
  \\      /  F ield         | OpenFOAM: The Open Source CFD Toolbox
   \\    /   O peration     | Website:  https://openfoam.org
    \\  /    A nd           | Version:  6.0
     \\/     M anipulation  |
\*---------------------------------------------------------------------------*/
FoamFile
{
    version     2.0;
    format      ascii;
    class       volVectorField;
    location    "29";
    object      U;
}
// * * * * * * * * * * * * * * * * * * * * * * * * * * * * * * * * * * * * * //

dimensions      [0 1 -1 0 0 0 0];

internalField   nonuniform List<vector> 
4000
(
(-0.000450706 0.000486349 -3.36572e-21)
(-0.00247628 0.00123224 1.79902e-20)
(-0.00622711 0.0017741 -2.18796e-20)
(-0.0108351 0.00215476 1.66604e-20)
(-0.0158446 0.00240794 8.11267e-21)
(-0.020996 0.00256202 -2.43613e-20)
(-0.0261031 0.00264205 -2.15316e-21)
(-0.0310452 0.00266975 -7.64074e-22)
(-0.0357551 0.00266375 -1.26439e-20)
(-0.0402047 0.00263994 -6.84977e-21)
(-0.0443947 0.00261174 5.10868e-21)
(-0.0483465 0.00259031 1.94204e-20)
(-0.0520958 0.00258475 -1.45503e-21)
(-0.0556869 0.00260219 2.07988e-21)
(-0.0591704 0.00264788 -1.95582e-20)
(-0.0626056 0.00272517 1.20504e-20)
(-0.0660529 0.00283573 -1.7264e-20)
(-0.0694963 0.00298101 2.61236e-20)
(-0.072825 0.00316309 -2.91943e-23)
(-0.0765807 0.00337116 5.63842e-21)
(-0.000530569 0.00151993 1.11768e-20)
(-0.00267402 0.0038127 -5.71145e-20)
(-0.00650334 0.00544581 -3.94451e-20)
(-0.0111573 0.0065622 -2.67867e-20)
(-0.0161852 0.00727416 -3.4458e-20)
(-0.0213314 0.00767503 7.58524e-21)
(-0.026413 0.00784574 -3.97758e-20)
(-0.031312 0.00785542 -8.93302e-21)
(-0.0359631 0.00776259 2.82417e-21)
(-0.0403398 0.00761659 2.9729e-20)
(-0.044444 0.00745875 -3.24262e-20)
(-0.0482981 0.00732329 4.51038e-20)
(-0.0519388 0.00723791 -3.3774e-20)
(-0.0554118 0.00722434 -4.0049e-20)
(-0.0587686 0.00729863 -5.51866e-20)
(-0.0620703 0.00747104 3.5246e-20)
(-0.065379 0.00774659 -1.13948e-20)
(-0.0686802 0.00812965 -4.14915e-20)
(-0.0718628 0.00862651 3.92333e-20)
(-0.0754697 0.00920465 -2.91135e-20)
(-0.000691219 0.00254247 1.09248e-19)
(-0.00307161 0.00636377 5.6572e-20)
(-0.00705917 0.00907248 6.362e-20)
(-0.0118062 0.0109108 5.29301e-21)
(-0.0168721 0.0120688 3.51615e-20)
(-0.0220093 0.0127044 4.38879e-20)
(-0.0270418 0.0129535 -7.9744e-20)
(-0.0318567 0.0129322 -4.22294e-20)
(-0.0363927 0.0127385 -5.49901e-20)
(-0.0406264 0.0124548 5.87086e-20)
(-0.0445622 0.0121505 -4.48379e-20)
(-0.0482244 0.0118829 -5.76805e-20)
(-0.0516519 0.0116988 -2.0999e-20)
(-0.0548924 0.0116354 1.99516e-20)
(-0.058 0.0117203 -5.54468e-21)
(-0.0610388 0.0119714 8.00127e-21)
(-0.0640747 0.0123981 9.25588e-20)
(-0.0670966 0.0130084 -1.30089e-20)
(-0.0699923 0.0138136 -9.40793e-20)
(-0.0733087 0.0147596 1.23955e-19)
(-0.000931708 0.00354734 3.79993e-20)
(-0.00366661 0.00886737 -5.36908e-20)
(-0.00789104 0.0126262 -1.34656e-20)
(-0.0127774 0.0151639 2.51699e-20)
(-0.0179004 0.0167477 7.14773e-20)
(-0.0230249 0.0175984 1.56494e-19)
(-0.027985 0.0179064 1.52909e-19)
(-0.0326758 0.0178335 1.26983e-20)
(-0.0370422 0.0175163 9.37602e-20)
(-0.0410651 0.01707 1.43506e-19)
(-0.0447524 0.0165916 -1.14666e-19)
(-0.0481315 0.0161622 1.69696e-19)
(-0.0512439 0.0158483 -3.84103e-20)
(-0.0541406 0.0157035 9.69684e-21)
(-0.0568793 0.0157684 4.01186e-20)
(-0.0595286 0.0160705 5.33059e-20)
(-0.0621602 0.0166248 -8.38936e-20)
(-0.0647683 0.0174443 -7.00032e-20)
(-0.0672399 0.0185474 -1.2387e-19)
(-0.0701288 0.0198581 1.80254e-19)
(-0.00125069 0.00452852 -1.98557e-20)
(-0.00445523 0.0113066 -2.03222e-19)
(-0.00899311 0.0160806 -6.0107e-20)
(-0.0140633 0.0192873 -1.46474e-19)
(-0.0192612 0.0212693 5.53622e-20)
(-0.0243685 0.0223094 -8.73177e-20)
(-0.0292331 0.0226506 3.00191e-20)
(-0.0337609 0.022499 -1.84923e-19)
(-0.0379048 0.0220285 9.75482e-20)
(-0.0416519 0.0213863 -1.16332e-19)
(-0.0450141 0.0206967 -1.03453e-19)
(-0.0480225 0.0200646 -1.1582e-19)
(-0.0507221 0.0195774 1.05131e-19)
(-0.0531676 0.0193066 -9.43772e-20)
(-0.0554216 0.0193081 1.31422e-19)
(-0.0575583 0.019621 3.79779e-20)
(-0.0596575 0.0202684 9.39954e-20)
(-0.061721 0.0212709 4.12355e-20)
(-0.0636359 0.0226565 -1.6331e-19)
(-0.0659667 0.0243278 2.65907e-19)
(-0.00164645 0.00548065 8.74961e-20)
(-0.00543223 0.0136658 6.74256e-21)
(-0.0103567 0.0194112 3.6045e-20)
(-0.015652 0.0232489 1.2578e-19)
(-0.0209399 0.0255957 -1.92639e-20)
(-0.0260235 0.0267946 2.04241e-19)
(-0.0307684 0.0271388 9.06384e-20)
(-0.0350944 0.0268768 7.61805e-21)
(-0.0389645 0.0262182 2.33063e-19)
(-0.0423728 0.0253403 7.63581e-20)
(-0.0453367 0.0243943 3.62191e-20)
(-0.047891 0.023509 1.14964e-19)
(-0.0500846 0.0227935 1.05369e-19)
(-0.0519763 0.0223391 1.92347e-19)
(-0.053634 0.0222196 -1.71921e-19)
(-0.0551392 0.0224892 2.4299e-19)
(-0.0565815 0.0231828 3.1619e-21)
(-0.0579731 0.0243321 -3.10515e-19)
(-0.0592031 0.025979 4.02479e-19)
(-0.0608526 0.0280056 1.66945e-19)
(-0.00211691 0.00639887 -5.15653e-20)
(-0.00659054 0.0159302 -9.35817e-20)
(-0.0119694 0.0225949 -1.94762e-19)
(-0.0175257 0.0270192 -5.77222e-21)
(-0.0229136 0.029693 3.32239e-20)
(-0.0279628 0.0310167 -2.48696e-19)
(-0.032561 0.0313316 -1.84498e-19)
(-0.0366445 0.0309257 -2.63947e-20)
(-0.0401889 0.0300416 -2.33356e-19)
(-0.0431967 0.028885 -1.61555e-19)
(-0.0456913 0.0276323 -4.70822e-20)
(-0.0477117 0.0264358 -1.51593e-19)
(-0.0493102 0.0254269 -2.47283e-21)
(-0.0505497 0.0247188 -2.01291e-19)
(-0.0515037 0.0244064 8.46696e-20)
(-0.0522619 0.0245634 -9.65997e-20)
(-0.052926 0.0252414 7.39768e-20)
(-0.0535212 0.0264889 -9.41877e-20)
(-0.0539418 0.0283681 -2.68984e-19)
(-0.0547935 0.0307431 -8.174e-20)
(-0.00265949 0.00727851 -1.89616e-20)
(-0.00792079 0.0180856 -2.05958e-20)
(-0.0138138 0.0256094 1.63281e-19)
(-0.0196588 0.0305708 -2.65692e-19)
(-0.0251488 0.0335304 3.89799e-20)
(-0.0301457 0.0349441 -1.53466e-19)
(-0.0345633 0.035198 7.25319e-20)
(-0.0383587 0.0346162 3.25966e-19)
(-0.0415217 0.033471 -2.09156e-20)
(-0.0440655 0.0319935 -2.43148e-19)
(-0.0460195 0.030383 4.41921e-20)
(-0.047427 0.0288138 8.56746e-21)
(-0.0483434 0.0274397 -4.99031e-20)
(-0.0488352 0.0263975 5.06267e-21)
(-0.0489808 0.0258065 4.38478e-19)
(-0.0488788 0.0257653 -6.2444e-20)
(-0.0486445 0.0263487 -1.21776e-19)
(-0.0483195 0.0276305 -2.1842e-19)
(-0.0478074 0.0297023 2.22814e-19)
(-0.0477499 0.0324151 9.61789e-20)
(-0.00327089 0.00811466 9.58026e-20)
(-0.00941059 0.020117 -1.25326e-19)
(-0.0158667 0.0284327 1.77193e-19)
(-0.0220161 0.0338769 1.78377e-19)
(-0.0275981 0.0370798 1.64442e-19)
(-0.0325126 0.0385501 3.33457e-19)
(-0.036705 0.0387152 2.15625e-19)
(-0.0401559 0.0379314 -4.63325e-19)
(-0.0428733 0.0364963 2.36943e-19)
(-0.0448818 0.0346624 1.85915e-19)
(-0.0462185 0.0326485 -2.63412e-21)
(-0.0469306 0.0306481 2.0809e-19)
(-0.047076 0.0288363 1.62219e-19)
(-0.0467234 0.0273738 -8.8252e-20)
(-0.0459556 0.0264076 2.98163e-19)
(-0.0448793 0.0260667 -3.69611e-19)
(-0.0436247 0.0264579 1.47927e-19)
(-0.0422526 0.027691 1.90205e-19)
(-0.0406816 0.0299015 -4.43299e-20)
(-0.0396049 0.0329349 3.82571e-19)
(-0.00394681 0.00890166 1.92451e-19)
(-0.0110437 0.0220083 9.98071e-21)
(-0.0180969 0.0310411 -6.90851e-20)
(-0.0245503 0.0369102 -7.29858e-20)
(-0.0301971 0.0403142 -3.37964e-19)
(-0.0349817 0.0418115 4.78528e-20)
(-0.0388859 0.0418673 1.3559e-19)
(-0.041919 0.0408655 -6.5209e-20)
(-0.0441093 0.0391245 5.3789e-20)
(-0.0454959 0.0369131 -1.42714e-20)
(-0.0461244 0.0344645 -7.02612e-20)
(-0.0460468 0.0319871 6.66984e-20)
(-0.0453225 0.0296738 -2.89985e-19)
(-0.0440213 0.0277081 2.7799e-19)
(-0.0422284 0.0262662 -2.40774e-19)
(-0.0400575 0.0255127 7.43779e-20)
(-0.0376538 0.0255959 1.69216e-19)
(-0.0350996 0.0266758 -3.5228e-20)
(-0.0323342 0.0289518 -1.17053e-19)
(-0.0301243 0.0322784 -7.96896e-20)
(-0.00468154 0.0096327 -2.39706e-19)
(-0.0127991 0.023741 -1.57915e-20)
(-0.0204646 0.0334087 5.0486e-20)
(-0.0272001 0.0396415 1.29828e-19)
(-0.0328615 0.0432051 -1.83289e-19)
(-0.0374439 0.0447056 -1.59946e-19)
(-0.0409712 0.044642 3.73315e-19)
(-0.0434855 0.0434215 -2.06285e-19)
(-0.0450399 0.041378 -1.33061e-19)
(-0.0456905 0.0387909 -1.90908e-19)
(-0.0454937 0.0359015 1.26376e-19)
(-0.0445073 0.0329269 -3.42894e-21)
(-0.0427925 0.0300721 -2.35989e-19)
(-0.0404191 0.0275387 -3.86013e-19)
(-0.0374726 0.0255305 2.9408e-19)
(-0.0340716 0.0242506 -2.38259e-19)
(-0.0303752 0.0238976 3.37796e-19)
(-0.0264878 0.0246989 -9.46633e-20)
(-0.022375 0.0269445 1.9884e-19)
(-0.0189052 0.0305209 -6.75893e-19)
(-0.00546755 0.0102995 -4.85412e-19)
(-0.0146503 0.0252935 3.18333e-19)
(-0.0229196 0.0355055 4.32975e-20)
(-0.0298889 0.0420374 8.37513e-21)
(-0.0354848 0.0457208 -1.96329e-19)
(-0.03976 0.0472073 2.8871e-19)
(-0.0427856 0.0470268 3.1512e-20)
(-0.0446416 0.0456058 -5.91993e-20)
(-0.0454096 0.0432888 -1.90001e-19)
(-0.0451669 0.0403599 2.0538e-19)
(-0.0439838 0.0370615 5.20663e-19)
(-0.0419264 0.0336117 -1.15028e-19)
(-0.0390594 0.0302186 2.59893e-19)
(-0.0354528 0.0270939 -3.06987e-19)
(-0.0311911 0.0244622 -2.94345e-19)
(-0.0263953 0.022563 1.76986e-19)
(-0.0212358 0.0216495 2.92384e-19)
(-0.0158381 0.0220337 -9.4734e-19)
(-0.0101961 0.0241306 1.11269e-19)
(-0.00531605 0.0278925 1.51347e-19)
(-0.00629523 0.0108925 3.59435e-19)
(-0.0165643 0.0266413 1.18255e-19)
(-0.0254011 0.0372976 6.1614e-19)
(-0.0325234 0.0440592 3.17144e-20)
(-0.0379369 0.047823 -6.85272e-20)
(-0.0417579 0.049285 -3.26336e-19)
(-0.0441102 0.0490034 2.77521e-19)
(-0.0451159 0.0474211 4.9788e-19)
(-0.0448895 0.0448895 3.31685e-19)
(-0.0435336 0.0416923 2.39445e-19)
(-0.0411372 0.038067 2.06404e-19)
(-0.0377789 0.0342236 -3.70654e-19)
(-0.0335312 0.0303633 -1.16099e-19)
(-0.0284669 0.0266949 -8.54966e-20)
(-0.0226708 0.0234513 9.16226e-19)
(-0.0162648 0.0208968 -3.1445e-21)
(-0.0094285 0.0193356 -2.28328e-19)
(-0.002304 0.0191746 -7.18884e-20)
(0.00509085 0.020992 6.55053e-19)
(0.0115713 0.0248532 8.56142e-20)
(-0.00715271 0.0114008 -1.77137e-20)
(-0.0185018 0.0277568 -3.40105e-19)
(-0.0278367 0.0387466 -5.06044e-19)
(-0.034993 0.0456622 -1.40832e-19)
(-0.0400632 0.049466 7.77669e-20)
(-0.0432325 0.0508975 1.67498e-20)
(-0.0446815 0.0505424 4.44065e-19)
(-0.044578 0.0488585 -5.50737e-19)
(-0.0430737 0.0462021 -2.09482e-19)
(-0.0403006 0.042854 -4.2213e-19)
(-0.036372 0.0390422 -3.59515e-19)
(-0.0313856 0.0349623 -3.18308e-19)
(-0.0254287 0.0307976 7.95856e-20)
(-0.0185844 0.0267396 -1.03325e-19)
(-0.0109431 0.02301 4.42725e-19)
(-0.00263089 0.0198764 -2.42662e-19)
(0.00616364 0.0176738 -7.60693e-19)
(0.0152874 0.0168985 -1.53386e-19)
(0.0247146 0.0183247 3.75384e-19)
(0.0330441 0.0221869 -3.27584e-19)
(-0.00802598 0.0118133 -5.73502e-20)
(-0.0204169 0.0286113 4.16024e-19)
(-0.030143 0.0398108 -5.30639e-19)
(-0.0371702 0.0467968 1.22642e-19)
(-0.0416851 0.0505964 -2.52665e-19)
(-0.0439454 0.0519931 5.6282e-19)
(-0.0441916 0.0516 -4.02233e-19)
(-0.0426398 0.0498903 4.60158e-19)
(-0.0394811 0.0472261 -4.36295e-19)
(-0.0348813 0.0438859 1.86128e-19)
(-0.0289833 0.040088 -9.0339e-20)
(-0.0219121 0.036011 -2.26771e-19)
(-0.0137805 0.0318141 -2.80164e-19)
(-0.00469416 0.0276585 2.79172e-19)
(0.00523747 0.0237332 -2.33792e-19)
(0.0158729 0.0202781 -5.11211e-19)
(0.0270067 0.0176192 5.32223e-19)
(0.0384772 0.0163072 -6.78967e-19)
(0.0502828 0.0173203 3.05388e-19)
(0.0607901 0.0211119 8.40018e-21)
(-0.00889916 0.0121191 -5.20102e-19)
(-0.0222571 0.0291757 -5.61699e-19)
(-0.0322249 0.0404478 6.47189e-20)
(-0.0389103 0.0474103 -5.41801e-19)
(-0.0425994 0.0511553 -4.82499e-20)
(-0.0436259 0.0525106 -3.98533e-19)
(-0.0422907 0.0521181 -9.14286e-20)
(-0.038859 0.050468 -2.67188e-19)
(-0.0335624 0.0479318 2.36202e-21)
(-0.0266024 0.04479 -1.16893e-19)
(-0.0181566 0.0412564 8.27803e-21)
(-0.00838566 0.0374971 -3.36756e-19)
(0.00255975 0.033649 3.71124e-19)
(0.0145331 0.0298394 -5.2654e-19)
(0.027384 0.0262097 1.8656e-19)
(0.0409316 0.0229407 7.09667e-21)
(0.0549301 0.0202944 -2.9717e-19)
(0.0691957 0.018801 7.36936e-19)
(0.0837968 0.0195958 -1.76074e-19)
(0.0969107 0.0233568 -1.14647e-19)
(-0.00975483 0.0123089 5.83933e-19)
(-0.0239638 0.0294234 3.15355e-19)
(-0.0339755 0.0406172 2.93369e-19)
(-0.04005 0.0474521 4.38002e-20)
(-0.0425783 0.0510845 3.96752e-19)
(-0.0419706 0.0523871 5.71852e-19)
(-0.0385885 0.0520317 4.68227e-19)
(-0.0327444 0.0505288 4.18658e-20)
(-0.0247092 0.0482637 3.42818e-19)
(-0.0147206 0.0455266 5.29669e-19)
(-0.00299335 0.0425365 -1.37382e-19)
(0.0102697 0.0394596 2.3056e-19)
(0.0248672 0.0364237 1.86162e-19)
(0.0405918 0.0335333 1.89374e-19)
(0.0572232 0.0308868 1.12025e-18)
(0.0745037 0.0285918 -4.19891e-19)
(0.0921014 0.0267958 -2.56751e-20)
(0.10976 0.0258969 4.875e-19)
(0.127654 0.0270572 -2.76548e-19)
(0.143928 0.0311014 1.37161e-19)
(-0.0105743 0.0123753 -4.72325e-19)
(-0.0254716 0.0293319 3.03246e-20)
(-0.0352745 0.0402849 -3.78262e-19)
(-0.0404059 0.0468794 -4.92381e-20)
(-0.0413658 0.0503349 2.76908e-19)
(-0.0386417 0.051569 -8.24237e-19)
(-0.0326534 0.051284 -5.4734e-22)
(-0.0237583 0.0500127 3.8352e-19)
(-0.0122637 0.0481592 3.60305e-19)
(0.0015586 0.0460316 -1.58633e-19)
(0.0174564 0.0438665 5.22819e-20)
(0.0351808 0.0418473 1.21285e-19)
(0.0544704 0.0401167 -5.7431e-20)
(0.0750385 0.0387869 -6.44074e-19)
(0.0965624 0.0379469 1.63061e-19)
(0.118659 0.0376614 4.49047e-19)
(0.140837 0.0379602 -6.40026e-19)
(0.162659 0.0390178 3.12268e-19)
(0.18438 0.0418536 8.39605e-20)
(0.204454 0.0472548 4.2685e-19)
(-0.0113374 0.0123132 -6.98244e-20)
(-0.0267071 0.0288849 -3.31103e-19)
(-0.0359856 0.0394272 1.52331e-19)
(-0.0397701 0.0456648 6.57167e-22)
(-0.0386737 0.0488781 -6.64087e-19)
(-0.0332614 0.0500283 1.03624e-19)
(-0.0240095 0.0498471 -1.96644e-20)
(-0.0113171 0.04889 1.34029e-19)
(0.00447493 0.0475826 -6.13448e-19)
(0.0230634 0.0462558 -4.29493e-20)
(0.0441603 0.0451738 -1.44036e-19)
(0.0674716 0.0445539 1.2819e-19)
(0.0926742 0.0445817 4.32613e-19)
(0.119394 0.0454218 -6.68809e-20)
(0.147183 0.0472251 2.59008e-20)
(0.175475 0.0501174 1.70486e-19)
(0.203503 0.0541481 -4.20365e-20)
(0.23042 0.0594151 3.44809e-19)
(0.256263 0.0669262 -1.99485e-19)
(0.28015 0.0770925 -3.17078e-19)
(-0.0120216 0.01212 6.47156e-20)
(-0.0275865 0.028073 1.57376e-20)
(-0.0359526 0.0380345 1.32802e-19)
(-0.0379047 0.0438035 3.25271e-19)
(-0.0341749 0.046718 1.82506e-19)
(-0.0254065 0.04778 1.90402e-20)
(-0.0121321 0.0477469 -2.1787e-19)
(0.00520821 0.0471944 5.58605e-20)
(0.0262401 0.0465667 2.93635e-19)
(0.0506287 0.0462158 -4.97546e-19)
(0.0780524 0.0464327 3.75399e-19)
(0.108179 0.0474714 -2.82826e-19)
(0.140642 0.049571 2.40028e-19)
(0.175017 0.0529775 -5.17769e-19)
(0.210793 0.0579678 5.69854e-19)
(0.247304 0.0648628 -6.09665e-19)
(0.283592 0.0740186 -1.58755e-19)
(0.318334 0.0860631 4.99617e-19)
(0.350413 0.102901 -1.68243e-19)
(0.377028 0.124186 7.63995e-20)
(-0.0126011 0.0117943 -4.90204e-20)
(-0.0280125 0.0268947 4.62514e-19)
(-0.0349942 0.036114 -1.95779e-21)
(-0.0345366 0.0413195 -2.8709e-19)
(-0.0274979 0.0439015 -1.93091e-19)
(-0.0146038 0.0448976 3.53701e-19)
(0.00355289 0.0450857 -1.40094e-19)
(0.0264844 0.0450543 -1.76526e-20)
(0.0537737 0.045257 2.91798e-19)
(0.0850423 0.046054 -3.62522e-19)
(0.119923 0.047744 3.97226e-20)
(0.15804 0.050591 -4.71185e-19)
(0.198997 0.0548491 2.48172e-19)
(0.242371 0.0607923 -7.10358e-19)
(0.287723 0.0687544 1.13246e-18)
(0.334608 0.0791806 -2.07293e-19)
(0.382615 0.0927521 2.17746e-19)
(0.431667 0.110943 -5.65066e-19)
(0.482291 0.136748 2.26204e-21)
(0.526796 0.165414 6.51952e-19)
(-0.013044 0.0113356 -1.48589e-19)
(-0.02787 0.0253553 1.28413e-19)
(-0.0329003 0.0336917 -4.72614e-19)
(-0.029353 0.0382698 6.98967e-19)
(-0.0182241 0.040525 -5.04587e-19)
(-0.000330644 0.0415243 2.6014e-20)
(0.0236616 0.0420578 -5.43907e-19)
(0.0531986 0.042716 3.88833e-19)
(0.0877936 0.0439474 -5.55758e-20)
(0.126989 0.0460983 -3.43027e-19)
(0.170328 0.0494436 -2.00133e-19)
(0.217339 0.0542083 2.11445e-19)
(0.267532 0.0605869 1.39913e-19)
(0.320412 0.0687603 -6.19648e-19)
(0.375506 0.078913 2.2357e-19)
(0.432409 0.0912448 -3.3055e-19)
(0.490846 0.105993 4.00423e-20)
(0.550917 0.123643 -2.8272e-19)
(0.613549 0.145366 1.18471e-19)
(0.671451 0.166731 -4.28076e-19)
(-0.0133107 0.0107432 4.22982e-19)
(-0.027023 0.0234672 -2.56078e-19)
(-0.0294284 0.0308126 2.11011e-19)
(-0.022001 0.0347459 -2.66381e-19)
(-0.00589127 0.0367374 4.46597e-19)
(0.0179746 0.0378751 -7.86436e-21)
(0.048833 0.0389509 -5.43443e-20)
(0.0860272 0.0405439 -4.02838e-20)
(0.128952 0.0430787 2.47928e-19)
(0.177008 0.0468636 4.21469e-19)
(0.229576 0.0521171 -2.4899e-19)
(0.286001 0.0589858 2.42034e-19)
(0.345602 0.0675575 4.42336e-19)
(0.407692 0.0778699 -3.10173e-19)
(0.471608 0.0899148 -6.31423e-19)
(0.536762 0.103632 1.15589e-18)
(0.602675 0.118891 -2.0627e-19)
(0.669071 0.135538 -6.74336e-20)
(0.736238 0.153924 7.32098e-19)
(0.798766 0.17283 -1.53113e-19)
(-0.0133514 0.0100164 -6.88924e-19)
(-0.0253118 0.0212502 -4.58631e-19)
(-0.0243038 0.0275416 -1.7606e-19)
(-0.0120921 0.0308736 3.39595e-19)
(0.00999374 0.0327372 -7.6649e-19)
(0.0408885 0.0342303 3.96808e-19)
(0.079688 0.0361326 5.02718e-20)
(0.125575 0.0389933 5.07786e-20)
(0.177753 0.0431899 -5.19465e-19)
(0.235394 0.0489635 -1.83438e-19)
(0.297622 0.0564433 -3.23336e-19)
(0.363505 0.0656623 3.1228e-19)
(0.432074 0.0765709 8.87947e-20)
(0.50236 0.0890453 1.74664e-20)
(0.573436 0.102893 4.08637e-19)
(0.644455 0.117851 -4.13458e-19)
(0.714685 0.133575 -1.73534e-20)
(0.783541 0.149656 9.84493e-21)
(0.850754 0.165963 5.60433e-20)
(0.913186 0.183871 3.2635e-19)
(-0.0131053 0.00915514 2.19408e-19)
(-0.0225533 0.0187331 5.65141e-19)
(-0.0172241 0.023964 4.53538e-19)
(0.000786117 0.0268121 -1.5628e-19)
(0.0299324 0.0287685 5.4334e-19)
(0.0689634 0.030925 -4.57599e-20)
(0.11677 0.0340285 -6.44677e-20)
(0.17229 0.0385725 3.83644e-20)
(0.234439 0.0448555 5.24813e-19)
(0.302058 0.0530151 3.0829e-19)
(0.37391 0.0630527 8.99928e-20)
(0.4487 0.0748538 5.47884e-21)
(0.525112 0.0882067 -5.9803e-19)
(0.601867 0.10282 5.19569e-19)
(0.677774 0.118337 8.94832e-20)
(0.751783 0.13435 -1.4691e-19)
(0.823006 0.150404 -6.4074e-19)
(0.890748 0.166028 -5.50089e-20)
(0.954488 0.180765 2.54519e-19)
(1.01322 0.197705 -5.25825e-20)
(-0.0125001 0.00816134 -5.5717e-19)
(-0.018543 0.015956 2.33115e-19)
(-0.00786647 0.020188 -1.13778e-18)
(0.0170527 0.0227534 4.65808e-19)
(0.054403 0.0251154 -3.71426e-19)
(0.102678 0.0283354 2.7381e-19)
(0.16047 0.0330972 -4.25163e-19)
(0.226367 0.0398014 3.90383e-20)
(0.298875 0.0486244 -2.18812e-20)
(0.376396 0.0595546 1.14255e-19)
(0.457247 0.0724229 1.65097e-19)
(0.539717 0.0869344 -3.12084e-19)
(0.62214 0.102699 1.65165e-19)
(0.702971 0.119264 1.51923e-19)
(0.780856 0.136141 6.58165e-19)
(0.85468 0.152835 -2.85428e-19)
(0.923585 0.168861 -1.90904e-19)
(0.986987 0.183788 3.21597e-19)
(1.04444 0.197037 1.73244e-19)
(1.09637 0.212517 -3.23582e-19)
(-0.0114532 0.00704149 4.88334e-19)
(-0.0130601 0.0129751 4.70897e-19)
(0.00409939 0.0163476 1.35717e-19)
(0.0371103 0.0189231 5.71736e-19)
(0.0838234 0.0220975 2.80726e-19)
(0.14238 0.0268656 -5.05948e-19)
(0.210958 0.033805 7.66119e-19)
(0.287658 0.0431717 -3.76974e-19)
(0.370459 0.0549646 3.76206e-19)
(0.457227 0.0689699 4.86792e-19)
(0.545786 0.0848061 -2.78174e-19)
(0.634023 0.101974 5.2813e-20)
(0.719997 0.119904 2.94982e-19)
(0.802032 0.138009 2.08076e-19)
(0.878785 0.155719 4.80326e-19)
(0.949282 0.172517 -1.91616e-19)
(1.01291 0.187959 -2.31503e-20)
(1.06939 0.201716 3.05274e-19)
(1.11863 0.213278 -6.53635e-20)
(1.16191 0.226674 4.47561e-22)
(-0.00987353 0.00580926 -2.5215e-19)
(-0.00587501 0.0098671 -9.26768e-19)
(0.0189963 0.0126074 2.18171e-19)
(0.0613188 0.0155812 -1.66056e-19)
(0.11851 0.0200639 -3.83133e-19)
(0.188235 0.0269332 -2.73314e-19)
(0.268109 0.0365994 -1.68817e-19)
(0.355611 0.0491079 4.10081e-19)
(0.448081 0.064215 -2.43516e-19)
(0.542797 0.0814517 -2.49225e-19)
(0.637117 0.100193 -3.15489e-19)
(0.728626 0.119731 -5.20932e-20)
(0.815271 0.139346 -3.50977e-20)
(0.895456 0.158366 -7.31076e-19)
(0.968076 0.176209 3.55275e-19)
(1.03252 0.192414 -4.67077e-19)
(1.0886 0.206649 1.47607e-19)
(1.13651 0.218729 -1.12336e-18)
(1.17663 0.228346 3.38371e-19)
(1.21063 0.239193 4.3049e-19)
(-0.00766465 0.00448819 -6.32768e-20)
(0.00324101 0.00673462 4.52484e-19)
(0.0371212 0.00916579 2.89828e-20)
(0.0899658 0.0130218 6.97613e-20)
(0.158638 0.0193869 -1.41815e-19)
(0.240171 0.0289519 -2.28002e-21)
(0.331464 0.0418816 -3.59167e-21)
(0.429242 0.0579315 -8.54206e-20)
(0.530144 0.0765491 3.02986e-19)
(0.630887 0.0969689 1.17215e-19)
(0.728479 0.118315 5.32078e-19)
(0.820396 0.139702 -1.45193e-19)
(0.904719 0.160317 1.01465e-19)
(0.980178 0.179484 -1.3342e-20)
(1.04614 0.196694 2.81354e-19)
(1.10253 0.211616 1.72593e-19)
(1.14971 0.224089 4.17087e-19)
(1.1884 0.2341 -6.74337e-19)
(1.21945 0.241592 8.50049e-19)
(1.24469 0.249713 -2.69615e-19)
(-0.00472858 0.00311398 -5.90316e-19)
(0.0145045 0.00370948 -1.84086e-19)
(0.0587251 0.00625742 1.44006e-19)
(0.123238 0.0115701 9.07574e-20)
(0.204201 0.0204502 9.27968e-20)
(0.297847 0.0333108 9.41632e-20)
(0.400203 0.0499768 -2.35478e-19)
(0.507157 0.0698298 -9.74014e-20)
(0.614661 0.0919536 3.02089e-20)
(0.718997 0.115272 -2.88423e-19)
(0.817039 0.13869 -1.30534e-19)
(0.906432 0.161209 7.89286e-19)
(0.985664 0.182017 -2.03534e-19)
(1.05404 0.200527 -2.81182e-19)
(1.11156 0.216388 -1.33895e-19)
(1.1588 0.229462 9.24902e-20)
(1.19669 0.239789 1.1339e-19)
(1.22641 0.247533 -5.43784e-19)
(1.24918 0.252872 7.88165e-19)
(1.26684 0.258369 -6.83724e-19)
(-0.000969827 0.00173605 -6.69843e-20)
(0.0281071 0.000954863 1.92145e-20)
(0.0839921 0.00415188 -2.43461e-20)
(0.161189 0.0115753 3.56441e-19)
(0.254983 0.0236332 1.95164e-20)
(0.360629 0.0403501 1.30796e-19)
(0.473165 0.0611065 -2.71558e-19)
(0.58763 0.0848353 -9.89934e-21)
(0.699409 0.110229 3.77173e-19)
(0.804586 0.135929 5.25925e-20)
(0.900205 0.160693 -3.28771e-19)
(0.984385 0.183515 -2.88323e-20)
(1.05628 0.203689 -2.70615e-19)
(1.11595 0.220813 2.69299e-19)
(1.16413 0.234758 3.74822e-19)
(1.202 0.245611 -4.13513e-20)
(1.231 0.253616 -5.05927e-20)
(1.25263 0.259093 1.54176e-19)
(1.26835 0.262396 -4.96743e-19)
(1.27992 0.265566 4.37248e-19)
(0.00370006 0.000418341 6.70559e-20)
(0.0442028 -0.00133523 -4.33174e-19)
(0.113018 0.00314876 1.15976e-19)
(0.20372 0.013398 -3.59222e-19)
(0.31054 0.0292902 1.23462e-19)
(0.427599 0.0503346 -4.58459e-19)
(0.548897 0.0753663 1.84852e-19)
(0.668721 0.10282 -5.87913e-20)
(0.782129 0.131014 -2.35992e-21)
(0.885332 0.158383 6.02163e-20)
(0.975887 0.183654 -2.19534e-19)
(1.05267 0.205933 -3.13556e-19)
(1.11571 0.224727 -6.4393e-20)
(1.16587 0.239891 -2.89077e-20)
(1.20459 0.251551 -7.34126e-20)
(1.23359 0.260022 -2.39522e-20)
(1.25464 0.26572 -7.17241e-20)
(1.26943 0.26908 -6.225e-20)
(1.27948 0.270568 -1.85611e-19)
(1.28641 0.271795 2.9479e-19)
(0.00935761 -0.00076088 1.61704e-19)
(0.0628938 -0.00293924 -1.79525e-19)
(0.145791 0.00356839 3.86218e-19)
(0.250557 0.0173931 -1.66568e-19)
(0.370191 0.0377265 4.45119e-19)
(0.497584 0.0634308 6.23202e-21)
(0.625747 0.092715 2.23422e-19)
(0.748437 0.123511 -5.97114e-20)
(0.860729 0.153833 2.49627e-19)
(0.959339 0.182034 1.81001e-20)
(1.04266 0.206946 5.94673e-19)
(1.11054 0.227912 -4.10633e-19)
(1.16395 0.244732 5.52885e-20)
(1.20454 0.257555 1.0559e-19)
(1.23434 0.266765 5.5408e-19)
(1.25543 0.272868 -1.99105e-19)
(1.26975 0.276409 -3.95315e-20)
(1.27903 0.27789 -2.0971e-19)
(1.28472 0.27783 -2.21832e-20)
(1.28827 0.277502 1.0504e-19)
(0.0160624 -0.00171011 -7.77921e-20)
(0.0842181 -0.00361395 2.24441e-19)
(0.182177 0.00573879 -2.29434e-19)
(0.301241 0.0238893 9.07615e-20)
(0.433042 0.0491752 -1.08177e-19)
(0.569223 0.0796909 3.97372e-19)
(0.701984 0.112978 -5.52239e-20)
(0.824895 0.146521 1.36389e-19)
(0.933459 0.178155 -8.02127e-20)
(1.02527 0.206307 -2.02502e-21)
(1.0998 0.230054 9.17902e-20)
(1.15799 0.249075 -7.10939e-20)
(1.20169 0.26351 1.84493e-19)
(1.23324 0.273804 -9.19408e-20)
(1.25507 0.280563 -4.05385e-19)
(1.26943 0.28444 4.03184e-19)
(1.27831 0.286052 -1.81842e-19)
(1.28332 0.285922 1.45212e-19)
(1.28578 0.28458 2.52067e-19)
(1.28694 0.283038 1.03537e-19)
(0.0238521 -0.00232664 1.93493e-19)
(0.108138 -0.00310295 -3.98651e-19)
(0.221907 0.00997976 7.6318e-20)
(0.355139 0.0331681 -5.53002e-20)
(0.498018 0.0637786 -2.2274e-19)
(0.641046 0.0990478 -1.74765e-19)
(0.775922 0.13587 -3.43117e-20)
(0.896463 0.171395 -3.1152e-19)
(0.999022 0.203455 -1.891e-20)
(1.08238 0.230709 -5.78647e-20)
(1.14723 0.252608 -1.57151e-19)
(1.19557 0.269222 -3.491e-20)
(1.23004 0.281041 -1.20341e-19)
(1.25345 0.288777 -2.0095e-19)
(1.26846 0.293204 2.05868e-19)
(1.27734 0.295064 2.84304e-20)
(1.28196 0.294999 5.66531e-20)
(1.28378 0.293514 -2.37413e-19)
(1.28392 0.291127 -5.92419e-21)
(1.28344 0.288643 -3.66521e-19)
(0.0327376 -0.00249945 2.12431e-19)
(0.134534 -0.00114705 1.41599e-19)
(0.26458 0.0165855 -2.28037e-19)
(0.411456 0.045444 3.56093e-19)
(0.563921 0.081576 -3.83226e-20)
(0.711573 0.121323 1.32897e-19)
(0.846039 0.161019 4.59885e-20)
(0.961856 0.197659 1.62934e-19)
(1.05661 0.229257 -1.27568e-19)
(1.13046 0.254864 4.24987e-20)
(1.18535 0.274381 -4.08192e-20)
(1.22421 0.288298 -1.79885e-20)
(1.25029 0.297426 3.41485e-20)
(1.26667 0.302686 -6.29408e-20)
(1.27605 0.304967 -1.93465e-20)
(1.2806 0.305044 -5.9193e-20)
(1.28199 0.303541 -9.62637e-20)
(1.28148 0.300925 6.21489e-20)
(1.28 0.297685 -8.53102e-20)
(1.27841 0.29446 3.68588e-19)
(0.0426988 -0.00211303 -1.06184e-19)
(0.163194 0.00250385 -3.0052e-19)
(0.309663 0.0258075 -3.9983e-20)
(0.46927 0.0608492 -1.08123e-20)
(0.629494 0.102501 -1.34449e-19)
(0.779405 0.146243 -2.2063e-19)
(0.911063 0.188012 7.22055e-20)
(1.02019 0.224859 -9.92049e-20)
(1.10588 0.255171 -1.1117e-19)
(1.16975 0.278508 6.19106e-20)
(1.2149 0.295273 -4.67948e-20)
(1.24503 0.306351 -9.46701e-20)
(1.26375 0.312826 -3.19103e-21)
(1.27425 0.315766 6.41079e-20)
(1.27912 0.316112 -6.53798e-20)
(1.28033 0.31463 9.07449e-20)
(1.27934 0.311899 2.44066e-20)
(1.27718 0.308329 6.15233e-20)
(1.27459 0.304385 1.19933e-19)
(1.27226 0.300555 -1.02739e-19)
(0.0536821 -0.00105178 1.01472e-19)
(0.193822 0.0080782 -9.06944e-21)
(0.356509 0.0378382 4.54142e-20)
(0.527575 0.079424 -6.16975e-20)
(0.693496 0.12639 5.02935e-21)
(0.843303 0.173469 2.13854e-19)
(0.970024 0.216421 -1.40507e-19)
(1.07095 0.252585 5.94608e-20)
(1.14685 0.280891 5.24037e-20)
(1.20077 0.301487 -1.47398e-19)
(1.23679 0.315273 1.38477e-19)
(1.25913 0.32349 1.2121e-21)
(1.27161 0.327425 -9.75433e-20)
(1.27732 0.328232 1.17573e-19)
(1.27868 0.326853 -4.66392e-20)
(1.27739 0.324011 3.56681e-20)
(1.27468 0.32022 -3.99034e-20)
(1.27137 0.315832 -1.59434e-20)
(1.26804 0.311287 -1.39636e-19)
(1.26523 0.306939 4.27308e-20)
(0.0655985 0.000794951 -3.42785e-20)
(0.226036 0.0157703 9.18481e-20)
(0.404383 0.0527991 1.42964e-20)
(0.585327 0.101113 6.00078e-20)
(0.754761 0.152991 2.85967e-20)
(0.90224 0.202614 1.34016e-20)
(1.02226 0.245831 7.59963e-20)
(1.11397 0.280493 -9.23997e-21)
(1.17986 0.306201 3.34791e-20)
(1.22424 0.323722 5.37935e-20)
(1.25197 0.334427 2.5944e-20)
(1.26759 0.339845 1.86159e-20)
(1.2749 0.341397 7.54833e-20)
(1.27682 0.340262 -7.30584e-20)
(1.2755 0.337348 1.56788e-20)
(1.27238 0.333309 -1.46537e-20)
(1.26846 0.328587 2.27131e-20)
(1.26437 0.323477 1.90208e-20)
(1.26057 0.318403 3.96937e-20)
(1.25745 0.313583 1.68719e-21)
(0.0783237 0.00352766 2.03175e-20)
(0.259379 0.0257291 1.85558e-20)
(0.452485 0.0707313 -2.5669e-20)
(0.641497 0.125771 1.60358e-20)
(0.812253 0.181986 9.04898e-21)
(0.955424 0.233276 -2.81474e-20)
(1.0674 0.27586 9.28432e-21)
(1.14935 0.3083 1.66818e-21)
(1.20539 0.330948 1.60015e-20)
(1.24094 0.345191 -4.28772e-20)
(1.26136 0.352807 -1.26473e-22)
(1.27131 0.355541 1.18664e-20)
(1.27445 0.354882 -9.45503e-21)
(1.27344 0.351989 9.56618e-21)
(1.27013 0.347699 2.49306e-20)
(1.2657 0.342591 -1.41703e-20)
(1.26095 0.337032 3.95254e-21)
(1.25637 0.331266 1.55094e-20)
(1.25227 0.325704 -2.55668e-20)
(1.24898 0.320435 1.22712e-20)
(0.0783728 -0.00352811 5.48029e-20)
(0.259515 -0.0257332 -3.01089e-20)
(0.452692 -0.0707403 3.55262e-20)
(0.641754 -0.125781 -2.64518e-20)
(0.812535 -0.181991 -1.19667e-20)
(0.955712 -0.233271 3.69086e-21)
(1.06768 -0.27584 -1.18469e-20)
(1.1496 -0.308263 4.28307e-20)
(1.20563 -0.330895 -3.58508e-20)
(1.24115 -0.345124 8.19768e-21)
(1.26155 -0.352727 -6.32484e-21)
(1.27148 -0.355451 -4.15382e-20)
(1.2746 -0.354785 4.04643e-20)
(1.27358 -0.351885 1.56927e-20)
(1.27025 -0.347591 -1.51183e-20)
(1.26582 -0.342479 3.63399e-20)
(1.26107 -0.336917 -4.29717e-22)
(1.25647 -0.331149 -3.5459e-20)
(1.25237 -0.325586 2.60353e-20)
(1.24907 -0.320314 8.68552e-21)
(0.0656442 -0.000793781 -1.96587e-20)
(0.226165 -0.0157702 5.31155e-20)
(0.404585 -0.0528027 6.21016e-20)
(0.585584 -0.101119 -3.0044e-20)
(0.75505 -0.152992 5.18965e-20)
(0.90254 -0.202606 8.42444e-20)
(1.02255 -0.24581 -4.76813e-21)
(1.11424 -0.280456 -1.51566e-20)
(1.18011 -0.306147 7.49622e-20)
(1.22446 -0.323653 3.70685e-20)
(1.25217 -0.334344 -6.96141e-21)
(1.26777 -0.339751 5.6487e-20)
(1.27506 -0.341294 -6.06785e-20)
(1.27697 -0.340152 9.71118e-20)
(1.27563 -0.337232 -1.58733e-20)
(1.27251 -0.333189 4.84148e-20)
(1.26858 -0.328465 9.49964e-21)
(1.26448 -0.323352 3.46491e-20)
(1.26067 -0.318276 -3.25418e-20)
(1.25754 -0.313455 9.03229e-21)
(0.0537242 0.00105432 -2.91011e-20)
(0.193945 -0.00807429 6.35401e-20)
(0.356705 -0.0378367 4.73412e-20)
(0.527828 -0.0794239 -7.5517e-21)
(0.693788 -0.126387 7.91976e-20)
(0.843613 -0.173459 -6.25944e-20)
(0.970332 -0.216399 -6.57396e-21)
(1.07124 -0.252548 5.63916e-20)
(1.14712 -0.280838 1.87761e-20)
(1.20101 -0.301418 2.62678e-20)
(1.23701 -0.315189 -3.87388e-20)
(1.25933 -0.323393 1.08051e-19)
(1.27178 -0.327318 2.10137e-20)
(1.27748 -0.328116 -9.54109e-20)
(1.27882 -0.326731 1.46916e-19)
(1.27753 -0.323884 -1.73999e-19)
(1.27481 -0.32009 -8.28341e-20)
(1.27148 -0.315699 1.41224e-20)
(1.26815 -0.311152 7.98971e-20)
(1.26533 -0.306801 -1.5128e-19)
(0.0427371 0.00211668 -6.09879e-20)
(0.163309 -0.00249664 -1.43115e-19)
(0.309849 -0.0258012 -1.26137e-19)
(0.469518 -0.0608442 -1.72189e-19)
(0.629787 -0.102495 -1.02389e-19)