/*--------------------------------*- C++ -*----------------------------------*\
  =========                 |
  \\      /  F ield         | OpenFOAM: The Open Source CFD Toolbox
   \\    /   O peration     | Website:  https://openfoam.org
    \\  /    A nd           | Version:  6.0
     \\/     M anipulation  |
\*---------------------------------------------------------------------------*/
FoamFile
{
    version     2.0;
    format      ascii;
    class       volScalarField;
    location    "49";
    object      p;
}
// * * * * * * * * * * * * * * * * * * * * * * * * * * * * * * * * * * * * * //

dimensions      [0 2 -2 0 0 0 0];

internalField   nonuniform List<scalar> 
4000
(
-0.438347
-0.42465
-0.412601
-0.399452
-0.384021
-0.366746
-0.348374
-0.329675
-0.311316
-0.293776
-0.277333
-0.262108
-0.248111
-0.235287
-0.223548
-0.212793
-0.202926
-0.193825
-0.185297
-0.177639
-0.446291
-0.432148
-0.419304
-0.404759
-0.387442
-0.368073
-0.347661
-0.327143
-0.307253
-0.28847
-0.271036
-0.255023
-0.240397
-0.227066
-0.214913
-0.203817
-0.193666
-0.184321
-0.175572
-0.167791
-0.452454
-0.437965
-0.424277
-0.408206
-0.388894
-0.367395
-0.344986
-0.322752
-0.301468
-0.281587
-0.263301
-0.246629
-0.23149
-0.217757
-0.205284
-0.193934
-0.183581
-0.174066
-0.165168
-0.157336
-0.45647
-0.441733
-0.427154
-0.409455
-0.388087
-0.364481
-0.340176
-0.316373
-0.293861
-0.273048
-0.254064
-0.23687
-0.22134
-0.207313
-0.194621
-0.183108
-0.172637
-0.163028
-0.154055
-0.146248
-0.457983
-0.443098
-0.427589
-0.408192
-0.384764
-0.359134
-0.333085
-0.307901
-0.284353
-0.262787
-0.243267
-0.225695
-0.209902
-0.195696
-0.182887
-0.171307
-0.160805
-0.151184
-0.142213
-0.134508
-0.45666
-0.441723
-0.425261
-0.404138
-0.378705
-0.351196
-0.3236
-0.297252
-0.272878
-0.250752
-0.230864
-0.213063
-0.197138
-0.182871
-0.170053
-0.158504
-0.148064
-0.138514
-0.129627
-0.1221
-0.4522
-0.437305
-0.419886
-0.397061
-0.369737
-0.340542
-0.311637
-0.284365
-0.25939
-0.236901
-0.216819
-0.198942
-0.183021
-0.168815
-0.1561
-0.144684
-0.134399
-0.125008
-0.116288
-0.109019
-0.444342
-0.429583
-0.41123
-0.386774
-0.35773
-0.327091
-0.297141
-0.269203
-0.243857
-0.221209
-0.201111
-0.183311
-0.167533
-0.153513
-0.141014
-0.129837
-0.119804
-0.110663
-0.102197
-0.0952634
-0.432878
-0.418345
-0.399111
-0.373147
-0.342604
-0.310797
-0.280089
-0.251751
-0.226271
-0.203666
-0.183729
-0.166163
-0.150667
-0.136959
-0.124793
-0.113964
-0.104283
-0.0954851
-0.0873642
-0.0808443
-0.417653
-0.403438
-0.383405
-0.356104
-0.324323
-0.291653
-0.260487
-0.232019
-0.206638
-0.18428
-0.164677
-0.1475
-0.132425
-0.119157
-0.107443
-0.0970718
-0.087848
-0.0794918
-0.0718109
-0.0657847
-0.398574
-0.384769
-0.36405
-0.335624
-0.302903
-0.269691
-0.23837
-0.210041
-0.184988
-0.163072
-0.143975
-0.127339
-0.112822
-0.100121
-0.0889772
-0.0791768
-0.0705166
-0.0627067
-0.0555679
-0.0501224
-0.375612
-0.362309
-0.341047
-0.311745
-0.278402
-0.244977
-0.213804
-0.185873
-0.16137
-0.140084
-0.121656
-0.105706
-0.0918809
-0.0798711
-0.0694151
-0.0602976
-0.0523099
-0.0451555
-0.0386701
-0.0338999
-0.348802
-0.336095
-0.314456
-0.284555
-0.250923
-0.217615
-0.186883
-0.159598
-0.135852
-0.115373
-0.0977682
-0.0826415
-0.0696334
-0.0584331
-0.0487786
-0.0404542
-0.033248
-0.0268631
-0.0211492
-0.0171412
-0.318244
-0.306227
-0.284401
-0.254194
-0.220611
-0.187743
-0.15773
-0.131324
-0.108527
-0.089016
-0.0723736
-0.0581943
-0.0461181
-0.0358361
-0.0270896
-0.0196645
-0.0133494
-0.0078535
-0.00302897
0.000160278
-0.2841
-0.272866
-0.251057
-0.22085
-0.187652
-0.155532
-0.126498
-0.101184
-0.0795099
-0.0611099
-0.0455516
-0.0324267
-0.0213799
-0.0121097
-0.00436493
0.00206228
0.00737696
0.0118604
0.015681
0.0180053
-0.24659
-0.236233
-0.214654
-0.184757
-0.152267
-0.121184
-0.0933696
-0.0693382
-0.0489391
-0.0317738
-0.017401
-0.00541646
0.00452523
0.0127121
0.019381
0.0247277
0.0289454
0.0322987
0.0349781
0.0362739
-0.205988
-0.196597
-0.17547
-0.146184
-0.114711
-0.0849328
-0.0585536
-0.0359736
-0.0169801
-0.00115063
0.0119582
0.0227407
0.0315262
0.0385817
0.0441217
0.0483265
0.0513727
0.0534712
0.0547505
0.0545851
-0.162616
-0.154279
-0.13382
-0.10544
-0.0752716
-0.0470416
-0.0222887
-0.00130532
0.0161749
0.0305921
0.0423867
0.0519386
0.0595542
0.0654688
0.0698635
0.0728971
0.0747068
0.0753331
0.0746813
0.0724946
-0.116839
-0.109635
-0.0900581
-0.0628616
-0.034262
-0.00779886
0.0151592
0.0344209
0.0503004
0.0632522
0.0737136
0.0820521
0.0885521
0.0934153
0.0967861
0.0987919
0.0994582
0.0984386
0.0952869
0.0910037
-0.0690536
-0.063056
-0.0445642
-0.0188086
0.00798232
0.0324843
0.0534986
0.0709286
0.0851305
0.0965723
0.105693
0.112859
0.118352
0.122373
0.125078
0.126611
0.126878
0.125048
0.120432
0.115766
-0.0196869
-0.0149595
0.00225991
0.0263409
0.0511109
0.0734815
0.0924212
0.10792
0.120368
0.130244
0.13799
0.143975
0.148495
0.15179
0.154099
0.155691
0.156544
0.155698
0.152891
0.156256
0.0308244
0.0342251
0.0500009
0.0721997
0.094765
0.114859
0.131613
0.145091
0.155713
0.163959
0.170266
0.174998
0.17845
0.180873
0.182523
0.183658
0.184268
0.183891
0.183402
0.188895
0.0820239
0.0840529
0.0982357
0.118375
0.138584
0.156284
0.17076
0.182146
0.190879
0.197437
0.202247
0.205665
0.207981
0.209444
0.210298
0.210762
0.210819
0.210184
0.209745
0.214151
0.133452
0.134076
0.146541
0.164476
0.182209
0.197427
0.20956
0.218798
0.225591
0.230408
0.233661
0.235691
0.236776
0.237152
0.237045
0.236649
0.23596
0.234762
0.233785
0.236725
0.184648
0.183849
0.194496
0.210118
0.225293
0.237971
0.24772
0.254778
0.259599
0.262641
0.264298
0.26489
0.264678
0.263879
0.262694
0.261289
0.259649
0.25758
0.255758
0.257328
0.23516
0.232931
0.241692
0.254927
0.267495
0.277608
0.284961
0.289831
0.292672
0.293926
0.293966
0.293093
0.291545
0.289522
0.287203
0.284725
0.28206
0.279035
0.276292
0.276549
0.284546
0.280895
0.287727
0.298539
0.308489
0.316046
0.321019
0.323718
0.324595
0.324071
0.322498
0.320155
0.317263
0.313998
0.31052
0.306943
0.303228
0.299229
0.295561
0.294576
0.332376
0.327326
0.332219
0.340608
0.347965
0.353005
0.355642
0.356214
0.355165
0.352896
0.349738
0.345948
0.341727
0.337233
0.332607
0.327944
0.323197
0.318249
0.313679
0.311512
0.37824
0.371829
0.374801
0.380804
0.385626
0.388219
0.388593
0.387107
0.384193
0.380235
0.37554
0.370346
0.364834
0.359147
0.353406
0.34769
0.341953
0.3361
0.330666
0.327379
0.42175
0.414029
0.415127
0.418813
0.421193
0.42144
0.419648
0.416195
0.4115
0.405928
0.399764
0.393227
0.386481
0.379653
0.372849
0.366133
0.359461
0.352758
0.346506
0.342159
0.462537
0.453574
0.452872
0.454345
0.454406
0.452432
0.448597
0.443289
0.436916
0.429823
0.422275
0.414474
0.406566
0.398665
0.390862
0.383209
0.375666
0.368174
0.361155
0.355816
0.500261
0.490137
0.487737
0.487129
0.485021
0.480979
0.475244
0.468212
0.460282
0.451777
0.442945
0.43397
0.424985
0.41609
0.407363
0.398846
0.390505
0.38229
0.374561
0.368301
0.534611
0.523418
0.519444
0.516916
0.512816
0.50688
0.499408
0.490803
0.481449
0.471656
0.461652
0.451607
0.441641
0.43184
0.422272
0.412972
0.403907
0.395041
0.386663
0.37956
0.565302
0.553146
0.547745
0.543482
0.537589
0.529954
0.520924
0.51091
0.500283
0.489336
0.478284
0.467282
0.456438
0.44583
0.435512
0.425513
0.415807
0.406361
0.397403
0.389542
0.592082
0.57908
0.572419
0.566628
0.559162
0.550037
0.539646
0.5284
0.51666
0.504706
0.492739
0.480902
0.469293
0.457979
0.447007
0.436401
0.426138
0.41619
0.406722
0.398196
0.614734
0.601011
0.593274
0.58618
0.577377
0.56699
0.555445
0.543156
0.530475
0.517668
0.504927
0.492383
0.480126
0.468216
0.456693
0.445573
0.434842
0.424471
0.41457
0.405479
0.633072
0.618763
0.610147
0.601994
0.592105
0.580694
0.568213
0.555079
0.541635
0.528138
0.514769
0.501654
0.488873
0.476481
0.464511
0.452977
0.441867
0.431155
0.420903
0.41135
0.646948
0.632193
0.622909
0.61395
0.603237
0.59105
0.577862
0.564087
0.550066
0.536047
0.522204
0.508655
0.495478
0.482722
0.470414
0.458567
0.447172
0.436201
0.425682
0.41578
0.656249
0.641195
0.631461
0.621961
0.610695
0.597987
0.584324
0.570121
0.555712
0.541343
0.527182
0.513343
0.499901
0.4869
0.474366
0.46231
0.450723
0.439579
0.428881
0.418743
0.6609
0.645696
0.635737
0.625966
0.614423
0.601455
0.587554
0.573137
0.558535
0.543991
0.529671
0.515687
0.502112
0.488989
0.476342
0.464181
0.452498
0.441269
0.43048
0.420224
0.660864
0.645661
0.635704
0.625936
0.614396
0.60143
0.587532
0.573116
0.558517
0.543974
0.529655
0.515673
0.502099
0.488977
0.47633
0.46417
0.452488
0.441259
0.430471
0.420215
0.65614
0.641091
0.631363
0.621871
0.610613
0.597912
0.584256
0.570059
0.555656
0.541291
0.527134
0.513299
0.49986
0.486862
0.474331
0.462276
0.450691
0.43955
0.428853
0.418717
0.646768
0.63202
0.622747
0.613801
0.603101
0.590927
0.577749
0.563985
0.549973
0.535961
0.522125
0.508582
0.495411
0.482659
0.470356
0.458512
0.44712
0.436152
0.425635
0.415736
0.632823
0.618523
0.609922
0.601787
0.591916
0.580523
0.568058
0.554937
0.541506
0.528019
0.51466
0.501553
0.48878
0.476394
0.46443
0.452901
0.441795
0.431087
0.420838
0.411289
0.614418
0.600708
0.592989
0.585919
0.577139
0.566774
0.555249
0.542977
0.530311
0.517518
0.504789
0.492255
0.480008
0.468106
0.45659
0.445477
0.434751
0.424385
0.414488
0.405401
0.591703
0.578716
0.572078
0.566314
0.558875
0.549777
0.53941
0.528185
0.516464
0.504526
0.492574
0.480749
0.469151
0.457847
0.446884
0.436285
0.426029
0.416087
0.406624
0.398103
0.564864
0.552726
0.547351
0.543119
0.537258
0.529653
0.520651
0.510661
0.500056
0.489128
0.478093
0.467105
0.456274
0.445677
0.435369
0.425379
0.41568
0.406242
0.397288
0.389434
0.53412
0.522947
0.519001
0.516508
0.512444
0.506543
0.499101
0.490523
0.481194
0.471422
0.461437
0.451408
0.441456
0.431669
0.422112
0.412821
0.403765
0.394906
0.386535
0.379438
0.499723
0.48962
0.487251
0.486681
0.484612
0.480608
0.474907
0.467906
0.460001
0.45152
0.442709
0.433752
0.424783
0.415902
0.407187
0.398681
0.390348
0.382142
0.374419
0.368166
0.461957
0.453018
0.452349
0.453862
0.453966
0.452033
0.448234
0.442958
0.436614
0.429546
0.422021
0.414238
0.406348
0.398462
0.390672
0.38303
0.375498
0.368014
0.361002
0.35567
0.421136
0.41344
0.414572
0.418302
0.420727
0.421016
0.419263
0.415844
0.411179
0.405634
0.399494
0.392978
0.38625
0.379438
0.372648
0.365944
0.359282
0.352587
0.346343
0.342004
0.377601
0.371215
0.374223
0.380269
0.385138
0.387776
0.38819
0.38674
0.383858
0.379928
0.375258
0.370085
0.364592
0.358921
0.353195
0.347492
0.341766
0.335922
0.330495
0.327215
0.331719
0.326696
0.331624
0.340059
0.347463
0.352548
0.355227
0.355837
0.35482
0.35258
0.349447
0.34568
0.341477
0.337001
0.33239
0.327739
0.323003
0.318065
0.313502
0.311342
0.283881
0.280257
0.287125
0.297981
0.307979
0.315582
0.320597
0.323334
0.324244
0.32375
0.322202
0.319882
0.317009
0.313762
0.310298
0.306735
0.303031
0.299041
0.29538
0.294401
0.234497
0.232295
0.24109
0.254369
0.266984
0.277144
0.284539
0.289446
0.292321
0.293605
0.29367
0.292819
0.291291
0.289285
0.28698
0.284516
0.281861
0.278846
0.27611
0.276372
0.183997
0.183225
0.193905
0.209569
0.224789
0.237512
0.247303
0.254398
0.259253
0.262324
0.264005
0.26462
0.264427
0.263644
0.262474
0.261081
0.259452
0.257392
0.255577
0.257151
0.132823
0.133475
0.14597
0.163944
0.181721
0.196982
0.209155
0.21843
0.225254
0.230099
0.233376
0.235428
0.236532
0.236923
0.23683
0.236445
0.235768
0.234578
0.233608
0.236552
0.0814293
0.0834849
0.0976948
0.117869
0.138118
0.155859
0.170374
0.181794
0.190557
0.197142
0.201975
0.205413
0.207747
0.209224
0.210092
0.210566
0.210634
0.210007
0.209574
0.213983
0.0302748
0.0337013
0.0495006
0.0717296
0.0943312
0.114463
0.131251
0.144762
0.155412
0.163683
0.170012
0.174762
0.17823
0.180667
0.182328
0.183473
0.184091
0.183723
0.18324
0.188735
-0.02018
-0.0154279
0.0018107
0.0259166
0.0507177
0.0731213
0.0920927
0.10762
0.120094
0.129993
0.137757
0.143759
0.148293
0.1516
0.153919
0.15552
0.156381
0.155543
0.152743
0.15611
-0.0694787
-0.0634576
-0.0449515
-0.0191773
0.00763865
0.0321684
0.0532099
0.0706649
0.084889
0.09635
0.105487
0.112667
0.118172
0.122203
0.124916
0.126456
0.12673
0.124905
0.120294
0.115632
-0.117184
-0.109958
-0.0903727
-0.0631648
-0.0345472
-0.00806242
0.0149175
0.0341997
0.0500973
0.0630646
0.0735392
0.0818887
0.0883976
0.0932679
0.0966443
0.0986543
0.0993236
0.0983059
0.095154
0.0908696
-0.162871
-0.154513
-0.134051
-0.105668
-0.0754892
-0.0472447
-0.022476
-0.00147758
0.016016
0.0304446
0.0422484
0.0518076
0.0594287
0.0653472
0.0697443
0.0727788
0.074588
0.0752125
0.0745572
0.072366
-0.206142
-0.196732
-0.175607
-0.146327
-0.114852
-0.0850674
-0.0586795
-0.0360905
-0.017089
-0.00125303
0.0118606
0.0226464
0.0314336
0.0384894
0.0440284
0.0482309
0.0512736
0.0533673
0.054641
0.0544701
-0.246632
-0.236258
-0.214688
-0.184804
-0.152323
-0.121242
-0.093427
-0.0693935
-0.0489923
-0.031826
-0.0174532
-0.00546995
0.0044693
0.0126526
0.0193169
0.0246581
0.0288691
0.0322147
0.0348861
0.0361754
-0.284022
-0.272773
-0.250978
-0.220794
-0.187614
-0.155506
-0.12648
-0.101172
-0.079502
-0.0611069
-0.0455541
-0.0324354
-0.0213956
-0.0121331
-0.00439691
0.00202111
0.00732584
0.0117984
0.0156081
0.0179237
-0.318037
-0.306005
-0.2842
-0.254025
-0.220472
-0.187626
-0.15763
-0.131238
-0.108453
-0.0889531
-0.0723221
-0.0581544
-0.0460901
-0.0358205
-0.0270867
-0.0196747
-0.0133732
-0.00789158
-0.00308123
9.63835e-05
-0.348458
-0.335739
-0.314126
-0.284266
-0.250674
-0.2174
-0.186694
-0.159433
-0.135706
-0.115246
-0.0976587
-0.0825493
-0.0695585
-0.0583754
-0.0487381
-0.040431
-0.0332423
-0.0268754
-0.021179
-0.0171859
-0.375126
-0.361812
-0.34058
-0.311329
-0.278037
-0.244657
-0.213521
-0.185622
-0.161148
-0.139888
-0.121485
-0.105558
-0.0917559
-0.0797685
-0.0693346
-0.0602389
-0.0522728
-0.0451402
-0.0386759
-0.0339238
-0.397941
-0.384126
-0.363442
-0.335075
-0.302416
-0.269259
-0.237988
-0.2097
-0.184685
-0.162803
-0.143738
-0.127132
-0.112644
-0.099971
-0.0888542
-0.0790803
-0.0704461
-0.0626621
-0.0555483
-0.0501244
-0.416869
-0.402646
-0.382652
-0.355417
-0.323709
-0.291106
-0.26
-0.231585
-0.20625
-0.183934
-0.164371
-0.147231
-0.132191
-0.118957
-0.107275
-0.0969356
-0.0877425
-0.0794166
-0.0717648
-0.0657641
-0.431943
-0.417403
-0.39821
-0.372319
-0.341857
-0.310129
-0.279493
-0.251218
-0.225794
-0.203241
-0.18335
-0.165829
-0.150374
-0.136706
-0.124578
-0.113786
-0.104141
-0.095378
-0.0872907
-0.0808006
-0.443257
-0.428491
-0.410182
-0.385803
-0.356849
-0.326299
-0.296431
-0.268567
-0.243288
-0.2207
-0.200657
-0.182909
-0.16718
-0.153206
-0.140751
-0.129617
-0.119625
-0.110523
-0.102095
-0.0951961
-0.450966
-0.436067
-0.418691
-0.395946
-0.36872
-0.339624
-0.310811
-0.283624
-0.258725
-0.236305
-0.216288
-0.198469
-0.182605
-0.168452
-0.155787
-0.14442
-0.13418
-0.124834
-0.116157
-0.108927
-0.455282
-0.440342
-0.423922
-0.402882
-0.377551
-0.350149
-0.322656
-0.296403
-0.272115
-0.250067
-0.230252
-0.212518
-0.196657
-0.182449
-0.169689
-0.158194
-0.147805
-0.138306
-0.129467
-0.121985
-0.456467
-0.441581
-0.426113
-0.406797
-0.383475
-0.357959
-0.332021
-0.306942
-0.283489
-0.262011
-0.242572
-0.225075
-0.209353
-0.195214
-0.182469
-0.170949
-0.160506
-0.150941
-0.142024
-0.134368
-0.454824
-0.440088
-0.425548
-0.407928
-0.386666
-0.363178
-0.338991
-0.315302
-0.292895
-0.272178
-0.253284
-0.236174
-0.220723
-0.20677
-0.194148
-0.182702
-0.172296
-0.162749
-0.153835
-0.146084
-0.450687
-0.4362
-0.422548
-0.406554
-0.387346
-0.365968
-0.343683
-0.321568
-0.300397
-0.280622
-0.262435
-0.245855
-0.230802
-0.217149
-0.204755
-0.193479
-0.183197
-0.173749
-0.164917
-0.157147
-0.444413
-0.430275
-0.417465
-0.40299
-0.385774
-0.366525
-0.34624
-0.325847
-0.306078
-0.287409
-0.270081
-0.254168
-0.239635
-0.226393
-0.214325
-0.20331
-0.193237
-0.183967
-0.175291
-0.167578
-0.43637
-0.42268
-0.410662
-0.397577
-0.382241
-0.365083
-0.346838
-0.328269
-0.310036
-0.292617
-0.276288
-0.26117
-0.247274
-0.234547
-0.2229
-0.212234
-0.202451
-0.193432
-0.184984
-0.177401
0.0969083
0.0694598
0.0491969
0.039413
0.0306156
0.0188245
0.00564099
-0.00708883
-0.0190871
-0.0307557
-0.0423249
-0.0537657
-0.0649883
-0.0759541
-0.0866726
-0.0971688
-0.107469
-0.117602
-0.127603
-0.137521
0.0397686
0.0258295
0.0135504
0.00619828
0.000770976
-0.0055712
-0.0129809
-0.0204248
-0.0273171
-0.0337183
-0.0398535
-0.0458158
-0.0515779
-0.057092
-0.0623378
-0.0673159
-0.07203
-0.0764786
-0.0806554
-0.084551
0.0246496
0.018443
0.0127372
0.00807267
0.00397232
-0.000236082
-0.00475665
-0.00939296
-0.0139314
-0.0183272
-0.022642
-0.0269323
-0.0312121
-0.035472
-0.0397052
-0.0439137
-0.0481051
-0.0522875
-0.0564677
-0.0606525
0.0152734
0.0113683
0.00740357
0.00364783
7.73554e-05
-0.00344862
-0.00700686
-0.0105778
-0.0141096
-0.0175752
-0.0209778
-0.0243298
-0.0276376
-0.0308997
-0.0341129
-0.0372753
-0.0403873
-0.0434501
-0.0464646
-0.0494316
0.007691
0.00451935
0.00147298
-0.00125266
-0.00383665
-0.0064218
-0.00902715
-0.0116216
-0.0141829
-0.0167078
-0.0192025
-0.0216731
-0.0241234
-0.0265552
-0.0289701
-0.0313699
-0.0337569
-0.0361334
-0.0385019
-0.0408647
0.00169382
-0.000870176
-0.00318922
-0.0051815
-0.00707734
-0.00901564
-0.0109968
-0.0129799
-0.0149437
-0.0168893
-0.0188237
-0.0207511
-0.022672
-0.024586
-0.026493
-0.0283932
-0.0302871
-0.0321752
-0.0340579
-0.0359355
-0.00241528
-0.00442405
-0.00619159
-0.00770431
-0.00915868
-0.0106606
-0.0122049
-0.0137561
-0.0152966
-0.0168271
-0.0183535
-0.0198788
-0.0214029
-0.0229252
-0.0244451
-0.0259629
-0.0274788
-0.0289931
-0.0305062
-0.0320182
-0.00520242
-0.00676512
-0.00816091
-0.00937778
-0.0105532
-0.0117641
-0.0130088
-0.0142624
-0.0155111
-0.0167547
-0.0179969
-0.0192399
-0.0204836
-0.0217274
-0.0229706
-0.0242133
-0.0254552
-0.0266966
-0.0279375
-0.0291778
-0.00717863
-0.00837915
-0.0095094
-0.0105295
-0.0115136
-0.0125146
-0.0135383
-0.0145707
-0.0156019
-0.0166305
-0.0176583
-0.0186867
-0.019716
-0.0207455
-0.021775
-0.0228041
-0.023833
-0.0248615
-0.0258897
-0.0269176
-0.00871529
-0.00961889
-0.0105413
-0.0114155
-0.0122585
-0.0131013
-0.0139553
-0.0148165
-0.0156789
-0.0165403
-0.017401
-0.0182618
-0.019123
-0.0199844
-0.0208457
-0.0217067
-0.0225675
-0.0234281
-0.0242883
-0.0251482
-0.0100089
-0.0106773
-0.0114261
-0.012175
-0.0129
-0.0136133
-0.0143283
-0.0150482
-0.0157706
-0.016493
-0.0172149
-0.0179365
-0.0186581
-0.0193798
-0.0201015
-0.0208231
-0.0215446
-0.022266
-0.0229874
-0.0237086
-0.0111418
-0.0116324
-0.0122332
-0.0128649
-0.0134812
-0.0140808
-0.0146762
-0.0152745
-0.0158757
-0.0164778
-0.0170799
-0.0176818
-0.0182838
-0.0188861
-0.0194889
-0.020092
-0.0206956
-0.0212995
-0.021904
-0.022509
-0.0121073
-0.0124567
-0.0129269
-0.0134472
-0.0139603
-0.0144556
-0.0149436
-0.0154328
-0.0159253
-0.0164195
-0.0169143
-0.0174095
-0.0179054
-0.0184023
-0.0189004
-0.0193997
-0.0199003
-0.0204024
-0.0209059
-0.0214109
-0.0128965
-0.0131174
-0.0134672
-0.0138841
-0.0143015
-0.0147004
-0.0150895
-0.0154788
-0.0158716
-0.0162671
-0.0166643
-0.0170628
-0.0174632
-0.0178657
-0.0182707
-0.0186784
-0.019089
-0.0195025
-0.019919
-0.0203387
-0.0135058
-0.0135776
-0.0137941
-0.0141006
-0.0144162
-0.0147123
-0.0149959
-0.015279
-0.0155672
-0.0158605
-0.0161579
-0.0164592
-0.0167647
-0.0170752
-0.017391
-0.0177124
-0.0180396
-0.0183727
-0.0187117
-0.0190567
-0.0140745
-0.0140109
-0.0140603
-0.0141999
-0.0143628
-0.0145184
-0.0146683
-0.0148228
-0.0149879
-0.0151647
-0.0153525
-0.015551
-0.0157602
-0.0159806
-0.0162123
-0.0164553
-0.0167095
-0.0169747
-0.0172506
-0.0175368
-0.0140945
-0.0139294
-0.0137138
-0.013529
-0.0134011
-0.0133215
-0.0132771
-0.0132615
-0.0132742
-0.0133159
-0.0133863
-0.0134843
-0.0136083
-0.0137569
-0.0139287
-0.0141224
-0.0143368
-0.0145704
-0.0148222
-0.0150906
-0.0116001
-0.0111463
-0.0106628
-0.0102808
-0.0100094
-0.00982094
-0.00969439
-0.00962107
-0.00959799
-0.00962286
-0.0096926
-0.00980356
-0.00995213
-0.0101349
-0.0103489
-0.0105912
-0.0108592
-0.0111502
-0.0114621
-0.0117925
-6.10647e-05
0.00362482
0.00490431
0.00423941
0.00312915
0.00227672
0.00167436
0.00113285
0.000551162
-7.49785e-05
-0.000719773
-0.00136653
-0.00201175
-0.00265694
-0.003303
-0.00394922
-0.00459426
-0.00523688
-0.00587619
-0.0065115
0.0119502
0.0242425
0.0280018
0.0253627
0.0214973
0.0186906
0.0168531
0.0153335
0.0137906
0.0122028
0.0106449
0.00916143
0.00775485
0.00641242
0.005124
0.00388511
0.00269382
0.00154831
0.000446209
-0.000615057
0.131574
0.132112
0.133215
0.134873
0.137087
0.13987
0.143244
0.147228
0.151842
0.157086
0.162949
0.169368
0.176239
0.183319
0.190205
0.196092
0.199498
0.197403
0.18329
0.142222
0.122192
0.122588
0.123343
0.124476
0.125949
0.127782
0.129912
0.132364
0.135015
0.137887
0.140736
0.143555
0.145865
0.147569
0.147705
0.145911
0.140153
0.129144
0.107847
0.0706231
0.111068
0.111286
0.111673
0.112243
0.112962
0.113822
0.114749
0.115716
0.116589
0.117309
0.117647
0.117477
0.116408
0.114182
0.110145
0.103809
0.0941983
0.0806931
0.0626106
0.0403018
0.0989046
0.0989512
0.0990137
0.0990939
0.0991687
0.099211
0.0991565
0.0989427
0.0984628
0.0976142
0.0962347
0.0941625
0.0911643
0.0870083
0.0814196
0.0741662
0.0651011
0.0541534
0.0412814
0.0257173
0.0864108
0.0863289
0.0861496
0.0858695
0.0854749
0.0849327
0.0841949
0.0831947
0.0818574
0.0800876
0.0777908
0.0748457
0.0711547
0.066594
0.0611125
0.054625
0.0471421
0.0384942
0.0284333
0.0161046
0.0741795
0.0740181
0.0736871
0.0731827
0.0724969
0.0716025
0.0704671
0.0690384
0.0672704
0.0650977
0.0624745
0.0593329
0.0556436
0.0513468
0.0464387
0.0408452
0.0345319
0.0272896
0.0188769
0.00865488
0.062626
0.062425
0.062018
0.0614016
0.0605721
0.0595111
0.0581993
0.0566029
0.0546964
0.0524411
0.0498166
0.0467848
0.0433354
0.039427
0.0350507
0.0301387
0.0246567
0.0184649
0.0114286
0.00313454
0.05199
0.0517768
0.0513471
0.050698
0.0498277
0.0487254
0.0473811
0.0457746
0.043893
0.0417126
0.0392232
0.0363994
0.0332345
0.0296974
0.0257837
0.0214525
0.016701
0.0114625
0.00568364
-0.000893746
0.0423728
0.042164
0.0417441
0.0411099
0.0402606
0.0391899
0.0378932
0.0363589
0.0345805
0.032543
0.030241
0.0276569
0.0247888
0.0216175
0.0181489
0.0143659
0.0102875
0.00589134
0.00118711
-0.00392104
0.0337824
0.0335866
0.0331933
0.032599
0.0318027
0.0308004
0.0295909
0.0281676
0.0265283
0.0246641
0.022574
0.0202476
0.0176879
0.0148851
0.0118513
0.00858064
0.00510164
0.0014193
-0.00240221
-0.00631177
0.0261717
0.0259926
0.0256332
0.0250895
0.0243603
0.0234429
0.0223379
0.0210423
0.0195575
0.0178791
0.0160105
0.013947
0.0116958
0.00925234
0.00663093
0.00382991
0.000881972
-0.00219109
-0.00528778
-0.00826214
0.0194678
0.019306
0.0189818
0.018491
0.0178325
0.0170045
0.0160092
0.0148458
0.0135183
0.0120255
0.0103737
0.00856199
0.00660152
0.00449193
0.00225044
-0.000121665
-0.00259011
-0.00512728
-0.00761789
-0.00987757
0.013591
0.0134448
0.0131528
0.0127107
0.012118
0.0113742
0.0104835
0.00944713
0.00827095
0.00695529
0.00550736
0.00392754
0.00222859
0.000414303
-0.0014925
-0.0034834
-0.00552006
-0.00757458
-0.00953608
-0.0112175
0.00847024
0.00833567
0.00806777
0.00766287
0.00712142
0.00644491
0.00564016
0.00471186
0.00366895
0.00251431
0.00125593
-0.000107067
-0.00156511
-0.00311695
-0.00473858
-0.00641276
-0.00808611
-0.00971608
-0.0111916
-0.0123491
0.00405355
0.00392442
0.00366839
0.00328214
0.00276728
0.00212699
0.00137134
0.000509191
-0.000444107
-0.00147889
-0.0025794
-0.0037427
-0.00495993
-0.00624108
-0.00757782
-0.00896899
-0.0103557
-0.0116657
-0.0127325
-0.0133554
0.000315898
0.000185016
-7.35778e-05
-0.000463565
-0.000982638
-0.00162798
-0.00238756
-0.00325108
-0.00419629
-0.00520544
-0.00624461
-0.00729235
-0.00831326
-0.00930841
-0.010274
-0.011262
-0.0122716
-0.0132831
-0.0140573
-0.0142523
-0.00273981
-0.00287806
-0.00315192
-0.00356573
-0.00411777
-0.00480767
-0.00562566
-0.00656552
-0.00760631
-0.00873085
-0.00989452
-0.0110546
-0.0121251
-0.0130373
-0.0136949
-0.0141036
-0.014308
-0.0145065
-0.0146855
-0.0144233
-0.00508807
-0.00523485
-0.00553115
-0.00597989
-0.00658256
-0.00734009
-0.00825176
-0.00931672
-0.010531
-0.0118876
-0.0133681
-0.0149362
-0.0165153
-0.0179687
-0.0190664
-0.0194961
-0.0189368
-0.0172916
-0.014961
-0.0128092
-0.00668822
-0.00684224
-0.00716027
-0.00764268
-0.00829522
-0.00911889
-0.0101245
-0.0113153
-0.0127104
-0.0143164
-0.0161639
-0.0182582
-0.0206284
-0.023222
-0.0259313
-0.0283313
-0.0296216
-0.0282406
-0.0223368
-0.0106454
-0.00749774
-0.00765879
-0.0079899
-0.00849347
-0.00917526
-0.0100408
-0.0111025
-0.0123737
-0.0138789
-0.0156459
-0.0177232
-0.0201698
-0.0230833
-0.026583
-0.0308315
-0.0359307
-0.0416862
-0.0466865
-0.0458365
-0.0230882
0.142134
0.14272
0.144027
0.145959
0.148661
0.152033
0.156317
0.161369
0.167568
0.174703
0.183363
0.193225
0.205229
0.218864
0.235707
0.254883
0.279242
0.307133
0.343984
0.386284
0.1421
0.142686
0.143992
0.145924
0.148625
0.151995
0.156277
0.161327
0.167523
0.174652
0.183305
0.193157
0.205146
0.218759
0.235565
0.254691
0.278959
0.306715
0.343335
0.385245
0.142029
0.142615
0.14392
0.145851
0.14855
0.151917
0.156195
0.161239
0.167428
0.174548
0.183185
0.193018
0.204975
0.218546
0.235278
0.254303
0.278389
0.305876
0.342036
0.383168
0.141922
0.142507
0.143811
0.145739
0.148435
0.151798
0.156071
0.161107
0.167284
0.174389
0.183005
0.192808
0.204717
0.218225
0.234847
0.253721
0.277537
0.304623
0.340093
0.380064
0.141777
0.142362
0.143664
0.14559
0.148281
0.151639
0.155904
0.16093
0.167093
0.174177
0.182764
0.192528
0.204375
0.217798
0.234274
0.252949
0.276407
0.302964
0.337515
0.375948
0.141596
0.14218
0.14348
0.145403
0.148089
0.151441
0.155695
0.160708
0.166853
0.173913
0.182464
0.192179
0.203949
0.217267
0.233564
0.251991
0.275004
0.300907
0.334313
0.370842
0.141378
0.141962
0.14326
0.145179
0.147859
0.151202
0.155446
0.160443
0.166567
0.173597
0.182106
0.191762
0.203441
0.216635
0.232719
0.250852
0.273336
0.298466
0.330501
0.364774
0.141124
0.141708
0.143003
0.144918
0.147591
0.150926
0.155156
0.160136
0.166235
0.173231
0.181692
0.191278
0.202855
0.215902
0.231745
0.249537
0.271412
0.295655
0.326097
0.357776
0.140835
0.141419
0.142711
0.144621
0.147287
0.150611
0.154826
0.159786
0.165858
0.172815
0.181222
0.19073
0.202191
0.215073
0.230646
0.248053
0.269243
0.292489
0.321118
0.349886
0.140511
0.141095
0.142384
0.144289
0.146946
0.150259
0.154458
0.159396
0.165437
0.172351
0.180698
0.19012
0.201455
0.21415
0.229428
0.246406
0.266841
0.288986
0.315587
0.341145
0.140152
0.140737
0.142022
0.143922
0.14657
0.149871
0.154052
0.158965
0.164973
0.17184
0.180123
0.189448
0.200647
0.213138
0.228097
0.244603
0.264219
0.285165
0.309528
0.331603
0.139758
0.140344
0.141627
0.143522
0.14616
0.149448
0.153609
0.158496
0.164469
0.171284
0.179498
0.188719
0.199773
0.212039
0.226661
0.242652
0.261393
0.281042
0.302968
0.321311
0.139331
0.139919
0.141198
0.143088
0.145716
0.14899
0.153131
0.15799
0.163924
0.170685
0.178825
0.187933
0.198834
0.210858
0.225125
0.24056
0.258379
0.276638
0.295938
0.310323
0.138871
0.139461
0.140738
0.142622
0.145239
0.148499
0.152618
0.157448
0.163342
0.170044
0.178106
0.187095
0.197835
0.2096
0.223499
0.238337
0.255197
0.27197
0.288476
0.298693
0.138378
0.138971
0.140246
0.142125
0.144731
0.147976
0.152072
0.156871
0.162722
0.169363
0.177344
0.186206
0.196778
0.208269
0.221787
0.235989
0.251864
0.267058
0.280623
0.286469
0.137854
0.138451
0.139723
0.141597
0.144192
0.147421
0.151493
0.156259
0.162064
0.168641
0.176535
0.185264
0.19566
0.206862
0.219989
0.233521
0.248394
0.261914
0.272434
0.273691
0.137299
0.1379
0.139172
0.141041
0.143624
0.146837
0.150883
0.155616
0.161374
0.167883
0.175686
0.184276
0.19449
0.205389
0.218115
0.230943
0.244807
0.256555
0.263969
0.260389
0.136713
0.137322
0.138595
0.140461
0.143035
0.146234
0.150259
0.154962
0.160678
0.167124
0.174842
0.183296
0.193333
0.203924
0.216252
0.228344
0.241196
0.251036
0.255275
0.246466
0.136097
0.136715
0.137992
0.13986
0.142429
0.145621
0.14963
0.154312
0.159994
0.166388
0.174034
0.182363
0.192234
0.202524
0.214461
0.225793
0.23763
0.245403
0.246376
0.231271
0.135447
0.136068
0.137338
0.139197
0.141742
0.144907
0.148869
0.1535
0.159098
0.165397
0.172892
0.181038
0.190632
0.200557
0.211966
0.222524
0.233281
0.239172
0.237341
0.215086
0.135319
0.13594
0.137211
0.139069
0.141613
0.144777
0.148737
0.153366
0.158962
0.165258
0.17275
0.180893
0.190484
0.200406
0.211811
0.222367
0.23312
0.239013
0.237182
0.214944
0.135976
0.136594
0.137871
0.139739
0.142306
0.145497
0.149505
0.154185
0.159864
0.166256
0.173899
0.182225
0.192093
0.20238
0.214313
0.225643
0.237476
0.24525
0.246218
0.231119
0.136598
0.137207
0.13848
0.140346
0.142919
0.146117
0.15014
0.154842
0.160555
0.166999
0.174715
0.183166
0.1932
0.203788
0.216113
0.228203
0.24105
0.250889
0.25512
0.246307
0.13719
0.137792
0.139064
0.140932
0.143514
0.146726
0.150771
0.155502
0.161258
0.167765
0.175566
0.184154
0.194364
0.205261
0.217983
0.230809
0.244668
0.256414
0.263819
0.260228
0.137752
0.138349
0.139622
0.141495
0.144089
0.147316
0.151387
0.156152
0.161955
0.16853
0.176422
0.185148
0.195542
0.206741
0.219865
0.233395
0.248263
0.261779
0.27229
0.273532
0.138283
0.138876
0.140151
0.142029
0.144634
0.147878
0.151973
0.156771
0.16262
0.169259
0.177237
0.186098
0.196667
0.208155
0.221671
0.235871
0.251741
0.26693
0.280485
0.286313
0.138782
0.139372
0.140649
0.142533
0.145149
0.148408
0.152526
0.157354
0.163246
0.169947
0.178007
0.186994
0.197732
0.209495
0.223391
0.238226
0.255081
0.27185
0.288344
0.298542
0.139249
0.139837
0.141116
0.143005
0.145632
0.148905
0.153045
0.157903
0.163836
0.170594
0.178733
0.18784
0.198738
0.21076
0.225025
0.240457
0.258272
0.276525
0.295814
0.310178
0.139683
0.140269
0.141551
0.143445
0.146083
0.14937
0.15353
0.158416
0.164387
0.171201
0.179413
0.188632
0.199684
0.211949
0.226568
0.242556
0.261294
0.280937
0.302851
0.321173
0.140082
0.140667
0.141953
0.143852
0.1465
0.1498
0.15398
0.158892
0.164899
0.171764
0.180046
0.189369
0.200567
0.213055
0.228012
0.244516
0.264128
0.285067
0.30942
0.331474
0.140448
0.141032
0.142321
0.144226
0.146882
0.150194
0.154393
0.159329
0.165369
0.172282
0.180628
0.190048
0.201382
0.214075
0.229351
0.246327
0.266758
0.288898
0.315488
0.341025
0.140779
0.141363
0.142655