/*--------------------------------*- C++ -*----------------------------------*\
  =========                 |
  \\      /  F ield         | OpenFOAM: The Open Source CFD Toolbox
   \\    /   O peration     | Website:  https://openfoam.org
    \\  /    A nd           | Version:  6.0
     \\/     M anipulation  |
\*---------------------------------------------------------------------------*/
FoamFile
{
    version     2.0;
    format      ascii;
    class       volScalarField;
    location    "97";
    object      p;
}
// * * * * * * * * * * * * * * * * * * * * * * * * * * * * * * * * * * * * * //

dimensions      [0 2 -2 0 0 0 0];

internalField   nonuniform List<scalar> 
4000
(
-0.400625
-0.402
-0.402618
-0.402816
-0.402849
-0.402812
-0.402774
-0.402777
-0.402844
-0.402983
-0.403198
-0.403492
-0.403867
-0.404325
-0.404869
-0.405512
-0.406251
-0.406954
-0.407518
-0.409242
-0.399129
-0.399949
-0.400232
-0.400187
-0.399999
-0.399762
-0.399546
-0.3994
-0.399355
-0.399426
-0.399623
-0.399953
-0.40042
-0.401026
-0.401771
-0.402664
-0.403701
-0.40475
-0.405682
-0.407773
-0.397811
-0.398103
-0.398065
-0.397785
-0.397382
-0.396946
-0.396548
-0.396244
-0.39607
-0.39605
-0.3962
-0.39653
-0.397046
-0.397752
-0.398647
-0.399738
-0.40102
-0.402364
-0.403619
-0.406024
-0.396554
-0.396368
-0.39603
-0.395526
-0.394915
-0.394279
-0.393693
-0.393216
-0.392893
-0.392755
-0.392824
-0.393115
-0.393638
-0.394397
-0.395394
-0.396633
-0.398111
-0.399706
-0.401246
-0.403923
-0.395267
-0.394669
-0.394063
-0.393349
-0.392535
-0.391697
-0.390912
-0.390245
-0.389748
-0.389461
-0.389411
-0.389622
-0.390106
-0.390872
-0.391922
-0.393263
-0.394892
-0.396697
-0.398489
-0.401405
-0.393885
-0.392953
-0.392117
-0.39121
-0.390199
-0.389155
-0.388159
-0.38728
-0.38658
-0.386108
-0.3859
-0.385986
-0.386384
-0.387108
-0.388164
-0.389559
-0.391295
-0.39327
-0.395286
-0.398414
-0.39237
-0.391191
-0.390168
-0.389086
-0.387884
-0.386631
-0.385409
-0.384295
-0.383361
-0.382666
-0.382257
-0.382171
-0.382434
-0.383066
-0.384076
-0.385476
-0.387274
-0.38938
-0.391591
-0.394915
-0.390709
-0.389374
-0.388209
-0.386974
-0.385589
-0.384122
-0.382659
-0.381287
-0.380088
-0.379132
-0.378479
-0.378173
-0.378249
-0.378735
-0.379646
-0.381001
-0.382813
-0.385008
-0.387387
-0.390898
-0.388915
-0.387515
-0.386255
-0.384886
-0.383326
-0.381642
-0.379926
-0.378274
-0.376781
-0.37553
-0.37459
-0.374018
-0.373858
-0.374144
-0.374903
-0.376159
-0.377934
-0.380173
-0.382691
-0.386387
-0.38702
-0.385642
-0.38433
-0.382849
-0.381122
-0.37922
-0.377242
-0.375295
-0.373486
-0.37191
-0.370649
-0.36977
-0.369328
-0.369365
-0.369918
-0.37102
-0.372705
-0.374936
-0.377557
-0.381443
-0.385079
-0.383801
-0.382476
-0.380901
-0.379015
-0.376897
-0.374653
-0.372403
-0.370264
-0.368346
-0.366741
-0.365527
-0.364768
-0.364515
-0.364813
-0.365707
-0.367243
-0.369406
-0.37208
-0.376154
-0.383164
-0.382051
-0.380745
-0.379089
-0.377053
-0.374724
-0.372218
-0.369665
-0.367198
-0.364935
-0.362979
-0.361418
-0.360323
-0.359754
-0.359761
-0.360399
-0.361726
-0.363747
-0.366393
-0.370621
-0.381368
-0.380466
-0.379199
-0.377473
-0.375295
-0.372762
-0.370004
-0.367164
-0.364381
-0.361788
-0.359495
-0.357598
-0.356172
-0.355281
-0.35498
-0.355326
-0.356384
-0.358171
-0.360661
-0.364938
-0.379796
-0.379132
-0.377913
-0.37612
-0.373807
-0.371085
-0.368094
-0.364988
-0.361921
-0.359031
-0.356436
-0.354237
-0.35251
-0.35132
-0.350717
-0.350753
-0.351489
-0.352932
-0.355072
-0.359175
-0.378571
-0.378144
-0.37697
-0.37511
-0.372669
-0.369772
-0.366574
-0.36324
-0.359932
-0.356795
-0.353953
-0.351507
-0.349535
-0.348091
-0.347217
-0.346945
-0.347312
-0.348291
-0.349823
-0.353383
-0.377823
-0.377605
-0.376459
-0.374527
-0.371964
-0.368913
-0.365541
-0.362023
-0.358528
-0.355206
-0.352184
-0.349562
-0.347412
-0.345777
-0.344675
-0.344108
-0.344069
-0.344461
-0.345101
-0.347625
-0.37768
-0.377618
-0.376471
-0.374457
-0.371778
-0.368596
-0.365088
-0.361436
-0.357813
-0.354373
-0.351242
-0.348515
-0.346254
-0.344485
-0.343196
-0.342343
-0.341857
-0.341558
-0.341069
-0.342034
-0.378262
-0.378276
-0.377088
-0.374979
-0.372192
-0.368901
-0.365294
-0.361556
-0.357864
-0.354367
-0.351189
-0.348416
-0.346097
-0.344232
-0.342774
-0.341624
-0.340637
-0.339543
-0.337756
-0.336699
-0.379667
-0.37966
-0.378382
-0.37616
-0.373265
-0.369885
-0.366211
-0.362431
-0.358716
-0.355212
-0.352033
-0.349256
-0.346909
-0.344972
-0.343362
-0.341923
-0.340428
-0.338482
-0.335238
-0.331738
-0.381967
-0.381826
-0.380402
-0.378042
-0.375034
-0.371575
-0.367856
-0.364062
-0.360357
-0.356876
-0.353722
-0.350958
-0.3486
-0.346615
-0.344912
-0.343332
-0.341637
-0.339375
-0.335453
-0.330532
-0.3852
-0.384808
-0.383173
-0.380642
-0.377505
-0.373965
-0.37021
-0.366415
-0.362731
-0.35928
-0.35615
-0.35339
-0.351007
-0.348966
-0.3472
-0.345617
-0.344128
-0.342657
-0.341325
-0.343644
-0.389375
-0.388617
-0.386702
-0.383958
-0.380666
-0.377029
-0.373228
-0.369425
-0.365754
-0.362318
-0.359185
-0.356387
-0.353919
-0.351744
-0.349806
-0.348045
-0.346425
-0.344963
-0.343845
-0.344875
-0.39448
-0.393248
-0.390982
-0.387977
-0.384491
-0.380728
-0.37686
-0.373027
-0.369341
-0.365882
-0.362694
-0.359788
-0.357144
-0.35472
-0.352462
-0.350323
-0.348275
-0.346325
-0.344581
-0.343581
-0.400491
-0.398688
-0.396003
-0.392683
-0.38896
-0.385034
-0.381063
-0.377163
-0.373417
-0.369876
-0.366555
-0.363443
-0.360503
-0.357687
-0.354942
-0.352226
-0.349511
-0.346784
-0.34412
-0.341503
-0.407386
-0.404929
-0.401758
-0.398072
-0.394065
-0.389936
-0.385819
-0.381801
-0.377931
-0.374223
-0.370664
-0.367218
-0.363838
-0.360473
-0.357079
-0.353624
-0.350092
-0.346472
-0.342828
-0.338924
-0.41515
-0.411966
-0.408254
-0.404154
-0.399822
-0.395443
-0.391129
-0.386927
-0.382843
-0.378856
-0.374922
-0.37099
-0.367008
-0.362937
-0.358752
-0.354443
-0.350019
-0.345491
-0.340928
-0.336093
-0.423778
-0.419806
-0.415506
-0.410955
-0.406257
-0.401583
-0.397006
-0.39253
-0.388116
-0.383704
-0.379231
-0.374639
-0.369891
-0.364968
-0.359877
-0.354642
-0.349299
-0.34389
-0.338485
-0.332907
-0.433273
-0.42846
-0.423538
-0.418506
-0.413405
-0.408379
-0.403457
-0.39859
-0.393694
-0.388682
-0.383483
-0.378052
-0.372377
-0.366479
-0.360402
-0.354204
-0.347949
-0.341702
-0.335532
-0.329334
-0.443638
-0.43794
-0.432371
-0.426835
-0.421291
-0.415843
-0.410467
-0.405057
-0.399496
-0.393683
-0.38756
-0.381114
-0.374376
-0.36741
-0.360298
-0.353129
-0.345987
-0.338948
-0.332072
-0.325304
-0.454865
-0.448246
-0.442015
-0.435954
-0.429919
-0.423956
-0.417983
-0.411846
-0.405408
-0.39858
-0.391339
-0.383723
-0.375813
-0.36772
-0.359556
-0.351432
-0.343438
-0.33565
-0.328115
-0.320803
-0.466928
-0.459359
-0.452458
-0.445849
-0.439255
-0.432657
-0.42591
-0.418831
-0.411286
-0.403229
-0.394695
-0.385783
-0.376631
-0.367383
-0.358178
-0.349129
-0.340326
-0.33183
-0.323674
-0.315832
-0.479767
-0.471234
-0.463658
-0.456469
-0.449226
-0.441836
-0.434106
-0.425846
-0.416963
-0.40748
-0.397508
-0.387214
-0.376782
-0.366385
-0.356168
-0.346238
-0.33667
-0.32751
-0.318765
-0.31041
-0.49329
-0.48379
-0.475538
-0.467719
-0.459707
-0.451334
-0.442383
-0.432696
-0.422256
-0.411178
-0.399663
-0.38794
-0.376228
-0.364712
-0.353527
-0.342767
-0.332483
-0.322701
-0.313401
-0.304556
-0.507359
-0.496908
-0.487973
-0.479455
-0.470522
-0.460944
-0.450519
-0.439164
-0.426973
-0.414176
-0.401057
-0.387896
-0.374933
-0.362345
-0.35025
-0.338714
-0.327766
-0.317405
-0.307586
-0.298285
-0.521795
-0.510421
-0.500795
-0.491482
-0.481443
-0.470416
-0.458261
-0.445019
-0.430926
-0.416329
-0.401588
-0.387017
-0.372855
-0.359258
-0.346316
-0.334064
-0.322504
-0.311612
-0.301313
-0.291596
-0.536371
-0.524121
-0.513784
-0.503555
-0.492197
-0.479463
-0.465336
-0.450026
-0.433928
-0.4175
-0.401162
-0.385237
-0.369946
-0.355414
-0.341694
-0.328789
-0.316673
-0.305299
-0.294563
-0.284479
-0.550817
-0.53775
-0.526671
-0.515378
-0.50247
-0.487776
-0.471468
-0.453957
-0.435804
-0.417564
-0.399687
-0.382489
-0.366154
-0.350767
-0.336343
-0.32285
-0.310237
-0.298433
-0.287308
-0.276912
-0.564821
-0.55101
-0.539147
-0.526624
-0.511929
-0.495049
-0.476395
-0.456609
-0.436406
-0.416412
-0.397087
-0.378712
-0.361428
-0.345273
-0.330221
-0.316208
-0.30316
-0.290982
-0.279518
-0.268868
-0.578037
-0.563566
-0.550863
-0.536928
-0.520222
-0.500962
-0.479857
-0.45778
-0.435583
-0.413934
-0.393272
-0.373833
-0.355704
-0.338872
-0.323273
-0.308813
-0.295394
-0.282902
-0.271153
-0.260311
-0.590088
-0.575045
-0.561433
-0.545899
-0.526971
-0.505188
-0.481582
-0.457258
-0.433169
-0.409995
-0.388131
-0.367754
-0.348892
-0.331483
-0.315423
-0.300592
-0.286874
-0.274131
-0.262159
-0.251191
-0.705515
-0.690429
-0.675349
-0.656628
-0.633161
-0.606053
-0.576853
-0.547019
-0.517691
-0.489616
-0.463191
-0.438566
-0.415732
-0.394597
-0.375029
-0.356887
-0.340038
-0.324325
-0.309537
-0.295916
-0.698415
-0.683847
-0.669823
-0.652927
-0.631837
-0.60726
-0.580409
-0.552548
-0.524761
-0.497823
-0.472204
-0.448125
-0.425645
-0.404724
-0.385268
-0.367161
-0.350291
-0.334522
-0.319665
-0.305881
-0.689747
-0.675777
-0.662745
-0.647534
-0.628701
-0.606619
-0.582173
-0.556408
-0.530316
-0.504672
-0.479998
-0.456585
-0.434557
-0.413928
-0.394646
-0.376628
-0.35978
-0.343992
-0.3291
-0.315194
-0.679864
-0.666565
-0.654463
-0.640777
-0.624039
-0.604356
-0.582311
-0.558718
-0.534443
-0.510234
-0.486638
-0.464006
-0.442525
-0.422264
-0.403217
-0.385335
-0.368549
-0.352774
-0.337873
-0.323882
-0.669102
-0.656542
-0.645314
-0.632993
-0.618162
-0.600736
-0.581036
-0.559643
-0.537275
-0.514617
-0.492222
-0.470482
-0.449639
-0.429818
-0.411062
-0.393359
-0.376668
-0.36093
-0.346038
-0.331989
-0.657774
-0.646011
-0.635611
-0.624506
-0.611388
-0.596048
-0.578591
-0.559381
-0.53897
-0.517955
-0.496866
-0.476118
-0.456
-0.436688
-0.418273
-0.400785
-0.384214
-0.368529
-0.353657
-0.339566
-0.64616
-0.635239
-0.625629
-0.615605
-0.604006
-0.590559
-0.575206
-0.558117
-0.539676
-0.520366
-0.500672
-0.481009
-0.461698
-0.44296
-0.424933
-0.407691
-0.391259
-0.375635
-0.360781
-0.346657
-0.634504
-0.624456
-0.615603
-0.606542
-0.596279
-0.584525
-0.571109
-0.556042
-0.539543
-0.521972
-0.503741
-0.485243
-0.466815
-0.448714
-0.431121
-0.414153
-0.397872
-0.38231
-0.367466
-0.353302
-0.623016
-0.613855
-0.605732
-0.597533
-0.58844
-0.578182
-0.566522
-0.553347
-0.538729
-0.522897
-0.506173
-0.488909
-0.471434
-0.454029
-0.436914
-0.420244
-0.404124
-0.388618
-0.373763
-0.359542
-0.611868
-0.603591
-0.596171
-0.588751
-0.580686
-0.57174
-0.561652
-0.55022
-0.537391
-0.523268
-0.508072
-0.492091
-0.475631
-0.45898
-0.442384
-0.426036
-0.410081
-0.394619
-0.379723
-0.365414
-0.601197
-0.593781
-0.587038
-0.580332
-0.573173
-0.56538
-0.556687
-0.54684
-0.535687
-0.523215
-0.509541
-0.494874
-0.479478
-0.463632
-0.447596
-0.431594
-0.415808
-0.400372
-0.3854
-0.370956
-0.591107
-0.584513
-0.578418
-0.572371
-0.566023
-0.559244
-0.551788
-0.543369
-0.533765
-0.522864
-0.51068
-0.497337
-0.483041
-0.468044
-0.452607
-0.436974
-0.421359
-0.405934
-0.390843
-0.376209
-0.581669
-0.575842
-0.570362
-0.564933
-0.55932
-0.553445
-0.547086
-0.53995
-0.531763
-0.522336
-0.511588
-0.499556
-0.486377
-0.472263
-0.457459
-0.44222
-0.426783
-0.411354
-0.396108
-0.381227
-0.572927
-0.567795
-0.562896
-0.558051
-0.553119
-0.548063
-0.542687
-0.536701
-0.529804
-0.521743
-0.512357
-0.501601
-0.489538
-0.476324
-0.462181
-0.447359
-0.432112
-0.41667
-0.401241
-0.386069
-0.564887
-0.560371
-0.556019
-0.551735
-0.547446
-0.543145
-0.538662
-0.533716
-0.527987
-0.52118
-0.513071
-0.503534
-0.492562
-0.480251
-0.466783
-0.452395
-0.437349
-0.421901
-0.406284
-0.390823
-0.557524
-0.553542
-0.549705
-0.545967
-0.542299
-0.538712
-0.535055
-0.531056
-0.526388
-0.520726
-0.513795
-0.505405
-0.495478
-0.484047
-0.47125
-0.4573
-0.442462
-0.427014
-0.411222
-0.395522
-0.550775
-0.547248
-0.543899
-0.540701
-0.537646
-0.534751
-0.531872
-0.528747
-0.525047
-0.520427
-0.514575
-0.507246
-0.498298
-0.487702
-0.475544
-0.462009
-0.447361
-0.431908
-0.415977
-0.400236
-0.544538
-0.5414
-0.538519
-0.535864
-0.533424
-0.53121
-0.52908
-0.526775
-0.523964
-0.520293
-0.515421
-0.509061
-0.501014
-0.491187
-0.479611
-0.46643
-0.4519
-0.436362
-0.420256
-0.404661
-0.538676
-0.535879
-0.533456
-0.531352
-0.529535
-0.528
-0.526599
-0.525071
-0.523087
-0.520283
-0.516302
-0.510821
-0.503591
-0.494458
-0.483384
-0.470458
-0.455894
-0.440033
-0.423499
-0.408376
-0.533023
-0.530545
-0.528579
-0.527032
-0.525846
-0.52499
-0.524302
-0.523518
-0.522305
-0.520299
-0.517128
-0.512446
-0.50596
-0.497455
-0.486818
-0.474052
-0.459282
-0.442707
-0.424867
-0.409266
-0.527398
-0.525243
-0.523738
-0.522754
-0.522199
-0.522014
-0.522019
-0.521942
-0.521451
-0.52018
-0.51775
-0.513798
-0.507998
-0.500081
-0.489851
-0.477199
-0.462087
-0.444393
-0.423546
-0.401344
-0.521616
-0.519816
-0.518781
-0.518355
-0.51842
-0.518883
-0.519548
-0.520134
-0.52031
-0.519709
-0.517956
-0.514679
-0.509531
-0.502214
-0.492486
-0.480182
-0.465236
-0.447581
-0.426791
-0.404661
-0.515512
-0.514118
-0.513561
-0.513678
-0.51433
-0.515399
-0.516671
-0.51786
-0.518634
-0.518634
-0.517487
-0.514825
-0.510299
-0.503597
-0.494465
-0.48273
-0.46833
-0.451214
-0.431037
-0.410012
-0.50895
-0.508028
-0.507953
-0.50858
-0.509768
-0.511377
-0.513179
-0.514887
-0.516173
-0.516686
-0.516062
-0.513939
-0.509974
-0.503855
-0.495326
-0.48421
-0.470441
-0.453913
-0.434321
-0.414527
-0.501844
-0.501463
-0.501864
-0.502952
-0.504604
-0.506662
-0.508895
-0.511016
-0.512707
-0.513625
-0.513419
-0.511739
-0.508251
-0.502651
-0.494685
-0.484188
-0.471096
-0.455265
-0.436484
-0.418144
-0.494168
-0.494388
-0.495246
-0.496729
-0.498752
-0.501152
-0.503696
-0.506107
-0.508076
-0.509275
-0.509369
-0.508022
-0.504914
-0.499757
-0.492314
-0.482442
-0.470096
-0.455126
-0.437457
-0.420777
-0.48596
-0.486821
-0.488102
-0.489903
-0.492193
-0.494812
-0.497537
-0.500102
-0.502216
-0.503566
-0.503835
-0.502707
-0.499885
-0.495102
-0.488151
-0.478926
-0.467412
-0.453478
-0.437199
-0.422327
-0.477321
-0.478835
-0.480492
-0.482523
-0.484971
-0.487687
-0.490462
-0.49305
-0.495177
-0.496553
-0.496881
-0.495873
-0.493258
-0.488803
-0.482341
-0.473809
-0.463234
-0.450518
-0.435864
-0.422885
-0.468412
-0.470558
-0.47253
-0.474702
-0.477203
-0.479901
-0.482608
-0.4851
-0.487128
-0.488424
-0.488721
-0.48776
-0.485307
-0.481169
-0.475224
-0.467461
-0.457942
-0.446606
-0.433741
-0.422664
-0.459432
-0.462156
-0.464371
-0.466601
-0.46906
-0.471643
-0.474185
-0.47649
-0.478334
-0.47948
-0.47969
-0.478743
-0.476444
-0.472646
-0.467274
-0.460362
-0.451999
-0.442154
-0.431146
-0.42191
-0.450609
-0.45382
-0.456203
-0.458415
-0.460756
-0.463149
-0.465459
-0.467516
-0.469127
-0.470086
-0.470193
-0.469262
-0.467142
-0.46373
-0.458994
-0.453
-0.445852
-0.437534
-0.428351
-0.42084
-0.442166
-0.445751
-0.448222
-0.450354
-0.45252
-0.454674
-0.456709
-0.45849
-0.459853
-0.460625
-0.460642
-0.459757
-0.45786
-0.454885
-0.450833
-0.445789
-0.439859
-0.433026
-0.425552
-0.419615
-0.434308
-0.438132
-0.440616
-0.442617
-0.444568
-0.446456
-0.448204
-0.449706
-0.450831
-0.451439
-0.451399
-0.450603
-0.448973
-0.446473
-0.443128
-0.439025
-0.434262
-0.42881
-0.422876
-0.418345
-0.427199
-0.431119
-0.433542
-0.435373
-0.437088
-0.438701
-0.440166
-0.441405
-0.442318
-0.442797
-0.442742
-0.442074
-0.440743
-0.438737
-0.436086
-0.432877
-0.429189
-0.424977
-0.42039
-0.417097
-0.42095
-0.424819
-0.427115
-0.428748
-0.430216
-0.431558
-0.432755
-0.433758
-0.434493
-0.434878
-0.434843
-0.434333
-0.433318
-0.431796
-0.429801
-0.42741
-0.424683
-0.421553
-0.418122
-0.415906
-0.41561
-0.419292
-0.4214
-0.422816
-0.424034
-0.425116
-0.426066
-0.42686
-0.427447
-0.427771
-0.427782
-0.427443
-0.426738
-0.425672
-0.424275
-0.42261
-0.420721
-0.418521
-0.416067
-0.414783
-0.41117
-0.414542
-0.416413
-0.417596
-0.418567
-0.419402
-0.420127
-0.420736
-0.421202
-0.421485
-0.421554
-0.421385
-0.42097
-0.420316
-0.419447
-0.418413
-0.417242
-0.415832
-0.4142
-0.413718
-0.407568
-0.410529
-0.412121
-0.413063
-0.41379
-0.414392
-0.41491
-0.415354
-0.415714
-0.415968
-0.416095
-0.416082
-0.415925
-0.415631
-0.415217
-0.414721
-0.414159
-0.413416
-0.412476
-0.412681
-0.404699
-0.407172
-0.408456
-0.409151
-0.409641
-0.410021
-0.410345
-0.410638
-0.410902
-0.411126
-0.411301
-0.411421
-0.411484
-0.411494
-0.411464
-0.411421
-0.411372
-0.411192
-0.410835
-0.411628
-0.402433
-0.404369
-0.405323
-0.405769
-0.406028
-0.406196
-0.406337
-0.406485
-0.406652
-0.406841
-0.407047
-0.40727
-0.407511
-0.407771
-0.408058
-0.408391
-0.408772
-0.409069
-0.409209
-0.410504
-0.463016
-0.460456
-0.377559
-0.154972
-0.0591478
-0.135696
-0.109957
-0.0796362
-0.0711578
-0.111817
-0.10897
-0.0954794
-0.0521485
-0.0659078
-0.0864004
-0.087137
-0.0402465
-0.0383698
-0.0295351
-0.0260472
-0.46779
-0.468566
-0.378749
-0.153658
-0.0553389
-0.134978
-0.110956
-0.078131
-0.0687738
-0.109034
-0.10641
-0.0940028
-0.0532247
-0.0674228
-0.089308
-0.0894258
-0.0405319
-0.038316
-0.0283305
-0.0248243
-0.471625
-0.476046
-0.378954
-0.152297
-0.0525786
-0.134029
-0.111866
-0.0764902
-0.0662923
-0.106211
-0.103808
-0.0924396
-0.0542093
-0.0688364
-0.0921385
-0.0916583
-0.0407861
-0.0381801
-0.0270926
-0.0235816
-0.474463
-0.482882
-0.378353
-0.150924
-0.0507448
-0.132806
-0.112686
-0.0747417
-0.0637335
-0.103372
-0.101173
-0.0907991
-0.0550933
-0.0701362
-0.0948723
-0.0938186
-0.0410088
-0.0379641
-0.0258291
-0.0223261
-0.47625
-0.489025
-0.377122
-0.149563
-0.0496679
-0.131264
-0.113412
-0.0729152
-0.0611205
-0.100537
-0.0985181
-0.0890901
-0.0558687
-0.0713101
-0.0974891
-0.0958901
-0.0412004
-0.03767
-0.024548
-0.0210647
-0.476942
-0.494397
-0.375427
-0.148232
-0.049154
-0.129357
-0.114037
-0.0710411
-0.0584793
-0.0977272
-0.095852
-0.0873212
-0.0565286
-0.0723461
-0.0999688
-0.0978565
-0.0413615
-0.0373003
-0.0232561
-0.0198041
-0.476511
-0.498906
-0.373423
-0.14695
-0.0490049
-0.127043
-0.114545
-0.0691502
-0.055839
-0.0949587
-0.0931843
-0.0855003
-0.0570676
-0.0732331
-0.102291
-0.0997001
-0.0414924
-0.0368575
-0.0219615
-0.0185508
-0.474953
-0.502459
-0.371247
-0.145738
-0.0490342
-0.124283
-0.11492
-0.0672726
-0.0532306
-0.0922475
-0.0905236
-0.0836349
-0.0574813
-0.0739609
-0.104437
-0.101404
-0.0415941
-0.0363442
-0.0206715
-0.0173109
-0.472298
-0.50497
-0.369014
-0.14462
-0.0490792
-0.121052
-0.115139
-0.0654364
-0.0506855
-0.0896074
-0.0878778
-0.0817319
-0.0577675
-0.0745205
-0.106387
-0.10295
-0.0416676
-0.0357632
-0.0193929
-0.0160903
-0.468612
-0.506367
-0.366813
-0.143621
-0.0490069
-0.11734
-0.115177
-0.0636669
-0.0482348
-0.0870508
-0.0852541
-0.0797987
-0.0579256
-0.0749046
-0.108125
-0.104321
-0.0417143
-0.0351173
-0.0181324
-0.0148943
-0.464003
-0.506603
-0.36471
-0.142768
-0.0487198
-0.113154
-0.115005
-0.0619856
-0.0459087
-0.0845882
-0.0826591
-0.0778436
-0.0579573
-0.0751077
-0.109636
-0.105503
-0.0417356
-0.0344092
-0.0168965
-0.0137282
-0.45862
-0.505663
-0.36277
-0.142111
-0.0481622
-0.108531
-0.114591
-0.0604093
-0.043735
-0.0822282
-0.0800984
-0.0758742
-0.0578665
-0.0751264
-0.110907
-0.10648
-0.041733
-0.0336418
-0.015691
-0.0125968
-0.452636
-0.503578
-0.361093
-0.141754
-0.0473236
-0.103531
-0.113902
-0.0589498
-0.0417385
-0.0799774
-0.0775776
-0.0738911
-0.0576562
-0.0749585
-0.111928
-0.107238
-0.0417085
-0.0328178
-0.0145215
-0.0115046
-0.446231
-0.500383
-0.359728
-0.141807
-0.0462188
-0.0982323
-0.112903
-0.0576129
-0.0399398
-0.0778403
-0.0751012
-0.0718815
-0.0573256
-0.0746038
-0.112692
-0.107767
-0.0416638
-0.03194
-0.013393
-0.0104554
-0.439563
-0.496058
-0.35842
-0.14213
-0.0448319
-0.0927191
-0.11156
-0.0563983
-0.0383559
-0.0758226
-0.0726713
-0.0698411
-0.0568768
-0.0740693
-0.113191
-0.108056
-0.0416008
-0.0310112
-0.0123101
-0.00945261
-0.432758
-0.490619
-0.356646
-0.142168
-0.0430933
-0.0870644
-0.109837
-0.0552989
-0.0369999
-0.0739332
-0.0702879
-0.0678489
-0.0563444
-0.0733721
-0.113426
-0.108098
-0.0415215
-0.030034
-0.0112771
-0.00849929
-0.425903
-0.484609
-0.35491
-0.141841
-0.0410697
-0.0813923
-0.107694
-0.0542999
-0.0358753
-0.0721564
-0.0679576
-0.0661028
-0.0558136
-0.0725148
-0.113412
-0.107892
-0.0414277
-0.0290112
-0.0102976
-0.00760202
-0.418842
-0.479135
-0.356309
-0.143619
-0.0393362
-0.075926
-0.105104
-0.0533809
-0.0349422
-0.0703976
-0.065703
-0.0646054
-0.0552952
-0.0714268
-0.11317
-0.107441
-0.0413206
-0.0279458
-0.0093764
-0.00677313
-0.410647
-0.473257
-0.362374
-0.151249
-0.038654
-0.0703509
-0.102072
-0.0525199
-0.0341586
-0.0686367
-0.0635181
-0.0623693
-0.0544003
-0.0700323
-0.112631
-0.106761
-0.0412047
-0.02684
-0.00852018
-0.00600491
-0.400775
-0.460755
-0.360732
-0.158624
-0.0377476
-0.062817
-0.0980421
-0.0518069
-0.0341622
-0.0675937
-0.0612479
-0.0575718
-0.052411
-0.0687071
-0.111555
-0.10576
-0.041099
-0.0256928
-0.00770828
-0.00520073
-0.341302
-0.368131
-0.297032
-0.163717
-0.0272137
-0.00718465
-0.0527445
-0.0453384
-0.0470041
-0.0686952
-0.0478818
-0.0229952
-0.0369257
-0.0622279
-0.102049
-0.0961872
-0.0410639
-0.018963
-0.00275207
-7.12607e-05
-0.255076
-0.259548
-0.192487
-0.0920042
0.00916417
0.0159261
-0.0148723
-0.0180639
-0.0471729
-0.0646801
-0.0378196
-0.00565114
-0.0053268
-0.0286884
-0.0688523
-0.0689442
-0.0263229
-0.00860823
0.00317927
0.00205293
-0.181361
-0.171584
-0.134448
-0.0694626
0.0254895
0.0383023
0.0125851
0.0019159
-0.0269537
-0.034629
-0.020881
-0.00553332
0.00473852
-0.00268085
-0.0266716
-0.0295912
-0.00897882
-6.94755e-05
0.00315712
0.00103726
-0.124246
-0.123536
-0.0991963
-0.0472112
0.0248925
0.04283
0.0200538
0.0061493
-0.00973095
-0.0121458
-0.00230507
0.0105073
0.0166046
0.0123946
0.00590831
0.0012105
0.00220843
0.00295276
-0.000913182
0.00120631
-0.0885228
-0.0907078
-0.0714648
-0.0312838
0.0199443
0.0327186
0.012705
0.0109432
0.011431
0.0048594
0.00210858
0.0112481
0.0211869
0.0238636
0.0256141
0.0184865
0.00902951
0.00558439
-0.000761568
0.000373339
-0.0630852
-0.0641561
-0.0492737
-0.0239611
0.00755674
0.0218606
0.0165083
0.0162229
0.0136009
0.00781909
0.00870694
0.0180117
0.0231759
0.0247294
0.0275131
0.0224765
0.0120635
0.00628263
0.0003804
0.000160671
-0.0435636
-0.0447476
-0.037143
-0.0214594
0.00302455
0.0196421
0.0160185
0.0122668
0.0141771
0.0138607
0.0131872
0.0190017
0.0222179
0.0223494
0.0240369
0.0213467
0.0133349
0.00811766
0.00248986
-2.21944e-05
-0.0298781
-0.0324381
-0.0279383
-0.0153649
0.00256104
0.0139215
0.0116912
0.01156
0.0164529
0.0163366
0.0137747
0.0176706
0.0204862
0.0200166
0.0210251
0.0198583
0.0136525
0.00813057
0.00321115
0.000569662
-0.020228
-0.0227599
-0.019088
-0.0104651
0.000361542
0.00897633
0.0110303
0.0126667
0.0159461
0.015466
0.0133288
0.0166298
0.0196289
0.0185271
0.0181008
0.0172466
0.0125
0.00783949
0.0041085
0.00115863
-0.0127562
-0.0148453
-0.0127293
-0.00766344
-0.000128027
0.00790601
0.011059
0.0115185
0.0136341
0.0148181
0.0141001
0.0160912
0.0180519
0.0163719
0.0152635
0.0150711
0.0118419
0.00774553
0.00433091
0.00129297
-0.00693711
-0.00900195
-0.00820025
-0.00456355
0.00136027
0.00727313
0.00945968
0.0101008
0.0129232
0.0150474
0.014134
0.0144135
0.0159261
0.0149708
0.0137523
0.0135611
0.0109308
0.00706811
0.00413032
0.0014332
-0.00248909
-0.00451396
-0.00414142
-0.00139203
0.00244659
0.00620383
0.00855369
0.0102321
0.0126396
0.0140037
0.013091
0.0131903
0.0148473
0.0142504
0.0124215
0.0118021
0.00977418
0.00656046
0.00405948
0.00148785
0.00108084
-0.000722933
-0.000679247
0.000876653
0.00319861
0.00616832
0.00871228
0.0101362
0.011475
0.0127116
0.0127528
0.012868
0.0138175
0.0130311
0.0110681
0.0104523
0.0091
0.00633287
0.0038083
0.0013294
0.00409104
0.00240445
0.00196452
0.00268835
0.00438074
0.00670289
0.00853945
0.00950668
0.0107367
0.0122737
0.0126011
0.0121549
0.0124318
0.0119966
0.0104264
0.00966804
0.00845669
0.00586271
0.00342382
0.0012269
0.00668274
0.00493411
0.00414604
0.00442788
0.00552883
0.00696669
0.008256
0.00935602
0.0106233
0.0117886
0.0118944
0.0113612
0.0115996
0.0114969
0.0100147
0.00884391
0.00763051
0.00542581
0.00324906
0.00119164
0.00897496
0.00707461
0.00602417
0.00585355
0.00632254
0.00723999
0.00839701
0.00945829
0.0103127
0.0110458
0.0113349
0.0111183
0.0111404
0.0108564
0.0094254
0.00815342
0.00710542
0.00524516
0.00310896
0.00107098
0.011104
0.00889548
0.00751119
0.00691695
0.00701414
0.00769686
0.00860951
0.00935319
0.00994871
0.0106395
0.0111228
0.0109311
0.0105653
0.0101792
0.00905514
0.00782172
0.0067767
0.00503719
0.00291102
0.000965097
0.0130347
0.0103506
0.0086109
0.00775972
0.00765459
0.00807049
0.00866214
0.00925884
0.00988158
0.0104967
0.0108253
0.0105592
0.0101411
0.00987314
0.00894082
0.00754849
0.0063484
0.00480115
0.002848
0.000940985
0.014644
0.0113988
0.00937743
0.00837271
0.00809252
0.00829856
0.00874752
0.00930641
0.00987059
0.0103126
0.0105483
0.0103771
0.00997944
0.00968231
0.00879426
0.0073144
0.00606932
0.00469408
0.00283471
0.000912558
0.0156663
0.0119715
0.00978994
0.00868661
0.0082949
0.00844523
0.0088851
0.00935614
0.00977079
0.0101544
0.0105006
0.0104317
0.0098898
0.00944273
0.00864091
0.0072685
0.00606637
0.00466601
0.00275306
0.000870276
-0.185671
-0.194524
-0.20333
-0.212154
-0.221076
-0.230177
-0.239545
-0.249282
-0.25949
-0.270281
-0.281747
-0.293984
-0.306985
-0.320741
-0.334877
-0.349144
-0.362255
-0.374123
-0.382042
-0.389651
-0.117085
-0.120954
-0.12464
-0.128139
-0.131451
-0.134568
-0.137483
-0.140184
-0.142659
-0.144899
-0.146892
-0.148644
-0.150159
-0.151506
-0.152753
-0.154167
-0.155973
-0.158955
-0.163752
-0.172741
-0.0725296
-0.0759678
-0.079411
-0.0828678
-0.0863486
-0.0898633
-0.0934231
-0.0970401
-0.100727
-0.104499
-0.108369
-0.112351
-0.116452
-0.120677
-0.125012
-0.129428
-0.133863
-0.138239
-0.142523
-0.14681
-0.05124
-0.0535248
-0.0557762
-0.0579965
-0.0601884
-0.0623539
-0.0644947
-0.0666127
-0.0687092
-0.0707856
-0.0728432
-0.0748833
-0.0769084
-0.0789222
-0.0809349
-0.0829597
-0.0850401
-0.087227
-0.089732
-0.0928381
-0.0336045
-0.0352565
-0.0369075
-0.0385598
-0.0402157
-0.0418774
-0.0435472
-0.0452273
-0.0469202
-0.0486282
-0.0503537
-0.0520989
-0.0538661
-0.0556564
-0.0574728
-0.0593117
-0.0611844
-0.0630755
-0.0650746
-0.0671956
-0.0229158
-0.024165
-0.0254118
-0.0266571
-0.0279014
-0.0291457
-0.0303909
-0.0316381
-0.0328885
-0.0341433
-0.0354037
-0.036671
-0.0379469
-0.0392326
-0.0405311
-0.0418428
-0.0431783
-0.0445374
-0.0459828
-0.0475521
-0.0142845
-0.0152137
-0.0161421
-0.01707
-0.017998
-0.0189265
-0.0198563
-0.020788
-0.0217224
-0.0226603
-0.0236024
-0.0245495
-0.0255025
-0.0264621
-0.0274297
-0.0284055
-0.0293946
-0.030397
-0.0314479
-0.0325785
-0.00812675
-0.00885526
-0.00958267
-0.0103092
-0.0110348
-0.0117597
-0.0124842
-0.0132087
-0.0139334
-0.0146586
-0.0153846
-0.0161117
-0.0168404
-0.0175707
-0.0183034
-0.0190386
-0.0197786
-0.0205241
-0.0212947
-0.0221142
-0.00329005
-0.00386271
-0.00443435
-0.00500515
-0.00557512
-0.0061445
-0.00671358
-0.00728266
-0.00785202
-0.00842196
-0.00899275
-0.00956468
-0.010138
-0.0107131
-0.0112902
-0.0118695
-0.0124525
-0.0130398
-0.0136432
-0.0142811
0.000411341
-4.3118e-05
-0.00049637
-0.000948541
-0.00139961
-0.00184975
-0.00229915
-0.002748
-0.00319647
-0.00364473
-0.00409295
-0.0045413
-0.00498996
-0.0054391
-0.00588896
-0.00633969
-0.00679214
-0.00724707
-0.00771231
-0.00820212
0.00334442
0.00298662
0.00262977
0.00227375
0.00191861
0.00156423
0.00121047
0.000857219
0.000504382
0.000151873
-0.000200386
-0.000552465
-0.000904432
-0.00125634
-0.00160828
-0.00196028
-0.00231287
-0.00266636
-0.00302659
-0.00340302
0.00568222
0.00540172
0.00512148
0.00484137
0.00456143
0.00428156
0.00400166
0.00372168
0.00344158
0.00316134
0.00288094
0.00260039
0.0023197
0.00203889
0.00175796
0.001477
0.00119565
0.000913949
0.000627331
0.000330212
0.00766516
0.00744987
0.00723373
0.00701665
0.00679866
0.00657964
0.00635956
0.00613839
0.00591615
0.00569285
0.00546852
0.00524323
0.00501702
0.00478996
0.00456212
0.00433361
0.00410421
0.0038741
0.00363963
0.00339735
0.00942167
0.00926077
0.0090975
0.00893182
0.00876381
0.00859346
0.0084208
0.00824591
0.00806889
0.00788985
0.00770892
0.00752626
0.00734201
0.00715633
0.00696939
0.00678139
0.00659223
0.00640223
0.00620845
0.00600862
0.0112228
0.0111073
0.010987
0.0108619
0.0107323
0.0105982
0.0104599
0.0103176
0.0101715
0.0100218
0.0098689
0.009713
0.00955438
0.00939334
0.00923014
0.0090651
0.00889826
0.00873005
0.00855812
0.00838114
0.0131195
0.0130352
0.0129427
0.0128425
0.0127351
0.0126208
0.0125003
0.0123738
0.012242
0.0121053
0.0119642
0.0118191
0.0116705
0.0115189
0.0113647
0.0112082
0.0110498
0.0108898
0.0107266
0.0105593
0.015778
0.0156861
0.0155822
0.0154674
0.0153427
0.0152091
0.0150675
0.0149187
0.0147636
0.0146031
0.0144377
0.0142683
0.0140954
0.0139196
0.0137416
0.0135619
0.0133807
0.0131987
0.0130144
0.0128275
0.0191084
0.0189433
0.0187664
0.0185792
0.0183834
0.01818
0.0179704
0.0177555
0.0175363
0.0173138
0.0170887
0.0168618
0.0166337
0.0164051
0.0161765
0.0159483
0.0157209
0.0154948
0.015269
0.0150434
0.0240658
0.023637
0.0232144
0.0227987
0.02239
0.0219887
0.0215948
0.0212086
0.0208301
0.0204594
0.0200966
0.0197417
0.0193946
0.0190554
0.0187239
0.0184002
0.0180841
0.0177757
0.0174737
0.0171786
0.0294411
0.0286581
0.0279091
0.0271922
0.0265057
0.0258479
0.0252173
0.0246123
0.0240315
0.0234737
0.0229375
0.0224218
0.0219256
0.0214478
0.0209874
0.0205437
0.0201156
0.0197026
0.0193029
0.0189172
0.0249749
0.0242067
0.023473
0.0227718
0.0221012
0.0214594
0.0208448
0.020256
0.0196914
0.0191498
0.01863
0.0181307
0.017651
0.0171896
0.0167458
0.0163186
0.015907
0.0155106
0.0151274
0.0147586
0.0195585
0.0191473
0.0187425
0.0183446
0.0179536
0.01757
0.0171938
0.0168252
0.0164644
0.0161114
0.0157662
0.0154288
0.0150993
0.0147776
0.0144636
0.0141573
0.0138585
0.0135674
0.0132824
0.0130048
0.0145593
0.0144135
0.0142559
0.0140883
0.0139117
0.0137277
0.0135372
0.0133415
0.0131414
0.0129379
0.0127317
0.0125237
0.0123144
0.0121044
0.0118944
0.0116847
0.0114756
0.0112678
0.0110597
0.0108527
0.0111901
0.0111187
0.0110354
0.0109413
0.0108371
0.010724
0.0106028
0.0104744
0.0103397
0.0101994
0.0100543
0.00990507
0.00975228
0.00959659
0.0094385
0.00927861
0.0091171
0.00895488