/*--------------------------------*- C++ -*----------------------------------*\
  =========                 |
  \\      /  F ield         | OpenFOAM: The Open Source CFD Toolbox
   \\    /   O peration     | Website:  https://openfoam.org
    \\  /    A nd           | Version:  6.0
     \\/     M anipulation  |
\*---------------------------------------------------------------------------*/
FoamFile
{
    version     2.0;
    format      ascii;
    class       volScalarField;
    location    "12";
    object      p;
}
// * * * * * * * * * * * * * * * * * * * * * * * * * * * * * * * * * * * * * //

dimensions      [0 2 -2 0 0 0 0];

internalField   nonuniform List<scalar> 
4000
(
-0.504284
-0.49004
-0.47723
-0.462845
-0.445678
-0.42631
-0.405668
-0.384678
-0.364111
-0.344499
-0.32614
-0.309149
-0.293525
-0.279198
-0.266064
-0.25401
-0.242927
-0.232685
-0.22308
-0.214416
-0.512047
-0.497379
-0.483698
-0.46776
-0.448527
-0.42691
-0.404124
-0.381263
-0.359157
-0.338322
-0.319007
-0.301273
-0.285067
-0.270282
-0.256782
-0.244435
-0.233116
-0.222674
-0.212893
-0.204152
-0.517839
-0.502845
-0.488236
-0.470619
-0.449228
-0.425354
-0.4005
-0.375902
-0.352416
-0.330519
-0.310399
-0.292056
-0.27539
-0.260252
-0.246484
-0.233931
-0.222457
-0.21189
-0.202002
-0.193259
-0.521287
-0.506064
-0.490478
-0.471085
-0.447498
-0.421424
-0.394635
-0.368475
-0.343794
-0.321014
-0.30025
-0.281442
-0.26444
-0.249063
-0.235125
-0.222459
-0.210915
-0.200301
-0.190381
-0.18171
-0.522033
-0.506677
-0.490077
-0.468853
-0.443093
-0.414936
-0.386394
-0.358883
-0.333217
-0.309744
-0.288507
-0.269381
-0.252175
-0.236674
-0.222673
-0.20999
-0.198464
-0.187882
-0.178009
-0.169486
-0.519749
-0.504353
-0.486717
-0.463655
-0.435808
-0.405743
-0.375675
-0.34705
-0.320624
-0.296659
-0.275123
-0.255833
-0.238556
-0.223052
-0.209097
-0.196497
-0.185082
-0.174618
-0.164872
-0.156577
-0.514138
-0.498795
-0.480128
-0.455271
-0.425484
-0.393737
-0.362404
-0.332923
-0.305972
-0.281722
-0.260065
-0.240767
-0.223558
-0.208175
-0.194379
-0.181967
-0.170756
-0.160498
-0.150966
-0.142976
-0.504953
-0.489753
-0.470089
-0.443535
-0.412009
-0.378849
-0.346538
-0.316473
-0.289237
-0.26491
-0.243314
-0.224166
-0.207166
-0.192031
-0.178509
-0.166391
-0.155484
-0.145524
-0.136292
-0.128687
-0.491997
-0.477031
-0.456435
-0.428333
-0.395318
-0.361047
-0.328062
-0.297691
-0.270414
-0.246219
-0.224863
-0.206024
-0.189374
-0.174615
-0.161487
-0.149772
-0.139271
-0.129703
-0.120864
-0.113722
-0.475135
-0.460493
-0.439062
-0.409609
-0.375394
-0.340338
-0.306993
-0.276595
-0.249516
-0.225658
-0.204721
-0.186347
-0.170189
-0.155937
-0.143321
-0.132122
-0.122132
-0.113055
-0.104705
-0.0981067
-0.45429
-0.440065
-0.417928
-0.387362
-0.352267
-0.316765
-0.283376
-0.253226
-0.226578
-0.203256
-0.182911
-0.165156
-0.149629
-0.13601
-0.124028
-0.113458
-0.104086
-0.0956077
-0.0878496
-0.0818832
-0.429454
-0.41574
-0.393056
-0.361648
-0.326012
-0.290408
-0.257285
-0.227647
-0.201654
-0.179058
-0.159469
-0.14248
-0.127718
-0.114859
-0.103629
-0.0938019
-0.0851584
-0.0773879
-0.0703348
-0.0650961
-0.400683
-0.387576
-0.364526
-0.332573
-0.296748
-0.261382
-0.228823
-0.19995
-0.17482
-0.153128
-0.134449
-0.118364
-0.104493
-0.0925126
-0.0821481
-0.0731747
-0.0653693
-0.058422
-0.0521935
-0.0477689
-0.368096
-0.355693
-0.332482
-0.300297
-0.264633
-0.229836
-0.198124
-0.170247
-0.146174
-0.125546
-0.107918
-0.0928598
-0.0799954
-0.069002
-0.0596101
-0.0515966
-0.0447393
-0.0387356
-0.0334495
-0.0298917
-0.331877
-0.320274
-0.29712
-0.265023
-0.229866
-0.19595
-0.165348
-0.138681
-0.115837
-0.0964158
-0.0799579
-0.066034
-0.0542724
-0.0443592
-0.0360333
-0.0290784
-0.0232792
-0.0183433
-0.014113
-0.0114646
-0.292265
-0.281559
-0.258688
-0.226999
-0.192681
-0.159939
-0.130685
-0.105418
-0.0839537
-0.0658611
-0.0506737
-0.0379678
-0.0273834
-0.0186208
-0.0114342
-0.00562028
-0.00097614
0.00277355
0.00580935
0.00737817
-0.249554
-0.239837
-0.217479
-0.186512
-0.153345
-0.122045
-0.0943539
-0.0706529
-0.050696
-0.0340304
-0.0201893
-0.00876072
0.000597909
0.00816376
0.0141592
0.0187714
0.0221863
0.0246226
0.0261948
0.026229
-0.204082
-0.195443
-0.173825
-0.14388
-0.112155
-0.0825393
-0.0566
-0.0346072
-0.0162622
-0.00109648
0.0113516
0.021478
0.0296008
0.0359639
0.0407547
0.0441391
0.0462613
0.0471612
0.0467192
0.0446425
-0.156229
-0.148753
-0.128093
-0.0994525
-0.0694341
-0.0417199
-0.0176973
0.0024662
0.0191158
0.0327324
0.0437731
0.0526198
0.0595671
0.0648237
0.0685398
0.0708495
0.0717803
0.0709687
0.0679364
0.0637084
-0.106409
-0.100169
-0.0806764
-0.0536001
-0.0255272
9.46935e-05
0.0220556
0.0402836
0.0551648
0.0671918
0.0768221
0.0844353
0.0903228
0.0946921
0.0977061
0.0995166
0.100023
0.0983629
0.0938251
0.0892561
-0.0550599
-0.050122
-0.0319871
-0.00670966
0.0192077
0.0425709
0.0623435
0.0785402
0.0915806
0.101966
0.110154
0.116528
0.121394
0.124999
0.127589
0.129445
0.130537
0.129868
0.127179
0.130858
-0.00262943
0.000948644
0.0175524
0.0408239
0.0644053
0.0853693
0.102846
0.116927
0.128057
0.136739
0.143423
0.148488
0.152237
0.154927
0.156825
0.158193
0.15902
0.158825
0.158518
0.164369
0.0504163
0.0525887
0.0675111
0.0886014
0.109699
0.128151
0.143246
0.155143
0.164303
0.171225
0.176351
0.180047
0.182611
0.1843
0.185366
0.186031
0.186277
0.185805
0.185538
0.190258
0.103609
0.104343
0.117459
0.136227
0.154727
0.170584
0.183236
0.192897
0.20004
0.205152
0.208661
0.210915
0.212201
0.21276
0.212827
0.212598
0.212068
0.211012
0.210186
0.213387
0.156483
0.155759
0.166972
0.183312
0.199136
0.212346
0.222519
0.229917
0.235015
0.238288
0.240141
0.240905
0.240846
0.240188
0.239137
0.237863
0.236347
0.234391
0.23269
0.234477
0.208581
0.206393
0.215635
0.229478
0.242585
0.25313
0.260816
0.265947
0.268995
0.270417
0.270598
0.269846
0.268406
0.266482
0.264259
0.261876
0.259301
0.256358
0.253707
0.254139
0.259454
0.255812
0.263045
0.274361
0.284746
0.292638
0.297861
0.300747
0.301764
0.30135
0.299865
0.297595
0.294766
0.291561
0.288141
0.284624
0.280966
0.277018
0.273414
0.272567
0.308673
0.3036
0.308817
0.317613
0.325306
0.330593
0.333401
0.334091
0.333121
0.330906
0.327786
0.324024
0.319825
0.315352
0.310749
0.306111
0.301391
0.296466
0.291933
0.28987
0.355824
0.34936
0.352584
0.3589
0.363969
0.366727
0.3672
0.365766
0.362874
0.358919
0.354215
0.349007
0.343478
0.337776
0.332025
0.326304
0.320565
0.314708
0.309287
0.306071
0.400517
0.392715
0.393997
0.397913
0.400456
0.400791
0.399032
0.395572
0.390846
0.385229
0.379014
0.372423
0.365625
0.35875
0.351905
0.345155
0.338454
0.331723
0.32546
0.321157
0.442383
0.433313
0.432733
0.434357
0.434505
0.432552
0.428687
0.423318
0.416866
0.409685
0.402047
0.394156
0.386163
0.378185
0.370313
0.3626
0.355004
0.347463
0.340413
0.335091
0.481082
0.470826
0.468491
0.467964
0.465874
0.46179
0.455971
0.44883
0.440777
0.432144
0.423186
0.41409
0.404991
0.395991
0.38717
0.37857
0.370153
0.361871
0.354091
0.347824
0.516301
0.504955
0.500994
0.498484
0.49434
0.488308
0.480702
0.471944
0.46243
0.452473
0.442312
0.432117
0.42201
0.41208
0.402396
0.392991
0.383833
0.374881
0.366435
0.359304
0.547757
0.535429
0.529996
0.525694
0.519704
0.511923
0.502717
0.492512
0.481689
0.470549
0.459312
0.448134
0.437126
0.426367
0.415913
0.405792
0.395975
0.386429
0.377388
0.36948
0.575199
0.562006
0.555274
0.549396
0.541786
0.532474
0.52187
0.510399
0.498435
0.486261
0.474084
0.462049
0.450256
0.438773
0.427648
0.416903
0.406516
0.396455
0.386891
0.378302
0.598407
0.584479
0.576637
0.569417
0.56043
0.54982
0.538031
0.52549
0.512558
0.49951
0.486538
0.473778
0.461321
0.449227
0.437535
0.426265
0.415396
0.404901
0.394894
0.385725
0.617197
0.602671
0.593923
0.585611
0.575506
0.563843
0.551093
0.537684
0.523969
0.510212
0.496597
0.48325
0.470255
0.457666
0.445517
0.433821
0.422565
0.411719
0.401351
0.391711
0.631422
0.616441
0.607004
0.59786
0.586907
0.574446
0.560968
0.546901
0.532594
0.5183
0.504197
0.490406
0.477005
0.464042
0.451546
0.439529
0.427979
0.416869
0.406227
0.396228
0.640969
0.625682
0.61578
0.606076
0.594553
0.581555
0.567588
0.553081
0.538375
0.523721
0.509292
0.495203
0.481528
0.468314
0.455586
0.443354
0.431607
0.42032
0.409493
0.399253
0.645761
0.630321
0.620184
0.6102
0.59839
0.585123
0.57091
0.556181
0.541276
0.526441
0.511847
0.497608
0.483797
0.470457
0.457612
0.445272
0.433427
0.422051
0.411131
0.40077
0.645763
0.630322
0.620186
0.610201
0.598391
0.585124
0.570911
0.556182
0.541276
0.526442
0.511848
0.497609
0.483798
0.470458
0.457613
0.445272
0.433427
0.422051
0.411131
0.40077
0.640973
0.625686
0.615783
0.60608
0.594556
0.581558
0.567591
0.553083
0.538377
0.523723
0.509293
0.495204
0.481529
0.468315
0.455587
0.443354
0.431608
0.420321
0.409494
0.399254
0.631429
0.616448
0.60701
0.597866
0.586912
0.57445
0.560971
0.546905
0.532597
0.518303
0.5042
0.490408
0.477007
0.464044
0.451548
0.43953
0.427981
0.41687
0.406228
0.396229
0.617207
0.60268
0.593932
0.585618
0.575513
0.563849
0.551098
0.537689
0.523974
0.510216
0.4966
0.483253
0.470258
0.457669
0.445519
0.433823
0.422566
0.411721
0.401353
0.391712
0.598419
0.58449
0.576647
0.569427
0.560439
0.549828
0.538038
0.525496
0.512564
0.499514
0.486542
0.473782
0.461324
0.44923
0.437538
0.426267
0.415398
0.404903
0.394895
0.385727
0.575213
0.56202
0.555286
0.549408
0.541796
0.532483
0.521878
0.510407
0.498441
0.486267
0.474089
0.462053
0.45026
0.438777
0.427652
0.416906
0.406519
0.396457
0.386893
0.378304
0.547774
0.535444
0.53001
0.525708
0.519716
0.511934
0.502727
0.49252
0.481697
0.470556
0.459318
0.448139
0.437131
0.426371
0.415917
0.405795
0.395978
0.386432
0.37739
0.369482
0.51632
0.504973
0.501011
0.498499
0.494354
0.48832
0.480713
0.471954
0.462438
0.452481
0.442319
0.432122
0.422015
0.412085
0.4024
0.392995
0.383836
0.374884
0.366438
0.359307
0.481103
0.470846
0.468509
0.46798
0.465888
0.461803
0.455983
0.448841
0.440786
0.432153
0.423194
0.414096
0.404997
0.395996
0.387174
0.378574
0.370157
0.361874
0.354094
0.347826
0.442405
0.433334
0.432753
0.434375
0.434521
0.432566
0.4287
0.423329
0.416876
0.409694
0.402054
0.394163
0.386169
0.37819
0.370317
0.362604
0.355008
0.347467
0.340416
0.335093
0.40054
0.392738
0.394018
0.397931
0.400473
0.400806
0.399045
0.395583
0.390856
0.385238
0.379022
0.37243
0.365632
0.358756
0.35191
0.345159
0.338458
0.331727
0.325464
0.32116
0.355849
0.349383
0.352605
0.35892
0.363987
0.366743
0.367214
0.365778
0.362885
0.358929
0.354224
0.349014
0.343485
0.337782
0.33203
0.326309
0.320569
0.314712
0.30929
0.306074
0.308698
0.303624
0.30884
0.317633
0.325324
0.330609
0.333416
0.334104
0.333132
0.330916
0.327794
0.324031
0.319831
0.315358
0.310754
0.306116
0.301395
0.296469
0.291937
0.289872
0.25948
0.255836
0.263068
0.274382
0.284764
0.292655
0.297876
0.30076
0.301776
0.30136
0.299873
0.297603
0.294773
0.291567
0.288146
0.284628
0.28097
0.277022
0.273417
0.272569
0.208606
0.206417
0.215658
0.229499
0.242604
0.253146
0.260831
0.26596
0.269006
0.270427
0.270606
0.269853
0.268413
0.266488
0.264263
0.26188
0.259305
0.256361
0.25371
0.254141
0.156509
0.155783
0.166995
0.183333
0.199155
0.212363
0.222534
0.229929
0.235026
0.238297
0.240149
0.240912
0.240852
0.240193
0.239142
0.237867
0.23635
0.234393
0.232693
0.234479
0.103634
0.104366
0.117481
0.136247
0.154745
0.1706
0.183249
0.192909
0.20005
0.205161
0.208668
0.210922
0.212206
0.212765
0.212831
0.212601
0.212071
0.211014
0.210188
0.213388
0.0504399
0.0526112
0.0675323
0.0886207
0.109716
0.128166
0.143259
0.155154
0.164313
0.171234
0.176358
0.180053
0.182616
0.184305
0.18537
0.186034
0.186279
0.185807
0.185539
0.190259
-0.00260724
0.000969759
0.0175722
0.0408419
0.0644213
0.0853833
0.102858
0.116938
0.128066
0.136746
0.14343
0.148493
0.152241
0.154931
0.156827
0.158195
0.159021
0.158826
0.158519
0.164369
-0.0550396
-0.0501026
-0.0319689
-0.00669311
0.0192223
0.0425836
0.0623543
0.0785494
0.0915883
0.101972
0.110159
0.116532
0.121398
0.125001
0.127591
0.129446
0.130538
0.129868
0.127178
0.130858
-0.106391
-0.100152
-0.0806603
-0.0535854
-0.0255142
0.000105859
0.022065
0.0402915
0.0551712
0.067197
0.0768262
0.0844384
0.0903251
0.0946936
0.097707
0.0995169
0.100023
0.0983621
0.093824
0.0892546
-0.156214
-0.148738
-0.128079
-0.0994399
-0.0694231
-0.0417105
-0.0176896
0.00247248
0.0191208
0.0327362
0.0437759
0.0526217
0.0595682
0.0648241
0.0685396
0.0708488
0.0717792
0.0709671
0.0679346
0.0637065
-0.204069
-0.195432
-0.173814
-0.14387
-0.112146
-0.0825321
-0.0565942
-0.0346027
-0.0162589
-0.00109425
0.0113529
0.0214785
0.0296006
0.035963
0.0407534
0.0441373
0.0462592
0.0471588
0.0467166
0.0446399
-0.249544
-0.239828
-0.217471
-0.186505
-0.153339
-0.12204
-0.0943503
-0.0706504
-0.0506946
-0.0340299
-0.0201896
-0.00876179
0.000596239
0.00816158
0.0141566
0.0187684
0.022183
0.0246192
0.0261913
0.0262253
-0.29226
-0.281554
-0.258684
-0.226996
-0.192678
-0.159937
-0.130684
-0.105418
-0.0839544
-0.0658626
-0.0506758
-0.0379706
-0.0273866
-0.0186244
-0.0114383
-0.00562458
-0.000980643
0.00276892
0.00580465
0.00737337
-0.331876
-0.320274
-0.29712
-0.265023
-0.229866
-0.195951
-0.16535
-0.138683
-0.11584
-0.0964194
-0.079962
-0.0660386
-0.0542774
-0.0443645
-0.0360388
-0.0290841
-0.023285
-0.0183492
-0.0141188
-0.0114705
-0.368099
-0.355697
-0.332486
-0.3003
-0.264637
-0.229839
-0.198128
-0.170252
-0.14618
-0.125552
-0.107924
-0.0928664
-0.0800022
-0.069009
-0.0596172
-0.0516038
-0.0447465
-0.0387429
-0.0334567
-0.0298988
-0.40069
-0.387584
-0.364534
-0.332581
-0.296755
-0.261389
-0.228831
-0.199957
-0.174828
-0.153136
-0.134458
-0.118372
-0.104502
-0.0925214
-0.0821569
-0.0731836
-0.065378
-0.0584307
-0.052202
-0.0477773
-0.429467
-0.415753
-0.393068
-0.36166
-0.326023
-0.290419
-0.257295
-0.227658
-0.201665
-0.179069
-0.15948
-0.142491
-0.127729
-0.11487
-0.103639
-0.0938125
-0.0851688
-0.077398
-0.0703448
-0.0651059
-0.454308
-0.440083
-0.417946
-0.387378
-0.352282
-0.316779
-0.28339
-0.253239
-0.226591
-0.203269
-0.182924
-0.165169
-0.149642
-0.136023
-0.124041
-0.113471
-0.104099
-0.0956195
-0.0878611
-0.0818944
-0.475157
-0.460516
-0.439084
-0.40963
-0.375413
-0.340356
-0.307011
-0.276612
-0.249532
-0.225674
-0.204737
-0.186363
-0.170205
-0.155951
-0.143336
-0.132136
-0.122146
-0.113069
-0.104718
-0.0981194
-0.492025
-0.477059
-0.456462
-0.428359
-0.395341
-0.36107
-0.328084
-0.297712
-0.270433
-0.246238
-0.224882
-0.206042
-0.189392
-0.174632
-0.161504
-0.149789
-0.139287
-0.129718
-0.120879
-0.113736
-0.504986
-0.489786
-0.470122
-0.443566
-0.412037
-0.378876
-0.346563
-0.316497
-0.28926
-0.264933
-0.243335
-0.224187
-0.207186
-0.19205
-0.178528
-0.166409
-0.155502
-0.145541
-0.136308
-0.128703
-0.514176
-0.498833
-0.480166
-0.455307
-0.425517
-0.393768
-0.362434
-0.332951
-0.305998
-0.281747
-0.260089
-0.24079
-0.223581
-0.208197
-0.1944
-0.181987
-0.170776
-0.160517
-0.150984
-0.142994
-0.519792
-0.504397
-0.48676
-0.463695
-0.435846
-0.405778
-0.375708
-0.347081
-0.320653
-0.296688
-0.27515
-0.255859
-0.238581
-0.223076
-0.20912
-0.19652
-0.185103
-0.174638
-0.164892
-0.156596
-0.522082
-0.506726
-0.490124
-0.468898
-0.443136
-0.414975
-0.386431
-0.358918
-0.33325
-0.309776
-0.288537
-0.26941
-0.252202
-0.2367
-0.222698
-0.210014
-0.198487
-0.187905
-0.178031
-0.169507
-0.521339
-0.506117
-0.49053
-0.471135
-0.447545
-0.421468
-0.394676
-0.368513
-0.343831
-0.321049
-0.300283
-0.281474
-0.264471
-0.249092
-0.235153
-0.222486
-0.210941
-0.200325
-0.190404
-0.181732
-0.517896
-0.502902
-0.488292
-0.470673
-0.449279
-0.425402
-0.400545
-0.375945
-0.352456
-0.330557
-0.310435
-0.292091
-0.275423
-0.260284
-0.246514
-0.233959
-0.222485
-0.211916
-0.202027
-0.193283
-0.512108
-0.497441
-0.483758
-0.467818
-0.448582
-0.426962
-0.404173
-0.381309
-0.359201
-0.338363
-0.319046
-0.30131
-0.285103
-0.270316
-0.256815
-0.244466
-0.233146
-0.222703
-0.21292
-0.204178
-0.504349
-0.490105
-0.477293
-0.462907
-0.445737
-0.426366
-0.405721
-0.384728
-0.364158
-0.344544
-0.326182
-0.309189
-0.293563
-0.279234
-0.266099
-0.254043
-0.242959
-0.232715
-0.223109
-0.214444
0.0717646
0.0429628
0.0219189
0.01209
0.00335057
-0.0085923
-0.0220573
-0.0350564
-0.047271
-0.0591277
-0.0708807
-0.0825033
-0.0938974
-0.105017
-0.115868
-0.126471
-0.13685
-0.147027
-0.157034
-0.166909
0.0154388
0.00162175
-0.01034
-0.0177077
-0.0233056
-0.0297996
-0.037336
-0.0449156
-0.0519603
-0.0585249
-0.064834
-0.0709852
-0.0769545
-0.0826962
-0.0881915
-0.0934438
-0.0984604
-0.103244
-0.107793
-0.112103
0.00299767
-0.0029481
-0.00805109
-0.0125226
-0.0167193
-0.0210156
-0.0255278
-0.0301147
-0.034614
-0.0389879
-0.043286
-0.0475575
-0.0518159
-0.0560544
-0.0602672
-0.0644565
-0.0686296
-0.0727944
-0.0769579
-0.0811267
-0.00365247
-0.00726722
-0.0105965
-0.0140694
-0.0176429
-0.0211909
-0.0246843
-0.0281393
-0.031557
-0.0349264
-0.0382427
-0.0415099
-0.044732
-0.0479098
-0.051042
-0.0541282
-0.0571693
-0.0601669
-0.0631229
-0.0660391
-0.00845475
-0.0113492
-0.0137931
-0.0161865
-0.0186811
-0.021208
-0.0236892
-0.0261125
-0.0284976
-0.030858
-0.0331961
-0.035511
-0.0378039
-0.0400777
-0.0423353
-0.0445797
-0.0468134
-0.049039
-0.0512592
-0.0534767
-0.0118953
-0.0141993
-0.0159565
-0.0175944
-0.0193395
-0.0211631
-0.0229815
-0.0247634
-0.02652
-0.0282673
-0.0300109
-0.0317496
-0.0334818
-0.0352074
-0.0369275
-0.0386431
-0.0403549
-0.0420636
-0.0437695
-0.0454734
-0.0135666
-0.0153606
-0.016587
-0.0177105
-0.0189605
-0.0203073
-0.0216648
-0.0229977
-0.0243133
-0.0256268
-0.0269443
-0.0282648
-0.0295861
-0.0309072
-0.0322285
-0.0335506
-0.0348739
-0.0361987
-0.0375253
-0.0388539
-0.013607
-0.0150087
-0.01596
-0.0168206
-0.0177786
-0.0188223
-0.0198867
-0.0209394
-0.021982
-0.0230253
-0.0240745
-0.0251292
-0.0261876
-0.0272485
-0.0283115
-0.0293768
-0.0304443
-0.031514
-0.0325859
-0.0336598
-0.0129609
-0.0139111
-0.0146523
-0.015404
-0.0162278
-0.0170942
-0.0179671
-0.0188338
-0.0196972
-0.0205625
-0.0214318
-0.0223047
-0.02318
-0.024057
-0.0249355
-0.0258154
-0.0266966
-0.0275792
-0.028463
-0.029348
-0.0122855
-0.0129001
-0.0134816
-0.0141524
-0.0148821
-0.0156215
-0.0163518
-0.0170759
-0.0178002
-0.0185275
-0.0192574
-0.0199889
-0.0207215
-0.021455
-0.0221893
-0.0229245
-0.0236604
-0.024397
-0.0251343
-0.0258722
-0.0116825
-0.012084
-0.0125424
-0.0131229
-0.0137538
-0.0143791
-0.0149884
-0.0155918
-0.0161974
-0.0168069
-0.0174191
-0.0180327
-0.0186472
-0.0192626
-0.0198792
-0.0204969
-0.0211155
-0.021735
-0.0223553
-0.0229763
-0.0110997
-0.0113097
-0.0116538
-0.0121535
-0.0127006
-0.013231
-0.0137404
-0.0142445
-0.0147532
-0.0152676
-0.0157855
-0.0163053
-0.0168267
-0.0173497
-0.0178746
-0.0184013
-0.0189295
-0.0194591
-0.0199899
-0.0205218
-0.0106117
-0.0105749
-0.0107711
-0.0111917
-0.0116713
-0.0121234
-0.0125468
-0.0129654
-0.0133925
-0.013829
-0.0142714
-0.0147174
-0.0151663
-0.0156184
-0.0160737
-0.0165319
-0.0169927
-0.0174557
-0.0179206
-0.0183871
-0.00999905
-0.00962426
-0.00962055
-0.00996816
-0.0104101
-0.0108136
-0.0111768
-0.0115349
-0.0119074
-0.0122949
-0.0126918
-0.0130945
-0.0135019
-0.0139138
-0.0143301
-0.0147502
-0.0151736
-0.0155994
-0.0160272
-0.0164563
-0.00854183
-0.00756012
-0.00731383
-0.00771721
-0.00827873
-0.00875682
-0.00915305
-0.00953302
-0.00993149
-0.010349
-0.0107755
-0.0112046
-0.0116347
-0.0120662
-0.0124991
-0.0129328
-0.0133666
-0.0137996
-0.0142314
-0.0146615
-0.00645807
-0.00418783
-0.00356785
-0.00426919
-0.00524177
-0.00600178
-0.00656647
-0.00707548
-0.00760112
-0.00814552
-0.00869009
-0.00922365
-0.00974487
-0.010256
-0.0107585
-0.0112527
-0.0117384
-0.0122155
-0.0126838
-0.0131436
-0.00664732
-0.00287175
-0.00178333
-0.00272925
-0.00405997
-0.00504204
-0.00571042
-0.00628108
-0.00686556
-0.00746902
-0.00806521
-0.00863876
-0.00918879
-0.00971958
-0.0102344
-0.0107346
-0.0112206
-0.0116928
-0.0121519
-0.0125987
-0.0106449
-0.0071528
-0.00607736
-0.00675759
-0.00775941
-0.00846394
-0.00890723
-0.00927382
-0.00965764
-0.0100628
-0.0104675
-0.0108588
-0.011236
-0.0116025
-0.011961
-0.0123124
-0.0126568
-0.0129946
-0.0133261
-0.0136518
-0.0149706
-0.0130608
-0.0123723
-0.0125434
-0.0128777
-0.0130836
-0.013182
-0.0132609
-0.0133632
-0.0134895
-0.0136283
-0.0137729
-0.0139222
-0.0140772
-0.0142383
-0.0144053
-0.0145777
-0.0147549
-0.0149365
-0.0151221
-0.0172039
-0.0156594
-0.0149598
-0.0148994
-0.0149886
-0.0150106
-0.0149719
-0.0149306
-0.0149164
-0.0149295
-0.0149616
-0.0150074
-0.0150654
-0.0151355
-0.0152173
-0.01531
-0.0154128
-0.0155248
-0.0156454
-0.0157737
0.115674
0.116183
0.117223
0.118787
0.120874
0.123498
0.126679
0.130439
0.134793
0.139745
0.145276
0.151332
0.157794
0.16443
0.170809
0.176128
0.178836
0.175876
0.160558
0.11789
0.106734
0.107106
0.107805
0.108853
0.110212
0.111904
0.113861
0.116115
0.118533
0.121144
0.123692
0.126182
0.128112
0.129402
0.129055
0.126722
0.120315
0.108533
0.0862002
0.0474342
0.0961893
0.0963828
0.0967242
0.097225
0.0978518
0.0985974
0.0993867
0.10019
0.100877
0.101383
0.101483
0.101041
0.0996734
0.0971065
0.0926961
0.0859252
0.0758279
0.0617098
0.0428586
0.0194233
0.0847143
0.0847408
0.0847694
0.0847993
0.084809
0.0847676
0.0846148
0.0842834
0.0836724
0.0826723
0.0811296
0.0788712
0.0756756
0.0712932
0.0654643
0.0579282
0.0485522
0.0372074
0.0238193
0.00740795
0.0729918
0.0728964
0.0726964
0.0723859
0.0719525
0.0713601
0.0705645
0.0694955
0.0680848
0.0662324
0.0638527
0.0608172
0.0570398
0.0523836
0.0468084
0.0402011
0.0325729
0.0236978
0.0133007
0.000391055
0.061586
0.0614183
0.0610793
0.0605632
0.0598633
0.0589507
0.0577957
0.0563452
0.0545584
0.0523688
0.0497381
0.0465961
0.0429238
0.038656
0.0337987
0.0282593
0.0219927
0.0147216
0.00612578
-0.00460479
0.0508833
0.0506824
0.0502784
0.0496669
0.0488448
0.0477932
0.0464951
0.0449174
0.043039
0.0408224
0.0382531
0.0352944
0.0319443
0.0281629
0.0239526
0.0192445
0.014005
0.0080447
0.00109557
-0.00764549
0.0410974
0.0408894
0.0404715
0.0398403
0.0389943
0.0379232
0.0366185
0.0350624
0.033245
0.0311454
0.0287577
0.0260601
0.0230522
0.0197076
0.0160296
0.01198
0.00755741
0.00267661
-0.00275991
-0.00913851
0.0323085
0.0321083
0.0317062
0.0310986
0.030285
0.0292599
0.0280208
0.0265584
0.0248688
0.0229401
0.0207699
0.0183452
0.0156686
0.0127272
0.0095327
0.00607395
0.00237752
-0.00156241
-0.00568492
-0.00995921
0.0245105
0.0243249
0.0239518
0.0233871
0.0226312
0.0216809
0.0205379
0.0191971
0.0176599
0.0159191
0.0139772
0.0118274
0.0094784
0.00692848
0.00420269
0.00131596
-0.00167054
-0.00470275
-0.00764267
-0.0103291
0.0176513
0.0174818
0.0171404
0.0166232
0.0159308
0.0150619
0.0140208
0.0128057
0.0114226
0.00986853
0.00815246
0.00627225
0.00424445
0.00207338
-0.000204301
-0.00255852
-0.00489857
-0.00712651
-0.0090415
-0.0104112
0.0116617
0.0115069
0.0111942
0.0107205
0.0100864
0.00929249
0.00834381
0.00724218
0.0059964
0.00460845
0.00309327
0.00145479
-0.000281937
-0.00210755
-0.00397779
-0.00586111
-0.0076542
-0.00923058
-0.0102976
-0.0104437
0.00647332
0.00633017
0.00604066
0.00560261
0.00501602
0.00428279
0.00340761
0.00239476
0.00125325
-1.03812e-05
-0.00137892
-0.00284035
-0.00436214
-0.00592148
-0.00746065
-0.00893401
-0.0102277
-0.0112043
-0.0115331
-0.0106797
0.0020274
0.00189273
0.00162049
0.00120873
0.000656992
-3.27129e-05
-0.000857072
-0.00181135
-0.00288904
-0.0040823
-0.0053773
-0.00675754
-0.00818972
-0.00963313
-0.0110083
-0.0122189
-0.013096
-0.013439
-0.0129032
-0.0109933
-0.00172188
-0.00185054
-0.00211076
-0.00250444
-0.00303273
-0.00369426
-0.00448788
-0.00540999
-0.00645863
-0.00762813
-0.00891391
-0.0103037
-0.0117788
-0.0132987
-0.0147849
-0.0160914
-0.0169512
-0.0169391
-0.0153746
-0.0112679
-0.00480763
-0.00493207
-0.00518388
-0.00556513
-0.00607768
-0.00672114
-0.00749635
-0.00840168
-0.00943946
-0.010608
-0.0119132
-0.0133529
-0.0149351
-0.0166456
-0.0184601
-0.0202586
-0.0217605
-0.022264
-0.0203044
-0.0129337
-0.00725302
-0.00737436
-0.00761968
-0.00799144
-0.0084917
-0.00912121
-0.00988124
-0.0107723
-0.0117979
-0.0129609
-0.014271
-0.0157362
-0.0173783
-0.0192107
-0.0212596
-0.023486
-0.025726
-0.0272954
-0.0262814
-0.0175268
-0.00907421
-0.00919309
-0.00943294
-0.00979656
-0.0102858
-0.0109017
-0.0116447
-0.0125158
-0.0135161
-0.0146498
-0.0159225
-0.0173438
-0.0189256
-0.02068
-0.0226085
-0.0246707
-0.0267069
-0.0281961
-0.0276517
-0.0208935
-0.0102824
-0.0103993
-0.0106349
-0.0109919
-0.0114718
-0.0120754
-0.0128013
-0.0136485
-0.0146144
-0.0156982
-0.0168959
-0.0182061
-0.0196188
-0.0211199
-0.022662
-0.0241509
-0.0253641
-0.0258808
-0.0248705
-0.0207033
-0.0108847
-0.0110006
-0.0112337
-0.0115869
-0.0120614
-0.0126573
-0.0133721
-0.0142027
-0.0151431
-0.0161859
-0.0173183
-0.0185238
-0.0197742
-0.0210358
-0.022257
-0.0233814
-0.0243127
-0.0248711
-0.0245106
-0.0216358
0.125828
0.126386
0.127636
0.129482
0.132068
0.135296
0.139407
0.144259
0.150229
0.15711
0.165489
0.175052
0.186736
0.200046
0.216563
0.235435
0.259533
0.287245
0.324061
0.366538
0.125792
0.12635
0.127599
0.129445
0.13203
0.135257
0.139366
0.144215
0.150181
0.157056
0.165427
0.17498
0.186649
0.199937
0.216415
0.235237
0.259241
0.286816
0.323396
0.365476
0.125721
0.126279
0.127527
0.129371
0.131954
0.135178
0.139283
0.144126
0.150084
0.15695
0.165306
0.174838
0.186474
0.199719
0.216121
0.23484
0.258659
0.285961
0.32207
0.363358
0.125614
0.126172
0.127419
0.129261
0.131841
0.13506
0.139158
0.143994
0.149941
0.15679
0.165123
0.174626
0.186212
0.199393
0.215682
0.234248
0.25779
0.284685
0.32009
0.360196
0.125473
0.126031
0.127275
0.129114
0.13169
0.134903
0.138993
0.143818
0.149749
0.156578
0.164882
0.174343
0.185866
0.198961
0.2151
0.233464
0.256639
0.282997
0.317464
0.356007
0.125297
0.125854
0.127096
0.128932
0.131502
0.134708
0.138788
0.143599
0.149512
0.156315
0.164581
0.173992
0.185436
0.198424
0.214379
0.232492
0.255212
0.280907
0.314203
0.350811
0.125085
0.125642
0.126882
0.128714
0.131277
0.134475
0.138543
0.143337
0.149228
0.156001
0.164223
0.173574
0.184924
0.197785
0.213523
0.231336
0.253516
0.278426
0.310323
0.344636
0.12484
0.125397
0.126633
0.12846
0.131017
0.134205
0.138259
0.143034
0.1489
0.155637
0.163809
0.173089
0.184333
0.197045
0.212535
0.230003
0.25156
0.275569
0.305838
0.337514
0.124561
0.125117
0.12635
0.128173
0.130721
0.133898
0.137936
0.142691
0.148527
0.155224
0.163341
0.172541
0.183666
0.196209
0.211422
0.228499
0.249354
0.272353
0.300769
0.329483
0.124248
0.124804
0.126034
0.127851
0.13039
0.133555
0.137576
0.142307
0.148112
0.154764
0.162819
0.171929
0.182925
0.195278
0.210188
0.226829
0.246912
0.268793
0.295135
0.320585
0.123901
0.124459
0.125685
0.127496
0.130026
0.133178
0.13718
0.141885
0.147656
0.154258
0.162247
0.171258
0.182114
0.194257
0.208841
0.225002
0.244246
0.264909
0.288963
0.310869
0.123523
0.124081
0.125304
0.127109
0.129628
0.132766
0.136748
0.141426
0.147159
0.153707
0.161625
0.170528
0.181235
0.193148
0.207387
0.223023
0.241372
0.260719
0.282278
0.300387
0.123112
0.123671
0.124891
0.126691
0.129198
0.132321
0.136282
0.14093
0.146623
0.153114
0.160955
0.169742
0.180292
0.191957
0.205833
0.220902
0.238307
0.256241
0.275112
0.289192
0.12267
0.123231
0.124448
0.126241
0.128737
0.131845
0.135782
0.140399
0.14605
0.15248
0.160241
0.168904
0.179288
0.190688
0.204187
0.218647
0.23507
0.251494
0.267501
0.277339
0.122196
0.12276
0.123974
0.125762
0.128246
0.131337
0.13525
0.139835
0.14544
0.151806
0.159482
0.168015
0.178226
0.189345
0.202453
0.216266
0.23168
0.246495
0.259489
0.264874
0.121693
0.12226
0.123472
0.125253
0.127725
0.130799
0.134686
0.139236
0.144794
0.151092
0.158678
0.167073
0.177104
0.187925
0.200633
0.21376
0.228149
0.241258
0.251131
0.251838
0.12116
0.121732
0.122941
0.124718
0.127176
0.130233
0.134092
0.138607
0.144115
0.150343
0.157835
0.166085
0.175928
0.186439
0.198736
0.211143
0.224499
0.235798
0.242487
0.238261
0.120598
0.121177
0.122387
0.12416
0.126607
0.129649
0.133485
0.137967
0.14343
0.149592
0.156995
0.165104
0.174765
0.184959
0.196849
0.208502
0.220821
0.23017
0.233601
0.224039
0.120007
0.120595
0.121808
0.123581
0.126022
0.129055
0.132872
0.137331
0.142756
0.148862
0.156188
0.164166
0.173655
0.183537
0.195026
0.205898
0.217179
0.224411
0.224492
0.208479
0.119384
0.119974
0.121181
0.122943
0.12536
0.128364
0.132133
0.136537
0.141877
0.147884
0.155055
0.162845
0.17205
0.181558
0.192506
0.202583
0.212756
0.218051
0.215263
0.191888
0.11939
0.11998
0.121186
0.122948
0.125365
0.128369
0.132138
0.136543
0.141882
0.147888
0.155059
0.162849
0.172053
0.181561
0.192509
0.202585
0.212758
0.218052
0.215264
0.191887
0.120013
0.1206
0.121813
0.123586
0.126027
0.12906
0.132877
0.137335
0.142761
0.148866
0.156192
0.16417
0.173658
0.183541
0.195029
0.205901
0.217181
0.224413
0.224493
0.208479
0.120603
0.121182
0.122392
0.124164
0.126612
0.129654
0.13349
0.137972
0.143435
0.149596
0.156999
0.165108
0.174768
0.184962
0.196851
0.208504
0.220823
0.230171
0.233603
0.22404
0.121164
0.121737
0.122946
0.124722
0.12718
0.130237
0.134097
0.138611
0.144119
0.150347
0.157839
0.166089
0.175932
0.186442
0.198739
0.211145
0.2245
0.2358
0.242488
0.238262
0.121697
0.122265
0.123476
0.125258
0.127729
0.130803
0.13469
0.13924
0.144798
0.151096
0.158682
0.167076
0.177107
0.187928
0.200636
0.213762
0.228151
0.241259
0.251132
0.251839
0.1222
0.122764
0.123978
0.125766
0.12825
0.131341
0.135254
0.139838
0.145444
0.15181
0.159485
0.168018
0.178229
0.189347
0.202456
0.216268
0.231681
0.246496
0.259491
0.264876
0.122673
0.123235
0.124451
0.126245
0.128741
0.131849
0.135786
0.140403
0.146053
0.152483
0.160244
0.168907
0.179291
0.190691
0.204189
0.218649
0.235072
0.251495
0.267503
0.27734
0.123115
0.123675
0.124895
0.126694
0.129202
0.132325
0.136285
0.140933
0.146626
0.153117
0.160958
0.169745
0.180294
0.19196
0.205835
0.220904
0.238309
0.256243
0.275113
0.289194
0.123526
0.124084
0.125307
0.127113
0.129631
0.132769
0.136751
0.141429
0.147162
0.15371
0.161627
0.17053
0.181237
0.19315
0.207389
0.223025
0.241374
0.260721
0.282279
0.300389
0.123904
0.124462
0.125688
0.127499
0.130028
0.13318
0.137183
0.141888
0.147658
0.15426
0.162249
0.17126
0.182116
0.194258
0.208843
0.225003
0.244248
0.264911
0.288964
0.310871
0.12425
0.124807
0.126037
0.127854
0.130393
0.133558
0.137579
0.14231
0.148115
0.154766
0.162822
0.171931
0.182927
0.19528
0.21019
0.226831