/*--------------------------------*- C++ -*----------------------------------*\
  =========                 |
  \\      /  F ield         | OpenFOAM: The Open Source CFD Toolbox
   \\    /   O peration     | Website:  https://openfoam.org
    \\  /    A nd           | Version:  6.0
     \\/     M anipulation  |
\*---------------------------------------------------------------------------*/
FoamFile
{
    version     2.0;
    format      ascii;
    class       surfaceScalarField;
    location    "12";
    object      phi;
}
// * * * * * * * * * * * * * * * * * * * * * * * * * * * * * * * * * * * * * //

dimensions      [0 3 -1 0 0 0 0];

internalField   nonuniform List<scalar> 
15760
(
-3.6898e-06
3.75781e-06
-6.80064e-08
-1.29172e-05
9.41211e-06
-1.847e-07
-2.63355e-05
1.37034e-05
-2.85012e-07
-4.29081e-05
1.69428e-05
-3.70268e-07
-6.18396e-05
1.93736e-05
-4.42092e-07
-8.25346e-05
2.11975e-05
-5.02518e-07
-0.000104564
2.25832e-05
-5.53747e-07
-0.000127639
2.36724e-05
-5.97935e-07
-0.000151587
2.45851e-05
-6.37049e-07
-0.000176336
2.54226e-05
-6.72781e-07
-0.000201901
2.62706e-05
-7.06505e-07
-0.000228361
2.72002e-05
-7.39265e-07
-0.000255859
2.82691e-05
-7.71791e-07
-0.000284576
2.95218e-05
-8.0454e-07
-0.000314728
3.099e-05
-8.37731e-07
-0.00034655
3.26927e-05
-8.71379e-07
-0.000380281
3.46364e-05
-9.05331e-07
-0.000416155
3.68135e-05
-9.39312e-07
-0.00045439
3.92081e-05
-9.72942e-07
4.18146e-05
-1.00595e-06
-0.000495199
-3.63222e-06
7.39003e-06
-1.27236e-05
1.85035e-05
-2.59435e-05
2.69232e-05
-4.22609e-05
3.32603e-05
-6.08808e-05
3.79934e-05
-8.12033e-05
4.15201e-05
-0.000102792
4.41722e-05
-0.000125349
4.6229e-05
-0.00014869
4.79266e-05
-0.000172733
4.94657e-05
-0.000197479
5.10159e-05
-0.000222998
5.27193e-05
-0.000249421
5.46922e-05
-0.000276925
5.70257e-05
-0.000305721
5.97862e-05
-0.000336044
6.30154e-05
-0.000368137
6.67295e-05
-0.000402241
7.09175e-05
-0.000438582
7.55497e-05
8.06154e-05
-0.000477383
-3.52287e-06
1.09129e-05
-1.23548e-05
2.73354e-05
-2.51949e-05
3.97633e-05
-4.10232e-05
4.90885e-05
-5.90442e-05
5.60144e-05
-7.865e-05
6.11259e-05
-9.93905e-05
6.49127e-05
-0.000120948
6.77868e-05
-0.000143119
7.00976e-05
-0.000165797
7.2143e-05
-0.000188957
7.41766e-05
-0.000212651
7.64128e-05
-0.000236988
7.90297e-05
-0.000262133
8.21701e-05
-0.000288288
8.59412e-05
-0.000315687
9.04144e-05
-0.000344581
9.56237e-05
-0.000375225
0.000101562
-0.000407866
0.00010819
0.000115494
-0.000442744
-3.37017e-06
1.42831e-05
-1.1837e-05
3.58023e-05
-2.41403e-05
5.20666e-05
-3.92749e-05
6.42232e-05
-5.64453e-05
7.31848e-05
-7.50325e-05
7.97131e-05
-9.45666e-05
8.44467e-05
-0.000114704
8.79241e-05
-0.000135209
9.06029e-05
-0.000155941
9.28749e-05
-0.000176841
9.50767e-05
-0.000197925
9.74965e-05
-0.000219274
0.000100379
-0.000241028
0.000103924
-0.000263377
0.00010829
-0.000286553
0.00011359
-0.000310817
0.000119888
-0.000336446
0.000127191
-0.00036372
0.000135464
0.000144689
-0.000392915
-3.18549e-06
1.74686e-05
-1.12057e-05
4.38225e-05
-2.28478e-05
6.37086e-05
-3.71248e-05
7.85002e-05
-5.32415e-05
8.93015e-05
-7.05659e-05
9.70375e-05
-8.86046e-05
0.000102485
-0.000106982
0.000106301
-0.000125422
0.000109044
-0.000143741
0.000111194
-0.000161832
0.000113168
-0.000179665
0.000115329
-0.000197279
0.000117992
-0.00021478
0.000121425
-0.000232335
0.000125846
-0.000250172
0.000131426
-0.000268562
0.000138278
-0.000287814
0.000146444
-0.000308256
0.000155906
0.000166655
-0.000330223
-2.98188e-06
2.04505e-05
-1.05015e-05
5.13422e-05
-2.13957e-05
7.46028e-05
-3.46974e-05
9.1802e-05
-4.9613e-05
0.000104217
-6.54976e-05
0.000112922
-8.18327e-05
0.000118821
-9.82067e-05
0.000122675
-0.0001143
0.000125137
-0.000129874
0.000126768
-0.000144765
0.00012806
-0.000158885
0.000129449
-0.000172214
0.000131322
-0.000184812
0.000134022
-0.000196812
0.000137846
-0.000208425
0.00014304
-0.000219936
0.000149788
-0.000231691
0.000158199
-0.000244085
0.0001683
0.00018011
-0.00025754
-2.77253e-06
2.3223e-05
-9.76545e-06
5.83351e-05
-1.98628e-05
8.47001e-05
-3.21183e-05
0.000104057
-4.57416e-05
0.00011784
-6.00772e-05
0.000127258
-7.45829e-05
0.000133326
-8.88113e-05
0.000136904
-0.000102395
0.000138721
-0.000115039
0.000139411
-0.000126514
0.000139534
-0.000136657
0.000139592
-0.000145379
0.000140045
-0.000152674
0.000141317
-0.000158622
0.000143794
-0.000163405
0.000147823
-0.000167311
0.000153694
-0.000170729
0.000161617
-0.000174141
0.000171712
0.000184062
-0.000178093
-2.5692e-06
2.57922e-05
-9.03396e-06
6.47999e-05
-1.83187e-05
9.39849e-05
-2.94974e-05
0.000115236
-4.17858e-05
0.000130129
-5.45218e-05
0.000139994
-6.71445e-05
0.000145949
-7.91749e-05
0.000148934
-9.0201e-05
0.000149747
-9.98682e-05
0.000149079
-0.000107876
0.000147542
-0.000113983
0.000145698
-0.000118011
0.000144073
-0.000119866
0.000143172
-0.000119555
0.000143483
-0.000117207
0.000145476
-0.000113095
0.000149581
-0.000107646
0.000156168
-0.000101446
0.000165511
0.000177828
-9.52106e-05
-2.38084e-06
2.8173e-05
-8.33437e-06
7.07534e-05
-1.68148e-05
0.000102465
-2.69143e-05
0.000125336
-3.78576e-05
0.000141072
-4.89826e-05
0.000151119
-5.97174e-05
0.000156684
-6.95596e-05
0.000158776
-7.80599e-05
0.000158247
-8.48108e-05
0.000155829
-8.94424e-05
0.000152174
-9.1626e-05
0.000147882
-9.10858e-05
0.000143533
-8.76207e-05
0.000139707
-8.11333e-05
0.000136996
-7.16677e-05
0.00013601
-5.94501e-05
0.000137364
-4.49281e-05
0.000141646
-2.87975e-05
0.000149381
0.000161027
-1.19968e-05
-2.21255e-06
3.03856e-05
-7.68136e-06
7.62222e-05
-1.53765e-05
0.00011016
-2.44047e-05
0.000134364
-3.40025e-05
0.00015067
-4.35144e-05
0.000160631
-5.23677e-05
0.000165537
-6.00489e-05
0.000166457
-6.60844e-05
0.000164283
-7.0026e-05
0.000159771
-7.14437e-05
0.000153591
-6.99272e-05
0.000146365
-6.5097e-05
0.000138702
-5.66294e-05
0.000131239
-4.42946e-05
0.000124661
-2.80112e-05
0.000119727
-7.91373e-06
0.000117266
1.55702e-05
0.000118162
4.16443e-05
0.000123306
0.00013357
6.91009e-05
-2.06504e-06
3.24506e-05
-7.07518e-06
8.12324e-05
-1.39997e-05
0.000117085
-2.19536e-05
0.000142318
-3.01863e-05
0.000158903
-3.8055e-05
0.000168499
-4.49962e-05
0.000172478
-5.04996e-05
0.000171961
-5.40843e-05
0.000167867
-5.52804e-05
0.000160967
-5.36171e-05
0.000151928
-4.86183e-05
0.000141366
-3.98101e-05
0.000129894
-2.67429e-05
0.000118172
-9.03442e-06
0.000106953
1.35626e-05
9.71297e-05
4.10627e-05
8.97661e-05
7.31214e-05
8.61034e-05
0.000108883
8.7545e-05
9.56158e-05
0.000146837
-1.93481e-06
3.43854e-05
-6.50176e-06
8.57993e-05
-1.265e-05
0.000123233
-1.9494e-05
0.000149162
-2.62925e-05
0.000165701
-3.24183e-05
0.000174625
-3.73252e-05
0.000177385
-4.05182e-05
0.000175154
-4.15273e-05
0.000168876
-3.98839e-05
0.000159324
-3.51036e-05
0.000147148
-2.66743e-05
0.000132937
-1.40548e-05
0.000117275
3.31132e-06
0.000100806
2.59581e-05
8.43059e-05
5.43238e-05
6.87639e-05
8.86299e-05
5.546e-05
0.000128699
4.60347e-05
0.000173696
4.25479e-05
4.74977e-05
0.000221814
-1.81488e-06
3.62003e-05
-5.93487e-06
8.99193e-05
-1.12675e-05
0.000128566
-1.69124e-05
0.000154807
-2.21302e-05
0.000170919
-2.63055e-05
0.0001788
-2.89105e-05
0.00017999
-2.94727e-05
0.000175716
-2.75462e-05
0.00016695
-2.26855e-05
0.000154463
-1.44236e-05
0.000138886
-2.25268e-06
0.000120766
1.43886e-05
0.000100633
3.61157e-05
7.90785e-05
6.35768e-05
5.68448e-05
9.73902e-05
3.49505e-05
0.000138017
1.48335e-05
0.000185533
-1.48185e-06
0.000239254
-1.11725e-05
-1.03949e-05
0.000297146
-1.69603e-06
3.78963e-05
-5.33985e-06
9.35631e-05
-9.77295e-06
0.000132999
-1.40617e-05
0.000159095
-1.74533e-05
0.000174311
-1.93322e-05
0.000180679
-1.91807e-05
0.000179839
-1.65447e-05
0.00017308
-1.10053e-05
0.00016141
-2.15303e-06
0.000145611
1.04358e-05
0.000126297
2.72222e-05
0.000103979
4.87265e-05
7.91292e-05
7.55457e-05
5.22593e-05
0.000108357
2.40333e-05
0.000147887
-4.57957e-06
0.000194807
-3.20868e-05
0.000249502
-5.61762e-05
0.000311588
-7.32585e-05
-7.78005e-05
0.000378993
-1.56819e-06
3.94645e-05
-4.67792e-06
9.66729e-05
-8.07771e-06
0.000136399
-1.07766e-05
0.000161794
-1.1986e-05
0.00017552
-1.10687e-05
0.000179762
-7.49637e-06
0.000176266
-8.15727e-07
0.000166399
9.37807e-06
0.000151217
2.34627e-05
0.000131526
4.18084e-05
0.000107951
6.47978e-05
8.09901e-05
9.28504e-05
5.10766e-05
0.00012645
1.86594e-05
0.000166176
-1.5692e-05
0.000212713
-5.11166e-05
0.000266814
-8.61877e-05
0.000329124
-0.000118487
0.000399696
-0.00014383
-0.000154834
0.00047673
-1.42158e-06
4.08861e-05
-3.90989e-06
9.91612e-05
-6.09103e-06
0.00013858
-6.88823e-06
0.000162591
-5.44793e-06
0.00017408
-1.08096e-06
0.000175395
6.78342e-06
0.000168402
1.86303e-05
0.000154553
3.4881e-05
0.000134966
5.59069e-05
0.0001105
8.20388e-05
8.18196e-05
0.000113576
4.94529e-05
0.0001508
1.38525e-05
0.000194
-2.45401e-05
0.00024351
-6.52027e-05
0.00029977
-0.000107376
0.000363359
-0.000149777
0.000434962
-0.00019009
0.000515052
-0.00022392
-0.000242258
0.000602476
-1.24721e-06
4.21333e-05
-2.99802e-06
0.000100912
-3.7248e-06
0.000139307
-2.23341e-06
0.0001611
2.42823e-06
0.000169418
1.1038e-05
0.000166785
2.4249e-05
0.000155191
4.26209e-05
0.000136181
6.66362e-05
0.000110951
9.67038e-05
8.04326e-05
0.000133155
4.53681e-05
0.000176235
6.37282e-06
0.000226094
-3.60064e-05
0.00028279
-8.12353e-05
0.00034631
-0.000128723
0.000416637
-0.000177703
0.000493848
-0.000226988
0.000578226
-0.000274468
0.000670275
-0.000315969
-0.000341762
0.000769778
-1.03653e-06
4.31698e-05
-1.90535e-06
0.000101781
-8.92915e-07
0.000138294
3.34483e-06
0.000156862
1.18937e-05
0.000160869
2.56589e-05
0.00015302
4.5418e-05
0.000135432
7.18508e-05
0.000109748
0.00010555
7.72517e-05
0.000147014
3.89684e-05
0.000196631
-4.24872e-06
0.000254647
-5.16436e-05
0.000321135
-0.000102495
0.000395957
-0.000156057
0.000478742
-0.000211508
0.000568903
-0.000267864
0.000665725
-0.00032381
0.00076854
-0.000377284
0.000877022
-0.000424451
-0.000456705
0.000991966
-7.80265e-07
4.39501e-05
-5.92616e-07
0.000101593
2.49404e-06
0.000135208
1.00051e-05
0.000149351
2.31937e-05
0.000147681
4.3128e-05
0.000133086
7.07468e-05
0.000107813
0.000106888
7.36066e-05
0.000152294
3.18462e-05
0.000207596
-1.63338e-05
0.00027329
-6.99427e-05
0.000349693
-0.000128047
0.000436895
-0.000189696
0.000534689
-0.000253851
0.000642493
-0.000319312
0.000759268
-0.000384639
0.000883458
-0.000447999
0.00101299
-0.000506815
0.00114556
-0.000557018
-0.000593296
0.00128215
-4.66886e-07
4.4417e-05
9.86001e-07
0.00010014
6.53666e-06
0.000129657
1.79202e-05
0.000137968
3.65855e-05
0.000129015
6.37907e-05
0.000105881
0.00010066
7.09441e-05
0.000148206
2.60604e-05
0.000207331
-2.72796e-05
0.000278811
-8.78129e-05
0.00036326
-0.000154392
0.000461108
-0.000225895
0.00057256
-0.000301149
0.000697566
-0.000378856
0.000835772
-0.000457519
0.000986453
-0.00053532
0.00114833
-0.000609881
0.00131895
-0.000677428
0.00149204
-0.000730111
-0.000749663
0.00164841
-8.19799e-08
4.4499e-05
2.88538e-06
9.71729e-05
1.1352e-05
0.00012119
2.72857e-05
0.000122034
5.23512e-05
0.00010395
8.801e-05
7.02218e-05
0.000135571
2.33829e-05
0.000196206
-3.45748e-05
0.000270939
-0.000102012
0.000360617
-0.000177492
0.000465894
-0.000259668
0.000587204
-0.000347206
0.000724783
-0.000438727
0.000878715
-0.000532789
0.00104908
-0.000627881
0.00123621
-0.00072245
0.00144123
-0.0008149
0.00166732
-0.000903517
0.00192375
-0.000986541
-0.00105806
0.00223214
3.95045e-07
4.41039e-05
5.17511e-06
9.23928e-05
1.70803e-05
0.000109285
3.83265e-05
0.000100788
7.08028e-05
7.14734e-05
0.000116167
2.48573e-05
0.000175884
-3.63341e-05
0.00025122
-0.00010991
0.000343212
-0.000194004
0.000452632
-0.000286911
0.000579948
-0.000386984
0.000725312
-0.00049257
0.000888581
-0.000601996
0.00106938
-0.000713588
0.00126722
-0.000825724
0.00148171
-0.000936933
0.00171281
-0.00104601
0.00196143
-0.00115213
0.0022298
-0.00125492
-0.00134622
0.00251797
9.86435e-07
4.31175e-05
7.93063e-06
8.54486e-05
2.38716e-05
9.33441e-05
5.12775e-05
7.33818e-05
9.22537e-05
3.04973e-05
0.000148622
-3.15109e-05
0.000221933
-0.000109645
0.000313433
-0.000201411
0.00042401
-0.00030458
0.000554129
-0.00041703
0.000703796
-0.000536652
0.000872546
-0.00066132
0.00105947
-0.000788918
0.00126327
-0.000917394
0.0014824
-0.00104485
0.00171513
-0.00116966
0.00195968
-0.00129056
0.0022143
-0.00140675
0.00247715
-0.00151777
-0.00161567
0.0027466
1.71723e-06
4.14003e-05
1.1232e-05
7.59338e-05
3.18776e-05
7.26985e-05
6.63636e-05
3.88958e-05
0.000116979
-2.0118e-05
0.000185642
-0.000100174
0.000273875
-0.000197878
0.000382733
-0.00031027
0.000512726
-0.000434573
0.000663744
-0.000568048
0.000835027
-0.000707935
0.00102518
-0.000851474
0.00123224
-0.000995981
0.00145379
-0.00113894
0.00168708
-0.00127814
0.00192916
-0.00141174
0.00217696
-0.00153836
0.00242735
-0.00165714
0.00267721
-0.00176763
-0.00186368
0.00292523
2.61218e-06
3.87881e-05
1.51547e-05
6.33913e-05
4.12328e-05
4.66205e-05
8.3764e-05
-3.63539e-06
0.000145157
-8.15106e-05
0.000227313
-0.00018233
0.000331555
-0.00030212
0.000458521
-0.000437236
0.000608063
-0.000584115
0.000779196
-0.000739181
0.000970108
-0.000898847
0.00117825
-0.00105961
0.00140046
-0.0012182
0.00163319
-0.00137168
0.00187269
-0.00151763
0.00211515
-0.0016542
0.00235692
-0.00178013
0.00259451
-0.00189473
0.00282476
-0.00199788
-0.00208561
0.00304669
3.69328e-06
3.50948e-05
1.97607e-05
4.73239e-05
5.20344e-05
1.43468e-05
0.000103577
-5.51778e-05
0.000176809
-0.000154743
0.00027345
-0.000278972
0.000394394
-0.000423064
0.000539574
-0.000582415
0.000707881
-0.000752422
0.000897169
-0.000928469
0.00110436
-0.00110604
0.00132564
-0.00128089
0.00155672
-0.00144928
0.00179314
-0.0016081
0.00203053
-0.00175502
0.00226482
-0.00188849
0.00249242
-0.00200773
0.00271032
-0.00211262
0.00291611
-0.00220367
-0.00227893
0.00310942
4.97777e-06
3.0117e-05
2.5091e-05
2.72106e-05
6.4326e-05
-2.48882e-05
0.000125788
-0.00011664
0.000211754
-0.000240708
0.000323536
-0.000390753
0.000461309
-0.000560838
0.000623989
-0.000745095
0.000809207
-0.000937641
0.00101344
-0.0011327
0.00123225
-0.00132485
0.00146066
-0.0015093
0.00169352
-0.00168213
0.00192587
-0.00184045
0.00215327
-0.00198243
0.00237201
-0.00210722
0.00257917
-0.00221489
0.00277272
-0.00230617
0.00295142
-0.00238238
-0.00244322
0.00311572
6.47667e-06
2.36404e-05
3.11602e-05
2.52711e-06
7.80838e-05
-7.18118e-05
0.00015025
-0.000188806
0.000249576
-0.000340035
0.000376684
-0.000517861
0.000530708
-0.000714861
0.000709228
-0.000923615
0.000908389
-0.0011368
0.0011232
-0.00134751
0.00134798
-0.00154963
0.00157687
-0.00173819
0.0018043
-0.00190957
0.00202541
-0.00206156
0.00223627
-0.00219328
0.00243402
-0.00230498
0.00261689
-0.00239776
0.00278407
-0.00247336
0.00293559
-0.0025339
-0.00258036
0.00307273
8.19386e-06
1.54465e-05
3.79518e-05
-2.72309e-05
9.32084e-05
-0.000127068
0.000176665
-0.000272263
0.00028961
-0.00045298
0.000431648
-0.000659898
0.000600537
-0.000883751
0.000792269
-0.00111535
0.00100139
-0.00134592
0.00122155
-0.00156767
0.00144613
-0.00177421
0.00166888
-0.00196094
0.0018844
-0.00212509
0.00208847
-0.00226563
0.00227818
-0.002383
0.00245191
-0.0024787
0.00260916
-0.00255501
0.00275035
-0.00261455
0.00287657
-0.00266012
-0.00269358
0.00298979
1.01255e-05
5.32097e-06
4.54165e-05
-6.25218e-05
0.000109519
-0.000191171
0.000204584
-0.000367327
0.000330951
-0.000579348
0.000486859
-0.000815806
0.000668403
-0.00106529
0.000869837
-0.00131678
0.00108419
-0.00156028
0.00130405
-0.00178753
0.00152237
-0.00199253
0.00173309
-0.00217166
0.00193156
-0.00232356
0.00211468
-0.00244875
0.00228087
-0.00254918
0.00242982
-0.00262766
0.00256226
-0.00268744
0.00267959
-0.00273189
0.00278365
-0.00276418
-0.0027867
0.00287677
1.22597e-05
-6.9387e-06
5.34699e-05
-0.000103732
0.000126754
-0.000264456
0.000233411
-0.000473985
0.000372484
-0.00071842
0.000540517
-0.00098384
0.000731741
-0.00125652
0.000938701
-0.00152374
0.00115319
-0.00177476
0.00136722
-0.00200157
0.00157392
-0.00219923
0.00176801
-0.00236574
0.00194603
-0.00250158
0.00210629
-0.00260902
0.0022486
-0.00269148
0.00237386
-0.00275292
0.00248374
-0.00279732
0.0025803
-0.00282845
0.00266575
-0.00284962
-0.00286342
0.00274247
1.45756e-05
-2.15143e-05
6.19923e-05
-0.000151149
0.000144571
-0.000347034
0.000262421
-0.000591835
0.000412933
-0.000868932
0.000590699
-0.00116161
0.000788032
-0.00145385
0.000995987
-0.0017317
0.00120558
-0.00198435
0.00140887
-0.00220487
0.00159974
-0.00239009
0.00177414
-0.00254015
0.00193011
-0.00265754
0.00206739
-0.0027463
0.00218701
-0.00281111
0.00229083
-0.00285674
0.00238112
-0.00288761
0.00246024
-0.00290757
0.00253046
-0.00291984
-0.00292697
0.002594
1.70432e-05
-3.85575e-05
7.08289e-05
-0.000204934
0.000162557
-0.000438762
0.000290787
-0.000720065
0.00045094
-0.00102908
0.000635507
-0.00134617
0.000835016
-0.00165336
0.00103944
-0.00193612
0.0012396
-0.00218452
0.00142823
-0.00239349
0.00160043
-0.00256229
0.00175368
-0.0026934
0.00188753
-0.00279139
0.00200301
-0.00286177
0.00210211
-0.0029102
0.00218727
-0.0029419
0.00226105
-0.00296139
0.00232583
-0.00297235
0.00238371
-0.00297773
-0.00297988
0.00243663
1.96233e-05
-5.81808e-05
7.97926e-05
-0.000265104
0.000180239
-0.000539209
0.000317621
-0.000857446
0.000485147
-0.00119661
0.000673219
-0.00153424
0.000870891
-0.00185103
0.00106761
-0.00213283
0.00125463
-0.00237154
0.00142585
-0.00256471
0.00157791
-0.00271435
0.0017099
-0.00282539
0.0018227
-0.0029042
0.00191838
-0.00295745
0.00199952
-0.00299135
0.00206886
-0.00301125
0.00212895
-0.00302147
0.00218199
-0.00302539
0.00222984
-0.00302557
-0.00302408
0.00227403
2.22671e-05
-8.04479e-05
8.86686e-05
-0.000331505
0.000197108
-0.000647649
0.000342028
-0.00100237
0.000514301
-0.00136888
0.000702421
-0.00172236
0.000894446
-0.00204306
0.00107991
-0.00231829
0.00125106
-0.00254269
0.00140331
-0.00271696
0.00153497
-0.00284601
0.00164658
-0.002937
0.00174012
-0.00299774
0.00181833
-0.00303565
0.00188411
-0.00305713
0.0019402
-0.00306733
0.00198896
-0.00307023
0.00203232
-0.00306876
0.00207182
-0.00306507
-0.00306092
0.00210867
2.4918e-05
-0.000105366
9.72225e-05
-0.00040381
0.000212641
-0.000763067
0.000363158
-0.00115288
0.000537335
-0.00154306
0.000722108
-0.00190714
0.000905115
-0.00222607
0.00107656
-0.00248974
0.00123013
-0.00269626
0.00136292
-0.00284975
0.00147481
-0.0029579
0.00156756
-0.00302975
0.00164393
-0.00307412
0.00170703
-0.00309875
0.00175979
-0.00310989
0.00180479
-0.00311233
0.00184409
-0.00310954
0.00187932
-0.00310399
0.00191169
-0.00309744
-0.00309134
0.00194211
2.75127e-05
-0.000132879
0.00010521
-0.000481507
0.000226331
-0.000884189
0.000380267
-0.00130682
0.000553447
-0.00171624
0.000731734
-0.00208543
0.000902953
-0.00239728
0.00105848
-0.00264527
0.00119368
-0.00283145
0.00130733
-0.00296339
0.00140068
-0.00305125
0.00147641
-0.00310548
0.00153775
-0.00313546
0.00158788
-0.00314888
0.00162961
-0.00315162
0.00166522
-0.00314793
0.00169647
-0.00314078
0.00172465
-0.00313218
0.00175073
-0.00312351
-0.00311596
0.00177534
2.99838e-05
-0.000162862
0.000112389
-0.000563912
0.000237718
-0.00100952
0.000392758
-0.00146186
0.000562137
-0.00188562
0.000731211
-0.0022545
0.000888545
-0.00255462
0.00102706
-0.00278379
0.00114385
-0.00294825
0.00123926
-0.0030588
0.00131563
-0.00312762
0.00137624
-0.00316609
0.00142452
-0.00318374
0.00146353
-0.0031879
0.00149583
-0.00318392
0.00152335
-0.00317546
0.00154755
-0.00316498
0.00156945
-0.00315408
0.00158977
-0.00314383
-0.00313516
0.00160898
3.22629e-05
-0.000195125
0.000118532
-0.000650181
0.000246412
-0.0011374
0.000400217
-0.00161566
0.000563221
-0.00204862
0.000720853
-0.00241213
0.000862882
-0.00269665
0.000983962
-0.00290487
0.00108289
-0.00304718
0.00116132
-0.00313723
0.00122237
-0.00318868
0.00126967
-0.00321339
0.00130659
-0.00322066
0.00133598
-0.0032173
0.00136007
-0.003208
0.00138047
-0.00319586
0.00139832
-0.00318284
0.00141444
-0.0031702
0.00142936
-0.00315875
-0.0031492
0.0014434
3.42831e-05
-0.000229408
0.000123439
-0.000739337
0.000252117
-0.00126608
0.000402423
-0.00176597
0.000556804
-0.002203
0.0007013
-0.00255663
0.000827219
-0.00282257
0.000931001
-0.00300865
0.00101298
-0.00312916
0.00107582
-0.00320007
0.00112319
-0.00323604
0.00115876
-0.00324896
0.00118576
-0.00324766
0.00120672
-0.00323826
0.00122351
-0.00322479
0.00123745
-0.0032098
0.00124945
-0.00319483
0.00126011
-0.00318086
0.00126983
-0.00316847
-0.00315822
0.00127885
3.59864e-05
-0.000265395
0.00012695
-0.000830301
0.000254651
-0.00139378
0.000399362
-0.00191068
0.000543257
-0.0023469
0.000673444
-0.00268681
0.000782964
-0.00293209
0.000869978
-0.00309566
0.000936121
-0.0031953
0.000984815
-0.00324876
0.00101997
-0.0032712
0.00104519
-0.00327418
0.00106341
-0.00326588
0.00107683
-0.00325167
0.00108698
-0.00323495
0.00109493
-0.00321775
0.00110137
-0.00320128
0.00110678
-0.00318626
0.00111143
-0.00317313
-0.00316229
0.0011155
3.73122e-05
-0.000302707
0.000128931
-0.00092192
0.00025391
-0.00151876
0.000391154
-0.00204792
0.000523097
-0.00247884
0.000638267
-0.00280198
0.000731502
-0.00302532
0.000802536
-0.0031667
0.000854046
-0.00324681
0.000889942
-0.00328466
0.000914187
-0.00329544
0.000930174
-0.00329017
0.000940508
-0.00327621
0.000947045
-0.00325821
0.000951037
-0.00323894
0.000953307
-0.00322002
0.000954397
-0.00320237
0.00095466
-0.00318652
0.000954318
-0.00317279
-0.00316145
0.000953483
3.8219e-05
-0.000340926
0.000129313
-0.00101301
0.000249921
-0.00163936
0.000378099
-0.0021761
0.000497018
-0.00259776
0.000596856
-0.00290182
0.000674221
-0.00310269
0.000730207
-0.00322268
0.000768274
-0.00328488
0.000792593
-0.00330898
0.000807026
-0.00330988
0.000814676
-0.00329782
0.000817803
-0.00327934
0.000817941
-0.00325835
0.00081609
-0.00323709
0.000812887
-0.00321681
0.000808747
-0.00319823
0.000803942
-0.00318172
0.00079864
-0.00316749
-0.00315574
0.000792921
3.86734e-05
-0.000379599
0.000128065
-0.00110241
0.000242794
-0.00175409
0.000360593
-0.0022939
0.000465772
-0.00270294
0.000550284
-0.00298633
0.000612389
-0.00316479
0.000654313
-0.00326461
0.000680058
-0.00331062
0.000693866
-0.00332279
0.000699391
-0.0033154
0.000699404
-0.00329783
0.000695827
-0.00327576
0.000689909
-0.00325243
0.000682434
-0.00322961
0.00067389
-0.00320827
0.000664595
-0.00318893
0.00065476
-0.00317188
0.000644517
-0.00315724
-0.00314514
0.000633925
3.86539e-05
-0.000418253
0.000125204
-0.00118895
0.000232715
-0.0018616
0.000339107
-0.00240029
0.000430139
-0.00279397
0.00049957
-0.00305577
0.000547145
-0.00321237
0.000575986
-0.00329345
0.000590422
-0.00332506
0.000594625
-0.00332699
0.000591967
-0.00331274
0.000584879
-0.00329074
0.000574967
-0.00326585
0.000563233
-0.0032407
0.00055028
-0.00321666
0.000536479
-0.00319447
0.000522073
-0.00317452
0.00050723
-0.00315704
0.000492056
-0.00314207
-0.00312969
0.000476599
3.81509e-05
-0.000456404
0.000120784
-0.00127159
0.000219925
-0.00196075
0.000314154
-0.00249452
0.00039089
-0.00287071
0.000445654
-0.00311053
0.000479483
-0.0032462
0.000496169
-0.00331013
0.000500188
-0.00332908
0.000495538
-0.00332234
0.000485272
-0.00330248
0.000471486
-0.00327696
0.000455505
-0.00324987
0.000438119
-0.00322331
0.000419785
-0.00319833
0.000400781
-0.00317546
0.000381292
-0.00315504
0.000361453
-0.0031372
0.000341355
-0.00312197
-0.00310937
0.00032104
3.71665e-05
-0.000493571
0.000114894
-0.00134932
0.000204709
-0.00205056
0.000286258
-0.00257607
0.000348757
-0.00293321
0.000389382
-0.00315115
0.000410257
-0.00326707
0.000415639
-0.00331551
0.000410012
-0.00332345
0.000397123
-0.00330945
0.000379693
-0.00328505
0.000359508
-0.00325677
0.000337646
-0.00322801
0.00031472
-0.00320038
0.00029107
-0.00317468
0.000266897
-0.00315129
0.000242342
-0.00313048
0.000217515
-0.00311238
0.000192499
-0.00309696
-0.00308421
0.000167337
3.57132e-05
-0.000529284
0.00010765
-0.00142125
0.000187374
-0.00213028
0.000255941
-0.00264464
0.000304417
-0.00298168
0.000331499
-0.00317824
0.000340188
-0.00327576
0.000335033
-0.00331036
0.00032041
-0.00330883
0.000299776
-0.00328882
0.000275523
-0.0032608
0.000249155
-0.0032304
0.000221542
-0.00320039
0.000193151
-0.00317199
0.000164227
-0.00314575
0.000134909
-0.00312197
0.0001053
-0.00310087
7.54917e-05
-0.00308257
4.55645e-05
-0.00306703
-0.00305421
1.55674e-05
3.38129e-05
-0.000563097
9.91842e-05
-0.00148662
0.000168235
-0.00219934
0.000223699
-0.0027001
0.000258487
-0.00301647
0.00027265
-0.0031924
0.000269879
-0.00327299
0.000254862
-0.00329534
0.000231789
-0.00328576
0.0002038
-0.00326083
0.00017298
-0.00322997
0.000140583
-0.00319801
0.000107306
-0.00316711
7.34983e-05
-0.00313819
3.9328e-05
-0.00311158
4.88147e-06
-0.00308753
-2.97719e-05
-0.00306622
-6.45549e-05
-0.00304778
-9.93842e-05
-0.0030322
-0.0030194
-0.000134199
3.14953e-05
-0.000594592
8.96453e-05
-0.00154477
0.000147609
-0.0022573
0.000189998
-0.00274249
0.000211514
-0.00303799
0.00021339
-0.00319428
0.000199832
-0.00325943
0.000175543
-0.00327105
0.00014447
-0.00325468
0.000109436
-0.00322579
7.22361e-05
-0.00319278
3.39149e-05
-0.00315969
-4.97511e-06
-0.00312822
-4.41733e-05
-0.00309899
-8.35752e-05
-0.00307218
-0.00012314
-0.00304796
-0.000162831
-0.00302653
-0.000202582
-0.00300803
-0.000242303
-0.00299248
-0.00297978
-0.000281916
2.87963e-05
-0.000623388
7.91872e-05
-0.00159516
0.000125804
-0.00230392
0.000155268
-0.00277196
0.000163984
-0.0030467
0.000154196
-0.00318449
0.000130464
-0.0032357
9.7415e-05
-0.003238
5.87159e-05
-0.00321598
1.68749e-05
-0.00318395
-2.65688e-05
-0.00314933
-7.07512e-05
-0.0031155
-0.000115231
-0.00308374
-0.000159815
-0.0030544
-0.000204448
-0.00302755
-0.000249131
-0.00300328
-0.000293858
-0.0029818
-0.000338581
-0.00296331
-0.000383192
-0.00294787
-0.00293539
-0.00042759
2.57569e-05
-0.000649145
6.79672e-05
-0.00163737
0.000103111
-0.00233906
0.000119899
-0.00278874
0.000116322
-0.00304312
9.54713e-05
-0.00316364
6.2127e-05
-0.00320236
2.0762e-05
-0.00319664
-2.52553e-05
-0.00316997
-7.37159e-05
-0.00313549
-0.000123311
-0.00309974
-0.000173324
-0.00306549
-0.000223398
-0.00303367
-0.000273387
-0.00300441
-0.000323271
-0.00297766
-0.000373087
-0.00295346
-0.000422868
-0.00293202
-0.000472584
-0.00291359
-0.000522112
-0.00289834
-0.00288619
-0.000571312
2.2422e-05
-0.000671567
5.61418e-05
-0.00167109
7.98057e-05
-0.00236272
8.42433e-05
-0.00279318
6.8904e-05
-0.00302779
3.75661e-05
-0.0031323
-4.88107e-06
-0.00315991
-5.41728e-05
-0.00314735
-0.000107249
-0.00311689
-0.000162182
-0.00308056
-0.000217866
-0.00304405
-0.000273707
-0.00300965
-0.000329407
-0.00297797
-0.000384848
-0.00294897
-0.000440029
-0.00292248
-0.000495018
-0.00289847
-0.000549893
-0.00287714
-0.000604655
-0.00285883
-0.000659171
-0.00284382
-0.00283212
-0.000713237
1.88387e-05
-0.000690406
4.38637e-05
-0.00169612
5.61453e-05
-0.002375
4.8619e-05
-0.00278566
2.20569e-05
-0.00300122
-1.92166e-05
-0.00309103
-7.02982e-05
-0.00310883
-0.00012717
-0.00309047
-0.00018708
-0.00305698
-0.000248363
-0.00301927
-0.000310095
-0.00298232
-0.000371781
-0.00294796
-0.000433167
-0.00291658
-0.00049414
-0.002888
-0.000554698
-0.00286192
-0.000614931
-0.00283824
-0.000674965
-0.00281711
-0.000734851
-0.00279895
-0.000794454
-0.00278422
-0.0027731
-0.000853472
1.50558e-05
-0.000705462
3.12802e-05
-0.00171234
3.2366e-05
-0.00237609
1.33105e-05
-0.0027666
-2.39293e-05
-0.00296398
-7.46095e-05
-0.00304034
-0.000133889
-0.00304955
-0.000198022
-0.00302634
-0.00026456
-0.00299044
-0.000332081
-0.00295175
-0.000399825
-0.00291458
-0.000467388
-0.0028804
-0.000534544
-0.00284943
-0.000601169
-0.00282137
-0.000667237
-0.00279586
-0.000732834
-0.00277264
-0.000798124
-0.00275182
-0.000863226
-0.00273385
-0.000928015
-0.00271943
-0.00270906
-0.000992052
1.11224e-05
-0.000716584
1.85314e-05
-0.00171975
8.6845e-06
-0.00236624
-2.14281e-05
-0.00273649
-6.87984e-05
-0.00291661
-0.000128374
-0.00298077
-0.000195435
-0.00298249
-0.000266525
-0.00295525
-0.000339484
-0.00291748
-0.000413123
-0.00287811
-0.000486834
-0.00284087
-0.000560299
-0.00280693
-0.000633324
-0.0027764
-0.000705768
-0.00274893
-0.000777557
-0.00272407
-0.000848731
-0.00270147
-0.000919464
-0.00268109
-0.000989951
-0.00266336
-0.0010601
-0.00264928
-0.0026398
-0.00112937
7.08716e-06
-0.000723671
5.74854e-06
-0.00171841
-1.4703e-05
-0.00234579
-5.53709e-05
-0.00269582
-0.000112324
-0.00285966
-0.000180296
-0.0029128
-0.000254734
-0.00290805
-0.000332472
-0.00287751
-0.000411633
-0.00283832
-0.000491242
-0.00279851
-0.000570837
-0.00276127
-0.000650198
-0.00272757
-0.000729177
-0.00269742
-0.000807634
-0.00267047
-0.000885439
-0.00264626
-0.000962556
-0.00262435
-0.00103913
-0.00260451
-0.00111546
-0.00258703
-0.00119152
-0.00257322
-0.00256437
-0.00126696
2.99738e-06
-0.000726669
-6.94715e-06
-0.00170847
-3.76209e-05
-0.00231512
-8.83197e-05
-0.00264512
-0.000154307
-0.00279367
-0.000230183
-0.00283692
-0.00031159
-0.00282664
-0.000395656
-0.00279345
-0.000480766
-0.00275321
-0.000566148
-0.00271312
-0.000651487
-0.00267593
-0.000736674
-0.00264239
-0.000821647
-0.00261245
-0.000906303
-0.00258582
-0.000990497
-0.00256207
-0.00107412
-0.00254073
-0.00115726
-0.00252136
-0.00124034
-0.00250396
-0.00132355
-0.00249
-0.00248042
-0.0014075
-1.10233e-06
-0.000725566
-1.94463e-05
-0.00169013
-5.99158e-05
-0.00227465
-0.000120105
-0.00258493
-0.000194579
-0.0027192
-0.000277867
-0.00275363
-0.000365827
-0.00273868
-0.000455868
-0.00270341
-0.000546621
-0.00266246
-0.000637499
-0.00262225
-0.000728337
-0.00258509
-0.000819162
-0.00255156
-0.000910049
-0.00252156
-0.00100103
-0.00249483
-0.00109206
-0.00247104
-0.00118302
-0.00244977
-0.00127392
-0.00243046
-0.00136513
-0.00241275
-0.00145722
-0.00239792
-0.0023847
-0.00155293
-5.17099e-06
-0.000720395
-3.16532e-05
-0.00166364
-8.14583e-05
-0.00222484
-0.000150588
-0.0025158
-0.000233004
-0.00263678
-0.000323214
-0.00266342
-0.000417295
-0.0026446
-0.00051292
-0.00260778
-0.000608935
-0.00256644
-0.000704913
-0.00252627
-0.000800816
-0.00248919
-0.000896806
-0.00245557
-0.000993142
-0.00242523
-0.00109012
-0.00239785
-0.00118802
-0.00237314
-0.00128705
-0.00235074
-0.00138733
-0.00233018
-0.00148943
-0.00231065
-0.00159565
-0.0022917
-0.00228493
-0.00169542
-9.15984e-06
-0.000711236
-4.34665e-05
-0.00162934
-0.000102121
-0.00216619
-0.000179639
-0.00243828
-0.000269463
-0.00254696
-0.000366112