/*--------------------------------*- C++ -*----------------------------------*\
  =========                 |
  \\      /  F ield         | OpenFOAM: The Open Source CFD Toolbox
   \\    /   O peration     | Website:  https://openfoam.org
    \\  /    A nd           | Version:  6.0
     \\/     M anipulation  |
\*---------------------------------------------------------------------------*/
FoamFile
{
    version     2.0;
    format      ascii;
    class       volVectorField;
    location    "12";
    object      U;
}
// * * * * * * * * * * * * * * * * * * * * * * * * * * * * * * * * * * * * * //

dimensions      [0 1 -1 0 0 0 0];

internalField   nonuniform List<vector> 
8000
(
(-0.000644068 0.0007554 -3.88741e-21)
(-0.00344834 0.00185885 2.07807e-20)
(-0.00858074 0.0026396 -2.52828e-20)
(-0.0148709 0.00318371 1.92556e-20)
(-0.0217342 0.00355198 9.38097e-21)
(-0.028857 0.00379158 -2.81713e-20)
(-0.0360213 0.00394111 -2.4917e-21)
(-0.0430912 0.00403216 -8.87005e-22)
(-0.0499968 0.00409055 -1.46436e-20)
(-0.0567152 0.0041374 -7.9403e-21)
(-0.0632569 0.00418989 5.91494e-21)
(-0.0696558 0.00426175 2.25276e-20)
(-0.0759611 0.00436358 -1.6747e-21)
(-0.0822304 0.00450316 2.42718e-21)
(-0.0885265 0.00468546 -2.27415e-20)
(-0.0949275 0.00491261 1.40246e-20)
(-0.101506 0.00518426 -2.0132e-20)
(-0.108182 0.00550032 3.04765e-20)
(-0.114724 0.00586191 -3.37894e-23)
(-0.122168 0.00624701 6.65886e-21)
(-0.000749454 0.00219704 1.29094e-20)
(-0.00368313 0.0053951 -6.59869e-20)
(-0.00886592 0.00764489 -4.55924e-20)
(-0.0151527 0.00920021 -3.09707e-20)
(-0.0219718 0.0102405 -3.98541e-20)
(-0.0290166 0.0109044 8.76119e-21)
(-0.0360738 0.0113054 -4.60282e-20)
(-0.0430108 0.0115359 -1.03508e-20)
(-0.0497597 0.0116715 3.25231e-21)
(-0.0562985 0.0117741 3.4428e-20)
(-0.0626385 0.0118942 -3.75891e-20)
(-0.0688141 0.0120723 5.23142e-20)
(-0.0748754 0.0123401 -3.9204e-20)
(-0.0808808 0.0127209 -4.65375e-20)
(-0.0868949 0.0132302 -6.42278e-20)
(-0.0929977 0.0138748 4.09702e-20)
(-0.0992657 0.0146542 -1.33224e-20)
(-0.10562 0.0155691 -4.84662e-20)
(-0.111826 0.0166236 4.58409e-20)
(-0.118923 0.0177518 -3.42918e-20)
(-0.000956461 0.00359643 1.26223e-19)
(-0.00414613 0.00883476 6.53948e-20)
(-0.0094312 0.0125181 7.35531e-20)
(-0.0157149 0.0150588 6.12354e-21)
(-0.0224502 0.01675 4.06622e-20)
(-0.0293444 0.0178189 5.07623e-20)
(-0.0361939 0.0184515 -9.22695e-20)
(-0.0428722 0.0187996 -4.88902e-20)
(-0.049315 0.0189878 -6.37175e-20)
(-0.0555027 0.0191182 6.80154e-20)
(-0.0614477 0.0192748 -5.19778e-20)
(-0.0671855 0.0195256 -6.69369e-20)
(-0.0727677 0.0199242 -2.43839e-20)
(-0.0782548 0.020511 2.3172e-20)
(-0.0837143 0.0213136 -6.50232e-21)
(-0.0892307 0.0223454 9.26691e-21)
(-0.0948867 0.0236075 1.07949e-19)
(-0.100609 0.0251025 -1.50872e-20)
(-0.106155 0.0268401 -1.1001e-19)
(-0.112573 0.0287095 1.46135e-19)
(-0.00125958 0.00492903 4.39537e-20)
(-0.00482803 0.0121206 -6.20428e-20)
(-0.0102697 0.0171799 -1.55759e-20)
(-0.0165559 0.0206637 2.91199e-20)
(-0.0231749 0.0229712 8.26907e-20)
(-0.0298543 0.0244133 1.81081e-19)
(-0.0364049 0.025245 1.76991e-19)
(-0.0427094 0.0256752 1.4726e-20)
(-0.0487089 0.0258755 1.08613e-19)
(-0.054387 0.0259879 1.66314e-19)
(-0.0597577 0.0261296 -1.32998e-19)
(-0.0648582 0.0263969 1.96816e-19)
(-0.0697417 0.0268671 -4.46886e-20)
(-0.0744717 0.0276002 1.12109e-20)
(-0.0791201 0.0286386 4.67188e-20)
(-0.0837776 0.0300055 6.21911e-20)
(-0.0885369 0.0317066 -9.77352e-20)
(-0.0933342 0.0337494 -8.17139e-20)
(-0.0979169 0.0361525 -1.44896e-19)
(-0.103344 0.0387601 2.12273e-19)
(-0.00165133 0.00617475 -2.29552e-20)
(-0.00571584 0.0152042 -2.35068e-19)
(-0.0113712 0.0215615 -6.95451e-20)
(-0.0176723 0.0259307 -1.69482e-19)
(-0.0241516 0.0288071 6.40667e-20)
(-0.0305635 0.0305791 -1.0107e-19)
(-0.0367371 0.0315659 3.47786e-20)
(-0.0425674 0.0320299 -2.14182e-19)
(-0.048003 0.0321877 1.13018e-19)
(-0.0530314 0.0322193 -1.34823e-19)
(-0.0576687 0.0322753 -1.19966e-19)
(-0.0619536 0.0324808 -1.34422e-19)
(-0.0659411 0.0329392 1.22092e-19)
(-0.069698 0.0337329 -1.09714e-19)
(-0.0733017 0.0349234 1.52828e-19)
(-0.076851 0.0365486 4.4269e-20)
(-0.0804523 0.0386233 1.09689e-19)
(-0.0840557 0.0411647 4.82478e-20)
(-0.0873987 0.0442066 -1.90978e-19)
(-0.0915547 0.0475484 3.13261e-19)
(-0.002123 0.00731894 1.01299e-19)
(-0.00679387 0.0180481 7.76245e-21)
(-0.0127225 0.0256077 4.17241e-20)
(-0.0190578 0.0307902 1.45575e-19)
(-0.0253843 0.0341767 -2.22774e-20)
(-0.031488 0.0362251 2.36456e-19)
(-0.0372213 0.0373134 1.04989e-19)
(-0.0424944 0.0377528 8.8214e-21)
(-0.0472651 0.0378014 2.70104e-19)
(-0.0515258 0.0376753 8.85692e-20)
(-0.055295 0.0375571 4.20269e-20)
(-0.0586123 0.0376017 1.33408e-19)
(-0.0615344 0.0379403 1.22374e-19)
(-0.0641311 0.0386815 2.23618e-19)
(-0.0664855 0.0399116 -1.99889e-19)
(-0.0687063 0.0416894 2.83087e-19)
(-0.0709171 0.0440461 3.95816e-21)
(-0.0730874 0.047016 -3.6242e-19)
(-0.0749484 0.0506568 4.70373e-19)
(-0.077591 0.0547267 1.96714e-19)
(-0.00266549 0.00835283 -5.96946e-20)
(-0.00804461 0.0206264 -1.08401e-19)
(-0.014307 0.0292777 -2.25505e-19)
(-0.0207015 0.0351895 -6.6829e-21)
(-0.0268705 0.0390173 3.85009e-20)
(-0.0326371 0.0412809 -2.87987e-19)
(-0.037881 0.04241 -2.13695e-19)
(-0.0425309 0.0427594 -3.05571e-20)
(-0.0465559 0.0426241 -2.70436e-19)
(-0.0499544 0.0422529 -1.87329e-19)
(-0.0527473 0.0418584 -5.46057e-20)
(-0.0549746 0.0416249 -1.7591e-19)
(-0.0566933 0.0417129 -2.81986e-21)
(-0.0579754 0.0422612 -2.33858e-19)
(-0.0589095 0.0433868 9.85527e-20)
(-0.059615 0.0451782 -1.12406e-19)
(-0.0602353 0.0476928 8.6362e-20)
(-0.0607662 0.0509929 -1.09644e-19)
(-0.0609397 0.0551739 -3.14088e-19)
(-0.06187 0.0599602 -9.56878e-20)
(-0.00326995 0.0092732 -2.20127e-20)
(-0.00944939 0.022925 -2.3889e-20)
(-0.0161043 0.0325458 1.89093e-19)
(-0.0225855 0.0390927 -3.07739e-19)
(-0.0285977 0.0432859 4.51467e-20)
(-0.0340064 0.0456983 -1.77776e-19)
(-0.0387227 0.0468044 8.40134e-20)
(-0.0426975 0.0469962 3.77715e-19)
(-0.0459136 0.0465999 -2.41911e-20)
(-0.0483767 0.045892 -2.81912e-19)
(-0.0501101 0.0451119 5.12448e-20)
(-0.0511535 0.0444708 9.89959e-21)
(-0.0515627 0.0441589 -5.80188e-20)
(-0.0514101 0.0443485 5.75428e-21)
(-0.050788 0.0451935 5.09793e-19)
(-0.0498263 0.0468221 -7.25504e-20)
(-0.0486905 0.0493311 -1.41806e-19)
(-0.0474092 0.0528267 -2.54799e-19)
(-0.045727 0.0574612 2.59872e-19)
(-0.0447918 0.0629407 1.12547e-19)
(-0.00392829 0.0100815 1.10997e-19)
(-0.0109887 0.0249395 -1.45251e-19)
(-0.0180891 0.0353991 2.05323e-19)
(-0.024682 0.04248 2.06653e-19)
(-0.0305382 0.0469578 1.90481e-19)
(-0.0355701 0.0494513 3.86259e-19)
(-0.0397251 0.0504723 2.49808e-19)
(-0.04298 0.0504428 -5.36846e-19)
(-0.0453345 0.0497134 2.74596e-19)
(-0.0468032 0.0485821 2.15532e-19)
(-0.0474127 0.0473092 -3.01682e-21)
(-0.0472014 0.046129 2.41405e-19)
(-0.0462223 0.0452591 1.88354e-19)
(-0.0445451 0.0449059 -1.0243e-19)
(-0.0422636 0.0452657 3.46545e-19)
(-0.0395161 0.0465168 -4.29677e-19)
(-0.0364907 0.0488116 1.7215e-19)
(-0.0332554 0.0523216 2.21668e-19)
(-0.0295828 0.057284 -5.19114e-20)
(-0.026674 0.0634121 4.46853e-19)
(-0.00463332 0.0107825 2.23218e-19)
(-0.0126422 0.026673 1.1551e-20)
(-0.0202304 0.0378353 -8.0078e-20)
(-0.0269508 0.0453444 -8.45502e-20)
(-0.0326436 0.0500245 -3.91514e-19)
(-0.0372728 0.0525339 5.54319e-20)
(-0.0408272 0.0534145 1.57089e-19)
(-0.0433138 0.0531108 -7.55346e-20)
(-0.0447525 0.0519907 6.23105e-20)
(-0.0451697 0.0503657 -1.6537e-20)
(-0.0445964 0.0485092 -8.14474e-20)
(-0.04307 0.0466715 7.72618e-20)
(-0.0406388 0.0450921 -3.36479e-19)
(-0.0373673 0.0440088 3.22463e-19)
(-0.0333464 0.0436624 -2.79586e-19)
(-0.0287196 0.0442897 8.63716e-20)
(-0.0236965 0.0461161 1.96737e-19)
(-0.018389 0.0494055 -4.09788e-20)
(-0.0126168 0.0545186 -1.36372e-19)
(-0.00766622 0.0612171 -9.2701e-20)
(-0.00537858 0.0113825 -2.7806e-19)
(-0.0143875 0.0281328 -1.82175e-20)
(-0.0224894 0.0398586 5.85343e-20)
(-0.0293359 0.0476876 1.50395e-19)
(-0.0348401 0.0524892 -2.12341e-19)
(-0.0390227 0.0549552 -1.85267e-19)
(-0.0419181 0.0556521 4.32428e-19)
(-0.0435686 0.0550399 -2.38933e-19)
(-0.0440185 0.0534959 -1.54131e-19)
(-0.0433095 0.0513366 -2.21171e-19)
(-0.0414797 0.0488393 1.4643e-19)
(-0.0385667 0.0462602 -3.976e-21)
(-0.0346136 0.0438507 -2.73501e-19)
(-0.0296773 0.0418722 -4.4763e-19)
(-0.023842 0.0406058 3.41019e-19)
(-0.0172515 0.0403508 -2.76507e-19)
(-0.0101335 0.0414202 3.92214e-19)
(-0.00264623 0.044201 -1.09918e-19)
(0.00532402 0.0492273 2.32092e-19)
(0.0123571 0.0563715 -7.83524e-19)
(-0.00615789 0.0118877 -5.63176e-19)
(-0.0161997 0.0293267 3.69117e-19)
(-0.024818 0.0414752 5.01991e-20)
(-0.0317633 0.0495156 9.70161e-21)
(-0.0370249 0.0543606 -2.27385e-19)
(-0.0406846 0.0567332 3.34355e-19)
(-0.0428279 0.0572191 3.65205e-20)
(-0.0435363 0.0562887 -6.85745e-20)
(-0.0428835 0.0543216 -2.19958e-19)
(-0.0409306 0.0516312 2.3781e-19)
(-0.037727 0.0484884 6.02908e-19)
(-0.0333137 0.0451433 -1.33239e-19)
(-0.0277304 0.0418457 3.00912e-19)
(-0.0210261 0.0388663 -3.55597e-19)
(-0.0132758 0.036514 -3.40974e-19)
(-0.0046191 0.0351444 2.05168e-19)
(0.0047034 0.0351647 3.39394e-19)
(0.0144879 0.0371131 -1.0994e-18)
(0.0247658 0.0417577 1.28966e-19)
(0.0339165 0.0491673 1.74601e-19)
(-0.00696465 0.0123029 4.17033e-19)
(-0.01805 0.0302605 1.37059e-19)
(-0.0271574 0.0426898 7.13844e-19)
(-0.0341385 0.0508329 3.66872e-20)
(-0.0390627 0.0556475 -7.93586e-20)
(-0.0420775 0.0578863 -3.77781e-19)
(-0.0433225 0.0581523 3.21295e-19)
(-0.0429234 0.0569222 5.76205e-19)
(-0.0409871 0.0545731 3.83926e-19)
(-0.0375995 0.0514091 2.77002e-19)
(-0.0328262 0.0476859 2.38712e-19)
(-0.0267174 0.0436354 -4.2904e-19)
(-0.0193147 0.03949 -1.34518e-19)
(-0.010663 0.0355097 -9.88538e-20)
(-0.000829031 0.0320095 1.06056e-18)
(0.0100539 0.0293813 -3.67416e-21)
(0.0217363 0.0281165 -2.64413e-19)
(0.0339732 0.0289188 -8.35355e-20)
(0.0467084 0.0328539 7.58939e-19)
(0.0580405 0.0402976 9.72337e-20)
(-0.00779121 0.0126306 -2.0632e-20)
(-0.0199041 0.0309357 -3.94228e-19)
(-0.0294364 0.0435018 -5.86213e-19)
(-0.0363458 0.0516388 -1.63016e-19)
(-0.0407859 0.0563526 8.99952e-20)
(-0.0429727 0.0584266 1.94046e-20)
(-0.0431034 0.0584806 5.13839e-19)
(-0.0413503 0.056997 -6.37302e-19)
(-0.0378571 0.0543488 -2.42385e-19)
(-0.0327391 0.0508275 -4.88395e-19)
(-0.0260847 0.0466687 -4.15981e-19)
(-0.0179605 0.0420773 -3.68146e-19)
(-0.00841994 0.0372539 9.20212e-20)
(0.0024871 0.0324265 -1.194e-19)
(0.014694 0.0278868 5.11833e-19)
(0.0280694 0.0240272 -2.80792e-19)
(0.0423545 0.0213888 -8.79709e-19)
(0.0572697 0.020827 -1.77514e-19)
(0.0726842 0.0237544 4.34079e-19)
(0.0863374 0.030979 -3.76872e-19)
(-0.00862818 0.0128703 -6.65341e-20)
(-0.0217212 0.0313479 4.81895e-19)
(-0.0315707 0.0439041 -6.14424e-19)
(-0.0382479 0.0519249 1.42061e-19)
(-0.0419942 0.0564691 -2.9234e-19)
(-0.0430966 0.0583537 6.51021e-19)
(-0.0418113 0.0582172 -4.6523e-19)
(-0.0383579 0.0565491 5.32214e-19)
(-0.0329193 0.0537204 -5.04449e-19)
(-0.0256432 0.0500117 2.15246e-19)
(-0.016647 0.0456394 -1.04475e-19)
(-0.00602396 0.0407792 -2.62091e-19)
(0.00614841 0.0355928 -3.23726e-19)
(0.0197983 0.0302595 3.22673e-19)
(0.034842 0.0250179 -2.70134e-19)
(0.051135 0.0202153 -5.90481e-19)
(0.0683989 0.0163811 6.14834e-19)
(0.0863206 0.0144634 -7.83775e-19)
(0.104736 0.0162295 3.5314e-19)
(0.120983 0.0230318 1.14211e-20)
(-0.00946403 0.0130191 -6.02578e-19)
(-0.0234531 0.0314877 -6.5032e-19)
(-0.0334622 0.0438828 7.49716e-20)
(-0.0396852 0.0516749 -6.2667e-19)
(-0.0424561 0.0559806 -5.56306e-20)
(-0.0421338 0.0576545 -4.6083e-19)
(-0.0390329 0.0573565 -1.05676e-19)
(-0.0334197 0.0555874 -3.08762e-19)
(-0.0255159 0.052721 2.88078e-21)
(-0.0155038 0.0490336 -1.35006e-19)
(-0.00353507 0.0447296 9.61043e-21)
(0.0102608 0.0399629 -3.89073e-19)
(0.025766 0.0348603 4.28839e-19)
(0.0428649 0.0295491 -6.08125e-19)
(0.0614288 0.0241976 2.15438e-19)
(0.0812711 0.0190664 8.08963e-21)
(0.102067 0.014596 -3.425e-19)
(0.123454 0.0117164 8.49547e-19)
(0.1453 0.0124795 -2.02309e-19)
(0.164604 0.0188334 -1.31542e-19)
(-0.0102846 0.0130719 6.76148e-19)
(-0.0250429 0.0313414 3.64987e-19)
(-0.034997 0.0434195 3.39405e-19)
(-0.0404755 0.0508678 5.06661e-20)
(-0.0419093 0.0548655 4.58761e-19)
(-0.0397297 0.0563081 6.61072e-19)
(-0.0343079 0.0558809 5.41022e-19)
(-0.0259545 0.0541001 4.84735e-20)
(-0.0149284 0.0513489 3.96114e-19)
(-0.00144723 0.0479092 6.11913e-19)
(0.0142994 0.0439857 -1.58617e-19)
(0.0321363 0.0397261 2.66337e-19)
(0.0518891 0.0352393 2.15063e-19)
(0.073373 0.0306168 2.18858e-19)
(0.0963799 0.0259629 1.29278e-18)
(0.120639 0.0214359 -4.84518e-19)
(0.145733 0.0173237 -2.93703e-20)
(0.171205 0.0143913 5.60526e-19)
(0.197012 0.0148037 -3.17583e-19)
(0.220066 0.0210564 1.57073e-19)
(-0.011073 0.0130228 -5.4653e-19)
(-0.026424 0.0308934 3.48885e-20)
(-0.0360443 0.0424946 -4.37095e-19)
(-0.0404118 0.0494833 -5.68502e-20)
(-0.0400595 0.0531047 3.19841e-19)
(-0.0354914 0.0542978 -9.52179e-19)
(-0.0271331 0.0537756 -7.12718e-22)
(-0.015337 0.0520734 4.43038e-19)
(-0.000397383 0.0495906 4.16076e-19)
(0.0174326 0.0466236 -1.83271e-19)
(0.0379214 0.0433915 6.03803e-20)
(0.0608392 0.0400555 1.4004e-19)
(0.08594 0.0367339 -6.63916e-20)
(0.112944 0.0335159 -7.43318e-19)
(0.141526 0.0304808 1.88199e-19)
(0.171279 0.0277176 5.17138e-19)
(0.201625 0.0253563 -7.36548e-19)
(0.23192 0.0238825 3.58874e-19)
(0.262216 0.0253594 9.60121e-20)
(0.289863 0.0326963 4.84876e-19)
(-0.0118085 0.012865 -8.05293e-20)
(-0.0275174 0.0301282 -3.82654e-19)
(-0.0364526 0.0410917 1.761e-19)
(-0.0392586 0.0475095 8.46326e-22)
(-0.036577 0.0506934 -7.67006e-19)
(-0.0289854 0.0516268 1.19736e-19)
(-0.016963 0.051051 -2.2714e-20)
(-0.000903218 0.0495223 1.54755e-19)
(0.0188641 0.0474591 -7.08321e-19)
(0.0420473 0.0451785 -4.96155e-20)
(0.0683677 0.0429241 -1.66321e-19)
(0.0975336 0.0408872 1.47998e-19)
(0.129216 0.0392226 4.99373e-19)
(0.163024 0.0380618 -7.72397e-20)
(0.198484 0.0375269 2.99319e-20)
(0.234994 0.0377361 1.96109e-19)
(0.271716 0.0387846 -4.86198e-20)
(0.307632 0.0409856 3.94197e-19)
(0.342634 0.04635 -2.3003e-19)
(0.375057 0.0579996 -3.58766e-19)
(-0.0124662 0.0125919 7.47992e-20)
(-0.0282303 0.0290324 1.83284e-20)
(-0.0360468 0.0392026 1.53387e-19)
(-0.036748 0.0449503 3.75607e-19)
(-0.0310925 0.0476525 2.10748e-19)
(-0.0197346 0.0483356 2.19657e-20)
(-0.00320992 0.0477673 -2.51482e-19)
(0.0180435 0.0465229 6.44839e-20)
(0.0436533 0.0450378 3.39001e-19)
(0.0732806 0.0436481 -5.74409e-19)
(0.106589 0.0426207 4.33385e-19)
(0.143218 0.0421781 -3.26508e-19)
(0.182757 0.0425193 2.76952e-19)
(0.224723 0.0438407 -5.97173e-19)
(0.268537 0.0463608 6.56579e-19)
(0.313471 0.0503382 -7.02001e-19)
(0.358512 0.0560688 -1.82184e-19)
(0.402257 0.0641728 5.70295e-19)
(0.443661 0.0772376 -1.93397e-19)
(0.479706 0.0980803 8.53589e-20)
(-0.0130151 0.0121968 -5.65469e-20)
(-0.0284521 0.027597 5.33732e-19)
(-0.0346238 0.036831 -2.24111e-21)
(-0.0325753 0.0418326 -3.31325e-19)
(-0.0231936 0.0440393 -2.22749e-19)
(-0.0072177 0.044517 4.08132e-19)
(0.0147518 0.044055 -1.6165e-19)
(0.0422182 0.0432412 -2.03614e-20)
(0.0747474 0.0425198 3.36839e-19)
(0.111928 0.0422331 -4.18478e-19)
(0.153339 0.042653 4.58406e-20)
(0.198526 0.0440071 -5.43845e-19)
(0.246984 0.0465015 2.86214e-19)
(0.298161 0.0503474 -8.18569e-19)
(0.35146 0.0557961 1.30273e-18)
(0.406262 0.0631836 -2.38962e-19)
(0.461955 0.0730301 2.47211e-19)
(0.518179 0.0865556 -6.42449e-19)
(0.575274 0.106876 6.08654e-21)
(0.624888 0.131465 7.14242e-19)
(-0.013417 0.0116733 -1.71205e-19)
(-0.0280522 0.0258181 1.47861e-19)
(-0.0319497 0.0339955 -5.44886e-19)
(-0.0263971 0.0382112 8.05964e-19)
(-0.0124262 0.039955 -5.81889e-19)
(0.00912536 0.0403261 3.00457e-20)
(0.0375714 0.0401278 -6.27539e-19)
(0.0723278 0.0399506 4.48686e-19)
(0.112859 0.0402329 -6.41207e-20)
(0.158631 0.0413021 -3.95967e-19)
(0.209078 0.0434045 -2.30979e-19)
(0.263586 0.0467278 2.44132e-19)
(0.321485 0.0514191 1.61258e-19)
(0.38207 0.0576019 -7.12984e-19)
(0.44463 0.0653928 2.57631e-19)
(0.508496 0.074913 -3.78762e-19)
(0.57311 0.0863055 4.57914e-20)
(0.638216 0.0999007 -3.19176e-19)
(0.704417 0.116825 1.27085e-19)
(0.764896 0.134368 -4.72668e-19)
(-0.0136243 0.0110149 4.8744e-19)
(-0.0268771 0.0236985 -2.95322e-19)
(-0.0277585 0.0307327 2.43328e-19)
(-0.0178336 0.0341725 -3.07191e-19)
(0.00169879 0.0355478 5.14831e-19)
(0.0298768 0.0359824 -8.98606e-21)
(0.0658933 0.0362826 -6.27003e-20)
(0.109027 0.0370273 -4.65063e-20)
(0.158577 0.0386294 2.86146e-19)
(0.213809 0.0413756 4.86515e-19)
(0.273927 0.0454533 -2.87378e-19)
(0.338061 0.05097 2.79282e-19)
(0.405281 0.0579677 5.09596e-19)
(0.474628 0.0664353 -3.57364e-19)
(0.545157 0.0763158 -7.23384e-19)
(0.615991 0.0875073 1.32077e-18)
(0.686376 0.0998511 -2.3608e-19)
(0.755758 0.113158 -7.60955e-20)
(0.824134 0.127661 8.10696e-19)
(0.887059 0.143286 -1.74163e-19)
(-0.0135793 0.0102165 -7.93225e-19)
(-0.0247501 0.0212503 -5.28018e-19)
(-0.0217549 0.0270998 -2.02692e-19)
(-0.00647605 0.0298365 3.91134e-19)
(0.0196882 0.0310133 -8.83205e-19)
(0.0556117 0.0317656 4.5751e-19)
(0.10031 0.0328872 5.79943e-20)
(0.15285 0.0349244 5.86529e-20)
(0.212276 0.0382384 -5.99479e-19)
(0.277552 0.0430427 -2.11694e-19)
(0.347548 0.0494289 -3.73009e-19)
(0.421047 0.0573862 3.60092e-19)
(0.496775 0.0668182 1.01829e-19)
(0.573461 0.0775571 1.95515e-20)
(0.649889 0.0893756 4.66257e-19)
(0.724959 0.101993 -4.731e-19)
(0.797734 0.115073 -1.9332e-20)
(0.867477 0.128235 1.3174e-20)
(0.933767 0.141253 6.57069e-20)
(0.994478 0.156083 3.5755e-19)
(-0.0132135 0.00927508 2.52504e-19)
(-0.0214728 0.0184973 6.5026e-19)
(-0.0136195 0.0231768 5.21806e-19)
(0.00809951 0.0253582 -1.79927e-19)
(0.0420415 0.0265924 6.26038e-19)
(0.0868555 0.0280078 -5.274e-20)
(0.141297 0.0303614 -7.43274e-20)
(0.204121 0.0341374 4.42456e-20)
(0.274001 0.0396087 6.05573e-19)
(0.349488 0.0468744 3.55816e-19)
(0.429017 0.0558881 1.03932e-19)
(0.51095 0.0664836 6.53279e-21)
(0.59364 0.0784006 -6.87485e-19)
(0.675512 0.0913089 5.97351e-19)
(0.755139 0.104832 1.01801e-19)
(0.831301 0.118564 -1.68395e-19)
(0.903023 0.132084 -7.24092e-19)
(0.9696 0.144988 -5.97064e-20)
(1.03054 0.156808 2.83476e-19)
(1.08563 0.170708 -5.65861e-20)
(-0.0124479 0.00819191 -6.40289e-19)
(-0.016828 0.0154789 2.67897e-19)
(-0.0030191 0.0190715 -1.30833e-18)
(0.0263131 0.0209295 5.36071e-19)
(0.0692178 0.022569 -4.276e-19)
(0.124033 0.0250827 3.15309e-19)
(0.189144 0.0291559 -4.90045e-19)
(0.262865 0.0351675 4.49829e-20)
(0.343371 0.0432534 -2.52752e-20)
(0.42869 0.0533481 1.31818e-19)
(0.516751 0.0652222 1.90163e-19)
(0.605477 0.0785222 -3.59324e-19)
(0.692887 0.0928108 1.9041e-19)
(0.777204 0.107607 1.74387e-19)
(0.856937 0.122423 7.49687e-19)
(0.93093 0.13679 -3.26466e-19)
(0.998385 0.150282 -2.14711e-19)
(1.05885 0.162555 3.60039e-19)
(1.11209 0.173115 1.89169e-19)
(1.15905 0.185548 -3.60114e-19)
(-0.0111946 0.00697473 5.60535e-19)
(-0.0105861 0.0122546 5.40431e-19)
(0.0103807 0.0149225 1.56067e-19)
(0.0485566 0.0167812 6.57297e-19)
(0.101597 0.0192667 3.23125e-19)
(0.167413 0.0233945 -5.82603e-19)
(0.24388 0.0297281 8.82687e-19)
(0.328727 0.0384829 -4.34426e-19)
(0.419508 0.0495974 4.33709e-19)
(0.513645 0.062786 5.60961e-19)
(0.608552 0.0775963 -3.20541e-19)
(0.701771 0.0934691 6.09509e-20)
(0.791123 0.1098 3.38662e-19)
(0.874813 0.125993 2.38078e-19)
(0.951506 0.141505 5.46246e-19)
(1.02034 0.155876 -2.1964e-19)
(1.08089 0.168748 -2.79615e-20)
(1.13317 0.179888 3.40452e-19)
(1.17736 0.188934 -7.37281e-20)
(1.21506 0.199356 -9.89012e-24)
(-0.00935886 0.0056403 -2.89287e-19)
(-0.00251334 0.00890905 -1.06322e-18)
(0.0268986 0.0109046 2.50475e-19)
(0.0751666 0.0131839 -1.90722e-19)
(0.139439 0.0170433 -4.40556e-19)
(0.217055 0.0233625 -3.14839e-19)
(0.305219 0.0325153 -1.94529e-19)
(0.400932 0.044481 4.72323e-19)
(0.501028 0.0589322 -2.80511e-19)
(0.602313 0.075313 -2.87411e-19)
(0.701757 0.0929236 -3.62924e-19)
(0.796685 0.111008 -5.98952e-20)
(0.884936 0.128834 -4.1057e-20)
(0.96495 0.145754 -8.35413e-19)
(1.03579 0.161247 4.0318e-19)
(1.09709 0.174938 -5.30542e-19)
(1.14898 0.186599 1.64835e-19)
(1.19198 0.196148 -1.25569e-18)
(1.22681 0.203437 3.78934e-19)
(1.25531 0.211519 4.74725e-19)
(-0.00684227 0.00421664 -7.26938e-20)
(0.00761866 0.00555581 5.18268e-19)
(0.0468193 0.00723059 3.32578e-20)
(0.106395 0.0104464 8.00169e-20)
(0.182846 0.0162817 -1.62718e-19)
(0.272766 0.0254021 -2.74099e-21)
(0.372524 0.0379054 -4.2187e-21)
(0.478272 0.0534513 -9.83141e-20)
(0.586099 0.071382 3.48788e-19)
(0.692271 0.0908382 1.34704e-19)
(0.793495 0.11088 6.11094e-19)
(0.887131 0.130599 -1.66464e-19)
(0.971317 0.149206 1.15928e-19)
(1.04499 0.16609 -1.4715e-20)
(1.10781 0.180836 3.202e-19)
(1.16007 0.193222 1.9503e-19)
(1.2025 0.203196 4.67606e-19)
(1.23614 0.210845 -7.53848e-19)
(1.26213 0.216244 9.45588e-19)
(1.2824 0.221927 -2.9911e-19)
(-0.00354636 0.00274487 -6.7492e-19)
(0.020021 0.00234011 -2.10939e-19)
(0.0703726 0.00415227 1.64691e-19)
(0.142377 0.00891073 1.03884e-19)
(0.23172 0.0173761 1.06718e-19)
(0.334064 0.0299005 1.08079e-19)
(0.444794 0.0462048 -2.70752e-19)
(0.559158 0.0655452 -1.11814e-19)
(0.672567 0.0868867 3.47739e-20)
(0.780937 0.109067 -3.31335e-19)
(0.880992 0.130955 -1.49588e-19)
(0.97044 0.15157 9.03424e-19)
(1.048 0.170169 -2.33214e-19)
(1.11334 0.186265 -3.20131e-19)
(1.16684 0.199628 -1.50955e-19)
(1.20948 0.210235 1.05062e-19)
(1.24254 0.21823 1.26855e-19)
(1.26748 0.223856 -6.07428e-19)
(1.28575 0.22738 8.76493e-19)
(1.29919 0.230831 -7.58615e-19)
(0.000623316 0.00128036 -7.61461e-20)
(0.0348747 -0.000560439 2.1776e-20)
(0.0977118 0.00195695 -2.79846e-20)
(0.183108 0.00894118 4.0794e-19)
(0.285745 0.0207123 2.26324e-20)
(0.400176 0.0371895 1.4994e-19)
(0.520706 0.0576098 -3.11764e-19)
(0.64172 0.0807577 -1.13365e-20)
(0.758135 0.105209 4.32899e-19)
(0.865821 0.129545 6.02021e-20)
(0.961863 0.152533 -3.76502e-19)
(1.04463 0.173234 -3.31012e-20)
(1.11367 0.191053 -3.0793e-19)
(1.16948 0.205716 3.07052e-19)
(1.21322 0.217224 4.24569e-19)
(1.24646 0.225772 -4.67305e-20)
(1.27093 0.231685 -5.65297e-20)
(1.28831 0.235335 1.72401e-19)
(1.30021 0.237117 -5.51914e-19)
(1.30834 0.238638 4.86778e-19)
(0.00575248 -0.000106853 7.6756e-20)
(0.0523176 -0.00293761 -4.94361e-19)
(0.128893 0.000960369 1.32237e-19)
(0.228413 0.0109097 -4.10953e-19)
(0.344364 0.0266442 1.41389e-19)
(0.470048 0.0475178 -5.25114e-19)
(0.598681 0.0721865 2.11876e-19)
(0.723945 0.0989279 -6.75317e-20)
(0.840576 0.125965 -2.77996e-21)
(0.944771 0.151721 6.88906e-20)
(1.03433 0.174984 -2.50648e-19)
(1.10855 0.194979 -3.57298e-19)
(1.16794 0.211353 -7.29654e-20)
(1.21385 0.224102 -3.27483e-20)
(1.24811 0.233474 -8.29852e-20)
(1.27276 0.239868 -2.69423e-20)
(1.28978 0.243753 -8.06087e-20)
(1.30095 0.245588 -6.97602e-20)
(1.30786 0.245836 -2.06585e-19)
(1.31204 0.245774 3.2707e-19)
(0.0119132 -0.00133258 1.84036e-19)
(0.0724305 -0.00455688 -2.04465e-19)
(0.163858 0.00149562 4.40266e-19)
(0.27794 0.0151763 -1.90241e-19)
(0.406792 0.0354689 5.08533e-19)
(0.542396 0.0610296 7.43121e-21)
(0.676989 0.0898638 2.55483e-19)
(0.803848 0.119759 -6.86195e-20)
(0.917926 0.148679 2.85331e-19)
(1.01614 0.175023 2.04245e-20)
(1.09732 0.197742 6.77673e-19)
(1.16185 0.216335 -4.67358e-19)
(1.2112 0.230758 6.31444e-20)
(1.24751 0.241296 1.20141e-19)
(1.27311 0.248428 6.25618e-19)
(1.29031 0.252718 -2.2466e-19)
(1.30117 0.254732 -4.43887e-20)
(1.30746 0.254969 -2.34126e-19)
(1.31061 0.253918 -2.43282e-20)
(1.31198 0.2526 1.16885e-19)
(0.0191587 -0.00229981 -8.80806e-20)
(0.095225 -0.00516429 2.54834e-19)
(0.202418 0.00389875 -2.61449e-19)
(0.331147 0.0220679 1.03052e-19)
(0.472036 0.0474039 -1.23679e-19)
(0.615778 0.0777509 4.53468e-19)
(0.753884 0.110443 -6.33547e-20)
(0.87963 0.142854 1.5534e-19)
(0.988631 0.172835 -9.16653e-20)
(1.07889 0.198921 -2.52581e-21)
(1.15046 0.220357 1.04182e-19)
(1.20484 0.236998 -8.06765e-20)
(1.24441 0.249137 2.09044e-19)
(1.27188 0.257333 -1.04273e-19)
(1.28993 0.262258 -4.57193e-19)
(1.30094 0.264589 4.54059e-19)
(1.30693 0.26494 -2.04012e-19)
(1.3095 0.263809 1.62837e-19)
(1.30992 0.261683 2.81501e-19)
(1.30933 0.259383 1.15571e-19)
(0.0275182 -0.00290098 2.193e-19)
(0.120633 -0.00449561 -4.52045e-19)
(0.244249 0.00849203 8.64231e-20)
(0.387325 0.0318567 -6.28105e-20)
(0.538947 0.0625701 -2.53794e-19)
(0.688691 0.0975891 -1.99174e-19)
(0.827722 0.13362 -3.92318e-20)
(0.949799 0.167765 -3.54857e-19)
(1.05162 0.19794 -2.16626e-20)
(1.13255 0.222976 -6.5884e-20)
(1.19392 0.242518 -1.78596e-19)
(1.23831 0.256818 -3.97262e-20)
(1.2688 0.2665 -1.3641e-19)
(1.2885 0.272356 -2.27099e-19)
(1.30021 0.275197 2.32174e-19)
(1.30626 0.275761 3.17151e-20)
(1.3085 0.274664 6.31876e-20)
(1.30833 0.272377 -2.66395e-19)
(1.30682 0.269367 -6.81395e-21)
(1.30489 0.266297 -4.09712e-19)
(0.0369926 -0.00302119 2.39941e-19)
(0.148499 -0.00228733 1.60181e-19)
(0.28889 0.0155663 -2.58712e-19)
(0.445609 0.044742 4.03977e-19)
(0.606277 0.080983 -4.36764e-20)
(0.75966 0.120344 1.51004e-19)
(0.897071 0.159021 5.22995e-20)
(1.01324 0.194036 1.85106e-19)
(1.10632 0.223559 -1.4496e-19)
(1.17714 0.246857 4.82556e-20)
(1.22832 0.264041 -4.62737e-20)
(1.26331 0.275766 -2.02337e-20)
(1.28571 0.282947 3.86261e-20)
(1.2988 0.286556 -7.10324e-20)
(1.30536 0.287484 -2.17439e-20)
(1.30754 0.286482 -6.65974e-20)
(1.30698 0.284136 -1.08093e-19)
(1.30484 0.280871 6.98383e-20)
(1.30199 0.277129 -9.54645e-20)
(1.29919 0.273438 4.12751e-19)
(0.0475502 -0.00254218 -1.19646e-19)
(0.178579 0.00171109 -3.39422e-19)
(0.335756 0.0253641 -4.52124e-20)
(0.505027 0.0608364 -1.24401e-20)
(0.672751 0.102553 -1.52287e-19)
(0.827335 0.14573 -2.50135e-19)
(0.960783 0.186236 8.18286e-20)
(1.06926 0.221235 -1.12446e-19)
(1.15256 0.249335 -1.25862e-19)
(1.21307 0.270337 7.00804e-20)
(1.25449 0.284847 -5.29191e-20)
(1.28098 0.293892 -1.0695e-19)
(1.29639 0.298624 -3.50301e-21)
(1.30405 0.300129 7.2432e-20)
(1.30653 0.299328 -7.37251e-20)
(1.30578 0.296948 1.02308e-19)
(1.30317 0.293521 2.75796e-20)
(1.29965 0.289416 6.9232e-20)
(1.2959 0.285055 1.34612e-19)
(1.29251 0.28084 -1.15275e-19)
(0.0591247 -0.00134701 1.14204e-19)
(0.21054 0.00772453 -9.91068e-21)
(0.384154 0.0380642 5.14491e-20)
(0.564538 0.0801579 -6.97006e-20)
(0.737139 0.127096 5.83745e-21)
(0.890553 0.173398 2.42078e-19)
(1.01802 0.214848 -1.58938e-19)
(1.11749 0.248981 6.73452e-20)
(1.19055 0.274993 5.93837e-20)
(1.24097 0.293282 -1.66636e-19)
(1.2734 0.304932 1.56542e-19)
(1.29242 0.311292 1.40883e-21)
(1.30199 0.313683 -1.10153e-19)
(1.30527 0.31325 1.32733e-19)
(1.30461 0.310897 -5.26434e-20)
(1.30168 0.3073 4.02298e-20)
(1.29761 0.302924 -4.50035e-20)
(1.29314 0.298081 -1.80493e-20)
(1.2888 0.293178 -1.5712e-19)
(1.28505 0.288496 4.81693e-20)
(0.0716139 0.0006748 -3.83859e-20)
(0.243966 0.01594 1.03286e-19)
(0.433312 0.0537708 1.61504e-20)
(0.623087 0.10263 6.76326e-20)
(0.798311 0.154344 3.23187e-20)
(0.948377 0.202964 1.51563e-20)
(1.06826 0.244459 8.58049e-20)
(1.15791 0.276951 -1.03901e-20)
(1.2207 0.300334 3.78261e-20)
(1.26162 0.31562 6.07363e-20)
(1.286 0.324332 2.92959e-20)
(1.29864 0.32807 2.1029e-20)
(1.30343 0.328262 8.5248e-20)
(1.30328 0.326056 -8.25226e-20)
(1.30025 0.322307 1.77024e-20)
(1.29574 0.317621 -1.6582e-20)
(1.29065 0.312394 2.56321e-20)
(1.28556 0.306885 2.1474e-20)
(1.28086 0.301488 4.47984e-20)
(1.27688 0.296365 1.84678e-21)
(0.0848805 0.00362204 2.2765e-20)
(0.278375 0.0264956 2.07949e-20)
(0.482406 0.0725051 -2.88181e-20)
(0.679649 0.128084 1.80123e-20)
(0.855287 0.183967 1.01846e-20)
(1.00012 0.234027 -3.1696e-20)
(1.11123 0.274701 1.04543e-20)
(1.19072 0.304876 1.90223e-21)
(1.24357 0.325215 1.80253e-20)
(1.27581 0.337324 -4.83567e-20)
(1.29318 0.3431 -1.50693e-22)
(1.3005 0.344325 1.33989e-20)
(1.30147 0.342469 -1.06794e-20)
(1.29869 0.338641 1.08023e-20)
(1.29392 0.333626 2.81921e-20)
(1.2883 0.327951 -1.60454e-20)
(1.28252 0.32194 4.46658e-21)
(1.27704 0.31581 1.75764e-20)
(1.27213 0.309949 -2.89539e-20)
(1.26804 0.304391 1.39109e-20)
(0.0987556 0.00757673 6.32684e-20)
(0.313229 0.0394716 -3.44666e-20)
(0.530598 0.0942034 4.0627e-20)
(0.733273 0.156273 -3.02416e-20)
(0.907258 0.215592 -1.35723e-20)
(1.04531 0.266189 4.11262e-21)
(1.14692 0.305239 -1.33236e-20)
(1.21628 0.332538 4.79143e-20)
(1.25981 0.349537 -3.99133e-20)
(1.2843 0.358387 9.37245e-21)
(1.2957 0.361288 -6.98078e-21)
(1.2987 0.36013 -4.55163e-20)
(1.29668 0.356372 4.41641e-20)
(1.29194 0.351055 1.68274e-20)
(1.28593 0.344877 -1.67325e-20)
(1.27956 0.338284 3.93037e-20)
(1.27336 0.331536 -5.74889e-22)
(1.26766 0.324814 -3.8139e-20)
(1.26266 0.3185 2.82455e-20)
(1.25854 0.3125 8.92541e-21)
(0.113041 0.0125996 -2.21772e-20)
(0.347953 0.0548846 6.42753e-20)
(0.577063 0.118718 7.43497e-20)
(0.783114 0.186879 -3.51183e-20)
(0.953599 0.248814 6.10803e-20)
(1.08371 0.299062 9.67265e-20)
(1.17546 0.335777 -5.34835e-21)
(1.23504 0.359755 -1.66449e-20)
(1.27006 0.373221 8.21249e-20)
(1.2878 0.378807 4.00701e-20)
(1.29423 0.378931 -7.28653e-21)
(1.29379 0.375528 5.98062e-20)
(1.28952 0.370004 -6.41901e-20)
(1.28336 0.363308 1.00001e-19)
(1.2765 0.356047 -1.66817e-20)
(1.26965 0.348588 4.78773e-20)
(1.26322 0.341131 8.65582e-21)
(1.25745 0.33383 3.42762e-20)
(1.25245 0.327068 -3.26119e-20)
(1.24837 0.320612 7.90752e-21)
(0.127516 0.018726 -3.45183e-20)
(0.381959 0.0726834 8.1598e-20)
(0.621021 0.145823 6.06971e-20)
(0.828448 0.219531 -9.21721e-21)
(0.993862 0.283214 9.47843e-20)
(1.11523 0.332276 -7.09859e-20)
(1.19712 0.366047 -5.59479e-21)
(1.2475 0.386371 6.26081e-20)
(1.27492 0.396203 1.98716e-20)
(1.28691 0.398573 2.78847e-20)
(1.28931 0.396041 -4.12084e-20)
(1.28622 0.390531 1.07616e-19)
(1.28029 0.383361 2.0141e-20)
(1.27315 0.375377 -9.54218e-20)
(1.26577 0.367092 1.39677e-19)
(1.25866 0.358801 -1.64878e-19)
(1.25216 0.350652 -7.58115e-20)
(1.24641 0.342782 1.25688e-20)
(1.24149 0.335568 7.36188e-20)
(1.23752 0.328642 -1.39127e-19)
(0.141943 0.025963 -7.73619e-20)
(0.414659 0.092749 -1.82693e-19)
(0.661762 0.175222 -1.58197e-19)
(0.868692 0.253815 -2.15402e-19)
(1.02776 0.318367 -1.22389e-19)
(1.13994 0.365479 -2.53853e-19)
(1.21225 0.395805 3.2265e-20)
(1.25417 0.412245 -1.35092e-19)
(1.27495 0.418416 -1.48721e-20)
(1.28217 0.417658 2.22545e-20)