/*--------------------------------*- C++ -*----------------------------------*\
  =========                 |
  \\      /  F ield         | OpenFOAM: The Open Source CFD Toolbox
   \\    /   O peration     | Website:  https://openfoam.org
    \\  /    A nd           | Version:  6.0
     \\/     M anipulation  |
\*---------------------------------------------------------------------------*/
FoamFile
{
    version     2.0;
    format      ascii;
    class       volVectorField;
    location    "23";
    object      U;
}
// * * * * * * * * * * * * * * * * * * * * * * * * * * * * * * * * * * * * * //

dimensions      [0 1 -1 0 0 0 0];

internalField   nonuniform List<vector> 
4000
(
(0.0929098 0.00729321 5.81793e-20)
(0.296769 0.038307 -3.16327e-20)
(0.505297 0.092079 3.72422e-20)
(0.701769 0.15377 -2.77087e-20)
(0.872498 0.21355 -1.2426e-20)
(1.0099 0.265369 3.75561e-21)
(1.11272 0.306143 -1.2196e-20)
(1.18432 0.335363 4.38637e-20)
(1.23048 0.35423 -3.65237e-20)
(1.25753 0.364743 8.56971e-21)
(1.2712 0.369032 -6.38678e-21)
(1.2761 0.368985 -4.15976e-20)
(1.27563 0.366097 4.03477e-20)
(1.27215 0.361453 1.53598e-20)
(1.26718 0.3558 -1.5282e-20)
(1.26168 0.349624 3.58698e-20)
(1.25624 0.343213 -5.28121e-22)
(1.25122 0.336767 -3.47966e-20)
(1.24685 0.330686 2.57787e-20)
(1.24336 0.324915 8.12259e-21)
(0.106834 0.0120827 -2.03861e-20)
(0.330924 0.0531418 5.91264e-20)
(0.551467 0.115892 6.83051e-20)
(0.751912 0.183741 -3.22185e-20)
(0.919825 0.246298 5.60625e-20)
(1.04983 0.297927 8.87078e-20)
(1.14312 0.336456 -4.8813e-21)
(1.20501 0.362359 -1.52223e-20)
(1.24255 0.377629 7.5217e-20)
(1.26263 0.384769 3.66696e-20)
(1.27108 0.386161 -6.64993e-21)
(1.27229 0.383758 5.46513e-20)
(1.26935 0.37901 -5.85935e-20)
(1.26428 0.372918 9.12292e-20)
(1.25834 0.366133 -1.5219e-20)
(1.25227 0.359059 4.3577e-20)
(1.24653 0.351922 7.84747e-21)
(1.24138 0.34489 3.11785e-20)
(1.23697 0.338357 -2.9681e-20)
(1.23348 0.332132 7.13403e-21)
(0.121 0.0179547 -3.1727e-20)
(0.364522 0.0703404 7.53468e-20)
(0.59537 0.1423 5.59641e-20)
(0.797796 0.215784 -8.47665e-21)
(0.961253 0.28025 8.71611e-20)
(1.08297 0.330828 -6.50639e-20)
(1.16659 0.366472 -5.09039e-21)
(1.21927 0.388701 5.74594e-20)
(1.24905 0.400257 1.82577e-20)
(1.26316 0.404075 2.55267e-20)
(1.26733 0.402702 -3.76866e-20)
(1.26567 0.398096 9.82278e-20)
(1.2609 0.391628 1.83283e-20)
(1.25472 0.384195 -8.69814e-20)
(1.24814 0.376353 1.27022e-19)
(1.24175 0.368427 -1.49849e-19)
(1.23587 0.360588 -6.87577e-20)
(1.23071 0.352984 1.14004e-20)
(1.22635 0.346 6.67726e-20)
(1.22293 0.339311 -1.25799e-19)
(0.135176 0.0249216 -7.14657e-20)
(0.396981 0.0897977 -1.68557e-19)
(0.636279 0.171019 -1.45707e-19)
(0.8388 0.249493 -1.98399e-19)
(0.996452 0.31498 -1.1254e-19)
(1.10931 0.363719 -2.33348e-19)
(1.18345 0.395949 2.9647e-20)
(1.22762 0.414253 -1.2388e-19)
(1.25056 0.422063 -1.35945e-20)
(1.25967 0.42265 2.03724e-20)
(1.26043 0.418658 -4.47716e-20)
(1.2566 0.411995 5.59568e-20)
(1.25053 0.403929 9.96408e-20)
(1.24363 0.395243 -1.40011e-19)
(1.2367 0.386399 2.25401e-20)
(1.23017 0.377654 6.50316e-20)
(1.2243 0.36913 1.08864e-19)
(1.21922 0.360961 -9.38963e-20)
(1.21497 0.353524 -4.52872e-21)
(1.21169 0.346358 1.10332e-19)
(0.149121 0.0329665 -1.34796e-19)
(0.427734 0.111343 3.69597e-19)
(0.673551 0.201707 -6.51294e-20)
(0.87444 0.284431 8.64525e-20)
(1.02524 0.350068 -8.46584e-20)
(1.129 0.396265 2.59904e-19)
(1.19409 0.424666 -4.12303e-20)
(1.23054 0.438893 2.45075e-20)
(1.24762 0.442984 -1.24817e-20)
(1.25263 0.440466 4.02889e-20)
(1.25077 0.434005 2.60488e-20)
(1.24537 0.425422 3.296e-20)
(1.23845 0.415861 -9.35733e-20)
(1.23115 0.405993 1.3703e-19)
(1.22408 0.396191 -1.04165e-19)
(1.21757 0.38665 1.98136e-20)
(1.21182 0.377453 -6.68155e-20)
(1.20692 0.368724 1.43455e-20)
(1.20284 0.36083 1.62096e-20)
(1.19976 0.35318 -1.50327e-19)
(0.162587 0.0420417 9.74374e-21)
(0.45625 0.134745 -1.86166e-19)
(0.706634 0.233968 1.02812e-19)
(0.904366 0.320143 -3.58823e-19)
(1.04757 0.385099 1.73801e-19)
(1.14227 0.428154 -2.98095e-19)
(1.19889 0.452415 -2.32922e-19)
(1.22852 0.462496 -8.89788e-21)
(1.24067 0.46295 -7.90138e-20)
(1.24244 0.45747 -2.46105e-19)
(1.23863 0.44869 -3.08428e-20)
(1.23218 0.438311 -2.36133e-19)
(1.22479 0.427347 4.26873e-20)
(1.21736 0.416356 -3.40523e-20)
(1.21034 0.405632 1.9994e-20)
(1.20398 0.395313 -1.58885e-19)
(1.19845 0.385452 8.03845e-21)
(1.19379 0.376169 3.16755e-20)
(1.18995 0.367817 -7.40238e-20)
(1.18713 0.359679 6.44985e-20)
(0.175333 0.0520695 -7.64386e-20)
(0.482051 0.159718 3.4049e-19)
(0.735086 0.267368 2.55276e-21)
(0.92836 0.356164 -2.94966e-19)
(1.0635 0.419674 2.22869e-19)
(1.1494 0.459089 9.37341e-20)
(1.19829 0.479 1.895e-20)
(1.22201 0.484938 -1.58135e-19)
(1.23011 0.481874 2.56837e-19)
(1.2294 0.473589 -1.5062e-19)
(1.22425 0.462635 5.43544e-20)
(1.21721 0.450575 2.54643e-19)
(1.20966 0.438287 -2.28968e-19)
(1.20231 0.426225 2.51778e-19)
(1.1955 0.414609 -1.63239e-19)
(1.18942 0.403531 -3.20016e-20)
(1.18419 0.393017 3.88525e-20)
(1.17985 0.383189 4.91531e-20)
(1.17632 0.374378 6.77602e-20)
(1.17382 0.365757 4.07804e-20)
(0.187128 0.0629433 3.06028e-20)
(0.504716 0.185929 -3.06343e-19)
(0.758568 0.301447 5.42789e-20)
(0.946316 0.392029 7.11738e-19)
(1.07317 0.453404 -6.56009e-20)
(1.15072 0.488787 1.97484e-19)
(1.19268 0.504231 1.23184e-19)
(1.21139 0.506089 2.04653e-20)
(1.2163 0.499655 -1.42884e-19)
(1.21381 0.488728 2.34219e-19)
(1.20783 0.475741 -2.74485e-20)
(1.20057 0.462106 3.55323e-19)
(1.19314 0.448568 1.36902e-19)
(1.18607 0.435483 8.57966e-20)
(1.17961 0.423005 -1.78688e-19)
(1.17391 0.411186 3.76745e-20)
(1.16907 0.400034 1.38945e-19)
(1.16511 0.389669 3.59536e-20)
(1.16194 0.380404 -1.68614e-19)
(1.15984 0.371313 -4.21305e-20)
(0.197758 0.0745297 -1.70363e-19)
(0.523898 0.21301 5.49173e-19)
(0.776847 0.335729 -2.98919e-19)
(0.958235 0.42728 -2.75228e-19)
(1.07681 0.485921 -2.39563e-19)
(1.14659 0.516981 -2.02016e-19)
(1.18247 0.527921 -2.49032e-19)
(1.19706 0.525812 3.11907e-19)
(1.19954 0.516177 -2.22389e-19)
(1.19587 0.502775 -1.79468e-20)
(1.18953 0.487892 -1.87593e-21)
(1.18238 0.472782 -4.24759e-20)
(1.1753 0.458062 -1.09259e-19)
(1.16868 0.444 -1.21698e-19)
(1.1627 0.430692 -6.51737e-21)
(1.15748 0.418155 -2.71321e-20)
(1.15311 0.406381 -6.66075e-20)
(1.14961 0.395494 -2.04534e-20)
(1.14686 0.385784 2.29602e-20)
(1.14521 0.376246 -1.42298e-19)
(0.207033 0.0866721 2.98399e-19)
(0.539323 0.240564 3.08377e-19)
(0.789794 0.36973 -1.91503e-19)
(0.964206 0.461472 1.1792e-19)
(1.07468 0.516875 2.0377e-19)
(1.13736 0.543419 -4.20594e-20)
(1.16802 0.549887 5.01842e-20)
(1.17933 0.543964 5.63088e-20)
(1.18009 0.531315 9.35388e-20)
(1.17578 0.515606 -1.09551e-19)
(1.16948 0.498957 5.36366e-20)
(1.16272 0.482468 -3.65458e-20)
(1.1562 0.466634 1.64218e-19)
(1.1502 0.451642 7.12043e-20)
(1.14482 0.437539 -1.62786e-19)
(1.14018 0.42431 8.92134e-20)
(1.13635 0.411936 4.46177e-20)
(1.13336 0.400545 -8.06868e-20)
(1.13111 0.390403 2.19991e-19)
(1.12998 0.380452 -1.61325e-19)
(0.214788 0.0991941 -2.19418e-19)
(0.550797 0.268178 -2.84744e-19)
(0.797374 0.402973 1.99209e-19)
(0.964395 0.494181 -1.83784e-19)
(1.06711 0.545936 -1.69498e-20)
(1.12342 0.567858 -2.01067e-19)
(1.14972 0.569951 1.67039e-19)
(1.15852 0.5604 3.0648e-19)
(1.15818 0.544933 -4.26282e-19)
(1.15372 0.527085 2.20318e-20)
(1.14779 0.5088 1.66759e-20)
(1.14168 0.491023 -8.45622e-20)
(1.13592 0.474142 5.90235e-20)
(1.13067 0.458271 -2.46131e-20)
(1.12602 0.44341 1.62292e-19)
(1.12204 0.42952 -1.7502e-19)
(1.11884 0.416571 -5.96058e-20)
(1.11644 0.404697 1.57225e-19)
(1.11474 0.394143 -2.32136e-19)
(1.11419 0.383822 1.46701e-19)
(0.220893 0.111904 4.55496e-19)
(0.558202 0.295433 4.02526e-19)
(0.799637 0.434993 -6.76541e-20)
(0.959035 0.525003 -8.5781e-21)
(1.05443 0.572796 -2.04523e-19)
(1.10514 0.590074 8.71037e-20)
(1.12789 0.58794 4.25166e-19)
(1.1349 0.574972 -3.73092e-19)
(1.13405 0.556892 2.34245e-19)
(1.12983 0.537073 -2.03345e-20)
(1.12459 0.517276 1.42107e-19)
(1.11935 0.498303 -3.63011e-20)
(1.11451 0.480441 8.47426e-20)
(1.11017 0.463743 1.08025e-19)
(1.10635 0.448167 -6.15116e-20)
(1.10314 0.43365 7.26762e-20)
(1.10064 0.420155 -1.00475e-19)
(1.09888 0.407819 2.5823e-19)
(1.09781 0.39687 -1.58993e-19)
(1.09792 0.386229 1.14167e-19)
(0.225247 0.1246 -2.21674e-19)
(0.561496 0.321909 -4.13391e-19)
(0.796712 0.465345 -2.85422e-19)
(0.948411 0.553564 -2.0122e-20)
(1.03701 0.597171 6.77904e-20)
(1.08291 0.609856 -3.71959e-20)
(1.10288 0.603689 -2.41456e-19)
(1.10876 0.587536 -1.04665e-19)
(1.10787 0.567053 -1.89657e-19)
(1.10428 0.545428 -9.01552e-20)
(1.09997 0.524242 4.55449e-20)
(1.0958 0.504162 -2.16626e-19)
(1.09204 0.485389 -4.88452e-20)
(1.08874 0.467916 -4.71799e-20)
(1.08589 0.45167 -1.5202e-19)
(1.08354 0.436563 6.69949e-20)
(1.08181 0.422552 3.23855e-21)
(1.08077 0.409769 6.02829e-20)
(1.0804 0.398436 -2.53207e-20)
(1.08124 0.387524 -8.4649e-20)
(0.227787 0.137073 5.12316e-19)
(0.560709 0.347198 4.45761e-19)
(0.7888 0.493609 5.50139e-19)
(0.932855 0.579521 -5.72407e-20)
(1.01525 0.618805 -1.9627e-19)
(1.05708 0.627011 5.84399e-19)
(1.07501 0.617043 -2.87088e-19)
(1.08034 0.597952 3.15979e-19)
(1.07985 0.575279 -5.70518e-20)
(1.07718 0.552013 1.90445e-19)
(1.07404 0.52956 2.16824e-20)
(1.07111 0.508461 8.61633e-20)
(1.06858 0.488841 -1.89723e-20)
(1.06645 0.470649 8.35702e-20)
(1.06468 0.453779 -6.23258e-20)
(1.0633 0.438122 7.12479e-21)
(1.06243 0.423623 3.20172e-20)
(1.06217 0.410405 4.82675e-20)
(1.06257 0.398691 -4.74208e-21)
(1.06419 0.387561 2.05071e-20)
(0.228485 0.149115 -1.56936e-19)
(0.555937 0.370909 -4.38558e-19)
(0.776159 0.519399 -2.66361e-19)
(0.912733 0.602561 -4.63615e-19)
(0.989535 0.637465 4.94421e-19)
(1.02804 0.641366 -3.42441e-19)
(1.04458 0.627857 2.14879e-19)
(1.04988 0.606089 -7.65213e-20)
(1.05017 0.581444 -8.77023e-20)
(1.04868 0.556702 -6.11923e-20)
(1.04689 0.533098 3.22523e-20)
(1.04535 0.511066 3.56211e-20)
(1.04419 0.490664 2.2541e-20)
(1.04336 0.471803 -3.81749e-20)
(1.04279 0.454352 -1.83536e-20)
(1.04249 0.438184 6.18705e-20)
(1.04257 0.423224 -1.62923e-20)
(1.04316 0.409581 -9.59975e-21)
(1.04439 0.397494 6.73106e-21)
(1.04681 0.386224 9.6308e-21)
(0.227347 0.160519 6.87072e-19)
(0.547339 0.392677 3.21005e-19)
(0.7591 0.542365 3.00454e-19)
(0.888444 0.62241 -1.76186e-19)
(0.960282 0.652951 2.04489e-20)
(0.99616 0.652768 2.46789e-19)
(1.01191 0.636007 3.02415e-20)
(1.01762 0.611832 5.8368e-20)
(1.019 0.585434 6.13549e-20)
(1.01892 0.55938 -1.53706e-21)
(1.01863 0.534744 2.26242e-20)
(1.01859 0.511861 -1.05607e-20)
(1.0189 0.490735 -1.8545e-20)
(1.01949 0.471249 -2.08783e-20)
(1.02026 0.453251 1.08872e-20)
(1.02117 0.436599 4.27621e-21)
(1.02231 0.421199 -7.32826e-21)
(1.02384 0.407131 9.53185e-22)
(1.02594 0.394675 2.84699e-20)
(1.02922 0.383362 -2.36745e-20)
(0.224413 0.171089 -4.87194e-19)
(0.535127 0.412168 -4.19729e-19)
(0.737977 0.562195 1.97711e-19)
(0.860408 0.638831 -2.40018e-19)
(0.927905 0.665088 -1.88293e-20)
(0.961796 0.661086 2.51004e-20)
(0.977287 0.641382 -3.52545e-20)
(0.983808 0.615081 -3.29216e-20)
(0.986542 0.587153 -5.13044e-20)
(0.988025 0.559953 -3.39123e-20)
(0.98935 0.534405 -2.32203e-20)
(0.990904 0.510754 1.12474e-20)
(0.992762 0.48896 2.38311e-21)
(0.994861 0.468881 1.35026e-21)
(0.997094 0.450355 6.03338e-21)
(0.99938 0.433232 -4.5585e-20)
(1.00173 0.417396 -4.19126e-20)
(1.0043 0.40287 -4.59381e-20)
(1.00741 0.389964 -2.81163e-22)
(1.01179 0.378617 7.20809e-20)
(0.219755 0.18064 4.45177e-19)
(0.519562 0.42908 1.90351e-20)
(0.713183 0.578619 -4.49795e-20)
(0.829063 0.651621 5.2027e-20)
(0.892823 0.673735 1.54015e-19)
(0.92532 0.666213 -1.16902e-19)
(0.94102 0.643893 3.05122e-20)
(0.948672 0.615754 -5.06579e-20)
(0.952967 0.586525 -6.65479e-21)
(0.956148 0.558351 -5.75211e-21)
(0.959162 0.532014 -4.07659e-20)
(0.962352 0.507677 -3.54583e-20)
(0.965797 0.485259 3.76688e-20)
(0.969466 0.464606 -1.54298e-20)
(0.973269 0.445552 -1.59732e-19)
(0.977086 0.427953 1.55133e-19)
(0.980836 0.411674 -9.50096e-20)
(0.984684 0.396607 -6.09208e-20)
(0.9892 0.382984 7.44604e-20)
(0.995166 0.371367 -9.27292e-20)
(0.213475 0.189002 -9.44546e-20)
(0.500946 0.443151 1.01754e-19)
(0.685135 0.591412 5.7411e-20)
(0.79486 0.660618 -8.56162e-20)
(0.855461 0.678779 3.32177e-20)
(0.887096 0.668069 -5.87669e-20)
(0.903409 0.643476 -1.45676e-20)
(0.91246 0.613796 1.33274e-20)
(0.918477 0.583503 -3.22922e-21)
(0.923439 0.554535 -9.7189e-20)
(0.928173 0.527539 2.19531e-20)
(0.93299 0.502598 3.70315e-21)
(0.937992 0.479589 1.16442e-19)
(0.9432 0.458335 -3.01603e-19)
(0.948582 0.438674 2.80717e-19)
(0.954018 0.420491 1.49963e-19)
(0.959373 0.403645 -3.19084e-20)
(0.964891 0.387819 2.39137e-20)
(0.971434 0.373028 2.67826e-19)
(0.979288 0.360793 -1.11434e-19)
(0.205699 0.196024 -2.7223e-20)
(0.479613 0.45416 6.53226e-20)
(0.654277 0.60039 -6.40615e-20)
(0.758262 0.665696 8.4488e-20)
(0.816246 0.680137 -2.87439e-20)
(0.847495 0.666594 1.86547e-20)
(0.864764 0.640086 2.22657e-20)
(0.875432 0.609175 -6.47609e-20)
(0.883289 0.578073 6.49983e-20)
(0.890078 0.548515 4.66491e-20)
(0.896523 0.521022 2.48196e-20)
(0.902902 0.495594 3.0639e-21)
(0.909333 0.472051 9.81329e-20)
(0.915892 0.450164 -9.96694e-20)
(0.922613 0.429731 1.18064e-19)
(0.929427 0.410623 -2.46531e-19)
(0.93625 0.392647 2.76183e-19)
(0.943512 0.37519 -2.37473e-19)
(0.952171 0.358002 -1.58846e-19)
(0.961127 0.34448 2.72933e-19)
(0.196577 0.201578 2.51284e-20)
(0.455926 0.461927 -1.41135e-20)
(0.621065 0.605413 -4.2877e-21)
(0.719733 0.666766 -3.79278e-20)
(0.775604 0.677755 6.78985e-21)
(0.806886 0.661753 6.0152e-21)
(0.825403 0.633698 -1.51172e-19)
(0.837862 0.601877 1.00642e-19)
(0.847649 0.570237 1.01838e-19)
(0.856296 0.540329 -1.43959e-19)
(0.86443 0.51256 1.70437e-19)
(0.872292 0.486862 -6.48087e-20)
(0.87999 0.463001 1.29026e-19)
(0.887599 0.440688 -2.05692e-19)
(0.895167 0.419637 4.28377e-19)
(0.902656 0.399601 -9.63259e-20)
(0.91009 0.380181 -2.65524e-20)
(0.918129 0.360151 2.82696e-19)
(0.927551 0.337612 -1.37509e-19)
(0.933485 0.315027 6.17485e-20)
(0.186278 0.205556 -5.30415e-20)
(0.430266 0.466313 5.7026e-20)
(0.585966 0.606383 -3.14396e-20)
(0.679743 0.663771 3.99243e-20)
(0.733961 0.671602 -2.09912e-20)
(0.765643 0.653527 -1.55047e-19)
(0.78565 0.624298 2.36923e-19)
(0.80004 0.591891 1.65131e-20)
(0.811829 0.559994 -2.55246e-20)
(0.822364 0.529989 5.08978e-21)
(0.832192 0.502193 7.92315e-20)
(0.841522 0.476499 1.3678e-19)
(0.850438 0.452666 8.17719e-20)
(0.858972 0.430418 -1.94841e-19)
(0.867114 0.40951 -5.63726e-20)
(0.8748 0.389752 -9.06157e-21)
(0.882127 0.370883 3.70367e-20)
(0.889678 0.352231 5.20833e-21)
(0.897413 0.333095 4.18741e-19)
(0.900761 0.315566 -2.9216e-19)
(0.174981 0.20787 1.46593e-19)
(0.403025 0.467217 -1.85618e-20)
(0.549448 0.603236 -1.09073e-19)
(0.638754 0.656686 3.4814e-19)
(0.691737 0.661674 7.14356e-20)
(0.724133 0.641918 -2.14046e-19)
(0.745828 0.611886 2.01774e-19)
(0.762259 0.579216 -4.65892e-20)
(0.776105 0.547339 1.80177e-19)
(0.788554 0.51748 8.33039e-20)
(0.800098 0.48988 -3.96417e-19)
(0.810933 0.464401 -4.57411e-20)
(0.821144 0.440791 5.53518e-19)
(0.830767 0.418784 -6.77805e-19)
(0.839779 0.398143 6.26869e-19)
(0.848113 0.378673 2.17504e-19)
(0.855829 0.360102 -7.72629e-19)
(0.863321 0.341868 3.73878e-19)
(0.870421 0.323667 -7.65235e-20)
(0.873693 0.307842 8.95875e-20)
(0.162877 0.208457 -2.80206e-19)
(0.374602 0.46458 -2.89676e-19)
(0.51198 0.595954 1.97802e-19)
(0.597222 0.64552 -2.50874e-19)
(0.649345 0.647991 -6.91029e-19)
(0.682719 0.626946 -2.4039e-20)
(0.706257 0.596477 -2.05421e-19)
(0.72481 0.563861 9.35522e-21)
(0.740747 0.532277 -4.06554e-19)
(0.755125 0.502812 -4.13764e-19)
(0.768388 0.475641 -2.8215e-19)
(0.780728 0.450606 -1.17682e-20)
(0.792238 0.42746 -6.97416e-19)
(0.802967 0.405955 -6.10441e-21)
(0.812916 0.385881 3.40297e-19)
(0.822055 0.367078 -3.38337e-19)
(0.830455 0.349335 -2.61307e-19)
(0.838439 0.332224 2.51553e-19)
(0.84583 0.315564 -1.80381e-19)
(0.849815 0.301213 3.46768e-20)
(0.150166 0.207278 2.27336e-19)
(0.345399 0.45838 1.76502e-19)
(0.474023 0.58455 -7.34939e-21)
(0.555595 0.630311 -1.47265e-19)
(0.607187 0.630597 3.55492e-19)
(0.641753 0.608649 5.74361e-19)
(0.667252 0.578098 -5.98225e-20)
(0.687978 0.545842 1.0267e-20)
(0.706028 0.514813 1.11721e-19)
(0.722345 0.48597 2.55673e-19)
(0.737344 0.459436 3.71058e-19)
(0.751219 0.435038 -3.00734e-19)
(0.764079 0.412535 2.96443e-19)
(0.775989 0.391688 -1.02301e-19)
(0.786972 0.372304 3.45874e-19)
(0.797027 0.35423 -1.3468e-19)
(0.806255 0.337279 -3.34826e-19)
(0.81498 0.321115 2.01253e-19)
(0.823054 0.305672 -2.87568e-19)
(0.828022 0.292513 -3.2665e-19)
(0.137048 0.204313 1.02932e-19)
(0.315813 0.448633 1.86373e-19)
(0.436026 0.569078 -1.95958e-19)
(0.514304 0.611127 8.26649e-21)
(0.565648 0.60956 3.37147e-20)
(0.601577 0.587086 2.7412e-19)
(0.629115 0.556797 -4.04818e-19)
(0.652038 0.525192 3.84644e-19)
(0.672198 0.494965 -3.73613e-20)
(0.690446 0.466961 1.05169e-19)
(0.707179 0.441257 1.70005e-19)
(0.7226 0.417672 -3.24188e-19)
(0.736839 0.395969 1.55087e-19)
(0.749984 0.375926 1.47431e-19)
(0.762084 0.357359 5.44494e-20)
(0.773169 0.340126 -2.79033e-19)
(0.783365 0.324054 9.39885e-19)
(0.792992 0.308855 -5.26319e-19)
(0.801899 0.294496 9.55853e-19)
(0.807906 0.282272 -6.20938e-20)
(0.123724 0.199566 7.5244e-20)
(0.286232 0.435388 4.41884e-19)
(0.398425 0.549621 1.57435e-19)
(0.473763 0.588067 3.27229e-19)
(0.525101 0.584975 8.57013e-20)
(0.562516 0.562337 -5.23987e-19)
(0.592134 0.532637 8.12863e-19)
(0.61725 0.50196 4.21504e-19)
(0.639498 0.472771 1.77618e-20)
(0.659655 0.445807 5.46161e-19)
(0.678104 0.421108 8.85912e-20)
(0.695066 0.39849 5.71928e-20)
(0.71069 0.377721 3.26624e-19)
(0.725089 0.358589 -1.22239e-19)
(0.738338 0.340921 -1.28635e-19)
(0.750497 0.324578 7.6117e-19)
(0.761716 0.309397 -6.35764e-19)
(0.772306 0.295129 2.46859e-20)
(0.782107 0.281757 8.0476e-19)
(0.789181 0.270344 -8.00127e-22)
(0.110393 0.193059 -9.49872e-19)
(0.257031 0.418731 -1.5929e-19)
(0.361638 0.5263 -2.16622e-19)
(0.43437 0.561258 -1.65781e-19)
(0.485898 0.556959 -4.21027e-19)
(0.524881 0.534505 1.44136e-19)
(0.556586 0.505704 -2.0195e-19)
(0.583862 0.476215 5.87742e-20)
(0.608154 0.448282 -2.9234e-19)
(0.630177 0.422545 -2.7633e-19)
(0.650309 0.399015 5.78985e-20)
(0.668787 0.377503 -4.47643e-19)
(0.685784 0.357788 3.57822e-19)
(0.701436 0.339667 -1.29278e-19)
(0.715842 0.322974 4.04891e-19)
(0.729087 0.307575 -8.73713e-19)
(0.741341 0.293314 -1.65925e-19)
(0.752897 0.27997 -3.13584e-19)
(0.763594 0.267531 -8.42092e-19)
(0.771722 0.256859 -1.35657e-19)
(0.0972488 0.184837 1.54726e-19)
(0.228572 0.398776 -1.7997e-20)
(0.32606 0.499265 -2.39676e-19)
(0.396497 0.530854 8.46822e-20)
(0.448373 0.525656 -1.71215e-19)
(0.488965 0.503715 -2.18463e-21)
(0.522728 0.476103 2.33089e-19)
(0.552107 0.448046 -3.48059e-19)
(0.578377 0.421572 1.35729e-19)
(0.602203 0.397236 -7.85325e-20)
(0.623964 0.375023 2.13763e-20)
(0.643915 0.354746 -3.89529e-19)
(0.662251 0.336192 -4.73837e-19)
(0.679129 0.31917 -1.79661e-20)
(0.694672 0.303519 5.27992e-19)
(0.708985 0.289111 2.46438e-20)
(0.722251 0.275798 6.68204e-19)
(0.734747 0.263385 -9.73998e-19)
(0.746315 0.251857 5.18191e-19)
(0.755473 0.241901 8.92924e-19)
(0.0844762 0.17496 -1.35714e-19)
(0.201196 0.37567 7.29108e-20)
(0.292066 0.468694 4.74405e-19)
(0.360496 0.497036 1.17226e-19)
(0.412837 0.49123 -1.58017e-19)
(0.455041 0.470112 1.24775e-19)
(0.490804 0.44396 4.9095e-19)
(0.522202 0.417562 -3.9851e-19)
(0.550362 0.392737 3.70084e-20)
(0.57591 0.369962 -1.45468e-19)
(0.599229 0.349203 5.26103e-19)
(0.620592 0.330278 3.75905e-19)
(0.640213 0.312985 -5.45475e-20)
(0.658272 0.297142 -5.70658e-19)
(0.674908 0.282599 3.03161e-20)
(0.69025 0.269231 -7.04239e-20)
(0.704485 0.256901 3.356e-19)
(0.717873 0.245437 5.45964e-19)
(0.730274 0.234816 4.76865e-19)
(0.74042 0.225576 -7.96861e-19)
(0.0722525 0.163509 -8.51237e-20)
(0.175226 0.349586 3.63142e-19)
(0.260005 0.434795 -3.53939e-19)
(0.326693 0.460011 4.92553e-19)
(0.379579 0.453873 -2.67667e-19)
(0.423364 0.433863 1.92237e-19)
(0.461039 0.409423 4.87856e-19)
(0.494348 0.384892 -5.86937e-19)
(0.524292 0.361891 2.67443e-19)
(0.551463 0.340824 3.38589e-19)
(0.576251 0.321645 -4.60203e-19)
(0.598946 0.30418 -3.2605e-20)
(0.619784 0.288239 -3.69282e-19)
(0.638959 0.273652 5.92504e-19)
(0.656631 0.260279 -3.21334e-19)
(0.672944 0.248 3.45153e-19)
(0.688089 0.236691 -6.24165e-20)
(0.702311 0.2262 2.13457e-19)
(0.715492 0.216497 4.86959e-20)
(0.726576 0.20799 -1.24576e-19)
(0.0607438 0.15058 -2.61214e-19)
(0.150959 0.320724 -6.00642e-19)
(0.230199 0.397804 1.58086e-19)
(0.295388 0.420009 -5.06974e-19)
(0.348868 0.413793 -4.80321e-19)
(0.394167 0.395156 -3.45385e-19)
(0.43364 0.372658 2.69175e-19)
(0.468732 0.350185 2.07019e-19)
(0.500333 0.329165 -1.41703e-21)
(0.529013 0.309942 -1.80606e-19)
(0.555166 0.29246 -3.25951e-19)
(0.5791 0.276554 2.93951e-19)
(0.601068 0.262049 -1.01247e-19)
(0.621282 0.24879 -5.00913e-19)
(0.639918 0.236645 3.2614e-19)
(0.657132 0.225505 -2.45019e-19)
(0.673118 0.215256 -9.98518e-20)
(0.688105 0.205766 -2.79526e-19)
(0.702008 0.196998 -2.5314e-19)
(0.713968 0.189253 6.54981e-20)
(0.0501038 0.136283 2.28159e-19)
(0.128671 0.289307 1.18174e-19)
(0.202942 0.357976 1.80901e-19)
(0.266857 0.377281 -6.17524e-19)
(0.320945 0.371222 6.61375e-19)
(0.367666 0.354198 2.8988e-21)
(0.408796 0.333848 5.33284e-21)
(0.445522 0.313605 -4.03269e-19)
(0.478639 0.294712 3.76576e-19)
(0.508696 0.277454 -2.62077e-19)
(0.536096 0.261773 7.9026e-20)
(0.561163 0.247517 -3.51484e-19)
(0.584165 0.234526 -1.67272e-19)
(0.605329 0.22266 -7.98938e-20)
(0.624844 0.2118 6.02382e-19)
(0.642879 0.201845 -2.95726e-19)
(0.659629 0.192695 -2.66946e-19)
(0.675308 0.184237 2.74638e-19)
(0.689867 0.176426 -2.25521e-19)
(0.702634 0.169477 1.75747e-19)
(0.0404729 0.120744 4.85267e-19)
(0.108609 0.255584 -2.9308e-19)
(0.1785 0.315594 4.38887e-20)
(0.241344 0.3321 5.13521e-19)
(0.296027 0.326408 2.03918e-19)
(0.34405 0.311211 2.52935e-19)
(0.386678 0.293194 2.51839e-19)
(0.424871 0.275335 5.34264e-19)
(0.459347 0.258696 -1.22477e-19)
(0.490638 0.243514 2.92505e-19)
(0.519155 0.229728 4.25156e-19)
(0.545237 0.217202 1.56659e-19)
(0.569165 0.205796 2.83755e-19)
(0.591179 0.195383 1.02982e-19)
(0.611481 0.185859 6.05756e-20)
(0.63025 0.177134 -4.3921e-20)
(0.647679 0.169121 3.52341e-19)
(0.663971 0.161723 2.17264e-19)
(0.679116 0.154893 -1.97511e-19)
(0.692612 0.148777 1.86265e-19)
(0.0319766 0.104102 -3.22276e-19)
(0.0909946 0.219819 3.63161e-20)
(0.157106 0.270955 -9.31247e-20)
(0.219067 0.284755 -2.82953e-19)
(0.274307 0.279616 -1.4993e-19)
(0.323488 0.266434 -2.72577e-19)
(0.367436 0.250912 1.26735e-19)
(0.406915 0.235571 -4.90337e-19)
(0.442579 0.221299 2.89636e-19)
(0.474948 0.208287 -4.0068e-19)
(0.504443 0.196479 -2.48874e-19)
(0.531411 0.185756 -3.29487e-19)
(0.556149 0.175996 7.54878e-20)
(0.578906 0.16709 -7.45308e-20)
(0.599896 0.158949 8.91078e-20)
(0.619304 0.151493 4.79585e-20)
(0.637324 0.144651 9.53104e-20)
(0.654147 0.138341 -7.97917e-19)
(0.669804 0.132516 3.97122e-19)
(0.68394 0.127269 -2.38101e-19)
(0.0247243 0.0865072 1.06547e-19)
(0.0760181 0.182295 2.15187e-19)
(0.138964 0.224378 -1.40426e-19)
(0.200214 0.235553 3.46857e-19)
(0.255952 0.231126 -5.56877e-20)
(0.306128 0.220119 4.01782e-19)
(0.351199 0.20723 7.77052e-20)
(0.39177 0.194521 -8.16163e-20)
(0.428441 0.182712 2.97086e-19)
(0.461724 0.171952 2.2721e-19)
(0.492046 0.162193 8.43191e-20)
(0.519766 0.153334 1.10895e-19)
(0.545188 0.145274 5.56295e-20)
(0.568575 0.137922 -2.36217e-19)
(0.590146 0.131203 -3.29024e-20)
(0.610095 0.125053 2.4677e-19)
(0.628612 0.119412 -1.68672e-19)
(0.645882 0.114215 -7.83935e-21)
(0.661972 0.109416 -3.53389e-19)
(0.676654 0.105073 7.11811e-19)
(0.0188091 0.0681182 2.85786e-19)
(0.063841 0.143313 -3.43196e-19)
(0.124244 0.176194 1.61004e-19)
(0.18494 0.184812 -2.27838e-19)
(0.241099 0.18123 2.01034e-19)
(0.292092 0.17253 -3.49186e-19)
(0.338077 0.162387 -2.55843e-19)
(0.379535 0.152404 1.91654e-20)
(0.417023 0.143137 -3.48958e-19)
(0.451046 0.134698 -2.17871e-19)
(0.482039 0.127046 -3.77395e-19)
(0.510367 0.120102 -1.26756e-20)
(0.536345 0.113786 -1.46663e-19)
(0.560241 0.108027 3.71261e-19)
(0.582283 0.102766 2.55986e-19)
(0.602669 0.0979507 -8.59591e-20)
(0.621587 0.0935359 -7.77103e-20)
(0.639218 0.0894718 -3.47011e-21)
(0.655658 0.0857189 9.60189e-21)
(0.670787 0.0823084 1.40611e-19)
(0.0143062 0.0491032 -7.14831e-20)
(0.0545937 0.103183 -2.44747e-19)
(0.113084 0.126748 -1.52655e-19)
(0.173375 0.132863 -9.55595e-20)
(0.229862 0.130229 -1.98114e-19)
(0.281478 0.123941 3.39663e-19)
(0.328159 0.116632 -3.63647e-20)
(0.370289 0.109449 -8.18176e-20)
(0.408396 0.102786 3.33093e-21)
(0.44298 0.09672 2.4064e-19)
(0.474481 0.0912217 -2.28696e-19)
(0.50327 0.086233 2.23801e-19)
(0.529669 0.0816965 1.05112e-19)
(0.55395 0.0775611 -1.91663e-19)
(0.576348 0.0737836 4.19147e-20)
(0.597066 0.0703274 1.23358e-19)
(0.616287 0.0671595 4.29848e-20)
(0.63419 0.0642449 -2.98089e-20)
(0.650896 0.0615533 -2.59697e-19)
(0.666363 0.0590999 2.06788e-19)
(0.0112725 0.0296363 6.44803e-20)
(0.0483744 0.062226 7.82876e-20)
(0.105586 0.0763929 2.20197e-20)
(0.165612 0.0800439 -1.65971e-20)
(0.222324 0.078433 4.7283e-20)
(0.274362 0.0746306 7.23617e-20)
(0.32151 0.0702205 2.74443e-20)
(0.364092 0.0658901 3.34968e-20)
(0.402615 0.0618748 -7.1349e-20)
(0.437576 0.0582208 1.33691e-19)
(0.469417 0.054909 -3.16031e-20)
(0.498516 0.0519047 -2.56483e-21)
(0.525197 0.049173 3.21177e-20)
(0.549738 0.0466833 3.62242e-20)
(0.572375 0.0444093 -9.74268e-20)
(0.593314 0.0423291 6.40731e-20)
(0.612738 0.0404229 4.20509e-20)
(0.630823 0.0386698 3.59201e-20)
(0.647708 0.0370506 7.70681e-20)
(0.663404 0.035572 3.19106e-20)
(0.00974647 0.00989655 -1.32046e-20)
(0.045249 0.02077 2.74451e-20)
(0.101821 0.02549 -3.84143e-20)
(0.161715 0.0267011 2.4146e-20)
(0.218541 0.0261584 1.41875e-20)
(0.270792 0.0248864 6.3637e-21)
(0.318176 0.023413 1.50187e-20)
(0.360985 0.021967 -4.30717e-20)
(0.399716 0.0206266 2.74801e-20)
(0.434866 0.019407 9.60341e-21)
(0.466878 0.0183018 -5.73739e-22)
(0.496133 0.0172992 5.91305e-20)
(0.522956 0.0163878 -1.79386e-20)
(0.547626 0.0155571 -1.71957e-20)
(0.570383 0.0147985 -1.65425e-20)
(0.591433 0.0141047 2.56406e-21)
(0.61096 0.0134689 -2.21352e-20)
(0.629136 0.0128844 4.22307e-21)
(0.64611 0.0123445 8.32718e-22)
(0.661922 0.0118511 -2.81056e-21)
(0.0097472 -0.00993441 8.38702e-21)
(0.0452505 -0.0208528 -4.46398e-20)
(0.101823 -0.025596 5.32301e-20)
(0.161717 -0.0268167 -4.00141e-20)
(0.218544 -0.0262762 -1.86901e-20)
(0.270794 -0.0250029 5.59637e-20)
(0.318178 -0.0235268 4.66829e-21)
(0.360987 -0.0220777 1.30632e-21)
(0.399718 -0.0207343 2.61967e-20)
(0.434868 -0.0195118 1.35529e-20)
(0.46688 -0.0184038 -1.06969e-20)
(0.496135 -0.0173987 -3.75726e-20)
(0.522958 -0.0164849 3.56027e-21)
(0.547628 -0.015652 -3.28672e-21)
(0.570385 -0.0148912 3.50813e-20)
(0.591435 -0.0141953 -2.11195e-20)
(0.610961 -0.0135576 2.89842e-20)
(0.629137 -0.0129712 -4.34519e-20)
(0.646112 -0.0124296 5.08519e-23)
(0.661923 -0.0119345 -9.15162e-21)
(0.0112747 -0.029674 -2.78613e-20)
(0.048379 -0.0623086 1.40565e-19)
(0.105592 -0.0764987 9.4751e-20)
(0.165618 -0.0801593 6.27235e-20)
(0.22233 -0.0785506 7.83445e-20)
(0.274368 -0.0747469 -1.9011e-20)
(0.321516 -0.0703341 8.68877e-20)
(0.364098 -0.0660006 1.78066e-20)
(0.40262 -0.0619823 -7.75463e-21)
(0.437581 -0.0583254 -6.20693e-20)
(0.469422 -0.0550109 6.44217e-20)
(0.498521 -0.052004 -8.75221e-20)
(0.525202 -0.04927 6.36249e-20)
(0.549742 -0.046778 7.29195e-20)
(0.572379 -0.0445019 9.65086e-20)
(0.593318 -0.0424196 -6.33972e-20)
(0.612742 -0.0405115 1.79318e-20)
(0.630827 -0.0387565 6.70369e-20)
(0.647712 -0.0371356 -6.33997e-20)
(0.663408 -0.0356553 4.782e-20)
(0.0143098 -0.0491406 -2.69333e-19)
(0.0546013 -0.103265 -1.35301e-19)
(0.113093 -0.126853 -1.50494e-19)
(0.173385 -0.132978 -1.18658e-20)
(0.229872 -0.130346 -8.12093e-20)
(0.281488 -0.124057 -9.95922e-20)
(0.328169 -0.116745 1.76043e-19)
(0.370299 -0.109559 8.9749e-20)
(0.408405 -0.102893 1.10628e-19)
(0.442989 -0.0968243 -1.20191e-19)
(0.474489 -0.0913233 8.90997e-20)
(0.503278 -0.0863321 1.08776e-19)
(0.529677 -0.0817932 3.83496e-20)
(0.553958 -0.0776556 -3.64514e-20)
(0.576356 -0.0738759 7.85465e-21)
(0.597073 -0.0704176 -1.5727e-20)
(0.616294 -0.0672479 -1.54193e-19)
(0.634197 -0.0643315 2.38847e-20)
(0.650902 -0.061638 1.49887e-19)
(0.66637 -0.059183 -2.01325e-19)
(0.0188142 -0.0681553 -8.86095e-20)
(0.0638517 -0.143395 1.31352e-19)
(0.124257 -0.176299 3.04008e-20)
(0.184955 -0.184926 -5.67732e-20)
(0.241113 -0.181346 -1.60625e-19)
(0.292106 -0.172646 -3.44273e-19)
(0.338091 -0.1625 -3.2777e-19)
(0.379548 -0.152514 -2.36038e-20)
(0.417036 -0.143244 -1.90778e-19)
(0.451059 -0.134802 -2.85399e-19)
(0.48205 -0.127147 2.21429e-19)
(0.510379 -0.120201 -3.26581e-19)
(0.536356 -0.113882 6.49944e-20)
(0.560252 -0.108121 -2.07798e-20)
(0.582293 -0.102858 -6.8521e-20)
(0.602679 -0.0980406 -8.66329e-20)
(0.621597 -0.093624 1.40533e-19)
(0.639228 -0.089558 1.12334e-19)
(0.655668 -0.0858033 1.93115e-19)
(0.670796 -0.0823912 -2.88969e-19)
(0.0247307 -0.0865437 4.80797e-20)
(0.0760316 -0.182376 4.67018e-19)
(0.138981 -0.224482 1.33748e-19)
(0.200232 -0.235666 3.23435e-19)
(0.25597 -0.231242 -1.20886e-19)
(0.306146 -0.220234 1.86107e-19)
(0.351216 -0.207342 -5.85369e-20)
(0.391787 -0.19463 3.77598e-19)
(0.428458 -0.182818 -1.94318e-19)
(0.46174 -0.172056 2.29068e-19)
(0.492061 -0.162294 1.98903e-19)
(0.51978 -0.153432 2.12789e-19)
(0.545203 -0.145369 -1.90421e-19)
(0.568588 -0.138016 1.63469e-19)
(0.590159 -0.131295 -2.27256e-19)
(0.610108 -0.125143 -6.2511e-20)
(0.628624 -0.119499 -1.49747e-19)
(0.645894 -0.1143 -6.35954e-20)
(0.661984 -0.1095 2.52215e-19)
(0.676666 -0.105155 -4.17538e-19)
(0.0319843 -0.104138 -1.93242e-19)
(0.091011 -0.219898 -2.25484e-20)
(0.157127 -0.271058 -7.70156e-20)
(0.21909 -0.284868 -2.70811e-19)
(0.27433 -0.279731 4.60949e-20)
(0.32351 -0.266548 -4.24179e-19)
(0.367457 -0.251023 -1.7833e-19)
(0.406936 -0.235679 -1.37973e-20)
(0.442599 -0.221404 -4.48712e-19)
(0.474967 -0.20839 -1.39342e-19)
(0.504461 -0.196579 -6.37142e-20)