/*--------------------------------*- C++ -*----------------------------------*\
  =========                 |
  \\      /  F ield         | OpenFOAM: The Open Source CFD Toolbox
   \\    /   O peration     | Website:  https://openfoam.org
    \\  /    A nd           | Version:  6.0
     \\/     M anipulation  |
\*---------------------------------------------------------------------------*/
FoamFile
{
    version     2.0;
    format      ascii;
    class       volScalarField;
    location    "73";
    object      p;
}
// * * * * * * * * * * * * * * * * * * * * * * * * * * * * * * * * * * * * * //

dimensions      [0 2 -2 0 0 0 0];

internalField   nonuniform List<scalar> 
8000
(
-0.399222
-0.401138
-0.402153
-0.402721
-0.403126
-0.403427
-0.403652
-0.40381
-0.4039
-0.403912
-0.403837
-0.403671
-0.403411
-0.403063
-0.402637
-0.402151
-0.401622
-0.401082
-0.400601
-0.400114
-0.392266
-0.394061
-0.394965
-0.395398
-0.395626
-0.395707
-0.395669
-0.395529
-0.395293
-0.394959
-0.394527
-0.393999
-0.393381
-0.392685
-0.391927
-0.391131
-0.39032
-0.389495
-0.388707
-0.388224
-0.385702
-0.387354
-0.388138
-0.388437
-0.388496
-0.388365
-0.388077
-0.387653
-0.387104
-0.386436
-0.385656
-0.384774
-0.383802
-0.382757
-0.381663
-0.38055
-0.379445
-0.378325
-0.377217
-0.376698
-0.379519
-0.381019
-0.381682
-0.381852
-0.381748
-0.381417
-0.38089
-0.380193
-0.379341
-0.378349
-0.377229
-0.375998
-0.374676
-0.373284
-0.371851
-0.370417
-0.369012
-0.367594
-0.366162
-0.365575
-0.373701
-0.375056
-0.375604
-0.37565
-0.37539
-0.374868
-0.374112
-0.373151
-0.372005
-0.370695
-0.36924
-0.367664
-0.365992
-0.364253
-0.36248
-0.36072
-0.359013
-0.357298
-0.355548
-0.354864
-0.368236
-0.369464
-0.369906
-0.369835
-0.369428
-0.368721
-0.367743
-0.366524
-0.36509
-0.363466
-0.36168
-0.359759
-0.357736
-0.355646
-0.353529
-0.35144
-0.349426
-0.347416
-0.345355
-0.34455
-0.363116
-0.364244
-0.364594
-0.364415
-0.363867
-0.362981
-0.361787
-0.360315
-0.358595
-0.35666
-0.35454
-0.352273
-0.349895
-0.347448
-0.34498
-0.342553
-0.340224
-0.337918
-0.33555
-0.334602
-0.358342
-0.359403
-0.359676
-0.359397
-0.358714
-0.357655
-0.356248
-0.354526
-0.352524
-0.350277
-0.347824
-0.345205
-0.342465
-0.339652
-0.33682
-0.33404
-0.331381
-0.328768
-0.326091
-0.324981
-0.353924
-0.354955
-0.355168
-0.354797
-0.353984
-0.352756
-0.35114
-0.349172
-0.34689
-0.344334
-0.341545
-0.338571
-0.335461
-0.332268
-0.329054
-0.325899
-0.322885
-0.319941
-0.31694
-0.315645
-0.349888
-0.350921
-0.351091
-0.350634
-0.349697
-0.348303
-0.346484
-0.344276
-0.341719
-0.338858
-0.335737
-0.332406
-0.328918
-0.325332
-0.321713
-0.318152
-0.314745
-0.311428
-0.308068
-0.306555
-0.346269
-0.347335
-0.347473
-0.346936
-0.345878
-0.344325
-0.342309
-0.33987
-0.33705
-0.333895
-0.330452
-0.32677
-0.322904
-0.318912
-0.314865
-0.31086
-0.307006
-0.303249
-0.29946
-0.297673
-0.343116
-0.344234
-0.344348
-0.343734
-0.342561
-0.340856
-0.338654
-0.335999
-0.332935
-0.329506
-0.32576
-0.321745
-0.317511
-0.313114
-0.308621
-0.304131
-0.299761
-0.295469
-0.291136
-0.288974
-0.340488
-0.341664
-0.341755
-0.341067
-0.339782
-0.337935
-0.335564
-0.332714
-0.329432
-0.325761
-0.321747
-0.317431
-0.312856
-0.308069
-0.303125
-0.298115
-0.293157
-0.288205
-0.283151
-0.280442
-0.338447
-0.339672
-0.339736
-0.338971
-0.33758
-0.335603
-0.333082
-0.330066
-0.326601
-0.32273
-0.318493
-0.313925
-0.309056
-0.303914
-0.298537
-0.29299
-0.287375
-0.281626
-0.275618
-0.272092
-0.337056
-0.338306
-0.338328
-0.337484
-0.335991
-0.333897
-0.331249
-0.328098
-0.324491
-0.320469
-0.316064
-0.311303
-0.3062
-0.300761
-0.29499
-0.288917
-0.282601
-0.275928
-0.2687
-0.263982
-0.336374
-0.337606
-0.337565
-0.336633
-0.335041
-0.332843
-0.33009
-0.326836
-0.323128
-0.319002
-0.314486
-0.309593
-0.304322
-0.298651
-0.292546
-0.285985
-0.278967
-0.271296
-0.262622
-0.256268
-0.336445
-0.337603
-0.33747
-0.336437
-0.334744
-0.332451
-0.329613
-0.326283
-0.322507
-0.318319
-0.313737
-0.308765
-0.303383
-0.297543
-0.29117
-0.284183
-0.276509
-0.267865
-0.25766
-0.249234
-0.3373
-0.338315
-0.338052
-0.3369
-0.335098
-0.332712
-0.3298
-0.326412
-0.322592
-0.318369
-0.313754
-0.308739
-0.303288
-0.297329
-0.29075
-0.283407
-0.275153
-0.265622
-0.253935
-0.243045
-0.338948
-0.339744
-0.339308
-0.338009
-0.336083
-0.333598
-0.330611
-0.327172
-0.323318
-0.319074
-0.314445
-0.309415
-0.303936
-0.297923
-0.291235
-0.28368
-0.275016
-0.264743
-0.251593
-0.237816
-0.341383
-0.341881
-0.34122
-0.339741
-0.337665
-0.335063
-0.331991
-0.328494
-0.324605
-0.320344
-0.315714
-0.310697
-0.305253
-0.299312
-0.292761
-0.285443
-0.277133
-0.267268
-0.254287
-0.239552
-0.344585
-0.344706
-0.343764
-0.342063
-0.339802
-0.337055
-0.333876
-0.330305
-0.32637
-0.322086
-0.317457
-0.312476
-0.307124
-0.301377
-0.295218
-0.288661
-0.281789
-0.274767
-0.268367
-0.268276
-0.348525
-0.348195
-0.346915
-0.344942
-0.342454
-0.339527
-0.336211
-0.332541
-0.328538
-0.324216
-0.319579
-0.314631
-0.309374
-0.303826
-0.298031
-0.292093
-0.286212
-0.280725
-0.276357
-0.276449
-0.353177
-0.352326
-0.350649
-0.348354
-0.345592
-0.342444
-0.338956
-0.335156
-0.33106
-0.326675
-0.322008
-0.317067
-0.311873
-0.306469
-0.300931
-0.295391
-0.290053
-0.285202
-0.281245
-0.279657
-0.35852
-0.357087
-0.354956
-0.352288
-0.349205
-0.345794
-0.342097
-0.338134
-0.33391
-0.329427
-0.324687
-0.319701
-0.314498
-0.309128
-0.303676
-0.298263
-0.293046
-0.288208
-0.283963
-0.280796
-0.36455
-0.362476
-0.359839
-0.35675
-0.353303
-0.349589
-0.345646
-0.341481
-0.337086
-0.332452
-0.327574
-0.32246
-0.317138
-0.31166
-0.306103
-0.300568
-0.295169
-0.290011
-0.285218
-0.280783
-0.371272
-0.368505
-0.365316
-0.361766
-0.357917
-0.353864
-0.349635
-0.345221
-0.340596
-0.335736
-0.330626
-0.325269
-0.319692
-0.313946
-0.308103
-0.302248
-0.29647
-0.290841
-0.285449
-0.280127
-0.378707
-0.375198
-0.371418
-0.367373
-0.363091
-0.358663
-0.354103
-0.349378
-0.344443
-0.339256
-0.333792
-0.328052
-0.322067
-0.315892
-0.309601
-0.303278
-0.297004
-0.290844
-0.284871
-0.27891
-0.38688
-0.38258
-0.378178
-0.373616
-0.368873
-0.36403
-0.359081
-0.353965
-0.348612
-0.342966
-0.337
-0.33072
-0.324169
-0.317416
-0.310546
-0.303651
-0.296815
-0.290109
-0.283595
-0.277152
-0.395811
-0.390676
-0.385631
-0.380532
-0.3753
-0.369995
-0.36458
-0.358965
-0.353057
-0.346795
-0.34016
-0.333177
-0.32591
-0.318451
-0.310902
-0.303367
-0.295935
-0.288682
-0.281662
-0.274807
-0.40551
-0.399501
-0.393795
-0.388146
-0.382391
-0.376558
-0.370576
-0.364323
-0.357695
-0.35064
-0.343162
-0.335318
-0.327206
-0.318941
-0.310646
-0.302432
-0.294391
-0.286599
-0.279097
-0.271854
-0.415967
-0.40905
-0.402675
-0.396459
-0.390133
-0.383685
-0.377003
-0.369943
-0.362409
-0.354374
-0.345885
-0.337043
-0.327982
-0.318844
-0.309765
-0.300857
-0.292209
-0.283887
-0.275919
-0.26829
-0.42714
-0.419292
-0.412242
-0.405436
-0.398475
-0.391294
-0.383748
-0.375689
-0.367048
-0.357852
-0.348203
-0.338254
-0.328174
-0.318126
-0.308249
-0.298651
-0.289409
-0.280573
-0.272151
-0.264135
-0.438953
-0.430166
-0.422438
-0.415008
-0.407321
-0.399257
-0.390655
-0.381387
-0.371443
-0.36092
-0.349991
-0.338859
-0.327724
-0.316757
-0.306093
-0.295823
-0.286008
-0.276677
-0.267816
-0.259417
-0.451293
-0.44157
-0.433163
-0.425057
-0.416524
-0.407399
-0.397527
-0.386837
-0.375405
-0.363421
-0.351129
-0.338776
-0.32658
-0.31471
-0.303284
-0.292372
-0.282011
-0.27221
-0.262929
-0.254163
-0.464
-0.453365
-0.444273
-0.435418
-0.425892
-0.4155
-0.404133
-0.391818
-0.378745
-0.365203
-0.351503
-0.337926
-0.324691
-0.311953
-0.299803
-0.288288
-0.277416
-0.267174
-0.257497
-0.248391
-0.476875
-0.465365
-0.455579
-0.445879
-0.435183
-0.423302
-0.410222
-0.396104
-0.381274
-0.366119
-0.351008
-0.336233
-0.322004
-0.308448
-0.295624
-0.283549
-0.272206
-0.26156
-0.251516
-0.242105
-0.489673
-0.477344
-0.466843
-0.45618
-0.444116
-0.430521
-0.415527
-0.399467
-0.38281
-0.366034
-0.349542
-0.333625
-0.318464
-0.304151
-0.29071
-0.278126
-0.266357
-0.255347
-0.244972
-0.235298
-0.502109
-0.48903
-0.477784
-0.466017
-0.452377
-0.436854
-0.419781
-0.401687
-0.383182
-0.364818
-0.34701
-0.330026
-0.31401
-0.299011
-0.285017
-0.271979
-0.259836
-0.248505
-0.237843
-0.227955
-0.513864
-0.500114
-0.488083
-0.475055
-0.459632
-0.441993
-0.422722
-0.402556
-0.382234
-0.362352
-0.343319
-0.325363
-0.308579
-0.292972
-0.278493
-0.265064
-0.252601
-0.241002
-0.230097
-0.22005
-0.524587
-0.510253
-0.497385
-0.482933
-0.465536
-0.445635
-0.424102
-0.401883
-0.379818
-0.358525
-0.338379
-0.319559
-0.302104
-0.285976
-0.271086
-0.257332
-0.24461
-0.232797
-0.221702
-0.211555
-0.533907
-0.519083
-0.505318
-0.489282
-0.469748
-0.447493
-0.423696
-0.399495
-0.375805
-0.353233
-0.332106
-0.31254
-0.29452
-0.277961
-0.262741
-0.248734
-0.235819
-0.223852
-0.212624
-0.202438
-0.541437
-0.526218
-0.511494
-0.493729
-0.471942
-0.4473
-0.421297
-0.395237
-0.370075
-0.346381
-0.324418
-0.304235
-0.285761
-0.268869
-0.253406
-0.239223
-0.226186
-0.214128
-0.202828
-0.192669
-0.546793
-0.531275
-0.515532
-0.495921
-0.471816
-0.444821
-0.416729
-0.388978
-0.362525
-0.337884
-0.315241
-0.294577
-0.275768
-0.258645
-0.243031
-0.228756
-0.215672
-0.203592
-0.192285
-0.182221
-0.5496
-0.533877
-0.517064
-0.495527
-0.469101
-0.43985
-0.409842
-0.380604
-0.353066
-0.327667
-0.304509
-0.283507
-0.264486
-0.247242
-0.231573
-0.217294
-0.204243
-0.192214
-0.180971
-0.171073
-0.549502
-0.533667
-0.51575
-0.492254
-0.463569
-0.432221
-0.400515
-0.370024
-0.341625
-0.315666
-0.292166
-0.270974
-0.25187
-0.234619
-0.218997
-0.204807
-0.191874
-0.179973
-0.168868
-0.159209
-0.546176
-0.53032
-0.511288
-0.485852
-0.455032
-0.421802
-0.388654
-0.35717
-0.328146
-0.301832
-0.278167
-0.256938
-0.237885
-0.220744
-0.205276
-0.191271
-0.178546
-0.166855
-0.155966
-0.14662
-0.53934
-0.523553
-0.503421
-0.476121
-0.443352
-0.4085
-0.374199
-0.341996
-0.31259
-0.286132
-0.262481
-0.24137
-0.222503
-0.205596
-0.190392
-0.176675
-0.16425
-0.152852
-0.142263
-0.133307
-0.528763
-0.513133
-0.491951
-0.462915
-0.428434
-0.392262
-0.357115
-0.324477
-0.294936
-0.268545
-0.245089
-0.224254
-0.205714
-0.189164
-0.174339
-0.161013
-0.148983
-0.13797
-0.127765
-0.119274
-0.514267
-0.498883
-0.476734
-0.446144
-0.410235
-0.373071
-0.3374
-0.304613
-0.275185
-0.249071
-0.22599
-0.205588
-0.187514
-0.17145
-0.157119
-0.144292
-0.132757
-0.12222
-0.112489
-0.104539
-0.495736
-0.480691
-0.45769
-0.425774
-0.388757
-0.350948
-0.315079
-0.28243
-0.253357
-0.227724
-0.205196
-0.185383
-0.167915
-0.152462
-0.138744
-0.126527
-0.115589
-0.105626
-0.0964633
-0.0891328
-0.473121
-0.458508
-0.434803
-0.401827
-0.364048
-0.325951
-0.290208
-0.257975
-0.22949
-0.204539
-0.182734
-0.163661
-0.146936
-0.132223
-0.119235
-0.107738
-0.097504
-0.088219
-0.0797264
-0.0731018
-0.446435
-0.43235
-0.40812
-0.374381
-0.3362
-0.298171
-0.262872
-0.231322
-0.203648
-0.179565
-0.158647
-0.14046
-0.12461
-0.110758
-0.0986174
-0.0879518
-0.0785286
-0.07003
-0.0623191
-0.0564943
-0.415759
-0.402301
-0.377746
-0.343563
-0.305347
-0.267736
-0.233183
-0.202566
-0.175912
-0.152873
-0.132993
-0.115827
-0.100977
-0.0881025
-0.0769198
-0.0671932
-0.0586878
-0.0510883
-0.0442761
-0.039333
-0.381237
-0.368507
-0.343846
-0.309551
-0.271665
-0.234808
-0.201283
-0.171832
-0.146387
-0.12455
-0.105845
-0.0898213
-0.0760821
-0.0642921
-0.0541711
-0.0454868
-0.0380061
-0.0314228
-0.0256223
-0.0216041
-0.343074
-0.331172
-0.306639
-0.272567
-0.235365
-0.199577
-0.167343
-0.139268
-0.1152
-0.0947053
-0.0772937
-0.0625148
-0.0499804
-0.0393643
-0.0303956
-0.0228493
-0.0165004
-0.0110541
-0.00637185
-0.0033116
-0.301533
-0.290558
-0.266392
-0.232875
-0.196694
-0.162269
-0.131562
-0.105048
-0.0825057
-0.0634702
-0.0474476
-0.0339947
-0.0227363
-0.0133616
-0.00561612
0.000711901
0.00583399
0.0100276
0.0134564
0.0153847
-0.256927
-0.246976
-0.223416
-0.190776
-0.155931
-0.123136
-0.0941651
-0.0693747
-0.0484812
-0.0309992
-0.0164376
-0.00436621
0.00557097
0.0136611
0.0201344
0.0251858
0.0290093
0.0318234
0.0337226
0.0340406
-0.209613
-0.200779
-0.178059
-0.146602
-0.113384
-0.0824573
-0.0554076
-0.0324774
-0.0133316
0.00252844
0.015587
0.0262563
0.0348663
0.0416696
0.0468612
0.0506148
0.0530815
0.0542924
0.0540981
0.052219
-0.159988
-0.152356
-0.130703
-0.100713
-0.0693864
-0.0405394
-0.0155701
0.00538448
0.0227043
0.0368985
0.0484444
0.0577388
0.0650868
0.0707048
0.0747505
0.0773666
0.0785837
0.0780174
0.0751587
0.0711065
-0.108481
-0.102127
-0.0817531
-0.0534912
-0.0242898
0.00229177
0.0250421
0.0439209
0.0593473
0.0718401
0.0818754
0.089846
0.0960527
0.10071
0.103989
0.106048
0.106784
0.105308
0.100905
0.0965856
-0.0555415
-0.0505341
-0.0316315
-0.00533086
0.02154
0.0456964
0.0661078
0.0828211
0.0962873
0.107031
0.115529
0.122174
0.127282
0.131106
0.133901
0.13595
0.137217
0.136693
0.134146
0.138018
-0.00162978
0.00197258
0.0192298
0.0433654
0.0677316
0.0893296
0.107302
0.121772
0.133214
0.142152
0.149055
0.154308
0.158224
0.161068
0.16311
0.164618
0.165573
0.165503
0.165349
0.171354
0.0527787
0.0549296
0.0703924
0.0921924
0.113913
0.132848
0.148303
0.160467
0.169831
0.176914
0.18217
0.185976
0.188637
0.190416
0.191568
0.192317
0.192643
0.192257
0.192109
0.196938
0.107208
0.107874
0.12142
0.140749
0.159719
0.175915
0.188798
0.198613
0.205858
0.211039
0.214595
0.216885
0.2182
0.218789
0.218886
0.218692
0.218199
0.217194
0.21645
0.219705
0.161184
0.160347
0.171883
0.188643
0.204791
0.218207
0.228491
0.235935
0.241039
0.244294
0.246118
0.246847
0.246754
0.246066
0.244994
0.243705
0.242182
0.240237
0.238581
0.240377
0.214244
0.211899
0.221361
0.235491
0.248787
0.259412
0.267098
0.272175
0.27514
0.276464
0.276542
0.275689
0.274156
0.272148
0.269852
0.267409
0.264786
0.261817
0.259173
0.259571
0.265935
0.262093
0.269449
0.280927
0.291375
0.299233
0.304351
0.307091
0.307942
0.307355
0.305699
0.303268
0.300289
0.296949
0.293411
0.28979
0.286045
0.282036
0.278404
0.277485
0.315823
0.310509
0.315757
0.324599
0.332241
0.337386
0.339995
0.340454
0.339242
0.336786
0.333433
0.329453
0.325053
0.320399
0.315635
0.310854
0.30601
0.300992
0.296398
0.294229
0.363488
0.356744
0.359916
0.366174
0.371086
0.373606
0.373793
0.372052
0.368848
0.364589
0.359597
0.354118
0.348343
0.342417
0.336465
0.330566
0.32467
0.318691
0.313178
0.309827
0.408538
0.400421
0.401574
0.405336
0.407628
0.40764
0.405517
0.40168
0.396581
0.390604
0.384049
0.377143
0.370055
0.362918
0.355837
0.348877
0.341991
0.335111
0.32873
0.324266
0.450601
0.441181
0.440405
0.441791
0.441604
0.439251
0.434956
0.429148
0.422268
0.414677
0.406654
0.398406
0.390087
0.381813
0.373675
0.365724
0.357918
0.350204
0.343011
0.337507
0.489331
0.478695
0.476104
0.475267
0.47277
0.468221
0.461911
0.454279
0.445749
0.436664
0.427282
0.417794
0.408336
0.399011
0.389897
0.381035
0.372387
0.363911
0.355968
0.349503
0.524413
0.512659
0.508393
0.505511
0.500901
0.494347
0.486201
0.476907
0.466875
0.456429
0.445811
0.435194
0.424701
0.414423
0.404423
0.394736
0.385329
0.376167
0.367541
0.360199
0.555558
0.542798
0.537019
0.532298
0.525792
0.517445
0.507659
0.496881
0.485508
0.473849
0.462127
0.450504
0.439089
0.427961
0.417174
0.406755
0.396675
0.386905
0.377669
0.369544
0.58251
0.568867
0.561758
0.555424
0.547262
0.53735
0.526135
0.514064
0.501524
0.488808
0.476127
0.463628
0.451411
0.439544
0.428074
0.41702
0.406359
0.396064
0.386295
0.377487
0.605047
0.590653
0.582413
0.574713
0.565151
0.553919
0.541498
0.528337
0.514813
0.501207
0.487717
0.47448
0.461588
0.449101
0.437056
0.425469
0.414321
0.403585
0.393367
0.383982
0.622977
0.607974
0.598819
0.590016
0.579324
0.567028
0.553636
0.539597
0.525281
0.510958
0.496817
0.482988
0.469553
0.456566
0.44406
0.432045
0.420508
0.409419
0.398838
0.388989
0.636147
0.620682
0.61084
0.601209
0.589671
0.576578
0.562457
0.547761
0.532852
0.517991
0.503363
0.489089
0.475248
0.461888
0.449037
0.436704
0.424875
0.413523
0.40267
0.392477
0.644436
0.628664
0.618371
0.608198
0.596105
0.582489
0.567891
0.552763
0.537464
0.522251
0.507303
0.492737
0.47863
0.465026
0.451949
0.439408
0.42739
0.415866
0.404834
0.394419
0.647762
0.63184
0.621339
0.610918
0.598569
0.584709
0.569888
0.554559
0.539077
0.523699
0.508601
0.493899
0.479668
0.465951
0.45277
0.440132
0.428028
0.416424
0.405311
0.394799
0.64608
0.630166
0.619705
0.609332
0.597028
0.583208
0.568421
0.553121
0.537666
0.522313
0.507237
0.492557
0.478345
0.464646
0.451483
0.438864
0.426776
0.415186
0.404089
0.393607
0.63938
0.623635
0.61346
0.603433
0.591476
0.577979
0.563484
0.548447
0.533229
0.518089
0.503208
0.488706
0.474658
0.46111
0.448088
0.4356
0.423632
0.41215
0.401166
0.390842
0.627691
0.612273
0.602629
0.593242
0.581933
0.569041
0.555094
0.540552
0.525778
0.511042
0.496527
0.482359
0.468618
0.455353
0.442594
0.43035
0.418605
0.407325
0.396551
0.38651
0.611079
0.596142
0.58727
0.578813
0.568446
0.556435
0.543291
0.52947
0.515348
0.501201
0.487222
0.473542
0.460249
0.447398
0.435022
0.423135
0.411716
0.40073
0.39026
0.380626
0.589645
0.575339
0.567469
0.560224
0.551087
0.540229
0.528133
0.515258
0.501989
0.488613
0.475336
0.462297
0.449591
0.437281
0.425407
0.413986
0.402994
0.392393
0.382319
0.373212
0.563527
0.549997
0.543349
0.537583
0.529954
0.520511
0.509703
0.49799
0.48577
0.473343
0.460928
0.448677
0.436693
0.425048
0.413792
0.402946
0.39248
0.382353
0.372764
0.364297
0.532899
0.520279
0.51506
0.511028
0.50517
0.497392
0.488101
0.477759
0.466775
0.455468
0.444071
0.432749
0.421618
0.410759
0.400232
0.390065
0.380222
0.370656
0.361637
0.353918
0.497968
0.486384
0.482784
0.480721
0.476881
0.471005
0.46345
0.454676
0.445107
0.435082
0.42485
0.414592
0.404438
0.39448
0.38479
0.375403
0.366276
0.357357
0.348987
0.342119
0.458974
0.448541
0.446729
0.446851
0.445258
0.441504
0.435888
0.428866
0.420881
0.412289
0.403361
0.394295
0.385234
0.376286
0.367534
0.359023
0.350705
0.342514
0.334868
0.328944
0.416191
0.407011
0.407136
0.409632
0.410492
0.409062
0.405571
0.400473
0.394225
0.387208
0.379712
0.371955
0.364096
0.356258
0.348539
0.340995
0.333572
0.32619
0.319337
0.314445
0.36992
0.362083
0.364269
0.369303
0.372797
0.37387
0.372674
0.369652
0.365282
0.359965
0.354017
0.347674
0.341115
0.334479
0.32788
0.321387
0.31494
0.308443
0.302449
0.298671
0.320494
0.314075
0.318419
0.326125
0.332408
0.336139
0.337383
0.336574
0.334203
0.330698
0.326398
0.321562
0.316389
0.311034
0.305631
0.300263
0.294869
0.289328
0.284252
0.281664
0.268272
0.263331
0.269903
0.280382
0.289576
0.296095
0.299904
0.301421
0.301152
0.299552
0.296983
0.293731
0.290013
0.286005
0.28186
0.277681
0.273405
0.268885
0.264782
0.263457
0.213638
0.210221
0.219061
0.232378
0.244575
0.253982
0.260454
0.264387
0.266303
0.266679
0.265907
0.264294
0.262082
0.259466
0.256623
0.253677
0.250572
0.247127
0.244044
0.244055
0.157001
0.155137
0.166253
0.182439
0.197696
0.210059
0.219265
0.225681
0.22984
0.232244
0.233309
0.23337
0.232692
0.231492
0.22997
0.228279
0.22637
0.224034
0.222001
0.223422
0.0987908
0.0984931
0.111861
0.130909
0.149246
0.164604
0.176587
0.185526
0.191962
0.19642
0.199341
0.201084
0.201938
0.202142
0.201923
0.201463
0.20073
0.199487
0.198504
0.201424
0.0394545
0.0407211
0.0562873
0.0781498
0.0995512
0.117909
0.132682
0.14416
0.152883
0.159397
0.164167
0.167575
0.169929
0.171495
0.172524
0.173234
0.173604
0.173364
0.173352
0.177842
-0.0205445
-0.0177312
-5.2715e-05
0.0245404
0.0489529
0.0702837
0.0878343
0.10184
0.112839
0.121391
0.127982
0.133013
0.136807
0.139644
0.141801
0.14352
0.144762
0.145175
0.145789
0.151986
-0.0807319
-0.0764039
-0.0567292
-0.0295274
-0.0021928
0.0220524
0.0423403
0.0588422
0.0720855
0.082638
0.0910007
0.0975866
0.102728
0.106706
0.109815
0.112345
0.114265
0.115014
0.115611
0.123084
-0.140626
-0.13483
-0.113304
-0.0836509
-0.0535182
-0.0264462
-0.00348368
0.0154658
0.0309105
0.0434227
0.0535139
0.061607
0.068037
0.0730734
0.0769924
0.0801068
0.082367
0.0826195
0.0805648
0.0856267
-0.199743
-0.192539
-0.169332
-0.137421
-0.104647
-0.0748639
-0.0493103
-0.0279762
-0.0103811
0.00404462
0.0158157
0.0253535
0.0329784
0.0389171
0.0433508
0.0464515
0.048102
0.0473189
0.0432823
0.0390856
-0.257612
-0.249069
-0.224373
-0.190428
-0.155202
-0.122848
-0.0948056
-0.0711601
-0.0514665
-0.0351605
-0.0217233
-0.010728
-0.00184844
0.00514474
0.0104177
0.0141234
0.0162961
0.0165208
0.014206
0.0103671
-0.313763
-0.303962
-0.277993
-0.242267
-0.204808
-0.170051
-0.139638
-0.113763
-0.0920208
-0.0738521
-0.058727
-0.0461993
-0.0359136
-0.0275991
-0.0210473
-0.0160701
-0.0124969
-0.0102854
-0.00964316
-0.011013
-0.367749
-0.356781
-0.329771
-0.292544
-0.253103
-0.216134
-0.183492
-0.155483
-0.131751
-0.111745
-0.0949208
-0.080811
-0.0690291
-0.0592647
-0.0512695
-0.0448316
-0.0397314
-0.0357217
-0.0327556
-0.0316957
-0.419148
-0.407112
-0.379305
-0.340883
-0.299739
-0.260782
-0.226074
-0.19605
-0.170409
-0.148615
-0.130117
-0.114429
-0.10114
-0.0899146
-0.0804757
-0.0725935
-0.0660287
-0.0604684
-0.0557915
-0.0529475
-0.467573
-0.454572
-0.426223
-0.386935
-0.344395
-0.303701
-0.267121
-0.235224
-0.207781
-0.184278
-0.164163
-0.146937
-0.132176
-0.119521
-0.10868
-0.0994072
-0.091448
-0.084469
-0.0783714
-0.0742377
-0.512677
-0.498819
-0.470187
-0.430375
-0.386776
-0.344625
-0.306393
-0.272795
-0.243681
-0.218571
-0.196923
-0.17823
-0.162055
-0.148032
-0.135852
-0.125264
-0.116002
-0.107721
-0.100342
-0.09509
-0.554159
-0.539555
-0.510896
-0.470916
-0.426615
-0.383317
-0.343681
-0.308576
-0.277947
-0.251359
-0.228283
-0.208216
-0.190715
-0.175405
-0.161974
-0.150163
-0.139707
-0.130247
-0.121696
-0.115359
-0.591771
-0.57653
-0.548096
-0.508305
-0.463678
-0.419566
-0.378801
-0.342411
-0.310445
-0.282526
-0.258151
-0.236823
-0.218102
-0.201608
-0.187026
-0.174095
-0.162552
-0.152034
-0.142429
-0.135052
-0.625322
-0.609552
-0.581579
-0.542332
-0.497767
-0.453196
-0.411599
-0.374165
-0.341061
-0.311978
-0.286449
-0.263991
-0.244168
-0.226604
-0.21098
-0.197036
-0.184513
-0.173051
-0.162513
-0.15418
-0.654683
-0.638488
-0.611192
-0.572832
-0.528718
-0.484057
-0.441945
-0.40373
-0.369704
-0.33964
-0.313113
-0.289665
-0.268871
-0.250357
-0.233806
-0.21896
-0.205564
-0.193268
-0.181909
-0.172714
-0.679783
-0.663265
-0.636837
-0.599684
-0.556408
-0.512035
-0.46974
-0.43102
-0.396303
-0.365451
-0.338096
-0.313807
-0.292176
-0.272836
-0.255476
-0.239837
-0.225673
-0.212647
-0.20057
-0.190598
-0.700621
-0.683873
-0.658476
-0.62282
-0.580753
-0.537046
-0.494909
-0.455975
-0.420808
-0.389372
-0.361363
-0.336388
-0.314057
-0.294018
-0.275965
-0.259642
-0.244812
-0.231152
-0.21845
-0.207778
-0.717253
-0.700369
-0.67613
-0.642221
-0.601709
-0.55904
-0.517406
-0.478556
-0.443189
-0.411379
-0.382895
-0.35739
-0.3345
-0.313887
-0.295256
-0.278356
-0.262958
-0.248755
-0.235516
-0.224217
-0.729802
-0.712867
-0.68988
-0.657922
-0.619279
-0.578002
-0.537213
-0.498747
-0.463435
-0.431466
-0.402689
-0.37681
-0.3535
-0.332439
-0.313342
-0.295968
-0.280096
-0.265437
-0.251746
-0.239894
-0.738445
-0.721545
-0.699866
-0.670012
-0.633505
-0.593949
-0.554336
-0.516555
-0.481555
-0.449642
-0.420755
-0.394661
-0.371067
-0.349679
-0.330228
-0.312479
-0.296224
-0.281192
-0.267128
-0.254797
-0.743415
-0.726632
-0.706284
-0.678631
-0.644476
-0.606936
-0.568813
-0.532009
-0.497575
-0.465935
-0.437121
-0.410966
-0.387223
-0.365627
-0.345927
-0.327899
-0.311347
-0.296021
-0.281661
-0.268922
-0.744991
-0.728408
-0.709382
-0.683969
-0.652325
-0.617051
-0.580704
-0.545158
-0.511542
-0.480388
-0.451826
-0.425763
-0.402003
-0.380313
-0.360465
-0.34225
-0.325484
-0.309937
-0.295351
-0.282275
-0.743491
-0.72719
-0.709452
-0.686266
-0.657226
-0.624415
-0.590099
-0.556072
-0.523516
-0.493057
-0.464925
-0.439103
-0.415451
-0.393778
-0.373879
-0.355564
-0.33866
-0.322962
-0.308217
-0.294869
-0.739266
-0.723329
-0.706824
-0.685799
-0.659394
-0.629185
-0.59711
-0.564841
-0.533572
-0.504013
-0.476482
-0.451047
-0.427627
-0.406075
-0.386217
-0.367882
-0.350914
-0.335128
-0.320284
-0.306728
-0.732683
-0.717193
-0.701855
-0.682882
-0.659078
-0.631547
-0.601878
-0.571571
-0.541802
-0.513334
-0.486574
-0.461665
-0.438596
-0.417266
-0.397535
-0.379256
-0.36229
-0.346474
-0.331588
-0.317883
-0.724126
-0.709164
-0.694918
-0.677857
-0.656562
-0.63172
-0.604563
-0.576388
-0.548306
-0.521112
-0.495282
-0.471038
-0.448433
-0.42742
-0.407898
-0.389745
-0.372843
-0.357051
-0.342171
-0.328371
-0.713973
-0.699621
-0.686392
-0.671079
-0.65215
-0.629946
-0.605351
-0.579431
-0.553197
-0.527444
-0.502698
-0.47925
-0.457219
-0.436614
-0.417377
-0.399415
-0.382632
-0.366912
-0.352082
-0.338238
-0.702596
-0.688928
-0.676646
-0.662907
-0.646165
-0.626488
-0.604444
-0.580855
-0.556599
-0.532433
-0.508914
-0.486388
-0.465039
-0.44493
-0.426049
-0.408338
-0.391725
-0.376119
-0.361375
-0.347532
-0.690346
-0.677432
-0.666034
-0.653695
-0.638933
-0.621625
-0.602065
-0.58083
-0.558641
-0.536187
-0.514024
-0.492543
-0.471979
-0.452451
-0.433994
-0.41659
-0.400192
-0.384735
-0.370107
-0.356302
-0.677549
-0.665448
-0.654883
-0.643777
-0.630777
-0.615641
-0.598445
-0.579537
-0.559463
-0.538816
-0.518126
-0.497802
-0.478124
-0.459261
-0.441295
-0.424248
-0.408104
-0.392827
-0.378338
-0.364601
-0.664496
-0.653258
-0.643482
-0.633459
-0.622004
-0.60882
-0.593824
-0.577165
-0.55921
-0.540436
-0.521314
-0.502252
-0.483557
-0.465441
-0.448031
-0.431389
-0.415536
-0.400464
-0.386127
-0.372479
-0.651443
-0.641102
-0.632082
-0.623011
-0.612895
-0.601434
-0.588443
-0.57391
-0.558035
-0.541162
-0.523683
-0.505976
-0.488358
-0.47107
-0.45428
-0.438092
-0.422562
-0.407712
-0.393535
-0.379986
-0.638608
-0.629184
-0.620891
-0.612662
-0.603697
-0.593733
-0.582534
-0.56997
-0.556096
-0.541116
-0.525328
-0.509054
-0.4926
-0.476222
-0.460118
-0.444431
-0.429253
-0.41464
-0.400621
-0.387169
-0.626167
-0.617663
-0.610073
-0.602595
-0.594618
-0.585941
-0.576316
-0.565541
-0.55355
-0.540422
-0.526342
-0.511561
-0.49635
-0.480962
-0.465613
-0.450477
-0.435681
-0.421316
-0.407445
-0.394074
-0.614264
-0.606665
-0.599752
-0.592951
-0.585826
-0.578245
-0.569985
-0.560806
-0.550558
-0.539205
-0.526822
-0.513574
-0.499674
-0.485352
-0.470828
-0.456297
-0.441915
-0.427806
-0.414068
-0.400751
-0.603007
-0.596282
-0.590017
-0.583831
-0.577444
-0.570798
-0.563711
-0.555938
-0.547275
-0.537594
-0.526868
-0.515166
-0.50263
-0.489446
-0.475821
-0.461952
-0.448021
-0.434179
-0.420558
-0.407252
-0.592477
-0.586576
-0.580925
-0.575302
-0.569562
-0.563717
-0.557634
-0.551088
-0.543847
-0.535716
-0.526581
-0.516415
-0.505278
-0.493296
-0.48064
-0.4675
-0.454065
-0.440509
-0.42699
-0.413654
-0.582732
-0.577589
-0.57251
-0.567404
-0.562238
-0.557085
-0.551866
-0.546387
-0.540409
-0.533698
-0.526066
-0.517401
-0.507676
-0.496946
-0.485329
-0.472989
-0.460106
-0.446868
-0.43345
-0.420043
-0.573809
-0.569342
-0.564787
-0.560157
-0.555508
-0.550964
-0.546495
-0.541945
-0.537085
-0.531658
-0.525426
-0.518205
-0.509884
-0.500439
-0.489925
-0.478458
-0.466199
-0.453329
-0.440037
-0.426565
-0.565721
-0.561836
-0.557756
-0.553566
-0.549389
-0.545392
-0.541587
-0.537853
-0.533981
-0.529709
-0.524766
-0.518911
-0.511962
-0.503816
-0.494453
-0.483933
-0.472376
-0.459947
-0.446833
-0.433336
-0.558462
-0.555057
-0.551399
-0.547619
-0.543886
-0.540393
-0.537188
-0.534183
-0.531189
-0.527952
-0.524184
-0.519604
-0.513972
-0.507111
-0.498929
-0.489417
-0.478646
-0.46675
-0.453915
-0.440591
-0.551993
-0.548964
-0.54568
-0.542289
-0.538984
-0.535972
-0.533327
-0.530985
-0.528781
-0.526472
-0.523767
-0.520361
-0.51597
-0.510357
-0.503358
-0.494893
-0.484971
-0.473685
-0.461218
-0.448281
-0.546246
-0.543494
-0.540543
-0.537529
-0.534646
-0.53211
-0.530003
-0.528282
-0.526801
-0.52533
-0.523584
-0.521247
-0.518007
-0.51358
-0.507739
-0.500329
-0.491287
-0.480642
-0.468601
-0.456545
-0.541116
-0.538557
-0.535905
-0.533264
-0.530811
-0.528756
-0.527184
-0.526061
-0.525254
-0.524549
-0.523668
-0.522299
-0.520114
-0.516796
-0.512064
-0.505693
-0.497527
-0.487453
-0.475502
-0.464152
-0.536466
-0.534034
-0.53166
-0.529395
-0.527385
-0.525826
-0.524796
-0.524262
-0.524098
-0.524101
-0.524008
-0.523513
-0.522286
-0.519994
-0.516316
-0.510963
-0.50369
-0.494223
-0.481972
-0.468309
-0.532133
-0.529789
-0.52768
-0.525797
-0.524247
-0.5232
-0.522723
-0.522774
-0.523231
-0.523899
-0.524528
-0.524824
-0.524467
-0.523123
-0.520461
-0.516171
-0.509993
-0.501705
-0.490823
-0.478157
-0.527938
-0.525671
-0.523825
-0.522331
-0.52125
-0.520728
-0.520809
-0.521441
-0.522498
-0.523792
-0.525084
-0.526095
-0.526521
-0.526039
-0.524325
-0.52107
-0.51601
-0.508908
-0.499299
-0.488089
-0.523699
-0.521525
-0.519948
-0.518846
-0.518237
-0.518238
-0.51887
-0.520067
-0.521697
-0.523574
-0.525469
-0.527119
-0.528234
-0.528511
-0.527637
-0.525309
-0.521259
-0.515215
-0.506732
-0.497015
-0.519243
-0.517203
-0.515906
-0.515192
-0.515045
-0.515551
-0.516709
-0.518437
-0.520595
-0.523001
-0.525431
-0.527637
-0.529347
-0.530272
-0.530119
-0.528599
-0.525453
-0.520401
-0.513079
-0.504846
-0.514421
-0.512572
-0.511568
-0.511229
-0.511518
-0.512491
-0.514127
-0.516329
-0.518952
-0.521813
-0.524697
-0.527368
-0.529569
-0.531032
-0.531481
-0.530649
-0.528296
-0.524162
-0.518006
-0.51113
-0.509116
-0.507523
-0.506821
-0.506836
-0.507517
-0.508901
-0.510944
-0.513542
-0.516543
-0.519766
-0.523006
-0.526037
-0.528618
-0.5305
-0.531429
-0.531161
-0.529479
-0.526166
-0.521116
-0.515402
-0.503246
-0.501975
-0.501581
-0.501915
-0.502933
-0.504651
-0.507014
-0.509909
-0.513183
-0.516659
-0.52014
-0.523413
-0.526255
-0.528433
-0.529718
-0.529891
-0.528761
-0.526168
-0.522135
-0.517379
-0.496776
-0.495884
-0.495793
-0.496404
-0.49769
-0.499656
-0.502238
-0.505318
-0.508747
-0.512355
-0.515955
-0.519347
-0.522325
-0.524677
-0.526199
-0.526698
-0.526012
-0.524049
-0.520933
-0.516954
-0.489712
-0.48924
-0.489439
-0.490276
-0.491756
-0.493877
-0.49657
-0.499721
-0.503187
-0.506804
-0.510399
-0.513788
-0.516783
-0.519195
-0.520845
-0.52157
-0.521238
-0.519825
-0.517522
-0.514176
-0.482101
-0.482069
-0.482534
-0.483544
-0.485143
-0.487327
-0.490029
-0.493141
-0.496528
-0.50004
-0.503517
-0.506792
-0.509697
-0.51207
-0.513758
-0.514625
-0.51457
-0.513634
-0.51204
-0.509215
-0.474024