1.275 	2.15223e-18 	-2.76991e-20 	-0.276801
1.825 	2.15223e-18 	-1.39322e-20 	-0.261139
2.375 	2.15223e-18 	1.38775e-18 	-0.315915
2.925 	2.15223e-18 	2.78958e-18 	-0.2994
3.475 	2.15223e-18 	4.53849e-18 	-0.229995
4.025 	2.15223e-18 	6.28755e-18 	-0.164214
4.575 	2.15223e-18 	6.30203e-18 	-0.101691
5.125 	2.15223e-18 	6.31666e-18 	-0.0580579
5.675 	2.15223e-18 	6.33144e-18 	-0.0286128
6.225 	2.15223e-18 	4.61166e-18 	-0.00613782
