/*--------------------------------*- C++ -*----------------------------------*\
  =========                 |
  \\      /  F ield         | OpenFOAM: The Open Source CFD Toolbox
   \\    /   O peration     | Website:  https://openfoam.org
    \\  /    A nd           | Version:  6.0
     \\/     M anipulation  |
\*---------------------------------------------------------------------------*/
FoamFile
{
    version     2.0;
    format      ascii;
    class       volScalarField;
    location    "6";
    object      p;
}
// * * * * * * * * * * * * * * * * * * * * * * * * * * * * * * * * * * * * * //

dimensions      [0 2 -2 0 0 0 0];

internalField   nonuniform List<scalar> 
8000
(
-0.33302
-0.336309
-0.338336
-0.339857
-0.341322
-0.342822
-0.344406
-0.346102
-0.347911
-0.349822
-0.351817
-0.353875
-0.355975
-0.358096
-0.360226
-0.362363
-0.364465
-0.366369
-0.368129
-0.371135
-0.333685
-0.336872
-0.338846
-0.340337
-0.34178
-0.343264
-0.344837
-0.346524
-0.348327
-0.350233
-0.352224
-0.35428
-0.356378
-0.358499
-0.360628
-0.362765
-0.364869
-0.366775
-0.368528
-0.371529
-0.334991
-0.337978
-0.339848
-0.34128
-0.34268
-0.344131
-0.345679
-0.347347
-0.349136
-0.351031
-0.353014
-0.355064
-0.357158
-0.359276
-0.361404
-0.363539
-0.365645
-0.367555
-0.369296
-0.372286
-0.336867
-0.339567
-0.341287
-0.342631
-0.343965
-0.345365
-0.346874
-0.34851
-0.350273
-0.352148
-0.354115
-0.356151
-0.358234
-0.360343
-0.362463
-0.364593
-0.366698
-0.36861
-0.370332
-0.3733
-0.339215
-0.341558
-0.343088
-0.344316
-0.34556
-0.346889
-0.348339
-0.349927
-0.351649
-0.353488
-0.355424
-0.357434
-0.359495
-0.361584
-0.363685
-0.365799
-0.367894
-0.369803
-0.371496
-0.37443
-0.341916
-0.343854
-0.345159
-0.346246
-0.347376
-0.348611
-0.34998
-0.351498
-0.353157
-0.354941
-0.356827
-0.358791
-0.360811
-0.362862
-0.364928
-0.367009
-0.36908
-0.370976
-0.372631
-0.375516
-0.344848
-0.346351
-0.347409
-0.348331
-0.349323
-0.350437
-0.3517
-0.35312
-0.35469
-0.356391
-0.3582
-0.360094
-0.362047
-0.364036
-0.366045
-0.368072
-0.370099
-0.371966
-0.373572
-0.376393
-0.347886
-0.34895
-0.349748
-0.350485
-0.351314
-0.35228
-0.353405
-0.354697
-0.356145
-0.357731
-0.359432
-0.361222
-0.363078
-0.364976
-0.366899
-0.368845
-0.370805
-0.372623
-0.374167
-0.376913
-0.350919
-0.351564
-0.352096
-0.352633
-0.353276
-0.354064
-0.35502
-0.356147
-0.357437
-0.358872
-0.360428
-0.36208
-0.363804
-0.365577
-0.367381
-0.369217
-0.371078
-0.372824
-0.374293
-0.376956
-0.353858
-0.354119
-0.354393
-0.354718
-0.355153
-0.355735
-0.356488
-0.357415
-0.35851
-0.359754
-0.361127
-0.362603
-0.364159
-0.365771
-0.367422
-0.369113
-0.370845
-0.372489
-0.373866
-0.376443
-0.356635
-0.356567
-0.356597
-0.356702
-0.356911
-0.357262
-0.357779
-0.358471
-0.359334
-0.360351
-0.361504
-0.362768
-0.36412
-0.365536
-0.367
-0.368512
-0.37008
-0.371588
-0.372847
-0.375334
-0.359215
-0.358882
-0.358688
-0.358571
-0.358539
-0.358635
-0.35889
-0.359316
-0.359914
-0.360673
-0.361574
-0.362596
-0.363713
-0.364904
-0.366149
-0.367448
-0.368813
-0.370142
-0.371241
-0.373616
-0.361591
-0.361061
-0.360669
-0.36033
-0.360047
-0.35987
-0.35984
-0.359976
-0.360285
-0.360761
-0.361388
-0.362146
-0.363009
-0.363951
-0.364951
-0.366005
-0.367126
-0.368219
-0.369084
-0.371291
-0.363788
-0.363127
-0.36256
-0.362002
-0.361462
-0.361001
-0.360671
-0.360501
-0.360506
-0.360686
-0.361028
-0.361512
-0.36211
-0.362792
-0.36353
-0.36431
-0.36514
-0.365924
-0.366437
-0.368348
-0.365859
-0.365123
-0.364402
-0.363629
-0.362828
-0.362078
-0.361441
-0.360959
-0.360656
-0.360537
-0.360593
-0.360804
-0.361139
-0.361559
-0.362025
-0.362507
-0.362996
-0.363377
-0.363373
-0.364762
-0.36788
-0.367111
-0.36625
-0.365264
-0.364204
-0.363163
-0.362219
-0.361428
-0.360821
-0.360411
-0.360191
-0.36014
-0.360221
-0.360386
-0.360576
-0.360738
-0.360832
-0.360708
-0.359987
-0.360523
-0.369948
-0.369167
-0.368172
-0.366975
-0.365655
-0.364328
-0.363084
-0.361992
-0.361093
-0.360406
-0.359925
-0.359627
-0.359468
-0.359386
-0.359299
-0.35912
-0.358767
-0.358044
-0.356424
-0.355707
-0.372175
-0.37138
-0.370246
-0.368833
-0.367257
-0.365648
-0.364115
-0.362737
-0.361563
-0.360615
-0.359891
-0.359361
-0.358974
-0.35865
-0.35828
-0.357733
-0.356872
-0.355443
-0.352741
-0.35031
-0.374675
-0.373841
-0.372552
-0.370917
-0.369083
-0.367202
-0.365393
-0.363744
-0.362312
-0.361122
-0.360171
-0.359425
-0.358825
-0.358275
-0.357642
-0.356747
-0.355369
-0.353131
-0.349038
-0.34425
-0.377562
-0.376642
-0.375172
-0.373302
-0.37121
-0.369062
-0.366989
-0.365085
-0.363412
-0.361995
-0.360831
-0.359886
-0.359098
-0.358375
-0.357591
-0.356575
-0.3551
-0.35269
-0.348035
-0.341889
-0.380941
-0.379869
-0.378181
-0.37606
-0.373704
-0.371293
-0.368965
-0.366819
-0.364915
-0.363281
-0.36191
-0.36077
-0.359806
-0.358948
-0.358117
-0.357247
-0.356312
-0.355322
-0.354652
-0.358771
-0.384902
-0.383598
-0.381648
-0.379253
-0.376622
-0.373946
-0.371368
-0.368986
-0.366856
-0.365002
-0.363415
-0.362061
-0.360892
-0.35985
-0.358889
-0.357987
-0.357183
-0.356601
-0.356599
-0.359736
-0.389517
-0.387891
-0.385629
-0.382932
-0.380011
-0.377065
-0.374234
-0.371613
-0.369251
-0.367163
-0.365333
-0.363726
-0.362291
-0.36098
-0.359756
-0.358611
-0.357585
-0.356767
-0.356339
-0.35735
-0.39484
-0.392801
-0.390172
-0.387141
-0.38391
-0.38068
-0.377587
-0.374715
-0.372102
-0.369749
-0.367632
-0.365705
-0.363916
-0.362216
-0.360569
-0.358962
-0.35741
-0.355945
-0.354655
-0.353801
-0.400911
-0.398367
-0.395315
-0.391916
-0.388351
-0.384818
-0.381446
-0.378299
-0.3754
-0.372733
-0.370258
-0.36792
-0.365664
-0.363438
-0.361206
-0.358952
-0.356673
-0.354372
-0.352099
-0.34974
-0.407757
-0.404621
-0.401094
-0.397292
-0.393365
-0.389506
-0.385826
-0.382367
-0.379126
-0.376069
-0.37314
-0.370277
-0.367422
-0.364529
-0.361569
-0.358531
-0.355414
-0.35222
-0.348995
-0.345523
-0.415396
-0.411588
-0.407536
-0.4033
-0.398984
-0.394767
-0.390738
-0.386908
-0.383247
-0.379698
-0.376193
-0.37267
-0.369076
-0.365382
-0.361575
-0.357661
-0.353655
-0.349576
-0.345469
-0.341139
-0.423839
-0.419286
-0.414668
-0.409969
-0.405233
-0.400619
-0.396183
-0.3919
-0.387709
-0.383538
-0.379314
-0.374982
-0.370513
-0.365899
-0.361155
-0.356312
-0.351406
-0.346476
-0.341566
-0.336545
-0.433085
-0.427727
-0.422508
-0.41732
-0.41213
-0.407066
-0.402141
-0.397292
-0.392434
-0.387485
-0.382381
-0.377093
-0.371621
-0.365993
-0.360255
-0.354461
-0.348667
-0.342925
-0.337277
-0.331648
-0.443122
-0.436907
-0.431063
-0.425361
-0.419675
-0.414086
-0.408563
-0.403006
-0.397314
-0.391412
-0.385265
-0.378882
-0.372303
-0.365595
-0.358832
-0.35209
-0.345434
-0.338922
-0.332587
-0.32639
-0.453917
-0.446806
-0.44032
-0.434079
-0.427839
-0.421627
-0.415365
-0.408926
-0.402211
-0.395176
-0.38783
-0.380232
-0.372471
-0.364647
-0.356857
-0.349187
-0.341705
-0.334463
-0.327481
-0.320737
-0.465411
-0.457381
-0.45024
-0.443428
-0.436557
-0.429594
-0.42242
-0.414901
-0.406965
-0.39862
-0.389939
-0.381039
-0.372052
-0.363104
-0.354307
-0.345746
-0.337479
-0.329549
-0.321955
-0.314681
-0.477515
-0.468557
-0.460754
-0.453327
-0.445724
-0.437849
-0.429562
-0.420748
-0.411395
-0.401585
-0.391465
-0.381208
-0.370983
-0.360931
-0.351164
-0.341756
-0.332753
-0.324176
-0.316004
-0.308225
-0.490103
-0.480223
-0.471752
-0.46365
-0.455184
-0.446208
-0.436587
-0.426263
-0.415313
-0.403913
-0.392287
-0.380655
-0.369208
-0.358093
-0.347407
-0.337207
-0.327516
-0.318338
-0.309626
-0.301372
-0.503007
-0.49223
-0.483082
-0.474223
-0.464735
-0.454444
-0.443261
-0.431225
-0.418531
-0.405455
-0.392293
-0.379301
-0.366677
-0.354555
-0.343011
-0.332076
-0.321753
-0.312021
-0.302808
-0.29412
-0.51602
-0.504385
-0.494546
-0.484826
-0.474132
-0.462297
-0.44933
-0.435408
-0.420861
-0.406069
-0.391382
-0.377075
-0.363337
-0.350277
-0.337942
-0.326336
-0.315437
-0.305203
-0.295533
-0.286458
-0.528892
-0.516455
-0.5059
-0.495193
-0.483088
-0.469481
-0.454531
-0.438589
-0.422129
-0.405623
-0.389458
-0.373906
-0.359132
-0.345212
-0.33216
-0.31995
-0.308535
-0.297851
-0.287773
-0.278366
-0.541334
-0.528163
-0.516858
-0.505016
-0.491288
-0.475694
-0.458599
-0.440553
-0.422171
-0.403996
-0.386429
-0.369723
-0.354004
-0.33931
-0.325618
-0.312873
-0.301005
-0.28993
-0.279495
-0.269816
-0.553021
-0.539196
-0.527095
-0.513959
-0.498398
-0.480632
-0.46128
-0.4411
-0.420835
-0.401073
-0.382208
-0.364453
-0.347891
-0.332514
-0.318264
-0.305056
-0.292803
-0.281397
-0.270662
-0.260772
-0.563602
-0.549209
-0.536257
-0.52166
-0.504077
-0.483998
-0.462332
-0.440046
-0.417982
-0.39675
-0.37671
-0.358026
-0.340728
-0.324765
-0.310042
-0.296449
-0.283881
-0.272207
-0.261232
-0.251199
-0.572707
-0.557836
-0.543971
-0.527752
-0.507988
-0.485509
-0.461536
-0.437224
-0.413489
-0.390928
-0.369854
-0.35037
-0.332451
-0.316002
-0.300897
-0.287001
-0.274191
-0.262317
-0.251166
-0.241057
-0.579951
-0.564695
-0.549852
-0.531868
-0.509811
-0.484909
-0.458695
-0.432488
-0.407242
-0.383518
-0.361563
-0.341416
-0.322997
-0.306169
-0.290775
-0.276661
-0.263688
-0.251685
-0.240425
-0.230313
-0.584952
-0.569405
-0.553523
-0.53366
-0.509252
-0.481968
-0.453639
-0.425713
-0.399145
-0.37444
-0.351768
-0.331102
-0.312308
-0.295211
-0.279627
-0.265384
-0.25233
-0.240272
-0.228975
-0.218932
-0.587342
-0.571595
-0.554623
-0.532805
-0.506051
-0.47649
-0.446225
-0.416791
-0.389114
-0.363622
-0.340406
-0.31937
-0.300331
-0.283081
-0.26741
-0.253132
-0.240083
-0.228048
-0.216788
-0.20689
-0.58677
-0.570913
-0.552819
-0.529018
-0.499987
-0.468315
-0.436338
-0.405637
-0.37708
-0.351005
-0.327422
-0.30617
-0.287022
-0.269737
-0.254087
-0.239873
-0.226918
-0.214988
-0.203843
-0.194167
-0.58292
-0.567042
-0.547816
-0.522058
-0.490881
-0.457319
-0.423893
-0.392188
-0.362991
-0.336545
-0.312776
-0.291466
-0.272346
-0.25515
-0.239632
-0.225583
-0.212814
-0.201075
-0.190128
-0.180752
-0.575518
-0.559706
-0.539367
-0.511733
-0.4786
-0.443415
-0.408832
-0.376401
-0.346812
-0.320208
-0.296438
-0.275229
-0.256278
-0.239297
-0.224026
-0.210247
-0.197762
-0.1863
-0.175637
-0.16664
-0.564338
-0.54868
-0.52728
-0.497903
-0.463059
-0.426556
-0.391127
-0.358256
-0.328526
-0.301979
-0.278392
-0.257444
-0.238806
-0.222168
-0.207262
-0.19386
-0.181757
-0.170666
-0.160375
-0.151836
-0.549212
-0.533796
-0.51142
-0.480487
-0.44422
-0.406729
-0.370777
-0.337758
-0.308135
-0.281857
-0.258636
-0.238111
-0.219927
-0.203763
-0.18934
-0.176427
-0.164808
-0.154183
-0.144356
-0.136352
-0.53003
-0.514947
-0.491714
-0.459457
-0.422088
-0.383959
-0.347814
-0.314932
-0.285661
-0.259859
-0.237183
-0.217239
-0.199653
-0.184092
-0.170273
-0.15796
-0.146931
-0.136872
-0.127605
-0.120217
-0.506749
-0.492091
-0.468152
-0.43484
-0.396716
-0.358306
-0.322293
-0.289828
-0.261144
-0.236018
-0.214061
-0.194851
-0.178002
-0.163174
-0.150079
-0.138481
-0.128149
-0.118762
-0.110159
-0.103475
-0.479387
-0.465251
-0.440784
-0.406716
-0.368201
-0.329867
-0.294301
-0.26252
-0.234646
-0.210387
-0.189312
-0.170984
-0.155006
-0.141034
-0.128782
-0.118011
-0.108486
-0.0998813
-0.0920557
-0.0861707
-0.448029
-0.434514
-0.409723
-0.375218
-0.336677
-0.298769
-0.263953
-0.233106
-0.20625
-0.183032
-0.162993
-0.145682
-0.130701
-0.117704
-0.106408
-0.0965738
-0.0879655
-0.0802581
-0.0733291
-0.0683283
-0.412825
-0.40003
-0.375135
-0.340526
-0.302323
-0.265174
-0.23139
-0.201709
-0.176061
-0.154043
-0.135176
-0.119005
-0.105132
-0.0932184
-0.0829826
-0.0741911
-0.0666085
-0.0599181
-0.0540027
-0.049935
-0.373981
-0.362006
-0.337241
-0.302862
-0.265349
-0.229275
-0.196783
-0.168477
-0.144204
-0.123526
-0.105949
-0.0910207
-0.0783505
-0.0676099
-0.0585266
-0.0508746
-0.0444261
-0.038876
-0.0340851
-0.0309885
-0.331761
-0.320707
-0.296309
-0.262491
-0.226005
-0.191296
-0.16033
-0.133584
-0.110833
-0.0916102
-0.075419
-0.0618138
-0.0504176
-0.0409174
-0.0330575
-0.0266254
-0.0214066
-0.017114
-0.0135848
-0.0116296
-0.28648
-0.276443
-0.252652
-0.219715
-0.184568
-0.151488
-0.122257
-0.0972303
-0.0761237
-0.0584497
-0.043715
-0.0314876
-0.0214098
-0.0131928
-0.00660522
-0.00145153
0.00246482
0.00537213
0.00736541
0.00771237
-0.238497
-0.229568
-0.206617
-0.174865
-0.141345
-0.110132
-0.0828172
-0.0596454
-0.0402803
-0.0242218
-0.0109842
-0.000153771
0.00860083
0.0155333
0.0208389
0.0246912
0.0272433
0.0285373
0.0284289
0.0265754
-0.188206
-0.18047
-0.158585
-0.128301
-0.0966698
-0.0675315
-0.0422911
-0.0210874
-0.00354027
0.0108604
0.0225934
0.0320566
0.0395558
0.045308
0.04947
0.0521832
0.0534789
0.0529819
0.0501854
0.0461046
-0.136034
-0.129569
-0.10896
-0.0804014
-0.0508918
-0.0240125
-0.000982834
0.0181542
0.0338174
0.0465266
0.056759
0.0649087
0.0712774
0.0760799
0.0794862
0.0816553
0.0824841
0.081081
0.0767156
0.0723029
-0.082431
-0.0773033
-0.0581622
-0.0315611
-0.00437569
0.0200869
0.0407872
0.0577691
0.0714829
0.0824543
0.0911599
0.0979963
0.103279
0.107262
0.110202
0.112388
0.113783
0.113355
0.110844
0.114874
-0.027854
-0.0241219
-0.00662131
0.0178203
0.0425089
0.0644228
0.0826949
0.0974447
0.109146
0.118323
0.125445
0.1309
0.135003
0.138018
0.140218
0.141876
0.142971
0.14301
0.142932
0.149166
0.0272243
0.0295149
0.045227
0.0673399
0.0893924
0.108654
0.12442
0.136876
0.146511
0.153844
0.159332
0.163351
0.16621
0.168171
0.169493
0.170404
0.17088
0.170613
0.170556
0.175616
0.082331
0.0831474
0.0969495
0.1166
0.135911
0.152446
0.165652
0.175771
0.183298
0.188741
0.19254
0.195054
0.196576
0.197357
0.197633
0.197608
0.197273
0.196394
0.195752
0.199237
0.136997
0.136321
0.14812
0.165209
0.181711
0.195477
0.206096
0.213855
0.219254
0.222782
0.224858
0.225821
0.225944
0.225457
0.22457
0.223457
0.222096
0.220282
0.218732
0.220757
0.190763
0.188589
0.198322
0.212791
0.22645
0.237437
0.24547
0.250874
0.254144
0.255752
0.256092
0.255481
0.254172
0.252371
0.250268
0.248005
0.245547
0.242711
0.240179
0.240805
0.243181
0.239521
0.247156
0.258981
0.269803
0.278033
0.283509
0.286587
0.287754
0.28746
0.286075
0.283895
0.281147
0.27802
0.274679
0.271242
0.267664
0.263791
0.260273
0.25958
0.29382
0.288699
0.294234
0.303432
0.311457
0.316986
0.319963
0.32077
0.319882
0.317728
0.314655
0.310932
0.306769
0.302333
0.29777
0.293176
0.288501
0.28362
0.279144
0.277199
0.342269
0.335729
0.339193
0.345814
0.351118
0.354031
0.354596
0.353211
0.350341
0.346391
0.341685
0.33647
0.330936
0.325233
0.319486
0.313775
0.30805
0.302208
0.296818
0.293688
0.388138
0.380235
0.381687
0.385817
0.388509
0.388921
0.387184
0.383711
0.378952
0.373291
0.367028
0.36039
0.353549
0.346637
0.339764
0.332994
0.326278
0.319537
0.31328
0.309033
0.431063
0.421867
0.421393
0.423152
0.42337
0.421423
0.417519
0.412082
0.405547
0.398277
0.39055
0.382576
0.374506
0.36646
0.35853
0.35077
0.343135
0.33556
0.328493
0.3232
0.470704
0.460302
0.458015
0.457551
0.455462
0.451322
0.445408
0.43815
0.42997
0.421209
0.412127
0.402913
0.393708
0.384612
0.375707
0.367035
0.358557
0.35022
0.342404
0.336142
0.506752
0.49524
0.491278
0.488768
0.484564
0.47842
0.470671
0.461753
0.452073
0.441954
0.431637
0.421296
0.411055
0.401006
0.391215
0.381717
0.372477
0.363454
0.354954
0.347806
0.538926
0.526415
0.520936
0.516581
0.510478
0.502538
0.493148
0.482745
0.471724
0.460391
0.448971
0.437622
0.426458
0.415557
0.404977
0.394744
0.384829
0.375196
0.366084
0.358142
0.566977
0.553588
0.546772
0.540795
0.533027
0.523517
0.512692
0.500993
0.488802
0.476409
0.464026
0.451799
0.43983
0.428188
0.416921
0.406049
0.395549
0.385387
0.37574
0.3671
0.590688
0.576552
0.568596
0.561238
0.552057
0.541216
0.529177
0.516381
0.5032
0.489912
0.476715
0.463746
0.451096
0.438828
0.42698
0.41557
0.404577
0.393971
0.383869
0.374636
0.609878
0.595134
0.586247
0.577766
0.567438
0.555518
0.542495
0.528811
0.514829
0.500816
0.48696
0.47339
0.460191
0.447416
0.435099
0.423253
0.411863
0.400898
0.390426
0.380711
0.624399
0.609194
0.599599
0.590264
0.579066
0.566328
0.552561
0.538204
0.523615
0.509053
0.494699
0.480674
0.467059
0.453901
0.44123
0.429055
0.417365
0.406129
0.395377
0.385295
0.634141
0.618624
0.608553
0.598644
0.586861
0.573575
0.559307
0.544499
0.529503
0.514573
0.499884
0.485555
0.47166
0.458246
0.445337
0.432942
0.42105
0.409632
0.398692
0.388364
0.639028
0.623355
0.613044
0.602847
0.59077
0.577208
0.562689
0.547655
0.532455
0.51734
0.502483
0.488001
0.473967
0.460423
0.447395
0.43489
0.422897
0.411388
0.400353
0.389901
0.639023
0.623351
0.61304
0.602843
0.590767
0.577205
0.562686
0.547652
0.532452
0.517337
0.502481
0.487999
0.473964
0.460421
0.447393
0.434887
0.422895
0.411386
0.40035
0.389899
0.634128
0.618611
0.60854
0.598632
0.58685
0.573564
0.559297
0.54449
0.529494
0.514564
0.499876
0.485547
0.471653
0.458238
0.445329
0.432935
0.421044
0.409626
0.398685
0.388358
0.624378
0.609172
0.599578
0.590245
0.579048
0.566311
0.552544
0.538189
0.5236
0.509039
0.494685
0.480661
0.467046
0.453889
0.441218
0.429044
0.417354
0.406118
0.395366
0.385285
0.609848
0.595104
0.586219
0.577739
0.567413
0.555494
0.542472
0.52879
0.514808
0.500796
0.486941
0.473371
0.460173
0.447399
0.435082
0.423237
0.411847
0.400882
0.390412
0.380697
0.590649
0.576514
0.568559
0.561203
0.552024
0.541185
0.529147
0.516353
0.503173
0.489886
0.47669
0.463722
0.451074
0.438806
0.426959
0.415549
0.404557
0.393951
0.38385
0.374617
0.566929
0.553541
0.546727
0.540752
0.532987
0.523479
0.512656
0.500959
0.488769
0.476378
0.463996
0.45177
0.439802
0.428161
0.416895
0.406024
0.395524
0.385363
0.375717
0.367077
0.53887
0.52636
0.520883
0.516531
0.510431
0.502494
0.493105
0.482705
0.471686
0.460354
0.448935
0.437588
0.426425
0.415525
0.404946
0.394714
0.3848
0.375168
0.366057
0.358115
0.506687
0.495176
0.491217
0.48871
0.484509
0.478369
0.470622
0.461707
0.452029
0.441912
0.431596
0.421257
0.411017
0.400969
0.391179
0.381683
0.372444
0.363421
0.354922
0.347776
0.470631
0.460229
0.457945
0.457485
0.4554
0.451263
0.445352
0.438097
0.429919
0.421161
0.41208
0.402869
0.393664
0.38457
0.375667
0.366996
0.358519
0.350184
0.342368
0.336107
0.43098
0.421787
0.421316
0.423079
0.423301
0.421357
0.417457
0.412023
0.405491
0.398223
0.390499
0.382526
0.374458
0.366413
0.358485
0.350727
0.343093
0.335519
0.328453
0.323162
0.388047
0.380146
0.381601
0.385736
0.388432
0.388848
0.387115
0.383645
0.37889
0.373231
0.36697
0.360335
0.353496
0.346586
0.339714
0.332946
0.326232
0.319492
0.313236
0.308991
0.342169
0.335631
0.339099
0.345725
0.351034
0.353952
0.354521
0.35314
0.350273
0.346326
0.341622
0.33641
0.330878
0.325177
0.319432
0.313723
0.307999
0.302159
0.296769
0.293641
0.293712
0.288593
0.294133
0.303335
0.311366
0.3169
0.319882
0.320693
0.319808
0.317657
0.314587
0.310866
0.306706
0.302272
0.297711
0.293119
0.288446
0.283566
0.279092
0.277149
0.243065
0.239406
0.247046
0.258877
0.269705
0.27794
0.283421
0.286504
0.287674
0.287383
0.286002
0.283824
0.281079
0.277954
0.274615
0.271181
0.267604
0.263733
0.260217
0.259526
0.190638
0.188467
0.198205
0.212679
0.226345
0.237337
0.245375
0.250784
0.254058
0.255669
0.256013
0.255406
0.254099
0.252301
0.2502
0.247939
0.245483
0.242649
0.240118
0.240747
0.136865
0.13619
0.147994
0.16509
0.181598
0.19537
0.205995
0.213759
0.219162
0.222694
0.224773
0.22574
0.225866
0.225381
0.224497
0.223386
0.222027
0.220215
0.218668
0.220695
0.0821902
0.0830089
0.0968162
0.116473
0.135791
0.152333
0.165545
0.175668
0.1832
0.188648
0.19245
0.194968
0.196493
0.197276
0.197555
0.197533
0.197201
0.196323
0.195683
0.199171
0.0270754
0.0293683
0.0450858
0.0672058
0.0892656
0.108534
0.124306
0.136768
0.146408
0.153745
0.159237
0.16326
0.166122
0.168086
0.169411
0.170324
0.170803
0.170538
0.170483
0.175546
-0.0280109
-0.0242764
-0.00677012
0.0176789
0.0423751
0.0642962
0.0825747
0.0973303
0.109037
0.118219
0.125345
0.130804
0.13491
0.137927
0.140131
0.141791
0.142889
0.14293
0.142854
0.149091
-0.0825956
-0.0774655
-0.0583186
-0.0317098
-0.00451644
0.0199536
0.0406608
0.0576487
0.071368
0.0823442
0.0910541
0.0978944
0.103181
0.107167
0.11011
0.112298
0.113697
0.113271
0.110762
0.114794
-0.136206
-0.129739
-0.109124
-0.0805574
-0.0510394
-0.0241523
-0.00111552
0.0180278
0.0336968
0.046411
0.056648
0.0648017
0.0711741
0.0759799
0.0793892
0.0815611
0.0823922
0.0809912
0.0766271
0.0722153
-0.188385
-0.180648
-0.158757
-0.128464
-0.0968241
-0.0676778
-0.0424299
-0.0212196
-0.00366652
0.0107394
0.0224772
0.0319445
0.0394476
0.0452032
0.0493683
0.0520841
0.0533822
0.0528872
0.0500922
0.0460121
-0.238684
-0.229752
-0.206796
-0.175035
-0.141507
-0.110284
-0.0829621
-0.0597833
-0.040412
-0.0243481
-0.0111055
-0.000270704
0.00848785
0.0154238
0.0207326
0.0245878
0.0271424
0.0284385
0.028332
0.0264796
-0.286675
-0.276635
-0.252837
-0.219892
-0.184735
-0.151647
-0.122408
-0.0973738
-0.0762608
-0.0585811
-0.0438412
-0.0316093
-0.0215273
-0.0133066
-0.0067157
-0.00155902
0.00236003
0.00526979
0.00726522
0.00761374
-0.331962
-0.320906
-0.296502
-0.262675
-0.226179
-0.19146
-0.160486
-0.133733
-0.110975
-0.0917465
-0.07555
-0.0619401
-0.0505395
-0.0410354
-0.033172
-0.0267367
-0.0215151
-0.0172198
-0.0136882
-0.0117312
-0.374189
-0.362212
-0.33744
-0.303052
-0.265529
-0.229446
-0.196945
-0.168631
-0.144352
-0.123667
-0.106085
-0.0911513
-0.0784766
-0.0677319
-0.0586448
-0.0509895
-0.044538
-0.038985
-0.0341915
-0.0310929
-0.413039
-0.400241
-0.37534
-0.340722
-0.302509
-0.26535
-0.231557
-0.201869
-0.176213
-0.154189
-0.135316
-0.11914
-0.105262
-0.0933442
-0.0831045
-0.0743095
-0.0667236
-0.0600302
-0.054112
-0.0500421
-0.448249
-0.434731
-0.409934
-0.37542
-0.336869
-0.298951
-0.264125
-0.233271
-0.206407
-0.183183
-0.163137
-0.145821
-0.130834
-0.117834
-0.106533
-0.0966954
-0.0880838
-0.0803731
-0.0734412
-0.068438
-0.479612
-0.465474
-0.441001
-0.406924
-0.368398
-0.330054
-0.294479
-0.262689
-0.234807
-0.210541
-0.18946
-0.171126
-0.155143
-0.141167
-0.12891
-0.118135
-0.108607
-0.0999991
-0.0921704
-0.0862829
-0.506979
-0.492319
-0.468374
-0.435053
-0.396919
-0.358498
-0.322475
-0.290002
-0.261309
-0.236177
-0.214213
-0.194998
-0.178143
-0.16331
-0.150211
-0.138608
-0.128273
-0.118882
-0.110276
-0.103589
-0.530266
-0.51518
-0.491941
-0.459675
-0.422295
-0.384156
-0.348001
-0.31511
-0.28583
-0.260021
-0.237338
-0.217389
-0.199797
-0.184232
-0.170408
-0.158091
-0.147058
-0.136995
-0.127725
-0.120334
-0.549452
-0.534034
-0.511651
-0.48071
-0.444432
-0.40693
-0.370969
-0.33794
-0.308309
-0.282023
-0.258795
-0.238264
-0.220075
-0.203906
-0.189478
-0.17656
-0.164937
-0.154309
-0.144478
-0.136471
-0.564582
-0.548922
-0.527516
-0.498131
-0.463276
-0.426761
-0.391322
-0.358442
-0.328704
-0.302149
-0.278554
-0.257601
-0.238956
-0.222314
-0.207402
-0.193996
-0.181889
-0.170794
-0.160499
-0.151957
-0.575764
-0.559951
-0.539607
-0.511964
-0.478821
-0.443625
-0.409031
-0.37659
-0.346993
-0.320381
-0.296604
-0.275388
-0.256432
-0.239445
-0.224169
-0.210385
-0.197896
-0.186431
-0.175763
-0.166763
-0.583169
-0.567289
-0.548058
-0.522292
-0.491105
-0.457532
-0.424096
-0.39238
-0.363175
-0.336721
-0.312945
-0.291628
-0.272502
-0.2553
-0.239778
-0.225724
-0.212951
-0.201207
-0.190256
-0.180877
-0.587021
-0.571163
-0.553064
-0.529255
-0.500214
-0.468531
-0.436544
-0.405833
-0.377267
-0.351184
-0.327594
-0.306335
-0.287181
-0.26989
-0.254235
-0.240016
-0.227056
-0.215122
-0.203973
-0.194294
-0.587594
-0.571846
-0.55487
-0.533044
-0.506281
-0.476709
-0.446434
-0.41699
-0.389304
-0.363803
-0.34058
-0.319537
-0.300492
-0.283236
-0.26756
-0.253277
-0.240223
-0.228184
-0.21692
-0.207018
-0.585206
-0.569657
-0.553771
-0.5339
-0.509484
-0.48219
-0.45385
-0.425914
-0.399338
-0.374624
-0.351945
-0.331272
-0.312471
-0.295369
-0.279779
-0.265531
-0.252472
-0.24041
-0.229108
-0.219062
-0.580204
-0.564946
-0.5501
-0.532109
-0.510044
-0.485133
-0.458908
-0.432692
-0.407437
-0.383704
-0.361742
-0.341588
-0.323163
-0.306328
-0.290928
-0.276809
-0.263831
-0.251824
-0.24056
-0.230444
-0.572959
-0.558086
-0.544218
-0.527993
-0.508222
-0.485734
-0.461751
-0.43743
-0.413685
-0.391116
-0.370034
-0.350543
-0.332618
-0.316163
-0.301052
-0.287151
-0.274336
-0.262458
-0.251302
-0.24119
-0.563853
-0.549458
-0.536503
-0.521901
-0.504311
-0.484223
-0.462548
-0.440253
-0.418181
-0.39694
-0.376892
-0.358201
-0.340897
-0.324927
-0.310199
-0.296601
-0.284028
-0.272349
-0.26137
-0.251332
-0.55327
-0.539443
-0.527339
-0.514199
-0.498632
-0.480858
-0.461497
-0.441309
-0.421035
-0.401265
-0.382392
-0.36463
-0.348061
-0.332678
-0.318422
-0.305209
-0.292951
-0.28154
-0.270801
-0.260907
-0.54158
-0.528407
-0.5171
-0.505255
-0.491521
-0.47592
-0.458817
-0.440763
-0.422372
-0.404189
-0.386615
-0.369901
-0.354176
-0.339476
-0.325778
-0.313027
-0.301155
-0.290075
-0.279635
-0.269951
-0.529136
-0.516696
-0.506139
-0.495429
-0.48332
-0.469706
-0.454748
-0.438799
-0.422332
-0.405818
-0.389645
-0.374086
-0.359306
-0.345379
-0.332322
-0.320106
-0.308686
-0.297997
-0.287914
-0.278503
-0.51626
-0.504623
-0.494782
-0.485059
-0.474361
-0.462521
-0.449547
-0.435619
-0.421064
-0.406265
-0.39157
-0.377257
-0.363512
-0.350445
-0.338105
-0.326494
-0.315589
-0.30535
-0.295675
-0.286596
-0.503243
-0.492464
-0.483314
-0.474452
-0.464962
-0.454666
-0.443477
-0.431435
-0.418734
-0.405652
-0.392482
-0.379484
-0.366853
-0.354725
-0.343175
-0.332235
-0.321907
-0.31217
-0.302952
-0.294259
-0.490335
-0.480453
-0.47198
-0.463875
-0.455407
-0.446427
-0.436801
-0.426473
-0.415516
-0.40411
-0.392477
-0.380838
-0.369386
-0.358265
-0.347573
-0.337367
-0.327672
-0.318488
-0.309771
-0.301512
-0.477743
-0.468782
-0.460978
-0.453549
-0.445943
-0.438065
-0.429775
-0.420956
-0.411597
-0.401781
-0.391656
-0.381393
-0.371161
-0.361104
-0.351332
-0.341918
-0.33291
-0.324328
-0.316151
-0.308367
-0.465634
-0.457603
-0.45046
-0.443646
-0.436773
-0.429807
-0.42263
-0.415107
-0.407166
-0.398816
-0.390131
-0.381225
-0.372232
-0.363279
-0.354477
-0.34591
-0.337638
-0.329702
-0.322103
-0.314825
-0.454136
-0.447024
-0.440535
-0.434292
-0.42805
-0.421836
-0.415572
-0.40913
-0.402412
-0.395372
-0.388021
-0.380419
-0.372653
-0.364823
-0.357029
-0.349353
-0.341866
-0.334619
-0.327632
-0.320883
-0.443337
-0.43712
-0.431274
-0.42557
-0.419882
-0.414292
-0.408767
-0.403208
-0.397513
-0.391607
-0.385457
-0.379069
-0.372486
-0.365774
-0.359006
-0.352259
-0.345598
-0.33908
-0.33274
-0.326538
-0.433296
-0.427935
-0.422715
-0.417525
-0.412334
-0.407268
-0.402341
-0.397491
-0.392631
-0.387678
-0.382572
-0.377281
-0.371806
-0.366174
-0.360431
-0.354633
-0.348834
-0.343087
-0.337433
-0.331799
-0.424045
-0.419491
-0.414871
-0.41017
-0.405432
-0.400818
-0.396379
-0.392095
-0.387903
-0.38373
-0.379504
-0.375171
-0.370698
-0.366082
-0.361335
-0.356487
-0.351577
-0.346641
-0.341725
-0.336699
-0.415599
-0.411789
-0.407735
-0.403497
-0.39918
-0.394962
-0.390931
-0.3871
-0.383438
-0.379888
-0.376383
-0.372858
-0.369264
-0.365567
-0.361757
-0.35784
-0.353829
-0.349746
-0.345633
-0.341297
-0.407957
-0.404819
-0.40129
-0.397486
-0.393558
-0.389697
-0.386015
-0.382555
-0.379315
-0.376258
-0.373329
-0.370466
-0.36761
-0.364716
-0.361755
-0.358714
-0.355593
-0.352395
-0.349164
-0.345686
-0.401108
-0.398562
-0.395509
-0.392108
-0.38854
-0.385006
-0.381632
-0.378485
-0.375586
-0.37292
-0.370445
-0.368109
-0.365853
-0.363628
-0.361396
-0.359141
-0.356859
-0.354554
-0.352275
-0.349908
-0.395035
-0.392994
-0.390362
-0.38733
-0.384097
-0.380864
-0.377771
-0.374898
-0.372285
-0.369934
-0.367819
-0.365894
-0.364108
-0.362409
-0.360763
-0.359156
-0.357602
-0.356134
-0.354838
-0.353976
-0.38971
-0.388083
-0.385818
-0.383119
-0.380196
-0.377247
-0.374415
-0.371794
-0.369433
-0.367346
-0.36552
-0.363915
-0.362484
-0.361176
-0.359954
-0.358812
-0.357785
-0.356965
-0.356532
-0.357534
-0.385094
-0.383788
-0.381835
-0.379438
-0.376805
-0.374127
-0.371548
-0.369165
-0.367037
-0.365185
-0.363601
-0.362251
-0.361087
-0.36005
-0.359092
-0.358194
-0.357393
-0.35681
-0.356805
-0.359931
-0.381133
-0.380058
-0.378368
-0.376244
-0.373886
-0.371472
-0.369143
-0.366997
-0.365095
-0.363464
-0.362097
-0.360962
-0.360004
-0.359152
-0.358327
-0.357462
-0.356531
-0.355543
-0.354873
-0.358983
-0.377754
-0.376831
-0.375358
-0.373486
-0.371391
-0.369241
-0.367167
-0.365264
-0.363592
-0.362179
-0.361019
-0.36008
-0.359298
-0.358583
-0.357805
-0.356797
-0.35533
-0.352926
-0.348279
-0.342139
-0.374867
-0.37403
-0.372738
-0.3711
-0.369264
-0.367381
-0.365571
-0.363923
-0.362493
-0.361307
-0.360361
-0.359622
-0.359028
-0.358487
-0.357863
-0.356976
-0.355608
-0.353379
-0.349296
-0.344515
-0.372368
-0.371569
-0.370432
-0.369016
-0.367437
-0.365827
-0.364294
-0.362917
-0.361745
-0.360802
-0.360083
-0.35956
-0.359181
-0.358866
-0.358506
-0.357969
-0.357118
-0.355699
-0.353008
-0.350585
-0.370142
-0.369357
-0.368358
-0.367158
-0.365836
-0.364507
-0.363263
-0.362173
-0.361277
-0.360594
-0.36012
-0.359829
-0.359679
-0.359606
-0.35953
-0.359362
-0.35902
-0.358308
-0.3567
-0.355991
-0.368074
-0.3673
-0.366435
-0.365447
-0.364384
-0.363343
-0.362399
-0.36161
-0.361006
-0.360601
-0.360388
-0.360345
-0.360435
-0.360611
-0.360812
-0.360986
-0.361091
-0.360979
-0.36027
-0.360816
-0.366053
-0.365311
-0.364586
-0.36381
-0.363008
-0.362257
-0.361621
-0.361142
-0.360843
-0.36073
-0.360793
-0.361012
-0.361356
-0.361788
-0.362265
-0.362759
-0.36326
-0.363654
-0.363662
-0.365061
-0.363981
-0.363314
-0.362742
-0.362182
-0.36164
-0.36118
-0.360851
-0.360684
-0.360694
-0.36088
-0.36123
-0.361722
-0.36233
-0.363023
-0.363772
-0.364565
-0.365408
-0.366204
-0.366731
-0.368652
-0.361782
-0.361245
-0.360848
-0.360507
-0.360223
-0.360047
-0.360018
-0.360158
-0.360472
-0.360955
-0.36159
-0.362357
-0.36323
-0.364183
-0.365195
-0.366261
-0.367395
-0.368501
-0.36938
-0.371597
-0.359402
-0.359061
-0.358864
-0.358745
-0.358712
-0.358809
-0.359065
-0.359496
-0.360099
-0.360865
-0.361774
-0.362805
-0.363933
-0.365135
-0.366392
-0.367703
-0.369081
-0.370423
-0.371536
-0.373921
-0.356817
-0.356741
-0.356767
-0.356871
-0.357079
-0.35743
-0.357951
-0.358647
-0.359515
-0.36054
-0.361701
-0.362975
-0.364337
-0.365764
-0.36724
-0.368764
-0.370344
-0.371866
-0.373139
-0.375634
-0.354033
-0.354286
-0.354556
-0.354879
-0.355314
-0.355898
-0.356653
-0.357585
-0.358686
-0.359937
-0.361318
-0.362804
-0.36437
-0.365993
-0.367656
-0.369359
-0.371103
-0.37276
-0.37415
-0.376736
-0.351085
-0.351721
-0.35225
-0.352786
-0.353428
-0.354218