/*--------------------------------*- C++ -*----------------------------------*\
  =========                 |
  \\      /  F ield         | OpenFOAM: The Open Source CFD Toolbox
   \\    /   O peration     | Website:  https://openfoam.org
    \\  /    A nd           | Version:  6.0
     \\/     M anipulation  |
\*---------------------------------------------------------------------------*/
FoamFile
{
    version     2.0;
    format      ascii;
    class       volVectorField;
    location    "100";
    object      U;
}
// * * * * * * * * * * * * * * * * * * * * * * * * * * * * * * * * * * * * * //

dimensions      [0 1 -1 0 0 0 0];

internalField   nonuniform List<vector> 
12500
(
(-0.000231465 -0.039678 -1.57809e-21)
(-0.00330098 -0.0893198 2.07473e-20)
(-0.0101251 -0.116854 -3.01523e-20)
(-0.0189995 -0.128057 1.39128e-20)
(-0.0289895 -0.12756 9.0261e-22)
(-0.0395334 -0.118962 -1.83839e-21)
(-0.0502013 -0.104969 -2.5707e-20)
(-0.0606746 -0.0875431 1.42056e-20)
(-0.0707181 -0.0680552 9.29536e-21)
(-0.0801516 -0.0474279 9.58573e-21)
(-0.0888305 -0.0262558 -1.62302e-20)
(-0.0966347 -0.00490402 9.51279e-21)
(-0.103463 0.0164162 -4.4824e-21)
(-0.10923 0.037594 7.57886e-21)
(-0.113866 0.0585828 -1.94581e-20)
(-0.117318 0.0793785 2.8504e-20)
(-0.119554 0.100007 -5.61507e-21)
(-0.120566 0.12052 -1.99766e-20)
(-0.120373 0.140991 1.00564e-20)
(-0.119028 0.161517 -9.60718e-21)
(-0.116608 0.182215 8.72449e-21)
(-0.113219 0.20322 1.17864e-20)
(-0.109157 0.224685 1.07113e-21)
(-0.105016 0.246811 -3.32864e-20)
(-0.100178 0.269866 1.86388e-20)
(0.000868235 -0.0376026 2.55186e-20)
(-0.000927251 -0.0842154 -6.91269e-20)
(-0.00714602 -0.109629 2.08258e-20)
(-0.0158191 -0.119402 1.38225e-20)
(-0.0258438 -0.118005 -1.1131e-20)
(-0.0365517 -0.108916 -6.29719e-20)
(-0.047445 -0.0947502 1.8914e-20)
(-0.0581652 -0.0774049 -3.54628e-20)
(-0.0684572 -0.0582112 4.2791e-20)
(-0.0781334 -0.0380666 -5.74582e-20)
(-0.0870502 -0.017551 3.10564e-20)
(-0.0950939 0.00297935 9.61211e-21)
(-0.102172 0.0233207 -2.5305e-20)
(-0.108209 0.04337 -1.14782e-20)
(-0.113146 0.063092 8.22617e-20)
(-0.11694 0.0824982 -7.26616e-20)
(-0.119566 0.101637 1.71732e-20)
(-0.121019 0.120588 3.00963e-20)
(-0.121321 0.139463 -7.49191e-21)
(-0.120523 0.158407 4.93454e-20)
(-0.118699 0.177597 8.48401e-21)
(-0.115948 0.197238 -2.58992e-21)
(-0.112516 0.21756 -6.12467e-20)
(-0.108909 0.238856 5.66506e-20)
(-0.104783 0.261531 -1.1364e-19)
(0.00185627 -0.0354375 8.01361e-20)
(0.00123146 -0.0789687 2.82935e-20)
(-0.00436399 -0.102293 -3.63186e-20)
(-0.0127487 -0.110713 1.53507e-20)
(-0.0226776 -0.108513 1.53443e-20)
(-0.0333883 -0.0990318 5.72062e-20)
(-0.0443236 -0.0847808 -7.24617e-20)
(-0.05509 -0.0675888 -1.10448e-20)
(-0.0654155 -0.0487425 -4.8496e-20)
(-0.0751075 -0.0291133 -4.07795e-20)
(-0.0840258 -0.00926626 5.39996e-20)
(-0.092065 0.0104509 -1.78556e-19)
(-0.0991439 0.0298407 -4.813e-21)
(-0.1052 0.0488067 -1.06916e-19)
(-0.110187 0.0673225 -1.24236e-20)
(-0.114074 0.0854124 1.58835e-20)
(-0.116847 0.103142 -8.26153e-20)
(-0.11851 0.120614 -5.15486e-20)
(-0.119088 0.137973 -6.16986e-20)
(-0.118633 0.155402 9.74336e-20)
(-0.117221 0.173128 3.59087e-20)
(-0.11495 0.19142 -1.55001e-19)
(-0.112016 0.210581 -7.49656e-20)
(-0.108825 0.230999 -8.23313e-20)
(-0.105351 0.253202 2.40247e-19)
(0.00272783 -0.0332342 -3.53583e-21)
(0.00315805 -0.0736893 -6.42814e-20)
(-0.00181641 -0.0949851 -2.92519e-20)
(-0.00984955 -0.102144 1.78162e-20)
(-0.019578 -0.0992441 1.19579e-19)
(-0.0301576 -0.0894707 -5.5207e-20)
(-0.0409789 -0.0752239 1.16212e-19)
(-0.0516181 -0.0582572 1.10209e-19)
(-0.0617885 -0.0398099 6.78697e-20)
(-0.0712944 -0.0207258 -1.5298e-21)
(-0.0799998 -0.00155463 1.37173e-19)
(-0.0878091 0.0173645 2.33915e-20)
(-0.0946538 0.0358396 1.04664e-19)
(-0.100486 0.0537799 2.39146e-19)
(-0.105274 0.071166 -2.77559e-19)
(-0.109001 0.0880316 4.16302e-19)
(-0.111666 0.104456 9.01236e-20)
(-0.113284 0.120559 -1.97414e-19)
(-0.113888 0.136508 -2.86579e-20)
(-0.113533 0.152519 7.37978e-20)
(-0.112301 0.16886 -3.48912e-20)
(-0.110298 0.185851 -1.9224e-20)
(-0.107668 0.203869 -1.95468e-20)
(-0.104711 0.223397 -8.18127e-20)
(-0.101747 0.245065 3.11695e-19)
(0.00348177 -0.0310351 3.98665e-20)
(0.00484193 -0.0684682 -1.95468e-19)
(0.000464388 -0.0878211 2.37437e-19)
(-0.00718121 -0.0938229 -9.6046e-20)
(-0.0166342 -0.0903318 1.13645e-19)
(-0.0269799 -0.0803702 9.18293e-20)
(-0.0375633 -0.0662197 3.49524e-20)
(-0.0479337 -0.0495539 -4.06208e-22)
(-0.0577916 -0.0315613 1.99536e-19)
(-0.0669388 -0.0130558 1.37051e-19)
(-0.0752447 0.00542928 -5.75314e-20)
(-0.0826233 0.0235637 -3.65109e-20)
(-0.0890196 0.0411608 1.50237e-19)
(-0.0944005 0.0581348 2.87775e-20)
(-0.0987499 0.0744714 7.51441e-20)
(-0.102067 0.0902114 1.83355e-19)
(-0.104364 0.105443 -1.62005e-19)
(-0.105668 0.120299 1.32048e-19)
(-0.106024 0.134964 -2.76458e-19)
(-0.105493 0.149675 2.31826e-19)
(-0.104169 0.164732 7.40217e-22)
(-0.102166 0.1805 -1.80673e-19)
(-0.0995894 0.197424 7.62087e-20)
(-0.0966211 0.216084 1.67752e-19)
(-0.0939379 0.237188 -2.6157e-19)
(0.00411949 -0.0288719 2.02318e-19)
(0.00627648 -0.0633729 -2.23129e-19)
(0.00244909 -0.0808873 -3.82946e-20)
(-0.00480173 -0.0858455 4.48701e-20)
(-0.0139358 -0.0818787 -1.00668e-19)
(-0.0239782 -0.0718387 -1.58992e-19)
(-0.0342338 -0.0578834 -1.31231e-19)
(-0.0442283 -0.0416018 -3.1923e-20)
(-0.0536507 -0.0241283 -2.29614e-19)
(-0.0623008 -0.00624458 1.76877e-19)
(-0.0700527 0.011534 -2.82213e-19)
(-0.0768303 0.0288868 1.40364e-19)
(-0.0825912 0.0456331 -5.04378e-20)
(-0.087317 0.0616909 1.09649e-19)
(-0.091007 0.0770502 -2.74677e-19)
(-0.0936755 0.0917568 1.28321e-19)
(-0.0953501 0.105905 7.27914e-21)
(-0.0960718 0.119635 5.86458e-20)
(-0.0958952 0.133142 3.50206e-19)
(-0.0948937 0.146679 7.32019e-20)
(-0.0931731 0.160569 -1.00789e-20)
(-0.0908658 0.175212 2.11976e-20)
(-0.0880453 0.191114 1.44157e-19)
(-0.0847726 0.208954 3.85418e-20)
(-0.0820697 0.229496 1.38487e-19)
(0.00464343 -0.0267651 -1.26388e-19)
(0.00745697 -0.0584472 1.86072e-19)
(0.00411048 -0.0742403 1.10641e-20)
(-0.00276718 -0.0782764 -2.29079e-19)
(-0.011571 -0.0739552 4.78219e-19)
(-0.0212741 -0.0639535 -1.57043e-19)
(-0.031147 -0.0503008 2.26857e-19)
(-0.0406944 -0.0344974 2.09724e-19)
(-0.0495948 -0.0176204 -1.74789e-19)
(-0.0576458 -0.000416439 -2.53278e-19)
(-0.0647258 0.016619 6.89067e-20)
(-0.0707675 0.0331763 -7.22043e-20)
(-0.0757403 0.0490803 -3.22023e-19)
(-0.0796391 0.0642533 3.86046e-19)
(-0.0824777 0.0786886 -1.84701e-19)
(-0.0842847 0.0924352 -1.28077e-19)
(-0.085102 0.105591 -1.98786e-21)
(-0.0849842 0.118301 9.94678e-20)
(-0.0839985 0.130767 4.25583e-20)
(-0.0822302 0.14325 -1.67464e-19)
(-0.0798006 0.156088 1.82427e-19)
(-0.0768653 0.169709 -3.26084e-19)
(-0.0734786 0.184673 1.95404e-19)
(-0.0695842 0.201763 -1.52261e-19)
(-0.0665179 0.221774 4.22213e-20)
(0.00505568 -0.024724 1.75489e-19)
(0.00837823 -0.053711 -1.40327e-19)
(0.00542179 -0.0679067 -9.073e-20)
(-0.00113186 -0.0711473 -1.59957e-19)
(-0.00962425 -0.0665985 -2.95663e-19)
(-0.0189846 -0.0567587 -2.2037e-19)
(-0.0284537 -0.0435256 1.34974e-19)
(-0.0375179 -0.028307 -2.0582e-19)
(-0.0458462 -0.0121192 2.62936e-19)
(-0.0532342 0.00432913 -4.27669e-19)
(-0.0595635 0.0205645 1.89522e-19)
(-0.0647742 0.0362893 4.00735e-19)
(-0.068846 0.0513352 -5.61221e-19)
(-0.0717853 0.0656281 7.94496e-20)
(-0.0736184 0.0791643 1.02023e-19)
(-0.0743867 0.0919951 1.00286e-19)
(-0.074145 0.104221 -1.10969e-19)
(-0.0729605 0.115989 -3.04068e-20)
(-0.070913 0.127502 -7.59365e-20)
(-0.0681003 0.139029 -6.65629e-20)
(-0.0646613 0.150917 -3.48174e-19)
(-0.0607787 0.163611 -2.1676e-20)
(-0.0565032 0.177723 2.23965e-21)
(-0.0516727 0.194138 -1.5745e-19)
(-0.04789 0.213672 1.66528e-19)
(0.00535668 -0.0227475 3.70759e-21)
(0.00903278 -0.0491621 5.74794e-20)
(0.00635576 -0.0618853 5.87307e-20)
(5.24853e-05 -0.0644589 3.68473e-20)
(-0.00817414 -0.059813 2.95325e-19)
(-0.0172167 -0.0502649 2.76135e-19)
(-0.0262913 -0.0375775 -2.26932e-19)
(-0.0348687 -0.0230627 -6.6257e-20)
(-0.0426097 -0.00767235 -6.08142e-20)
(-0.0493077 0.00792544 3.15604e-19)
(-0.0548469 0.0232814 1.1055e-19)
(-0.0591732 0.0381114 -1.66193e-19)
(-0.0622744 0.0522544 -1.37235e-19)
(-0.0641665 0.0656403 3.32517e-19)
(-0.0648859 0.0782677 -8.18431e-20)
(-0.0644844 0.0901897 -9.71968e-20)
(-0.0630271 0.101508 -1.3628e-19)
(-0.060592 0.112371 -1.04236e-19)
(-0.0572704 0.122983 -1.3064e-19)
(-0.0531728 0.133617 -8.54952e-20)
(-0.0484559 0.144623 3.55446e-19)
(-0.0433334 0.156463 -1.7216e-19)
(-0.0378687 0.169794 1.1554e-19)
(-0.0318139 0.185606 -3.01945e-19)
(-0.0269876 0.204731 1.30434e-19)
(0.00554433 -0.0208259 -1.52779e-19)
(0.00940959 -0.0447798 -3.98012e-20)
(0.00688445 -0.0561506 -3.24032e-19)
(0.000738075 -0.0581842 -1.54157e-19)
(-0.0072898 -0.0535727 -3.09469e-19)
(-0.0160626 -0.0444501 -3.23587e-20)
(-0.0247768 -0.0324412 1.67111e-19)
(-0.032891 -0.0187591 -9.94002e-20)
(-0.0400594 -0.00428828 2.18919e-19)
(-0.0460738 0.0103466 -5.30147e-19)
(-0.0508202 0.0247226 -1.36662e-20)
(-0.054249 0.0385705 9.37798e-20)
(-0.0563541 0.0517368 -1.1896e-19)
(-0.0571586 0.0641554 1.06522e-19)
(-0.0567061 0.0758268 -8.00486e-20)
(-0.0550556 0.0868055 -1.69886e-19)
(-0.0522796 0.0971935 3.09577e-19)
(-0.0484641 0.107141 1.89338e-19)
(-0.0437095 0.116854 -3.93793e-20)
(-0.0381376 0.126605 1.20681e-19)
(-0.031923 0.136755 -2.39562e-19)
(-0.0253121 0.147776 3.42586e-19)
(-0.0183969 0.160368 -4.6739e-19)
(-0.0108735 0.175632 9.84625e-20)
(-0.00472898 0.194422 -1.86945e-19)
(0.00561347 -0.0189427 7.74952e-21)
(0.00949376 -0.0405291 -1.33388e-19)
(0.00698012 -0.0506581 2.06309e-19)
(0.000883594 -0.0522734 4.23749e-19)
(-0.00702658 -0.0478253 -5.04601e-21)
(-0.0155926 -0.0392618 4.81144e-20)
(-0.0239973 -0.028067 -1.81065e-19)
(-0.0316911 -0.0153524 8.79757e-20)
(-0.0383243 -0.00193217 5.86775e-19)
(-0.0436877 0.0116148 -1.34237e-19)
(-0.0476691 0.0248935 -1.54973e-19)
(-0.0502223 0.0376506 5.9005e-19)
(-0.0513455 0.0497409 1.87476e-19)
(-0.0510663 0.0611016 8.88818e-20)
(-0.0494326 0.0717345 8.86952e-20)
(-0.0465072 0.0816941 2.48046e-19)
(-0.0423662 0.0910831 -9.52672e-20)
(-0.0370994 0.100052 2.42629e-19)
(-0.0308129 0.10881 3.276e-19)
(-0.0236373 0.117634 -2.81327e-19)
(-0.0157632 0.126893 4.11279e-19)
(-0.00747029 0.137075 1.39228e-19)
(0.00110677 0.148928 -5.40204e-19)
(0.010291 0.163667 7.71786e-19)
(0.0179589 0.182186 -6.46078e-19)
(0.00555593 -0.0170776 -3.69027e-19)
(0.00926725 -0.0363662 2.13593e-19)
(0.00661721 -0.0453503 -1.42833e-19)
(0.000457768 -0.0466598 -1.38806e-19)
(-0.00742068 -0.0424973 -1.45977e-19)
(-0.0158481 -0.0346215 -1.60948e-19)
(-0.0240006 -0.0243734 4.5816e-20)
(-0.0313255 -0.0127602 4.1974e-19)
(-0.0374722 -0.000523793 -9.33194e-20)
(-0.0422325 0.0118047 -2.34956e-19)
(-0.0454964 0.0238599 -1.40819e-19)
(-0.0472204 0.0354049 -5.89791e-20)
(-0.0474054 0.0463024 1.62635e-19)
(-0.0460816 0.0564923 -1.0869e-19)
(-0.0432982 0.0659761 -3.48758e-19)
(-0.0391181 0.0748071 -3.78229e-19)
(-0.0336168 0.0830868 1.49249e-19)
(-0.0268835 0.0909665 -2.76727e-19)
(-0.0190247 0.0986571 2.2924e-19)
(-0.0101755 0.106445 -6.57347e-19)
(-0.000539326 0.114712 4.96739e-19)
(0.00957238 0.12397 -6.49567e-19)
(0.0199712 0.135022 -9.17558e-21)
(0.0309579 0.149212 -2.12221e-19)
(0.0402811 0.167498 6.42783e-19)
(0.00536119 -0.0152093 5.6182e-19)
(0.00871083 -0.0322445 8.42118e-20)
(0.00577565 -0.0401645 -5.47688e-20)
(-0.000556022 -0.0412675 -2.50607e-20)
(-0.00848299 -0.0375008 4.46712e-19)
(-0.0168335 -0.0304303 1.43874e-19)
(-0.024785 -0.0212513 1.29016e-19)
(-0.0317875 -0.0108646 -1.05956e-19)
(-0.0374938 6.17747e-05 4.06161e-19)
(-0.0416988 0.0110461 -2.02458e-19)
(-0.044296 0.0217534 1.31914e-19)
(-0.0452445 0.0319638 3.23214e-19)
(-0.0445475 0.0415471 -1.85386e-19)
(-0.0422356 0.0504445 1.93885e-19)
(-0.0383567 0.058655 1.81611e-19)
(-0.0329711 0.066228 6.32741e-20)
(-0.026149 0.0732613 -1.50562e-19)
(-0.0179737 0.0799044 4.13679e-19)
(-0.00854668 0.0863707 -3.89904e-20)
(0.00199833 0.0929564 -4.18698e-20)
(0.0134506 0.100063 4.74715e-19)
(0.0254702 0.108238 -3.31551e-19)
(0.0378081 0.118355 5.51153e-19)
(0.0506999 0.131909 -4.50682e-19)
(0.0617478 0.149956 5.89512e-19)
(0.00501764 -0.0133188 -2.64818e-19)
(0.00780701 -0.0281215 5.8818e-20)
(0.004445 -0.0350398 -6.15877e-20)
(-0.00215446 -0.0360188 -3.08021e-19)
(-0.0101928 -0.0327413 1.78245e-20)
(-0.0185085 -0.0265762 1.72479e-19)
(-0.0262897 -0.0185705 -7.12823e-19)
(-0.0329957 -0.00951772 5.30042e-19)
(-0.038287 -1.00814e-05 -5.17722e-19)
(-0.0419653 0.00952085 -3.27319e-19)
(-0.0439285 0.0187713 2.88306e-19)
(-0.0441395 0.027538 -6.18862e-19)
(-0.042603 0.0356976 5.17246e-19)
(-0.0393493 0.0431905 -1.67184e-19)
(-0.0344235 0.0500104 -4.64673e-19)
(-0.02788 0.0561988 1.14673e-19)
(-0.0197805 0.0618452 -1.09596e-19)
(-0.0101977 0.0670932 3.80199e-20)
(0.000778094 0.0721553 -1.43292e-19)
(0.0130213 0.0773367 -4.47461e-19)
(0.02632 0.0830633 1.02526e-19)
(0.0403118 0.0899295 -4.55148e-21)
(0.0546839 0.0989002 -4.29731e-19)
(0.0695672 0.111654 3.00284e-19)
(0.0823711 0.129399 -2.66652e-19)
(0.00451438 -0.0113921 1.05485e-19)
(0.00654394 -0.0239643 1.99541e-19)
(0.00262936 -0.0299253 2.84438e-19)
(-0.00430891 -0.0308429 1.44949e-19)
(-0.0124917 -0.028126 -1.44874e-19)
(-0.0207817 -0.0229424 3.45496e-19)
(-0.0283873 -0.0161889 2.55703e-19)
(-0.0347841 -0.00855006 -9.70709e-20)
(-0.0396458 -0.000541937 3.31488e-19)
(-0.0427832 0.00745505 -3.41947e-19)
(-0.0441013 0.0151688 -1.01197e-19)
(-0.0435673 0.022413 1.02016e-19)
(-0.0411877 0.0290701 1.9329e-19)
(-0.0369921 0.0350777 3.8884e-21)
(-0.0310219 0.0404212 1.18046e-19)
(-0.0233243 0.0451297 2.19848e-19)
(-0.0139504 0.0492783 -3.71228e-19)
(-0.00295855 0.0529975 4.54763e-19)
(0.00957645 0.0564918 1.42819e-19)
(0.0235431 0.0600696 4.42444e-20)
(0.0387351 0.0641798 -5.19982e-19)
(0.054774 0.0694715 7.25745e-20)
(0.0712841 0.0770248 1.1266e-19)
(0.0882598 0.0887398 -2.58092e-20)
(0.102849 0.106051 1.31329e-19)
(0.00384346 -0.00942338 5.72408e-21)
(0.00491971 -0.0197557 -5.11798e-19)
(0.000352164 -0.0247867 -1.61676e-20)
(-0.00696073 -0.0256839 -1.30838e-19)
(-0.0152797 -0.0235732 -8.62176e-19)
(-0.0235062 -0.0194176 7.45278e-19)
(-0.0308793 -0.0139624 -5.31304e-19)
(-0.0368983 -0.00778261 -2.98825e-20)
(-0.041254 -0.00131727 -2.49088e-19)
(-0.04377 0.00510499 4.27812e-19)
(-0.0443596 0.0112445 -4.58417e-19)
(-0.0429951 0.0169323 -2.12219e-19)
(-0.0396853 0.0220564 1.32655e-21)
(-0.0344592 0.0265509 -4.45769e-19)
(-0.0273548 0.0303897 6.05361e-19)
(-0.0184122 0.0335852 -6.90454e-19)
(-0.00767188 0.0361916 4.48297e-21)
(0.00482219 0.0383171 1.03335e-19)
(0.0190124 0.0401469 -2.50626e-19)
(0.0348042 0.0419807 2.38626e-19)
(0.0520014 0.0442799 -3.38136e-19)
(0.0702149 0.0477463 -2.14957e-19)
(0.0890101 0.0535899 3.92404e-19)
(0.108227 0.0639775 -4.23672e-19)
(0.124671 0.0806575 -3.53292e-21)
(0.00300221 -0.00741681 -4.10355e-19)
(0.00294658 -0.0154984 4.91577e-19)
(-0.00233972 -0.0196125 -1.54635e-19)
(-0.0100182 -0.0205077 2.95984e-19)
(-0.018413 -0.0190203 3.21643e-19)
(-0.0264795 -0.0159059 -2.84294e-19)
(-0.0334979 -0.0117579 -1.83189e-19)
(-0.0389974 -0.0070412 -2.22723e-19)
(-0.0426903 -0.00211757 2.05068e-19)
(-0.0444145 0.00273697 -1.61392e-20)
(-0.0440928 0.0073163 2.94728e-19)
(-0.0417032 0.0114702 2.87918e-19)
(-0.0372571 0.015093 -3.38382e-19)
(-0.0307834 0.0181154 6.5678e-19)
(-0.0223179 0.0204994 -4.30971e-19)
(-0.0118959 0.0222373 -6.54331e-20)
(0.000449469 0.0233571 8.09041e-19)
(0.0146846 0.0239354 -3.75378e-19)
(0.0307651 0.0241246 2.2836e-19)
(0.04861 0.0241974 4.37675e-19)
(0.0680332 0.024607 -2.82978e-19)
(0.088637 0.0260887 3.16306e-20)
(0.109933 0.0299789 -1.91768e-20)
(0.131609 0.0387487 -1.02682e-19)
(0.150056 0.0545584 2.08589e-19)
(0.0019955 -0.00538775 9.19822e-20)
(0.000654571 -0.0112175 -3.04313e-19)
(-0.00537336 -0.0144177 1.66337e-19)
(-0.0133559 -0.0153081 -3.12979e-21)
(-0.0217059 -0.014432 1.27947e-19)
(-0.0294482 -0.0123374 -2.19661e-19)
(-0.0359135 -0.00946584 1.26564e-19)
(-0.0406664 -0.00617273 3.45222e-19)
(-0.0434433 -0.00274238 -1.04824e-20)
(-0.044098 0.000602759 -1.72266e-19)
(-0.0425629 0.00369171 1.7036e-19)
(-0.0388214 0.00639494 -6.33277e-21)
(-0.0328879 0.0086158 -5.36691e-19)
(-0.0247924 0.0102837 1.98578e-19)
(-0.014571 0.0113501 4.25399e-20)
(-0.00225919 0.0117878 -7.02318e-20)
(0.0121103 0.0115958 -1.26797e-19)
(0.0285046 0.0108132 4.92919e-19)
(0.0468808 0.00954692 1.12109e-19)
(0.0671612 0.00802181 -2.49279e-19)
(0.0891607 0.00665242 -2.88945e-20)
(0.112471 0.00616924 3.22486e-19)
(0.136555 0.0080008 -1.51418e-19)
(0.160977 0.0149344 6.15189e-20)
(0.181668 0.0296335 4.02332e-20)
(0.000837481 -0.00336272 -1.82585e-19)
(-0.00190625 -0.00696073 1.9122e-19)
(-0.00864923 -0.00924609 -1.07462e-19)
(-0.0168167 -0.0101103 -3.46754e-19)
(-0.0249367 -0.00980644 -3.21914e-19)
(-0.0321177 -0.00867661 -1.38809e-19)
(-0.0377492 -0.00701239 -1.18417e-19)
(-0.041436 -0.00506112 -3.46563e-19)
(-0.0429403 -0.00302976 -1.40748e-19)
(-0.0421321 -0.00108637 1.29257e-19)
(-0.0389531 0.000635135 -1.81838e-19)
(-0.0333923 0.00202878 -1.88509e-19)
(-0.0254674 0.00301044 -1.74719e-19)
(-0.0152121 0.00351253 3.09702e-19)
(-0.00266763 0.0034804 -6.51982e-19)
(0.0121228 0.00287142 3.62259e-19)
(0.0291152 0.00165864 -6.14007e-19)
(0.0482618 -0.00015732 -9.12557e-20)
(0.0695026 -0.00252157 -3.22073e-19)
(0.0927429 -0.00527467 -7.09502e-20)
(0.117782 -0.00807449 -8.89509e-20)
(0.144191 -0.0102505 -2.86432e-19)
(0.171391 -0.0103533 -2.62266e-20)
(0.198878 -0.00531381 1.66142e-19)
(0.222148 0.0080912 -4.38252e-19)
(-0.000447573 -0.00137806 1.54764e-19)
(-0.00466529 -0.00279703 2.10472e-19)
(-0.012043 -0.00416893 7.46448e-19)
(-0.0202172 -0.00497235 -1.3055e-19)
(-0.0278565 -0.00517861 3.14841e-19)
(-0.034166 -0.00492911 7.52235e-19)
(-0.0386016 -0.00436937 -2.05796e-19)
(-0.0408113 -0.00364088 2.78168e-19)
(-0.0405849 -0.00287421 1.60854e-19)
(-0.0378085 -0.0021825 2.91465e-19)
(-0.0324337 -0.00166086 -5.61126e-20)
(-0.0244555 -0.00138866 4.05907e-20)
(-0.0138976 -0.00143322 -9.42188e-20)
(-0.000801918 -0.0018536 5.32259e-19)
(0.0147778 -0.00270378 6.98338e-20)
(0.0327792 -0.00403411 4.75353e-19)
(0.0531312 -0.00588938 -1.17405e-19)
(0.0757509 -0.00830025 4.18628e-19)
(0.100536 -0.0112611 5.44366e-20)
(0.127348 -0.0146852 2.0161e-19)
(0.155947 -0.018329 -8.27241e-20)
(0.185865 -0.021642 -7.93516e-21)
(0.216487 -0.0232578 4.51404e-19)
(0.247318 -0.0199251 2.64201e-19)
(0.273554 -0.00786642 -1.13354e-19)
(-0.00182537 0.000522631 -3.72944e-19)
(-0.00753291 0.00118821 -3.93527e-19)
(-0.0154099 0.000718293 -4.14908e-19)
(-0.0233551 1.70504e-05 1.52918e-19)
(-0.0302013 -0.000620731 -3.08792e-19)
(-0.0352615 -0.00114445 -4.62732e-20)
(-0.038064 -0.00155959 -1.21718e-19)
(-0.0383036 -0.00190556 -5.02154e-19)
(-0.035799 -0.00223833 -7.68305e-20)
(-0.030454 -0.00261647 1.27196e-19)
(-0.0222318 -0.00309504 -3.94419e-19)
(-0.0111369 -0.00372429 5.47053e-19)
(0.0027959 -0.00455067 -7.33482e-19)
(0.0195087 -0.00561899 1.73214e-19)
(0.038924 -0.00697489 -4.38873e-19)
(0.0609456 -0.00866656 -3.48169e-19)
(0.0854568 -0.0107445 -1.7872e-20)
(0.112317 -0.0132568 -4.80558e-20)
(0.141353 -0.0162335 4.2106e-20)
(0.172354 -0.0196522 -1.82974e-19)
(0.205008 -0.0233759 -1.23438e-19)
(0.238795 -0.027019 1.46563e-19)
(0.273048 -0.0294164 -3.99746e-19)
(0.30737 -0.0273015 1.27036e-19)
(0.336939 -0.0164304 8.89199e-20)
(-0.00325295 0.00229211 -6.56598e-20)
(-0.0104038 0.00489929 -1.12543e-19)
(-0.0185901 0.00530237 4.45087e-19)
(-0.0260181 0.00474368 1.66129e-19)
(-0.0317046 0.00376152 2.20465e-19)
(-0.0350797 0.00258605 -2.9556e-19)
(-0.0357498 0.00134345 1.61488e-21)
(-0.0334604 9.10393e-05 -2.37816e-19)
(-0.0280623 -0.00115568 4.41242e-19)
(-0.0194804 -0.00240198 1.42269e-19)
(-0.00769433 -0.00366282 1.55899e-19)
(0.00727497 -0.00495781 -6.29042e-19)
(0.0253723 -0.00630956 7.65442e-19)
(0.0465121 -0.00774391 -2.30065e-19)
(0.0705787 -0.00929124 -1.59924e-19)
(0.0974249 -0.0109878 4.73992e-19)
(0.126869 -0.0128765 2.045e-19)
(0.158688 -0.0150049 -5.17019e-19)
(0.192618 -0.0174175 -2.05707e-19)
(0.228341 -0.0201328 6.24317e-19)
(0.265453 -0.0231029 -4.63027e-19)
(0.303351 -0.026119 2.75219e-19)
(0.341304 -0.0283171 1.43914e-19)
(0.379058 -0.0266294 -1.84666e-19)
(0.41221 -0.0164989 -1.72494e-19)
(-0.00468103 0.00388369 -2.39687e-19)
(-0.013162 0.00823798 3.88084e-19)
(-0.0214165 0.00946091 1.67089e-19)
(-0.0279934 0.00907618 -2.42876e-19)
(-0.032109 0.00783685 -3.91936e-20)
(-0.033318 0.00613663 -2.5601e-19)
(-0.0313112 0.00422264 -1.01462e-19)
(-0.0258895 0.00224184 1.14438e-19)
(-0.0169412 0.000276824 -3.01437e-20)
(-0.00441949 -0.00162705 2.1239e-19)
(0.0116709 -0.00344586 -1.83491e-19)
(0.0312815 -0.00516861 5.08363e-19)
(0.0543234 -0.00679283 -6.21401e-19)
(0.0806677 -0.00832268 3.88027e-19)
(0.110144 -0.00976848 4.70566e-19)
(0.142535 -0.0111469 -6.71579e-19)
(0.177577 -0.0124814 -1.98565e-19)
(0.214948 -0.0138016 3.331e-19)
(0.254269 -0.0151401 -2.02272e-19)
(0.295097 -0.0165211 1.87255e-19)
(0.336906 -0.0179422 -4.50781e-19)
(0.378986 -0.0193361 7.7325e-20)
(0.420502 -0.0201786 2.74981e-19)
(0.461345 -0.0177845 -4.27342e-19)
(0.498065 -0.00745043 1.17016e-19)
(-0.0060571 0.00525546 -2.20498e-19)
(-0.0156867 0.0111118 7.19953e-19)
(-0.0237211 0.0130724 1.3973e-19)
(-0.0290751 0.012877 -3.79249e-19)
(-0.0311747 0.0114599 2.73465e-19)
(-0.0297062 0.00935952 1.39716e-19)
(-0.0244504 0.00693084 2.21905e-19)
(-0.0152712 0.00440188 -1.54524e-20)
(-0.00210297 0.00191648 -2.43682e-20)
(0.0150621 -0.000433314 -4.90102e-20)
(0.0361808 -0.00258747 -2.07856e-19)
(0.0611619 -0.00450624 -3.65659e-21)
(0.0898651 -0.00616314 4.81967e-19)
(0.1221 -0.00754082 -7.75687e-19)
(0.157624 -0.00862841 5.51888e-19)
(0.196135 -0.00941963 1.11334e-19)
(0.237272 -0.009911 1.9335e-19)
(0.280608 -0.0100999 -9.17634e-20)
(0.325643 -0.00998101 8.38742e-19)
(0.371803 -0.00953904 -5.11689e-19)
(0.418415 -0.00874479 3.98197e-19)
(0.464615 -0.00756717 8.81625e-20)
(0.50937 -0.0057002 -2.7407e-19)
(0.552546 -0.000789458 2.27285e-19)
(0.592029 0.0117981 3.38284e-19)
(-0.00732882 0.00637403 -6.33918e-20)
(-0.0178578 0.0134421 -2.53412e-19)
(-0.0253412 0.0160267 -4.3658e-19)
(-0.0290694 0.0160148 -2.498e-19)
(-0.0286845 0.014486 -3.52804e-20)
(-0.0240089 0.0121015 -9.93676e-20)
(-0.0149216 0.00930999 -4.62425e-19)
(-0.00135872 0.00641032 7.78829e-20)
(0.0166868 0.00360052 -5.17576e-19)
(0.0391688 0.00101399 -3.9323e-20)
(0.0659881 -0.00125752 -4.92943e-19)
(0.0969905 -0.00314947 -1.73212e-19)
(0.131964 -0.00461537 9.80813e-20)
(0.170637 -0.00562053 -4.68347e-19)
(0.212674 -0.00613737 5.02213e-21)
(0.257678 -0.00614103 -3.9278e-19)
(0.30519 -0.00560443 1.48207e-19)
(0.354684 -0.00449192 -5.3239e-19)
(0.405573 -0.00274972 -8.69531e-20)
(0.457205 -0.000291483 -1.13214e-20)
(0.508833 0.00301181 -8.4697e-20)
(0.559518 0.00732181 -8.75581e-20)
(0.608059 0.013093 -4.67451e-20)
(0.653789 0.0227651 -1.65827e-19)
(0.694324 0.0401098 -3.32489e-19)
(-0.0084472 0.00721725 1.16828e-19)
(-0.0195615 0.0151703 3.20892e-19)
(-0.0261237 0.0182349 3.88729e-19)
(-0.0277975 0.0183779 -3.12003e-19)
(-0.0244429 0.0167866 5.82818e-19)
(-0.0160233 0.014223 -3.17408e-19)
(-0.00252443 0.0112135 1.73341e-19)
(0.0160325 0.00811666 2.69514e-19)
(0.0395801 0.00517648 2.44473e-19)
(0.0679989 0.00256106 1.18418e-19)
(0.101111 0.000387846 1.91377e-19)
(0.138676 -0.0012601 1.11426e-19)
(0.180384 -0.00232341 7.38563e-19)
(0.225857 -0.00275883 -5.33233e-19)
(0.274651 -0.00253335 6.02092e-19)
(0.326258 -0.00161835 -2.47151e-19)
(0.380114 1.70007e-05 5.23817e-19)
(0.435614 0.00241484 -2.99993e-20)
(0.492123 0.00564232 -1.06686e-19)
(0.549003 0.00981303 -1.81444e-20)
(0.605626 0.0151156 3.82343e-19)
(0.661399 0.0218781 -3.63262e-19)
(0.715941 0.0309665 2.54205e-19)
(0.76947 0.0447715 2.62668e-19)
(0.816846 0.0619084 4.94847e-20)
(-0.0093689 0.00777537 8.07775e-20)
(-0.0206933 0.0162626 -4.57803e-19)
(-0.0259268 0.0196376 -1.67796e-19)
(-0.0250947 0.0198851 1.54324e-19)
(-0.0182727 0.018265 -4.77329e-19)
(-0.00557068 0.0156172 -9.41184e-20)
(0.0129083 0.0125292 6.55878e-20)
(0.0370426 0.00940751 2.58709e-19)
(0.0666702 0.00653287 -6.58027e-19)
(0.101574 0.00410013 4.93119e-20)
(0.141472 0.00224476 -1.92365e-19)
(0.186005 0.00106004 -5.76393e-19)
(0.234738 0.000608502 3.92051e-19)
(0.287161 0.00092991 1.56431e-20)
(0.342692 0.00204747 -1.01013e-20)
(0.400691 0.00397334 3.783e-19)
(0.460477 0.00671442 -6.65545e-19)
(0.521351 0.0102787 5.17686e-19)
(0.582616 0.0146832 -9.91162e-20)
(0.64362 0.019962 2.84588e-19)
(0.703783 0.0261717 -4.73332e-19)
(0.762645 0.0334025 2.58629e-19)
(0.820007 0.041936 -4.57523e-19)
(0.876241 0.0526926 4.5175e-19)
(0.926712 0.0635875 -1.45649e-19)
(-0.0100575 0.00805097 5.42342e-19)
(-0.0211596 0.0167114 -9.18092e-20)
(-0.02462 0.02021 6.82528e-19)
(-0.0208068 0.0204963 3.18113e-19)
(-0.0100083 0.0188699 2.55709e-20)
(0.0075136 0.016227 1.40281e-19)
(0.0315257 0.0131997 3.42268e-20)
(0.0617865 0.0102301 5.73031e-19)
(0.0980151 0.00762507 1.84418e-19)
(0.139868 0.00559709 -2.40021e-20)
(0.186926 0.00429018 5.10699e-20)
(0.23868 0.00379758 1.92298e-19)
(0.294536 0.00417335 1.5753e-19)
(0.35382 0.0054405 3.29131e-19)
(0.415787 0.00759726 -3.77789e-19)
(0.479646 0.0106224 1.1117e-19)
(0.544583 0.0144803 3.50956e-20)
(0.609789 0.0191254 1.61335e-19)
(0.674494 0.0245066 4.23117e-19)
(0.737999 0.0305689 -2.80923e-19)
(0.799709 0.03725 1.64148e-20)
(0.859156 0.0444695 -3.72189e-19)
(0.916053 0.0521828 3.39558e-19)
(0.970499 0.0607942 -3.21892e-19)
(1.01893 0.0694699 3.68428e-20)
(-0.0104835 0.00805759 -4.52536e-19)
(-0.0208774 0.0165355 3.59505e-19)
(-0.0220819 0.0199649 -5.89685e-19)
(-0.0147864 0.0202175 5.11504e-20)
(0.00051128 0.0186045 4.1981e-19)
(0.02339 0.0160575 -7.02475e-19)
(0.0534701 0.0132375 5.58516e-19)
(0.0903673 0.0106083 -8.87853e-19)
(0.133652 0.00849202 1.77532e-19)
(0.182821 0.0071071 3.71553e-20)
(0.23728 0.00659458 2.94649e-19)
(0.296334 0.00703514 -9.83653e-19)
(0.359197 0.00846086 1.7064e-19)
(0.425001 0.0108639 1.7756e-19)
(0.492819 0.0142032 -1.05241e-19)
(0.561696 0.018411 -6.41077e-19)
(0.630685 0.0233985 3.04757e-19)
(0.698876 0.0290608 5.51995e-19)
(0.765438 0.0352811 -5.73773e-19)
(0.829645 0.0419321 4.09942e-19)
(0.890899 0.0488738 -5.1883e-19)
(0.948749 0.055943 3.72111e-19)
(1.00289 0.0629773 -9.82021e-20)
(1.0533 0.070205 5.53567e-19)
(1.09759 0.0777598 -6.22817e-19)
(-0.0106232 0.00781734 6.48353e-20)
(-0.0197723 0.0157766 5.29447e-20)
(-0.0181973 0.0189513 1.30942e-19)
(-0.00688873 0.019103 4.70552e-19)
(0.0134476 0.0175306 -1.47302e-20)
(0.0422202 0.0151823 1.06534e-19)
(0.0788829 0.0127316 4.74386e-19)
(0.12288 0.0106503 1.91586e-19)
(0.173598 0.00926149 -6.277e-20)
(0.230335 0.00877632 5.37475e-19)
(0.292282 0.00931819 -6.09139e-19)
(0.35852 0.01094 9.33449e-19)
(0.428039 0.0136364 -3.6815e-19)
(0.499756 0.0173539 6.62459e-19)
(0.572556 0.0219995 -2.23457e-19)
(0.645326 0.0274494 8.06955e-20)
(0.717007 0.0335575 9.73577e-20)
(0.786624 0.0401626 -1.80312e-19)
(0.853328 0.0470949 1.53108e-19)
(0.916422 0.0541804 9.58442e-20)
(0.975369 0.0612421 1.29247e-19)
(1.0298 0.0680962 2.65342e-19)
(1.0795 0.0745639 -2.73478e-20)
(1.1245 0.0807944 -1.19606e-19)
(1.16346 0.0875151 3.39089e-19)
(-0.0104569 0.00735811 -3.79376e-19)
(-0.0177754 0.0144957 4.17193e-20)
(-0.0128537 0.0172516 -7.53964e-19)
(0.00303157 0.0172538 -1.81271e-19)
(0.0289642 0.0157684 -3.41104e-19)
(0.0641665 0.0137429 -7.37114e-20)
(0.1079 0.011847 -3.68462e-19)
(0.159403 0.0105443 -2.20223e-19)
(0.217837 0.0101429 2.92131e-19)
(0.282256 0.0108293 -4.88725e-19)
(0.351596 0.0126915 -1.35747e-19)
(0.424681 0.0157367 3.54227e-21)
(0.500251 0.0199051 -9.04792e-19)
(0.577005 0.0250831 3.82832e-19)
(0.653648 0.0311152 -5.53841e-19)
(0.728944 0.037817 -1.61208e-20)
(0.801767 0.0449868 1.04364e-19)
(0.871139 0.0524169 -1.75032e-19)
(0.936266 0.0599025 -1.50394e-19)
(0.996552 0.0672486 7.07957e-20)
(1.0516 0.074274 7.76427e-20)
(1.10121 0.0808118 -5.03952e-19)
(1.14533 0.0867128 2.85405e-19)
(1.18414 0.0920962 1.36312e-19)
(1.2171 0.0979686 3.17717e-20)
(-0.00996591 0.00671091 3.88533e-19)
(-0.0148196 0.0127677 -4.30371e-19)
(-0.00593937 0.0149758 6.07641e-19)
(0.0151201 0.0148113 9.49925e-20)
(0.047223 0.01349 -2.93335e-20)
(0.0893839 0.0119418 -2.0761e-19)
(0.140638 0.010815 3.15167e-20)
(0.199976 0.0105464 3.17412e-19)
(0.266287 0.0114093 -4.3894e-19)
(0.338339 0.0135448 4.60506e-19)
(0.414769 0.0169845 -4.8012e-20)
(0.494118 0.0216696 2.34249e-20)
(0.574873 0.0274691 5.95462e-19)
(0.655527 0.0341967 7.87143e-19)
(0.734645 0.0416286 -3.0917e-19)
(0.810923 0.0495206 5.36819e-19)
(0.883243 0.0576244 2.65854e-19)
(0.950705 0.0657012 -1.66505e-19)
(1.01265 0.0735325 5.08346e-19)
(1.06867 0.0809272 -2.4856e-20)
(1.11858 0.0877261 -4.75371e-19)
(1.1624 0.0938017 4.9275e-19)
(1.2003 0.0990544 6.4532e-20)
(1.23264 0.103605 -2.94058e-19)
(1.25946 0.108528 9.29613e-20)
(-0.0091308 0.00590769 -5.41157e-19)
(-0.0108371 0.0106773 5.86796e-19)
(0.00265779 0.0122555 -3.75007e-19)
(0.0295198 0.0119499 -1.17887e-19)
(0.0683774 0.0109099 -2.64999e-19)
(0.118006 0.0100299 4.70876e-19)
(0.177174 0.0099169 -2.74327e-19)
(0.244574 0.010959 -1.25839e-19)
(0.318776 0.0133711 -3.61027e-19)
(0.398211 0.0172241 9.89037e-21)
(0.481194 0.0224697 -1.41496e-19)
(0.565971 0.0289634 6.74841e-20)
(0.650792 0.0364877 -7.16888e-19)
(0.733988 0.0447764 2.04935e-19)
(0.814047 0.0535378 -2.42674e-19)
(0.88968 0.0624768 -1.93128e-19)
(0.959868 0.0713141 5.97081e-20)
(1.02388 0.0798007 -2.74731e-19)
(1.08128 0.0877281 -1.12604e-19)
(1.1319 0.0949328 3.35666e-19)
(1.17583 0.101298 1.37068e-19)
(1.21332 0.10675 -5.83435e-19)
(1.24481 0.111248 4.21834e-19)
(1.27082 0.114933 -7.81784e-20)
(1.29175 0.118815 -1.60237e-19)
(-0.00792928 0.00498003 -1.97575e-19)
(-0.00575797 0.00831487 -1.09625e-19)
(0.0130486 0.00923713 -2.2116e-20)
(0.0463654 0.00886835 1.62278e-19)
(0.0925593 0.00827314 1.77555e-19)
(0.150127 0.00829097 1.55394e-19)
(0.217519 0.00946444 1.9393e-19)
(0.293078 0.0121066 2.97069e-19)
(0.375002 0.0163463 4.5474e-19)
(0.461352 0.0221573 4.49869e-19)
(0.550104 0.0293876 2.36628e-19)
(0.639227 0.0377888 -6.37198e-20)