/*--------------------------------*- C++ -*----------------------------------*\
  =========                 |
  \\      /  F ield         | OpenFOAM: The Open Source CFD Toolbox
   \\    /   O peration     | Website:  https://openfoam.org
    \\  /    A nd           | Version:  6.0
     \\/     M anipulation  |
\*---------------------------------------------------------------------------*/
FoamFile
{
    version     2.0;
    format      ascii;
    class       surfaceScalarField;
    location    "55";
    object      phi;
}
// * * * * * * * * * * * * * * * * * * * * * * * * * * * * * * * * * * * * * //

dimensions      [0 3 -1 0 0 0 0];

internalField   nonuniform List<scalar> 
24700
(
-1.29716e-06
1.43119e-05
-1.30147e-05
-4.70042e-06
3.45624e-05
-3.11592e-05
-9.76678e-06
4.83973e-05
-4.33309e-05
-1.60957e-05
5.72729e-05
-5.0944e-05
-2.33345e-05
6.23849e-05
-5.51461e-05
-3.11791e-05
6.47062e-05
-5.68616e-05
-3.93725e-05
6.50143e-05
-5.68209e-05
-4.7702e-05
6.39194e-05
-5.55899e-05
-5.59965e-05
6.18923e-05
-5.35978e-05
-6.41235e-05
5.92902e-05
-5.11631e-05
-7.19866e-05
5.63803e-05
-4.85172e-05
-7.95229e-05
5.33604e-05
-4.58242e-05
-8.67012e-05
5.03765e-05
-4.31981e-05
-9.35202e-05
4.75364e-05
-4.07175e-05
-0.000100006
4.49217e-05
-3.84359e-05
-0.00010621
4.25955e-05
-3.63911e-05
-0.000112209
4.0609e-05
-3.46107e-05
-0.000118096
3.90049e-05
-3.31171e-05
-0.000123987
3.78203e-05
-3.19299e-05
-0.000130007
3.70876e-05
-3.10677e-05
-0.000136293
3.68347e-05
-3.05484e-05
-0.000142988
3.70826e-05
-3.03874e-05
-0.000150236
3.7845e-05
-3.05974e-05
-0.000158178
3.91393e-05
-3.11975e-05
4.09941e-05
-3.22175e-05
-0.000166954
-1.25469e-06
1.55665e-05
-4.56192e-06
3.78697e-05
-9.50194e-06
5.33373e-05
-1.56908e-05
6.34617e-05
-2.27869e-05
6.94811e-05
-3.04934e-05
7.24126e-05
-3.85565e-05
7.30775e-05
-4.67648e-05
7.21277e-05
-5.4946e-05
7.00735e-05
-6.29653e-05
6.73094e-05
-7.07224e-05
6.41374e-05
-7.81502e-05
6.07883e-05
-8.52129e-05
5.74391e-05
-9.19041e-05
5.42276e-05
-9.82456e-05
5.12632e-05
-0.000104286
4.86357e-05
-0.000110097
4.64204e-05
-0.000115775
4.46823e-05
-0.000121432
4.3478e-05
-0.000127201
4.28559e-05
-0.000133223
4.28566e-05
-0.000139649
4.35095e-05
-0.000146637
4.48326e-05
-0.000154342
4.68447e-05
4.95767e-05
-0.000162925
-1.21626e-06
1.67828e-05
-4.43484e-06
4.10882e-05
-9.25608e-06
5.81585e-05
-1.53105e-05
6.95161e-05
-2.22663e-05
7.64369e-05
-2.98319e-05
7.99782e-05
-3.77557e-05
8.10013e-05
-4.58255e-05
8.01975e-05
-5.38661e-05
7.81141e-05
-6.17373e-05
7.51806e-05
-6.93324e-05
7.17325e-05
-7.65764e-05
6.80324e-05
-8.34251e-05
6.42878e-05
-8.98634e-05
6.06659e-05
-9.59047e-05
5.73046e-05
-0.00010159
5.43209e-05
-0.000106986
5.18162e-05
-0.000112183
4.988e-05
-0.000117296
4.85909e-05
-0.000122458
4.80171e-05
-0.000127817
4.82156e-05
-0.000133536
4.92286e-05
-0.000139786
5.10826e-05
-0.000146743
5.38022e-05
5.74255e-05
-0.000154592
-1.18093e-06
1.79637e-05
-4.31572e-06
4.4223e-05
-9.0221e-06
6.28649e-05
-1.49433e-05
7.54374e-05
-2.17558e-05
8.32494e-05
-2.91724e-05
8.73947e-05
-3.69425e-05
8.87714e-05
-4.48516e-05
8.81066e-05
-5.27194e-05
8.59819e-05
-6.03987e-05
8.28598e-05
-6.77732e-05
7.9107e-05
-7.4757e-05
7.50162e-05
-8.12935e-05
7.08243e-05
-8.7355e-05
6.67274e-05
-9.29422e-05
6.28918e-05
-9.80842e-05
5.94629e-05
-0.000102838
5.657e-05
-0.000107288
5.43296e-05
-0.000111543
5.28462e-05
-0.000115738
5.22124e-05
-0.000120029
5.25066e-05
-0.00012459
5.37897e-05
-0.00012961
5.61027e-05
-0.00013529
5.94818e-05
6.39785e-05
-0.000141843
-1.1476e-06
1.91113e-05
-4.20064e-06
4.72761e-05
-8.79188e-06
6.74562e-05
-1.45759e-05
8.12213e-05
-2.12364e-05
8.991e-05
-2.849e-05
9.46483e-05
-3.60861e-05
9.63676e-05
-4.3807e-05
9.58275e-05
-5.14663e-05
9.36412e-05
-5.89074e-05
9.03009e-05
-6.60023e-05
8.62019e-05
-7.26511e-05
8.1665e-05
-7.87814e-05
7.69547e-05
-8.43487e-05
7.22946e-05
-8.93365e-05
6.78796e-05
-9.37573e-05
6.38838e-05
-9.76536e-05
6.04662e-05
-0.000101098
5.77736e-05
-0.000104192
5.59409e-05
-0.00010707
5.50901e-05
-0.000109892
5.53283e-05
-0.000112844
5.67424e-05
-0.000116137
5.93959e-05
-0.000120001
6.3345e-05
6.86623e-05
-0.000124684
-1.11506e-06
2.02264e-05
-4.08518e-06
5.02462e-05
-8.55624e-06
7.19272e-05
-1.41931e-05
8.68582e-05
-2.06865e-05
9.64034e-05
-2.77562e-05
0.000101718
-3.51518e-05
0.000103763
-4.26516e-05
0.000103327
-5.00623e-05
0.000101052
-5.72169e-05
9.74554e-05
-6.39737e-05
9.29588e-05
-7.02164e-05
8.79077e-05
-7.58537e-05
8.25919e-05
-8.082e-05
7.72609e-05
-8.50771e-05
7.21367e-05
-8.86159e-05
6.74226e-05
-9.14583e-05
6.33087e-05
-9.36597e-05
5.99751e-05
-9.53106e-05
5.75917e-05
-9.65376e-05
5.63171e-05
-9.75042e-05
5.62949e-05
-9.84097e-05
5.76478e-05
-9.94864e-05
6.04726e-05
-0.000100998
6.48564e-05
7.09039e-05
-0.000103239
-1.08193e-06
2.13083e-05
-3.96441e-06
5.31287e-05
-8.30498e-06
7.62678e-05
-1.37783e-05
9.23315e-05
-2.00819e-05
0.000102707
-2.69391e-05
0.000108575
-3.40997e-05
0.000110924
-4.13387e-05
0.000110566
-4.84553e-05
0.000108169
-5.52719e-05
0.000104272
-6.16321e-05
9.9319e-05
-6.74014e-05
9.3677e-05
-7.24668e-05
8.76573e-05
-7.67384e-05
8.15325e-05
-8.01516e-05
7.55499e-05
-8.26699e-05
6.99409e-05
-8.42889e-05
6.49277e-05
-8.50401e-05
6.07262e-05
-8.49949e-05
5.75465e-05
-8.42687e-05
5.55908e-05
-8.30229e-05
5.50492e-05
-8.14673e-05
5.60922e-05
-7.98586e-05
5.88639e-05
-7.84994e-05
6.34972e-05
7.01442e-05
-7.77398e-05
-1.04673e-06
2.2355e-05
-3.83298e-06
5.59149e-05
-8.02695e-06
8.04618e-05
-1.33128e-05
9.76174e-05
-1.93953e-05
0.00010879
-2.60021e-05
0.000115182
-3.28837e-05
0.000117805
-3.98127e-05
0.000117495
-4.6582e-05
0.000114938
-5.30033e-05
0.000110693
-5.89058e-05
0.000105221
-6.41358e-05
9.8907e-05
-6.85571e-05
9.20786e-05
-7.20527e-05
8.50282e-05
-7.45275e-05
7.80247e-05
-7.59125e-05
7.13259e-05
-7.617e-05
6.51852e-05
-7.53e-05
5.98563e-05
-7.3347e-05
5.55935e-05
-7.04067e-05
5.26505e-05
-6.66326e-05
5.12751e-05
-6.22407e-05
5.17003e-05
-5.75121e-05
5.41352e-05
-5.27941e-05
5.87792e-05
6.58526e-05
-4.85024e-05
-1.00788e-06
2.33629e-05
-3.68524e-06
5.85923e-05
-7.7102e-06
8.44868e-05
-1.27765e-05
0.000102684
-1.85967e-05
0.00011461
-2.49037e-05
0.000121489
-3.14503e-05
0.000124352
-3.80079e-05
0.000124053
-4.43646e-05
0.000121295
-5.0323e-05
0.000116652
-5.56987e-05
0.000110597
-6.03197e-05
0.000103528
-6.40263e-05
9.57852e-05
-6.66727e-05
8.76746e-05
-6.81306e-05
7.94825e-05
-6.82934e-05
7.14888e-05
-6.70841e-05
6.39758e-05
-6.44627e-05
5.72349e-05
-6.04371e-05
5.15679e-05
-5.50736e-05
4.72871e-05
-4.85083e-05
4.47097e-05
-4.09568e-05
4.41488e-05
-3.27226e-05
4.5901e-05
-2.42019e-05
5.02585e-05
5.75402e-05
-1.58896e-05
-9.6378e-07
2.43267e-05
-3.51538e-06
6.11439e-05
-7.34234e-06
8.83137e-05
-1.21481e-05
0.000107489
-1.76536e-05
0.000120115
-2.35981e-05
0.000127433
-2.97383e-05
0.000130492
-3.58466e-05
0.000130161
-4.17082e-05
0.000127156
-4.71192e-05
0.000122063
-5.18841e-05
0.000115362
-5.58142e-05
0.000107458
-5.87278e-05
9.86988e-05
-6.04508e-05
8.93976e-05
-6.08202e-05
7.98519e-05
-5.96893e-05
7.03578e-05
-5.69355e-05
6.1222e-05
-5.24713e-05
5.27706e-05
-4.62573e-05
4.5354e-05
-3.83186e-05
3.93484e-05
-2.87612e-05
3.51524e-05
-1.77904e-05
3.3178e-05
-5.72617e-06
3.38367e-05
6.98334e-06
3.7549e-05
4.47734e-05
1.97502e-05
-9.12912e-07
2.52396e-05
-3.3178e-06
6.35488e-05
-6.91109e-06
9.1907e-05
-1.14058e-05
0.000111984
-1.65318e-05
0.000125241
-2.20357e-05
0.000132937
-2.768e-05
0.000136136
-3.32397e-05
0.000135721
-3.85005e-05
0.000132417
-4.32547e-05
0.000126817
-4.72991e-05
0.000119406
-5.04322e-05
0.000110591
-5.24534e-05
0.00010072
-5.31631e-05
9.01073e-05
-5.23648e-05
7.90537e-05
-4.98708e-05
6.78638e-05
-4.551e-05
5.68612e-05
-3.91402e-05
4.64009e-05
-3.0665e-05
3.68789e-05
-2.00544e-05
2.87377e-05
-7.36955e-06
2.24675e-05
7.20978e-06
1.85987e-05
2.33574e-05
1.76891e-05
4.05744e-05
2.0332e-05
2.71828e-05
5.8165e-05
-8.53967e-07
2.60936e-05
-3.08754e-06
6.57823e-05
-6.40514e-06
9.52246e-05
-1.05289e-05
0.000116108
-1.51974e-05
0.00012991
-2.01657e-05
0.000137906
-2.52028e-05
0.000141173
-3.00891e-05
0.000140607
-3.46129e-05
0.000136941
-3.85667e-05
0.000130771
-4.17438e-05
0.000122584
-4.39349e-05
0.000112782
-4.49257e-05
0.000101711
-4.4496e-05
8.96776e-05
-4.24206e-05
7.69784e-05
-3.84734e-05
6.39166e-05
-3.24347e-05
5.08225e-05
-2.41045e-05
3.80706e-05
-1.33206e-05
2.6095e-05
1.50133e-08
1.54021e-05
1.59038e-05
6.5787e-06
3.42109e-05
2.91683e-07
5.46206e-05
-2.72063e-06
7.65906e-05
-1.63797e-06
4.46813e-06
9.93052e-05
-7.86017e-07
2.68796e-05
-2.82072e-06
6.7817e-05
-5.81507e-06
9.8219e-05
-9.49885e-06
0.000119792
-1.36189e-05
0.00013403
-1.79382e-05
0.000142225
-2.22332e-05
0.000145468
-2.6291e-05
0.000144665
-2.99051e-05
0.000140555
-3.28717e-05
0.000133737
-3.49851e-05
0.000124697
-3.60338e-05
0.000113831
-3.57968e-05
0.000101474
-3.40409e-05
8.79217e-05
-3.05198e-05
7.34573e-05
-2.4976e-05
5.83728e-05
-1.71464e-05
4.2993e-05
-6.77433e-06
2.76985e-05
6.37174e-06
1.29489e-05
2.24688e-05
-6.94976e-07
4.15988e-05
-1.25513e-05
6.36948e-05
-2.18044e-05
8.84765e-05
-2.75023e-05
0.000115374
-2.85357e-05
-2.36036e-05
0.000143446
-7.0868e-07
2.75883e-05
-2.51515e-06
6.96235e-05
-5.13437e-06
0.000100838
-8.30141e-06
0.000122959
-1.17694e-05
0.000137498
-1.53082e-05
0.000145764
-1.87012e-05
0.000148862
-2.17427e-05
0.000147707
-2.42328e-05
0.000143045
-2.5974e-05
0.000135478
-2.6766e-05
0.000125489
-2.64008e-05
0.000113466
-2.46581e-05
9.97312e-05
-2.13011e-05
8.45647e-05
-1.60732e-05
6.82293e-05
-8.69689e-06
5.09965e-05
1.12323e-06
3.31729e-05
1.36923e-05
1.51294e-05
2.9308e-05
-2.6667e-06
4.82306e-05
-1.96176e-05
7.06371e-05
-3.49578e-05
9.6554e-05
-4.77212e-05
0.000125767
-5.67157e-05
0.000157709
-6.04774e-05
-5.721e-05
0.000191316
-6.22259e-07
2.82105e-05
-2.17067e-06
7.11719e-05
-4.36028e-06
0.000103028
-6.9277e-06
0.000125526
-9.62921e-06
0.000140199
-1.22388e-05
0.000148373
-1.45455e-05
0.000151168
-1.63491e-05
0.00014951
-1.74567e-05
0.000144153
-1.76782e-05
0.0001357
-1.68212e-05
0.000124632
-1.46862e-05
0.000111331
-1.10607e-05
9.61057e-05
-5.71411e-06
7.92181e-05
1.60778e-06
6.09074e-05
1.11869e-05
4.14173e-05
2.33346e-05
2.10253e-05
3.83874e-05
7.65461e-08
5.66961e-05
-2.09754e-05
7.85986e-05
-4.15201e-05
0.000104373
-6.07323e-05
0.000134161
-7.75091e-05
0.000167852
-9.04066e-05
0.000204921
-9.75469e-05
-9.64955e-05
0.000244207
-5.27813e-07
2.87383e-05
-1.78941e-06
7.24335e-05
-3.49429e-06
0.000104733
-5.37536e-06
0.000127407
-7.18737e-06
0.000142011
-8.70464e-06
0.000149891
-9.7178e-06
0.000152181
-1.003e-05
0.000149822
-9.45291e-06
0.000143576
-7.80282e-06
0.00013405
-4.89591e-06
0.000121725
-5.43504e-07
0.000106978
5.45351e-06
9.01087e-05
1.33108e-05
7.13608e-05
2.32675e-05
5.09508e-05
3.55927e-05
2.90922e-05
5.05915e-05
6.02646e-06
6.86078e-05
-1.79398e-05
9.002e-05
-4.23876e-05
0.000115224
-6.67239e-05
0.00014459
-9.0099e-05
0.000178387
-0.000111306
0.000216643
-0.000128662
0.000258931
-0.000139836
-0.000141604
0.00030404
-4.27122e-07
2.91655e-05
-1.37565e-06
7.3382e-05
-2.54196e-06
0.000105899
-3.64842e-06
0.000128514
-4.44216e-06
0.000142805
-4.69224e-06
0.000150141
-4.18589e-06
0.000151675
-2.72465e-06
0.000148361
-1.20657e-07
0.000140972
3.80697e-06
0.000130122
9.23581e-06
0.000116296
1.63442e-05
9.98701e-05
2.53158e-05
8.11371e-05
3.63456e-05
6.03309e-05
4.96469e-05
3.76496e-05
6.54591e-05
1.328e-05
8.40576e-05
-1.25721e-05
0.000105763
-3.96448e-05
0.000130945
-6.75697e-05
0.00016002
-9.57992e-05
0.000193424
-0.000123503
0.000231541
-0.000149423
0.000274562
-0.000171683
0.000322225
-0.000187498
-0.000192723
0.000373343
-3.22512e-07
2.9488e-05
-9.35273e-07
7.39948e-05
-1.51192e-06
0.000106476
-1.75595e-06
0.000128758
-1.39943e-06
0.000142449
-1.99229e-07
0.000148941
2.06748e-06
0.000149408
5.60732e-06
0.000144821
1.06142e-05
0.000135965
1.7272e-05
0.000123464
2.57576e-05
0.000107811
3.62428e-05
8.93848e-05
4.88982e-05
6.84817e-05
6.38964e-05
4.53327e-05
8.14184e-05
2.01275e-05
0.000101661
-6.96282e-06
0.000124849
-3.57594e-05
0.000151244
-6.60406e-05
0.000181167
-9.74928e-05
0.000215003
-0.000129634
0.000253197
-0.000161697
0.000296212
-0.000192438
0.0003444
-0.000219871
0.000397717
-0.000240816
-0.000250124
0.000455118
-2.16529e-07
2.97045e-05
-4.74747e-07
7.4253e-05
-4.13965e-07
0.000106415
2.90837e-07
0.000128053
1.93119e-06
0.000140808
4.77048e-06
0.000146101
9.0495e-06
0.000145129
1.4991e-05
0.00013888
2.2803e-05
0.000128153
3.26809e-05
0.000113587
4.48084e-05
9.56832e-05
5.93586e-05
7.48347e-05
7.64944e-05
5.13459e-05
9.637e-05
2.54571e-05
0.000119134
-2.63603e-06
0.000144933
-3.27619e-05
0.000173923
-6.47502e-05
0.000206285
-9.84021e-05
0.00024224
-0.000133448
0.00028208
-0.000169474
0.000326187
-0.000205804
0.000375028
-0.000241279
0.000429069
-0.000273912
0.000488516
-0.000300262
-0.000314205
0.000552597
-1.11472e-07
2.9816e-05
3.60916e-10
7.41412e-05
7.43793e-07
0.000105671
2.48298e-06
0.000126314
5.54243e-06
0.000137749
1.02146e-05
0.000141429
1.6767e-05
0.000138577
2.54474e-05
0.000130199
3.64873e-05
0.000117113
5.01027e-05
9.99711e-05
6.64944e-05
7.92916e-05
8.58459e-05
5.54831e-05
0.000108322
2.88699e-05
0.000134066
-2.86639e-07
0.000163198
-3.17683e-05
0.000195817
-6.53814e-05
0.000232006
-0.000100938
0.000271837
-0.000138234
0.000315402
-0.000177012
0.000362836
-0.000216908
0.000414369
-0.000257337
0.000470362
-0.000297273
0.000531299
-0.000334849
0.000597603
-0.000366566
-0.000385512
0.00066891
-8.8285e-09
2.98248e-05
4.87138e-07
7.36452e-05
1.95829e-06
0.0001042
4.81918e-06
0.000123453
9.43712e-06
0.000133131
1.61428e-05
0.000134723
2.52397e-05
0.00012948
3.70098e-05
0.000118429
5.17175e-05
0.000102405
6.96094e-05
8.20792e-05
9.09131e-05
5.79879e-05
0.000115833
3.0563e-05
0.000144546
1.56903e-07
0.000177195
-3.29351e-05
0.000213881
-6.84547e-05
0.000254663
-0.000106163
0.000299548
-0.000145824
0.000348503
-0.000187189
0.000401462
-0.000229971
0.000458358
-0.000273805
0.000519183
-0.000318162
0.000584063
-0.000362153
0.000653334
-0.00040412
0.000727519
-0.000440751
-0.00046471
0.000806717
9.13113e-08
2.97335e-05
9.87147e-07
7.27494e-05
3.23505e-06
0.000101952
7.31147e-06
0.000119376
1.36364e-05
0.000126806
2.25882e-05
0.000125772
3.45151e-05
0.000117553
4.97424e-05
0.000103202
6.8576e-05
8.35717e-05
9.13023e-05
5.9353e-05
0.000118184
3.11059e-05
0.000149456
-7.0903e-07
0.000185316
-3.57028e-05
0.000225915
-7.35337e-05
0.000271346
-0.000113886
0.000321637
-0.000156454
0.000376736
-0.000200922
0.000436505
-0.000246958
0.000500722
-0.000294189
0.000569101
-0.000342184
0.000641334
-0.000390394
0.000717187
-0.000438006
0.00079664
-0.000483573
0.000880035
-0.000524146
-0.000552543
0.000967868
1.90768e-07
2.95427e-05
1.50802e-06
7.14321e-05
4.59131e-06
9.88691e-05
9.99019e-06
0.000113977
1.81871e-05
0.000118609
2.9617e-05
0.000114342
4.46812e-05
0.000102489
6.37562e-05
8.41269e-05
8.71968e-05
6.0131e-05
0.000115335
3.12147e-05
0.000148475
-2.03442e-06
0.000186886
-3.91201e-05
0.000230791
-7.96077e-05
0.000280355
-0.000123098
0.000335671
-0.000169202
0.000396745
-0.000217528
0.000463479
-0.000267656
0.000535654
-0.000319132
0.000612915
-0.00037145
0.000694767
-0.000424035
0.000780588
-0.000476215
0.000869707
-0.000527125
0.000961547
-0.000575414
0.00105588
-0.000618475
-0.000650143
0.00115348
2.93615e-07
2.92491e-05
2.06446e-06
6.96613e-05
6.0579e-06
9.48756e-05
1.29071e-05
0.000107128
2.31662e-05
0.00010835
3.73346e-05
0.000100173
5.58741e-05
8.39494e-05
7.92182e-05
6.07828e-05
0.000107775
3.15744e-05
0.000141924
-2.9342e-06
0.00018201
-4.21207e-05
0.000228335
-8.54447e-05
0.000281142
-0.000132415
0.000340608
-0.000182564
0.000406824
-0.000235418
0.000479781
-0.000290485
0.000559355
-0.00034723
0.000645283
-0.00040506
0.00073714
-0.000463307
0.000834306
-0.0005212
0.000935923
-0.000577833
0.00104089
-0.000632091
0.0011479
-0.000682421
0.00125569
-0.000726266
-0.000759742
0.00136529
4.06256e-07
2.88428e-05
2.67846e-06
6.73891e-05
7.67965e-06
8.98744e-05
1.61359e-05
9.86721e-05
2.86809e-05
9.58049e-05
4.58856e-05
8.29686e-05
6.82772e-05
6.15578e-05
9.63488e-05
3.27112e-05
0.000130561
-2.63728e-06
0.000171335
-4.37088e-05
0.000219049
-8.98349e-05
0.000274022
-0.000140417
0.000336502
-0.000194895
0.000406655
-0.000252716
0.000484553
-0.000313316
0.000570164
-0.000376097
0.00066335
-0.000440416
0.000763861
-0.000505571
0.00087133
-0.000570777
0.000985269
-0.000635139
0.00110503
-0.000697592
0.0012297
-0.000756767
0.00135774
-0.00081046
0.0014855
-0.000854026
-0.000878128
0.00160389
5.36693e-07
2.83062e-05
3.3777e-06
6.45481e-05
9.51274e-06
8.37394e-05
1.97682e-05
8.84166e-05
3.48636e-05
8.07094e-05
5.54461e-05
6.23861e-05
8.211e-05
3.48939e-05
0.000115405
-5.84309e-07
0.000155837
-4.30691e-05
0.000203857
-9.17285e-05
0.000259851
-0.000145829
0.000324126
-0.000204693
0.000396897
-0.000267666
0.000478274
-0.000334094
0.000568258
-0.0004033
0.000666743
-0.000474581
0.000773526
-0.000547199
0.000888338
-0.000620384
0.0010109
-0.000693337
0.00114101
-0.000765248
0.00127872
-0.000835302
0.00142463
-0.000902675
0.0015806
-0.000966438
0.0017521
-0.00102552
-0.00107818
0.00195216
6.95838e-07
2.76103e-05
4.19685e-06
6.10471e-05
1.16247e-05
7.63115e-05
2.39111e-05
7.61302e-05
4.18654e-05
6.27551e-05
6.62118e-05
3.80397e-05
9.76089e-05
3.49679e-06
0.000136655
-3.96302e-05
0.000183882
-9.02963e-05
0.000239745
-0.000147591
0.000304602
-0.000210686
0.000378702
-0.000278792
0.000462165
-0.000351129
0.000554976
-0.000426904
0.000656978
-0.000505303
0.000767887
-0.00058549
0.000887306
-0.000666618
0.00101476
-0.000747841
0.00114977
-0.000828341
0.00129188
-0.000907365
0.00144085
-0.000984265
0.00159672
-0.00105855
0.00176016
-0.00112988
0.00193262
-0.00119798
-0.00125913
0.00211356
8.94009e-07
2.67163e-05
5.17046e-06
5.67706e-05
1.4084e-05
6.73979e-05
2.86733e-05
6.1541e-05
4.98375e-05
4.15909e-05
7.83744e-05
9.50269e-06
0.000114997
-3.3126e-05
0.000160334
-8.49672e-05
0.000214918
-0.00014488
0.000279165
-0.000211838
0.000353357
-0.000284878
0.000437618
-0.000363054
0.000531902
-0.000445413
0.000635981
-0.000530983
0.000749451
-0.000618773
0.000871745
-0.000707784
0.00100216
-0.000797031
0.00113988
-0.000885567
0.00128406
-0.000972522
0.00143384
-0.00105714
0.00158838
-0.00113881
0.00174696
-0.00121713
0.00190894
-0.00129186
0.0020736
-0.00136264
-0.00142511
0.00223958
1.14192e-06
2.55744e-05
6.33317e-06
5.15794e-05
1.69576e-05
5.67735e-05
3.4158e-05
4.43406e-05
5.89189e-05
1.68301e-05
9.21018e-05
-2.36801e-05
0.000134456
-7.54801e-05
0.000186611
-0.000137123
0.00024906
-0.000207328
0.000322128
-0.000284907
0.000405955
-0.000368705
0.000500467
-0.000457565
0.000605366
-0.000550312
0.000720132
-0.000645748
0.000844027
-0.000742669
0.000976129
-0.000839886
0.00111536
-0.00093626
0.00126053
-0.00103074
0.00141039
-0.00112238
0.00156367
-0.00121042
0.00171911
-0.00129425
0.00187546
-0.00137348
0.0020315
-0.0014479
0.00218598
-0.00151712
-0.00157719
0.00233806
1.44929e-06
2.41251e-05
7.71597e-06
4.53127e-05
2.0304e-05
4.41855e-05
4.04527e-05
2.41918e-05
6.92207e-05
-1.1938e-05
0.000107515
-6.19743e-05
0.000156093
-0.000124058
0.000215545
-0.000196575
0.000286269
-0.000278052
0.000368437
-0.000367075
0.000461967
-0.000462235
0.000566508
-0.000562107
0.000681434
-0.000665238
0.000805854
-0.000770169
0.000938644
-0.000875459
0.00107849
-0.000979728
0.00122392
-0.0010817
0.00137341
-0.00118022
0.00152537
-0.00127435
0.00167827
-0.00136332
0.00183061
-0.00144659
0.00198096
-0.00152383
0.00212797
-0.00159491
0.00227043
-0.00165958
-0.00171468
0.00240793
1.82408e-06
2.2301e-05
9.34374e-06
3.7793e-05
2.41683e-05
2.9361e-05
4.76198e-05
7.40311e-07
8.08122e-05
-4.51304e-05
0.00012467
-0.000105832
0.000179919
-0.000179307
0.000247057
-0.000263713
0.000326321
-0.000357316
0.00041765
-0.000458404
0.000520664
-0.000565249
0.000634655
-0.000676097
0.000758597
-0.00078918
0.000891185
-0.000902757
0.00103088
-0.00101516
0.00117599
-0.00112483
0.00132471
-0.00123041
0.00147523
-0.00133075
0.0016258
-0.00142492
0.00177477
-0.00151228
0.00192061
-0.00159243
0.00206199
-0.00166521
0.00219773
-0.00173065
0.00232692
-0.00178877
-0.00183732
0.00244956
2.27208e-06
2.00289e-05
1.12335e-05
2.88316e-05
2.85785e-05
1.20161e-05
5.56908e-05
-2.6372e-05
9.37121e-05
-8.31517e-05
0.000143546
-0.000155666
0.000205832
-0.000241593
0.000280913
-0.000338794
0.000368785
-0.000445189
0.000469076
-0.000558694
0.000581024
-0.000677198
0.000703497
-0.00079857
0.000835027
-0.00092071
0.000973876
-0.0010416
0.00111811
-0.00115939
0.00126571
-0.00127243
0.00141465
-0.00137935
0.00156297
-0.00147907
0.00170889
-0.00157084
0.00185083
-0.00165422
0.00198745
-0.00172905
0.00211767
-0.00179543
0.00224066
-0.00185365
0.00235592
-0.00190402
-0.00194518
0.00246378
2.7967e-06
1.72322e-05
1.33939e-05
1.82344e-05
3.35435e-05
-8.13359e-06
6.46628e-05
-5.74913e-05
0.000107883
-0.000126372
0.000164036
-0.000211819
0.000233614
-0.000311171
0.000316721
-0.000421901
0.000413036
-0.000541504
0.000521789
-0.000667447
0.000641771
-0.000797179
0.000771377
-0.000928177
0.000908685
-0.00105802
0.00105155
-0.00118447
0.0011977
-0.00130555
0.00134491
-0.00141964
0.00149104
-0.00152548
0.00163416
-0.00162219
0.00177262
-0.0017093
0.00190507
-0.00178666
0.00203048
-0.00185447
0.00214817
-0.00191312
0.00225773
-0.00196321
0.00235907
-0.00200536
-0.00203894
0.00245284
3.39905e-06
1.38332e-05
1.58245e-05
5.80898e-06
3.90532e-05
-3.13623e-05
7.4498e-05
-9.29361e-05
0.000123232
-0.000175106
0.000185953
-0.000274539
0.000262928
-0.000388146
0.000353943
-0.000512917
0.000458271
-0.000645832
0.000574673
-0.000783849
0.000701443
-0.000923949
0.000836491
-0.00106323
0.000977462
-0.00119899
0.00112187
-0.00132887
0.00126724
-0.00145092
0.00141124
-0.00156365
0.0015518
-0.00166603
0.00168716
-0.00175755
0.00181594
-0.00183808
0.00193716
-0.00190788
0.0020502
-0.00196751
0.0021548
-0.00201771
0.00225097
-0.00205938
0.00233901
-0.0020934
-0.00211975
0.00241981
4.0782e-06
9.75498e-06
1.85172e-05
-8.62998e-06
4.50787e-05
-5.79238e-05
8.51246e-05
-0.000132982
0.000139611
-0.000229592
0.000209027
-0.000343956
0.000293333
-0.000472452
0.000391909
-0.000611492
0.000503544
-0.000757467
0.000626476
-0.000906781
0.000758482
-0.00105595
0.00089701
-0.00120175
0.00103934
-0.00134132
0.00118276
-0.00147229
0.00132472
-0.00159288
0.00146296
-0.00170189
0.00159561
-0.00179868
0.00172123
-0.00188316
0.00183882
-0.00195568
0.00194784
-0.0020169
0.00204811
-0.00206777
0.00213976
-0.00210936
0.00222319
-0.00214282
0.00229902
-0.00216923
-0.00218902
0.00236828
4.83147e-06
4.92351e-06
2.14563e-05
-2.52548e-05
5.15739e-05
-8.80414e-05
9.64394e-05
-0.000177848
0.000156822
-0.000289974
0.000232921
-0.000420056
0.000324301
-0.000563832
0.000429851
-0.000717043
0.000547817
-0.000875433
0.000675885
-0.00103485
0.00081133
-0.0011914
0.000951206
-0.00134163
0.00109254
-0.00148266
0.00123254
-0.00161229
0.00136872
-0.00172907
0.00149906
-0.00183222
0.00162201
-0.00192164
0.00173657
-0.00199772
0.00184218
-0.00206129
0.00193874
-0.00211346
0.00202647
-0.00215551
0.00210588
-0.00218877
0.00217766
-0.00221459
0.00224262
-0.00223419
-0.00224828
0.00230188
5.65467e-06
-7.31154e-07
2.46198e-05
-4.42199e-05
5.84773e-05
-0.000121899
0.00010831
-0.000227681
0.000174622
-0.000356286
0.000257235
-0.000502669
0.000355228
-0.000661825
0.000466932
-0.000828746
0.000590007
-0.000998507
0.000721594
-0.00116644
0.000858528
-0.00132833
0.00099757
-0.00148067
0.00113564
-0.00162073
0.00127001
-0.00174666
0.00139844
-0.00185749
0.00151925
-0.00195303
0.00163134
-0.00203373
0.00173417
-0.00210055
0.00182765
-0.00215477
0.00191207
-0.00219788
0.00198802
-0.00223145
0.00205626
-0.00225702
0.00211769
-0.00227602
0.00217322
-0.00228972
-0.00229904
0.00222398
6.54225e-06
-7.2734e-06
2.79792e-05
-6.56569e-05
6.57127e-05
-0.000159632
0.00012058
-0.000282548
0.000192731
-0.000428438
0.000281523
-0.000591461
0.000385468
-0.00076577
0.000502285
-0.000945563
0.000629044
-0.00112527
0.000762386
-0.00129978
0.000898803
-0.00146475
0.0010349
-0.00161677
0.00116765
-0.00175348
0.00129455
-0.00187356
0.00141373
-0.00197667
0.00152395
-0.00206326
0.00162461
-0.0021344
0.00171563
-0.00219156
0.00179734
-0.00223647
0.00187038
-0.00227092
0.0019356
-0.00229668
0.00199395
-0.00231537
0.0020464
-0.00232846
0.00209391
-0.00233724
-0.00234265
0.00213752
7.48733e-06
-1.47607e-05
3.15004e-05
-8.967e-05
7.31905e-05
-0.000201322
0.000133066
-0.000342424
0.000210837
-0.000506209
0.000305303
-0.000685927
0.000414348
-0.000874814
0.000535054
-0.00106627
0.000663928
-0.00125414
0.0007972
-0.00143305
0.000931146
-0.0015987
0.00106238
-0.001748
0.00118808
-0.00187917
0.00130609
-0.00199158
0.00141502
-0.0020856
0.00151414
-0.00216237
0.00160332
-0.00222357
0.00168291
-0.00227115
0.00175359
-0.00230716
0.00181628
-0.00233361
0.00187198
-0.00235238
0.00192173
-0.00236511
0.00196651
-0.00237325
0.00200727
-0.00237799
-0.00238029
0.00204491
8.48156e-06
-2.32423e-05
3.51436e-05
-0.000116332
8.08086e-05
-0.000246987
0.00014557
-0.000407185
0.000228604
-0.000589243
0.000328078
-0.000785401
0.000441203
-0.000987939
0.000564434
-0.0011895
0.000693781
-0.00138349
0.000825182
-0.00156445
0.000954853
-0.00172837
0.00107957
-0.00187273
0.00119686
-0.00199646
0.00130504
-0.00209976
0.00140322
-0.00218378
0.00149118
-0.00225034
0.00156925
-0.00230164
0.00163812
-0.00234003
0.00169877
-0.0023678
0.00175224
-0.00238709
0.00179965
-0.00239978
0.00184203
-0.00240749
0.00188032
-0.00241155
0.00191539
-0.00241306
-0.00241292
0.00194802
9.51508e-06
-3.27574e-05
3.8863e-05
-0.00014568
8.84539e-05
-0.000296578
0.000157875
-0.000476606
0.000245683
-0.000677051
0.000349351
-0.000889069
0.000465403
-0.00110399
0.000589708
-0.00131381
0.000717887
-0.00151167
0.000845729
-0.00169229
0.000969551
-0.00185219
0.00108644
-0.00198962
0.00119438
-0.0021044
0.00129221
-0.00219759
0.00137956
-0.00227113
0.0014567
-0.00232747
0.00152431
-0.00236925
0.00158339
-0.00239911
0.00163506
-0.00241947
0.00168048
-0.00243251
0.00172074
-0.00244004
0.00175683
-0.00244359
0.00178964
-0.00244436
0.00181991
-0.00244332
-0.00244129
0.00184828
1.05764e-05
-4.33337e-05
4.26078e-05
-0.000177711
9.60036e-05
-0.000349974
0.000169755
-0.000550357
0.000261722
-0.000769019
0.000368646
-0.000995993
0.000486378
-0.00122172
0.000610284
-0.00143771
0.000735727
-0.00163711
0.000858503
-0.00181507
0.000975184
-0.00196887
0.00108329
-0.00209772
0.00118132
-0.00220243
0.00126868
-0.00228494
0.00134548
-0.00234793
0.00141238
-0.00239437
0.00147039
-0.00242726
0.00152067
-0.00244939
0.00156445
-0.00246325
0.00160287
-0.00247093
0.001637
-0.00247417
0.00166775
-0.00247433
0.00169588
-0.00247249
0.00172203
-0.00246948
-0.00246599
0.00174672
1.16523e-05
-5.4986e-05
4.63223e-05
-0.000212381
0.000103328
-0.00040698
0.000180979
-0.000628008
0.00027638
-0.00086442
0.000385525
-0.00110514
0.000503645
-0.00133984
0.000625716
-0.00155978
0.000746988
-0.00175838
0.000863425
-0.00193151
0.000971983
-0.00207743
0.0010707
-0.00219644
0.00115863
-0.00229036
0.0012357
-0.00236201
0.00130246
-0.0024147
0.0013599
-0.00245181
0.00140923
-0.00247659
0.00145172
-0.00249188
0.00148859
-0.00250012
0.00152098
-0.00250332
0.00154984
-0.00250303
0.00157599
-0.00250048
0.00160008
-0.00249658
0.00162264
-0.00249204
-0.00248742
0.00164408
1.27282e-05
-6.77142e-05
4.99471e-05
-0.0002496
0.000110295
-0.000467328
0.000191324
-0.000709037
0.00028934
-0.000962436
0.00039961
-0.00121541
0.000516829
-0.00145706
0.000635716
-0.00167867
0.000751566
-0.00187423
0.000860652
-0.0020406
0.000960416
-0.00217719
0.00104946
-0.00228548
0.00112739
-0.00236829
0.00119459
-0.00242922
0.001252
-0.0024721
0.00130082
-0.00250064
0.0013424
-0.00251816
0.00137802
-0.0025275
0.00140889
-0.00253099
0.00143605
-0.00253047
0.00146034
-0.00252733
0.00148249
-0.00252262
0.00150303
-0.00251712
0.00152239
-0.0025114
-0.00250592
0.00154088
1.37882e-05
-8.15024e-05
5.34207e-05
-0.000289233
0.000116772
-0.00053068
0.000200573
-0.000792838
0.000300318
-0.00106218
0.000410594
-0.00132568
0.000525671
-0.00157214
0.000640159
-0.00179316
0.000749549
-0.00198362
0.000850542
-0.00214159
0.00094113
-0.00226778
0.00102049
-0.00236483
0.00108873
-0.00243654
0.00114666
-0.00248715
0.00119547
-0.00252091
0.00123654
-0.0025417
0.00127123
-0.00255285
0.00130083
-0.00255711
0.00132646
-0.00255662
0.00134904
-0.00255305
0.00136933
-0.00254762
0.00138793
-0.00254121
0.00140527
-0.00253447
0.0014217
-0.00252783
-0.00252168
0.00143746
1.48157e-05
-9.63181e-05
5.66809e-05
-0.000331098
0.000122632
-0.000596631
0.000208533
-0.000878739
0.000309078
-0.00116273
0.000418253
-0.00143486
0.000530034
-0.00168392
0.000639072
-0.00190219
0.000741192
-0.00208574
0.000833606
-0.002234
0.000914889
-0.00234906
0.000984765
-0.00243471
0.00104381
-0.00249558
0.00109313
-0.00253648
0.00113413
-0.00256191
0.00116825
-0.00257582
0.00119686
-0.00258146
0.00122116
-0.00258141
0.00124217
-0.00257763
0.00126071
-0.00257159
0.00127742
-0.00256433
0.0012928
-0.00255659
0.00130721
-0.00254887
0.00132091
-0.00254153
-0.00253484
0.00133407
1.57933e-05
-0.000112111
5.9667e-05
-0.000374972
0.000127756
-0.00066472
0.000215035
-0.000966018
0.000315436
-0.00126313
0.000422449
-0.00154187
0.000529897
-0.00179137
0.000632621
-0.00200492
0.000726882
-0.00218
0.000810465
-0.00231759
0.000882523
-0.00242112
0.000943283
-0.00249547
0.000993699
-0.00254599
0.00103513
-0.00257791
0.00106907
-0.00259586
0.00109699
-0.00260374
0.0011202
-0.00260466
0.0011398
-0.00260101
0.0011567
-0.00259454
0.00117161
-0.0025865
0.00118507
-0.00257779
0.00119747
-0.00256899
0.00120912
-0.00256052
0.00122021
-0.00255262
-0.00254551
0.00123088
1.67038e-05
-0.000128815
6.23212e-05
-0.000420589
0.000132038
-0.000734437
0.000219941
-0.00105392
0.000319267
-0.00136245
0.000423129
-0.00164573
0.000525348
-0.00189359
0.00062108
-0.00210065
0.000707106
-0.00226603
0.000781802
-0.00239228
0.000844875
-0.00248419
0.000896991
-0.00254759
0.000939404
-0.00258841
0.000973632
-0.00261214
0.00100122
-0.00262345
0.0010236
-0.00262612
0.00104198
-0.00262305
0.00105738
-0.00261641
0.00107057
-0.00260773
0.00108216
-0.00259809
0.0010926
-0.00258822
0.0011022
-0.0025786
0.00111121
-0.00256953
0.00111978
-0.0025612
-0.00255374
0.00112801
1.75307e-05