/*--------------------------------*- C++ -*----------------------------------*\
  =========                 |
  \\      /  F ield         | OpenFOAM: The Open Source CFD Toolbox
   \\    /   O peration     | Website:  https://openfoam.org
    \\  /    A nd           | Version:  6.0
     \\/     M anipulation  |
\*---------------------------------------------------------------------------*/
FoamFile
{
    version     2.0;
    format      ascii;
    class       volVectorField;
    location    "55";
    object      U;
}
// * * * * * * * * * * * * * * * * * * * * * * * * * * * * * * * * * * * * * //

dimensions      [0 1 -1 0 0 0 0];

internalField   nonuniform List<vector> 
12500
(
(-0.000368569 0.00683222 -7.03213e-22)
(-0.00179448 0.0164174 9.85862e-21)
(-0.00435626 0.0228836 -1.42815e-20)
(-0.00753422 0.0269579 6.54487e-21)
(-0.0110367 0.0292315 3.85493e-22)
(-0.0146776 0.0301824 -7.9631e-22)
(-0.0183083 0.0301904 -1.18477e-20)
(-0.021818 0.0295516 6.49253e-21)
(-0.0251293 0.0284925 4.29584e-21)
(-0.0281923 0.0271831 4.34754e-21)
(-0.0309788 0.0257485 -7.34861e-21)
(-0.0334784 0.0242795 4.26504e-21)
(-0.0356954 0.0228411 -2.00557e-21)
(-0.0376462 0.0214795 3.39849e-21)
(-0.0393569 0.0202282 -8.64607e-21)
(-0.0408613 0.0191116 1.24457e-20)
(-0.0421996 0.0181488 -2.35728e-21)
(-0.0434162 0.0173552 -8.79183e-21)
(-0.044558 0.0167441 4.51134e-21)
(-0.0456733 0.0163271 -4.29674e-21)
(-0.0468155 0.0161148 3.82875e-21)
(-0.0480384 0.016115 5.02631e-21)
(-0.0493419 0.0163341 5.1913e-22)
(-0.0506459 0.0167822 -1.43895e-20)
(-0.0523376 0.0174659 7.57424e-21)
(-0.00060331 0.00745462 1.31339e-20)
(-0.00233958 0.0180302 -3.38073e-20)
(-0.00507661 0.025239 9.92444e-21)
(-0.00833788 0.0298423 6.63105e-21)
(-0.0118604 0.0324624 -5.27671e-21)
(-0.0154785 0.0336059 -2.99539e-20)
(-0.0190583 0.0336795 8.88516e-21)
(-0.0224998 0.0330043 -1.67712e-20)
(-0.0257331 0.0318295 2.00186e-20)
(-0.0287129 0.0303454 -2.66722e-20)
(-0.0314138 0.0286961 1.41923e-20)
(-0.0338271 0.0269892 4.61205e-21)
(-0.0359577 0.0253053 -1.15241e-20)
(-0.0378222 0.0237053 -5.0599e-21)
(-0.0394466 0.0222355 3.71427e-20)
(-0.040865 0.0209325 -3.28221e-20)
(-0.0421177 0.019826 7.85965e-21)
(-0.0432499 0.0189404 1.35406e-20)
(-0.0443097 0.0182968 -3.03175e-21)
(-0.0453473 0.0179125 2.16768e-20)
(-0.0464191 0.0178017 3.97649e-21)
(-0.0475828 0.0179739 -1.47151e-21)
(-0.0488375 0.0184366 -2.73368e-20)
(-0.0500946 0.0192026 2.50874e-20)
(-0.0517814 0.0202647 -4.78411e-20)
(-0.000877019 0.00804823 4.22757e-20)
(-0.00298858 0.0195773 1.39741e-20)
(-0.00595336 0.0275079 -1.8378e-20)
(-0.00933743 0.0326308 7.90476e-21)
(-0.0129071 0.0355958 7.31558e-21)
(-0.0165176 0.0369348 2.78178e-20)
(-0.0200514 0.0370797 -3.53192e-20)
(-0.0234196 0.0363747 -5.79316e-21)
(-0.0265605 0.0350902 -2.3598e-20)
(-0.0294339 0.0334363 -1.96553e-20)
(-0.0320177 0.0315747 2.52529e-20)
(-0.0343046 0.02963 -8.45908e-20)
(-0.0363004 0.0276982 -2.69326e-21)
(-0.0380216 0.0258545 -5.06557e-20)
(-0.0394941 0.0241589 -5.96352e-21)
(-0.0407521 0.0226603 7.12604e-21)
(-0.0418362 0.0213997 -3.92029e-20)
(-0.0427928 0.0204118 -2.45046e-20)
(-0.0436716 0.0197262 -2.89249e-20)
(-0.0445257 0.0193676 4.52081e-20)
(-0.0454153 0.019355 1.64811e-20)
(-0.0464039 0.019701 -7.35884e-20)
(-0.0474908 0.020416 -3.53882e-20)
(-0.0485786 0.021518 -3.96723e-20)
(-0.0501385 0.0229852 1.06305e-19)
(-0.00118747 0.00861308 -1.2371e-21)
(-0.00373561 0.0210569 -3.24207e-20)
(-0.0069772 0.0296859 -1.56622e-20)
(-0.0105204 0.0353162 9.76708e-21)
(-0.0141614 0.0386213 5.99478e-20)
(-0.0177772 0.0401561 -2.69064e-20)
(-0.0212671 0.0403749 5.74541e-20)
(-0.0245547 0.0396433 5.46946e-20)
(-0.0275869 0.0382514 3.32005e-20)
(-0.0303291 0.0364279 -4.57152e-22)
(-0.0327625 0.0343516 6.67651e-20)
(-0.0348816 0.032163 1.15715e-20)
(-0.0366927 0.0299734 5.08339e-20)
(-0.0382122 0.0278724 1.16826e-19)
(-0.0394658 0.0259337 -1.35381e-19)
(-0.0404874 0.0242194 2.03415e-19)
(-0.0413182 0.0227827 4.42287e-20)
(-0.0420056 0.0216697 -9.76191e-20)
(-0.0426017 0.0209204 -1.37887e-20)
(-0.0431628 0.0205683 3.52653e-20)
(-0.0437546 0.0206395 -1.78382e-20)
(-0.0444472 0.0211514 -1.08162e-20)
(-0.0452424 0.0221199 -1.04794e-20)
(-0.0460328 0.0235715 -4.19022e-20)
(-0.0473382 0.0254688 1.45841e-19)
(-0.00153251 0.00914884 2.21814e-20)
(-0.00457464 0.0224664 -1.02672e-19)
(-0.00813823 0.0317676 1.2448e-19)
(-0.0118733 0.0378901 -4.93858e-20)
(-0.0156062 0.0415276 5.92208e-20)
(-0.0192368 0.0432555 4.83454e-20)
(-0.0226823 0.0435481 1.83281e-20)
(-0.0258793 0.0427904 1.057e-21)
(-0.028784 0.0412906 1.0283e-19)
(-0.0313681 0.0392943 7.1188e-20)
(-0.0336163 0.0369964 -2.83224e-20)
(-0.0355249 0.0345526 -1.8251e-20)
(-0.0371006 0.032089 7.72725e-20)
(-0.0383593 0.0297092 1.45085e-20)
(-0.0393263 0.027501 3.95387e-20)
(-0.040035 0.0255402 9.43523e-20)
(-0.0405268 0.0238934 -8.11749e-20)
(-0.0408503 0.0226198 6.53909e-20)
(-0.04106 0.0217716 -1.41477e-19)
(-0.0412162 0.0213934 1.1887e-19)
(-0.0413908 0.0215212 8.36052e-22)
(-0.0416629 0.0221799 -9.50569e-20)
(-0.0420379 0.0233939 3.79461e-20)
(-0.042399 0.0252023 8.66812e-20)
(-0.043318 0.0275524 -1.27479e-19)
(-0.00190993 0.00965469 1.15078e-19)
(-0.00549929 0.0238022 -1.2208e-19)
(-0.00942561 0.0337462 -1.94536e-20)
(-0.0133809 0.0403424 2.47832e-20)
(-0.0172222 0.0443021 -5.32303e-20)
(-0.0208734 0.0462181 -8.28e-20)
(-0.0242701 0.0465825 -6.88739e-20)
(-0.0273634 0.0457971 -1.65678e-20)
(-0.0301193 0.0441868 -1.18192e-19)
(-0.0325161 0.0420121 9.4556e-20)
(-0.0345425 0.0394829 -1.46231e-19)
(-0.0361965 0.0367687 7.40676e-20)
(-0.0374852 0.0340095 -2.42767e-20)
(-0.0384239 0.0313229 5.67581e-20)
(-0.0390366 0.0288106 -1.4274e-19)
(-0.039356 0.0265625 6.95023e-20)
(-0.0394231 0.0246601 5.34816e-21)
(-0.0392876 0.0231772 3.06782e-20)
(-0.0390064 0.0221805 1.85621e-19)
(-0.0386442 0.0217291 4.14732e-20)
(-0.0382802 0.0218716 -3.48042e-21)
(-0.0380042 0.0226444 1.18109e-20)
(-0.0378275 0.0240844 7.75238e-20)
(-0.0376241 0.0262488 2.23008e-20)
(-0.0380225 0.0290701 7.29753e-20)
(-0.00231741 0.0101294 -7.16758e-20)
(-0.00650259 0.0250595 1.01701e-19)
(-0.0108273 0.0356134 6.41829e-21)
(-0.015026 0.0426618 -1.23963e-19)
(-0.0189874 0.0469309 2.60946e-19)
(-0.0226602 0.0490281 -8.41559e-20)
(-0.0259996 0.0494607 1.23025e-19)
(-0.028972 0.0486454 1.12347e-19)
(-0.031554 0.046921 -9.2885e-20)
(-0.0337314 0.0445617 -1.35221e-19)
(-0.0354971 0.0417898 3.70495e-20)
(-0.0368509 0.038788 -3.90899e-20)
(-0.0378001 0.0357086 -1.72652e-19)
(-0.038359 0.0326823 2.10087e-19)
(-0.0385501 0.0298245 -1.00769e-19)
(-0.0384044 0.0272399 -6.94191e-20)
(-0.037962 0.0250253 8.6595e-22)
(-0.0372731 0.0232713 5.70729e-20)
(-0.0363967 0.0220618 2.34344e-20)
(-0.0354021 0.0214736 -9.1695e-20)
(-0.034377 0.0215726 1.0538e-19)
(-0.0334235 0.0224107 -1.82488e-19)
(-0.0325617 0.0240434 1.11729e-19)
(-0.0316575 0.0265524 -8.55774e-20)
(-0.0314009 0.0298577 2.19073e-20)
(-0.00275242 0.010571 1.05014e-19)
(-0.00757672 0.0262322 -8.06755e-20)
(-0.0123298 0.0373592 -5.11882e-20)
(-0.0167892 0.0448354 -9.04135e-20)
(-0.0208767 0.0493987 -1.65085e-19)
(-0.0245664 0.0516688 -1.21821e-19)
(-0.0278347 0.0521655 7.61167e-20)
(-0.0306639 0.0513179 -1.15156e-19)
(-0.0330426 0.0494766 1.46036e-19)
(-0.0349644 0.0469269 -2.37709e-19)
(-0.036427 0.043902 1.05617e-19)
(-0.0374325 0.0405953 2.23011e-19)
(-0.037988 0.0371702 -3.13486e-19)
(-0.0381067 0.0337691 4.48142e-20)
(-0.0378087 0.0305204 5.83933e-20)
(-0.0371227 0.0275433 5.63469e-20)
(-0.0360872 0.0249509 -6.03105e-20)
(-0.0347516 0.0228519 -1.45906e-20)
(-0.0331768 0.0213505 -4.46614e-20)
(-0.0314368 0.0205451 -3.70486e-20)
(-0.0296279 0.0205237 -2.0466e-19)
(-0.027867 0.0213601 -1.39771e-20)
(-0.0261858 0.0231348 2.3639e-21)
(-0.0244448 0.0259639 -9.27709e-20)
(-0.023401 0.0297582 9.58298e-20)
(-0.00321205 0.0109773 3.11789e-21)
(-0.0087128 0.0273131 3.29397e-20)
(-0.0139175 0.0389723 3.44195e-20)
(-0.0186485 0.0468483 1.97811e-20)
(-0.022861 0.0516884 1.68468e-19)
(-0.0265564 0.0541219 1.58291e-19)
(-0.0297331 0.0546788 -1.28508e-19)
(-0.0323906 0.0537977 -3.93209e-20)
(-0.0345304 0.0518386 -3.47634e-20)
(-0.0361549 0.0490955 1.79246e-19)
(-0.0372672 0.0458102 6.45307e-20)
(-0.037872 0.0421843 -9.36031e-20)
(-0.0379765 0.0383903 -7.94535e-20)
(-0.0375923 0.0345805 1.91324e-19)
(-0.0367367 0.0308948 -4.71902e-20)
(-0.0354352 0.0274661 -5.7347e-20)
(-0.0337234 0.0244238 -7.99811e-20)
(-0.0316494 0.0218962 -6.23849e-20)
(-0.0292746 0.0200101 -7.98262e-20)
(-0.0266772 0.01889 -5.22314e-20)
(-0.0239629 0.0186518 2.17056e-19)
(-0.0212649 0.0193982 -1.07114e-19)
(-0.0186304 0.0212442 7.2177e-20)
(-0.0159181 0.0243523 -1.92708e-19)
(-0.0139595 0.0286304 7.70871e-20)
(-0.003693 0.0113452 -9.46818e-20)
(-0.00990062 0.0282934 -2.47372e-20)
(-0.0155728 0.0404392 -1.92405e-19)
(-0.0205784 0.0486837 -9.22512e-20)
(-0.0249075 0.0537811 -1.81724e-19)
(-0.0285894 0.0563678 -1.89125e-20)
(-0.031646 0.0569814 9.73181e-20)
(-0.0340952 0.0560677 -5.94673e-20)
(-0.0359526 0.0539932 1.27785e-19)
(-0.0372305 0.0510582 -3.10656e-19)
(-0.0379381 0.0475104 -9.09989e-21)
(-0.0380832 0.0435572 5.50755e-20)
(-0.0376736 0.0393771 -6.98716e-20)
(-0.0367192 0.0351302 6.36808e-20)
(-0.0352342 0.0309653 -4.88032e-20)
(-0.03324 0.0270274 -1.04658e-19)
(-0.0307683 0.0234616 1.90931e-19)
(-0.0278643 0.0204157 1.18605e-19)
(-0.024589 0.0180417 -2.45535e-20)
(-0.0210235 0.0164938 7.85957e-20)
(-0.0172832 0.0159225 -1.54997e-19)
(-0.0135194 0.0164682 2.23788e-19)
(-0.00979861 0.0182917 -3.05766e-19)
(-0.00598274 0.021617 6.2823e-20)
(-0.00298798 0.0263604 -1.20556e-19)
(-0.00419142 0.0116713 5.1626e-21)
(-0.0111285 0.0291636 -8.47971e-20)
(-0.0172758 0.0417453 1.24887e-19)
(-0.0225504 0.050323 2.56019e-19)
(-0.0269785 0.0556557 -4.36067e-21)
(-0.0306186 0.0583846 2.89895e-20)
(-0.033517 0.0590523 -1.09541e-19)
(-0.0357115 0.0581094 5.10984e-20)
(-0.0372329 0.0559265 3.53454e-19)
(-0.0381043 0.0528075 -8.015e-20)
(-0.0383424 0.0490031 -9.48703e-20)
(-0.0379591 0.0447234 3.58301e-19)
(-0.0369631 0.0401504 1.17347e-19)
(-0.0353631 0.035448 5.58709e-20)
(-0.0331699 0.0307715 5.73578e-20)
(-0.0304005 0.0262749 1.5585e-19)
(-0.0270816 0.0221167 -5.98923e-20)
(-0.023254 0.0184636 1.58941e-19)
(-0.0189766 0.0154933 2.15142e-19)
(-0.0143326 0.0133934 -1.83446e-19)
(-0.00944609 0.0123551 2.731e-19)
(-0.004488 0.0125663 9.80174e-20)
(0.000451537 0.0142476 -3.7129e-19)
(0.00550085 0.0177049 5.37837e-19)
(0.00964588 0.0228779 -4.35724e-19)
(-0.0047029 0.0119518 -2.42767e-19)
(-0.0123834 0.0299128 1.31757e-19)
(-0.0190042 0.0428742 -8.84753e-20)
(-0.0245327 0.0517456 -8.38244e-20)
(-0.0290323 0.0572887 -9.07274e-20)
(-0.0325915 0.0601476 -9.82132e-20)
(-0.0352823 0.0608676 2.68853e-20)
(-0.0371634 0.0599019 2.56186e-19)
(-0.0382821 0.0576227 -5.46744e-20)
(-0.0386738 0.0543351 -1.42903e-19)
(-0.0383639 0.0502898 -8.74542e-20)
(-0.0373691 0.0456969 -3.56814e-20)
(-0.0357007 0.0407382 1.06368e-19)
(-0.0333663 0.035578 -6.76197e-20)
(-0.0303742 0.0303739 -2.2103e-19)
(-0.0267365 0.0252849 -2.44308e-19)
(-0.0224744 0.0204792 9.75224e-20)
(-0.017623 0.0161397 -1.81566e-19)
(-0.0122378 0.0124688 1.58365e-19)
(-0.00640176 0.0096889 -4.46666e-19)
(-0.000247024 0.00803754 3.43785e-19)
(0.00603519 0.00776013 -4.55276e-19)
(0.012327 0.00915371 -8.78066e-21)
(0.0187391 0.0126302 -1.54163e-19)
(0.0241422 0.0181766 4.51698e-19)
(-0.00522251 0.0121826 3.72763e-19)
(-0.0136506 0.0305298 5.46303e-20)
(-0.0207334 0.0438085 -3.59617e-20)
(-0.0264903 0.0529292 -1.50298e-20)
(-0.0310227 0.0586543 2.80991e-19)
(-0.0344498 0.061629 9.14458e-20)
(-0.0368702 0.0623998 8.30275e-20)
(-0.0383648 0.0614201 -6.66469e-20)
(-0.0389985 0.059062 2.57168e-19)
(-0.0388202 0.0556292 -1.26271e-19)
(-0.0378654 0.0513701 8.14319e-20)
(-0.0361573 0.046492 2.0795e-19)
(-0.0337106 0.0411729 -1.17776e-19)
(-0.0305338 0.0355736 1.28019e-19)
(-0.026633 0.0298493 1.21002e-19)
(-0.0220165 0.0241589 4.1334e-20)
(-0.0166995 0.0186752 -1.02126e-19)
(-0.0107112 0.0135921 2.82699e-19)
(-0.00410162 0.00913273 -2.6279e-20)
(0.00304786 0.00555364 -3.04652e-20)
(0.010599 0.00314145 3.39718e-19)
(0.0183402 0.00220826 -2.42132e-19)
(0.026122 0.00314504 4.08282e-19)
(0.0340294 0.00650023 -3.39433e-19)
(0.0407952 0.0123397 4.347e-19)
(-0.00574478 0.0123597 -1.80575e-19)
(-0.0149141 0.0310032 4.00292e-20)
(-0.0224367 0.0445304 -4.1814e-20)
(-0.0283851 0.0538501 -1.96603e-19)
(-0.0328993 0.0597242 1.14578e-20)
(-0.0361296 0.0627979 1.12108e-19)
(-0.0382019 0.0636169 -4.55371e-19)
(-0.0392201 0.0626337 3.40107e-19)
(-0.0392676 0.0602184 -3.31048e-19)
(-0.0384084 0.0566716 -2.08761e-19)
(-0.0366891 0.0522377 1.87605e-19)
(-0.0341414 0.0471181 -4.06335e-19)
(-0.0307848 0.0414843 3.42568e-19)
(-0.0266306 0.0354899 -1.0877e-19)
(-0.0216846 0.0292828 -3.11442e-19)
(-0.0159522 0.0230161 7.69304e-20)
(-0.00944429 0.0168599 -7.2114e-20)
(-0.00218368 0.0110123 2.73377e-20)
(0.00578566 0.00571012 -9.74751e-20)
(0.0143857 0.00123865 -3.24866e-19)
(0.0234741 -0.00206726 7.26716e-20)
(0.0328196 -0.00382307 3.75344e-23)
(0.0422386 -0.00352697 -3.36437e-19)
(0.0517823 -0.000459201 2.36364e-19)
(0.0600186 0.00556716 -2.0371e-19)
(-0.00626394 0.0124794 7.32371e-20)
(-0.016157 0.0313222 1.34744e-19)
(-0.0240859 0.0450219 1.88096e-19)
(-0.0301769 0.0544839 9.68255e-20)
(-0.0346085 0.0604684 -9.47798e-20)
(-0.0375623 0.0636197 2.26148e-19)
(-0.0391918 0.0644821 1.67329e-19)
(-0.0396244 0.0635059 -6.07049e-20)
(-0.0389631 0.061058 2.17723e-19)
(-0.0372878 0.0574348 -2.23961e-19)
(-0.0346576 0.0528752 -6.56342e-20)
(-0.031114 0.0475735 6.66723e-20)
(-0.0266839 0.0416922 1.32703e-19)
(-0.021383 0.0353745 1.4837e-21)
(-0.0152194 0.0287565 8.42587e-20)
(-0.00819848 0.0219798 1.55346e-19)
(-0.000328171 0.0152044 -2.64665e-19)
(0.00837311 0.00862301 3.29343e-19)
(0.0178671 0.00247598 1.11636e-19)
(0.0280801 -0.00293266 3.96038e-20)
(0.0388678 -0.00722694 -4.00811e-19)
(0.0499808 -0.00995033 5.67575e-20)
(0.0611998 -0.0104774 8.80327e-20)
(0.0725374 -0.00787974 -2.1257e-20)
(0.082365 -0.00179651 1.00367e-19)
(-0.00677404 0.0125389 5.83688e-21)
(-0.0173616 0.0314772 -3.47156e-19)
(-0.0256514 0.0452662 -8.44177e-21)
(-0.0318231 0.0548063 -8.74208e-20)
(-0.0360932 0.0608558 -5.74073e-19)
(-0.0386743 0.0640579 4.95639e-19)
(-0.0397478 0.0649545 -3.52669e-19)
(-0.0394646 0.0639933 -1.75764e-20)
(-0.0379478 0.0615379 -1.66787e-19)
(-0.0352937 0.0578798 2.8864e-19)
(-0.0315754 0.053252 -3.10891e-19)
(-0.0268454 0.0478408 -1.45748e-19)
(-0.02114 0.0417987 3.2783e-21)
(-0.0144818 0.0352565 -3.16261e-19)
(-0.00688456 0.0283357 4.31716e-19)
(0.00164345 0.0211611 -5.00772e-19)
(0.0110933 0.0138756 8.2573e-22)
(0.0214479 0.00665619 7.68871e-20)
(0.0326724 -0.00026611 -1.92593e-19)
(0.0446971 -0.00658346 1.8688e-19)
(0.057377 -0.0118933 -2.65198e-19)
(0.0704466 -0.0156772 -1.75394e-19)
(0.0836513 -0.0171822 3.26896e-19)
(0.0969647 -0.0152364 -3.56584e-19)
(0.10853 -0.00924285 -6.97511e-21)
(-0.00726926 0.012536 -2.94552e-19)
(-0.0185101 0.0314602 3.37373e-19)
(-0.0271028 0.0452481 -1.03974e-19)
(-0.0332792 0.0547944 2.00057e-19)
(-0.0372932 0.0608558 2.15572e-19)
(-0.0393877 0.0640743 -1.8986e-19)
(-0.0397715 0.06499 -1.26159e-19)
(-0.0386193 0.0640477 -1.50901e-19)
(-0.0360739 0.0616075 1.38126e-19)
(-0.0322486 0.0579566 -9.09181e-21)
(-0.0272309 0.0533221 2.01713e-19)
(-0.021086 0.047883 1.99035e-19)
(-0.0138609 0.0417822 -2.38171e-19)
(-0.00558835 0.0351379 4.6825e-19)
(0.00370935 0.0280555 -3.10813e-19)
(0.0140163 0.0206405 -5.38168e-20)
(0.0253177 0.0130126 6.07149e-19)
(0.0375929 0.00532421 -2.81106e-19)
(0.0508057 -0.00221689 1.79508e-19)
(0.0648874 -0.00931771 3.50787e-19)
(0.0796922 -0.0155714 -2.27613e-19)
(0.0949403 -0.0204194 2.39674e-20)
(0.110344 -0.022993 -1.56273e-20)
(0.125846 -0.0218511 -9.3304e-20)
(0.139334 -0.0160941 1.73956e-19)
(-0.00774411 0.0124701 6.74686e-20)
(-0.0195846 0.0312659 -2.14008e-19)
(-0.0284087 0.0449554 1.1703e-19)
(-0.0344987 0.0544279 -1.40577e-21)
(-0.0381446 0.0604396 8.79049e-20)
(-0.0396191 0.0636323 -1.51266e-19)
(-0.0391577 0.0645444 8.65092e-20)
(-0.0369581 0.0636182 2.35654e-19)
(-0.0331828 0.0612109 -7.20799e-21)
(-0.027962 0.0576061 -1.20683e-19)
(-0.0213977 0.0530265 1.21522e-19)
(-0.0135686 0.0476452 -2.65262e-21)
(-0.00453445 0.0415969 -3.85387e-19)
(0.00565963 0.0349891 1.42948e-19)
(0.0169789 0.0279124 3.16691e-20)
(0.0293949 0.0204526 -5.60022e-20)
(0.0428809 0.0127044 -9.97307e-20)
(0.0574053 0.00478896 3.81993e-19)
(0.0729234 -0.0031211 9.34506e-20)
(0.0893614 -0.0107671 -1.99821e-19)
(0.10657 -0.0177657 -2.39737e-20)
(0.124255 -0.0235532 2.75219e-19)
(0.142101 -0.0271769 -1.28555e-19)
(0.160033 -0.0269207 5.50521e-20)
(0.175681 -0.0215205 3.64765e-20)
(-0.00819367 0.0123419 -1.35042e-19)
(-0.0205676 0.0308919 1.33958e-19)
(-0.029537 0.0443795 -7.54345e-20)
(-0.0354325 0.0536907 -2.4208e-19)
(-0.0385791 0.059583 -2.22714e-19)
(-0.0392785 0.062699 -9.86949e-20)
(-0.0377921 0.0635765 -8.16333e-20)
(-0.0343398 0.062656 -2.41658e-19)
(-0.0291032 0.0602925 -9.76539e-20)
(-0.0222287 0.0567671 8.90076e-20)
(-0.0138331 0.0522998 -1.2722e-19)
(-0.00400894 0.0470601 -1.34531e-19)
(0.00716991 0.0411776 -1.26435e-19)
(0.0196434 0.0347524 2.30188e-19)
(0.0333605 0.0278639 -4.83382e-19)
(0.0482748 0.0205817 2.76638e-19)
(0.0643404 0.0129767 -4.7343e-19)
(0.0815058 0.00513797 -7.30997e-20)
(0.0997079 -0.00280408 -2.60529e-19)
(0.118858 -0.0106412 -6.09129e-20)
(0.138795 -0.0180423 -7.42461e-20)
(0.15921 -0.0244828 -2.4784e-19)
(0.179761 -0.0289816 -2.69358e-20)
(0.200387 -0.0295723 1.51271e-19)
(0.218485 -0.0245816 -3.89637e-19)
(-0.00861366 0.0121534 1.15991e-19)
(-0.0214414 0.0303387 1.51483e-19)
(-0.0304539 0.0435163 5.29394e-19)
(-0.0360275 0.0525722 -9.2948e-20)
(-0.0385218 0.058268 2.20999e-19)
(-0.0382666 0.0612492 5.2636e-19)
(-0.0355484 0.0620535 -1.43442e-19)
(-0.0306086 0.0611206 1.94187e-19)
(-0.0236467 0.0588041 1.13334e-19)
(-0.0148248 0.0553843 2.05532e-19)
(-0.0042742 0.0510801 -4.12793e-20)
(0.00789806 0.0460602 2.77741e-20)
(0.0216029 0.0404529 -7.26043e-20)
(0.0367628 0.0343551 3.91033e-19)
(0.0533066 0.0278408 4.99275e-20)
(0.0711642 0.0209693 3.63836e-19)
(0.0902626 0.0137944 -9.32465e-20)
(0.11052 0.00637727 3.33489e-19)
(0.131842 -0.00119299 4.68843e-20)
(0.154111 -0.00876642 1.69644e-19)
(0.177143 -0.0160867 -7.31591e-20)
(0.200606 -0.0227144 -1.28079e-20)
(0.224129 -0.0277151 4.0241e-19)
(0.247704 -0.0289376 2.4653e-19)
(0.268584 -0.0242862 -1.02106e-19)
(-0.00900035 0.0119077 -2.80802e-19)
(-0.0221883 0.0296098 -2.8405e-19)
(-0.0311226 0.0423663 -2.96614e-19)
(-0.0362249 0.0510687 1.08729e-19)
(-0.0378885 0.056486 -2.18181e-19)
(-0.0364714 0.0592686 -3.24929e-20)
(-0.0322842 0.0599555 -8.56779e-20)
(-0.025589 0.0589862 -3.55588e-19)
(-0.0166023 0.0567141 -5.56566e-20)
(-0.0055014 0.0534197 9.13221e-20)
(0.00756792 0.0493228 -2.86876e-19)
(0.0224838 0.0445939 3.9778e-19)
(0.0391401 0.0393635 -5.40757e-19)
(0.0574394 0.0337305 1.30416e-19)
(0.0772861 0.0277699 -3.31701e-19)
(0.0985806 0.0215384 -2.69606e-19)
(0.121214 0.0150825 -1.54354e-20)
(0.145064 0.00844598 -4.08841e-20)
(0.16999 0.00168564 3.21555e-20)
(0.195826 -0.00510267 -1.54212e-19)
(0.22235 -0.0117459 -1.06637e-19)
(0.249192 -0.0179249 1.30889e-19)
(0.275939 -0.022836 -3.61685e-19)
(0.302671 -0.0242517 1.17335e-19)
(0.326671 -0.0196855 8.32458e-20)
(-0.00935028 0.0116089 -4.97522e-20)
(-0.0227889 0.028711 -8.23848e-20)
(-0.0315022 0.0409348 3.20395e-19)
(-0.0359574 0.049184 1.19032e-19)
(-0.0365827 0.0542391 1.57505e-19)
(-0.0337639 0.0567575 -2.10351e-19)
(-0.0278358 0.0572808 3.64648e-22)
(-0.0190802 0.0562493 -1.70328e-19)
(-0.00773014 0.0540168 3.1481e-19)
(0.0060219 0.0508648 1.02922e-19)
(0.0220155 0.0470157 1.15773e-19)
(0.0401123 0.0426437 -4.59522e-19)
(0.0601874 0.0378847 5.67612e-19)
(0.0821196 0.032844 -1.70422e-19)
(0.105784 0.0276034 -1.2223e-19)
(0.131046 0.0222259 3.66453e-19)
(0.157752 0.016761 1.63845e-19)
(0.185727 0.0112496 -4.14569e-19)
(0.21477 0.00573276 -1.73205e-19)
(0.24465 0.000268783 5.22586e-19)
(0.27508 -0.00504177 -3.98902e-19)
(0.305633 -0.0100123 2.39863e-19)
(0.335829 -0.0140452 1.33472e-19)
(0.365844 -0.0149774 -1.71618e-19)
(0.39326 -0.00999548 -1.633e-19)
(-0.00965969 0.0112608 -1.83019e-19)
(-0.0232213 0.0276496 2.8438e-19)
(-0.031545 0.0392315 1.20958e-19)
(-0.0351469 0.04693 -1.74579e-19)
(-0.0344918 0.0515416 -2.79099e-20)
(-0.0299945 0.0537332 -1.82861e-19)
(-0.0220137 0.0540503 -7.28475e-20)
(-0.0108509 0.0529345 8.18649e-20)
(0.00324378 0.0507402 -2.03673e-20)
(0.0200624 0.0477509 1.54709e-19)
(0.0394278 0.0441919 -1.34492e-19)
(0.0611831 0.0402426 3.72305e-19)
(0.0851802 0.0360459 -4.62175e-19)
(0.11127 0.0317165 2.8826e-19)
(0.139292 0.0273473 3.58903e-19)
(0.169069 0.0230144 -5.19215e-19)
(0.200396 0.0187809 -1.58159e-19)
(0.233035 0.0147001 2.6674e-19)
(0.26671 0.0108191 -1.64543e-19)
(0.301105 0.00718785 1.58957e-19)
(0.335842 0.00386806 -3.84895e-19)
(0.370402 0.000937574 6.42945e-20)
(0.404191 -0.00124538 2.5003e-19)
(0.43746 -0.000701062 -4.0123e-19)
(0.468437 0.00565398 1.06545e-19)
(-0.00992373 0.010867 -1.69076e-19)
(-0.0234588 0.0264333 5.29917e-19)
(-0.0311945 0.0372695 1.01554e-19)
(-0.0337013 0.0443266 -2.74413e-19)
(-0.0314844 0.0484212 1.96529e-19)
(-0.024989 0.0502323 9.98705e-20)
(-0.0145991 0.0503103 1.59395e-19)
(-0.000636749 0.0490984 -1.02619e-20)
(0.0166297 0.0469522 -1.652e-20)
(0.0369741 0.0441565 -3.48064e-20)
(0.0601993 0.0409395 -1.52239e-19)
(0.0861242 0.0374853 -5.38937e-21)
(0.114572 0.033944 3.56005e-19)
(0.145357 0.0304396 -5.84937e-19)
(0.17828 0.0270774 4.16235e-19)
(0.21311 0.0239498 8.43473e-20)
(0.249586 0.0211404 1.49282e-19)
(0.287403 0.0187282 -7.70411e-20)
(0.326204 0.0167917 6.83093e-19)
(0.365574 0.0154144 -4.22816e-19)
(0.405015 0.0146845 3.37957e-19)
(0.443853 0.0146627 7.93301e-20)
(0.481277 0.01558 -2.46993e-19)
(0.517429 0.019328 2.08975e-19)
(0.551414 0.0291382 3.19743e-19)
(-0.0101356 0.0104298 -4.9014e-20)
(-0.0234687 0.0250697 -1.86798e-19)
(-0.0303827 0.0350648 -3.18875e-19)
(-0.0315123 0.0414007 -1.81488e-19)
(-0.0274076 0.0449182 -2.53433e-20)
(-0.0185477 0.0463104 -7.1567e-20)
(-0.00534361 0.0461334 -3.32107e-19)
(0.0118592 0.0448321 5.50446e-20)
(0.0327706 0.0427627 -3.73546e-19)
(0.057141 0.0402104 -2.90738e-20)
(0.0847459 0.037405 -3.58691e-19)
(0.115372 0.0345329 -1.27913e-19)
(0.148802 0.0317481 7.35199e-20)
(0.184807 0.0291803 -3.49821e-19)
(0.223132 0.0269429 3.13503e-21)
(0.263493 0.0251396 -3.01878e-19)
(0.30557 0.0238715 1.16708e-19)
(0.348998 0.0232448 -4.21641e-19)
(0.393367 0.0233806 -7.22152e-20)
(0.438208 0.0244292 -9.44592e-21)
(0.482962 0.0265782 -7.09143e-20)
(0.526871 0.0300359 -7.23602e-20)
(0.568916 0.0352731 -3.58282e-20)
(0.608581 0.0445153 -1.43878e-19)
(0.644138 0.0603602 -3.04507e-19)
(-0.0102854 0.00995023 8.98619e-20)
(-0.0232101 0.0235646 2.36549e-19)
(-0.0290289 0.0326349 2.83977e-19)
(-0.0284538 0.0381858 -2.26741e-19)
(-0.0220869 0.0410851 4.20796e-19)
(-0.0104453 0.0420416 -2.28308e-19)
(0.00602825 0.0416176 1.24024e-19)
(0.0269602 0.0402594 1.93529e-19)
(0.0520317 0.0383225 1.76134e-19)
(0.0809601 0.0360906 8.57425e-20)
(0.113482 0.0337916 1.38542e-19)
(0.149336 0.03161 8.06058e-20)
(0.188251 0.0296972 5.45574e-19)
(0.229934 0.02818 -3.96591e-19)
(0.274062 0.027168 4.5328e-19)
(0.320282 0.0267612 -1.88211e-19)
(0.368208 0.0270575 4.06811e-19)
(0.41743 0.0281628 -1.90922e-20)
(0.467517 0.0302054 -8.41957e-20)
(0.518034 0.0333578 -1.46145e-20)
(0.568555 0.0378656 3.17123e-19)
(0.618684 0.0441197 -3.06719e-19)
(0.668242 0.0530736 2.16905e-19)
(0.717504 0.0669799 2.35254e-19)
(0.761246 0.0832352 4.64364e-20)
(-0.0103596 0.00942695 6.21356e-20)
(-0.0226324 0.0219224 -3.37918e-19)
(-0.0270379 0.0299984 -1.22648e-19)
(-0.0243818 0.0347207 1.12105e-19)
(-0.0153272 0.036985 -3.44748e-19)
(-0.000435594 0.0375169 -6.79181e-20)
(0.0198118 0.0368844 4.7171e-20)
(0.0450045 0.0355341 1.86525e-19)
(0.0747832 0.0338188 -4.71938e-19)
(0.108818 0.0320174 3.59702e-20)
(0.146786 0.0303512 -1.38083e-19)
(0.18836 0.0289959 -4.20226e-19)
(0.233187 0.0280912 2.8633e-19)
(0.280885 0.0277489 1.24197e-20)
(0.331039 0.0280592 -8.77921e-21)
(0.383201 0.0290968 2.89235e-19)
(0.436897 0.0309273 -5.1059e-19)
(0.491645 0.0336132 4.04052e-19)
(0.546963 0.0372216 -7.50637e-20)
(0.602406 0.0418316 2.32927e-19)
(0.657587 0.0475388 -3.84045e-19)
(0.712222 0.05447 2.1785e-19)
(0.766292 0.0629671 -3.86076e-19)
(0.820236 0.0738805 3.91707e-19)
(0.868892 0.0840921 -1.24498e-19)
(-0.0103398 0.00885703 4.16358e-19)
(-0.0216741 0.0201452 -6.76398e-20)
(-0.0243 0.0271748 4.99266e-19)
(-0.0191357 0.0310487 2.31053e-19)
(-0.00691622 0.0326903 1.86399e-20)
(0.0117429 0.0328413 1.00783e-19)
(0.0363116 0.0320745 2.43486e-20)
(0.0663287 0.0308344 4.1084e-19)
(0.101377 0.0294677 1.3241e-19)
(0.141057 0.0282438 -1.78316e-20)
(0.184964 0.0273706 3.55102e-20)
(0.23267 0.0270065 1.36957e-19)
(0.283713 0.0272688 1.14447e-19)
(0.337591 0.028241 2.45156e-19)
(0.393763 0.0299786 -2.79324e-19)
(0.451658 0.032514 8.42174e-20)
(0.510688 0.0358611 2.59611e-20)
(0.570267 0.0400192 1.24466e-19)
(0.62983 0.0449757 3.35161e-19)
(0.688865 0.0507068 -2.19845e-19)
(0.746933 0.0571721 1.75632e-20)
(0.803691 0.0643039 -3.03614e-19)
(0.858959 0.0720857 2.84037e-19)
(0.912861 0.0809065 -2.69334e-19)
(0.961127 0.089111 2.91435e-20)
(-0.0102026 0.00823623 -3.4708e-19)
(-0.0202633 0.0182348 2.65192e-19)
(-0.0206918 0.0241846 -4.31255e-19)
(-0.0125406 0.0272178 3.71589e-20)
(0.00336965 0.0282816 3.0326e-19)
(0.0263569 0.0281322 -5.05048e-19)
(0.0558267 0.0273443 4.00738e-19)
(0.0912477 0.0263566 -6.35849e-19)
(0.13212 0.0255045 1.26678e-19)
(0.177946 0.0250413 2.71686e-20)
(0.228204 0.0251528 2.14067e-19)
(0.282333 0.0259693 -7.11048e-19)
(0.339725 0.0275734 1.22824e-19)
(0.399724 0.0300072 1.30098e-19)
(0.461636 0.0332778 -7.79038e-20)
(0.524745 0.0373622 -4.82685e-19)
(0.58833 0.0422124 2.27528e-19)
(0.651691 0.047759 4.23292e-19)
(0.714176 0.0539132 -4.44586e-19)
(0.7752 0.0605674 3.21159e-19)
(0.83427 0.0675904 -4.12125e-19)
(0.890987 0.0748168 2.98429e-19)
(0.945069 0.0820891 -8.0326e-20)
(0.996462 0.0896477 4.58462e-19)
(1.04204 0.0970298 -5.15048e-19)
(-0.00991966 0.00755968 4.95308e-20)
(-0.0183173 0.016193 3.91424e-20)
(-0.0160783 0.0210512 9.55394e-20)
(-0.00441218 0.0232811 3.41346e-19)
(0.0157584 0.0238474 -1.07576e-20)
(0.0436675 0.0235171 7.61722e-20)
(0.0786348 0.0228618 3.39557e-19)
(0.120032 0.0223086 1.37092e-19)
(0.167245 0.0221744 -4.52405e-20)
(0.21964 0.0226867 3.84788e-19)
(0.27654 0.0239982 -4.38413e-19)
(0.337213 0.0261981 6.72731e-19)
(0.400869 0.029321 -2.67002e-19)
(0.466671 0.0333539 4.84206e-19)
(0.533752 0.0382438 -1.63548e-19)
(0.601242 0.0439037 5.9561e-20)
(0.668291 0.0502199 7.20565e-20)
(0.734105 0.0570575 -1.37983e-19)
(0.797965 0.0642648 1.1587e-19)
(0.859256 0.0716765 7.43295e-20)
(0.917476 0.0791136 1.01368e-19)
(0.972239 0.0863794 2.11523e-19)
(1.02327 0.0932823 -1.97228e-20)
(1.07049 0.0999873 -9.61391e-20)
(1.11192 0.106857 2.78269e-19)
(-0.00945799 0.00682292 -2.89592e-19)
(-0.0157448 0.0140239 3.0576e-20)
(-0.0103158 0.017802 -5.49903e-19)
(0.00543873 0.0192981 -1.31227e-19)
(0.0304739 0.0194848 -2.45891e-19)
(0.0639175 0.0191328 -5.2649e-20)
(0.104975 0.0188039 -2.63375e-19)
(0.152886 0.0189048 -1.5757e-19)
(0.206882 0.0197235 2.08614e-19)
(0.266153 0.021449 -3.4827e-19)
(0.329822 0.0241869 -9.67776e-20)
(0.396947 0.0279708 3.89031e-21)
(0.466529 0.0327722 -6.54208e-19)
(0.537532 0.0385106 2.77983e-19)
(0.608914 0.0450633 -4.0527e-19)
(0.679663 0.0522752 -1.24797e-20)
(0.748831 0.0599684 7.91805e-20)
(0.815571 0.0679519 -1.29094e-19)
(0.879156 0.0760286 -1.12822e-19)
(0.939001 0.0840015 5.52119e-20)
(0.994669 0.0916778 6.107e-20)
(1.04587 0.0988691 -3.9663e-19)
(1.09242 0.105403 2.25582e-19)
(1.13435 0.111406 1.10563e-19)
(1.17061 0.117721 2.71986e-20)
(-0.00878064 0.00602299 2.95913e-19)
(-0.0124475 0.0117364 -3.15405e-19)
(-0.00325549 0.0144715 4.42548e-19)
(0.0171995 0.0153373 6.90869e-20)
(0.0477267 0.0153001 -2.11198e-20)
(0.0873183 0.0151255 -1.48688e-19)
(0.135029 0.0153544 2.23528e-20)
(0.189926 0.0163614 2.26481e-19)
(0.251039 0.0183909 -3.12525e-19)
(0.317333 0.0215783 3.28441e-19)
(0.387692 0.0259647 -3.47609e-20)
(0.460934 0.0315116 1.54326e-20)
(0.535831 0.0381131 4.26856e-19)
(0.611149 0.0456104 5.71474e-19)
(0.685691 0.0538055 -2.23716e-19)
(0.758344 0.0624755 3.95484e-19)
(0.828115 0.0713866 1.99431e-19)
(0.894169 0.0803056 -1.22505e-19)
(0.955843 0.0890106 3.84248e-19)
(1.01266 0.0972979 -1.63081e-20)
(1.06433 0.104987 -3.65724e-19)
(1.11072 0.111924 3.82562e-19)
(1.15182 0.117979 5.31081e-20)
(1.18783 0.123269 -2.32828e-19)
(1.21837 0.128866 7.30616e-20)
(-0.00784765 0.00515959 -4.11191e-19)
(-0.00832302 0.00934603 4.2984e-19)
(0.00525161 0.011104 -2.72611e-19)
(0.0310491 0.0114782 -8.48952e-20)
(0.0677043 0.0114116 -1.90584e-19)
(0.114038 0.0116511 3.37173e-19)
(0.168911 0.0127027 -1.95752e-19)
(0.231166 0.0148921 -8.97939e-20)
(0.299582 0.0184026 -2.57005e-19)
(0.372853 0.0232961 6.64091e-21)
(0.44959 0.0295307 -1.0064e-19)
(0.528348 0.0369785 4.8875e-20)
(0.607677 0.0454437 -5.14985e-19)
(0.686167 0.0546821 1.46773e-19)
(0.762513 0.0644205 -1.76651e-19)
(0.835561 0.0743756 -1.41633e-19)
(0.904352 0.0842712 4.33656e-20)
(0.968141 0.093852 -2.05536e-19)
(1.02641 0.102894 -8.69791e-20)
(1.07887 0.11121 2.52168e-19)
(1.12543 0.118656 1.0511e-19)
(1.16616 0.125125 -4.47711e-19)
(1.20129 0.130547 3.26672e-19)
(1.23116 0.135055 -6.15893e-20)
(1.25591 0.139756 -1.25151e-19)
(-0.00661714 0.00423607 -1.49481e-19)
(-0.00326727 0.00687757 -7.99498e-20)
(0.0153504 0.00775596 -1.58522e-20)
(0.0471515 0.00781437 1.17365e-19)
(0.0905624 0.00795066 1.27541e-19)
(0.144189 0.00887576 1.10991e-19)
(0.206647 0.0110416 1.3826e-19)
(0.2765 0.0147045 2.11005e-19)
(0.352226 0.0199642 3.22673e-19)
(0.432207 0.026787 3.19169e-19)
(0.514757 0.0350282 1.68534e-19)
(0.598173 0.0444552 -4.5367e-20)
(0.680804 0.0547737 1.12221e-20)
(0.761119 0.0656531 -1.48699e-20)
(0.837774 0.0767524 1.3309e-19)
(0.909661 0.0877428 -3.4679e-20)
(0.975937 0.0983261 3.90886e-19)
(1.03604 0.108248 -1.75818e-19)
(1.08966 0.117308 2.33848e-21)