/*--------------------------------*- C++ -*----------------------------------*\
  =========                 |
  \\      /  F ield         | OpenFOAM: The Open Source CFD Toolbox
   \\    /   O peration     | Website:  https://openfoam.org
    \\  /    A nd           | Version:  6.0
     \\/     M anipulation  |
\*---------------------------------------------------------------------------*/
FoamFile
{
    version     2.0;
    format      ascii;
    class       surfaceScalarField;
    location    "38";
    object      phi;
}
// * * * * * * * * * * * * * * * * * * * * * * * * * * * * * * * * * * * * * //

dimensions      [0 3 -1 0 0 0 0];

internalField   nonuniform List<scalar> 
24700
(
-1.28049e-06
5.81339e-08
1.22235e-06
-4.65716e-06
2.91473e-07
3.0852e-06
-9.73237e-06
5.75983e-07
4.49922e-06
-1.61587e-05
8.68967e-07
5.5574e-06
-2.36379e-05
1.14327e-06
6.33585e-06
-3.19178e-05
1.38214e-06
6.89782e-06
-4.07901e-05
1.57683e-06
7.29545e-06
-5.0086e-05
1.72472e-06
7.57121e-06
-5.96733e-05
1.82794e-06
7.75934e-06
-6.94525e-05
1.89222e-06
7.88703e-06
-7.9354e-05
1.92598e-06
7.9755e-06
-8.93345e-05
1.93955e-06
8.04095e-06
-9.93745e-05
1.94449e-06
8.09546e-06
-0.000109475
1.95296e-06
8.14768e-06
-0.000119656
1.97718e-06
8.20349e-06
-0.000129951
2.02896e-06
8.26659e-06
-0.00014041
2.11928e-06
8.33887e-06
-0.000151088
2.25795e-06
8.42087e-06
-0.000162054
2.45335e-06
8.51199e-06
-0.000173377
2.71226e-06
8.6108e-06
-0.000185132
3.0398e-06
8.71519e-06
-0.000197394
3.43922e-06
8.8226e-06
-0.000210236
3.91201e-06
8.93002e-06
-0.000223728
4.45889e-06
9.03391e-06
5.08159e-06
9.13049e-06
-0.00023794
-1.28709e-06
1.34522e-06
-4.67834e-06
3.68273e-06
-9.7719e-06
5.66954e-06
-1.6217e-05
7.3141e-06
-2.37126e-05
8.63886e-06
-3.20045e-05
9.67406e-06
-4.08823e-05
1.04546e-05
-5.01756e-05
1.1018e-05
-5.97504e-05
1.14027e-05
-6.95057e-05
1.16475e-05
-7.93701e-05
1.17904e-05
-8.92989e-05
1.18684e-05
-9.92711e-05
1.19166e-05
-0.000109286
1.19683e-05
-0.000119363
1.20539e-05
-0.000129535
1.22009e-05
-0.000139849
1.24337e-05
-0.000150364
1.27725e-05
-0.000161145
1.32341e-05
-0.000172264
1.38309e-05
-0.000183795
1.45715e-05
-0.000195816
1.54599e-05
-0.0002084
1.64966e-05
-0.000221621
1.76795e-05
1.90083e-05
-0.000235548
-1.293e-06
2.63823e-06
-4.69588e-06
7.0856e-06
-9.80149e-06
1.07752e-05
-1.62547e-05
1.37673e-05
-2.37507e-05
1.61349e-05
-3.20321e-05
1.79555e-05
-4.08854e-05
1.93079e-05
-5.01373e-05
2.02698e-05
-5.96507e-05
2.09161e-05
-6.93217e-05
2.13184e-05
-7.90756e-05
2.15444e-05
-8.88647e-05
2.16575e-05
-9.86647e-05
2.17167e-05
-0.000108473
2.17763e-05
-0.000118305
2.18856e-05
-0.000128192
2.20884e-05
-0.000138181
2.24226e-05
-0.000148329
2.29203e-05
-0.000158702
2.3607e-05
-0.000169372
2.45019e-05
-0.000180419
2.56175e-05
-0.000191918
2.69599e-05
-0.00020395
2.85286e-05
-0.00021659
3.03194e-05
3.23299e-05
-0.000229912
-1.29837e-06
3.9366e-06
-4.71012e-06
1.04974e-05
-9.8218e-06
1.58868e-05
-1.62729e-05
2.02184e-05
-2.3754e-05
2.36159e-05
-3.20034e-05
2.62049e-05
-4.08038e-05
2.81083e-05
-4.99776e-05
2.94437e-05
-5.93838e-05
3.03223e-05
-6.89137e-05
3.08484e-05
-7.84883e-05
3.1119e-05
-8.80548e-05
3.1224e-05
-9.75845e-05
3.12464e-05
-0.00010707
3.12618e-05
-0.000116523
3.13387e-05
-0.000125973
3.15379e-05
-0.000135462
3.19122e-05
-0.000145048
3.25063e-05
-0.000154797
3.33561e-05
-0.000164784
3.44888e-05
-0.000175089
3.59223e-05
-0.000185795
3.76657e-05
-0.000196985
3.97189e-05
-0.000208742
4.20761e-05
4.47334e-05
-0.000221145
-1.30338e-06
5.23998e-06
-4.72156e-06
1.39155e-05
-9.83367e-06
2.09989e-05
-1.62729e-05
2.66577e-05
-2.37245e-05
3.10675e-05
-3.1922e-05
3.44024e-05
-4.0643e-05
3.68293e-05
-4.97052e-05
3.85059e-05
-5.89622e-05
3.95792e-05
-6.82996e-05
4.01858e-05
-7.76323e-05
4.04516e-05
-8.69012e-05
4.04929e-05
-9.60711e-05
4.04163e-05
-0.000105129
4.03193e-05
-0.00011408
4.029e-05
-0.000122949
4.04071e-05
-0.000131777
4.07399e-05
-0.000140617
4.13469e-05
-0.000149538
4.22765e-05
-0.000158615
4.35656e-05
-0.000167932
4.52398e-05
-0.000177579
4.7313e-05
-0.000187647
4.97869e-05
-0.000198227
5.26555e-05
5.59138e-05
-0.000209407
-1.30821e-06
6.54818e-06
-4.73057e-06
1.73379e-05
-9.83768e-06
2.61061e-05
-1.62558e-05
3.30758e-05
-2.36641e-05
3.84759e-05
-3.17908e-05
4.25291e-05
-4.04082e-05
4.54467e-05
-4.93284e-05
4.74261e-05
-5.83988e-05
4.86496e-05
-6.74982e-05
4.92852e-05
-7.65341e-05
4.94875e-05
-8.54395e-05
4.93983e-05
-9.41711e-05
4.9148e-05
-0.000102707
4.88556e-05
-0.000111047
4.86298e-05
-0.000119209
4.85683e-05
-0.000127227
4.87578e-05
-0.000135153
4.92732e-05
-0.000143054
5.01774e-05
-0.000151008
5.15198e-05
-0.000159104
5.33363e-05
-0.00016744
5.56483e-05
-0.000176115
5.8462e-05
-0.000185232
6.1773e-05
6.55764e-05
-0.000194895
-1.31294e-06
7.86112e-06
-4.73718e-06
2.07621e-05
-9.8337e-06
3.12026e-05
-1.62212e-05
3.94633e-05
-2.35726e-05
4.58273e-05
-3.16105e-05
5.0567e-05
-4.01017e-05
5.39379e-05
-4.88522e-05
5.61766e-05
-5.77028e-05
5.75001e-05
-6.65248e-05
5.81072e-05
-7.5217e-05
5.81797e-05
-8.37032e-05
5.78846e-05
-9.19303e-05
5.7375e-05
-9.98667e-05
5.6792e-05
-0.000107502
5.62647e-05
-0.000114844
5.59107e-05
-0.000121922
5.58361e-05
-0.000128783
5.61344e-05
-0.000135492
5.68856e-05
-0.000142127
5.81553e-05
-0.000148784
5.99933e-05
-0.000155568
6.24321e-05
-0.000162592
6.54859e-05
-0.000169974
6.91551e-05
7.3437e-05
-0.000177835
-1.31749e-06
9.17861e-06
-4.74081e-06
2.41855e-05
-9.82027e-06
3.6282e-05
-1.61666e-05
4.58096e-05
-2.34466e-05
5.31072e-05
-3.13772e-05
5.84975e-05
-3.97198e-05
6.22805e-05
-4.82745e-05
6.47314e-05
-5.68753e-05
6.61009e-05
-6.53854e-05
6.66173e-05
-7.36944e-05
6.64887e-05
-8.17155e-05
6.59057e-05
-8.9384e-05
6.50436e-05
-9.66564e-05
6.40644e-05
-0.00010351
6.3118e-05
-0.000109942
6.23428e-05
-0.000115971
6.18654e-05
-0.000121637
6.18004e-05
-0.000127
6.22487e-05
-0.000132141
6.32957e-05
-0.000137157
6.50099e-05
-0.000142165
6.74402e-05
-0.000147293
7.06136e-05
-0.000152678
7.454e-05
7.92227e-05
-0.000158464
-1.32151e-06
1.05001e-05
-4.73997e-06
2.76039e-05
-9.79414e-06
4.13362e-05
-1.60866e-05
5.21021e-05
-2.32781e-05
6.02987e-05
-3.10805e-05
6.63e-05
-3.92505e-05
7.04505e-05
-4.75825e-05
7.30635e-05
-5.59041e-05
7.44224e-05
-6.40704e-05
7.47837e-05
-7.19615e-05
7.43798e-05
-7.94792e-05
7.34234e-05
-8.65461e-05
7.21104e-05
-9.31045e-05
7.06228e-05
-9.91169e-05
6.91304e-05
-0.000104567
6.77926e-05
-0.000109459
6.67581e-05
-0.000113823
6.61645e-05
-0.000117712
6.61372e-05
-0.000121203
6.67866e-05
-0.000124399
6.82056e-05
-0.000127424
7.04659e-05
-0.000130426
7.36147e-05
-0.000133564
7.76781e-05
8.26709e-05
-0.000137012
-1.32434e-06
1.18245e-05
-4.73211e-06
3.10117e-05
-9.74972e-06
4.63538e-05
-1.59717e-05
5.83241e-05
-2.30532e-05
6.73802e-05
-3.07019e-05
7.39486e-05
-3.86702e-05
7.84188e-05
-4.67485e-05
8.11417e-05
-5.47582e-05
8.24322e-05
-6.25474e-05
8.25729e-05
-6.99867e-05
8.1819e-05
-7.69664e-05
8.04031e-05
-8.33953e-05
7.85394e-05
-8.92004e-05
7.64278e-05
-9.4327e-05
7.42571e-05
-9.8741e-05
7.22066e-05
-0.000102431
7.04478e-05
-0.00010541
6.91435e-05
-0.000107719
6.84468e-05
-0.000109431
6.84982e-05
-0.000110648
6.94223e-05
-0.000111504
7.13222e-05
-0.000112164
7.42743e-05
-0.000112817
7.83311e-05
8.35282e-05
-0.000113674
-1.32498e-06
1.31494e-05
-4.71343e-06
3.44002e-05
-9.67888e-06
5.13193e-05
-1.5808e-05
6.44533e-05
-2.2751e-05
7.43232e-05
-3.02123e-05
8.141e-05
-3.79417e-05
8.61482e-05
-4.57262e-05
8.89262e-05
-5.3383e-05
9.0089e-05
-6.07542e-05
8.99441e-05
-6.77019e-05
8.87668e-05
-7.41058e-05
8.68069e-05
-7.98608e-05
8.42944e-05
-8.48773e-05
8.14444e-05
-8.90821e-05
7.84619e-05
-9.24204e-05
7.55449e-05
-9.48592e-05
7.28867e-05
-9.63919e-05
7.06761e-05
-9.70423e-05
6.90972e-05
-9.68699e-05
6.83258e-05
-9.59736e-05
6.8526e-05
-9.44939e-05
6.98425e-05
-9.26133e-05
7.23937e-05
-9.05545e-05
7.62723e-05
8.15487e-05
-8.8575e-05
-1.32203e-06
1.44715e-05
-4.67888e-06
3.7757e-05
-9.5708e-06
5.62112e-05
-1.55769e-05
7.04594e-05
-2.23432e-05
8.10895e-05
-2.9572e-05
8.86388e-05
-3.70118e-05
9.3588e-05
-4.44481e-05
9.63624e-05
-5.16957e-05
9.73366e-05
-5.85925e-05
9.68409e-05
-6.49943e-05
9.51686e-05
-7.07713e-05
9.25839e-05
-7.5806e-05
8.93291e-05
-7.99926e-05
8.5631e-05
-8.32382e-05
8.17075e-05
-8.54652e-05
7.77719e-05
-8.66155e-05
7.4037e-05
-8.66568e-05
7.07174e-05
-8.55889e-05
6.80292e-05
-8.34515e-05
6.61885e-05
-8.0332e-05
6.54065e-05
-7.63715e-05
6.5882e-05
-7.17686e-05
6.77908e-05
-6.67815e-05
7.12852e-05
7.64913e-05
-6.1724e-05
-1.31383e-06
1.57853e-05
-4.6223e-06
4.10655e-05
-9.41219e-06
6.10011e-05
-1.52553e-05
7.63024e-05
-2.17941e-05
8.76283e-05
-2.87299e-05
9.55746e-05
-3.58111e-05
0.000100669
-4.28238e-05
0.000103375
-4.95824e-05
0.000104095
-5.59232e-05
0.000103182
-6.16983e-05
0.000100944
-6.67712e-05
9.76569e-05
-7.10144e-05
9.35723e-05
-7.43078e-05
8.89244e-05
-7.65396e-05
8.39393e-05
-7.76087e-05
7.8841e-05
-7.74296e-05
7.38579e-05
-7.59391e-05
6.92269e-05
-7.31056e-05
6.51957e-05
-6.89401e-05
6.2023e-05
-6.35083e-05
5.99748e-05
-5.69426e-05
5.93162e-05
-4.94517e-05
6.02999e-05
-4.13291e-05
6.31627e-05
6.8117e-05
-3.29549e-05
-1.29845e-06
1.70837e-05
-4.53671e-06
4.43037e-05
-9.18785e-06
6.56522e-05
-1.48164e-05
8.1931e-05
-2.10617e-05
9.38736e-05
-2.76246e-05
0.000102137
-3.42549e-05
0.0001073
-4.07404e-05
0.000109861
-4.68978e-05
0.000110253
-5.25643e-05
0.000108848
-5.75916e-05
0.000105971
-6.18405e-05
0.000101906
-6.51771e-05
9.69089e-05
-6.7471e-05
9.12183e-05
-6.85947e-05
8.50629e-05
-6.84255e-05
7.86717e-05
-6.68499e-05
7.22823e-05
-6.37711e-05
6.61481e-05
-5.91198e-05
6.05444e-05
-5.28683e-05
5.57715e-05
-4.50481e-05
5.21546e-05
-3.57692e-05
5.00372e-05
-2.5239e-05
4.97697e-05
-1.37817e-05
5.17054e-05
5.6186e-05
-1.8507e-06
-1.27392e-06
1.83577e-05
-4.41473e-06
4.74445e-05
-8.88145e-06
7.01189e-05
-1.42309e-05
8.72804e-05
-2.00992e-05
9.97419e-05
-2.61868e-05
0.000108225
-3.22452e-05
0.000113358
-3.80653e-05
0.000115681
-4.34676e-05
0.000115655
-4.82929e-05
0.000113674
-5.23959e-05
0.000110074
-5.5639e-05
0.000105149
-5.78873e-05
9.91573e-05
-5.90059e-05
9.23369e-05
-5.88575e-05
8.49145e-05
-5.7303e-05
7.71173e-05
-5.4205e-05
6.91843e-05
-4.94336e-05
6.13768e-05
-4.28784e-05
5.39892e-05
-3.44646e-05
4.73576e-05
-2.41757e-05
4.18657e-05
-1.20816e-05
3.79432e-05
1.62972e-06
3.60584e-05
1.66162e-05
3.67189e-05
4.04537e-05
3.23485e-05
-1.23836e-06
1.9596e-05
-4.24915e-06
5.04553e-05
-8.47665e-06
7.43464e-05
-1.3469e-05
9.22728e-05
-1.88578e-05
0.000105131
-2.43423e-05
0.00011371
-2.96755e-05
0.000118691
-3.46512e-05
0.000120657
-3.90943e-05
0.000120098
-4.28512e-05
0.00011743
-4.57825e-05
0.000113005
-4.77564e-05
0.000107123
-4.86431e-05
0.000100044
-4.83103e-05
9.20041e-05
-4.66199e-05
8.3224e-05
-4.34259e-05
7.39233e-05
-3.85754e-05
6.43338e-05
-3.19129e-05
5.47142e-05
-2.32892e-05
4.53655e-05
-1.25789e-05
3.66473e-05
2.94228e-07
2.89926e-05
1.53204e-05
2.2917e-05
3.23567e-05
1.90221e-05
5.10674e-05
1.80082e-05
2.06662e-05
7.08549e-05
-1.19017e-06
2.07862e-05
-4.03352e-06
5.32987e-05
-7.9582e-06
7.82711e-05
-1.25017e-05
9.68163e-05
-1.72891e-05
0.000109918
-2.20165e-05
0.000118437
-2.64361e-05
0.000123111
-3.03436e-05
0.000124564
-3.35672e-05
0.000123322
-3.59589e-05
0.000119822
-3.73867e-05
0.000114433
-3.7728e-05
0.000107464
-3.68633e-05
9.91792e-05
-3.4671e-05
8.98119e-05
-3.10227e-05
7.95758e-05
-2.57789e-05
6.86795e-05
-1.87862e-05
5.73412e-05
-9.87815e-06
4.58061e-05
1.12036e-06
3.4367e-05
1.43795e-05
2.33882e-05
3.00393e-05
1.33328e-05
4.81677e-05
4.78862e-06
6.86984e-05
-1.50868e-06
9.13401e-05
-4.63347e-06
-3.44657e-06
0.000115453
-1.12824e-06
2.19144e-05
-3.76268e-06
5.59331e-05
-7.3131e-06
8.18215e-05
-1.13033e-05
0.000100806
-1.53487e-05
0.000113963
-1.91385e-05
0.000122227
-2.24209e-05
0.000126393
-2.49897e-05
0.000127133
-2.66738e-05
0.000125006
-2.73284e-05
0.000120477
-2.68279e-05
0.000113933
-2.50593e-05
0.000105695
-2.1917e-05
9.60369e-05
-1.72968e-05
8.51916e-05
-1.10906e-05
7.33696e-05
-3.1806e-06
6.07695e-05
6.56656e-06
4.7594e-05
1.83045e-05
3.40682e-05
3.22091e-05
2.04625e-05
4.84731e-05
7.12411e-06
6.72888e-05
-5.48286e-06
8.88077e-05
-1.67303e-05
0.000113071
-2.57715e-05
0.000139884
-3.14467e-05
-3.2182e-05
0.000168619
-1.052e-06
2.29664e-05
-3.43312e-06
5.83142e-05
-6.53131e-06
8.49197e-05
-9.85261e-06
0.000104128
-1.2998e-05
0.000117109
-1.56452e-05
0.000124874
-1.75329e-05
0.000128281
-1.84476e-05
0.000128048
-1.82134e-05
0.000124771
-1.66837e-05
0.000118947
-1.37345e-05
0.000110983
-9.25976e-06
0.000101221
-3.16677e-06
8.99439e-05
4.62842e-06
7.73964e-05
1.42057e-05
6.37923e-05
2.56469e-05
4.93283e-05
3.90432e-05
3.41977e-05
5.45045e-05
1.86069e-05
7.21684e-05
2.79853e-06
9.22081e-05
-1.29156e-05
0.000114829
-2.81042e-05
0.000140248
-4.21484e-05
0.000168624
-5.41479e-05
0.000199925
-6.27474e-05
-6.58864e-05
0.000233629
-9.61491e-07
2.39279e-05
-3.04302e-06
6.03958e-05
-5.60595e-06
8.74827e-05
-8.13325e-06
0.000106655
-1.02058e-05
0.000119181
-1.14835e-05
0.000126152
-1.16887e-05
0.000128486
-1.05934e-05
0.000126952
-8.00863e-06
0.000122187
-3.77759e-06
0.000114716
2.22991e-06
0.000104976
1.01208e-05
9.33298e-05
1.99811e-05
8.00836e-05
3.1878e-05
6.54995e-05
4.58622e-05
4.98081e-05
6.19713e-05
3.32192e-05
8.02363e-05
1.59327e-05
0.000100691
-1.84812e-06
0.000123389
-1.98987e-05
0.000148418
-3.79447e-05
0.000175925
-5.56118e-05
0.000206124
-7.23469e-05
0.000239266
-8.72902e-05
0.000275526
-9.90074e-05
-0.000104991
0.000314631
-8.57211e-07
2.47851e-05
-2.59196e-06
6.21305e-05
-4.53279e-06
8.94235e-05
-6.13332e-06
0.000108256
-6.94767e-06
0.000119996
-6.61052e-06
0.000125815
-4.82e-06
0.000126696
-1.32431e-06
0.000123456
4.08814e-06
0.000116774
1.15953e-05
0.000107209
2.13455e-05
9.52258e-05
3.34586e-05
8.12167e-05
4.80263e-05
6.55158e-05
6.51106e-05
4.84152e-05
8.47417e-05
3.0177e-05
0.000106917
1.10439e-05
0.000131602
-8.75189e-06
0.000158733
-2.89797e-05
0.000188235
-4.94003e-05
0.000220039
-6.97485e-05
0.000254125
-8.96986e-05
0.000290574
-0.000108796
0.000329614
-0.00012633
0.000371609
-0.000141003
-0.000150059
0.000416677
-7.39892e-07
2.5525e-05
-2.08012e-06
6.34708e-05
-3.30888e-06
9.06523e-05
-3.8433e-06
0.00010879
-3.20341e-06
0.000119356
-9.90783e-07
0.000123602
3.12949e-06
0.000122575
9.44267e-06
0.000117143
1.81941e-05
0.000108023
2.9595e-05
9.58078e-05
4.38256e-05
8.09952e-05
6.10345e-05
6.40078e-05
8.13364e-05
4.52139e-05
0.000104807
2.49445e-05
0.000131477
3.5071e-06
0.000161323
-1.88021e-05
0.00019426
-4.1689e-05
0.000230135
-6.48546e-05
0.000268725
-8.79901e-05
0.000309749
-0.000110773
0.000352905
-0.000132855
0.000397946
-0.000153836
0.000444816
-0.0001732
0.000493854
-0.00019004
-0.000201893
0.000545687
-6.10135e-07
2.61352e-05
-1.50725e-06
6.43679e-05
-1.93054e-06
9.10755e-05
-1.25293e-06
0.000108112
1.04722e-06
0.000117056
5.40947e-06
0.00011924
1.22105e-05
0.000115774
2.17786e-05
0.000107575
3.44034e-05
9.5398e-05
5.03417e-05
7.98695e-05
6.9819e-05
6.15178e-05
9.30288e-05
4.07979e-05
0.000120128
1.81146e-05
0.000151231
-6.158e-06
0.000186396
-3.16584e-05
0.000225617
-5.8023e-05
0.000268801
-8.48727e-05
0.000315748
-0.000111801
0.000366125
-0.000138368
0.000419446
-0.000164093
0.000475059
-0.000188468
0.00053219
-0.000210967
0.00059009
-0.0002311
0.000648471
-0.000248421
-0.000262215
0.000708793
-4.67975e-07
2.66031e-05
-8.71347e-07
6.47712e-05
-3.90832e-07
9.0595e-05
1.65268e-06
0.000106069
5.83006e-06
0.000112878
1.26296e-05
0.00011244
2.24777e-05
0.000105926
3.57539e-05
9.4299e-05
5.28009e-05
7.83509e-05
7.39303e-05
5.87401e-05
9.94237e-05
3.60244e-05
0.000129532
1.06897e-05
0.000164471
-1.68241e-05
0.000204413
-4.61006e-05
0.000249481
-7.67264e-05
0.00029973
-0.000108272
0.000355127
-0.00014027
0.000415523
-0.000172197
0.000480603
-0.000203447
0.000549812
-0.000233303
0.000622266
-0.000260922
0.000696635
-0.000285336
0.000771078
-0.000305543
0.000843643
-0.000320986
-0.00033527
0.000916698
-3.12458e-07
2.69156e-05
-1.67344e-07
6.46261e-05
1.32282e-06
8.91049e-05
4.89695e-06
0.000102495
1.11822e-05
0.000106593
2.07222e-05
0.0001029
3.39995e-05
9.26489e-05
5.14508e-05
7.68478e-05
7.34769e-05
5.63247e-05
0.000100448
3.17687e-05
0.000132707
3.76617e-06
0.000170563
-2.7167e-05
0.000214298
-6.05586e-05
0.000264154
-9.59566e-05
0.000320335
-0.000132908
0.000383002
-0.000170938
0.000452262
-0.00020953
0.000528164
-0.0002481
0.000610674
-0.000285957
0.000699622
-0.000322251
0.000794592
-0.000355892
0.00089467
-0.000385415
0.000997742
-0.000408614
0.00109861
-0.000421859
-0.000421228
0.00118457
-1.41784e-07
2.70574e-05
6.13072e-07
6.38713e-05
3.22968e-06
8.64883e-05
8.51388e-06
9.72106e-05
1.71553e-05
9.79517e-05
2.97583e-05
9.0297e-05
4.68654e-05
7.55418e-05
6.89727e-05
5.47405e-05
9.65391e-05
2.87583e-05
0.000129991
-1.68278e-06
0.000169721
-3.59643e-05
0.000216092
-7.35376e-05
0.00026943
-0.000113897
0.000330031
-0.000156557
0.000398159
-0.000201036
0.000474063
-0.000246842
0.000557993
-0.00029346
0.00065024
-0.000340347
0.000751207
-0.000386924
0.000861531
-0.000432575
0.000982295
-0.000476656
0.00111538
-0.000518503
0.00126431
-0.000557544
0.00143671
-0.000594251
-0.000634227
0.0016497
4.86748e-08
2.70087e-05
1.48507e-06
6.24349e-05
5.36026e-06
8.26131e-05
1.25533e-05
9.00175e-05
2.38213e-05
8.66838e-05
3.98326e-05
7.42857e-05
6.11908e-05
5.41835e-05
8.84491e-05
2.74822e-05
0.000122117
-4.90993e-06
0.000162664
-4.22296e-05
0.000210516
-8.3816e-05
0.000266054
-0.000129076
0.000329613
-0.000177456
0.000401483
-0.000228427
0.000481914
-0.000281467
0.000571131
-0.000336059
0.000669361
-0.00039169
0.000776874
-0.00044786
0.00089405
-0.0005041
0.00102148
-0.000560003
0.0011601
-0.000615274
0.00131138
-0.000669791
0.00147756
-0.000723719
0.00166113
-0.00077782
-0.000832127
0.00185903
2.63712e-07
2.6745e-05
2.46598e-06
6.02326e-05
7.75042e-06
7.73286e-05
1.70741e-05
8.06938e-05
3.12647e-05
7.24932e-05
5.10554e-05
5.4495e-05
7.71079e-05
2.8131e-05
0.000110024
-5.43433e-06
0.000150351
-4.52368e-05
0.000198577
-9.04553e-05
0.000255127
-0.000140366
0.000320358
-0.000194307
0.000394554
-0.000251652
0.000477922
-0.000311795
0.000570601
-0.000374146
0.000672665
-0.000438124
0.000784151
-0.000503176
0.000905077
-0.000568785
0.00103548
-0.000634503
0.00117546
-0.00069998
0.0013252
-0.000765013
0.00148499
-0.00082958
0.00165511
-0.000893842
0.00183525
-0.000957959
-0.00101904
0.00202216
5.09853e-07
2.62352e-05
3.5775e-06
5.7165e-05
1.04433e-05
7.04629e-05
2.21449e-05
6.89922e-05
3.95812e-05
5.50569e-05
6.35475e-05
3.05288e-05
9.47556e-05
-3.07712e-06
0.000133842
-4.45208e-05
0.000181366
-9.27608e-05
0.000237803
-0.000146892
0.000303532
-0.000206095
0.000378828
-0.000269604
0.000463854
-0.000336678
0.000558654
-0.000406595
0.000663155
-0.000478647
0.000777178
-0.000552146
0.000900445
-0.000626443
0.0010326
-0.00070094
0.00117322
-0.000775124
0.00132183
-0.000848591
0.00147789
-0.000921074
0.00164076
-0.000992454
0.00180963
-0.00106271
0.00198324
-0.00113157
-0.00119513
0.00215933
7.94428e-07
2.54407e-05
4.84348e-06
5.31159e-05
1.3485e-05
6.18213e-05
2.78374e-05
5.46398e-05
4.88676e-05
3.40267e-05
7.74254e-05
1.97097e-06
0.000114259
-3.99104e-05
0.000160015
-9.0277e-05
0.000215233
-0.000147979
0.00028033
-0.000211989
0.000355584
-0.000281349
0.000441121
-0.00035514
0.000536905
-0.000432462
0.000642735
-0.000512425
0.000758247
-0.000594158
0.000882922
-0.000676821
0.0010161
-0.000759624
0.00115701
-0.000841851
0.00130477
-0.00092288
0.00145839
-0.00100221
0.00161678
-0.00107947
0.00177875
-0.00115442
0.00194293
-0.00122689
0.0021078
-0.00129645
-0.00135916
0.00227184
1.12502e-06
2.43157e-05
6.288e-06
4.79529e-05
1.69212e-05
5.11881e-05
3.42195e-05
3.73415e-05
5.92107e-05
9.03546e-06
9.27852e-05
-3.16035e-05
0.000135704
-8.28293e-05
0.000188593
-0.000143166
0.000251927
-0.000211313
0.000326008
-0.000286069
0.000410945
-0.000366286
0.000506643
-0.000450839
0.000612793
-0.000538612
0.000728871
-0.000628504
0.000854156
-0.000719443
0.000987744
-0.000810409
0.00112858
-0.000900457
0.00127547
-0.000988745
0.00142714
-0.00107455
0.00158224
-0.0011573
0.00173933
-0.00123656
0.00189694
-0.00131203
0.00205356
-0.00138351
0.0022077
-0.00145059
-0.00150988
0.00235842
1.50886e-06
2.28068e-05
7.93337e-06
4.15284e-05
2.07924e-05
3.83291e-05
4.13482e-05
1.67856e-05
7.0676e-05
-2.02923e-05
0.000109685
-7.06124e-05
0.000159118
-0.000132262
0.000219534
-0.000203583
0.000291287
-0.000283066
0.000374498
-0.00036928
0.000469036
-0.000460824
0.000574505
-0.000556309
0.000690252
-0.000654358
0.000815374
-0.000753626
0.000948752
-0.000852821
0.00108908
-0.000950742
0.00123494
-0.00104631
0.00138478
-0.00113859
0.00153705
-0.00122682
0.00169017
-0.00131042
0.00184258
-0.00138897
0.00199277
-0.00146223
0.00213934
-0.00153007
0.002281
-0.00159226
-0.00164616
0.00241729
1.95232e-06
2.08545e-05
9.79827e-06
3.36825e-05
2.51299e-05
2.29975e-05
4.92624e-05
-7.34684e-06
8.32966e-05
-5.43266e-05
0.00012813
-0.000115446
0.000184443
-0.000188575
0.000252675
-0.000271814
0.000332989
-0.00036338
0.00042525
-0.000461542
0.000529011
-0.000564584
0.000643506
-0.000670804
0.000767678
-0.00077853
0.000900211
-0.000886159
0.00103958
-0.000992193
0.00118413
-0.00109529
0.0013321
-0.00119428
0.00148173
-0.00128823
0.00163132
-0.0013764
0.00177922
-0.00145832
0.00192395
-0.0015337
0.00206418
-0.00160245
0.00219873
-0.00166463
0.00232672
-0.00172025
-0.00176749
0.00244805
2.46044e-06
1.83941e-05
1.18962e-05
2.42467e-05
2.9953e-05
4.9407e-06
5.7977e-05
-3.53708e-05
9.7065e-05
-9.34146e-05
0.000148061
-0.000166441
0.000211528
-0.000252043
0.000287717
-0.000348003
0.000376528
-0.000452191
0.000477491
-0.000562505
0.000589767
-0.00067686
0.000712165
-0.000793202
0.000843193
-0.000909558
0.000981118
-0.00102408
0.00112405
-0.00113513
0.00127003
-0.00124127
0.00141711
-0.00134136
0.00156343
-0.00143455
0.00170729
-0.00152026
0.00184717
-0.00159821
0.00198181
-0.00166834
0.00211017
-0.00173081
0.00223148
-0.00178594
0.00234525
-0.00183402
-0.00187402
0.00245177
3.03668e-06
1.53574e-05
1.42342e-05
1.30492e-05
3.52661e-05
-1.60912e-05
6.74791e-05
-6.75839e-05
0.000111926
-0.000137862
0.000169345
-0.00022386
0.000240116
-0.000322814
0.000324225
-0.000432111
0.000421227
-0.000549193
0.000530245
-0.000671523
0.000649987
-0.000796602
0.000778803
-0.000922018
0.000914765
-0.00104552
0.00105576
-0.00116508
0.00119962
-0.00127898
0.00134419
-0.00138584
0.00148747
-0.00148464
0.00162765
-0.00157472
0.00176319
-0.0016558
0.00189285
-0.00172787
0.00201569
-0.00179118
0.00213109
-0.00184621
0.00223868
-0.00189353
0.00233842
-0.00193376
-0.00196649
0.00243089
3.68272e-06
1.16747e-05
1.68126e-05
-8.07378e-08
4.10573e-05
-4.03358e-05
7.77255e-05
-0.000104252
0.000127776
-0.000187912
0.000191775
-0.000287859
0.000269847
-0.000400886
0.000361627
-0.000523892
0.000466252
-0.000653818
0.000582369
-0.00078764
0.000708201
-0.000922434
0.000841637
-0.00105545
0.00098035
-0.00118423
0.00112194
-0.00130667
0.00126405
-0.00142109
0.00140449
-0.00152629
0.00154135
-0.0016215
0.00167303
-0.0017064
0.00179829
-0.00178105
0.00191624
-0.00184582
0.00202638
-0.00190132
0.00212848
-0.00194831
0.00222261
-0.00198766
0.00230907
-0.00202022
-0.00204613
0.00238872
4.39845e-06
7.27623e-06
1.96242e-05
-1.53065e-05
4.72977e-05
-6.80094e-05
8.86412e-05
-0.000145596
0.000144458
-0.000243729
0.00021507
-0.000358471
0.00030026
-0.000486076
0.000399237
-0.00062287
0.000510645
-0.000765225
0.000632617
-0.000909612
0.000762882
-0.0010527
0.000898906
-0.00119148
0.00103805
-0.00132338
0.00117773
-0.00144635
0.00131556
-0.00155893
0.00144947
-0.0016602
0.00157778
-0.0017498
0.0016992
-0.00182782
0.0018129
-0.00189476
0.00191843
-0.00195135
0.00201568
-0.00199857
0.00210484
-0.00203746
0.00218631
-0.00206913
0.0022607
-0.00209461
-0.00211443
0.002329
5.18192e-06
2.09431e-06
2.26544e-05
-3.27789e-05
5.39412e-05
-9.92962e-05
0.00010012
-0.000191774
0.000161767
-0.000305376
0.000238879
-0.000435584
0.000330814
-0.000578011
0.000436277
-0.000728333
0.000553371
-0.000882319
0.000679701
-0.00103594
0.000812536
-0.00118553
0.000948997
-0.00132794
0.00108625
-0.00146063
0.00122167
-0.00158177
0.001353
-0.00169026
0.00147842
-0.00178562
0.0015966
-0.00186798
0.00170669
-0.00193791
0.00180827
-0.00199634
0.00190132
-0.0020444
0.00198612
-0.00208337
0.00206319
-0.00211453
0.00213319
-0.00213914
0.00219692
-0.00215834
-0.00217293
0.00225542
6.02938e-06
-3.93507e-06
2.58811e-05
-5.26307e-05
6.09247e-05
-0.00013434
0.000112025
-0.000242875
0.000179454
-0.000372805
0.000262795
-0.000518925
0.000360901
-0.000676116
0.000471915
-0.000839347
0.000593373
-0.00100378
0.000722377
-0.00116495
0.000855806
-0.00131896
0.000990552
-0.00146268
0.00112373
-0.0015938
0.00125283
-0.00171088
0.00137586
-0.00181329
0.00149138
-0.00190114
0.00159849
-0.00197508
0.00169678
-0.0020362
0.00178628
-0.00208583
0.00186734
-0.00212547
0.00194057
-0.0021566
0.00200671
-0.00218067
0.00206661
-0.00219904
0.00212115
-0.00221287
-0.00222313
0.00217135
6.93525e-06
-1.08703e-05
2.92752e-05
-7.49706e-05
6.81689e-05
-0.000173233
0.000124193
-0.000298899
0.000197229
-0.00044584
0.000286363
-0.000608059
0.000389872
-0.000779626
0.0005053
-0.000954775
0.000629628
-0.00112811
0.000759513
-0.00129483
0.000891554
-0.001451
0.00102256
-0.00159368
0.00114973
-0.00172097
0.00127084
-0.00183199
0.00138428
-0.00192673
0.00148904
-0.00200591
0.0015847
-0.00207074
0.00167129
-0.00212279
0.00174923
-0.00216377
0.00181918
-0.00219541
0.00188196
-0.00221938
0.00193849
-0.0022372
0.00198966
-0.00225021
0.00203639
-0.0022596
-0.00226635
0.00207961
7.8921e-06
-1.87624e-05
3.28003e-05
-9.98788e-05
7.55794e-05
-0.000216013
0.000136436
-0.000359755
0.000214771
-0.000524176
0.000309098
-0.000702386
0.000417067
-0.000887594
0.000535612
-0.00107332
0.000661206
-0.0012537
0.000790158
-0.00142378
0.000918928
-0.00157977
0.00104438
-0.00171914
0.00116399
-0.00184058
0.00127589
-0.00194389
0.00137893
-0.00202978
0.0014726
-0.00209958
0.00155693
-0.00215507
0.00163234
-0.0021982
0.00169956
-0.00223099
0.00175947
-0.00225533
0.00181305
-0.00227296
0.00186125
-0.0022854
0.00190499
-0.00229396
0.00194512
-0.00229973
-0.0023037
0.00198248
8.89066e-06
-2.76531e-05
3.64133e-05
-0.000127401
8.30484e-05
-0.000262648
0.000148545
-0.000425252
0.000231741
-0.000607372
0.000330509
-0.000801153
0.000441843
-0.000998928
0.000562098
-0.00119358
0.000687319
-0.00137892
0.000813596
-0.00155006
0.000937399
-0.00170358
0.00105581
-0.00183755
0.00116667
-0.00195143
0.00126858
-0.00204581
0.00136091
-0.0021221
0.0014436
-0.00218227
0.00151708
-0.00222855
0.00158211
-0.00226323
0.00163963
-0.00228851
0.00169067
-0.00230636
0.00173624
-0.00231853
0.00177732
-0.00232648
0.00181475
-0.0023314
0.00184932
-0.0023343
-0.00233609
0.00188171
9.91981e-06
-3.75729e-05
4.00649e-05
-0.000157547
9.04565e-05
-0.000313039
0.000160298
-0.000495094
0.000247789
-0.000694863
0.000350111
-0.000903475
0.000463607
-0.00111242
0.000584114
-0.00131408
0.000707361
-0.00150217
0.000829368
-0.00167207
0.000946766
-0.00182098
0.00105699
-0.00194777
0.00115833
-0.00205277
0.00124992
-0.0021374
0.00133159
-0.00220377
0.00140373
-0.00225441
0.00146711
-0.00229192
0.00152271
-0.00231883
0.00157161
-0.00233741
0.0016149
-0.00234965
0.00165359
-0.00235722
0.00168858
-0.00236146
0.00172065
-0.00236347
0.00175047
-0.00236412
-0.00236423
0.0017786
1.09667e-05
-4.85396e-05
4.37005e-05
-0.00019028
9.76762e-05
-0.000367015
0.000171468
-0.000568886
0.000262569
-0.000785964
0.000367452
-0.00100836
0.000481843
-0.00122682
0.000601152
-0.00143339
0.000720931
-0.00162195
0.000837283
-0.00178842
0.000947137
-0.00193083
0.00104837
-0.00204901
0.00113981
-0.00214421
0.00122108
-0.00221867
0.00129248
-0.00227517
0.00135475
-0.00231668
0.0014089
-0.00234607
0.00145607
-0.002366
0.0014974
-0.00237874
0.00153397
-0.00238622
0.00156673
-0.00238998
0.0015965
-0.00239123
0.00162396
-0.00239093
0.00164967
-0.00238982
-0.00238863
0.00167407
1.20168e-05
-6.05563e-05
4.72613e-05
-0.000225525
0.000104575
-0.000424329
0.000181826
-0.000646136
0.000275756
-0.000879894
0.000382132
-0.00111473
0.000496132
-0.00134082
0.000612861
-0.00155012
0.000727841
-0.00173693
0.000837401
-0.00189798
0.000938885
-0.00203231
0.00103069
-0.00214081
0.00111215
-0.00222568
0.00118341
-0.00228993
0.00124512
-0.00233689
0.00129831
-0.00236987
0.00134416
-0.00239192
0.00138387
-0.00240571
0.00141859
-0.00241346
0.00144933
-0.00241696
0.00147696
-0.00241761
0.00150221
-0.00241648
0.00152564
-0.00241436
0.00154772
-0.0024119
-0.00240969
0.00156878
1.30544e-05
-7.36107e-05
5.06858e-05
-0.000263156
0.00011102
-0.000484662
0.000191153
-0.00072627
0.000287053
-0.000975794
0.000393817
-0.0012215
0.000506172
-0.00145317
0.000619052
-0.001663
0.000728102
-0.00184598
0.000830002
-0.00199988
0.000922592
-0.0021249
0.00100481
-0.00222302
0.00107651
-0.00229738
0.00113823
-0.00235165
0.00119097
-0.00238962
0.00123592
-0.00241482
0.00127437
-0.00243037
0.00130752
-0.00243886
0.00133645
-0.0024424
0.00136212
-0.00244263
0.00138527
-0.00244077
0.00140653
-0.00243774
0.00142637
-0.00243421
0.00144517
-0.00243069
-0.00242769
0.00146317
1.40627e-05
-8.76734e-05
5.39115e-05
-0.000303005
0.000116881
-0.000547632
0.000199248
-0.000808637
0.000296208
-0.00107275
0.000402253
-0.00132754
0.000511779
-0.0015627
0.000619697
-0.00177092
0.000721907
-0.00194819
0.000815544
-0.00209352
0.000898986
-0.00220834
0.000971709
-0.00229575
0.00103403
-0.0023597
0.00108685
-0.00240447
0.00113138
-0.00243415
0.00116893
-0.00245237
0.0012008
-0.00246224
0.00122817
-0.00246622
0.00125203
-0.00246626
0.00127322
-0.00246382
0.00129239
-0.00245994
0.00131007
-0.00245542
0.00132665
-0.00245078
0.00134241
-0.00244645
-0.00244282
0.00135754
1.50245e-05
-0.000102698
5.68769e-05
-0.000344858
0.000122037
-0.000612791
0.000205934
-0.000892534
0.00030302
-0.00116984
0.000407275
-0.0014318
0.000512895
-0.00166832
0.000614912
-0.00187293
0.0007096
-0.00204287
0.000794612
-0.00217853
0.000868884
-0.00228262
0.000932396
-0.00235926
0.000985868
-0.00241317
0.00103046
-0.00244907
0.00106754
-0.00247122
0.00109846
-0.0024833
0.0011245
-0.00248828
0.00114675
-0.00248847
0.0011661
-0.00248562
0.00118329
-0.00248101
0.00119888
-0.00247553
0.00121328
-0.00246982
0.00122682
-0.00246432