/*--------------------------------*- C++ -*----------------------------------*\
  =========                 |
  \\      /  F ield         | OpenFOAM: The Open Source CFD Toolbox
   \\    /   O peration     | Website:  https://openfoam.org
    \\  /    A nd           | Version:  6.0
     \\/     M anipulation  |
\*---------------------------------------------------------------------------*/
FoamFile
{
    version     2.0;
    format      ascii;
    class       surfaceScalarField;
    location    "47";
    object      phi;
}
// * * * * * * * * * * * * * * * * * * * * * * * * * * * * * * * * * * * * * //

dimensions      [0 3 -1 0 0 0 0];

internalField   nonuniform List<scalar> 
7840
(
-2.4153e-06
4.10837e-07
2.00447e-06
-8.59597e-06
1.35707e-06
4.82359e-06
-1.76504e-05
2.2714e-06
6.78304e-06
-2.88269e-05
3.06835e-06
8.10814e-06
-4.15096e-05
3.70854e-06
8.97419e-06
-5.52091e-05
4.18048e-06
9.51902e-06
-6.95505e-05
4.49197e-06
9.84937e-06
-8.42609e-05
4.66414e-06
1.00463e-05
-9.9158e-05
4.72699e-06
1.01701e-05
-0.000114138
4.71597e-06
1.02642e-05
-0.000129166
4.66928e-06
1.03589e-05
-0.000144266
4.62558e-06
1.04739e-05
-0.000159509
4.62203e-06
1.0621e-05
-0.000175007
4.69271e-06
1.08054e-05
-0.000190902
4.86743e-06
1.10277e-05
-0.000207358
5.17087e-06
1.12846e-05
-0.000224549
5.62184e-06
1.15696e-05
-0.000242656
6.23302e-06
1.18738e-05
-0.000261855
7.01291e-06
1.21863e-05
7.9708e-06
1.24954e-05
-0.000282321
-2.43462e-06
2.84546e-06
-8.65446e-06
7.57691e-06
-1.77541e-05
1.13711e-05
-2.89717e-05
1.42859e-05
-4.16835e-05
1.64203e-05
-5.53935e-05
1.78905e-05
-6.97211e-05
1.88195e-05
-8.43877e-05
1.93308e-05
-9.92054e-05
1.95446e-05
-0.000114065
1.95755e-05
-0.000128926
1.95301e-05
-0.000143806
1.95062e-05
-0.000158775
1.95907e-05
-0.000173941
1.98582e-05
-0.000189444
2.03705e-05
-0.000205448
2.1175e-05
-0.000222131
2.23047e-05
-0.000239675
2.37773e-05
-0.000258262
2.56e-05
2.778e-05
-0.000278071
-2.45542e-06
5.30088e-06
-8.71294e-06
1.38344e-05
-1.78482e-05
2.05063e-05
-2.90846e-05
2.55223e-05
-4.17865e-05
2.91223e-05
-5.54476e-05
3.15516e-05
-6.96767e-05
3.30486e-05
-8.41848e-05
3.38389e-05
-9.87728e-05
3.41326e-05
-0.00011332
3.4123e-05
-0.000127776
3.39857e-05
-0.000142148
3.38783e-05
-0.000156497
3.39394e-05
-0.000170925
3.4287e-05
-0.000185573
3.50178e-05
-0.000200604
3.6206e-05
-0.000216201
3.79022e-05
-0.000232557
4.01326e-05
-0.000249862
4.29057e-05
4.62282e-05
-0.000268311
-2.47803e-06
7.77891e-06
-8.7719e-06
2.01283e-05
-1.79333e-05
2.96677e-05
-2.91673e-05
3.67563e-05
-4.18232e-05
4.17781e-05
-5.53804e-05
4.51088e-05
-6.94338e-05
4.7102e-05
-8.36796e-05
4.80847e-05
-9.79023e-05
4.83554e-05
-0.000111965
4.81855e-05
-0.000125799
4.78198e-05
-0.000139398
4.74769e-05
-0.000152808
4.73495e-05
-0.000166124
4.76029e-05
-0.00017948
4.8374e-05
-0.000193043
4.97695e-05
-0.000207005
5.18638e-05
-0.00022157
5.46978e-05
-0.00023695
5.82861e-05
6.26377e-05
-0.00025336
-2.50265e-06
1.02816e-05
-8.83132e-06
2.6457e-05
-1.80092e-05
3.88457e-05
-2.92201e-05
4.79672e-05
-4.17957e-05
5.43537e-05
-5.51994e-05
5.85125e-05
-6.90092e-05
6.09118e-05
-8.29027e-05
6.19782e-05
-9.6644e-05
6.20968e-05
-0.000110074
6.16152e-05
-0.000123101
6.08467e-05
-0.000135696
6.0072e-05
-0.000147887
5.95406e-05
-0.000159754
5.94698e-05
-0.000171423
6.00437e-05
-0.000183064
6.14096e-05
-0.000194875
6.36754e-05
-0.000207083
6.69057e-05
-0.000219927
7.11297e-05
7.63644e-05
-0.000233654
-2.52904e-06
1.28106e-05
-8.88937e-06
3.28173e-05
-1.80718e-05
4.80281e-05
-2.92369e-05
5.91322e-05
-4.1698e-05
6.68149e-05
-5.49015e-05
7.1716e-05
-6.84073e-05
7.44176e-05
-8.18721e-05
7.5443e-05
-9.50361e-05
7.52608e-05
-0.000107713
7.42919e-05
-0.000119782
7.29159e-05
-0.000131185
7.14754e-05
-0.000141924
7.0279e-05
-0.000152056
6.96017e-05
-0.000161694
6.96822e-05
-0.000171004
7.07199e-05
-0.000180198
7.28688e-05
-0.000189523
7.6231e-05
-0.000199257
8.08637e-05
8.68023e-05
-0.000209695
-2.55603e-06
1.53666e-05
-8.94107e-06
3.92023e-05
-1.81104e-05
5.71974e-05
-2.92009e-05
7.02228e-05
-4.15082e-05
7.91221e-05
-5.44623e-05
8.46701e-05
-6.76055e-05
8.75608e-05
-8.05734e-05
8.84109e-05
-9.30801e-05
8.77675e-05
-0.000104909
8.61204e-05
-0.000115904
8.39112e-05
-0.000125971
8.15425e-05
-0.000135075
7.93831e-05
-0.000143243
7.77693e-05
-0.000150565
7.7004e-05
-0.000157196
7.73515e-05
-0.000163356
7.90287e-05
-0.00016932
8.2195e-05
-0.000175412
8.6956e-05
9.33836e-05
-0.000181994
-2.5811e-06
1.79477e-05
-8.97691e-06
4.55982e-05
-1.81051e-05
6.63256e-05
-2.90796e-05
8.11973e-05
-4.11803e-05
9.12228e-05
-5.38237e-05
9.73135e-05
-6.65369e-05
0.000100274
-7.89361e-05
0.00010081
-9.071e-05
9.95414e-05
-0.000101609
9.70195e-05
-0.00011144
9.37421e-05
-0.000120064
9.01666e-05
-0.0001274
8.67195e-05
-0.000133432
8.38014e-05
-0.000138215
8.17866e-05
-0.000141882
8.10188e-05
-0.000144652
8.17986e-05
-0.000146826
8.43692e-05
-0.000148785
8.89151e-05
9.55746e-05
-0.000150977
-2.60015e-06
2.05479e-05
-8.98194e-06
5.19799e-05
-1.80245e-05
7.53682e-05
-2.88206e-05
9.19934e-05
-4.06377e-05
0.00010304
-5.28831e-05
0.000109559
-6.50733e-05
0.000112464
-7.68093e-05
0.000112546
-8.77579e-05
0.00011049
-9.76391e-05
0.000106901
-0.00010622
0.000102322
-0.000113312
9.72591e-05
-0.000118781
9.21888e-05
-0.000122554
8.75739e-05
-0.000124633
8.38651e-05
-0.000125112
8.14983e-05
-0.000124195
8.08814e-05
-0.000122201
8.23751e-05
-0.000119572
8.62862e-05
9.28678e-05
-0.000116865
-2.60742e-06
2.31553e-05
-8.93548e-06
5.8308e-05
-1.78248e-05
8.42575e-05
-2.83494e-05
0.000102518
-3.97682e-05
0.000114459
-5.14844e-05
0.000121275
-6.30103e-05
0.00012399
-7.39387e-05
0.000123474
-8.3921e-05
0.000120472
-9.26525e-05
0.000115632
-9.98635e-05
0.000109533
-0.000105318
0.000102714
-0.000108821
9.56917e-05
-0.00011023
8.89828e-05
-0.000109477
8.31121e-05
-0.000106595
7.86161e-05
-0.000101746
7.60327e-05
-9.52504e-05
7.58793e-05
-8.76077e-05
7.86435e-05
8.47674e-05
-7.95073e-05
-2.59574e-06
2.5751e-05
-8.81186e-06
6.45241e-05
-1.74509e-05
9.28965e-05
-2.75701e-05
0.000112637
-3.84234e-05
0.000125312
-4.94149e-05
0.000132267
-6.00594e-05
0.000134635
-6.995e-05
0.000133365
-7.87328e-05
0.000129255
-8.60885e-05
0.000122988
-9.17208e-05
0.000115166
-9.53523e-05
0.000106345
-9.6729e-05
9.70684e-05
-9.5634e-05
8.78879e-05
-9.1913e-05
7.93911e-05
-8.55105e-05
7.22136e-05
-7.65157e-05
6.70379e-05
-6.52152e-05
6.45788e-05
-5.21482e-05
6.55764e-05
7.07712e-05
-3.81519e-05
-2.55717e-06
2.83082e-05
-8.58215e-06
7.05491e-05
-1.68394e-05
0.000101154
-2.63698e-05
0.000122168
-3.64236e-05
0.000135366
-4.64091e-05
0.000142252
-5.58491e-05
0.000144075
-6.43453e-05
0.000141861
-7.15497e-05
0.00013646
-7.71427e-05
0.000128581
-8.08176e-05
0.000118841
-8.22716e-05
0.000107799
-8.12059e-05
9.60026e-05
-7.73354e-05
8.40174e-05
-7.04137e-05
7.24694e-05
-6.02754e-05
6.20753e-05
-4.68989e-05
5.36614e-05
-3.04879e-05
4.81678e-05
-1.15776e-05
4.66661e-05
5.03435e-05
8.85006e-06
-2.48392e-06
3.07921e-05
-8.21699e-06
7.62822e-05
-1.59238e-05
0.000108861
-2.46261e-05
0.00013087
-3.35682e-05
0.000144308
-4.21618e-05
0.000150846
-4.99396e-05
0.000151852
-5.65167e-05
0.000148438
-6.15607e-05
0.000141504
-6.47668e-05
0.000131787
-6.58386e-05
0.000119912
-6.44741e-05
0.000106435
-6.03578e-05
9.18863e-05
-5.31626e-05
7.68221e-05
-4.25661e-05
6.1873e-05
-2.82906e-05
4.77997e-05
-1.01727e-05
3.55435e-05
1.17256e-05
2.62695e-05
3.69491e-05
2.14426e-05
2.2879e-05
6.44136e-05
-2.3695e-06
3.31616e-05
-7.6899e-06
8.16026e-05
-1.4641e-05
0.000115812
-2.2218e-05
0.000138447
-2.96519e-05
0.000151742
-3.6351e-05
0.000157545
-4.18522e-05
0.000157354
-4.57828e-05
0.000152369
-4.78289e-05
0.00014355
-4.77113e-05
0.000131669
-4.51642e-05
0.000117365
-3.99172e-05
0.000101188
-3.16807e-05
8.36498e-05
-2.01354e-05
6.52768e-05
-4.93341e-06
4.6671e-05
1.42799e-05
2.85865e-05
3.78053e-05
1.20181e-05
6.57712e-05
-1.6964e-06
9.79071e-05
-1.06933e-05
-1.23539e-05
0.00013314
-2.20972e-06
3.53714e-05
-6.98053e-06
8.63734e-05
-1.29377e-05
0.000121769
-1.90373e-05
0.000144547
-2.44831e-05
0.000157188
-2.8665e-05
0.000161727
-3.11102e-05
0.000159799
-3.14451e-05
0.000152704
-2.93666e-05
0.000141471
-2.462e-05
0.000126923
-1.69806e-05
0.000109726
-6.23634e-06
9.04438e-05
7.8297e-06
6.95838e-05
2.54591e-05
4.76474e-05
4.69362e-05
2.51939e-05
7.25962e-05
2.92648e-06
0.000102802
-1.81879e-05
0.000137861
-3.67553e-05
0.000177791
-5.06229e-05
-5.62965e-05
0.000221733
-2.00328e-06
3.73746e-05
-6.07655e-06
9.04467e-05
-1.0775e-05
0.000126467
-1.49975e-05
0.000148769
-1.78995e-05
0.00016009
-1.88301e-05
0.000162657
-1.7282e-05
0.000158251
-1.28555e-05
0.000148277
-5.23438e-06
0.00013385
5.83074e-06
0.000115858
2.05332e-05
9.50234e-05
3.90197e-05
7.19573e-05
6.14019e-05
4.72015e-05
8.77746e-05
2.12747e-05
0.000118244
-5.27537e-06
0.000152965
-3.17945e-05
0.000192176
-5.73995e-05
0.000236211
-8.07895e-05
0.000285381
-9.97931e-05
-0.000110205
0.000339289
-1.75167e-06
3.91263e-05
-4.97339e-06
9.36684e-05
-8.12876e-06
0.000129623
-1.00357e-05
0.000150676
-9.77569e-06
0.00015983
-6.62685e-06
0.000159508
-1.38876e-08
0.000151638
1.05257e-05
0.000137738
2.53613e-05
0.000119015
4.47772e-05
9.64418e-05
6.89726e-05
7.0828e-05
9.80569e-05
4.2873e-05
0.000132044
1.32149e-05
0.000170849
-1.75309e-05
0.000214307
-4.87334e-05
0.000262206
-7.96935e-05
0.000314362
-0.000109555
0.000370736
-0.000137163
0.000431606
-0.000160663
-0.00017585
0.000497251
-1.45799e-06
4.05843e-05
-3.67106e-06
9.58815e-05
-4.98398e-06
0.000130936
-4.10668e-06
0.000149799
-1.66967e-08
0.00015574
8.1123e-06
0.000151379
2.09621e-05
0.000138788
3.91022e-05
0.000119598
6.30049e-05
9.51118e-05
9.3046e-05
6.64007e-05
0.000129494
3.43801e-05
0.000172488
-1.20728e-07
0.000222007
-3.63049e-05
0.000277839
-7.3362e-05
0.000339536
-0.000110431
0.000406408
-0.000146565
0.000477538
-0.000180685
0.000551903
-0.000211528
0.000628779
-0.000237539
-0.000256465
0.000709394
-1.12486e-06
4.17091e-05
-2.1682e-06
9.69248e-05
-1.32429e-06
0.000130092
2.83387e-06
0.00014564
1.14631e-05
0.00014711
2.55278e-05
0.000137315
4.58535e-05
0.000118462
7.31589e-05
9.22921e-05
0.000108068
6.02023e-05
0.000151109
2.33601e-05
0.000202693
-1.72041e-05
0.000263089
-6.05169e-05
0.000332376
-0.000105591
0.000410372
-0.000151358
0.000496541
-0.000196601
0.000589856
-0.00023988
0.000688626
-0.000279455
0.000790295
-0.000313197
0.000891603
-0.000338847
-0.000358768
0.000993906
-7.51896e-07
4.2461e-05
-4.54441e-07
9.66273e-05
2.88235e-06
0.000126755
1.08511e-05
0.000137672
2.47713e-05
0.00013319
4.57735e-05
0.000116313
7.48556e-05
8.93803e-05
0.000112914
5.42341e-05
0.000160754
1.23619e-05
0.000219091
-3.49773e-05
0.000288538
-8.66507e-05
0.000369587
-0.000141566
0.000462591
-0.000198595
0.00056773
-0.000256497
0.000684947
-0.000313818
0.000813826
-0.000368759
0.000953268
-0.000418897
0.0011005
-0.000460431
0.0012478
-0.000486149
-0.000482828
0.00137186
-3.33865e-07
4.27949e-05
1.49565e-06
9.47978e-05
7.69607e-06
0.000120554
2.00518e-05
0.000125316
4.00676e-05
0.000113174
6.90584e-05
8.73218e-05
0.000108204
5.02345e-05
0.000158578
3.86071e-06
0.000221152
-5.02122e-05
0.000296798
-0.000110624
0.000386286
-0.000176139
0.000490291
-0.000245571
0.000609431
-0.000317734
0.000744344
-0.000391409
0.00089586
-0.000465335
0.00106531
-0.000538213
0.00125512
-0.000608699
0.00147007
-0.000675381
0.00172129
-0.000737372
-0.000793901
0.00203236
1.43554e-07
4.26514e-05
3.73154e-06
9.12098e-05
1.32184e-05
0.000111068
3.0602e-05
0.000107932
5.75867e-05
8.61897e-05
9.56746e-05
4.92339e-05
0.000146213
-3.03894e-07
0.000210409
-6.03357e-05
0.000289327
-0.00012913
0.000383871
-0.000205168
0.00049478
-0.000287048
0.000622636
-0.000373427
0.000767896
-0.000462994
0.000930971
-0.000554484
0.00111236
-0.000646724
0.00131286
-0.000738716
0.00153391
-0.000829748
0.00177805
-0.00091952
0.0020489
-0.00100822
-0.00108928
0.00234428
7.00078e-07
4.19513e-05
6.32038e-06
8.55895e-05
1.95843e-05
9.78036e-05
4.27169e-05
8.47998e-05
7.76249e-05
5.12818e-05
0.000125981
8.78124e-07
0.000189253
-6.35761e-05
0.0002687
-0.000139783
0.000365342
-0.000225772
0.00047993
-0.000319756
0.000612919
-0.000420037
0.000764463
-0.000524971
0.000934438
-0.000632969
0.00112249
-0.000742535
0.0013281
-0.000852334
0.00155067
-0.000961287
0.00178959
-0.00106866
0.00204422
-0.00117415
0.00231359
-0.0012776
-0.00137068
0.002595
1.36198e-06
4.05893e-05
9.34614e-06
7.76054e-05
2.69554e-05
8.01944e-05
5.66439e-05
5.51112e-05
0.000100506
7.42001e-06
0.00016034
-5.89561e-05
0.000237653
-0.000140889
0.000333623
-0.000235752
0.000449042
-0.000341191
0.000584267
-0.000454981
0.000739187
-0.000574957
0.000913216
-0.000699001
0.00110533
-0.000825078
0.00131409
-0.000951303
0.00153778
-0.00107602
0.00177436
-0.00119787
0.00202158
-0.00131589
0.00227692
-0.00142949
0.00253759
-0.00153827
-0.00163475
0.00280166
2.15846e-06
3.84308e-05
1.28988e-05
6.6865e-05
3.54977e-05
5.75955e-05
7.26228e-05
1.79861e-05
0.000126514
-4.64716e-05
0.000199018
-0.00013146
0.000291548
-0.000233419
0.000405014
-0.000349218
0.000539744
-0.000475921
0.000695428
-0.000610665
0.000871099
-0.000750627
0.00106516
-0.000893065
0.00127548
-0.00103539
0.00149945
-0.00117528
0.00173416
-0.00131073
0.00197648
-0.00144019
0.00222311
-0.00156252
0.00247066
-0.00167704
0.0027158
-0.00178341
-0.00187599
0.00295705
3.11814e-06
3.53127e-05
1.70627e-05
5.29204e-05
4.53568e-05
2.93014e-05
9.08405e-05
-2.74976e-05
0.000155824
-0.000111455
0.000242072
-0.000217708
0.00035072
-0.000342067
0.000482167
-0.000480666
0.000635997
-0.000629752
0.000810944
-0.000785612
0.00100493
-0.000944615
0.00121518
-0.00110331
0.00143837
-0.00125858
0.00167083
-0.00140774
0.00190874
-0.00154864
0.0021483
-0.00167974
0.00238585
-0.00180007
0.00261799
-0.00190918
0.0028417
-0.00200712
-0.00209032
0.00305602
4.26564e-06
3.1047e-05
2.19047e-05
3.52814e-05
5.66329e-05
-5.42676e-06
0.000111388
-8.22526e-05
0.000188428
-0.000188496
0.000289254
-0.000318534
0.000414477
-0.000467289
0.000563699
-0.000629888
0.000735462
-0.000801514
0.000927287
-0.000977437
0.00113582
-0.00115315
0.00135706
-0.00132455
0.00158663
-0.00148815
0.00182008
-0.00164119
0.00205313
-0.00178169
0.00228188
-0.0019085
0.00250296
-0.00202115
0.00271359
-0.00211981
0.00291165
-0.00220518
-0.00227555
0.00309689
5.61908e-06
2.5428e-05
2.74653e-05
1.34351e-05
6.9361e-05
-4.73225e-05
0.000134225
-0.000147117
0.00022409
-0.00027836
0.000339949
-0.000434394
0.000481596
-0.000608936
0.000647527
-0.000795818
0.000834971
-0.000988959
0.00104007
-0.00118253
0.00125816
-0.00137124
0.00148419
-0.00155058
0.00171305
-0.00171701
0.00193996
-0.0018681
0.00216075
-0.00200248
0.002372
-0.00211975
0.00257117
-0.00222032
0.00275653
-0.00230517
0.00292717
-0.00237581
-0.00243208
0.00308369
7.18841e-06
1.82396e-05
3.37523e-05
-1.31288e-05
8.34978e-05
-9.70679e-05
0.00015916
-0.000222779
0.000262314
-0.000381514
0.000393154
-0.000565234
0.000550334
-0.000766116
0.000730954
-0.000976439
0.000930751
-0.00118876
0.00114446
-0.00139624
0.00136629
-0.00159308
0.00159048
-0.00177476
0.00181167
-0.0019382
0.00202535
-0.00208178
0.00222798
-0.00220512
0.00241713
-0.0023089
0.00259139
-0.00239458
0.00275029
-0.00246407
0.00289408
-0.00251961
-0.00256223
0.00302424
8.97482e-06
9.26474e-06
4.07377e-05
-4.48916e-05
9.89141e-05
-0.000155244
0.00018584
-0.000309705
0.000302347
-0.000498021
0.000447504
-0.00071039
0.000618512
-0.000937124
0.000810867
-0.00116879
0.00101877
-0.00139666
0.00123572
-0.00161319
0.00145517
-0.00181254
0.00167115
-0.00199074
0.00187866
-0.00214571
0.00207396
-0.00227707
0.0022546
-0.00238576
0.00241939
-0.00247369
0.00256818
-0.00254336
0.00270163
-0.00259752
0.00282098
-0.00263896
-0.00266953
0.00292827
1.09705e-05
-1.70572e-06
4.83561e-05
-8.22773e-05
0.000115394
-0.000222282
0.000213754
-0.000408064
0.000343199
-0.000627466
0.000501337
-0.000868528
0.000683669
-0.00111946
0.000884004
-0.00136913
0.00109515
-0.0016078
0.00130975
-0.00182779
0.00152103
-0.00202381
0.00172338
-0.00219309
0.00191269
-0.00233502
0.0020864
-0.00245078
0.00224339
-0.00254275
0.00238374
-0.00261404
0.0025084
-0.00266802
0.00261892
-0.00270804
0.00271716
-0.00273719
-0.00275781
0.00280544
1.31585e-05
-1.48642e-05
5.65057e-05
-0.000125625
0.000132638
-0.000298415
0.000242246
-0.000517673
0.000383682
-0.000768902
0.000552797
-0.00103764
0.000743254
-0.00130991
0.000947269
-0.00157314
0.00115661
-0.00181714
0.00136357
-0.00203475
0.00156173
-0.00222198
0.00174643
-0.00237778
0.00191479
-0.00250339
0.00206566
-0.00260165
0.00219922
-0.00267631
0.00231665
-0.00273147
0.00241973
-0.0027711
0.00251054
-0.00279886
0.00259122
-0.00281787
-0.00283067
0.00266407
1.55129e-05
-3.03771e-05
6.50482e-05
-0.00017516
0.000150268
-0.000383634
0.000270544
-0.000637948
0.000422482
-0.000920841
0.000599971
-0.00121513
0.000794849
-0.00150479
0.000998032
-0.00177633
0.00120074
-0.00201986
0.00139554
-0.00222954
0.00157691
-0.00240335
0.00174149
-0.00254236
0.00188788
-0.00264978
0.00201626
-0.00273003
0.00212795
-0.002788
0.00222493
-0.00282845
0.00230947
-0.00285564
0.00238385
-0.00287324
0.00245022
-0.00288424
-0.0028911
0.00251065
1.79984e-05
-4.83754e-05
7.38121e-05
-0.000230974
0.000167842
-0.000477665
0.000297791
-0.000767897
0.00045824
-0.00108129
0.000641032
-0.00139792
0.000836385
-0.00170014
0.00103437
-0.00197431
0.00122626
-0.00221175
0.00140543
-0.00240871
0.00156771
-0.00256563
0.00171122
-0.00268588
0.001836
-0.00277455
0.0019434
-0.00283742
0.00203554
-0.00288014
0.00211489
-0.00290779
0.00218389
-0.00292465
0.00224479
-0.00293414
0.00229954
-0.00293899
-0.00294144
0.00234989
2.05707e-05
-6.89461e-05
8.25959e-05
-0.000292999
0.000184869
-0.000579938
0.000323095
-0.000906123
0.000489644
-0.00124784
0.000674392
-0.00158267
0.000866313
-0.00189207
0.0010552
-0.0021632
0.00123296
-0.00238951
0.00139425
-0.00257
0.00153643
-0.00270781
0.00165915
-0.0028086
0.00176367
-0.00287907
0.0018522
-0.00292596
0.00192738
-0.00295532
0.00199184
-0.00297225
0.00204796
-0.00298077
0.0020978
-0.00298398
0.00214302
-0.00298421
-0.00298344
0.00218501
2.31769e-05
-9.2123e-05
9.11748e-05
-0.000360997
0.000200833
-0.000689596
0.000345582
-0.00105087
0.000515523
-0.00141778
0.000698819
-0.00176597
0.000883702
-0.00207695
0.00106029
-0.00233978
0.00122161
-0.00255084
0.00136389
-0.00271227
0.00148606
-0.00282999
0.00158912
-0.00291165
0.00167527
-0.00296522
0.00174729
-0.00299797
0.00180799
-0.00301603
0.00185997
-0.00302423
0.0019054
-0.0030262
0.00194604
-0.00302462
0.00198325
-0.00302142
-0.00301828
0.0020181
2.5757e-05
-0.00011788
9.93098e-05
-0.000434549
0.000215219
-0.000805506
0.000364453
-0.00120011
0.000534936
-0.00158826
0.000713515
-0.00194455
0.000888265
-0.0022517
0.00105016
-0.00250168
0.00119373
-0.0026944
0.00131682
-0.00283537
0.00141986
-0.00293303
0.00150489
-0.00299669
0.00157478
-0.00303511
0.00163254
-0.00305574
0.00168098
-0.00306447
0.00172246
-0.00306571
0.00175889
-0.00306263
0.0017917
-0.00305743
0.00182197
-0.0030517
-0.00304681
0.0018505
2.82456e-05
-0.000146126
0.000106758
-0.000513062
0.000227544
-0.000926292
0.000379034
-0.0013516
0.000547219
-0.00175645
0.000718144
-0.00211547
0.000880296
-0.00241385
0.00102594
-0.00264732
0.00115128
-0.00281975
0.00125576
-0.00293984
0.00134101
-0.00301828
0.00140987
-0.00306555
0.00146554
-0.00309078
0.00151107
-0.00310126
0.00154906
-0.00310246
0.0015816
-0.00309825
0.00161026
-0.00309129
0.00163622
-0.00308338
0.00166028
-0.00307576
-0.00306954
0.00168302
3.05748e-05
-0.0001767
0.000113285
-0.000595772
0.000237382
-0.00105039
0.000388816
-0.00150303
0.000552024
-0.00191965
0.000712805
-0.00227625
0.000860569
-0.00256162
0.000989166
-0.00277592
0.00109648
-0.00292706
0.00118337
-0.00302673
0.00125243
-0.00308734
0.00130696
-0.00312008
0.00135028
-0.00313409
0.00138526
-0.00313625
0.00141425
-0.00313145
0.001439
-0.003123
0.0014608
-0.00311309
0.00148054
-0.00310313
0.00149887
-0.00309409
-0.00308684
0.00151616
3.26772e-05
0.000118677
0.000244391
0.000393481
0.000549302
0.000697965
0.000830199
0.000941569
0.00103155
0.00110216
0.00115665
0.00119856
0.0012311
0.00125691
0.00127798
0.00129578
0.00131133
0.00132531
0.00133819
0.00135025
3.27577e-05
0.000177271
0.000118933
0.000597668
0.000244845
0.00105361
0.000394088
0.00150739
0.000549968
0.00192483
0.000698584
0.00228187
0.000830677
0.00256736
0.000941843
0.00278155
0.00103159
0.00293244
0.00110196
0.00303179
0.00115623
0.00309208
0.00119794
0.00312454
0.00123031
0.0031383
0.00125596
0.00314025
0.0012769
0.00313528
0.00129458
0.0031267
0.00131001
0.00311667
0.00132389
0.00310662
0.00133667
0.00309749
0.00309016
0.00134862
3.06565e-05
0.000146614
0.000113554
0.000514771
0.000237877
0.000929291
0.000389509
0.00135576
0.000552827
0.00176151
0.000713607
0.00212109
0.000861264
0.0024197
0.000989671
0.00265314
0.00109675
0.00282536
0.00118338
0.00294516
0.00125219
0.00302327
0.0013065
0.00307023
0.00134961
0.00309519
0.00138441
0.00310545
0.00141324
0.00310645
0.00143786
0.00310209
0.00145953
0.003095
0.00147916
0.00308699
0.00149737
0.00307928
0.00307298
0.00151456
2.83271e-05
0.000118287
0.000107035
0.000436063
0.000228073
0.000808253
0.000379804
0.00120403
0.000548156
0.00159316
0.000719138
0.00195011
0.000881228
0.00225761
0.00102671
0.00250766
0.00115182
0.00270025
0.00125603
0.00284095
0.00134101
0.00293829
0.00140961
0.00300163
0.00146504
0.00303976
0.00151036
0.00306013
0.00154817
0.00306864
0.00158054
0.00306971
0.00160907
0.00306648
0.00163489
0.00306117
0.00165883
0.00305533
0.00305036
0.00168145
2.58372e-05
9.24502e-05
9.9591e-05
0.000362309
0.000215773
0.000692071
0.000365288
0.00105452
0.000535997
0.00142245
0.000714698
0.00177141
0.000889447
0.00208286
0.00105122
0.00234588
0.00119458
0.00255689
0.00131741
0.00271813
0.00142015
0.00283555
0.00150489
0.00291689
0.00157451
0.00297015
0.00163202
0.00300261
0.00168024
0.00302043
0.00172153
0.00302842
0.00175779
0.00303023
0.00179045
0.00302851
0.00182059
0.0030252
0.00302196
0.00184898
2.32546e-05
6.91957e-05
9.1455e-05
0.000294108
0.000201401
0.000582125
0.000346467
0.000909451
0.000516692
0.00125223
0.000700182
0.00158792
0.000885137
0.00189791
0.00106166
0.00216936
0.00122282
0.00239573
0.00136484
0.0025761
0.00148672
0.00271367
0.00158946
0.00281415
0.0016753
0.00288431
0.00174702
0.00293089
0.00180747
0.00295998
0.00185922
0.00297667
0.00190445
0.002985
0.00194491
0.00298805
0.00198196
0.00298814
0.00298726
0.00201666
2.06446e-05
4.8551e-05
8.287e-05
0.000231883
0.00018544
0.000479555
0.000324012
0.000770879
0.000490898
0.00108534
0.000675915
0.0014029
0.000867992
0.00170583
0.0010569
0.00198045
0.00123455
0.00221808
0.00139562
0.00241503
0.00153752
0.00257178
0.0016599
0.00269176
0.00176408
0.00278013
0.00185228
0.00284269
0.00192715
0.00288511
0.00199133
0.00291249
0.00204721
0.00292912
0.00209683
0.00293843
0.00214186
0.00294312
0.00294545
0.00218367
1.80674e-05
3.04836e-05
7.40753e-05
0.000175875
0.000168405
0.000385225
0.000298721
0.000640563
0.000459554
0.000924508
0.000642686
0.00121977
0.000838285
0.00151023
0.00103639
0.00178235
0.00122825
0.00202621
0.00140727
0.00223601
0.00156929
0.00240976
0.00171248
0.00254858
0.0018369
0.00265572
0.00194392
0.00273566
0.00203571
0.00279332
0.00211472
0.00283348
0.00218342
0.00286041
0.00224406
0.00287779
0.00229858
0.0028886
0.00289531
0.00234872
1.55759e-05
1.49077e-05
6.52959e-05
0.000126155
0.000150811
0.00029971
0.000271466
0.000519908
0.000423824
0.000772149
0.000601718
0.00104188
0.000796933
0.00131502
0.00100034
0.00157894
0.00120313
0.00182342
0.00139786
0.00204128
0.00157904
0.00222858
0.00174333
0.00238429
0.00188936
0.00250969
0.00201735
0.00260768
0.00212863
0.00268204
0.00222522
0.00273689
0.0023094
0.00277624
0.00238346
0.00280373
0.00244954
0.00282253
0.00283514
0.00250971
1.32145e-05
1.69314e-06
5.67334e-05
8.26361e-05
0.00013315
0.000223293
0.00024314
0.000409918
0.00038502
0.000630269
0.000554596
0.000872301
0.000745473
0.00112414
0.000949819
0.0013746
0.00115936
0.00161388
0.00136637
0.00183427
0.00156445
0.00203051
0.00174892
0.00219982
0.00191696
0.00234165
0.00206743
0.0024572
0.00220056
0.00254891
0.00231754
0.0026199
0.0024202
0.00267358
0.00251062
0.00271332
0.00259093
0.00274221
0.00276261
0.00266346
1.10185e-05
-9.32537e-06
4.85603e-05
4.50943e-05
0.000115868
0.000155986
0.000214602
0.000311184
0.000344504
0.000500367
0.000503142
0.000713663
0.000685969
0.000941314
0.000886739
0.00117383
0.00109822
0.0014024
0.001313
0.00161948
0.00152432
0.00181919
0.00172655
0.00199758
0.00191561
0.00215259
0.00208897
0.00228385
0.00224553
0.00239234
0.00238541
0.00248002
0.00250959
0.0025494
0.00261964
0.00260326
0.00271744
0.00264441
0.00267473
0.00280532
9.0142e-06
-1.83396e-05
4.09157e-05
1.31927e-05
9.9342e-05
9.75598e-05
0.000186629
0.000223897
0.000303594
0.000383402
0.000449275
0.000567981
0.000620835
0.000769755
0.000813717
0.000980944
0.00102207
0.00119405
0.00123935
0.0014022
0.001459
0.00159955
0.00167501
0.00178157
0.00188239
0.00194521
0.00207741
0.00208882
0.00225768
0.00221208
0.002422
0.00231569
0.00257028
0.00240112
0.0027032
0.00247034
0.00282203
0.00252558
0.00256792
0.00292884
7.21894e-06
-2.55585e-05
3.39037e-05
-1.34921e-05
8.38778e-05
4.75857e-05
0.000159882
0.000147893
0.000263485
0.0002798
0.00039486
0.000436606
0.000552629
0.000611986
0.000733849
0.000799724
0.000934207
0.000993689
0.00114839
0.00118801
0.00137058
0.00137736
0.00159496
0.0015572
0.00181618
0.00172398
0.00202973
0.00187528
0.00223208
0.00200973
0.00242082
0.00212695
0.00259458
0.00222736
0.00275293
0.00231199
0.00289615
0.00238236
0.00243835
0.00302573
5.64141e-06
-3.11999e-05
2.75923e-05
-3.54429e-05
6.96964e-05
5.48164e-06
0.000134882
8.27069e-05
0.00022518
0.000189501
0.000341573
0.000320213
0.000483829
0.00046973
0.000650409
0.000633143
0.000838502
0.000805596
0.0010442
0.000982317
0.0012628
0.00115876
0.0014892
0.0013308
0.00171828
0.00149491
0.00194523
0.00164832
0.00216589
0.00178907
0.00237686
0.00191598
0.0025756
0.00202862
0.00276044
0.00212716
0.00293048
0.00221232
0.00228246
0.00308636
4.28159e-06
-3.54815e-05
2.20132e-05
-5.31745e-05
5.69341e-05
-2.94393e-05
0.000111993
2.76477e-05
0.000189451
0.000112043
0.000290801
0.000218863
0.000416638
0.000343894
0.000566538
0.000483243
0.000739008
0.000633126
0.000931529
0.000789796
0.0011407
0.000949585
0.00136248
0.00110902
0.00159246
0.00126493
0.00182616
0.00141463
0.00205927
0.00155595
0.00228791
0.00168734
0.0025087
0.00180783
0.00271889
0.00191697
0.00291639
0.00201482
0.00209788
0.00310097
3.13083e-06
-3.86123e-05
1.71627e-05
-6.72064e-05
4.56425e-05
-5.79191e-05
9.14208e-05
-1.81305e-05
0.000156811
4.66536e-05
0.000243572
0.000132101
0.00035283
0.000234636
0.000484966
0.000351107
0.000639538
0.000478554
0.000815247
0.000614087
0.00100998
0.000754856
0.00122091
0.000898086
0.00144467
0.00104116
0.00167758
0.00118173
0.00191576
0.00131777
0.0021554
0.0014477
0.00239285
0.00157038
0.0026247
0.00168512
0.00284795
0.00179157
0.00188416
0.00306167
2.17236e-06
-4.07847e-05
1.30045e-05
-7.80386e-05
3.57942e-05
-8.07088e-05
7.32168e-05
-5.55531e-05
0.000127514
-7.64321e-06
0.000200527
5.90878e-05
0.000293663
0.0001415
0.00040782
0.00023695
0.000543307
0.000343067
0.000699789
0.000457606
0.000876266
0.000578378
0.00107111
0.000703241
0.00128214
0.000830134
0.00150672
0.000957145
0.0017419
0.00108259
0.00198451
0.00120509
0.00223124
0.00132365
0.00247869
0.00143767
0.00272352
0.00154674
0.00164341
0.00296427
1.38256e-06
-4.21672e-05
9.47453e-06
-8.61306e-05
2.72947e-05
-9.8529e-05
5.73001e-05
-8.55585e-05
0.000101582
-5.19252e-05
0.000161935
-1.26509e-06
0.000239859
6.35761e-05
0.000336521
0.000140287
0.000452703
0.000226885
0.000588743
0.000321566
0.000744506
0.000422615
0.000919377
0.000528369
0.00111229
0.000637218
0.0013218
0.000747642
0.0015461
0.000858284
0.00178315
0.000968035
0.00203067
0.00107614
0.00228607
0.00118226
0.00254659
0.00128623
0.00137967
0.00281032
7.3333e-07
-4.29006e-05
6.48993e-06
-9.18872e-05
2.00011e-05
-0.00011204
4.34881e-05
-0.000109045
7.88502e-05
-8.72873e-05
0.000127752
-5.01666e-05
0.000191653
-3.25558e-07
0.000271805
6.01354e-05
0.000369219
0.000129472
0.000484632
0.000206153
0.000618482
0.000288765
0.000770902
0.000375949
0.000941739
0.000466381
0.0011306
0.000558777
0.00133694
0.000651946
0.00156011
0.000744866
0.00179945
0.0008368
0.00205429
0.00092742
0.00232365
0.00101688
0.00109844
0.00260488
1.9531e-07
-4.30959e-05
3.96004e-06
-9.56519e-05
1.37461e-05
-0.000121826
3.15395e-05
-0.000126839
5.90316e-05
-0.000114779
9.7712e-05
-8.8847e-05
0.000148918
-5.15313e-05
0.000213848
-4.79461e-06
0.000293557
4.97626e-05
0.000388941
0.000110769
0.000500728
0.000176978
0.000629482
0.000247195
0.000775638
0.000320225
0.000939578
0.000394837
0.00112177
0.000469759
0.00132295
0.000543678
0.00154452
0.000615233
0.00178896
0.000682983
0.00205987
0.000745962
0.000803041
0.00235527
-2.58586e-07
-4.28373e-05
1.79826e-06
-9.77087e-05
8.36286e-06
-0.000128391
2.11992e-05
-0.000139675
4.17924e-05
-0.000135372
7.14404e-05
-0.000118495
0.00011131
-9.14013e-05
0.000162465
-5.5949e-05
0.000225869
-1.36413e-05
0.000302387
3.42508e-05
0.000392779
8.65856e-05
0.00049771
0.000142264
0.000617781
0.000200154
0.000753608
0.00025901
0.000905991
0.000317375
0.00107623
0.000373443
0.00126668
0.000424782
0.0014821
0.000467563
0.0017336
0.000494462
0.000491793
0.00204484
-6.4941e-07
-4.21879e-05
-6.67778e-08
-9.82914e-05
3.70847e-06
-0.000132166
1.22393e-05
-0.000148206
2.6819e-05
-0.000149952
4.85571e-05
-0.000140233
7.84355e-05
-0.00012128
0.000117339
-9.48524e-05
0.000166065
-6.23678e-05
0.000225323
-2.50073e-05
0.00029572
1.61894e-05
0.000377741
6.02434e-05
0.000471731
0.000106164
0.000577858
0.000152882
0.000696057
0.000199177
0.000825899
0.000243601
0.000966293
0.000284389
0.00111451
0.000319343
0.00126297
0.000346002
0.000366088
0.00138868
-9.93166e-07
-4.11947e-05
-1.68977e-06
-9.75948e-05
-3.28612e-07
-0.000133527
4.4782e-06
-0.000153013
1.38553e-05
-0.000159329
2.87422e-05
-0.00015512
4.9946e-05
-0.000142483
7.81728e-05
-0.000123079
0.000114039
-9.82337e-05
0.000158065
-6.90339e-05
0.000210662
-3.64074e-05
0.000272095
-1.18961e-06
0.00034244
3.58193e-05
0.000421516
7.38067e-05
0.000508786
0.000111907
0.000603229
0.000149157