/*--------------------------------*- C++ -*----------------------------------*\
  =========                 |
  \\      /  F ield         | OpenFOAM: The Open Source CFD Toolbox
   \\    /   O peration     | Website:  https://openfoam.org
    \\  /    A nd           | Version:  6.0
     \\/     M anipulation  |
\*---------------------------------------------------------------------------*/
FoamFile
{
    version     2.0;
    format      ascii;
    class       volVectorField;
    location    "47";
    object      U;
}
// * * * * * * * * * * * * * * * * * * * * * * * * * * * * * * * * * * * * * //

dimensions      [0 1 -1 0 0 0 0];

internalField   nonuniform List<vector> 
4000
(
(-0.000395976 -0.000328178 -3.20129e-21)
(-0.00223645 -0.000741004 1.71092e-20)
(-0.00567931 -0.00101856 -2.08072e-20)
(-0.00992076 -0.00120755 1.58432e-20)
(-0.0145342 -0.00134282 7.71431e-21)
(-0.019274 -0.00144958 -2.31628e-20)
(-0.0239639 -0.00154424 -2.04746e-21)
(-0.02849 -0.00163661 -7.27098e-22)
(-0.0327894 -0.00173153 -1.20182e-20)
(-0.0368371 -0.00183014 -6.51034e-21)
(-0.0406359 -0.0019309 4.85645e-21)
(-0.0442088 -0.00203053 1.84618e-20)
(-0.0475924 -0.00212467 -1.38504e-21)
(-0.050832 -0.00220852 1.97458e-21)
(-0.053978 -0.00227726 -1.85862e-20)
(-0.0570895 -0.00232651 1.14501e-20)
(-0.0602262 -0.00235243 -1.64035e-20)
(-0.0633743 -0.00235049 2.48178e-20)
(-0.0664251 -0.00231467 -2.76453e-23)
(-0.0698952 -0.00225078 5.34967e-21)
(-0.000443821 0.000624728 1.06264e-20)
(-0.00236884 0.00164728 -5.42852e-20)
(-0.00588552 0.00238335 -3.74887e-20)
(-0.0101844 0.00287478 -2.5461e-20)
(-0.0148374 0.00315846 -3.27468e-20)
(-0.0195989 0.0032697 7.21895e-21)
(-0.0242935 0.00324497 -3.77986e-20)
(-0.0288082 0.00311991 -8.48768e-21)
(-0.033081 0.00292829 2.68747e-21)
(-0.0370881 0.00270153 2.8258e-20)
(-0.0408332 0.00246844 -3.08098e-20)
(-0.0443401 0.00225483 4.28501e-20)
(-0.0476468 0.00208318 -3.2081e-20)
(-0.0507996 0.00197238 -3.8037e-20)
(-0.0538503 0.00193745 -5.24094e-20)
(-0.0568596 0.00198907 3.3475e-20)
(-0.0598892 0.00213371 -1.08103e-20)
(-0.0629266 0.002378 -3.93887e-20)
(-0.0658629 0.00273136 3.72486e-20)
(-0.0692171 0.00316636 -2.76048e-20)
(-0.000568448 0.00157979 1.03788e-19)
(-0.0026945 0.00403539 5.37514e-20)
(-0.0063677 0.00577807 6.04447e-20)
(-0.0107771 0.00694024 5.02665e-21)
(-0.0154967 0.00763162 3.34052e-20)
(-0.0202847 0.00794852 4.17176e-20)
(-0.0249694 0.00798045 -7.57423e-20)
(-0.0294412 0.00780844 -4.01198e-20)
(-0.0336412 0.0075047 -5.22172e-20)
(-0.0375479 0.00713321 5.57786e-20)
(-0.0411674 0.00675014 -4.25887e-20)
(-0.0445256 0.00640408 -5.47582e-20)
(-0.0476626 0.00613615 -1.99171e-20)
(-0.0506274 0.00597998 1.89387e-20)
(-0.0534746 0.00596158 -5.26042e-21)
(-0.0562682 0.00609868 7.6056e-21)
(-0.0590737 0.00640116 8.78413e-20)
(-0.0618823 0.00687834 -1.23417e-20)
(-0.0645844 0.00754382 -8.92529e-20)
(-0.0677044 0.00834832 1.17498e-19)
(-0.000770533 0.00253302 3.60633e-20)
(-0.00321418 0.00641114 -5.10166e-20)
(-0.00712575 0.00914535 -1.27956e-20)
(-0.0116973 0.0109608 2.38828e-20)
(-0.0165093 0.0120413 6.78664e-20)
(-0.0213275 0.0125442 1.48612e-19)
(-0.0259872 0.0126121 1.45195e-19)
(-0.0303846 0.0123709 1.20406e-20)
(-0.0344659 0.0119309 8.9017e-20)
(-0.0382137 0.0113884 1.36231e-19)
(-0.0416372 0.010827 -1.0886e-19)
(-0.0447655 0.0103186 1.61083e-19)
(-0.0476421 0.00992365 -3.64122e-20)
(-0.0503194 0.00969174 9.21447e-21)
(-0.0528563 0.00966127 3.80576e-20)
(-0.0553218 0.00985856 5.05463e-20)
(-0.0577877 0.0102982 -7.95483e-20)
(-0.0602504 0.0109936 -6.63495e-20)
(-0.0626001 0.0119641 -1.17407e-19)
(-0.0653702 0.0131381 1.70735e-19)
(-0.00105063 0.00348048 -1.88481e-20)
(-0.00392782 0.00876234 -1.929e-19)
(-0.00815773 0.0124651 -5.70549e-20)
(-0.0129406 0.0149093 -1.39043e-19)
(-0.0178685 0.0163536 5.25339e-20)
(-0.0227186 0.0170169 -8.28864e-20)
(-0.0273368 0.0170938 2.84612e-20)
(-0.031628 0.0167546 -1.75505e-19)
(-0.0355453 0.0161468 9.25519e-20)
(-0.0390765 0.0153986 -1.10397e-19)
(-0.0422355 0.0146209 -9.81702e-20)
(-0.0450551 0.0139092 -1.09856e-19)
(-0.0475827 0.0133446 9.97225e-20)
(-0.0498752 0.0129941 -8.9468e-20)
(-0.0519969 0.0129108 1.24612e-19)
(-0.0540234 0.0131318 3.59957e-20)
(-0.0560349 0.0136788 8.90608e-20)
(-0.0580356 0.0145714 3.90769e-20)
(-0.0599165 0.0158371 -1.54677e-19)
(-0.062224 0.0173823 2.51732e-19)
(-0.00140909 0.0044182 8.29737e-20)
(-0.00483416 0.0110766 6.4246e-21)
(-0.00945905 0.0157173 3.41922e-20)
(-0.0144985 0.0187592 1.19348e-19)
(-0.0195615 0.0205367 -1.83091e-20)
(-0.0244417 0.0213299 1.9378e-19)
(-0.0289993 0.0213848 8.59616e-20)
(-0.0331508 0.0209142 7.22011e-21)
(-0.0368582 0.0201019 2.21051e-19)
(-0.0401162 0.0191066 7.2402e-20)
(-0.0429437 0.0180664 3.43276e-20)
(-0.0453779 0.0171008 1.09006e-19)
(-0.0474704 0.0163124 9.9882e-20)
(-0.0492831 0.015788 1.82282e-19)
(-0.0508864 0.0155978 -1.6292e-19)
(-0.0523642 0.0157932 2.30164e-19)
(-0.0538073 0.0164065 2.92168e-21)
(-0.0552302 0.017467 -2.9403e-19)
(-0.0565266 0.0190143 3.80974e-19)
(-0.0582622 0.0209331 1.57928e-19)
(-0.00184592 0.00534194 -4.89016e-20)
(-0.00593012 0.0133408 -8.87133e-20)
(-0.0110212 0.0188815 -1.84713e-19)
(-0.0163561 0.0224844 -5.47682e-21)
(-0.0215671 0.0245607 3.14832e-20)
(-0.0264698 0.025451 -2.35885e-19)
(-0.0309428 0.0254507 -1.74983e-19)
(-0.0349176 0.0248138 -2.50418e-20)
(-0.0383671 0.0237578 -2.21289e-19)
(-0.0412942 0.0224709 -1.53168e-19)
(-0.0437235 0.0211167 -4.46369e-20)
(-0.0456968 0.0198387 -1.43686e-19)
(-0.0472699 0.0187623 -2.35056e-21)
(-0.0485095 0.0179959 -1.90709e-19)
(-0.0494928 0.0176306 8.02069e-20)
(-0.0503128 0.0177364 -9.15087e-20)
(-0.051073 0.0183611 7.00038e-20)
(-0.0518017 0.0195492 -8.91946e-20)
(-0.0523978 0.0213583 -2.54512e-19)
(-0.0534543 0.023653 -7.73338e-20)
(-0.00236051 0.00624684 -1.79467e-20)
(-0.00721004 0.0155406 -1.95015e-20)
(-0.0128306 0.0219361 1.54822e-19)
(-0.0184904 0.0260587 -2.51888e-19)
(-0.0238528 0.0283973 3.69582e-20)
(-0.0287612 0.0293514 -1.4547e-19)
(-0.0331174 0.0292643 6.87816e-20)
(-0.0368713 0.0284281 3.08997e-19)
(-0.0400094 0.0270914 -1.984e-20)
(-0.0425441 0.0254688 -2.30421e-19)
(-0.0445063 0.023748 4.1919e-20)
(-0.0459424 0.0220954 8.12423e-21)
(-0.0469117 0.0206594 -4.72165e-20)
(-0.0474853 0.0195723 4.85577e-21)
(-0.0477468 0.0189495 4.15101e-19)
(-0.047799 0.0188855 -5.91674e-20)
(-0.0477602 0.0194501 -1.15197e-19)
(-0.0476753 0.0207108 -2.06497e-19)
(-0.0474527 0.0227525 2.10692e-19)
(-0.0477241 0.0254233 9.09487e-20)
(-0.00295127 0.00712693 9.08025e-20)
(-0.00866468 0.0176594 -1.18754e-19)
(-0.0148665 0.0248573 1.67923e-19)
(-0.0208678 0.0294549 1.69055e-19)
(-0.0263714 0.0320186 1.55867e-19)
(-0.031255 0.033006 3.16083e-19)
(-0.0354492 0.0328053 2.04372e-19)
(-0.0389261 0.031743 -4.39098e-19)
(-0.0416887 0.0300956 2.24518e-19)
(-0.0437604 0.0281002 1.76119e-19)
(-0.0451796 0.0259655 -2.47318e-21)
(-0.0459967 0.0238784 1.97023e-19)
(-0.0462739 0.0220095 1.5353e-19)
(-0.0460858 0.0205162 -8.35733e-20)
(-0.045521 0.0195418 2.821e-19)
(-0.0446921 0.0192111 -3.49701e-19)
(-0.0437336 0.0196248 1.39872e-19)
(-0.0427099 0.0208845 1.79809e-19)
(-0.0415442 0.0231158 -4.193e-20)
(-0.0409223 0.0261573 3.61611e-19)
(-0.00361519 0.00797467 1.82262e-19)
(-0.0102801 0.0196774 9.45691e-21)
(-0.0170998 0.0276181 -6.54557e-20)
(-0.0234417 0.0326428 -6.91824e-20)
(-0.0290575 0.035396 -3.20288e-19)
(-0.0338668 0.0363912 4.53341e-20)
(-0.0378344 0.0360584 1.28485e-19)
(-0.0409592 0.0347551 -6.17671e-20)
(-0.0432639 0.0327804 5.09456e-20)
(-0.0447855 0.0303897 -1.35494e-20)
(-0.0455705 0.0278078 -6.6544e-20)
(-0.0456739 0.0252381 6.313e-20)
(-0.0451601 0.0228707 -2.7444e-19)
(-0.0441054 0.0208872 2.6305e-19)
(-0.042602 0.0194612 -2.27729e-19)
(-0.0407709 0.0187537 7.03783e-20)
(-0.0387632 0.0189062 1.59901e-19)
(-0.0366654 0.0200689 -3.33729e-20)
(-0.0344212 0.0224276 -1.10626e-19)
(-0.0327916 0.0258243 -7.53096e-20)
(-0.00434729 0.0087806 -2.26976e-19)
(-0.0120364 0.0215708 -1.49952e-20)
(-0.019491 0.0301867 4.78149e-20)
(-0.0261502 0.0355883 1.23012e-19)
(-0.0318251 0.0384975 -1.73668e-19)
(-0.0364844 0.0394824 -1.51552e-19)
(-0.0401335 0.0390113 3.53688e-19)
(-0.0428028 0.0374683 -1.95443e-19)
(-0.0445388 0.0351703 -1.26044e-19)
(-0.0453947 0.0323855 -1.80779e-19)
(-0.0454275 0.0293484 1.19645e-19)
(-0.0446977 0.0262731 -3.31077e-21)
(-0.0432718 0.0233638 -2.23358e-19)
(-0.0412264 0.0208223 -3.65118e-19)
(-0.0386552 0.018852 2.78126e-19)
(-0.0356855 0.0176537 -2.25149e-19)
(-0.032484 0.0174196 3.19195e-19)
(-0.0291605 0.018366 -8.95004e-20)
(-0.0256843 0.0207659 1.87615e-19)
(-0.0229195 0.0244857 -6.38569e-19)
(-0.00514011 0.00953314 -4.59531e-19)
(-0.013907 0.0233117 3.01454e-19)
(-0.0219892 0.0325261 4.10097e-20)
(-0.0289149 0.0382512 7.93226e-21)
(-0.0345648 0.041286 -1.86008e-19)
(-0.0389646 0.0422508 2.73536e-19)
(-0.0421663 0.0416497 2.98499e-20)
(-0.0442371 0.0398892 -5.60788e-20)
(-0.0452515 0.0372993 -1.79937e-19)
(-0.0452829 0.0341547 1.94489e-19)
(-0.0444019 0.030693 4.92862e-19)
(-0.0426769 0.027131 -1.08905e-19)
(-0.0401779 0.0236785 2.4586e-19)
(-0.0369818 0.0205499 -2.90286e-19)
(-0.0331821 0.0179724 -2.78155e-19)
(-0.0289098 0.0161857 1.67311e-19)
(-0.024345 0.0154387 2.76119e-19)
(-0.0196196 0.0160324 -8.94374e-19)
(-0.0147307 0.0183616 1.05182e-19)
(-0.010681 0.02235 1.42972e-19)
(-0.0059834 0.0102188 3.40254e-19)
(-0.0158575 0.0248677 1.11984e-19)
(-0.0245313 0.0345934 5.83662e-19)
(-0.0316394 0.0405846 3.00573e-20)
(-0.0371427 0.0437162 -6.492e-20)
(-0.0411311 0.0446596 -3.0918e-19)
(-0.043709 0.043952 2.62938e-19)
(-0.0449855 0.0420195 4.71643e-19)
(-0.0450675 0.0392012 3.14124e-19)
(-0.0440533 0.035773 2.26705e-19)
(-0.0420317 0.031969 1.95333e-19)
(-0.0390834 0.0279999 -3.50776e-19)
(-0.0352856 0.0240704 -1.09812e-19)
(-0.0307183 0.020395 -8.07944e-20)
(-0.0254754 0.0172126 8.65889e-19)
(-0.0196897 0.0147918 -3.12503e-21)
(-0.0135521 0.013436 -2.15529e-19)
(-0.00721238 0.0135437 -6.7623e-20)
(-0.000691525 0.015672 6.18016e-19)
(0.00482874 0.0198482 8.08172e-20)
(-0.00686393 0.0108226 -1.67438e-20)
(-0.0178458 0.0262031 -3.22103e-19)
(-0.0270415 0.0363404 -4.79388e-19)
(-0.0342093 0.0425339 -1.33451e-19)
(-0.0394003 0.0457335 7.36951e-20)
(-0.0427743 0.0466605 1.58813e-20)
(-0.0444935 0.0458839 4.20721e-19)
(-0.0447129 0.0438477 -5.21775e-19)
(-0.0435764 0.0408978 -1.98451e-19)
(-0.0412121 0.0373088 -3.99771e-19)
(-0.0377323 0.0333062 -3.40349e-19)
(-0.033237 0.0290872 -3.01197e-19)
(-0.0278178 0.0248403 7.5299e-20)
(-0.0215644 0.0207649 -9.76804e-20)
(-0.0145765 0.0170921 4.18272e-19)
(-0.00699126 0.0140985 -2.29404e-19)
(0.000990729 0.0121239 -7.18025e-19)
(0.00920788 0.0116618 -1.44454e-19)
(0.0176311 0.0134682 3.53925e-19)
(0.0248618 0.017732 -3.09168e-19)
(-0.00776567 0.0113292 -5.42904e-20)
(-0.0198223 0.0272801 3.94113e-19)
(-0.0294321 0.0377147 -5.02779e-19)
(-0.0364931 0.0440383 1.16186e-19)
(-0.0411547 0.0472738 -2.39442e-19)
(-0.0436523 0.0481919 5.33401e-19)
(-0.0442086 0.0473935 -3.81163e-19)
(-0.0430283 0.0453403 4.35974e-19)
(-0.0402949 0.042386 -4.13358e-19)
(-0.0361706 0.0388036 1.76244e-19)
(-0.0307979 0.0348096 -8.55826e-20)
(-0.024304 0.0305846 -2.14638e-19)
(-0.0168057 0.0262931 -2.64982e-19)
(-0.00841546 0.0221056 2.63967e-19)
(0.000749055 0.0182226 -2.20919e-19)
(0.0105356 0.0148971 -4.82593e-19)
(0.0207273 0.0124661 5.02289e-19)
(0.0311544 0.0114864 -6.40199e-19)
(0.0418125 0.0129263 2.87833e-19)
(0.0510694 0.0171914 7.99442e-21)
(-0.0086703 0.011724 -4.92656e-19)
(-0.0217301 0.0280616 -5.32257e-19)
(-0.0316034 0.0386633 6.13075e-20)
(-0.0383419 0.0450334 -5.13598e-19)
(-0.0422003 0.048266 -4.57926e-20)
(-0.0434925 0.0491811 -3.77771e-19)
(-0.042504 0.0484117 -8.6668e-20)
(-0.0394896 0.0464393 -2.53239e-19)
(-0.0346744 0.0436283 2.19729e-21)
(-0.0282574 0.0402548 -1.10767e-19)
(-0.0204161 0.0365307 7.76191e-21)
(-0.0113142 0.0326239 -3.18794e-19)
(-0.00110674 0.0286761 3.51036e-19)
(0.0100533 0.0248229 -4.97917e-19)
(0.0220077 0.0212179 1.76218e-19)
(0.0345662 0.0180562 6.57397e-21)
(0.047473 0.0156154 -2.80294e-19)
(0.0605396 0.014441 6.9459e-19)
(0.0738344 0.015672 -1.65846e-19)
(0.0855329 0.019946 -1.08148e-19)
(-0.00955776 0.0119941 5.53298e-19)
(-0.0235062 0.0285134 2.98888e-19)
(-0.0334446 0.0391355 2.78085e-19)
(-0.0395901 0.0454561 4.15215e-20)
(-0.0423083 0.0486381 3.76175e-19)
(-0.041993 0.0495503 5.42171e-19)
(-0.0389925 0.0488585 4.43965e-19)
(-0.0336106 0.0470668 3.96114e-20)
(-0.0261132 0.044555 3.24889e-19)
(-0.0167362 0.0416097 5.0188e-19)
(-0.00569569 0.0384485 -1.30141e-19)
(0.00680181 0.0352386 2.18351e-19)
(0.0205497 0.0321116 1.76317e-19)
(0.0353341 0.0291788 1.79276e-19)
(0.0509272 0.0265484 1.05848e-18)
(0.0670633 0.0243406 -3.96641e-19)
(0.0834024 0.0227177 -2.41735e-20)
(0.0996895 0.0220975 4.59226e-19)
(0.116106 0.0236586 -2.60313e-19)
(0.130795 0.0282005 1.29412e-19)
(-0.0104068 0.0121298 -4.47739e-19)
(-0.0250812 0.028607 2.88517e-20)
(-0.0348327 0.0390878 -3.58818e-19)
(-0.0400538 0.0452517 -4.67101e-20)
(-0.0412252 0.0483266 2.627e-19)
(-0.0388211 0.0492292 -7.81778e-19)
(-0.033251 0.048658 -4.17614e-22)
(-0.024865 0.0471418 3.6366e-19)
(-0.0139669 0.0450809 3.41612e-19)
(-0.00082777 0.0427807 -1.50382e-19)
(0.014298 0.040477 4.95061e-20)
(0.0311571 0.0383545 1.14895e-19)
(0.0494828 0.0365591 -5.44477e-20)
(0.0689815 0.0352083 -6.09147e-19)
(0.0893235 0.0343984 1.54246e-19)
(0.110118 0.0342025 4.23756e-19)
(0.130868 0.0346586 -6.03641e-19)
(0.151143 0.0359539 2.94395e-19)
(0.171219 0.0391231 7.89747e-20)
(0.189556 0.0449362 4.02084e-19)
(-0.0111954 0.0121248 -6.63293e-20)
(-0.026379 0.0283218 -3.14097e-19)
(-0.0356302 0.0384892 1.44459e-19)
(-0.0395268 0.0443818 5.54048e-22)
(-0.0386683 0.0472888 -6.30083e-19)
(-0.0336092 0.0481719 9.8295e-20)
(-0.0248178 0.047761 -1.86373e-20)
(-0.0126876 0.0466095 1.27128e-19)
(0.00244327 0.0451407 -5.81762e-19)
(0.0202714 0.0436844 -4.06148e-20)
(0.040507 0.0425053 -1.36386e-19)
(0.0628523 0.041823 1.21546e-19)
(0.0869795 0.0418272 4.09519e-19)
(0.112509 0.0426886 -6.33422e-20)
(0.138986 0.0445656 2.44557e-20)
(0.165838 0.047591 1.61024e-19)
(0.19229 0.0518173 -3.96903e-20)
(0.217503 0.0573433 3.24381e-19)
(0.241554 0.0651674 -1.88328e-19)
(0.263607 0.075626 -2.98502e-19)
(-0.0118998 0.011976 6.1392e-20)
(-0.0273148 0.0276466 1.48509e-20)
(-0.0356823 0.0373246 1.26029e-19)
(-0.0377765 0.0428325 3.08697e-19)
(-0.0343198 0.0455153 1.73184e-19)
(-0.025948 0.0463757 1.80721e-20)
(-0.0131872 0.0461709 -2.06763e-19)
(0.00352678 0.0454757 5.30178e-20)
(0.0238222 0.0447336 2.7851e-19)
(0.0473648 0.0442971 -4.71857e-19)
(0.0738332 0.0444593 3.55898e-19)
(0.102894 0.0454787 -2.68014e-19)
(0.134181 0.0476009 2.27269e-19)
(0.167269 0.0510814 -4.89947e-19)
(0.201643 0.0562097 5.38693e-19)
(0.236636 0.0633214 -5.76112e-19)
(0.271279 0.0727869 -1.49749e-19)
(0.304248 0.08525 4.70674e-19)
(0.334448 0.102584 -1.58747e-19)
(0.359219 0.124179 7.2007e-20)
(-0.0124939 0.0116833 -4.65687e-20)
(-0.0277922 0.0265799 4.39212e-19)
(-0.0348116 0.0355989 -1.88299e-21)
(-0.034537 0.0406218 -2.72581e-19)
(-0.0278202 0.0430425 -1.83375e-19)
(-0.015381 0.0438992 3.35833e-19)
(0.00219286 0.04397 -1.33021e-19)
(0.024418 0.0438432 -1.67694e-20)
(0.050881 0.043973 2.76846e-19)
(0.0812071 0.0447216 -3.4399e-19)
(0.115034 0.0463914 3.76106e-20)
(0.151991 0.0492523 -4.46661e-19)
(0.19169 0.0535678 2.35062e-19)
(0.23372 0.0596251 -6.72543e-19)
(0.277656 0.0677759 1.07143e-18)
(0.323068 0.0784898 -1.96039e-19)
(0.369568 0.0924825 2.05693e-19)
(0.417122 0.111279 -5.34068e-19)
(0.466286 0.137819 1.86894e-21)
(0.509719 0.166885 6.19602e-19)
(-0.012947 0.011248 -1.41277e-19)
(-0.0276989 0.0251294 1.22132e-19)
(-0.0328134 0.0333382 -4.49079e-19)
(-0.0295048 0.0378033 6.64082e-19)
(-0.0187639 0.03996 -4.79364e-19)
(-0.00140285 0.0408746 2.46737e-20)
(0.0219178 0.041337 -5.1652e-19)
(0.0506494 0.0419382 3.69188e-19)
(0.0843121 0.0431281 -5.28113e-20)
(0.122457 0.0452559 -3.25504e-19)
(0.164639 0.048601 -1.89739e-19)
(0.210402 0.0533956 2.00494e-19)
(0.259277 0.0598438 1.32538e-19)
(0.310792 0.0681395 -5.86848e-19)
(0.364505 0.0784832 2.11801e-19)
(0.420044 0.091094 -3.12791e-19)
(0.47718 0.106235 3.77134e-20)
(0.536071 0.124428 -2.67761e-19)
(0.597692 0.146824 1.13275e-19)
(0.654803 0.168578 -4.06866e-19)
(-0.0132211 0.0106721 4.02111e-19)
(-0.0269033 0.0233115 -2.43291e-19)
(-0.0294521 0.0305902 2.00476e-19)
(-0.0223363 0.0344691 -2.53066e-19)
(-0.00670078 0.0364142 4.244e-19)
(0.0165339 0.0375112 -7.55264e-21)
(0.0466108 0.0385513 -5.16263e-20)
(0.0828822 0.0401142 -3.82581e-20)
(0.124755 0.0426266 2.35384e-19)
(0.171647 0.0464006 3.99936e-19)
(0.222959 0.0516604 -2.36279e-19)
(0.278066 0.0585605 2.29509e-19)
(0.336317 0.0671985 4.19192e-19)
(0.39706 0.0776237 -2.94006e-19)
(0.459677 0.0898406 -5.98117e-19)
(0.52362 0.103802 1.09473e-18)
(0.588458 0.119389 -1.95408e-19)
(0.653967 0.136465 -6.4015e-20)
(0.720486 0.155391 6.95622e-19)
(0.782491 0.174606 -1.44893e-19)
(-0.0132693 0.00995753 -6.55334e-19)
(-0.0252512 0.0211507 -4.36254e-19)
(-0.0244606 0.0274242 -1.67471e-19)
(-0.0126521 0.0307482 3.22937e-19)
(0.00885269 0.0326054 -7.28672e-19)
(0.0389966 0.0340896 3.77078e-19)
(0.0768863 0.0359793 4.77513e-20)
(0.12172 0.0388247 4.81584e-20)
(0.172721 0.0430065 -4.93304e-19)
(0.229091 0.048771 -1.74165e-19)
(0.289986 0.0562546 -3.06801e-19)
(0.354513 0.0654999 2.96182e-19)
(0.421748 0.0764675 8.41243e-20)
(0.490767 0.089045 1.64227e-20)
(0.560688 0.10305 3.8724e-19)
(0.630709 0.118229 -3.9179e-19)
(0.700136 0.134242 -1.64881e-20)
(0.76842 0.150681 9.12949e-21)
(0.835329 0.167446 5.28413e-20)
(0.897554 0.185652 3.1091e-19)
(-0.0130334 0.00910684 2.08784e-19)
(-0.0225651 0.0186804 5.37787e-19)
(-0.0175431 0.0239311 4.31595e-19)
(-4.63549e-05 0.0268049 -1.48654e-19)
(0.0283926 0.0287821 5.16589e-19)
(0.0665357 0.0309489 -4.34769e-20)
(0.113292 0.0340509 -6.12786e-20)
(0.167624 0.0385838 3.64516e-20)
(0.22848 0.0448509 4.98471e-19)
(0.294743 0.0529972 2.92671e-19)
(0.365224 0.0630341 8.53971e-20)
(0.438677 0.0748582 5.21493e-21)
(0.513838 0.0882696 -5.67135e-19)
(0.589478 0.102988 4.92633e-19)
(0.664449 0.118666 8.48715e-20)
(0.737734 0.1349 -1.39256e-19)
(0.808474 0.151236 -6.07875e-19)
(0.875983 0.167195 -5.23713e-20)
(0.939758 0.182347 2.41834e-19)
(0.99862 0.199616 -5.02552e-20)
(-0.0124442 0.00812397 -5.30671e-19)
(-0.0186458 0.0159451 2.22012e-19)
(-0.00838238 0.0202242 -1.08312e-18)
(0.0158958 0.0228371 4.4322e-19)
(0.0523967 0.0252349 -3.53355e-19)
(0.0996352 0.0284725 2.60474e-19)
(0.156234 0.0332336 -4.04211e-19)
(0.220818 0.0399227 3.71321e-20)
(0.291943 0.048724 -2.07535e-20)
(0.368065 0.0596363 1.08451e-19)
(0.447563 0.0725038 1.56675e-19)
(0.528785 0.0870446 -2.96191e-19)
(0.610116 0.102881 1.56675e-19)
(0.690058 0.119571 1.4409e-19)
(0.767289 0.136634 6.24319e-19)
(0.84071 0.153573 -2.70693e-19)
(0.909467 0.169901 -1.81275e-19)
(0.972966 0.185174 3.05441e-19)
(1.03075 0.198824 1.64973e-19)
(1.08312 0.21468 -3.07521e-19)
(-0.0114213 0.00701667 4.65437e-19)
(-0.0132769 0.0130037 4.48819e-19)
(0.00334809 0.0164418 1.2919e-19)
(0.035576 0.0190758 5.44379e-19)
(0.081287 0.0222895 2.67138e-19)
(0.138657 0.0270724 -4.81307e-19)
(0.205906 0.0340036 7.28575e-19)
(0.281193 0.0433466 -3.58432e-19)
(0.362561 0.0551117 3.57493e-19)
(0.447945 0.0690997 4.62378e-19)
(0.535239 0.084945 -2.64151e-19)
(0.62239 0.102163 5.01485e-20)
(0.707504 0.120197 2.79966e-19)
(0.788934 0.138466 1.97457e-19)
(0.865351 0.156403 4.55836e-19)
(0.935772 0.173487 -1.81755e-19)
(0.999565 0.189264 -2.18791e-20)
(1.05643 0.203391 2.90035e-19)
(1.10621 0.21535 -6.20374e-20)
(1.15012 0.229162 4.59969e-22)
(-0.00987553 0.00579902 -2.40406e-19)
(-0.0062318 0.0099345 -8.83513e-19)
(0.0179694 0.012751 2.07901e-19)
(0.0593561 0.0157845 -1.582e-19)
(0.115389 0.0203004 -3.64796e-19)
(0.183782 0.0271733 -2.59965e-19)
(0.262215 0.0368188 -1.60519e-19)
(0.348242 0.049294 3.90015e-19)
(0.439283 0.0643717 -2.31548e-19)
(0.532698 0.0816012 -2.36788e-19)
(0.625912 0.100375 -2.99709e-19)
(0.716564 0.12 -4.95089e-20)
(0.802632 0.139766 -3.33488e-20)
(0.882523 0.159002 -6.9397e-19)
(0.955123 0.177124 3.37248e-19)
(1.01978 0.193659 -4.4339e-19)
(1.07628 0.208261 1.40231e-19)
(1.12476 0.220729 -1.06713e-18)
(1.16555 0.230739 3.21388e-19)
(1.20027 0.242014 4.09551e-19)
(-0.00771166 0.0044943 -6.02836e-20)
(0.0027165 0.00683975 4.31756e-19)
(0.0357787 0.00935074 2.76258e-20)
(0.0875288 0.0132591 6.65157e-20)
(0.154889 0.0196431 -1.35199e-19)
(0.234964 0.0291945 -2.11481e-21)
(0.324737 0.0420889 -3.3518e-21)
(0.421029 0.0580993 -8.12156e-20)
(0.520569 0.0766944 2.88148e-19)
(0.620161 0.09713 1.11493e-19)
(0.716869 0.118548 5.05567e-19)
(0.808205 0.140072 -1.38049e-19)
(0.892252 0.160895 9.63797e-20)
(0.967721 0.180335 -1.26764e-20)
(1.03394 0.197872 2.6711e-19)
(1.09077 0.213161 1.63892e-19)
(1.13855 0.22602 3.96165e-19)
(1.1779 0.236421 -6.4057e-19)
(1.20965 0.244289 8.07614e-19)
(1.23559 0.252821 -2.56271e-19)
(-0.0048323 0.00313735 -5.6384e-19)
(0.0137842 0.00384982 -1.75605e-19)
(0.0570295 0.00647448 1.37515e-19)
(0.120288 0.0118244 8.66298e-20)
(0.199798 0.0207027 8.83557e-20)
(0.291887 0.0335295 8.9737e-20)
(0.39269 0.0501473 -2.24214e-19)
(0.498203 0.0699618 -9.26898e-20)
(0.604477 0.0920817 2.87921e-20)
(0.707869 0.115453 -2.74243e-19)
(0.805292 0.138993 -1.23997e-19)
(0.894396 0.161709 7.50111e-19)
(0.973642 0.182783 -1.93389e-19)
(1.04229 0.201618 -2.67134e-19)
(1.10028 0.217843 -1.27193e-19)
(1.14811 0.231302 8.78595e-20)
(1.18667 0.242015 1.07705e-19)
(1.21706 0.250132 -5.16525e-19)
(1.24049 0.255816 7.48658e-19)
(1.25878 0.261684 -6.49578e-19)
(-0.00114202 0.0017764 -6.41609e-20)
(0.0271641 0.0011254 1.84298e-20)
(0.08191 0.00438923 -2.31885e-20)
(0.157698 0.0118281 3.4026e-19)
(0.249919 0.023859 1.8502e-20)
(0.353946 0.0405218 1.24722e-19)
(0.464945 0.0612227 -2.58743e-19)
(0.578075 0.0849243 -9.40549e-21)
(0.688813 0.110346 3.59037e-19)
(0.793295 0.136146 4.99937e-20)
(0.888575 0.161091 -3.12719e-19)
(0.972744 0.184171 -2.73486e-20)
(1.0449 0.204663 -2.57154e-19)
(1.10504 0.222149 2.55968e-19)
(1.15381 0.236476 3.56132e-19)
(1.19234 0.247714 -3.92927e-20)
(1.22201 0.256087 -4.80494e-20)
(1.24428 0.261905 1.46407e-19)
(1.26058 0.265512 -4.7173e-19)
(1.27266 0.269001 4.15151e-19)
(0.00344794 0.000474002 6.40136e-20)
(0.0430122 -0.00114251 -4.14095e-19)
(0.110522 0.00339133 1.10917e-19)
(0.199673 0.0136286 -3.42984e-19)
(0.304826 0.0294665 1.17822e-19)
(0.420248 0.0504399 -4.37375e-19)
(0.540082 0.0754176 1.76232e-19)
(0.658731 0.102868 -5.59857e-20)
(0.771327 0.131133 -2.22013e-21)
(0.874102 0.15866 5.72746e-20)
(0.964587 0.184171 -2.08983e-19)
(1.0416 0.206761 -2.98239e-19)
(1.10508 0.225912 -6.11808e-20)
(1.15583 0.241456 -2.7457e-20)
(1.1952 0.253498 -6.97607e-20)
(1.22486 0.262334 -2.27511e-20)
(1.24653 0.268368 -6.81235e-20)
(1.26188 0.272027 -5.91244e-20)
(1.27241 0.273776 -1.76226e-19)
(1.27976 0.275267 2.7981e-19)
(0.00901481 -0.000693013 1.54791e-19)
(0.0614342 -0.00273547 -1.71779e-19)
(0.142863 0.00379784 3.69396e-19)
(0.245952 0.0175788 -1.59163e-19)
(0.363861 0.0378314 4.25246e-19)
(0.489648 0.0634545 5.84952e-21)
(0.61647 0.0926974 2.1322e-19)
(0.738188 0.123525 -5.6837e-20)
(0.849918 0.153972 2.37874e-19)
(0.94836 0.182389 1.72176e-20)
(1.03184 0.207597 5.66098e-19)
(1.10014 0.228913 -3.90863e-19)
(1.15411 0.24611 5.26671e-20)
(1.19535 0.259315 1.00481e-19)
(1.22579 0.268889 5.26562e-19)
(1.24749 0.275327 -1.8919e-19)
(1.26236 0.279164 -3.75514e-20)
(1.27211 0.280901 -1.98992e-19)
(1.27819 0.281059 -2.09801e-20)
(1.28206 0.280946 9.96331e-20)
(0.0156192 -0.00163451 -7.46299e-20)
(0.0824726 -0.00341315 2.15053e-19)
(0.178806 0.00593409 -2.19474e-19)
(0.296094 0.0240066 8.69608e-20)
(0.426151 0.049189 -1.03296e-19)
(0.560803 0.0796226 3.79701e-19)
(0.692391 0.112894 -5.26354e-20)
(0.814558 0.146514 1.30199e-19)
(0.92281 0.17833 -7.64858e-20)
(1.01468 0.206754 -1.83753e-21)
(1.08957 0.23084 8.7483e-20)
(1.14828 0.250235 -6.76513e-20)
(1.19261 0.265052 1.75565e-19)
(1.2248 0.275713 -8.7457e-20)
(1.24724 0.282808 -3.852e-19)
(1.26214 0.286981 3.82983e-19)
(1.27148 0.288848 -1.72614e-19)
(1.27688 0.288933 1.378e-19)
(1.27965 0.287772 2.39049e-19)
(1.28106 0.286404 9.80787e-20)
(0.0233001 -0.00224901 1.8555e-19)
(0.106095 -0.0029215 -3.82186e-19)
(0.218096 0.0101181 7.32033e-20)
(0.349479 0.0331939 -5.29782e-20)
(0.490638 0.0636844 -2.13027e-19)
(0.632258 0.0988818 -1.67036e-19)
(0.766159 0.135723 -3.27558e-20)
(0.886192 0.17138 -2.97442e-19)
(0.98867 0.203677 -1.79523e-20)
(1.07228 0.231251 -5.51653e-20)
(1.13761 0.253518 -1.49763e-19)
(1.18655 0.270515 -3.32838e-20)
(1.22165 0.282707 -1.14577e-19)
(1.24567 0.290783 -1.91087e-19)
(1.26122 0.295511 1.95612e-19)
(1.27056 0.297629 2.69097e-20)
(1.27557 0.29778 5.36013e-20)
(1.2777 0.296475 -2.25209e-19)
(1.27809 0.294239 -5.69639e-21)
(1.27781 0.291897 -3.47006e-19)
(0.0320701 -0.00242657 2.03991e-19)
(0.132188 -0.00100305 1.35879e-19)
(0.260341 0.0166437 -2.18546e-19)
(0.405329 0.045357 3.41248e-19)
(0.556137 0.0813612 -3.66602e-20)
(0.702538 0.121058 1.27173e-19)
(0.836243 0.16082 4.39659e-20)
(0.95178 0.197647 1.55652e-19)
(1.04665 0.229533 -1.21844e-19)
(1.1209 0.255494 4.05091e-20)
(1.17635 0.275395 -3.89282e-20)
(1.21583 0.28969 -1.71312e-20)
(1.24251 0.299169 3.24962e-20)
(1.25944 0.30474 -5.98307e-20)
(1.26929 0.307285 -1.83349e-20)
(1.27422 0.307583 -5.61291e-20)
(1.27593 0.306263 -9.12349e-20)
(1.27567 0.303798 5.89319e-20)
(1.2744 0.300686 -8.0688e-20)
(1.27297 0.297579 3.48575e-19)
(0.0419112 -0.00205251 -1.02057e-19)
(0.160547 0.00259135 -2.88551e-19)
(0.305019 0.0257626 -3.83587e-20)
(0.462735 0.060631 -1.03075e-20)
(0.621403 0.102158 -1.28876e-19)
(0.770242 0.145882 -2.11293e-19)
(0.901354 0.187767 6.90869e-20)
(1.0104 0.224854 -9.48945e-20)
(1.09637 0.255497 -1.06249e-19)
(1.16073 0.279213 5.90905e-20)
(1.20648 0.296363 -4.46448e-20)
(1.23721 0.307805 -9.0166e-20)
(1.25649 0.314603 -2.94488e-21)
(1.26747 0.31782 6.10121e-20)
(1.27274 0.318397 -6.20338e-20)
(1.27428 0.317105 8.6129e-20)
(1.27355 0.314529 2.31978e-20)
(1.27159 0.311089 5.82981e-20)
(1.26917 0.307253 1.13395e-19)
(1.26698 0.303526 -9.70752e-20)
(0.0527721 -0.00101183 9.75674e-20)
(0.190882 0.00808998 -8.81567e-21)
(0.351495 0.0376693 4.35491e-20)
(0.5207 0.0790601 -5.92159e-20)
(0.685194 0.125913 4.79472e-21)
(0.834122 0.173015 2.04872e-19)
(0.960501 0.216137 -1.34593e-19)
(1.06152 0.25259 5.68414e-20)
(1.13782 0.281259 5.00271e-20)
(1.19229 0.302244 -1.40735e-19)
(1.2289 0.316407 1.32063e-19)
(1.25181 0.324967 1.13457e-21)
(1.26478 0.329196 -9.27626e-20)
(1.27092 0.330247 1.11753e-19)
(1.27261 0.329069 -4.42405e-20)
(1.27159 0.32639 3.38114e-20)
(1.2691 0.322734 -3.78565e-20)
(1.26596 0.318459 -1.5128e-20)
(1.26277 0.314011 -1.31886e-19)
(1.26008 0.309754 4.03011e-20)
(0.0645663 0.000805829 -3.30164e-20)
(0.222819 0.0156879 8.83313e-20)
(0.399042 0.052488 1.37269e-20)
(0.578187 0.100594 5.76329e-20)
(0.746344 0.152381 2.74173e-20)
(0.893137 0.202074 1.2846e-20)
(1.013 0.245512 7.28056e-20)
(1.10494 0.280504 -8.87318e-21)
(1.1713 0.306595 3.19905e-20)
(1.21625 0.324507 5.13617e-20)
(1.24455 0.335574 2.47201e-20)
(1.26069 0.341308 1.77079e-20)
(1.26843 0.343125 7.17458e-20)
(1.27072 0.342207 -6.94193e-20)
(1.26967 0.339468 1.48783e-20)
(1.26679 0.335572 -1.38436e-20)
(1.26305 0.330969 2.15211e-20)
(1.25911 0.325961 1.79964e-20)
(1.25543 0.320974 3.74446e-20)
(1.25243 0.316239 1.60269e-21)
(0.0771721 0.00350098 1.95671e-20)
(0.255907 0.0255354 1.78651e-20)
(0.446868 0.0702634 -2.46927e-20)
(0.634169 0.125089 1.54205e-20)
(0.803811 0.181245 8.68405e-21)
(0.946479 0.232655 -2.70127e-20)
(1.05846 0.275508 8.89676e-21)
(1.14074 0.308308 1.59534e-21)
(1.1973 0.331352 1.53018e-20)
(1.2334 0.345978 -4.09497e-20)
(1.25436 0.353936 -1.06868e-22)
(1.26477 0.35696 1.12878e-20)
(1.26829 0.35654 -8.99322e-21)
(1.26759 0.353838 9.09549e-21)
(1.26451 0.349703 2.36225e-20)
(1.26029 0.344722 -1.33948e-20)
(1.25569 0.339271 3.75452e-21)
(1.25124 0.333598 1.46135e-20)
(1.24726 0.328119 -2.4065e-20)
(1.24408 0.322929 1.15532e-20)
(0.077417 -0.00350972 5.31334e-20)
(0.256703 -0.0255919 -2.91765e-20)
(0.448204 -0.0703995 3.4404e-20)
(0.635954 -0.125294 -2.56045e-20)
(0.805903 -0.181481 -1.15679e-20)
(0.948727 -0.232878 3.57537e-21)
(1.06073 -0.275681 -1.14372e-20)
(1.14295 -0.308408 4.1318e-20)
(1.1994 -0.331368 -3.45498e-20)
(1.23538 -0.345911 7.89382e-21)
(1.25621 -0.353794 -6.0931e-21)
(1.26651 -0.356755 -3.98836e-20)
(1.26994 -0.356283 3.88173e-20)
(1.26916 -0.35354 1.50234e-20)
(1.26602 -0.349373 -1.44578e-20)
(1.26174 -0.344365 3.47151e-20)
(1.2571 -0.338891 -4.2571e-22)
(1.25261 -0.333199 -3.37876e-20)
(1.2486 -0.327703 2.47723e-20)
(1.24538 -0.322497 8.24765e-21)
(0.0647788 -0.000806913 -1.90733e-20)
(0.223544 -0.0157193 5.14145e-20)
(0.400298 -0.052587 6.00836e-20)
(0.579911 -0.100758 -2.9058e-20)
(0.748414 -0.152582 5.01664e-20)
(0.895406 -0.202274 8.13694e-20)
(1.01534 -0.245672 -4.61037e-21)
(1.10724 -0.280597 -1.46055e-20)
(1.1735 -0.306606 7.22376e-20)
(1.21832 -0.324433 3.56872e-20)
(1.24649 -0.33542 -6.67505e-21)
(1.2625 -0.341084 5.42752e-20)
(1.27014 -0.342843 -5.81668e-20)
(1.27234 -0.341878 9.31101e-20)
(1.27122 -0.339101 -1.51952e-20)
(1.26827 -0.335174 4.62944e-20)
(1.26448 -0.330547 9.05643e-21)
(1.2605 -0.325517 3.30322e-20)
(1.25679 -0.320511 -3.10167e-20)
(1.25375 -0.315759 8.62174e-21)
(0.0529519 0.00101609 -2.81835e-20)
(0.191532 -0.00810116 6.14604e-20)
(0.352659 -0.0377359 4.57508e-20)
(0.522344 -0.0791872 -7.28814e-21)
(0.687219 -0.126082 7.64481e-20)
(0.836394 -0.173192 -6.04566e-20)
(0.962885 -0.216285 -6.29829e-21)
(1.0639 -0.25268 5.43644e-20)
(1.14012 -0.281271 1.80926e-20)
(1.19447 -0.30217 2.52842e-20)
(1.23094 -0.316249 -3.72515e-20)
(1.25372 -0.324732 1.03819e-19)
(1.26657 -0.328896 2.01351e-20)
(1.2726 -0.329893 -9.14779e-20)
(1.27421 -0.328671 1.40725e-19)
(1.27312 -0.325957 -1.665e-19)
(1.27057 -0.322272 -7.91383e-20)
(1.26738 -0.317972 1.3559e-20)
(1.26416 -0.313504 7.62217e-20)
(1.26143 -0.309227 -1.44203e-19)
(0.0420585 0.00205982 -5.90248e-20)
(0.161118 -0.0025875 -1.3841e-19)
(0.306081 -0.0258022 -1.21974e-19)
(0.464281 -0.0607251 -1.66258e-19)