/*--------------------------------*- C++ -*----------------------------------*\
  =========                 |
  \\      /  F ield         | OpenFOAM: The Open Source CFD Toolbox
   \\    /   O peration     | Website:  https://openfoam.org
    \\  /    A nd           | Version:  6.0
     \\/     M anipulation  |
\*---------------------------------------------------------------------------*/
FoamFile
{
    version     2.0;
    format      ascii;
    class       surfaceScalarField;
    location    "85";
    object      phi;
}
// * * * * * * * * * * * * * * * * * * * * * * * * * * * * * * * * * * * * * //

dimensions      [0 3 -1 0 0 0 0];

internalField   nonuniform List<scalar> 
24700
(
-1.69613e-06
-6.14012e-05
6.30973e-05
-6.30938e-06
-0.000172111
0.000176724
-1.34977e-05
-0.000271223
0.000278412
-2.29003e-05
-0.000358595
0.000367997
-3.40715e-05
-0.000434695
0.000445867
-4.64636e-05
-0.000500616
0.000513008
-5.94471e-05
-0.000557766
0.000570749
-7.2351e-05
-0.000607607
0.000620511
-8.45114e-05
-0.000651446
0.000663607
-9.53173e-05
-0.000690306
0.000701112
-0.000104249
-0.000724879
0.00073381
-0.000110901
-0.000755538
0.000762191
-0.000115002
-0.000782405
0.000786505
-0.000116408
-0.00080542
0.000806826
-0.0001151
-0.000824434
0.000823127
-0.00011117
-0.000839276
0.000835347
-0.000104795
-0.000849816
0.00084344
-9.62124e-05
-0.000855995
0.000847413
-8.56967e-05
-0.000857853
0.000847337
-7.35279e-05
-0.00085552
0.000843352
-5.99663e-05
-0.000849219
0.000835657
-4.52273e-05
-0.000839242
0.000824503
-2.94621e-05
-0.000825931
0.000810165
-1.2743e-05
-0.000809626
0.000792907
-0.000790697
0.000772997
4.95673e-06
-2.73757e-06
-5.86636e-05
-9.82415e-06
-0.000165024
-2.048e-05
-0.000260568
-3.40264e-05
-0.000345048
-4.97823e-05
-0.00041894
-6.70282e-05
-0.00048337
-8.50114e-05
-0.000539783
-0.000102975
-0.000589644
-0.000120193
-0.000634228
-0.000136013
-0.000674486
-0.000149882
-0.00071101
-0.000161367
-0.000744053
-0.000170173
-0.000773599
-0.000176134
-0.000799458
-0.000179217
-0.000821351
-0.000179499
-0.000838995
-0.000177153
-0.000852161
-0.000172424
-0.000860724
-0.000165599
-0.000864678
-0.000156979
-0.00086414
-0.000146854
-0.000859345
-0.00013547
-0.000850625
-0.000123017
-0.000838384
-0.000109608
-0.000823036
-0.000805043
-9.52612e-05
-3.78219e-06
-5.48814e-05
-1.33195e-05
-0.000155487
-2.73767e-05
-0.00024651
-4.49541e-05
-0.000327471
-6.51424e-05
-0.000398751
-8.70646e-05
-0.000461448
-0.000109862
-0.000516985
-0.000132709
-0.000566797
-0.000154836
-0.000612101
-0.000175557
-0.000653766
-0.000194289
-0.000692278
-0.000210574
-0.000727767
-0.000224084
-0.000760089
-0.000234624
-0.000788919
-0.000242125
-0.00081385
-0.000246642
-0.000834478
-0.000248327
-0.000850476
-0.000247418
-0.000861634
-0.000244206
-0.000867889
-0.000239012
-0.000869334
-0.000232153
-0.000866204
-0.000223915
-0.000858863
-0.000214533
-0.000847766
-0.000204171
-0.000833398
-0.000816306
-0.000192908
-4.79138e-06
-5.00901e-05
-1.66726e-05
-0.000143606
-3.39572e-05
-0.000229226
-5.53342e-05
-0.000306094
-7.96825e-05
-0.000374403
-0.000105987
-0.000435143
-0.000133304
-0.000489667
-0.00016076
-0.000539342
-0.000187555
-0.000585306
-0.000212981
-0.00062834
-0.000236435
-0.000668824
-0.000257429
-0.000706773
-0.000275599
-0.00074192
-0.000290705
-0.000773813
-0.000302635
-0.000801919
-0.000311399
-0.000825715
-0.000317116
-0.000844759
-0.00032
-0.00085875
-0.000320338
-0.000867551
-0.000318461
-0.000871211
-0.000314717
-0.000869949
-0.000309434
-0.000864145
-0.000302901
-0.000854298
-0.000295347
-0.000840952
-0.000824735
-0.000286919
-5.72414e-06
-4.43659e-05
-1.97563e-05
-0.000129574
-3.99845e-05
-0.000208998
-6.48107e-05
-0.000281268
-9.29253e-05
-0.000346288
-0.000123199
-0.00040487
-0.000154627
-0.000458239
-0.000186306
-0.000507663
-0.000217423
-0.000554188
-0.000247264
-0.0005985
-0.000275208
-0.00064088
-0.00030074
-0.00068124
-0.000323456
-0.000719204
-0.000343064
-0.000754205
-0.000359392
-0.000785591
-0.00037239
-0.000812717
-0.000382125
-0.000835024
-0.000388773
-0.000852101
-0.000392602
-0.000863722
-0.000393948
-0.000869865
-0.000393181
-0.000870715
-0.000390679
-0.000866648
-0.000386791
-0.000858186
-0.000381819
-0.000845923
-0.000830563
-0.000375991
-6.53909e-06
-3.78268e-05
-2.24441e-05
-0.000113669
-4.52258e-05
-0.000186216
-7.30353e-05
-0.000253458
-0.000104405
-0.000314919
-0.000138117
-0.000371158
-0.000173128
-0.000423227
-0.000208527
-0.000472265
-0.000243505
-0.00051921
-0.000277351
-0.000564654
-0.00030944
-0.000608791
-0.000339233
-0.000651447
-0.000366283
-0.000692154
-0.000390241
-0.000730247
-0.000410866
-0.000764966
-0.000428032
-0.000795551
-0.000441737
-0.000821319
-0.0004521
-0.000841738
-0.000459352
-0.000856469
-0.00046382
-0.000865397
-0.000465894
-0.000868641
-0.000465996
-0.000866546
-0.000464544
-0.000859639
-0.00046192
-0.000848547
-0.000834043
-0.00045844
-7.19733e-06
-3.06295e-05
-2.46181e-05
-9.62478e-05
-4.94651e-05
-0.000161369
-7.96852e-05
-0.000223238
-0.000113687
-0.000280917
-0.000150193
-0.000334652
-0.000188142
-0.000385278
-0.000226633
-0.000433774
-0.00026488
-0.000480963
-0.000302188
-0.000527346
-0.000337936
-0.000573043
-0.000371572
-0.000617811
-0.000402612
-0.000661114
-0.000430648
-0.000702211
-0.000455361
-0.000740253
-0.00047654
-0.000774372
-0.000494095
-0.000803764
-0.000508069
-0.000827764
-0.000518638
-0.000845901
-0.000526098
-0.000857937
-0.000530848
-0.000863892
-0.000533347
-0.000864047
-0.000534081
-0.000858905
-0.000533519
-0.000849109
-0.000835486
-0.000532075
-7.66505e-06
-2.29644e-05
-2.61765e-05
-7.77363e-05
-5.25158e-05
-0.000135029
-8.4481e-05
-0.000191273
-0.000120394
-0.000245004
-0.000158943
-0.000296103
-0.000199071
-0.00034515
-0.000239903
-0.000392942
-0.000280686
-0.000440179
-0.000320759
-0.000487273
-0.00035952
-0.000534282
-0.000396413
-0.000580918
-0.000430927
-0.0006266
-0.0004626
-0.000670538
-0.000491039
-0.000711815
-0.000515938
-0.000749472
-0.000537108
-0.000782594
-0.000554494
-0.000810379
-0.00056819
-0.000832204
-0.000578444
-0.000847683
-0.000585636
-0.0008567
-0.000590252
-0.000859431
-0.000592837
-0.00085632
-0.00059395
-0.000847996
-0.000835327
-0.000594109
-7.91631e-06
-1.50481e-05
-2.70408e-05
-5.86119e-05
-5.42336e-05
-0.000107837
-8.72045e-05
-0.000158302
-0.000124227
-0.000207981
-0.000163979
-0.000256352
-0.000205422
-0.000303706
-0.00024772
-0.000350644
-0.00029017
-0.000397729
-0.000332153
-0.00044529
-0.0003731
-0.000493336
-0.000412468
-0.00054155
-0.000449733
-0.000589335
-0.000484395
-0.000635876
-0.000515992
-0.000680218
-0.000544128
-0.000721337
-0.000568503
-0.000758219
-0.000588949
-0.000789933
-0.000605455
-0.000815698
-0.000618184
-0.000834954
-0.000627471
-0.000847412
-0.000633804
-0.000853099
-0.000637772
-0.000852351
-0.000640019
-0.000845748
-0.000834176
-0.000641171
-7.93536e-06
-7.11277e-06
-2.71627e-05
-3.93845e-05
-5.45278e-05
-8.04716e-05
-8.77156e-05
-0.000125114
-0.000124988
-0.000170709
-0.000165032
-0.000216308
-0.000206842
-0.000261896
-0.000249629
-0.000307857
-0.000292744
-0.000354614
-0.000335625
-0.00040241
-0.000377747
-0.000451214
-0.000418598
-0.000500699
-0.000457662
-0.000550271
-0.000494418
-0.00059912
-0.000528356
-0.000646281
-0.000558996
-0.000690696
-0.000585935
-0.00073128
-0.000608877
-0.000766991
-0.000627682
-0.000796893
-0.000642397
-0.000820239
-0.000653274
-0.000836535
-0.000660762
-0.00084561
-0.000665473
-0.00084764
-0.000668118
-0.000843103
-0.000832859
-0.000669435
-7.71853e-06
6.05749e-07
-2.6529e-05
-2.05741e-05
-5.33707e-05
-5.36298e-05
-8.59658e-05
-9.25191e-05
-0.000122599
-0.000134076
-0.000161984
-0.000176923
-0.000203156
-0.000220725
-0.000245374
-0.000265639
-0.000288049
-0.000311939
-0.000330678
-0.000359781
-0.000372794
-0.000409097
-0.000413932
-0.000459561
-0.000453604
-0.000510599
-0.000491295
-0.000561429
-0.000526469
-0.000611106
-0.000558592
-0.000658573
-0.000587163
-0.00070271
-0.000611763
-0.00074239
-0.000632108
-0.000776548
-0.000648098
-0.000804249
-0.000659857
-0.000824776
-0.000667751
-0.000837716
-0.000672371
-0.00084302
-0.000674472
-0.000841002
-0.000832429
-0.000674903
-7.27507e-06
7.88082e-06
-2.51643e-05
-2.68484e-06
-5.08024e-05
-2.79918e-05
-8.2007e-05
-6.13145e-05
-0.000117117
-9.89664e-05
-0.000154886
-0.000139153
-0.000194392
-0.000181219
-0.000234942
-0.000225089
-0.000276004
-0.000270877
-0.000317134
-0.00031865
-0.00035793
-0.000368302
-0.000397983
-0.000419508
-0.000436855
-0.000471726
-0.000474065
-0.000524219
-0.000509082
-0.000576089
-0.000541347
-0.000626309
-0.000570293
-0.000673763
-0.000595396
-0.000717288
-0.000616225
-0.000755718
-0.000632513
-0.000787961
-0.000644216
-0.000813073
-0.000651564
-0.000830368
-0.000655073
-0.000839512
-0.000655504
-0.000840571
-0.000834127
-0.000653805
-6.62709e-06
1.45079e-05
-2.31314e-05
1.38194e-05
-4.69315e-05
-4.19164e-06
-7.5993e-05
-3.2253e-05
-0.000108735
-6.62243e-05
-0.000143964
-0.000103924
-0.000180797
-0.000144386
-0.000218586
-0.0001873
-0.000256845
-0.000232618
-0.000295187
-0.000280307
-0.000333271
-0.000330219
-0.000370752
-0.000382027
-0.000407257
-0.000435221
-0.000442358
-0.000489118
-0.000475567
-0.00054288
-0.000506335
-0.000595541
-0.000534073
-0.000646026
-0.000558183
-0.000693178
-0.000578114
-0.000735787
-0.000593429
-0.000772646
-0.000603891
-0.000802611
-0.000609543
-0.000824716
-0.000610764
-0.000838291
-0.000608266
-0.000843069
-0.000839317
-0.000603076
-5.80818e-06
2.03161e-05
-2.05272e-05
2.85385e-05
-4.19305e-05
1.72116e-05
-6.81739e-05
-6.0096e-06
-9.77808e-05
-3.66174e-05
-0.000129616
-7.20888e-05
-0.000162836
-0.000111167
-0.000196825
-0.00015331
-0.000231137
-0.000198306
-0.000265428
-0.000246017
-0.000299408
-0.000296238
-0.000332799
-0.000348637
-0.000365294
-0.000402726
-0.000396538
-0.000457874
-0.000426108
-0.000513309
-0.000453508
-0.00056814
-0.000478172
-0.000621362
-0.000499483
-0.000671867
-0.000516813
-0.000718457
-0.000529588
-0.000759871
-0.000537377
-0.000794823
-0.000540001
-0.000822091
-0.000537644
-0.000840649
-0.000530901
-0.000849811
-0.000849387
-0.000520831
-4.86105e-06
2.51771e-05
-1.74774e-05
4.11548e-05
-3.60247e-05
3.5759e-05
-5.88818e-05
1.68475e-05
-8.46938e-05
-1.08053e-05
-0.000112391
-4.43921e-05
-0.000141164
-8.23932e-05
-0.000170424
-0.00012405
-0.000199746
-0.000168984
-0.000228819
-0.000216944
-0.000257392
-0.000267665
-0.000285237
-0.000320791
-0.000312116
-0.000375848
-0.000337748
-0.000432241
-0.000361796
-0.000489262
-0.000383844
-0.000546092
-0.000403396
-0.00060181
-0.000419874
-0.000655388
-0.000432642
-0.00070569
-0.000441046
-0.000751466
-0.000444501
-0.000791368
-0.00044261
-0.000823982
-0.000435314
-0.000847945
-0.000423022
-0.000862104
-0.000865654
-0.000406755
-3.83422e-06
2.90113e-05
-1.41264e-05
5.14469e-05
-2.94774e-05
5.111e-05
-4.85085e-05
3.58786e-05
-6.99998e-05
1.0686e-05
-9.2951e-05
-2.14408e-05
-0.000116588
-5.87566e-05
-0.000140336
-0.000100302
-0.000163782
-0.000145538
-0.000186629
-0.000194098
-0.00020865
-0.000245644
-0.000229656
-0.000299785
-0.000249461
-0.000356043
-0.000267855
-0.000413847
-0.000284586
-0.00047253
-0.00029934
-0.000531338
-0.000311725
-0.000589426
-0.000321256
-0.000645857
-0.00032736
-0.000699586
-0.000329389
-0.000749437
-0.00032668
-0.000794077
-0.000318665
-0.000831998
-0.000305038
-0.000861572
-0.00028596
-0.000881182
-0.000889285
-0.000262328
-2.77821e-06
3.17896e-05
-1.06274e-05
5.92961e-05
-2.25704e-05
6.3053e-05
-3.74778e-05
5.07859e-05
-5.42722e-05
2.74805e-05
-7.20274e-05
-3.68571e-06
-9.00009e-05
-4.0783e-05
-0.000107629
-8.26741e-05
-0.000124499
-0.000128668
-0.000140314
-0.000178283
-0.000154858
-0.000231101
-0.000167959
-0.000286683
-0.000179469
-0.000344533
-0.000189236
-0.00040408
-0.000197087
-0.000464679
-0.00020281
-0.000525615
-0.000206132
-0.000586104
-0.000206702
-0.000645287
-0.000204074
-0.000702214
-0.000197695
-0.000755816
-0.000186927
-0.000804845
-0.00017112
-0.000847804
-0.000149775
-0.000882918
-0.000122781
-0.000908176
-0.00092125
-9.08169e-05
-1.74163e-06
3.35312e-05
-7.13057e-06
6.46851e-05
-1.55837e-05
7.15061e-05
-2.62146e-05
6.14168e-05
-3.80901e-05
3.9356e-05
-5.03601e-05
8.58426e-06
-6.23149e-05
-2.88282e-05
-7.33972e-05
-7.15918e-05
-8.31884e-05
-0.000118877
-9.13823e-05
-0.000170089
-9.77571e-05
-0.000224726
-0.000102149
-0.000282292
-0.000104429
-0.000342253
-0.000104487
-0.000404022
-0.000102215
-0.000466951
-9.74925e-05
-0.000530338
-9.01696e-05
-0.000593427
-8.00456e-05
-0.000655411
-6.68423e-05
-0.000715418
-5.01757e-05
-0.000772482
-2.95383e-05
-0.000825482
-4.32257e-06
-0.00087302
2.60659e-05
-0.000913306
6.19717e-05
-0.000944081
-0.000962288
0.00010301
-7.67495e-07
3.42987e-05
-3.77175e-06
6.76893e-05
-8.77437e-06
7.65087e-05
-1.51133e-05
6.77557e-05
-2.19941e-05
4.62368e-05
-2.86432e-05
1.52334e-05
-3.43841e-05
-2.30873e-05
-3.86651e-05
-6.73107e-05
-4.10578e-05
-0.000116484
-4.12409e-05
-0.000169906
-3.89796e-05
-0.000226987
-3.41052e-05
-0.000287166
-2.64988e-05
-0.00034986
-1.60778e-05
-0.000414443
-2.78575e-06
-0.000480243
1.34175e-05
-0.000546541
3.25686e-05
-0.000612578
5.47185e-05
-0.000677561
7.99592e-05
-0.000740658
0.000108461
-0.000800984
0.000140517
-0.000857538
0.000176572
-0.000909075
0.000217176
-0.000953911
0.000262815
-0.00098972
-0.00101289
0.000313418
1.09743e-07
3.41889e-05
-6.6313e-07
6.84622e-05
-2.35869e-06
7.82043e-05
-4.50903e-06
6.99061e-05
-6.44681e-06
4.81746e-05
-7.47149e-06
1.6258e-05
-6.93972e-06
-2.36191e-05
-4.30555e-06
-6.99449e-05
8.69975e-07
-0.000121659
8.9255e-06
-0.000177961
2.01124e-05
-0.000238174
3.46082e-05
-0.000301662
5.25279e-05
-0.000367779
7.39322e-05
-0.000435847
9.88329e-05
-0.000505144
0.000127198
-0.000574907
0.000158961
-0.00064434
0.000194028
-0.000712628
0.000232308
-0.000778938
0.00027374
-0.000842417
0.000318356
-0.000902154
0.000366341
-0.00095706
0.000418067
-0.00100564
0.000474016
-0.00104567
-0.00107326
0.000534383
8.66301e-07
3.33226e-05
2.11412e-06
6.72144e-05
3.50277e-06
7.68157e-05
5.34522e-06
6.80636e-05
8.20032e-06
4.53195e-05
1.27028e-05
1.17556e-05
1.94649e-05
-3.03812e-05
2.90265e-05
-7.95065e-05
4.18362e-05
-0.000134469
5.82491e-05
-0.000194374
7.85315e-05
-0.000258456
0.000102868
-0.000325999
0.000131368
-0.000396279
0.000164067
-0.000468546
0.00020093
-0.000542007
0.000241853
-0.000615829
0.000286665
-0.000689152
0.000335137
-0.0007611
0.000386998
-0.000830799
0.000441964
-0.000897383
0.00049979
-0.00095998
0.000560351
-0.00101762
0.000623727
-0.00106901
0.000690239
-0.00111218
-0.00114323
0.000760211
1.49017e-06
3.18324e-05
4.51427e-06
6.41903e-05
8.71455e-06
7.26154e-05
1.42947e-05
6.24835e-05
2.17294e-05
3.78848e-05
3.15991e-05
1.88581e-06
4.44895e-05
-4.32715e-05
6.09346e-05
-9.59517e-05
8.13906e-05
-0.000154925
0.000106224
-0.000219208
0.000135711
-0.000287943
0.000170035
-0.000360322
0.000209287
-0.000435531
0.000253466
-0.000512726
0.000302478
-0.000591019
0.000356134
-0.000669485
0.000414151
-0.00074717
0.000476163
-0.000823112
0.000541726
-0.000896362
0.000610345
-0.000966002
0.000681517
-0.00103115
0.0007548
-0.0010909
0.000829921
-0.00114413
0.000906871
-0.00118913
-0.00122228
0.000985924
1.98124e-06
2.98512e-05
6.52845e-06
5.9643e-05
1.32502e-05
6.58937e-05
2.22899e-05
5.34437e-05
3.40668e-05
2.61079e-05
4.91223e-05
-1.31697e-05
6.80219e-05
-6.21711e-05
9.12948e-05
-0.000119225
0.0001194
-0.000183031
0.000152709
-0.000252516
0.000191493
-0.000326727
0.000235916
-0.000404746
0.000286035
-0.00048565
0.000341788
-0.000568479
0.000402998
-0.000652229
0.00046937
-0.000735857
0.000540495
-0.000818295
0.000615858
-0.000898475
0.000694849
-0.000975353
0.000776779
-0.00104793
0.000860912
-0.00111528
0.000946527
-0.00117652
0.00103301
-0.00123062
0.00111994
-0.00127606
-0.00130979
0.00120745
2.35045e-06
2.75008e-05
8.183e-06
5.38105e-05
1.71503e-05
5.69264e-05
2.93848e-05
4.12092e-05
4.52808e-05
1.02119e-05
6.53584e-05
-3.32473e-05
9.01705e-05
-8.69832e-05
0.000120241
-0.000149295
0.000156024
-0.000218814
0.000197881
-0.000294373
0.000246057
-0.000374903
0.000300673
-0.000459362
0.000361715
-0.000546693
0.00042903
-0.000635794
0.000502324
-0.000725523
0.000581169
-0.000814701
0.000665014
-0.00090214
0.0007532
-0.000986661
0.000844971
-0.00106712
0.000939489
-0.00114245
0.00103584
-0.00121164
0.00113306
-0.00127374
0.00123019
-0.00132775
0.00132635
-0.00137222
-0.00140525
0.00142181
2.61824e-06
2.48825e-05
9.53514e-06
4.68936e-05
2.05152e-05
4.59464e-05
3.57259e-05
2.59984e-05
5.5567e-05
-9.62922e-06
8.05546e-05
-5.82349e-05
0.000111235
-0.000117664
0.000148124
-0.000186183
0.000191656
-0.000262347
0.000242159
-0.000344875
0.00029982
-0.000432565
0.000364677
-0.000524219
0.000436602
-0.000618617
0.000515298
-0.000714491
0.000600315
-0.000810539
0.000691057
-0.000905444
0.000786817
-0.0009979
0.000886806
-0.00108665
0.000990191
-0.00117051
0.00109613
-0.00124839
0.0012038
-0.0013193
0.00131234
-0.00138227
0.0014206
-0.00143601
0.00152626
-0.00147788
-0.00150305
0.00162406
2.81195e-06
2.20705e-05
1.06659e-05
3.90396e-05
2.34923e-05
3.312e-05
4.15335e-05
7.95721e-06
6.52215e-05
-3.33173e-05
9.5083e-05
-8.80964e-05
0.000131661
-0.000154241
0.000175449
-0.000229971
0.000226844
-0.000313741
0.000286101
-0.000404133
0.000353309
-0.000499772
0.000428364
-0.000599274
0.000510964
-0.000701217
0.000600614
-0.000804141
0.000696644
-0.000906569
0.000798243
-0.00100704
0.000904508
-0.00110416
0.0010145
-0.00119664
0.00112732
-0.00128333
0.00124221
-0.00136328
0.00135866
-0.00143576
0.00147661
-0.00150023
0.00159689
-0.00155629
0.00172265
-0.00160364
-0.00164169
0.00186129
2.96428e-06
1.91063e-05
1.16731e-05
3.03308e-05
2.62611e-05
1.8532e-05
4.70762e-05
-1.28579e-05
7.46035e-05
-6.08446e-05
0.000109389
-0.000122882
0.000151965
-0.000196818
0.000202788
-0.000280794
0.000262178
-0.000373132
0.000330276
-0.000472231
0.000407006
-0.000576503
0.000492063
-0.00068433
0.000584902
-0.000794055
0.000684761
-0.000904
0.000790695
-0.0010125
0.000901621
-0.00111797
0.00101638
-0.00121893
0.00113383
-0.00131409
0.00125289
-0.00140239
0.00137263
-0.00148302
0.00149236
-0.00155548
0.0016117
-0.00161958
0.00173081
-0.00167539
0.00185047
-0.00172329
-0.00176196
0.00197074
3.10856e-06
1.59977e-05
1.26598e-05
2.07796e-05
2.90132e-05
2.1786e-06
5.26418e-05
-3.64865e-05
8.40955e-05
-9.22983e-05
0.000123938
-0.000162725
0.000172679
-0.000245558
0.000230701
-0.000338817
0.000298204
-0.000440635
0.000375152
-0.000549178
0.000461241
-0.000662592
0.000555889
-0.000778978
0.000658246
-0.000896412
0.000767226
-0.00101298
0.000881563
-0.00112684
0.000999879
-0.00123629
0.00112076
-0.00133981
0.00124285
-0.00143617
0.00136488
-0.00152442
0.00148579
-0.00160393
0.00160472
-0.00167442
0.00172106
-0.00173592
0.0018344
-0.00178874
0.00194439
-0.00183328
-0.00186812
0.00205055
3.2771e-06
1.27206e-05
1.3726e-05
1.03307e-05
3.19345e-05
-1.60299e-05
5.85074e-05
-6.30594e-05
9.4059e-05
-0.00012785
0.000139159
-0.000207825
0.000194264
-0.000300663
0.00025964
-0.000404194
0.000335308
-0.000516302
0.000420985
-0.000634855
0.000516067
-0.000757674
0.00061963
-0.000882542
0.000730462
-0.00100724
0.000847119
-0.00112964
0.000968006
-0.00124773
0.00109146
-0.00135974
0.00121585
-0.0014642
0.00133966
-0.00155998
0.00146154
-0.0016463
0.00158038
-0.00172276
0.00169529
-0.00178933
0.00180562
-0.00184625
0.00191091
-0.00189403
0.00201085
-0.00193321
-0.00196284
0.00210557
3.4982e-06
9.2224e-06
1.496e-05
-1.13112e-06
3.51883e-05
-3.62582e-05
6.4912e-05
-9.2783e-05
0.000104796
-0.000167734
0.000155391
-0.000258419
0.000217055
-0.000362327
0.000289885
-0.000477023
0.000373648
-0.000600065
0.000467746
-0.000728953
0.000571206
-0.000861134
0.000682707
-0.000994043
0.000800643
-0.00112518
0.000923209
-0.0012522
0.00104851
-0.00137302
0.00117465
-0.00148589
0.00129988
-0.00158943
0.00142261
-0.00168271
0.00154153
-0.00176522
0.00165561
-0.00183685
0.00176411
-0.00189782
0.00186653
-0.00194867
0.00196262
-0.00199012
0.0020523
-0.00202289
-0.00204657
0.00213603
3.79416e-06
5.42824e-06
1.64318e-05
-1.37687e-05
3.89017e-05
-5.87282e-05
7.20353e-05
-0.000125917
0.000116521
-0.00021222
0.000172846
-0.000314744
0.000241218
-0.000430699
0.000321493
-0.000557298
0.000413115
-0.000691687
0.000515096
-0.000830935
0.000626038
-0.000972076
0.000744194
-0.0011122
0.000867562
-0.00124855
0.000994012
-0.00137865
0.00112141
-0.00150042
0.00124774
-0.00161222
0.0013712
-0.0017129
0.00149031
-0.00180182
0.00160389
-0.00187881
0.00171114
-0.00194409
0.00181155
-0.00199823
0.00190493
-0.00204205
0.00199131
-0.00207649
0.00207093
-0.00210252
-0.00212019
0.00214454
4.18018e-06
1.24806e-06
1.81885e-05
-2.7777e-05
4.31575e-05
-8.36972e-05
7.9985e-05
-0.000162744
0.000129339
-0.000261574
0.00019159
-0.000376995
0.000266728
-0.000505837
0.000354291
-0.000644861
0.000453325
-0.000790721
0.000562397
-0.000940006
0.000679648
-0.00108933
0.0008029
-0.00123545
0.000929794
-0.00137544
0.00105794
-0.0015068
0.00118508
-0.00162756
0.00130917
-0.00173631
0.00142853
-0.00183225
0.00154185
-0.00191514
0.00164824
-0.00198519
0.00174717
-0.00204303
0.00183849
-0.00208955
0.00192231
-0.00212587
0.00199897
-0.00215316
0.002069
-0.00217255
-0.0021845
0.00213332
4.66413e-06
-3.41607e-06
2.02537e-05
-4.33666e-05
4.79915e-05
-0.000111435
8.87926e-05
-0.000203545
0.000143248
-0.00031603
0.000211544
-0.000445291
0.000293375
-0.000587668
0.000387885
-0.000739371
0.000493661
-0.000896497
0.000608777
-0.00105512
0.00073091
-0.00121146
0.000857485
-0.00136203
0.000985858
-0.00150382
0.00111349
-0.00163443
0.00123809
-0.00175216
0.00135776
-0.00185598
0.00147103
-0.00194552
0.00157688
-0.00202099
0.00167476
-0.00208308
0.00176452
-0.00213278
0.00184632
-0.00217135
0.00192059
-0.00220014
0.00198794
-0.00222051
0.00204912
-0.00223373
-0.00224053
0.00210515
5.24716e-06
-8.66323e-06
2.26288e-05
-6.07483e-05
5.33952e-05
-0.000142201
9.84177e-05
-0.000248568
0.000158142
-0.000375754
0.000232492
-0.000519641
0.000320785
-0.000675961
0.000421703
-0.000840289
0.00053332
-0.00100811
0.000653207
-0.00117501
0.000778599
-0.00133685
0.000906595
-0.00149002
0.00103437
-0.00163159
0.00115935
-0.00175942
0.00127938
-0.00187219
0.00139278
-0.00196938
0.00149841
-0.00205115
0.00159564
-0.00211822
0.00168428
-0.00217171
0.00176452
-0.00221303
0.00183687
-0.0022437
0.00190201
-0.00226527
0.00196075
-0.00227925
0.00201399
-0.00228697
-0.00228932
0.00206277
5.92491e-06
-1.45881e-05
2.52963e-05
-8.01197e-05
5.93218e-05
-0.000176227
0.000108758
-0.000298004
0.000173827
-0.000440823
0.000254106
-0.00059992
0.00034846
-0.000770315
0.000455044
-0.000946873
0.000571395
-0.00112446
0.000694595
-0.00129821
0.0008215
-0.00146376
0.000948984
-0.00161751
0.00107416
-0.00175677
0.00119458
-0.00187983
0.00130831
-0.00198592
0.00141402
-0.00207509
0.00151097
-0.0021481
0.00159892
-0.00220617
0.00167806
-0.00225086
0.00174893
-0.0022839
0.00181227
-0.00230704
0.00186897
-0.00232197
0.00191998
-0.00233025
0.00196624
-0.00233323
-0.00233187
0.0020088
6.68898e-06
-2.12771e-05
2.82239e-05
-0.000101655
6.56945e-05
-0.000213697
0.000119663
-0.000351973
0.000190043
-0.000511203
0.00027598
-0.000685857
0.000375815
-0.00087015
0.000487137
-0.00105819
0.000606943
-0.00124427
0.000731877
-0.00142314
0.000858512
-0.00159039
0.000983617
-0.00174261
0.00110439
-0.00187754
0.00121861
-0.00199405
0.00132471
-0.00209202
0.00142177
-0.00217215
0.00150946
-0.00223579
0.00158794
-0.00228465
0.00165776
-0.00232068
0.00171972
-0.00234585
0.00177475
-0.00236207
0.00182387
-0.00237109
0.00186808
-0.00237446
0.00190834
-0.0023735
-0.00236914
0.00194561
7.52829e-06
-2.88054e-05
3.13691e-05
-0.000125495
7.24143e-05
-0.000254743
0.000130947
-0.000410506
0.000206483
-0.000586738
0.000297656
-0.00077703
0.000402224
-0.000974718
0.000517193
-0.00117316
0.000639054
-0.00136613
0.000764095
-0.00154819
0.000888721
-0.00171502
0.00100974
-0.00186363
0.00112456
-0.00199237
0.00123132
-0.00210081
0.00132887
-0.00218956
0.00141673
-0.00226002
0.00149501
-0.00231406
0.00156422
-0.00235387
0.0016252
-0.00238166
0.00167893
-0.00239959
0.0017265
-0.00240963
0.00176894
-0.00241354
0.00180728
-0.0024128
0.00184241
-0.00240863
-0.00240193
0.0018752
8.43024e-06
-3.72357e-05
3.46827e-05
-0.000151748
7.93678e-05
-0.000299428
0.000142401
-0.00047354
0.000222811
-0.000667148
0.00031865
-0.000872869
0.000427055
-0.00108312
0.000544458
-0.00129057
0.00066691
-0.00148858
0.000790451
-0.00167173
0.000911457
-0.00183602
0.00102691
-0.00197908
0.00113456
-0.00210001
0.00123296
-0.00219921
0.00132144
-0.00227804
0.00139996
-0.00233854
0.00146902
-0.00238312
0.00152943
-0.00241428
0.00158224
-0.00243446
0.00162857
-0.00244591
0.00166953
-0.0024506
0.00170619
-0.0024502
0.00173948
-0.0024461
0.00177026
-0.0024394
-0.00243091
0.00179924
9.3814e-06
-4.66171e-05
3.8111e-05
-0.000180478
8.64322e-05
-0.000347749
0.000153803
-0.00054091
0.000238682
-0.000752027
0.000338481
-0.000972668
0.000449703
-0.00119435
0.000568251
-0.00140911
0.000689827
-0.00161016
0.000810353
-0.00179225
0.000926319
-0.00195199
0.00103501
-0.00208777
0.00113459
-0.0021996
0.0012241
-0.00228872
0.00130335
-0.00235728
0.00137271
-0.0024079
0.00143299
-0.0024434
0.00148525
-0.00246655
0.00153068
-0.00247989
0.00157043
-0.00248567
0.00160564
-0.00248581
0.00163731
-0.00248186
0.00166629
-0.00247508
0.00169333
-0.00246644
-0.00245662
0.00171904
1.03679e-05
-5.69849e-05
4.15982e-05
-0.000211708
9.34799e-05
-0.000399631
0.000164925
-0.000612355
0.000253749
-0.000840852
0.000356687
-0.00107561
0.000469621
-0.00130728
0.000587996
-0.00152749
0.000707284
-0.00172945
0.00082343
-0.0019084
0.000933167
-0.00206173
0.00103418
-0.00218879
0.00112514
-0.00229055
0.00120557
-0.00236915
0.00127572
-0.00242743
0.00133632
-0.0024685
0.00138844
-0.00249553
0.0014333
-0.00251141
0.00147214
-0.00251873
0.00150614
-0.00251967
0.00153635
-0.00251602
0.00156371
-0.00250922
0.00158897
-0.00250034
0.00161277
-0.00249024
-0.00247947
0.00163562
1.13754e-05
-6.83604e-05
4.50866e-05
-0.000245419
0.000100381
-0.000454925
0.000175541
-0.000687515
0.000267683
-0.000932994
0.000372845
-0.00118077
0.000486337
-0.00142077
0.000603242
-0.00164439
0.000718938
-0.00184514
0.00082953
-0.00201899
0.000932113
-0.00216431
0.00102486
-0.00228153
0.00110693
-0.00237263
0.00117835
-0.00244057
0.00123975
-0.00248882
0.00129216
-0.00252091
0.00133682
-0.00254019
0.00137504
-0.00254963
0.00140807
-0.00255175
0.00143703
-0.00254863
0.00146291
-0.00254191
0.00148653
-0.00253283
0.00150854
-0.00252236
0.00152948
-0.00251118
-0.00249974
0.00154975
1.23894e-05
-8.07497e-05
4.85178e-05
-0.000281548
0.000107007
-0.000513414
0.000185435
-0.000765943
0.000280174
-0.00102773
0.000386584
-0.00128718
0.000499471
-0.00153366
0.000613678
-0.0017586
0.000724627
-0.00195609
0.00082871
-0.00212308
0.000923475
-0.00225908
0.00100761
-0.00236567
0.00108081
-0.00244582
0.0011435
-0.00250327
0.00119666
-0.00254198
0.00124152
-0.00256578
0.00127946
-0.00257812
0.00131177
-0.00258195
0.00133969
-0.00257967
0.00136425
-0.00257319
0.00138634
-0.00256399
0.00140666
-0.00255315
0.00142578
-0.00254148
0.00144413
-0.00252952
-0.00251763
0.00146202
1.33946e-05
-9.41443e-05
5.1833e-05
-0.000319986
0.00011323
-0.000574811
0.000194399
-0.000847112
0.000290949
-0.00112428
0.000397598
-0.00139383
0.000508749
-0.00164481
0.000619134
-0.00186899
0.000724357
-0.00206131
0.000821204
-0.00221992
0.000907738
-0.00234561
0.000983181
-0.00244111
0.00104769
-0.00251034
0.0011021
-0.00255767
0.00114761
-0.00258749
0.00118562
-0.00260379
0.00121752
-0.00261002
0.0012446
-0.00260903
0.00126801
-0.00260307
0.00128869
-0.00259387
0.00130741
-0.00258271
0.00132478
-0.00257053
0.00134127
-0.00255796
0.00135721
-0.00254547
-0.00253329
0.00137286
1.43757e-05
-0.00010852
5.49738e-05
-0.000360584
0.00011893
-0.000638767
0.000202245
-0.000930427
0.000299772
-0.00122181
0.000405652
-0.00149971
0.000513999
-0.00175316
0.000619576
-0.00197456
0.000718285
-0.00216002
0.000807392
-0.00230903
0.000885503
-0.00242372
0.00095236
-0.00250797
0.00100855
-0.00256652
0.00105519
-0.00260432
0.00109369
-0.00262599
0.0011255
-0.0026356
0.00115201
-0.00263653
0.00117445
-0.00263147
0.00119386
-0.00262248
0.00121108
-0.00261109
0.00122677
-0.0025984
0.00124144
-0.00258519
0.00125546
-0.00257199
0.00126912
-0.00255913
-0.00254677
0.00128261
1.53168e-05
-0.000123837
5.78834e-05
-0.000403151
0.000123993
-0.000704877
0.00020881
-0.00101524
0.000306455
-0.00131946
0.000410586
-0.00160384
0.000515157
-0.00185773
0.000615091
-0.0020745
0.000706692
-0.00225162
0.000787761
-0.0023901
0.000857449
-0.00249341
0.000915975
-0.00256649
0.000964288
-0.00261484
0.00100374
-0.00264377
0.00103585
-0.00265809
0.00106209
-0.00266184
0.00108378
-0.00265823
0.00110208
-0.00264977
0.0011179
-0.0026383
0.00113198
-0.00262517
0.00114488
-0.0026113
0.00115702
-0.00259733
0.0011687
-0.00258368
0.00118015
-0.00257058
-0.00255813
0.00119151
1.62023e-05
-0.000140039
6.05077e-05
-0.000447456
0.000128319
-0.000772688
0.000213955
-0.00110088
0.000310862
-0.00141636
0.00041232
-0.0017053
0.000512256
-0.00195766
0.000605872
-0.00216811
0.000689958
-0.00233571
0.000762868
-0.00246301
0.000824282
-0.00255482
0.000874843
-0.00261706
0.000915789
-0.00265578
0.000948637
-0.00267662
0.000974944
-0.0026844
0.000996157
-0.00268305
0.00101353
-0.0026756
0.00102808
-0.00266432
0.00104064
-0.00265086
0.00105183
-0.00263636
0.00106211
-0.00262159
0.00107184
-0.00260706
0.00108125
-0.00259309
0.00109052
-0.00257985
-0.00256736
0.00109976
1.70168e-05
-0.000157056
6.27966e-05
-0.000493236
0.000131819
-0.000841711
0.000217572
-0.00118663
0.000312906
-0.0015117
0.000410844
-0.00180323
0.000505413
-0.00205223
0.0005922
-0.0022549
0.000668527
-0.00241204
0.00073331
-0.00252779
0.000786713
-0.00260822
0.000829738
-0.00266008
0.000863844
-0.00268989
0.000890642
-0.00270342
0.000911689
-0.00270545
0.000928362
-0.00269972
0.000941811
-0.00268905
0.000952954
-0.00267547
0.000962497
-0.0026604
0.000970969
-0.00264483
0.000978758
-0.00262938
0.000986143
-0.00261445
0.00099332
-0.00260027
0.00100042
-0.00258695
-0.00257447
0.00100752
1.77457e-05
-0.000174802
6.47052e-05
-0.000540195
0.00013442
-0.000911426
0.000219588
-0.0012718
0.000312555
-0.00160466
0.000406215
-0.00189689
0.000494818
-0.00214084