/*--------------------------------*- C++ -*----------------------------------*\
  =========                 |
  \\      /  F ield         | OpenFOAM: The Open Source CFD Toolbox
   \\    /   O peration     | Website:  https://openfoam.org
    \\  /    A nd           | Version:  6.0
     \\/     M anipulation  |
\*---------------------------------------------------------------------------*/
FoamFile
{
    version     2.0;
    format      ascii;
    class       surfaceScalarField;
    location    "5";
    object      phi;
}
// * * * * * * * * * * * * * * * * * * * * * * * * * * * * * * * * * * * * * //

dimensions      [0 3 -1 0 0 0 0];

internalField   nonuniform List<scalar> 
24700
(
-6.87235e-06
6.73434e-06
1.38009e-07
-2.37597e-05
1.65809e-05
3.06436e-07
-4.81089e-05
2.39537e-05
3.95505e-07
-7.80582e-05
2.95226e-05
4.26747e-07
-0.000112224
3.37487e-05
4.17014e-07
-0.000149579
3.69757e-05
3.79269e-07
-0.000189361
3.94593e-05
3.23243e-07
-0.000231007
4.13893e-05
2.56062e-07
-0.000274096
4.29061e-05
1.82801e-07
-0.000318315
4.41126e-05
1.06955e-07
-0.000363429
4.50831e-05
3.08163e-08
-0.000409256
4.5871e-05
-4.42184e-08
-0.000455653
4.65144e-05
-1.17404e-07
-0.000502505
4.70406e-05
-1.88452e-07
-0.000549718
4.74698e-05
-2.57376e-07
-0.000597211
4.78174e-05
-3.24383e-07
-0.000644917
4.80964e-05
-3.89793e-07
-0.000692781
4.83181e-05
-4.53985e-07
-0.000740757
4.84927e-05
-5.17337e-07
-0.000788807
4.86304e-05
-5.80176e-07
-0.000836905
4.87411e-05
-6.42791e-07
-0.000885034
4.88339e-05
-7.0539e-07
-0.00093318
4.89145e-05
-7.68283e-07
-0.000981337
4.89885e-05
-8.31662e-07
4.90875e-05
-8.95906e-07
-0.00102953
-6.6903e-06
1.34246e-05
-2.31697e-05
3.30603e-05
-4.69685e-05
4.77526e-05
-7.62765e-05
5.88305e-05
-0.00010974
6.72126e-05
-0.00014635
7.35851e-05
-0.00018535
7.84599e-05
-0.000226179
8.22182e-05
-0.000268415
8.5142e-05
-0.000311742
8.74388e-05
-0.000355917
8.92589e-05
-0.000400756
9.07101e-05
-0.000446111
9.18693e-05
-0.000491862
9.27916e-05
-0.00053791
9.35176e-05
-0.000584171
9.40784e-05
-0.000630574
9.44994e-05
-0.000677059
9.48031e-05
-0.000723576
9.501e-05
-0.000770086
9.51397e-05
-0.000816557
9.52119e-05
-0.000862968
9.52449e-05
-0.000909304
9.52505e-05
-0.000955554
9.52392e-05
9.52719e-05
-0.00100174
-6.33413e-06
1.97588e-05
-2.2013e-05
4.87392e-05
-4.47298e-05
7.04694e-05
-7.27747e-05
8.68755e-05
-0.000104855
9.92928e-05
-0.000139993
0.000108723
-0.000177449
0.000115916
-0.000216665
0.000121434
-0.000257215
0.000125692
-0.000298777
0.000129001
-0.0003411
0.000131583
-0.00038399
0.0001336
-0.00042729
0.000135169
-0.00047087
0.000136372
-0.000514624
0.000137272
-0.00055846
0.000137914
-0.0006023
0.000138339
-0.000646076
0.000138579
-0.000689732
0.000138666
-0.000733221
0.000138629
-0.000776506
0.000138497
-0.00081956
0.000138299
-0.000862362
0.000138053
-0.000904898
0.000137775
0.000137551
-0.000947178
-5.8203e-06
2.55791e-05
-2.03391e-05
6.3258e-05
-4.14824e-05
9.16126e-05
-6.76848e-05
0.000113078
-9.77413e-05
0.000129349
-0.000130723
0.000141705
-0.000165914
0.000151107
-0.000202762
0.000158281
-0.000240838
0.000163769
-0.000279811
0.000167973
-0.000319419
0.00017119
-0.000359453
0.000173634
-0.000399744
0.00017546
-0.000440152
0.00017678
-0.000480557
0.000177677
-0.000520858
0.000178215
-0.000560966
0.000178447
-0.000600805
0.000178418
-0.000640308
0.000178169
-0.000679421
0.000177741
-0.000718098
0.000177174
-0.000756306
0.000176507
-0.000794019
0.000175766
-0.000831216
0.000174972
0.000174233
-0.000867897
-5.17238e-06
3.07514e-05
-1.82192e-05
7.63049e-05
-3.73556e-05
0.000110749
-6.11983e-05
0.000136921
-8.86537e-05
0.000156805
-0.000118857
0.000171908
-0.000151123
0.000183374
-0.00018491
0.000192069
-0.000219789
0.000198648
-0.000255417
0.000203601
-0.000291519
0.000207292
-0.000327871
0.000209986
-0.000364289
0.000211878
-0.000400619
0.000213109
-0.000436727
0.000213785
-0.000472499
0.000213987
-0.000507835
0.000213783
-0.000542648
0.000213231
-0.000576863
0.000212384
-0.000610415
0.000211293
-0.000643251
0.000210011
-0.000675331
0.000208587
-0.000706625
0.000207059
-0.000737108
0.000205455
0.000203899
-0.000766774
-4.41968e-06
3.51711e-05
-1.57425e-05
8.76277e-05
-3.25133e-05
0.00012752
-5.35585e-05
0.000157966
-7.79163e-05
0.000181163
-0.000104799
0.00019879
-0.000133561
0.000212136
-0.000163677
0.000222185
-0.000194718
0.000229689
-0.000226333
0.000235216
-0.000258233
0.000239192
-0.000290179
0.000241932
-0.00032197
0.000243669
-0.000353436
0.000244575
-0.00038443
0.000244779
-0.000414824
0.000244381
-0.000444505
0.000243465
-0.000473378
0.000242103
-0.000501355
0.000240362
-0.000528366
0.000238304
-0.00055435
0.000235995
-0.000579263
0.000233499
-0.000603072
0.000230868
-0.000625755
0.000228139
0.000225448
-0.000647304
-3.59543e-06
3.87666e-05
-1.30113e-05
9.70435e-05
-2.71448e-05
0.000141653
-4.50501e-05
0.000175871
-6.59109e-05
0.000202023
-8.90275e-05
0.000221907
-0.000113804
0.000236913
-0.000139737
0.000248118
-0.000166402
0.000256354
-0.000193442
0.000262256
-0.000220556
0.000266306
-0.000247491
0.000268867
-0.00027403
0.000270208
-0.000299987
0.000270532
-0.000325201
0.000269993
-0.000349531
0.000268711
-0.000372854
0.000266788
-0.000395062
0.000264311
-0.000416061
0.000261361
-0.000435773
0.000258016
-0.000454135
0.000254357
-0.0004711
0.000250464
-0.000486638
0.000246407
-0.000500736
0.000242237
0.000238104
-0.000513392
-2.73503e-06
4.15016e-05
-1.01364e-05
0.000104445
-2.14576e-05
0.000152974
-3.5987e-05
0.000190401
-5.30623e-05
0.000219099
-7.20805e-05
0.000240925
-9.25024e-05
0.000257335
-0.000113853
0.000269469
-0.00013572
0.00027822
-0.000157743
0.000284279
-0.000179614
0.000288177
-0.000201067
0.00029032
-0.000221872
0.000291013
-0.000241828
0.000290489
-0.000260763
0.000288927
-0.000278521
0.00028647
-0.000294971
0.000283237
-0.000309993
0.000279334
-0.00032349
0.000274857
-0.000335377
0.000269903
-0.000345589
0.000264569
-0.000354083
0.000258958
-0.000360837
0.000253162
-0.000365854
0.000247253
0.000241401
-0.000369151
-1.87407e-06
4.33756e-05
-7.23115e-06
0.000109802
-1.56668e-05
0.00016141
-2.66992e-05
0.000201433
-3.98214e-05
0.000232221
-5.45319e-05
0.000255635
-7.0355e-05
0.000273158
-8.68519e-05
0.000285966
-0.000103626
0.000294994
-0.000120323
0.000300976
-0.000136632
0.000304486
-0.000152278
0.000305966
-0.000167021
0.000305756
-0.000180649
0.000304117
-0.000192976
0.000301254
-0.00020384
0.000297334
-0.000213096
0.000292494
-0.00022062
0.000286858
-0.000226306
0.000280543
-0.000230066
0.000273664
-0.000231837
0.00026634
-0.000231581
0.000258701
-0.000229291
0.000250871
-0.000224992
0.000242954
0.000235145
-0.000218736
-1.04657e-06
4.44222e-05
-4.40587e-06
0.000113161
-9.98522e-06
0.000166989
-1.75175e-05
0.000208965
-2.66455e-05
0.000241349
-3.69705e-05
0.00026596
-4.80844e-05
0.000284272
-5.95908e-05
0.000297472
-7.11173e-05
0.00030652
-8.23221e-05
0.000312181
-9.28959e-05
0.00031506
-0.000102562
0.000315632
-0.000111073
0.000314267
-0.000118212
0.000311255
-0.000123782
0.000306825
-0.000127613
0.000301164
-0.000129552
0.000294432
-0.000129466
0.000286772
-0.000127244
0.00027832
-0.000122794
0.000269214
-0.000116053
0.000259599
-0.000106989
0.000249637
-9.5613e-05
0.000239495
-8.19841e-05
0.000229325
0.000219366
-6.62054e-05
-2.83299e-07
4.47055e-05
-1.76286e-06
0.000114641
-4.6138e-06
0.00016984
-8.75875e-06
0.00021311
-1.39787e-05
0.000246569
-1.99738e-05
0.000271955
-2.64059e-05
0.000290704
-3.29262e-05
0.000303992
-3.91934e-05
0.000312787
-4.48845e-05
0.000317872
-4.97001e-05
0.000319876
-5.33674e-05
0.000319299
-5.56394e-05
0.000316539
-5.62939e-05
0.000311909
-5.51315e-05
0.000305663
-5.19732e-05
0.000298006
-4.66594e-05
0.000289119
-3.9049e-05
0.000279162
-2.90212e-05
0.000268293
-1.64789e-05
0.000256672
-1.3547e-06
0.000244475
1.63791e-05
0.000231904
3.66946e-05
0.00021918
5.94925e-05
0.000206527
0.000194261
8.45981e-05
3.89578e-07
4.43159e-05
6.08486e-07
0.000114422
2.68297e-07
0.000170181
-7.10883e-07
0.000214089
-2.23019e-06
0.000248088
-4.08138e-06
0.000273807
-5.99501e-06
0.000292617
-7.67333e-06
0.000305671
-8.81186e-06
0.000313926
-9.11327e-06
0.000318174
-8.29563e-06
0.000319058
-6.09669e-06
0.000317101
-2.27539e-06
0.000312718
3.3885e-06
0.000306246
1.10958e-05
0.000297955
2.10298e-05
0.000288072
3.33573e-05
0.000276791
4.8229e-05
0.00026429
6.57779e-05
0.000250744
8.61142e-05
0.000236336
0.000109316
0.000221273
0.000135417
0.000205803
0.000164377
0.00019022
0.000196055
0.000174849
0.000160132
0.000230185
9.51498e-07
4.33644e-05
2.63555e-06
0.000112738
4.51182e-06
0.000168304
6.38139e-06
0.00021222
8.24562e-06
0.000246224
1.02329e-05
0.000271819
1.25477e-05
0.000290302
1.5436e-05
0.000302782
1.91612e-05
0.000310201
2.39891e-05
0.000313346
3.01776e-05
0.00031287
3.79717e-05
0.000309307
4.76001e-05
0.000303089
5.92759e-05
0.00029457
7.3197e-05
0.000284034
8.95483e-05
0.000271721
0.000108503
0.000257836
0.000130224
0.000242569
0.000154861
0.000226107
0.000182545
0.000208651
0.000213379
0.000190439
0.000247414
0.000171768
0.000284615
0.000153019
0.000324804
0.000134659
0.000117333
0.000367603
1.38818e-06
4.19763e-05
4.26549e-06
0.000109861
8.0045e-06
0.000164565
1.23289e-05
0.000207895
1.71687e-05
0.000241384
2.25873e-05
0.000266401
2.87315e-05
0.000284158
3.5797e-05
0.000295717
4.40045e-05
0.000301993
5.35841e-05
0.000303766
6.47647e-05
0.000301689
7.77679e-05
0.000296303
9.28052e-05
0.000288052
0.000110077
0.000277298
0.000129775
0.000264336
0.000152082
0.000249414
0.000177178
0.000232741
0.000205238
0.000214509
0.000236433
0.000194911
0.000270927
0.000174158
0.000308859
0.000152507
0.000350319
0.000130308
0.000395298
0.00010804
0.000443599
8.63574e-05
6.62154e-05
0.000494717
1.69202e-06
4.02842e-05
5.46737e-06
0.000106085
1.06765e-05
0.000159356
1.70084e-05
0.000201563
2.435e-05
0.000234043
3.27172e-05
0.000258034
4.22091e-05
0.000274666
5.29758e-05
0.00028495
6.51962e-05
0.000289773
7.90636e-05
0.000289899
9.4775e-05
0.000285978
0.000112525
0.000278553
0.000132505
0.000268073
0.000154898
0.000254905
0.000179886
0.000239348
0.00020765
0.00022165
0.000238371
0.000202019
0.000272241
0.00018064
0.000309454
0.000157698
0.000350212
0.0001334
0.000394705
0.000108015
0.000443081
8.1932e-05
0.000495384
5.57368e-05
0.000551424
3.03177e-05
7.07652e-06
0.000610563
1.86218e-06
3.84221e-05
6.23338e-06
0.000101714
1.25041e-05
0.000153085
2.03706e-05
0.000193697
2.97051e-05
0.000224708
4.04957e-05
0.000247243
5.28063e-05
0.000262356
6.6749e-05
0.000271008
8.24656e-05
0.000274056
0.000100114
0.00027225
0.000119861
0.000266231
0.000141875
0.000256539
0.000166323
0.000243625
0.000193373
0.000227854
0.000223196
0.000209525
0.000255967
0.00018888
0.000291871
0.000166115
0.00033111
0.000141401
0.000373905
0.000114903
0.000420493
8.68109e-05
0.000471122
5.73859e-05
0.000526012
2.7042e-05
0.000585281
-3.53225e-06
0.000648777
-3.31775e-05
-5.98866e-05
0.00071574
1.90458e-06
3.65175e-05
6.57926e-06
9.70394e-05
1.35116e-05
0.000146153
2.24444e-05
0.000184764
3.32633e-05
0.000213889
4.59489e-05
0.000234557
6.05447e-05
0.00024776
7.71359e-05
0.000254416
9.58353e-05
0.000255357
0.000116773
0.000251313
0.000140088
0.000242915
0.000165928
0.0002307
0.000194441
0.000215112
0.000225781
0.000196513
0.00026011
0.000175196
0.000297599
0.000151392
0.000338433
0.000125281
0.000382821
9.70121e-05
0.000431002
6.67225e-05
0.000483243
3.457e-05
0.000539837
7.92269e-07
0.000601071
-3.41921e-05
0.000667146
-6.96075e-05
0.000737972
-0.000104004
-0.00013461
0.000812696
1.83166e-06
3.46858e-05
6.54388e-06
9.23272e-05
1.37714e-05
0.000138926
2.33386e-05
0.000175197
3.51714e-05
0.000202056
4.92634e-05
0.000220465
6.56548e-05
0.000231369
8.4418e-05
0.000235653
0.000105649
0.000234126
0.00012946
0.000227501
0.000155976
0.000216399
0.00018533
0.000201347
0.000217661
0.000182781
0.000253117
0.000161057
0.000291855
0.000136459
0.000334043
0.000109204
0.000379867
7.94569e-05
0.000429535
4.73443e-05
0.000483285
1.29725e-05
0.000541391
-2.3536e-05
0.000604162
-6.19792e-05
0.000671923
-0.000101953
0.000744934
-0.000142619
0.000823177
-0.000182246
-0.000217176
0.000905743
1.66199e-06
3.30238e-05
6.18798e-06
8.78012e-05
1.34015e-05
0.000131712
2.32387e-05
0.00016536
3.56904e-05
0.000189605
5.07842e-05
0.000205372
6.85753e-05
0.000213578
8.91407e-05
0.000215088
0.000112576
0.00021069
0.000138992
0.000201085
0.000168512
0.000186879
0.000201271
0.000168588
0.000237412
0.000146639
0.000277088
0.000121381
0.000320459
9.30878e-05
0.000367694
6.19681e-05
0.000418975
2.81764e-05
0.000474495
-8.17578e-06
0.000534468
-4.7001e-05
0.000599135
-8.8203e-05
0.000668767
-0.000131612
0.000743661
-0.000176846
0.00082408
-0.000223038
0.000910048
-0.000268215
-0.000307783
0.00100066
1.41962e-06
3.16042e-05
5.59167e-06
8.36292e-05
1.25605e-05
0.000124743
2.23992e-05
0.000155521
3.51852e-05
0.000176819
5.10009e-05
0.000189556
6.99363e-05
0.000194642
9.20929e-05
0.000192931
0.000117585
0.000185198
0.000146542
0.000172129
0.000179105
0.000154316
0.000215427
0.000132265
0.000255673
0.000106394
0.00030001
7.70436e-05
0.000348613
4.44851e-05
0.000401653
8.92835e-06
0.000459297
-2.94684e-05
0.000521709
-7.05871e-05
0.000589041
-0.000114333
0.000661447
-0.000160609
0.000739085
-0.00020925
0.00082213
-0.000259891
0.000910746
-0.000311654
0.00100494
-0.000362406
-0.000406681
0.00110384
1.13306e-06
3.04712e-05
4.85057e-06
7.99117e-05
1.14398e-05
0.000118154
2.11299e-05
0.000145831
3.41044e-05
0.000163844
5.05202e-05
0.00017314
7.05231e-05
0.000174639
9.42602e-05
0.000169194
0.000121886
0.000157572
0.000153569
0.000140446
0.000189489
0.000118397
0.000229835
9.19189e-05
0.000274805
6.14236e-05
0.000324597
2.72521e-05
0.000379399
-1.03164e-05
0.000439381
-5.10539e-05
0.000504686
-9.47732e-05
0.000575415
-0.000141317
0.000651623
-0.000190541
0.000733313
-0.000242298
0.000820445
-0.000296382
0.00091296
-0.000352406
0.00101079
-0.000409485
0.0011138
-0.000465416
-0.000514041
0.00122116
8.33745e-07
2.96374e-05
4.07042e-06
7.6675e-05
1.02517e-05
0.000111973
1.97767e-05
0.000136306
3.29514e-05
0.000150669
5.00258e-05
0.000156066
7.12219e-05
0.000153443
9.6753e-05
0.000143663
0.000126836
0.000127489
0.000161696
0.000105586
0.000201568
7.85249e-05
0.000246693
4.67935e-05
0.000297311
1.08058e-05
0.000353648
-2.90848e-05
0.000415904
-7.25723e-05
0.000484235
-0.000119385
0.000558736
-0.000169274
0.000639418
-0.000221998
0.00072619
-0.000277314
0.000818851
-0.000334959
0.000917084
-0.000394615
0.00102049
-0.000455811
0.00112863
-0.000517621
0.00124102
-0.000577814
-0.000629809
0.00135679
5.54039e-07
2.90834e-05
3.36011e-06
7.38689e-05
9.21566e-06
0.000106117
1.8698e-05
0.000126824
3.22485e-05
0.000137119
5.02268e-05
0.000138087
7.29489e-05
0.000130721
0.000100713
0.000115899
0.000133814
9.43877e-05
0.00017255
6.68497e-05
0.000217221
3.38544e-05
0.00026812
-4.106e-06
0.000325527
-4.66009e-05
0.000389686
-9.32442e-05
0.000460792
-0.000143678
0.000538961
-0.000197554
0.00062421
-0.000254523
0.000716427
-0.000314215
0.000815342
-0.00037623
0.000920504
-0.000440121
0.00103127
-0.000505379
0.00114682
-0.000571359
0.00126622
-0.000637025
0.00138848
-0.000700075
-0.000753823
0.0015125
3.24883e-07
2.87585e-05
2.82381e-06
7.137e-05
8.54182e-06
0.000100399
1.82371e-05
0.000117128
3.24955e-05
0.00012286
5.1799e-05
0.000118784
7.65717e-05
0.000105948
0.000107209
8.52613e-05
0.000144094
5.75026e-05
0.000187601
2.33431e-05
0.00023809
-1.66348e-05
0.000295899
-6.1915e-05
0.000361325
-0.000112027
0.000434605
-0.000166524
0.000515892
-0.000224965
0.000605231
-0.000286893
0.00070253
-0.000351822
0.000807534
-0.000419219
0.00091979
-0.000488485
0.00103861
-0.000558941
0.00116303
-0.000629801
0.00129179
-0.000700117
0.00142334
-0.000768577
0.00155595
-0.000832681
-0.000886248
0.00168837
1.73323e-07
2.85852e-05
2.55298e-06
6.89903e-05
8.415e-06
9.45371e-05
1.86956e-05
0.000106848
3.41298e-05
0.000107426
5.53289e-05
9.75849e-05
8.28324e-05
7.84449e-05
0.000117137
5.09562e-05
0.000158713
1.59274e-05
0.000207998
-2.59425e-05
0.000265397
-7.40338e-05
0.00033126
-0.000127778
0.000405862
-0.00018663
0.000489386
-0.000250048
0.000581893
-0.000317472
0.000683308
-0.000388308
0.0007934
-0.000461914
0.000911769
-0.000537588
0.00103784
-0.000614554
0.00117084
-0.000691942
0.00130979
-0.000768749
0.00145341
-0.000843743
0.00159986
-0.000915029
0.00174552
-0.000978334
-0.0010224
0.00188167
1.19846e-07
2.84653e-05
2.61865e-06
6.64915e-05
8.98004e-06
8.81757e-05
2.03102e-05
9.55177e-05
3.74915e-05
9.02448e-05
6.12657e-05
7.38108e-05
9.22855e-05
4.74251e-05
0.000131142
1.20992e-05
0.000178375
-3.13053e-05
0.000234464
-8.20313e-05
0.000299816
-0.000139386
0.000374743
-0.000202705
0.000459442
-0.000271328
0.000553968
-0.000344573
0.000658219
-0.000421723
0.000771927
-0.000502016
0.000894656
-0.000584643
0.00102582
-0.000668751
0.00116472
-0.000753452
0.00131061
-0.000837832
0.00146283
-0.000920972
0.00162104
-0.00100195
0.00178573
-0.00107973
0.00196021
-0.00115281
-0.001216
0.00215382
1.78847e-07
2.82865e-05
3.0701e-06
6.36003e-05
1.03366e-05
8.09092e-05
2.32412e-05
8.26131e-05
4.28059e-05
7.06801e-05
6.98948e-05
4.67218e-05
0.000105262
1.20579e-05
0.000149573
-3.22118e-05
0.000203406
-8.51379e-05
0.000267237
-0.000145863
0.000341422
-0.000213571
0.000426169
-0.000287452
0.000521514
-0.000366673
0.000627302
-0.000450361
0.000743177
-0.000537599
0.000868583
-0.000627422
0.00100278
-0.000718838
0.00114487
-0.00081084
0.00129385
-0.000902434
0.00144869
-0.000992673
0.00160842
-0.0010807
0.00177225
-0.00116578
0.00193984
-0.00124732
0.00211162
-0.00132459
-0.00139215
0.00228777
3.55399e-07
2.79311e-05
3.92863e-06
6.00271e-05
1.25306e-05
7.23072e-05
2.75624e-05
6.75813e-05
5.01712e-05
4.80713e-05
8.13263e-05
1.55667e-05
0.000121859
-2.84753e-05
0.000172476
-8.28288e-05
0.000233749
-0.00014641
0.000306092
-0.000218206
0.000389738
-0.000297217
0.000484711
-0.000382425
0.000590801
-0.000472763
0.000707555
-0.000567116
0.000834277
-0.000664321
0.000970044
-0.000763189
0.00111373
-0.000862529
0.00126408
-0.000961182
0.0014197
-0.00105806
0.0015792
-0.00115218
0.00174121
-0.00124271
0.00190444
-0.001329
0.00206771
-0.0014106
0.00223003
-0.0014869
-0.00155288
0.00239075
6.47901e-07
2.72832e-05
5.19294e-06
5.5482e-05
1.55619e-05
6.19383e-05
3.32714e-05
4.98717e-05
5.95717e-05
2.1771e-05
9.55113e-05
-2.03728e-05
0.000141964
-7.49281e-05
0.00019963
-0.000140494
0.000269013
-0.000215794
0.000350398
-0.000299591
0.000443815
-0.000390634
0.000549015
-0.000487625
0.00066546
-0.000589208
0.000792322
-0.000693977
0.000928499
-0.000800498
0.00107266
-0.000907347
0.00122328
-0.00101315
0.00137871
-0.00111661
0.00153725
-0.0012166
0.00169722
-0.00131214
0.00185696
-0.00140245
0.00201494
-0.00148699
0.00216974
-0.0015654
0.0023201
-0.00163726
-0.00169853
0.00246576
1.04919e-06
2.6234e-05
6.84306e-06
4.96882e-05
1.93923e-05
4.9389e-05
4.03027e-05
2.89614e-05
7.08985e-05
-8.82489e-06
0.000112271
-6.17458e-05
0.000165291
-0.000127948
0.000230593
-0.000205796
0.000308545
-0.000293746
0.000399217
-0.000390263
0.000502353
-0.00049377
0.000617352
-0.000602624
0.000743272
-0.000715128
0.000878851
-0.000829556
0.00102256
-0.000944203
0.00117264
-0.00105743
0.00132721
-0.00116772
0.00148433
-0.00127374
0.00164207
-0.00137435
0.00179861
-0.00146867
0.00195224
-0.00155608
0.00210146
-0.00163621
0.00224494
-0.00170888
0.00238164
-0.00177396
-0.00182849
0.0025116
1.54877e-06
2.46852e-05
8.84694e-06
4.239e-05
2.39583e-05
3.42776e-05
4.85471e-05
4.37264e-06
8.39764e-05
-4.42542e-05
0.000131336
-0.000109105
0.000191434
-0.000188046
0.000264771
-0.000279133
0.0003515
-0.000380475
0.000451393
-0.000490157
0.000563823
-0.000606199
0.000687761
-0.000726562
0.000821809
-0.000849176
0.00096425
-0.000971997
0.00111312
-0.00109308
0.00126632
-0.00121063
0.00142168
-0.00132308
0.00157707
-0.00142913
0.00173052
-0.00152779
0.00188023
-0.00161838
0.00202465
-0.00170051
0.00216253
-0.00177408
0.00229286
-0.00183922
0.002415
-0.0018961
-0.00194282
0.00252933
2.13514e-06
2.25501e-05
1.11673e-05
3.33578e-05
2.91832e-05
1.62617e-05
5.78713e-05
-2.43155e-05
9.8591e-05
-8.49739e-05
0.000152376
-0.00016289
0.000219906
-0.000255577
0.000301469
-0.000360695
0.000396916
-0.000475921
0.000505636
-0.000598877
0.000626554
-0.000727118
0.000758164
-0.000858172
0.000898585
-0.000989597
0.00104566
-0.00111907
0.00119706
-0.00124447
0.0013504
-0.00136397
0.00150338
-0.00147605
0.00165385
-0.00157961
0.00179994
-0.00167388
0.00194008
-0.00175851
0.00207302
-0.00183346
0.0021979
-0.00189896
0.00231416
-0.00195547
0.00242158
-0.00200352
-0.00204209
0.00252085
2.79765e-06
1.97524e-05
1.37672e-05
2.23883e-05
3.49877e-05
-4.95881e-06
6.81335e-05
-5.74612e-05
0.00011451
-0.000131351
0.000175032
-0.000223412
0.000250176
-0.00033072
0.000339929
-0.000450448
0.000443754
-0.000579746
0.000560578
-0.000715701
0.000688822
-0.000855363
0.000826472
-0.000995821
0.000971181
-0.00113431
0.00112041
-0.0012683
0.00127155
-0.00139562
0.00142211
-0.00151452
0.00156977
-0.00162372
0.00171256
-0.00172239
0.00184885
-0.00181018
0.00197743
-0.0018871
0.00209749
-0.00195352
0.00220861
-0.00201007
0.00231068
-0.00205755
0.00240393
-0.00209677
-0.00212745
0.00248929
3.52774e-06
1.62247e-05
1.66137e-05
9.30237e-06
4.12965e-05
-2.96416e-05
7.91924e-05
-9.53571e-05
0.000131496
-0.000183654
0.00019893
-0.000290846
0.000281683
-0.000413473
0.000379353
-0.000548119
0.000490932
-0.000691325
0.00061482
-0.000839589
0.000748902
-0.000989444
0.000890665
-0.00113758
0.00103735
-0.001281
0.00118614
-0.00141709
0.00133431
-0.00154378
0.00147937
-0.00165958
0.0016192
-0.00176355
0.00175211
-0.0018553
0.00187688
-0.00193494
0.00199274
-0.00200296
0.00209935
-0.00206013
0.00219674
-0.00210746
0.00228522
-0.00214603
0.00236537
-0.00217692
-0.00220036
0.00243828
4.31922e-06
1.19055e-05
1.96787e-05
-6.0571e-06
4.80396e-05
-5.80025e-05
9.09098e-05
-0.000138227
0.000149307
-0.000242051
0.000223681
-0.00036522
0.000313843
-0.000503634
0.000418916
-0.000653193
0.000537347
-0.000809756
0.000666968
-0.00096921
0.000805131
-0.00112761
0.000948877
-0.00128133
0.00109515
-0.00142726
0.00124097
-0.00156291
0.00138365
-0.00168646
0.0015209
-0.00179683
0.00165092
-0.00189357
0.00177245
-0.00197683
0.00188472
-0.00204722
0.00198747
-0.0021057
0.00208078
-0.00215345
0.0021651
-0.00219177
0.00224107
-0.002222
0.00230951
-0.00224537
-0.00226246
0.00237161
5.16784e-06
6.73764e-06
2.29381e-05
-2.38274e-05
5.5151e-05
-9.02154e-05
0.000103147
-0.000186224
0.000167694
-0.000306598
0.00024888
-0.000446407
0.000346049
-0.000600803
0.000457769
-0.000764913
0.00058189
-0.000933877
0.00071567
-0.00110299
0.000855969
-0.00126791
0.000999481
-0.00142484
0.00114297
-0.00157076
0.0012835
-0.00170343
0.00141856
-0.00182152
0.0015462
-0.00192447
0.00166507
-0.00201244
0.00177439
-0.00208615
0.00187391
-0.00214673
0.00196378
-0.00219557
0.00204451
-0.00223418
0.00211685
-0.00226411
0.00218167
-0.00228682
0.00223995
-0.00230364
-0.00231536
0.00229285
6.07037e-06
6.67268e-07
2.63691e-05
-4.41262e-05
6.25635e-05
-0.00012641
0.000115761
-0.000239421
0.000186393
-0.00037723
0.000274101
-0.000534115
0.00037767
-0.000704373
0.000495053
-0.000882296
0.00062348
-0.0010623
0.000759666
-0.00123918
0.000900066
-0.00140831
0.00104116
-0.00156594
0.0011797
-0.0017093
0.00131294
-0.00183667
0.00143871
-0.00194729
0.00155552
-0.00204129
0.00166253
-0.00211945
0.00175946
-0.00218308
0.00184651
-0.00223379
0.00192425
-0.00227331
0.00199348
-0.00230342
0.00205517
-0.00232579
0.0021103
-0.00234196
0.00215991
-0.00235325
-0.00236055
0.0022051
7.02346e-06
-6.3562e-06
2.99471e-05
-6.70498e-05
7.02041e-05
-0.000166667
0.000128592
-0.000297809
0.000205121
-0.000453759
0.000298891
-0.000627885
0.000408058
-0.00081354
0.000529919
-0.00100416
0.000661099
-0.00119348
0.000797841
-0.00137592
0.000936323
-0.00154679
0.00107297
-0.00170258
0.00120469
-0.00184102
0.00132907
-0.00196104
0.0014444
-0.00206263
0.00154973
-0.00214661
0.00164472
-0.00221444
0.00172958
-0.00226794
0.0018049
-0.00230911
0.00187156
-0.00233997
0.00193057
-0.00236242
0.00198298
-0.00237821
0.00202985
-0.00238884
0.00207217
-0.00239556
-0.00239931
0.00211093
8.02264e-06
-1.43788e-05
3.36429e-05
-9.26701e-05
7.79893e-05
-0.000211013
0.000141467
-0.000361287
0.000223572
-0.000535864
0.00032278
-0.000727093
0.000436564
-0.000927324
0.000561556
-0.00112915
0.000693833
-0.00132576
0.000829279
-0.00151136
0.000963944
-0.00168145
0.00109436
-0.001833
0.00121776
-0.00196443
0.00133218
-0.00207546
0.00143646
-0.00216691
0.00153016
-0.00224031
0.00161344
-0.00229773
0.00168693
-0.00234143
0.00175153
-0.00237371
0.00180831
-0.00239674
0.00185839
-0.0024125
0.00190287
-0.00242269
0.00194276
-0.00242873
0.00197897
-0.00243178
-0.00243271
0.00201237
9.06149e-06
-2.34403e-05
3.7421e-05
-0.00012103
8.5823e-05
-0.000259415
0.000154191
-0.000429655
0.000241419
-0.000623092
0.000345288
-0.000830961
0.000462557
-0.00104459
0.000589227
-0.00125582
0.000720919
-0.00145745
0.000853298
-0.00164374
0.000982457
-0.00181061
0.0011052
-0.00195574
0.0012192
-0.00207842
0.00132302
-0.00217929
0.00141606
-0.00225995
0.0014984
-0.00232265
0.00157064
-0.00236996
0.00163369
-0.00240448
0.00168869
-0.00242871
0.00173682
-0.00244487
0.00177922
-0.00245491
0.00181696
-0.00246043
0.00185097
-0.00246274
0.00188206
-0.00246287
-0.00246159
0.00191094
1.01313e-05
-3.35716e-05
4.12385e-05
-0.000152137
9.35961e-05
-0.000311773
0.000166556
-0.000502615
0.000258326
-0.000714862
0.000365942
-0.000938577
0.000485455
-0.00116411
0.000612303
-0.00138267
0.000741776
-0.00158693
0.000869482
-0.00177145
0.000991719
-0.00193285
0.0011057
-0.00206972
0.00120962
-0.00218235
0.00130263
-0.0022723
0.00138465
-0.00234197
0.00145621
-0.00239421
0.00151825
-0.002432
0.00157192
-0.00245815
0.00161847
-0.00247525
0.00165911
-0.00248551
0.00169495
-0.00249075
0.00172697
-0.00249245
0.00175601
-0.00249178
0.00178275
-0.00248961
-0.00248661
0.00180777
1.1221e-05
-4.47926e-05
4.50456e-05
-0.000185961
0.000101188
-0.000367916
0.00017834
-0.000579766
0.000273954
-0.000810476
0.000384296
-0.00104892
0.000504749
-0.00128456
0.000630289
-0.00150821
0.000756025
-0.00171266
0.000877676
-0.0018931
0.000991888
-0.00204706
0.00109638
-0.00217422
0.00118994
-0.00227591
0.00127226
-0.00235461
0.00134375
-0.00241346
0.00140531
-0.00245577
0.00145812
-0.00248481
0.00150348
-0.00250351
0.00154266
-0.00251444
0.00157685
-0.0025197
0.00160708
-0.00252098
0.00163423
-0.00251961
0.00165901
-0.00251656
0.001682
-0.0025126
-0.00250825
0.00170365
1.23172e-05
-5.71098e-05
4.87867e-05
-0.000222431
0.000108472
-0.000427601
0.00018932
-0.000660615
0.00028798
-0.000909136
0.000399954
-0.00116089
0.000520027
-0.00140463
0.000642845
-0.00163102
0.000763501
-0.00183332
0.000877974
-0.00200757
0.00098338
-0.00215247
0.00107801
-0.00226885
0.00116124
-0.00235913
0.00123326
-0.00242664
0.0012949
-0.0024751
0.00134733
-0.00250821
0.0013919
-0.00252938
0.00142995
-0.00254156
0.00146274
-0.00254723
0.00149138
-0.00254833
0.00151679
-0.00254639
0.00153973
-0.00254255
0.00156081
-0.00253764
0.0015805
-0.00253228
-0.00252689
0.00159913
1.34049e-05
-7.05147e-05
5.24022e-05
-0.000261428
0.000115316
-0.000490514
0.000199279
-0.000744578
0.00030011
-0.00100997
0.000412582
-0.00127337
0.000530988
-0.00152304
0.000649795
-0.00174983
0.000764235
-0.00194776
0.000870684
-0.00211402
0.000966808
-0.00224859
0.0010515
-0.00235354
0.00112466
-0.0024323
0.00118697
-0.00248894
0.00123954
-0.00252767
0.00128376
-0.00255242
0.00132103
-0.00256664
0.00135269
-0.00257322
0.00137992
-0.00257446
0.00140374
-0.00257215
0.00142496
-0.00256761
0.00144421
-0.00256181
0.00146201
-0.00255544
0.00147871
-0.00254898
-0.00254276
0.00149458
1.44678e-05
-8.49825e-05
5.58302e-05
-0.000302791
0.000121591
-0.000556275
0.000208015
-0.000831002
0.000310088
-0.00111204
0.000421925
-0.0013852
0.000537453
-0.00163856
0.000651118
-0.0018635
0.000758436
-0.00205508
0.000856285
-0.00221187
0.000942924
-0.00233523
0.00101783
-0.00242844
0.0010814
-0.00249587
0.00113467
-0.00254221
0.00117901
-0.002572
0.00121587
-0.00258929
0.0012467
-0.00259747
0.00127276
-0.00259929
0.00129515
-0.00259685
0.00131475
-0.00259175
0.00133226
-0.00258512
0.00134821
-0.00257777
0.00136302
-0.00257025
0.00137697
-0.00256293
-0.00255606
0.00139026
1.54887e-05
-0.000100471
5.90093e-05
-0.000346311
0.000127174
-0.000624439
0.000215347
-0.000919175
0.000317709
-0.0012144
0.000427812
-0.00149531
0.000539363
-0.00175011
0.000646937
-0.00197107
0.000746461
-0.0021546
0.000835379
-0.00230079
0.000912558
-0.00241241
0.000978014
-0.0024939
0.00103258
-0.00255043
0.00107755
-0.00258719
0.00111445
-0.0026089
0.00114477
-0.00261962
0.00116991
-0.00262261
0.00119105
-0.00262042
0.00120915
-0.00261496
0.001225
-0.00260759
0.00123917
-0.00259929
0.00125211
-0.00259071
0.00126415
-0.00258228
0.00127551
-0.00257429
-0.00256688
0.00128633
1.64503e-05
-0.000116922
6.188e-05
-0.000391741
0.000131954
-0.000694514
0.000221126
-0.00100835
0.000322825
-0.0013161
0.000430162
-0.00160264
0.00053677
-0.00185672
0.000637497
-0.0020718
0.000728773
-0.00224588
0.000808649
-0.00238066
0.000876574
-0.00248033
0.000933046
-0.00255037
0.000979236
-0.00259662
0.00101665
-0.0026246
0.00104686
-0.00263911
0.00107136
-0.00264412
0.00109146
-0.0026427
0.00110821
-0.00263718
0.00112249
-0.00262923
0.00113494
-0.00262004
0.00114605
-0.0026104
0.00115618
-0.00260084
0.0011656
-0.0025917
0.00117447
-0.00258315
-0.00257531
0.0011829
1.73355e-05
-0.000134257
6.43873e-05
-0.000438793
0.000135835
-0.000765962
0.000225234
-0.00109775
0.000325348
-0.00141621
0.000428976
-0.00170627
0.000529828
-0.00195757
0.00062314
-0.00216511
0.000705915
-0.00232865
0.000776811
-0.00245156
0.000835819
-0.00253934
0.000883847
-0.0025984
0.000922323
-0.0026351
0.000952872
-0.00265515
0.000977084
-0.00266333
0.000996384
-0.00266342
0.00101197
-0.00265828
0.00102479
-0.00265
0.00103558
-0.00264003
0.0010449
-0.00262936
0.00105315
-0.00261865
0.00106062
-0.00260831
0.00106751
-0.00259859
0.00107396
-0.0025896
-0.0025814
0.00108005
1.81282e-05
-0.000152385
6.6482e-05
-0.000487146
0.000138738
-0.000838218
0.000227593
-0.0011866
0.000325247
-0.00151387
0.000424332
-0.00180536
0.000518768
-0.00205201
0.000604279
-0.00225062
0.000678469
-0.00240284