/*--------------------------------*- C++ -*----------------------------------*\
  =========                 |
  \\      /  F ield         | OpenFOAM: The Open Source CFD Toolbox
   \\    /   O peration     | Website:  https://openfoam.org
    \\  /    A nd           | Version:  6.0
     \\/     M anipulation  |
\*---------------------------------------------------------------------------*/
FoamFile
{
    version     2.0;
    format      ascii;
    class       volVectorField;
    location    "5";
    object      U;
}
// * * * * * * * * * * * * * * * * * * * * * * * * * * * * * * * * * * * * * //

dimensions      [0 1 -1 0 0 0 0];

internalField   nonuniform List<vector> 
12500
(
(-0.00149615 0.00163577 -1.06453e-21)
(-0.00803627 0.00396661 1.52595e-20)
(-0.020037 0.00560745 -2.23575e-20)
(-0.03484 0.00676413 1.03677e-20)
(-0.0511501 0.00756958 6.40168e-22)
(-0.0682694 0.00811842 -1.28562e-21)
(-0.0856889 0.00848075 -1.93469e-20)
(-0.103061 0.00870809 1.06856e-20)
(-0.120163 0.00883799 7.12139e-21)
(-0.136855 0.0088976 7.28375e-21)
(-0.153051 0.00890635 -1.24963e-20)
(-0.168704 0.008878 7.31109e-21)
(-0.183791 0.00882223 -3.48251e-21)
(-0.198303 0.00874592 5.93831e-21)
(-0.212242 0.00865404 -1.53192e-20)
(-0.225617 0.00855039 2.23325e-20)
(-0.238442 0.00843805 -4.22291e-21)
(-0.250731 0.00831967 -1.60161e-20)
(-0.262501 0.00819771 8.264e-21)
(-0.273775 0.00807434 -7.97979e-21)
(-0.284598 0.00795145 7.17501e-21)
(-0.294986 0.00783108 9.57429e-21)
(-0.304764 0.00771751 1.03396e-21)
(-0.313755 0.00761491 -2.76389e-20)
(-0.323442 0.00750587 1.62404e-20)
(-0.00166538 0.00499653 1.94134e-20)
(-0.00834552 0.0121012 -5.21367e-20)
(-0.0202875 0.017085 1.5531e-20)
(-0.0349277 0.0205748 1.04987e-20)
(-0.0510162 0.0229794 -8.38504e-21)
(-0.067878 0.0245912 -4.82902e-20)
(-0.0850184 0.0256275 1.43992e-20)
(-0.102098 0.0262483 -2.76429e-20)
(-0.118898 0.0265704 3.32609e-20)
(-0.13528 0.0266782 -4.46451e-20)
(-0.151159 0.0266322 2.41263e-20)
(-0.166488 0.026475 7.92491e-21)
(-0.181241 0.0262365 -1.99819e-20)
(-0.195411 0.0259376 -9.04025e-21)
(-0.208998 0.0255935 6.55716e-20)
(-0.222011 0.0252154 -5.85869e-20)
(-0.234462 0.0248122 1.39748e-20)
(-0.246366 0.0243917 2.45141e-20)
(-0.257739 0.0239608 -5.78238e-21)
(-0.268605 0.0235258 4.02561e-20)
(-0.279006 0.023092 7.60333e-21)
(-0.288962 0.0226655 -2.41301e-21)
(-0.298295 0.0222588 -5.16906e-20)
(-0.30682 0.0218847 4.82457e-20)
(-0.31602 0.0214902 -1.01841e-19)
(-0.00199653 0.00821262 6.24062e-20)
(-0.00895217 0.0199237 2.16558e-20)
(-0.0207804 0.0281668 -2.86462e-20)
(-0.0351017 0.0339551 1.24659e-20)
(-0.0507544 0.0379523 1.1679e-20)
(-0.0671086 0.0406357 4.48199e-20)
(-0.0836978 0.0423616 -5.73412e-20)
(-0.100199 0.0433934 -9.45119e-21)
(-0.116401 0.0439243 -3.90707e-20)
(-0.132169 0.0440947 -3.29728e-20)
(-0.14742 0.0440054 4.27641e-20)
(-0.162105 0.0437279 -1.44445e-19)
(-0.176199 0.0433125 -4.78327e-21)
(-0.189691 0.0427946 -8.84098e-20)
(-0.202582 0.0421996 -1.07898e-20)
(-0.214878 0.0415467 1.2529e-20)
(-0.226592 0.0408508 -7.0417e-20)
(-0.237737 0.0401249 -4.44932e-20)
(-0.248328 0.0393805 -5.30422e-20)
(-0.258389 0.0386283 8.33448e-20)
(-0.267961 0.0378771 3.10733e-20)
(-0.277068 0.0371369 -1.37386e-19)
(-0.28553 0.036429 -6.69043e-20)
(-0.293144 0.035776 -7.56775e-20)
(-0.301393 0.0350885 2.24608e-19)
(-0.00247135 0.0111953 -1.67316e-21)
(-0.0098253 0.02724 -4.99154e-20)
(-0.0214909 0.0386047 -2.46297e-20)
(-0.0353511 0.0466322 1.51605e-20)
(-0.0503706 0.0522085 9.53487e-20)
(-0.0659842 0.0559753 -4.33671e-20)
(-0.0817666 0.0584145 9.3099e-20)
(-0.0974188 0.0598849 8.95561e-20)
(-0.112742 0.0606512 5.49311e-20)
(-0.127608 0.0609073 -9.58902e-22)
(-0.141935 0.0607935 1.12596e-19)
(-0.155673 0.0604099 1.96911e-20)
(-0.168797 0.0598275 8.74458e-20)
(-0.181293 0.0590967 2.03505e-19)
(-0.193162 0.0582539 -2.37705e-19)
(-0.204408 0.0573263 3.60495e-19)
(-0.215042 0.0563354 8.00089e-20)
(-0.225077 0.0552997 -1.75752e-19)
(-0.234528 0.0542356 -2.55176e-20)
(-0.243416 0.0531583 6.4557e-20)
(-0.251784 0.0520804 -3.3093e-20)
(-0.259658 0.0510158 -2.03572e-20)
(-0.26686 0.0499953 -1.98773e-20)
(-0.27316 0.0490535 -7.94762e-20)
(-0.280038 0.0480637 3.05135e-19)
(-0.00306421 0.0138672 3.28804e-20)
(-0.010921 0.033878 -1.58485e-19)
(-0.0223839 0.0481735 1.94139e-19)
(-0.0356607 0.0583544 -7.79707e-20)
(-0.0498735 0.0654861 9.41504e-20)
(-0.0645386 0.0703477 7.76985e-20)
(-0.0792833 0.0735289 2.98278e-20)
(-0.09384 0.0754727 1.72049e-21)
(-0.108027 0.076509 1.69918e-19)
(-0.121724 0.0768816 1.18909e-19)
(-0.134853 0.0767687 -4.80161e-20)
(-0.147364 0.0762986 -3.17957e-20)
(-0.159231 0.0755634 1.32079e-19)
(-0.17044 0.074629 2.48403e-20)
(-0.180987 0.0735432 6.90258e-20)
(-0.190878 0.0723423 1.66982e-19)
(-0.20012 0.0710548 -1.44852e-19)
(-0.208728 0.0697049 1.18079e-19)
(-0.216715 0.0683145 -2.56838e-19)
(-0.224101 0.0669037 2.17855e-19)
(-0.230932 0.065489 1.78392e-21)
(-0.237236 0.0640888 -1.76759e-19)
(-0.24284 0.0627435 7.0841e-20)
(-0.247479 0.061503 1.63359e-19)
(-0.252626 0.0602033 -2.653e-19)
(-0.00374384 0.016166 1.7079e-19)
(-0.0121854 0.0396936 -1.88745e-19)
(-0.023416 0.0566797 -3.02615e-20)
(-0.0360121 0.0688996 3.92111e-20)
(-0.0492749 0.0775484 -8.47456e-20)
(-0.0628155 0.0835107 -1.33108e-19)
(-0.076323 0.087463 -1.1207e-19)
(-0.0895679 0.0899188 -2.73541e-20)
(-0.10239 0.0912649 -1.95561e-19)
(-0.114681 0.0917905 1.57646e-19)
(-0.126366 0.0917093 -2.46356e-19)
(-0.1374 0.0911773 1.2557e-19)
(-0.147753 0.0903075 -4.20213e-20)
(-0.157412 0.0891821 9.85528e-20)
(-0.166373 0.0878612 -2.49882e-19)
(-0.174638 0.0863904 1.22677e-19)
(-0.182216 0.0848061 9.57585e-21)
(-0.189119 0.0831391 5.48621e-20)
(-0.195362 0.081417 3.36733e-19)
(-0.200966 0.0796652 7.64829e-20)
(-0.205974 0.0779052 -5.78969e-21)
(-0.210425 0.0761595 2.20497e-20)
(-0.214151 0.0744794 1.4471e-19)
(-0.216847 0.0729338 4.18072e-20)
(-0.219971 0.0713224 1.51017e-19)
(-0.00447553 0.0180467 -1.06309e-19)
(-0.0135579 0.0445772 1.57276e-19)
(-0.0245385 0.0639683 1.00937e-20)
(-0.0363845 0.0780819 -1.95837e-19)
(-0.0485895 0.0881901 4.15788e-19)
(-0.0608668 0.0952481 -1.35341e-19)
(-0.0729749 0.0999955 1.99428e-19)
(-0.0847282 0.103001 1.84288e-19)
(-0.0959926 0.104698 -1.52984e-19)
(-0.106673 0.105416 -2.2573e-19)
(-0.116705 0.105402 6.20368e-20)
(-0.126043 0.104836 -6.60293e-20)
(-0.134663 0.103854 -2.96304e-19)
(-0.142548 0.102554 3.63913e-19)
(-0.149694 0.101008 -1.76255e-19)
(-0.156105 0.0992737 -1.22914e-19)
(-0.161787 0.097395 1.16289e-21)
(-0.166754 0.09541 1.02257e-19)
(-0.171022 0.093353 4.28072e-20)
(-0.174612 0.0912555 -1.67261e-19)
(-0.177569 0.0891444 1.94038e-19)
(-0.179941 0.0870474 -3.38258e-19)
(-0.181568 0.0850269 2.07842e-19)
(-0.182107 0.0831761 -1.61025e-19)
(-0.182989 0.0812611 4.31639e-20)
(-0.00522357 0.0194837 1.56924e-19)
(-0.0149754 0.048457 -1.254e-19)
(-0.0257001 0.0699278 -8.03579e-20)
(-0.0367572 0.0857581 -1.43141e-19)
(-0.0478344 0.0972437 -2.63307e-19)
(-0.0587513 0.105375 -1.96052e-19)
(-0.0693398 0.11093 1.23508e-19)
(-0.0794627 0.114517 -1.88797e-19)
(-0.089016 0.116604 2.41479e-19)
(-0.0979229 0.117554 -3.96221e-19)
(-0.106129 0.117642 1.77818e-19)
(-0.113595 0.117074 3.79723e-19)
(-0.120299 0.116004 -5.37838e-19)
(-0.126227 0.114548 7.72636e-20)
(-0.131374 0.112792 1.02554e-19)
(-0.135745 0.110802 1.00301e-19)
(-0.139347 0.108634 -1.06453e-19)
(-0.142195 0.106333 -2.54398e-20)
(-0.144305 0.103941 -8.00676e-20)
(-0.145702 0.101496 -6.74444e-20)
(-0.146433 0.0990317 -3.76599e-19)
(-0.146555 0.0965821 -2.62406e-20)
(-0.145924 0.094222 4.47012e-21)
(-0.144155 0.0920742 -1.73786e-19)
(-0.142643 0.0898767 1.94319e-19)
(-0.00595364 0.0204706 4.98027e-21)
(-0.0163763 0.0513011 5.13606e-20)
(-0.0268508 0.0744939 5.41839e-20)
(-0.0371104 0.0918318 3.11511e-20)
(-0.0470297 0.104585 2.6885e-19)
(-0.0565325 0.113744 2.55052e-19)
(-0.0655262 0.120103 -2.08422e-19)
(-0.0739246 0.124289 -6.43709e-20)
(-0.0816576 0.126797 -5.75254e-20)
(-0.0886701 0.128014 2.9896e-19)
(-0.0949208 0.128239 1.09219e-19)
(-0.100381 0.127699 -1.58292e-19)
(-0.105031 0.126568 -1.36574e-19)
(-0.108861 0.124977 3.30746e-19)
(-0.111871 0.123026 -8.16106e-20)
(-0.114062 0.120793 -1.00372e-19)
(-0.115447 0.118342 -1.42113e-19)
(-0.11604 0.115729 -1.1164e-19)
(-0.115861 0.113003 -1.44474e-19)
(-0.114937 0.110211 -9.5863e-20)
(-0.113318 0.107396 3.98878e-19)
(-0.111073 0.104597 -1.97621e-19)
(-0.108077 0.101904 1.33875e-19)
(-0.103906 0.0994764 -3.60553e-19)
(-0.0999097 0.0970324 1.5395e-19)
(-0.00663515 0.0210199 -1.42246e-19)
(-0.0177045 0.0531173 -3.87771e-20)
(-0.0279453 0.077651 -3.02789e-19)
(-0.0374278 0.0962568 -1.46503e-19)
(-0.0461976 0.110136 -2.90699e-19)
(-0.0542766 0.120251 -3.07099e-20)
(-0.061646 0.127385 1.58157e-19)
(-0.0682724 0.132171 -9.73638e-20)
(-0.074122 0.135118 2.1142e-19)
(-0.0791649 0.136628 -5.17899e-19)
(-0.0833767 0.137018 -1.60775e-20)
(-0.08674 0.136535 9.33922e-20)
(-0.0892438 0.135367 -1.19327e-19)
(-0.0908833 0.133662 1.10839e-19)
(-0.09166 0.131532 -8.42895e-20)
(-0.0915808 0.129068 -1.83937e-19)
(-0.0906582 0.126343 3.39279e-19)
(-0.0889101 0.123423 2.13215e-19)
(-0.0863589 0.120366 -4.33291e-20)
(-0.0830335 0.117228 1.43727e-19)
(-0.0789892 0.114063 -2.83897e-19)
(-0.0743055 0.11092 4.13583e-19)
(-0.0688811 0.107905 -5.67173e-19)
(-0.0622618 0.105223 1.17029e-19)
(-0.0557394 0.102583 -2.41383e-19)
(-0.00724319 0.021161 7.82722e-21)
(-0.0189132 0.0539509 -1.33077e-19)
(-0.0289457 0.079431 1.96782e-19)
(-0.0376977 0.0990379 4.06516e-19)
(-0.0453622 0.11387 -6.99639e-21)
(-0.0520494 0.124836 4.66485e-20)
(-0.0578098 0.132689 -1.78265e-19)
(-0.0626626 0.138053 8.33459e-20)
(-0.0666123 0.141436 5.83889e-19)
(-0.0696566 0.14325 -1.33011e-19)
(-0.0717917 0.143825 -1.5995e-19)
(-0.0730145 0.143419 6.06999e-19)
(-0.0733247 0.142236 2.01448e-19)
(-0.0727248 0.140436 9.73175e-20)
(-0.0712216 0.138144 9.99229e-20)
(-0.0688257 0.13546 2.73165e-19)
(-0.0655524 0.132469 -1.06917e-19)
(-0.0614222 0.129245 2.83184e-19)
(-0.0564597 0.125857 3.87584e-19)
(-0.0506969 0.122372 -3.33547e-19)
(-0.0441924 0.118856 5.00027e-19)
(-0.0370375 0.115371 1.81662e-19)
(-0.0291575 0.112044 -6.88763e-19)
(-0.0200756 0.109135 1.0019e-18)
(-0.0110223 0.106362 -8.60233e-19)
(-0.00776004 0.0209379 -3.67312e-19)
(-0.0199675 0.0538808 2.06181e-19)
(-0.0298247 0.0799103 -1.39573e-19)
(-0.0379143 0.10023 -1.33057e-19)
(-0.0445488 0.115812 -1.45195e-19)
(-0.0499131 0.12749 -1.585e-19)
(-0.0541209 0.135974 4.32417e-20)
(-0.0572417 0.141864 4.19268e-19)
(-0.0593189 0.145659 -8.94425e-20)
(-0.0603804 0.14777 -2.3692e-19)
(-0.0604454 0.148534 -1.46187e-19)
(-0.0595283 0.148217 -6.03346e-20)
(-0.0576418 0.147033 1.81158e-19)
(-0.0547982 0.145153 -1.15571e-19)
(-0.0510111 0.14271 -3.83502e-19)
(-0.0462958 0.139817 -4.28484e-19)
(-0.040671 0.136565 1.71641e-19)
(-0.034159 0.133039 -3.23987e-19)
(-0.0267866 0.129316 2.85359e-19)
(-0.0185873 0.125476 -8.08022e-19)
(-0.00962167 0.121599 6.27451e-19)
(8.37892e-06 0.117766 -8.36812e-19)
(0.0103489 0.114129 -1.74907e-20)
(0.0218884 0.111015 -2.88221e-19)
(0.0334556 0.108176 8.84793e-19)
(-0.00817618 0.0204058 5.64274e-19)
(-0.0208471 0.0530136 8.56901e-20)
(-0.0305668 0.0792048 -5.68405e-20)
(-0.0380782 0.0999346 -2.39129e-20)
(-0.0437819 0.116035 4.49644e-19)
(-0.0479226 0.128256 1.4753e-19)
(-0.0506685 0.13725 1.34854e-19)
(-0.0521363 0.143584 -1.08729e-19)
(-0.0524077 0.147738 4.23266e-19)
(-0.051542 0.150118 -2.10163e-19)
(-0.0495836 0.151056 1.35392e-19)
(-0.0465669 0.150826 3.49568e-19)
(-0.04252 0.149646 -2.00525e-19)
(-0.0374669 0.147692 2.18832e-19)
(-0.0314295 0.145108 2.0826e-19)
(-0.0244289 0.142012 7.19373e-20)
(-0.0164867 0.138502 -1.81459e-19)
(-0.00762695 0.13467 5.00557e-19)
(0.00212355 0.130604 -4.76006e-20)
(0.0127315 0.126394 -5.74546e-20)
(0.0241366 0.122135 6.17007e-19)
(0.0362293 0.117931 -4.44747e-19)
(0.0490267 0.113968 7.52717e-19)
(0.0630167 0.110658 -6.30955e-19)
(0.077075 0.107818 8.42809e-19)
(-0.00849065 0.0196275 -2.73897e-19)
(-0.0215466 0.0514769 6.26554e-20)
(-0.0311697 0.0774626 -6.61191e-20)
(-0.0381964 0.0982937 -3.12529e-19)
(-0.0430839 0.114662 1.83386e-20)
(-0.0461207 0.127226 1.80321e-19)
(-0.0475208 0.136577 -7.37805e-19)
(-0.0474427 0.143242 5.54638e-19)
(-0.0460052 0.147676 -5.43337e-19)
(-0.0432994 0.15027 -3.46038e-19)
(-0.039396 0.15135 3.12111e-19)
(-0.0343512 0.151188 -6.83036e-19)
(-0.0282102 0.150004 5.79063e-19)
(-0.0210104 0.147978 -1.8492e-19)
(-0.0127832 0.145256 -5.36482e-19)
(-0.00355561 0.14196 1.34043e-19)
(0.0066476 0.138193 -1.26506e-19)
(0.0178023 0.134052 4.99019e-20)
(0.0298835 0.129629 -1.73078e-19)
(0.042861 0.125026 -5.84577e-19)
(0.0566781 0.120354 1.30864e-19)
(0.0712215 0.11574 -1.10837e-21)
(0.0864812 0.111414 -6.19859e-19)
(0.102932 0.10789 4.35987e-19)
(0.11947 0.105096 -3.9281e-19)
(-0.00871082 0.0186695 1.11204e-19)
(-0.0220757 0.0494118 2.11606e-19)
(-0.0316431 0.0748551 2.96803e-19)
(-0.0382803 0.0954826 1.53659e-19)
(-0.0424712 0.111854 -1.5149e-19)
(-0.0445334 0.12454 3.63456e-19)
(-0.0447162 0.13407 2.70864e-19)
(-0.0432152 0.140924 -9.88857e-20)
(-0.0401836 0.145531 3.56913e-19)
(-0.0357431 0.148261 -3.69138e-19)
(-0.0299914 0.14943 -1.09551e-19)
(-0.023007 0.149302 1.11359e-19)
(-0.0148535 0.148095 2.22229e-19)
(-0.00558213 0.145988 2.75958e-21)
(0.00476558 0.143128 1.43621e-19)
(0.0161564 0.139636 2.69144e-19)
(0.0285632 0.135616 -4.61452e-19)
(0.0419631 0.131165 5.78207e-19)
(0.056335 0.126377 1.98113e-19)
(0.0716553 0.121359 7.28161e-20)
(0.0878746 0.116237 -7.20884e-19)
(0.10488 0.111162 1.01219e-19)
(0.122638 0.106412 1.60656e-19)
(0.141598 0.102631 -4.0243e-20)
(0.160638 0.099908 1.92783e-19)
(-0.00885151 0.0175987 8.54209e-21)
(-0.0224572 0.0469641 -5.44711e-19)
(-0.0320069 0.0715674 -1.34738e-20)
(-0.0383432 0.0917001 -1.38733e-19)
(-0.0419508 0.107808 -9.15651e-19)
(-0.0431628 0.12038 7.94879e-19)
(-0.0422551 0.129888 -5.68662e-19)
(-0.0394542 0.136769 -2.91994e-20)
(-0.0349441 0.141419 -2.7221e-19)
(-0.0288755 0.144187 4.73564e-19)
(-0.0213717 0.145374 -5.13131e-19)
(-0.0125335 0.145233 -2.42216e-19)
(-0.00244235 0.143975 3.97934e-21)
(0.0088364 0.141776 -5.33622e-19)
(0.0212515 0.138778 7.32372e-19)
(0.034764 0.135098 -8.5761e-19)
(0.0493451 0.130838 5.74811e-22)
(0.0649743 0.126088 1.32453e-19)
(0.0816365 0.120941 -3.39235e-19)
(0.0993169 0.115503 3.33701e-19)
(0.117977 0.109906 -4.73006e-19)
(0.137508 0.104322 -3.17405e-19)
(0.157854 0.0990834 5.95992e-19)
(0.179431 0.0949828 -6.54846e-19)
(0.201044 0.0923319 -1.31187e-20)
(-0.00893351 0.0164784 -4.458e-19)
(-0.0227243 0.0442771 5.28911e-19)
(-0.032287 0.0677884 -1.64275e-19)
(-0.0383953 0.0871579 3.16998e-19)
(-0.0415141 0.102741 3.43564e-19)
(-0.0419809 0.114962 -3.04297e-19)
(-0.0400904 0.124239 -2.02455e-19)
(-0.0360936 0.13097 -2.44246e-19)
(-0.0302013 0.13552 2.24736e-19)
(-0.0225901 0.138213 -1.58157e-20)
(-0.0134066 0.139334 3.31783e-19)
(-0.00277185 0.139124 3.29332e-19)
(0.00921609 0.137784 -3.97871e-19)
(0.0224792 0.135481 7.85226e-19)
(0.0369574 0.13235 -5.25877e-19)
(0.0526067 0.128504 -9.13109e-20)
(0.0693974 0.124035 1.04229e-18)
(0.0873116 0.119025 -4.84952e-19)
(0.106341 0.113557 3.14679e-19)
(0.126478 0.107728 6.20128e-19)
(0.147697 0.101669 -4.0389e-19)
(0.169894 0.0955631 4.23711e-20)
(0.192991 0.0897901 -2.95249e-20)
(0.217365 0.0853127 -1.71216e-19)
(0.241689 0.0827287 3.28318e-19)
(-0.00898158 0.0153654 1.02136e-19)
(-0.0229157 0.0414834 -3.33989e-19)
(-0.0325104 0.0637004 1.83898e-19)
(-0.0384385 0.0820698 -2.43284e-21)
(-0.041131 0.0968866 1.39624e-19)
(-0.0409222 0.108526 -2.41177e-19)
(-0.0381186 0.117364 1.38667e-19)
(-0.0329902 0.123765 3.80065e-19)
(-0.0257697 0.128065 -1.22731e-20)
(-0.016655 0.130567 -1.9637e-19)
(-0.00581259 0.131536 1.9792e-19)
(0.00661964 0.131199 -4.226e-21)
(0.0205298 0.129747 -6.383e-19)
(0.0358294 0.127337 2.36966e-19)
(0.0524511 0.124096 5.20003e-20)
(0.0703468 0.120126 -9.38445e-20)
(0.0894852 0.115511 -1.72376e-19)
(0.10985 0.110318 6.54643e-19)
(0.131435 0.104616 1.61806e-19)
(0.15424 0.0984871 -3.49073e-19)
(0.178243 0.0920469 -4.38132e-20)
(0.203341 0.0854752 4.92257e-19)
(0.229431 0.0791864 -2.30046e-19)
(0.256848 0.0743209 1.01135e-19)
(0.284083 0.0718233 6.81301e-20)
(-0.00902194 0.0143071 -2.03631e-19)
(-0.0230713 0.0386985 2.09611e-19)
(-0.0326987 0.0594702 -1.18358e-19)
(-0.0384593 0.0766408 -3.82039e-19)
(-0.040743 0.0904769 -3.53415e-19)
(-0.0398766 0.101324 -1.5632e-19)
(-0.0361729 0.109529 -1.30793e-19)
(-0.0299158 0.11543 -3.87893e-19)
(-0.0213541 0.119338 -1.58112e-19)
(-0.0107022 0.121537 1.45397e-19)
(0.00185881 0.122274 -2.07598e-19)
(0.0161785 0.121762 -2.19335e-19)
(0.0321349 0.120181 -2.07871e-19)
(0.0496319 0.117678 3.82541e-19)
(0.0685962 0.11437 -8.04895e-19)
(0.0889751 0.110351 4.6636e-19)
(0.110734 0.105691 -8.00027e-19)
(0.133851 0.100446 -1.24602e-19)
(0.158318 0.0946644 -4.4921e-19)
(0.184129 0.0884062 -1.06379e-19)
(0.211256 0.0817624 -1.29815e-19)
(0.239581 0.0748907 -4.40348e-19)
(0.268964 0.068214 -5.03404e-20)
(0.299703 0.0630441 2.75399e-19)
(0.330086 0.0607229 -7.31184e-19)
(-0.00907953 0.0133393 1.74804e-19)
(-0.0232253 0.0360154 2.36343e-19)
(-0.0328612 0.0552408 8.29147e-19)
(-0.0384224 0.071057 -1.46114e-19)
(-0.0402574 0.0837348 3.49697e-19)
(-0.0386843 0.0936094 8.36279e-19)
(-0.034019 0.101014 -2.29085e-19)
(-0.0265538 0.106266 3.11265e-19)
(-0.0165484 0.10966 1.81895e-19)
(-0.00422738 0.111463 3.32004e-19)
(0.0102187 0.111905 -6.62844e-20)
(0.026632 0.111189 4.56047e-20)
(0.0448843 0.109483 -1.19799e-19)
(0.0648738 0.106925 6.42856e-19)
(0.0865216 0.103624 8.1724e-20)
(0.109768 0.0996662 6.06153e-19)
(0.134567 0.095111 -1.56998e-19)
(0.160886 0.090001 5.65343e-19)
(0.188695 0.084367 8.15252e-20)
(0.217967 0.0782431 2.93681e-19)
(0.248647 0.0716876 -1.28374e-19)
(0.28058 0.0648177 -2.66482e-20)
(0.313567 0.0580301 7.17419e-19)
(0.347876 0.052782 4.49052e-19)
(0.381634 0.0508487 -1.89554e-19)
(-0.00917508 0.012485 -4.21326e-19)
(-0.0234012 0.033501 -4.40948e-19)
(-0.0329883 0.0511256 -4.6307e-19)
(-0.0382644 0.0654776 1.7107e-19)
(-0.0395423 0.0768623 -3.44446e-19)
(-0.0371336 0.0856248 -5.15069e-20)
(-0.031355 0.0920958 -1.36381e-19)
(-0.0225031 0.0965846 -5.67759e-19)
(-0.0108428 0.0993736 -8.91702e-20)
(0.00339644 0.100715 1.46687e-19)
(0.0200202 0.10083 -4.62545e-19)
(0.0388672 0.0999087 6.44933e-19)
(0.0598052 0.0981107 -8.80401e-19)
(0.082727 0.0955675 2.13588e-19)
(0.107545 0.0923827 -5.45225e-19)
(0.134185 0.0886347 -4.47024e-19)
(0.162581 0.0843777 -2.64593e-20)
(0.19267 0.0796446 -6.97144e-20)
(0.224384 0.0744517 5.32441e-20)
(0.257646 0.0688102 -2.65529e-19)
(0.292345 0.062744 -1.85382e-19)
(0.328262 0.0563169 2.31046e-19)
(0.365105 0.0498609 -6.44687e-19)
(0.403116 0.0449295 2.1096e-19)
(0.440386 0.0437593 1.57158e-19)
(-0.00932242 0.0117536 -7.42758e-20)
(-0.0236057 0.0311933 -1.27026e-19)
(-0.0330465 0.047204 5.00068e-19)
(-0.03789 0.0600281 1.86437e-19)
(-0.0384259 0.0700321 2.47734e-19)
(-0.034963 0.0775887 -3.32545e-19)
(-0.0278187 0.0830391 1.06819e-21)
(-0.0172906 0.0866922 -2.70846e-19)
(-0.00364456 0.0888245 5.02965e-19)
(0.0128896 0.0896797 1.64991e-19)
(0.032117 0.0894701 1.86527e-19)
(0.0538743 0.0883778 -7.41618e-19)
(0.0780248 0.0865562 9.20897e-19)
(0.104451 0.0841314 -2.76605e-19)
(0.133049 0.0812038 -1.99667e-19)
(0.163719 0.077849 6.03941e-19)
(0.196358 0.0741191 2.73351e-19)
(0.230851 0.0700432 -6.9374e-19)
(0.267066 0.0656307 -2.94982e-19)
(0.304846 0.0608777 8.92155e-19)
(0.343993 0.0557798 -6.89436e-19)
(0.384188 0.0503445 4.17891e-19)
(0.425011 0.0448037 2.38525e-19)
(0.466663 0.0407385 -3.07843e-19)
(0.507416 0.0408927 -3.04421e-19)
(-0.00952619 0.0111412 -2.7266e-19)
(-0.0238256 0.0291022 4.4041e-19)
(-0.0329743 0.04352 1.88377e-19)
(-0.0371712 0.054796 -2.735e-19)
(-0.0366981 0.06338 -4.40537e-20)
(-0.0318682 0.0696869 -2.88647e-19)
(-0.0230005 0.0740789 -1.15087e-19)
(-0.0103927 0.0768724 1.30173e-19)
(0.00569074 0.0783434 -3.29069e-20)
(0.0250212 0.0787313 2.46838e-19)
(0.0474031 0.0782424 -2.15499e-19)
(0.0726683 0.0770529 5.99671e-19)
(0.100669 0.0753113 -7.47498e-19)
(0.131269 0.0731403 4.67919e-19)
(0.164332 0.0706387 5.86463e-19)
(0.199716 0.0678823 -8.53232e-19)
(0.237259 0.0649254 -2.62174e-19)
(0.276771 0.0618008 4.45052e-19)
(0.318028 0.0585209 -2.76345e-19)
(0.36076 0.0550814 2.71836e-19)
(0.404645 0.0514663 -6.61587e-19)
(0.449233 0.0476402 1.09717e-19)
(0.493939 0.0437155 4.42564e-19)
(0.538891 0.0412425 -7.20648e-19)
(0.582805 0.043576 1.93879e-19)
(-0.00978039 0.0106319 -2.51032e-19)
(-0.0240246 0.027211 8.17822e-19)
(-0.0326822 0.0400828 1.57611e-19)
(-0.0359484 0.0498301 -4.28427e-19)
(-0.0341171 0.0570011 3.0857e-19)
(-0.0275138 0.0620645 1.57613e-19)
(-0.0164633 0.0654117 2.5173e-19)
(-0.00126438 0.0673726 -1.64203e-20)
(0.0178182 0.068227 -2.67255e-20)
(0.040554 0.068213 -5.60331e-20)
(0.0667408 0.0675331 -2.43911e-19)
(0.0961968 0.0663586 -8.58705e-21)
(0.12875 0.0648332 5.74138e-19)
(0.164228 0.0630762 -9.48481e-19)
(0.202444 0.0611844 6.77292e-19)
(0.243192 0.0592349 1.37894e-19)
(0.286228 0.0572868 2.45602e-19)
(0.331266 0.055383 -1.30003e-19)
(0.377965 0.0535526 1.14747e-18)
(0.425926 0.0518141 -7.15898e-19)
(0.474665 0.0501768 5.79512e-19)
(0.523553 0.0486119 1.39422e-19)
(0.571773 0.0471781 -4.35646e-19)
(0.61926 0.0474775 3.72355e-19)
(0.665238 0.0535382 5.90126e-19)
(-0.0100679 0.0102001 -7.22732e-20)
(-0.0241438 0.0254807 -2.88122e-19)
(-0.0320536 0.0368704 -4.94893e-19)
(-0.0340363 0.0451417 -2.82824e-19)
(-0.0304186 0.0509491 -3.977e-20)
(-0.0215493 0.0548225 -1.12508e-19)
(-0.00776506 0.0571879 -5.24263e-19)
(0.0106282 0.0583926 8.77643e-20)
(0.0333591 0.0587233 -5.93311e-19)
(0.0601859 0.0584183 -4.62424e-20)
(0.090887 0.0576765 -5.73668e-19)
(0.12525 0.0566636 -2.05218e-19)
(0.163057 0.0555165 1.18548e-19)
(0.204077 0.0543476 -5.66111e-19)
(0.248048 0.0532483 4.90831e-21)
(0.294676 0.0522921 -4.94293e-19)
(0.343618 0.0515393 1.9278e-19)
(0.394482 0.0510421 -7.00236e-19)
(0.44682 0.0508516 -1.22067e-19)
(0.50012 0.0510282 -1.62102e-20)
(0.553788 0.0516497 -1.21037e-19)
(0.607065 0.0527932 -1.23167e-19)
(0.658935 0.054703 -5.8963e-20)
(0.708795 0.0593376 -2.50324e-19)
(0.754705 0.070635 -5.51489e-19)
(-0.010361 0.00981337 1.336e-19)
(-0.0241034 0.0238558 3.64176e-19)
(-0.0309498 0.033836 4.39885e-19)
(-0.0312302 0.04071 -3.53134e-19)
(-0.0253273 0.0452394 6.58922e-19)
(-0.0136252 0.0480185 -3.59007e-19)
(0.00351692 0.0495102 1.96014e-19)
(0.0257755 0.050081 3.06556e-19)
(0.0528593 0.0500253 2.79686e-19)
(0.0844984 0.0495814 1.36613e-19)
(0.12043 0.048943 2.21522e-19)
(0.160386 0.0482668 1.29319e-19)
(0.204075 0.0476783 8.78973e-19)
(0.251175 0.0472764 -6.41798e-19)
(0.301321 0.0471374 7.37196e-19)
(0.354104 0.0473201 -3.08048e-19)
(0.409065 0.0478707 6.7041e-19)
(0.465704 0.0488311 -2.99696e-20)
(0.523482 0.0502489 -1.40203e-19)
(0.58184 0.0521952 -2.48081e-20)
(0.640211 0.054786 5.39855e-19)
(0.698028 0.0582287 -5.26348e-19)
(0.754858 0.0631447 3.74919e-19)
(0.810682 0.0715788 4.12738e-19)
(0.85927 0.0826906 8.36046e-20)
(-0.0106231 0.00943636 9.22475e-20)
(-0.0238062 0.0222708 -5.194e-19)
(-0.0292148 0.0309153 -1.89915e-19)
(-0.027315 0.0364896 1.74549e-19)
(-0.0185681 0.0398564 -5.39714e-19)
(-0.00340894 0.0416731 -1.06536e-19)
(0.017766 0.0424388 7.44095e-20)
(0.0445988 0.0425384 2.94953e-19)
(0.0767574 0.0422728 -7.5e-19)
(0.113919 0.041878 5.72349e-20)
(0.15575 0.0415387 -2.20915e-19)
(0.201891 0.0413975 -6.74548e-19)
(0.251943 0.0415606 4.61506e-19)
(0.305457 0.042104 1.99726e-20)
(0.361933 0.043077 -1.42602e-20)
(0.420816 0.0445076 4.73676e-19)
(0.481512 0.0464076 -8.40722e-19)
(0.543393 0.0487789 6.6997e-19)
(0.60582 0.0516205 -1.23869e-19)
(0.668172 0.0549365 3.94113e-19)
(0.729865 0.0587424 -6.50009e-19)
(0.790393 0.0630718 3.73464e-19)
(0.849431 0.0681115 -6.63138e-19)
(0.907127 0.0747289 6.77321e-19)
(0.958373 0.0815637 -2.17414e-19)
(-0.0108107 0.0090339 6.16129e-19)
(-0.0231425 0.0206585 -1.03765e-19)
(-0.026682 0.0280369 7.72504e-19)
(-0.0220722 0.0324217 3.59637e-19)
(-0.00987592 0.0347645 2.90064e-20)
(0.00940329 0.0357807 1.58481e-19)
(0.0353116 0.0360019 3.85644e-20)
(0.0674328 0.0358283 6.50767e-19)
(0.105366 0.0355632 2.1038e-19)
(0.148701 0.035436 -2.83514e-20)
(0.196997 0.0356166 5.68379e-20)
(0.249765 0.0362253 2.20032e-19)
(0.306455 0.0373406 1.84633e-19)
(0.366459 0.0390042 3.97617e-19)
(0.429104 0.0412264 -4.54218e-19)
(0.493671 0.0439913 1.3813e-19)
(0.559411 0.0472619 4.21354e-20)
(0.625562 0.050986 2.06163e-19)
(0.691382 0.055101 5.6077e-19)
(0.756172 0.0595377 -3.67748e-19)
(0.819309 0.0642206 3.13345e-20)
(0.880263 0.0690609 -5.16074e-19)
(0.93864 0.0740064 4.8632e-19)
(0.994391 0.0794946 -4.60606e-19)
(1.04376 0.0852813 5.01969e-20)
(-0.0108764 0.00857475 -5.13516e-19)
(-0.0219947 0.0189569 4.07388e-19)
(-0.0231803 0.0251319 -6.67155e-19)
(-0.0152872 0.0284457 5.78874e-20)
(0.000997315 0.0299217 4.74409e-19)
(0.025079 0.0303248 -7.94107e-19)
(0.0564213 0.0302123 6.32543e-19)
(0.0945188 0.0299934 -1.00779e-18)
(0.138866 0.0299682 2.01726e-19)
(0.188924 0.030352 4.32754e-20)
(0.244102 0.0312914 3.43019e-19)
(0.303737 0.0328753 -1.14384e-18)
(0.367092 0.0351429 1.98123e-19)
(0.433362 0.0380906 2.11015e-19)
(0.501685 0.0416782 -1.27113e-19)
(0.571163 0.0458358 -7.92125e-19)
(0.640894 0.0504699 3.73984e-19)
(0.709999 0.0554704 7.02176e-19)
(0.777653 0.0607154 -7.41747e-19)
(0.843113 0.0660762 5.38591e-19)
(0.905745 0.0714171 -6.9527e-19)
(0.965035 0.07659 5.05603e-19)
(1.0206 0.0814556 -1.36532e-19)
(1.07231 0.086277 7.82525e-19)
(1.11771 0.0916472 -8.84445e-19)
(-0.010771 0.00803401 7.32936e-20)
(-0.0202426 0.0171161 6.01554e-20)
(-0.0185389 0.0221435 1.47991e-19)
(-0.00675355 0.0245115 5.31528e-19)
(0.0142782 0.0252943 -1.67233e-20)
(0.043846 0.0252942 1.20106e-19)
(0.0812986 0.0250845 5.36665e-19)
(0.126004 0.0250749 2.17509e-19)
(0.177308 0.0255529 -7.19127e-20)
(0.234498 0.02671 6.15284e-19)
(0.296786 0.0286583 -7.0363e-19)
(0.363293 0.0314429 1.08393e-18)
(0.43306 0.0350517 -4.31843e-19)
(0.505065 0.0394238 7.87143e-19)
(0.578246 0.044459 -2.66712e-19)
(0.65154 0.0500264 9.7644e-20)
(0.723916 0.0559739 1.18632e-19)
(0.794417 0.0621368 -2.29384e-19)
(0.862188 0.0683458 1.92769e-19)
(0.926506 0.0744325 1.24466e-19)
(0.986793 0.080233 1.70738e-19)
(1.04263 0.0855871 3.58061e-19)
(1.09372 0.0903457 -3.31423e-20)
(1.14002 0.094682 -1.63653e-19)
(1.18019 0.0997027 4.76816e-19)
(-0.0104459 0.0073948 -4.28627e-19)
(-0.0177669 0.0151025 4.69867e-20)
(-0.0125917 0.0190354 -8.51133e-19)
(0.00372305 0.0205908 -2.0448e-19)
(0.0301694 0.02087 -3.85106e-19)
(0.0658908 0.0206982 -8.30499e-20)
(0.110084 0.0206521 -4.16645e-19)
(0.161944 0.0211295 -2.50089e-19)
(0.220621 0.0223933 3.3285e-19)
(0.285178 0.0245976 -5.57809e-19)
(0.354582 0.0278057 -1.55564e-19)
(0.427704 0.0320048 6.21649e-21)
(0.503339 0.0371176 -1.06048e-18)
(0.580242 0.0430153 4.52491e-19)
(0.657166 0.0495299 -6.62859e-19)
(0.732915 0.0564672 -2.06994e-20)
(0.806384 0.0636194 1.31209e-19)
(0.876602 0.0707774 -2.13749e-19)
(0.942759 0.0777398 -1.87772e-19)
(1.00423 0.0843211 9.28111e-20)
(1.06057 0.0903569 1.03037e-19)
(1.11153 0.095704 -6.70463e-19)
(1.157 0.100242 3.82351e-19)
(1.19709 0.104106 1.8802e-19)
(1.23127 0.108621 4.66446e-20)
(-0.00985442 0.00664898 4.38227e-19)
(-0.0144517 0.0129026 -4.85069e-19)
(-0.00517967 0.0157974 6.8527e-19)
(0.0163228 0.0166856 1.07402e-19)
(0.0488481 0.0166692 -3.30948e-20)
(0.0913584 0.0165793 -2.34514e-19)
(0.142853 0.0169801 3.54111e-20)
(0.202306 0.0182421 3.60232e-19)
(0.268614 0.0205867 -4.99209e-19)
(0.340569 0.0241138 5.26571e-19)
(0.416852 0.0288207 -5.58168e-20)
(0.496057 0.0346202 2.45386e-20)
(0.576728 0.0413571 6.93264e-19)
(0.657413 0.0488252 9.32262e-19)
(0.736722 0.0567855 -3.66007e-19)
(0.813384 0.0649833 6.51231e-19)
(0.886296 0.0731649 3.3064e-19)
(0.954555 0.0810913 -2.03108e-19)
(1.01748 0.0885493 6.41572e-19)
(1.07463 0.0953589 -2.65901e-20)
(1.12577 0.101377 -6.15274e-19)
(1.17087 0.106499 6.46024e-19)
(1.21005 0.11065 9.03883e-20)
(1.24361 0.113961 -3.95575e-19)
(1.27159 0.117779 1.25028e-19)
(-0.00895215 0.0057971 -6.09372e-19)
(-0.0101868 0.0105236 6.61162e-19)
(0.0038467 0.012449 -4.22432e-19)
(0.031209 0.0128329 -1.32617e-19)
(0.0704632 0.0127512 -2.9891e-19)
(0.120348 0.0130202 5.31638e-19)
(0.179616 0.0141722 -3.10384e-19)
(0.246962 0.0165301 -1.43e-19)
(0.320979 0.0202538 -4.11332e-19)
(0.400136 0.0253678 1.06129e-20)
(0.482803 0.031784 -1.62217e-19)
(0.567285 0.0393247 7.93243e-20)
(0.651894 0.0477451 -8.37646e-19)
(0.735016 0.0567573 2.39519e-19)
(0.815185 0.0660537 -2.89777e-19)
(0.891137 0.0753293 -2.33684e-19)
(0.96186 0.0843 7.18887e-20)
(1.02662 0.0927179 -3.41853e-19)
(1.08494 0.10038 -1.45785e-19)
(1.13662 0.107134 4.22441e-19)
(1.1817 0.112877 1.77077e-19)
(1.22039 0.117556 -7.55744e-19)
(1.25306 0.12115 5.53263e-19)
(1.2802 0.123811 -1.04604e-19)
(1.30222 0.126773 -2.1453e-19)
(-0.0076973 0.0048476 -2.21859e-19)
(-0.00486851 0.00799362 -1.23189e-19)
(0.0146251 0.00903998 -2.47171e-20)
(0.0485251 0.00910738 1.82961e-19)
(0.0951303 0.00921616 2.00209e-19)
(0.152909 0.0101444 1.75376e-19)
(0.220309 0.0123688 2.19328e-19)
(0.295689 0.0161401 3.36508e-19)
(0.377284 0.0215318 5.16767e-19)
(0.463208 0.0284692 5.1359e-19)
(0.551501 0.036759 2.72264e-19)
(0.640201 0.0461184 -7.34126e-20)
(0.727432 0.0562066 1.84195e-20)
(0.811489 0.0666561 -2.47325e-20)
(0.890919 0.0771014 2.18412e-19)
(0.964566 0.0872046 -5.76442e-20)
(1.03161 0.0966735 6.47752e-19)
(1.09155 0.105275 -2.91852e-19)
(1.14422 0.11284 4.11302e-21)
(1.18968 0.119262 2.03038e-19)
(1.22826 0.124495 -4.4561e-19)
(1.26043 0.128543 7.37839e-19)
(1.28676 0.131443 -5.97497e-19)
(1.30791 0.133373 1.07682e-19)
(1.32449 0.135395 -3.85104e-19)
(-0.00605031 0.00381594 4.75914e-19)
(0.00159953 0.00535971 3.33035e-19)
(0.0272791 0.00564875 -2.1487e-19)
(0.0683896 0.00561847 9.56278e-19)
(0.122925 0.00620205 -8.32694e-19)
(0.189029 0.00811197 1.76645e-19)
(0.264785 0.0117405 -1.33275e-19)
(0.348156 0.0172374 -5.91716e-19)
(0.436975 0.024561 -6.12715e-20)
(0.528983 0.0335131 -4.81301e-19)
(0.621902 0.0437765 1.0434e-20)
(0.713546 0.0549544 -5.02691e-19)