1.275 	2.15223e-18 	-2.76991e-20 	-0.425246
1.825 	2.15223e-18 	-1.39322e-20 	-0.365111
2.375 	2.15223e-18 	1.38775e-18 	-0.278606
2.925 	2.15223e-18 	2.78958e-18 	-0.241837
3.475 	2.15223e-18 	4.53849e-18 	-0.125397
4.025 	2.15223e-18 	6.28755e-18 	-0.0387846
4.575 	2.15223e-18 	6.30203e-18 	-0.100554
5.125 	2.15223e-18 	6.31666e-18 	-0.143405
5.675 	2.15223e-18 	6.33144e-18 	-0.0957923
6.225 	2.15223e-18 	4.61166e-18 	-0.0573139
