/*--------------------------------*- C++ -*----------------------------------*\
  =========                 |
  \\      /  F ield         | OpenFOAM: The Open Source CFD Toolbox
   \\    /   O peration     | Website:  https://openfoam.org
    \\  /    A nd           | Version:  6.0
     \\/     M anipulation  |
\*---------------------------------------------------------------------------*/
FoamFile
{
    version     2.0;
    format      ascii;
    class       volScalarField;
    location    "88";
    object      p;
}
// * * * * * * * * * * * * * * * * * * * * * * * * * * * * * * * * * * * * * //

dimensions      [0 2 -2 0 0 0 0];

internalField   nonuniform List<scalar> 
4000
(
-0.405193
-0.407778
-0.409144
-0.409921
-0.410496
-0.410955
-0.411347
-0.411697
-0.412007
-0.41227
-0.412474
-0.412612
-0.41268
-0.412678
-0.412617
-0.412518
-0.412386
-0.412116
-0.411699
-0.412276
-0.410987
-0.413952
-0.415588
-0.416616
-0.417465
-0.418212
-0.418893
-0.419517
-0.420071
-0.420531
-0.420873
-0.421078
-0.421137
-0.421048
-0.420822
-0.420487
-0.420053
-0.419439
-0.418666
-0.418751
-0.417521
-0.420783
-0.422655
-0.42393
-0.425059
-0.42611
-0.4271
-0.428019
-0.428833
-0.4295
-0.429981
-0.430244
-0.430271
-0.430058
-0.429616
-0.42898
-0.428169
-0.427129
-0.425913
-0.425417
-0.424841
-0.428295
-0.430361
-0.43187
-0.433285
-0.434654
-0.435973
-0.437209
-0.438305
-0.439197
-0.439826
-0.440145
-0.440124
-0.439753
-0.439043
-0.438036
-0.436763
-0.4352
-0.433431
-0.432255
-0.432949
-0.436473
-0.438679
-0.440406
-0.442105
-0.443803
-0.44547
-0.447047
-0.44845
-0.44959
-0.450385
-0.450768
-0.45069
-0.450134
-0.449108
-0.447658
-0.44583
-0.44363
-0.441176
-0.439208
-0.441795
-0.445256
-0.447541
-0.449461
-0.451436
-0.453468
-0.455497
-0.457435
-0.459171
-0.460586
-0.46157
-0.462031
-0.461901
-0.461143
-0.45976
-0.457799
-0.455321
-0.452356
-0.449062
-0.446183
-0.451278
-0.454537
-0.456835
-0.458914
-0.461146
-0.463503
-0.465898
-0.468211
-0.470299
-0.472014
-0.473214
-0.473777
-0.473607
-0.472645
-0.470879
-0.468351
-0.465131
-0.461271
-0.456969
-0.453054
-0.461243
-0.46417
-0.466407
-0.4686
-0.471055
-0.473716
-0.476464
-0.47915
-0.481598
-0.483629
-0.485068
-0.485758
-0.48557
-0.484415
-0.482257
-0.479126
-0.475092
-0.470217
-0.464739
-0.459664
-0.471496
-0.473973
-0.476075
-0.478325
-0.480951
-0.483872
-0.48694
-0.489974
-0.492771
-0.495116
-0.496803
-0.497639
-0.497457
-0.496131
-0.493592
-0.489847
-0.484957
-0.478977
-0.472176
-0.465829
-0.481817
-0.48375
-0.485642
-0.487879
-0.490607
-0.493722
-0.497049
-0.50038
-0.503483
-0.506116
-0.508038
-0.50902
-0.508859
-0.507386
-0.504492
-0.500149
-0.494398
-0.487269
-0.479042
-0.471329
-0.491981
-0.493303
-0.494914
-0.49706
-0.499803
-0.50302
-0.506518
-0.510064
-0.5134
-0.51626
-0.518371
-0.519474
-0.519326
-0.517719
-0.514498
-0.509595
-0.503015
-0.494749
-0.485053
-0.475909
-0.501775
-0.502454
-0.503724
-0.505691
-0.508346
-0.511556
-0.51511
-0.518759
-0.522225
-0.525216
-0.527438
-0.5286
-0.528429
-0.526676
-0.523145
-0.517722
-0.510372
-0.501033
-0.489896
-0.479288
-0.511022
-0.511061
-0.511939
-0.513641
-0.516099
-0.519175
-0.522655
-0.526274
-0.529738
-0.532739
-0.534961
-0.53609
-0.535823
-0.533882
-0.530032
-0.524115
-0.516055
-0.505741
-0.493256
-0.481186
-0.519596
-0.519031
-0.51948
-0.520836
-0.522987
-0.525801
-0.529066
-0.53251
-0.53583
-0.538701
-0.540792
-0.541769
-0.541308
-0.539105
-0.534894
-0.528482
-0.51976
-0.508574
-0.494878
-0.481379
-0.52743
-0.526324
-0.526325
-0.527264
-0.529005
-0.531435
-0.534349
-0.537476
-0.540507
-0.543107
-0.54493
-0.545627
-0.544855
-0.542292
-0.537653
-0.530716
-0.521349
-0.50938
-0.494632
-0.479763
-0.534525
-0.532957
-0.532506
-0.532972
-0.534218
-0.536157
-0.5386
-0.541281
-0.54389
-0.546086
-0.54751
-0.547799
-0.546597
-0.543569
-0.538416
-0.530904
-0.520887
-0.508202
-0.492573
-0.476419
-0.540945
-0.539
-0.538104
-0.538059
-0.538746
-0.54011
-0.541985
-0.544115
-0.546191
-0.547866
-0.548773
-0.548537
-0.54679
-0.543189
-0.537433
-0.529286
-0.518606
-0.505265
-0.488942
-0.471635
-0.546811
-0.544567
-0.543243
-0.542666
-0.542754
-0.543486
-0.544722
-0.54622
-0.547673
-0.548733
-0.549022
-0.548154
-0.545756
-0.541482
-0.535034
-0.526187
-0.514818
-0.500854
-0.483982
-0.465705
-0.552288
-0.549806
-0.548072
-0.546959
-0.546429
-0.546498
-0.547052
-0.547862
-0.548628
-0.548993
-0.548576
-0.546985
-0.543842
-0.53881
-0.531603
-0.522014
-0.509935
-0.495311
-0.477813
-0.458725
-0.557572
-0.554888
-0.552759
-0.551117
-0.549969
-0.549367
-0.549217
-0.549305
-0.54933
-0.548936
-0.547734
-0.545333
-0.541367
-0.535518
-0.52754
-0.51727
-0.50463
-0.489522
-0.471525
-0.452311
-0.562871
-0.559988
-0.557474
-0.555318
-0.553566
-0.552297
-0.551438
-0.550779
-0.55002
-0.548801
-0.546735
-0.543439
-0.53857
-0.531853
-0.523107
-0.512256
-0.499337
-0.484454
-0.467934
-0.452622
-0.568389
-0.565279
-0.562381
-0.559725
-0.557388
-0.555467
-0.553896
-0.552468
-0.550878
-0.548766
-0.545749
-0.541464
-0.535604
-0.52795
-0.518388
-0.506924
-0.493681
-0.478893
-0.463009
-0.447684
-0.574309
-0.570917
-0.567623
-0.56448
-0.561575
-0.559013
-0.556725
-0.554498
-0.552022
-0.548936
-0.544872
-0.539499
-0.532558
-0.523894
-0.513464
-0.501341
-0.487703
-0.472809
-0.457005
-0.441176
-0.580782
-0.577032
-0.573319
-0.569694
-0.566232
-0.56303
-0.560007
-0.556936
-0.553502
-0.54935
-0.544137
-0.537575
-0.52947
-0.519734
-0.508396
-0.495585
-0.481511
-0.466436
-0.450648
-0.434735
-0.58792
-0.58372
-0.579557
-0.575446
-0.571424
-0.567567
-0.563773
-0.559796
-0.555316
-0.549994
-0.543525
-0.535683
-0.526343
-0.515497
-0.503237
-0.489741
-0.475241
-0.459991
-0.444248
-0.428415
-0.595794
-0.591048
-0.586396
-0.581783
-0.577183
-0.57264
-0.568016
-0.563048
-0.557417
-0.550812
-0.542985
-0.533782
-0.523162
-0.511191
-0.498024
-0.483874
-0.468986
-0.453606
-0.437968
-0.422385
-0.604437
-0.599052
-0.593868
-0.588727
-0.583516
-0.57823
-0.572695
-0.566629
-0.559727
-0.551724
-0.542443
-0.531818
-0.519895
-0.506812
-0.492772
-0.478015
-0.462784
-0.447307
-0.431793
-0.416479
-0.613846
-0.607738
-0.60198
-0.596276
-0.590402
-0.584294
-0.577741
-0.57045
-0.562145
-0.552628
-0.541812
-0.529726
-0.516501
-0.502338
-0.487476
-0.472161
-0.456627
-0.441074
-0.425682
-0.410623
-0.62399
-0.617089
-0.610716
-0.604406
-0.597798
-0.590766
-0.583062
-0.574398
-0.564551
-0.553413
-0.540998
-0.527435
-0.512931
-0.497737
-0.482108
-0.466286
-0.450478
-0.434853
-0.419558
-0.4047
-0.63481
-0.627062
-0.620039
-0.61307
-0.605638
-0.59755
-0.588537
-0.578339
-0.566813
-0.553958
-0.539903
-0.52487
-0.50913
-0.492963
-0.476627
-0.460341
-0.444283
-0.428582
-0.413349
-0.398636
-0.646217
-0.637588
-0.629883
-0.622191
-0.613822
-0.604522
-0.594021
-0.58212
-0.568784
-0.554139
-0.538427
-0.521954
-0.505035
-0.487962
-0.470977
-0.454269
-0.437976
-0.42219
-0.406984
-0.392362
-0.658096
-0.64857
-0.640153
-0.631662
-0.622218
-0.611525
-0.599343
-0.585573
-0.570314
-0.55383
-0.536471
-0.518608
-0.500581
-0.482672
-0.465095
-0.448001
-0.431486
-0.415607
-0.400398
-0.385826
-0.670298
-0.659876
-0.65072
-0.641334
-0.630654
-0.618367
-0.604307
-0.588513
-0.571246
-0.552906
-0.533936
-0.514752
-0.495695
-0.477022
-0.458909
-0.441463
-0.42474
-0.408763
-0.393525
-0.378977
-0.682638
-0.67134
-0.661411
-0.651018
-0.63892
-0.624826
-0.608699
-0.590753
-0.571423
-0.551241
-0.530723
-0.5103
-0.490298
-0.470934
-0.452339
-0.434575
-0.417661
-0.401585
-0.386306
-0.371769
-0.694894
-0.682754
-0.672017
-0.660485
-0.646769
-0.630657
-0.612292
-0.592099
-0.570693
-0.548717
-0.526733
-0.505167
-0.484308
-0.464326
-0.445303
-0.427257
-0.410171
-0.394004
-0.378678
-0.364153
-0.706809
-0.693876
-0.682285
-0.669466
-0.653926
-0.635596
-0.614856
-0.592365
-0.568908
-0.545216
-0.521868
-0.499263
-0.47764
-0.457114
-0.437717
-0.419426
-0.402193
-0.385949
-0.370582
-0.35608
-0.71809
-0.704424
-0.691926
-0.677659
-0.660092
-0.63937
-0.616161
-0.591366
-0.565923
-0.540621
-0.516028
-0.492496
-0.470203
-0.449208
-0.429495
-0.411002
-0.393652
-0.377352
-0.361956
-0.3475
-0.728414
-0.714082
-0.700615
-0.68473
-0.664943
-0.641692
-0.615968
-0.588913
-0.561588
-0.534807
-0.509101
-0.484759
-0.461896
-0.440511
-0.420542
-0.401895
-0.384466
-0.368137
-0.352736
-0.338356
-0.737433
-0.72251
-0.708003
-0.690334
-0.668164
-0.642296
-0.614067
-0.584844
-0.555774
-0.527665
-0.500989
-0.475961
-0.452628
-0.430935
-0.410776
-0.392026
-0.374561
-0.35824
-0.342863
-0.328599
-0.744785
-0.729349
-0.713733
-0.694133
-0.669463
-0.640952
-0.61029
-0.579036
-0.54839
-0.519119
-0.491622
-0.466035
-0.442335
-0.420417
-0.400136
-0.381341
-0.363889
-0.347616
-0.332302
-0.318196
-0.555896
-0.541136
-0.527894
-0.512961
-0.494895
-0.474166
-0.451714
-0.428557
-0.405592
-0.383465
-0.362566
-0.343071
-0.325014
-0.308345
-0.292968
-0.278771
-0.265642
-0.253452
-0.242002
-0.231523
-0.544128
-0.529947
-0.517575
-0.504155
-0.488198
-0.469882
-0.449838
-0.428862
-0.407743
-0.387115
-0.367401
-0.348834
-0.331505
-0.31541
-0.300491
-0.286663
-0.273834
-0.261896
-0.250672
-0.240324
-0.531272
-0.517759
-0.506195
-0.494107
-0.48005
-0.463994
-0.446296
-0.427527
-0.408343
-0.389332
-0.370928
-0.353409
-0.336914
-0.321489
-0.307113
-0.29373
-0.28127
-0.269647
-0.258707
-0.248556
-0.517695
-0.504933
-0.494128
-0.4832
-0.470822
-0.456831
-0.441361
-0.424771
-0.407564
-0.390254
-0.373265
-0.356898
-0.341336
-0.326668
-0.312911
-0.300043
-0.288016
-0.276765
-0.266163
-0.256268
-0.503734
-0.491793
-0.481712
-0.471788
-0.460864
-0.448711
-0.4353
-0.420801
-0.405562
-0.389999
-0.3745
-0.359374
-0.344833
-0.331002
-0.317939
-0.30565
-0.294114
-0.283288
-0.273074
-0.263493
-0.489689
-0.478628
-0.469244
-0.460189
-0.450498
-0.439938
-0.428374
-0.415823
-0.402487
-0.388673
-0.374712
-0.360895
-0.347451
-0.334532
-0.32223
-0.310582
-0.299593
-0.289245
-0.279464
-0.270249
-0.475818
-0.465681
-0.456981
-0.448685
-0.440028
-0.430815
-0.420858
-0.410069
-0.39852
-0.38641
-0.373993
-0.361529
-0.349241
-0.3373
-0.325822
-0.314873
-0.304485
-0.29466
-0.285354
-0.276551
-0.462338
-0.453151
-0.445128
-0.437507
-0.429716
-0.421618
-0.413021
-0.403774
-0.393852
-0.38335
-0.372445
-0.361345
-0.350252
-0.339341
-0.328743
-0.318547
-0.308807
-0.299549
-0.290755
-0.282404
-0.449418
-0.441192
-0.433844
-0.426838
-0.419775
-0.412586
-0.405108
-0.397166
-0.388674
-0.379643
-0.370172
-0.36041
-0.350526
-0.340679
-0.331007
-0.321611
-0.312566
-0.303916
-0.295668
-0.287798
-0.437183
-0.429914
-0.42324
-0.416808
-0.410367
-0.403914
-0.397333
-0.39046
-0.383178
-0.375444
-0.367288
-0.358799
-0.350103
-0.341334
-0.332618
-0.324064
-0.315755
-0.307751
-0.300079
-0.292712
-0.425718
-0.419389
-0.413386
-0.407501
-0.401603
-0.395748
-0.38987
-0.383842
-0.377545
-0.370906
-0.363909
-0.356591
-0.349028
-0.341321
-0.333576
-0.325893
-0.318356
-0.311034
-0.30397
-0.297119
-0.415072
-0.409653
-0.404314
-0.398958
-0.393547
-0.388182
-0.38285
-0.377467
-0.371937
-0.366183
-0.360163
-0.353874
-0.347353
-0.340661
-0.333875
-0.327078
-0.320343
-0.313738
-0.307317
-0.300997
-0.405264
-0.400719
-0.396029
-0.391185
-0.38622
-0.381265
-0.376353
-0.371447
-0.366488
-0.361412
-0.356174
-0.35075
-0.345145
-0.339386
-0.33352
-0.327602
-0.32169
-0.315837
-0.310103
-0.304345
-0.396295
-0.392581
-0.388516
-0.384163
-0.379609
-0.375005
-0.370418
-0.365856
-0.361298
-0.356713
-0.352064
-0.347325
-0.342484
-0.337544
-0.332524
-0.327455
-0.32237
-0.317302
-0.312312
-0.307178
-0.388154
-0.385223
-0.38175
-0.377859
-0.373683
-0.369381
-0.365046
-0.360725
-0.356436
-0.352179
-0.347943
-0.34371
-0.339466
-0.335204
-0.330925
-0.326639
-0.322362
-0.318105
-0.313931
-0.309567
-0.380837
-0.378631
-0.375705
-0.372239
-0.368403
-0.364359
-0.360221
-0.356063
-0.35194
-0.347883
-0.343907
-0.340014
-0.3362
-0.332456
-0.32878
-0.325174
-0.321647
-0.318201
-0.314907
-0.311532
-0.374345
-0.372799
-0.370365
-0.367277
-0.363738
-0.35991
-0.35592
-0.351868
-0.347833
-0.343878
-0.340041
-0.336347
-0.332805
-0.329416
-0.326181
-0.323106
-0.320211
-0.317522
-0.315135
-0.313132
-0.368695
-0.367732
-0.365727
-0.362964
-0.359674
-0.35602
-0.352137
-0.348144
-0.344143
-0.340218
-0.33643
-0.332822
-0.329418
-0.326226
-0.323253
-0.320515
-0.318051
-0.315936
-0.314338
-0.314051
-0.363914
-0.363446
-0.361801
-0.359309
-0.356221
-0.352701
-0.34889
-0.344922
-0.340915
-0.33697
-0.333167
-0.329563
-0.326189
-0.32306
-0.320176
-0.317547
-0.315216
-0.313288
-0.312072
-0.313846
-0.360037
-0.359962
-0.358609
-0.356334
-0.353409
-0.34999
-0.346226
-0.342259
-0.338221
-0.334227
-0.330369
-0.326713
-0.323297
-0.32013
-0.317193
-0.314456
-0.311904
-0.309542
-0.307669
-0.310486
-0.35709
-0.357299
-0.356168
-0.354068
-0.351274
-0.347936
-0.344205
-0.340232
-0.336155
-0.3321
-0.328168
-0.324434
-0.320937
-0.317674
-0.31459
-0.311564
-0.308394
-0.304617
-0.299029
-0.29242
-0.355082
-0.355461
-0.354489
-0.35253
-0.349847
-0.346584
-0.342891
-0.338919
-0.334815
-0.330708
-0.326711
-0.322903
-0.319334
-0.316004
-0.312857
-0.309771
-0.306544
-0.302781
-0.297556
-0.292179
-0.353993
-0.354432
-0.353564
-0.351718
-0.349139
-0.345959
-0.342321
-0.338378
-0.334276
-0.330151
-0.326118
-0.32227
-0.318665
-0.315327
-0.312231
-0.309308
-0.306449
-0.303397
-0.299533
-0.296605
-0.353772
-0.354174
-0.35336
-0.35161
-0.349135
-0.346054
-0.342503
-0.338628
-0.334576
-0.330482
-0.326466
-0.322628
-0.319038
-0.31574
-0.312746
-0.310041
-0.307594
-0.305241
-0.302589
-0.301626
-0.354338
-0.354623
-0.353823
-0.352156
-0.349791
-0.346831
-0.343402
-0.339644
-0.335699
-0.331702
-0.327772
-0.324013
-0.320506
-0.317311
-0.314469
-0.31201
-0.309966
-0.308257
-0.306671
-0.307193
-0.355586
-0.355697
-0.354884
-0.353291
-0.351042
-0.348225
-0.344955
-0.341364
-0.337588
-0.333758
-0.329991
-0.326394
-0.323053
-0.320042
-0.317422
-0.315255
-0.313616
-0.31249
-0.311761
-0.313268
-0.357396
-0.357307
-0.356464
-0.35494
-0.352814
-0.35016
-0.347083
-0.343704
-0.340153
-0.336556
-0.333028
-0.329674
-0.326583
-0.323837
-0.321507
-0.319675
-0.318435
-0.3178
-0.317675
-0.319717
-0.35965
-0.35936
-0.358485
-0.357029
-0.355032
-0.352558
-0.349699
-0.346569
-0.34329
-0.339982
-0.336754
-0.333709
-0.330936
-0.328517
-0.326527
-0.325051
-0.324187
-0.323946
-0.324199
-0.32646
-0.362235
-0.361771
-0.360872
-0.359489
-0.357629
-0.355346
-0.352724
-0.349871
-0.346897
-0.343916
-0.341032
-0.338341
-0.335927
-0.333869
-0.33224
-0.331118
-0.330592
-0.330652
-0.331122
-0.333426
-0.365054
-0.364466
-0.363565
-0.362264
-0.360548
-0.358465
-0.356094
-0.353531
-0.350882
-0.34825
-0.345731
-0.343413
-0.341374
-0.339685
-0.33841
-0.337618
-0.337382
-0.337669
-0.338255
-0.340533
-0.368027
-0.367383
-0.366512
-0.365309
-0.363745
-0.361869
-0.359753
-0.357489
-0.35517
-0.352891
-0.350739
-0.348792
-0.347121
-0.345785
-0.344839
-0.344339
-0.344346
-0.344797
-0.345442
-0.347684
-0.3711
-0.370479
-0.369678
-0.36859
-0.36719
-0.365525
-0.363666
-0.361696
-0.359702
-0.357768
-0.35597
-0.354377
-0.353048
-0.352035
-0.35138
-0.351129
-0.351329
-0.351895
-0.352566
-0.354778
-0.374237
-0.373727
-0.373039
-0.372088
-0.370862
-0.369411
-0.367806
-0.366123
-0.364442
-0.362834
-0.361367
-0.360098
-0.359078
-0.358346
-0.357938
-0.35789
-0.358237
-0.358875
-0.359548
-0.361731
-0.37743
-0.377118
-0.376588
-0.375795
-0.374754
-0.373521
-0.372165
-0.370758
-0.369371
-0.368067
-0.366901
-0.365922
-0.36517
-0.364677
-0.364469
-0.364577
-0.365025
-0.365695
-0.366346
-0.368489
-0.380691
-0.380661
-0.380332
-0.379719
-0.378874
-0.377862
-0.37675
-0.375607
-0.374496
-0.373469
-0.372573
-0.371847
-0.371322
-0.371023
-0.37097
-0.371187
-0.371691
-0.372354
-0.372959
-0.375035
-0.384057
-0.384383
-0.384292
-0.383879
-0.383243
-0.382454
-0.381584
-0.380695
-0.379841
-0.379068
-0.378411
-0.377902
-0.377564
-0.377415
-0.377471
-0.377752
-0.378269
-0.378885
-0.379415
-0.381385
-0.387588
-0.388329
-0.388508
-0.388311
-0.387895
-0.387337
-0.386706
-0.386063
-0.385453
-0.384912
-0.384467
-0.38414
-0.383951
-0.383912
-0.384033
-0.384333
-0.384818
-0.385347
-0.385771
-0.387585
-0.391365
-0.392564
-0.393032
-0.393067
-0.392882
-0.392561
-0.392173
-0.391772
-0.391395
-0.391068
-0.390811
-0.390638
-0.390561
-0.39059
-0.390733
-0.391007
-0.391414
-0.391815
-0.392097
-0.3937
-0.395487
-0.397161
-0.397932
-0.398209
-0.398266
-0.398193
-0.398053
-0.397895
-0.397746
-0.397621
-0.397531
-0.397484
-0.397487
-0.397545
-0.397665
-0.397866
-0.398147
-0.398376
-0.398475
-0.399805
-0.40006
-0.402205
-0.403279
-0.403805
-0.404116
-0.404302
-0.404421
-0.404512
-0.40459
-0.40466
-0.404722
-0.404777
-0.404827
-0.404875
-0.404928
-0.405006
-0.405109
-0.405117
-0.404986
-0.405975
-0.443205
-0.4011
-0.395304
-0.180502
-0.049835
-0.106418
-0.135287
-0.0973779
-0.0587796
-0.0959779
-0.12344
-0.113834
-0.0575791
-0.0629294
-0.0861767
-0.096438
-0.0531009
-0.0470973
-0.0326499
-0.0281206
-0.439608
-0.392662
-0.390278
-0.181944
-0.0494859
-0.107449
-0.133025
-0.0971885
-0.0606336
-0.0985418
-0.126892
-0.115995
-0.0568801
-0.0613851
-0.0827713
-0.0935146
-0.0521913
-0.0464
-0.0337356
-0.0293717
-0.435661
-0.384139
-0.383271
-0.183401
-0.0496448
-0.108628
-0.130704
-0.096871
-0.0623885
-0.100984
-0.13025
-0.118079
-0.0561107
-0.0597579
-0.0793229
-0.0905582
-0.0512466
-0.0456079
-0.0347548
-0.0305704
-0.431432
-0.375431
-0.373926
-0.184805
-0.0503789
-0.109927
-0.128319
-0.0964207
-0.0640247
-0.103277
-0.133489
-0.120068
-0.05528
-0.0580615
-0.0758522
-0.0875852
-0.0502698
-0.0447245
-0.0357008
-0.0317097
-0.426996
-0.366402
-0.361912
-0.186056
-0.0517286
-0.111302
-0.125862
-0.0958336
-0.0655218
-0.105391
-0.13658
-0.121947
-0.0543974
-0.0563087
-0.072379
-0.0846104
-0.0492638
-0.0437539
-0.0365674
-0.0327828
-0.422458
-0.35689
-0.346976
-0.187012
-0.053706
-0.112692
-0.123328
-0.0951068
-0.0668596
-0.107297
-0.139492
-0.123697
-0.0534728
-0.054511
-0.0689211
-0.0816478
-0.0482319
-0.0427005
-0.0373488
-0.0337836
-0.417963
-0.34673
-0.329008
-0.187485
-0.0562966
-0.11403
-0.12071
-0.094239
-0.0680182
-0.108964
-0.142196
-0.125299
-0.0525165
-0.05268
-0.0654954
-0.07871
-0.0471773
-0.0415691
-0.0380397
-0.0347061
-0.413693
-0.335768
-0.30809
-0.187227
-0.0594608
-0.115249
-0.118006
-0.0932301
-0.0689798
-0.110364
-0.144661
-0.126735
-0.0515391
-0.0508258
-0.0621171
-0.0758082
-0.0461035
-0.040365
-0.0386354
-0.0355449
-0.409843
-0.323873
-0.284515
-0.18593
-0.0631387
-0.116291
-0.115213
-0.0920821
-0.0697289
-0.111472
-0.146857
-0.127984
-0.0505513
-0.048958
-0.0587999
-0.0729527
-0.0450138
-0.0390937
-0.0391318
-0.0362948
-0.40658
-0.310945
-0.258767
-0.18323
-0.067256
-0.117109
-0.112331
-0.0908005
-0.0702542
-0.112264
-0.148757
-0.129027
-0.0495637
-0.0470849
-0.0555561
-0.0701527
-0.0439118
-0.037761
-0.0395254
-0.0369515
-0.404004
-0.296939
-0.231465
-0.178743
-0.0717291
-0.117669
-0.109362
-0.0893965
-0.07055
-0.112722
-0.150335
-0.129846
-0.0485869
-0.0452145
-0.0523966
-0.0674165
-0.0428011
-0.036373
-0.0398137
-0.0375112
-0.402129
-0.281916
-0.203303
-0.172123
-0.0764669
-0.117949
-0.106315
-0.0878846
-0.0706149
-0.112834
-0.151572
-0.130424
-0.0476309
-0.0433537
-0.0493312
-0.0647518
-0.0416853
-0.0349354
-0.0399947
-0.0379706
-0.400893
-0.266124
-0.175008
-0.163168
-0.0813699
-0.117941
-0.1032
-0.0862652
-0.0704452
-0.11259
-0.152452
-0.130746
-0.0467053
-0.0415091
-0.0463681
-0.0621648
-0.0405685
-0.0334535
-0.0400673
-0.0383277
-0.400181
-0.250037
-0.147316
-0.151912
-0.0863269
-0.117647
-0.10002
-0.0845052
-0.0700324
-0.111984
-0.152965
-0.130798
-0.045819
-0.0396863
-0.0435147
-0.0596576
-0.0394548
-0.031933
-0.04003
-0.0385812
-0.399774
-0.234247
-0.120956
-0.138689
-0.0912147
-0.117067
-0.0967452
-0.0825785
-0.0693883
-0.111023
-0.153107
-0.13057
-0.0449802
-0.0378908
-0.0407774
-0.0572307
-0.0383462
-0.0303826
-0.0398822
-0.0387309
-0.39926
-0.219275
-0.096601
-0.12411
-0.0959034
-0.116187
-0.0933597
-0.0806362
-0.0686026
-0.109743
-0.152877
-0.130052
-0.0441961
-0.0361272
-0.0381624
-0.0549002
-0.0372413
-0.0288165
-0.03963
-0.038778
-0.398405
-0.205843
-0.0748436
-0.108958
-0.100252
-0.115006
-0.0900222
-0.0791161
-0.0678203
-0.108177
-0.152296
-0.129241
-0.0434724
-0.0344
-0.0356715
-0.0527194
-0.0361402
-0.0272443
-0.0392924
-0.0387254
-0.398237
-0.195955
-0.0563016
-0.0940295
-0.104064
-0.113641
-0.0870931
-0.0781201
-0.0669238
-0.106196
-0.151424
-0.128137
-0.0428141
-0.0327116
-0.0332944
-0.0507197
-0.0350687
-0.0256448
-0.0388777
-0.0385784
-0.40005
-0.191743
-0.0413942
-0.0800038
-0.107207
-0.112348
-0.0842825
-0.0758354
-0.0651148
-0.103518
-0.150246
-0.126759
-0.0422293
-0.0310638
-0.0310256
-0.0486617
-0.0340901
-0.0239557
-0.0383027
-0.0383365
-0.397912
-0.18705
-0.0286265
-0.0683476
-0.110386
-0.11097
-0.0793475
-0.0689294
-0.0617532
-0.100688
-0.148335
-0.125061
-0.0417219
-0.029497
-0.0289809
-0.0459205
-0.0331949
-0.0221636
-0.0373818
-0.037984
-0.355404
-0.14036
0.036459
-0.0204329
-0.129972
-0.101917
-0.041529
-0.0196296
-0.0399825
-0.0863839
-0.130942
-0.108491
-0.0387425
-0.0214392
-0.0191641
-0.0271939
-0.0277601
-0.0118597
-0.0306853
-0.0355433
-0.233361
-0.102861
-0.0133513
-0.0408338
-0.100661
-0.0602054
-0.0135088
0.000491372
0.00392071
-0.029604
-0.0743431
-0.0639322
-0.0201855
-0.0123726
-0.00908068
-0.0121831
-0.0104556
0.00460053
-0.0144717
-0.0284988
-0.164889
-0.106341
-0.0497476
-0.0324657
-0.0510035
-0.0314951
-0.00938594
-0.00949069
0.0120638
0.0137274
-0.0078704
-0.0104822
-0.00384015
-0.00493675
-0.00360781
0.00145866
0.00700224
0.0155145
0.00332718
-0.0142643
-0.124503
-0.0960571
-0.0408219
-0.0192869
-0.0442319
-0.0285528
0.00870552
0.016087
0.0205466
0.022416
0.0201428
0.0143827
0.00419697
0.00150655
-0.000813202
0.0120976
0.0224125
0.0268178
0.0216668
0.0030313
-0.091128
-0.0721378
-0.0388375
-0.0279304
-0.0328135
-0.0101268
0.0147386
0.0172641
0.0218746
0.027953
0.0301397
0.0227279
0.0121318
0.0125975
0.00827144
0.0158752
0.0244095
0.0286991
0.0303886
0.0147754
-0.0661307
-0.0581762
-0.0391287
-0.0237117
-0.0194438
-0.00621586
0.0122894
0.0189426
0.0216622
0.0282208
0.0319205
0.0252284
0.01534
0.015252
0.0137302
0.0209686
0.0274133
0.0281617
0.0263384
0.0132481
-0.0497131
-0.0466289
-0.0319952
-0.0180977
-0.0149792
-0.00625329
0.0102587
0.0200601
0.0223621
0.0256676
0.0275985
0.0226912
0.0169089
0.0192977
0.0182103
0.0207289
0.0247972
0.0249489
0.0207641
0.0101781
-0.0372082
-0.0353347
-0.0251608
-0.016196
-0.0131037
-0.00416307
0.0108551
0.0195693
0.0194191
0.0204099
0.0240574
0.02293
0.0186509
0.019181
0.0182856
0.0192025
0.0216962
0.0213054
0.0161447
0.00765904
-0.0272812
-0.0264884
-0.0206971
-0.0141837
-0.0090168
-0.000985614
0.0092553
0.0155751
0.0165357
0.0186676
0.0228213
0.0218398
0.0172758
0.017548
0.0181303
0.0179085
0.0187318
0.0179039
0.0126646
0.0055794
-0.0198002
-0.0200185
-0.0163496
-0.0104421
-0.00555342
-0.000481199
0.00672193
0.0133977
0.0162658
0.017576
0.0197646
0.0192104
0.0162651
0.0167795
0.01765
0.0164839
0.0158408
0.0146391
0.010087
0.00422823
-0.0140809
-0.0145499
-0.0118351
-0.00744768
-0.00404601
-0.000102164
0.00642059
0.0126513
0.0149899
0.0150761
0.0168483
0.0179119
0.0161376
0.0157877
0.0161942
0.0147174
0.0133509
0.0122083
0.00850158
0.00336947
-0.00944114
-0.00989307
-0.00825685
-0.00542993
-0.00243859
0.00138992
0.00654287
0.0109249
0.0128835
0.0135961
0.0156569
0.0170007
0.0152022
0.0141352
0.0145554
0.0134714
0.0118128
0.0104464
0.00720106
0.00268636
-0.0056437
-0.0062079
-0.00541106
-0.00333328
-0.000514285
0.00247554
0.00593188
0.00935396
0.0119173
0.0131959
0.0144564
0.0152273
0.0139179
0.0130792
0.0135447
0.0125658
0.0104934
0.00880867
0.00611208
0.00229647
-0.00252287
-0.003207
-0.00282013
-0.00128933
0.000843987
0.00293826
0.00567921
0.00887449
0.0113879
0.01229
0.0128608
0.0137669
0.0133736
0.0125622
0.0124535
0.0113751
0.00929844
0.00766548
0.00542304
0.00204201
0.000169709
-0.000626804
-0.000569878
0.000291786
0.00177827
0.00356388
0.00598577
0.00854209
0.0104256
0.0112612
0.0119843
0.0130485
0.0128547
0.0117424
0.0112442
0.0104133
0.00864462
0.0069618
0.00480915
0.00176303
0.00258034
0.00156162
0.00122013
0.00155807
0.00271441
0.00429102
0.00615321
0.00800385
0.00965969
0.0108336
0.0115953
0.0122345
0.0119548
0.0110003
0.0105437
0.00988586
0.00818978
0.00625899
0.00418885
0.0015788
0.00479556
0.00337114
0.00265727
0.00267716
0.00353909
0.00476324
0.00617861
0.00774756
0.00935971
0.0105312
0.0110393
0.0113858
0.0113314
0.0107086
0.0101156
0.00931395
0.00765502
0.00571189
0.00380879
0.00148598
0.00678034
0.00483133
0.00379026
0.0035551
0.00410633
0.00507923
0.00633617
0.00775807
0.00911464
0.0100719
0.0105422
0.010954
0.0110922
0.0104971
0.00960029
0.00869598
0.0072854
0.00551486
0.00362117
0.00135919
0.00843174
0.00589964
0.00456611
0.00413796
0.00450761
0.00537494
0.006513
0.0077247
0.00886781
0.00980028
0.0103639
0.0107391
0.0108182
0.0102236
0.00926998
0.00839768
0.00714339
0.00537506
0.00342112
0.00125605
0.00948045
0.00647768
0.00495864
0.00444461
0.0047604
0.00557109
0.00657791
0.00764295
0.00876728
0.00979267
0.0103532
0.0105447
0.0105208
0.0100677
0.00925297
0.00839252
0.00707458
0.00517257
0.00324665
0.00124663
-0.229549
-0.237293
-0.244659
-0.251678
-0.258377
-0.264792
-0.270964
-0.276933
-0.282744
-0.288443
-0.294066
-0.299662
-0.305234
-0.310841
-0.316361
-0.321974
-0.327235
-0.333195
-0.338826
-0.350013
-0.151707
-0.155352
-0.158797
-0.162051
-0.165115
-0.167993
-0.170688
-0.173203
-0.175538
-0.177697
-0.179677
-0.181491
-0.183138
-0.184658
-0.186048
-0.187441
-0.188822
-0.190655
-0.193048
-0.198164
-0.0968154
-0.0997473
-0.102628
-0.105462
-0.108249
-0.110992
-0.113695
-0.11636
-0.118987
-0.121579
-0.124134
-0.126654
-0.129133
-0.131569
-0.133945
-0.136267
-0.138499
-0.140713
-0.142927
-0.145779
-0.0707019
-0.0726419
-0.0745323
-0.0763767
-0.0781776
-0.079939
-0.0816645
-0.083358
-0.085023
-0.0866635
-0.0882831
-0.0898861
-0.0914764
-0.0930593
-0.0946401
-0.0962286
-0.0978402
-0.099516
-0.101363
-0.103692
-0.0491547
-0.0505172
-0.051866
-0.0532032
-0.0545305
-0.0558499
-0.0571631
-0.0584719
-0.0597778
-0.0610825
-0.0623876
-0.0636946
-0.065005
-0.0663201
-0.0676424
-0.0689727
-0.0703205
-0.071695
-0.0731709
-0.0748901
-0.036011
-0.0370171
-0.0380111
-0.0389936
-0.0399653
-0.0409269
-0.0418793
-0.0428231
-0.0437592
-0.0446886
-0.0456121
-0.0465308
-0.0474459
-0.0483581
-0.04927
-0.0501816
-0.0511023
-0.0520325
-0.0530373
-0.0541753
-0.0257943
-0.0265435
-0.0272873
-0.0280263
-0.0287613
-0.029493
-0.0302221
-0.0309492
-0.0316749
-0.0323998
-0.0331247
-0.0338499
-0.0345763
-0.035304
-0.0360345
-0.0367665
-0.0375076
-0.0382506
-0.0390504
-0.0399041
-0.0184858
-0.019068
-0.019646
-0.0202201
-0.020791
-0.021359
-0.0219243
-0.0224876
-0.023049
-0.0236091
-0.0241683
-0.0247271
-0.0252862
-0.0258456
-0.0264069
-0.0269689
-0.0275381
-0.028107
-0.0287214
-0.0293594
-0.0128132
-0.013265
-0.0137134
-0.0141586
-0.0146011
-0.0150411
-0.015479
-0.0159149
-0.0163492
-0.0167821
-0.0172139
-0.0176448
-0.0180752
-0.0185052
-0.0189357
-0.0193657
-0.0198001
-0.0202317
-0.020697
-0.0211689
-0.00852861
-0.0088856
-0.00923994
-0.00959181
-0.00994158
-0.0102894
-0.0106354
-0.0109798
-0.0113227
-0.0116643
-0.0120047
-0.012344
-0.0126825
-0.0130201
-0.0133574
-0.0136934
-0.0140319
-0.0143665
-0.0147251
-0.015081
-0.00517181
-0.00545118
-0.00572891
-0.00600514
-0.0062802
-0.00655417
-0.0068272
-0.00709941
-0.00737096
-0.00764197
-0.00791257
-0.00818286
-0.00845299
-0.00872291
-0.00899307
-0.00926273
-0.00953452
-0.0098038
-0.0100909
-0.0103739
-0.00249866
-0.0027131
-0.00292687
-0.00314008
-0.00335297
-0.00356558
-0.00377799
-0.00399029
-0.00420257
-0.0044149
-0.00462735
-0.00483995
-0.00505278
-0.00526578
-0.00547923
-0.00569258
-0.00590767
-0.00612113
-0.00634766
-0.00657127
-0.00025456
-0.000412816
-0.000571581
-0.000730955
-0.000891143
-0.00105215
-0.00121401
-0.00137675
-0.0015404
-0.00170496
-0.00187044
-0.00203679
-0.00220402
-0.00237201
-0.00254088
-0.0027102
-0.00288116
-0.00305132
-0.00323125
-0.00340945
0.00170502
0.00159408
0.00148107
0.00136594
0.00124851
0.00112882
0.00100693
0.000882897
0.000756781
0.00062867
0.000498661
0.000366878
0.000233433
9.8502e-05
-3.78876e-05
-0.000175318
-0.000314547
-0.000453735
-0.000600517
-0.000746748
0.00366943
0.00359905
0.00352406
0.00344454
0.00336044
0.00327195
0.00317928
0.00308261
0.00298216
0.00287814
0.0027708
0.00266038
0.00254712
0.0024313
0.00231308
0.00219291
0.00207036
0.00194689
0.00181691
0.00168621
0.00569883
0.00565638
0.00560596
0.005548
0.00548281
0.00541087
0.00533268
0.00524869
0.00515938
0.0050652
0.0049666
0.00486404
0.00475793
0.00464873
0.00453676
0.00442256
0.00430599
0.0041883
0.00406538
0.00394144
0.00846361
0.00841125
0.00834705
0.00827204
0.00818715
0.00809341
0.00799175
0.00788303
0.00776809
0.00764766
0.00752249
0.00739326
0.00726058
0.00712507
0.00698722
0.00684765
0.00670645
0.00656471
0.00641939
0.00627383
0.0118773
0.0117496
0.0116104
0.0114612
0.0113032
0.0111378
0.0109662
0.0107894
0.0106084
0.0104241
0.0102373
0.0100487
0.00985895
0.00966864
0.00947829
0.00928843
0.0090992
0.00891151
0.00872307
0.00853686
0.0169025
0.0165093
0.0161226
0.0157429
0.0153702
0.0150049
0.0146473
0.0142974
0.0139554
0.0136213
0.0132952
0.012977
0.0126668
0.0123645
0.01207
0.0117833
0.0115042
0.0112329
0.0109675
0.0107105
0.0223294
0.0215791
0.0208633
0.0201803
0.019528
0.0189046
0.0183086
0.0177384
0.0171926
0.0166699
0.0161691
0.015689
0.0152285
0.0147866
0.0143622
0.0139547
0.0135628
0.0131864
0.0128228
0.0124748
0.0328892
0.0320972
0.0313391
0.0306128
0.0299168
0.0292495
0.0286092
0.0279945
0.0274039
0.0268361
0.02629
0.0257642
0.0252579
0.0247698
0.0242992
0.0238451
0.0234065
0.0229832
0.0225725
0.0221771
0.0275264
0.0270881
0.026656
0.0262305
0.0258121
0.025401
0.0249973
0.0246011
0.0242126
0.0238318
0.0234588
0.0230937
0.0227363
0.0223868
0.022045
0.0217109
0.0213843
0.0210655
0.0207525
0.0204477
0.0225904
0.0224156
0.0222288
0.0220317
0.0218257
0.0216122
0.0213924
0.0211672
0.0209377
0.0207048
0.0204693
0.0202319
0.0199934
0.0197542
0.019515
0.0192763
0.0190382
0.0188016
0.0185646
0.0183293
0.0192917
0.0191896
0.0190754
0.0189501
0.0188148
0.0186706
0.0185183
0.0183589
0.0181931
0.0180217
0.0178455
0.0176653
0.0174816
0.017295
0.0171061
0.0169155
0.0167234