/*--------------------------------*- C++ -*----------------------------------*\
  =========                 |
  \\      /  F ield         | OpenFOAM: The Open Source CFD Toolbox
   \\    /   O peration     | Website:  https://openfoam.org
    \\  /    A nd           | Version:  6.0
     \\/     M anipulation  |
\*---------------------------------------------------------------------------*/
FoamFile
{
    version     2.0;
    format      ascii;
    class       surfaceScalarField;
    location    "88";
    object      phi;
}
// * * * * * * * * * * * * * * * * * * * * * * * * * * * * * * * * * * * * * //

dimensions      [0 3 -1 0 0 0 0];

internalField   nonuniform List<scalar> 
7840
(
-8.41541e-06
8.52111e-06
-1.05701e-07
-2.79211e-05
-1.39251e-05
3.34308e-05
-5.48369e-05
-6.07078e-05
8.76237e-05
-8.66063e-05
-0.000120894
0.000152663
-0.000121322
-0.000187263
0.000221979
-0.000157459
-0.000255527
0.000291665
-0.000193731
-0.000323336
0.000359608
-0.000229024
-0.000389458
0.000424751
-0.00026239
-0.000453186
0.000486552
-0.000293056
-0.000513969
0.000544635
-0.000320441
-0.000571243
0.000598628
-0.00034417
-0.000624403
0.000648132
-0.000364068
-0.000672864
0.000692763
-0.000380154
-0.00071615
0.000732237
-0.000392618
-0.000753979
0.000766443
-0.000401784
-0.000786336
0.000795503
-0.000408082
-0.000813501
0.000819799
-0.000412006
-0.000836048
0.000839972
-0.000414083
-0.000854878
0.000856955
-0.000871288
0.000872092
-0.000414887
-9.59511e-06
1.81162e-05
-3.18512e-05
8.33092e-06
-6.26143e-05
-2.99447e-05
-9.90078e-05
-8.45001e-05
-0.000138902
-0.000147369
-0.00018062
-0.000213809
-0.000222773
-0.000281183
-0.000264172
-0.000348059
-0.000303803
-0.000413555
-0.000340823
-0.00047695
-0.000374571
-0.000537494
-0.000404583
-0.00059439
-0.0004306
-0.000646848
-0.000452566
-0.000694184
-0.000470624
-0.000735921
-0.000485093
-0.000771867
-0.000496439
-0.000802155
-0.000505231
-0.000827256
-0.000512099
-0.00084801
-0.000865655
-0.000517733
-1.04655e-05
2.85818e-05
-3.48075e-05
3.26729e-05
-6.85419e-05
3.78964e-06
-0.000108559
-4.4483e-05
-0.000152564
-0.000103365
-0.000198773
-0.000167599
-0.00024573
-0.000234227
-0.000292197
-0.000301591
-0.000337112
-0.00036864
-0.000379568
-0.000434493
-0.000418822
-0.000498241
-0.000454303
-0.000558909
-0.000485639
-0.000615512
-0.00051267
-0.000667154
-0.000535459
-0.000713132
-0.000554293
-0.000753033
-0.000569655
-0.000786792
-0.000582188
-0.000814722
-0.000592646
-0.000837553
-0.000856438
-0.000601863
-1.09392e-05
3.9521e-05
-3.65268e-05
5.82605e-05
-7.21385e-05
3.94013e-05
-0.00011454
-2.0814e-06
-0.00016134
-5.65642e-05
-0.000210696
-0.000118244
-0.000261118
-0.000183805
-0.000311349
-0.00025136
-0.000360299
-0.000319691
-0.00040701
-0.000387782
-0.000450656
-0.000454595
-0.000490553
-0.000519012
-0.000526192
-0.000579873
-0.000557275
-0.000636071
-0.000583747
-0.00068666
-0.000605822
-0.000730959
-0.000623975
-0.00076864
-0.000638911
-0.000799786
-0.000651518
-0.000824946
-0.000845136
-0.00066282
-1.09499e-05
5.04709e-05
-3.68079e-05
8.41185e-05
-7.30292e-05
7.56227e-05
-0.000116379
4.12684e-05
-0.000164443
-8.49978e-06
-0.000215366
-6.73208e-05
-0.000267659
-0.000131511
-0.000320074
-0.000198945
-0.000371516
-0.000268249
-0.000420996
-0.000338301
-0.000467618
-0.000407974
-0.000510584
-0.000476046
-0.000549237
-0.000541219
-0.000583113
-0.000602195
-0.000611998
-0.000657775
-0.000635983
-0.000706973
-0.00065549
-0.000749132
-0.000671263
-0.000784013
-0.000684329
-0.00081188
-0.000833529
-0.000695936
-1.04618e-05
6.09327e-05
-3.55336e-05
0.00010919
-7.09837e-05
0.000111073
-0.000113706
8.39906e-05
-0.000161337
3.91316e-05
-0.000212052
-1.66063e-05
-0.000264394
-7.91696e-05
-0.000317146
-0.000146193
-0.000369235
-0.00021616
-0.000419669
-0.000287868
-0.000467502
-0.00036014
-0.000511846
-0.000431702
-0.0005519
-0.000501166
-0.000587016
-0.000567079
-0.000616785
-0.000628006
-0.000641122
-0.000682637
-0.000660336
-0.000729918
-0.000675159
-0.00076919
-0.000686745
-0.000800295
-0.000823672
-0.000696602
-9.47606e-06
7.04088e-05
-3.26913e-05
0.000132405
-6.59527e-05
0.000144334
-0.000106407
0.000124445
-0.000151812
8.45363e-05
-0.000200409
3.19909e-05
-0.000250798
-2.8781e-05
-0.000301813
-9.51772e-05
-0.000352428
-0.000165545
-0.000401675
-0.000238622
-0.0004486
-0.000313215
-0.000492255
-0.000388046
-0.000531725
-0.000461696
-0.000566189
-0.000532615
-0.00059502
-0.000599175
-0.000617907
-0.00065975
-0.000634971
-0.000712854
-0.000646864
-0.000757297
-0.000654814
-0.000792344
-0.000817881
-0.000660606
-8.03492e-06
7.84437e-05
-2.83851e-05
0.000152756
-5.80912e-05
0.00017404
-9.46639e-05
0.000161018
-0.000136042
0.000125914
-0.000180566
7.6515e-05
-0.000226906
1.75586e-05
-0.000273962
-4.8121e-05
-0.00032077
-0.000118736
-0.000366419
-0.000192973
-0.000409987
-0.000269647
-0.00045052
-0.000347513
-0.000487037
-0.000425179
-0.000518583
-0.000501069
-0.000544326
-0.000573432
-0.000563695
-0.000640381
-0.000576554
-0.000699995
-0.00058337
-0.000750481
-0.000585364
-0.00079035
-0.000818675
-0.00058457
-6.22119e-06
8.46649e-05
-2.28371e-05
0.000169372
-4.77658e-05
0.000198969
-7.89703e-05
0.000192222
-0.000114621
0.000161565
-0.000153181
0.000115075
-0.000193399
5.77766e-05
-0.000234245
-7.27543e-06
-0.000274826
-7.81548e-05
-0.000314307
-0.000153492
-0.000351839
-0.000232115
-0.000386516
-0.000312836
-0.000417361
-0.000394334
-0.000443355
-0.000475076
-0.000463509
-0.000553278
-0.000477005
-0.000626885
-0.000483397
-0.000693603
-0.000482864
-0.000751014
-0.000476481
-0.000796733
-0.000828692
-0.000466464
-4.1523e-06
8.88172e-05
-1.63745e-05
0.000181594
-3.5539e-05
0.000218134
-6.01197e-05
0.000216803
-8.8556e-05
0.000190001
-0.000119452
0.000145971
-0.000151637
8.99615e-05
-0.000184145
2.52327e-05
-0.000216154
-4.61455e-05
-0.000246912
-0.000122735
-0.000275663
-0.000203363
-0.000301599
-0.000286901
-0.000323817
-0.000372115
-0.000341323
-0.00045757
-0.000353064
-0.000541537
-0.000358038
-0.000621911
-0.000355491
-0.000696149
-0.00034523
-0.000761275
-0.000328033
-0.00081393
-0.000850568
-0.000306156
-1.96953e-06
9.07867e-05
-9.40304e-06
0.000189027
-2.21282e-05
0.000230859
-3.91522e-05
0.000233827
-5.92077e-05
0.000210057
-8.10513e-05
0.000167815
-0.000103593
0.000112504
-0.000125923
4.75624e-05
-0.000147275
-2.47939e-05
-0.000166969
-0.00010304
-0.000184351
-0.000185982
-0.000198729
-0.000272523
-0.000209331
-0.000361512
-0.000215274
-0.000451627
-0.000215556
-0.000541255
-0.000209109
-0.000628359
-0.000194952
-0.000710306
-0.000172504
-0.000783723
-0.000142108
-0.000844327
-0.000886802
-0.000105874
1.76646e-07
9.06101e-05
-2.36819e-06
0.000191572
-8.33961e-06
0.00023683
-1.72634e-05
0.000242751
-2.81725e-05
0.000220966
-3.9984e-05
0.000179626
-5.16889e-05
0.000124208
-6.24198e-05
5.82934e-05
-7.14486e-05
-1.57651e-05
-7.81481e-05
-9.63406e-05
-8.19432e-05
-0.000182187
-8.22597e-05
-0.000272206
-7.84769e-05
-0.000365295
-6.98828e-05
-0.000460221
-5.56358e-05
-0.000555502
-3.47531e-05
-0.000649241
-6.18115e-06
-0.000738878
3.09579e-05
-0.000820862
7.68138e-05
-0.000890183
-0.000939618
0.00012963
2.14318e-06
8.84669e-05
4.2926e-06
0.000189423
5.01479e-06
0.000236108
4.31842e-06
0.000243447
2.88175e-06
0.000222402
1.6256e-06
0.000180882
1.47939e-06
0.000124355
3.27623e-06
5.64966e-05
7.7265e-06
-2.02154e-05
1.54322e-05
-0.000104046
2.69181e-05
-0.000193673
4.26672e-05
-0.000287956
6.31578e-05
-0.000385786
8.89056e-05
-0.000485969
0.000120516
-0.000587113
0.000158744
-0.000687469
0.000204514
-0.000784649
0.000258806
-0.000875153
0.000322187
-0.000953564
-0.00101085
0.000393419
3.81045e-06
8.46564e-05
1.01986e-05
0.000183034
1.72088e-05
0.000229098
2.44726e-05
0.000236183
3.24116e-05
0.000214463
4.1793e-05
0.000171501
5.34701e-05
0.000112678
6.82505e-05
4.17162e-05
8.68431e-05
-3.8808e-05
0.00010985
-0.000127053
0.000137774
-0.000221598
0.000171041
-0.000321222
0.000210007
-0.000424753
0.000254998
-0.000530959
0.000306343
-0.000638458
0.000364461
-0.000745586
0.000429954
-0.000850141
0.00050364
-0.00094884
0.000586293
-0.00103622
-0.0011018
0.000677244
5.0955e-06
7.95609e-05
1.50697e-05
0.00017306
2.76879e-05
0.00021648
4.2323e-05
0.000221548
5.91939e-05
0.000197593
7.89369e-05
0.000151758
0.000102341
8.92736e-05
0.000130197
1.38599e-05
0.000163226
-7.18371e-05
0.000202046
-0.000165873
0.000247159
-0.000266711
0.000298945
-0.000373007
0.000357658
-0.000483465
0.000423429
-0.00059673
0.000496294
-0.000711323
0.000576265
-0.000825557
0.000663466
-0.000937343
0.000758297
-0.00104367
0.000861429
-0.00113935
-0.00121304
0.000972673
5.96078e-06
7.36002e-05
1.87584e-05
0.000160263
3.61377e-05
0.0001991
5.73516e-05
0.000200334
8.24921e-05
0.000172452
0.000112105
0.000122145
0.000146937
5.44414e-05
0.000187778
-2.69806e-05
0.000235367
-0.000119427
0.000290343
-0.000220848
0.000353198
-0.000329566
0.000424257
-0.000444066
0.000503643
-0.000562851
0.000591265
-0.000684352
0.000686826
-0.000806884
0.000789876
-0.000928607
0.000899957
-0.00104742
0.00101685
-0.00116056
0.0011408
-0.0012633
-0.00134412
0.00127188
6.41758e-06
6.71826e-05
2.12674e-05
0.000145413
4.25241e-05
0.000177844
6.94703e-05
0.000173388
0.000102165
0.000139758
0.00014112
8.31895e-05
0.000187074
8.48745e-06
0.00024083
-8.07365e-05
0.000303147
-0.000181744
0.000374662
-0.000292363
0.000455821
-0.000410725
0.000546827
-0.000535072
0.000647594
-0.000663618
0.000757722
-0.000794481
0.000876499
-0.000925661
0.00100295
-0.00105506
0.00113597
-0.00118044
0.00127462
-0.00129921
0.00141849
-0.00140718
-0.0014932
0.00156757
6.52391e-06
6.06587e-05
2.27479e-05
0.000129189
4.70987e-05
0.000153493
7.90377e-05
0.000141449
0.000118693
0.000100103
0.000166611
3.52709e-05
0.000223561
-4.84619e-05
0.000290367
-0.000147543
0.000367787
-0.000259164
0.000456399
-0.000380975
0.000556511
-0.000510837
0.000668084
-0.000646646
0.000790684
-0.000786217
0.000923452
-0.000927249
0.00106513
-0.00106734
0.00121413
-0.00120406
0.00136868
-0.00133499
0.00152712
-0.00145765
0.00168839
-0.00156844
-0.00165693
0.00185211
6.3773e-06
5.42814e-05
2.34804e-05
0.000112086
5.03671e-05
0.000126606
8.6812e-05
0.000105004
0.000133113
5.38015e-05
0.000189919
-2.15354e-05
0.000258055
-0.000116597
0.000338354
-0.000227842
0.000431507
-0.000352317
0.000537927
-0.000487395
0.000657633
-0.000630543
0.000790167
-0.00077918
0.000934555
-0.000930605
0.00108931
-0.00108201
0.00125251
-0.00123053
0.00142184
-0.00137339
0.00159482
-0.00150798
0.00176912
-0.00163195
0.00194312
-0.00174244
-0.00183025
0.00211644
6.10281e-06
4.81785e-05
2.38391e-05
9.43493e-05
5.30205e-05
9.74246e-05
9.38437e-05
6.41812e-05
0.000146861
7.83867e-07
0.000212869
-8.75428e-05
0.000292744
-0.000196473
0.000387267
-0.000322365
0.000496944
-0.000461994
0.000621845
-0.000612295
0.000761487
-0.000770185
0.000914772
-0.000932465
0.00107999
-0.00109583
0.0012549
-0.00125692
0.00143685
-0.00141248
0.00162293
-0.00155947
0.00181017
-0.00169521
0.00199546
-0.00181725
0.00217543
-0.0019224
-0.00200202
0.00234719
5.83686e-06
4.23417e-05
2.42411e-05
7.5945e-05
5.58388e-05
6.5827e-05
0.000101319
1.87011e-05
0.000161538
-5.94351e-05
0.000237443
-0.000163448
0.000329909
-0.000288938
0.000439536
-0.000431992
0.00056645
-0.000588908
0.00071014
-0.000755985
0.000869364
-0.000929408
0.00104214
-0.00110524
0.00122585
-0.00127953
0.0014174
-0.00144846
0.00161346
-0.00160854
0.00181077
-0.00175679
0.00200641
-0.00189085
0.00219819
-0.00200903
0.00238609
-0.00211031
-0.00219266
0.00257673
5.71216e-06
3.66295e-05
2.50942e-05
5.6563e-05
5.95823e-05
3.1339e-05
0.000110379
-3.20956e-05
0.000178643
-0.000127699
0.000265418
-0.000250223
0.000371448
-0.000394969
0.000496955
-0.000557499
0.000641429
-0.000733382
0.000803497
-0.000918054
0.000980897
-0.00110681
0.00117057
-0.00129492
0.00136888
-0.00147784
0.00157186
-0.00165145
0.00177558
-0.00181226
0.00197642
-0.00195763
0.00217135
-0.00208578
0.00235823
-0.0021959
0.00253612
-0.00228819
-0.0023624
0.00270586
5.8379e-06
3.07916e-05
2.67393e-05
3.56616e-05
6.48837e-05
-6.8054e-06
0.00012195
-8.91623e-05
0.000199334
-0.000205082
0.000298046
-0.000348934
0.000418499
-0.000515422
0.000560271
-0.000699271
0.000721926
-0.000895037
0.00090096
-0.00109709
0.0010939
-0.00129974
0.00129652
-0.00149755
0.00150424
-0.00168555
0.00171242
-0.00185963
0.00191681
-0.00201665
0.00211376
-0.00215458
0.00230048
-0.0022725
0.00247507
-0.00237049
0.00263635
-0.00244948
-0.00251038
0.00278433
6.29041e-06
2.45012e-05
2.94156e-05
1.25363e-05
7.21745e-05
-4.95642e-05
0.000136624
-0.000153611
0.000224256
-0.000292714
0.000335847
-0.000460525
0.00047121
-0.000650785
0.000628977
-0.000857038
0.000806504
-0.00107256
0.000999955
-0.00129054
0.00120458
-0.00150437
0.0014151
-0.00170807
0.00162621
-0.00189666
0.00183298
-0.00206641
0.00203127
-0.00221493
0.00221787
-0.00234118
0.00239068
-0.00244531
0.00254859
-0.0025284
0.00269135
-0.00259224
-0.00263905
0.00282003
7.10747e-06
1.73938e-05
3.32417e-05
-1.35979e-05
8.16483e-05
-9.79707e-05
0.0001546
-0.000226563
0.000253477
-0.000391592
0.000378552
-0.0005856
0.000528726
-0.000800959
0.000701384
-0.0010297
0.000892455
-0.00126363
0.0010967
-0.00149478
0.00130819
-0.00171586
0.00152088
-0.00192076
0.00172916
-0.00210494
0.0019283
-0.00226554
0.0021147
-0.00240134
0.00228605
-0.00251254
0.00244123
-0.00260049
0.00258017
-0.00266734
0.00270362
-0.00271568
-0.00274854
0.0028131
8.29088e-06
9.10288e-06
3.8221e-05
-4.3528e-05
9.32704e-05
-0.00015302
0.000175708
-0.000309
0.000286533
-0.000502417
0.00042519
-0.000724258
0.00058935
-0.000965118
0.000774901
-0.00121525
0.000976241
-0.00146497
0.00118682
-0.00170536
0.00139982
-0.00192886
0.00160887
-0.00212981
0.00180855
-0.00230463
0.00199481
-0.0024518
0.00216505
-0.00257157
0.00231807
-0.00266556
0.0024539
-0.00273632
0.00257349
-0.00278693
0.00267847
-0.00282066
-0.00284099
0.00277092
9.81496e-06
-7.12075e-07
4.42643e-05
-7.79773e-05
0.00010682
-0.000215575
0.000199475
-0.000401656
0.000322528
-0.00062547
0.000474257
-0.000875987
0.000650808
-0.00114167
0.000846421
-0.00141086
0.00105402
-0.00167257
0.001266
-0.00191735
0.00147513
-0.00213799
0.0016752
-0.00232988
0.00186154
-0.00249096
0.00203113
-0.0026214
0.00218262
-0.00272307
0.00231604
-0.00279897
0.00243247
-0.00285274
0.0025337
-0.00288816
0.00262194
-0.0029089
-0.00291857
0.00269952
1.16374e-05
-1.23494e-05
5.12209e-05
-0.000117561
0.000121945
-0.000286299
0.000225217
-0.000504928
0.000360283
-0.000760535
0.000523922
-0.00103963
0.000710539
-0.00132829
0.000912717
-0.00161304
0.00112213
-0.00188198
0.00133057
-0.00212579
0.00153089
-0.00233831
0.00171761
-0.0025166
0.00188718
-0.00266052
0.00203791
-0.00277213
0.00216974
-0.00285489
0.0022838
-0.00291303
0.00238203
-0.00295098
0.0024668
-0.00297294
0.00254062
-0.00298271
-0.00298382
0.00260587
1.37089e-05
-2.60583e-05
5.89059e-05
-0.000162758
0.000138216
-0.00036561
0.000252122
-0.000618834
0.000398453
-0.000906867
0.000572212
-0.00121338
0.000765964
-0.00152204
0.000970786
-0.00181786
0.0011775
-0.00208869
0.00137782
-0.00232612
0.00156527
-0.00252576
0.00173549
-0.00268683
0.00188633
-0.00281136
0.00201749
-0.00290328
0.00213007
-0.00296747
0.0022261
-0.00300907
0.0023081
-0.00303297
0.0023787
-0.00304354
0.00244045
-0.00304446
-0.00303897
0.00249559
1.59794e-05
-4.20377e-05
6.71198e-05
-0.000213898
0.000155165
-0.000453655
0.000279311
-0.000742979
0.00043564
-0.0010632
0.000617177
-0.00139492
0.000814702
-0.00171956
0.00101811
-0.00202127
0.00121789
-0.00228847
0.00140626
-0.00251449
0.00157784
-0.00269734
0.00172973
-0.00283871
0.00186122
-0.00294286
0.00197328
-0.00301535
0.00206798
-0.00306217
0.00214794
-0.00308903
0.00221595
-0.00310098
0.00227468
-0.00310227
0.00232651
-0.00309629
-0.00308592
0.00237347
1.84004e-05
-6.04381e-05
7.56571e-05
-0.000271155
0.000172303
-0.000550301
0.000305888
-0.000876565
0.000470465
-0.00122777
0.000657012
-0.00158147
0.000854743
-0.00191729
0.00105284
-0.00221937
0.00124203
-0.00247765
0.00141553
-0.00268799
0.00156941
-0.00285122
0.00170232
-0.00297162
0.00181491
-0.00305545
0.00190919
-0.00310963
0.00198788
-0.00314086
0.00205393
-0.00315508
0.00211016
-0.00315721
0.00215908
-0.00315118
0.0022028
-0.00314002
-0.00312615
0.00224303
2.09236e-05
-8.13617e-05
8.43083e-05
-0.00033454
0.000189133
-0.000655125
0.000330967
-0.0010184
0.00050164
-0.00139845
0.000690165
-0.00176999
0.000884567
-0.0021117
0.00107387
-0.00240867
0.00124957
-0.00265335
0.00140631
-0.00284473
0.00154173
-0.00298664
0.00165597
-0.00308586
0.00175085
-0.00315032
0.00182912
-0.0031879
0.00189387
-0.00320561
0.00194811
-0.00320932
0.00199451
-0.00320361
0.00203531
-0.00319198
0.0020723
-0.00317701
-0.00316072
0.00210688
2.34996e-05
-0.000104861
9.28584e-05
-0.000403899
0.000205158
-0.000767425
0.000353703
-0.00116694
0.000528027
-0.00157277
0.000715418
-0.00195738
0.000903204
-0.00229948
0.00108082
-0.00258629
0.00124101
-0.00281354
0.00138002
-0.00298373
0.0014971
-0.00310373
0.00159369
-0.00318245
0.00167247
-0.0032291
0.00173666
-0.00325209
0.00178946
-0.00325841
0.00183375
-0.0032536
0.00187192
-0.00324179
0.00190591
-0.00322597
0.00193719
-0.00320829
-0.00319037
0.00196683
2.60753e-05
-0.000130937
0.000101087
-0.000478911
0.000219895
-0.000886233
0.000373328
-0.00132038
0.000548694
-0.00174814
0.000731936
-0.00214063
0.000910248
-0.00247779
0.001074
-0.00275004
0.00121747
-0.00295702
0.00133861
-0.00310487
0.00143812
-0.00320324
0.00151847
-0.0032628
0.00158294
-0.00329357
0.00163491
-0.00330406
0.00167753
-0.00330102
0.00171339
-0.00328947
0.0017446
-0.003273
0.00177273
-0.0032541
0.00179897
-0.00323453
-0.00321554
0.00182415
2.8594e-05
-0.000159531
0.000108773
-0.000559089
0.000232884
-0.00101034
0.000389179
-0.00147667
0.000562952
-0.00192191
0.00073929
-0.00231696
0.000905805
-0.00264431
0.00105421
-0.00289845
0.0011805
-0.00308331
0.00128425
-0.00320861
0.00136737
-0.00328637
0.00143309
-0.00332852
0.00148498
-0.00334546
0.00152643
-0.00334551
0.00156033
-0.00333492
0.00158898
-0.00331812
0.00161413
-0.00329815
0.00163707
-0.00327704
0.00165871
-0.00325617
-0.00323651
0.00167967
3.09958e-05
-0.000190526
0.000115697
-0.000643791
0.000243713
-0.00113836
0.000400734
-0.00163369
0.000570383
-0.00209156
0.000737432
-0.00248401
0.000890415
-0.00279729
0.00102266
-0.00303069
0.00113191
-0.00319256
0.00121916
-0.00329585
0.00128729
-0.0033545
0.00133999
-0.00338121
0.0013809
-0.00338637
0.00141324
-0.00337785
0.00143959
-0.00336127
0.00146192
-0.00334044
0.00148166
-0.00331788
0.00149982
-0.00329521
0.00151711
-0.00327346
-0.00325339
0.00153399
3.32191e-05
-0.000223745
0.000121655
-0.000732226
0.000252033
-0.00126874
0.000407627
-0.00178929
0.000570832
-0.00225476
0.000726653
-0.00263983
0.000864939
-0.00293558
0.00098078
-0.00314653
0.00107355
-0.00328534
0.00114545
-0.00336775
0.00120004
-0.00340909
0.00124121
-0.00342239
0.00127252
-0.00341769
0.00129691
-0.00340224
0.00131661
-0.00338097
0.00133326
-0.00335709
0.001348
-0.00333263
0.00136164
-0.00330885
0.00137471
-0.00328652
-0.00326622
0.00138754
3.52011e-05
-0.000258947
0.00012646
-0.000823485
0.000257572
-0.00139985
0.000409659
-0.00194137
0.000564397
-0.0024095
0.000707513
-0.00278295
0.000830454
-0.00305852
0.000930083
-0.00324616
0.00100724
-0.00336249
0.00106504
-0.00342555
0.00110747
-0.00345153
0.00113844
-0.00345336
0.0011613
-0.00344054
0.00117862
-0.00341956
0.00119232
-0.00339467
0.00120372
-0.0033685
0.00121374
-0.00334265
0.00122298
-0.00331809
0.00123186
-0.0032954
-0.00327498
0.00124062
3.68897e-05
-0.000295836
0.000129973
-0.000916568
0.000260175
-0.00153005
0.000406827
-0.00208803
0.000551408
-0.00255408
0.000680785
-0.00291233
0.000788161
-0.0031659
0.000872084
-0.00333008
0.000934625
-0.00342503
0.000979577
-0.0034705
0.00101112
-0.00348307
0.00103302
-0.00347526
0.00104831
-0.00345583
0.00105925
-0.0034305
0.0010674
-0.00340282
0.00107384
-0.00337493
0.00107927
-0.00334808
0.00108418
-0.00332299
0.00108885
-0.00330007
-0.0032796
0.00109347
3.82416e-05
0.000132092
0.000259768
0.000399252
0.000532332
0.000647333
0.00073926
0.000808196
0.000857193
0.000890474
0.000912224
0.000925976
0.000934419
0.000939456
0.000942371
0.000944009
0.000944923
0.000945476
0.000945899
0.000946325
3.7042e-05
0.000218888
0.000131886
0.000728032
0.000266241
0.00126888
0.000419513
0.00179189
0.000572584
0.00225514
0.000711374
0.00263338
0.000828151
0.00291953
0.000920773
0.00312042
0.000990928
0.0032506
0.00104229
0.00332695
0.00107909
0.00336522
0.00110524
0.00337828
0.00112393
0.00337577
0.00113752
0.00336436
0.00114769
0.00334844
0.00115556
0.00333077
0.00116189
0.00331301
0.00116716
0.00329617
0.00117167
0.0032808
0.00326731
0.00117563
3.51359e-05
0.000183752
0.000127727
0.00063544
0.000262601
0.00113401
0.000421218
0.00163327
0.000584845
0.00209151
0.000738297
0.00247993
0.000871987
0.00278584
0.00098191
0.0030105
0.00106835
0.00316416
0.00113417
0.00326113
0.00118334
0.00331605
0.00121986
0.00334176
0.00124724
0.00334839
0.00126822
0.00334338
0.00128481
0.00333185
0.00129843
0.00331714
0.00131006
0.00330139
0.00132031
0.00328591
0.00132962
0.00327149
0.00325869
0.00133824
3.29154e-05
0.000150837
0.000122158
0.000546198
0.000255707
0.00100046
0.000417467
0.00147151
0.000589683
0.0019193
0.000756565
0.00231305
0.000906879
0.00263553
0.00103469
0.00288269
0.00113861
0.00306023
0.00122041
0.00317933
0.00128351
0.00325295
0.00133183
0.00329343
0.00136908
0.00331114
0.00139835
0.00331411
0.00142203
0.00330817
0.00144186
0.00329731
0.00145908
0.00328418
0.00147451
0.00327048
0.00148872
0.00325728
0.00324536
0.00150205
3.0451e-05
0.000120386
0.000115367
0.000461282
0.00024579
0.000870033
0.000408326
0.00130898
0.000586761
0.00174086
0.000765289
0.00213452
0.000931396
0.00246942
0.00107726
0.00273683
0.00119966
0.00293783
0.00129895
0.00308004
0.00137769
0.00317421
0.00143949
0.00323163
0.0014881
0.00326253
0.00152687
0.00327534
0.00155856
0.00327648
0.00158527
0.0032706
0.00160854
0.00326091
0.00162945
0.00324957
0.00164874
0.00323798
0.00322718
0.00166691
2.78141e-05
9.25718e-05
0.000107576
0.00038152
0.000233192
0.000744417
0.000394076
0.00114809
0.000576028
0.00155891
0.000763858
0.00194669
0.000944275
0.002289
0.00110779
0.00257331
0.00124928
0.00279635
0.00136741
0.00296192
0.00146357
0.00307804
0.00154075
0.00315445
0.00160249
0.00320079
0.00165231
0.00322552
0.00169325
0.00323554
0.00172778
0.00323607
0.00175779
0.0032309
0.00178466
0.00322269
0.00180937
0.00321327
0.00320396
0.0018326
2.50727e-05
6.7499e-05
9.90197e-05
0.000307573
0.00021832
0.000625116
0.000375165
0.000991247
0.000557704
0.00137637
0.00075197
0.00175242
0.000944509
0.00209647
0.00112456
0.00239325
0.00128516
0.00263575
0.00142314
0.00282394
0.00153841
0.00296277
0.00163298
0.00305989
0.00170993
0.00312384
0.00177269
0.00316276
0.00182451
0.00318372
0.00186817
0.0031924
0.00190593
0.00319315
0.00193949
0.00318913
0.00197013
0.00318263
0.00317531
0.00199878
2.2295e-05
4.5204e-05
8.99445e-05
0.000239924
0.000201655
0.000513406
0.000352223
0.000840679
0.000532325
0.00119627
0.000729738
0.00155501
0.000931504
0.0018947
0.00112613
0.00219863
0.00130509
0.00245679
0.00146334
0.00266568
0.0015991
0.00282701
0.00171304
0.00294595
0.00180746
0.00302942
0.00188541
0.00308481
0.00195014
0.00311899
0.00200467
0.00313788
0.00205156
0.00314626
0.00209289
0.0031478
0.00213026
0.00314526
0.00314067
0.0021649
1.95438e-05
2.56602e-05
8.05961e-05
0.000178871
0.000183713
0.00041029
0.000326023
0.000698369
0.000500734
0.00102156
0.000697738
0.001358
0.000905204
0.00168723
0.00111156
0.00199228
0.00130716
0.00226119
0.00148528
0.00248756
0.00164231
0.00266998
0.00177734
0.00281092
0.00189148
0.00291528
0.00198711
0.00298918
0.0020672
0.0030389
0.00213479
0.00307029
0.00219268
0.00308836
0.00224328
0.0030972
0.00228856
0.00309998
0.00309914
0.00233008
1.68733e-05
8.78686e-06
7.12027e-05
0.000124542
0.000165014
0.000316479
0.000297423
0.00056596
0.000464021
0.000854961
0.000657004
0.00116502
0.000866182
0.00147806
0.00108057
0.00177789
0.00129005
0.00205172
0.00148655
0.00229105
0.00166474
0.0024918
0.00182195
0.00265371
0.00195782
0.00277941
0.00207367
0.00287333
0.00217183
0.00294073
0.00225513
0.00298699
0.00232643
0.00301707
0.00238835
0.00303528
0.00244319
0.00304515
0.00304943
0.0024929
1.43252e-05
-5.53838e-06
6.19596e-05
7.69077e-05
0.000146041
0.000232397
0.0002673
0.000444701
0.00042344
0.000698822
0.000608957
0.000979504
0.000815647
0.00127137
0.00103373
0.0015598
0.00125326
0.00183219
0.00146542
0.00207888
0.00166344
0.00229378
0.00184295
0.00247421
0.0020019
0.00262046
0.00214022
0.002735
0.00225927
0.00282169
0.00236127
0.00288499
0.00244885
0.00292948
0.00252472
0.00295941
0.00259138
0.00297849
0.00298969
0.00265112
1.19257e-05
-1.74641e-05
5.30166e-05
3.58168e-05
0.00012721
0.000158203
0.000236479
0.000335432
0.000380295
0.000555006
0.000555288
0.000804511
0.000755374
0.00107128
0.000972424
0.00134275
0.00119733
0.00160728
0.00142119
0.00185502
0.00163631
0.00207866
0.00183686
0.00227365
0.00201915
0.00243817
0.00218149
0.00257267
0.00232389
0.00267928
0.00244763
0.00276125
0.00255477
0.00282234
0.00264776
0.00286642
0.00272912
0.00289713
0.00291741
0.00280139
9.68418e-06
-2.71483e-05
4.44711e-05
1.02995e-06
0.000108839
9.38349e-05
0.000205669
0.000238603
0.000335829
0.000424845
0.000497795
0.000642545
0.000687536
0.000881539
0.000898819
0.00113147
0.00112389
0.0013822
0.00135443
0.00162449
0.00158248
0.00185061
0.00180124
0.00205489
0.00200558
0.00223383
0.00219222
0.00238603
0.00235962
0.00251188
0.00250774
0.00261312
0.0026377
0.00269239
0.00275133
0.00275279
0.00285087
0.0027976
0.00282942
0.00293886
7.59407e-06
-3.47424e-05
3.63685e-05
-2.77445e-05
9.1148e-05
3.90553e-05
0.000175436
0.000154315
0.00029114
0.000309141
0.000438227
0.000495458
0.000614501
0.000705264
0.000815646
0.000930326
0.00103558
0.00116227
0.00126711
0.00139296
0.00150269
0.00161504
0.00173517
0.0018224
0.00195848
0.00201052
0.00216796
0.00217656
0.00236053
0.00231931
0.00253468
0.00243898
0.00269018
0.00253688
0.00282791
0.00261507
0.0029494
0.0026761
0.0027219
0.00305692
5.63813e-06
-4.03805e-05
2.87158e-05
-5.08221e-05
7.42681e-05
-6.49698e-06
0.000146196
8.23871e-05
0.00024713
0.000208208
0.000378163
0.000364425
0.000538614
0.000544813
0.000725927
0.000743014
0.000935783
0.00095241
0.00116246
0.00116628
0.00139938
0.00137812
0.00163974
0.00158205
0.0018771
0.00177316
0.00210592
0.00194774
0.00232186
0.00210337
0.00252193
0.00223892
0.00270446
0.00235435
0.00286898
0.00245054
0.00301599
0.0025291
0.00259078
0.00314711
3.79698e-06
-4.41775e-05
2.15052e-05
-6.85304e-05
5.82846e-05
-4.32763e-05
0.000118264
2.24078e-05
0.00020453
0.000121941
0.000318969
0.000249986
0.000462059
0.000401722
0.000632724
0.000572349
0.000828294
0.000756839
0.00104466
0.000949915
0.00127656
0.00114621
0.00151808
0.00134053
0.00176309
0.00152815
0.00200576
0.00170506
0.00224098
0.00186815
0.00246461
0.00201529
0.00267362
0.00214534
0.00286612
0.00225804
0.00304124
0.00235397
0.00243222
0.00319981
2.06001e-06
-4.62375e-05
1.47451e-05
-8.12155e-05
4.3289e-05
-7.18202e-05
9.19219e-05
-2.62252e-05
0.000163979
4.98836e-05
0.000261846
0.00015212
0.000386823
0.000276746
0.000538977
0.000420195
0.000717049
0.000578768
0.000918452
0.000748512
0.00113941
0.000925252
0.00137522
0.00110473
0.00162059
0.00128278
0.00187006
0.0014556
0.00211834
0.00161986
0.00236068
0.00177295
0.00259307
0.00191295
0.00281236
0.00203875
0.0030163
0.00215003
0.00224367
0.00320485
4.3532e-07
-4.66728e-05
8.48799e-06
-8.92681e-05
2.94324e-05
-9.27646e-05
6.75041e-05
-6.42969e-05
0.000126123
-8.73541e-06
0.000207937
7.03059e-05
0.000314763
0.000169919
0.000447484
0.000287475
0.000605934
0.000420318
0.00078884
0.000565606
0.000993836
0.000720255
0.00121758
0.000880984
0.00145594
0.00104442
0.0017043
0.00120724
0.00195783
0.00136633
0.0022118
0.00151898
0.00246181
0.00166294
0.00270398
0.00179658
0.00293504
0.00191897
0.00202423
0.00315448
-1.04497e-06
-4.56278e-05
2.84633e-06
-9.31594e-05
1.69571e-05
-0.000106875
4.54504e-05
-9.27901e-05
9.17022e-05
-5.49873e-05
0.000158432
3.57564e-06
0.000247723
8.06286e-05
0.000360965
0.000174233
0.000498769
0.000282514
0.000660882
0.000403492
0.000846145
0.000534992
0.00105251
0.000674623
0.00127711
0.00081981
0.00151647
0.000967879
0.00176665
0.00111615
0.00202354
0.00126209
0.00228306
0.00140341
0.00254139
0.00153826
0.00279503
0.00166533
0.00177612
0.00304314
-2.32673e-06
-4.33011e-05
-2.01304e-06
-9.34731e-05
6.19047e-06
-0.000115079
2.63077e-05
-0.000112907
6.15696e-05
-9.02492e-05
0.000114619
-4.94739e-05
0.000187597
7.65093e-06
0.000282141
7.96882e-05
0.000399337
0.000165318
0.000539641
0.000263188
0.000702816
0.000371817
0.000887897
0.000489542
0.0010932
0.000614505
0.00131641
0.000744667
0.00155472
0.000877853
0.00180499
0.00101182
0.00206409
0.00114431
0.00232925
0.00127311
0.0025987
0.00139588
0.00150115
0.00287367
-3.34381e-06
-3.99573e-05
-5.89696e-06
-9.092e-05
-2.50282e-06
-0.000118473
1.06651e-05
-0.000126075
3.66158e-05
-0.0001162
7.78032e-05
-9.06612e-05
0.000136265
-5.08112e-05
0.000213675
2.27871e-06
0.000311326
6.76668e-05
0.000430086
0.000144429
0.000570328
0.000231575
0.000731878
0.000327992
0.000913981
0.000432401
0.00111532
0.000543332
0.00133407
0.000659096
0.00156813
0.000777757
0.0018154
0.000897045
0.00207456
0.00101394
0.00234781
0.00112263
0.00120246
0.0026465
-4.03315e-06
-3.59242e-05
-8.62946e-06
-8.63236e-05
-8.79992e-06
-0.000118303
-9.64245e-07
-0.000133911
1.76122e-05
-0.000134776
4.91183e-05
-0.000122167
9.53759e-05
-9.70687e-05
0.000157929
-6.02741e-05
0.000238066
-1.24709e-05
0.000336803
4.5692e-05
0.000454827
0.000113551
0.000592436
0.000190383
0.000749469
0.000275368
0.000925248
0.000367553
0.00111853
0.000465819
0.00132744
0.000568844
0.00154944
0.000675047
0.00178102
0.000782355
0.00201663
0.000887022
0.000976688
0.0022424
-4.35448e-06
-3.15697e-05
-1.01044e-05
-8.05737e-05
-1.25136e-05
-0.000115893
-8.28581e-06
-0.000138139
5.0113e-06
-0.000148073
2.92633e-05
-0.000146419
6.60096e-05
-0.000133815
0.00011656
-0.000110824
0.000182048
-7.79589e-05
0.000263438
-3.56984e-05
0.000361498
1.5491e-05
0.000476742
7.51393e-05
0.000609356
0.000142754
0.000759108
0.000217801
0.000925248
0.000299679
0.00110641