/*--------------------------------*- C++ -*----------------------------------*\
  =========                 |
  \\      /  F ield         | OpenFOAM: The Open Source CFD Toolbox
   \\    /   O peration     | Website:  https://openfoam.org
    \\  /    A nd           | Version:  6.0
     \\/     M anipulation  |
\*---------------------------------------------------------------------------*/
FoamFile
{
    version     2.0;
    format      ascii;
    class       surfaceScalarField;
    location    "54";
    object      phi;
}
// * * * * * * * * * * * * * * * * * * * * * * * * * * * * * * * * * * * * * //

dimensions      [0 3 -1 0 0 0 0];

internalField   nonuniform List<scalar> 
24700
(
-1.26946e-06
-7.53183e-07
2.02265e-06
-4.60242e-06
-4.38813e-06
7.72108e-06
-9.57654e-06
-9.37605e-06
1.43502e-05
-1.58147e-05
-1.51073e-05
2.13455e-05
-2.29874e-05
-2.11464e-05
2.8319e-05
-3.08112e-05
-2.72109e-05
3.50347e-05
-3.90468e-05
-3.31344e-05
4.13701e-05
-4.7496e-05
-3.88353e-05
4.72844e-05
-5.59988e-05
-4.429e-05
5.27927e-05
-6.44308e-05
-4.95121e-05
5.79442e-05
-7.27011e-05
-5.45356e-05
6.2806e-05
-8.075e-05
-5.94024e-05
6.74512e-05
-8.85469e-05
-6.41538e-05
7.19507e-05
-9.60888e-05
-6.88258e-05
7.63677e-05
-0.000103398
-7.34455e-05
8.07547e-05
-0.00011052
-7.80305e-05
8.51525e-05
-0.000117521
-8.2589e-05
8.95901e-05
-0.000124485
-8.71204e-05
9.40848e-05
-0.000131512
-9.16171e-05
9.86436e-05
-0.000138711
-9.60651e-05
0.000103264
-0.0001462
-0.000100446
0.000107935
-0.000154099
-0.00010474
0.000112639
-0.000162529
-0.000108922
0.000117352
-0.000171605
-0.000112959
0.000122035
-0.000116809
0.000126641
-0.000181438
-1.34453e-06
5.91351e-07
-4.8662e-06
-8.6646e-07
-1.01178e-05
-4.12443e-06
-1.6704e-05
-8.52109e-06
-2.42815e-05
-1.35689e-05
-3.25566e-05
-1.89357e-05
-4.12823e-05
-2.44087e-05
-5.02545e-05
-2.98631e-05
-5.93087e-05
-3.52358e-05
-6.83172e-05
-4.05036e-05
-7.71866e-05
-4.56662e-05
-8.58552e-05
-5.07338e-05
-9.42912e-05
-5.57178e-05
-0.000102491
-6.06261e-05
-0.000110477
-6.54599e-05
-0.000118294
-7.0213e-05
-0.000126011
-7.4872e-05
-0.000133714
-7.94178e-05
-0.000141503
-8.38273e-05
-0.000149494
-8.80745e-05
-0.000157807
-9.21334e-05
-0.000166568
-9.59792e-05
-0.000175901
-9.95891e-05
-0.000185927
-0.000102933
-0.000105973
-0.000196762
-1.4211e-06
2.01245e-06
-5.13283e-06
2.84526e-06
-1.0661e-05
1.40371e-06
-1.75904e-05
-1.59165e-06
-2.55629e-05
-5.59645e-06
-3.42734e-05
-1.02253e-05
-4.34657e-05
-1.52164e-05
-5.29286e-05
-2.04002e-05
-6.24915e-05
-2.56729e-05
-7.20212e-05
-3.09738e-05
-8.14194e-05
-3.62681e-05
-9.06199e-05
-4.15333e-05
-9.95868e-05
-4.67508e-05
-0.000108313
-5.19e-05
-0.000116818
-5.69553e-05
-0.000125145
-6.18858e-05
-0.000133361
-6.66554e-05
-0.000141554
-7.12249e-05
-0.000149827
-7.55541e-05
-0.000158298
-7.96036e-05
-0.000167095
-8.33372e-05
-0.000176349
-8.67251e-05
-0.000186194
-8.97439e-05
-0.000196761
-9.23665e-05
-9.45573e-05
-0.000208177
-1.4966e-06
3.50906e-06
-5.39343e-06
6.74209e-06
-1.11883e-05
7.19854e-06
-1.84455e-05
5.66561e-06
-2.67914e-05
2.74945e-06
-3.59089e-05
-1.10783e-06
-4.5532e-05
-5.59325e-06
-5.54409e-05
-1.04912e-05
-6.54577e-05
-1.56562e-05
-7.54418e-05
-2.09897e-05
-8.52877e-05
-2.64221e-05
-9.49223e-05
-3.18988e-05
-0.000104303
-3.73705e-05
-0.000113415
-4.27878e-05
-0.000122272
-4.80979e-05
-0.000130914
-5.32437e-05
-0.000139405
-5.8165e-05
-0.000147829
-6.28005e-05
-0.000156293
-6.70902e-05
-0.000164918
-7.09783e-05
-0.000173839
-7.44162e-05
-0.000183199
-7.73655e-05
-0.000193143
-7.98e-05
-0.000203816
-8.1693e-05
-8.30099e-05
-0.000215364
-1.56832e-06
5.07738e-06
-5.6387e-06
1.08125e-05
-1.1681e-05
1.32409e-05
-1.92395e-05
1.32241e-05
-2.7925e-05
1.14349e-05
-3.74082e-05
8.37542e-06
-4.74133e-05
4.41179e-06
-5.77113e-05
-1.93217e-07
-6.81153e-05
-5.25211e-06
-7.84764e-05
-1.06287e-05
-8.86796e-05
-1.62189e-05
-9.86421e-05
-2.19362e-05
-0.000108311
-2.77012e-05
-0.000117664
-3.34357e-05
-0.000126703
-3.90588e-05
-0.00013546
-4.44864e-05
-0.000143993
-4.96322e-05
-0.000152383
-5.441e-05
-0.000160736
-5.87369e-05
-0.000169178
-6.25367e-05
-0.000177851
-6.57437e-05
-0.000186909
-6.83073e-05
-0.000196515
-7.01939e-05
-0.000206834
-7.13736e-05
-7.18095e-05
-0.000218035
-1.63342e-06
6.7108e-06
-5.85891e-06
1.5038e-05
-1.21198e-05
1.95018e-05
-1.99413e-05
2.10456e-05
-2.89197e-05
2.04133e-05
-3.87142e-05
1.817e-05
-4.90391e-05
1.47366e-05
-5.96561e-05
1.04238e-05
-7.0369e-05
5.46082e-06
-8.10188e-05
2.10274e-08
-9.14797e-05
-5.75801e-06
-0.000101657
-1.17588e-05
-0.000111485
-1.78728e-05
-0.000120928
-2.39934e-05
-0.000129975
-3.00115e-05
-0.000138646
-3.58152e-05
-0.000146988
-4.129e-05
-0.000155077
-4.63217e-05
-0.000163013
-5.08004e-05
-0.000170925
-5.46246e-05
-0.000178963
-5.77056e-05
-0.000187296
-5.99744e-05
-0.000196106
-6.1384e-05
-0.000205584
-6.1896e-05
-6.14659e-05
-0.000215927
-1.68899e-06
8.39979e-06
-6.04403e-06
1.9393e-05
-1.24845e-05
2.59422e-05
-2.05186e-05
2.90796e-05
-2.97298e-05
2.96246e-05
-3.9767e-05
2.82072e-05
-5.03351e-05
2.53048e-05
-6.11872e-05
2.12759e-05
-7.21175e-05
1.63911e-05
-8.29562e-05
1.08597e-05
-9.35656e-05
4.85136e-06
-0.000103837
-1.48735e-06
-0.00011369
-8.0202e-06
-0.00012307
-1.46133e-05
-0.000131951
-2.11302e-05
-0.000140336
-2.74303e-05
-0.000148256
-3.33695e-05
-0.000155776
-3.88026e-05
-0.000162988
-4.35879e-05
-0.00017002
-4.75923e-05
-0.000177029
-5.0697e-05
-0.000184197
-5.28059e-05
-0.000191731
-5.38505e-05
-0.000199851
-5.37755e-05
-5.25214e-05
-0.000208796
-1.73205e-06
1.01318e-05
-6.18389e-06
2.38449e-05
-1.27546e-05
3.25129e-05
-2.09383e-05
3.72633e-05
-3.0308e-05
3.89942e-05
-4.05039e-05
3.84031e-05
-5.12231e-05
3.6024e-05
-6.22106e-05
3.22634e-05
-7.32517e-05
2.74322e-05
-8.41658e-05
2.17739e-05
-9.48024e-05
1.5488e-05
-0.000105038
8.74792e-06
-0.000114773
1.71518e-06
-0.000123935
-5.45131e-06
-0.000132476
-1.25892e-05
-0.000140377
-1.95297e-05
-0.000147648
-2.6098e-05
-0.000154336
-3.21153e-05
-0.00016052
-3.74033e-05
-0.000166322
-4.179e-05
-0.000171902
-4.51178e-05
-0.000177455
-4.72526e-05
-0.000183213
-4.80927e-05
-0.000189434
-4.75541e-05
-4.55516e-05
-0.000196404
-1.75966e-06
1.18915e-05
-6.26836e-06
2.83536e-05
-1.29096e-05
3.91541e-05
-2.1167e-05
4.55208e-05
-3.06058e-05
4.8433e-05
-4.08599e-05
4.86572e-05
-5.16204e-05
4.67845e-05
-6.26257e-05
4.32686e-05
-7.3653e-05
3.84594e-05
-8.45117e-05
3.26327e-05
-9.50387e-05
2.60149e-05
-0.000105094
1.88034e-05
-0.000114561
1.11816e-05
-0.000123342
3.3301e-06
-0.000131366
-4.56534e-06
-0.000138586
-1.23099e-05
-0.000144986
-1.96981e-05
-0.000150585
-2.65156e-05
-0.000155445
-3.25432e-05
-0.000159672
-3.7563e-05
-0.000163423
-4.13674e-05
-0.000166904
-4.37715e-05
-0.000170372
-4.46247e-05
-0.000174128
-4.3798e-05
-4.11635e-05
-0.000178516
-1.76903e-06
1.36605e-05
-6.2877e-06
3.28722e-05
-1.29294e-05
4.57959e-05
-2.11716e-05
5.37629e-05
-3.05747e-05
5.78361e-05
-4.07688e-05
5.88513e-05
-5.14411e-05
5.74569e-05
-6.23253e-05
5.41528e-05
-7.31923e-05
4.93264e-05
-8.38428e-05
4.32832e-05
-9.41019e-05
3.6274e-05
-0.000103815
2.85161e-05
-0.000112844
2.02106e-05
-0.000121069
1.15558e-05
-0.000128391
2.75632e-06
-0.000134731
-5.97007e-06
-0.000140039
-1.43897e-05
-0.000144302
-2.22524e-05
-0.00014755
-2.92951e-05
-0.000149867
-3.52467e-05
-0.000151395
-3.98387e-05
-0.000152348
-4.28192e-05
-0.000153003
-4.39691e-05
-0.00015371
-4.30913e-05
-3.99915e-05
-0.000154882
-1.75761e-06
1.54181e-05
-6.23302e-06
3.73476e-05
-1.27956e-05
5.23584e-05
-2.09205e-05
6.18879e-05
-3.01671e-05
6.70827e-05
-4.01641e-05
6.88483e-05
-5.0597e-05
6.78898e-05
-6.1197e-05
6.47528e-05
-7.17306e-05
5.986e-05
-8.1992e-05
5.35446e-05
-9.17964e-05
4.60785e-05
-0.000100975
3.76948e-05
-0.000109372
2.86079e-05
-0.000116845
1.90281e-05
-0.000123262
9.17366e-06
-0.000128512
-7.20408e-07
-0.000132505
-1.03964e-05
-0.000135186
-1.95712e-05
-0.000136545
-2.79365e-05
-0.000136628
-3.51634e-05
-0.000135556
-4.0911e-05
-0.000133532
-4.48429e-05
-0.000130854
-4.66467e-05
-0.000127919
-4.60268e-05
-4.26879e-05
-0.000125223
-1.72332e-06
1.71415e-05
-6.09679e-06
4.17211e-05
-1.24918e-05
5.87534e-05
-2.03856e-05
6.97817e-05
-2.9339e-05
7.60361e-05
-3.89821e-05
7.84913e-05
-4.90009e-05
7.79086e-05
-5.91258e-05
7.48777e-05
-6.91216e-05
6.98557e-05
-7.87782e-05
6.32013e-05
-8.79039e-05
5.52041e-05
-9.63189e-05
4.61098e-05
-0.000103852
3.61408e-05
-0.000110337
2.55135e-05
-0.000115617
1.44531e-05
-0.000119541
3.20451e-06
-0.00012198
-7.95759e-06
-0.000122829
-1.87226e-05
-0.000122025
-2.87405e-05
-0.000119566
-3.7622e-05
-0.000115532
-4.49452e-05
-0.000110104
-5.02708e-05
-0.000103587
-5.31643e-05
-9.64212e-05
-5.31923e-05
-4.99093e-05
-8.91997e-05
-1.66473e-06
1.88062e-05
-5.87351e-06
4.59299e-05
-1.20054e-05
6.48854e-05
-1.95434e-05
7.73196e-05
-2.80523e-05
8.4545e-05
-3.71651e-05
8.76042e-05
-4.65702e-05
8.73136e-05
-5.59991e-05
8.43066e-05
-6.52166e-05
7.90733e-05
-7.40114e-05
7.19961e-05
-8.21877e-05
6.33804e-05
-8.95588e-05
5.34808e-05
-9.59415e-05
4.25235e-05
-0.000101153
3.07253e-05
-0.000105011
1.83105e-05
-0.000107332
5.52563e-06
-0.000107942
-7.34736e-06
-0.000106685
-1.99799e-05
-0.000103438
-3.19875e-05
-9.81355e-05
-4.29242e-05
-9.07983e-05
-5.22823e-05
-8.15653e-05
-5.95038e-05
-7.07286e-05
-6.4001e-05
-5.8767e-05
-6.5154e-05
-6.22992e-05
-4.63771e-05
-1.5813e-06
2.03875e-05
-5.56037e-06
4.9909e-05
-1.13288e-05
7.06538e-05
-1.83776e-05
8.43685e-05
-2.62775e-05
9.24448e-05
-3.46653e-05
9.5992e-05
-4.32323e-05
9.58806e-05
-5.17125e-05
9.27868e-05
-5.98723e-05
8.72331e-05
-6.7501e-05
7.96248e-05
-7.44022e-05
7.02817e-05
-8.03866e-05
5.94651e-05
-8.52648e-05
4.74018e-05
-8.88433e-05
3.43038e-05
-9.09209e-05
2.0388e-05
-9.12887e-05
5.89337e-06
-8.97338e-05
-8.90224e-06
-8.60487e-05
-2.36649e-05
-8.00475e-05
-3.79888e-05
-7.15907e-05
-5.1381e-05
-6.06215e-05
-6.32515e-05
-4.72117e-05
-7.29135e-05
-3.16162e-05
-7.95965e-05
-1.43324e-05
-8.24378e-05
-8.04667e-05
3.83508e-06
-1.47352e-06
2.1861e-05
-5.15775e-06
5.35932e-05
-1.046e-05
7.5956e-05
-1.68808e-05
9.07893e-05
-2.39967e-05
9.95607e-05
-3.14484e-05
0.000103444
-3.893e-05
0.000103362
-4.61775e-05
0.000100034
-5.29594e-05
9.4015e-05
-5.90671e-05
8.57325e-05
-6.43062e-05
7.55207e-05
-6.84884e-05
6.36474e-05
-7.14246e-05
5.03379e-05
-7.29179e-05
3.57971e-05
-7.27589e-05
2.02291e-05
-7.07228e-05
3.85721e-06
-6.65693e-05
-1.30557e-05
-6.00488e-05
-3.01854e-05
-5.09158e-05
-4.71218e-05
-3.89534e-05
-6.33434e-05
-2.40139e-05
-7.8191e-05
-6.0771e-06
-9.08503e-05
1.46726e-05
-0.000100346
3.77496e-05
-0.000105515
-0.000104966
6.22485e-05
-1.34304e-06
2.32041e-05
-4.66963e-06
5.69198e-05
-9.40395e-06
8.06904e-05
-1.50556e-05
9.6441e-05
-2.12058e-05
0.000105711
-2.74978e-05
0.000109736
-3.36264e-05
0.000109491
-3.93285e-05
0.000105736
-4.43735e-05
9.906e-05
-4.85545e-05
8.99134e-05
-5.168e-05
7.86462e-05
-5.3566e-05
6.55335e-05
-5.40285e-05
5.08004e-05
-5.28757e-05
3.46442e-05
-4.99013e-05
1.72547e-05
-4.48788e-05
-1.16533e-06
-3.75575e-05
-2.0377e-05
-2.76633e-05
-4.00796e-05
-1.49062e-05
-5.98789e-05
9.99549e-07
-7.92491e-05
2.02961e-05
-9.74876e-05
4.31154e-05
-0.00011367
6.93791e-05
-0.00012661
9.86577e-05
-0.000134793
-0.000136279
0.000129971
-1.19269e-06
2.43967e-05
-4.10358e-06
5.98307e-05
-8.17233e-06
8.47591e-05
-1.29152e-05
0.000101184
-1.79156e-05
0.000110711
-2.28159e-05
0.000114636
-2.73088e-05
0.000113984
-3.11287e-05
0.000109556
-3.4043e-05
0.000101974
-3.58443e-05
9.17147e-05
-3.63431e-05
7.9145e-05
-3.53602e-05
6.45506e-05
-3.27198e-05
4.81601e-05
-2.82421e-05
3.01665e-05
-2.17349e-05
1.07475e-05
-1.29862e-05
-9.91402e-06
-1.75632e-06
-3.16069e-05
1.22277e-05
-5.40636e-05
2.92726e-05
-7.69238e-05
4.97084e-05
-9.96849e-05
7.38574e-05
-0.000121637
0.000101968
-0.000141781
0.0001341
-0.000158742
0.000169935
-0.000170628
-0.000174813
0.000208469
-1.02633e-06
2.54231e-05
-3.47035e-06
6.22747e-05
-6.78293e-06
8.80717e-05
-1.04827e-05
0.000104884
-1.41506e-05
0.000114379
-1.7424e-05
0.000117909
-1.99888e-05
0.000116549
-2.15721e-05
0.00011114
-2.19344e-05
0.000102337
-2.08635e-05
9.06439e-05
-1.81681e-05
7.64495e-05
-1.36718e-05
6.00542e-05
-7.20715e-06
4.16955e-05
1.39033e-06
2.1569e-05
1.229e-05
-1.52192e-07
2.56745e-05
-2.32985e-05
4.175e-05
-4.76824e-05
6.07569e-05
-7.30706e-05
8.29798e-05
-9.91467e-05
0.00010875
-0.000125455
0.000138432
-0.000151319
0.000172371
-0.000175719
0.000210776
-0.000197147
0.000253497
-0.000213349
-0.000220908
0.000299592
-8.48534e-07
2.62716e-05
-2.78295e-06
6.42091e-05
-5.25792e-06
9.05467e-05
-7.78806e-06
0.000107414
-9.94621e-06
0.000116537
-1.13587e-05
0.000119322
-1.16989e-05
0.000116889
-1.06802e-05
0.000110121
-8.05027e-06
9.97066e-05
-3.58537e-06
8.6179e-05
2.91378e-06
6.99504e-05
1.16262e-05
5.13418e-05
2.27142e-05
3.06075e-05
3.63279e-05
7.95533e-06
5.261e-05
-1.64343e-05
7.17034e-05
-4.2392e-05
9.37611e-05
-6.97401e-05
0.00011896
-9.82691e-05
0.000147516
-0.000127703
0.000179705
-0.000157645
0.000215868
-0.000187482
0.00025639
-0.000216241
0.000301607
-0.000242363
0.000351579
-0.000263322
-0.000274869
0.00040554
-6.6416e-07
2.69358e-05
-2.05515e-06
6.56001e-05
-3.62112e-06
9.21127e-05
-4.86447e-06
0.000108657
-5.34278e-06
0.000117016
-4.6647e-06
0.000118644
-2.48396e-06
0.000114708
1.50662e-06
0.00010613
7.58016e-06
9.36331e-05
1.59796e-05
7.77796e-05
2.69202e-05
5.90098e-05
4.05914e-05
3.76706e-05
5.71579e-05
1.4041e-05
7.67603e-05
-1.16471e-05
9.95171e-05
-3.91911e-05
0.000125528
-6.84028e-05
0.00015488
-9.90926e-05
0.000187662
-0.000131051
0.00022398
-0.000164021
0.000263988
-0.000197652
0.000307916
-0.00023141
0.000356091
-0.000264417
0.0004089
-0.000295172
0.000466608
-0.000321029
-0.00033701
0.000528749
-4.77722e-07
2.74135e-05
-1.29967e-06
6.6422e-05
-1.89443e-06
9.27074e-05
-1.7425e-06
0.000108505
-3.78015e-07
0.000115651
2.61558e-06
0.00011565
7.61155e-06
0.000109712
1.49454e-05
9.87965e-05
2.4919e-05
8.36595e-05
3.78031e-05
6.48955e-05
5.38378e-05
4.2975e-05
7.32324e-05
1.8276e-05
9.6163e-05
-8.88961e-06
0.00012277
-3.8254e-05
0.000153155
-6.95761e-05
0.000187379
-0.000102627
0.000225464
-0.000137177
0.000267396
-0.000172983
0.000313141
-0.000209766
0.000362674
-0.000247185
0.000416022
-0.000284758
0.000473323
-0.000321718
0.000534863
-0.000356712
0.000601021
-0.000387187
-0.000407698
0.000671709
-2.92721e-07
2.77062e-05
-5.26021e-07
6.66553e-05
-9.37879e-08
9.22752e-05
1.55627e-06
0.000106855
4.92231e-06
0.000112285
1.0454e-05
0.000110118
1.85593e-05
0.000101607
2.96095e-05
8.77463e-05
4.3943e-05
6.9326e-05
6.18663e-05
4.69723e-05
8.36529e-05
2.11884e-05
0.00010954
-7.61165e-06
0.000139726
-3.90754e-05
0.000174361
-7.28882e-05
0.000213539
-0.000108755
0.000257297
-0.000146385
0.000305598
-0.000185478
0.000358333
-0.000225718
0.000415323
-0.000266756
0.00047633
-0.000308192
0.000541103
-0.000349532
0.00060945
-0.000390065
0.000681338
-0.000428599
0.000757
-0.00046285
-0.000487399
0.000836701
-1.10981e-07
2.78172e-05
2.61546e-07
6.62828e-05
1.77486e-06
9.07619e-05
5.02562e-06
0.000103604
1.05535e-05
0.000106757
1.88494e-05
0.000101823
3.0363e-05
9.00932e-05
4.55085e-05
7.26008e-05
6.46673e-05
5.01672e-05
8.81876e-05
2.34519e-05
0.000116382
-7.00622e-06
0.000149524
-4.07529e-05
0.000187836
-7.73881e-05
0.000231489
-0.000116541
0.000280583
-0.000157849
0.000335139
-0.000200941
0.000395087
-0.000245426
0.000460244
-0.000290875
0.000530305
-0.000336817
0.000604832
-0.000382719
0.000683266
-0.000427966
0.000764979
-0.000471778
0.000849385
-0.000513005
0.000936144
-0.000549608
-0.000577133
0.00102588
6.79073e-08
2.77493e-05
1.06576e-06
6.5285e-05
3.71888e-06
8.81088e-05
8.68004e-06
9.86432e-05
1.65397e-05
9.88976e-05
2.78376e-05
9.05247e-05
4.30718e-05
7.4859e-05
6.27046e-05
5.2968e-05
8.71642e-05
2.57076e-05
0.000116843
-6.22728e-06
0.000152095
-4.22582e-05
0.000193227
-8.18847e-05
0.000240491
-0.000124652
0.000294075
-0.000170125
0.000354091
-0.000217865
0.000420564
-0.000267414
0.000493412
-0.000318273
0.000572428
-0.000369892
0.000657256
-0.000421644
0.000747342
-0.000472806
0.000841896
-0.00052252
0.00093985
-0.000569731
0.00103985
-0.000613004
0.00114045
-0.000650212
-0.000679341
0.00124266
2.46943e-07
2.75023e-05
1.89742e-06
6.36345e-05
5.761e-06
8.42452e-05
1.25579e-05
9.18463e-05
2.29382e-05
8.85173e-05
3.74973e-05
7.59656e-05
5.67865e-05
5.55697e-05
8.1319e-05
2.84355e-05
0.00011157
-4.54318e-06
0.000147973
-4.26305e-05
0.000190915
-8.52006e-05
0.000240728
-0.000131698
0.00029768
-0.000181603
0.000361963
-0.000234409
0.000433694
-0.000289596
0.000512898
-0.000346618
0.000599512
-0.000404888
0.000693378
-0.000463757
0.000794234
-0.000522501
0.000901704
-0.000580275
0.00101524
-0.000636057
0.00113401
-0.000688497
0.00125639
-0.000735386
0.00137837
-0.000772192
-0.000791035
0.00149006
4.31294e-07
2.7071e-05
2.77478e-06
6.1291e-05
7.93869e-06
7.90813e-05
1.67209e-05
8.30641e-05
2.98387e-05
7.53995e-05
4.79486e-05
5.78558e-05
7.16575e-05
3.18607e-05
0.000101528
-1.43499e-06
0.000138076
-4.10913e-05
0.000181766
-8.63199e-05
0.000232999
-0.000136434
0.000292106
-0.000190805
0.000359339
-0.000248836
0.000434859
-0.000309928
0.000518738
-0.000373475
0.000610962
-0.000438842
0.000711445
-0.00050537
0.000820058
-0.00057237
0.000936686
-0.000639129
0.00106133
-0.000704915
0.00119426
-0.000768992
0.00133637
-0.000830601
0.00148986
-0.000888879
0.00166068
-0.000943014
-0.000992744
0.00186239
6.298e-07
2.64412e-05
3.72559e-06
5.81952e-05
1.03057e-05
7.25011e-05
2.12541e-05
7.21157e-05
3.73613e-05
5.92923e-05
5.93474e-05
3.58697e-05
8.78738e-05
3.33429e-06
0.000123546
-3.71067e-05
0.000166906
-8.44515e-05
0.000218426
-0.00013784
0.000278491
-0.000196499
0.000347391
-0.000259705
0.000425304
-0.000326749
0.000512295
-0.000396919
0.000608311
-0.000469491
0.000713195
-0.000543725
0.000826699
-0.000618875
0.000948529
-0.0006942
0.00107839
-0.000768989
0.00121607
-0.000842592
0.00136154
-0.000914462
0.00151513
-0.0009842
0.00167783
-0.00105157
0.00185126
-0.00111645
-0.00117581
0.00203433
8.51823e-07
2.55894e-05
4.78094e-06
5.42661e-05
1.29234e-05
6.43587e-05
2.62547e-05
5.87844e-05
4.56416e-05
3.99054e-05
7.18669e-05
9.64442e-06
0.00010564
-3.04383e-05
0.000147593
-7.90598e-05
0.000198273
-0.000135132
0.000258124
-0.000197691
0.000327472
-0.000265847
0.000406503
-0.000338737
0.000495258
-0.000415504
0.000593621
-0.000495282
0.000701322
-0.000577193
0.000817954
-0.000660357
0.000942987
-0.000743908
0.00107581
-0.000827021
0.00121576
-0.000908939
0.00136218
-0.000989009
0.00151444
-0.00106673
0.00167201
-0.00114177
0.00183441
-0.00121397
0.002001
-0.00128304
-0.00134484
0.00217003
1.10824e-06
2.44812e-05
5.97562e-06
4.93987e-05
1.58586e-05
5.44757e-05
3.18263e-05
4.28168e-05
5.48202e-05
1.69114e-05
8.56797e-05
-2.1215e-05
0.000125147
-6.99055e-05
0.000173859
-0.000127772
0.000232332
-0.000193604
0.000300936
-0.000266295
0.000379874
-0.000344785
0.000469166
-0.000428029
0.000568633
-0.00051497
0.000677895
-0.000604544
0.000796382
-0.00069568
0.000923351
-0.000787325
0.00105791
-0.000878471
0.00119907
-0.000968182
0.00134577
-0.00105563
0.00149688
-0.00114013
0.0016513
-0.00122115
0.00180789
-0.00129836
0.00196546
-0.00137154
0.00212276
-0.00144034
-0.00150073
0.00227865
1.41001e-06
2.30712e-05
7.34429e-06
4.34644e-05
1.9177e-05
4.2643e-05
3.80675e-05
2.39262e-05
6.50259e-05
-1.0047e-05
0.000100934
-5.7123e-05
0.000146544
-0.000115515
0.000202463
-0.000183691
0.000269127
-0.000260269
0.000346774
-0.000343942
0.000435417
-0.000433428
0.000534827
-0.000527439
0.000644529
-0.000624672
0.000763804
-0.00072382
0.000891716
-0.000823592
0.00102714
-0.000922749
0.0011688
-0.00102014
0.00131534
-0.00111472
0.00146533
-0.00120562
0.00161733
-0.00129213
0.00176992
-0.00137374
0.00192169
-0.00145013
0.00207128
-0.00152113
0.00221737
-0.00158643
-0.0016427
0.00235933
1.76727e-06
2.13039e-05
8.91844e-06
3.63133e-05
2.29363e-05
2.86252e-05
4.50618e-05
1.80069e-06
7.63595e-05
-4.13447e-05
0.000117731
-9.84944e-05
0.000169905
-0.000167689
0.00023341
-0.000247197
0.000308545
-0.000335403
0.000395342
-0.000430739
0.000493547
-0.000531633
0.000602606
-0.000636498
0.000721675
-0.000743741
0.000849642
-0.000851786
0.000985166
-0.000959117
0.00112674
-0.00106432
0.00127273
-0.00116613
0.00142148
-0.00126346
0.00157131
-0.00135545
0.00172063
-0.00144145
0.00186793
-0.00152103
0.0020118
-0.001594
0.00215098
-0.00166031
0.00228442
-0.00171987
-0.00177019
0.00241192
2.18854e-06
1.91154e-05
1.07238e-05
2.7778e-05
2.71815e-05
1.21674e-05
5.28682e-05
-2.38861e-05
8.88804e-05
-7.73568e-05
0.000136107
-0.000145721
0.000195206
-0.000226788
0.00026657
-0.000318561
0.000350286
-0.000419119
0.000446104
-0.000526557
0.000553424
-0.000638953
0.000671296
-0.000754371
0.000798455
-0.0008709
0.000933364
-0.000986695
0.00107429
-0.00110004
0.00121937
-0.0012094
0.00136671
-0.00131347
0.00151446
-0.00141121
0.00166085
-0.00150184
0.00180429
-0.00158489
0.00194339
-0.00166013
0.00207695
-0.00172756
0.002204
-0.00178737
0.00232387
-0.00183974
-0.00188304
0.00243671
2.68019e-06
1.64352e-05
1.27782e-05
1.76801e-05
3.19402e-05
-6.99464e-06
6.15143e-05
-5.34601e-05
0.000102597
-0.000118439
0.000156018
-0.000199142
0.000222309
-0.000293079
0.000301653
-0.000397905
0.000393848
-0.000511314
0.000498281
-0.000630991
0.000613933
-0.000754604
0.000739405
-0.000879843
0.000872984
-0.00100448
0.00101272
-0.00112643
0.00115653
-0.00124385
0.0013023
-0.00135517
0.00144798
-0.00145915
0.00159166
-0.00155489
0.00173167
-0.00164185
0.00186657
-0.0017198
0.00199525
-0.0017888
0.00211684
-0.00184915
0.00223079
-0.00190132
0.00233682
-0.00194577
-0.00198167
0.00243544
3.24616e-06
1.3189e-05
1.50907e-05
5.83554e-06
3.72206e-05
-2.91245e-05
7.09922e-05
-8.72317e-05
0.000117458
-0.000164905
0.000177337
-0.00025902
0.000250958
-0.000366701
0.000338218
-0.000485165
0.000438542
-0.000611638
0.00055088
-0.000743329
0.000673738
-0.000877461
0.000805242
-0.00101135
0.000943243
-0.00114248
0.00108543
-0.00126862
0.00122947
-0.00138789
0.0013731
-0.0014988
0.00151426
-0.00160031
0.00165117
-0.0016918
0.00178238
-0.00177305
0.00190676
-0.00184418
0.00202355
-0.0019056
0.00213233
-0.00195793
0.00223294
-0.00200192
0.00232552
-0.00203835
-0.002067
0.00241085
3.88792e-06
9.30111e-06
1.76613e-05
-7.93784e-06
4.30102e-05
-5.44734e-05
8.12573e-05
-0.000125479
0.000133358
-0.000217006
0.000199848
-0.00032551
0.00028078
-0.000447633
0.000375677
-0.000580062
0.000483514
-0.000719475
0.000602741
-0.000862556
0.00073136
-0.00100608
0.000867032
-0.00114702
0.00100723
-0.00128267
0.00114936
-0.00141076
0.00129098
-0.0015295
0.00142982
-0.00163765
0.00156399
-0.00173448
0.00169195
-0.00181977
0.00181259
-0.00189369
0.0019252
-0.00195679
0.00202944
-0.00200983
0.00212528
-0.00205377
0.00221298
-0.00208962
0.00229301
-0.00211838
-0.00214033
0.00236635
4.6046e-06
4.69651e-06
2.04808e-05
-2.3814e-05
4.92767e-05
-8.32693e-05
9.22289e-05
-0.000168431
0.000150131
-0.000274908
0.000223258
-0.000398637
0.000311299
-0.000535674
0.000413322
-0.000682085
0.000527784
-0.000833936
0.0006526
-0.000987372
0.000785271
-0.00113875
0.000923043
-0.00128479
0.0010631
-0.00142273
0.00120272
-0.00155038
0.00133945
-0.00166624
0.00147123
-0.00176942
0.00159642
-0.00185967
0.00171388
-0.00193722
0.00182291
-0.00200272
0.00192322
-0.00205711
0.00201491
-0.00210152
0.00209832
-0.00213718
0.00217403
-0.00216533
0.00224276
-0.00218711
-0.00220316
0.00230559
5.39325e-06
-6.96739e-07
2.35318e-05
-4.19525e-05
5.59686e-05
-0.000115706
0.000103792
-0.000216255
0.000167559
-0.000338675
0.0002472
-0.000478278
0.000341953
-0.000630428
0.000450357
-0.000790489
0.000570304
-0.000953883
0.000699169
-0.00111624
0.000833997
-0.00127358
0.000971709
-0.00142251
0.00110933
-0.00156034
0.00124415
-0.0016852
0.00137389
-0.00179598
0.0014968
-0.00189233
0.00161163
-0.00197451
0.00171768
-0.00204327
0.00181471
-0.00209974
0.00190285
-0.00214525
0.00198255
-0.00218122
0.00205448
-0.0022091
0.00211942
-0.00223027
0.00217825
-0.00224594
-0.00225698
0.00223207
6.24906e-06
-6.9458e-06
2.67891e-05
-6.24926e-05
6.30172e-05
-0.000151934
0.000115803
-0.000269041
0.000185382
-0.000408254
0.000271251
-0.000564147
0.000372119
-0.000731296
0.000485936
-0.000904305
0.000610011
-0.00107796
0.000741215
-0.00124744
0.000876215
-0.00140858
0.00101174
-0.00155803
0.00114479
-0.0016934
0.00127285
-0.00181326
0.00139394
-0.00191708
0.00150672
-0.00200511
0.00161041
-0.0020782
0.00170476
-0.00213763
0.00178997
-0.00218495
0.00186654
-0.00222182
0.0019352
-0.00224989
0.00199683
-0.00227073
0.00205234
-0.00228578
0.00210269
-0.00229628
-0.0023032
0.00214891
7.16548e-06
-1.41113e-05
3.02208e-05
-8.55479e-05
7.03377e-05
-0.000192051
0.000128088
-0.000326791
0.000203298
-0.000483464
0.000294946
-0.000655794
0.000401137
-0.000837487
0.000519203
-0.00102237
0.00064589
-0.00120465
0.000777629
-0.00137918
0.000910835
-0.00154178
0.00104219
-0.00168938
0.00116884
-0.00182005
0.00128857
-0.00193299
0.00139984
-0.00202835
0.00150178
-0.00210704
0.00159409
-0.00217051
0.00167697
-0.00222051
0.00175097
-0.00225895
0.00181689
-0.00228774
0.00187566
-0.00230866
0.00192827
-0.00232335
0.0019757
-0.00233321
0.00201886
-0.00233945
-0.00234305
0.00205871
8.13434e-06
-2.22456e-05
3.37879e-05
-0.000111202
7.78314e-05
-0.000236095
0.000140453
-0.000389412
0.00022098
-0.000563992
0.000317791
-0.000752605
0.000428342
-0.000948038
0.000549341
-0.00114337
0.000677024
-0.00133233
0.000807495
-0.00150965
0.000937059
-0.00167135
0.0010625
-0.00181482
0.00118127
-0.00193882
0.00129157
-0.00204329
0.00139235
-0.00212913
0.00148324
-0.00219793
0.00156439
-0.00225166
0.00163638
-0.0022925
0.00170006
-0.00232263
0.00175643
-0.00234411
0.00180653
-0.00235876
0.00185138
-0.00236819
0.00189193
-0.00237376
0.00192905
-0.00237656
-0.00237755
0.00196355
9.14585e-06
-3.13915e-05
3.74459e-05
-0.000139502
8.53874e-05
-0.000284036
0.000152685
-0.000456709
0.000238082
-0.00064939
0.00033929
-0.000853813
0.000453092
-0.00106184
0.000575606
-0.00126588
0.000702649
-0.00145937
0.000830133
-0.00163713
0.000954407
-0.00179562
0.00107252
-0.00193293
0.00118232
-0.00204862
0.00128253
-0.0021435
0.0013726
-0.0022192
0.00145263
-0.00227795
0.00152318
-0.00232221
0.00158513
-0.00235445
0.00163953
-0.00237704
0.00168749
-0.00239206
0.00173008
-0.00240135
0.00176829
-0.00240641
0.00180303
-0.00240849
0.00183504
-0.00240858
-0.00240753
0.00186502
1.01886e-05
-4.15801e-05
4.11445e-05
-0.000170457
9.28845e-05
-0.000335776
0.00016456
-0.000528385
0.000254252
-0.000739082
0.00035896
-0.00095852
0.000474799
-0.00117768
0.000597367
-0.00138845
0.000722185
-0.00158419
0.000845121
-0.00176007
0.000962727
-0.00191323
0.00107243
-0.00204263
0.00117259
-0.00214879
0.00126245
-0.00223335
0.00134195
-0.00229871
0.00141163
-0.00234763
0.00147236
-0.00238294
0.00152523
-0.00240733
0.00157142
-0.00242322
0.00161205
-0.0024327
0.00164819
-0.00243749
0.00168075
-0.00243898
0.00171054
-0.00243827
0.00173819
-0.00243623
-0.00243362
0.00176429
1.12497e-05
-5.28297e-05
4.48286e-05
-0.000204036
0.000100194
-0.000391142
0.000175849
-0.00060404
0.000269146
-0.000832378
0.000376351
-0.00106573
0.000492955
-0.00129428
0.000614135
-0.00150963
0.000735256
-0.00170531
0.000852301
-0.00187712
0.00096216
-0.00202309
0.00106274
-0.00214321
0.00115295
-0.00223899
0.00123253
-0.00231293
0.0013019
-0.00236808
0.00136193
-0.00240765
0.00141373
-0.00243473
0.00145852
-0.00245212
0.00149751
-0.00246221
0.00153181
-0.002467
0.0015624
-0.00246808
0.00159011
-0.00246669
0.00161564
-0.00246379
0.00163952
-0.00246011
-0.0024563
0.00166219
1.23146e-05
-6.51443e-05
4.84394e-05
-0.000240161
0.000107184
-0.000449886
0.000186324
-0.00068318
0.000282437
-0.00092849
0.000391067
-0.00117436
0.000507152
-0.00141037
0.000625573
-0.00162805
0.000741694
-0.00182143
0.000851759
-0.00198718
0.000953102
-0.00212443
0.00104417
-0.00223429
0.00112442
-0.00231924
0.00119408
-0.00238259
0.00125394
-0.00242794
0.00130513
-0.00245884
0.00134892
-0.00247852
0.00138657
-0.00248977
0.00141928
-0.00249492
0.0014481
-0.00249581
0.00147389
-0.00249388
0.0014974
-0.0024902
0.0015192
-0.00248559
0.00153973
-0.00248065
-0.0024759
0.00155933
1.33677e-05
-7.8512e-05
5.19156e-05
-0.000278709
0.000113721
-0.000511692
0.000195767
-0.000765226
0.000293833
-0.00102656
0.000402781
-0.0012833
0.000517096
-0.00152468
0.00063151
-0.00174247
0.000741532
-0.00193145
0.000843791
-0.00208944
0.000936146
-0.00221679
0.00101761
-0.00231575
0.00108814
-0.00238977
0.0011484
-0.00244285
0.00119948
-0.00247902
0.00124268
-0.00250204
0.00127934
-0.00251518
0.00131072
-0.00252116
0.00133795
-0.00252215
0.00136198
-0.00251984
0.00138359
-0.00251548
0.00140338
-0.00251
0.00142185
-0.00250405
0.00143934
-0.00249814
-0.00249268
0.00145611
1.43924e-05
-9.29043e-05
5.51952e-05
-0.000319512
0.000119677
-0.000576174
0.000203977
-0.000849527
0.000303084
-0.00112566
0.000411245
-0.00139146
0.000522616
-0.00163605
0.000631927
-0.00185178
0.000734974
-0.0020345
0.000828864
-0.00218333
0.000912022
-0.00229994
0.000984008
-0.00238773
0.00104525
-0.00245102
0.00109675
-0.00249435
0.00113982
-0.00252209
0.00117584
-0.00253807
0.00120618
-0.00254552
0.00123205
-0.00254702
0.00125447
-0.00254457
0.00127428
-0.00253966
0.00129216
-0.00253336
0.00130861
-0.00252645
0.00132403
-0.00251947
0.00133871
-0.00251281
-0.00250678
0.00135281
1.53716e-05
-0.000108276
5.82168e-05
-0.000362357
0.00012493
-0.000642887
0.00021078
-0.000935377
0.000309993
-0.00122488
0.000416296
-0.00149777
0.000523658
-0.00174342
0.00062695
-0.00195507
0.000722368
-0.00212992
0.000807565
-0.00226853
0.000881538
-0.00237392
0.00094436
-0.00245056
0.000996854
-0.00250351
0.00104028
-0.00253778
0.00107609
-0.00255789
0.00110571
-0.00256769
0.00113045
-0.00257026
0.00115143
-0.002568
0.00116957
-0.00256272
0.00118562
-0.0025557
0.00120012
-0.00254786
0.0012135
-0.00253984
0.00122608
-0.00253205
0.00123808
-0.00252481
-0.00251833
0.00124963
1.62881e-05
-0.000124564
6.09221e-05
-0.000406991
0.000129372
-0.000711336
0.00021603
-0.00102203
0.000314417
-0.00132326
0.00041786
-0.00160121
0.000520279
-0.00184584
0.000616821
-0.00205161
0.000704171
-0.00221727
0.00078056
-0.00234492
0.000845536
-0.00243889
0.000899626
-0.00250465
0.000943974
-0.00254786
0.000980025
-0.00257383
0.00100929
-0.00258716