/*--------------------------------*- C++ -*----------------------------------*\
  =========                 |
  \\      /  F ield         | OpenFOAM: The Open Source CFD Toolbox
   \\    /   O peration     | Website:  https://openfoam.org
    \\  /    A nd           | Version:  6.0
     \\/     M anipulation  |
\*---------------------------------------------------------------------------*/
FoamFile
{
    version     2.0;
    format      ascii;
    class       volVectorField;
    location    "54";
    object      U;
}
// * * * * * * * * * * * * * * * * * * * * * * * * * * * * * * * * * * * * * //

dimensions      [0 1 -1 0 0 0 0];

internalField   nonuniform List<vector> 
12500
(
(-0.00024389 -0.000706405 -6.88162e-22)
(-0.00145521 -0.00307288 9.54486e-21)
(-0.00382028 -0.00602526 -1.38216e-20)
(-0.00683156 -0.00926273 6.33455e-21)
(-0.0102056 -0.0125756 3.76175e-22)
(-0.0137611 -0.0158319 -7.75331e-22)
(-0.0173524 -0.0189574 -1.14715e-20)
(-0.0208696 -0.0219201 6.28812e-21)
(-0.024235 -0.0247168 4.15568e-21)
(-0.0273968 -0.0273627 4.21023e-21)
(-0.0303241 -0.0298825 -7.11517e-21)
(-0.0330034 -0.0323051 4.13137e-21)
(-0.0354354 -0.0346585 -1.94252e-21)
(-0.0376325 -0.0369678 3.29029e-21)
(-0.0396164 -0.0392534 -8.37505e-21)
(-0.0414163 -0.0415302 1.20702e-20)
(-0.043067 -0.0438083 -2.2927e-21)
(-0.0446076 -0.0460925 -8.5185e-21)
(-0.046079 -0.0483832 4.36315e-21)
(-0.0475235 -0.0506772 -4.15653e-21)
(-0.0489872 -0.0529677 3.70969e-21)
(-0.0505161 -0.055246 4.88509e-21)
(-0.0521099 -0.0574998 4.98944e-22)
(-0.0536998 -0.0597102 -1.39615e-20)
(-0.0556092 -0.061859 7.35003e-21)
(-0.000268085 -6.18738e-05 1.26636e-20)
(-0.00152615 -0.00140972 -3.2642e-20)
(-0.00397186 -0.00359918 9.59933e-21)
(-0.00708058 -0.00628827 6.40757e-21)
(-0.010563 -0.00923303 -5.10077e-21)
(-0.0142357 -0.0122715 -2.89412e-20)
(-0.0179507 -0.0153021 8.58961e-21)
(-0.0215962 -0.0182682 -1.62017e-20)
(-0.0250927 -0.0211445 1.9348e-20)
(-0.028387 -0.0239263 -2.57855e-20)
(-0.031447 -0.0266205 1.37323e-20)
(-0.0342583 -0.0292397 4.44607e-21)
(-0.0368208 -0.031797 -1.11474e-20)
(-0.0391467 -0.0343042 -4.90524e-21)
(-0.0412576 -0.0367693 3.59346e-20)
(-0.0431832 -0.0391968 -3.17469e-20)
(-0.0449591 -0.0415872 7.59259e-21)
(-0.0466252 -0.0439375 1.3096e-20)
(-0.0482238 -0.0462422 -2.95972e-21)
(-0.0497986 -0.0484935 2.10016e-20)
(-0.0513975 -0.0506827 3.8289e-21)
(-0.0530688 -0.0528007 -1.39387e-21)
(-0.0548109 -0.0548359 -2.6433e-20)
(-0.0565506 -0.0567692 2.42699e-20)
(-0.0586347 -0.0585959 -4.62551e-20)
(-0.000336501 0.000617844 4.06652e-20)
(-0.00171184 0.000339325 1.34814e-20)
(-0.00429202 -0.00105213 -1.7682e-20)
(-0.00753662 -0.00316828 7.59375e-21)
(-0.0111519 -0.005728 7.06944e-21)
(-0.014954 -0.00853734 2.68321e-20)
(-0.0187939 -0.0114659 -3.40508e-20)
(-0.022559 -0.0144313 -5.55516e-21)
(-0.0261691 -0.0173854 -2.27432e-20)
(-0.0295701 -0.020303 -1.89516e-20)
(-0.0327292 -0.023173 2.43934e-20)
(-0.0356315 -0.0259909 -8.16179e-20)
(-0.0382765 -0.0287551 -2.57064e-21)
(-0.0406761 -0.0314633 -4.885e-20)
(-0.0428523 -0.0341113 -5.7432e-21)
(-0.0448353 -0.0366923 6.89655e-21)
(-0.0466619 -0.0391969 -3.77686e-20)
(-0.0483735 -0.0416141 -2.35968e-20)
(-0.0500145 -0.0439315 -2.78726e-20)
(-0.0516308 -0.0461368 4.35892e-20)
(-0.0532737 -0.0482186 1.58905e-20)
(-0.0549947 -0.0501676 -7.07549e-20)
(-0.0567922 -0.0519721 -3.40134e-20)
(-0.0585882 -0.0536121 -3.80143e-20)
(-0.0607572 -0.0550981 1.02256e-19)
(-0.000452003 0.00133061 -1.24374e-21)
(-0.0020176 0.00216764 -3.12135e-20)
(-0.00478511 0.00160529 -1.50109e-20)
(-0.00820117 8.29265e-05 9.32642e-21)
(-0.0119701 -0.00207815 5.76933e-20)
(-0.0159091 -0.00465011 -2.59496e-20)
(-0.0198703 -0.00747236 5.53293e-20)
(-0.0237415 -0.0104358 5.26503e-20)
(-0.0274429 -0.0134691 3.19859e-20)
(-0.0309203 -0.0165262 -4.60211e-22)
(-0.0341409 -0.0195773 6.43153e-20)
(-0.0370894 -0.0226011 1.11332e-20)
(-0.0397651 -0.0255808 4.89531e-20)
(-0.04218 -0.0284999 1.12427e-19)
(-0.0443564 -0.0313413 -1.30259e-19)
(-0.0463253 -0.0340865 1.95637e-19)
(-0.0481248 -0.0367157 4.24984e-20)
(-0.0497984 -0.0392087 -9.37435e-20)
(-0.0513929 -0.0415458 -1.32492e-20)
(-0.0529579 -0.043709 3.39254e-20)
(-0.0545487 -0.0456834 -1.70478e-20)
(-0.056222 -0.0474585 -1.02385e-20)
(-0.057977 -0.0490222 -9.94277e-21)
(-0.0597307 -0.0503521 -3.99085e-20)
(-0.0618896 -0.0514753 1.39576e-19)
(-0.000617152 0.00207285 2.12353e-20)
(-0.00244777 0.00406547 -9.85092e-20)
(-0.00545382 0.00435821 1.19418e-19)
(-0.00907339 0.00344646 -4.74556e-20)
(-0.0130119 0.00169439 5.68256e-20)
(-0.0170904 -0.000634546 4.63612e-20)
(-0.021164 -0.00334846 1.75831e-20)
(-0.0251226 -0.00631104 9.36093e-22)
(-0.028888 -0.0094271 9.87247e-20)
(-0.0324069 -0.0126298 6.83058e-20)
(-0.035647 -0.0158706 -2.72613e-20)
(-0.0385929 -0.0191116 -1.75482e-20)
(-0.0412442 -0.0223202 7.41478e-20)
(-0.0436125 -0.0254659 1.39351e-20)
(-0.0457208 -0.0285182 3.78689e-20)
(-0.0476007 -0.0314461 9.04411e-20)
(-0.0492919 -0.0342186 -7.79133e-20)
(-0.0508401 -0.0368053 6.2776e-20)
(-0.0522953 -0.0391776 -1.35477e-19)
(-0.0537113 -0.0413104 1.13731e-19)
(-0.0551489 -0.0431841 7.54117e-22)
(-0.0566711 -0.0447858 -9.06172e-20)
(-0.0582797 -0.0461013 3.63294e-20)
(-0.0598861 -0.047104 8.25748e-20)
(-0.0619335 -0.0478395 -1.21547e-19)
(-0.000833997 0.00283951 1.09954e-19)
(-0.00300526 0.00601958 -1.16731e-19)
(-0.00629857 0.00718745 -1.87044e-20)
(-0.0101494 0.00689882 2.36933e-20)
(-0.0142683 0.00556313 -5.10313e-20)
(-0.0184831 0.00348077 -7.94637e-20)
(-0.0226542 0.000875748 -6.60742e-20)
(-0.0266758 -0.00208805 -1.5912e-20)
(-0.0304724 -0.00529168 -1.13485e-19)
(-0.0339928 -0.00864758 9.05696e-20)
(-0.0372058 -0.0120888 -1.40307e-19)
(-0.0400963 -0.0155608 7.09813e-20)
(-0.0426639 -0.0190158 -2.33851e-20)
(-0.0449205 -0.0224087 5.44237e-20)
(-0.0468889 -0.0256955 -1.36803e-19)
(-0.0486016 -0.0288321 6.64331e-20)
(-0.0500995 -0.031775 5.03328e-21)
(-0.0514309 -0.0344822 2.93718e-20)
(-0.0526494 -0.0369146 1.77346e-19)
(-0.0538133 -0.0390381 3.93918e-20)
(-0.0549902 -0.040826 -3.48594e-21)
(-0.0562515 -0.0422612 1.12214e-20)
(-0.0576024 -0.0433251 7.37387e-20)
(-0.0589489 -0.0439848 2.1076e-20)
(-0.0607763 -0.044305 6.9065e-20)
(-0.00110384 0.00362406 -6.8501e-20)
(-0.00369102 0.00801348 9.72541e-20)
(-0.00731681 0.0100697 6.11599e-21)
(-0.0114215 0.0104121 -1.18668e-19)
(-0.0157255 0.00949733 2.4963e-19)
(-0.020067 0.00766359 -8.06084e-20)
(-0.0243143 0.00516736 1.17745e-19)
(-0.0283679 0.00220011 1.07628e-19)
(-0.0321569 -0.00109578 -8.89964e-20)
(-0.0356333 -0.00461251 -1.29539e-19)
(-0.0387672 -0.0082653 3.54698e-20)
(-0.0415447 -0.0119836 -3.74148e-20)
(-0.0439653 -0.0157046 -1.6528e-19)
(-0.0460409 -0.0193691 2.00918e-19)
(-0.047794 -0.0229191 -9.63249e-20)
(-0.0492575 -0.026297 -6.63492e-20)
(-0.0504734 -0.0294457 7.46089e-22)
(-0.0514921 -0.0323097 5.43501e-20)
(-0.0523709 -0.0348374 2.23166e-20)
(-0.0531735 -0.0369828 -8.73928e-20)
(-0.0539753 -0.0387097 1.00006e-19)
(-0.0548577 -0.0399938 -1.73303e-19)
(-0.0558313 -0.0408091 1.05914e-19)
(-0.0567962 -0.041112 -8.09263e-20)
(-0.0582866 -0.0409881 2.11531e-20)
(-0.00142702 0.00441854 9.99544e-20)
(-0.00450357 0.0100275 -7.68764e-20)
(-0.00850247 0.0129775 -4.88759e-20)
(-0.0128776 0.0139542 -8.63147e-20)
(-0.0173648 0.0134621 -1.5771e-19)
(-0.021816 0.0118781 -1.16468e-19)
(-0.0261109 0.00949077 7.26914e-20)
(-0.0301585 0.00651884 -1.1005e-19)
(-0.0338941 0.00312745 1.39612e-19)
(-0.037274 -0.000556218 -2.27239e-19)
(-0.0402709 -0.00443051 1.00949e-19)
(-0.042872 -0.00840967 2.13148e-19)
(-0.0450772 -0.0124168 -2.99509e-19)
(-0.0468978 -0.0163791 4.27834e-20)
(-0.0483557 -0.0202247 5.56906e-20)
(-0.0494836 -0.023882 5.37373e-20)
(-0.050324 -0.0272791 -5.76421e-20)
(-0.0509292 -0.0303457 -1.4057e-20)
(-0.0513597 -0.0330148 -4.24995e-20)
(-0.0516851 -0.0352254 -3.52819e-20)
(-0.0519894 -0.036928 -1.94094e-19)
(-0.0523658 -0.0380871 -1.31481e-20)
(-0.0528323 -0.0386652 2.16312e-21)
(-0.0532836 -0.0386025 -8.7592e-20)
(-0.0543101 -0.0380058 9.04242e-20)
(-0.00180273 0.00521366 2.95033e-21)
(-0.00543857 0.0120389 3.1458e-20)
(-0.00984538 0.0158796 3.27995e-20)
(-0.0145006 0.0174886 1.89303e-20)
(-0.0191612 0.0174187 1.60731e-19)
(-0.0236973 0.0160849 1.51044e-19)
(-0.0280029 0.0138076 -1.22694e-19)
(-0.0319981 0.0108319 -3.747e-20)
(-0.0356264 0.00734463 -3.31922e-20)
(-0.0388497 0.00349113 1.71189e-19)
(-0.0416442 -0.000611353 6.15631e-20)
(-0.0439987 -0.00486324 -8.94097e-20)
(-0.0459133 -0.00917476 -7.57915e-20)
(-0.0473987 -0.0134603 1.82529e-19)
(-0.048476 -0.0176351 -4.50269e-20)
(-0.0491765 -0.0216133 -5.4636e-20)
(-0.0495426 -0.0253076 -7.61525e-20)
(-0.0496273 -0.0286312 -5.933e-20)
(-0.0494945 -0.0314987 -7.57555e-20)
(-0.0492191 -0.0338308 -4.94715e-20)
(-0.0488945 -0.0355597 2.05541e-19)
(-0.0486277 -0.0366339 -1.01277e-19)
(-0.0484463 -0.0369977 6.81741e-20)
(-0.0482403 -0.0365682 -1.81274e-19)
(-0.0486651 -0.0354724 7.30317e-20)
(-0.0022288 0.00599893 -8.99531e-20)
(-0.00648844 0.0140223 -2.35094e-20)
(-0.0113309 0.0187414 -1.83101e-19)
(-0.0162678 0.0209753 -8.78184e-20)
(-0.0210836 0.0213245 -1.73191e-19)
(-0.0256707 0.0202412 -1.80661e-20)
(-0.0299409 0.0180767 9.28123e-20)
(-0.0338279 0.0151012 -5.66574e-20)
(-0.0372856 0.0115218 1.21903e-19)
(-0.0402826 0.00750046 -2.96318e-19)
(-0.0427998 0.00316843 -8.65681e-21)
(-0.0448284 -0.00136267 5.25203e-20)
(-0.0463689 -0.00599192 -6.66299e-20)
(-0.0474312 -0.0106227 6.06555e-20)
(-0.0480346 -0.0151581 -4.64718e-20)
(-0.0482089 -0.0194991 -9.95526e-20)
(-0.0479948 -0.0235428 1.81474e-19)
(-0.0474456 -0.0271843 1.12562e-19)
(-0.0466268 -0.0303178 -2.33757e-20)
(-0.0456184 -0.032841 7.43282e-20)
(-0.0445239 -0.0346626 -1.46584e-19)
(-0.0434657 -0.0357083 2.11129e-19)
(-0.0424833 -0.0358964 -2.88263e-19)
(-0.0414634 -0.03511 5.92305e-20)
(-0.0411375 -0.033494 -1.13024e-19)
(-0.00270159 0.0067629 4.9118e-21)
(-0.00764209 0.0159503 -8.03701e-20)
(-0.0129395 0.0215251 1.18757e-19)
(-0.0181509 0.0243706 2.43569e-19)
(-0.0230943 0.0251331 -4.09301e-21)
(-0.0276886 0.0243005 2.75969e-20)
(-0.0318668 0.0222536 -1.04351e-19)
(-0.035579 0.019286 4.87129e-20)
(-0.0387912 0.0156234 3.36821e-19)
(-0.0414809 0.0114429 -7.63826e-20)
(-0.0436345 0.00688746 -9.03756e-20)
(-0.0452463 0.00207871 3.41368e-19)
(-0.0463178 -0.00287352 1.11693e-19)
(-0.0468581 -0.00786366 5.31456e-20)
(-0.0468846 -0.0127851 5.45229e-20)
(-0.0464242 -0.0175267 1.48204e-19)
(-0.0455154 -0.0219712 -5.68697e-20)
(-0.0442097 -0.0259948 1.50806e-19)
(-0.0425736 -0.0294693 2.03887e-19)
(-0.040691 -0.0322656 -1.73657e-19)
(-0.038675 -0.0342628 2.581e-19)
(-0.0366652 -0.0353556 9.22031e-20)
(-0.034716 -0.0354259 -3.49435e-19)
(-0.0327124 -0.0343083 5.05379e-19)
(-0.0314751 -0.0321602 -4.10164e-19)
(-0.00321594 0.00749342 -2.29904e-19)
(-0.00888487 0.0177935 1.25144e-19)
(-0.014647 0.0241908 -8.40351e-20)
(-0.0201157 0.0276282 -7.97124e-20)
(-0.0251488 0.028795 -8.62544e-20)
(-0.0296956 0.0282129 -9.35103e-20)
(-0.0337136 0.0262903 2.5578e-20)
(-0.0371718 0.0233422 2.43972e-19)
(-0.0400506 0.0196116 -5.20998e-20)
(-0.0423379 0.0152882 -1.36125e-19)
(-0.0440271 0.0105249 -8.32836e-20)
(-0.0451166 0.00545088 -3.39963e-20)
(-0.0456096 0.000182151 1.01172e-19)
(-0.0455148 -0.00516965 -6.4383e-20)
(-0.0448474 -0.0104909 -2.10238e-19)
(-0.0436312 -0.0156613 -2.32144e-19)
(-0.0419009 -0.0205507 9.26287e-20)
(-0.0397054 -0.025018 -1.72241e-19)
(-0.0371099 -0.0289114 1.49874e-19)
(-0.034201 -0.0320718 -4.22762e-19)
(-0.0311009 -0.0343426 3.24793e-19)
(-0.0279672 -0.0355785 -4.29413e-19)
(-0.024872 -0.0356114 -7.96325e-21)
(-0.0217018 -0.0342091 -1.44396e-19)
(-0.0193817 -0.0315309 4.25194e-19)
(-0.00376512 0.00817806 3.53011e-19)
(-0.0101986 0.019522 5.18227e-20)
(-0.0164245 0.0266969 -3.40879e-20)
(-0.0221227 0.0306992 -1.43011e-20)
(-0.0271964 0.0322575 2.67121e-19)
(-0.0316292 0.0319247 8.70173e-20)
(-0.0354058 0.0301344 7.90165e-20)
(-0.0385167 0.0272216 -6.34132e-20)
(-0.0409588 0.0234442 2.44799e-19)
(-0.042732 0.0190029 -1.2023e-19)
(-0.0438384 0.0140581 7.75476e-20)
(-0.0442818 0.00874423 1.97923e-19)
(-0.0440681 0.00318061 -1.12094e-19)
(-0.0432061 -0.0025184 1.21757e-19)
(-0.0417095 -0.00823586 1.15038e-19)
(-0.0395986 -0.013846 3.92875e-20)
(-0.0369041 -0.0192096 -9.68366e-20)
(-0.0336705 -0.0241708 2.68161e-19)
(-0.0299603 -0.0285554 -2.48631e-20)
(-0.0258607 -0.032173 -2.85859e-20)
(-0.0215015 -0.0348261 3.21037e-19)
(-0.017059 -0.0363198 -2.28191e-19)
(-0.0126258 -0.0364206 3.84425e-19)
(-0.00809284 -0.0348052 -3.18584e-19)
(-0.00450894 -0.0316181 4.10044e-19)
(-0.00434099 0.00880454 -1.70857e-19)
(-0.0115619 0.0211058 3.80024e-20)
(-0.0182387 0.0290015 -3.95865e-20)
(-0.0241272 0.0335336 -1.86745e-19)
(-0.0291808 0.0354655 1.08266e-20)
(-0.0334201 0.0353786 1.06583e-19)
(-0.0368598 0.0337293 -4.33166e-19)
(-0.0395145 0.0308704 3.23605e-19)
(-0.041399 0.0270731 -3.15061e-19)
(-0.0425272 0.0225473 -1.98715e-19)
(-0.0429115 0.0174591 1.78557e-19)
(-0.0425624 0.0119455 -3.86662e-19)
(-0.0414899 0.00612659 3.25913e-19)
(-0.0397047 0.000115848 -1.03504e-19)
(-0.0372195 -0.00597062 -2.96037e-19)
(-0.0340521 -0.0120065 7.30742e-20)
(-0.0302288 -0.0178485 -6.85031e-20)
(-0.0257891 -0.0233311 2.58224e-20)
(-0.0207915 -0.0282618 -9.24674e-20)
(-0.0153216 -0.03242 -3.0731e-19)
(-0.00951478 -0.0355651 6.87924e-20)
(-0.00356559 -0.0374444 1.11785e-22)
(0.00241027 -0.0377418 -3.16521e-19)
(0.00851393 -0.036013 2.22417e-19)
(0.0135511 -0.0323623 -1.92076e-19)
(-0.00493423 0.00936128 6.92536e-20)
(-0.0129504 0.0225162 1.27654e-19)
(-0.020053 0.0310632 1.78462e-19)
(-0.0260805 0.0360809 9.19177e-20)
(-0.0310406 0.0383625 -9.00586e-20)
(-0.0349931 0.0385146 2.14967e-19)
(-0.0379854 0.0370138 1.5922e-19)
(-0.0400572 0.034229 -5.77181e-20)
(-0.0412437 0.0304431 2.0721e-19)
(-0.0415741 0.0258737 -2.13148e-19)
(-0.0410724 0.0206911 -6.24626e-20)
(-0.0397579 0.0150331 6.34607e-20)
(-0.0376465 0.00901799 1.26262e-19)
(-0.0347522 0.00275524 1.41735e-21)
(-0.0310887 -0.00364414 8.00727e-20)
(-0.0266728 -0.0100586 1.47503e-19)
(-0.0215275 -0.0163476 -2.51173e-19)
(-0.015688 -0.022343 3.1233e-19)
(-0.00920743 -0.027841 1.05626e-19)
(-0.00216835 -0.0325971 3.72271e-20)
(0.00529061 -0.0363289 -3.78861e-19)
(0.0129578 -0.0387214 5.37487e-20)
(0.0206929 -0.0393603 8.3045e-20)
(0.0285863 -0.0376454 -1.9808e-20)
(0.0352737 -0.0336043 9.45568e-20)
(-0.00553461 0.00983795 5.58464e-21)
(-0.014338 0.0237265 -3.28959e-19)
(-0.0218276 0.0328428 -8.02153e-21)
(-0.0279303 0.038292 -8.29297e-20)
(-0.0327101 0.0408917 -5.45366e-19)
(-0.0362683 0.0412704 4.71139e-19)
(-0.0386858 0.0399228 -3.35372e-19)
(-0.0400296 0.0372318 -1.67077e-20)
(-0.040356 0.0334908 -1.58739e-19)
(-0.0397114 0.0289241 2.74738e-19)
(-0.0381326 0.0237054 -2.95922e-19)
(-0.0356496 0.0179723 -1.38711e-19)
(-0.0322859 0.0118393 3.1508e-21)
(-0.0280612 0.00540967 -3.00742e-19)
(-0.0229931 -0.00121431 4.1042e-19)
(-0.0170996 -0.00792119 -4.75707e-19)
(-0.0104032 -0.0145799 8.60859e-22)
(-0.00293623 -0.021029 7.30021e-20)
(0.00525223 -0.0270642 -1.82425e-19)
(0.0140837 -0.0324269 1.76736e-19)
(0.0234185 -0.0368019 -2.50881e-19)
(0.0330295 -0.039814 -1.6554e-19)
(0.0427514 -0.0409396 3.08152e-19)
(0.0526637 -0.0393857 -3.35734e-19)
(0.0612064 -0.035055 -6.63485e-21)
(-0.00613149 0.010226 -2.78848e-19)
(-0.0156968 0.0247136 3.19732e-19)
(-0.0235208 0.0343045 -9.85612e-20)
(-0.0296214 0.0401201 1.89928e-19)
(-0.0341203 0.0429974 2.04823e-19)
(-0.0371609 0.0435834 -1.80455e-19)
(-0.038859 0.0423885 -1.20048e-19)
(-0.0393095 0.0398081 -1.43635e-19)
(-0.0385911 0.0361451 1.31457e-19)
(-0.0367677 0.0316302 -8.62917e-21)
(-0.0338912 0.02644 1.92036e-19)
(-0.0300029 0.0207116 1.89463e-19)
(-0.0251367 0.0145558 -2.26608e-19)
(-0.0193206 0.00806825 4.45435e-19)
(-0.012579 0.00134026 -2.95494e-19)
(-0.00493507 -0.00553073 -5.10591e-20)
(0.00358529 -0.0124298 5.7642e-19)
(0.0129486 -0.0192114 -2.66831e-19)
(0.0231071 -0.0256833 1.70038e-19)
(0.0339849 -0.0315888 3.31973e-19)
(0.0454422 -0.0365954 -2.15355e-19)
(0.0572388 -0.0402805 2.27099e-20)
(0.0691847 -0.0420109 -1.46497e-20)
(0.0813531 -0.0407671 -8.78742e-20)
(0.0919666 -0.0362679 1.64573e-19)
(-0.0067142 0.0105191 6.38325e-20)
(-0.0169987 0.0254587 -2.03039e-19)
(-0.0250898 0.0354173 1.11029e-19)
(-0.0310967 0.0415232 -1.31011e-21)
(-0.0351989 0.0446276 8.35268e-20)
(-0.0375823 0.0453929 -1.43864e-19)
(-0.0383977 0.0443431 8.22992e-20)
(-0.0377684 0.0418848 2.2426e-19)
(-0.0357958 0.0383297 -6.8551e-21)
(-0.0325626 0.0339147 -1.14946e-19)
(-0.0281358 0.0288199 1.1576e-19)
(-0.0225704 0.0231827 -2.538e-21)
(-0.0159121 0.017111 -3.66831e-19)
(-0.00820018 0.0106934 1.36083e-19)
(0.00053049 0.00401024 3.01639e-20)
(0.0102466 -0.00285688 -5.32024e-20)
(0.0209135 -0.00981333 -9.45526e-20)
(0.0324906 -0.0167376 3.62547e-19)
(0.0449253 -0.0234624 8.85142e-20)
(0.0581403 -0.0297513 -1.893e-19)
(0.0719943 -0.0352778 -2.26174e-20)
(0.0862348 -0.0395969 2.6005e-19)
(0.100649 -0.041983 -1.21496e-19)
(0.115315 -0.0411683 5.18577e-20)
(0.128229 -0.036623 3.46381e-20)
(-0.00727254 0.0107136 -1.27923e-19)
(-0.0182155 0.0259484 1.26976e-19)
(-0.0264909 0.0361567 -7.16011e-20)
(-0.032297 0.0424654 -2.2989e-19)
(-0.0358705 0.0457357 -2.11647e-19)
(-0.0374389 0.0466429 -9.39626e-20)
(-0.0371882 0.0457221 -7.7708e-20)
(-0.0352699 0.0433902 -2.30123e-19)
(-0.0318084 0.0399669 -9.29904e-20)
(-0.0269052 0.035696 8.47278e-20)
(-0.0206433 0.0307617 -1.21174e-19)
(-0.0130923 0.0253036 -1.28189e-19)
(-0.0043118 0.0194285 -1.20409e-19)
(0.00564507 0.0132206 2.19e-19)
(0.0167287 0.00675135 -4.59936e-19)
(0.0288905 8.78144e-05 2.62873e-19)
(0.0420799 -0.00669628 -4.49776e-19)
(0.0562411 -0.0135076 -6.93548e-20)
(0.0713078 -0.0202137 -2.46973e-19)
(0.0871928 -0.0266161 -5.76348e-20)
(0.103748 -0.0324223 -7.02826e-20)
(0.120707 -0.0372018 -2.34306e-19)
(0.137835 -0.0401762 -2.53492e-20)
(0.155237 -0.0398314 1.42753e-19)
(0.170698 -0.0353289 -3.69036e-19)
(-0.00779718 0.0108085 1.09854e-19)
(-0.0193198 0.026175 1.43621e-19)
(-0.0276797 0.0365055 5.02701e-19)
(-0.0331607 0.0429193 -8.83386e-20)
(-0.0360549 0.0462842 2.10085e-19)
(-0.0366307 0.0472859 5.00835e-19)
(-0.0351084 0.0464692 -1.36505e-19)
(-0.0316677 0.0442597 1.84923e-19)
(-0.0264554 0.0409851 1.07987e-19)
(-0.019592 0.036896 1.95846e-19)
(-0.0111768 0.0321823 -3.9376e-20)
(-0.00129498 0.0269878 2.64608e-20)
(0.0099784 0.0214212 -6.90677e-20)
(0.0225734 0.0155661 3.7244e-19)
(0.0364217 0.00948935 4.7609e-20)
(0.0514536 0.00324818 3.46027e-19)
(0.0675951 -0.00310083 -8.85525e-20)
(0.0847648 -0.00949101 3.16567e-19)
(0.102871 -0.0158282 4.43597e-20)
(0.121803 -0.0219643 1.60662e-19)
(0.141396 -0.0276656 -6.92046e-20)
(0.161362 -0.032561 -1.19463e-20)
(0.181442 -0.0358817 3.80366e-19)
(0.201795 -0.0359057 2.32773e-19)
(0.220066 -0.0314446 -9.68602e-20)
(-0.00827984 0.0108056 -2.66308e-19)
(-0.020285 0.0261367 -2.69756e-19)
(-0.028611 0.0364545 -2.81901e-19)
(-0.0336228 0.042867 1.03292e-19)
(-0.0356659 0.0462462 -2.0754e-19)
(-0.0350486 0.0472867 -3.09398e-20)
(-0.0320245 0.0465411 -8.15794e-20)
(-0.0268009 0.0444426 -3.38813e-19)
(-0.0195469 0.0413264 -5.30718e-20)
(-0.0104013 0.0374502 8.70627e-20)
(0.000519422 0.0330108 -2.73508e-19)
(0.0131141 0.0281581 3.79169e-19)
(0.0272902 0.0230064 -5.1533e-19)
(0.0429584 0.0176431 1.242e-19)
(0.0600277 0.0121361 -3.15833e-19)
(0.0784014 0.00654003 -2.56427e-19)
(0.0979739 0.000902318 -1.4608e-20)
(0.118627 -0.00472917 -3.87299e-20)
(0.14023 -0.0102932 3.06002e-20)
(0.162632 -0.015693 -1.46081e-19)
(0.185632 -0.0207689 -1.00933e-19)
(0.208908 -0.0252484 1.23786e-19)
(0.232158 -0.0284523 -3.41905e-19)
(0.255635 -0.0285335 1.10902e-19)
(0.276978 -0.0239504 7.90012e-20)
(-0.00871335 0.0107087 -4.72507e-20)
(-0.0210847 0.0258372 -7.83735e-20)
(-0.0292375 0.0360031 3.04424e-19)
(-0.0336132 0.0423019 1.13229e-19)
(-0.0346087 0.0456091 1.49934e-19)
(-0.032571 0.0466265 -2.00283e-19)
(-0.0277866 0.0459135 2.90014e-22)
(-0.0204894 0.0439094 -1.62389e-19)
(-0.0108704 0.0409565 3.00142e-19)
(0.000912874 0.0373194 9.81504e-20)
(0.0147266 0.0332026 1.1037e-19)
(0.0304522 0.028764 -4.38206e-19)
(0.0479779 0.0241261 5.41043e-19)
(0.067192 0.0193844 -1.6248e-19)
(0.0879768 0.0146142 -1.164e-19)
(0.110203 0.00987564 3.48687e-19)
(0.133726 0.00521765 1.55633e-19)
(0.15838 0.000682451 -3.93734e-19)
(0.18398 -0.00368716 -1.64131e-19)
(0.210316 -0.0078332 4.95295e-19)
(0.237129 -0.0116656 -3.77671e-19)
(0.264036 -0.0150321 2.27006e-19)
(0.290668 -0.0174244 1.26166e-19)
(0.317375 -0.016996 -1.62227e-19)
(0.342038 -0.0118802 -1.55061e-19)
(-0.00909135 0.0105235 -1.73872e-19)
(-0.0216926 0.0252851 2.701e-19)
(-0.0295086 0.0351588 1.14988e-19)
(-0.033054 0.0412292 -1.66016e-19)
(-0.0327761 0.0443755 -2.65275e-20)
(-0.0290597 0.0453061 -1.74133e-19)
(-0.0222235 0.0445857 -6.94407e-20)
(-0.0125277 0.042659 7.8043e-20)
(-0.000185158 0.0398738 -1.93848e-20)
(0.0146272 0.0365015 1.4761e-19)
(0.0317571 0.0327543 -1.28295e-19)
(0.0510663 0.0287989 3.55092e-19)
(0.0724211 0.0247676 -4.40628e-19)
(0.095684 0.0207672 2.74809e-19)
(0.120706 0.0168852 3.41787e-19)
(0.14732 0.0131946 -4.94097e-19)
(0.175335 0.00975737 -1.50274e-19)
(0.20453 0.00662625 2.53354e-19)
(0.234652 0.00384803 -1.56135e-19)
(0.26541 0.0014702 1.50566e-19)
(0.296459 -0.00045641 -3.64461e-19)
(0.32732 -0.00188483 6.09111e-20)
(0.3575 -0.00252479 2.36397e-19)
(0.38743 -0.000646236 -3.79207e-19)
(0.415571 0.00591102 1.00928e-19)
(-0.00940775 0.0102566 -1.6076e-19)
(-0.0220802 0.0244928 5.03769e-19)
(-0.0293681 0.0339367 9.66331e-20)
(-0.0318577 0.0396662 -2.61165e-19)
(-0.0300462 0.0425652 1.87101e-19)
(-0.0243565 0.0433487 9.5131e-20)
(-0.0151392 0.0425855 1.51981e-19)
(-0.00268117 0.0407242 -9.75545e-21)
(0.012782 0.0381171 -1.57195e-20)
(0.0310523 0.0350413 -3.31836e-20)
(0.0519559 0.0317155 -1.45228e-19)
(0.0753314 0.0283147 -5.09232e-21)
(0.101019 0.0249809 3.39516e-19)
(0.128849 0.0218325 -5.57382e-19)
(0.158638 0.018971 3.96575e-19)
(0.190176 0.0164868 8.03471e-20)
(0.223223 0.0144633 1.42052e-19)
(0.257499 0.01298 -7.29903e-20)
(0.292676 0.0121158 6.48062e-19)
(0.328373 0.0119538 -4.00801e-19)
(0.364121 0.0125745 3.20001e-19)
(0.39928 0.0140134 7.49827e-20)
(0.433108 0.0164529 -2.33459e-19)
(0.465928 0.0216048 1.97434e-19)
(0.49707 0.0317959 3.03128e-19)
(-0.00965596 0.00991488 -4.66733e-20)
(-0.0222162 0.0234747 -1.77589e-19)
(-0.0287521 0.0323585 -3.03312e-19)
(-0.0299237 0.0376419 -1.72779e-19)
(-0.0262791 0.0402155 -2.41261e-20)
(-0.0182801 0.040801 -6.81925e-20)
(-0.00631007 0.0399707 -3.16645e-19)
(0.00931596 0.0381755 5.24477e-20)
(0.028337 0.0357706 -3.56392e-19)
(0.0505299 0.0330365 -2.77472e-20)
(0.0756941 0.0301967 -3.42227e-19)
(0.103638 0.0274314 -1.21991e-19)
(0.134168 0.0248894 7.00801e-20)
(0.167076 0.0226969 -3.33395e-19)
(0.202135 0.0209658 3.02254e-21)
(0.239091 0.0198003 -2.87247e-19)
(0.277657 0.0193037 1.10922e-19)
(0.317507 0.0195863 -4.0047e-19)
(0.35827 0.0207751 -6.84267e-20)
(0.39952 0.0230287 -8.92291e-21)
(0.440729 0.0265415 -6.71736e-20)
(0.48116 0.0315236 -6.85821e-20)
(0.519818 0.0384523 -3.41244e-20)
(0.556278 0.0494659 -1.36227e-19)
(0.589078 0.0662605 -2.88615e-19)
(-0.00982794 0.00950436 8.53947e-20)
(-0.0220636 0.0222466 2.2503e-19)
(-0.0275869 0.0304508 2.70293e-19)
(-0.0271366 0.0351955 -2.15887e-19)
(-0.0213151 0.0373802 4.00822e-19)
(-0.010625 0.0377337 -2.17558e-19)
(0.0045149 0.0368305 1.18213e-19)
(0.023758 0.0351224 1.84578e-19)
(0.0468126 0.0329652 1.68037e-19)
(0.0734231 0.0306402 8.1814e-20)
(0.103352 0.0283715 1.32174e-19)
(0.136368 0.02634 7.6923e-20)
(0.172227 0.0246945 5.20147e-19)
(0.210671 0.0235606 -3.77901e-19)
(0.251417 0.0230489 4.31675e-19)
(0.294156 0.0232619 -1.79046e-19)
(0.338554 0.0243028 3.86702e-19)
(0.384254 0.0262852 -1.8288e-20)
(0.430884 0.0293486 -7.99544e-20)
(0.478073 0.0336819 -1.38529e-20)
(0.525455 0.039554 3.00487e-19)
(0.572696 0.0473953 -2.90679e-19)
(0.619709 0.0582379 2.05328e-19)
(0.666825 0.0742467 2.23044e-19)
(0.709194 0.0918768 4.42499e-20)
(-0.00991306 0.00902986 5.90728e-20)
(-0.0215786 0.0208239 -3.21569e-19)
(-0.0257871 0.0282441 -1.16741e-19)
(-0.0233653 0.0323758 1.06767e-19)
(-0.0149749 0.0341289 -3.28369e-19)
(-0.00116354 0.0342395 -6.47451e-20)
(0.0176098 0.0332835 4.4971e-20)
(0.0409603 0.0317113 1.77934e-19)
(0.0685566 0.0298766 -4.50132e-19)
(0.100098 0.0280575 3.43189e-20)
(0.135296 0.0264735 -1.31727e-19)
(0.173857 0.0252991 -4.00703e-19)
(0.215472 0.0246739 2.72929e-19)
(0.259806 0.0247108 1.18657e-20)
(0.306499 0.0255028 -8.37414e-21)
(0.355163 0.0271292 2.75121e-19)
(0.405393 0.0296617 -4.85348e-19)
(0.456776 0.0331708 3.83762e-19)
(0.508906 0.0377332 -7.1349e-20)
(0.561414 0.0434395 2.20811e-19)
(0.61399 0.0503988 -3.64156e-19)
(0.666429 0.0587585 2.06516e-19)
(0.718815 0.0689055 -3.66351e-19)
(0.771655 0.0816156 3.72377e-19)
(0.819744 0.0930007 -1.18404e-19)
(-0.00989704 0.00849448 3.96188e-19)
(-0.0207084 0.0192212 -6.44007e-20)
(-0.0232541 0.0257717 4.75271e-19)
(-0.0184622 0.0292394 2.20031e-19)
(-0.00706095 0.030545 1.77917e-20)
(0.0103501 0.0304318 9.60321e-20)
(0.0332639 0.0294752 2.32046e-20)
(0.0612466 0.0281219 3.91712e-19)
(0.0939126 0.0267194 1.26284e-19)
(0.130898 0.0255374 -1.69979e-20)
(0.171841 0.0247844 3.39105e-20)
(0.216361 0.0246196 1.30619e-19)
(0.264054 0.0251627 1.09066e-19)
(0.314481 0.0265008 2.3339e-19)
(0.367172 0.0286942 -2.6597e-19)
(0.421633 0.0317814 8.00577e-20)
(0.477357 0.0357829 2.47529e-20)
(0.533837 0.0407048 1.18231e-19)
(0.590592 0.0465409 3.18023e-19)
(0.647184 0.0532726 -2.08624e-19)
(0.703248 0.0608614 1.6623e-20)
(0.758505 0.0692405 -2.88115e-19)
(0.812846 0.0784075 2.69707e-19)
(0.866434 0.0887138 -2.56361e-19)
(0.914763 0.0979057 2.74944e-20)
(-0.00976133 0.00789974 -3.30295e-19)
(-0.0193904 0.0174522 2.524e-19)
(-0.0198766 0.0230694 -4.10542e-19)
(-0.0122651 0.0258499 3.53678e-20)
(0.00263839 0.0267239 2.88886e-19)
(0.0241726 0.0264408 -4.81198e-19)
(0.0517698 0.0255731 3.81944e-19)
(0.0849312 0.0245598 -6.06102e-19)
(0.123196 0.0237371 1.20739e-19)
(0.166112 0.0233597 2.59e-20)
(0.213214 0.0236161 2.03964e-19)
(0.264005 0.0246401 -6.77531e-19)
(0.317949 0.0265193 1.17062e-19)
(0.374473 0.0293021 1.2387e-19)
(0.432969 0.0330025 -7.41063e-20)
(0.492808 0.0376053 -4.58804e-19)
(0.553358 0.0430693 2.16323e-19)
(0.614003 0.0493307 4.01963e-19)
(0.674165 0.056304 -4.22026e-19)
(0.733327 0.0638815 3.04806e-19)
(0.791047 0.0719267 -3.91188e-19)
(0.846965 0.0802635 2.83286e-19)
(0.900828 0.0887306 -7.64489e-20)
(0.952585 0.0975593 4.36441e-19)
(0.998812 0.105856 -4.91808e-19)
(-0.00948259 0.00724584 4.71348e-20)
(-0.0175521 0.0155302 3.7233e-20)
(-0.0155306 0.0201752 9.08996e-20)
(-0.00460009 0.0222767 3.24981e-19)
(0.0143429 0.0227711 -1.02663e-20)
(0.040561 0.0224109 7.25209e-20)
(0.0734081 0.0217618 3.23493e-19)
(0.112298 0.0212494 1.30617e-19)
(0.156665 0.0211916 -4.31253e-20)
(0.205939 0.0218191 3.66602e-19)
(0.259513 0.0232893 -4.17602e-19)
(0.316738 0.0256984 6.40682e-19)
(0.376915 0.0290887 -2.54212e-19)
(0.439303 0.0334565 4.60689e-19)
(0.503133 0.038758 -1.55598e-19)
(0.567629 0.0449151 5.66238e-20)
(0.63203 0.051821 6.84797e-20)
(0.695616 0.0593448 -1.30992e-19)
(0.757731 0.0673352 1.10017e-19)
(0.817801 0.0756223 7.05438e-20)
(0.875351 0.0840164 9.62172e-20)
(0.929999 0.0923039 2.00949e-19)
(0.981456 0.100278 -1.86014e-20)
(1.02962 0.108108 -9.13678e-20)
(1.07222 0.115871 2.65852e-19)
(-0.0090326 0.00653238 -2.75596e-19)
(-0.0151113 0.0134688 2.91098e-20)
(-0.0100823 0.0171301 -5.23406e-19)
(0.00471392 0.0185957 -1.24909e-19)
(0.0282727 0.0188015 -2.34131e-19)
(0.0597612 0.0184981 -5.01143e-20)
(0.0984304 0.018238 -2.50833e-19)
(0.143575 0.0184261 -1.50103e-19)
(0.194494 0.0193518 1.98644e-19)
(0.250453 0.0212097 -3.31657e-19)
(0.310669 0.024113 -9.21588e-20)
(0.374302 0.0281054 3.6883e-21)
(0.440458 0.0331699 -6.22428e-19)
(0.508208 0.0392378 2.64397e-19)
(0.576615 0.0461976 -3.85257e-19)
(0.644759 0.0539035 -1.18309e-20)
(0.71177 0.0621839 7.51701e-20)
(0.776856 0.0708493 -1.22607e-19)
(0.839328 0.0796996 -1.07115e-19)
(0.898614 0.0885289 5.24215e-20)
(0.95427 0.0971296 5.80252e-20)
(1.00597 0.105292 -3.76849e-19)
(1.05351 0.112823 2.14373e-19)
(1.09684 0.119852 1.0534e-19)
(1.13466 0.127066 2.62306e-20)
(-0.00837857 0.00575923 2.81593e-19)
(-0.0119777 0.0112843 -3.00135e-19)
(-0.0033908 0.0139803 4.21176e-19)
(0.0158597 0.01489 6.58042e-20)
(0.0446394 0.0149385 -2.01105e-20)
(0.0819944 0.0148673 -1.41482e-19)
(0.127041 0.0152067 2.12925e-20)
(0.178917 0.016329 2.15584e-19)
(0.236741 0.0184826 -2.97495e-19)
(0.299576 0.0218105 3.12632e-19)
(0.366419 0.0263656 -3.30998e-20)
(0.436205 0.0321227 1.47904e-20)
(0.507826 0.0389909 4.05919e-19)
(0.580161 0.0468254 5.43194e-19)
(0.652112 0.0554403 -2.12657e-19)
(0.722645 0.0646214 3.75636e-19)
(0.790825 0.0741388 1.8932e-19)
(0.855846 0.0837577 -1.16331e-19)
(0.917051 0.0932486 3.64806e-19)
(0.973945 0.102394 -1.54395e-20)
(1.02619 0.110996 -3.47331e-19)
(1.0736 0.118876 3.63482e-19)
(1.1161 0.125879 5.05968e-20)
(1.1538 0.132124 -2.2151e-19)
(1.18615 0.138624 6.95484e-20)
(-0.00748381 0.00492766 -3.91248e-19)
(-0.00805474 0.00899736 4.09015e-19)
(0.00468803 0.0107783 -2.59398e-19)
(0.0290152 0.0112509 -8.07431e-20)
(0.0636363 0.011315 -1.81372e-19)
(0.107444 0.0116919 3.20897e-19)
(0.159379 0.0128766 -1.86244e-19)
(0.21838 0.0151945 -8.54222e-20)
(0.283334 0.0188351 -2.44441e-19)
(0.353058 0.0238722 6.34818e-21)
(0.426293 0.030279 -9.57399e-20)
(0.501727 0.0379452 4.64272e-20)
(0.578032 0.0466921 -4.89491e-19)
(0.653909 0.0562908 1.39507e-19)
(0.728138 0.0664796 -1.6781e-19)
(0.799621 0.0769816 -1.3448e-19)
(0.867426 0.0875205 4.11699e-20)
(0.930806 0.0978345 -1.95141e-19)
(0.989215 0.107687 -8.25924e-20)
(1.04231 0.116874 2.39437e-19)
(1.08992 0.125227 9.98752e-20)
(1.13206 0.132617 -4.25377e-19)
(1.16885 0.138946 3.10514e-19)
(1.20056 0.144345 -5.85789e-20)
(1.2272 0.149935 -1.19167e-19)
(-0.00630875 0.00404144 -1.42194e-19)
(-0.00324265 0.00663503 -7.6046e-20)
(0.0142966 0.00758619 -1.50572e-20)
(0.0443463 0.00778033 1.11695e-19)
(0.0854283 0.00807356 1.21335e-19)
(0.136242 0.00915164 1.05545e-19)
(0.195506 0.0114575 1.31524e-19)