/*--------------------------------*- C++ -*----------------------------------*\
  =========                 |
  \\      /  F ield         | OpenFOAM: The Open Source CFD Toolbox
   \\    /   O peration     | Website:  https://openfoam.org
    \\  /    A nd           | Version:  6.0
     \\/     M anipulation  |
\*---------------------------------------------------------------------------*/
FoamFile
{
    version     2.0;
    format      ascii;
    class       volScalarField;
    location    "22.7";
    object      p;
}
// * * * * * * * * * * * * * * * * * * * * * * * * * * * * * * * * * * * * * //

dimensions      [0 2 -2 0 0 0 0];

internalField   nonuniform List<scalar> 
8000
(
-0.264633
-0.26566
-0.266329
-0.266812
-0.267215
-0.267553
-0.267843
-0.268096
-0.268323
-0.26853
-0.268722
-0.268904
-0.26908
-0.269254
-0.269432
-0.269621
-0.269824
-0.270008
-0.270157
-0.270639
-0.264747
-0.26577
-0.266435
-0.266914
-0.26731
-0.267643
-0.267926
-0.268172
-0.268392
-0.268591
-0.268775
-0.268948
-0.269116
-0.269281
-0.26945
-0.26963
-0.269825
-0.27
-0.27014
-0.270616
-0.264985
-0.265999
-0.266655
-0.267124
-0.26751
-0.26783
-0.2681
-0.268332
-0.268537
-0.268721
-0.268889
-0.269046
-0.269196
-0.269344
-0.269495
-0.269657
-0.269835
-0.269995
-0.270117
-0.270583
-0.265347
-0.266346
-0.266989
-0.267442
-0.267811
-0.268113
-0.268363
-0.268574
-0.268757
-0.268917
-0.269061
-0.269192
-0.269315
-0.269436
-0.26956
-0.269696
-0.269849
-0.269984
-0.270081
-0.270531
-0.26583
-0.266811
-0.267436
-0.267869
-0.268215
-0.268491
-0.268714
-0.268896
-0.269048
-0.269176
-0.269285
-0.269381
-0.269468
-0.269551
-0.269637
-0.269736
-0.269853
-0.269955
-0.270017
-0.270447
-0.266434
-0.267393
-0.267995
-0.268403
-0.268719
-0.268963
-0.26915
-0.269295
-0.269408
-0.269494
-0.269559
-0.269609
-0.269648
-0.269681
-0.269717
-0.269766
-0.269836
-0.269893
-0.26991
-0.270314
-0.26716
-0.268093
-0.268667
-0.269043
-0.269323
-0.269527
-0.269672
-0.269771
-0.269834
-0.269868
-0.269879
-0.26987
-0.269848
-0.269818
-0.269789
-0.269774
-0.269782
-0.26978
-0.26974
-0.270112
-0.268007
-0.26891
-0.269453
-0.269791
-0.270028
-0.270184
-0.270277
-0.270321
-0.270326
-0.270298
-0.270242
-0.270163
-0.270065
-0.269957
-0.269847
-0.26975
-0.26968
-0.269602
-0.269489
-0.269822
-0.268979
-0.269848
-0.270352
-0.270646
-0.270833
-0.270934
-0.270967
-0.270948
-0.270885
-0.270785
-0.270651
-0.270488
-0.270301
-0.270097
-0.269887
-0.269689
-0.269518
-0.269344
-0.269137
-0.269422
-0.270079
-0.270909
-0.271368
-0.271611
-0.271739
-0.271777
-0.271743
-0.271653
-0.271514
-0.271333
-0.271111
-0.270853
-0.270561
-0.270245
-0.269914
-0.26959
-0.269293
-0.268993
-0.268667
-0.268889
-0.271312
-0.272095
-0.272503
-0.272686
-0.272749
-0.272716
-0.272607
-0.272439
-0.272218
-0.271948
-0.27163
-0.271265
-0.270857
-0.27041
-0.269937
-0.269461
-0.269005
-0.268545
-0.268061
-0.268198
-0.272686
-0.273414
-0.273761
-0.273876
-0.273863
-0.273751
-0.273562
-0.273309
-0.273
-0.272636
-0.272217
-0.271739
-0.271203
-0.270612
-0.269976
-0.269318
-0.268667
-0.267999
-0.267303
-0.26732
-0.274207
-0.274869
-0.275145
-0.275182
-0.275084
-0.274885
-0.274607
-0.274265
-0.273865
-0.273405
-0.272882
-0.272288
-0.271619
-0.270872
-0.270054
-0.269186
-0.268298
-0.267364
-0.266382
-0.26622
-0.275887
-0.276469
-0.276661
-0.276607
-0.276414
-0.276118
-0.275744
-0.275307
-0.274812
-0.274255
-0.273628
-0.272919
-0.272116
-0.271209
-0.270195
-0.269092
-0.267924
-0.266656
-0.265286
-0.264853
-0.277734
-0.278222
-0.278315
-0.278156
-0.277853
-0.277447
-0.276967
-0.276429
-0.275835
-0.275181
-0.274452
-0.273632
-0.272699
-0.271632
-0.270418
-0.269059
-0.267571
-0.265897
-0.264011
-0.263167
-0.279761
-0.280138
-0.280115
-0.279833
-0.279403
-0.278873
-0.278273
-0.277623
-0.276924
-0.276169
-0.275339
-0.274411
-0.273355
-0.272137
-0.270725
-0.269103
-0.267266
-0.26512
-0.262575
-0.261122
-0.281984
-0.28223
-0.28207
-0.281645
-0.281067
-0.280392
-0.279656
-0.278878
-0.278063
-0.277199
-0.276266
-0.275233
-0.274061
-0.272704
-0.271109
-0.269234
-0.267048
-0.264403
-0.261083
-0.258765
-0.284421
-0.284515
-0.284195
-0.283602
-0.282852
-0.282008
-0.281113
-0.280189
-0.279239
-0.278254
-0.27721
-0.276072
-0.274793
-0.273313
-0.271559
-0.269457
-0.26694
-0.263795
-0.259584
-0.255997
-0.287098
-0.287015
-0.286509
-0.285719
-0.284768
-0.283729
-0.282649
-0.281554
-0.280451
-0.27933
-0.278167
-0.276928
-0.275561
-0.274001
-0.272156
-0.269913
-0.267134
-0.263457
-0.258029
-0.252387
-0.290046
-0.289757
-0.289035
-0.288019
-0.286837
-0.285572
-0.284279
-0.282989
-0.281712
-0.280442
-0.279162
-0.277843
-0.276451
-0.274941
-0.273253
-0.271309
-0.26898
-0.265798
-0.260529
-0.254252
-0.293303
-0.292776
-0.291805
-0.290531
-0.289086
-0.287566
-0.286035
-0.284527
-0.283058
-0.28163
-0.280235
-0.278866
-0.277521
-0.276217
-0.275007
-0.274024
-0.273521
-0.273912
-0.276716
-0.288848
-0.296918
-0.296115
-0.294859
-0.293293
-0.291555
-0.289753
-0.287959
-0.286215
-0.28454
-0.282946
-0.281437
-0.280026
-0.27874
-0.277642
-0.276851
-0.276583
-0.277197
-0.279229
-0.283838
-0.295641
-0.300946
-0.299819
-0.298241
-0.296351
-0.294292
-0.292185
-0.29011
-0.288115
-0.286227
-0.284463
-0.282841
-0.281386
-0.28015
-0.279219
-0.278736
-0.278922
-0.280096
-0.282673
-0.287233
-0.296289
-0.305443
-0.303942
-0.302001
-0.299756
-0.29735
-0.294919
-0.29255
-0.290296
-0.288189
-0.286252
-0.284509
-0.282996
-0.28177
-0.280923
-0.280586
-0.280937
-0.282204
-0.28463
-0.288466
-0.294816
-0.310473
-0.308537
-0.306192
-0.303563
-0.300789
-0.298018
-0.295345
-0.292825
-0.290492
-0.28837
-0.286485
-0.284871
-0.283582
-0.282695
-0.282309
-0.282544
-0.283524
-0.285354
-0.28812
-0.29202
-0.316092
-0.313658
-0.310868
-0.307827
-0.304666
-0.301543
-0.298557
-0.295762
-0.293187
-0.290853
-0.288781
-0.286998
-0.285542
-0.284468
-0.283836
-0.283712
-0.284144
-0.28515
-0.28675
-0.288681
-0.322356
-0.319355
-0.316079
-0.312602
-0.309038
-0.305551
-0.30224
-0.299149
-0.296303
-0.293711
-0.291383
-0.289332
-0.287582
-0.28616
-0.2851
-0.284424
-0.284141
-0.284226
-0.284677
-0.285074
-0.32931
-0.325671
-0.32187
-0.317938
-0.313955
-0.31009
-0.306432
-0.303015
-0.299846
-0.296922
-0.29424
-0.2918
-0.28961
-0.287682
-0.28603
-0.28466
-0.283562
-0.282708
-0.282087
-0.281307
-0.336984
-0.332641
-0.328282
-0.323874
-0.319457
-0.315192
-0.311154
-0.307357
-0.303789
-0.300433
-0.297273
-0.294301
-0.291519
-0.288934
-0.286556
-0.284388
-0.282425
-0.280648
-0.279046
-0.277321
-0.345398
-0.340287
-0.335339
-0.33044
-0.32557
-0.320873
-0.316402
-0.312146
-0.308073
-0.304155
-0.30037
-0.296713
-0.293191
-0.289816
-0.286607
-0.283575
-0.280725
-0.278056
-0.275555
-0.273028
-0.354546
-0.348614
-0.343055
-0.33765
-0.332299
-0.327121
-0.322139
-0.317314
-0.312601
-0.307967
-0.303399
-0.298904
-0.294506
-0.290234
-0.286118
-0.282186
-0.278451
-0.274925
-0.271593
-0.268341
-0.364403
-0.357606
-0.35142
-0.345491
-0.339621
-0.33389
-0.328289
-0.322756
-0.317241
-0.311722
-0.30621
-0.300737
-0.295351
-0.290103
-0.28504
-0.280196
-0.275594
-0.27125
-0.267141
-0.26321
-0.374914
-0.367223
-0.360401
-0.353926
-0.347479
-0.341097
-0.334737
-0.328327
-0.32183
-0.315255
-0.308649
-0.30208
-0.295626
-0.289357
-0.283331
-0.277587
-0.272149
-0.267028
-0.262192
-0.257616
-0.385993
-0.377395
-0.369931
-0.362879
-0.355776
-0.348611
-0.341324
-0.333848
-0.326184
-0.318391
-0.310563
-0.302813
-0.295243
-0.287938
-0.28096
-0.274346
-0.268112
-0.262261
-0.256742
-0.251558
-0.397516
-0.388017
-0.379908
-0.372231
-0.364367
-0.356261
-0.347852
-0.339112
-0.330104
-0.320952
-0.31181
-0.302827
-0.294127
-0.285799
-0.277902
-0.27046
-0.263479
-0.256947
-0.250794
-0.245045
-0.409321
-0.398944
-0.390187
-0.381822
-0.373062
-0.363828
-0.354091
-0.343894
-0.333386
-0.32277
-0.312258
-0.302027
-0.292213
-0.282899
-0.274129
-0.265913
-0.25824
-0.25108
-0.244344
-0.23808
-0.421207
-0.409991
-0.40058
-0.39144
-0.381625
-0.37106
-0.359789
-0.347961
-0.335831
-0.323687
-0.311787
-0.300328
-0.289441
-0.279195
-0.269613
-0.260684
-0.252377
-0.244648
-0.237382
-0.230659
-0.43293
-0.420933
-0.410853
-0.400832
-0.389782
-0.377677
-0.364679
-0.35108
-0.33725
-0.323556
-0.310289
-0.29765
-0.285753
-0.274644
-0.264318
-0.254742
-0.245867
-0.237628
-0.229888
-0.22277
-0.444209
-0.431502
-0.42073
-0.4097
-0.397225
-0.383379
-0.368496
-0.353028
-0.337468
-0.322244
-0.307665
-0.293919
-0.281093
-0.269199
-0.258205
-0.248054
-0.238678
-0.229992
-0.22184
-0.214391
-0.454729
-0.441395
-0.429898
-0.417719
-0.403627
-0.387865
-0.370978
-0.353596
-0.336323
-0.319631
-0.303825
-0.289065
-0.275401
-0.26281
-0.25123
-0.240579
-0.230773
-0.221707
-0.213204
-0.205495
-0.46415
-0.450278
-0.438014
-0.424537
-0.408654
-0.390837
-0.371881
-0.352595
-0.333673
-0.315608
-0.298684
-0.283018
-0.268618
-0.255425
-0.243345
-0.232275
-0.222113
-0.212737
-0.20395
-0.19605
-0.472106
-0.457795
-0.444715
-0.429797
-0.411974
-0.392015
-0.370982
-0.349853
-0.329389
-0.310077
-0.292162
-0.275712
-0.260688
-0.246993
-0.234505
-0.223099
-0.21266
-0.203044
-0.194042
-0.186025
-0.478229
-0.463576
-0.449629
-0.43314
-0.413272
-0.391141
-0.368082
-0.345222
-0.323358
-0.30295
-0.284188
-0.267085
-0.251555
-0.237463
-0.224663
-0.213009
-0.202375
-0.192595
-0.183449
-0.17539
-0.482149
-0.467254
-0.45239
-0.434229
-0.41226
-0.387987
-0.363012
-0.338577
-0.315486
-0.29415
-0.274697
-0.25708
-0.241168
-0.226791
-0.213778
-0.201969
-0.191224
-0.181359
-0.172144
-0.164118
-0.483509
-0.468468
-0.45265
-0.432749
-0.408682
-0.38236
-0.35563
-0.329813
-0.305691
-0.283612
-0.263633
-0.245648
-0.229482
-0.214935
-0.201815
-0.189947
-0.17918
-0.16931
-0.160105
-0.152189
-0.481973
-0.466884
-0.450087
-0.428425
-0.402322
-0.374103
-0.345824
-0.318848
-0.293911
-0.271284
-0.250949
-0.232747
-0.216461
-0.201864
-0.188745
-0.176918
-0.166221
-0.156431
-0.147318
-0.139591
-0.477242
-0.462199
-0.444422
-0.421024
-0.393009
-0.363098
-0.333512
-0.305624
-0.2801
-0.257125
-0.236612
-0.218347
-0.202077
-0.187553
-0.174548
-0.162865
-0.152333
-0.142711
-0.133774
-0.126316
-0.469058
-0.454153
-0.435421
-0.410368
-0.380619
-0.349264
-0.318645
-0.290107
-0.26423
-0.241113
-0.220599
-0.202427
-0.186314
-0.171989
-0.159212
-0.14778
-0.137511
-0.128149
-0.119476
-0.112364
-0.457215
-0.442538
-0.422907
-0.396328
-0.365074
-0.33256
-0.3012
-0.272282
-0.246291
-0.223238
-0.202902
-0.184981
-0.169164
-0.155166
-0.142735
-0.131664
-0.12176
-0.112751
-0.104435
-0.0977475
-0.441561
-0.427204
-0.406761
-0.378834
-0.346347
-0.312984
-0.281187
-0.252163
-0.226294
-0.203508
-0.183527
-0.166012
-0.150633
-0.13709
-0.125125
-0.114525
-0.10509
-0.0965359
-0.0886706
-0.0824893
-0.42201
-0.408065
-0.386926
-0.357873
-0.324454
-0.29057
-0.258645
-0.229784
-0.204269
-0.181948
-0.162493
-0.145538
-0.130734
-0.117775
-0.106396
-0.0963805
-0.0875224
-0.079527
-0.0722162
-0.0666287
-0.398536
-0.385096
-0.363409
-0.333483
-0.299461
-0.26539
-0.23364
-0.205207
-0.180267
-0.158599
-0.139835
-0.123586
-0.109493
-0.0972414
-0.0865662
-0.0772491
-0.0690776
-0.061751
-0.0551069
-0.0502085
-0.371182
-0.35834
-0.336277
-0.305762
-0.271473
-0.237549
-0.206271
-0.178514
-0.154359
-0.133522
-0.115604
-0.100198
-0.0869411
-0.0755168
-0.0656597
-0.0571513
-0.049776
-0.043233
-0.0373745
-0.0332523
-0.340051
-0.327904
-0.305657
-0.274853
-0.240641
-0.20719
-0.176664
-0.149817
-0.126638
-0.106795
-0.0898616
-0.0754247
-0.0631188
-0.0526309
-0.0436988
-0.0361057
-0.0296368
-0.0239974
-0.0190426
-0.0157519
-0.305313
-0.293954
-0.271733
-0.24095
-0.207154
-0.174486
-0.144975
-0.11925
-0.0972225
-0.0785162
-0.0626898
-0.0493285
-0.0380716
-0.0286138
-0.0207008
-0.014122
-0.00866922
-0.00405749
-0.000120874
0.002293
-0.267193
-0.256717
-0.23474
-0.204291
-0.171238
-0.139643
-0.111386
-0.0869765
-0.0662526
-0.0488065
-0.0341886
-0.0219886
-0.0118564
-0.00350035
0.00331937
0.00880097
0.0131405
0.0166064
0.0193867
0.0207572
-0.225972
-0.21647
-0.194958
-0.165151
-0.133151
-0.102899
-0.0761126
-0.0531857
-0.0338958
-0.0178106
-0.00447936
0.00649787
0.0154547
0.0226613
0.0283348
0.0326577
0.0358094
0.0380035
0.0393647
0.0392509
-0.181977
-0.173535
-0.152712
-0.123842
-0.0931843
-0.064519
-0.039394
-0.0180953
-0.000346269
0.0143022
0.0262972
0.0360239
0.0437925
0.049841
0.0543526
0.0574883
0.0593876
0.0600907
0.059495
0.0573314
-0.135577
-0.128277
-0.108357
-0.0807042
-0.0516548
-0.0247947
-0.00149945
0.0180469
0.0341682
0.0473275
0.0579684
0.0664631
0.0730993
0.0780812
0.0815549
0.08365
0.0843928
0.0834309
0.0803077
0.0760327
-0.0871754
-0.0810915
-0.0622793
-0.0361021
-0.00890082
0.0159601
0.0372773
0.0549619
0.0693793
0.0810056
0.090286
0.0975909
0.103205
0.107332
0.110131
0.111747
0.112085
0.110302
0.105705
0.101064
-0.0372019
-0.0323982
-0.014883
0.00958344
0.0347243
0.0574163
0.0766255
0.0923491
0.104987
0.115026
0.122911
0.129019
0.133647
0.137037
0.139432
0.141104
0.14203
0.141236
0.138462
0.141926
0.0139022
0.0173687
0.0334146
0.0559624
0.0788596
0.0992385
0.116229
0.129904
0.140691
0.149077
0.155505
0.160342
0.163888
0.166394
0.16812
0.169327
0.170003
0.169681
0.169247
0.174853
0.0656773
0.0677613
0.0821877
0.10264
0.123142
0.141091
0.155772
0.167327
0.1762
0.182877
0.18779
0.191296
0.193691
0.195225
0.196145
0.196671
0.196787
0.196201
0.195814
0.20032
0.11766
0.118329
0.13101
0.149222
0.167212
0.182644
0.194951
0.204331
0.21124
0.216155
0.219492
0.221595
0.222745
0.223179
0.223126
0.222781
0.222142
0.220987
0.220056
0.223078
0.169389
0.168623
0.179461
0.195324
0.210718
0.223578
0.233471
0.240645
0.24556
0.24868
0.250402
0.251051
0.250889
0.250135
0.248992
0.247628
0.246026
0.243991
0.242206
0.243844
0.220409
0.218201
0.227126
0.240568
0.253321
0.263584
0.271053
0.276014
0.278928
0.28024
0.280328
0.279495
0.277983
0.275992
0.273703
0.271255
0.268617
0.265616
0.262901
0.263212
0.270275
0.266635
0.273606
0.284592
0.294694
0.30237
0.307432
0.310199
0.311126
0.310642
0.3091
0.306783
0.303912
0.300667
0.297207
0.293649
0.289951
0.285966
0.282317
0.281374
0.318558
0.313508
0.318515
0.327047
0.334524
0.339654
0.342356
0.342973
0.341955
0.339708
0.336565
0.332786
0.328573
0.324087
0.319468
0.314811
0.310072
0.30513
0.30057
0.298435
0.364845
0.358424
0.361487
0.367602
0.372516
0.375172
0.375587
0.374125
0.371223
0.36727
0.362575
0.357378
0.351862
0.34617
0.340426
0.334708
0.328969
0.323113
0.317681
0.314415
0.408747
0.401007
0.402173
0.405945
0.408389
0.408674
0.406901
0.403451
0.398752
0.393169
0.386991
0.380439
0.373677
0.366834
0.360016
0.353288
0.346605
0.339892
0.333634
0.3293
0.449896
0.440905
0.440251
0.441783
0.441882
0.439924
0.436087
0.430765
0.424371
0.417253
0.409678
0.401849
0.393914
0.385988
0.378162
0.370489
0.362928
0.355419
0.348387
0.343052
0.487951
0.477789
0.475418
0.474846
0.472753
0.468706
0.46295
0.455888
0.447921
0.439378
0.430507
0.421494
0.412472
0.403543
0.394785
0.38624
0.377873
0.369635
0.361887
0.355623
0.522599
0.51136
0.507398
0.504884
0.500778
0.494818
0.487308
0.478658
0.469255
0.459411
0.449358
0.439265
0.429252
0.41941
0.409803
0.400468
0.391371
0.382475
0.374073
0.366959
0.553555
0.541347
0.535942
0.531674
0.525756
0.518079
0.508997
0.498924
0.488236
0.477228
0.466117
0.455058
0.444161
0.433502
0.423139
0.413099
0.403355
0.393875
0.384887
0.377009
0.580569
0.567508
0.560828
0.555015
0.547508
0.538327
0.52787
0.516554
0.504743
0.492718
0.480683
0.468781
0.457111
0.445741
0.434719
0.424065
0.41376
0.403773
0.394272
0.385723
0.603421
0.589633
0.581865
0.574736
0.565877
0.555421
0.543799
0.531429
0.518668
0.505783
0.492966
0.480351
0.468027
0.456056
0.444476
0.433305
0.422527
0.412113
0.402175
0.393056
0.621926
0.607547
0.598891
0.590689
0.580733
0.569242
0.556675
0.543451
0.529919
0.516337
0.502887
0.489694
0.476842
0.464384
0.452354
0.440765
0.429604
0.418846
0.408553
0.39897
0.635935
0.621107
0.611774
0.602757
0.591967
0.579692
0.566409
0.552539
0.538423
0.524313
0.510384
0.496754
0.483502
0.470675
0.458304
0.446399
0.43495
0.423931
0.413369
0.403433
0.645336
0.630205
0.620417
0.610851
0.599501
0.586698
0.572934
0.558631
0.544123
0.529659
0.515408
0.501485
0.487964
0.474891
0.46229
0.450173
0.438531
0.427338
0.416594
0.40642
0.650052
0.63477
0.624752
0.61491
0.603279
0.590211
0.576207
0.561685
0.546981
0.532339
0.517926
0.503856
0.490201
0.477004
0.464289
0.452065
0.440326
0.429045
0.418211
0.407917
0.650047
0.634764
0.624747
0.614906
0.603274
0.590207
0.576203
0.561681
0.546978
0.532336
0.517923
0.503853
0.490198
0.477001
0.464286
0.452063
0.440324
0.429043
0.418208
0.407915
0.64532
0.630189
0.620402
0.610837
0.599488
0.586686
0.572923
0.55862
0.544113
0.529649
0.515399
0.501476
0.487956
0.474883
0.462283
0.450166
0.438524
0.427331
0.416588
0.406414
0.635908
0.621081
0.611749
0.602734
0.591946
0.579671
0.56639
0.552521
0.538407
0.524297
0.510369
0.49674
0.483488
0.470662
0.458291
0.446387
0.434938
0.42392
0.413358
0.403422
0.621888
0.607511
0.598856
0.590657
0.580702
0.569213
0.556648
0.543427
0.529896
0.516315
0.502866
0.489674
0.476823
0.464366
0.452336
0.440748
0.429588
0.41883
0.408538
0.398955
0.603373
0.589587
0.581821
0.574694
0.565839
0.555385
0.543765
0.531398
0.518638
0.505754
0.492939
0.480325
0.468003
0.456033
0.444454
0.433284
0.422506
0.412093
0.402156
0.393038
0.580511
0.567451
0.560775
0.554965
0.547461
0.538283
0.527829
0.516515
0.504707
0.492684
0.480651
0.46875
0.457082
0.445713
0.434691
0.424039
0.413735
0.403749
0.394248
0.3857
0.553487
0.541281
0.535879
0.531614
0.525701
0.518028
0.508949
0.498879
0.488193
0.477188
0.466079
0.455022
0.444126
0.433469
0.423107
0.413068
0.403325
0.393846
0.384859
0.376982
0.522521
0.511284
0.507325
0.504816
0.500714
0.494759
0.487252
0.478605
0.469206
0.459364
0.449314
0.439222
0.429212
0.419371
0.409766
0.400432
0.391337
0.382442
0.374041
0.366929
0.487864
0.477704
0.475336
0.474769
0.472681
0.468639
0.462887
0.455829
0.447866
0.439326
0.430457
0.421447
0.412427
0.4035
0.394743
0.3862
0.377834
0.369597
0.361851
0.355588
0.449799
0.44081
0.440161
0.441698
0.441803
0.43985
0.436018
0.4307
0.42431
0.417194
0.409623
0.401796
0.393864
0.38594
0.378116
0.370445
0.362885
0.355377
0.348347
0.343014
0.408641
0.400904
0.402075
0.405852
0.408302
0.408593
0.406825
0.40338
0.398685
0.393105
0.386931
0.380381
0.373622
0.366781
0.359965
0.353239
0.346558
0.339846
0.33359
0.329258
0.364731
0.358312
0.36138
0.367502
0.372422
0.375085
0.375504
0.374047
0.37115
0.367201
0.36251
0.357316
0.351802
0.346113
0.340371
0.334655
0.328918
0.323063
0.317633
0.314369
0.318435
0.313388
0.3184
0.326939
0.334423
0.33956
0.342267
0.34289
0.341876
0.339634
0.336494
0.332719
0.328508
0.324025
0.319408
0.314754
0.310017
0.305076
0.300518
0.298385
0.270144
0.266507
0.273484
0.284477
0.294586
0.302269
0.307337
0.31011
0.311042
0.310562
0.309024
0.306711
0.303843
0.300601
0.297143
0.293587
0.289892
0.285909
0.282261
0.281321
0.220271
0.218066
0.226997
0.240447
0.253207
0.263478
0.270953
0.27592
0.278838
0.280155
0.280247
0.279418
0.27791
0.275922
0.273635
0.27119
0.268554
0.265556
0.262842
0.263156
0.169244
0.168481
0.179325
0.195196
0.210598
0.223465
0.233365
0.240546
0.245466
0.248591
0.250317
0.25097
0.250811
0.25006
0.248921
0.247559
0.245959
0.243926
0.242143
0.243783
0.117509
0.11818
0.130868
0.149088
0.167086
0.182526
0.19484
0.204226
0.211141
0.216061
0.219403
0.22151
0.222663
0.2231
0.22305
0.222709
0.222072
0.220918
0.21999
0.223014
0.06552
0.0676072
0.0820399
0.1025
0.12301
0.140968
0.155657
0.167218
0.176097
0.182779
0.187696
0.191207
0.193605
0.195143
0.196066
0.196595
0.196713
0.196129
0.195745
0.200253
0.0137396
0.0172094
0.0332615
0.0558175
0.0787234
0.0991106
0.116108
0.12979
0.140583
0.148975
0.155407
0.160249
0.163798
0.166308
0.168037
0.169246
0.169925
0.169605
0.169173
0.174782
-0.0373693
-0.0325623
-0.0150409
0.00943389
0.0345836
0.057284
0.0765008
0.0922313
0.104876
0.114919
0.12281
0.128921
0.133553
0.136947
0.139345
0.14102
0.141948
0.141157
0.138385
0.141851
-0.0873468
-0.0812596
-0.0624412
-0.0362558
-0.00904565
0.0158237
0.0371487
0.0548402
0.0692638
0.0808955
0.0901807
0.0974898
0.103108
0.107239
0.11004
0.111659
0.111999
0.110219
0.105623
0.100983
-0.135752
-0.128449
-0.108523
-0.0808615
-0.0518033
-0.0249346
-0.00163154
0.0179218
0.0340493
0.047214
0.0578597
0.0663587
0.0729987
0.0779839
0.0814606
0.0835583
0.0843033
0.0833433
0.0802213
0.0759468
-0.182155
-0.17371
-0.15288
-0.124002
-0.0933359
-0.0646621
-0.0395292
-0.0182235
-0.000468299
0.0141856
0.0261854
0.0359164
0.0436888
0.0497406
0.0542551
0.0573934
0.0592948
0.0599999
0.0594056
0.0572428
-0.226152
-0.216646
-0.195129
-0.165314
-0.133305
-0.103045
-0.0762505
-0.0533167
-0.0340205
-0.0179299
-0.00459384
0.00638765
0.0153482
0.0225582
0.0282346
0.03256
0.035714
0.0379101
0.039273
0.0391602
-0.267374
-0.256895
-0.234912
-0.204456
-0.171394
-0.139791
-0.111527
-0.0871097
-0.0663797
-0.0489282
-0.0343055
-0.0221013
-0.0119653
-0.00360595
0.00321669
0.00870087
0.0130427
0.0165106
0.0192926
0.0206646
-0.305494
-0.294133
-0.271906
-0.241116
-0.207312
-0.174635
-0.145117
-0.119385
-0.0973516
-0.07864
-0.0628088
-0.0494433
-0.0381826
-0.0287216
-0.0208057
-0.0142243
-0.00876923
-0.00415544
-0.000217001
0.00219832
-0.340232
-0.328082
-0.305831
-0.275019
-0.2408
-0.207341
-0.176808
-0.149953
-0.126769
-0.106921
-0.0899824
-0.0755413
-0.0632317
-0.0527406
-0.0438057
-0.0362099
-0.0297387
-0.0240973
-0.0191407
-0.0158485
-0.371362
-0.358518
-0.33645
-0.305928
-0.271632
-0.237701
-0.206416
-0.178652
-0.154491
-0.133649
-0.115726
-0.100316
-0.0870557
-0.0756282
-0.0657683
-0.0572573
-0.0498797
-0.0433347
-0.0374743
-0.0333506
-0.398715
-0.385272
-0.363581
-0.333649
-0.29962
-0.265542
-0.233785
-0.205345
-0.1804
-0.158727
-0.139959
-0.123706
-0.109609
-0.0973542
-0.0866762
-0.0773566
-0.0691829
-0.0618543
-0.0552084
-0.0503085
-0.422187
-0.408239
-0.387096
-0.358037
-0.324613
-0.290722
-0.258789
-0.229923
-0.204402
-0.182076
-0.162617
-0.145658
-0.130851
-0.117889
-0.106507
-0.0964893
-0.0876291
-0.0796317
-0.0723191
-0.0667301
-0.441735
-0.427376
-0.406929
-0.378998
-0.346504
-0.313135
-0.281332
-0.252302
-0.226428
-0.203637
-0.183651
-0.166133
-0.150751
-0.137205
-0.125238
-0.114635
-0.105198
-0.0966419
-0.0887749
-0.0825922
-0.457385
-0.442706
-0.423072
-0.396489
-0.36523
-0.33271
-0.301344
-0.27242
-0.246424
-0.223367
-0.203027
-0.185102
-0.169283
-0.155282
-0.142849
-0.131775
-0.121869
-0.112859
-0.10454
-0.0978517
-0.469225
-0.454317
-0.435583
-0.410526
-0.380772
-0.349411
-0.318787
-0.290244
-0.264363
-0.241242
-0.220724
-0.202549
-0.186433
-0.172105
-0.159326
-0.147892
-0.137621
-0.128257
-0.119583
-0.11247
-0.477404
-0.462359
-0.444579
-0.421179
-0.393159
-0.363243
-0.333653
-0.305761
-0.280232
-0.257253
-0.236737
-0.218468
-0.202196
-0.18767
-0.174662
-0.162978
-0.152444
-0.142821
-0.133882
-0.126422
-0.48213
-0.46704
-0.45024
-0.428575
-0.402469
-0.374246
-0.345962
-0.318982
-0.294042
-0.271411
-0.251073
-0.232869
-0.21658
-0.201981
-0.188859
-0.177031
-0.166332
-0.156541
-0.147426
-0.139699
-0.483661
-0.468619
-0.452798
-0.432895
-0.408825
-0.3825
-0.355766
-0.329945
-0.30582
-0.283738
-0.263756
-0.245769
-0.2296
-0.215052
-0.20193
-0.190061
-0.179292
-0.169421
-0.160215
-0.152298
-0.482296
-0.467399
-0.452533
-0.434371
-0.412399
-0.388123
-0.363146
-0.338707
-0.315613
-0.294275
-0.274819
-0.2572
-0.241286
-0.226907
-0.213893
-0.202083
-0.191337
-0.18147
-0.172254
-0.164228
-0.478371
-0.463716
-0.449767
-0.433277
-0.413407
-0.391273
-0.368213
-0.34535
-0.323483
-0.303073
-0.284309
-0.267204
-0.251672
-0.237579
-0.224777
-0.213123
-0.202488
-0.192707
-0.18356
-0.175501
-0.472242
-0.457929
-0.444847
-0.429928
-0.412104
-0.392144
-0.371108
-0.349977
-0.329511
-0.310198
-0.292281
-0.27583
-0.260805
-0.247108
-0.234619
-0.223212
-0.212773
-0.203157
-0.194154
-0.186137
-0.46428
-0.450407
-0.438142
-0.424664
-0.40878
-0.390962
-0.372004
-0.352716
-0.333793
-0.315727
-0.298801
-0.283134
-0.268734
-0.25554
-0.243459
-0.232388
-0.222226
-0.21285
-0.204062
-0.196163
-0.454854
-0.441518
-0.43002
-0.41784
-0.403748
-0.387985
-0.371097
-0.353714
-0.33644
-0.319747
-0.303941
-0.28918
-0.275515
-0.262923
-0.251343
-0.240692
-0.230886
-0.221821
-0.213318
-0.205609
-0.444328
-0.43162
-0.420847
-0.409817
-0.397341
-0.383495
-0.368611
-0.353142
-0.337582
-0.322357
-0.307778
-0.294032
-0.281205
-0.269311
-0.258318
-0.248166
-0.238791
-0.230106
-0.221953
-0.214506
-0.433044
-0.421046
-0.410965
-0.400943
-0.389893
-0.377788
-0.36479
-0.35119
-0.337361
-0.323666
-0.310399
-0.29776
-0.285864
-0.274755
-0.26443
-0.254854
-0.24598
-0.237741
-0.230003
-0.222885
-0.421316
-0.410099
-0.400687
-0.391547
-0.381732
-0.371167
-0.359895
-0.348067
-0.335938
-0.323794
-0.311894
-0.300436
-0.289549
-0.279304
-0.269723
-0.260795
-0.252489
-0.244761
-0.237496
-0.230775
-0.409426
-0.399047
-0.39029
-0.381924
-0.373164
-0.36393
-0.354193
-0.343997
-0.333489
-0.322874
-0.312362
-0.302133
-0.292319
-0.283006
-0.274238
-0.266023
-0.258351
-0.251193
-0.244459
-0.238196
-0.397616
-0.388116
-0.380006
-0.372329
-0.364464
-0.356358
-0.34795
-0.339211
-0.330203
-0.321052
-0.311911
-0.302929
-0.29423
-0.285905
-0.278009
-0.270569
-0.263589
-0.257059
-0.250909
-0.245161
-0.386088
-0.37749
-0.370025
-0.362972
-0.355869
-0.348705
-0.341418
-0.333943
-0.32628
-0.318487
-0.310661
-0.302912
-0.295343
-0.288041
-0.281065
-0.274453
-0.268221
-0.262372
-0.256856
-0.251674
-0.375006
-0.367315
-0.360491
-0.354016
-0.347569
-0.341187
-0.334827
-0.328418
-0.321922
-0.315348
-0.308743
-0.302176
-0.295723
-0.289457
-0.283433
-0.277692
-0.272256
-0.267139
-0.262305
-0.257732
-0.364491
-0.357694
-0.351507
-0.345578
-0.339707
-0.333977
-0.328375
-0.322843
-0.317328
-0.311811
-0.3063
-0.300828
-0.295445
-0.2902
-0.285139
-0.280298
-0.2757
-0.271359
-0.267254
-0.263326
-0.354631
-0.348699
-0.343139
-0.337733
-0.332382
-0.327204
-0.322221
-0.317397
-0.312684
-0.308051
-0.303484
-0.298991
-0.294595
-0.290326
-0.286214
-0.282285
-0.278554
-0.275032
-0.271704
-0.268456
-0.34548
-0.340369
-0.335421
-0.330521
-0.32565
-0.320953
-0.316481
-0.312224
-0.308152
-0.304234
-0.300451
-0.296796
-0.293276
-0.289905
-0.286699
-0.28367
-0.280825
-0.27816
-0.275664
-0.273141
-0.337064
-0.332721
-0.328361
-0.323953
-0.319535
-0.315269
-0.31123
-0.307432
-0.303864
-0.300508
-0.297349
-0.294379
-0.291599
-0.289018
-0.286644
-0.284481
-0.282521
-0.280749
-0.279152
-0.277433
-0.329387
-0.325749
-0.321948
-0.318014
-0.31403
-0.310163
-0.306504
-0.303085
-0.299916
-0.296993
-0.294312
-0.291873
-0.289686
-0.287762
-0.286114
-0.284748
-0.283655
-0.282807
-0.282191
-0.281416
-0.322432
-0.319431
-0.316154
-0.312677
-0.309111
-0.305622
-0.302309
-0.299217
-0.296369
-0.293777
-0.29145
-0.289401
-0.287653
-0.286235
-0.285179
-0.284508
-0.28423
-0.284321
-0.284778
-0.285181
-0.316167
-0.313734
-0.310943
-0.307901
-0.304737
-0.301612
-0.298624
-0.295826
-0.29325
-0.290916
-0.288844
-0.287062
-0.285609
-0.284538
-0.283911
-0.283792
-0.28423
-0.285242
-0.286848
-0.288785
-0.310547
-0.308612
-0.306267
-0.303636
-0.300859
-0.298085
-0.295409
-0.292887
-0.290552
-0.288429
-0.286544
-0.284932
-0.283646
-0.282762
-0.282381
-0.282621
-0.283607
-0.285443
-0.288216
-0.292122
-0.305518
-0.304018
-0.302076
-0.299828
-0.297419
-0.294985
-0.292612
-0.290356
-0.288247
-0.286309
-0.284566
-0.283054
-0.281831
-0.280987
-0.280655
-0.281012
-0.282285
-0.284717
-0.288559
-0.294916
-0.301023
-0.299897
-0.298317
-0.296424
-0.294361
-0.29225
-0.290172
-0.288173
-0.286283
-0.284518
-0.282895
-0.281442
-0.280209
-0.279282
-0.278804
-0.278995
-0.280176
-0.28276
-0.287326
-0.296389
-0.296999
-0.296195
-0.294937
-0.293368
-0.291626
-0.28982
-0.288022
-0.286273
-0.284596
-0.283
-0.281491
-0.280081
-0.278798
-0.277704
-0.276919
-0.276658
-0.277278
-0.279317
-0.283931
-0.29574
-0.293388
-0.29286
-0.291887
-0.290608
-0.289159
-0.287635
-0.286099
-0.284587
-0.283115
-0.281685
-0.28029
-0.278923
-0.277581
-0.276281
-0.275078
-0.274101
-0.273605
-0.274002
-0.276811
-0.288948
-0.290137
-0.289846
-0.28912
-0.2881
-0.286913
-0.285644
-0.284347
-0.283053
-0.281773
-0.280501
-0.27922
-0.277903
-0.276515
-0.275009
-0.273327
-0.27139
-0.269069
-0.265894
-0.26063
-0.254357
-0.287196
-0.287109
-0.286599
-0.285805
-0.284849
-0.283805
-0.282721
-0.281622
-0.280516
-0.279393
-0.278231
-0.276993
-0.275631
-0.274075
-0.272237
-0.270001
-0.26723
-0.263561
-0.25814
-0.252506
-0.284527
-0.284616
-0.284291
-0.283693
-0.282938
-0.28209
-0.28119
-0.280262
-0.27931
-0.278324
-0.277281
-0.276145
-0.274869
-0.273394
-0.271647
-0.269554
-0.267046
-0.263911
-0.25971
-0.256136
-0.282097
-0.282337
-0.282172
-0.281742
-0.281159
-0.28048
-0.279739
-0.278959
-0.278141
-0.277276
-0.276344
-0.275314
-0.274147
-0.272795
-0.271207
-0.269342
-0.267167
-0.264535
-0.261229
-0.258928
-0.279881
-0.280251
-0.280222
-0.279935
-0.279501
-0.278966
-0.278363
-0.27771
-0.277009
-0.276254
-0.275426
-0.274502
-0.27345
-0.272239
-0.270835
-0.269224
-0.2674
-0.265269
-0.26274
-0.261309
-0.27786
-0.27834
-0.278427
-0.278263
-0.277955
-0.277546
-0.277063
-0.276522
-0.275928
-0.275274
-0.274548
-0.273731
-0.272804
-0.271745
-0.270541
-0.269193
-0.267719
-0.266062
-0.264194
-0.263374
-0.276018
-0.276591
-0.276776
-0.276718
-0.27652
-0.276221
-0.275844
-0.275406
-0.274911
-0.274356
-0.273732
-0.273028
-0.272231
-0.271332
-0.270329
-0.269238
-0.268085
-0.266836
-0.265485
-0.265077
-0.274342
-0.274994
-0.275263
-0.275295
-0.275194
-0.274992
-0.274712
-0.274369
-0.273969
-0.273512
-0.272992
-0.272404
-0.271742
-0.271004
-0.270197
-0.269342
-0.268471
-0.267555
-0.266593
-0.266456
-0.272821
-0.273539
-0.273879
-0.27399
-0.273974
-0.27386
-0.273669
-0.273416
-0.273108
-0.272747
-0.272332
-0.27186
-0.271332
-0.270751
-0.270126
-0.269482
-0.268848
-0.268198
-0.267523
-0.267564
-0.271447
-0.27222
-0.272621
-0.2728
-0.272859
-0.272824
-0.272715
-0.272547
-0.272327
-0.27206
-0.271747
-0.271389
-0.270989
-0.270552
-0.270091
-0.269628
-0.26919
-0.268747
-0.268283
-0.268445
-0.27021
-0.271029
-0.271483
-0.271722
-0.271847
-0.271883
-0.271849
-0.271759
-0.271623
-0.271445
-0.271228
-0.270976
-0.270693
-0.270387
-0.270068
-0.269757
-0.269476
-0.269195
-0.268888
-0.269134
-0.269105
-0.269964
-0.270462
-0.270752
-0.270936
-0.271036