/*--------------------------------*- C++ -*----------------------------------*\
  =========                 |
  \\      /  F ield         | OpenFOAM: The Open Source CFD Toolbox
   \\    /   O peration     | Website:  https://openfoam.org
    \\  /    A nd           | Version:  6.0
     \\/     M anipulation  |
\*---------------------------------------------------------------------------*/
FoamFile
{
    version     2.0;
    format      ascii;
    class       volScalarField;
    location    "89";
    object      p;
}
// * * * * * * * * * * * * * * * * * * * * * * * * * * * * * * * * * * * * * //

dimensions      [0 2 -2 0 0 0 0];

internalField   nonuniform List<scalar> 
12500
(
-0.470683
-0.472486
-0.473485
-0.474116
-0.474705
-0.47536
-0.476131
-0.477035
-0.478054
-0.479156
-0.480302
-0.48145
-0.48256
-0.483597
-0.484532
-0.48534
-0.486006
-0.486523
-0.486895
-0.487126
-0.487215
-0.487185
-0.487245
-0.487565
-0.486336
-0.460054
-0.461984
-0.463008
-0.463584
-0.464048
-0.464508
-0.465019
-0.465602
-0.466248
-0.466934
-0.467628
-0.468298
-0.468914
-0.469449
-0.469881
-0.470197
-0.470389
-0.470458
-0.470413
-0.470269
-0.470032
-0.46973
-0.469551
-0.469662
-0.468529
-0.449656
-0.451673
-0.452702
-0.453216
-0.453555
-0.453825
-0.454084
-0.454356
-0.454639
-0.454918
-0.455168
-0.455365
-0.455488
-0.455518
-0.455442
-0.455252
-0.454949
-0.454541
-0.454043
-0.453476
-0.452856
-0.452215
-0.451712
-0.451514
-0.450416
-0.439541
-0.441608
-0.442628
-0.443077
-0.443295
-0.443384
-0.443401
-0.443376
-0.44331
-0.443194
-0.44301
-0.442743
-0.442378
-0.441903
-0.441313
-0.440607
-0.439791
-0.438878
-0.43789
-0.436853
-0.435791
-0.43474
-0.433827
-0.433207
-0.432064
-0.429751
-0.43184
-0.43284
-0.433223
-0.433327
-0.433246
-0.433036
-0.432728
-0.432329
-0.431832
-0.431229
-0.430508
-0.429662
-0.428685
-0.427578
-0.426347
-0.425002
-0.423562
-0.422051
-0.420499
-0.418941
-0.417413
-0.416003
-0.414851
-0.413573
-0.420317
-0.422409
-0.423381
-0.423702
-0.4237
-0.423461
-0.42304
-0.422467
-0.421751
-0.420891
-0.419883
-0.41872
-0.417402
-0.415929
-0.414306
-0.412545
-0.41066
-0.408674
-0.406613
-0.404511
-0.402409
-0.400346
-0.398366
-0.396584
-0.395079
-0.411265
-0.413349
-0.414291
-0.414554
-0.414454
-0.414071
-0.413455
-0.412634
-0.41162
-0.410415
-0.409017
-0.407427
-0.405648
-0.403686
-0.401552
-0.39926
-0.39683
-0.394286
-0.391657
-0.388979
-0.3863
-0.383659
-0.381058
-0.378571
-0.376754
-0.402615
-0.404687
-0.405602
-0.405813
-0.405626
-0.405112
-0.404315
-0.403264
-0.40197
-0.400436
-0.398666
-0.396664
-0.394438
-0.391998
-0.389359
-0.38654
-0.383564
-0.380459
-0.377254
-0.373988
-0.370713
-0.367471
-0.364221
-0.360992
-0.358795
-0.394386
-0.396451
-0.397343
-0.397509
-0.397243
-0.396611
-0.395649
-0.394384
-0.392826
-0.390981
-0.388856
-0.386458
-0.383799
-0.380894
-0.377762
-0.374425
-0.37091
-0.367246
-0.363467
-0.359612
-0.355738
-0.351892
-0.347994
-0.34402
-0.341404
-0.386596
-0.388665
-0.389542
-0.389669
-0.389334
-0.388593
-0.387479
-0.386014
-0.384209
-0.382072
-0.379609
-0.376832
-0.373757
-0.370402
-0.36679
-0.362947
-0.358903
-0.354692
-0.350348
-0.345915
-0.341454
-0.337018
-0.332495
-0.32781
-0.324763
-0.379268
-0.381356
-0.382225
-0.38232
-0.381923
-0.381083
-0.379828
-0.378177
-0.37614
-0.373725
-0.370943
-0.367807
-0.364334
-0.360547
-0.356473
-0.35214
-0.347583
-0.342838
-0.337945
-0.33295
-0.327923
-0.322922
-0.317817
-0.31248
-0.309019
-0.372426
-0.374549
-0.375419
-0.375488
-0.375035
-0.374104
-0.372717
-0.370891
-0.368638
-0.365964
-0.362881
-0.359404
-0.355555
-0.351358
-0.346842
-0.34204
-0.336988
-0.331729
-0.326305
-0.320768
-0.315197
-0.309662
-0.30402
-0.298108
-0.294271
-0.366104
-0.368277
-0.369155
-0.369201
-0.368697
-0.36768
-0.366169
-0.364181
-0.361726
-0.35881
-0.355447
-0.351655
-0.347454
-0.342872
-0.33794
-0.332693
-0.32717
-0.321417
-0.315482
-0.309423
-0.303329
-0.297283
-0.291143
-0.284725
-0.280563
-0.360339
-0.362572
-0.363462
-0.363488
-0.362936
-0.361837
-0.360212
-0.358074
-0.355432
-0.352295
-0.348677
-0.344595
-0.340073
-0.335137
-0.329821
-0.32416
-0.318195
-0.311973
-0.305547
-0.298982
-0.292377
-0.28583
-0.27921
-0.272331
-0.267885
-0.355171
-0.357469
-0.358373
-0.358379
-0.35778
-0.356606
-0.354874
-0.352598
-0.349788
-0.346454
-0.342608
-0.33827
-0.333462
-0.328213
-0.322553
-0.316517
-0.310146
-0.303488
-0.296594
-0.289536
-0.28242
-0.275361
-0.268245
-0.260907
-0.256183
-0.350646
-0.353004
-0.353918
-0.353904
-0.353259
-0.352014
-0.350185
-0.347788
-0.344831
-0.341326
-0.337287
-0.332731
-0.327682
-0.322165
-0.31621
-0.30985
-0.303121
-0.296066
-0.288735
-0.281197
-0.273564
-0.265963
-0.258296
-0.250434
-0.24538
-0.346808
-0.349212
-0.350128
-0.350089
-0.349399
-0.348089
-0.346176
-0.343675
-0.340596
-0.336952
-0.332756
-0.328027
-0.322787
-0.317059
-0.310868
-0.304244
-0.297215
-0.289817
-0.282089
-0.274093
-0.265934
-0.257745
-0.249437
-0.240916
-0.235396
-0.343698
-0.346121
-0.347026
-0.346957
-0.346223
-0.344855
-0.34287
-0.340285
-0.337113
-0.333364
-0.329054
-0.3242
-0.318823
-0.312943
-0.306583
-0.299763
-0.292503
-0.284825
-0.276754
-0.268332
-0.259649
-0.250825
-0.241767
-0.232394
-0.226181
-0.341349
-0.343753
-0.344629
-0.344523
-0.343745
-0.342325
-0.340283
-0.337636
-0.334398
-0.330581
-0.326199
-0.321269
-0.315811
-0.309841
-0.303377
-0.296431
-0.289011
-0.281124
-0.272773
-0.263973
-0.254781
-0.245292
-0.235384
-0.224944
-0.217738
-0.339781
-0.342122
-0.342945
-0.342791
-0.341966
-0.340501
-0.338416
-0.335729
-0.332453
-0.328601
-0.324187
-0.319228
-0.313738
-0.307734
-0.301226
-0.294217
-0.286705
-0.278676
-0.27011
-0.260987
-0.251324
-0.24117
-0.230352
-0.218661
-0.210129
-0.339001
-0.341224
-0.341968
-0.341753
-0.340878
-0.339371
-0.337254
-0.334544
-0.331254
-0.327397
-0.322985
-0.318034
-0.312556
-0.306562
-0.300057
-0.293037
-0.285486
-0.277374
-0.268654
-0.259271
-0.249193
-0.238417
-0.226702
-0.213673
-0.203512
-0.338999
-0.341048
-0.34168
-0.341388
-0.340454
-0.338906
-0.336763
-0.334043
-0.330757
-0.326916
-0.322531
-0.317615
-0.312179
-0.306227
-0.299761
-0.292767
-0.285218
-0.277069
-0.268252
-0.258679
-0.248269
-0.236964
-0.224463
-0.210168
-0.198161
-0.339749
-0.341564
-0.342051
-0.341662
-0.340656
-0.33906
-0.336892
-0.334166
-0.330893
-0.327081
-0.322739
-0.317876
-0.312499
-0.306611
-0.300206
-0.293266
-0.285756
-0.277618
-0.268767
-0.259087
-0.248451
-0.236745
-0.223616
-0.208199
-0.194145
-0.34121
-0.342736
-0.343042
-0.342531
-0.341434
-0.339778
-0.337577
-0.334842
-0.331582
-0.327802
-0.323507
-0.318704
-0.313397
-0.307586
-0.301264
-0.294409
-0.286986
-0.278933
-0.27016
-0.260534
-0.249884
-0.238012
-0.224425
-0.207853
-0.191313
-0.343332
-0.344517
-0.344607
-0.343945
-0.342734
-0.340997
-0.338747
-0.335993
-0.332736
-0.328981
-0.32473
-0.319987
-0.314755
-0.309032
-0.302814
-0.296087
-0.288824
-0.280985
-0.272508
-0.263299
-0.253231
-0.242112
-0.229339
-0.213269
-0.196002
-0.346057
-0.346859
-0.346696
-0.345853
-0.344498
-0.342655
-0.340334
-0.33754
-0.334272
-0.330529
-0.326313
-0.321624
-0.316465
-0.310838
-0.304744
-0.298182
-0.291151
-0.283649
-0.275683
-0.267275
-0.2585
-0.249507
-0.240484
-0.232334
-0.231049
-0.34933
-0.349713
-0.349264
-0.348205
-0.346675
-0.344696
-0.342276
-0.339418
-0.336116
-0.332369
-0.328172
-0.323527
-0.318435
-0.312904
-0.306943
-0.300565
-0.293793
-0.286661
-0.279227
-0.271589
-0.263908
-0.256445
-0.249567
-0.244161
-0.244232
-0.353101
-0.353037
-0.35227
-0.350963
-0.349223
-0.347075
-0.344527
-0.341577
-0.338219
-0.334445
-0.330251
-0.325634
-0.3206
-0.315156
-0.309321
-0.303122
-0.296598
-0.28981
-0.282846
-0.275832
-0.268951
-0.262456
-0.256654
-0.252023
-0.250919
-0.357329
-0.356798
-0.355686
-0.354099
-0.352115
-0.349765
-0.347059
-0.34399
-0.34055
-0.336728
-0.332515
-0.327908
-0.322911
-0.317536
-0.311803
-0.305751
-0.299429
-0.29291
-0.286292
-0.279699
-0.273294
-0.267269
-0.261825
-0.257165
-0.254706
-0.361988
-0.360976
-0.359493
-0.357596
-0.355339
-0.352758
-0.349864
-0.34665
-0.343103
-0.339208
-0.334953
-0.33033
-0.325342
-0.32
-0.314329
-0.308368
-0.302174
-0.295821
-0.289402
-0.283029
-0.276827
-0.270932
-0.26546
-0.260471
-0.256816
-0.367065
-0.365559
-0.363686
-0.361454
-0.358897
-0.356058
-0.352952
-0.349568
-0.34589
-0.341896
-0.337568
-0.332896
-0.327875
-0.322518
-0.316848
-0.310905
-0.304747
-0.298445
-0.292084
-0.285757
-0.279561
-0.27359
-0.267911
-0.262525
-0.257949
-0.37256
-0.370551
-0.36827
-0.365683
-0.362804
-0.359687
-0.356347
-0.35277
-0.348934
-0.34481
-0.340373
-0.335604
-0.330498
-0.325061
-0.319317
-0.313307
-0.307085
-0.300721
-0.29429
-0.287875
-0.281552
-0.275389
-0.269434
-0.263667
-0.258415
-0.378486
-0.375961
-0.373258
-0.370301
-0.367085
-0.363673
-0.360079
-0.356286
-0.352262
-0.34797
-0.343376
-0.338454
-0.333194
-0.327601
-0.321697
-0.315525
-0.309139
-0.302608
-0.296005
-0.289402
-0.282866
-0.276456
-0.27021
-0.264109
-0.258374
-0.384858
-0.381805
-0.378668
-0.375331
-0.371767
-0.368046
-0.36418
-0.360145
-0.355897
-0.35139
-0.34658
-0.341435
-0.335941
-0.330103
-0.323947
-0.317518
-0.310875
-0.304087
-0.297227
-0.290367
-0.283569
-0.276886
-0.270356
-0.263967
-0.257884
-0.391696
-0.388099
-0.384521
-0.380798
-0.376878
-0.372835
-0.368678
-0.364369
-0.359853
-0.355073
-0.349975
-0.344524
-0.338705
-0.332528
-0.326025
-0.319248
-0.312264
-0.305145
-0.297968
-0.290803
-0.283712
-0.276749
-0.26995
-0.263311
-0.256962
-0.399017
-0.394859
-0.390832
-0.386719
-0.382438
-0.378061
-0.373588
-0.368966
-0.364127
-0.359002
-0.353533
-0.347683
-0.341443
-0.334831
-0.32789
-0.320683
-0.313286
-0.305778
-0.298239
-0.29074
-0.283344
-0.2761
-0.269044
-0.262178
-0.25561
-0.40683
-0.402093
-0.397613
-0.393109
-0.388461
-0.383733
-0.378911
-0.373927
-0.368698
-0.363146
-0.357211
-0.350862
-0.344101
-0.336961
-0.329499
-0.321793
-0.313927
-0.305988
-0.298059
-0.290209
-0.2825
-0.274978
-0.267676
-0.260597
-0.253831
-0.415132
-0.4098
-0.404864
-0.399969
-0.394945
-0.389844
-0.384633
-0.379226
-0.373526
-0.367452
-0.360949
-0.353999
-0.34662
-0.338866
-0.330813
-0.322551
-0.314175
-0.305778
-0.297441
-0.289234
-0.281211
-0.273416
-0.265874
-0.25859
-0.251633
-0.423909
-0.417968
-0.412575
-0.407288
-0.401875
-0.39637
-0.390718
-0.384814
-0.378551
-0.371852
-0.364675
-0.357021
-0.348936
-0.340494
-0.331791
-0.322933
-0.314021
-0.30515
-0.2964
-0.287834
-0.279502
-0.271438
-0.263663
-0.256175
-0.249029
-0.43313
-0.426569
-0.420722
-0.41504
-0.40922
-0.40327
-0.397112
-0.390622
-0.383694
-0.376261
-0.368303
-0.359853
-0.350982
-0.341792
-0.332398
-0.322917
-0.313456
-0.304107
-0.294945
-0.286026
-0.277391
-0.269065
-0.26106
-0.253371
-0.246037
-0.442746
-0.435563
-0.429264
-0.423181
-0.416928
-0.410481
-0.403738
-0.396564
-0.388861
-0.380583
-0.371745
-0.362412
-0.352691
-0.342709
-0.332598
-0.322482
-0.312469
-0.302647
-0.293081
-0.283818
-0.274888
-0.266308
-0.258081
-0.250192
-0.242673
-0.452693
-0.44489
-0.438145
-0.431652
-0.424929
-0.417921
-0.410502
-0.402537
-0.393944
-0.384714
-0.374902
-0.364617
-0.353998
-0.343196
-0.332356
-0.321606
-0.311049
-0.300764
-0.290807
-0.281213
-0.272
-0.263174
-0.254731
-0.246648
-0.238951
-0.462888
-0.454476
-0.447291
-0.440372
-0.433135
-0.425487
-0.417291
-0.40842
-0.398825
-0.388543
-0.37768
-0.366387
-0.354839
-0.343205
-0.331639
-0.320265
-0.309179
-0.29845
-0.288118
-0.278207
-0.268723
-0.259664
-0.251016
-0.242743
-0.234878
-0.473229
-0.464226
-0.456608
-0.449242
-0.441435
-0.433061
-0.423978
-0.414084
-0.403379
-0.391957
-0.379979
-0.367644
-0.355153
-0.34269
-0.330411
-0.318434
-0.306842
-0.295689
-0.285002
-0.274791
-0.265052
-0.255772
-0.24693
-0.238479
-0.230459
-0.483596
-0.47403
-0.465986
-0.458145
-0.449702
-0.440503
-0.430418
-0.419388
-0.407476
-0.394842
-0.381708
-0.368312
-0.354881
-0.341606
-0.328639
-0.316085
-0.304014
-0.292462
-0.281442
-0.270952
-0.260975
-0.25149
-0.242468
-0.23385
-0.225693
-0.493854
-0.483759
-0.475295
-0.466944
-0.457789
-0.447661
-0.436461
-0.42419
-0.410987
-0.397089
-0.382774
-0.368319
-0.353966
-0.339908
-0.326285
-0.313188
-0.300669
-0.288746
-0.277419
-0.266671
-0.256475
-0.246803
-0.237618
-0.228847
-0.220571
-0.503852
-0.493269
-0.484389
-0.475486
-0.465536
-0.454373
-0.441948
-0.428342
-0.413785
-0.39859
-0.383092
-0.367596
-0.352354
-0.337551
-0.323313
-0.309711
-0.296778
-0.284516
-0.272908
-0.261925
-0.251533
-0.241695
-0.232364
-0.223457
-0.215086
-0.513423
-0.502399
-0.493105
-0.483601
-0.472769
-0.460466
-0.446717
-0.431701
-0.415746
-0.399245
-0.382581
-0.366079
-0.349991
-0.334491
-0.319684
-0.30562
-0.292311
-0.279742
-0.267883
-0.256693
-0.246127
-0.236145
-0.226689
-0.217666
-0.209223
-0.522389
-0.510978
-0.50127
-0.491111
-0.479308
-0.465766
-0.450606
-0.434125
-0.416754
-0.398959
-0.381163
-0.363705
-0.346827
-0.330685
-0.315359
-0.300878
-0.287234
-0.274395
-0.262316
-0.250947
-0.240235
-0.230132
-0.220575
-0.211456
-0.202967
-0.530565
-0.518822
-0.508697
-0.497825
-0.484966
-0.470096
-0.45346
-0.435482
-0.416699
-0.397644
-0.37877
-0.360417
-0.342813
-0.326088
-0.3103
-0.295451
-0.281515
-0.268444
-0.25618
-0.244663
-0.233833
-0.223637
-0.214002
-0.204811
-0.196304
-0.537757
-0.525742
-0.515195
-0.503553
-0.489557
-0.473286
-0.455129
-0.435648
-0.415481
-0.395219
-0.375335
-0.356161
-0.337902
-0.320661
-0.304468
-0.289304
-0.275122
-0.26186
-0.249447
-0.237815
-0.226897
-0.216637
-0.206951
-0.197714
-0.189218
-0.543766
-0.531542
-0.520566
-0.508097
-0.492894
-0.475169
-0.455471
-0.434506
-0.413007
-0.391611
-0.370799
-0.350886
-0.332049
-0.314362
-0.297827
-0.282403
-0.268023
-0.254612
-0.24209
-0.230379
-0.219407
-0.209114
-0.199405
-0.190148
-0.181693
-0.548399
-0.536026
-0.524615
-0.511269
-0.494803
-0.475591
-0.454359
-0.431955
-0.409196
-0.386756
-0.365108
-0.344546
-0.325215
-0.307155
-0.290344
-0.274716
-0.26019
-0.246676
-0.234085
-0.222333
-0.211343
-0.201048
-0.191347
-0.182099
-0.173717
-0.551463
-0.539004
-0.527151
-0.512884
-0.495117
-0.47441
-0.451678
-0.427903
-0.403978
-0.380596
-0.358216
-0.337101
-0.317361
-0.299007
-0.281986
-0.266214
-0.251595
-0.238026
-0.225411
-0.213657
-0.202686
-0.192426
-0.182763
-0.173555
-0.16528
-0.552773
-0.540291
-0.527991
-0.512771
-0.493685
-0.471501
-0.447327
-0.422273
-0.397292
-0.373082
-0.350081
-0.328515
-0.308457
-0.289887
-0.272726
-0.256873
-0.242215
-0.228642
-0.216048
-0.204336
-0.193423
-0.183233
-0.173644
-0.164508
-0.156371
-0.552157
-0.539712
-0.526965
-0.510772
-0.490369
-0.466754
-0.441222
-0.415001
-0.389088
-0.364175
-0.34067
-0.318757
-0.298474
-0.279769
-0.262541
-0.246671
-0.232032
-0.218507
-0.205982
-0.194356
-0.183542
-0.173462
-0.16398
-0.15495
-0.146987
-0.549456
-0.537106
-0.523918
-0.506748
-0.485054
-0.460076
-0.433294
-0.406035
-0.379327
-0.353844
-0.329955
-0.307803
-0.287391
-0.268635
-0.251413
-0.235591
-0.221032
-0.207608
-0.195202
-0.183708
-0.173037
-0.163105
-0.153768
-0.14488
-0.137125
-0.544528
-0.532331
-0.518712
-0.500577
-0.477643
-0.451396
-0.42349
-0.395339
-0.367981
-0.342066
-0.317917
-0.295637
-0.275191
-0.256468
-0.239328
-0.223621
-0.209202
-0.195937
-0.183702
-0.172388
-0.161903
-0.152162
-0.143008
-0.134298
-0.126786
-0.537251
-0.525264
-0.511232
-0.492161
-0.46806
-0.44066
-0.411775
-0.382888
-0.355035
-0.328827
-0.304545
-0.282248
-0.261864
-0.243261
-0.226279
-0.210756
-0.19654
-0.18349
-0.171479
-0.160394
-0.150142
-0.140634
-0.131704
-0.123209
-0.115977
-0.527526
-0.515802
-0.501384
-0.481426
-0.456251
-0.427833
-0.398131
-0.368672
-0.340481
-0.314125
-0.289836
-0.267631
-0.247408
-0.22901
-0.212263
-0.196994
-0.183044
-0.170268
-0.158535
-0.14773
-0.13776
-0.128529
-0.119863
-0.111625
-0.104707
-0.515276
-0.503867
-0.4891
-0.468321
-0.442185
-0.412903
-0.382553
-0.352695
-0.324326
-0.297965
-0.273795
-0.251792
-0.231826
-0.213719
-0.197284
-0.182339
-0.16872
-0.156278
-0.144878
-0.134406
-0.124764
-0.115857
-0.107499
-0.0995573
-0.0929905
-0.50045
-0.489408
-0.474336
-0.452817
-0.425854
-0.395872
-0.365055
-0.334972
-0.306586
-0.280362
-0.256435
-0.234743
-0.215129
-0.197397
-0.181351
-0.1668
-0.153577
-0.141528
-0.130519
-0.120431
-0.111169
-0.102633
-0.0946267
-0.0870254
-0.0808452
-0.483024
-0.472398
-0.457075
-0.434915
-0.40727
-0.376766
-0.345665
-0.315534
-0.287289
-0.261341
-0.237778
-0.216502
-0.197333
-0.180061
-0.164478
-0.150392
-0.137629
-0.126035
-0.115472
-0.105824
-0.0969922
-0.0888751
-0.0812677
-0.0740513
-0.0682939
-0.462997
-0.452836
-0.437325
-0.414635
-0.386467
-0.355626
-0.324428
-0.294423
-0.266474
-0.240937
-0.217854
-0.197096
-0.178462
-0.161731
-0.146687
-0.133133
-0.120894
-0.109814
-0.0997563
-0.0906012
-0.0822528
-0.074605
-0.0674458
-0.0606611
-0.0553623
-0.440399
-0.430749
-0.415121
-0.392025
-0.363502
-0.33251
-0.301401
-0.271693
-0.244189
-0.219193
-0.196702
-0.17656
-0.158548
-0.142435
-0.128001
-0.115046
-0.103393
-0.0928878
-0.0833914
-0.0747852
-0.0669734
-0.0598474
-0.053188
-0.0468847
-0.04208
-0.415281
-0.406188
-0.390522
-0.367151
-0.338448
-0.307495
-0.276658
-0.247411
-0.220497
-0.196163
-0.174369
-0.154935
-0.137627
-0.122206
-0.108449
-0.0961564
-0.0851511
-0.075278
-0.0663996
-0.0583979
-0.0511777
-0.0446282
-0.0385244
-0.0327562
-0.0284835
-0.387724
-0.379231
-0.36361
-0.340105
-0.311399
-0.280672
-0.250285
-0.221656
-0.195466
-0.171911
-0.150913
-0.132271
-0.115742
-0.101081
-0.0880653
-0.0764942
-0.0661928
-0.0570075
-0.0488023
-0.0414607
-0.0348883
-0.0289729
-0.0234857
-0.0183138
-0.0146191
-0.35783
-0.34998
-0.334492
-0.310998
-0.282466
-0.252149
-0.222381
-0.194519
-0.16918
-0.146509
-0.126397
-0.108626
-0.0929442
-0.0791052
-0.0668862
-0.05609
-0.0465444
-0.0380983
-0.0306188
-0.0239915
-0.0181236
-0.012903
-0.00810008
-0.00359754
-0.000536521
-0.325725
-0.318557
-0.303295
-0.279958
-0.251776
-0.222046
-0.193059
-0.166103
-0.141731
-0.120041
-0.100897
-0.0840659
-0.0692907
-0.0563264
-0.0449527
-0.0349768
-0.026231
-0.0185691
-0.0118626
-0.00600083
-0.000893476
0.00356904
0.00761114
0.0113586
0.0137345
-0.291556
-0.28511
-0.270166
-0.247133
-0.219473
-0.190498
-0.162443
-0.136521
-0.113222
-0.0926002
-0.0744959
-0.0586645
-0.0448469
-0.0328006
-0.0223102
-0.013189
-0.0052764
0.00156687
0.00746261
0.0125152
0.0168104
0.0204505
0.0236482
0.0265505
0.028211
-0.255491
-0.249801
-0.23527
-0.212686
-0.185712
-0.157652
-0.130668
-0.105898
-0.0837668
-0.0642909
-0.0472886
-0.0325073
-0.0196879
-0.00859201
0.00098908
0.00923394
0.0162944
0.0223003
0.0273632
0.0315778
0.0350211
0.0377832
0.0400577
0.0420249
0.0429155
-0.217714
-0.212813
-0.198787
-0.176793
-0.150662
-0.123666
-0.0978821
-0.0743685
-0.0534909
-0.0352282
-0.0193808
-0.00569065
0.00610007
0.0162242
0.0248826
0.0322441
0.0384499
0.0436171
0.047843
0.0512069
0.0537738
0.0556177
0.0568925
0.0577711
0.0576504
-0.178424
-0.174341
-0.16091
-0.139642
-0.114503
-0.0887069
-0.0642401
-0.042078
-0.0225288
-0.00553771
0.0091102
0.0216771
0.0324184
0.041561
0.0492972
0.0557857
0.0611547
0.065505
0.0689112
0.0714279
0.073103
0.0739803
0.0740931
0.0734648
0.0717784
-0.137834
-0.134596
-0.121847
-0.101433
-0.0774221
-0.0529513
-0.0299063
-0.00918001
0.00897492
0.0246439
0.038055
0.0494735
0.0591527
0.0673144
0.0741445
0.0797935
0.0843787
0.0879837
0.0906555
0.0924167
0.0932883
0.0932306
0.0919596
0.0891398
0.0853609
-0.096169
-0.0937972
-0.0818124
-0.0623714
-0.0396145
-0.0165817
0.00494824
0.0241648
0.0408678
0.0551704
0.0673121
0.0775607
0.0861678
0.0933528
0.0992992
0.104157
0.108043
0.111039
0.113189
0.114516
0.115055
0.114667
0.11259
0.108091
0.103391
-0.0536628
-0.0521744
-0.0410288
-0.0226709
-0.00128066
0.0202146
0.0401481
0.0577906
0.0729915
0.0858887
0.096731
0.105788
0.113309
0.119512
0.124582
0.128672
0.131909
0.134395
0.136208
0.137447
0.13827
0.138613
0.137526
0.134486
0.137008
-0.0105467
-0.00995718
0.000279164
0.0174539
0.037377
0.0572478
0.0755151
0.091529
0.105185
0.116643
0.126158
0.133999
0.140415
0.14562
0.149796
0.1531
0.155661
0.15759
0.158985
0.159975
0.160727
0.161209
0.160894
0.160259
0.165069
0.0329356
0.0326155
0.0418805
0.0577843
0.0761538
0.0943272
0.110871
0.125212
0.137288
0.147277
0.15544
0.162045
0.167335
0.17152
0.17478
0.17727
0.179122
0.180449
0.181356
0.181972
0.182441
0.182726
0.182462
0.182196
0.186454
0.0765401
0.0753047
0.0835446
0.098102
0.114846
0.131263
0.146038
0.158672
0.169141
0.177641
0.184432
0.18978
0.193922
0.197063
0.199377
0.201015
0.202105
0.202759
0.203081
0.203191
0.203216
0.20313
0.202631
0.202156
0.205392
0.120024
0.117872
0.125042
0.138191
0.153252
0.167869
0.180843
0.191747
0.200593
0.207587
0.212994
0.21707
0.220047
0.222122
0.223464
0.224214
0.224496
0.224415
0.224066
0.223557
0.222996
0.222348
0.22134
0.220378
0.222646
0.163145
0.160079
0.166145
0.177837
0.191174
0.20396
0.215115
0.224279
0.231494
0.236978
0.240993
0.24379
0.245592
0.246587
0.246935
0.246771
0.24621
0.245348
0.244272
0.243077
0.241853
0.240553
0.238927
0.237375
0.238707
0.205667
0.201695
0.20663
0.216831
0.228417
0.239359
0.248691
0.256114
0.261703
0.265681
0.268307
0.269826
0.270449
0.270358
0.269702
0.268608
0.267181
0.26551
0.263672
0.261751
0.259819
0.257822
0.255538
0.253367
0.253805
0.247355
0.242489
0.246279
0.254969
0.264794
0.273893
0.281409
0.287106
0.291083
0.293569
0.294819
0.295069
0.294521
0.293347
0.291687
0.289659
0.287359
0.284867
0.282253
0.27959
0.276936
0.274234
0.271287
0.268496
0.268079
0.287982
0.28224
0.28488
0.292053
0.300123
0.307393
0.313117
0.317114
0.319505
0.320524
0.320419
0.319419
0.317717
0.315473
0.312819
0.309863
0.306695
0.303386
0.299997
0.296592
0.293221
0.289823
0.286229
0.282831
0.281596
0.32733
0.320732
0.322229
0.327894
0.334228
0.3397
0.343668
0.346001
0.346843
0.346429
0.345003
0.342782
0.33995
0.336658
0.33303
0.329164
0.325143
0.32103
0.31688
0.312749
0.308676
0.304604
0.300387
0.296403
0.294385
0.365184
0.357759
0.358127
0.362307
0.366941
0.37066
0.372919
0.373639
0.372979
0.371177
0.368469
0.365064
0.361137
0.356829
0.352255
0.347506
0.342655
0.337762
0.332874
0.328039
0.32329
0.318572
0.313762
0.309216
0.306449
0.401343
0.39312
0.392386
0.395117
0.398101
0.400124
0.400736
0.399903
0.397799
0.394662
0.390722
0.38618
0.3812
0.375914
0.37043
0.36483
0.359183
0.35354
0.347943
0.342434
0.337041
0.33171
0.326338
0.321258
0.317776
0.435613
0.426628
0.424828
0.42616
0.427556
0.427954
0.426992
0.424676
0.421195
0.416785
0.411672
0.406046
0.400061
0.393844
0.387492
0.381083
0.374677
0.36832
0.362049
0.355902
0.349898
0.34399
0.338093
0.332506
0.328346
0.46781
0.458103
0.455283
0.455277
0.455161
0.454017
0.451564
0.447846
0.443063
0.437453
0.431231
0.42458
0.417648
0.410551
0.40338
0.396207
0.389085
0.382055
0.375151
0.368403
0.361827
0.355381
0.348994
0.342932
0.338132
0.497763
0.487378
0.483592
0.482322
0.480782
0.47819
0.474339
0.469309
0.463309
0.456574
0.449316
0.441708
0.43389
0.425971
0.418035
0.410148
0.402358
0.394701
0.387207
0.3799
0.372793
0.365849
0.359009
0.352503
0.347106
0.52531
0.514295
0.509607
0.507157
0.504293
0.500356
0.495211
0.488966
0.48184
0.474067
0.46585
0.457357
0.448721
0.440042
0.431399
0.422853
0.414446
0.406212
0.398173
0.390352
0.382758
0.375357
0.368103
0.361187
0.355236
0.550304
0.538711
0.533191
0.529656
0.525577
0.52041
0.514081
0.506726
0.498573
0.489851
0.48076
0.471461
0.462077
0.452705
0.443419
0.434272
0.425303
0.416542
0.408009
0.399721
0.391684
0.38387
0.376241
0.368952
0.362494
0.572608
0.560493
0.554219
0.549702
0.544527
0.538252
0.530859
0.522506
0.51343
0.503856
0.49398
0.483955
0.473901
0.463907
0.454043
0.444356
0.434885
0.425652
0.416676
0.407969
0.399536
0.391353
0.383391
0.375766
0.368851
0.5921
0.579521
0.572578
0.567192
0.561048
0.553794
0.545462
0.536231
0.52634
0.516016
0.505448
0.494785
0.48414
0.473598
0.463224
0.453064
0.443149
0.433501
0.424135
0.415061
0.40628
0.397775
0.38952
0.381599
0.374282
0.608671
0.59569
0.588169
0.582033
0.575054
0.566958
0.557819
0.547832
0.537242
0.526273
0.51511
0.503898
0.492745
0.481733
0.470922
0.460354
0.450058
0.440055
0.430355
0.420966
0.411888
0.403106
0.394601
0.386425
0.378762
0.622225
0.608907
0.600903
0.594143
0.58647
0.577675
0.567865
0.557251
0.546079
0.534575
0.522918
0.51125
0.499675
0.488272
0.477098
0.466192
0.455581
0.445282
0.435305
0.425655
0.41633
0.407321
0.398609
0.39022
0.38227
0.632683
0.619093
0.610706
0.603454
0.595233
0.585886
0.575547
0.564437
0.552806
0.540878
0.528831
0.516802
0.504894
0.493182
0.481721
0.470547
0.459687
0.449155
0.43896
0.429104
0.419586
0.410396
0.401521
0.392965
0.384789
0.639977
0.626184
0.617518
0.609909
0.601291
0.591544
0.580819
0.569348
0.557384
0.545147
0.532815
0.520524
0.508372
0.496435
0.484764
0.473396
0.462354
0.451653
0.441298
0.431293
0.421634
0.412315
0.403321
0.394643
0.386304
0.644056
0.630129
0.621292
0.613465
0.604604
0.59461
0.583648
0.571954
0.559782
0.547354
0.534845
0.522389
0.510087
0.498009
0.486208
0.474719
0.463564
0.452757
0.442304
0.432207
0.422461
0.413061
0.403995
0.39524
0.386804
0.644885
0.630894
0.621993
0.61409
0.605143
0.595059
0.584009
0.572231
0.55998
0.547478
0.534901
0.522382
0.510021
0.497889
0.486038
0.474502
0.463304
0.452457
0.441967
0.431834
0.422056
0.412627
0.403532
0.394749
0.386281
0.642441
0.628459
0.619604
0.611767
0.60289
0.592875
0.581887
0.570165
0.557965
0.545509
0.532973
0.520492
0.508165
0.496066
0.484245
0.472737
0.461566
0.450744
0.440278
0.430169
0.420414
0.411006
0.401929
0.393165
0.38473
0.63672
0.622816
0.614117
0.60649
0.597843
0.588053
0.577279
0.565754
0.553734
0.541442
0.529058
0.516716
0.504518
0.492538
0.480827
0.469423
0.458349
0.447619
0.437239
0.427211
0.417533
0.408197
0.399185
0.390486
0.382152
0.62773
0.613976
0.605541
0.598266
0.590006
0.580601
0.57019
0.559002
0.547292
0.535284
0.523161
0.511059
0.499083
0.487309
0.47579
0.464564
0.453657
0.443083
0.432851
0.422962
0.413417
0.404203
0.395302
0.386716
0.378549
0.615497
0.601962
0.593899
0.587118
0.5794
0.570536
0.560638
0.549926
0.538653
0.527048
0.515294
0.503533
0.491872
0.48039
0.469142
0.45817
0.447499
0.437147
0.427123
0.417432
0.408074
0.399034
0.390288
0.381863
0.373927
0.600059
0.586812
0.579227
0.573077
0.566056
0.557886
0.548648
0.538549
0.527841
0.516755
0.505478
0.494157
0.482903
0.471797
0.4609
0.450255
0.43989
0.429824
0.42007
0.410633
0.401516
0.3927
0.384156
0.375937
0.368296
0.581472
0.56858
0.561575
0.556191
0.550015
0.54269
0.534256
0.524905
0.514887
0.504435
0.493741
0.482958
0.472201
0.461556
0.451087
0.440841
0.430849
0.421134
0.411709
0.402583
0.393761
0.385219
0.376921
0.368953
0.36167
0.559805
0.547333
0.541006
0.536517
0.531332
0.524999
0.51751
0.509039
0.499831
0.490125
0.480118
0.469968
0.459796
0.449694
0.43973
0.429954
0.420403
0.4111
0.402062
0.393304
0.384829
0.37661
0.368603
0.36093
0.354063
0.535141
0.523152
0.517597
0.514128
0.510072
0.504871
0.498464
0.491
0.482722
0.473871
0.464651
0.455226
0.445726
0.436246
0.426861
0.417625
0.408579
0.39975
0.391158
0.38282
0.374744
0.366897
0.359226
0.35189
0.345496
0.507579
0.496132
0.491438
0.489104
0.486311
0.482379
0.477183
0.470849
0.463615
0.455724
0.447388
0.438779
0.430033
0.421253
0.412519
0.403891
0.395412
0.387116
0.379025
0.371162
0.363535
0.356108
0.348815
0.341857
0.335991
0.477231
0.466383
0.46263
0.461542
0.460137
0.457601
0.453741
0.448656
0.442574
0.435744
0.428385
0.420678
0.412766
0.40476
0.396746
0.388789
0.38094
0.373233
0.365698
0.35836
0.351233
0.344272
0.3374
0.33086
0.325573
0.444221
0.434026
0.43129
0.431548
0.431646
0.430628
0.428222
0.424495
0.41967
0.413997
0.407704
0.40098
0.393978
0.386816
0.379588
0.372365
0.365203
0.358141
0.351213
0.344451
0.33787
0.331422
0.325013
0.318927
0.314268
0.408689
0.399195
0.397543
0.399238
0.400947
0.401557
0.400715
0.398452
0.39498
0.390554
0.38541
0.379747
0.373727
0.367476
0.361095
0.354664
0.348244
0.341879
0.335608
0.329468
0.323481
0.317589
0.311685
0.30609
0.302104
0.370785
0.362038
0.361529
0.364741
0.368156
0.370498
0.371321
0.370617
0.368589
0.365493
0.361576
0.357046
0.352073
0.346795
0.34132
0.335735
0.330108
0.324489
0.318922
0.31345
0.308099
0.302808
0.297449
0.292379
0.289108
0.330672
0.322714
0.323397
0.328195
0.333402
0.337565
0.340145
0.341089
0.340587
0.338899
0.336279
0.332946
0.329082
0.324833
0.320317
0.315628
0.310841
0.306012
0.301192
0.29643
0.291758
0.28711
0.282335
0.277823
0.275308
0.288525
0.281392
0.283308
0.28975
0.296819
0.302885
0.307303
0.309973
0.311071
0.31086
0.309601
0.307525
0.304823
0.301654
0.298143
0.294394
0.290488
0.286491
0.282456
0.278442
0.274487
0.270522
0.26637
0.262447
0.260726
0.24453
0.238254
0.241434
0.249563
0.258554
0.26659
0.272915
0.27738
0.280144
0.28147
0.281627
0.280859
0.279367
0.277321
0.274856
0.272084
0.269096
0.265963
0.262747
0.259514
0.256312
0.253066
0.249574
0.24627
0.245381
0.198882
0.193492
0.197956
0.207802
0.21876
0.22882
0.237111
0.24343
0.247914
0.250827
0.252449
0.253031
0.252789
0.251901
0.250514
0.248749
0.246706
0.244464
0.242094
0.239669
0.237247
0.234753
0.231955
0.229297
0.229277
0.151788
0.147306
0.153064
0.164645
0.1776
0.189724
0.200027
0.208245
0.214495
0.219038
0.222162
0.224129
0.225166
0.225463
0.225177
0.224441
0.223361
0.222028
0.220519
0.218918
0.217297
0.215581
0.213505
0.211516
0.212405
0.103463
0.0999067
0.106959
0.120276
0.135243
0.149458
0.161806
0.171958
0.180008
0.186213
0.190867
0.194243
0.196581
0.19808
0.19891
0.199211
0.199102
0.198681
0.198037
0.197264
0.19645
0.195524
0.194188
0.192886
0.194726
0.0541296
0.0515131
0.059847
0.0748883
0.0918676
0.108185
0.122597
0.134707
0.14458
0.152469
0.158672
0.163473
0.167122
0.169831
0.171778
0.173115
0.17397
0.174452
0.174658
0.174698
0.174677
0.174533
0.173936
0.173321
0.176157
0.00401961
0.0023509
0.0119447
0.0286831
0.0476583
0.0660747
0.082557
0.0966363
0.108345
0.117929
0.12569
0.131923
0.136886
0.140801
0.143857
0.146215
0.148012
0.149367
0.150387
0.151195
0.151919
0.15251
0.152608
0.15265
0.156531
-0.0466301
-0.0473475
-0.0365266
-0.0181329
0.00280651
0.0233044
0.0418499
0.0578976
0.0714447
0.082726
0.0920469
0.099708
0.105978
0.111088
0.115235
0.118588
0.12129
0.123469
0.125242
0.126747
0.128133
0.12936
0.130033
0.130621
0.13559
-0.0975774
-0.0973447
-0.0853396
-0.0653468
-0.0424903
-0.0199436
0.000644961
0.0186492
0.0340271
0.0470001
0.0578738
0.0669548
0.0745196