/*--------------------------------*- C++ -*----------------------------------*\
  =========                 |
  \\      /  F ield         | OpenFOAM: The Open Source CFD Toolbox
   \\    /   O peration     | Website:  https://openfoam.org
    \\  /    A nd           | Version:  6.0
     \\/     M anipulation  |
\*---------------------------------------------------------------------------*/
FoamFile
{
    version     2.0;
    format      ascii;
    class       surfaceScalarField;
    location    "89";
    object      phi;
}
// * * * * * * * * * * * * * * * * * * * * * * * * * * * * * * * * * * * * * //

dimensions      [0 3 -1 0 0 0 0];

internalField   nonuniform List<scalar> 
24700
(
-3.36338e-06
-8.76171e-05
9.09805e-05
-1.21429e-05
-0.000202191
0.000210971
-2.52475e-05
-0.000270932
0.000284037
-4.17045e-05
-0.000305238
0.000321695
-6.06579e-05
-0.000314398
0.000333352
-8.13724e-05
-0.000305786
0.0003265
-0.000103219
-0.000285049
0.000306896
-0.000125653
-0.000256368
0.000278802
-0.000148188
-0.000222718
0.000245252
-0.000170374
-0.000186134
0.000208319
-0.000191785
-0.000147936
0.000169347
-0.000212009
-0.000108931
0.000129155
-0.000230647
-6.95633e-05
8.82013e-05
-0.000247315
-3.00364e-05
4.67047e-05
-0.000261656
9.60338e-06
4.73734e-06
-0.00027335
4.94087e-05
-3.77148e-05
-0.000282134
8.9494e-05
-8.07096e-05
-0.000287824
0.000130012
-0.000124322
-0.000290335
0.000171139
-0.000168628
-0.000289709
0.000213066
-0.000213692
-0.000286139
0.000255988
-0.000259558
-0.000279989
0.000300086
-0.000306236
-0.000271811
0.000345524
-0.000353703
-0.000262368
0.000392498
-0.000401941
0.000441188
-0.000450907
-0.000252649
-3.6776e-06
-8.39395e-05
-1.30737e-05
-0.000192795
-2.68726e-05
-0.000257134
-4.39619e-05
-0.000288148
-6.34111e-05
-0.000294949
-8.4455e-05
-0.000284742
-0.000106464
-0.00026304
-0.000128911
-0.000233921
-0.000151334
-0.000200295
-0.000173317
-0.000164151
-0.000194463
-0.00012679
-0.000214392
-8.90024e-05
-0.000232729
-5.12259e-05
-0.000249114
-1.36514e-05
-0.000263205
2.3694e-05
-0.000274691
6.08947e-05
-0.000283309
9.81125e-05
-0.000288864
0.000135567
-0.000291249
0.000173524
-0.000290471
0.000212288
-0.000286678
0.000252194
-0.000280179
0.000293587
-0.000271471
0.000336816
-0.000261271
0.000382298
0.000430461
-0.000250544
-3.90129e-06
-8.00382e-05
-1.37077e-05
-0.000182989
-2.7919e-05
-0.000242922
-4.53073e-05
-0.00027076
-6.4881e-05
-0.000275375
-8.58517e-05
-0.000263771
-0.000107592
-0.000241299
-0.000129594
-0.00021192
-0.000151424
-0.000178464
-0.000172699
-0.000142876
-0.00019306
-0.000106428
-0.000212162
-6.99008e-05
-0.000229665
-3.37224e-05
-0.000245241
1.9239e-06
-0.000258572
3.70254e-05
-0.000269368
7.16906e-05
-0.000277374
0.000106119
-0.000282393
0.000140585
-0.000284298
0.000175429
-0.000283065
0.000211055
-0.000278793
0.000247923
-0.000271736
0.00028653
-0.000262327
0.000327407
-0.000251225
0.000371196
0.0004186
-0.000239364
-4.04602e-06
-7.59922e-05
-1.40861e-05
-0.000172949
-2.84714e-05
-0.000228537
-4.58798e-05
-0.000253352
-6.52689e-05
-0.000255986
-8.58313e-05
-0.000243208
-0.000106943
-0.000220187
-0.000128112
-0.000190751
-0.000148935
-0.000157641
-0.000169062
-0.000122749
-0.000188173
-8.73175e-05
-0.000205962
-5.21122e-05
-0.00022213
-1.75544e-05
-0.000236385
1.61794e-05
-0.000248446
4.90867e-05
-0.00025805
8.12938e-05
-0.000264959
0.000113029
-0.000268982
0.000144608
-0.000269985
0.000176432
-0.000267917
0.000208987
-0.000262836
0.000242842
-0.000254941
0.000278634
-0.000244602
0.000317068
-0.000232415
0.000359009
0.000405457
-0.000219272
-4.12723e-06
-7.1865e-05
-1.42609e-05
-0.000162815
-2.86345e-05
-0.000214163
-4.5848e-05
-0.000236138
-6.48161e-05
-0.000237018
-8.47139e-05
-0.000223311
-0.000104918
-0.000199983
-0.000124952
-0.000170717
-0.000144437
-0.000138157
-0.000163054
-0.000104132
-0.000180521
-6.98504e-05
-0.000196573
-3.60609e-05
-0.000210951
-3.17548e-06
-0.000223408
2.86355e-05
-0.000233698
5.93773e-05
-0.000241593
8.9189e-05
-0.000246884
0.000118319
-0.000249392
0.000147116
-0.000248986
0.000176026
-0.000245599
0.000205601
-0.000239259
0.000236502
-0.000230115
0.000269491
-0.000218483
0.000305435
-0.000204893
0.00034542
0.000390752
-0.000190188
-4.16287e-06
-6.77021e-05
-1.42919e-05
-0.000152686
-2.85259e-05
-0.000199929
-4.53996e-05
-0.000219264
-6.37891e-05
-0.000218629
-8.28515e-05
-0.000204248
-0.000101961
-0.000180873
-0.00012065
-0.000152028
-0.00013856
-0.000120247
-0.0001554
-8.72921e-05
-0.000170919
-5.43311e-05
-0.00018489
-2.20901e-05
-0.000197096
9.03036e-06
-0.000207327
3.88668e-05
-0.000215381
6.74314e-05
-0.000221065
9.48726e-05
-0.000224199
0.000121454
-0.000224629
0.000147546
-0.000222234
0.000173631
-0.000216943
0.00020031
-0.000208763
0.000228322
-0.000197808
0.000258536
-0.000184346
0.000291973
-0.000168851
0.000329925
0.000374008
-0.000152107
-4.17204e-06
-6.35301e-05
-1.42413e-05
-0.000142617
-2.82677e-05
-0.000185903
-4.47283e-05
-0.000202804
-6.24629e-05
-0.000200894
-8.06079e-05
-0.000186103
-9.85304e-05
-0.000162951
-0.000115767
-0.000134792
-0.00013197
-0.000104044
-0.00014687
-7.23918e-05
-0.000160244
-4.09575e-05
-0.000171894
-1.04398e-05
-0.000181639
1.87754e-05
-0.000189306
4.65333e-05
-0.000194727
7.28531e-05
-0.000197746
9.7891e-05
-0.000198213
0.000121922
-0.000196001
0.000145333
-0.000191002
0.000168632
-0.000183154
0.000192462
-0.000172453
0.000217621
-0.000158993
0.000245076
-0.000143005
0.000275986
-0.000124917
0.000311836
0.000354547
-0.000105456
-4.17357e-06
-5.93565e-05
-1.41703e-05
-0.00013262
-2.79788e-05
-0.000172095
-4.40226e-05
-0.00018676
-6.11043e-05
-0.000183812
-7.83372e-05
-0.00016887
-9.50759e-05
-0.000146212
-0.000110854
-0.000119014
-0.000125329
-8.95682e-05
-0.000138245
-5.94758e-05
-0.000149397
-2.9806e-05
-0.00015861
-1.22651e-06
-0.000165729
2.58948e-05
-0.00017061
5.14139e-05
-0.000173114
7.53574e-05
-0.000173112
9.78889e-05
-0.000170483
0.000119292
-0.000165119
0.000139969
-0.000156933
0.000160446
-0.000145871
0.0001814
-0.000131932
0.000203682
-0.000115199
0.000228343
-9.58857e-05
0.000256673
-7.43871e-05
0.000290338
0.000331545
-5.13855e-05
-4.18471e-06
-5.51718e-05
-1.41341e-05
-0.00012267
-2.77664e-05
-0.000158462
-4.34516e-05
-0.000171075
-5.99541e-05
-0.00016731
-7.63604e-05
-0.000152464
-9.20079e-05
-0.000130565
-0.000106421
-0.000104601
-0.000119257
-7.67319e-05
-0.000130264
-4.84692e-05
-0.000139246
-2.08241e-05
-0.000146043
5.571e-06
-0.000150517
3.03687e-05
-0.00015254
5.34369e-05
-0.000151993
7.48102e-05
-0.000148763
9.46588e-05
-0.000142745
0.000113275
-0.000133848
0.000131071
-0.000121996
0.000148594
-0.000107145
0.000166549
-8.92998e-05
0.000185836
-6.85446e-05
0.000207588
-4.50903e-05
0.000233218
-1.93241e-05
0.000264571
0.000304127
8.09412e-06
-4.21974e-06
-5.09521e-05
-1.41781e-05
-0.000112712
-2.77179e-05
-0.000144923
-4.31534e-05
-0.000155639
-5.92086e-05
-0.000151255
-7.49406e-05
-0.000136732
-8.96661e-05
-0.000115839
-0.000102896
-9.13707e-05
-0.000114281
-6.53472e-05
-0.000123566
-3.91846e-05
-0.000130557
-1.38323e-05
-0.000135101
1.01151e-05
-0.000137065
3.23322e-05
-0.000136327
5.26991e-05
-0.000132774
7.1257e-05
-0.000126297
8.81816e-05
-0.000116793
0.000103771
-0.000104171
0.00011845
-8.83582e-05
0.000132781
-6.93107e-05
0.000147502
-4.70363e-05
0.000163562
-2.16267e-05
0.000182179
6.69449e-06
0.000204897
3.75203e-05
0.000233746
0.000271471
7.01759e-05
-4.28874e-06
-4.66633e-05
-1.43336e-05
-0.000102667
-2.7893e-05
-0.000131363
-4.32218e-05
-0.000140311
-5.90017e-05
-0.000135475
-7.42591e-05
-0.000121475
-8.82878e-05
-0.000101811
-0.000100583
-7.90759e-05
-0.000110782
-5.51473e-05
-0.000118626
-3.1341e-05
-0.000123917
-8.54163e-06
-0.000126497
1.26957e-05
-0.000126233
3.20676e-05
-0.000122998
4.94645e-05
-0.000116673
6.49315e-05
-0.000107137
7.86459e-05
-9.42749e-05
9.09089e-05
-7.79771e-05
0.000102152
-5.81528e-05
0.000112957
-3.4744e-05
0.000124093
-7.75046e-06
0.000136568
2.27324e-05
0.000151696
5.64583e-05
0.000171171
9.29713e-05
0.000197233
0.000232911
0.000131531
-4.39648e-06
-4.22669e-05
-1.46147e-05
-9.2449e-05
-2.83174e-05
-0.000117661
-4.36965e-05
-0.000124931
-5.93903e-05
-0.000119781
-7.43939e-05
-0.000106471
-8.79785e-05
-8.82259e-05
-9.96217e-05
-6.74327e-05
-0.00010895
-4.58189e-05
-0.000115693
-2.45981e-05
-0.000119647
-4.58801e-06
-0.000120647
1.36963e-05
-0.000118551
2.99718e-05
-0.000113223
4.41358e-05
-0.000104524
5.62325e-05
-9.23117e-05
6.6434e-05
-7.64398e-05
7.50371e-05
-5.67628e-05
8.24748e-05
-3.31489e-05
8.93431e-05
-5.50128e-06
9.64454e-05
2.62107e-05
0.000104856
6.19026e-05
0.000116004
0.000101306
0.000131767
0.000143894
0.000154645
0.000188005
0.0001888
-4.54161e-06
-3.77252e-05
-1.50153e-05
-8.19753e-05
-2.89778e-05
-0.000103698
-4.4555e-05
-0.000109354
-6.03416e-05
-0.000103994
-7.5303e-05
-9.15099e-05
-8.86886e-05
-7.48404e-05
-9.99601e-05
-5.61612e-05
-0.000108732
-3.70469e-05
-0.000114725
-1.86055e-05
-0.000117726
-1.58647e-06
-0.000117565
1.3535e-05
-0.000114087
2.64939e-05
-0.000107141
3.71903e-05
-9.65687e-05
4.56598e-05
-8.21947e-05
5.20601e-05
-6.38304e-05
5.66727e-05
-4.12762e-05
5.99206e-05
-1.43372e-05
6.24041e-05
1.71514e-05
6.49568e-05
5.3282e-05
6.87258e-05
9.40106e-05
7.5275e-05
0.000139065
8.67132e-05
0.000187835
0.000105875
0.000136568
0.000239272
-4.71625e-06
-3.3009e-05
-1.55087e-05
-7.11828e-05
-2.98202e-05
-8.93866e-05
-4.57092e-05
-9.34653e-05
-6.17281e-05
-8.79753e-05
-7.68145e-05
-7.64235e-05
-9.01985e-05
-6.14563e-05
-0.000101328
-4.50319e-05
-0.000109807
-2.85682e-05
-0.000115347
-1.30652e-05
-0.000117731
7.97327e-07
-0.000116779
1.25837e-05
-0.000112331
2.20451e-05
-0.00010422
2.90792e-05
-9.22657e-05
3.37058e-05
-7.62627e-05
3.60571e-05
-5.59747e-05
3.63847e-05
-3.11392e-05
3.50851e-05
-1.48036e-06
3.27453e-05
3.32609e-05
3.02156e-05
7.32749e-05
2.87118e-05
0.0001186
2.99501e-05
0.000168997
3.63158e-05
0.000223791
5.10819e-05
7.86574e-05
0.000281701
-4.9061e-06
-2.81029e-05
-1.60477e-05
-6.00412e-05
-3.07505e-05
-7.46838e-05
-4.70068e-05
-7.7209e-05
-6.33289e-05
-7.16531e-05
-7.86288e-05
-6.11237e-05
-9.21192e-05
-4.79659e-05
-0.000103236
-3.39156e-05
-0.000111573
-2.02309e-05
-0.000116836
-7.80154e-06
-0.000118803
2.7642e-06
-0.000117291
1.10709e-05
-0.000112131
1.68851e-05
-0.00010315
2.0099e-05
-9.01545e-05
2.071e-05
-7.29123e-05
1.88149e-05
-5.11482e-05
1.46206e-05
-2.45399e-05
8.47679e-06
7.27183e-06
9.33556e-07
4.4655e-05
-7.16759e-06
8.79282e-05
-1.45614e-05
0.000137258
-1.93799e-05
0.000192497
-1.89234e-05
0.000252951
-9.3713e-06
1.45135e-05
0.000317095
-5.09125e-06
-2.30116e-05
-1.65671e-05
-4.85654e-05
-3.16401e-05
-5.96108e-05
-4.82398e-05
-6.06092e-05
-6.48412e-05
-5.50518e-05
-8.03321e-05
-4.56327e-05
-9.39089e-05
-3.43891e-05
-0.000104994
-2.28302e-05
-0.000113173
-1.20519e-05
-0.000118144
-2.83083e-06
-0.000119678
4.29818e-06
-0.000117589
8.98208e-06
-0.000111708
1.10039e-05
-0.00010186
1.02508e-05
-8.78455e-05
6.69578e-06
-6.94248e-05
3.94103e-07
-4.63016e-05
-8.50263e-06
-1.81154e-05
-1.97094e-05
1.5558e-05
-3.27399e-05
5.51862e-05
-4.67957e-05
0.000101225
-6.06001e-05
0.000154007
-7.21616e-05
0.000213542
-7.84587e-05
0.0002792
-7.50293e-05
-5.55385e-05
0.000349252
-5.24769e-06
-1.77639e-05
-1.69893e-05
-3.68238e-05
-3.23353e-05
-4.42648e-05
-4.91593e-05
-4.37852e-05
-6.59013e-05
-3.83097e-05
-8.14257e-05
-3.01083e-05
-9.49103e-05
-2.09045e-05
-0.000105762
-1.19786e-05
-0.000113552
-4.26204e-06
-0.000117966
1.58311e-06
-0.000118766
5.09848e-06
-0.000115761
5.97694e-06
-0.00010878
4.0225e-06
-9.76506e-05
-8.78091e-07
-8.21831e-05
-8.77176e-06
-6.21471e-05
-1.96419e-05
-3.72559e-05
-3.33938e-05
-7.14962e-06
-4.98157e-05
2.86159e-05
-6.85054e-05
7.05645e-05
-8.87443e-05
0.000119262
-0.000109297
0.000175212
-0.000128112
0.000238642
-0.000141889
0.000309101
-0.000145488
-0.000131206
0.000384768
-5.34954e-06
-1.24144e-05
-1.72304e-05
-2.49428e-05
-3.26706e-05
-2.88247e-05
-4.94963e-05
-2.69595e-05
-6.61157e-05
-2.16903e-05
-8.13674e-05
-1.48566e-05
-9.44062e-05
-7.86567e-06
-0.000104616
-1.76848e-06
-0.000111547
2.66822e-06
-0.000114862
4.8985e-06
-0.000114307
4.54328e-06
-0.000109676
1.34644e-06
-0.000100794
-4.85945e-06
-8.74946e-05
-1.41779e-05
-6.96031e-05
-2.66632e-05
-4.69215e-05
-4.23235e-05
-1.92074e-05
-6.11079e-05
1.38467e-05
-8.28698e-05
5.26362e-05
-0.000107295
9.76617e-05
-0.00013377
0.000149523
-0.000161159
0.000208851
-0.00018744
0.000276115
-0.000209152
0.000351166
-0.000220539
-0.000212336
0.000432297
-5.37178e-06
-7.04263e-06
-1.72093e-05
-1.31053e-05
-3.24846e-05
-1.35494e-05
-4.89881e-05
-1.0456e-05
-6.50976e-05
-5.58078e-06
-7.9623e-05
-3.31292e-07
-9.16884e-05
4.19973e-06
-0.000100645
7.1886e-06
-0.000106009
8.03204e-06
-0.000107411
6.30069e-06
-0.000104566
1.69785e-06
-9.72445e-05
-5.97517e-06
-8.52572e-05
-1.68467e-05
-6.844e-05
-3.09951e-05
-4.66414e-05
-4.84617e-05
-1.97115e-05
-6.92535e-05
1.25145e-05
-9.33339e-05
5.02368e-05
-0.000120592
9.3722e-05
-0.00015078
0.000143342
-0.00018339
0.000199609
-0.000217426
0.000263175
-0.000251006
0.000334703
-0.00028068
0.000414451
-0.000300287
-0.000298996
0.000501111
-5.29312e-06
-1.7495e-06
-1.68561e-05
-1.54229e-06
-3.16375e-05
1.23196e-06
-4.74046e-05
5.31111e-06
-6.25073e-05
9.52193e-06
-7.57215e-05
1.28829e-05
-8.61321e-05
1.46103e-05
-9.30467e-05
1.41032e-05
-9.59338e-05
1.09191e-05
-9.43782e-05
4.74508e-06
-8.80506e-05
-4.62973e-06
-7.6687e-05
-1.73388e-05
-6.00756e-05
-3.34581e-05
-3.8049e-05
-5.30217e-05
-1.04803e-05
-7.60304e-05
2.27216e-05
-0.000102455
6.16187e-05
-0.000132231
0.000106259
-0.000165233
0.000156708
-0.000201229
0.000213101
-0.000239782
0.000275718
-0.000280043
0.000345063
-0.000320351
0.000421865
-0.000357482
0.000506801
-0.000385224
-0.000391478
0.000599283
-5.09874e-06
3.34924e-06
-1.61204e-05
9.47941e-06
-3.00261e-05
1.51376e-05
-4.45738e-05
1.98589e-05
-5.80877e-05
2.30358e-05
-6.93052e-05
2.41004e-05
-7.72633e-05
2.25683e-05
-8.1215e-05
1.8055e-05
-8.05708e-05
1.02749e-05
-7.48579e-05
-9.67847e-07
-6.36937e-05
-1.57939e-05
-4.67707e-05
-3.42618e-05
-2.38486e-05
-5.63802e-05
5.24539e-06
-8.21157e-05
4.06139e-05
-0.000111399
8.22834e-05
-0.000144125
0.000130201
-0.000180149
0.00018424
-0.000219271
0.000244218
-0.000261207
0.000309953
-0.000305517
0.000381361
-0.000351451
0.000458606
-0.000397596
0.000542254
-0.00044113
0.000633273
-0.000476243
-0.000490229
0.000732024
-4.78224e-06
8.13147e-06
-1.49777e-05
1.96748e-05
-2.75957e-05
2.77556e-05
-4.04e-05
3.26632e-05
-5.16918e-05
3.43277e-05
-6.0167e-05
3.25756e-05
-6.48082e-05
2.72095e-05
-6.48067e-05
1.80535e-05
-5.95082e-05
4.97645e-06
-4.8377e-05
-1.2099e-05
-3.09744e-05
-3.31966e-05
-6.94812e-06
-5.82881e-05
2.39685e-05
-8.72968e-05
6.19516e-05
-0.000120099
0.000107076
-0.000156523
0.000159302
-0.000196351
0.000218463
-0.000239309
0.000284255
-0.000285063
0.000356245
-0.000333198
0.000433908
-0.00038318
0.000516717
-0.00043426
0.000604329
-0.000485208
0.000696864
-0.000533665
0.000795223
-0.000574602
-0.000595753
0.000900747
-4.34656e-06
1.2478e-05
-1.34316e-05
2.87598e-05
-2.43461e-05
3.86702e-05
-3.48733e-05
4.31903e-05
-4.32961e-05
4.27505e-05
-4.82682e-05
3.75477e-05
-4.87158e-05
2.76571e-05
-4.37665e-05
1.31042e-05
-3.27015e-05
-6.08858e-06
-1.49249e-05
-2.98756e-05
1.00522e-05
-5.81737e-05
4.26171e-05
-9.0853e-05
8.30526e-05
-0.000127732
0.000131527
-0.000168573
0.000188079
-0.000213076
0.000252602
-0.000260874
0.000324824
-0.000311531
0.000404288
-0.000364528
0.000490346
-0.000419255
0.000582161
-0.000474996
0.000678772
-0.00053087
0.000779244
-0.000585681
0.000883002
-0.000637422
0.000990369
-0.000681968
-0.00070892
0.00110354
-3.80362e-06
1.62817e-05
-1.15136e-05
3.64698e-05
-2.03296e-05
4.74862e-05
-2.8067e-05
5.09277e-05
-3.29967e-05
4.76801e-05
-3.37333e-05
3.82843e-05
-2.91493e-05
2.30731e-05
-1.83136e-05
2.2685e-06
-4.5073e-07
-2.39515e-05
2.50829e-05
-5.54093e-05
5.881e-05
-9.19007e-05
0.000101133
-0.000133176
0.000152329
-0.000178928
0.000212539
-0.000228782
0.000281751
-0.000282288
0.000359789
-0.000338913
0.000446296
-0.000398038
0.000540711
-0.000458943
0.000642256
-0.0005208
0.000749909
-0.000582649
0.000862399
-0.000643361
0.000978256
-0.000701538
0.00109602
-0.000755183
0.00121486
-0.000800812
-0.000831702
0.00133764
-3.17257e-06
1.94542e-05
-9.27787e-06
4.25751e-05
-1.56423e-05
5.38506e-05
-2.01244e-05
5.54098e-05
-2.09903e-05
4.85461e-05
-1.68225e-05
3.41165e-05
-6.44833e-06
1.2699e-05
1.11103e-05
-1.52901e-05
3.66689e-05
-4.951e-05
7.08969e-05
-8.96374e-05
0.000114324
-0.000135327
0.000167335
-0.000186188
0.000230169
-0.000241762
0.000302903
-0.000301517
0.000385452
-0.000364836
0.000477557
-0.000431018
0.000578792
-0.000499273
0.000688564
-0.000568715
0.000806124
-0.000638359
0.000930567
-0.000707091
0.00106083
-0.000773619
0.00119562
-0.000836328
0.00133315
-0.00089272
0.00147003
-0.000937688
-0.00096045
0.00159878
-2.47741e-06
2.19316e-05
-6.79368e-06
4.68914e-05
-1.041e-05
5.7467e-05
-1.12359e-05
5.62357e-05
-7.54144e-06
4.48516e-05
2.11277e-06
2.44623e-05
1.89306e-05
-4.11888e-06
4.39186e-05
-4.02781e-05
7.79073e-05
-8.34988e-05
0.000121561
-0.000133291
0.000175377
-0.000189143
0.00023968
-0.000250491
0.000314618
-0.0003167
0.000400155
-0.000387053
0.000496073
-0.000460754
0.000601982
-0.000536928
0.000717348
-0.000614638
0.000841526
-0.000692893
0.000973837
-0.00077067
0.00111368
-0.000846933
0.00126072
-0.000920658
0.00141522
-0.000990834
0.00157886
-0.00105636
0.00175719
-0.00111602
-0.00116798
0.00196472
-1.74233e-06
2.3674e-05
-4.13368e-06
4.92828e-05
-4.76764e-06
5.8101e-05
-1.60918e-06
5.30772e-05
7.05888e-06
3.61835e-05
2.26843e-05
8.83682e-06
4.64838e-05
-2.79183e-05
7.94669e-05
-7.32611e-05
0.000122447
-0.000126479
0.000176042
-0.000186886
0.000240669
-0.00025377
0.000316534
-0.000326357
0.00040363
-0.000403796
0.000501733
-0.000485157
0.000610414
-0.000569435
0.000729058
-0.000655572
0.0008569
-0.00074248
0.000993078
-0.000829072
0.00113671
-0.0009143
0.00128698
-0.000997204
0.00144328
-0.00107696
0.00160539
-0.00115294
0.00177377
-0.00122474
0.00194984
-0.00129209
-0.00135151
0.00213337
-9.90073e-07
2.4664e-05
-1.36645e-06
4.96591e-05
1.15658e-06
5.55779e-05
8.55744e-06
4.56763e-05
2.25315e-05
2.22095e-05
4.45191e-05
-1.31508e-05
7.57264e-05
-5.91256e-05
0.000117135
-0.00011467
0.0001695
-0.000178844
0.000233345
-0.000250731
0.000308946
-0.00032937
0.000396324
-0.000413735
0.000495245
-0.000502716
0.000605216
-0.000595128
0.000725515
-0.000689733
0.000855211
-0.000785268
0.000993217
-0.000880486
0.00113834
-0.000974199
0.00128937
-0.00106533
0.00144511
-0.00115294
0.00160447
-0.00123632
0.00176651
-0.00131498
0.00193046
-0.00138869
0.00209557
-0.0014572
-0.00151659
0.00226065
-2.37817e-07
2.49019e-05
1.45406e-06
4.79673e-05
7.25928e-06
4.97727e-05
1.91011e-05
3.38345e-05
3.86439e-05
2.66668e-06
6.7302e-05
-4.18088e-05
0.000106243
-9.80665e-05
0.000156382
-0.000164809
0.000218369
-0.000240831
0.000292572
-0.000324933
0.00037906
-0.000415859
0.000477598
-0.000512273
0.000587642
-0.000612761
0.000708363
-0.000715849
0.000838672
-0.000820042
0.000977269
-0.000923866
0.0011227
-0.00102592
0.00127343
-0.00112493
0.00142791
-0.0012198
0.0015846
-0.00130963
0.00174207
-0.0013938
0.001899
-0.00147191
0.00205412
-0.00154381
0.00220624
-0.00160932
-0.00166507
0.00235471
5.0439e-07
2.43975e-05
4.2939e-06
4.41777e-05
1.34722e-05
4.05944e-05
2.99102e-05
1.73966e-05
5.52306e-05
-2.26537e-05
9.07995e-05
-7.73778e-05
0.000137712
-0.000144979
0.000196771
-0.000223868
0.000268463
-0.000312524
0.000352934
-0.000409404
0.000449972
-0.000512896
0.000559004
-0.000621305
0.000679114
-0.000732871
0.000809071
-0.000845806
0.000947384
-0.000958354
0.00109237
-0.00106885
0.00124222
-0.00117577
0.00139511
-0.00127782
0.00154924
-0.00137393
0.00170292
-0.00146331
0.00185458
-0.00154546
0.00200283
-0.00162016
0.00214642
-0.00168741
0.00228431
-0.0017472
-0.00179706
0.0024163
1.23429e-06
2.31632e-05
7.14124e-06
3.82708e-05
1.97662e-05
2.79694e-05
4.0929e-05
-3.76624e-06
7.21977e-05
-5.39224e-05
0.000114862
-0.000120043
0.000169904
-0.000200021
0.000237958
-0.000291922
0.000319279
-0.000393845
0.000413715
-0.00050384
0.000520695
-0.000619876
0.000639241
-0.000739851
0.000768001
-0.000861631
0.000905313
-0.000983118
0.00104928
-0.00110232
0.00119787
-0.00121744
0.00134901
-0.00132691
0.00150067
-0.00142949
0.00165098
-0.00152424
0.00179825
-0.00161057
0.00194102
-0.00168823
0.00207809
-0.00175722
0.0022085
-0.00181781
0.00233157
-0.00187027
-0.00191302
0.00244753
1.95674e-06
2.12064e-05
1.00046e-05
3.02229e-05
2.61475e-05
1.18266e-05
5.21518e-05
-2.97706e-05
8.95121e-05
-9.12827e-05
0.000139407
-0.000169938
0.000202653
-0.000263266
0.00027965
-0.000368919
0.000370345
-0.00048454
0.000474209
-0.000607703
0.000590235
-0.000735903
0.000716982
-0.000866598
0.000852634
-0.000997283
0.000995098
-0.00112558
0.00114212
-0.00124934
0.00129139
-0.00136671
0.0014407
-0.00147622
0.00158798
-0.00157677
0.00173144
-0.00166769
0.00186957
-0.00174871
0.0020012
-0.00181986
0.00212549
-0.00188151
0.00224189
-0.00193421
0.00235016
-0.00197855
-0.00201374
0.00245088
2.68204e-06
1.85244e-05
1.2908e-05
1.9997e-05
3.26483e-05
-7.91378e-06
6.36071e-05
-6.07294e-05
0.000107178
-0.000134854
0.000164384
-0.000227144
0.000235812
-0.000334694
0.000321552
-0.000454659
0.000421162
-0.00058415
0.000533655
-0.000720195
0.000657529
-0.000859777
0.000790843
-0.000999912
0.000931323
-0.00113776
0.00107649
-0.00127075
0.00122383
-0.00139668
0.0013709
-0.00151378
0.00151546
-0.00162078
0.0016556
-0.00171691
0.00178976
-0.00180185
0.00191677
-0.00187572
0.00203587
-0.00193896
0.00214664
-0.00199228
0.00224898
-0.00203655
0.00234309
-0.00207265
-0.00210045
0.0024298
3.42351e-06
1.51009e-05
1.58836e-05
7.53691e-06
3.93137e-05
-3.13439e-05
7.53363e-05
-9.6752e-05
0.000125207
-0.000184724
0.000189735
-0.000291672
0.000269205
-0.000414164
0.000363315
-0.000548769
0.000471149
-0.000691984
0.000591195
-0.000840242
0.00072142
-0.000990002
0.000859385
-0.00113788
0.00100241
-0.00128078
0.00114772
-0.00141607
0.00129266
-0.00154162
0.00143481
-0.00165593
0.0015721
-0.00175807
0.0017029
-0.0018477
0.00182601
-0.00192497
0.00194071
-0.00199043
0.00204669
-0.00204493
0.00214395
-0.00208955
0.00223283
-0.00212543
0.00231387
-0.00215369
-0.00217468
0.0023881
4.1949e-06
1.0906e-05
1.89641e-05
-7.23231e-06
4.61868e-05
-5.85666e-05
8.7372e-05
-0.000137937
0.000143587
-0.000240939
0.000215359
-0.000363444
0.000302587
-0.000501393
0.000404493
-0.000650675
0.000519613
-0.000807104
0.000645867
-0.000966496
0.000780683
-0.00112482
0.000921174
-0.00127837
0.00106434
-0.00142394
0.00120725
-0.00155899
0.00134728
-0.00168165
0.00148218
-0.00179083
0.00161019
-0.00188608
0.00173008
-0.00196759
0.00184113
-0.00203602
0.00194308
-0.00209237
0.00203603
-0.00213789
0.00212043
-0.00217395
0.00219691
-0.00220191
0.00226628
-0.00222306
-0.00223806
0.00232967
5.00813e-06
5.89785e-06
2.21761e-05
-2.44002e-05
5.32958e-05
-8.96863e-05
9.97182e-05
-0.00018436
0.000162259
-0.000303479
0.000241083
-0.000442268
0.00033562
-0.00059593
0.000444532
-0.000759587
0.000565756
-0.000928328
0.000696631
-0.00109737
0.000834085
-0.00126227
0.00097487
-0.00141915
0.0011158
-0.00156487
0.00125396
-0.00169715
0.0013869
-0.00181459
0.0015127
-0.00191662
0.00163003
-0.00200341
0.00173814
-0.0020757
0.00183679
-0.00213466
0.00192616
-0.00218174
0.00200677
-0.0022185
0.00207934
-0.00224652
0.00214477
-0.00226734
0.002204
-0.00228229
-0.00229221
0.00225815
5.87155e-06
2.63079e-08
2.55341e-05
-4.40628e-05
6.06449e-05
-0.000124797
0.000112337
-0.000236052
0.0001811
-0.000372242
0.000266651
-0.000527819
0.000367864
-0.000697143
0.000482779
-0.000874501
0.000608708
-0.00105426
0.000742434
-0.0012311
0.00088047
-0.00140031
0.00101934
-0.00155802
0.00115582
-0.00170136
0.00128719
-0.00182853
0.00141132
-0.00193872
0.00152673
-0.00203203
0.00163259
-0.00210928
0.00172866
-0.00217177
0.00181514
-0.00222115
0.00189262
-0.00225922
0.0019619
-0.00228778
0.00202395
-0.00230857
0.00207976
-0.00232315
0.00213034
-0.00233286
-0.00233863
0.00217675
6.78896e-06
-6.76265e-06
2.90384e-05
-6.63122e-05
6.82088e-05
-0.000163967
0.000125145
-0.000292988
0.000199923
-0.000447021
0.000291726
-0.000619622
0.000398798
-0.000804214
0.000518515
-0.000994219
0.000647578
-0.00118332
0.000782283
-0.0013658
0.000918848
-0.00153687
0.00105372
-0.00169289
0.00118384
-0.00183148
0.00130679
-0.00195147
0.00142089
-0.00205282
0.00152518
-0.00213633
0.00161936
-0.00220345
0.00170364
-0.00225604
0.00177863
-0.00229614
0.00184521
-0.00232579
0.0019044
-0.00234697
0.00195726
-0.00236144
0.00200485
-0.00237074
0.00204814
-0.00237615
-0.00237859
0.0020881
7.75945e-06
-1.45221e-05
3.26735e-05
-9.12263e-05
7.59322e-05
-0.000207226
0.000138008
-0.000355065
0.000218478
-0.00052749
0.000315903
-0.000717047
0.000427843
-0.000916153
0.000551004
-0.00111738
0.000681523
-0.00131384
0.000815323
-0.0014996
0.000948476
-0.00167003
0.00107753
-0.00182194
0.00119972
-0.00195366
0.00131308
-0.00206483
0.00141645
-0.0021562
0.00150942
-0.0022293
0.00159215
-0.00228619
0.00166528
-0.00232917
0.00172972
-0.00236058
0.00178656
-0.00238263
0.00183693
-0.00239734
0.00188192
-0.00240644
0.00192256
-0.00241138
0.00195974
-0.00241333
-0.00241315
0.00199431
8.77764e-06
-2.32997e-05
3.64099e-05
-0.000118859
8.37324e-05
-0.000254549
0.000150757
-0.000422089
0.000236467
-0.000613201
0.000338736
-0.000819315
0.000454405
-0.00103182
0.000579541
-0.00124252
0.000709809
-0.00144411
0.000840895
-0.00163069
0.0009689
-0.00179803
0.00109063
-0.00194367
0.00120374
-0.00206677
0.0013068
-0.0021679
0.00139921
-0.00224861
0.00148105
-0.00231114
0.00155293
-0.00235807
0.00161579
-0.00239203
0.00167077
-0.00241556
0.00171906
-0.00243092
0.00176183
-0.0024401
0.00180013
-0.00244474
0.0018349
-0.00244615
0.00186695
-0.00244538
-0.00244317
0.00189697
9.83433e-06
-3.31341e-05
4.02057e-05
-0.00014923
9.15043e-05
-0.000305847
0.000163187
-0.000493772
0.000253564
-0.000703577
0.000359763
-0.000925514
0.000477913
-0.00114997
0.000603505
-0.00136811
0.000731857
-0.00157246
0.000858583
-0.00175742
0.000979973
-0.00191942
0.00109322
-0.00205692
0.00119653
-0.00217008
0.00128901
-0.00226038
0.00137061
-0.0023302
0.00144185
-0.00238238
0.00150368
-0.0024199
0.00155729
-0.00244564
0.00160392
-0.00246219
0.0016448
-0.0024718
0.00168105
-0.00247636
0.00171366
-0.00247735
0.00174347
-0.00247596
0.00177115
-0.00247306
-0.00246929
0.00179727
1.09173e-05
-4.40514e-05
4.40092e-05
-0.000182322
9.91262e-05
-0.000360964
0.000175079
-0.000569724
0.00026943
-0.000797928
0.000378539
-0.00103462
0.000497855
-0.00126929
0.000622395
-0.00149265
0.000747281
-0.00169735
0.00086822
-0.00187835
0.00098184
-0.00203304
0.00108584
-0.00216092
0.00117898
-0.00226322
0.00126096
-0.00234236
0.00133218
-0.00240142
0.00139355
-0.00244375
0.00144627
-0.00247262
0.00149165
-0.00249102
0.00153099
-0.00250152
0.00156547
-0.00250629
0.00159615
-0.00250704
0.00162391
-0.00250511
0.00164946
-0.00250151
0.00167337
-0.00249697
-0.002492
0.00169608
1.2012e-05
-5.60634e-05
4.77624e-05
-0.000218072
0.000106467
-0.000419669
0.000186204
-0.000649461
0.000283737
-0.000895462
0.000394657
-0.00114554
0.000513807
-0.00138844
0.000635857
-0.0016147
0.000755896
-0.00181738
0.000869881
-0.00199234
0.000974899
-0.00213806
0.00106922
-0.00225524
0.00115218
-0.00234618
0.00122399
-0.00241417
0.00128548
-0.0024629
0.00133782
-0.0024961
0.00138238
-0.00251718
0.00142052
-0.00252916
0.00145352
-0.00253452
0.00148248
-0.00253525
0.00150836
-0.00253292
0.00153192
-0.00252867
0.00155376
-0.00252335
0.00157434
-0.00251755
-0.00251166
0.001594
1.31024e-05
-6.91658e-05
5.14027e-05
-0.000256373
0.00011339
-0.000481656
0.000196339
-0.00073241
0.000296181
-0.000995303
0.000407773
-0.00125714
0.000525453
-0.00150612
0.000643696
-0.00173294
0.000757716
-0.0019314
0.000863857
-0.00209848
0.00095975
-0.00223395
0.00104426
-0.00233975
0.00111728
-0.0024192
0.00117947
-0.00247636
0.00123197
-0.0025154
0.00127616
-0.00254029
0.00131347
-0.0025545
0.00134527
-0.00256095
0.00137275
-0.00256199
0.00139693
-0.00255943
0.00141863
-0.00255462
0.0014385
-0.00254854
0.00145703
-0.00254188
0.0014746
-0.00253512
-0.00252852
0.00149146
1.41711e-05
-8.33369e-05
5.4866e-05
-0.000297067
0.000119763
-0.000546553
0.000205274
-0.000817921
0.000306496
-0.00109653
0.000417618
-0.00136826
0.000532597
-0.0016211
0.000645873
-0.00184622
0.000752932
-0.00203846
0.000850611
-0.00219616
0.000937134
-0.00232047
0.00101195
-0.00241456
0.00107546
-0.00248271
0.00112868
-0.00252958
0.00117299
-0.00255971
0.00120988
-0.00257718
0.00124079
-0.00258541
0.00126703
-0.00258719
0.00128968
-0.00258465
0.00130965
-0.0025794
0.00132765
-0.00257262
0.00134421
-0.0025651
0.00135974
-0.00255741
0.00137452
-0.0025499
-0.00254275
0.00138875
1.52006e-05
-9.85375e-05
5.80886e-05
-0.000339955
0.000125459
-0.000613924
0.000212823
-0.000905285
0.000314468
-0.00119817
0.000424009
-0.0014778
0.000535165
-0.00173225
0.000642494
-0.00195355
0.000741884
-0.00213785
0.000830735
-0.00228501
0.00090788
-0.00239762
0.000973312
-0.00248
0.00102785
-0.00253725
0.00107282
-0.00257454
0.00110973
-0.00259662
0.00114011
-0.00260756
0.00116536
-0.00261066
0.00118669
-0.00260851
0.00120507
-0.00260303
0.0012213
-0.00259563
0.00123595
-0.00258727
0.00124949
-0.00257864
0.00126222
-0.00257014
0.00127436
-0.00256204
-0.00255445
0.00128607
1.61729e-05
-0.00011471
6.10096e-05
-0.000384792
0.000130362
-0.000683277
0.000218828
-0.000993751
0.000319938
-0.00129928
0.000426849
-0.00158471
0.000533194
-0.0018386
0.000633791
-0.00205414
0.000725026
-0.00222909
0.000804905
-0.00236489
0.000872846
-0.00246556
0.000929333
-0.00253648
0.000975532
-0.00258345
0.00101296
-0.00261197
0.0010432
-0.00262687
0.00106778
-0.00263214
0.001088
-0.00263089
0.00110496
-0.00262547
0.00111952
-0.00261759
0.00113235
-0.00260845
0.00114393
-0.00259886
0.00115463
-0.00258934
0.00116471
-0.00258022
0.00117432
-0.00257166
-0.00256372
0.00118359
1.70706e-05
-0.000131781
6.3572e-05
-0.000431293
0.000134373
-0.000754077
0.000223167
-0.00108255
0.000322809
-0.00139892
0.000426129
-0.00168803
0.000526825
-0.00193929
0.000620095
-0.00214741
0.000702893
-0.00231189
0.000773836
-0.00243583
0.000832889
-0.00252461
0.000880949