/*--------------------------------*- C++ -*----------------------------------*\
  =========                 |
  \\      /  F ield         | OpenFOAM: The Open Source CFD Toolbox
   \\    /   O peration     | Website:  https://openfoam.org
    \\  /    A nd           | Version:  6.0
     \\/     M anipulation  |
\*---------------------------------------------------------------------------*/
FoamFile
{
    version     2.0;
    format      ascii;
    class       volVectorField;
    location    "89";
    object      U;
}
// * * * * * * * * * * * * * * * * * * * * * * * * * * * * * * * * * * * * * //

dimensions      [0 1 -1 0 0 0 0];

internalField   nonuniform List<vector> 
12500
(
(4.06455e-06 -0.0446964 -1.59394e-21)
(-0.00233671 -0.10343 2.09639e-20)
(-0.00811747 -0.138992 -3.04576e-20)
(-0.015911 -0.157102 1.40491e-20)
(-0.0248803 -0.16243 9.09648e-22)
(-0.0344865 -0.158693 -1.85428e-21)
(-0.0443005 -0.148739 -2.59564e-20)
(-0.0539931 -0.134675 1.4344e-20)
(-0.0633156 -0.118003 9.39115e-21)
(-0.072075 -0.0997463 9.68466e-21)
(-0.0801159 -0.0805686 -1.64139e-20)
(-0.0873104 -0.0608739 9.62224e-21)
(-0.0935511 -0.0408859 -4.53831e-21)
(-0.0987488 -0.0207081 7.6769e-21)
(-0.102832 -0.000368241 -1.9728e-20)
(-0.10575 0.0201521 2.8916e-20)
(-0.107473 0.0408975 -5.68746e-21)
(-0.108002 0.061926 -2.02942e-20)
(-0.107372 0.0833013 1.02254e-20)
(-0.105653 0.105087 -9.78022e-21)
(-0.102939 0.127343 8.8837e-21)
(-0.0993616 0.150115 1.20113e-20)
(-0.0952938 0.173433 1.10136e-21)
(-0.0914664 0.197328 -3.3949e-20)
(-0.0869186 0.221855 1.897e-20)
(0.001245 -0.0429091 2.57946e-20)
(0.000346155 -0.098904 -6.98602e-20)
(-0.00480917 -0.13246 2.10366e-20)
(-0.0124685 -0.149158 1.39618e-20)
(-0.0215949 -0.153562 -1.1243e-20)
(-0.0315234 -0.149295 -6.36001e-20)
(-0.0417424 -0.139132 1.90974e-20)
(-0.0518733 -0.125122 -3.58385e-20)
(-0.0616404 -0.108727 4.32553e-20)
(-0.0708387 -0.0909447 -5.80859e-20)
(-0.0793108 -0.0724243 3.14157e-20)
(-0.0869323 -0.0535594 9.74397e-21)
(-0.0936019 -0.0345654 -2.56332e-20)
(-0.0992375 -0.0155366 -1.16475e-20)
(-0.103774 0.00351243 8.34132e-20)
(-0.107166 0.0226192 -7.37461e-20)
(-0.109388 0.0418552 1.74247e-20)
(-0.110439 0.0613151 3.05709e-20)
(-0.11035 0.0811097 -7.63065e-21)
(-0.109187 0.101362 5.02153e-20)
(-0.107038 0.122201 8.66811e-21)
(-0.104024 0.143754 -2.60653e-21)
(-0.10048 0.166135 -6.24231e-20)
(-0.0970695 0.189463 5.77855e-20)
(-0.0930473 0.213933 -1.15722e-19)
(0.00238413 -0.0409552 8.09843e-20)
(0.00282625 -0.0940556 2.85826e-20)
(-0.00169488 -0.125573 -3.6687e-20)
(-0.00914633 -0.140902 1.55021e-20)
(-0.0183133 -0.144462 1.55016e-20)
(-0.0284167 -0.139761 5.77855e-20)
(-0.0388708 -0.12948 -7.32115e-20)
(-0.049252 -0.115604 -1.11732e-20)
(-0.0592614 -0.0995492 -4.90371e-20)
(-0.0686849 -0.0822874 -4.12679e-20)
(-0.0773657 -0.0644509 5.46493e-20)
(-0.0851853 -0.046425 -1.80814e-19)
(-0.0920519 -0.0284189 -4.90523e-21)
(-0.097894 -0.0105205 -1.08432e-19)
(-0.102657 0.00726512 -1.26432e-20)
(-0.106304 0.0249903 1.61009e-20)
(-0.108815 0.0427485 -8.39576e-20)
(-0.110196 0.0606647 -5.24277e-20)
(-0.110475 0.0788906 -6.27905e-20)
(-0.109716 0.0976008 9.91794e-20)
(-0.108004 0.11699 3.66238e-20)
(-0.105456 0.13726 -1.57958e-19)
(-0.102361 0.158612 -7.64957e-20)
(-0.0993093 0.181262 -8.40456e-20)
(-0.0958191 0.205542 2.44749e-19)
(0.00341043 -0.0388818 -3.6015e-21)
(0.00507474 -0.0889876 -6.49569e-20)
(0.00117687 -0.118465 -2.95292e-20)
(-0.00601322 -0.132482 1.7987e-20)
(-0.0151254 -0.135285 1.20784e-19)
(-0.0252781 -0.130245 -5.57812e-20)
(-0.0358191 -0.119938 1.17414e-19)
(-0.0462849 -0.106275 1.11396e-19)
(-0.0563558 -0.0906225 6.86259e-20)
(-0.0658108 -0.0739217 -1.56829e-21)
(-0.074495 -0.056789 1.38846e-19)
(-0.0822983 -0.0396011 2.36884e-20)
(-0.0891404 -0.0225629 1.06067e-19)
(-0.0949629 -0.00575821 2.42591e-19)
(-0.0997245 0.0108144 -2.81697e-19)
(-0.1034 0.0272174 4.22762e-19)
(-0.105982 0.0435606 9.16732e-20)
(-0.107481 0.0599928 -2.00691e-19)
(-0.107931 0.0766986 -2.92066e-20)
(-0.107397 0.0938968 7.51042e-20)
(-0.105965 0.111839 -3.55604e-20)
(-0.103753 0.130798 -1.96343e-20)
(-0.101005 0.151059 -1.99918e-20)
(-0.0982275 0.172947 -8.35218e-20)
(-0.0952454 0.19692 3.17867e-19)
(0.00431633 -0.0367302 4.02388e-20)
(0.00706893 -0.0837895 -1.97382e-19)
(0.00376209 -0.111251 2.39732e-19)
(-0.00313694 -0.124026 -9.70018e-20)
(-0.0121237 -0.126164 1.14754e-19)
(-0.0222261 -0.120884 9.2742e-20)
(-0.0327322 -0.110645 3.53236e-20)
(-0.043143 -0.0972758 -4.21789e-22)
(-0.0531203 -0.0820883 2.01778e-19)
(-0.0624373 -0.0659908 1.38683e-19)
(-0.0709424 -0.0495817 -5.82838e-20)
(-0.0785342 -0.0332291 -3.70687e-20)
(-0.0851454 -0.017134 1.52202e-19)
(-0.0907322 -0.0013777 2.91556e-20)
(-0.0952688 0.0140446 7.62293e-20)
(-0.0987449 0.029202 1.86201e-19)
(-0.101166 0.0442151 -1.64606e-19)
(-0.102554 0.0592499 1.34291e-19)
(-0.102951 0.074516 -2.81184e-19)
(-0.102428 0.0902677 2.35949e-19)
(-0.101079 0.106804 7.71982e-22)
(-0.0990281 0.124462 -1.8408e-19)
(-0.0964795 0.143612 7.76763e-20)
(-0.0938432 0.164688 1.71197e-19)
(-0.0912857 0.188266 -2.66654e-19)
(0.0050969 -0.0345333 2.04063e-19)
(0.00879026 -0.078533 -2.25092e-19)
(0.00601985 -0.104022 -3.8686e-20)
(-0.000583954 -0.115634 4.52608e-20)
(-0.00940175 -0.117206 -1.0163e-19)
(-0.019382 -0.111789 -1.60591e-19)
(-0.0297602 -0.101717 -1.32619e-19)
(-0.0400053 -0.0887281 -3.22858e-20)
(-0.0497628 -0.0740753 -2.32236e-19)
(-0.0588006 -0.0586307 1.78915e-19)
(-0.0669705 -0.0429723 -2.85699e-19)
(-0.0741801 -0.0274585 1.42117e-19)
(-0.080375 -0.0122862 -5.11737e-20)
(-0.0855265 0.00246461 1.11217e-19)
(-0.0896249 0.0168004 -2.78721e-19)
(-0.0926762 0.0307935 1.3023e-19)
(-0.0947011 0.0445709 7.36818e-21)
(-0.0957358 0.0583098 5.95613e-20)
(-0.095835 0.0722378 3.56074e-19)
(-0.0950774 0.0866357 7.44645e-20)
(-0.0935726 0.101841 -1.02486e-20)
(-0.0914591 0.118246 2.15516e-20)
(-0.0889056 0.136302 1.46886e-19)
(-0.0862197 0.15656 3.92634e-20)
(-0.0839269 0.179688 1.40787e-19)
(0.00574868 -0.0323154 -1.27494e-19)
(0.0102228 -0.0732705 1.87712e-19)
(0.00791201 -0.0968457 1.11458e-20)
(0.00158165 -0.107384 -2.31179e-19)
(-0.00705123 -0.108493 4.82525e-19)
(-0.0168662 -0.103047 -1.58569e-19)
(-0.027053 -0.0932466 2.29045e-19)
(-0.0370523 -0.0807324 2.11958e-19)
(-0.0464945 -0.0666943 -1.76641e-19)
(-0.0551431 -0.0519638 -2.56219e-19)
(-0.0628525 -0.0370963 6.96915e-20)
(-0.0695387 -0.0224385 -7.30535e-20)
(-0.0751593 -0.0081828 -3.26293e-19)
(-0.0796999 0.00559238 3.91314e-19)
(-0.0831666 0.0188938 -1.87325e-19)
(-0.0855816 0.0317951 -1.30004e-19)
(-0.0869817 0.0444263 -2.11261e-21)
(-0.0874189 0.0569712 1.00908e-19)
(-0.086962 0.0696688 4.32795e-20)
(-0.0857037 0.0828195 -1.70238e-19)
(-0.083772 0.0967902 1.85323e-19)
(-0.0813279 0.112019 -3.31737e-19)
(-0.0785147 0.129032 1.98697e-19)
(-0.0755338 0.148502 -1.55188e-19)
(-0.0732701 0.171164 4.38425e-20)
(0.00626852 -0.0300914 1.76656e-19)
(0.0113517 -0.0680351 -1.41337e-19)
(0.00940219 -0.0897662 -9.14679e-20)
(0.00329871 -0.0993248 -1.61244e-19)
(-0.00515959 -0.100079 -2.98162e-19)
(-0.0147938 -0.0947173 -2.22369e-19)
(-0.0247544 -0.0852987 1.36172e-19)
(-0.0344576 -0.0733635 -2.07836e-19)
(-0.0435208 -0.060032 2.65677e-19)
(-0.0517028 -0.0460919 -4.32304e-19)
(-0.0588601 -0.0320728 1.91704e-19)
(-0.0649157 -0.018308 4.05693e-19)
(-0.0698374 -0.00498394 -5.68346e-19)
(-0.0736235 0.00782292 8.04573e-20)
(-0.0762942 0.0201195 1.03428e-19)
(-0.0778866 0.0319793 1.01784e-19)
(-0.0784528 0.0435337 -1.12605e-19)
(-0.0780605 0.0549696 -3.09195e-20)
(-0.0767942 0.0665335 -7.69561e-20)
(-0.0747628 0.0785391 -6.76436e-20)
(-0.0721165 0.0913755 -3.53414e-19)
(-0.0690462 0.105517 -2.19389e-20)
(-0.0656825 0.121563 2.23078e-21)
(-0.0621231 0.140302 -1.6015e-19)
(-0.0595948 0.162517 1.69282e-19)
(0.00665256 -0.0278678 3.70308e-21)
(0.0121613 -0.0628416 5.79539e-20)
(0.0104556 -0.0828036 5.91444e-20)
(0.00451047 -0.0914797 3.7184e-20)
(-0.00380674 -0.0919897 2.97634e-19)
(-0.0132689 -0.0868288 2.78408e-19)
(-0.0229944 -0.0779097 -2.28893e-19)
(-0.032379 -0.0666662 -6.6796e-20)
(-0.0410291 -0.0541455 -6.14203e-20)
(-0.0486994 -0.0410878 3.1893e-19)
(-0.0552475 -0.027994 1.11812e-19)
(-0.0606018 -0.015182 -1.68083e-19)
(-0.064738 -0.00283067 -1.38919e-19)
(-0.0676647 0.00898607 3.36693e-19)
(-0.0694134 0.0202755 -8.28495e-20)
(-0.0700334 0.0311109 -9.8409e-20)
(-0.0695899 0.0416238 -1.38113e-19)
(-0.0681647 0.0520031 -1.05598e-19)
(-0.0658577 0.0625002 -1.32313e-19)
(-0.0627949 0.0734386 -8.66392e-20)
(-0.0591508 0.085225 3.60178e-19)
(-0.0551523 0.0983638 -1.74325e-19)
(-0.0509324 0.113519 1.16972e-19)
(-0.046497 0.1316 -3.05674e-19)
(-0.0433819 0.153415 1.33188e-19)
(0.00689551 -0.0256435 -1.53595e-19)
(0.0126351 -0.0576891 -4.00025e-20)
(0.0110395 -0.0759577 -3.26059e-19)
(0.00516684 -0.0838492 -1.55147e-19)
(-0.0030608 -0.0842258 -3.11727e-19)
(-0.0123788 -0.0793842 -3.26691e-20)
(-0.0218808 -0.0710854 1.68489e-19)
(-0.0309473 -0.0606527 -1.00188e-19)
(-0.0391759 -0.0490567 2.20997e-19)
(-0.0463182 -0.036987 -5.35371e-19)
(-0.0522325 -0.0249135 -1.38882e-20)
(-0.0568506 -0.0131363 9.48009e-20)
(-0.0601541 -0.00182596 -1.20307e-19)
(-0.0621586 0.00894712 1.0784e-19)
(-0.0629034 0.0191908 -8.09213e-20)
(-0.0624464 0.0289782 -1.71863e-19)
(-0.0608625 0.0384409 3.13274e-19)
(-0.0582441 0.0477696 1.91547e-19)
(-0.0547041 0.0572202 -3.98088e-20)
(-0.0503848 0.0671255 1.21874e-19)
(-0.0454859 0.0779077 -2.41954e-19)
(-0.040274 0.0900986 3.45865e-19)
(-0.0349015 0.104424 -4.71819e-19)
(-0.0293033 0.121915 9.96613e-20)
(-0.0252854 0.143394 -1.88126e-19)
(0.0069903 -0.0234121 7.79184e-21)
(0.0127553 -0.0525649 -1.33806e-19)
(0.0111248 -0.0692127 2.07475e-19)
(0.00522753 -0.0764142 4.2627e-19)
(-0.00297298 -0.0767657 -4.99807e-21)
(-0.0121863 -0.0723595 4.84193e-20)
(-0.0214896 -0.0648012 -1.82444e-19)
(-0.0302536 -0.0553004 8.86587e-20)
(-0.0380709 -0.0447479 5.91827e-19)
(-0.0446911 -0.0337806 -1.35401e-19)
(-0.0499732 -0.0228353 -1.56527e-19)
(-0.0538514 -0.0121931 5.96071e-19)
(-0.0563108 -0.0020152 1.89472e-19)
(-0.0573708 0.00763158 8.98901e-20)
(-0.0570748 0.0167557 8.95986e-20)
(-0.055485 0.0254297 2.5076e-19)
(-0.0526809 0.0337854 -9.63529e-20)
(-0.0487612 0.0420154 2.44924e-19)
(-0.0438476 0.0503813 3.30634e-19)
(-0.0380957 0.059227 -2.84007e-19)
(-0.0317289 0.0689925 4.14685e-19)
(-0.0250557 0.0802385 1.39725e-19)
(-0.0182641 0.093754 -5.43183e-19)
(-0.0112486 0.110698 7.74975e-19)
(-0.00604993 0.131904 -6.50881e-19)
(0.0069283 -0.021164 -3.6995e-19)
(0.0125043 -0.0474496 2.14626e-19)
(0.0106881 -0.0625424 -1.43503e-19)
(0.00466609 -0.0691421 -1.39589e-19)
(-0.00357187 -0.0695698 -1.46751e-19)
(-0.012722 -0.0657085 -1.62045e-19)
(-0.0218547 -0.0590049 4.60482e-20)
(-0.0303371 -0.0505522 4.22873e-19)
(-0.037761 -0.04116 -9.39885e-20)
(-0.0438764 -0.0314104 -2.36891e-19)
(-0.0485437 -0.0217057 -1.42039e-19)
(-0.051699 -0.0123079 -5.95692e-20)
(-0.0533287 -0.00336822 1.64103e-19)
(-0.0534536 0.00504925 -1.09783e-19)
(-0.0521175 0.0129526 -3.52375e-19)
(-0.0493824 0.0204128 -3.82032e-19)
(-0.0453271 0.0275609 1.50671e-19)
(-0.0400508 0.0345915 -2.79326e-19)
(-0.033678 0.041773 2.3068e-19)
(-0.0263731 0.0494634 -6.61989e-19)
(-0.0183792 0.0581263 4.99389e-19)
(-0.0100466 0.0683586 -6.52069e-19)
(-0.00161264 0.0810213 -8.84828e-21)
(0.00702926 0.0974125 -2.12067e-19)
(0.0136262 0.118386 6.44701e-19)
(0.00670009 -0.0188895 5.63142e-19)
(0.0118662 -0.0423223 8.44929e-20)
(0.00971559 -0.0559167 -5.49071e-20)
(0.00347455 -0.0619929 -2.52211e-20)
(-0.00485728 -0.0625867 4.49004e-19)
(-0.0139769 -0.0593672 1.44765e-19)
(-0.0229579 -0.0536197 1.29861e-19)
(-0.0311717 -0.0463194 -1.06621e-19)
(-0.038214 -0.038193 4.09139e-19)
(-0.0438383 -0.0297669 -2.04171e-19)
(-0.0479079 -0.0214089 1.32961e-19)
(-0.0503606 -0.013361 3.25971e-19)
(-0.0511838 -0.00576607 -1.87164e-19)
(-0.0503971 0.00131362 1.95613e-19)
(-0.0480419 0.00788348 1.83206e-19)
(-0.0441758 0.0140103 6.38741e-20)
(-0.0388721 0.0198217 -1.51742e-19)
(-0.0322238 0.0255125 4.16775e-19)
(-0.0243521 0.0313578 -3.92643e-20)
(-0.015423 0.0377325 -4.18177e-20)
(-0.00569424 0.0451304 4.76108e-19)
(0.00444574 0.054197 -3.31506e-19)
(0.0146991 0.0658815 5.50029e-19)
(0.0251305 0.081642 -4.48352e-19)
(0.0332749 0.102384 5.89145e-19)
(0.00629669 -0.0165812 -2.65148e-19)
(0.0108303 -0.0371663 5.90081e-20)
(0.00820653 -0.0493086 -6.1651e-20)
(0.00166835 -0.0549263 -3.09363e-19)
(-0.00679439 -0.0557603 1.78216e-20)
(-0.0158947 -0.0532614 1.73333e-19)
(-0.0247206 -0.0485515 -7.16938e-19)
(-0.0326557 -0.0424869 5.33364e-19)
(-0.039305 -0.0357106 -5.21228e-19)
(-0.0444293 -0.0286934 -3.29852e-19)
(-0.0478966 -0.0217679 2.90536e-19)
(-0.0496474 -0.015157 -6.24055e-19)
(-0.0496697 -0.00899608 5.2159e-19)
(-0.0479815 -0.00334808 -1.68696e-19)
(-0.0446196 0.00178651 -4.68659e-19)
(-0.0396343 0.00646599 1.1564e-19)
(-0.0330891 0.0108099 -1.10635e-19)
(-0.0250659 0.0150083 3.81228e-20)
(-0.0156753 0.0193395 -1.4446e-19)
(-0.00507802 0.024195 -4.48596e-19)
(0.006461 0.0301042 1.03032e-19)
(0.0185203 0.0377746 -4.93073e-21)
(0.0307351 0.048267 -4.25887e-19)
(0.0430854 0.0632329 2.97286e-19)
(0.0528678 0.08368 -2.65082e-19)
(0.00571137 -0.0142373 1.05534e-19)
(0.00939433 -0.0319751 1.99887e-19)
(0.00617786 -0.042701 2.85308e-19)
(-0.000709209 -0.0479092 1.45423e-19)
(-0.00930913 -0.0490373 -1.45504e-19)
(-0.0183672 -0.0473141 3.47116e-19)
(-0.0269976 -0.0436968 2.57251e-19)
(-0.0346041 -0.0389223 -9.75703e-20)
(-0.0408069 -0.0335502 3.33746e-19)
(-0.0453775 -0.027995 -3.44329e-19)
(-0.0481911 -0.0225543 -1.02004e-19)
(-0.0491923 -0.0174327 1.02827e-19)
(-0.0483703 -0.0127589 1.94759e-19)
(-0.0457414 -0.00859929 3.95787e-21)
(-0.0413374 -0.00496391 1.18847e-19)
(-0.0352003 -0.00180844 2.21333e-19)
(-0.0273818 0.000971418 -3.73438e-19)
(-0.0179493 0.00355292 4.56899e-19)
(-0.00699801 0.00620932 1.42529e-19)
(0.00532303 0.00934238 4.32833e-20)
(0.018749 0.0135162 -5.18382e-19)
(0.0328323 0.0195102 7.23545e-20)
(0.0471392 0.0285224 1.11894e-19)
(0.0615289 0.0424422 -2.51874e-20)
(0.0730082 0.0624542 1.30313e-19)
(0.00494167 -0.0118633 5.75779e-21)
(0.0075683 -0.0267566 -5.12738e-19)
(0.00366788 -0.0360923 -1.62816e-20)
(-0.00358361 -0.0409229 -1.31181e-19)
(-0.0122855 -0.0423754 -8.6548e-19)
(-0.0212322 -0.0414549 7.48568e-19)
(-0.0295758 -0.0389533 -5.33896e-19)
(-0.0367479 -0.0354882 -3.0087e-20)
(-0.0423892 -0.0315357 -2.50684e-19)
(-0.0462851 -0.0274541 4.30717e-19)
(-0.0483203 -0.0235059 -4.61712e-19)
(-0.0484449 -0.0198769 -2.13818e-19)
(-0.0466505 -0.0166904 1.28485e-21)
(-0.0429525 -0.0140172 -4.49015e-19)
(-0.0373792 -0.0118807 6.0959e-19)
(-0.0299653 -0.0102559 -6.94649e-19)
(-0.0207517 -0.00906192 4.71276e-21)
(-0.00979164 -0.00814529 1.03827e-19)
(0.00283587 -0.00725121 -2.50644e-19)
(0.0169968 -0.00598187 2.37721e-19)
(0.0324317 -0.00374954 -3.36898e-19)
(0.0486735 0.000295437 -2.12523e-19)
(0.0652222 0.00750712 3.86063e-19)
(0.0817933 0.0200646 -4.15373e-19)
(0.0950356 0.0394272 -2.38967e-21)
(0.00399142 -0.00947431 -4.10681e-19)
(0.0053778 -0.0215368 4.9244e-19)
(0.000739104 -0.0295018 -1.54965e-19)
(-0.00684768 -0.0339687 2.96908e-19)
(-0.0155657 -0.0357512 3.22889e-19)
(-0.0242756 -0.0356298 -2.85489e-19)
(-0.0321778 -0.0342316 -1.84148e-19)
(-0.0387395 -0.0320559 -2.24084e-19)
(-0.0436256 -0.0294954 2.06294e-19)
(-0.0466385 -0.0268517 -1.627e-20)
(-0.0476736 -0.0243516 2.96829e-19)
(-0.0466879 -0.0221612 2.90039e-19)
(-0.0436765 -0.0203973 -3.40914e-19)
(-0.038656 -0.0191355 6.61564e-19)
(-0.0316537 -0.0184137 -4.33893e-19)
(-0.0227009 -0.01823 -6.54807e-20)
(-0.0118327 -0.0185342 8.12459e-19)
(0.000906322 -0.0192081 -3.76946e-19)
(0.0154486 -0.0200322 2.28018e-19)
(0.0316723 -0.0206348 4.35542e-19)
(0.0493242 -0.020429 -2.81322e-19)
(0.0679225 -0.018515 3.17649e-20)
(0.0869076 -0.0133839 -1.87815e-20)
(0.10585 -0.00251984 -9.91354e-20)
(0.120971 0.0159252 2.04997e-19)
(0.00287259 -0.00709507 9.19837e-20)
(0.00286664 -0.0163613 -3.05008e-19)
(-0.00252055 -0.0229722 1.66695e-19)
(-0.0103626 -0.0270735 -3.12244e-21)
(-0.0189543 -0.0291668 1.284e-19)
(-0.027238 -0.0298099 -2.20625e-19)
(-0.0344732 -0.0294673 1.27162e-19)
(-0.0401679 -0.0285211 3.47077e-19)
(-0.0440149 -0.027281 -1.06092e-20)
(-0.0458349 -0.0259917 -1.73511e-19)
(-0.0455352 -0.0248424 1.71612e-19)
(-0.0430803 -0.0239773 -6.35963e-21)
(-0.0384702 -0.0235045 -5.40653e-19)
(-0.0317256 -0.0235019 2.00049e-19)
(-0.022877 -0.0240202 4.28678e-20)
(-0.0119592 -0.0250811 -7.04511e-20)
(0.000989495 -0.0266679 -1.26847e-19)
(0.015922 -0.0287068 4.94027e-19)
(0.0327699 -0.03103 1.114e-19)
(0.0514129 -0.0333178 -2.48493e-19)
(0.0715984 -0.0350215 -2.84594e-20)
(0.0928306 -0.0352348 3.17266e-19)
(0.1145 -0.0323284 -1.4913e-19)
(0.136061 -0.0234266 5.95884e-20)
(0.15326 -0.00618103 3.90087e-20)
(0.00160638 -0.00475969 -1.82754e-19)
(9.79775e-05 -0.0112948 1.91529e-19)
(-0.00599856 -0.0165708 -1.07739e-19)
(-0.0139617 -0.0202915 -3.47773e-19)
(-0.0222247 -0.0226544 -3.23068e-19)
(-0.0298265 -0.0239991 -1.39522e-19)
(-0.0360941 -0.0246312 -1.19079e-19)
(-0.0405812 -0.0248178 -3.48617e-19)
(-0.0430106 -0.0247866 -1.41664e-19)
(-0.0432222 -0.0247243 1.30096e-19)
(-0.0411358 -0.0247808 -1.8313e-19)
(-0.0367242 -0.0250756 -1.8995e-19)
(-0.0299945 -0.0257036 -1.76037e-19)
(-0.020975 -0.0267402 3.1178e-19)
(-0.00970583 -0.0282441 -6.5642e-19)
(0.00376515 -0.0302555 3.6395e-19)
(0.0193831 -0.0327895 -6.16408e-19)
(0.037082 -0.0358179 -9.12431e-20)
(0.0567732 -0.0392349 -3.21215e-19)
(0.078319 -0.0427971 -7.00406e-20)
(0.101454 -0.0460358 -8.81631e-20)
(0.125664 -0.0481041 -2.81379e-19)
(0.150302 -0.047329 -2.44627e-20)
(0.174765 -0.0405014 1.60616e-19)
(0.194344 -0.0246897 -4.23827e-19)
(0.000223619 -0.0025097 1.54864e-19)
(-0.00284625 -0.0064183 2.10792e-19)
(-0.00956081 -0.0103871 7.48544e-19)
(-0.0174563 -0.0137046 -1.31004e-19)
(-0.0251297 -0.0162785 3.16006e-19)
(-0.0317292 -0.0182386 7.55757e-19)
(-0.0366564 -0.019737 -2.06794e-19)
(-0.0395145 -0.0209293 2.79768e-19)
(-0.0400583 -0.0219625 1.61887e-19)
(-0.0381478 -0.0229651 2.93499e-19)
(-0.0337159 -0.0240458 -5.65949e-20)
(-0.0267459 -0.0252956 4.08972e-20)
(-0.0172553 -0.0267917 -9.48573e-20)
(-0.00528547 -0.0286006 5.3634e-19)
(0.00910505 -0.0307806 7.04966e-20)
(0.0258434 -0.0333819 4.77947e-19)
(0.044842 -0.0364415 -1.17607e-19)
(0.065995 -0.0399703 4.18943e-19)
(0.0891695 -0.0439234 5.3773e-20)
(0.114185 -0.0481452 1.99764e-19)
(0.140743 -0.0522836 -8.10306e-20)
(0.1683 -0.0556243 -6.02784e-21)
(0.19618 -0.0565688 4.40121e-19)
(0.223812 -0.0516725 2.53768e-19)
(0.24616 -0.0374005 -1.09341e-19)
(-0.00123606 -0.000391198 -3.73583e-19)
(-0.0058677 -0.0018242 -3.94633e-19)
(-0.0130564 -0.00452862 -4.16332e-19)
(-0.0206441 -0.00741923 1.5339e-19)
(-0.0274133 -0.0101349 -3.1011e-19)
(-0.0326315 -0.0126076 -4.65209e-20)
(-0.0357815 -0.014844 -1.22361e-19)
(-0.0365196 -0.0168929 -5.05335e-19)
(-0.0346343 -0.0188229 -7.7465e-20)
(-0.0300077 -0.0207047 1.28141e-19)
(-0.0225889 -0.0226047 -3.97556e-19)
(-0.012375 -0.0245825 5.51385e-19)
(0.000600146 -0.0266924 -7.39279e-19)
(0.0162739 -0.0289853 1.74446e-19)
(0.0345585 -0.0315103 -4.41892e-19)
(0.0553418 -0.0343157 -3.4988e-19)
(0.078486 -0.0374465 -1.77285e-20)
(0.103824 -0.0409366 -4.76539e-20)
(0.131152 -0.0447875 4.24568e-20)
(0.160219 -0.0489256 -1.81249e-19)
(0.190668 -0.0531292 -1.21492e-19)
(0.221912 -0.0568767 1.42918e-19)
(0.253244 -0.0587829 -3.88096e-19)
(0.284217 -0.0553469 1.22484e-19)
(0.309756 -0.0425012 8.41676e-20)
(-0.00272591 0.00154884 -6.5843e-20)
(-0.00885566 0.00239033 -1.13e-19)
(-0.016324 0.000885805 4.46503e-19)
(-0.0233176 -0.00156002 1.66817e-19)
(-0.0288216 -0.00434526 2.21541e-19)
(-0.0322315 -0.00721965 -2.97076e-19)
(-0.0331166 -0.0100543 1.5391e-21)
(-0.0311901 -0.0127979 -2.39467e-19)
(-0.0262779 -0.0154442 4.44336e-19)
(-0.0182883 -0.0180077 1.4339e-19)
(-0.0071913 -0.0205121 1.57198e-19)
(0.0069947 -0.022984 -6.34162e-19)
(0.024211 -0.0254512 7.71527e-19)
(0.0443625 -0.0279433 -2.31918e-19)
(0.0673192 -0.0304919 -1.60914e-19)
(0.0929146 -0.0331317 4.76393e-19)
(0.120943 -0.0358999 2.04654e-19)
(0.151157 -0.0388329 -5.17018e-19)
(0.18326 -0.0419538 -2.03813e-19)
(0.216905 -0.0452451 6.18911e-19)
(0.25165 -0.0485996 -4.55541e-19)
(0.286843 -0.0517095 2.69929e-19)
(0.321729 -0.0535272 1.38431e-19)
(0.356051 -0.0507367 -1.77446e-19)
(0.385147 -0.0388909 -1.63304e-19)
(-0.00419476 0.00326662 -2.40408e-19)
(-0.0116922 0.00613085 3.8918e-19)
(-0.0191983 0.00573492 1.67688e-19)
(-0.0252719 0.00373859 -2.43806e-19)
(-0.0291132 0.000951199 -3.93137e-20)
(-0.0302518 -0.00221341 -2.57315e-19)
(-0.028349 -0.00550359 -1.02092e-19)
(-0.0231798 -0.00877571 1.15214e-19)
(-0.0146132 -0.0119537 -3.02661e-20)
(-0.00259064 -0.0149989 2.14134e-19)
(0.0128883 -0.0178933 -1.84992e-19)
(0.0317736 -0.0206304 5.12526e-19)
(0.0539694 -0.02321 -6.26299e-19)
(0.0793347 -0.0256369 3.91109e-19)
(0.107683 -0.0279197 4.73492e-19)
(0.138778 -0.0300703 -6.74759e-19)
(0.172333 -0.0321043 -1.98615e-19)
(0.208003 -0.0340393 3.32951e-19)
(0.245385 -0.0358898 -2.0136e-19)
(0.284014 -0.0376532 1.84724e-19)
(0.323335 -0.0392873 -4.4353e-19)
(0.362608 -0.0406628 7.66931e-20)
(0.400987 -0.0411252 2.65492e-19)
(0.43841 -0.0377614 -4.08177e-19)
(0.471218 -0.0259382 1.12922e-19)
(-0.00559012 0.00472531 -2.21285e-19)
(-0.0142578 0.00931331 7.22447e-19)
(-0.0215166 0.00990448 1.40318e-19)
(-0.0263119 0.0083434 -3.80928e-19)
(-0.0280657 0.0056099 2.74773e-19)
(-0.0264465 0.00225994 1.40504e-19)
(-0.021213 -0.00134645 2.23377e-19)
(-0.0122092 -0.00498299 -1.54468e-20)
(0.000644366 -0.00851009 -2.44647e-20)
(0.0173632 -0.0118402 -4.93812e-20)
(0.0379056 -0.0149165 -2.0956e-19)
(0.062176 -0.017701 -3.63368e-21)
(0.090026 -0.0201669 4.85754e-19)
(0.121253 -0.0222939 -7.80897e-19)
(0.155599 -0.024066 5.55471e-19)
(0.192748 -0.0254686 1.12099e-19)
(0.232322 -0.0264866 1.942e-19)
(0.273876 -0.0271022 -9.07986e-20)
(0.316897 -0.0272903 8.33917e-19)
(0.360795 -0.0270103 -5.06665e-19)
(0.404882 -0.0262014 3.91652e-19)
(0.44827 -0.0247933 8.52022e-20)
(0.489921 -0.0223954 -2.64679e-19)
(0.529788 -0.016466 2.18043e-19)
(0.565683 -0.00246614 3.19567e-19)
(-0.00686139 0.00589815 -6.36722e-20)
(-0.0164366 0.011871 -2.54278e-19)
(-0.0231238 0.0132969 -4.38246e-19)
(-0.0262556 0.0121342 -2.50928e-19)
(-0.0254777 0.00949469 -3.54282e-20)
(-0.0206013 0.00605326 -9.98957e-20)
(-0.0114888 0.00226244 -4.65381e-19)
(0.00193788 -0.00157968 7.83403e-20)
(0.0196955 -0.00527769 -5.21478e-19)
(0.0417422 -0.00870055 -3.96691e-20)
(0.067978 -0.0117576 -4.9685e-19)
(0.0982441 -0.0143834 -1.74501e-19)
(0.132321 -0.0165285 9.87486e-20)
(0.169928 -0.0181525 -4.71343e-19)
(0.210721 -0.0192192 5.13342e-21)
(0.254295 -0.0196923 -3.94048e-19)
(0.300181 -0.0195293 1.48219e-19)
(0.347853 -0.0186754 -5.31217e-19)
(0.39672 -0.0170529 -8.59448e-20)
(0.44613 -0.0145457 -1.08058e-20)
(0.495336 -0.0109893 -8.33457e-20)
(0.543387 -0.00618011 -8.62926e-20)
(0.589073 0.000415507 -4.70083e-20)
(0.631786 0.0113894 -1.61184e-19)
(0.669231 0.0303085 -3.16918e-19)
(-0.00796275 0.00677042 1.17217e-19)
(-0.0181212 0.0137597 3.22129e-19)
(-0.0238755 0.0158397 3.90386e-19)
(-0.0249353 0.0150154 -3.13403e-19)
(-0.0211678 0.0124925 5.85784e-19)
(-0.0125292 0.00904113 -3.19133e-19)
(0.00100648 0.00518955 1.74356e-19)
(0.0194282 0.0012958 2.71363e-19)
(0.0426751 -0.00239755 2.46255e-19)
(0.0706301 -0.00572308 1.19343e-19)
(0.103115 -0.00856247 1.92819e-19)
(0.139884 -0.0108297 1.12348e-19)
(0.180627 -0.0124602 7.43597e-19)
(0.224961 -0.0134029 -5.36314e-19)
(0.272441 -0.013614 6.04995e-19)
(0.32256 -0.0130513 -2.47648e-19)
(0.374761 -0.0116669 5.23873e-19)
(0.42845 -0.00939798 -3.06044e-20)
(0.483009 -0.00615179 -1.06312e-19)
(0.537821 -0.0017833 -1.76306e-20)
(0.59229 0.00393526 3.76155e-19)
(0.645862 0.011386 -3.55045e-19)
(0.698223 0.0215333 2.47945e-19)
(0.749696 0.036839 2.52691e-19)
(0.795512 0.0554389 4.67397e-20)
(-0.00885489 0.00733993 8.10706e-20)
(-0.0192146 0.0149608 -4.59552e-19)
(-0.0236394 0.017492 -1.68488e-19)
(-0.0221963 0.016926 1.55108e-19)
(-0.0149687 0.0145271 -4.79641e-19)
(-0.00206127 0.0111372 -9.46326e-20)
(0.0164318 0.00734327 6.59844e-20)
(0.0403962 0.0035509 2.60527e-19)
(0.069675 4.01223e-05 -6.62459e-19)
(0.104054 -0.00299356 4.96889e-20)
(0.143251 -0.00541227 -1.93753e-19)
(0.186908 -0.00711819 -5.80265e-19)
(0.234594 -0.00804202 3.94448e-19)
(0.2858 -0.00813482 1.58521e-20)
(0.339955 -0.00736185 -1.02134e-20)
(0.396432 -0.00569704 3.78968e-19)
(0.454567 -0.00311728 -6.65352e-19)
(0.513685 0.000403949 5.16081e-19)
(0.573122 0.0049042 -9.93054e-20)
(0.632261 0.0104403 2.803e-19)
(0.690572 0.0170933 -4.66915e-19)
(0.747649 0.0249811 2.52803e-19)
(0.80338 0.0344306 -4.46314e-19)
(0.858224 0.0463549 4.37869e-19)
(0.907616 0.0582035 -1.41793e-19)
(-0.0095058 0.00761621 5.4431e-19)
(-0.0196312 0.0154818 -9.21273e-20)
(-0.0222934 0.0182485 6.85237e-19)
(-0.0178924 0.0178476 3.19534e-19)
(-0.00672145 0.0155705 2.57925e-20)
(0.0109633 0.0123088 1.40998e-19)
(0.0349358 0.0086917 3.44253e-20)
(0.0649616 0.00515929 5.76496e-19)
(0.100765 0.00201841 1.8564e-19)
(0.142007 -0.000517065 -2.41555e-20)
(0.188272 -0.00229951 5.15001e-20)
(0.23906 -0.00323003 1.93601e-19)
(0.293784 -0.00324681 1.58402e-19)
(0.351784 -0.0023171 3.3037e-19)
(0.412333 -0.000431112 -3.79387e-19)
(0.474664 0.002403 1.11192e-19)
(0.537989 0.00616378 3.54657e-20)
(0.601535 0.0108206 1.60849e-19)
(0.664568 0.0163371 4.19377e-19)
(0.726434 0.0226721 -2.79123e-19)
(0.786584 0.0297744 1.52161e-20)
(0.844601 0.0375716 -3.65577e-19)
(0.900261 0.0460295 3.3167e-19)
(0.953721 0.0555321 -3.14054e-19)
(1.00135 0.0648685 3.65578e-20)
(-0.0098904 0.00761875 -4.54145e-19)
(-0.0192959 0.0153549 3.60841e-19)
(-0.0197242 0.0181403 -5.91973e-19)
(-0.0118824 0.017808 5.13278e-20)
(0.00373215 0.0156497 4.21777e-19)
(0.0267059 0.0125869 -7.05926e-19)
(0.0566675 0.00927461 5.61553e-19)
(0.0932405 0.00617396 -8.92873e-19)
(0.136003 0.00360672 1.7851e-19)
(0.18446 0.00179362 3.73864e-20)
(0.238027 0.000880044 2.96216e-19)
(0.296024 0.00095308 -9.88958e-19)
(0.357681 0.00205312 1.71651e-19)
(0.422152 0.00418215 1.78259e-19)
(0.488538 0.00731031 -1.05427e-19)
(0.555916 0.0113816 -6.40815e-19)
(0.623372 0.016319 3.04919e-19)
(0.690035 0.0220289 5.49481e-19)
(0.755113 0.0284042 -5.69576e-19)
(0.81792 0.0353245 4.05934e-19)
(0.8779 0.0426527 -5.1174e-19)
(0.934637 0.0502228 3.66267e-19)
(0.987862 0.0578686 -9.61252e-20)
(1.03759 0.0658069 5.40744e-19)
(1.08131 0.0738808 -6.0834e-19)
(-0.00998893 0.00737425 6.50117e-20)
(-0.0181412 0.0146332 5.30935e-20)
(-0.0158226 0.017233 1.31265e-19)
(-0.0040253 0.0168818 4.72279e-19)
(0.0165533 0.0148499 -1.48494e-20)
(0.045333 0.0120703 1.06916e-19)
(0.0817787 0.00920821 4.76621e-19)
(0.125345 0.00673144 1.92533e-19)
(0.175432 0.00496295 -6.3138e-20)
(0.23135 0.00411631 5.40197e-19)
(0.292307 0.00431991 -6.12061e-19)
(0.357407 0.0056336 9.37663e-19)
(0.425664 0.00806065 -3.6962e-19)
(0.496028 0.0115573 6.64135e-19)
(0.567415 0.016041 -2.23995e-19)
(0.638753 0.0213985 8.07461e-20)
(0.709017 0.0274933 9.73045e-20)
(0.777272 0.0341723 -1.79133e-19)
(0.842704 0.0412716 1.52344e-19)
(0.904648 0.0486193 9.50366e-20)
(0.962597 0.0560365 1.27665e-19)
(1.0162 0.0633323 2.60982e-19)
(1.06527 0.0703189 -2.73732e-20)
(1.10983 0.077141 -1.17371e-19)
(1.14844 0.084305 3.31268e-19)
(-0.00978472 0.00691386 -3.8044e-19)
(-0.0161038 0.0133864 4.18552e-20)
(-0.0104814 0.0156225 -7.56273e-19)
(0.00582188 0.0151871 -1.8182e-19)
(0.031907 0.0133113 -3.42378e-19)
(0.0670134 0.0109232 -7.39388e-20)
(0.110418 0.00868192 -3.69995e-19)
(0.161374 0.00704628 -2.21262e-19)
(0.219063 0.00632406 2.93346e-19)
(0.282558 0.00670448 -4.90848e-19)
(0.350821 0.00828099 -1.3634e-19)
(0.422704 0.0110681 3.49853e-21)
(0.496984 0.015015 -9.07254e-19)
(0.572396 0.0200176 3.83572e-19)
(0.647684 0.0259302 -5.54104e-19)
(0.721651 0.0325774 -1.59705e-20)
(0.793207 0.0397654 1.0373e-19)
(0.861409 0.047292 -1.74548e-19)
(0.92549 0.0549549 -1.4961e-19)
(0.984876 0.0625585 6.98673e-20)
(1.03919 0.069917 7.64308e-20)
(1.08823 0.0768545 -4.9623e-19)
(1.13195 0.0832116 2.80755e-19)
(1.17052 0.0891056 1.33384e-19)
(1.20331 0.0953795 3.05887e-20)
(-0.0092616 0.0062705 3.89467e-19)
(-0.0131211 0.0116956 -4.31354e-19)
(-0.0035922 0.0134292 6.09261e-19)
(0.0178037 0.0128794 9.54348e-20)
(0.0499582 0.0112228 -2.94401e-20)
(0.0919097 0.0093668 -2.08157e-19)
(0.142716 0.00794756 3.16426e-20)
(0.201388 0.00739643 3.18537e-19)
(0.266842 0.00798638 -4.40543e-19)
(0.337874 0.0098615 4.62201e-19)
(0.413155 0.0130592 -4.82143e-20)
(0.491266 0.0175288 2.38014e-20)
(0.570732 0.023148 5.96615e-19)
(0.650091 0.0297402 7.87556e-19)
(0.727946 0.0370904 -3.094e-19)
(0.803032 0.0449623 5.35487e-19)
(0.874262 0.0531133 2.64194e-19)
(0.940761 0.0613078 -1.65892e-19)
(1.00189 0.0693275 5.041e-19)
(1.05725 0.0769785 -2.52943e-20)
(1.10665 0.0840952 -4.69693e-19)
(1.15011 0.0905406 4.85738e-19)
(1.1878 0.0962052 6.2944e-20)
(1.22006 0.101208 -2.88637e-19)
(1.24683 0.106506 9.13363e-20)
(-0.00840164 0.00547699 -5.42195e-19)
(-0.00912845 0.00964906 5.88061e-19)
(0.00495456 0.0107915 -3.75793e-19)
(0.032063 0.0101431 -1.18016e-19)
(0.0708634 0.00881136 -2.65709e-19)
(0.120163 0.00766663 4.72254e-19)
(0.178761 0.00730273 -2.75046e-19)
(0.245379 0.00810198 -1.26178e-19)
(0.318621 0.010279 -3.61895e-19)
(0.396957 0.0139086 9.98429e-21)
(0.478743 0.0189487 -1.41895e-19)
(0.562273 0.0252631 6.74636e-20)
(0.64584 0.0326438 -7.17526e-19)
(0.72782 0.0408333 2.05131e-19)
(0.80674 0.0495481 -2.42356e-19)
(0.881343 0.0584993 -1.924e-19)
(0.950633 0.0674114 5.94088e-20)
(1.01389 0.0760365 -2.72856e-19)
(1.07069 0.0841639 -1.11164e-19)
(1.12087 0.0916254 3.32561e-19)
(1.16448 0.0982971 1.35186e-19)
(1.2018 0.104096 -5.75514e-19)
(1.23321 0.108971 4.15262e-19)
(1.25923 0.113063 -7.67958e-20)
(1.28021 0.117297 -1.57243e-19)
(-0.00718344 0.0045649 -1.97752e-19)
(-0.00405755 0.00733886 -1.09725e-19)
(0.0152684 0.00786015 -2.20616e-20)
(0.0487351 0.00718319 1.62704e-19)
(0.0947582 0.00633059 1.7792e-19)
(0.151876 0.00611673 1.55625e-19)
(0.218578 0.00707075 1.94385e-19)
(0.293245 0.0095003 2.97688e-19)