1.275 	2.15223e-18 	-2.76991e-20 	-0.405427 	0.00741531 	-3.77975e-22
1.825 	2.15223e-18 	-1.39322e-20 	-0.45564 	-0.00506316 	4.13063e-21
2.375 	2.15223e-18 	-2.66896e-23 	-0.128219 	-0.00913513 	-1.20135e-21
