1.22 	3.45254e-18 	-6.98323e-18 	-0.133964 	0.00467578 	-4.43803e-22
1.66 	3.45254e-18 	-6.96118e-18 	-0.259852 	0.00173681 	-2.1452e-23
2.1 	3.45254e-18 	-6.93894e-18 	-0.292264 	-0.00194566 	-1.27362e-21
2.54 	3.45254e-18 	-8.30431e-18 	-0.437019 	-0.00540561 	-4.01232e-24
2.98 	3.45254e-18 	-8.28171e-18 	-0.458392 	-0.00503874 	1.46458e-21
3.42 	3.45254e-18 	-6.87115e-18 	-0.450943 	0.00028938 	1.40267e-21
3.86 	3.45254e-18 	-6.84819e-18 	-0.305948 	0.00528995 	2.39765e-22
4.3 	3.45254e-18 	-6.82504e-18 	-0.236511 	0.00659036 	7.3026e-22
4.74 	3.45254e-18 	-5.41391e-18 	-0.0995637 	0.00444891 	-3.10594e-22
5.18 	3.45254e-18 	-2.61482e-18 	-0.00989733 	0.000837889 	-8.3384e-23
5.62 	3.45254e-18 	-1.2033e-18 	0.101627 	-0.0032849 	1.55861e-23
6.06 	3.45254e-18 	-1.17937e-18 	0.18403 	-0.00607635 	-2.93484e-23
6.5 	3.45254e-18 	-1.15524e-18 	0.268493 	-0.00775956 	4.76074e-23
