/*--------------------------------*- C++ -*----------------------------------*\
  =========                 |
  \\      /  F ield         | OpenFOAM: The Open Source CFD Toolbox
   \\    /   O peration     | Website:  https://openfoam.org
    \\  /    A nd           | Version:  6.0
     \\/     M anipulation  |
\*---------------------------------------------------------------------------*/
FoamFile
{
    version     2.0;
    format      ascii;
    class       volScalarField;
    location    "6.1";
    object      p;
}
// * * * * * * * * * * * * * * * * * * * * * * * * * * * * * * * * * * * * * //

dimensions      [0 2 -2 0 0 0 0];

internalField   nonuniform List<scalar> 
8000
(
-0.332133
-0.33536
-0.337351
-0.338846
-0.340282
-0.34175
-0.343298
-0.344954
-0.346721
-0.348589
-0.350541
-0.352557
-0.35462
-0.356708
-0.358812
-0.360931
-0.363025
-0.364922
-0.366678
-0.369759
-0.332779
-0.335906
-0.337846
-0.339311
-0.340726
-0.342178
-0.343714
-0.345361
-0.347121
-0.348983
-0.35093
-0.352944
-0.355003
-0.35709
-0.359192
-0.36131
-0.363404
-0.365302
-0.36705
-0.370126
-0.334049
-0.336981
-0.33882
-0.340227
-0.341598
-0.343017
-0.344529
-0.346156
-0.347901
-0.34975
-0.351688
-0.353693
-0.355747
-0.357828
-0.359925
-0.36204
-0.364134
-0.366033
-0.367766
-0.370829
-0.335873
-0.338527
-0.340219
-0.341539
-0.342845
-0.344213
-0.345684
-0.347279
-0.348997
-0.350824
-0.352743
-0.354733
-0.356772
-0.358841
-0.360928
-0.363032
-0.365121
-0.36702
-0.36873
-0.371768
-0.338157
-0.340464
-0.34197
-0.343176
-0.344394
-0.345691
-0.347103
-0.348649
-0.350324
-0.352114
-0.354
-0.35596
-0.357973
-0.360019
-0.362083
-0.364166
-0.366241
-0.368133
-0.36981
-0.372809
-0.340788
-0.3427
-0.343987
-0.345054
-0.34616
-0.347363
-0.348695
-0.350169
-0.351781
-0.353513
-0.355347
-0.357258
-0.359227
-0.36123
-0.363255
-0.365301
-0.367347
-0.36922
-0.370853
-0.373797
-0.343646
-0.345134
-0.34618
-0.347086
-0.348055
-0.349139
-0.350364
-0.351741
-0.353263
-0.354911
-0.356666
-0.358505
-0.360404
-0.362342
-0.364304
-0.366291
-0.368289
-0.370128
-0.371705
-0.374577
-0.346611
-0.347672
-0.348462
-0.349187
-0.349996
-0.350934
-0.352023
-0.353272
-0.354672
-0.356206
-0.357851
-0.359585
-0.361384
-0.363228
-0.3651
-0.367002
-0.368926
-0.370711
-0.372219
-0.375008
-0.349576
-0.350227
-0.350758
-0.351287
-0.351912
-0.352676
-0.353598
-0.354685
-0.355928
-0.357311
-0.358811
-0.360405
-0.362071
-0.363787
-0.365538
-0.367325
-0.369146
-0.370854
-0.37228
-0.374974
-0.352453
-0.35273
-0.353008
-0.353329
-0.353751
-0.354312
-0.355034
-0.355924
-0.356974
-0.358168
-0.359486
-0.360905
-0.362402
-0.363956
-0.365551
-0.36719
-0.368877
-0.370479
-0.371806
-0.374402
-0.355178
-0.355133
-0.355172
-0.355277
-0.355477
-0.355811
-0.356303
-0.356961
-0.357783
-0.358753
-0.359853
-0.361062
-0.362355
-0.363713
-0.365119
-0.366576
-0.368095
-0.369557
-0.37076
-0.373252
-0.357715
-0.35741
-0.357231
-0.357117
-0.357082
-0.357166
-0.357399
-0.357797
-0.358358
-0.359074
-0.359926
-0.360894
-0.361955
-0.363087
-0.364274
-0.365516
-0.36683
-0.368109
-0.369146
-0.371516
-0.360058
-0.35956
-0.359185
-0.358854
-0.358572
-0.358389
-0.358343
-0.358456
-0.358734
-0.359171
-0.359754
-0.360461
-0.36127
-0.362155
-0.363097
-0.364093
-0.36516
-0.3662
-0.367001
-0.369191
-0.362232
-0.361604
-0.361056
-0.36051
-0.359975
-0.359513
-0.359173
-0.358986
-0.358966
-0.359113
-0.359415
-0.359852
-0.360399
-0.361026
-0.361706
-0.362429
-0.363204
-0.363933
-0.364382
-0.366269
-0.364287
-0.363583
-0.362883
-0.362125
-0.361334
-0.360587
-0.359947
-0.359453
-0.35913
-0.358984
-0.359005
-0.359174
-0.359461
-0.359829
-0.36024
-0.360665
-0.3611
-0.361427
-0.361361
-0.362723
-0.366298
-0.36556
-0.36472
-0.363752
-0.362705
-0.361672
-0.36073
-0.359932
-0.359311
-0.358878
-0.358629
-0.35854
-0.358577
-0.358694
-0.358832
-0.35894
-0.358982
-0.358807
-0.35803
-0.358543
-0.368361
-0.367608
-0.366634
-0.365455
-0.364152
-0.362836
-0.361599
-0.360505
-0.359597
-0.358892
-0.358386
-0.358055
-0.357857
-0.35773
-0.357596
-0.357368
-0.356968
-0.356201
-0.354534
-0.353802
-0.370584
-0.369813
-0.3687
-0.367307
-0.365749
-0.364155
-0.362631
-0.361255
-0.360076
-0.359115
-0.358369
-0.357811
-0.357389
-0.357026
-0.356616
-0.356028
-0.355129
-0.353666
-0.350929
-0.348492
-0.373079
-0.372265
-0.370997
-0.369382
-0.367569
-0.365704
-0.363906
-0.362262
-0.360828
-0.359628
-0.358659
-0.35789
-0.357261
-0.35668
-0.356015
-0.35509
-0.353688
-0.35143
-0.347314
-0.342526
-0.375958
-0.375056
-0.373606
-0.371757
-0.369685
-0.367554
-0.365494
-0.363597
-0.361923
-0.3605
-0.359322
-0.358358
-0.357549
-0.356805
-0.356002
-0.354975
-0.353499
-0.351098
-0.346455
-0.340334
-0.379326
-0.37827
-0.376601
-0.3745
-0.372164
-0.36977
-0.367456
-0.365317
-0.363415
-0.361776
-0.360396
-0.359244
-0.358268
-0.357402
-0.356571
-0.355716
-0.354818
-0.353898
-0.353352
-0.357721
-0.383271
-0.381982
-0.38005
-0.377674
-0.375063
-0.372405
-0.36984
-0.367465
-0.365338
-0.363482
-0.361891
-0.360532
-0.359362
-0.358327
-0.357384
-0.356522
-0.355785
-0.355307
-0.355462
-0.358858
-0.387864
-0.386254
-0.384009
-0.381331
-0.378429
-0.375499
-0.372681
-0.370068
-0.367711
-0.365625
-0.363797
-0.362194
-0.360769
-0.35948
-0.358294
-0.35721
-0.356273
-0.355579
-0.355318
-0.356566
-0.393161
-0.391138
-0.388527
-0.385514
-0.382301
-0.379085
-0.376005
-0.373143
-0.370536
-0.368191
-0.366082
-0.36417
-0.362405
-0.360742
-0.35915
-0.357622
-0.356174
-0.354843
-0.353719
-0.353073
-0.399202
-0.396675
-0.393642
-0.39026
-0.386711
-0.383193
-0.379833
-0.376698
-0.373809
-0.371154
-0.368696
-0.366385
-0.364165
-0.361992
-0.359831
-0.357668
-0.355503
-0.353339
-0.351225
-0.349045
-0.406014
-0.402897
-0.399388
-0.395604
-0.391693
-0.387848
-0.384181
-0.380735
-0.37751
-0.374473
-0.371571
-0.368745
-0.365941
-0.363114
-0.360238
-0.3573
-0.354301
-0.351242
-0.348166
-0.344851
-0.413617
-0.40983
-0.405797
-0.401578
-0.397277
-0.393076
-0.389061
-0.385248
-0.381608
-0.378087
-0.374621
-0.371147
-0.367617
-0.364001
-0.360287
-0.35648
-0.352593
-0.348644
-0.344675
-0.340484
-0.422021
-0.417493
-0.412894
-0.408211
-0.403491
-0.398893
-0.394474
-0.390213
-0.386051
-0.381918
-0.377743
-0.373474
-0.369079
-0.364553
-0.35991
-0.355177
-0.350389
-0.345583
-0.3408
-0.335905
-0.431229
-0.425896
-0.420697
-0.415525
-0.410352
-0.405306
-0.400402
-0.395582
-0.390762
-0.385861
-0.380818
-0.375604
-0.370217
-0.364685
-0.359051
-0.353368
-0.347689
-0.342065
-0.336536
-0.331021
-0.441226
-0.435038
-0.429214
-0.42353
-0.417861
-0.412293
-0.406798
-0.401277
-0.395633
-0.389791
-0.383716
-0.377416
-0.370931
-0.364324
-0.357667
-0.351035
-0.34449
-0.33809
-0.331865
-0.325774
-0.451982
-0.4449
-0.438433
-0.43221
-0.42599
-0.419804
-0.413577
-0.407184
-0.400527
-0.393563
-0.3863
-0.378794
-0.371132
-0.363411
-0.355728
-0.348166
-0.340791
-0.333654
-0.326775
-0.32013
-0.463439
-0.455438
-0.448317
-0.441524
-0.434677
-0.427745
-0.420614
-0.413151
-0.405285
-0.397021
-0.388432
-0.379631
-0.370746
-0.361904
-0.353212
-0.344754
-0.33659
-0.328759
-0.321261
-0.31408
-0.475508
-0.466578
-0.458796
-0.45139
-0.443815
-0.435979
-0.427745
-0.418998
-0.409725
-0.400006
-0.389985
-0.379831
-0.36971
-0.359763
-0.350099
-0.340791
-0.331885
-0.323402
-0.315321
-0.307628
-0.488064
-0.478211
-0.469762
-0.461683
-0.453251
-0.444323
-0.434765
-0.42452
-0.41366
-0.402359
-0.390836
-0.37931
-0.367968
-0.356956
-0.346369
-0.336265
-0.326667
-0.317577
-0.30895
-0.300777
-0.500941
-0.490189
-0.481064
-0.472232
-0.462785
-0.452551
-0.441442
-0.429495
-0.4169
-0.40393
-0.390874
-0.377989
-0.365468
-0.353446
-0.341998
-0.331155
-0.32092
-0.311272
-0.302138
-0.293526
-0.513931
-0.502321
-0.492504
-0.482816
-0.472171
-0.460404
-0.447522
-0.433699
-0.419257
-0.404574
-0.389996
-0.375795
-0.362158
-0.349195
-0.336952
-0.325434
-0.314618
-0.304463
-0.294868
-0.285865
-0.526786
-0.514373
-0.503842
-0.493172
-0.481125
-0.467596
-0.452741
-0.436905
-0.420557
-0.404162
-0.388105
-0.372658
-0.357983
-0.344156
-0.331192
-0.319065
-0.307729
-0.297121
-0.287113
-0.277774
-0.539218
-0.52607
-0.51479
-0.502993
-0.489332
-0.473825
-0.456834
-0.438901
-0.420633
-0.40257
-0.385111
-0.368506
-0.352883
-0.338279
-0.324671
-0.312005
-0.300212
-0.289208
-0.27884
-0.269224
-0.550904
-0.537099
-0.525027
-0.511941
-0.496457
-0.478788
-0.459546
-0.439483
-0.419334
-0.399684
-0.380924
-0.363268
-0.346798
-0.331507
-0.317337
-0.304205
-0.292023
-0.280683
-0.270012
-0.260182
-0.561492
-0.547117
-0.534197
-0.519657
-0.502159
-0.482185
-0.460636
-0.438469
-0.416521
-0.395398
-0.375461
-0.356872
-0.339663
-0.323781
-0.309135
-0.295614
-0.283113
-0.271503
-0.260588
-0.250611
-0.570611
-0.555758
-0.541928
-0.525773
-0.506102
-0.483736
-0.459882
-0.43569
-0.412069
-0.389616
-0.36864
-0.349248
-0.331414
-0.315043
-0.30001
-0.286182
-0.273436
-0.261623
-0.250528
-0.240473
-0.577879
-0.56264
-0.547835
-0.529923
-0.507965
-0.48318
-0.457087
-0.431
-0.405866
-0.382245
-0.360386
-0.340326
-0.321988
-0.305234
-0.289909
-0.275859
-0.262946
-0.251
-0.239794
-0.229732
-0.582914
-0.567382
-0.551542
-0.531756
-0.507454
-0.480289
-0.452081
-0.424272
-0.397813
-0.373207
-0.350627
-0.330044
-0.311326
-0.2943
-0.278781
-0.2646
-0.251603
-0.239599
-0.228352
-0.218357
-0.585344
-0.569611
-0.552686
-0.530951
-0.504306
-0.474865
-0.44472
-0.4154
-0.387827
-0.36243
-0.339301
-0.318344
-0.299378
-0.282194
-0.266585
-0.252366
-0.23937
-0.227386
-0.216174
-0.20632
-0.584821
-0.568978
-0.550933
-0.52722
-0.4983
-0.466748
-0.434888
-0.404297
-0.37584
-0.349856
-0.326354
-0.305177
-0.286097
-0.268876
-0.253284
-0.239124
-0.22622
-0.214338
-0.203238
-0.193604
-0.581027
-0.565163
-0.545989
-0.520322
-0.489256
-0.455812
-0.4225
-0.390899
-0.361798
-0.335437
-0.311746
-0.290505
-0.27145
-0.254313
-0.238851
-0.224853
-0.212132
-0.200438
-0.189533
-0.180196
-0.573688
-0.557889
-0.537605
-0.510063
-0.477042
-0.441971
-0.407497
-0.375165
-0.345666
-0.319143
-0.295445
-0.274302
-0.255412
-0.238486
-0.223267
-0.209536
-0.197095
-0.185677
-0.175053
-0.166093
-0.562576
-0.546931
-0.525587
-0.496304
-0.461569
-0.425176
-0.38985
-0.357074
-0.327428
-0.300956
-0.277437
-0.256551
-0.237969
-0.221384
-0.206525
-0.193169
-0.181107
-0.170056
-0.159802
-0.151297
-0.547523
-0.53212
-0.509801
-0.478961
-0.442799
-0.405414
-0.369561
-0.336629
-0.307085
-0.280877
-0.257718
-0.237251
-0.21912
-0.203005
-0.188626
-0.175755
-0.164175
-0.153587
-0.143795
-0.135822
-0.528418
-0.513347
-0.490172
-0.458006
-0.420739
-0.382709
-0.346656
-0.313856
-0.284658
-0.258921
-0.236303
-0.216413
-0.198876
-0.18336
-0.169582
-0.157308
-0.146315
-0.136291
-0.127056
-0.119696
-0.505215
-0.49057
-0.466689
-0.433465
-0.395438
-0.357122
-0.321194
-0.288805
-0.260188
-0.235123
-0.213219
-0.194059
-0.177255
-0.162468
-0.149411
-0.137849
-0.12755
-0.118195
-0.109622
-0.102963
-0.477935
-0.463811
-0.439401
-0.405418
-0.366994
-0.328748
-0.293261
-0.26155
-0.233737
-0.209533
-0.188508
-0.170225
-0.154288
-0.140355
-0.128137
-0.117399
-0.107905
-0.0993291
-0.0915305
-0.085669
-0.446659
-0.433156
-0.40842
-0.373996
-0.335541
-0.297713
-0.26297
-0.232187
-0.205388
-0.18222
-0.162226
-0.144957
-0.130012
-0.117051
-0.105786
-0.0959818
-0.0874016
-0.0797206
-0.0728162
-0.0678363
-0.411537
-0.398754
-0.373912
-0.339378
-0.301255
-0.264181
-0.230463
-0.200841
-0.175243
-0.153271
-0.134446
-0.118312
-0.104473
-0.0925906
-0.0823837
-0.0736191
-0.0660618
-0.0593954
-0.053502
-0.0494529
-0.372775
-0.360812
-0.336096
-0.301788
-0.264349
-0.228343
-0.195911
-0.167658
-0.143432
-0.122794
-0.105254
-0.0903596
-0.07772
-0.0670076
-0.0579503
-0.0503224
-0.0438967
-0.0383681
-0.0335967
-0.0305165
-0.330636
-0.319592
-0.295241
-0.261489
-0.22507
-0.190423
-0.159511
-0.132813
-0.110103
-0.0909175
-0.0747595
-0.0611843
-0.0498154
-0.0403404
-0.0325036
-0.026093
-0.0208944
-0.0166209
-0.0131089
-0.0111681
-0.285433
-0.275406
-0.251658
-0.218782
-0.183697
-0.150672
-0.12149
-0.0965057
-0.0754362
-0.057795
-0.0430897
-0.0308889
-0.0208353
-0.0126405
-0.00607332
-0.00093853
0.0029601
0.00585071
0.00782899
0.00816357
-0.237526
-0.228606
-0.205696
-0.173999
-0.140535
-0.109371
-0.0821
-0.0589656
-0.0396334
-0.0236039
-0.0103922
0.000414825
0.0091482
0.0160613
0.0213491
0.0251851
0.0277219
0.0290017
0.0288808
0.0270174
-0.187308
-0.179581
-0.157734
-0.127499
-0.0959178
-0.0668238
-0.0416215
-0.0204508
-0.00293242
0.0114428
0.0231532
0.0325959
0.0400767
0.0458121
0.0499588
0.0526579
0.0539406
0.0534321
0.050626
0.046538
-0.135207
-0.128749
-0.108174
-0.0796609
-0.0501953
-0.0233549
-0.000358686
0.0187496
0.0343879
0.047075
0.0572877
0.0654197
0.0717724
0.0765603
0.0799533
0.0821102
0.0829278
0.0815153
0.0771426
0.0727239
-0.0816715
-0.0765497
-0.0574392
-0.0308784
-0.0037318
0.0206968
0.0413683
0.0583254
0.0720177
0.0829702
0.0916589
0.0984802
0.103749
0.10772
0.110648
0.112823
0.114208
0.113772
0.111255
0.115274
-0.0271584
-0.0234311
-0.00595769
0.0184484
0.0431032
0.0649878
0.0832351
0.0979639
0.109647
0.118808
0.125916
0.131359
0.135449
0.138454
0.140644
0.142292
0.143379
0.14341
0.143325
0.149549
0.0278597
0.0301465
0.0458347
0.0679167
0.08994
0.109177
0.124922
0.13736
0.14698
0.1543
0.159776
0.163785
0.166634
0.168586
0.1699
0.170804
0.171272
0.170999
0.170935
0.175986
0.0829099
0.0837236
0.097505
0.117128
0.136415
0.152929
0.166118
0.176222
0.183737
0.18917
0.192959
0.195465
0.19698
0.197753
0.198023
0.197992
0.197651
0.196766
0.196118
0.199596
0.137523
0.136845
0.148627
0.165693
0.182174
0.195923
0.206528
0.214277
0.219665
0.223185
0.225254
0.226211
0.226328
0.225835
0.224944
0.223825
0.22246
0.220641
0.219088
0.221106
0.19124
0.189066
0.198784
0.213234
0.226876
0.237849
0.245872
0.251267
0.25453
0.256131
0.256466
0.255852
0.254538
0.252734
0.250626
0.24836
0.245898
0.24306
0.240524
0.241145
0.243612
0.239953
0.247575
0.259385
0.270194
0.278414
0.283882
0.286954
0.288116
0.287818
0.28643
0.284246
0.281497
0.278367
0.275023
0.271584
0.268004
0.264129
0.260609
0.259913
0.29421
0.28909
0.294616
0.303801
0.311816
0.317338
0.32031
0.321113
0.320222
0.318066
0.314991
0.311267
0.307103
0.302666
0.298102
0.293507
0.288831
0.283948
0.279472
0.277524
0.342621
0.336083
0.33954
0.346151
0.351448
0.354356
0.354918
0.353532
0.350661
0.346711
0.342004
0.33679
0.331256
0.325553
0.319806
0.314096
0.30837
0.302528
0.297137
0.294006
0.388456
0.380555
0.382002
0.386126
0.388813
0.389222
0.387484
0.384012
0.379254
0.373594
0.367332
0.360696
0.353857
0.346946
0.340073
0.333304
0.32659
0.319849
0.313593
0.309345
0.431349
0.422158
0.42168
0.423435
0.42365
0.421703
0.4178
0.412365
0.405833
0.398565
0.390841
0.382869
0.374802
0.366758
0.35883
0.351072
0.343438
0.335865
0.328799
0.323506
0.470963
0.460565
0.458276
0.457811
0.455721
0.451583
0.445671
0.438417
0.430241
0.421484
0.412405
0.403196
0.393993
0.384901
0.375998
0.367329
0.358853
0.350519
0.342704
0.336442
0.506987
0.49548
0.491517
0.489007
0.484805
0.478664
0.47092
0.462007
0.452332
0.442217
0.431905
0.421568
0.411332
0.401286
0.391499
0.382004
0.372768
0.363746
0.355249
0.348102
0.53914
0.526634
0.521157
0.516803
0.510703
0.502768
0.493383
0.482986
0.471971
0.460644
0.449229
0.437886
0.426727
0.415831
0.405254
0.395025
0.385114
0.375484
0.366375
0.358434
0.567173
0.553789
0.546976
0.541002
0.533238
0.523734
0.512916
0.501223
0.489039
0.476653
0.464277
0.452056
0.440092
0.428455
0.417192
0.406325
0.395829
0.385671
0.376026
0.367389
0.590869
0.576739
0.568786
0.561432
0.552257
0.541423
0.529391
0.516603
0.503429
0.490149
0.476959
0.463996
0.451353
0.43909
0.427247
0.415842
0.404853
0.39425
0.384152
0.374922
0.610047
0.59531
0.586427
0.577951
0.56763
0.555717
0.542702
0.529027
0.515052
0.501047
0.487198
0.473635
0.460443
0.447674
0.435362
0.423522
0.412136
0.401175
0.390707
0.380995
0.62456
0.60936
0.59977
0.590441
0.579251
0.566521
0.552762
0.538414
0.523834
0.50928
0.494933
0.480916
0.467308
0.454156
0.44149
0.429321
0.417635
0.406403
0.395655
0.385577
0.634295
0.618785
0.608719
0.598816
0.587041
0.573763
0.559504
0.544706
0.529718
0.514796
0.500116
0.485794
0.471907
0.458499
0.445595
0.433206
0.421319
0.409906
0.398969
0.388644
0.639179
0.623513
0.613207
0.603016
0.590948
0.577394
0.562885
0.54786
0.532669
0.517562
0.502714
0.488239
0.474212
0.460675
0.447653
0.435153
0.423166
0.411661
0.400629
0.390181
0.639175
0.623509
0.613203
0.603012
0.590944
0.577391
0.562882
0.547857
0.532666
0.517559
0.502711
0.488237
0.474209
0.460673
0.44765
0.43515
0.423163
0.411659
0.400627
0.390179
0.634282
0.618772
0.608706
0.598804
0.58703
0.573753
0.559494
0.544696
0.529709
0.514788
0.500108
0.485786
0.471899
0.458491
0.445588
0.433199
0.421312
0.409899
0.398963
0.388638
0.624537
0.609339
0.59975
0.590422
0.579232
0.566504
0.552745
0.538399
0.523819
0.509265
0.49492
0.480903
0.467295
0.454144
0.441478
0.429309
0.417624
0.406392
0.395645
0.385567
0.610016
0.595279
0.586398
0.577923
0.567604
0.555693
0.542679
0.529005
0.515031
0.501027
0.487179
0.473617
0.460425
0.447657
0.435346
0.423506
0.41212
0.401159
0.390692
0.380981
0.59083
0.5767
0.568749
0.561397
0.552224
0.541391
0.529361
0.516575
0.503403
0.490123
0.476934
0.463972
0.45133
0.439068
0.427226
0.415821
0.404833
0.394231
0.384133
0.374903
0.567124
0.553742
0.54693
0.540958
0.533198
0.523696
0.512879
0.501189
0.489006
0.476622
0.464246
0.452027
0.440064
0.428428
0.417166
0.4063
0.395804
0.385647
0.376003
0.367366
0.539083
0.526578
0.521103
0.516752
0.510655
0.502723
0.49334
0.482945
0.471932
0.460607
0.449193
0.437852
0.426694
0.415799
0.405224
0.394996
0.385085
0.375456
0.366347
0.358408
0.506921
0.495415
0.491455
0.488948
0.48475
0.478612
0.47087
0.46196
0.452287
0.442175
0.431864
0.421529
0.411294
0.401249
0.391463
0.38197
0.372734
0.363714
0.355217
0.348072
0.470889
0.460491
0.458206
0.457744
0.455658
0.451524
0.445615
0.438364
0.43019
0.421435
0.412359
0.403151
0.39395
0.384859
0.375958
0.36729
0.358815
0.350482
0.342668
0.336408
0.431266
0.422076
0.421602
0.423361
0.42358
0.421637
0.417737
0.412306
0.405776
0.398511
0.390789
0.382819
0.374754
0.366711
0.358785
0.351029
0.343396
0.335824
0.328759
0.323468
0.388364
0.380465
0.381915
0.386044
0.388735
0.389149
0.387415
0.383946
0.379191
0.373534
0.367275
0.360641
0.353803
0.346895
0.340024
0.333256
0.326543
0.319804
0.313549
0.309302
0.34252
0.335984
0.339445
0.346062
0.351364
0.354277
0.354843
0.35346
0.350592
0.346645
0.341942
0.336729
0.331198
0.325497
0.319752
0.314043
0.308319
0.302479
0.297089
0.293959
0.294101
0.288983
0.294513
0.303704
0.311725
0.317251
0.320228
0.321035
0.320148
0.317995
0.314923
0.311201
0.30704
0.302605
0.298043
0.29345
0.288776
0.283895
0.27942
0.277474
0.243495
0.239837
0.247465
0.25928
0.270095
0.27832
0.283794
0.28687
0.288036
0.287741
0.286356
0.284176
0.281428
0.278301
0.27496
0.271523
0.267945
0.264071
0.260553
0.259859
0.191114
0.188942
0.198665
0.213121
0.22677
0.237749
0.245776
0.251177
0.254444
0.256049
0.256387
0.255776
0.254465
0.252663
0.250558
0.248294
0.245835
0.242998
0.240464
0.241087
0.13739
0.136714
0.1485
0.165573
0.182061
0.195816
0.206427
0.21418
0.219573
0.223097
0.225169
0.226129
0.22625
0.22576
0.224871
0.223755
0.222392
0.220575
0.219024
0.221044
0.082768
0.0835841
0.0973708
0.117001
0.136295
0.152815
0.16601
0.17612
0.183639
0.189077
0.19287
0.195379
0.196897
0.197673
0.197945
0.197917
0.197578
0.196696
0.19605
0.19953
0.0277099
0.0299991
0.0456928
0.067782
0.0898128
0.109056
0.124808
0.137252
0.146877
0.154201
0.159681
0.163694
0.166546
0.168501
0.169818
0.170724
0.171195
0.170924
0.170862
0.175917
-0.027316
-0.0235863
-0.00610713
0.0183064
0.042969
0.0648609
0.0831147
0.0978494
0.109538
0.118704
0.125816
0.131262
0.135356
0.138364
0.140557
0.142208
0.143298
0.143331
0.143247
0.149474
-0.0818368
-0.0767125
-0.0575961
-0.0310275
-0.00387282
0.0205634
0.0412417
0.058205
0.0719028
0.0828602
0.0915534
0.0983786
0.103651
0.107625
0.110556
0.112734
0.114122
0.113688
0.111172
0.115194
-0.13538
-0.128919
-0.108338
-0.079817
-0.0503431
-0.0234947
-0.000491318
0.0186234
0.0342674
0.0469596
0.057177
0.0653131
0.0716695
0.0764608
0.0798568
0.0820164
0.0828364
0.081426
0.0770546
0.0726368
-0.187488
-0.179758
-0.157905
-0.127662
-0.0960721
-0.0669699
-0.0417601
-0.0205827
-0.00305836
0.0113222
0.0230373
0.0324843
0.0399689
0.0457078
0.0498575
0.0525593
0.0538445
0.053338
0.0505334
0.0464461
-0.237713
-0.22879
-0.205874
-0.174169
-0.140696
-0.109524
-0.0822445
-0.0591031
-0.0397646
-0.0237297
-0.010513
0.000298437
0.00903578
0.0159524
0.0212434
0.0250822
0.0276216
0.0289036
0.0287846
0.0269222
-0.285627
-0.275597
-0.251844
-0.218959
-0.183864
-0.150831
-0.12164
-0.0966487
-0.0755727
-0.0579258
-0.0432153
-0.0310099
-0.0209522
-0.0127536
-0.00618311
-0.00104533
0.002856
0.00574906
0.00772949
0.00806562
-0.330836
-0.31979
-0.295433
-0.261672
-0.225244
-0.190587
-0.159667
-0.132961
-0.110245
-0.0910531
-0.0748897
-0.0613098
-0.0499365
-0.0404576
-0.0326173
-0.0262035
-0.021002
-0.0167258
-0.0132115
-0.0112688
-0.372981
-0.361016
-0.336294
-0.301977
-0.264528
-0.228513
-0.196072
-0.167811
-0.143578
-0.122934
-0.105389
-0.0904892
-0.0778452
-0.0671287
-0.0580677
-0.0504365
-0.0440076
-0.0384762
-0.0337023
-0.0306201
-0.41175
-0.398964
-0.374115
-0.339573
-0.30144
-0.264356
-0.230629
-0.200999
-0.175394
-0.153416
-0.134585
-0.118446
-0.104602
-0.0927154
-0.0825046
-0.0737365
-0.0661759
-0.0595066
-0.0536104
-0.0495591
-0.446878
-0.433372
-0.40863
-0.374196
-0.335731
-0.297894
-0.263141
-0.23235
-0.205543
-0.182369
-0.162369
-0.145094
-0.130145
-0.117179
-0.10591
-0.0961024
-0.0875188
-0.0798347
-0.0729273
-0.067945
-0.478158
-0.464032
-0.439616
-0.405623
-0.367189
-0.328933
-0.293437
-0.261717
-0.233897
-0.209686
-0.188655
-0.170366
-0.154424
-0.140486
-0.128264
-0.117522
-0.108025
-0.0994458
-0.0916442
-0.0857801
-0.505444
-0.490796
-0.466909
-0.433675
-0.395639
-0.357313
-0.321375
-0.288977
-0.260352
-0.23528
-0.21337
-0.194204
-0.177394
-0.162603
-0.149542
-0.137975
-0.127673
-0.118314
-0.109738
-0.103077
-0.528651
-0.513578
-0.490396
-0.458221
-0.420944
-0.382904
-0.346841
-0.314032
-0.284825
-0.259081
-0.236457
-0.216561
-0.199018
-0.183498
-0.169716
-0.157437
-0.14644
-0.136413
-0.127174
-0.119812
-0.547759
-0.532354
-0.51003
-0.479181
-0.443009
-0.405613
-0.369749
-0.336809
-0.307256
-0.281041
-0.257876
-0.237402
-0.219266
-0.203146
-0.188762
-0.175887
-0.164303
-0.153712
-0.143915
-0.13594
-0.562816
-0.547169
-0.52582
-0.496528
-0.461783
-0.425379
-0.390043
-0.357257
-0.327603
-0.301123
-0.277597
-0.256705
-0.238118
-0.221527
-0.206664
-0.193303
-0.181238
-0.170183
-0.159925
-0.151416
-0.57393
-0.55813
-0.53784
-0.51029
-0.477259
-0.442178
-0.407693
-0.375352
-0.345844
-0.319313
-0.295608
-0.274459
-0.255563
-0.238632
-0.223408
-0.209672
-0.197228
-0.185805
-0.175178
-0.166214
-0.581272
-0.565405
-0.546227
-0.520552
-0.489476
-0.456022
-0.422699
-0.391089
-0.361979
-0.33561
-0.311912
-0.290665
-0.271604
-0.254462
-0.238994
-0.224992
-0.212267
-0.200568
-0.18966
-0.18032
-0.585067
-0.569222
-0.551173
-0.527452
-0.498523
-0.46696
-0.435091
-0.404489
-0.376024
-0.350031
-0.326523
-0.305339
-0.286253
-0.269026
-0.25343
-0.239265
-0.226356
-0.214471
-0.203367
-0.193729
-0.585591
-0.569857
-0.552927
-0.531185
-0.504531
-0.47508
-0.444925
-0.415595
-0.388014
-0.362608
-0.339472
-0.318508
-0.299536
-0.282347
-0.266733
-0.252508
-0.239508
-0.227521
-0.216304
-0.206447
-0.583161
-0.567627
-0.551784
-0.531991
-0.50768
-0.480506
-0.452288
-0.424469
-0.398002
-0.373388
-0.3508
-0.33021
-0.311487
-0.294455
-0.278931
-0.264744
-0.251743
-0.239735
-0.228484
-0.218485
-0.578126
-0.562885
-0.548077
-0.530158
-0.508193
-0.483398
-0.457296
-0.431199
-0.406056
-0.382428
-0.360561
-0.340494
-0.32215
-0.30539
-0.29006
-0.276005
-0.263088
-0.251138
-0.239927
-0.229862
-0.570857
-0.556002
-0.542168
-0.526009
-0.50633
-0.483955
-0.460092
-0.435891
-0.412262
-0.3898
-0.368817
-0.349418
-0.331577
-0.315201
-0.300163
-0.28633
-0.273579
-0.261761
-0.250663
-0.240604
-0.561736
-0.547359
-0.534436
-0.519892
-0.502387
-0.482405
-0.460847
-0.438671
-0.416715
-0.395584
-0.375639
-0.357044
-0.339828
-0.323941
-0.309289
-0.295764
-0.283258
-0.271643
-0.260724
-0.250743
-0.551145
-0.537339
-0.525264
-0.512174
-0.496684
-0.479008
-0.459758
-0.439687
-0.419529
-0.399871
-0.381104
-0.363441
-0.346965
-0.331668
-0.317493
-0.304356
-0.292169
-0.280825
-0.270149
-0.260315
-0.539457
-0.526307
-0.515025
-0.503224
-0.489558
-0.474045
-0.457046
-0.439105
-0.420829
-0.402758
-0.385292
-0.368681
-0.353052
-0.338441
-0.324828
-0.312157
-0.300359
-0.289351
-0.278978
-0.269358
-0.527022
-0.514607
-0.504074
-0.493401
-0.48135
-0.467814
-0.452952
-0.43711
-0.420754
-0.404352
-0.388288
-0.372834
-0.358152
-0.34432
-0.331351
-0.319218
-0.307878
-0.297264
-0.287252
-0.277909
-0.514164
-0.502551
-0.492733
-0.483042
-0.472393
-0.460621
-0.447733
-0.433903
-0.419455
-0.404765
-0.39018
-0.375972
-0.362329
-0.34936
-0.337112
-0.325589
-0.314768
-0.304608
-0.295008
-0.286002
-0.501169
-0.490416
-0.481288
-0.472454
-0.463004
-0.452766
-0.441651
-0.429699
-0.417097
-0.40412
-0.391059
-0.378167
-0.365641
-0.353613
-0.342159
-0.331311
-0.321071
-0.311418
-0.30228
-0.293664
-0.488289
-0.478434
-0.469982
-0.461901
-0.453466
-0.444535
-0.434973
-0.424723
-0.413857
-0.40255
-0.391021
-0.379489
-0.368142
-0.357123
-0.346532
-0.336422
-0.326819
-0.317725
-0.309093
-0.300916
-0.475729
-0.466796
-0.459012
-0.451604
-0.444027
-0.436188
-0.42795
-0.4192
-0.409921
-0.400197
-0.390171
-0.380011
-0.369885
-0.359932
-0.350263
-0.34095
-0.332039
-0.323551
-0.315465
-0.307768
-0.463655
-0.455651
-0.448529
-0.441734
-0.434885
-0.427951
-0.420817
-0.41335
-0.40548
-0.397212
-0.388618
-0.379812
-0.370922
-0.362074
-0.353377
-0.344915
-0.336746
-0.32891
-0.321407
-0.314222
-0.452194
-0.445109
-0.438641
-0.432416
-0.426194
-0.420006
-0.413776
-0.40738
-0.400721
-0.393752
-0.386485
-0.378975
-0.371309
-0.363584
-0.355896
-0.348329
-0.340949
-0.333808
-0.326923
-0.320274
-0.441434
-0.435243
-0.429418
-0.423731
-0.418061
-0.412492
-0.406994
-0.401471
-0.395824
-0.389979
-0.383901
-0.377598
-0.371109
-0.364497
-0.357837
-0.3512
-0.344651
-0.338245
-0.332016
-0.32592
-0.431432
-0.426097
-0.420897
-0.415723
-0.410548
-0.4055
-0.400595
-0.395773
-0.390951
-0.386048
-0.381003
-0.375786
-0.370396
-0.364861
-0.359223
-0.353536
-0.347853
-0.342224
-0.33669
-0.33117
-0.422221
-0.41769
-0.413089
-0.408405
-0.403683
-0.399084
-0.394663
-0.390401
-0.386238
-0.382103
-0.377927
-0.373656
-0.36926
-0.364731
-0.360085
-0.355348
-0.350556
-0.345745
-0.340958
-0.336057
-0.413812
-0.410024
-0.405989
-0.401768
-0.397466
-0.393263
-0.389247
-0.385433
-0.381792
-0.378271
-0.374804
-0.371329
-0.367798
-0.364181
-0.360465
-0.356654
-0.352764
-0.348811
-0.344837
-0.34064
-0.406206
-0.403088
-0.399577
-0.395791
-0.391878
-0.388032
-0.384363
-0.380917
-0.377691
-0.374654
-0.371753
-0.368928
-0.366123
-0.363296
-0.360418
-0.357479
-0.354477
-0.351414
-0.348333
-0.345012
-0.399391
-0.396863
-0.393828
-0.390444
-0.386893
-0.383373
-0.380012
-0.376876
-0.373987
-0.371334
-0.368877
-0.366567
-0.364349
-0.362176
-0.360016
-0.357852
-0.355685
-0.353517
-0.351398
-0.349212
-0.393349
-0.391324
-0.38871
-0.385695
-0.38248
-0.379263
-0.376181
-0.373318
-0.370713
-0.368368
-0.366262
-0.364352
-0.362589
-0.360929
-0.359339
-0.357811
-0.356362
-0.355029
-0.3539
-0.353247
-0.38805
-0.386438
-0.384191
-0.381511
-0.378606
-0.375674
-0.372855
-0.370241
-0.367885
-0.365801
-0.363975
-0.362375
-0.360955
-0.359669
-0.358487
-0.357405
-0.356469
-0.355774
-0.355509
-0.356748
-0.383456
-0.382165
-0.38023
-0.377852
-0.375239
-0.372578
-0.370012
-0.367637
-0.365511
-0.363657
-0.362069
-0.360715
-0.359549
-0.358519
-0.357582
-0.356723
-0.35599
-0.355513
-0.355664
-0.359052
-0.379511
-0.378453
-0.376781
-0.374677
-0.372339
-0.369943
-0.367627
-0.365488
-0.363588
-0.361951
-0.360574
-0.359427
-0.358458
-0.357598
-0.356774
-0.355925
-0.355032
-0.354115
-0.35357
-0.357931
-0.376144
-0.375239
-0.373785
-0.371934
-0.369859
-0.367726
-0.365665
-0.363768
-0.362096
-0.360675
-0.359502
-0.358544
-0.357741
-0.357004
-0.35621
-0.355191
-0.353724
-0.35133
-0.346696
-0.340583
-0.373265
-0.372449
-0.371177
-0.369559
-0.367743
-0.365876
-0.364077
-0.362434
-0.361001
-0.359805
-0.358841
-0.358078
-0.357456
-0.356884
-0.356228
-0.355313
-0.353921
-0.351673
-0.347569
-0.34279
-0.370771
-0.369996
-0.36888
-0.367484
-0.365923
-0.364328
-0.362803
-0.361428
-0.360251
-0.359293
-0.358553
-0.358002
-0.357588
-0.357235
-0.356835
-0.356258
-0.35537
-0.353919
-0.351194
-0.348766
-0.36855
-0.367791
-0.366814
-0.365632
-0.364327
-0.36301
-0.361772
-0.360679
-0.359774
-0.359073
-0.358573
-0.358249
-0.35806
-0.357943
-0.35782
-0.357604
-0.357216
-0.356462
-0.354808
-0.354085
-0.366488
-0.365744
-0.364901
-0.363929
-0.36288
-0.361846
-0.360904
-0.360108
-0.35949
-0.359062
-0.358819
-0.358738
-0.358785
-0.358912
-0.359062
-0.359182
-0.359236
-0.359075
-0.358311
-0.358835
-0.364477
-0.363767
-0.363063
-0.362301
-0.361509
-0.360761
-0.360121
-0.35963
-0.359311
-0.35917
-0.359198
-0.359376
-0.359672
-0.360051
-0.360474
-0.360912
-0.361359
-0.3617
-0.361648
-0.363022
-0.362421
-0.361786
-0.361234
-0.360685
-0.360149
-0.359686
-0.359348
-0.359163
-0.359148
-0.3593
-0.35961
-0.360056
-0.360612
-0.361251
-0.361943
-0.362679
-0.363468
-0.364211
-0.364675
-0.366573
-0.360246
-0.35974
-0.359361
-0.359027
-0.358743
-0.35856
-0.358516
-0.358632
-0.358915
-0.359359
-0.35995
-0.360666
-0.361485
-0.362382
-0.363336
-0.364345
-0.365425
-0.36648
-0.367296
-0.369497
-0.357899
-0.357587
-0.357403
-0.357287
-0.35725
-0.357335
-0.357571
-0.357972
-0.358538
-0.359261
-0.360121
-0.361099
-0.36217
-0.363314
-0.364513
-0.365768
-0.367095
-0.368388
-0.369441
-0.37182
-0.355357
-0.355305
-0.35534
-0.355442
-0.355642
-0.355976
-0.35647
-0.357133
-0.35796
-0.358937
-0.360046
-0.361263
-0.362568
-0.363937
-0.365355
-0.366825
-0.368358
-0.369833
-0.371051
-0.373553
-0.352626
-0.352895
-0.353169
-0.353487
-0.353909
-0.354471
-0.355196
-0.35609
-0.357146
-0.358348
-0.359674
-0.361102
-0.362609
-0.364174
-0.365782
-0.367433
-0.369133
-0.370749
-0.37209
-0.374695
-0.34974
-0.350383
-0.35091
-0.351437
-0.352062