/*--------------------------------*- C++ -*----------------------------------*\
  =========                 |
  \\      /  F ield         | OpenFOAM: The Open Source CFD Toolbox
   \\    /   O peration     | Website:  https://openfoam.org
    \\  /    A nd           | Version:  6.0
     \\/     M anipulation  |
\*---------------------------------------------------------------------------*/
FoamFile
{
    version     2.0;
    format      ascii;
    class       surfaceScalarField;
    location    "66";
    object      phi;
}
// * * * * * * * * * * * * * * * * * * * * * * * * * * * * * * * * * * * * * //

dimensions      [0 3 -1 0 0 0 0];

internalField   nonuniform List<scalar> 
7840
(
-2.39642e-06
2.50584e-05
-2.26619e-05
-8.51e-06
6.77058e-05
-6.15922e-05
-1.73525e-05
0.000103627
-9.47842e-05
-2.80365e-05
0.000133294
-0.00012261
-3.97886e-05
0.000157392
-0.00014564
-5.19467e-05
0.000176773
-0.000164615
-6.39559e-05
0.000192338
-0.000180329
-7.53645e-05
0.000204949
-0.00019354
-8.58212e-05
0.000215388
-0.000204931
-9.50721e-05
0.000224332
-0.000215081
-0.000102959
0.000232354
-0.000224468
-0.000109414
0.000239929
-0.000233473
-0.000114461
0.000247452
-0.000242405
-0.000118202
0.000255255
-0.000251513
-0.000120821
0.000263624
-0.000261005
-0.000122569
0.00027281
-0.000271062
-0.00012376
0.000283035
-0.000281844
-0.000124767
0.000294497
-0.00029349
-0.000126014
0.00030739
-0.000306143
0.000321954
-0.000319981
-0.000127987
-1.96791e-06
2.70263e-05
-7.06192e-06
7.27998e-05
-1.44701e-05
0.000111035
-2.34283e-05
0.000142252
-3.32492e-05
0.000167213
-4.33296e-05
0.000186854
-5.31522e-05
0.00020216
-6.2287e-05
0.000214083
-7.0391e-05
0.000223492
-7.72084e-05
0.000231149
-8.25692e-05
0.000237715
-8.63889e-05
0.000243749
-8.86661e-05
0.000249729
-8.94795e-05
0.000256068
-8.89857e-05
0.00026313
-8.74153e-05
0.000271239
-8.50712e-05
0.000280691
-8.23266e-05
0.000291752
-7.9627e-05
0.000304691
0.000319831
-7.75037e-05
-1.59003e-06
2.86163e-05
-5.76615e-06
7.6976e-05
-1.18647e-05
0.000117133
-1.92282e-05
0.000149616
-2.72463e-05
0.000175231
-3.53678e-05
0.000194975
-4.31081e-05
0.000209901
-5.00528e-05
0.000221028
-5.58604e-05
0.000229299
-6.02639e-05
0.000235553
-6.30724e-05
0.000240523
-6.41719e-05
0.000244848
-6.35268e-05
0.000249084
-6.11799e-05
0.000253721
-5.72545e-05
0.000259204
-5.19556e-05
0.00026594
-4.55732e-05
0.000274309
-3.84868e-05
0.000284666
-3.11735e-05
0.000297377
0.000312885
-2.42279e-05
-1.27065e-06
2.9887e-05
-4.64968e-06
8.0355e-05
-9.58963e-06
0.000122073
-1.55212e-05
0.000155547
-2.18991e-05
0.000181609
-2.82177e-05
0.000201294
-3.40192e-05
0.000215702
-3.89e-05
0.000225909
-4.25137e-05
0.000232913
-4.4575e-05
0.000237614
-4.48628e-05
0.000240811
-4.32236e-05
0.000243209
-3.95766e-05
0.000245437
-3.3918e-05
0.000248063
-2.63285e-05
0.000251615
-1.6981e-05
0.000256593
-6.15051e-06
0.000263478
5.77372e-06
0.000272741
1.82722e-05
0.000284879
0.00030049
3.06669e-05
-1.01468e-06
3.09016e-05
-3.72942e-06
8.30697e-05
-7.67924e-06
0.000126023
-1.23626e-05
0.00016023
-1.72876e-05
0.000186534
-2.19864e-05
0.000205993
-2.60242e-05
0.00021974
-2.90038e-05
0.000228889
-3.05701e-05
0.000234479
-3.04136e-05
0.000237458
-2.82756e-05
0.000238673
-2.39542e-05
0.000238888
-1.73122e-05
0.000238795
-8.28771e-06
0.000239038
3.09269e-06
0.000240235
1.6698e-05
0.000242988
3.22736e-05
0.000247903
4.94192e-05
0.000255596
6.75622e-05
0.000266736
0.000282134
8.59188e-05
-8.23898e-07
3.17255e-05
-3.01231e-06
8.52582e-05
-6.14827e-06
0.000129159
-9.77734e-06
0.00016386
-1.34488e-05
0.000190205
-1.67269e-05
0.000209271
-1.91958e-05
0.000222209
-2.04636e-05
0.000230156
-2.01641e-05
0.00023418
-1.79611e-05
0.000235255
-1.35533e-05
0.000234266
-6.68258e-06
0.000232017
2.8548e-06
0.000229257
1.5192e-05
0.000226701
3.03711e-05
0.000225055
4.83168e-05
0.000225042
6.88057e-05
0.000227414
9.14297e-05
0.000232972
0.000115554
0.000242612
0.000257426
0.000140262
-6.97305e-07
3.24229e-05
-2.49546e-06
8.70563e-05
-4.99161e-06
0.000131655
-7.75809e-06
0.000166626
-1.03741e-05
0.000192821
-1.24301e-05
0.000211327
-1.35286e-05
0.000223307
-1.32828e-05
0.000229911
-1.13176e-05
0.000232214
-7.27009e-06
0.000231207
-7.95216e-07
0.000227791
8.42626e-06
0.000222796
2.06734e-05
0.00021701
3.61644e-05
0.00021121
5.50275e-05
0.000206192
7.72629e-05
0.000202806
0.000102696
0.00020198
0.000130922
0.000204746
0.000161238
0.000212297
0.000226099
0.000192564
-6.30977e-07
3.30538e-05
-2.16604e-06
8.85914e-05
-4.18388e-06
0.000133673
-6.26387e-06
0.000168706
-8.00428e-06
0.000194562
-9.01773e-06
0.00021234
-8.92472e-06
0.000223214
-7.34765e-06
0.000228334
-3.90651e-06
0.000228773
1.78272e-06
0.000225518
1.01059e-05
0.000219467
2.14434e-05
0.000211458
3.61552e-05
0.000202298
5.45565e-05
0.000192809
7.68813e-05
0.000183868
0.000103231
0.000176457
0.000133508
0.000171704
0.00016733
0.000170924
0.00020393
0.000175696
0.000187993
0.000242036
-6.18324e-07
3.36722e-05
-2.00179e-06
8.99748e-05
-3.67975e-06
0.000135351
-5.2195e-06
0.000170246
-6.22779e-06
0.00019557
-6.33542e-06
0.000212448
-5.18231e-06
0.000222061
-2.40506e-06
0.000225556
2.37282e-06
0.000223995
9.54723e-06
0.000218344
1.95355e-05
0.000209479
3.27727e-05
0.000198221
4.96985e-05
0.000185372
7.07327e-05
0.000171774
9.62334e-05
0.000158367
0.000126432
0.000146258
0.000161346
0.00013679
0.000200653
0.000131617
0.00024354
0.000132809
0.000143019
0.000288514
-6.50417e-07
3.43226e-05
-1.97189e-06
9.12963e-05
-3.41526e-06
0.000136795
-4.51681e-06
0.000171347
-4.8806e-06
0.000195934
-4.15086e-06
0.000211718
-1.98784e-06
0.000219898
1.95188e-06
0.000221617
8.03122e-06
0.000217916
1.66446e-05
0.00020973
2.82255e-05
0.000197898
4.32486e-05
0.000183198
6.22229e-05
0.000166398
8.56701e-05
0.000148327
0.000114083
0.000129954
0.000147852
0.000112489
0.000187152
9.74903e-05
0.000231778
8.69914e-05
0.000280913
8.36736e-05
9.11041e-05
0.000332828
-7.16442e-07
3.5039e-05
-2.03831e-06
9.26182e-05
-3.31024e-06
0.000138066
-4.01802e-06
0.000172055
-3.75011e-06
0.000195666
-2.15702e-06
0.000210125
1.08234e-06
0.000216659
6.2876e-06
0.000216411
1.37987e-05
0.000210405
2.39935e-05
0.000199536
3.7302e-05
0.00018459
5.42151e-05
0.000166285
7.52873e-05
0.000145326
0.000101124
0.00012249
0.000132348
9.87306e-05
0.000169524
7.53127e-05
0.00021303
5.39839e-05
0.000262847
3.71742e-05
0.00031823
2.82908e-05
3.21035e-05
0.000377231
-8.04287e-07
3.58433e-05
-2.15758e-06
9.39715e-05
-3.27171e-06
0.000139181
-3.56121e-06
0.000172345
-2.58296e-06
0.000194688
1.76508e-08
0.000207524
4.54982e-06
0.000212127
1.13108e-05
0.00020965
2.06128e-05
0.000201103
3.28048e-05
0.000187343
4.82923e-05
0.000169102
6.75535e-05
0.000147023
9.1152e-05
0.000121728
0.000119739
9.39036e-05
0.000154034
6.44353e-05
0.000194767
3.45795e-05
0.000242546
6.20489e-06
0.000297611
-1.78907e-05
0.000359399
-3.34968e-05
-3.43131e-05
0.000425815
-9.01125e-07
3.67444e-05
-2.28267e-06
9.5353e-05
-3.19774e-06
0.000140096
-2.96694e-06
0.000172114
-1.09569e-06
0.000192816
2.79316e-06
0.000203636
9.01117e-06
0.000205909
1.78434e-05
0.000200818
2.95782e-05
0.000189368
4.45317e-05
0.00017239
6.30695e-05
0.000150565
8.5628e-05
0.000124465
0.000112735
9.46203e-05
0.000145029
6.16095e-05
0.000183263
2.62014e-05
0.000228276
-1.04332e-05
0.000280887
-4.64058e-05
0.000341646
-7.86497e-05
0.00041031
-0.000102161
-0.000108798
0.000484795
-9.93865e-07
3.77383e-05
-2.36448e-06
9.67236e-05
-2.98071e-06
0.000140712
-2.04467e-06
0.000171178
1.0141e-06
0.000189757
6.61934e-06
0.00019803
1.51083e-05
0.00019742
2.67748e-05
0.000189152
4.19004e-05
0.000174242
6.07774e-05
0.000153513
8.37288e-05
0.000127613
0.000111129
9.70649e-05
0.000143427
6.23219e-05
0.000181178
2.38586e-05
0.00022507
-1.76908e-05
0.000275941
-6.13044e-05
0.000334731
-0.000105195
0.000402281
-0.0001462
0.000478797
-0.000178676
-0.000192467
0.000562466
-1.06927e-06
3.88076e-05
-2.35239e-06
9.80067e-05
-2.50906e-06
0.000140869
-5.96682e-07
0.000169265
4.05936e-06
0.000185101
1.19599e-05
0.00019013
2.34997e-05
0.00018588
3.90141e-05
0.000173637
5.8808e-05
0.000154449
8.31752e-05
0.000129146
0.000112411
9.83771e-05
0.000146826
6.26502e-05
0.000186761
2.23867e-05
0.00023262
-2.20005e-05
0.000284914
-6.99846e-05
0.000344318
-0.000120708
0.000411708
-0.000172585
0.000488082
-0.000222574
0.00057413
-0.000264725
-0.000287
0.000668663
-1.11367e-06
3.99212e-05
-2.19362e-06
9.90867e-05
-1.66656e-06
0.000140342
1.58174e-06
0.000166017
8.36105e-06
0.000178322
1.92843e-05
0.000179207
3.48427e-05
0.000170322
5.54533e-05
0.000153027
8.14861e-05
0.000128416
0.000113275
9.73565e-05
0.000151121
6.05313e-05
0.000195288
1.84836e-05
0.000246005
-2.83304e-05
0.000303482
-7.94775e-05
0.000367949
-0.000134452
0.00043974
-0.0001925
0.000519406
-0.000252251
0.000607803
-0.00031097
0.000705949
-0.000362871
-0.000394633
0.000813581
-1.11234e-06
4.10336e-05
-1.83161e-06
9.9806e-05
-3.29569e-07
0.000138839
4.70605e-06
0.000160981
1.42521e-05
0.000168776
2.90704e-05
0.000164388
4.97895e-05
0.000149603
7.69522e-05
0.000125864
0.000111038
9.43296e-05
0.000152467
5.59282e-05
0.000201583
1.14148e-05
0.00025864
-3.85736e-05
0.000323775
-9.34648e-05
0.000396994
-0.000152697
0.000478191
-0.000215648
0.00056721
-0.000281519
0.000664005
-0.000349047
0.000768861
-0.000415825
0.000882616
-0.000476626
-0.000518001
0.00100598
-1.04873e-06
4.20823e-05
-1.20398e-06
9.99612e-05
1.63657e-06
0.000135999
9.00793e-06
0.00015361
2.20845e-05
0.0001557
4.18126e-05
0.00014466
6.89958e-05
0.00012242
0.000104342
9.0518e-05
0.000148478
5.01932e-05
0.000201945
2.46116e-06
0.000265169
-5.18088e-05
0.000338422
-0.000111827
0.000421778
-0.000176821
0.000515063
-0.000245983
0.000617828
-0.000318413
0.000729363
-0.000393053
0.000848824
-0.000468509
0.00097552
-0.000542521
0.00110935
-0.000610452
-0.000660247
0.00125159
-9.03965e-07
4.29863e-05
-2.41353e-07
9.92986e-05
4.37956e-06
0.000131378
1.47382e-05
0.000143251
3.22338e-05
0.000138204
5.80262e-05
0.000118868
9.31229e-05
8.73229e-05
0.000138421
4.52198e-05
0.000194716
-6.10136e-06
0.00026268
-6.55035e-05
0.000342831
-0.000131959
0.000435475
-0.000204471
0.000540651
-0.000281996
0.000658059
-0.000363391
0.000786989
-0.000447343
0.000926252
-0.000532317
0.00107418
-0.000616435
0.00122877
-0.000697108
0.00138816
-0.000769848
-0.00082529
0.0015532
-6.57013e-07
4.36433e-05
1.13184e-06
9.75098e-05
8.05816e-06
0.000124452
2.21631e-05
0.000129147
4.5091e-05
0.000115276
7.82342e-05
8.57246e-05
0.000122815
4.27419e-05
0.000179919
-1.18843e-05
0.00025049
-7.66725e-05
0.000335303
-0.000150316
0.000434918
-0.000231575
0.00054964
-0.000319192
0.000679469
-0.000411826
0.00082407
-0.000507992
0.000982737
-0.00060601
0.00115435
-0.000703932
0.00133729
-0.000799369
0.00152898
-0.000888802
0.00172399
-0.00096486
-0.00100739
0.00190609
-2.86326e-07
4.39296e-05
2.99297e-06
9.42305e-05
1.28338e-05
0.000114611
3.15497e-05
0.000110431
6.10403e-05
8.57856e-05
0.000102931
4.38335e-05
0.000158644
-1.29708e-05
0.000229409
-8.26495e-05
0.000316245
-0.000163509
0.000419916
-0.000253987
0.000540885
-0.000352544
0.000679281
-0.000457589
0.000834896
-0.00056744
0.00100722
-0.000680319
0.00119558
-0.000794367
0.00139934
-0.000907696
0.00161841
-0.00101844
0.00185429
-0.00112468
0.00211385
-0.00122442
-0.00130912
0.00241558
2.31208e-07
4.36984e-05
5.41999e-06
8.90417e-05
1.88635e-05
0.000101167
4.3149e-05
8.61451e-05
8.04259e-05
4.85087e-05
0.00013253
-8.27069e-06
0.000201027
-8.14678e-05
0.000287199
-0.000168821
0.000391994
-0.000268304
0.000515969
-0.000377962
0.000659236
-0.00049581
0.000821434
-0.000619787
0.00100175
-0.000747759
0.001199
-0.000877562
0.00141171
-0.00100708
0.00163839
-0.00113438
0.00187774
-0.00125778
0.00212915
-0.00137609
0.00239335
-0.00148862
-0.00158722
0.00267145
9.14607e-07
4.27838e-05
8.47898e-06
8.14773e-05
2.62789e-05
8.33674e-05
5.71632e-05
5.52608e-05
0.000103504
2.16775e-06
0.00016729
-7.20568e-05
0.000250131
-0.000164309
0.000353206
-0.000271896
0.000477185
-0.000392283
0.000622154
-0.000522931
0.000787568
-0.000661224
0.000972246
-0.000804465
0.00117443
-0.00094994
0.00139188
-0.00109501
0.00162203
-0.00123724
0.00186218
-0.00137452
0.00210958
-0.00150519
0.00236162
-0.00162813
0.00261577
-0.00174276
-0.00184229
0.00287083
1.78006e-06
4.10038e-05
1.2223e-05
7.10344e-05
3.51786e-05
6.04119e-05
7.37262e-05
1.67132e-05
0.000130404
-5.45104e-05
0.000207255
-0.000148907
0.000305776
-0.00026283
0.000426831
-0.00039295
0.000570542
-0.000535994
0.000736223
-0.000688613
0.000922364
-0.000847364
0.00112668
-0.00100878
0.00134626
-0.00116951
0.0015777
-0.00132645
0.00181737
-0.00147691
0.00206156
-0.00161871
0.00230667
-0.00175029
0.00254925
-0.00187071
0.00278613
-0.00197965
-0.00207258
0.00301643
2.83949e-06
3.81643e-05
1.66877e-05
5.71862e-05
4.56173e-05
3.14823e-05
9.28827e-05
-3.05522e-05
0.000161094
-0.000122722
0.000252195
-0.000240009
0.000367361
-0.000377995
0.000506863
-0.000532452
0.00066997
-0.000699102
0.000854918
-0.000873561
0.00105897
-0.00105142
0.00127858
-0.0012284
0.00150965
-0.00140058
0.00174775
-0.00156456
0.00198848
-0.00171764
0.00222766
-0.00185789
0.0024615
-0.00198414
0.00268674
-0.00209595
0.00290065
-0.00219356
-0.00227465
0.00310272
4.10075e-06
3.40635e-05
2.18898e-05
3.93972e-05
5.76015e-05
-4.22942e-06
0.000114577
-8.75272e-05
0.000195356
-0.000203501
0.00030158
-0.000346233
0.000433824
-0.000510239
0.000591456
-0.000690084
0.000772575
-0.000880221
0.000974077
-0.00107506
0.00119186
-0.0012692
0.00142112
-0.00145766
0.00165674
-0.0016362
0.00189366
-0.00180148
0.00212721
-0.00195119
0.00235334
-0.00208401
0.00256877
-0.00219957
0.00277109
-0.00229826
0.00295866
-0.00238114
-0.00244771
0.00313172
5.56815e-06
2.84954e-05
2.78276e-05
1.71377e-05
7.10863e-05
-4.74881e-05
0.000138644
-0.000155084
0.000232778
-0.000297636
0.00035456
-0.000468014
0.000503646
-0.000659325
0.00067817
-0.000864608
0.000874789
-0.00107684
0.00108891
-0.00128918
0.00131508
-0.00149537
0.00154747
-0.00169005
0.00178036
-0.00186909
0.00200857
-0.00202968
0.00222774
-0.00217036
0.00243456
-0.00229083
0.00262678
-0.0023918
0.00280319
-0.00247467
0.00296344
-0.00254139
-0.00259285
0.00310859
7.2429e-06
2.12525e-05
3.44807e-05
-1.01001e-05
8.59737e-05
-9.89811e-05
0.000164806
-0.000233916
0.000272744
-0.000405575
0.000409971
-0.000605241
0.000574883
-0.000824238
0.000764084
-0.00105381
0.000972614
-0.00128537
0.00119441
-0.00151098
0.00142292
-0.00172388
0.0016517
-0.00191883
0.00187498
-0.00209237
0.00208804
-0.00224274
0.00228743
-0.00236975
0.00247099
-0.0024744
0.00263778
-0.00255859
0.00278786
-0.00262475
0.00292206
-0.00267559
-0.00271298
0.00304219
9.12282e-06
1.21297e-05
4.1808e-05
-4.27853e-05
0.000102108
-0.000159281
0.000192665
-0.000324473
0.000314433
-0.000527343
0.000466357
-0.000757165
0.000645248
-0.00100313
0.000845971
-0.00125453
0.00106195
-0.00150134
0.00128587
-0.00173491
0.00151051
-0.00194852
0.0017294
-0.00213771
0.00193731
-0.00230028
0.00213055
-0.00243598
0.00230694
-0.00254613
0.00246568
-0.00263314
0.00260713
-0.00270004
0.00273245
-0.00275008
0.00284336
-0.0027865
-0.00281177
0.00294215
1.12012e-05
9.28465e-07
4.97444e-05
-8.13284e-05
0.000119268
-0.000228804
0.000221697
-0.000426902
0.000356827
-0.000662473
0.000522017
-0.000922355
0.000712235
-0.00119335
0.000920549
-0.00146285
0.00113895
-0.00171974
0.00135933
-0.00195529
0.00157436
-0.00216355
0.00177817
-0.00234152
0.00196661
-0.00248872
0.00213735
-0.00260672
0.00228965
-0.00269843
0.00242404
-0.00276753
0.00254195
-0.00281794
0.00264535
-0.00285348
0.00273644
-0.00287759
-0.00289302
0.0028177
1.3465e-05
-1.25365e-05
5.81956e-05
-0.000126059
0.000137164
-0.000307772
0.000251253
-0.000540992
0.000398741
-0.00080996
0.000575088
-0.0010987
0.000773294
-0.00139155
0.000984758
-0.00167431
0.00120044
-0.00193543
0.00141202
-0.00216686
0.00161269
-0.00236423
0.0017977
-0.00252653
0.00196436
-0.00265538
0.00211183
-0.00275419
0.00224072
-0.00282733
0.00235265
-0.00287947
0.0024498
-0.0029151
0.00253458
-0.00293825
0.00260935
-0.00295236
-0.00296016
0.00267648
1.58929e-05
-2.84295e-05
6.70348e-05
-0.000177201
0.000155433
-0.00039617
0.000280574
-0.000666134
0.000438866
-0.000968252
0.000623663
-0.0012835
0.00082603
-0.00159392
0.00103604
-0.00188432
0.00124418
-0.00214357
0.00144253
-0.00236521
0.00162541
-0.0025471
0.00178952
-0.00269064
0.00193375
-0.00279961
0.00205868
-0.00287912
0.00216603
-0.00293468
0.00225816
-0.0029716
0.00233766
-0.0029946
0.00240704
-0.00300764
0.00246859
-0.00301391
-0.00301596
0.0025244
1.84543e-05
-4.68837e-05
7.61007e-05
-0.000234847
0.000173646
-0.000493715
0.000308814
-0.000801302
0.000475851
-0.00113529
0.000665928
-0.00147358
0.000868413
-0.00179641
0.00107256
-0.00208846
0.00126902
-0.00234003
0.00145086
-0.00254705
0.00161389
-0.00271013
0.00175646
-0.00283321
0.00187894
-0.00292209
0.00198307
-0.00298325
0.00207136
-0.00302297
0.00214657
-0.00304681
0.00221139
-0.00305941
0.0022682
-0.00306445
0.00231904
-0.00306476
-0.00306259
0.00236567
2.11079e-05
-6.79916e-05
8.51992e-05
-0.000298939
0.00019132
-0.000599835
0.000335085
-0.000945068
0.000508385
-0.00130859
0.000700307
-0.0016655
0.000898937
-0.00199504
0.00109332
-0.00228284
0.00127488
-0.0025216
0.00143813
-0.0027103
0.00158057
-0.00285256
0.00170211
-0.00295476
0.0018044
-0.00302438
0.00189001
-0.00306886
0.00196189
-0.00309484
0.00202289
-0.00310782
0.00207559
-0.00311211
0.00212211
-0.00311097
0.00216418
-0.00310682
-0.00310159
0.00220318
2.3803e-05
-9.17946e-05
9.41098e-05
-0.000369245
0.000207941
-0.000713667
0.000358512
-0.00109564
0.000535299
-0.00148538
0.000725582
-0.00185578
0.000916719
-0.00218617
0.00109817
-0.00246429
0.00126265
-0.00268609
0.00140637
-0.00285402
0.0015285
-0.00297469
0.00163033
-0.00305659
0.00171445
-0.0031085
0.00178395
-0.00313836
0.00184189
-0.00315279
0.00189104
-0.00315697
0.0019337
-0.00315476
0.00197167
-0.00314895
0.00200636
-0.00314151
-0.00313404
0.00203881
2.64807e-05
-0.000118275
0.000102594
-0.000445359
0.000222993
-0.000834065
0.00037829
-0.00125094
0.000555646
-0.00166273
0.000740972
-0.00204111
0.00092151
-0.00236671
0.00108771
-0.00263048
0.00123391
-0.00283229
0.00135809
-0.0029782
0.00146092
-0.00307752
0.00154481
-0.00314048
0.00161293
-0.00317662
0.00166858
-0.00319401
0.00171476
-0.00319896
0.00175396
-0.00319617
0.00178817
-0.00318896
0.00181886
-0.00317964
0.00184713
-0.00316978
-0.00316068
0.00187377
2.90761e-05
-0.000147351
0.000110409
-0.000526692
0.000235986
-0.000959643
0.000393734
-0.00140868
0.000568763
-0.00183776
0.000746155
-0.0022185
0.000913645
-0.0025342
0.00106311
-0.00277994
0.00119068
-0.00295987
0.00129599
-0.00308351
0.001381
-0.00316253
0.00144886
-0.00320834
0.00150307
-0.00323083
0.00154688
-0.00323782
0.00158306
-0.00323515
0.00161379
-0.00322691
0.00164071
-0.00321588
0.00166501
-0.00320393
0.00168751
-0.00319229
-0.00318196
0.00170879
3.15212e-05
-0.000178873
0.000117316
-0.000612487
0.000246488
-0.00108881
0.000404329
-0.00156652
0.000574297
-0.00200773
0.000741244
-0.00238545
0.000893926
-0.00268688
0.00102592
-0.00291194
0.00113517
-0.00306911
0.00122276
-0.0031711
0.0012916
-0.00323138
0.00134532
-0.00326206
0.00138745
-0.00327296
0.00142109
-0.00327145
0.00144867
-0.00326272
0.00147203
-0.00325027
0.00149249
-0.00323635
0.00151098
-0.00322242
0.00152813
-0.00320944
-0.00319817
0.00154434
3.37476e-05
-0.00021262
0.000123098
-0.000701837
0.000254144
-0.00121986
0.000409741
-0.00172212
0.000572198
-0.00217019
0.000726718
-0.00253997
0.000863484
-0.00282365
0.000977909
-0.00302636
0.0010696
-0.0031608
0.00114084
-0.00324234
0.0011952
-0.00328574
0.00123649
-0.00330335
0.00126814
-0.00330461
0.00129292
-0.00329624
0.00131295
-0.00328275
0.00132972
-0.00326704
0.00134429
-0.00325091
0.00135736
-0.00323549
0.0013694
-0.00322148
-0.00320948
0.00138072
3.56892e-05
0.000127563
0.000258698
0.000409835
0.000562692
0.000703339
0.000823657
0.000920876
0.000996058
0.0010524
0.00109386
0.00112421
0.00114665
0.00116362
0.00117686
0.00118759
0.00119663
0.00120452
0.00121161
0.00121811
3.52745e-05
0.00022225
0.00012561
0.000720677
0.000254027
0.00124076
0.000401499
0.00174018
0.000550171
0.00218256
0.00068657
0.00254553
0.000802938
0.00282253
0.000896709
0.00301938
0.000969017
0.00314904
0.00102303
0.00322687
0.00106263
0.00326744
0.00109151
0.00328288
0.00111278
0.00328245
0.00112881
0.0032727
0.00114131
0.00325803
0.00115146
0.00324127
0.00116007
0.0032242
0.00116768
0.0032079
0.00117462
0.00319307
0.00318031
0.00118109
3.34251e-05
0.000188825
0.000121426
0.000632676
0.00024994
0.00111225
0.00040195
0.00158817
0.000560128
0.00202438
0.000710129
0.00239553
0.00084254
0.00269012
0.000953043
0.00290888
0.00104137
0.00306072
0.00110984
0.00315841
0.00116195
0.00321532
0.00120143
0.0032434
0.00123163
0.00325225
0.00125525
0.00324907
0.00127435
0.00323893
0.00129038
0.00322524
0.00130438
0.0032102
0.00131704
0.00319524
0.00132883
0.00318128
0.00316912
0.00134003
3.12943e-05
0.00015753
0.000115953
0.000548017
0.000242833
0.000985367
0.000397246
0.00143376
0.000562924
0.0018587
0.000725142
0.00223331
0.000873085
0.00254217
0.00100066
0.0027813
0.00110601
0.00295537
0.0011903
0.00307412
0.00125641
0.00314921
0.0013079
0.00319191
0.00134824
0.00321191
0.00138042
0.0032169
0.00140682
0.00321253
0.00142923
0.00320282
0.00144895
0.00319048
0.00146688
0.00317731
0.00148363
0.00316453
0.00315313
0.00149962
2.89419e-05
0.000128589
0.000109366
0.000467593
0.000232939
0.000861794
0.000387502
0.0012792
0.000558332
0.00168787
0.000730875
0.00206077
0.000893297
0.00237975
0.00103785
0.00263675
0.00116095
0.00283227
0.00126235
0.00297272
0.00134406
0.00306751
0.00140917
0.00312679
0.00146113
0.00315996
0.0015031
0.00317492
0.00153778
0.00317785
0.0015673
0.00317331
0.00159325
0.00316454
0.00161678
0.00315378
0.00163871
0.00314259
0.00313224
0.00165961
2.64331e-05
0.000102155
0.000101869
0.000392158
0.000220585
0.000743077
0.000373015
0.00112677
0.000546376
0.00151451
0.000726851
0.00188029
0.000902083
0.00220452
0.00106293
0.0024759
0.00120406
0.00269113
0.00132367
0.00285311
0.00142253
0.00296864
0.00150305
0.00304627
0.00156836
0.00309465
0.00162169
0.0031216
0.00166595
0.00313359
0.00170359
0.00313567
0.00173651
0.00313161
0.00176618
0.00312411
0.00179366
0.00311511
0.00310618
0.00181971
2.38354e-05
7.832e-05
9.36939e-05
0.000322299
0.00020619
0.000630581
0.000354279
0.000978679
0.000527383
0.0013414
0.000712949
0.00169472
0.000898669
0.0020188
0.00107441
0.00230017
0.00123326
0.00253228
0.00137172
0.00271466
0.00148912
0.00285124
0.00158685
0.00294854
0.00166747
0.00301403
0.00173402
0.00305504
0.00178951
0.0030781
0.00183663
0.00308856
0.0018776
0.00309064
0.00191421
0.0030875
0.0019478
0.00308152
0.00307457
0.00197941
2.1213e-05
5.71071e-05
8.50811e-05
0.000258431
0.000190227
0.000525435
0.000331951
0.000836955
0.000501985
0.00117137
0.000689468
0.00150724
0.000882727
0.00182554
0.00107117
0.00211173
0.00124662
0.00235683
0.00140392
0.00255735
0.00154083
0.00271433
0.00165742
0.00283195
0.00175538
0.00291607
0.00183728
0.00297314
0.00190601
0.00300937
0.00196438
0.0030302
0.00201487
0.00304015
0.00205957
0.0030428
0.00210015
0.00304093
0.00303677
0.00213796
1.86256e-05
3.84815e-05
7.62679e-05
0.000200789
0.000173207
0.000428497
0.000306812
0.00070335
0.00047109
0.00100709
0.000657147
0.00132118
0.000854481
0.00162821
0.00105263
0.00191358
0.00124262
0.00216683
0.0014179
0.00238207
0.0015746
0.00255764
0.00171129
0.00269525
0.00182848
0.00279888
0.00192797
0.00287366
0.00201225
0.00292509
0.00208403
0.00295841
0.00214595
0.00297823
0.00220034
0.00298842
0.00224917
0.0029921
0.00299179
0.00229415
1.6127e-05
2.23545e-05
6.74812e-05
0.000149435
0.000155646
0.000340332
0.000279728
0.000579267
0.000435836
0.000850986
0.000617157
0.00113986
0.00081477
0.0014306
0.00101893
0.00170942
0.00122044
0.00196532
0.00141175
0.00219076
0.00158754
0.00238185
0.00174482
0.00253797
0.00188271
0.00266099
0.00200189
0.00275447
0.00210416
0.00282282
0.00219188
0.00287069
0.00226759
0.00290252
0.00233374
0.00292226
0.00239258
0.00293326
0.00293825
0.00244613
1.37644e-05
8.59009e-06
5.89299e-05
0.000104269
0.000138044
0.000261218
0.000251596
0.000465715
0.00039752
0.000705062
0.000571035
0.000966348
0.000765041
0.00123659
0.000971009
0.00150345
0.00118012
0.0017562
0.00138438
0.0019865
0.00157735
0.00218887
0.00175464
0.00236068
0.00191385
0.00250179
0.00205435
0.00261396
0.00217691
0.00270026
0.0022832
0.0027644
0.00237542
0.00281031
0.00245592
0.00284175
0.00252706
0.00286213
0.00287419
0.00259111
1.15784e-05
-2.98828e-06
5.07993e-05
6.50482e-05
0.000120865
0.000191152
0.000223292
0.000363289
0.000357508
0.000570846
0.000520573
0.000803282
0.000707274
0.00104989
0.000910636
0.00130009
0.00112276
0.00154408
0.00133579
0.00177348
0.00154273
0.00198194
0.00173806
0.00216535
0.001918
0.00232185
0.00208051
0.00245145
0.00222507
0.00255569
0.00235238
0.0026371
0.00246394
0.00269876
0.00256173
0.00274396
0.00264797
0.00277589
0.00279711
0.00272505
9.60177e-06
-1.25901e-05
4.32457e-05
3.14043e-05
0.000104516
0.000129882
0.000195626
0.000272179
0.000317145
0.000449328
0.000467689
0.000652737
0.000643827
0.000873751
0.000840292
0.00110363
0.00105051
0.00133386
0.00126731
0.00155667
0.00148374
0.00176551
0.00169363
0.00195546
0.00189216
0.00212332
0.00207595
0.00226766
0.00224315
0.0023885
0.0023932
0.00248704
0.00252663
0.00256533
0.00264471
0.00262588
0.0027492
0.00267139
0.00270393
0.00284238
7.85913e-06
-2.04492e-05
3.63908e-05
2.87266e-06
8.93288e-05
7.69438e-05
0.000169296
0.000192211
0.000277662
0.000340961
0.000414268
0.000516132
0.000577232
0.000710786
0.000762967
0.000917894
0.000966427
0.0011304
0.00118159
0.00134151
0.00140206
0.00154505
0.00162164
0.00173587
0.00183491
0.00191006
0.0020375
0.00206507
0.00222632
0.00219968
0.00239953
0.00231383
0.00255647
0.0024084
0.00269738
0.00248496
0.00282325
0.00254552
0.00259126
0.00293592
6.36428e-06
-2.68135e-05
3.03139e-05
-2.1077e-05
7.55433e-05
3.17143e-05
0.000144848
0.000122906
0.000240096
0.000245714
0.000362011
0.000394217
0.000509964
0.000562833
0.000681863
0.000745995
0.000874218
0.000938047
0.00108238
0.00113334
0.00130097
0.00132647
0.0015243
0.00151254
0.00174691
0.00168745
0.00196393
0.00184804
0.00217139
0.00199222
0.00236632
0.00211889
0.00254683
0.0022279
0.00271198
0.00231981
0.00286168
0.00239582
0.00245585
0.0029971
5.11766e-06
-3.19311e-05
2.50442e-05
-4.10035e-05
6.32892e-05
-6.53063e-06
0.00012264
6.35555e-05
0.000205212
0.000163141
0.000312305
0.000287124
0.000444212
0.000430926
0.000600066
0.000590141
0.000777785
0.000760327
0.000974153
0.000936973
0.00118503
0.00111559
0.00140568
0.00129189
0.00163115
0.00146198
0.0018566
0.00162259
0.00207768
0.00177114
0.00229068
0.00190589
0.00249271
0.00202587
0.00268168
0.00213083
0.00285635
0.00222116
0.00229514
0.00301706
4.10388e-06
-3.6035e-05
2.05545e-05
-5.74541e-05
5.25742e-05
-3.85503e-05
0.000102815
1.33146e-05
0.000173453
9.25033e-05
0.000266104
0.000194473
0.000381676
0.000315355
0.000520215
0.000451602
0.000680798
0.000599744
0.00086151
0.000756261
0.00105952
0.000917581
0.00127126
0.00108015
0.00149266
0.00124058
0.00171946
0.00139578
0.00194746
0.00154314
0.00217276
0.0016806
0.0023919
0.00180673
0.00260198
0.00192076
0.00280068
0.00202246
0.00210825
0.00298757
3.29092e-06
-3.93259e-05
1.67602e-05
-7.09234e-05
4.32829e-05
-6.5073e-05
8.52996e-05
-2.87021e-05
0.000144919
3.28837e-05
0.000223878
0.000115514
0.000323437
0.000215796
0.000444254
0.000330785
0.000586267
0.00045773
0.000748626
0.000593903
0.000929683
0.000736523
0.00112707
0.000882768
0.00133782
0.00102983
0.00155858
0.00117502
0.00178582
0.00131591
0.00201599
0.00145042
0.00224572
0.001577
0.00247186
0.00169461
0.00269157
0.00180275
0.00189584
0.00290397
2.63199e-06
-4.19579e-05
1.35272e-05
-8.18186e-05
3.51922e-05
-8.6738e-05
6.98236e-05
-6.33334e-05
0.000119389
-1.66822e-05
0.000185614
4.92892e-05
0.000269912
0.000131498
0.000373292
0.000227405
0.000496263
0.000334759
0.00063875
0.000451416
0.000800054
0.000575219
0.000978862
0.00070396
0.00117331
0.000835377
0.00138111
0.000967219
0.0015997
0.00109732
0.00182638
0.00122374
0.00205851
0.00134486
0.00229361
0.00145952
0.00252923
0.00156713
0.00166115
0.00276392
2.07045e-06
-4.40284e-05
1.06877e-05
-9.04359e-05
2.80043e-05
-0.000104055
5.5974e-05
-9.13031e-05
9.63944e-05
-5.71025e-05
0.0001509
-5.21614e-06
0.00022092
6.14773e-05
0.00030762
0.000140705
0.000411823
0.000230557
0.000533946
0.000329293
0.000673952
0.000435214
0.000831333
0.000546578
0.00100514
0.000661569
0.00119406
0.000778295
0.00139656
0.000894825
0.00161105
0.00100925
0.00183617
0.00111975
0.00207117
0.00122452
0.00231652
0.00132178
0.00140497
0.0025727
1.54718e-06
-4.55755e-05
8.06428e-06
-9.6953e-05
2.13936e-05
-0.000117384
4.32721e-05
-0.000113182
7.53276e-05
-8.9158e-05
0.000119069
-4.89577e-05
0.000175862
4.68493e-06
0.000246885
6.96814e-05
0.000333088
0.000144354
0.000435134
0.000227247
0.000553363
0.000316985
0.000687767
0.000412174
0.000838002
0.000511335
0.00100344
0.000612858
0.00118329
0.000714971
0.00137685
0.000815695
0.00158389
0.00091271
0.00180564
0.00100277
0.00204797
0.00107946
0.00112627
0.00232666
1.00967e-06
-4.65852e-05
5.49717e-06
-0.000101441
1.50608e-05
-0.000126948
3.12621e-05
-0.000129383
5.55792e-05
-0.000113475
8.93899e-05
-8.27683e-05
0.000133953
-3.98785e-05
0.000190386
1.32491e-05
0.000259628
7.51116e-05
0.00034241
0.000144464
0.000439214
0.000220181
0.000550242
0.000301146
0.00067539
0.000386186
0.000814238
0.00047401
0.000966033
0.000563176
0.00112967
0.000652057
0.0013036
0.000738781
0.00148535
0.000821019
0.00166949
0.000895322
0.000956088
0.00183967
4.1708e-07
-4.70023e-05
2.86402e-06
-0.000103887
8.77596e-06
-0.00013286
1.95878e-05
-0.000140195
3.66576e-05
-0.000130545
6.12425e-05
-0.000107353
9.44856e-05
-7.31216e-05
0.000137401
-2.96662e-05
0.000190855
2.1658e-05
0.000255539
7.97795e-05
0.000331945
0.000143775
0.00042032
0.000212771
0.000520637
0.000285869
0.000632545
0.000362102
0.000755323
0.000440398
0.000887826
0.000519553
0.00102846
0.000598149
0.00117517
0.000674306
0.00132551
0.000744981
0.000803754
0.00147785
-2.506e-07
-4.67517e-05
1.02353e-07
-0.00010424
2.4175e-06
-0.000135175
8.05369e-06
-0.000145831
1.82812e-05