/*--------------------------------*- C++ -*----------------------------------*\
  =========                 |
  \\      /  F ield         | OpenFOAM: The Open Source CFD Toolbox
   \\    /   O peration     | Website:  https://openfoam.org
    \\  /    A nd           | Version:  6.0
     \\/     M anipulation  |
\*---------------------------------------------------------------------------*/
FoamFile
{
    version     2.0;
    format      ascii;
    class       volVectorField;
    location    "73";
    object      U;
}
// * * * * * * * * * * * * * * * * * * * * * * * * * * * * * * * * * * * * * //

dimensions      [0 1 -1 0 0 0 0];

internalField   nonuniform List<vector> 
4000
(
(0.107812 0.00800553 6.73249e-20)
(0.339306 0.0412645 -3.67009e-20)
(0.571216 0.0974508 4.32439e-20)
(0.784272 0.159986 -3.21582e-20)
(0.963805 0.218376 -1.43495e-20)
(1.1031 0.266801 4.38628e-21)
(1.20287 0.302891 -1.39827e-20)
(1.26867 0.32695 5.00735e-20)
(1.30803 0.340829 -4.14791e-20)
(1.32845 0.346926 9.70819e-21)
(1.33626 0.347536 -7.23736e-21)
(1.33626 0.344543 -4.63706e-20)
(1.33179 0.339348 4.47681e-20)
(1.32505 0.332911 1.68493e-20)
(1.31739 0.325855 -1.66922e-20)
(1.30962 0.318564 3.88944e-20)
(1.30219 0.31125 -6.82255e-22)
(1.29538 0.304063 -3.71374e-20)
(1.28932 0.297357 2.7277e-20)
(1.28412 0.290969 8.45361e-21)
(0.122649 0.0133866 -2.36108e-20)
(0.374879 0.0575805 6.83423e-20)
(0.618044 0.12307 7.90176e-20)
(0.833466 0.191606 -3.72604e-20)
(1.00838 0.252377 6.47131e-20)
(1.13883 0.300235 1.01954e-19)
(1.22826 0.333882 -5.6402e-21)
(1.28419 0.354643 -1.72684e-20)
(1.31524 0.365117 8.53147e-20)
(1.32929 0.368134 4.13881e-20)
(1.33256 0.366163 -7.34559e-21)
(1.32952 0.361103 6.10548e-20)
(1.32314 0.354285 -6.4676e-20)
(1.31526 0.346575 1.00711e-19)
(1.30696 0.338507 -1.66691e-20)
(1.29888 0.330394 4.72905e-20)
(1.29134 0.322395 8.30605e-21)
(1.28454 0.314643 3.31811e-20)
(1.27855 0.307487 -3.15617e-20)
(1.27346 0.300637 7.65164e-21)
(0.137587 0.0199026 -3.67321e-20)
(0.409465 0.0763132 8.65483e-20)
(0.661977 0.151268 6.43785e-20)
(0.877765 0.225223 -9.73391e-21)
(1.0466 0.28751 9.99393e-20)
(1.16761 0.333996 -7.47182e-20)
(1.24687 0.364633 -5.4931e-21)
(1.29363 0.381798 6.53655e-20)
(1.31736 0.388781 2.0735e-20)
(1.32605 0.38876 2.87577e-20)
(1.32568 0.384311 -4.22381e-20)
(1.32033 0.377295 1.09637e-19)
(1.31258 0.368946 2.01173e-20)
(1.30395 0.360027 -9.59289e-20)
(1.29529 0.350987 1.39173e-19)
(1.28708 0.342071 -1.63129e-19)
(1.27956 0.333395 -7.39507e-20)
(1.27288 0.325077 1.2694e-20)
(1.26703 0.317466 7.10458e-20)
(1.2621 0.310134 -1.3352e-19)
(0.152382 0.0275516 -8.20341e-20)
(0.44248 0.0973206 -1.93855e-19)
(0.702335 0.181724 -1.67972e-19)
(0.916651 0.260414 -2.27829e-19)
(1.07827 0.323349 -1.29067e-19)
(1.18955 0.367737 -2.66675e-19)
(1.25907 0.394903 3.39125e-20)
(1.29753 0.408268 -1.40374e-19)
(1.31492 0.411739 -1.5337e-20)
(1.3192 0.40876 2.2969e-20)
(1.316 0.401944 -5.00885e-20)
(1.30897 0.393075 6.23298e-20)
(1.30031 0.383276 1.10145e-19)
(1.29125 0.373201 -1.54866e-19)
(1.28245 0.363217 2.4668e-20)
(1.27426 0.353511 7.06707e-20)
(1.26688 0.34416 1.17546e-19)
(1.26038 0.335278 -1.01401e-19)
(1.25474 0.327204 -4.71754e-21)
(1.25004 0.319375 1.17292e-19)
(0.166782 0.0363013 -1.54323e-19)
(0.473366 0.120397 4.24132e-19)
(0.738532 0.214062 -7.46293e-20)
(0.94974 0.296724 9.90466e-20)
(1.10332 0.359472 -9.64741e-20)
(1.20489 0.401123 2.96357e-19)
(1.26527 0.42446 -4.68709e-20)
(1.29634 0.433904 2.79715e-20)
(1.30839 0.433896 -1.38434e-20)
(1.30914 0.428062 4.54327e-20)
(1.30382 0.418995 2.92463e-20)
(1.29564 0.408373 3.67789e-20)
(1.28644 0.397192 -1.03928e-19)
(1.27721 0.386006 1.51485e-19)
(1.26846 0.375101 -1.1482e-19)
(1.26043 0.364615 2.15781e-20)
(1.25328 0.354594 -7.29863e-20)
(1.24705 0.345147 1.52481e-20)
(1.24166 0.336603 1.70784e-20)
(1.23725 0.328269 -1.60353e-19)
(0.180537 0.0460884 1.07142e-20)
(0.501617 0.145278 -2.131e-19)
(0.770086 0.247861 1.1803e-19)
(0.976781 0.333689 -4.1007e-19)
(1.1218 0.395461 1.98569e-19)
(1.21389 0.433835 -3.39173e-19)
(1.26589 0.453083 -2.64055e-19)
(1.29053 0.45856 -1.00886e-20)
(1.29816 0.455148 -8.93161e-20)
(1.29618 0.44658 -2.76823e-19)
(1.28936 0.435379 -3.45535e-20)
(1.28049 0.423095 -2.63684e-19)
(1.27108 0.410597 4.77774e-20)
(1.26191 0.398337 -3.7791e-20)
(1.25336 0.386533 2.21546e-20)
(1.24561 0.375276 -1.74007e-19)
(1.23877 0.364589 9.47149e-21)
(1.23287 0.354581 3.48951e-20)
(1.22781 0.345566 -7.94796e-20)
(1.22374 0.336722 6.92953e-20)
(0.193406 0.0568198 -8.72851e-20)
(0.526782 0.17165 3.88919e-19)
(0.79662 0.282666 3.13339e-21)
(0.997639 0.370835 -3.36059e-19)
(1.13382 0.430915 2.5367e-19)
(1.21688 0.46557 1.0629e-19)
(1.26134 0.480558 2.15968e-20)
(1.28049 0.482084 -1.78582e-19)
(1.28458 0.475378 2.89773e-19)
(1.28059 0.464207 -1.69549e-19)
(1.27282 0.45099 6.10753e-20)
(1.26364 0.437131 2.84964e-19)
(1.2543 0.423375 -2.55785e-19)
(1.24538 0.410077 2.79504e-19)
(1.23717 0.397395 -1.81573e-19)
(1.2298 0.385379 -3.55098e-20)
(1.22336 0.374035 4.22998e-20)
(1.21786 0.363473 5.32938e-20)
(1.21318 0.353986 7.34496e-20)
(1.20952 0.34464 4.39915e-20)
(0.205163 0.0683741 3.45497e-20)
(0.54848 0.199156 -3.48737e-19)
(0.817867 0.318002 6.21802e-20)
(1.01229 0.407693 8.09734e-19)
(1.13959 0.465442 -7.46975e-20)
(1.21421 0.496038 2.23695e-19)
(1.252 0.506677 1.39424e-19)
(1.26659 0.504323 2.30387e-20)
(1.26796 0.494456 -1.61176e-19)
(1.2626 0.480823 2.64081e-19)
(1.25434 0.465705 -3.04949e-20)
(1.2452 0.450357 3.99402e-19)
(1.23616 0.435398 1.52962e-19)
(1.22767 0.4211 9.52845e-20)
(1.21992 0.407563 -1.99001e-19)
(1.21303 0.394806 4.244e-20)
(1.20707 0.382817 1.53267e-19)
(1.20204 0.371712 3.91596e-20)
(1.1978 0.361758 -1.84378e-19)
(1.19461 0.351924 -4.57844e-20)
(0.215602 0.0806049 -1.9376e-19)
(0.566404 0.227407 6.24259e-19)
(0.83366 0.35338 -3.39892e-19)
(1.02079 0.443801 -3.12604e-19)
(1.13938 0.49867 -2.71908e-19)
(1.20624 0.52496 -2.28953e-19)
(1.23827 0.531238 -2.81879e-19)
(1.24917 0.525116 3.52774e-19)
(1.24855 0.512245 -2.51551e-19)
(1.24239 0.496295 -2.01224e-20)
(1.23405 0.479391 -1.77417e-21)
(1.22524 0.462636 -4.80128e-20)
(1.21672 0.446533 -1.23285e-19)
(1.20881 0.431273 -1.36949e-19)
(1.20165 0.41691 -7.28263e-21)
(1.19533 0.403431 -3.02375e-20)
(1.18992 0.390815 -7.42384e-20)
(1.18542 0.379182 -2.27969e-20)
(1.18168 0.368773 2.47981e-20)
(1.17904 0.358477 -1.56159e-19)
(0.224544 0.0933437 3.37518e-19)
(0.580325 0.255993 3.50079e-19)
(0.843929 0.388313 -2.17302e-19)
(1.02329 0.478713 1.33989e-19)
(1.13348 0.530245 2.30998e-19)
(1.19335 0.552074 -4.77008e-20)
(1.2205 0.554041 5.67427e-20)
(1.22854 0.544302 6.38776e-20)
(1.22659 0.528597 1.06202e-19)
(1.22012 0.51048 -1.24235e-19)
(1.21208 0.491905 6.07784e-20)
(1.20385 0.473826 -4.20444e-20)
(1.19604 0.456637 1.85737e-19)
(1.18885 0.440459 8.0562e-20)
(1.18239 0.425302 -1.84254e-19)
(1.17673 0.411128 1.00992e-19)
(1.17196 0.397908 4.9696e-20)
(1.16805 0.385765 -9.10755e-20)
(1.16489 0.374917 2.44884e-19)
(1.16284 0.364198 -1.80566e-19)
(0.23184 0.106404 -2.47974e-19)
(0.590089 0.28449 -3.22418e-19)
(0.848695 0.42232 2.25989e-19)
(1.01999 0.512005 -2.08411e-19)
(1.12224 0.559835 -1.904e-20)
(1.1759 0.577129 -2.28375e-19)
(1.19904 0.574893 1.89213e-19)
(1.20497 0.561717 3.49186e-19)
(1.20229 0.543362 -4.85448e-19)
(1.19596 0.523229 2.47999e-20)
(1.18852 0.503098 1.86615e-20)
(1.18111 0.483778 -9.66429e-20)
(1.17418 0.465565 6.69044e-20)
(1.16786 0.448517 -2.79962e-20)
(1.16221 0.432604 1.86558e-19)
(1.1573 0.417766 -2.00664e-19)
(1.15323 0.403968 -6.87623e-20)
(1.14998 0.39134 1.78531e-19)
(1.14745 0.380074 -2.64924e-19)
(1.14609 0.36898 1.66782e-19)
(0.237372 0.119587 5.15208e-19)
(0.595622 0.312471 4.56562e-19)
(0.848055 0.454935 -7.66687e-20)
(1.01118 0.543276 -9.75833e-21)
(1.106 0.587128 -2.3196e-19)
(1.15428 0.599891 9.85564e-20)
(1.17422 0.593609 4.84981e-19)
(1.17874 0.577201 -4.2593e-19)
(1.17586 0.556387 2.69239e-19)
(1.17004 0.534392 -2.40564e-20)
(1.16347 0.51282 1.64388e-19)
(1.15709 0.492345 -4.03747e-20)
(1.1512 0.473172 9.82315e-20)
(1.14588 0.455305 1.265e-19)
(1.14116 0.438678 -7.01324e-20)
(1.1371 0.423212 8.52079e-20)
(1.1338 0.408866 -1.19175e-19)
(1.13127 0.395773 3.03315e-19)
(1.12946 0.38411 -1.87776e-19)
(1.12884 0.372693 1.34141e-19)
(0.241057 0.132683 -2.51305e-19)
(0.596921 0.339514 -4.69459e-19)
(0.842184 0.485715 -3.2393e-19)
(0.997148 0.572151 -2.32001e-20)
(1.08515 0.61184 7.71595e-20)
(1.12884 0.620143 -4.27476e-20)
(1.14636 0.610012 -2.75933e-19)
(1.15009 0.590597 -1.20705e-19)
(1.14747 0.567522 -2.20018e-19)
(1.1425 0.543822 -1.07973e-19)
(1.13705 0.520924 5.40948e-20)
(1.13187 0.499378 -2.55904e-19)
(1.12718 0.479313 -5.92704e-20)
(1.12299 0.460682 -5.80078e-20)
(1.11931 0.443387 -1.84106e-19)
(1.11618 0.427331 8.19692e-20)
(1.11373 0.412467 2.26627e-21)
(1.11199 0.398926 7.35092e-20)
(1.11096 0.386876 -3.1559e-20)
(1.11116 0.37519 -1.06641e-19)
(0.242849 0.145481 5.80634e-19)
(0.594053 0.365212 5.05809e-19)
(0.831315 0.514246 6.26996e-19)
(0.978265 0.598292 -6.50775e-20)
(1.06008 0.63371 -2.26254e-19)
(1.09997 0.637686 6.70271e-19)
(1.11577 0.623938 -3.32971e-19)
(1.11926 0.601757 3.6898e-19)
(1.11731 0.576626 -6.77017e-20)
(1.11347 0.551376 2.25169e-19)
(1.10934 0.527267 2.52502e-20)
(1.10553 0.504737 1.06415e-19)
(1.10217 0.483847 -2.38727e-20)
(1.09925 0.464507 1.05406e-19)
(1.09672 0.446594 -8.34804e-20)
(1.09463 0.429989 6.9411e-21)
(1.0931 0.414636 4.20827e-20)
(1.09222 0.400658 6.49945e-20)
(1.09203 0.388226 -8.40281e-21)
(1.0931 0.376327 3.15473e-20)
(0.242734 0.157768 -1.7821e-19)
(0.587146 0.389176 -5.00601e-19)
(0.815739 0.540147 -3.04479e-19)
(0.954912 0.62139 -5.31176e-19)
(1.0312 0.652506 5.69851e-19)
(1.06802 0.65234 -4.00518e-19)
(1.08274 0.635238 2.53226e-19)
(1.0865 0.610545 -8.85198e-20)
(1.08556 0.583565 -1.06803e-19)
(1.08309 0.556924 -7.47277e-20)
(1.08045 0.531721 3.92191e-20)
(1.07814 0.508292 4.90434e-20)
(1.07624 0.486641 3.68496e-20)
(1.07471 0.466647 -5.27869e-20)
(1.07346 0.448161 -3.30127e-20)
(1.07251 0.431048 1.08203e-19)
(1.07199 0.415235 -1.72693e-20)
(1.07203 0.400831 -3.29033e-20)
(1.07274 0.388027 6.01816e-21)
(1.07468 0.376001 1.75251e-21)
(0.240735 0.169339 7.86894e-19)
(0.576389 0.411047 3.69504e-19)
(0.795792 0.563074 3.45124e-19)
(0.9275 0.641174 -2.04163e-19)
(0.99892 0.668028 2.51914e-20)
(1.03336 0.663951 2.88434e-19)
(1.04759 0.643781 3.76432e-20)
(1.05202 0.61684 7.74e-20)
(1.05239 0.588226 8.39038e-20)
(1.05148 0.560353 4.81113e-21)
(1.05048 0.534172 4.04052e-20)
(1.04978 0.509928 -1.01044e-20)
(1.04945 0.487578 -2.3327e-20)
(1.04941 0.466976 -5.1947e-20)
(1.04956 0.447955 1.66763e-20)
(1.04989 0.430365 4.55082e-21)
(1.05049 0.414114 -6.55854e-21)
(1.05151 0.399285 2.36466e-21)
(1.05317 0.386122 1.75661e-20)
(1.05605 0.374078 -1.16084e-20)
(0.236906 0.179996 -5.62419e-19)
(0.562021 0.430495 -4.86035e-19)
(0.77185 0.582724 2.32161e-19)
(0.896459 0.657411 -2.84914e-19)
(0.963652 0.680102 -2.13295e-20)
(0.996358 0.672386 3.67207e-20)
(1.0106 0.649456 -4.39771e-20)
(1.01608 0.62054 -3.71817e-20)
(1.01799 0.590509 -7.39017e-20)
(1.0188 0.56157 -4.66904e-20)
(1.01953 0.534529 -1.71084e-20)
(1.02052 0.509556 -1.62322e-20)
(1.02183 0.486565 8.90618e-21)
(1.02338 0.465392 -6.657e-21)
(1.02507 0.445859 8.53402e-21)
(1.02682 0.427808 -2.90546e-20)
(1.02866 0.411126 -3.15754e-20)
(1.03078 0.395839 -3.656e-20)
(1.03351 0.382235 8.36403e-24)
(1.0376 0.370186 5.97745e-20)
(0.231334 0.189556 5.2213e-19)
(0.544323 0.447227 1.8505e-20)
(0.744321 0.598834 -4.99798e-20)
(0.862236 0.669905 5.87431e-20)
(0.925819 0.688587 1.95104e-19)
(0.95737 0.677537 -1.42576e-19)
(0.97207 0.652171 5.46146e-20)
(0.978898 0.621564 -7.67137e-20)
(0.982545 0.590341 1.18142e-20)
(0.985188 0.560504 -1.55644e-20)
(0.987717 0.532729 -2.77183e-20)
(0.990437 0.50711 -2.69811e-20)
(0.993413 0.483528 2.73259e-20)
(0.996606 0.461805 -1.30716e-20)
(0.999929 0.441763 -1.34426e-19)
(1.00327 0.423251 1.29392e-19)
(1.00655 0.406131 -8.25416e-20)
(1.00998 0.390295 -5.43795e-20)
(1.01419 0.375959 6.46616e-20)
(1.01997 0.363654 -8.11802e-20)
(0.224131 0.197853 -1.09844e-19)
(0.523616 0.460989 1.17219e-19)
(0.713639 0.611188 7.80182e-20)
(0.825289 0.678499 -1.17573e-19)
(0.885845 0.693375 5.35169e-20)
(0.916761 0.679323 -9.24967e-20)
(0.932305 0.651862 -1.3921e-20)
(0.940729 0.619858 6.04136e-21)
(0.946253 0.587677 -7.38178e-21)
(0.950799 0.557124 -8.04377e-20)
(0.955147 0.528745 1.27845e-20)
(0.95958 0.502566 -2.90981e-21)
(0.964187 0.478427 9.97205e-20)
(0.96899 0.456132 -2.67738e-19)
(0.973954 0.435505 2.49766e-19)
(0.978959 0.416425 1.35649e-19)
(0.983879 0.398743 -3.09543e-20)
(0.989005 0.382129 2.12499e-20)
(0.995285 0.366572 2.44874e-19)
(1.00302 0.35362 -1.0179e-19)
(0.215437 0.204738 -3.35044e-20)
(0.500252 0.471568 8.31313e-20)
(0.680256 0.61961 -9.07231e-20)
(0.786082 0.683072 1.21331e-19)
(0.844157 0.694383 -1.7386e-20)
(0.8749 0.677688 -5.65105e-21)
(0.891613 0.648486 1.44518e-20)
(0.90183 0.615391 -4.9855e-20)
(0.909335 0.582506 5.11137e-20)
(0.915821 0.551441 3.93824e-20)
(0.921971 0.522625 2.34256e-20)
(0.928043 0.496007 1.60734e-21)
(0.934148 0.471373 9.00253e-20)
(0.940362 0.448478 -9.28237e-20)
(0.946719 0.427107 1.09524e-19)
(0.953144 0.407124 -2.27938e-19)
(0.959557 0.388325 2.5795e-19)
(0.966434 0.370062 -2.22322e-19)
(0.974799 0.352058 -1.47849e-19)
(0.983516 0.337773 2.57319e-19)
(0.205411 0.210088 4.40737e-20)
(0.474607 0.478792 -2.65773e-21)
(0.644637 0.623967 9.51352e-21)
(0.745086 0.683538 -2.10785e-20)
(0.801181 0.691561 -5.60647e-21)
(0.832158 0.672596 8.13558e-21)
(0.85031 0.642019 -1.2747e-19)
(0.86248 0.608151 8.48475e-20)
(0.872043 0.574833 8.96307e-20)
(0.880489 0.543498 -1.29901e-19)
(0.888413 0.514471 1.57476e-19)
(0.896041 0.487636 -5.9344e-20)
(0.903476 0.462733 1.21463e-19)
(0.910795 0.439455 -1.93429e-19)
(0.918046 0.417508 4.04554e-19)
(0.925189 0.396637 -9.0168e-20)
(0.93225 0.376427 -2.49924e-20)
(0.939907 0.355619 2.70409e-19)
(0.948913 0.332293 -1.31167e-19)
(0.954276 0.308971 6.0881e-20)
(0.194229 0.213798 -3.18365e-20)
(0.44707 0.482533 6.91965e-21)
(0.607257 0.624168 -2.94397e-20)
(0.70277 0.679848 2.33482e-20)
(0.757344 0.684882 -1.50564e-20)
(0.788905 0.664033 -1.40547e-19)
(0.808723 0.63245 2.13174e-19)
(0.822971 0.598132 1.56204e-20)
(0.834653 0.564661 -2.36236e-20)
(0.845082 0.53331 5.13953e-21)
(0.85478 0.504324 7.50629e-20)
(0.863946 0.477554 1.30552e-19)
(0.872661 0.452734 7.77913e-20)
(0.88096 0.429577 -1.86084e-19)
(0.888834 0.407828 -5.47626e-20)
(0.896223 0.387294 -7.63275e-21)
(0.903242 0.367707 3.63004e-20)
(0.910483 0.348383 5.39053e-21)
(0.917864 0.328623 4.05944e-19)
(0.920749 0.310525 -2.83557e-19)
(0.182079 0.215785 1.11655e-19)
(0.418044 0.482697 -2.04126e-21)
(0.568589 0.62016 -1.01016e-19)
(0.659598 0.671982 3.0303e-19)
(0.713064 0.674343 7.20847e-20)
(0.74551 0.652002 -1.99834e-19)
(0.767176 0.619781 1.91039e-19)
(0.783598 0.585334 -4.61769e-20)
(0.797443 0.551986 1.73358e-19)
(0.809876 0.520866 8.19926e-20)
(0.821366 0.492146 -3.80114e-19)
(0.832104 0.465651 -4.34281e-20)
(0.842177 0.441111 5.34663e-19)
(0.851621 0.418246 -6.55738e-19)
(0.860416 0.39681 6.06847e-19)
(0.868499 0.376604 2.11529e-19)
(0.875941 0.357345 -7.50084e-19)
(0.883144 0.338462 3.63879e-19)
(0.889913 0.319667 -7.42349e-20)
(0.892793 0.303331 8.76494e-20)
(0.169158 0.215992 -2.48736e-19)
(0.387934 0.479231 -2.59235e-19)
(0.529104 0.611928 1.77121e-19)
(0.616028 0.659951 -2.31109e-19)
(0.668753 0.65997 -6.50356e-19)
(0.702334 0.636525 -2.5629e-20)
(0.725991 0.604032 -1.94908e-19)
(0.744654 0.569769 6.9455e-21)
(0.76069 0.536819 -3.92954e-19)
(0.775132 0.506178 -4.00334e-19)
(0.788413 0.47796 -2.74844e-19)
(0.800721 0.451977 -1.17171e-20)
(0.812151 0.427963 -6.77905e-19)
(0.822756 0.405658 -7.18973e-21)
(0.832543 0.384847 3.31659e-19)
(0.841484 0.365367 -3.29502e-19)
(0.849661 0.346995 -2.55398e-19)
(0.857398 0.329299 2.46131e-19)
(0.864497 0.312105 -1.76159e-19)
(0.868145 0.297275 3.41713e-20)
(0.155669 0.214381 2.10238e-19)
(0.357148 0.472123 1.62901e-19)
(0.489265 0.599494 -8.65915e-21)
(0.572507 0.643801 -1.44283e-19)
(0.624814 0.641809 3.37813e-19)
(0.659732 0.617646 5.54429e-19)
(0.685483 0.585232 -5.84578e-20)
(0.70643 0.551459 8.57705e-21)
(0.724668 0.519168 1.06767e-19)
(0.741126 0.489236 2.48174e-19)
(0.75621 0.461731 3.61477e-19)
(0.770115 0.436453 -2.94039e-19)
(0.782951 0.413143 2.88746e-19)
(0.794789 0.391555 -1.00528e-19)
(0.805659 0.371487 3.37948e-19)
(0.815563 0.352784 -1.31691e-19)
(0.824613 0.33525 -3.2828e-19)
(0.833134 0.318549 1.97045e-19)
(0.840959 0.302621 -2.82039e-19)
(0.845644 0.289027 -3.2101e-19)
(0.141819 0.210938 1.0132e-19)
(0.326085 0.461393 1.80366e-19)
(0.449525 0.582916 -1.89142e-19)
(0.529466 0.623603 6.15999e-21)
(0.581632 0.619933 3.2578e-20)
(0.618045 0.595426 2.69109e-19)
(0.645954 0.563432 -3.96115e-19)
(0.669199 0.530439 3.7603e-19)
(0.68963 0.499056 -3.72506e-20)
(0.708091 0.470051 1.02693e-19)
(0.724972 0.443453 1.66857e-19)
(0.740481 0.419058 -3.18302e-19)
(0.75475 0.396614 1.51663e-19)
(0.767874 0.375889 1.44436e-19)
(0.77991 0.356697 5.34183e-20)
(0.790891 0.338889 -2.737e-19)
(0.800954 0.322286 9.21852e-19)
(0.810418 0.306598 -5.16642e-19)
(0.819116 0.291799 9.3796e-19)
(0.824889 0.279176 -6.09344e-20)
(0.127812 0.205671 7.5824e-20)
(0.295137 0.447099 4.32601e-19)
(0.410319 0.562284 1.55561e-19)
(0.48732 0.599461 3.19842e-19)
(0.539578 0.59444 8.47701e-20)
(0.577598 0.56995 -5.15171e-19)
(0.607698 0.538701 7.9987e-19)
(0.633226 0.506764 4.15457e-19)
(0.655822 0.476523 1.76186e-20)
(0.676256 0.448647 5.37946e-19)
(0.694913 0.423136 8.77987e-20)
(0.712016 0.399779 5.62397e-20)
(0.727721 0.378335 3.2135e-19)
(0.742148 0.358584 -1.20421e-19)
(0.755378 0.340346 -1.2626e-19)
(0.767477 0.323481 7.48334e-19)
(0.778605 0.307818 -6.24666e-19)
(0.789072 0.293108 2.42409e-20)
(0.798702 0.279339 7.9069e-19)
(0.805586 0.267564 -7.92905e-22)
(0.113848 0.198605 -9.34879e-19)
(0.264682 0.42933 -1.53641e-19)
(0.372066 0.537722 -2.11728e-19)
(0.446464 0.571505 -1.62903e-19)
(0.499005 0.565452 -4.15472e-19)
(0.538704 0.541324 1.42214e-19)
(0.570989 0.511128 -1.99584e-19)
(0.598761 0.480506 5.89408e-20)
(0.62347 0.451627 -2.88901e-19)
(0.645831 0.425069 -2.72194e-19)
(0.666225 0.400807 5.76656e-20)
(0.684895 0.378631 -4.41257e-19)
(0.702021 0.358309 3.53013e-19)
(0.717746 0.339631 -1.27448e-19)
(0.732176 0.322428 3.98439e-19)
(0.745402 0.30656 -8.59763e-19)
(0.757603 0.291867 -1.63292e-19)
(0.769072 0.278128 -3.08378e-19)
(0.779633 0.265335 -8.27632e-19)
(0.787612 0.254336 -1.33505e-19)
(0.100123 0.189788 1.51831e-19)
(0.235083 0.408205 -1.68161e-20)
(0.335163 0.509384 -2.37476e-19)
(0.407272 0.539894 8.40169e-20)
(0.460247 0.533114 -1.69808e-19)
(0.501654 0.509677 -2.03037e-21)
(0.536088 0.480823 2.30625e-19)
(0.566037 0.45176 -3.4459e-19)
(0.592788 0.424446 1.34093e-19)
(0.617008 0.399382 -7.75428e-20)
(0.639082 0.376518 2.11947e-20)
(0.659271 0.355652 -3.84751e-19)
(0.67778 0.336561 -4.67398e-19)
(0.694772 0.319046 -1.76838e-20)
(0.710377 0.302945 5.20211e-19)
(0.72471 0.288123 2.42032e-20)
(0.737959 0.274429 6.57378e-19)
(0.7504 0.261668 -9.57998e-19)
(0.761866 0.249827 5.09571e-19)
(0.77091 0.239581 8.78982e-19)
(0.0868251 0.179283 -1.3486e-19)
(0.206681 0.383876 7.2465e-20)
(0.299983 0.477455 4.71483e-19)
(0.370096 0.504813 1.1664e-19)
(0.423614 0.497598 -1.57015e-19)
(0.466725 0.475158 1.2402e-19)
(0.503239 0.447917 4.87183e-19)
(0.535275 0.420638 -3.95691e-19)
(0.563974 0.395081 3.66025e-20)
(0.589967 0.37167 -1.44045e-19)
(0.613644 0.350345 5.20569e-19)
(0.635288 0.330908 3.71406e-19)
(0.655122 0.313148 -5.41041e-20)
(0.673332 0.296878 -5.62949e-19)
(0.690068 0.281945 3.02122e-20)
(0.705462 0.268219 -6.90925e-20)
(0.719712 0.25556 3.30516e-19)
(0.733075 0.243795 5.36979e-19)
(0.745403 0.232905 4.68542e-19)
(0.755468 0.223412 -7.84377e-19)
(0.074132 0.167173 -8.49675e-20)
(0.179801 0.356519 3.62053e-19)
(0.266875 0.442146 -3.52503e-19)
(0.335261 0.466471 4.90993e-19)
(0.389398 0.459096 -2.66324e-19)
(0.43417 0.437939 1.91668e-19)
(0.472669 0.41256 4.84995e-19)
(0.506677 0.387276 -5.83263e-19)
(0.537211 0.363649 2.65506e-19)
(0.564873 0.342042 3.35538e-19)
(0.590062 0.322383 -4.55741e-19)
(0.613077 0.304484 -3.21175e-20)
(0.634163 0.288148 -3.64592e-19)
(0.653524 0.273202 5.85013e-19)
(0.671327 0.2595 -3.16755e-19)
(0.687723 0.24692 3.40152e-19)
(0.702911 0.235334 -6.13814e-20)
(0.717134 0.224591 2.0989e-19)
(0.73027 0.214661 4.77264e-20)
(0.7413 0.205941 -1.22554e-19)
(0.0622113 0.153556 -2.61263e-19)
(0.154742 0.326337 -5.99556e-19)
(0.236162 0.403693 1.57843e-19)
(0.303068 0.425103 -5.05606e-19)
(0.357865 0.417822 -4.78719e-19)
(0.404227 0.398212 -3.43907e-19)
(0.444588 0.374925 2.67873e-19)
(0.480432 0.351825 2.05718e-19)
(0.512671 0.330289 -1.34236e-21)
(0.541882 0.310622 -1.79204e-19)
(0.568473 0.292746 -3.22935e-19)
(0.592761 0.276486 2.90663e-19)
(0.61501 0.261661 -1.00398e-19)
(0.635441 0.24811 -4.94607e-19)
(0.654235 0.2357 3.21329e-19)
(0.671559 0.224316 -2.41564e-19)
(0.687613 0.213845 -9.82782e-20)
(0.702624 0.204152 -2.74775e-19)
(0.716505 0.195202 -2.48678e-19)
(0.728437 0.187285 6.44584e-20)
(0.0512178 0.138544 2.28188e-19)
(0.131778 0.293557 1.18022e-19)
(0.20814 0.362357 1.80626e-19)
(0.273793 0.380962 -6.16758e-19)
(0.329259 0.37401 6.60064e-19)
(0.377108 0.356186 2.81459e-21)
(0.419184 0.335199 5.34588e-21)
(0.456711 0.314457 -4.00946e-19)
(0.490506 0.295157 3.73859e-19)
(0.521131 0.277553 -2.60117e-19)
(0.549002 0.261568 7.82685e-20)
(0.574454 0.247039 -3.4756e-19)
(0.597765 0.233803 -1.64936e-19)
(0.619171 0.221715 -7.84357e-20)
(0.638869 0.210653 5.93695e-19)
(0.657037 0.200514 -2.91427e-19)
(0.673875 0.191197 -2.6247e-19)
(0.689598 0.182586 2.69881e-19)
(0.704156 0.174639 -2.2136e-19)
(0.716914 0.16756 1.72624e-19)
(0.0412929 0.122266 4.85844e-19)
(0.11116 0.258429 -2.93315e-19)
(0.183073 0.318422 4.395e-20)
(0.24768 0.334324 5.1314e-19)
(0.303798 0.327913 2.03467e-19)
(0.353007 0.312091 2.52056e-19)
(0.396632 0.293588 2.50753e-19)
(0.435668 0.275357 5.3112e-19)
(0.470857 0.258423 -1.2174e-19)
(0.502747 0.242994 2.90121e-19)
(0.531764 0.228994 4.20948e-19)
(0.558257 0.216279 1.54787e-19)
(0.582518 0.204704 2.80067e-19)
(0.604796 0.19414 1.01387e-19)
(0.625303 0.18448 5.96257e-20)
(0.644224 0.175632 -4.33943e-20)
(0.661758 0.167507 3.4602e-19)
(0.678111 0.160008 2.12901e-19)
(0.693273 0.153089 -1.93852e-19)
(0.706774 0.146888 1.82655e-19)
(0.0325633 0.10486 -3.22722e-19)
(0.0931079 0.221218 3.63771e-20)
(0.161198 0.272189 -9.30933e-20)
(0.22495 0.285483 -2.82651e-19)
(0.281676 0.279799 -1.49582e-19)
(0.332095 0.266167 -2.71579e-19)
(0.377082 0.250312 1.26057e-19)
(0.417441 0.234728 -4.87375e-19)
(0.453849 0.220274 2.87348e-19)
(0.486844 0.207116 -3.97348e-19)
(0.516862 0.195186 -2.4639e-19)
(0.544263 0.184359 -3.25521e-19)
(0.569354 0.174508 7.44676e-20)
(0.592394 0.165524 -7.36263e-20)
(0.613604 0.157313 8.75178e-20)
(0.63318 0.149797 4.68656e-20)
(0.651318 0.1429 9.30855e-20)
(0.668215 0.136542 -7.82289e-19)
(0.683903 0.130675 3.88878e-19)
(0.698057 0.125388 -2.33556e-19)
(0.0251398 0.0864777 1.06645e-19)
(0.0778162 0.182212 2.15214e-19)
(0.142719 0.223977 -1.40267e-19)
(0.20579 0.234746 3.46584e-19)
(0.263061 0.229952 -5.54163e-20)
(0.31452 0.218672 4.00377e-19)
(0.360667 0.205603 7.71799e-20)
(0.402148 0.192783 -8.09644e-20)
(0.439589 0.180906 2.94658e-19)
(0.47352 0.170104 2.2487e-19)
(0.504384 0.160316 8.3255e-20)
(0.532554 0.151439 1.09554e-19)
(0.558346 0.143368 5.4874e-20)
(0.582029 0.136012 -2.32362e-19)
(0.603833 0.129292 -3.22188e-20)
(0.623961 0.123144 2.42164e-19)
(0.642607 0.117507 -1.65497e-19)
(0.659961 0.112315 -7.7272e-21)
(0.676093 0.107524 -3.45507e-19)
(0.690799 0.103188 6.96377e-19)
(0.0191169 0.0672794 2.8586e-19)
(0.0654478 0.14171 -3.43208e-19)
(0.127809 0.174121 1.60892e-19)
(0.190361 0.182435 -2.27349e-19)
(0.248094 0.178667 2.00413e-19)
(0.300407 0.169874 -3.47603e-19)
(0.347499 0.159707 -2.54358e-19)
(0.389891 0.149746 1.88396e-20)
(0.428168 0.140527 -3.45793e-19)
(0.462857 0.13215 -2.15543e-19)
(0.494407 0.124566 -3.72653e-19)
(0.523199 0.117692 -1.21322e-20)
(0.549557 0.111447 -1.44025e-19)
(0.573759 0.105759 3.6513e-19)
(0.596043 0.100566 2.51186e-19)
(0.616616 0.0958174 -8.44479e-20)
(0.63567 0.0914661 -7.61074e-20)
(0.653391 0.0874622 -3.31451e-21)
(0.669881 0.0837675 9.45192e-21)
(0.685034 0.0804117 1.37375e-19)
(0.0145714 0.0474338 -7.15718e-20)
(0.0561355 0.100025 -2.44479e-19)
(0.116608 0.122967 -1.52375e-19)
(0.178792 0.128884 -9.5295e-20)
(0.23689 0.126249 -1.9722e-19)
(0.289856 0.12005 3.37804e-19)
(0.337668 0.112877 -3.61428e-20)
(0.380751 0.105851 -8.12008e-20)
(0.419662 0.0993544 3.40545e-21)
(0.454925 0.0934568 2.37836e-19)
(0.486992 0.0881236 -2.25594e-19)
(0.516253 0.0832952 2.20487e-19)
(0.543039 0.0789127 1.03439e-19)
(0.567633 0.0749245 -1.88098e-19)
(0.590278 0.071287 4.10851e-20)
(0.611184 0.067963 1.20656e-19)
(0.630544 0.0649195 4.1914e-20)
(0.648541 0.0621212 -2.91797e-20)
(0.6653 0.0595396 -2.53101e-19)
(0.68079 0.0571894 2.017e-19)
(0.0115621 0.0271159 6.43659e-20)
(0.0499806 0.0574784 7.81178e-20)
(0.109222 0.0708703 2.20051e-20)
(0.171181 0.0744351 -1.64663e-20)
(0.229535 0.0730125 4.71524e-20)
(0.282947 0.0694865 7.19961e-20)
(0.331244 0.0653729 2.73176e-20)
(0.374791 0.0613377 3.32447e-20)
(0.414127 0.0576097 -7.03618e-20)
(0.449773 0.0542323 1.31955e-19)
(0.482187 0.0511851 -3.11019e-20)
(0.511762 0.0484327 -2.52457e-21)
(0.538832 0.0459398 3.15356e-20)
(0.563686 0.0436756 3.55349e-20)
(0.58657 0.0416141 -9.51711e-20)
(0.607698 0.0397331 6.26795e-20)
(0.62726 0.0380131 4.11057e-20)
(0.645438 0.0364336 3.50483e-20)
(0.662377 0.0349776 7.49736e-20)
(0.678087 0.0336514 3.1052e-20)
(0.0101297 0.00650564 -1.31546e-20)
(0.0470527 0.0144006 2.73167e-20)
(0.105724 0.0181942 -3.82019e-20)
(0.167596 0.0194361 2.39972e-20)
(0.22609 0.019277 1.40582e-20)
(0.27973 0.0184729 6.32007e-21)
(0.328273 0.0174612 1.48479e-20)
(0.372054 0.0164511 -4.25483e-20)
(0.411602 0.0155212 2.71539e-20)
(0.447439 0.0146891 9.49658e-21)
(0.480025 0.0139499 -5.401e-22)
(0.509753 0.0132927 5.79935e-20)
(0.536963 0.0127064 -1.76195e-20)
(0.561944 0.0121811 -1.68508e-20)
(0.584944 0.0117088 -1.61385e-20)
(0.606178 0.0112825 2.49575e-21)
(0.625837 0.010896 -2.15153e-20)
(0.644102 0.0105435 4.09778e-21)
(0.661127 0.010221 8.08101e-22)
(0.676939 0.00992989 -2.73713e-21)
(0.0102956 -0.0142143 8.33553e-21)
(0.0473889 -0.0288747 -4.43317e-20)
(0.106155 -0.0346942 5.28181e-20)
(0.168072 -0.0357605 -3.96741e-20)
(0.226586 -0.0346342 -1.8485e-20)
(0.280234 -0.032696 5.53117e-20)
(0.32878 -0.030589 4.60164e-21)
(0.372561 -0.0285601 1.27521e-21)
(0.412108 -0.0266804 2.5703e-20)
(0.447942 -0.0249572 1.32602e-20)
(0.480522 -0.0233797 -1.05077e-20)
(0.510244 -0.021934 -3.67631e-20)
(0.537447 -0.020607 3.5355e-21)
(0.56242 -0.0193873 -3.15943e-21)
(0.585412 -0.0182651 3.41418e-20)
(0.606636 -0.0172322 -2.05204e-20)
(0.626285 -0.016281 2.81035e-20)
(0.644543 -0.0154029 -4.20892e-20)
(0.661561 -0.0145885 4.87613e-23)
(0.677354 -0.0138409 -8.84731e-21)
(0.0120625 -0.0348603 -2.76316e-20)
(0.0509939 -0.0720124 1.39115e-19)
(0.110518 -0.087426 9.3659e-20)
(0.172614 -0.0908012 6.19604e-20)
(0.231027 -0.0883968 7.71873e-20)
(0.284464 -0.083725 -1.89617e-20)
(0.33277 -0.0785073 8.5389e-20)
(0.376318 -0.0734465 1.73932e-20)
(0.415648 -0.0687633 -7.74044e-21)
(0.451282 -0.0644901 -6.09318e-20)
(0.483681 -0.0606006 6.29553e-20)
(0.513237 -0.0570559 -8.53778e-20)
(0.540285 -0.0538191 6.19262e-20)
(0.565116 -0.0508574 7.08242e-20)
(0.587974 -0.0481433 9.35383e-20)
(0.609073 -0.0456533 -6.15409e-20)
(0.628607 -0.0433663 1.72206e-20)
(0.646762 -0.0412587 6.46645e-20)
(0.663678 -0.0393085 -6.11893e-20)
(0.679332 -0.0375253 4.61227e-20)
(0.0154142 -0.0552492 -2.65892e-19)
(0.0578399 -0.114678 -1.33492e-19)
(0.118784 -0.139633 -1.48373e-19)
(0.181196 -0.145333 -1.16342e-20)
(0.23939 -0.141687 -7.99456e-20)
(0.292397 -0.134319 -9.8246e-20)
(0.340222 -0.126024 1.72629e-19)
(0.383305 -0.117959 8.79588e-20)
(0.422205 -0.110496 1.07782e-19)
(0.457448 -0.103694 -1.17603e-19)
(0.489489 -0.0975099 8.69261e-20)
(0.518718 -0.0918819 1.05538e-19)
(0.545467 -0.0867488 3.69697e-20)
(0.570021 -0.0820572 -3.5298e-20)
(0.592622 -0.0777616 7.50904e-21)
(0.613481 -0.0738237 -1.53632e-20)
(0.632794 -0.0702085 -1.48719e-19)
(0.650751 -0.0668774 2.30593e-20)
(0.667471 -0.063797 1.44155e-19)
(0.682868 -0.0609887 -1.93795e-19)
(0.0203154 -0.0752004 -8.6731e-20)
(0.0678669 -0.156541 1.29812e-19)
(0.130891 -0.190953 2.99428e-20)
(0.193758 -0.199007 -5.53612e-20)
(0.251623 -0.194184 -1.57311e-19)
(0.303988 -0.184188 -3.37093e-19)
(0.351097 -0.172872 -3.20301e-19)
(0.393486 -0.161852 -2.26506e-20)
(0.431746 -0.151651 -1.85773e-19)
(0.466407 -0.142354 -2.77444e-19)
(0.497918 -0.133907 2.15138e-19)
(0.526664 -0.126223 -3.16945e-19)
(0.552969 -0.119217 6.223e-20)
(0.577114 -0.112816 -2.0344e-20)
(0.599335 -0.106958 -6.60037e-20)
(0.619841 -0.101588 -8.311e-20)
(0.638827 -0.0966581 1.34921e-19)
(0.656492 -0.0921142 1.07504e-19)
(0.672926 -0.0879139 1.84792e-19)
(0.68795 -0.0840981 -2.7691e-19)
(0.0267125 -0.0945375 4.7216e-20)
(0.0809828 -0.197277 4.56937e-19)
(0.146742 -0.241026 1.30648e-19)
(0.210213 -0.251479 3.15895e-19)
(0.267647 -0.245574 -1.17652e-19)
(0.319167 -0.233043 1.81382e-19)
(0.365331 -0.21879 -5.62132e-20)
(0.406805 -0.204884 3.66789e-19)
(0.44422 -0.192002 -1.88112e-19)
(0.478112 -0.180262 2.22016e-19)
(0.508925 -0.169596 1.92575e-19)
(0.537033 -0.159894 2.05017e-19)
(0.562754 -0.151049 -1.83522e-19)
(0.586361 -0.142968 1.56691e-19)
(0.608084 -0.135572 -2.18178e-19)
(0.628123 -0.128793 -5.9847e-20)
(0.646681 -0.122568 -1.42941e-19)
(0.66396 -0.116827 -6.08181e-20)
(0.680018 -0.111521 2.40303e-19)
(0.694557 -0.106722 -3.98502e-19)
(0.0345337 -0.11309 -1.87418e-19)
(0.097064 -0.236572 -2.29674e-20)
(0.166206 -0.289505 -7.46036e-20)
(0.23044 -0.302414 -2.63146e-19)
(0.287355 -0.295547 4.56985e-20)
(0.337839 -0.280605 -4.11076e-19)
(0.38284 -0.263522 -1.71689e-19)
(0.423184 -0.246818 -1.30674e-20)
(0.459557 -0.231332 -4.32286e-19)
(0.4925 -0.217214 -1.33647e-19)
(0.522451 -0.204385 -6.07754e-20)