/*--------------------------------*- C++ -*----------------------------------*\
  =========                 |
  \\      /  F ield         | OpenFOAM: The Open Source CFD Toolbox
   \\    /   O peration     | Website:  https://openfoam.org
    \\  /    A nd           | Version:  6.0
     \\/     M anipulation  |
\*---------------------------------------------------------------------------*/
FoamFile
{
    version     2.0;
    format      ascii;
    class       volScalarField;
    location    "5.7";
    object      p;
}
// * * * * * * * * * * * * * * * * * * * * * * * * * * * * * * * * * * * * * //

dimensions      [0 2 -2 0 0 0 0];

internalField   nonuniform List<scalar> 
8000
(
-0.335858
-0.339338
-0.341473
-0.343078
-0.344632
-0.346234
-0.347932
-0.349753
-0.351694
-0.353739
-0.355865
-0.358046
-0.360257
-0.362471
-0.364671
-0.366847
-0.368958
-0.370866
-0.372621
-0.375345
-0.336582
-0.339952
-0.34203
-0.343603
-0.345136
-0.346721
-0.348409
-0.350222
-0.352159
-0.354202
-0.356327
-0.35851
-0.360723
-0.362941
-0.365145
-0.367326
-0.369443
-0.371358
-0.373111
-0.375833
-0.338003
-0.341155
-0.343122
-0.344633
-0.346121
-0.347674
-0.349339
-0.351136
-0.353062
-0.355099
-0.357222
-0.359405
-0.361622
-0.363845
-0.366056
-0.368245
-0.370373
-0.3723
-0.37405
-0.376768
-0.340039
-0.342881
-0.344687
-0.346105
-0.347525
-0.349028
-0.350655
-0.352424
-0.354329
-0.356351
-0.358466
-0.360645
-0.36286
-0.365086
-0.367302
-0.369497
-0.371636
-0.373577
-0.37532
-0.378029
-0.342582
-0.345038
-0.34664
-0.347937
-0.349264
-0.350694
-0.352265
-0.353988
-0.355857
-0.357851
-0.359943
-0.362106
-0.36431
-0.366529
-0.36874
-0.370934
-0.373078
-0.37503
-0.376762
-0.379453
-0.345502
-0.347518
-0.348881
-0.350028
-0.351237
-0.352571
-0.354061
-0.355717
-0.357527
-0.359471
-0.361521
-0.363648
-0.365823
-0.368017
-0.370208
-0.372386
-0.374523
-0.376477
-0.378191
-0.380856
-0.34866
-0.350207
-0.351306
-0.352279
-0.353344
-0.354553
-0.355934
-0.357492
-0.359216
-0.361082
-0.363061
-0.365126
-0.367245
-0.36939
-0.371537
-0.373678
-0.375788
-0.37773
-0.379416
-0.382047
-0.351922
-0.352996
-0.353815
-0.354593
-0.355486
-0.356541
-0.357781
-0.359208
-0.360809
-0.362561
-0.364436
-0.366404
-0.368434
-0.370498
-0.372573
-0.374648
-0.376707
-0.378616
-0.380263
-0.382853
-0.355165
-0.355786
-0.356322
-0.356888
-0.357584
-0.358453
-0.359515
-0.360773
-0.362212
-0.363811
-0.365541
-0.367373
-0.369277
-0.371224
-0.373191
-0.375168
-0.377145
-0.378997
-0.380591
-0.383136
-0.35829
-0.3585
-0.35876
-0.3591
-0.359576
-0.360228
-0.361077
-0.362125
-0.363361
-0.364764
-0.366308
-0.367963
-0.3697
-0.371491
-0.373312
-0.375156
-0.377017
-0.378783
-0.380304
-0.382804
-0.361225
-0.361084
-0.361084
-0.361191
-0.361427
-0.361833
-0.362433
-0.363233
-0.364226
-0.365393
-0.36671
-0.368149
-0.36968
-0.371276
-0.372915
-0.374588
-0.376296
-0.377938
-0.379358
-0.381808
-0.363932
-0.363509
-0.363273
-0.363144
-0.363125
-0.36326
-0.363581
-0.3641
-0.364814
-0.365709
-0.366764
-0.367952
-0.369245
-0.370614
-0.372035
-0.373501
-0.375015
-0.376487
-0.377759
-0.380136
-0.366404
-0.365775
-0.365329
-0.364966
-0.364681
-0.364527
-0.364545
-0.364756
-0.365164
-0.365761
-0.366529
-0.367443
-0.368472
-0.369589
-0.370764
-0.371988
-0.373263
-0.374505
-0.375549
-0.377788
-0.368669
-0.367906
-0.367277
-0.366684
-0.366127
-0.365672
-0.365372
-0.365258
-0.365344
-0.365628
-0.366096
-0.366722
-0.367477
-0.368326
-0.369235
-0.370185
-0.371171
-0.372105
-0.372795
-0.374756
-0.370783
-0.369947
-0.369161
-0.368342
-0.367511
-0.366751
-0.366126
-0.365681
-0.36544
-0.365408
-0.365574
-0.365914
-0.366394
-0.366972
-0.367603
-0.368248
-0.36889
-0.369416
-0.369575
-0.371016
-0.37283
-0.371967
-0.371039
-0.37
-0.368897
-0.367831
-0.366884
-0.366112
-0.365549
-0.365209
-0.365084
-0.365147
-0.365361
-0.365672
-0.366016
-0.36633
-0.366567
-0.366574
-0.365992
-0.366563
-0.374913
-0.374047
-0.372985
-0.371728
-0.370357
-0.368992
-0.36773
-0.366642
-0.365773
-0.36514
-0.364739
-0.364541
-0.3645
-0.364549
-0.3646
-0.364556
-0.364326
-0.363711
-0.362198
-0.361484
-0.377149
-0.376281
-0.37508
-0.373604
-0.37197
-0.370314
-0.368752
-0.367366
-0.366208
-0.365303
-0.364643
-0.3642
-0.363914
-0.363702
-0.363448
-0.363011
-0.362242
-0.360887
-0.358253
-0.35579
-0.379662
-0.378764
-0.377412
-0.375711
-0.373815
-0.371881
-0.370034
-0.368369
-0.366944
-0.365785
-0.364885
-0.36421
-0.363692
-0.363231
-0.362683
-0.36186
-0.360534
-0.358323
-0.354258
-0.349417
-0.382571
-0.381595
-0.380064
-0.378129
-0.375972
-0.373768
-0.371653
-0.369727
-0.368053
-0.366657
-0.365532
-0.364639
-0.36391
-0.363242
-0.362498
-0.361498
-0.36
-0.357527
-0.352797
-0.34652
-0.385985
-0.384863
-0.383116
-0.380931
-0.37851
-0.376042
-0.373671
-0.371499
-0.369588
-0.367964
-0.366618
-0.365509
-0.364574
-0.363729
-0.362881
-0.361944
-0.360868
-0.359635
-0.358554
-0.361877
-0.389996
-0.388644
-0.386638
-0.38418
-0.381487
-0.378756
-0.376134
-0.373723
-0.371581
-0.369726
-0.368147
-0.3668
-0.365624
-0.364549
-0.36351
-0.362467
-0.361434
-0.360505
-0.359997
-0.362317
-0.394678
-0.393005
-0.390686
-0.387929
-0.384949
-0.381949
-0.379076
-0.376423
-0.374042
-0.371941
-0.370099
-0.368469
-0.366989
-0.365595
-0.364236
-0.362885
-0.361562
-0.360338
-0.359375
-0.359641
-0.400083
-0.397994
-0.395309
-0.39222
-0.388933
-0.385651
-0.382516
-0.37961
-0.376968
-0.374588
-0.372433
-0.370451
-0.368575
-0.366743
-0.364907
-0.36304
-0.361146
-0.359248
-0.357427
-0.355919
-0.40625
-0.403651
-0.400543
-0.397088
-0.393469
-0.389887
-0.386471
-0.383285
-0.380345
-0.37763
-0.37509
-0.372661
-0.370274
-0.367869
-0.365402
-0.362848
-0.360201
-0.357462
-0.354683
-0.351757
-0.413203
-0.410005
-0.406421
-0.402565
-0.398586
-0.394678
-0.390952
-0.387444
-0.384148
-0.381019
-0.377994
-0.375
-0.371972
-0.368858
-0.365625
-0.362258
-0.35876
-0.355138
-0.351439
-0.347474
-0.420957
-0.417081
-0.41297
-0.408681
-0.404313
-0.400047
-0.395965
-0.392075
-0.388338
-0.38469
-0.381054
-0.377361
-0.373555
-0.369603
-0.365493
-0.361233
-0.356844
-0.352352
-0.347806
-0.34304
-0.42952
-0.424894
-0.420215
-0.415462
-0.410674
-0.406007
-0.401509
-0.397149
-0.392859
-0.388557
-0.384165
-0.379626
-0.374908
-0.370006
-0.364939
-0.359742
-0.354458
-0.349134
-0.343818
-0.338404
-0.43889
-0.433453
-0.428172
-0.422929
-0.417685
-0.41256
-0.407561
-0.402614
-0.397628
-0.392513
-0.387206
-0.381675
-0.375924
-0.369986
-0.363911
-0.357762
-0.3516
-0.345484
-0.339461
-0.33347
-0.449051
-0.442753
-0.436846
-0.431088
-0.425343
-0.419683
-0.414067
-0.408387
-0.402534
-0.396432
-0.390046
-0.383388
-0.376507
-0.369473
-0.362369
-0.355275
-0.348265
-0.341399
-0.334714
-0.328182
-0.459968
-0.452772
-0.446221
-0.439922
-0.433615
-0.427318
-0.42094
-0.414348
-0.407438
-0.400167
-0.392551
-0.384654
-0.376572
-0.368414
-0.360283
-0.352271
-0.344449
-0.336872
-0.329564
-0.322507
-0.471581
-0.463464
-0.456258
-0.449384
-0.442435
-0.435367
-0.42805
-0.420344
-0.412178
-0.403565
-0.394587
-0.385368
-0.376049
-0.366766
-0.357633
-0.348739
-0.340149
-0.331902
-0.324003
-0.316436
-0.483796
-0.47475
-0.466883
-0.459387
-0.451691
-0.443687
-0.435226
-0.426191
-0.416574
-0.406467
-0.396028
-0.38544
-0.374878
-0.364493
-0.354398
-0.344671
-0.335359
-0.326484
-0.318026
-0.309972
-0.496484
-0.486519
-0.477982
-0.469802
-0.461225
-0.452092
-0.442263
-0.431684
-0.42044
-0.408719
-0.396758
-0.384787
-0.373005
-0.361562
-0.350559
-0.340053
-0.330069
-0.320609
-0.311628
-0.303116
-0.509476
-0.498616
-0.489399
-0.480452
-0.470831
-0.460352
-0.448926
-0.436602
-0.423587
-0.410173
-0.396667
-0.383334
-0.370378
-0.357937
-0.346087
-0.334861
-0.324259
-0.314261
-0.304795
-0.295865
-0.522559
-0.510846
-0.500934
-0.491112
-0.480259
-0.468203
-0.45496
-0.440721
-0.425832
-0.410689
-0.395654
-0.381009
-0.366946
-0.353576
-0.340948
-0.329065
-0.317901
-0.307415
-0.297507
-0.288205
-0.535482
-0.522971
-0.512339
-0.501512
-0.489221
-0.47536
-0.460103
-0.44382
-0.427003
-0.410139
-0.393625
-0.377741
-0.362651
-0.348434
-0.335101
-0.322626
-0.31096
-0.300039
-0.289735
-0.280115
-0.547951
-0.534712
-0.523324
-0.511343
-0.497399
-0.48152
-0.464091
-0.445685
-0.426936
-0.408401
-0.39049
-0.37346
-0.357436
-0.342457
-0.328497
-0.315499
-0.303394
-0.292094
-0.281446
-0.271565
-0.559642
-0.545754
-0.533562
-0.520264
-0.504459
-0.48638
-0.466671
-0.446119
-0.425482
-0.405364
-0.386162
-0.368093
-0.351238
-0.335587
-0.321081
-0.307634
-0.295155
-0.283536
-0.2726
-0.262521
-0.5702
-0.555749
-0.542697
-0.527916
-0.51006
-0.489644
-0.467606
-0.444939
-0.422505
-0.400922
-0.380556
-0.361569
-0.34399
-0.327766
-0.312799
-0.298979
-0.286197
-0.274322
-0.263157
-0.252944
-0.579254
-0.564331
-0.550354
-0.533929
-0.513867
-0.491033
-0.466676
-0.441982
-0.417882
-0.39498
-0.37359
-0.353816
-0.335629
-0.318931
-0.303594
-0.289482
-0.276469
-0.264405
-0.253074
-0.242797
-0.58642
-0.571116
-0.55615
-0.537938
-0.515563
-0.49029
-0.463689
-0.437103
-0.411501
-0.387447
-0.365189
-0.344765
-0.32609
-0.309026
-0.293412
-0.279092
-0.265928
-0.253744
-0.242314
-0.232044
-0.591316
-0.575724
-0.559708
-0.539597
-0.514855
-0.487192
-0.458475
-0.430178
-0.403265
-0.378243
-0.355283
-0.334352
-0.315316
-0.297995
-0.282202
-0.267766
-0.25453
-0.242302
-0.230843
-0.220652
-0.593574
-0.577785
-0.560667
-0.538585
-0.511486
-0.481542
-0.450896
-0.421101
-0.393092
-0.367298
-0.343807
-0.322521
-0.303253
-0.28579
-0.269923
-0.255462
-0.242241
-0.230046
-0.218633
-0.208595
-0.592845
-0.576948
-0.558698
-0.534621
-0.505237
-0.473185
-0.440836
-0.409788
-0.380914
-0.354553
-0.33071
-0.309222
-0.289857
-0.272372
-0.256536
-0.242149
-0.229032
-0.216951
-0.205663
-0.195856
-0.588816
-0.572899
-0.553509
-0.527465
-0.495933
-0.461999
-0.428213
-0.396177
-0.36668
-0.339963
-0.31595
-0.294417
-0.275093
-0.257708
-0.242016
-0.227805
-0.214884
-0.203002
-0.191921
-0.182422
-0.581216
-0.565365
-0.544855
-0.516929
-0.483446
-0.447899
-0.412971
-0.380226
-0.350355
-0.323497
-0.299497
-0.278078
-0.258936
-0.241779
-0.226344
-0.212413
-0.199785
-0.18819
-0.177401
-0.168289
-0.569821
-0.554124
-0.532547
-0.502879
-0.46769
-0.430838
-0.395083
-0.361917
-0.331922
-0.305137
-0.281335
-0.260192
-0.241375
-0.224573
-0.209513
-0.19597
-0.183733
-0.172517
-0.162108
-0.153462
-0.554465
-0.539011
-0.516454
-0.485233
-0.448631
-0.410808
-0.37455
-0.341254
-0.311384
-0.284884
-0.261463
-0.240757
-0.222407
-0.20609
-0.191524
-0.178479
-0.166736
-0.155994
-0.146057
-0.137954
-0.535043
-0.519921
-0.496507
-0.463967
-0.426278
-0.387835
-0.351402
-0.318263
-0.288763
-0.262756
-0.239895
-0.219783
-0.202043
-0.186341
-0.172389
-0.159954
-0.148809
-0.138642
-0.129273
-0.121794
-0.511513
-0.496817
-0.472699
-0.439112
-0.400684
-0.36198
-0.325699
-0.292996
-0.264101
-0.238787
-0.216658
-0.197294
-0.180303
-0.165344
-0.152127
-0.140416
-0.129977
-0.120489
-0.111792
-0.105025
-0.483897
-0.469724
-0.445082
-0.41075
-0.371947
-0.33334
-0.297527
-0.265528
-0.237459
-0.213027
-0.191796
-0.173325
-0.157217
-0.143126
-0.130762
-0.119887
-0.110264
-0.101567
-0.0936547
-0.0876941
-0.452284
-0.438732
-0.413771
-0.379015
-0.340206
-0.302044
-0.267002
-0.235955
-0.208922
-0.185546
-0.165364
-0.147924
-0.132824
-0.119718
-0.108319
-0.0983907
-0.0896932
-0.0819008
-0.0748933
-0.0698243
-0.416823
-0.403993
-0.378935
-0.344089
-0.305637
-0.268256
-0.234265
-0.204403
-0.178593
-0.156432
-0.137436
-0.121148
-0.107167
-0.0951543
-0.0848263
-0.075949
-0.0682854
-0.061518
-0.0555317
-0.0514033
-0.377726
-0.365717
-0.340796
-0.306196
-0.268454
-0.232168
-0.199488
-0.171018
-0.146601
-0.125793
-0.1081
-0.0930657
-0.0802986
-0.0694687
-0.0603026
-0.0525734
-0.0460522
-0.0404328
-0.0355786
-0.0324286
-0.335257
-0.32417
-0.299626
-0.265603
-0.228907
-0.194006
-0.162871
-0.135977
-0.113096
-0.0937578
-0.0774625
-0.0637628
-0.0522799
-0.0427001
-0.0347663
-0.0282653
-0.0229817
-0.0186274
-0.0150423
-0.0130401
-0.289732
-0.279665
-0.255737
-0.222611
-0.187274
-0.154021
-0.124639
-0.0994804
-0.0782579
-0.0604808
-0.0456535
-0.0333422
-0.0231877
-0.0149002
-0.0082474
-0.00303302
0.0009405
0.00390189
0.00594387
0.00633187
-0.241512
-0.232555
-0.209479
-0.177554
-0.143863
-0.112495
-0.0850456
-0.0617568
-0.0422892
-0.0261398
-0.0128205
-0.00191611
0.00690587
0.0139
0.0192625
0.0231675
0.0257689
0.0271089
0.0270412
0.0252212
-0.190993
-0.183233
-0.161232
-0.130791
-0.0990067
-0.0697313
-0.044372
-0.0230655
-0.00542841
0.00905204
0.0208566
0.0303843
0.0379424
0.0437483
0.0479594
0.0507178
0.0520552
0.0515957
0.0488304
0.044773
-0.138602
-0.132116
-0.111401
-0.0827029
-0.0530567
-0.0260566
-0.00292299
0.0163037
0.0320453
0.0448237
0.0551182
0.063324
0.0697438
0.074593
0.0780421
0.0802508
0.0811157
0.0797432
0.075401
0.0710074
-0.0847907
-0.0796444
-0.0604087
-0.033683
-0.00637736
0.0181905
0.038981
0.0560403
0.0698215
0.0808524
0.0896113
0.0964959
0.101823
0.105846
0.108824
0.111045
0.112473
0.112073
0.109583
0.113645
-0.0300157
-0.0262683
-0.00868347
0.0158681
0.0406615
0.0626663
0.0810155
0.0958312
0.107589
0.116817
0.123984
0.12948
0.13362
0.136669
0.138902
0.14059
0.141714
0.141778
0.141724
0.147993
0.0252495
0.0275522
0.0433384
0.0655472
0.08769
0.107029
0.12286
0.135371
0.145054
0.152429
0.157954
0.162007
0.164897
0.166887
0.168236
0.169173
0.169672
0.169427
0.169391
0.174482
0.0805319
0.0813572
0.0952236
0.114956
0.134345
0.150944
0.164205
0.174368
0.181934
0.187411
0.19124
0.193781
0.195329
0.196132
0.196431
0.196427
0.196112
0.195251
0.194627
0.198137
0.135362
0.134692
0.146546
0.163705
0.180271
0.19409
0.204753
0.212549
0.217977
0.221532
0.223631
0.224615
0.224758
0.224288
0.223419
0.222322
0.220977
0.219177
0.217642
0.219687
0.189281
0.18711
0.196889
0.211416
0.225128
0.236158
0.244225
0.249656
0.252949
0.254576
0.254933
0.254338
0.253043
0.251255
0.249164
0.246913
0.244467
0.241642
0.23912
0.239762
0.24184
0.23818
0.245853
0.257726
0.26859
0.276853
0.282354
0.285452
0.286634
0.286353
0.28498
0.282809
0.28007
0.276952
0.273618
0.27019
0.266619
0.262753
0.259244
0.258563
0.292609
0.287486
0.293051
0.302286
0.310343
0.315896
0.318891
0.31971
0.318832
0.316685
0.313617
0.309899
0.305741
0.301309
0.29675
0.29216
0.28749
0.282612
0.278141
0.276205
0.341177
0.334631
0.338119
0.344769
0.350096
0.353024
0.353599
0.35222
0.349354
0.345406
0.3407
0.335486
0.329952
0.324249
0.318503
0.312793
0.307068
0.301228
0.295839
0.292715
0.387155
0.379243
0.380712
0.384863
0.387569
0.387989
0.386256
0.382783
0.378022
0.372358
0.366091
0.35945
0.352606
0.34569
0.338814
0.332042
0.325324
0.318581
0.312324
0.308079
0.430177
0.420971
0.420508
0.42228
0.422505
0.420559
0.416653
0.411211
0.404669
0.397392
0.389658
0.381675
0.373599
0.365546
0.357611
0.349846
0.342206
0.334627
0.327557
0.322264
0.469906
0.45949
0.457209
0.456751
0.454663
0.450519
0.444597
0.437329
0.429138
0.420366
0.411273
0.402049
0.392833
0.383728
0.374815
0.366135
0.35765
0.349307
0.341485
0.335221
0.50603
0.494504
0.490542
0.488032
0.483824
0.477671
0.469909
0.460978
0.451283
0.441149
0.430818
0.420463
0.41021
0.400148
0.390347
0.380839
0.37159
0.362558
0.354052
0.3469
0.538271
0.525743
0.520261
0.515902
0.509789
0.501835
0.492428
0.482008
0.470969
0.459619
0.448181
0.436816
0.425637
0.414723
0.40413
0.393885
0.38396
0.374317
0.365197
0.357248
0.566378
0.552972
0.546149
0.540163
0.532381
0.522853
0.512008
0.500289
0.488077
0.475665
0.463262
0.451017
0.439031
0.427373
0.416091
0.405206
0.394694
0.384521
0.374864
0.366217
0.590137
0.575982
0.568015
0.560645
0.551447
0.540585
0.528523
0.515704
0.5025
0.48919
0.475972
0.462983
0.450315
0.438029
0.426166
0.414741
0.403734
0.393116
0.383003
0.373762
0.609364
0.5946
0.585701
0.577205
0.566857
0.554914
0.541866
0.528157
0.514149
0.500112
0.486234
0.472642
0.459423
0.44663
0.434296
0.422435
0.41103
0.400052
0.389569
0.379845
0.623913
0.608687
0.599078
0.589726
0.578506
0.565743
0.551949
0.537566
0.522951
0.508363
0.493985
0.479939
0.466302
0.453125
0.440436
0.428245
0.41654
0.40529
0.394525
0.384434
0.633673
0.618136
0.608049
0.598122
0.586316
0.573003
0.558707
0.543872
0.528848
0.513892
0.499179
0.484827
0.470911
0.457476
0.444549
0.432137
0.42023
0.408798
0.397844
0.387506
0.63857
0.622876
0.612549
0.602332
0.590232
0.576643
0.562096
0.547033
0.531805
0.516664
0.501783
0.487277
0.473221
0.459657
0.44661
0.434088
0.42208
0.410556
0.399508
0.389045
0.638566
0.622872
0.612545
0.602329
0.590229
0.576639
0.562093
0.54703
0.531803
0.516661
0.50178
0.487275
0.473218
0.459655
0.446608
0.434085
0.422078
0.410554
0.399505
0.389043
0.633661
0.618124
0.608038
0.598111
0.586305
0.572993
0.558698
0.543863
0.52884
0.513884
0.499171
0.484819
0.470903
0.457469
0.444542
0.43213
0.420224
0.408792
0.397838
0.3875
0.623893
0.608667
0.599059
0.589708
0.578489
0.565727
0.551934
0.537551
0.522936
0.50835
0.493972
0.479926
0.46629
0.453113
0.440425
0.428234
0.416529
0.405279
0.394515
0.384424
0.609336
0.594573
0.585675
0.57718
0.566833
0.554891
0.541844
0.528136
0.514129
0.500093
0.486215
0.472625
0.459406
0.446614
0.43428
0.42242
0.411015
0.400037
0.389555
0.379831
0.590101
0.575946
0.567981
0.560612
0.551416
0.540556
0.528495
0.515678
0.502475
0.489165
0.475948
0.46296
0.450293
0.438008
0.426145
0.414721
0.403715
0.393097
0.382984
0.373744
0.566334
0.552928
0.546107
0.540123
0.532343
0.522817
0.511974
0.500256
0.488046
0.475634
0.463233
0.450989
0.439004
0.427347
0.416066
0.405182
0.39467
0.384498
0.374841
0.366195
0.538218
0.525692
0.520212
0.515855
0.509744
0.501793
0.492388
0.481969
0.470932
0.459583
0.448147
0.436783
0.425605
0.414692
0.4041
0.393856
0.383931
0.374289
0.36517
0.357222
0.50597
0.494444
0.490484
0.487978
0.483772
0.477622
0.469863
0.460933
0.45124
0.441108
0.430778
0.420425
0.410173
0.400113
0.390312
0.380806
0.371558
0.362527
0.354021
0.34687
0.469837
0.459423
0.457144
0.45669
0.454604
0.450463
0.444544
0.437279
0.42909
0.42032
0.411228
0.402006
0.392791
0.383688
0.374775
0.366098
0.357613
0.349271
0.34145
0.335188
0.4301
0.420896
0.420435
0.422211
0.422439
0.420497
0.416594
0.411154
0.404615
0.39734
0.389608
0.381627
0.373553
0.365501
0.357567
0.349803
0.342164
0.334587
0.327517
0.322226
0.38707
0.37916
0.380631
0.384787
0.387497
0.38792
0.38619
0.38272
0.377962
0.3723
0.366036
0.359397
0.352554
0.345641
0.338766
0.331995
0.325279
0.318537
0.31228
0.308038
0.341084
0.33454
0.338031
0.344685
0.350016
0.352949
0.353527
0.352152
0.349288
0.345343
0.340639
0.335427
0.329896
0.324195
0.31845
0.312742
0.307019
0.301179
0.295792
0.292669
0.292508
0.287386
0.292955
0.302195
0.310257
0.315814
0.318813
0.319636
0.31876
0.316616
0.313551
0.309836
0.305679
0.30125
0.296692
0.292105
0.287436
0.282559
0.27809
0.276156
0.241731
0.238072
0.245749
0.257627
0.268496
0.276764
0.282269
0.285371
0.286557
0.286279
0.284908
0.28274
0.280004
0.276888
0.273556
0.27013
0.266561
0.262696
0.259188
0.25851
0.189163
0.186994
0.196778
0.21131
0.225028
0.236062
0.244134
0.249569
0.252866
0.254496
0.254857
0.254264
0.252972
0.251186
0.249097
0.246849
0.244404
0.241581
0.239061
0.239705
0.135237
0.134568
0.146426
0.163592
0.180163
0.193988
0.204656
0.212456
0.217889
0.221447
0.223549
0.224536
0.224682
0.224215
0.223348
0.222253
0.22091
0.219112
0.217579
0.219626
0.0803978
0.081225
0.0950962
0.114835
0.13423
0.150835
0.164101
0.174269
0.18184
0.187321
0.191153
0.193697
0.195248
0.196054
0.196355
0.196353
0.196041
0.195181
0.194559
0.198071
0.0251072
0.0274119
0.0432031
0.0654185
0.087568
0.106913
0.12275
0.135266
0.144954
0.152333
0.157861
0.161918
0.164811
0.166803
0.168155
0.169094
0.169596
0.169353
0.169319
0.174413
-0.0301662
-0.0264167
-0.00882663
0.0157318
0.0405323
0.0625437
0.0808989
0.09572
0.107483
0.116715
0.123886
0.129386
0.133529
0.136581
0.138816
0.140507
0.141633
0.141699
0.141647
0.147919
-0.0849493
-0.0798009
-0.0605598
-0.0338268
-0.00651368
0.0180612
0.038858
0.0559229
0.0697092
0.0807446
0.0895076
0.0963959
0.101726
0.105753
0.108733
0.110957
0.112388
0.111989
0.109501
0.113566
-0.138769
-0.13228
-0.11156
-0.0828542
-0.0532001
-0.0261927
-0.0030524
0.0161802
0.0319271
0.0447104
0.0550091
0.0632188
0.0696421
0.0744944
0.0779463
0.0801577
0.0810249
0.0796543
0.0753134
0.0709206
-0.191167
-0.183405
-0.161399
-0.13095
-0.0991572
-0.0698741
-0.0445078
-0.023195
-0.00555234
0.00893309
0.0207421
0.0302739
0.0378356
0.0436447
0.0478588
0.0506198
0.0519595
0.0515019
0.048738
0.0446815
-0.241694
-0.232736
-0.209653
-0.17772
-0.14402
-0.112644
-0.0851876
-0.0618923
-0.0424189
-0.0262642
-0.0129402
-0.00203163
0.00679415
0.0137917
0.0191572
0.023065
0.0256689
0.027011
0.0269451
0.0251263
-0.289923
-0.279853
-0.255919
-0.222785
-0.187438
-0.154177
-0.124787
-0.0996218
-0.0783932
-0.0606107
-0.0457784
-0.0334627
-0.0233042
-0.015013
-0.00835702
-0.00313972
0.000836449
0.00380027
0.0058444
0.00623397
-0.335455
-0.324366
-0.299815
-0.265784
-0.229078
-0.194168
-0.163025
-0.136124
-0.113237
-0.0938929
-0.0775924
-0.063888
-0.052401
-0.0428173
-0.0348801
-0.028376
-0.0230895
-0.0187326
-0.0151451
-0.013141
-0.377931
-0.365921
-0.340993
-0.306384
-0.268632
-0.232337
-0.199649
-0.171171
-0.146747
-0.125933
-0.108235
-0.0931956
-0.0804241
-0.0695902
-0.0604204
-0.0526879
-0.0461636
-0.0405414
-0.0356846
-0.0325325
-0.417036
-0.404203
-0.379138
-0.344283
-0.305821
-0.268431
-0.234431
-0.204561
-0.178745
-0.156578
-0.137576
-0.121282
-0.107297
-0.0952797
-0.0849479
-0.0760671
-0.0684003
-0.0616298
-0.0556408
-0.0515101
-0.452503
-0.438949
-0.413982
-0.379217
-0.340397
-0.302226
-0.267174
-0.236119
-0.209079
-0.185696
-0.165509
-0.148063
-0.132957
-0.119847
-0.108445
-0.0985123
-0.0898113
-0.0820157
-0.0750052
-0.0699338
-0.484123
-0.469948
-0.4453
-0.410958
-0.372145
-0.333527
-0.297705
-0.265697
-0.237621
-0.213181
-0.191944
-0.173468
-0.157355
-0.143259
-0.13089
-0.120012
-0.110386
-0.101685
-0.0937694
-0.0878062
-0.511745
-0.497047
-0.472923
-0.439326
-0.400888
-0.362173
-0.325883
-0.293171
-0.264267
-0.238946
-0.216811
-0.197441
-0.180445
-0.165481
-0.152259
-0.140544
-0.130102
-0.12061
-0.11191
-0.10514
-0.535281
-0.520158
-0.496738
-0.464188
-0.426487
-0.388034
-0.351591
-0.318443
-0.288934
-0.26292
-0.240052
-0.219934
-0.202188
-0.186481
-0.172525
-0.160085
-0.148937
-0.138765
-0.129393
-0.121911
-0.554709
-0.539252
-0.51669
-0.485459
-0.448847
-0.411013
-0.374743
-0.341438
-0.31156
-0.285052
-0.261624
-0.240912
-0.222556
-0.206233
-0.191663
-0.178613
-0.166866
-0.15612
-0.146179
-0.138074
-0.570069
-0.554371
-0.532788
-0.50311
-0.467911
-0.431048
-0.395281
-0.362106
-0.332102
-0.305309
-0.2815
-0.260351
-0.241527
-0.224719
-0.209655
-0.196107
-0.183866
-0.172646
-0.162233
-0.153584
-0.581469
-0.565617
-0.5451
-0.517166
-0.483671
-0.448113
-0.413174
-0.380419
-0.350539
-0.323672
-0.299665
-0.27824
-0.259092
-0.241929
-0.226489
-0.212553
-0.199921
-0.188321
-0.177528
-0.168413
-0.589073
-0.573154
-0.553758
-0.527706
-0.496164
-0.462217
-0.428421
-0.396374
-0.366868
-0.340143
-0.316122
-0.294581
-0.275251
-0.257861
-0.242163
-0.227947
-0.215022
-0.203135
-0.19205
-0.182547
-0.593105
-0.577206
-0.558951
-0.534866
-0.505471
-0.473408
-0.441048
-0.409989
-0.381106
-0.354736
-0.330885
-0.30939
-0.290018
-0.272527
-0.256686
-0.242294
-0.229172
-0.217086
-0.205794
-0.195983
-0.593836
-0.578045
-0.560923
-0.538833
-0.511723
-0.481769
-0.451111
-0.421306
-0.393287
-0.367484
-0.343985
-0.322692
-0.303417
-0.285948
-0.270075
-0.255609
-0.242383
-0.230183
-0.218766
-0.208725
-0.59158
-0.575986
-0.559966
-0.539847
-0.515096
-0.487422
-0.458694
-0.430386
-0.403463
-0.378432
-0.355464
-0.334526
-0.315482
-0.298155
-0.282357
-0.267915
-0.254674
-0.242441
-0.230978
-0.220782
-0.586685
-0.571379
-0.556409
-0.53819
-0.515806
-0.490523
-0.463911
-0.437315
-0.411702
-0.387639
-0.365373
-0.344941
-0.326259
-0.309188
-0.293568
-0.279243
-0.266073
-0.253885
-0.242451
-0.232176
-0.579519
-0.564594
-0.550614
-0.534182
-0.514113
-0.491268
-0.466901
-0.442196
-0.418086
-0.395175
-0.373777
-0.353994
-0.3358
-0.319096
-0.303752
-0.289635
-0.276617
-0.264548
-0.253212
-0.242931
-0.570464
-0.556012
-0.542957
-0.52817
-0.510306
-0.489881
-0.467833
-0.445156
-0.422712
-0.40112
-0.380744
-0.36175
-0.344164
-0.327932
-0.31296
-0.299134
-0.286346
-0.274466
-0.263296
-0.253079
-0.559905
-0.546015
-0.533821
-0.520518
-0.504706
-0.486618
-0.4669
-0.446337
-0.425691
-0.405563
-0.386353
-0.368276
-0.351413
-0.335756
-0.321244
-0.30779
-0.295306
-0.283682
-0.272741
-0.262657
-0.548212
-0.534972
-0.523581
-0.511595
-0.497646
-0.481759
-0.464321
-0.445905
-0.427147
-0.408603
-0.390684
-0.373645
-0.357614
-0.342627
-0.328661
-0.315657
-0.303546
-0.292241
-0.281588
-0.271702
-0.53574
-0.523228
-0.512594
-0.501763
-0.489466
-0.475599
-0.460333
-0.444041
-0.427215
-0.410342
-0.39382
-0.377928
-0.362831
-0.348606
-0.335267
-0.322785
-0.311114
-0.300187
-0.289878
-0.280253
-0.522815
-0.511099
-0.501186
-0.49136
-0.480503
-0.468441
-0.455191
-0.440944
-0.426046
-0.410894
-0.395851
-0.381197
-0.367127
-0.35375
-0.341116
-0.329226
-0.318056
-0.307565
-0.297651
-0.288344
-0.509728
-0.498866
-0.489648
-0.480697
-0.471073
-0.460588
-0.449156
-0.436825
-0.423801
-0.410379
-0.396865
-0.383524
-0.370561
-0.358112
-0.346256
-0.335023
-0.324415
-0.314412
-0.30494
-0.296004
-0.496733
-0.486765
-0.478226
-0.470044
-0.461464
-0.452327
-0.442492
-0.431906
-0.420655
-0.408927
-0.396958
-0.384979
-0.37319
-0.36174
-0.35073
-0.340217
-0.330227
-0.320761
-0.311774
-0.303257
-0.48404
-0.474993
-0.467123
-0.459625
-0.451927
-0.443919
-0.435453
-0.426413
-0.416789
-0.406676
-0.39623
-0.385634
-0.375065
-0.364673
-0.354571
-0.344838
-0.335519
-0.326638
-0.318174
-0.310114
-0.471821
-0.463702
-0.456494
-0.449618
-0.442667
-0.435596
-0.428275
-0.420564
-0.412392
-0.403774
-0.394789
-0.385564
-0.376238
-0.366948
-0.357808
-0.348908
-0.340311
-0.332058
-0.324152
-0.31658
-0.460204
-0.453006
-0.446453
-0.440152
-0.433843
-0.427543
-0.421162
-0.414566
-0.407652
-0.400376
-0.392754
-0.384851
-0.376763
-0.368598
-0.360461
-0.352442
-0.344613
-0.33703
-0.329715
-0.322652
-0.449283
-0.442982
-0.437073
-0.431314
-0.425567
-0.419905
-0.414286
-0.408603
-0.402747
-0.39664
-0.39025
-0.383587
-0.3767
-0.36966
-0.362549
-0.355449
-0.348432
-0.341559
-0.334868
-0.32833
-0.439118
-0.433678
-0.428396
-0.423151
-0.417905
-0.412779
-0.407777
-0.402828
-0.397839
-0.392721
-0.38741
-0.381875
-0.376119
-0.370175
-0.364095
-0.357939
-0.351771
-0.345648
-0.339617
-0.33362
-0.429743
-0.425115
-0.420435
-0.41568
-0.41089
-0.406222
-0.401722
-0.397361
-0.393069
-0.388764
-0.38437
-0.379827
-0.375105
-0.370199
-0.365126
-0.359923
-0.354633
-0.349301
-0.343979
-0.338557
-0.421177
-0.417299
-0.413186
-0.408895
-0.404525
-0.400258
-0.396175
-0.392284
-0.388546
-0.384896
-0.381259
-0.377563
-0.373754
-0.369798
-0.365684
-0.361419
-0.357023
-0.352524
-0.347971
-0.343197
-0.413419
-0.41022
-0.406633
-0.402776
-0.398795
-0.394886
-0.391158
-0.38765
-0.384353
-0.381224
-0.378198
-0.375203
-0.372174
-0.369057
-0.36582
-0.362449
-0.358945
-0.355316
-0.351609
-0.347636
-0.406463
-0.403862
-0.400753
-0.397296
-0.393674
-0.390091
-0.386674
-0.383488
-0.380548
-0.377833
-0.375294
-0.372865
-0.370478
-0.368072
-0.365603
-0.363045
-0.360392
-0.357647
-0.354859
-0.351923
-0.400294
-0.398203
-0.395516
-0.392425
-0.389136
-0.385853
-0.382717
-0.37981
-0.377169
-0.37479
-0.372637
-0.370656
-0.368781
-0.36695
-0.365112
-0.363244
-0.361345
-0.359441
-0.357611
-0.356093
-0.394886
-0.393211
-0.390891
-0.388132
-0.38515
-0.382148
-0.379274
-0.376622
-0.374241
-0.372143
-0.370303
-0.368675
-0.367198
-0.365806
-0.364447
-0.363095
-0.361769
-0.36054
-0.359569
-0.359823
-0.390203
-0.388849
-0.38684
-0.384381
-0.381686
-0.378953
-0.376331
-0.37392
-0.371779
-0.369927
-0.368351
-0.367007
-0.365835
-0.364764
-0.363727
-0.362685
-0.361651
-0.360719
-0.360204
-0.36251
-0.386191
-0.385066
-0.383317
-0.38113
-0.378708
-0.376238
-0.373866
-0.371695
-0.369786
-0.368165
-0.366823
-0.365719
-0.364788
-0.363948
-0.363104
-0.36217
-0.361095
-0.359861
-0.358775
-0.362086
-0.382777
-0.381798
-0.380264
-0.378327
-0.376169
-0.373963
-0.371848
-0.369923
-0.368251
-0.366859
-0.365738
-0.364851
-0.364127
-0.363466
-0.362728
-0.361732
-0.360238
-0.357769
-0.353041
-0.346766
-0.379868
-0.378966
-0.377611
-0.375908
-0.374011
-0.372075
-0.370229
-0.368565
-0.367143
-0.365987
-0.365093
-0.364424
-0.363913
-0.363459
-0.362918
-0.362102
-0.360781
-0.358576
-0.354516
-0.349677
-0.377354
-0.376482
-0.375279
-0.3738
-0.372164
-0.370508
-0.368946
-0.367562
-0.366408
-0.365507
-0.364853
-0.364417
-0.364138
-0.363934
-0.363688
-0.363258
-0.362497
-0.361148
-0.35852
-0.356059
-0.375117
-0.374247
-0.373182
-0.371923
-0.370551
-0.369185
-0.367924
-0.366839
-0.365973
-0.365346
-0.364951
-0.364761
-0.364728
-0.364785
-0.364844
-0.364809
-0.364587
-0.36398
-0.362473
-0.361762
-0.373033
-0.372166
-0.371234
-0.370193
-0.36909
-0.368023
-0.367077
-0.366308
-0.36575
-0.365416
-0.365297
-0.365369
-0.365591
-0.365911
-0.366264
-0.366588
-0.366833
-0.366849
-0.366275
-0.36685
-0.370985
-0.370144
-0.369354
-0.368533
-0.367702
-0.366941
-0.366318
-0.365877
-0.365641
-0.365615
-0.365789
-0.366137
-0.366626
-0.367214
-0.367854
-0.368509
-0.36916
-0.369694
-0.369862
-0.371308
-0.368868
-0.368099
-0.367468
-0.366872
-0.366314
-0.36586
-0.365563
-0.365453
-0.365544
-0.365835
-0.36631
-0.366945
-0.367709
-0.368568
-0.369487
-0.370446
-0.371443
-0.372385
-0.373084
-0.375052
-0.3666
-0.365965
-0.365516
-0.36515
-0.364865
-0.364712
-0.364733
-0.364948
-0.365362
-0.365966
-0.366742
-0.367664
-0.368704
-0.36983
-0.371015
-0.372249
-0.373534
-0.374785
-0.375839
-0.378085
-0.364123
-0.363694
-0.363454
-0.363323
-0.363304
-0.363441
-0.363765
-0.364289
-0.365009
-0.365911
-0.366974
-0.368171
-0.369473
-0.370852
-0.372283
-0.373759
-0.375283
-0.376765
-0.378047
-0.38043
-0.361409
-0.361261
-0.361259
-0.361364
-0.3616
-0.362008
-0.362612
-0.363417
-0.364416
-0.36559
-0.366915
-0.368362
-0.369903
-0.371509
-0.373158
-0.374841
-0.376559
-0.37821
-0.379641
-0.382097
-0.358465
-0.358669
-0.358926
-0.359265
-0.359742
-0.360396
-0.361248
-0.362301
-0.363544
-0.364954
-0.366506
-0.36817
-0.369916
-0.371716
-0.373547
-0.375401
-0.377271
-0.379047
-0.380578
-0.383083
-0.35533
-0.355945
-0.356478