1.275 	2.15223e-18 	-2.76991e-20 	-0.278832
1.825 	2.15223e-18 	-1.39322e-20 	-0.264894
2.375 	2.15223e-18 	1.38775e-18 	-0.324548
2.925 	2.15223e-18 	2.78958e-18 	-0.300036
3.475 	2.15223e-18 	4.53849e-18 	-0.223648
4.025 	2.15223e-18 	6.28755e-18 	-0.158647
4.575 	2.15223e-18 	6.30203e-18 	-0.0962379
5.125 	2.15223e-18 	6.31666e-18 	-0.0531246
5.675 	2.15223e-18 	6.33144e-18 	-0.0245806
6.225 	2.15223e-18 	4.61166e-18 	-0.00301433
