/*--------------------------------*- C++ -*----------------------------------*\
  =========                 |
  \\      /  F ield         | OpenFOAM: The Open Source CFD Toolbox
   \\    /   O peration     | Website:  https://openfoam.org
    \\  /    A nd           | Version:  6.0
     \\/     M anipulation  |
\*---------------------------------------------------------------------------*/
FoamFile
{
    version     2.0;
    format      ascii;
    class       volVectorField;
    location    "43";
    object      U;
}
// * * * * * * * * * * * * * * * * * * * * * * * * * * * * * * * * * * * * * //

dimensions      [0 1 -1 0 0 0 0];

internalField   nonuniform List<vector> 
4000
(
(0.0906812 0.00717694 5.51526e-20)
(0.290422 0.0378121 -2.99433e-20)
(0.495443 0.0911314 3.52134e-20)
(0.689369 0.15257 -2.61813e-20)
(0.85867 0.212418 -1.17149e-20)
(0.995657 0.264618 3.54239e-21)
(1.09881 0.305992 -1.14736e-20)
(1.1712 0.335918 4.12211e-20)
(1.21832 0.355496 -3.42612e-20)
(1.24632 0.366658 8.02928e-21)
(1.26085 0.371501 -5.98614e-21)
(1.26646 0.371908 -3.87765e-20)
(1.26657 0.36938 3.75514e-20)
(1.26355 0.365023 1.42386e-20)
(1.25896 0.359598 -1.41642e-20)
(1.25376 0.353608 3.31527e-20)
(1.24858 0.347354 -5.15247e-22)
(1.24379 0.341043 -3.20253e-20)
(1.23963 0.335079 2.36872e-20)
(1.23634 0.329423 7.40832e-21)
(0.104447 0.0118751 -1.93238e-20)
(0.324303 0.0524167 5.6046e-20)
(0.541417 0.11466 6.46671e-20)
(0.739536 0.182281 -3.04539e-20)
(0.906291 0.244977 5.2988e-20)
(1.03612 0.29706 8.36689e-20)
(1.12989 0.336239 -4.58926e-21)
(1.19262 0.362866 -1.42658e-20)
(1.23109 0.378833 7.05837e-20)
(1.25206 0.386588 3.43344e-20)
(1.26127 0.388492 -6.17287e-21)
(1.26311 0.3865 5.09498e-20)
(1.26067 0.382077 -5.4396e-20)
(1.256 0.376243 8.46209e-20)
(1.25037 0.369666 -1.40921e-20)
(1.24458 0.362765 4.01326e-20)
(1.23907 0.355776 7.14618e-21)
(1.23414 0.348874 2.85591e-20)
(1.22992 0.342455 -2.72022e-20)
(1.22662 0.336346 6.47861e-21)
(0.118473 0.0176462 -3.00622e-20)
(0.357689 0.0693734 7.15891e-20)
(0.585221 0.140783 5.31029e-20)
(0.785552 0.214074 -8.01575e-21)
(0.948099 0.27875 8.23843e-20)
(1.06983 0.329848 -6.13196e-20)
(1.15404 0.366181 -4.6746e-21)
(1.20757 0.389138 5.40681e-20)
(1.23824 0.401371 1.71797e-20)
(1.25316 0.405768 2.38926e-20)
(1.258 0.404867 -3.51946e-20)
(1.25688 0.400635 9.13796e-20)
(1.25254 0.394463 1.69177e-20)
(1.24671 0.387267 -8.05667e-20)
(1.24042 0.379618 1.17099e-19)
(1.23427 0.371856 -1.37828e-19)
(1.22861 0.364161 -6.28866e-20)
(1.22365 0.356684 1.05142e-20)
(1.21947 0.349813 6.09208e-20)
(1.21623 0.34324 -1.14289e-19)
(0.132531 0.0245047 -6.79245e-20)
(0.390001 0.0885828 -1.60055e-19)
(0.626125 0.169223 -1.3819e-19)
(0.826779 0.247546 -1.87931e-19)
(0.983743 0.313313 -1.0637e-19)
(1.09677 0.362629 -2.20244e-19)
(1.17156 0.395575 2.798e-20)
(1.21656 0.414603 -1.16324e-19)
(1.24034 0.423062 -1.27167e-20)
(1.25017 0.424193 1.90685e-20)
(1.25153 0.420637 -4.17109e-20)
(1.24817 0.414318 5.18028e-20)
(1.24248 0.406524 9.19813e-20)
(1.23588 0.398058 -1.29387e-19)
(1.2292 0.389398 2.05364e-20)
(1.2229 0.380812 5.94668e-20)
(1.21723 0.372429 9.92562e-20)
(1.21234 0.364385 -8.56182e-20)
(1.20826 0.357062 -4.07718e-21)
(1.20516 0.350014 9.98107e-20)
(0.146381 0.0324358 -1.2817e-19)
(0.420671 0.10988 3.51002e-19)
(0.663477 0.199641 -6.19252e-20)
(0.86272 0.282265 8.18179e-20)
(1.01303 0.348246 -8.0045e-20)
(1.11707 0.395068 2.45372e-19)
(1.18284 0.4242 -3.88332e-20)
(1.22009 0.439138 2.31632e-20)
(1.23793 0.443851 -1.14813e-20)
(1.24359 0.441842 3.76515e-20)
(1.24225 0.435785 2.42629e-20)
(1.23726 0.42752 3.03475e-20)
(1.23067 0.418213 -8.64309e-20)
(1.22364 0.408554 1.25937e-19)
(1.21681 0.39893 -9.55533e-20)
(1.21051 0.389544 1.78421e-20)
(1.20494 0.380487 -6.08549e-20)
(1.20021 0.371884 1.28102e-20)
(1.1963 0.364104 1.4363e-20)
(1.19339 0.356575 -1.34933e-19)
(0.159777 0.0413943 9.36896e-21)
(0.449169 0.133038 -1.76811e-19)
(0.696718 0.231648 9.75057e-20)
(0.893012 0.317775 -3.39969e-19)
(1.03588 0.383135 1.64436e-19)
(1.13095 0.426851 -2.81479e-19)
(1.18826 0.45185 -2.19152e-19)
(1.21864 0.462624 -8.33947e-21)
(1.23147 0.46367 -7.39811e-20)
(1.23382 0.458667 -2.29162e-19)
(1.23046 0.450263 -2.84107e-20)
(1.22438 0.440181 -2.17926e-19)
(1.21728 0.429457 3.95809e-20)
(1.21008 0.418667 -3.10927e-20)
(1.20328 0.408117 1.8171e-20)
(1.19712 0.397952 -1.43729e-19)
(1.19176 0.388231 7.99226e-21)
(1.18727 0.379075 2.89553e-20)
(1.18359 0.370838 -6.57572e-20)
(1.18093 0.362824 5.74924e-20)
(0.17248 0.051305 -7.27434e-20)
(0.47501 0.157777 3.23516e-19)
(0.725395 0.264814 2.25682e-21)
(0.917421 0.353613 -2.7965e-19)
(1.05235 0.417579 2.10649e-19)
(1.13868 0.457682 8.82236e-20)
(1.18824 0.47833 1.79597e-20)
(1.21265 0.48494 -1.47772e-19)
(1.22138 0.482437 2.39888e-19)
(1.22117 0.4746 -1.39513e-19)
(1.21641 0.463998 5.0885e-20)
(1.20969 0.452219 2.34237e-19)
(1.2024 0.440161 -2.09477e-19)
(1.19527 0.428295 2.29402e-19)
(1.18866 0.41685 -1.48587e-19)
(1.18276 0.405926 -2.91913e-20)
(1.1777 0.395553 3.4979e-20)
(1.17351 0.385851 4.3557e-20)
(1.17013 0.377157 5.96533e-20)
(1.16779 0.368663 3.60449e-20)
(0.184256 0.0620635 2.90738e-20)
(0.497773 0.183768 -2.91134e-19)
(0.74916 0.298679 5.16804e-20)
(0.935832 0.389316 6.74216e-19)
(1.06259 0.451192 -6.22659e-20)
(1.14058 0.48728 1.8584e-19)
(1.18318 0.503452 1.15605e-19)
(1.20254 0.505958 1.93565e-20)
(1.20799 0.500057 -1.3276e-19)
(1.20594 0.489552 2.1732e-19)
(1.20031 0.476897 -2.46906e-20)
(1.19333 0.46353 3.25472e-19)
(1.18613 0.450214 1.24146e-19)
(1.17926 0.437321 7.70114e-20)
(1.17298 0.425013 -1.60376e-19)
(1.16745 0.413348 3.37752e-20)
(1.16277 0.402337 1.23314e-19)
(1.15896 0.3921 3.10662e-20)
(1.15594 0.382953 -1.47749e-19)
(1.15398 0.373991 -3.66225e-20)
(0.194893 0.0735388 -1.62007e-19)
(0.517102 0.210646 5.21751e-19)
(0.767771 0.332771 -2.83891e-19)
(0.948232 0.424425 -2.60728e-19)
(1.06679 0.483604 -2.26462e-19)
(1.13701 0.515379 -1.90205e-19)
(1.1735 0.527033 -2.33267e-19)
(1.18867 0.525547 2.90995e-19)
(1.19163 0.516417 -2.06079e-19)
(1.18834 0.503414 -1.63821e-20)
(1.18231 0.488846 -1.9718e-21)
(1.1754 0.473993 -3.89078e-20)
(1.16853 0.45949 -9.89009e-20)
(1.1621 0.445617 -1.08925e-19)
(1.15629 0.432479 -5.81255e-21)
(1.15123 0.420097 -2.40444e-20)
(1.14701 0.408464 -5.78599e-20)
(1.14365 0.397707 -1.72192e-20)
(1.14104 0.388115 2.03461e-20)
(1.13952 0.378708 -1.20602e-19)
(0.204198 0.0855764 2.83562e-19)
(0.532719 0.238017 2.92783e-19)
(0.781088 0.366609 -1.81523e-19)
(0.954703 0.458497 1.11848e-19)
(1.06522 0.514466 1.92047e-19)
(1.12834 0.541727 -3.88761e-20)
(1.15956 0.548892 4.7243e-20)
(1.17138 0.543566 5.19367e-20)
(1.17256 0.531396 8.60252e-20)
(1.16859 0.516065 -9.99363e-20)
(1.16255 0.499718 4.9039e-20)
(1.15601 0.483476 -3.24298e-20)
(1.14968 0.467855 1.463e-19)
(1.14384 0.453052 6.15471e-20)
(1.13863 0.439118 -1.42699e-19)
(1.13413 0.426044 7.70034e-20)
(1.13045 0.413812 3.84978e-20)
(1.12759 0.402551 -6.73054e-20)
(1.12547 0.392529 1.83446e-19)
(1.12446 0.38271 -1.33474e-19)
(0.212005 0.0980017 -2.0847e-19)
(0.544422 0.265472 -2.70121e-19)
(0.789066 0.399714 1.8816e-19)
(0.955402 0.491107 -1.73724e-19)
(1.05819 0.543448 -1.65352e-20)
(1.11493 0.566084 -1.87196e-19)
(1.14173 0.568854 1.56178e-19)
(1.15099 0.559873 2.81522e-19)
(1.15103 0.544861 -3.91061e-19)
(1.14685 0.527373 2.01762e-20)
(1.14115 0.509377 1.47372e-20)
(1.13524 0.491842 -7.52172e-20)
(1.12964 0.47517 5.35643e-20)
(1.12455 0.459485 -2.13459e-20)
(1.12005 0.444794 1.37442e-19)
(1.11621 0.431059 -1.47967e-19)
(1.11314 0.418254 -4.8126e-20)
(1.11086 0.40651 1.28928e-19)
(1.10928 0.396076 -1.84093e-19)
(1.10885 0.385888 1.16359e-19)
(0.218182 0.110624 4.32016e-19)
(0.552088 0.29259 3.8083e-19)
(0.79175 0.431623 -6.4168e-20)
(0.950556 0.521852 -8.00637e-21)
(1.04605 0.570244 -1.91922e-19)
(1.09716 0.588226 8.18239e-20)
(1.12036 0.586747 3.9207e-19)
(1.12778 0.574324 -3.42985e-19)
(1.12724 0.556676 2.11589e-19)
(1.12328 0.5372 -1.77559e-20)
(1.11823 0.517682 1.25368e-19)
(1.11317 0.498945 -3.36353e-20)
(1.10847 0.48129 7.31871e-20)
(1.10427 0.464777 9.00629e-20)
(1.1006 0.44937 -5.34058e-20)
(1.09751 0.435009 5.86886e-20)
(1.09513 0.421658 -7.62695e-20)
(1.09349 0.409451 1.9726e-19)
(1.09254 0.398622 -1.16475e-19)
(1.09275 0.388115 8.30275e-20)
(0.222626 0.123244 -2.09021e-19)
(0.555668 0.318955 -3.89775e-19)
(0.789262 0.46189 -2.6884e-19)
(0.940445 0.550357 -1.81753e-20)
(1.02916 0.59457 6.30753e-20)
(1.07541 0.607945 -3.47047e-20)
(1.09579 0.602409 -2.22953e-19)
(1.10202 0.586774 -9.49183e-20)
(1.10141 0.566703 -1.6907e-19)
(1.09802 0.545406 -7.60247e-20)
(1.09389 0.524491 3.88643e-20)
(1.08987 0.504642 -1.83502e-19)
(1.08625 0.486072 -3.82381e-20)
(1.08308 0.468784 -3.53589e-20)
(1.08035 0.452706 -1.16219e-19)
(1.07812 0.437755 5.09001e-20)
(1.0765 0.423888 5.50429e-21)
(1.07557 0.411234 4.1385e-20)
(1.07531 0.400022 -1.76103e-20)
(1.07624 0.389243 -4.84028e-20)
(0.225271 0.135652 4.82994e-19)
(0.555186 0.344158 4.20442e-19)
(0.781794 0.490096 5.14608e-19)
(0.925395 0.576277 -5.36452e-20)
(1.0079 0.616168 -1.79316e-19)
(1.05006 0.625048 5.37725e-19)
(1.06834 0.615684 -2.59156e-19)
(1.07397 0.597088 2.81904e-19)
(1.07372 0.574808 -4.94142e-20)
(1.07123 0.551857 1.65051e-19)
(1.06824 0.529665 1.91825e-20)
(1.06544 0.508792 6.7846e-20)
(1.06303 0.489374 -1.44292e-20)
(1.06102 0.471365 6.10248e-20)
(1.05936 0.454663 -3.76571e-20)
(1.05808 0.439162 9.01255e-21)
(1.05732 0.424805 1.98767e-20)
(1.05716 0.411718 2.49805e-20)
(1.05766 0.400124 1.603e-21)
(1.05936 0.389126 2.11468e-21)
(0.226086 0.147642 -1.47471e-19)
(0.550733 0.367809 -4.09804e-19)
(0.769599 0.515854 -2.48479e-19)
(0.905771 0.599302 -4.29673e-19)
(0.982677 0.634808 4.53728e-19)
(1.02148 0.639362 -3.07562e-19)
(1.03832 0.626432 1.90337e-19)
(1.04387 0.605135 -6.93444e-20)
(1.04436 0.580865 -7.35982e-20)
(1.04302 0.556425 -5.03336e-20)
(1.04136 0.533076 2.69503e-20)
(1.03993 0.511265 2.29276e-20)
(1.03887 0.491062 7.13175e-21)
(1.03815 0.472382 -2.26179e-20)
(1.03768 0.455099 2.0146e-22)
(1.03748 0.439085 3.19235e-21)
(1.03766 0.424268 -1.6648e-20)
(1.03834 0.410754 2.52647e-20)
(1.03966 0.398787 9.17488e-21)
(1.04215 0.387647 2.52224e-20)
(0.225075 0.159007 6.39172e-19)
(0.542464 0.389541 2.97277e-19)
(0.752985 0.538811 2.78385e-19)
(0.881968 0.619155 -1.61192e-19)
(0.953897 0.650288 1.76206e-20)
(0.990026 0.650736 2.22099e-19)
(1.00603 0.634527 2.49487e-20)
(1.01196 0.610801 4.32714e-20)
(1.01351 0.58476 4.24811e-20)
(1.01355 0.558997 -7.79841e-21)
(1.01337 0.534609 5.50452e-21)
(1.01343 0.511943 -1.17063e-20)
(1.01382 0.491013 -1.45975e-20)
(1.0145 0.471706 1.48325e-20)
(1.01536 0.453874 5.25102e-21)
(1.01637 0.437375 4.62821e-21)
(1.0176 0.422117 -8.66745e-21)
(1.01921 0.408178 -1.85512e-21)
(1.02139 0.395841 4.6493e-20)
(1.02473 0.384654 -4.54185e-20)
(0.222277 0.169551 -4.49327e-19)
(0.530585 0.40902 -3.86099e-19)
(0.732302 0.558655 1.78691e-19)
(0.854402 0.635597 -2.13664e-19)
(0.921974 0.662434 -1.76922e-20)
(0.956078 0.659038 1.58452e-20)
(0.971786 0.63986 -2.90351e-20)
(0.978482 0.613985 -3.02092e-20)
(0.98135 0.586398 -3.22105e-20)
(0.982939 0.559479 -2.28218e-20)
(0.984353 0.534172 -3.03273e-20)
(0.985988 0.510734 4.04149e-20)
(0.987924 0.489133 -4.1595e-21)
(0.990099 0.469231 1.14097e-20)
(0.99241 0.450869 4.2255e-21)
(0.994773 0.433898 -6.78013e-20)
(0.997199 0.418203 -5.76091e-20)
(0.999844 0.403806 -6.17227e-20)
(1.00303 0.391018 -1.4522e-21)
(1.00747 0.379792 9.47979e-20)
(0.21776 0.179088 4.03758e-19)
(0.515353 0.425943 2.02674e-20)
(0.707938 0.575116 -4.29606e-20)
(0.823511 0.648427 4.87048e-20)
(0.887327 0.671104 1.26073e-19)
(0.919999 0.664163 -9.98886e-20)
(0.935877 0.642343 1.06665e-20)
(0.943671 0.614608 -2.94955e-20)
(0.948073 0.585705 -2.39436e-20)
(0.951339 0.557801 3.64039e-21)
(0.954426 0.531697 -5.48814e-20)
(0.957683 0.507569 -4.54735e-20)
(0.961194 0.485342 5.06112e-20)
(0.964927 0.464863 -1.80412e-20)
(0.968795 0.445971 -1.95963e-19)
(0.972678 0.428524 1.93082e-19)
(0.976496 0.412385 -1.14201e-19)
(0.980411 0.397448 -7.20387e-20)
(0.984985 0.383945 9.22843e-20)
(0.99099 0.372447 -1.13557e-19)
(0.211624 0.187449 -8.63642e-20)
(0.497067 0.440047 9.39586e-20)
(0.680308 0.587965 4.33515e-20)
(0.789746 0.65748 -6.3465e-20)
(0.850382 0.676185 1.80333e-20)
(0.882156 0.666029 -3.27088e-20)
(0.89861 0.64191 -1.54901e-20)
(0.907772 0.612613 2.03328e-20)
(0.913873 0.582631 6.90186e-22)
(0.9189 0.553923 -1.16363e-19)
(0.923693 0.527154 3.13393e-20)
(0.928565 0.502417 1.0486e-20)
(0.933621 0.479595 1.38442e-19)
(0.938883 0.458514 -3.49998e-19)
(0.944319 0.439014 3.26009e-19)
(0.94981 0.420981 1.72775e-19)
(0.955223 0.404275 -3.38839e-20)
(0.960797 0.388584 2.85143e-20)
(0.967382 0.373921 3.10488e-19)
(0.975263 0.361807 -1.29648e-19)
(0.203993 0.194482 -2.34686e-20)
(0.476058 0.451109 5.43335e-20)
(0.649854 0.597019 -4.55583e-20)
(0.753565 0.662631 5.8616e-20)
(0.811563 0.677594 -3.91609e-20)
(0.842917 0.664577 3.93625e-20)
(0.860294 0.638518 2.98345e-20)
(0.871045 0.607969 -7.99761e-20)
(0.878964 0.577162 7.99473e-20)
(0.885804 0.547855 5.53219e-20)
(0.892294 0.520581 2.71853e-20)
(0.898717 0.495352 4.81708e-21)
(0.905193 0.471992 1.0997e-19)
(0.911797 0.450277 -1.10413e-19)
(0.918564 0.430004 1.31945e-19)
(0.925426 0.411046 -2.76857e-19)
(0.932298 0.393214 3.09017e-19)
(0.939607 0.375899 -2.65292e-19)
(0.9483 0.358855 -1.80185e-19)
(0.957288 0.345457 3.06527e-19)
(0.195017 0.200058 1.17791e-20)
(0.452686 0.458946 -2.31859e-20)
(0.617029 0.602136 -1.5059e-20)
(0.715435 0.663787 -5.24795e-20)
(0.771297 0.675276 1.70561e-20)
(0.802654 0.659771 4.56098e-21)
(0.821248 0.632139 -1.76241e-19)
(0.833765 0.60066 1.17526e-19)
(0.843595 0.569301 1.1625e-19)
(0.852277 0.539632 -1.61616e-19)
(0.860444 0.512074 1.88219e-19)
(0.868342 0.486569 -7.22862e-20)
(0.876077 0.462886 1.40958e-19)
(0.883725 0.440739 -2.25481e-19)
(0.891334 0.419846 4.68935e-19)
(0.898867 0.39996 -1.06481e-19)
(0.906347 0.380685 -2.94492e-20)
(0.914429 0.360805 3.07642e-19)
(0.92389 0.338432 -1.4993e-19)
(0.9299 0.316 6.53746e-20)
(0.184861 0.204069 -7.05047e-20)
(0.427331 0.463421 9.62135e-20)
(0.5823 0.603214 -3.37953e-20)
(0.675822 0.660892 5.44286e-20)
(0.730011 0.669199 -2.63711e-20)
(0.761738 0.651593 -1.71904e-19)
(0.781794 0.622761 2.64165e-19)
(0.796221 0.590677 1.78433e-20)
(0.808035 0.559045 -2.80981e-20)
(0.818591 0.529268 4.86676e-21)
(0.828442 0.501674 8.5219e-20)
(0.837798 0.476165 1.46678e-19)
(0.846743 0.452502 8.83987e-20)
(0.855311 0.430415 -2.09805e-19)
(0.86349 0.409656 -5.96428e-20)
(0.871218 0.390038 -1.12514e-20)
(0.878589 0.371302 3.8894e-20)
(0.886179 0.352778 4.99079e-21)
(0.893956 0.333771 4.48185e-19)
(0.897379 0.316354 -3.13061e-19)
(0.173703 0.206426 1.77004e-19)
(0.400381 0.464429 -3.15474e-20)
(0.546134 0.600192 -1.18628e-19)
(0.635189 0.653921 3.93757e-19)
(0.688124 0.659358 7.31173e-20)
(0.720538 0.640043 -2.32033e-19)
(0.742257 0.610383 2.16328e-19)
(0.758704 0.578016 -4.82234e-20)
(0.772559 0.546389 1.91355e-19)
(0.785017 0.516747 8.68318e-20)
(0.796573 0.489339 -4.22963e-19)
(0.807425 0.464036 -4.94126e-20)
(0.817658 0.44059 5.88043e-19)
(0.827307 0.418736 -7.19674e-19)
(0.836351 0.398238 6.65774e-19)
(0.844722 0.378903 2.30369e-19)
(0.852478 0.360461 -8.20507e-19)
(0.860011 0.342352 3.95887e-19)
(0.867154 0.324273 -8.17685e-20)
(0.870494 0.308549 9.51609e-20)
(0.161734 0.207065 -3.11665e-19)
(0.372235 0.46191 -3.20685e-19)
(0.508997 0.593047 2.19341e-19)
(0.593993 0.64288 -2.73271e-19)
(0.646049 0.645774 -7.43284e-19)
(0.679415 0.625141 -2.33666e-20)
(0.702955 0.595019 -2.2012e-19)
(0.721505 0.562686 1.1978e-20)
(0.737438 0.531338 -4.29544e-19)
(0.751813 0.502076 -4.37129e-19)
(0.765078 0.475088 -2.9635e-19)
(0.777427 0.450221 -1.21691e-20)
(0.788952 0.42723 -7.35495e-19)
(0.7997 0.405869 -5.01792e-21)
(0.809676 0.385929 3.58455e-19)
(0.818845 0.367253 -3.56784e-19)
(0.82728 0.349627 -2.74595e-19)
(0.835299 0.33263 2.64324e-19)
(0.842731 0.316079 -1.89827e-19)
(0.846776 0.301821 3.66236e-20)
(0.149151 0.205946 2.46392e-19)
(0.343295 0.45584 1.91519e-19)
(0.471351 0.581792 -6.52072e-21)
(0.552679 0.627806 -1.53597e-19)
(0.604186 0.628488 3.79401e-19)
(0.638723 0.606924 6.06157e-19)
(0.664203 0.576696 -6.25133e-20)
(0.68491 0.544703 1.21403e-20)
(0.702942 0.513895 1.19308e-19)
(0.719246 0.485243 2.69255e-19)
(0.734238 0.458881 3.89637e-19)
(0.748114 0.434642 -3.1458e-19)
(0.760981 0.412285 3.11845e-19)
(0.772904 0.391574 -1.06354e-19)
(0.783907 0.372316 3.62918e-19)
(0.793987 0.35436 -1.41108e-19)
(0.803244 0.33752 -3.49836e-19)
(0.812 0.321462 2.11171e-19)
(0.820109 0.306118 -3.00474e-19)
(0.82513 0.293043 -3.42054e-19)
(0.136156 0.203049 1.06721e-19)
(0.313955 0.446235 1.95783e-19)
(0.433645 0.56648 -2.06333e-19)
(0.51168 0.608768 1.01796e-20)
(0.562923 0.60757 3.54343e-20)
(0.598802 0.585451 2.85072e-19)
(0.626302 0.555461 -4.22362e-19)
(0.649192 0.5241 4.01808e-19)
(0.669322 0.494079 -3.82095e-20)
(0.687547 0.466254 1.10109e-19)
(0.704265 0.440711 1.76984e-19)
(0.719679 0.417274 -3.3733e-19)
(0.733918 0.395708 1.62251e-19)
(0.747069 0.375791 1.53974e-19)
(0.759183 0.357342 5.67473e-20)
(0.770286 0.34022 -2.9121e-19)
(0.780506 0.32425 9.8107e-19)
(0.790158 0.309149 -5.48737e-19)
(0.799095 0.294881 9.98235e-19)
(0.805148 0.282734 -6.46919e-20)
(0.122947 0.198375 7.65168e-20)
(0.284602 0.433142 4.59838e-19)
(0.396314 0.547193 1.62601e-19)
(0.471411 0.585862 3.41249e-19)
(0.522632 0.583112 8.8467e-20)
(0.559978 0.560802 -5.441e-19)
(0.589543 0.531377 8.43414e-19)
(0.614611 0.500925 4.36531e-19)
(0.636819 0.471926 1.82355e-20)
(0.656944 0.445128 5.65946e-19)
(0.67537 0.42058 9.10052e-20)
(0.692317 0.398099 5.93762e-20)
(0.707934 0.377458 3.3886e-19)
(0.722333 0.358444 -1.26511e-19)
(0.73559 0.340885 -1.33997e-19)
(0.747761 0.324644 7.90323e-19)
(0.758998 0.309558 -6.61036e-19)
(0.769608 0.295379 2.56256e-20)
(0.779433 0.282091 8.36791e-19)
(0.786546 0.270749 -7.81882e-22)
(0.109724 0.191949 -9.8427e-19)
(0.255614 0.416645 -1.6778e-19)
(0.359775 0.52405 -2.25816e-19)
(0.432266 0.559216 -1.7211e-19)
(0.483665 0.555232 -4.35574e-19)
(0.522562 0.533078 1.49155e-19)
(0.554198 0.504529 -2.08507e-19)
(0.581416 0.475247 5.96707e-20)
(0.605658 0.447488 -3.01783e-19)
(0.627639 0.421905 -2.8642e-19)
(0.647741 0.398513 5.88938e-20)
(0.666198 0.377129 -4.63194e-19)
(0.683182 0.357531 3.69479e-19)
(0.698828 0.339519 -1.33493e-19)
(0.713235 0.322927 4.19594e-19)
(0.726487 0.307622 -9.05313e-19)
(0.738753 0.293448 -1.71761e-19)
(0.750323 0.280186 -3.25021e-19)
(0.761039 0.267823 -8.74007e-19)
(0.769201 0.257216 -1.40853e-19)
(0.0966787 0.183811 1.60763e-19)
(0.227349 0.396858 -1.94158e-20)
(0.324424 0.4972 -2.46907e-19)
(0.394621 0.528982 8.71356e-20)
(0.446354 0.524071 -1.76216e-19)
(0.486846 0.502404 -2.36637e-21)
(0.520528 0.475021 2.40398e-19)
(0.549837 0.447152 -3.58611e-19)
(0.576048 0.420838 1.40232e-19)
(0.599826 0.396642 -8.10479e-20)
(0.62155 0.374556 2.18117e-20)
(0.641473 0.354396 -4.01767e-19)
(0.659789 0.33595 -4.893e-19)
(0.676656 0.319027 -1.85129e-20)
(0.692194 0.303469 5.45667e-19)
(0.70651 0.289147 2.56811e-20)
(0.719782 0.275913 6.91467e-19)
(0.732287 0.263575 -1.00777e-18)
(0.743871 0.252117 5.36631e-19)
(0.753056 0.24222 9.24664e-19)
(0.083997 0.174024 -1.39433e-19)
(0.20015 0.373926 7.49116e-20)
(0.290637 0.466821 4.87268e-19)
(0.358826 0.49534 1.20227e-19)
(0.411014 0.489795 -1.62349e-19)
(0.453104 0.468924 1.28044e-19)
(0.488775 0.442979 5.04415e-19)
(0.520093 0.416751 -4.09159e-19)
(0.548187 0.39207 3.80692e-20)
(0.57368 0.369422 -1.49504e-19)
(0.596955 0.348778 5.41039e-19)
(0.618284 0.329959 3.86766e-19)
(0.63788 0.312764 -5.60383e-20)
(0.655922 0.297012 -5.88081e-19)
(0.672549 0.282553 3.09939e-20)
(0.687888 0.269263 -7.2731e-20)
(0.702125 0.257005 3.46189e-19)
(0.715518 0.245608 5.6378e-19)
(0.727929 0.23505 4.92999e-19)
(0.738097 0.225864 -8.23485e-19)
(0.0718554 0.162665 -8.70592e-20)
(0.174339 0.348021 3.71717e-19)
(0.258761 0.43312 -3.6273e-19)
(0.325209 0.458497 5.04059e-19)
(0.377932 0.452593 -2.74456e-19)
(0.421591 0.432805 1.9655e-19)
(0.459163 0.408549 4.99989e-19)
(0.492385 0.38417 -6.01257e-19)
(0.522255 0.361298 2.74036e-19)
(0.549365 0.340345 3.47272e-19)
(0.574104 0.32127 -4.72394e-19)
(0.59676 0.3039 -3.38105e-20)
(0.617567 0.288047 -3.7987e-19)
(0.63672 0.273541 6.09066e-19)
(0.654379 0.260243 -3.3077e-19)
(0.670684 0.248034 3.55414e-19)
(0.685827 0.23679 -6.45295e-20)
(0.70005 0.226359 2.19898e-19)
(0.713237 0.216712 5.01206e-20)
(0.724338 0.208254 -1.28565e-19)
(0.0604202 0.149832 -2.66465e-19)
(0.150214 0.319343 -6.13878e-19)
(0.229119 0.396331 1.61591e-19)
(0.294069 0.418682 -5.18396e-19)
(0.347376 0.412675 -4.91071e-19)
(0.392541 0.394234 -3.53112e-19)
(0.431901 0.371898 2.75349e-19)
(0.466898 0.349559 2.11905e-19)
(0.49842 0.328653 -1.54811e-21)
(0.527032 0.309531 -1.85051e-19)
(0.553131 0.29214 -3.33829e-19)
(0.577021 0.276318 3.01381e-19)
(0.598955 0.261892 -1.03754e-19)
(0.619143 0.248704 -5.14347e-19)
(0.637761 0.236626 3.35304e-19)
(0.654963 0.225548 -2.51911e-19)
(0.670943 0.215356 -1.02792e-19)
(0.685928 0.20592 -2.8777e-19)
(0.699834 0.197201 -2.61026e-19)
(0.711807 0.1895 6.74916e-20)
(0.0498449 0.135633 2.32807e-19)
(0.12805 0.288115 1.20761e-19)
(0.202006 0.35671 1.8473e-19)
(0.265682 0.376145 -6.29906e-19)
(0.319589 0.37027 6.74963e-19)
(0.366167 0.353416 3.26204e-21)
(0.407178 0.333207 5.54058e-21)
(0.443802 0.31308 -4.12168e-19)
(0.476834 0.294286 3.85093e-19)
(0.506819 0.277117 -2.67919e-19)
(0.53416 0.261515 8.11108e-20)
(0.559179 0.247332 -3.60129e-19)
(0.582143 0.234409 -1.71539e-19)
(0.603277 0.222605 -8.20908e-20)
(0.62277 0.211803 6.18365e-19)
(0.640791 0.201902 -3.03706e-19)
(0.657531 0.192802 -2.7431e-19)
(0.673204 0.18439 2.82615e-19)
(0.687763 0.176622 -2.32166e-19)
(0.70054 0.169711 1.80988e-19)
(0.0402698 0.120196 4.93953e-19)
(0.108095 0.254583 -2.98307e-19)
(0.177687 0.314537 4.47339e-20)
(0.240292 0.331159 5.23254e-19)
(0.294788 0.325625 2.07696e-19)
(0.34266 0.310574 2.5792e-19)
(0.385162 0.292677 2.5689e-19)
(0.423249 0.274917 5.45353e-19)
(0.457635 0.258362 -1.25127e-19)
(0.488849 0.243254 2.98842e-19)
(0.517304 0.229536 4.34754e-19)
(0.543334 0.217073 1.60322e-19)
(0.56722 0.205724 2.90658e-19)
(0.589202 0.195364 1.05593e-19)
(0.609479 0.185889 6.22769e-20)
(0.62823 0.177209 -4.50799e-20)
(0.645647 0.169238 3.61947e-19)
(0.661931 0.16188 2.23464e-19)
(0.677073 0.155086 -2.03044e-19)
(0.690575 0.149003 1.91582e-19)
(0.0318203 0.103656 -3.27848e-19)
(0.09057 0.219011 3.70788e-20)
(0.156397 0.270111 -9.48153e-20)
(0.218118 0.284013 -2.8803e-19)
(0.273166 0.279007 -1.52858e-19)
(0.32219 0.265946 -2.77777e-19)
(0.366006 0.250523 1.29043e-19)
(0.405374 0.235263 -5.0011e-19)
(0.440944 0.221061 2.95477e-19)
(0.473234 0.20811 -4.09069e-19)
(0.502663 0.196358 -2.5432e-19)
(0.529576 0.185686 -3.36928e-19)
(0.554269 0.175973 7.72196e-20)
(0.576991 0.167111 -7.62481e-20)
(0.597953 0.159009 9.14317e-20)
(0.617341 0.151591 4.9287e-20)
(0.635345 0.144783 9.79901e-20)
(0.652159 0.138506 -8.19341e-19)
(0.667811 0.13271 4.0799e-19)
(0.68195 0.12749 -2.44628e-19)
(0.0246063 0.0861652 1.08259e-19)
(0.0756658 0.181684 2.18745e-19)
(0.138338 0.223749 -1.42817e-19)
(0.199347 0.235011 3.5273e-19)
(0.254889 0.230693 -5.68026e-20)
(0.304904 0.219783 4.08955e-19)
(0.349838 0.206973 7.90445e-20)
(0.390295 0.194327 -8.32171e-20)
(0.426869 0.182573 3.02841e-19)
(0.46007 0.171862 2.31875e-19)
(0.490323 0.162146 8.60821e-20)
(0.517985 0.153327 1.13322e-19)
(0.543361 0.145303 5.69067e-20)
(0.566709 0.137986 -2.41685e-19)
(0.588251 0.131298 -3.37562e-20)
(0.608177 0.125177 2.52912e-19)
(0.626677 0.119563 -1.72894e-19)
(0.643936 0.11439 -7.91927e-21)
(0.660019 0.109615 -3.6291e-19)
(0.674702 0.105292 7.31404e-19)
(0.0187205 0.0678812 2.9015e-19)
(0.0635443 0.142899 -3.48722e-19)
(0.123681 0.175782 1.63557e-19)
(0.184137 0.184473 -2.31703e-19)
(0.240096 0.180975 2.04374e-19)
(0.290923 0.172349 -3.55264e-19)
(0.336769 0.162264 -2.60438e-19)
(0.378109 0.152328 1.95317e-20)
(0.415497 0.1431 -3.55655e-19)
(0.449437 0.134696 -2.22215e-19)
(0.480358 0.127076 -3.85297e-19)
(0.508627 0.12016 -1.30659e-20)
(0.534557 0.113871 -1.49972e-19)
(0.558413 0.108136 3.79648e-19)
(0.580423 0.102897 2.62066e-19)
(0.600785 0.0981031 -8.7934e-20)
(0.619685 0.0937076 -7.95615e-20)
(0.637303 0.0896613 -3.52903e-21)
(0.653735 0.0859249 9.81314e-21)
(0.668862 0.0825292 1.44383e-19)
(0.0142382 0.0489719 -7.25618e-20)
(0.0543356 0.102968 -2.48496e-19)
(0.112565 0.126554 -1.55055e-19)
(0.172615 0.132727 -9.70972e-20)
(0.228899 0.130154 -2.0141e-19)
(0.280347 0.123916 3.45512e-19)
(0.326886 0.116645 -3.69161e-20)
(0.368896 0.109492 -8.32881e-20)
(0.406902 0.102853 3.40065e-21)
(0.4414 0.0968089 2.45367e-19)
(0.472828 0.0913299 -2.33329e-19)
(0.501557 0.0863588 2.28482e-19)
(0.527906 0.0818384 1.07419e-19)
(0.552147 0.0777179 -1.95981e-19)
(0.574512 0.073954 4.28697e-20)
(0.595204 0.0705103 1.26358e-19)
(0.614406 0.067354 4.41363e-20)
(0.632295 0.0644501 -3.04728e-20)
(0.648991 0.0617683 -2.66499e-19)
(0.664457 0.0593236 2.12292e-19)
(0.0112165 0.0296113 6.54373e-20)
(0.0481382 0.0622101 7.94979e-20)
(0.105092 0.0764177 2.23665e-20)
(0.164875 0.0801135 -1.6877e-20)
(0.221383 0.0785393 4.80249e-20)
(0.27325 0.0747632 7.35552e-20)
(0.320255 0.070371 2.78995e-20)
(0.362716 0.0660532 3.40654e-20)
(0.401136 0.0620477 -7.27233e-20)
(0.436011 0.0584018 1.36258e-19)
(0.467779 0.0550972 -3.22394e-20)
(0.496817 0.0520993 -2.62745e-21)
(0.523447 0.0493735 3.2815e-20)
(0.547946 0.046889 3.70241e-20)
(0.57055 0.0446197 -9.97133e-20)
(0.591462 0.0425437 6.55278e-20)
(0.610867 0.0406414 4.30493e-20)
(0.628937 0.0388917 3.67939e-20)
(0.645812 0.0372758 7.90559e-20)
(0.661505 0.0357998 3.27703e-20)
(0.00969368 0.00997804 -1.34005e-20)
(0.0450181 0.0209537 2.78567e-20)
(0.101332 0.0257339 -3.90055e-20)
(0.160983 0.026976 2.45221e-20)
(0.217603 0.0264462 1.44241e-20)
(0.269682 0.025177 6.47655e-21)
(0.316922 0.0237014 1.52817e-20)
(0.35961 0.0222511 -4.38446e-20)
(0.398238 0.0209057 2.79785e-20)
(0.433301 0.0196809 9.77549e-21)
(0.46524 0.0185707 -5.97499e-22)
(0.494433 0.0175634 6.03599e-20)
(0.521205 0.0166473 -1.8302e-20)
(0.545834 0.0158123 -1.75628e-20)
(0.568557 0.0150495 -1.69189e-20)
(0.589581 0.0143516 2.62065e-21)
(0.609087 0.013712 -2.26831e-20)
(0.627248 0.0131238 4.31925e-21)
(0.644213 0.0125803 8.54408e-22)
(0.660021 0.0120834 -2.8835e-21)
(0.00968902 -0.00974642 8.51283e-21)
(0.0450083 -0.0204694 -4.53137e-20)
(0.101319 -0.025133 5.40529e-20)
(0.160969 -0.0263365 -4.06429e-20)
(0.217589 -0.0258068 -1.90008e-20)
(0.269668 -0.0245541 5.68981e-20)
(0.316908 -0.0231004 4.75245e-21)
(0.359596 -0.0216727 1.33806e-21)
(0.398225 -0.0203491 2.66988e-20)
(0.433288 -0.019145 1.38284e-20)
(0.465227 -0.0180542 -1.08991e-20)
(0.494421 -0.0170651 -3.83569e-20)
(0.521193 -0.0161663 3.61526e-21)
(0.545821 -0.0153474 -3.37442e-21)
(0.568545 -0.0145998 3.58845e-20)
(0.589569 -0.0139162 -2.16165e-20)
(0.609076 -0.0132901 2.97007e-20)
(0.627237 -0.0127146 -4.45381e-20)
(0.644202 -0.0121832 5.20823e-23)
(0.660011 -0.0116977 -9.39538e-21)
(0.0112025 -0.0293798 -2.82809e-20)
(0.0481089 -0.0617261 1.42723e-19)
(0.105055 -0.0758171 9.62474e-20)
(0.164835 -0.0794743 6.37459e-20)
(0.221341 -0.0779004 7.96745e-20)
(0.273208 -0.0741408 -1.92912e-20)
(0.320214 -0.0697705 8.84441e-20)
(0.362676 -0.0654754 1.8166e-20)
(0.401096 -0.0614918 -7.8558e-21)
(0.435972 -0.0578666 -6.32472e-20)
(0.46774 -0.0545814 6.57259e-20)
(0.496779 -0.0516018 -8.93475e-20)
(0.52341 -0.0488931 6.50017e-20)
(0.54791 -0.0464248 7.45637e-20)
(0.570514 -0.0441707 9.87903e-20)
(0.591427 -0.0421091 -6.48477e-20)
(0.610833 -0.0402203 1.84113e-20)
(0.628904 -0.0384834 6.87726e-20)
(0.645779 -0.0368795 -6.50394e-20)
(0.661473 -0.0354149 4.90835e-20)
(0.0142148 -0.0487406 -2.73488e-19)
(0.0542866 -0.102484 -1.37457e-19)
(0.112503 -0.125954 -1.52925e-19)
(0.172547 -0.132089 -1.20717e-20)
(0.228829 -0.129516 -8.25622e-20)
(0.280277 -0.123294 -1.01285e-19)
(0.326817 -0.116046 1.79161e-19)
(0.368829 -0.108915 9.14176e-20)
(0.406835 -0.102298 1.1284e-19)
(0.441335 -0.096275 -1.22535e-19)
(0.472764 -0.0908155 9.09057e-20)
(0.501495 -0.0858627 1.11134e-19)
(0.527845 -0.0813595 3.92172e-20)
(0.552086 -0.0772552 -3.72726e-20)
(0.574453 -0.0735065 8.09129e-21)
(0.595146 -0.0700772 -1.60504e-20)
(0.614349 -0.0669345 -1.58055e-19)
(0.632239 -0.0640433 2.44223e-20)
(0.648936 -0.0613736 1.53834e-19)
(0.664403 -0.0589404 -2.06706e-19)
(0.0186877 -0.0676502 -9.00917e-20)
(0.0634756 -0.142416 1.33386e-19)
(0.123594 -0.175183 3.09173e-20)
(0.184042 -0.183836 -5.77611e-20)
(0.239998 -0.180338 -1.63412e-19)
(0.290825 -0.17173 -3.50406e-19)
(0.336672 -0.161667 -3.33814e-19)
(0.378014 -0.151753 -2.41292e-20)
(0.415404 -0.142548 -1.94542e-19)
(0.449345 -0.134164 -2.91197e-19)
(0.480268 -0.126563 2.26091e-19)
(0.508539 -0.119667 -3.33491e-19)
(0.534471 -0.113394 6.66073e-20)
(0.558328 -0.107676 -2.11639e-20)
(0.58034 -0.102452 -7.01932e-20)
(0.600704 -0.0976724 -8.88738e-20)
(0.619605 -0.0932904 1.44048e-19)
(0.637225 -0.089257 1.15286e-19)
(0.653658 -0.0855328 1.98345e-19)
(0.668787 -0.0821485 -2.96838e-19)
(0.0245641 -0.0859347 4.88482e-20)
(0.0755773 -0.181202 4.74955e-19)
(0.138225 -0.223151 1.36105e-19)
(0.199224 -0.234376 3.29186e-19)
(0.254763 -0.230059 -1.23075e-19)
(0.304778 -0.219166 1.89571e-19)
(0.349714 -0.206378 -5.97664e-20)
(0.390173 -0.193755 3.85029e-19)
(0.426749 -0.182023 -1.9827e-19)
(0.459952 -0.171333 2.33789e-19)
(0.490207 -0.161637 2.03125e-19)
(0.517872 -0.152836 2.17573e-19)
(0.54325 -0.144829 -1.94771e-19)
(0.566601 -0.137528 1.67416e-19)
(0.588144 -0.130856 -2.32746e-19)
(0.608073 -0.12475 -6.41087e-20)
(0.626575 -0.119149 -1.53724e-19)
(0.643835 -0.113989 -6.53398e-20)
(0.659919 -0.109226 2.59144e-19)
(0.674606 -0.104915 -4.29185e-19)
(0.0317686 -0.103427 -1.96752e-19)
(0.0904615 -0.21853 -2.27651e-20)
(0.156258 -0.269515 -7.84609e-20)
(0.217967 -0.283379 -2.75812e-19)
(0.273012 -0.278375 4.68218e-20)
(0.322036 -0.265332 -4.32372e-19)
(0.365854 -0.249931 -1.82028e-19)
(0.405225 -0.234695 -1.41168e-20)
(0.440798 -0.220514 -4.58258e-19)
(0.47309 -0.207585 -1.42512e-19)