/*--------------------------------*- C++ -*----------------------------------*\
  =========                 |
  \\      /  F ield         | OpenFOAM: The Open Source CFD Toolbox
   \\    /   O peration     | Website:  https://openfoam.org
    \\  /    A nd           | Version:  6.0
     \\/     M anipulation  |
\*---------------------------------------------------------------------------*/
FoamFile
{
    version     2.0;
    format      ascii;
    class       surfaceScalarField;
    location    "115";
    object      phi;
}
// * * * * * * * * * * * * * * * * * * * * * * * * * * * * * * * * * * * * * //

dimensions      [0 3 -1 0 0 0 0];

internalField   nonuniform List<scalar> 
24700
(
1.83816e-06
0.000101728
-0.000103566
5.03551e-06
0.000267052
-0.00027025
8.09372e-06
0.000399771
-0.000402829
1.01624e-05
0.000503624
-0.000505693
1.09088e-05
0.000582481
-0.000583227
1.03896e-05
0.000640347
-0.000639828
8.92324e-06
0.000681094
-0.000679628
6.97582e-06
0.000708219
-0.000706271
5.07033e-06
0.000724698
-0.000722792
3.71942e-06
0.000732928
-0.000731577
3.381e-06
0.000734737
-0.000734399
4.4327e-06
0.000731448
-0.0007325
7.16101e-06
0.000723965
-0.000726693
1.17609e-05
0.000712873
-0.000717473
1.83428e-05
0.000698531
-0.000705113
2.69433e-05
0.000681151
-0.000689752
3.75395e-05
0.000660863
-0.00067146
5.0063e-05
0.000637767
-0.000650291
6.44142e-05
0.000611963
-0.000626314
8.0475e-05
0.00058357
-0.000599631
9.812e-05
0.000552728
-0.000570373
0.000117226
0.000519595
-0.000538701
0.00013768
0.000484321
-0.000504775
0.000159377
0.000447004
-0.000468702
0.000407582
-0.000430441
0.000182236
2.57181e-06
9.91558e-05
7.64327e-06
0.000261981
1.34414e-05
0.000393972
1.88692e-05
0.000498196
2.33773e-05
0.000577973
2.68414e-05
0.000636883
2.94366e-05
0.000678499
3.15226e-05
0.000706133
3.3549e-05
0.000722671
3.59829e-05
0.000730494
3.92595e-05
0.000731461
4.3752e-05
0.000726955
4.97568e-05
0.00071796
5.74904e-05
0.000705139
6.7094e-05
0.000688928
7.8643e-05
0.000669602
9.21589e-05
0.000647348
0.000107622
0.000622304
0.000124984
0.000594602
0.000144177
0.000564377
0.000165121
0.000531784
0.000187734
0.000496982
0.000211929
0.000460127
0.000237614
0.000421318
0.000380499
0.000264697
3.21306e-06
9.59428e-05
9.97384e-06
0.00025522
1.82987e-05
0.000385648
2.68861e-05
0.000489609
3.49949e-05
0.000569864
4.23311e-05
0.000629547
4.89294e-05
0.000671901
5.50409e-05
0.000700021
6.10371e-05
0.000716675
6.73349e-05
0.000724196
7.43432e-05
0.000724452
8.24275e-05
0.000718871
9.18923e-05
0.000708495
0.000102974
0.000694058
0.000115841
0.00067606
0.000130606
0.000654837
0.000147331
0.000630623
0.00016604
0.000603596
0.000186729
0.000573913
0.000209374
0.000541732
0.000233938
0.00050722
0.00026037
0.00047055
0.000288609
0.000431888
0.000318574
0.000391354
0.000348914
0.000350159
3.75744e-06
9.21853e-05
1.20065e-05
0.000246971
2.26176e-05
0.000375036
3.41306e-05
0.000478096
4.56416e-05
0.000558353
5.67033e-05
0.000618485
6.72163e-05
0.000661388
7.73229e-05
0.000689915
8.73133e-05
0.000706685
9.75497e-05
0.00071396
0.000108409
0.000713593
0.000120245
0.000707035
0.000133365
0.000695375
0.000148021
0.000679402
0.000164406
0.000659674
0.000182663
0.00063658
0.000202889
0.000610398
0.000225143
0.000581341
0.000249461
0.000549595
0.000275856
0.000515337
0.000304324
0.000478752
0.000334843
0.000440031
0.000367372
0.000399359
0.000401838
0.000356888
0.000312626
0.000438126
4.20209e-06
8.79832e-05
1.37248e-05
0.000237448
2.63571e-05
0.000362404
4.05279e-05
0.000463925
5.52036e-05
0.000543677
6.98038e-05
0.000603885
8.4105e-05
0.000647087
9.81434e-05
0.000675876
0.000112126
0.000692702
0.000126356
0.00069973
0.000141173
0.000698777
0.000156911
0.000691297
0.000173877
0.00067841
0.00019233
0.000660949
0.000212483
0.000639521
0.000234501
0.000614562
0.000258509
0.00058639
0.000284597
0.000555253
0.000312828
0.000521363
0.000343247
0.000484918
0.000375875
0.000446124
0.000410714
0.000405192
0.000447738
0.000362334
0.000486881
0.000317745
0.000271493
0.000528014
4.54519e-06
8.34381e-05
1.51158e-05
0.000226878
2.94815e-05
0.000348038
4.60089e-05
0.000447397
6.3571e-05
0.000526115
8.14774e-05
0.000585979
9.93942e-05
0.00062917
0.000117257
0.000658013
0.000135191
0.000674769
0.000153434
0.000681487
0.000172282
0.000679928
0.000192047
0.000671532
0.000213023
0.000657433
0.000235474
0.000638499
0.00025962
0.000615374
0.000285646
0.000588536
0.000313694
0.000558342
0.000343877
0.00052507
0.000376282
0.000488958
0.000410972
0.000450228
0.00044799
0.000409106
0.000487356
0.000365826
0.000529055
0.000320635
0.000573022
0.000273777
0.000225401
0.000619115
4.78577e-06
7.86523e-05
1.61693e-05
0.000215494
3.19602e-05
0.000332248
5.05112e-05
0.000428846
7.06386e-05
0.000505988
9.15693e-05
0.000565048
0.000112875
0.000607864
0.000134401
0.000636487
0.000156188
0.000652981
0.00017841
0.000659265
0.000201316
0.000657022
0.000225183
0.000647665
0.000250289
0.000632328
0.00027689
0.000611898
0.000305212
0.000587052
0.000335446
0.000558303
0.000367748
0.00052604
0.000402245
0.000490573
0.000439039
0.000452164
0.000478211
0.000411057
0.000519817
0.000367499
0.000563892
0.000321752
0.000610428
0.000274099
0.000659361
0.000224845
0.000174239
0.000710522
4.9238e-06
7.37285e-05
1.68786e-05
0.000203539
3.37686e-05
0.000315357
5.39794e-05
0.000408636
7.63089e-05
0.000483658
9.99293e-05
0.000541428
0.000124338
0.000583455
0.000149298
0.000611528
0.000174774
0.000627505
0.000200873
0.000633165
0.000227791
0.000630105
0.000255766
0.000619689
0.000285051
0.000603043
0.000315887
0.000581061
0.000348497
0.000554443
0.00038307
0.000523729
0.00041977
0.00048934
0.000458733
0.00045161
0.000500072
0.000410825
0.000543879
0.00036725
0.000590226
0.000321151
0.00063916
0.000272818
0.000690684
0.000222575
0.000744727
0.000170801
0.000117879
0.000801088
4.96003e-06
6.87685e-05
1.72399e-05
0.00019126
3.48887e-05
0.000297709
5.63687e-05
0.000387156
8.04964e-05
0.00045953
0.000106419
0.000515505
0.000133579
0.000556295
0.000161673
0.000583434
0.000190594
0.000598584
0.000220385
0.000603375
0.000251183
0.000599306
0.000283185
0.000587688
0.000316608
0.000569619
0.000351675
0.000545995
0.000388591
0.000517527
0.000427544
0.000484777
0.000468696
0.000448188
0.000512188
0.000408118
0.000558143
0.00036487
0.000606667
0.000318726
0.000657849
0.000269969
0.000711755
0.000218913
0.000768402
0.000165928
0.000827718
0.000111485
5.61501e-05
0.000889447
4.89611e-06
6.38723e-05
1.72536e-05
0.000178902
3.53113e-05
0.000279651
5.76483e-05
0.000364819
8.31348e-05
0.000434044
0.000110921
0.000487719
0.00014042
0.000526796
0.000171272
0.000552581
0.000203312
0.000566544
0.000236518
0.000570169
0.00027097
0.000564854
0.000306816
0.000551842
0.000344235
0.0005322
0.00038342
0.00050681
0.000424559
0.000476388
0.000467826
0.00044151
0.000513381
0.000402632
0.00056137
0.000360129
0.000611925
0.000314315
0.000665171
0.00026548
0.000721222
0.000213918
0.000780173
0.000159962
0.000842072
0.000104029
0.00090685
4.67072e-05
-1.11766e-05
0.000974177
4.73469e-06
5.91377e-05
1.69248e-05
0.000166712
3.50384e-05
0.000261537
5.78069e-05
0.00034205
8.4186e-05
0.000407665
0.000113358
0.000458547
0.000144724
0.000495429
0.000177893
0.000519413
0.000212643
0.000531793
0.000248897
0.000533915
0.00028668
0.000527071
0.000326086
0.000512436
0.000367256
0.000491031
0.000410345
0.00046372
0.00045552
0.000431214
0.00050294
0.00039409
0.000552761
0.000352811
0.000605133
0.000307757
0.000660204
0.000259244
0.000718124
0.00020756
0.000779045
0.000152997
0.000843107
9.58992e-05
0.000910404
3.67325e-05
0.000980883
-2.37724e-05
-8.44094e-05
0.00105412
4.47973e-06
5.46579e-05
1.62648e-05
0.000154927
3.40864e-05
0.000243716
5.68584e-05
0.000319278
8.36506e-05
0.000380873
0.000113701
0.000428497
0.000146426
0.000462705
0.000181411
0.000484428
0.000218397
0.000494806
0.000257258
0.000495055
0.000297965
0.000486364
0.000340566
0.000469835
0.000385154
0.000446442
0.000431854
0.00041702
0.000480806
0.000382262
0.000532156
0.000342739
0.000586058
0.000298909
0.000642671
0.000251144
0.000702164
0.000199751
0.000764724
0.000145
0.000830549
8.71714e-05
0.00089984
2.66081e-05
0.00097275
-3.61773e-05
0.00104926
-0.000100277
-0.000163957
0.0011288
4.13692e-06
5.0521e-05
1.52927e-05
0.000143771
3.24897e-05
0.000226519
5.48497e-05
0.000296918
8.15799e-05
0.000354142
0.000111998
0.000398079
0.00014555
0.000429152
0.000181823
0.000448156
0.000220532
0.000456097
0.000261511
0.000454076
0.000304689
0.000443187
0.000350067
0.000424457
0.000397703
0.000398807
0.000447689
0.000367033
0.000500146
0.000329806
0.000555212
0.000287673
0.000613044
0.000241078
0.000673817
0.000190371
0.00073773
0.000135837
0.000805011
7.77199e-05
0.000875911
1.62713e-05
0.000950693
-4.81737e-05
0.00102957
-0.000115056
0.00111255
-0.000183258
-0.000250336
0.00119893
3.7144e-06
4.68066e-05
1.40374e-05
0.000133448
3.03059e-05
0.00021025
5.18684e-05
0.000275356
7.80886e-05
0.000327922
0.000108382
0.000367785
0.000142248
0.000395287
0.000179286
0.000411117
0.000219205
0.000416178
0.000261814
0.000411467
0.000307009
0.000397992
0.000354761
0.000376704
0.000405099
0.000348469
0.000458095
0.000314037
0.00051386
0.00027404
0.000572535
0.000228998
0.000634289
0.000179323
0.000699323
0.000125337
0.000767868
6.72917e-05
0.000840191
5.39724e-06
0.000916587
-6.01247e-05
0.000997363
-0.00012895
0.00108277
-0.000200467
0.00117283
-0.000273314
-0.00034416
0.00126665
3.2235e-06
4.35831e-05
1.25406e-05
0.000124131
2.76198e-05
0.000195171
4.80504e-05
0.000254925
7.33672e-05
0.000302605
0.0001031
0.000338053
0.000136817
0.00036157
0.000174152
0.000373782
0.000214824
0.000375506
0.000258634
0.000367657
0.000305468
0.000351158
0.000355281
0.000326892
0.00040809
0.00029566
0.000463967
0.00025816
0.000523026
0.000214981
0.000585426
0.000166599
0.000651359
0.00011339
0.000721055
5.56421e-05
0.000794772
-6.42574e-06
0.0008728
-7.26304e-05
0.000955445
-0.00014277
0.00104301
-0.000216519
0.00113575
-0.000293198
0.0012336
-0.000371173
-0.000446072
0.00133552
2.67968e-06
4.09034e-05
1.08586e-05
0.000115952
2.45481e-05
0.000181481
4.35872e-05
0.000235886
6.76921e-05
0.000278501
9.65206e-05
0.000309224
0.000129726
0.000328364
0.000166998
0.00033651
0.000208084
0.00033442
0.000252805
0.000322936
0.000301053
0.000302909
0.000352795
0.000275151
0.000408059
0.000240396
0.000466934
0.000199285
0.000529562
0.000152353
0.000596128
0.000100033
0.000666854
4.2664e-05
0.000741991
-1.94946e-05
0.000821806
-8.62406e-05
0.000906571
-0.000157396
0.000996549
-0.000232748
0.00109197
-0.000311937
0.00119296
-0.000394191
0.00129937
-0.000477587
-0.000556624
0.00140993
2.10318e-06
3.88002e-05
9.06382e-06
0.000108991
2.12415e-05
0.000169304
3.87284e-05
0.000218399
6.14298e-05
0.000255799
8.91433e-05
0.000281511
0.000121625
0.000295883
0.000158639
0.000299496
0.000199988
0.000293071
0.000245535
0.000277389
0.00029521
0.000253233
0.000349016
0.000221346
0.000407017
0.000182394
0.000469343
0.000136959
0.000536173
8.55234e-05
0.000607724
2.84819e-05
0.000684239
-3.38513e-05
0.000765967
-0.000101223
0.000853141
-0.000173415
0.000945955
-0.00025021
0.00104455
-0.000331338
0.00114896
-0.000416354
0.00125913
-0.000504362
0.0013747
-0.000593154
-0.000676104
0.00149418
1.51925e-06
3.7281e-05
7.2453e-06
0.000103265
1.78837e-05
0.000158665
3.37796e-05
0.000202503
5.50322e-05
0.000234547
8.159e-05
0.000254953
0.000113329
0.000264144
0.000150108
0.000262717
0.000191813
0.000251367
0.000238376
0.000230826
0.000289793
0.000201816
0.000346125
0.000165013
0.000407498
0.000121022
0.000474089
7.03677e-05
0.000546116
1.34956e-05
0.000623819
-4.92204e-05
0.000707429
-0.000117461
0.000797145
-0.000190939
0.000893102
-0.000269371
0.000995334
-0.000352443
0.00110376
-0.000439761
0.00121815
-0.000530743
0.00133812
-0.000624338
0.00146305
-0.000718083
-0.000804332
0.00159128
9.57558e-07
3.63234e-05
5.50552e-06
9.87175e-05
1.46854e-05
0.000149486
2.90913e-05
0.000188097
4.90192e-05
0.000214619
7.45792e-05
0.000229393
0.000105783
0.00023294
0.000142609
0.000225891
0.000185046
0.000208929
0.000233124
0.000182748
0.000286926
0.000148015
0.00034659
0.000105349
0.000412307
5.53055e-05
0.0004843
-1.62526e-06
0.000562806
-6.50104e-05
0.000648045
-0.000134459
0.000740184
-0.000209601
0.000839303
-0.000290058
0.000945353
-0.00037542
0.00105812
-0.000465213
0.00117722
-0.000558856
0.00130206
-0.000655582
0.00143189
-0.00075417
0.00156577
-0.000851964
-0.000940489
0.00170192
4.50588e-07
3.58728e-05
3.95499e-06
9.52131e-05
1.18726e-05
0.000141568
2.50385e-05
0.000174932
4.39472e-05
0.00019571
6.88794e-05
0.000204461
9.99983e-05
0.000201821
0.000137419
0.00018847
0.000181257
0.000165091
0.000231654
0.000132351
0.00028879
9.08784e-05
0.000352885
4.12547e-05
0.000424178
-1.59881e-05
0.000502912
-8.03591e-05
0.000589294
-0.000151393
0.000683463
-0.000228628
0.000785444
-0.000311581
0.000895108
-0.000399722
0.00101214
-0.00049245
0.00113599
-0.00058907
0.00126591
-0.000688773
0.00140091
-0.000790579
0.00153985
-0.000893109
0.00168149
-0.000993607
-0.00108301
0.00182402
3.10348e-08
3.58418e-05
2.70379e-06
9.25403e-05
9.66919e-06
0.000134603
2.19921e-05
0.000162609
4.03648e-05
0.000177337
6.52455e-05
0.00017958
9.69601e-05
0.000170107
0.000135774
0.000149656
0.000181937
0.000118928
0.000235708
7.85802e-05
0.000297359
2.92276e-05
0.000367165
-2.85519e-05
0.000445384
-9.42065e-05
0.000532217
-0.000167192
0.000627773
-0.00024695
0.000732026
-0.000332881
0.000844767
-0.000424323
0.000965575
-0.00052053
0.00109378
-0.000620659
0.00122848
-0.00072376
0.00136848
-0.000828779
0.00151243
-0.00093453
0.00165884
-0.00103952
0.00180625
-0.00114101
-0.00122961
0.00195284
-2.71476e-07
3.61133e-05
1.85121e-06
9.04176e-05
8.27673e-06
0.000128177
2.02848e-05
0.000150601
3.87614e-05
0.000158861
6.43447e-05
0.000153997
9.75278e-05
0.000136924
0.000138728
0.000108456
0.000188327
6.93293e-05
0.000246684
2.02227e-05
0.000314136
-3.82236e-05
0.000390969
-0.000105385
0.000477394
-0.000180631
0.000573498
-0.000263296
0.000679203
-0.000352655
0.000794226
-0.000447903
0.000918039
-0.000548136
0.00104985
-0.000652343
0.0011886
-0.000759408
0.00133297
-0.000868126
0.0014814
-0.000977215
0.0016322
-0.00108533
0.00178361
-0.00119093
0.00193405
-0.00129145
-0.00137734
0.00208178
-4.33773e-07
3.65471e-05
1.4754e-06
8.85085e-05
7.85414e-06
0.000121798
2.0178e-05
0.000138277
3.95183e-05
0.00013952
6.66883e-05
0.000126827
0.000102343
0.000101269
0.00014704
6.37584e-05
0.000201271
1.50985e-05
0.000265463
-4.39688e-05
0.000339962
-0.000112723
0.000425004
-0.000190427
0.00052067
-0.000276297
0.000626845
-0.000369471
0.000743173
-0.000468983
0.000869028
-0.000573759
0.00100349
-0.000682602
0.00114537
-0.000794214
0.00129317
-0.000907208
0.00144519
-0.00102015
0.00159956
-0.00113158
0.00175432
-0.00124009
0.00190759
-0.00134421
0.00205777
-0.00144163
-0.0015229
0.00220333
-4.41865e-07
3.69889e-05
1.62511e-06
8.64415e-05
8.50184e-06
0.000114922
2.18367e-05
0.000124942
4.28714e-05
0.000118486
7.25812e-05
9.71168e-05
0.000111765
6.20852e-05
0.000161094
1.44289e-05
0.00022113
-4.49375e-05
0.000292312
-0.000115151
0.00037493
-0.00019534
0.000469083
-0.00028458
0.000574636
-0.000381851
0.000691181
-0.000486015
0.000818002
-0.000595805
0.000954069
-0.000709825
0.00109804
-0.000826569
0.00124828
-0.000944453
0.00140292
-0.00106185
0.00155994
-0.00117716
0.0017172
-0.00128884
0.00187257
-0.00139546
0.00202411
-0.00149575
0.00217035
-0.00158786
-0.00166284
0.00231029
-2.92337e-07
3.72813e-05
2.31554e-06
8.38336e-05
1.02539e-05
0.000106983
2.53168e-05
0.000109879
4.88947e-05
9.49077e-05
8.21014e-05
6.39101e-05
0.000125849
1.83379e-05
0.00018088
-4.06023e-05
0.000247769
-0.000111827
0.000326899
-0.00019428
0.000418418
-0.00028686
0.000522203
-0.000388364
0.000637812
-0.00049746
0.000764463
-0.000612666
0.000901021
-0.000732363
0.00104602
-0.000854819
0.00119767
-0.000978229
0.00135399
-0.00110077
0.00151279
-0.00122066
0.00167184
-0.00133621
0.0018289
-0.0014459
0.00198181
-0.00154837
0.00212846
-0.00164241
0.00226673
-0.00172612
-0.00179208
0.00239597
7.33356e-09
3.72739e-05
3.52832e-06
8.03126e-05
1.3079e-05
9.74326e-05
3.05684e-05
9.23895e-05
5.7507e-05
6.79691e-05
9.51134e-05
2.63038e-05
0.000144369
-3.09178e-05
0.000206033
-0.000102266
0.000280622
-0.000186417
0.000368381
-0.000282038
0.000469229
-0.000387708
0.00058273
-0.000501865
0.000708056
-0.000622786
0.000843989
-0.000748599
0.000988939
-0.000877313
0.00114099
-0.00100687
0.001298
-0.00113523
0.00145763
-0.00126041
0.00161756
-0.00138058
0.00177549
-0.00149414
0.00192934
-0.00159974
0.00207729
-0.00169632
0.00221793
-0.00178306
0.002351
-0.00185918
-0.00192108
0.00248
4.43069e-07
3.68309e-05
5.22111e-06
7.55346e-05
1.68959e-05
8.57578e-05
3.74581e-05
7.18272e-05
6.8503e-05
3.69242e-05
0.000111311
-1.65042e-05
0.000166879
-8.64859e-05
0.000235914
-0.0001713
0.000318798
-0.000269301
0.000415547
-0.000378787
0.000525765
-0.000497927
0.000648618
-0.000624718
0.000782829
-0.000756997
0.000926705
-0.000892475
0.0010782
-0.0010288
0.00123498
-0.00116366
0.00139459
-0.00129484
0.00155452
-0.00142033
0.00171235
-0.00153841
0.00186589
-0.00164768
0.00201325
-0.00174711
0.00215297
-0.00183604
0.00228408
-0.00191417
0.00240636
-0.00198146
-0.00203554
0.00252082
9.94057e-07
3.58368e-05
7.33165e-06
6.9197e-05
2.15852e-05
7.15043e-05
4.57921e-05
4.76203e-05
8.15913e-05
1.12503e-06
0.000130274
-6.5187e-05
0.000192789
-0.000149001
0.000269715
-0.000248226
0.000361213
-0.000360799
0.000466981
-0.000484556
0.000586223
-0.000617168
0.000717639
-0.000756134
0.000859457
-0.000898816
0.0010095
-0.00104252
0.0011653
-0.0011846
0.00132419
-0.00132256
0.0014835
-0.00145415
0.00164065
-0.00157749
0.00179331
-0.00169107
0.0019395
-0.00179387
0.00207764
-0.00188525
0.00220663
-0.00196503
0.00232583
-0.00203338
0.00243505
-0.00209068
-0.00213564
0.00253515
1.63879e-06
3.4198e-05
9.79249e-06
6.10433e-05
2.70144e-05
5.42824e-05
5.53523e-05
1.92824e-05
9.6443e-05
-3.99656e-05
0.00015153
-0.000120274
0.000221444
-0.000218914
0.000306549
-0.000333331
0.000406697
-0.000460947
0.000521183
-0.000599041
0.000648732
-0.000744717
0.00078753
-0.000894932
0.000935297
-0.00104658
0.0010894
-0.00119663
0.00124702
-0.00134221
0.00140526
-0.0014808
0.00156139
-0.00161028
0.00171291
-0.00172901
0.00185773
-0.00183589
0.0019942
-0.00193033
0.00212116
-0.00201221
0.00223797
-0.00208183
0.0023444
-0.00213981
0.00244067
-0.00218694
-0.00222284
0.00252787
2.35775e-06
3.18403e-05
1.25398e-05
5.08612e-05
3.30547e-05
3.37675e-05
6.59229e-05
-1.35859e-05
0.000112729
-8.67714e-05
0.000174604
-0.000182149
0.000252178
-0.000296488
0.000345518
-0.000426672
0.000454073
-0.000569503
0.000576653
-0.000721621
0.000711448
-0.000879512
0.000856107
-0.00103959
0.00100786
-0.00119834
0.0011637
-0.00135247
0.00132054
-0.00149905
0.00147543
-0.00163569
0.00162572
-0.00176056
0.00176915
-0.00187245
0.00190401
-0.00197075
0.00202909
-0.00205541
0.00214372
-0.00212685
0.00224773
-0.00218584
0.00234135
-0.00223343
0.00242514
-0.00227074
-0.00229804
0.00250034
3.13572e-06
2.87046e-05
1.55204e-05
3.84766e-05
3.95938e-05
9.69413e-06
7.73094e-05
-5.13015e-05
0.000130143
-0.000139605
0.000199042
-0.000251048
0.000284352
-0.000381799
0.000385748
-0.000528068
0.000502191
-0.000685946
0.000631937
-0.000851367
0.000772608
-0.00102018
0.000921326
-0.00118831
0.0010749
-0.00135191
0.00123004
-0.0015076
0.00138357
-0.00165258
0.00153262
-0.00178474
0.00167478
-0.00190273
0.00180821
-0.00200587
0.00193163
-0.00209417
0.00204437
-0.00216815
0.00214627
-0.00222874
0.00223759
-0.00227717
0.00231897
-0.0023148
0.00239127
-0.00234304
-0.0023626
0.00245583
3.96276e-06
2.47418e-05
1.86946e-05
2.37447e-05
4.65413e-05
-1.81526e-05
8.93454e-05
-9.41057e-05
0.000148412
-0.000198671
0.000224425
-0.000327061
0.000317355
-0.000474729
0.000426394
-0.000637107
0.000549938
-0.000809489
0.000685641
-0.000987071
0.000830557
-0.0011651
0.000981334
-0.00133909
0.00113446
-0.00150504
0.00128651
-0.00165966
0.00143438
-0.00180045
0.00157546
-0.00192582
0.00170772
-0.00203499
0.00182982
-0.00212797
0.00194102
-0.00220537
0.00204114
-0.00226828
0.00213051
-0.00231811
0.0022098
-0.00235645
0.00227991
-0.00238492
0.00234194
-0.00240507
-0.00241788
0.00239722
4.83383e-06
1.9908e-05
2.20355e-05
6.54306e-06
5.38268e-05
-4.99439e-05
0.000101889
-0.000142168
0.000167288
-0.00026407
0.000250357
-0.00041013
0.0003506
-0.000574971
0.000466637
-0.000753144
0.000596239
-0.000939091
0.000736447
-0.00112728
0.00088378
-0.00131243
0.00103451
-0.00148982
0.00118494
-0.00165547
0.0013317
-0.00180641
0.0014719
-0.00194065
0.00160333
-0.00205725
0.00172448
-0.00215615
0.00183454
-0.00223803
0.00193332
-0.00230414
0.00202112
-0.00235608
0.00209866
-0.00239565
0.00216692
-0.0024247
0.00222699
-0.002445
0.00228008
-0.00245815
-0.00246527
0.00232747
5.74745e-06
1.41605e-05
2.55253e-05
-1.32348e-05
6.13934e-05
-8.5812e-05
0.000114815
-0.00019559
0.000186536
-0.000335791
0.00027645
-0.000500044
0.000383501
-0.000682022
0.000505668
-0.000875311
0.000640061
-0.00107348
0.000783126
-0.00127034
0.000930937
-0.00146024
0.00107952
-0.0016384
0.00122516
-0.00180112
0.0013647
-0.00194594
0.00149563
-0.00207159
0.00161627
-0.00217788
0.00172566
-0.00226553
0.00182354
-0.00233591
0.00191021
-0.00239082
0.00198641
-0.00243228
0.00205314
-0.00246239
0.00211157
-0.00248313
0.00216291
-0.00249634
0.00220837
-0.00250361
-0.00250605
0.00224914
6.70382e-06
7.4567e-06
2.91499e-05
-3.56809e-05
6.91881e-05
-0.00012585
0.000127995
-0.000254397
0.000205915
-0.000413711
0.000302307
-0.000596436
0.000415469
-0.000795185
0.00054269
-0.00100253
0.00068042
-0.00121121
0.000824577
-0.0014145
0.000970905
-0.00160657
0.00111535
-0.00178284
0.00125436
-0.00194013
0.00138513
-0.00207671
0.00150569
-0.00219214
0.00161489
-0.00228709
0.00171238
-0.00236302
0.0017984
-0.00242193
0.00187368
-0.0024661
0.00193927
-0.00249787
0.00199636
-0.00251948
0.00204624
-0.00253301
0.00209013
-0.00254022
0.00212916
-0.00254264
-0.00254132
0.00216443
7.70302e-06
-2.46316e-07
3.28939e-05
-6.08718e-05
7.71533e-05
-0.00017011
0.000141295
-0.000318539
0.00022517
-0.000497586
0.000327511
-0.000698777
0.000445906
-0.000913581
0.000576929
-0.00113355
0.000716414
-0.0013507
0.000859854
-0.00155794
0.00100282
-0.00174954
0.00114135
-0.00192137
0.00127222
-0.00207101
0.00139312
-0.00219761
0.00150264
-0.00230167
0.00160026
-0.0023847
0.00168613
-0.00244889
0.00176096
-0.00249676
0.0018258
-0.00253094
0.00188191
-0.00255398
0.0019306
-0.00256817
0.00197315
-0.00257555
0.00201073
-0.00257781
0.00204441
-0.00257631
-0.00257201
0.0020751
8.74342e-06
-8.98974e-06
3.67365e-05
-8.88648e-05
8.52197e-05
-0.000218593
0.00015456
-0.000387879
0.00024402
-0.000587046
0.000351628
-0.000806384
0.000474217
-0.00103617
0.000607659
-0.001267
0.000747256
-0.0014903
0.000888215
-0.0016989
0.00102611
-0.00188743
0.00115723
-0.00205249
0.00127883
-0.00219261
0.00138917
-0.00230794
0.00148745
-0.00239996
0.00157371
-0.00247096
0.00164858
-0.00252376
0.00171311
-0.00256129
0.0017686
-0.00258643
0.0018164
-0.00260177
0.00185785
-0.00260962
0.00189417
-0.00261188
0.00192647
-0.00261011
0.00195566
-0.0026055
-0.00259888
0.00198253
9.82087e-06
-1.88106e-05
4.06486e-05
-0.000119693
9.33032e-05
-0.000271247
0.000167613
-0.000462189
0.000262164
-0.000681597
0.000374214
-0.000918435
0.000499827
-0.00116178
0.000634228
-0.0014014
0.000772305
-0.00162837
0.000909143
-0.00183574
0.00104049
-0.00201878
0.00116305
-0.00217505
0.00127464
-0.00230419
0.00137413
-0.00240743
0.00146133
-0.00248716
0.00153676
-0.0025464
0.00160145
-0.00258845
0.00165671
-0.00261654
0.00170393
-0.00263365
0.00174454
-0.00264238
0.0017798
-0.00264489
0.00181088
-0.00264295
0.00183872
-0.00263795
0.00186412
-0.00263091
-0.0026225
0.00188774
1.09282e-05
-2.97388e-05
4.45926e-05
-0.000153357
0.000101304
-0.000327959
0.00018026
-0.000541144
0.000279288
-0.000780626
0.000394834
-0.00103398
0.000522211
-0.00128916
0.000656091
-0.00153528
0.000791095
-0.00176338
0.000922362
-0.00196701
0.00104597
-0.00214238
0.00115916
-0.00228824
0.00126036
-0.00240539
0.00134906
-0.00249614
0.00142562
-0.00256371
0.00149097
-0.00261175
0.00154642
-0.0026439
0.00159343
-0.00266355
0.00163345
-0.00267368
0.00166787
-0.00267679
0.00169787
-0.00267489
0.00172448
-0.00266957
0.00174854
-0.00266201
0.00177071
-0.00265308
-0.0026433
0.00179151
1.20554e-05
-4.17942e-05
4.85225e-05
-0.000189824
0.00010911
-0.000388546
0.000192293
-0.000624327
0.000295076
-0.00088341
0.000413076
-0.00115198
0.000540915
-0.001417
0.000672833
-0.00166719
0.000803352
-0.0018939
0.000927831
-0.00209149
0.00104282
-0.00225737
0.00114616
-0.00239158
0.00123691
-0.00249615
0.00131516
-0.00257439
0.00138171
-0.00263026
0.00143783
-0.00266787
0.001485
-0.00269107
0.00152476
-0.00270331
0.00155855
-0.00270747
0.00158765
-0.00270589
0.00161316
-0.00270039
0.00163595
-0.00269236
0.00165674
-0.0026828
0.00167608
-0.00267242
-0.0026616
0.00169438
1.319e-05
-5.49842e-05
5.23854e-05
-0.000229019
0.000116598
-0.000452759
0.0002035
-0.000711229
0.000309224
-0.000989134
0.000428576
-0.00127133
0.000555576
-0.001544
0.000684183
-0.0017958
0.000808987
-0.0020187
0.000925721
-0.00220822
0.0010315
-0.00236315
0.00112481
-0.00248489
0.00120534
-0.00257668
0.00127366
-0.00264271
0.00133096
-0.00268756
0.00137874
-0.00271564
0.00141857
-0.00273091
0.001452
-0.00273674
0.00148039
-0.00273586
0.00150491
-0.00273041
0.00152652
-0.00272201
0.001546
-0.00271183
0.00156391
-0.00270071
0.00158072
-0.00268922
-0.00267761
0.00159673
1.43174e-05
-6.93017e-05
5.61242e-05
-0.000270826
0.000123645
-0.00052028
0.000213675
-0.000801259
0.000321456
-0.00109692
0.000441031
-0.00139091
0.000565939
-0.00166891
0.000690018
-0.00191988
0.000808092
-0.00213677
0.000916387
-0.00231651
0.00101265
-0.00245941
0.001096
-0.00256825
0.0011667
-0.00264738
0.00122576
-0.00270177
0.00127462
-0.00273643
0.00131493
-0.00275595
0.0013483
-0.00276427
0.00137619
-0.00276463
0.00139989
-0.00275955
0.00142043
-0.00275095
0.00143864
-0.00274022
0.00145516
-0.00272836
0.00147049
-0.00271604
0.00148496
-0.00270369
-0.00269148
0.00149883
1.54219e-05
-8.47235e-05
5.96792e-05
-0.000315084
0.000130125
-0.000590725
0.000222623
-0.000893757
0.000331531
-0.00120582
0.000450211
-0.00150959
0.000571859
-0.00179055
0.00069036
-0.00203838
0.00080091
-0.00224733
0.000900321
-0.00241592
0.000986992
-0.00254608
0.00106067
-0.00264193
0.00112208
-0.00270879
0.00117259
-0.00275227
0.00121382
-0.00277766
0.00124749
-0.00278961
0.00127515
-0.00279194
0.00129821
-0.00278769
0.00131779
-0.00277914
0.00133482
-0.00276798
0.00134999
-0.0027554
0.00136385
-0.00274221
0.00137677
-0.00272896
0.00138905
-0.00271596
-0.0027033
0.00140087
1.64867e-05
-0.00010121
6.29905e-05
-0.000361587
0.000135919
-0.000663654
0.000230175
-0.000988013
0.000339261
-0.00131491
0.000455966
-0.00162629
0.000573303
-0.00190789
0.000685354
-0.00215043
0.00078781
-0.00234978
0.000878118
-0.00250623
0.000955328
-0.00262329
0.00101974
-0.00270634
0.00107249
-0.00276154
0.00111518
-0.00279496
0.00114956
-0.00281204
0.00117731
-0.00281737
0.00119995
-0.00281458
0.00121873
-0.00280647
0.00123467
-0.00279507
0.00124854
-0.00278185
0.00126095
-0.00276781
0.00127233
-0.00275359
0.00128299
-0.00273962
0.00129315
-0.00272613
-0.00271311
0.00130297
1.7495e-05
-0.000118705
6.60006e-05
-0.000410093
0.00014092
-0.000738573
0.000236184
-0.00108328
0.000344506
-0.00142323
0.000458231
-0.00174002
0.00057034
-0.00202
0.000675257
-0.00225535
0.000769252
-0.00244378
0.000850432
-0.00258741
0.000918457
-0.00269131
0.00097411
-0.00276199
0.00101885
-0.00280628
0.00105444
-0.00283055
0.00108267
-0.00284027
0.00110517
-0.00283987
0.00112334
-0.00283275
0.00113831
-0.00282144
0.00115096
-0.00280772
0.00116196
-0.00279285
0.00117179
-0.00277764
0.00118083
-0.00276262
0.0011893
-0.0027481
0.0011974
-0.00273422
-0.00272094
0.00120523
1.84303e-05
-0.000137136
6.86556e-05
-0.000460318
0.000145034
-0.000814952
0.00024054
-0.00117878
0.000347186
-0.00152988
0.000457013
-0.00184984
0.000563128
-0.00212611
0.000660409
-0.00235263
0.000745759
-0.00252913
0.000817938
-0.00265959
0.000877164
-0.00275054
0.000924622
-0.00280945
0.000962007
-0.00284367
0.000991171
-0.00285972
0.00101388
-0.00286298
0.00103168
-0.00285766
0.00104584
-0.00284691
0.00105736
-0.00283296
0.001067
-0.00281736
0.00107532
-0.00280117
0.00108272
-0.00278504
0.00108949
-0.00276939
0.00109583
-0.00275444
0.00110187
-0.00274027
-0.00272679
0.00110772
1.92766e-05
-0.000156412
7.09071e-05
-0.000511949
0.000148184
-0.000892228
0.000243165
-0.00127376
0.000347273
-0.00163399
0.000452396
-0.00195497
0.000551898
-0.00222562
0.000641209
-0.00244194
0.000717886
-0.0026058
0.000781312
-0.00272302
0.000832194
-0.00280142
0.000872035
-0.00284929
0.000902689
-0.00287432
0.000926033
-0.00288306
0.000943769
-0.00288072
0.00095733
-0.00287123
0.000967853
-0.00285743
0.00097621
-0.00284131
0.000983043
-0.0028242
0.000988819
-0.00280694
0.000993869
-0.00279009
0.000998425
-0.00277395
0.00100265
-0.00275867
0.00100665
-0.00274427
-0.00273063
0.00101049
2.00193e-05
-0.000176431
7.27138e-05
-0.000564643
0.000150311
-0.000969825
0.000244019
-0.00136747
0.000344795
-0.00173476
0.000444519
-0.00205469
0.000536941
-0.00231804
0.000618094
-0.00252309
0.000686197
-0.0026739
0.000741202
-0.00277802
0.00078423
-0.00284445
0.000817025
-0.00288208
0.000841528
-0.00289882
0.000859591
-0.00290112
0.000872821
-0.00289395
0.000882523
-0.00288093
0.000889703
-0.00286461
0.00089511
-0.00284672
0.000899285
-0.00282837
0.000902613
-0.00281027
0.000905366
-0.00279285
0.000907731
-0.00277632
0.00090984
-0.00276078
0.000911777
-0.00274621
-0.00273245
0.0009136
2.06452e-05
-0.000197077
7.40419e-05
-0.00061804
0.000151376
-0.00104716
0.000243093
-0.00145919
0.000339822
-0.00183149
0.000433574
-0.00214844
0.000518581
-0.00240305
0.00059152
-0.00259603
0.000651244
-0.00273363
0.000698215
-0.00282499
0.000733891
-0.00288012
0.000760183
-0.00290838
0.00077906
-0.0029177
0.000792309
-0.00291437
0.000801422
-0.00290306
0.000807572
-0.00288708
0.000811636
-0.00286868
0.000814251
-0.00284934
0.000815871
-0.00282999
0.000816811
-0.00281121
0.000817295
-0.00279333
0.000817475
-0.0027765
0.000817458
-0.00276076
0.000817312