/*--------------------------------*- C++ -*----------------------------------*\
  =========                 |
  \\      /  F ield         | OpenFOAM: The Open Source CFD Toolbox
   \\    /   O peration     | Website:  https://openfoam.org
    \\  /    A nd           | Version:  6.0
     \\/     M anipulation  |
\*---------------------------------------------------------------------------*/
FoamFile
{
    version     2.0;
    format      ascii;
    class       volVectorField;
    location    "40";
    object      U;
}
// * * * * * * * * * * * * * * * * * * * * * * * * * * * * * * * * * * * * * //

dimensions      [0 1 -1 0 0 0 0];

internalField   nonuniform List<vector> 
12500
(
(-0.000250833 -0.000161471 -7.73907e-22)
(-0.00149345 -0.000684761 1.10914e-20)
(-0.00391328 -0.00135645 -1.61809e-20)
(-0.00701315 -0.00211667 7.46945e-21)
(-0.0105217 -0.00292092 4.49525e-22)
(-0.0142683 -0.00373775 -9.28728e-22)
(-0.0181165 -0.00454526 -1.37806e-20)
(-0.0219646 -0.00532901 7.59448e-21)
(-0.0257418 -0.00608016 5.03968e-21)
(-0.0294012 -0.00679387 5.13319e-21)
(-0.0329154 -0.00746804 -8.7128e-21)
(-0.0362721 -0.00810228 5.08077e-21)
(-0.0394712 -0.00869728 -2.39802e-21)
(-0.0425216 -0.00925426 4.07484e-21)
(-0.0454394 -0.00977475 -1.04113e-20)
(-0.0482461 -0.0102604 1.5065e-20)
(-0.0509662 -0.0107132 -2.87481e-21)
(-0.0536268 -0.0111349 -1.0686e-20)
(-0.0562555 -0.0115277 5.48159e-21)
(-0.0588797 -0.0118943 -5.23615e-21)
(-0.0615302 -0.0122375 4.68848e-21)
(-0.0642371 -0.0125606 6.19746e-21)
(-0.0669886 -0.0128671 6.3057e-22)
(-0.0697156 -0.013159 -1.77667e-20)
(-0.0727052 -0.0134439 9.95396e-21)
(-0.000280011 0.000469969 1.41449e-20)
(-0.00157373 0.000953394 -3.78799e-20)
(-0.0040458 0.00105153 1.12348e-20)
(-0.00719416 0.000865055 7.54947e-21)
(-0.0107459 0.000471622 -6.04783e-21)
(-0.0145299 -6.86145e-05 -3.45227e-20)
(-0.0184097 -0.000707705 1.03056e-20)
(-0.0222835 -0.00140796 -1.95372e-20)
(-0.0260804 -0.00214002 2.34515e-20)
(-0.029754 -0.002881 -3.14013e-20)
(-0.0332769 -0.00361294 1.68077e-20)
(-0.0366371 -0.00432161 5.44974e-21)
(-0.0398348 -0.00499566 -1.37485e-20)
(-0.0428793 -0.00562593 -6.0836e-21)
(-0.0457874 -0.00620514 4.46309e-20)
(-0.048581 -0.00672764 -3.95499e-20)
(-0.0512854 -0.0071893 9.47647e-21)
(-0.0539285 -0.00758756 1.64073e-20)
(-0.0565388 -0.00792135 -3.7423e-21)
(-0.0591447 -0.00819121 2.64803e-20)
(-0.0617781 -0.00839941 4.82633e-21)
(-0.0644702 -0.00854997 -1.73923e-21)
(-0.0672095 -0.00864655 -3.35145e-20)
(-0.0699261 -0.00869051 3.08505e-20)
(-0.0729116 -0.00869982 -6.25037e-20)
(-0.000349791 0.0011085 4.53741e-20)
(-0.00175914 0.00260796 1.56418e-20)
(-0.00433207 0.00348097 -2.06377e-20)
(-0.00756357 0.00387038 8.917e-21)
(-0.0111807 0.00388771 8.38313e-21)
(-0.0150133 0.00362232 3.19737e-20)
(-0.018926 0.00314859 -4.0787e-20)
(-0.0228181 0.0025277 -6.66394e-21)
(-0.0266197 0.00180968 -2.75109e-20)
(-0.0302852 0.00103562 -2.30381e-20)
(-0.0337882 0.000239445 2.98194e-20)
(-0.0371173 -0.000550638 -1.00087e-19)
(-0.0402734 -0.00131105 -3.1414e-21)
(-0.0432669 -0.00202208 -6.03291e-20)
(-0.0461151 -0.00266737 -7.1158e-21)
(-0.0488411 -0.00323364 8.59158e-21)
(-0.0514714 -0.00371054 -4.70677e-20)
(-0.0540353 -0.0040906 -2.94855e-20)
(-0.0565626 -0.00436922 -3.49429e-20)
(-0.0590835 -0.00454465 5.48019e-20)
(-0.0616317 -0.00461834 2.00434e-20)
(-0.0642402 -0.00459468 -8.92517e-20)
(-0.0668987 -0.00447764 -4.30119e-20)
(-0.069536 -0.00426758 -4.81261e-20)
(-0.0724495 -0.00399322 1.37791e-19)
(-0.000460832 0.00175167 -1.41015e-21)
(-0.0020509 0.00427193 -3.61764e-20)
(-0.00477319 0.00592093 -1.7488e-20)
(-0.00812186 0.00688467 1.09106e-20)
(-0.0118257 0.00730926 6.82431e-20)
(-0.0157171 0.00731371 -3.092e-20)
(-0.0196632 0.00699908 6.6225e-20)
(-0.0235653 0.00645017 6.3326e-20)
(-0.0273557 0.00573776 3.868e-20)
(-0.0309904 0.00492116 -5.79959e-22)
(-0.0344443 0.00405031 7.84558e-20)
(-0.0377074 0.0031675 1.36215e-20)
(-0.0407816 0.00230868 6.01692e-20)
(-0.0436785 0.00150435 1.38628e-19)
(-0.0464166 0.000780287 -1.6114e-19)
(-0.0490203 0.000157791 2.42731e-19)
(-0.0515178 -0.000346072 5.28861e-20)
(-0.0539401 -0.000718435 -1.16888e-19)
(-0.0563192 -0.0009506 -1.65952e-20)
(-0.0586877 -0.00103808 4.25836e-20)
(-0.0610816 -0.000980984 -2.13865e-20)
(-0.063537 -0.000783848 -1.28251e-20)
(-0.0660453 -0.000450583 -1.25072e-20)
(-0.0685334 1.98316e-05 -5.03854e-20)
(-0.0713066 0.000587435 1.87495e-19)
(-0.000613641 0.00239691 2.36458e-20)
(-0.00244981 0.00593809 -1.13983e-19)
(-0.00536948 0.00835993 1.39168e-19)
(-0.00886846 0.00989273 -5.57294e-20)
(-0.0126792 0.0107177 6.70951e-20)
(-0.0166384 0.010984 5.50323e-20)
(-0.0206171 0.0108193 2.09899e-20)
(-0.0245201 0.0103322 1.05219e-21)
(-0.0282827 0.00961397 1.19075e-19)
(-0.0318632 0.00874217 8.27152e-20)
(-0.0352386 0.00778267 -3.32426e-20)
(-0.0384005 0.00679185 -2.14725e-20)
(-0.0413525 0.00581811 9.08601e-20)
(-0.0441074 0.00490307 1.71488e-20)
(-0.0466852 0.00408223 4.66632e-20)
(-0.0491119 0.00338547 1.11924e-19)
(-0.0514178 0.00283721 -9.6823e-20)
(-0.053636 0.00245643 7.82786e-20)
(-0.0558012 0.0022567 -1.69087e-19)
(-0.0579489 0.00224602 1.42294e-19)
(-0.0601186 0.00242627 9.2729e-22)
(-0.0623502 0.00279336 -1.13771e-19)
(-0.0646376 0.00334389 4.58112e-20)
(-0.066906 0.00408095 1.0419e-19)
(-0.06947 0.00495278 -1.62902e-19)
(-0.000808549 0.00304146 1.22322e-19)
(-0.00295606 0.00759867 -1.3483e-19)
(-0.00612026 0.010786 -2.18275e-20)
(-0.00980136 0.0128789 2.7734e-20)
(-0.0137377 0.0140944 -6.02157e-20)
(-0.0177722 0.0146118 -9.4375e-20)
(-0.0217812 0.0145855 -7.88695e-20)
(-0.0256747 0.0141476 -1.90999e-20)
(-0.0293917 0.0134099 -1.36892e-19)
(-0.0328941 0.0124676 1.09511e-19)
(-0.0361612 0.0114025 -1.70615e-19)
(-0.039187 0.0102849 8.65562e-20)
(-0.0419765 0.00917577 -2.87667e-20)
(-0.0445442 0.00812794 6.69089e-20)
(-0.0469119 0.00718714 -1.68689e-19)
(-0.0491072 0.00639241 8.19992e-20)
(-0.0511627 0.00577631 6.15264e-21)
(-0.0531141 0.00536489 3.65129e-20)
(-0.0549991 0.00517762 2.20978e-19)
(-0.0568569 0.00522711 4.90811e-20)
(-0.0587314 0.00551822 -4.44406e-21)
(-0.0606673 0.00604817 1.40542e-20)
(-0.0626619 0.00681486 9.26831e-20)
(-0.0646389 0.00782443 2.64704e-20)
(-0.0669248 0.00901273 9.21871e-20)
(-0.00104566 0.00368244 -7.62143e-20)
(-0.00356914 0.00924559 1.1234e-19)
(-0.00702359 0.0131866 7.09709e-21)
(-0.0109167 0.0158272 -1.39028e-19)
(-0.0149953 0.0174205 2.94124e-19)
(-0.0191104 0.018176 -9.56034e-20)
(-0.0231457 0.0182748 1.40301e-19)
(-0.0270176 0.017872 1.28969e-19)
(-0.0306702 0.0170993 -1.07168e-19)
(-0.0340694 0.0160696 -1.56643e-19)
(-0.037198 0.0148798 4.30438e-20)
(-0.0400523 0.013614 -4.55561e-20)
(-0.0426393 0.0123455 -2.02127e-19)
(-0.0449751 0.0111387 2.46359e-19)
(-0.0470832 0.0100498 -1.18483e-19)
(-0.0489931 0.00912778 -8.18989e-20)
(-0.0507395 0.00841415 7.9834e-22)
(-0.0523612 0.00794322 6.72775e-20)
(-0.0538993 0.00774172 2.77698e-20)
(-0.0553974 0.0078283 -1.08994e-19)
(-0.0569043 0.00821226 1.24752e-19)
(-0.058471 0.00889337 -2.16983e-19)
(-0.0600995 0.00987205 1.32761e-19)
(-0.0617122 0.0111589 -1.01757e-19)
(-0.0636502 0.012677 2.83017e-20)
(-0.00132483 0.00431677 1.10964e-19)
(-0.00428762 0.0108703 -8.86093e-20)
(-0.00807591 0.0155489 -5.67808e-20)
(-0.0122084 0.0187213 -1.00919e-19)
(-0.016443 0.0206771 -1.85618e-19)
(-0.0206413 0.021656 -1.37924e-19)
(-0.0246963 0.0218654 8.64489e-20)
(-0.0285321 0.0214827 -1.31576e-19)
(-0.0320994 0.0206591 1.6775e-19)
(-0.0353692 0.019524 -2.74193e-19)
(-0.038328 0.0181893 1.22288e-19)
(-0.0409748 0.0167522 2.59224e-19)
(-0.043319 0.0152982 -3.65488e-19)
(-0.0453783 0.0139029 5.23573e-20)
(-0.0471777 0.0126336 6.83428e-20)
(-0.0487486 0.0115495 6.62329e-20)
(-0.0501278 0.0107023 -7.13158e-20)
(-0.0513568 0.0101359 -1.75332e-20)
(-0.0524808 0.00988597 -5.26644e-20)
(-0.0535481 0.00997903 -4.39657e-20)
(-0.0546136 0.0104308 -2.4193e-19)
(-0.0557358 0.0112453 -1.63826e-20)
(-0.0569228 0.0124276 2.66755e-21)
(-0.0580964 0.0139946 -1.09916e-19)
(-0.0596162 0.0158561 1.20121e-19)
(-0.00164554 0.00494116 3.23343e-21)
(-0.005109 0.0124636 3.62625e-20)
(-0.00927172 0.0178591 3.80372e-20)
(-0.0136674 0.0215442 2.2187e-20)
(-0.0180682 0.0238452 1.88978e-19)
(-0.0223485 0.0250316 1.7855e-19)
(-0.026413 0.0253365 -1.45882e-19)
(-0.0301951 0.0249592 -4.46614e-20)
(-0.0336535 0.0240691 -3.9821e-20)
(-0.036765 0.0228115 2.06325e-19)
(-0.0395208 0.021312 7.44007e-20)
(-0.0419231 0.0196803 -1.08648e-19)
(-0.0439835 0.0180134 -9.23195e-20)
(-0.0457213 0.0163982 2.2314e-19)
(-0.047163 0.0149127 -5.51933e-20)
(-0.0483412 0.0136272 -6.71166e-20)
(-0.0492948 0.0126044 -9.38857e-20)
(-0.0500681 0.0118994 -7.32804e-20)
(-0.0507101 0.0115585 -9.37672e-20)
(-0.0512744 0.0116187 -6.14293e-20)
(-0.0518227 0.0121046 2.55768e-19)
(-0.0524228 0.0130273 -1.26213e-19)
(-0.0530901 0.0143986 8.51341e-20)
(-0.0537475 0.0162453 -2.26802e-19)
(-0.0547779 0.0184636 9.69849e-20)
(-0.0020069 0.00555197 -9.97065e-20)
(-0.00602942 0.0140157 -2.69985e-20)
(-0.0106031 0.0201027 -2.12207e-19)
(-0.0152814 0.0242783 -1.02401e-19)
(-0.0198536 0.0269053 -2.03347e-19)
(-0.02421 0.0282828 -2.13351e-20)
(-0.0282689 0.0286688 1.10197e-19)
(-0.0319753 0.0282831 -6.74999e-20)
(-0.0352969 0.0273127 1.46082e-19)
(-0.0382177 0.0259173 -3.56525e-19)
(-0.0407342 0.0242351 -1.03989e-20)
(-0.0428523 0.0223872 6.36816e-20)
(-0.0445859 0.0204813 -8.1072e-20)
(-0.0459559 0.0186145 7.40233e-20)
(-0.0469897 0.0168756 -5.67949e-20)
(-0.0477211 0.0153461 -1.22044e-19)
(-0.0481904 0.0141007 2.23187e-19)
(-0.0484443 0.0132068 1.38778e-19)
(-0.0485354 0.0127241 -2.8844e-20)
(-0.0485228 0.0127024 9.20224e-20)
(-0.0484761 0.0131785 -1.81921e-19)
(-0.0484732 0.0141743 2.62668e-19)
(-0.0485393 0.0157121 -3.59388e-19)
(-0.0486004 0.0178327 7.40796e-20)
(-0.0490683 0.0204197 -1.49158e-19)
(-0.00240747 0.00614518 5.42541e-21)
(-0.0070434 0.0155158 -9.22113e-20)
(-0.0120596 0.0222643 1.37509e-19)
(-0.0170338 0.026905 2.83878e-19)
(-0.0217767 0.0298374 -4.72719e-21)
(-0.0261971 0.0313895 3.25402e-20)
(-0.0302291 0.0318432 -1.23647e-19)
(-0.0338314 0.031438 5.81292e-20)
(-0.0369825 0.0303766 4.02916e-19)
(-0.0396746 0.0288319 -9.18023e-20)
(-0.0419104 0.0269533 -1.08915e-19)
(-0.0437001 0.0248715 4.13106e-19)
(-0.04506 0.0227037 1.3545e-19)
(-0.0460128 0.0205563 6.46821e-20)
(-0.0465863 0.0185279 6.64513e-20)
(-0.0468149 0.016711 1.81463e-19)
(-0.0467397 0.0151926 -6.99024e-20)
(-0.046409 0.0140542 1.85411e-19)
(-0.0458787 0.0133704 2.51452e-19)
(-0.0452131 0.0132075 -2.14876e-19)
(-0.0444903 0.0136185 3.19988e-19)
(-0.0437999 0.0146404 1.14458e-19)
(-0.0431791 0.0163116 -4.34985e-19)
(-0.0425593 0.0186927 6.30234e-19)
(-0.0423897 0.0216566 -5.41152e-19)
(-0.00284518 0.00671629 -2.54114e-19)
(-0.00814361 0.0169521 1.43777e-19)
(-0.0136271 0.0243269 -9.71988e-20)
(-0.0189038 0.0294044 -9.2909e-20)
(-0.0238091 0.0326203 -1.00989e-19)
(-0.0282733 0.0343309 -1.10183e-19)
(-0.0322492 0.034841 3.03669e-20)
(-0.0357109 0.0344083 2.90332e-19)
(-0.0386494 0.0332498 -6.2425e-20)
(-0.0410669 0.03155 -1.6343e-19)
(-0.042973 0.0294675 -1.00261e-19)
(-0.0443827 0.0271411 -4.11477e-20)
(-0.0453157 0.0246953 1.22349e-19)
(-0.0457959 0.0222442 -7.83244e-20)
(-0.0458517 0.019895 -2.56452e-19)
(-0.0455175 0.0177502 -2.8386e-19)
(-0.044834 0.0159089 1.13513e-19)
(-0.0438506 0.0144672 -2.11778e-19)
(-0.0426254 0.013517 1.84469e-19)
(-0.0412276 0.013144 -5.21972e-19)
(-0.0397438 0.0134222 4.01928e-19)
(-0.0382768 0.0144093 -5.32605e-19)
(-0.0368777 0.0161672 -9.97062e-21)
(-0.0354872 0.0187849 -1.79943e-19)
(-0.034602 0.022128 5.5998e-19)
(-0.00331721 0.00726026 3.90015e-19)
(-0.00932056 0.0183117 5.93956e-20)
(-0.0152886 0.0262724 -3.93194e-20)
(-0.0208655 0.0317552 -1.66735e-20)
(-0.0259157 0.0352315 3.12558e-19)
(-0.0303939 0.0370852 1.02307e-19)
(-0.0342741 0.0376428 9.33061e-20)
(-0.0375481 0.0371788 -7.53408e-20)
(-0.0402213 0.0359232 2.91995e-19)
(-0.0423069 0.0340698 -1.44143e-19)
(-0.0438229 0.0317848 9.33827e-20)
(-0.0447904 0.0292128 2.38656e-19)
(-0.0452327 0.0264834 -1.3577e-19)
(-0.0451754 0.0237162 1.47637e-19)
(-0.0446475 0.0210246 1.39878e-19)
(-0.0436825 0.0185196 4.7984e-20)
(-0.0423208 0.016311 -1.18569e-19)
(-0.0406109 0.0145094 3.28879e-19)
(-0.0386124 0.0132249 -3.0655e-20)
(-0.0363983 0.0125658 -3.53983e-20)
(-0.0340633 0.0126318 3.96606e-19)
(-0.0317243 0.0135085 -2.82684e-19)
(-0.029449 0.0152904 4.77147e-19)
(-0.0271907 0.0181065 -3.96352e-19)
(-0.0255075 0.0218217 5.39822e-19)
(-0.00381987 0.00777153 -1.88507e-19)
(-0.0105624 0.0195804 4.34593e-20)
(-0.0170228 0.0280809 -4.55923e-20)
(-0.0228877 0.033934 -2.17066e-19)
(-0.0280544 0.0376464 1.26635e-20)
(-0.0325051 0.0396284 1.2518e-19)
(-0.0362376 0.0402275 -5.1177e-19)
(-0.0392635 0.0397334 3.84022e-19)
(-0.0416042 0.0383873 -3.756e-19)
(-0.0432858 0.036391 -2.37911e-19)
(-0.0443362 0.0339159 2.1435e-19)
(-0.0447835 0.0311103 -4.65686e-19)
(-0.0446557 0.0281065 3.93706e-19)
(-0.043981 0.0250264 -1.25565e-19)
(-0.0427892 0.0219871 -3.59878e-19)
(-0.0411131 0.0191046 8.91425e-20)
(-0.0389915 0.0164976 -8.3887e-20)
(-0.0364719 0.0142889 3.17115e-20)
(-0.0336134 0.0126071 -1.13678e-19)
(-0.0304912 0.0115844 -3.78315e-19)
(-0.0272076 0.0113508 8.49017e-20)
(-0.0238938 0.0120275 -5.46464e-23)
(-0.0206356 0.0137528 -3.92495e-19)
(-0.0174037 0.0167116 2.76268e-19)
(-0.0148343 0.0207783 -2.52658e-19)
(-0.00434857 0.00824413 7.63359e-20)
(-0.011855 0.0207432 1.46028e-19)
(-0.0188048 0.0297311 2.05782e-19)
(-0.0249339 0.0359158 1.06613e-19)
(-0.0301762 0.0398381 -1.05164e-19)
(-0.0345442 0.0419343 2.52391e-19)
(-0.0380618 0.0425712 1.87833e-19)
(-0.0407625 0.042053 -6.86209e-20)
(-0.0426858 0.0406307 2.46622e-19)
(-0.0438722 0.0385123 -2.54787e-19)
(-0.0443611 0.0358726 -7.50013e-20)
(-0.0441889 0.0328614 7.64376e-20)
(-0.0433899 0.0296109 1.52164e-19)
(-0.0419961 0.0262425 1.79396e-21)
(-0.0400389 0.022873 9.69695e-20)
(-0.0375512 0.01962 1.79408e-19)
(-0.0345703 0.0166064 -3.06324e-19)
(-0.0311416 0.0139643 3.81821e-19)
(-0.0273226 0.0118376 1.29257e-19)
(-0.0231893 0.0103825 4.57289e-20)
(-0.0188493 0.00976199 -4.66538e-19)
(-0.0144479 0.0101396 6.62023e-20)
(-0.01009 0.0117104 1.02791e-19)
(-0.00576705 0.0147361 -2.46909e-20)
(-0.0022148 0.0191163 1.2409e-19)
(-0.00489778 0.00867176 6.066e-21)
(-0.0131814 0.0217842 -3.76238e-19)
(-0.0206059 0.0312005 -9.36237e-21)
(-0.0269622 0.0376735 -9.62089e-20)
(-0.0322247 0.0417772 -6.36391e-19)
(-0.0364388 0.0439731 5.52757e-19)
(-0.0396567 0.0446464 -3.95478e-19)
(-0.0419358 0.0441147 -1.9922e-20)
(-0.0433351 0.0426375 -1.88732e-19)
(-0.0439113 0.0404282 3.2783e-19)
(-0.0437166 0.0376635 -3.5435e-19)
(-0.0427981 0.0344926 -1.66581e-19)
(-0.0411976 0.0310453 3.61548e-21)
(-0.0389528 0.0274394 -3.63051e-19)
(-0.0360987 0.0237878 4.96905e-19)
(-0.0326696 0.0202047 -5.77427e-19)
(-0.0287023 0.016812 1.10677e-21)
(-0.0242405 0.0137449 8.89849e-20)
(-0.0193395 0.0111574 -2.23166e-19)
(-0.014074 0.00922577 2.16941e-19)
(-0.00855515 0.00814506 -3.08485e-19)
(-0.00294037 0.0081258 -2.04248e-19)
(0.00264663 0.00943299 3.81336e-19)
(0.00819195 0.0124296 -4.1673e-19)
(0.0128353 0.0170638 -8.56588e-21)
(-0.00546107 0.0090481 -3.06898e-19)
(-0.0145225 0.0226873 3.65494e-19)
(-0.0223934 0.0324657 -1.13552e-19)
(-0.0289254 0.0391787 2.20196e-19)
(-0.0341368 0.0434322 2.3893e-19)
(-0.0381079 0.0457119 -2.11691e-19)
(-0.0409211 0.0464212 -1.41277e-19)
(-0.0426593 0.0458898 -1.69921e-19)
(-0.0434025 0.0443857 1.5627e-19)
(-0.0432249 0.0421263 -1.0403e-20)
(-0.0421933 0.0392897 2.29833e-19)
(-0.0403668 0.0360234 2.27438e-19)
(-0.0377973 0.0324533 -2.72709e-19)
(-0.0345304 0.028691 5.37455e-19)
(-0.0306071 0.0248419 -3.57524e-19)
(-0.026066 0.0210119 -6.16441e-20)
(-0.020946 0.0173157 7.00659e-19)
(-0.0152908 0.0138837 -3.25244e-19)
(-0.00915407 0.0108715 2.07794e-19)
(-0.00260882 0.00846633 4.06815e-19)
(0.00423267 0.00688942 -2.6453e-19)
(0.0112034 0.00639698 2.79218e-20)
(0.0181637 0.00733337 -1.82293e-20)
(0.0250794 0.010191 -1.09116e-19)
(0.0309388 0.014997 2.16595e-19)
(-0.00603123 0.00936705 7.01747e-20)
(-0.015857 0.0234364 -2.31914e-19)
(-0.0241313 0.0335033 1.277e-19)
(-0.0307716 0.040402 -1.54621e-21)
(-0.0358426 0.0447694 9.73563e-20)
(-0.0394616 0.0471149 -1.68547e-19)
(-0.0417427 0.0478589 9.69399e-20)
(-0.0427951 0.0473437 2.65313e-19)
(-0.042721 0.0458448 -8.09179e-21)
(-0.0416133 0.0435841 -1.36863e-19)
(-0.0395545 0.0407408 1.38231e-19)
(-0.0366175 0.0374606 -3.16556e-21)
(-0.0328661 0.033865 -4.4093e-19)
(-0.0283569 0.0300583 1.64069e-19)
(-0.0231404 0.026136 3.64055e-20)
(-0.0172632 0.0221921 -6.42769e-20)
(-0.0107707 0.0183276 -1.1481e-19)
(-0.00371085 0.0146597 4.41267e-19)
(0.00386103 0.0113335 1.07941e-19)
(0.0118725 0.00853416 -2.31657e-19)
(0.0202109 0.00649465 -2.7872e-20)
(0.0287025 0.00550623 3.2035e-19)
(0.0371971 0.00599315 -1.49893e-19)
(0.0456499 0.00860339 6.44715e-20)
(0.0528728 0.0134806 4.58316e-20)
(-0.00660048 0.00962309 -1.4062e-19)
(-0.0171618 0.0240168 1.45033e-19)
(-0.0257805 0.0342905 -8.23849e-20)
(-0.0324442 0.0413142 -2.66253e-19)
(-0.0372662 0.0457545 -2.46622e-19)
(-0.0404022 0.0481439 -1.09947e-19)
(-0.0419987 0.0489197 -9.14369e-20)
(-0.0421923 0.048436 -2.71964e-19)
(-0.0411078 0.0469766 -1.10342e-19)
(-0.038857 0.0447682 1.00974e-19)
(-0.0355393 0.0419919 -1.44866e-19)
(-0.0312424 0.0387929 -1.53643e-19)
(-0.0260443 0.0352889 -1.44679e-19)
(-0.0200151 0.0315779 2.63657e-19)
(-0.0132189 0.0277455 -5.55501e-19)
(-0.00571535 0.0238718 3.18158e-19)
(0.00243752 0.0200402 -5.45741e-19)
(0.0111807 0.0163469 -8.43424e-20)
(0.0204504 0.0129143 -3.0123e-19)
(0.0301692 0.00990781 -7.05334e-20)
(0.040222 0.00754995 -8.61967e-20)
(0.0504295 0.00614272 -2.88482e-19)
(0.0606379 0.00617401 -3.16526e-20)
(0.0708127 0.00846286 1.7721e-19)
(0.0795765 0.0133082 -4.85022e-19)
(-0.00716065 0.00981157 1.20678e-19)
(-0.0184119 0.0244151 1.63882e-19)
(-0.0272988 0.0348062 5.78172e-19)
(-0.033882 0.0418876 -1.02241e-19)
(-0.0383253 0.0463542 2.44746e-19)
(-0.0408235 0.0487609 5.86475e-19)
(-0.0415565 0.0495618 -1.60685e-19)
(-0.0406878 0.0491229 2.18607e-19)
(-0.0383651 0.0477366 1.28161e-19)
(-0.0347192 0.0456354 2.33244e-19)
(-0.0298662 0.043004 -4.69749e-20)
(-0.0239096 0.039989 3.17827e-20)
(-0.0169429 0.0367072 -8.27164e-20)
(-0.00905224 0.033253 4.48654e-19)
(-0.00031895 0.0297045 5.7578e-20)
(0.00917835 0.0261301 4.18697e-19)
(0.0193616 0.0225956 -1.07378e-19)
(0.0301511 0.0191726 3.84929e-19)
(0.0414635 0.0159517 5.41344e-20)
(0.0532054 0.0130608 1.96534e-19)
(0.0652502 0.0106841 -8.50059e-20)
(0.0774093 0.00909541 -1.51351e-20)
(0.0895308 0.00880476 4.69912e-19)
(0.101626 0.0107921 2.89464e-19)
(0.112144 0.0155377 -1.2686e-19)
(-0.00770341 0.00992902 -2.92648e-19)
(-0.0195815 0.0246203 -3.0799e-19)
(-0.0286414 0.0350324 -3.24241e-19)
(-0.0350193 0.0420975 1.19591e-19)
(-0.0389311 0.0465379 -2.41706e-19)
(-0.0406112 0.0489305 -3.62211e-20)
(-0.0402726 0.0497455 -9.60205e-20)
(-0.0381061 0.049361 -4.00293e-19)
(-0.0342811 0.0480785 -6.28085e-20)
(-0.0289472 0.0461375 1.03626e-19)
(-0.0222366 0.0437283 -3.26465e-19)
(-0.0142685 0.0410015 4.54164e-19)
(-0.00515234 0.038077 -6.18894e-19)
(0.00500785 0.03505 1.49495e-19)
(0.0161104 0.0319971 -3.813e-19)
(0.0280526 0.028981 -3.10263e-19)
(0.0407286 0.0260554 -1.77006e-20)
(0.0540268 0.0232714 -4.71179e-20)
(0.0678293 0.0206867 3.72727e-20)
(0.0820088 0.0183816 -1.78742e-19)
(0.0964092 0.016477 -1.23958e-19)
(0.110816 0.0151701 1.52638e-19)
(0.125076 0.0149212 -4.22929e-19)
(0.139295 0.0168134 1.37729e-19)
(0.151818 0.0214937 1.02905e-19)
(-0.0082204 0.00997322 -5.19576e-20)
(-0.0206431 0.0246242 -8.95542e-20)
(-0.0297601 0.0349549 3.50118e-19)
(-0.0357852 0.0419242 1.31113e-19)
(-0.0389872 0.0462808 1.74614e-19)
(-0.0396409 0.0486233 -2.34561e-19)
(-0.0379921 0.0494374 3.57381e-22)
(-0.0342582 0.049113 -1.91809e-19)
(-0.0286297 0.047961 3.56156e-19)
(-0.0212733 0.0462291 1.16775e-19)
(-0.0123369 0.0441148 1.31544e-19)
(-0.00195436 0.0417758 -5.25018e-19)
(0.00974893 0.0393389 6.49828e-19)
(0.0226509 0.0369061 -1.95854e-19)
(0.0366277 0.0345598 -1.40604e-19)
(0.0515495 0.0323667 4.22156e-19)
(0.0672761 0.0303805 1.88867e-19)
(0.0836539 0.0286444 -4.79236e-19)
(0.100514 0.0271957 -2.00519e-19)
(0.117674 0.0260736 6.06462e-19)
(0.134919 0.0253271 -4.6434e-19)
(0.151975 0.0250357 2.79773e-19)
(0.168658 0.0255113 1.56668e-19)
(0.18521 0.027814 -2.01871e-19)
(0.200043 0.0326735 -2.037e-19)
(-0.00870327 0.00994326 -1.91216e-19)
(-0.0215678 0.024422 3.08341e-19)
(-0.0306029 0.0345642 1.32257e-19)
(-0.0361021 0.0413543 -1.92279e-19)
(-0.0383883 0.0455664 -3.09642e-20)
(-0.0377768 0.0478201 -2.04094e-19)
(-0.0345464 0.0486158 -8.17835e-20)
(-0.02894 0.0483548 9.22057e-20)
(-0.0211682 0.0473571 -2.31046e-20)
(-0.0114141 0.0458789 1.75695e-19)
(0.000160206 0.0441262 -1.53221e-19)
(0.0134071 0.0422659 4.25524e-19)
(0.0281862 0.0404349 -5.29424e-19)
(0.044358 0.0387471 3.31247e-19)
(0.061777 0.0372986 4.12919e-19)
(0.0802853 0.036171 -5.98612e-19)
(0.0997064 0.0354336 -1.8271e-19)
(0.119838 0.0351439 3.08656e-19)
(0.14045 0.0353463 -1.91015e-19)
(0.161278 0.0360719 1.84865e-19)
(0.182012 0.0373266 -4.49052e-19)
(0.202264 0.039071 7.49395e-20)
(0.221738 0.0413857 2.93894e-19)
(0.240824 0.0451461 -4.73733e-19)
(0.258306 0.0509893 1.33251e-19)
(-0.00914352 0.00983937 -1.76969e-19)
(-0.0223249 0.0240116 5.75589e-19)
(-0.0311134 0.0338565 1.11274e-19)
(-0.0358847 0.0403826 -3.02677e-19)
(-0.037018 0.0443892 2.18117e-19)
(-0.0348693 0.0465158 1.11347e-19)
(-0.0297503 0.0472766 1.78875e-19)
(-0.0219292 0.047083 -1.17482e-20)
(-0.0116358 0.0462635 -1.8731e-20)
(0.000930878 0.0450822 -3.94818e-20)
(0.0155952 0.0437535 -1.73448e-19)
(0.0321963 0.0424537 -5.95007e-21)
(0.0505797 0.0413314 4.08362e-19)
(0.0705898 0.0405148 -6.72102e-19)
(0.0920617 0.0401184 4.79704e-19)
(0.114813 0.0402476 9.73662e-20)
(0.138636 0.0410028 1.7267e-19)
(0.163283 0.0424812 -8.92639e-20)
(0.188463 0.0447774 7.93893e-19)
(0.213817 0.0479806 -4.93e-19)
(0.238897 0.0521507 3.95199e-19)
(0.263101 0.0572513 9.33035e-20)
(0.285837 0.0632538 -2.90852e-19)
(0.307435 0.0709174 2.46908e-19)
(0.327436 0.0803711 3.97554e-19)
(-0.00953216 0.0096626 -5.15187e-20)
(-0.0228805 0.0233941 -2.03003e-19)
(-0.0312284 0.0328337 -3.49381e-19)
(-0.0350381 0.0390135 -2.00453e-19)
(-0.0347465 0.042757 -2.8204e-20)
(-0.030752 0.0447231 -8.00943e-20)
(-0.0233996 0.0454381 -3.73016e-19)
(-0.0129828 0.045322 6.20558e-20)
(0.000248723 0.0447103 -4.23184e-19)
(0.0160797 0.0438732 -3.29841e-20)
(0.0343197 0.0430316 -4.09274e-19)
(0.0547934 0.0423694 -1.46358e-19)
(0.0773317 0.0420443 8.42995e-20)
(0.101763 0.0421968 -4.0259e-19)
(0.127907 0.0429576 3.65495e-21)
(0.155565 0.0444557 -3.48982e-19)
(0.184513 0.0468261 1.35135e-19)
(0.214491 0.050219 -4.90075e-19)
(0.245191 0.0548109 -8.42389e-20)
(0.276229 0.060819 -1.17617e-20)
(0.307097 0.068497 -8.35451e-20)
(0.337048 0.0781028 -8.59052e-20)
(0.365109 0.0900755 -4.31871e-20)
(0.39074 0.105733 -1.73118e-19)
(0.412605 0.123817 -3.83589e-19)
(-0.0098593 0.00941455 9.38772e-20)
(-0.0231968 0.0225733 2.5742e-19)
(-0.0308775 0.0315037 3.11574e-19)
(-0.0334554 0.0372611 -2.50653e-19)
(-0.0314288 0.0406927 4.67777e-19)
(-0.0252403 0.042475 -2.55434e-19)
(-0.0152693 0.0431453 1.39411e-19)
(-0.00183637 0.0431297 2.18413e-19)
(0.0147868 0.0427682 1.99678e-19)
(0.0343654 0.0423345 9.75131e-20)
(0.0566903 0.0420523 1.58232e-19)
(0.0815667 0.0421082 9.23469e-20)
(0.108805 0.0426628 6.26492e-19)
(0.138215 0.0438595 -4.56826e-19)
(0.169596 0.0458338 5.23302e-19)
(0.202738 0.0487211 -2.18128e-19)
(0.237417 0.0526683 4.72269e-19)
(0.273396 0.0578469 -2.24408e-20)
(0.31043 0.0644747 -9.83179e-20)
(0.348277 0.0728461 -1.81711e-20)
(0.386702 0.0833724 3.75649e-19)
(0.425529 0.096686 -3.69417e-19)
(0.464963 0.114071 2.5927e-19)
(0.505699 0.137348 2.89532e-19)
(0.544392 0.160433 6.17335e-20)
(-0.0101133 0.00909674 6.4977e-20)
(-0.0232307 0.0215545 -3.68482e-19)
(-0.0299805 0.0298799 -1.34688e-19)
(-0.0310167 0.03515 1.23736e-19)
(-0.0269033 0.0382346 -3.83637e-19)
(-0.01813 0.0398266 -7.61483e-20)
(-0.00511369 0.0404716 5.3048e-20)
(0.0117945 0.0405997 2.10567e-19)
(0.0322959 0.0405522 -5.35554e-19)
(0.0561294 0.0406023 4.08989e-20)
(0.0830579 0.0409713 -1.57873e-19)
(0.112857 0.0418416 -4.81601e-19)
(0.145304 0.0433671 3.29285e-19)
(0.180172 0.0456814 1.4154e-20)
(0.217229 0.0489053 -9.95203e-21)
(0.256234 0.053154 3.35153e-19)
(0.296942 0.0585446 -5.9431e-19)
(0.339115 0.0652041 4.7193e-19)
(0.382536 0.0732801 -8.74468e-20)
(0.427035 0.082951 2.77164e-19)
(0.472517 0.0944315 -4.57264e-19)
(0.519031 0.108002 2.63474e-19)
(0.567038 0.124218 -4.74593e-19)
(0.617431 0.143597 4.92978e-19)
(0.665339 0.159944 -1.5629e-19)
(-0.01028 0.00871037 4.37565e-19)
(-0.0229321 0.0203448 -7.41017e-20)
(-0.0284466 0.027981 5.49034e-19)
(-0.027588 0.032715 2.55706e-19)
(-0.0209916 0.035437 2.05917e-20)
(-0.009199 0.0368546 1.12902e-19)
(0.00733054 0.0375192 2.73666e-20)
(0.0282087 0.0378617 4.64525e-19)
(0.053101 0.0382208 1.50268e-19)
(0.0817083 0.0388645 -2.02513e-20)
(0.113751 0.0400054 4.0707e-20)
(0.148957 0.0418136 1.5728e-19)
(0.187049 0.0444259 1.31722e-19)
(0.227744 0.0479527 2.82758e-19)
(0.270744 0.052484 -3.23168e-19)
(0.315749 0.0580939 9.78853e-20)
(0.362453 0.0648445 2.97946e-20)
(0.410565 0.0727885 1.45736e-19)
(0.45982 0.0819702 3.96238e-19)
(0.510003 0.0924231 -2.58945e-19)
(0.56097 0.104157 2.23688e-20)
(0.612671 0.117145 -3.69703e-19)
(0.665279 0.131445 3.51456e-19)
(0.719216 0.147267 -3.42688e-19)
(0.769609 0.160637 3.26033e-20)
(-0.0103422 0.00825624 -3.65068e-19)
(-0.0222432 0.0189527 2.89575e-19)
(-0.0261736 0.025831 -4.74547e-19)
(-0.023021 0.0300005 4.12092e-20)
(-0.0135 0.0323692 3.37957e-19)
(0.00178954 0.0336567 -5.66052e-19)
(0.0223379 0.0344169 4.51249e-19)
(0.0477092 0.0350776 -7.19291e-19)
(0.0775194 0.0359704 1.43978e-19)
(0.111414 0.0373519 3.0901e-20)
(0.149051 0.0394187 2.44675e-19)
(0.190083 0.0423198 -8.15981e-19)
(0.234154 0.0461639 1.414e-19)
(0.28089 0.0510263 1.50248e-19)
(0.329901 0.0569527 -9.03653e-20)
(0.380787 0.0639631 -5.62173e-19)
(0.433147 0.0720531 2.65425e-19)
(0.486594 0.0811947 4.98262e-19)
(0.540765 0.0913343 -5.27431e-19)
(0.595342 0.102387 3.83779e-19)
(0.650061 0.114225 -4.99693e-19)
(0.704715 0.12666 3.64256e-19)
(0.759193 0.139526 -1.02141e-19)
(0.813554 0.153015 5.85515e-19)
(0.86368 0.165044 -6.81974e-19)
(-0.010279 0.00773478 5.23041e-20)
(-0.0210978 0.0173881 4.27855e-20)
(-0.023048 0.0234585 1.05534e-19)
(-0.0171552 0.0270605 3.78746e-19)
(-0.0042231 0.0291147 -1.19053e-20)
(0.0150806 0.0303494 8.55958e-20)
(0.0401838 0.0313166 3.82796e-19)
(0.070588 0.0324361 1.55178e-19)
(0.10584 0.0340262 -5.13382e-20)
(0.145507 0.0363246 4.389e-19)
(0.189154 0.0395034 -5.01678e-19)
(0.236333 0.0436794 7.72551e-19)
(0.286572 0.0489225 -3.076e-19)
(0.339375 0.0552606 5.60046e-19)
(0.394229 0.0626847 -1.89702e-19)
(0.450607 0.0711514 6.93923e-20)
(0.507986 0.0805861 8.43216e-20)
(0.565859 0.0908837 -1.63586e-19)
(0.623753 0.101908 1.37249e-19)
(0.681238 0.113491 8.85645e-20)
(0.73794 0.125422 1.22763e-19)
(0.793532 0.137446 2.61946e-19)
(0.84774 0.14931 -2.17207e-20)
(0.900446 0.161186 -1.20502e-19)
(0.948603 0.172442 3.72379e-19)
(-0.0100656 0.00714625 -3.05779e-19)
(-0.0194211 0.0156628 3.35292e-20)
(-0.0189458 0.020898 -6.07029e-19)
(-0.00982005 0.0239582 -1.45899e-19)
(0.00705102 0.0257701 -2.74636e-19)
(0.0309186 0.0270655 -5.92402e-20)
(0.0611316 0.0283891 -2.97168e-19)
(0.0971075 0.0301456 -1.78378e-19)
(0.138298 0.0326318 2.37244e-19)
(0.184161 0.0360573 -3.97619e-19)
(0.234137 0.0405578 -1.10874e-19)
(0.28764 0.0462066 4.3868e-21)
(0.344051 0.0530215 -7.54714e-19)
(0.402723 0.0609718 3.21924e-19)
(0.46299 0.0699837 -4.71517e-19)
(0.524185 0.0799451 -1.47743e-20)
(0.585654 0.0907109 9.37486e-20)
(0.646776 0.102107 -1.52347e-19)
(0.70698 0.113932 -1.34018e-19)
(0.765757 0.125963 6.74563e-20)
(0.822669 0.137954 7.58961e-20)
(0.877342 0.149632 -4.92518e-19)
(0.929458 0.160732 2.81677e-19)
(0.97885 0.171391 1.43769e-19)
(1.02353 0.181997 4.13239e-20)
(-0.00967293 0.00649134 3.12973e-19)
(-0.0171303 0.0137916 -3.46524e-19)
(-0.0137344 0.0181896 4.89188e-19)
(-0.000839177 0.0207661 7.64678e-20)
(0.0205337 0.0224442 -2.36102e-20)
(0.0495364 0.0239523 -1.67291e-19)
(0.0854166 0.0258197 2.52922e-20)
(0.127479 0.0284268 2.56729e-19)
(0.175049 0.0320384 -3.55711e-19)
(0.227436 0.0368229 3.75076e-19)
(0.283921 0.0428664 -3.97602e-20)
(0.343743 0.0501839 1.7602e-20)
(0.406106 0.0587278 4.93192e-19)
(0.470189 0.0683971 6.63302e-19)
(0.535163 0.079045 -2.60323e-19)
(0.600219 0.0904878 4.64321e-19)
(0.664588 0.102513 2.37039e-19)
(0.727562 0.114888 -1.45104e-19)
(0.788518 0.127367 4.62657e-19)
(0.846921 0.139696 -1.70479e-20)
(0.902339 0.151621 -4.48491e-19)
(0.954433 0.162888 4.75826e-19)
(1.00294 0.173258 6.97897e-20)
(1.04774 0.182838 -2.98297e-19)
(1.08777 0.192674 9.4509e-20)
(-0.00906843 0.00577186 -4.35711e-19)
(-0.0141359 0.0117937 4.72456e-19)
(-0.00727602 0.0153812 -3.01895e-19)
(0.00996431 0.0175669 -9.4889e-20)
(0.0364275 0.0192578 -2.13347e-19)
(0.0711437 0.0211692 3.79278e-19)
(0.11323 0.0238041 -2.21261e-19)
(0.161843 0.0275062 -1.01831e-19)
(0.216141 0.0324939 -2.92787e-19)
(0.275248 0.038879 7.61679e-21)
(0.338243 0.0466812 -1.15449e-19)
(0.404161 0.0558411 5.64116e-20)
(0.472004 0.0662321 -5.95904e-19)
(0.540768 0.0776719 1.70342e-19)
(0.60947 0.0899359 -2.06456e-19)
(0.677182 0.10277 -1.6713e-19)
(0.743056 0.115902 5.1686e-20)
(0.806351 0.129055 -2.45963e-19)
(0.866451 0.141958 -1.06661e-19)
(0.922871 0.154352 3.06674e-19)
(0.975258 0.166 1.31225e-19)
(1.02338 0.176689 -5.58397e-19)
(1.06712 0.18623 4.12984e-19)
(1.10648 0.194726 -7.85347e-20)
(1.14107 0.203567 -1.64848e-19)
(-0.00821617 0.00499154 -1.59e-19)
(-0.0103436 0.00969386 -8.82477e-20)
(0.000569368 0.0125295 -1.77961e-20)
(0.0227618 0.0144545 1.30628e-19)
(0.054917 0.0163435 1.42945e-19)
(0.0959134 0.018886 1.25146e-19)
(0.1447 0.0225441 1.56358e-19)
(0.200247 0.0276087 2.3976e-19)
(0.261498 0.0342335 3.67949e-19)
(0.32735 0.0424545 3.65442e-19)
(0.396645 0.0522065 1.93658e-19)
(0.46819 0.0633391 -5.21883e-20)
(0.540779 0.0756335 1.31082e-20)