/*--------------------------------*- C++ -*----------------------------------*\
  =========                 |
  \\      /  F ield         | OpenFOAM: The Open Source CFD Toolbox
   \\    /   O peration     | Website:  https://openfoam.org
    \\  /    A nd           | Version:  6.0
     \\/     M anipulation  |
\*---------------------------------------------------------------------------*/
FoamFile
{
    version     2.0;
    format      ascii;
    class       volVectorField;
    location    "30";
    object      U;
}
// * * * * * * * * * * * * * * * * * * * * * * * * * * * * * * * * * * * * * //

dimensions      [0 1 -1 0 0 0 0];

internalField   nonuniform List<vector> 
4000
(
(0.0915761 0.00722458 5.65409e-20)
(0.292973 0.0380175 -3.07187e-20)
(0.499412 0.0915307 3.61456e-20)
(0.694376 0.153086 -2.6884e-20)
(0.864269 0.212924 -1.2044e-20)
(1.00144 0.264986 3.64032e-21)
(1.10448 0.306131 -1.18103e-20)
(1.17656 0.335781 4.24574e-20)
(1.22331 0.355078 -3.53248e-20)
(1.25094 0.36598 8.28388e-21)
(1.26513 0.3706 -6.17487e-21)
(1.27047 0.370822 -4.01229e-20)
(1.27036 0.368146 3.88904e-20)
(1.26716 0.363669 1.47796e-20)
(1.26242 0.358148 -1.47045e-20)
(1.25712 0.352077 3.44719e-20)
(1.25185 0.345754 -5.19517e-22)
(1.24698 0.339383 -3.33813e-20)
(1.24274 0.333365 2.47142e-20)
(1.23938 0.327656 7.76163e-21)
(0.105408 0.0119598 -1.98109e-20)
(0.326972 0.0527158 5.74603e-20)
(0.545477 0.115176 6.63396e-20)
(0.744548 0.182904 -3.12671e-20)
(0.911786 0.24556 5.44069e-20)
(1.04171 0.297473 8.60071e-20)
(1.13529 0.3364 -4.72478e-21)
(1.1977 0.36274 -1.47161e-20)
(1.2358 0.378429 7.27633e-20)
(1.25642 0.385936 3.54383e-20)
(1.26533 0.387632 -6.40222e-21)
(1.26693 0.385471 5.2715e-20)
(1.26429 0.380914 -5.64143e-20)
(1.25947 0.374972 8.78005e-20)
(1.25373 0.368306 -1.46366e-20)
(1.24784 0.36133 4.18075e-20)
(1.24225 0.354276 7.49147e-21)
(1.23723 0.347315 2.98441e-20)
(1.23295 0.340844 -2.84184e-20)
(1.22958 0.334682 6.80003e-21)
(0.119493 0.017772 -3.08261e-20)
(0.360452 0.0697713 7.33154e-20)
(0.589332 0.141415 5.44189e-20)
(0.790523 0.214799 -8.22906e-21)
(0.953453 0.279404 8.45986e-20)
(1.07519 0.330304 -6.30596e-20)
(1.15917 0.366365 -4.87745e-21)
(1.21237 0.389032 5.56568e-20)
(1.24269 0.400993 1.76858e-20)
(1.25729 0.405154 2.46663e-20)
(1.26187 0.40406 -3.63796e-20)
(1.26054 0.399674 9.46537e-20)
(1.25603 0.393379 1.76001e-20)
(1.25007 0.386083 -8.36574e-20)
(1.24367 0.378351 1.21906e-19)
(1.23743 0.370518 -1.43671e-19)
(1.2317 0.36276 -6.57586e-20)
(1.22666 0.355225 1.09409e-20)
(1.22242 0.348303 6.37953e-20)
(1.21912 0.341677 -1.19953e-19)
(0.133602 0.0246748 -6.95511e-20)
(0.392831 0.0890823 -1.63962e-19)
(0.630249 0.16997 -1.41645e-19)
(0.831671 0.248368 -1.92764e-19)
(0.988927 0.314034 -1.0923e-19)
(1.10189 0.363125 -2.26344e-19)
(1.17644 0.395786 2.87555e-20)
(1.2211 0.414523 -1.1988e-19)
(1.24455 0.422719 -1.31318e-20)
(1.2541 0.423628 1.96857e-20)
(1.25522 0.419893 -4.3171e-20)
(1.25168 0.413431 5.37983e-20)
(1.24584 0.405523 9.56771e-20)
(1.23913 0.396964 -1.34509e-19)
(1.23236 0.388226 2.15128e-20)
(1.22597 0.37957 6.21801e-20)
(1.22023 0.371125 1.03956e-19)
(1.21527 0.363025 -8.96669e-20)
(1.21113 0.35565 -4.301e-21)
(1.20797 0.348549 1.04991e-19)
(0.147493 0.0326526 -1.31217e-19)
(0.423542 0.110481 3.59558e-19)
(0.667578 0.200499 -6.33986e-20)
(0.8675 0.283175 8.39642e-20)
(1.01802 0.349027 -8.21924e-20)
(1.12195 0.395603 2.52145e-19)
(1.18745 0.424441 -3.99558e-20)
(1.22439 0.439091 2.37885e-20)
(1.24192 0.443551 -1.19647e-20)
(1.24733 0.441333 3.89028e-20)
(1.24578 0.435109 2.51142e-20)
(1.24063 0.426711 3.16063e-20)
(1.23392 0.417298 -8.98704e-20)
(1.22679 0.40755 1.31303e-19)
(1.21987 0.39785 -9.97272e-20)
(1.21349 0.388397 1.8808e-20)
(1.20786 0.379278 -6.37613e-20)
(1.20307 0.370619 1.35686e-20)
(1.1991 0.362788 1.52782e-20)
(1.19612 0.355204 -1.42521e-19)
(0.160921 0.0416591 9.54379e-21)
(0.452054 0.13374 -1.81124e-19)
(0.700763 0.23261 9.99518e-20)
(0.897651 0.318767 -3.48703e-19)
(1.04066 0.383972 1.68783e-19)
(1.13559 0.427423 -2.89236e-19)
(1.19263 0.452124 -2.25623e-19)
(1.22271 0.462616 -8.60333e-21)
(1.23526 0.463419 -7.63629e-20)
(1.23738 0.45822 -2.37236e-19)
(1.23384 0.449659 -2.95808e-20)
(1.22762 0.439454 -2.26683e-19)
(1.22041 0.428628 4.1069e-20)
(1.21313 0.417753 -3.25274e-20)
(1.20624 0.407128 1.9057e-20)
(1.20001 0.396897 -1.51132e-19)
(1.19459 0.387114 7.9942e-21)
(1.19004 0.377902 3.02763e-20)
(1.18631 0.369614 -6.98351e-20)
(1.18359 0.361544 6.09449e-20)
(0.173643 0.0516182 -7.44439e-20)
(0.477884 0.158576 3.31349e-19)
(0.729356 0.265872 2.39614e-21)
(0.921897 0.354679 -2.86757e-19)
(1.05692 0.418465 2.16345e-19)
(1.14308 0.458291 9.08123e-20)
(1.19237 0.478639 1.84176e-20)
(1.2165 0.484974 -1.5269e-19)
(1.22498 0.48224 2.47935e-19)
(1.22458 0.474218 -1.44828e-19)
(1.21966 0.463469 5.2531e-20)
(1.21281 0.451573 2.44065e-19)
(1.20543 0.439418 -2.18898e-19)
(1.19822 0.427469 2.40259e-19)
(1.19153 0.41595 -1.55695e-19)
(1.18557 0.404959 -3.05544e-20)
(1.18044 0.394525 3.68769e-20)
(1.1762 0.384767 4.63129e-20)
(1.17277 0.376021 6.36512e-20)
(1.17037 0.367471 3.83802e-20)
(0.18543 0.0624244 2.97863e-20)
(0.500612 0.184657 -2.9817e-19)
(0.753011 0.299825 5.28723e-20)
(0.940128 0.390446 6.91667e-19)
(1.06693 0.452122 -6.38111e-20)
(1.14475 0.487924 1.9132e-19)
(1.18709 0.503797 1.19182e-19)
(1.20618 0.506037 1.9875e-20)
(1.21142 0.499916 -1.3759e-19)
(1.20919 0.489235 2.25393e-19)
(1.20343 0.476442 -2.60351e-20)
(1.19634 0.462963 3.39865e-19)
(1.18905 0.449553 1.30337e-19)
(1.18211 0.436578 8.12981e-20)
(1.17576 0.424198 -1.69305e-19)
(1.17017 0.412467 3.56718e-20)
(1.16543 0.401394 1.30979e-19)
(1.16157 0.391101 3.34819e-20)
(1.15849 0.381902 -1.58029e-19)
(1.15648 0.372883 -3.9343e-20)
(0.196066 0.0739458 -1.65871e-19)
(0.519886 0.211619 5.34458e-19)
(0.771491 0.333994 -2.90858e-19)
(0.952335 0.425611 -2.67483e-19)
(1.0709 0.484573 -2.32584e-19)
(1.14094 0.516055 -1.95758e-19)
(1.17718 0.527415 -2.40726e-19)
(1.19212 0.525671 3.00931e-19)
(1.19489 0.516333 -2.13871e-19)
(1.19145 0.503163 -1.71383e-20)
(1.1853 0.488464 -1.92292e-21)
(1.1783 0.473503 -4.06253e-20)
(1.17135 0.458909 -1.03918e-19)
(1.16485 0.444955 -1.15143e-19)
(1.15898 0.431745 -6.15664e-21)
(1.15386 0.419296 -2.55556e-20)
(1.14958 0.407602 -6.21606e-20)
(1.14617 0.396788 -1.88173e-20)
(1.14351 0.387144 2.16345e-20)
(1.14195 0.377679 -1.31339e-19)
(0.20536 0.0860269 2.90463e-19)
(0.535428 0.239066 3.00026e-19)
(0.78466 0.367898 -1.86172e-19)
(0.958604 0.45973 1.1467e-19)
(1.0691 0.515467 1.97556e-19)
(1.13204 0.542433 -4.03996e-20)
(1.16304 0.54931 4.86279e-20)
(1.17465 0.543737 5.40305e-20)
(1.17566 0.531368 8.9629e-20)
(1.17156 0.515879 -1.04571e-19)
(1.16542 0.499406 5.1253e-20)
(1.1588 0.48306 -3.44288e-20)
(1.15239 0.467349 1.55026e-19)
(1.1465 0.452466 6.62855e-20)
(1.14122 0.43846 -1.52524e-19)
(1.13667 0.425319 8.29958e-20)
(1.13294 0.413026 4.15108e-20)
(1.13003 0.401708 -7.39121e-20)
(1.12786 0.391634 2.0153e-19)
(1.12681 0.381757 -1.47253e-19)
(0.213148 0.0984924 -2.13568e-19)
(0.54704 0.266587 -2.76938e-19)
(0.792478 0.401059 1.93335e-19)
(0.959096 0.492377 -1.78433e-19)
(1.06185 0.544477 -1.67103e-20)
(1.11842 0.566817 -1.93792e-19)
(1.14501 0.569306 1.61327e-19)
(1.15409 0.560088 2.9349e-19)
(1.15398 0.544887 -4.07966e-19)
(1.14969 0.527248 2.10708e-20)
(1.1439 0.509131 1.56856e-20)
(1.13791 0.491494 -7.97592e-20)
(1.13225 0.474734 5.62025e-20)
(1.1271 0.458971 -2.29462e-20)
(1.12255 0.444207 1.49646e-19)
(1.11866 0.430406 -1.61263e-19)
(1.11554 0.417539 -5.37969e-20)
(1.11321 0.405738 1.42915e-19)
(1.11159 0.395252 -2.07901e-19)
(1.11112 0.385006 1.314e-19)
(0.219296 0.111152 4.42974e-19)
(0.554601 0.293761 3.90974e-19)
(0.794991 0.433012 -6.57923e-20)
(0.954039 0.52315 -8.27779e-21)
(1.04949 0.571293 -1.97873e-19)
(1.10044 0.588983 8.43166e-20)
(1.12346 0.587231 4.07897e-19)
(1.13071 0.574581 -3.57408e-19)
(1.13004 0.556753 2.2252e-19)
(1.12599 0.537133 -1.90067e-20)
(1.12086 0.517498 1.33502e-19)
(1.11573 0.498662 -3.49169e-20)
(1.11098 0.48092 7.88312e-20)
(1.10673 0.464328 9.88787e-20)
(1.103 0.44885 -5.73734e-20)
(1.09987 0.434422 6.55822e-20)
(1.09745 0.421009 -8.82496e-20)
(1.09577 0.408746 2.27457e-19)
(1.09477 0.397866 -1.37578e-19)
(1.09495 0.3873 9.84948e-20)
(0.223704 0.123803 -2.1497e-19)
(0.558064 0.320172 -4.00865e-19)
(0.792324 0.463312 -2.76639e-19)
(0.943717 0.551675 -1.91143e-20)
(1.03238 0.595634 6.53174e-20)
(1.07849 0.608721 -3.58827e-20)
(1.09871 0.602921 -2.3179e-19)
(1.10479 0.58707 -9.96087e-20)
(1.10407 0.566827 -1.79032e-19)
(1.1006 0.545393 -8.29186e-20)
(1.09641 0.524364 4.21207e-20)
(1.09233 0.504418 -1.99688e-19)
(1.08866 0.485762 -4.34581e-20)
(1.08544 0.468396 -4.11899e-20)
(1.08266 0.452247 -1.33883e-19)
(1.08039 0.43723 5.88352e-20)
(1.07873 0.4233 4.36585e-21)
(1.07776 0.410591 5.07659e-20)
(1.07746 0.399327 -2.14268e-20)
(1.07836 0.38849 -6.64539e-20)
(0.226307 0.136238 4.96785e-19)
(0.557457 0.345409 4.32333e-19)
(0.784674 0.49154 5.31417e-19)
(0.928459 0.577605 -5.53448e-20)
(1.01092 0.617241 -1.87446e-19)
(1.05294 0.625839 5.60043e-19)
(1.07108 0.616222 -2.72606e-19)
(1.07659 0.597418 2.98363e-19)
(1.07624 0.574974 -5.31244e-20)
(1.07368 0.551891 1.77394e-19)
(1.07063 0.52959 2.03943e-20)
(1.06779 0.508622 7.68326e-20)
(1.06534 0.489119 -1.66609e-20)
(1.06328 0.471033 7.21354e-20)
(1.06158 0.454259 -4.98642e-20)
(1.06027 0.438692 8.05361e-21)
(1.05946 0.424274 2.58878e-20)
(1.05927 0.411131 3.65507e-20)
(1.05973 0.399485 -1.5663e-21)
(1.0614 0.388431 1.12903e-20)
(0.227074 0.148249 -1.51936e-19)
(0.552874 0.369084 -4.23413e-19)
(0.772295 0.517307 -2.5695e-19)
(0.908629 0.600632 -4.45828e-19)
(0.985491 0.635884 4.7319e-19)
(1.02417 0.640163 -3.24357e-19)
(1.04089 0.62699 2.02196e-19)
(1.04634 0.605495 -7.27964e-20)
(1.04675 0.581068 -8.04649e-20)
(1.04536 0.556501 -5.56374e-20)
(1.04365 0.533046 2.95343e-20)
(1.04218 0.511142 2.91751e-20)
(1.04108 0.490855 1.47516e-20)
(1.04031 0.472099 -3.03008e-20)
(1.03981 0.454745 -9.01241e-21)
(1.03958 0.438665 3.23286e-20)
(1.03972 0.423787 -1.6445e-20)
(1.04037 0.410218 7.88136e-21)
(1.04165 0.3982 7.93941e-21)
(1.04412 0.387004 1.7407e-20)
(0.226011 0.15963 6.61904e-19)
(0.544468 0.390829 3.08556e-19)
(0.755496 0.540264 2.88881e-19)
(0.884625 0.620478 -1.68363e-19)
(0.956514 0.651359 1.89851e-20)
(0.992539 0.651541 2.33979e-19)
(1.00844 0.6351 2.75239e-20)
(1.01429 0.611186 5.06548e-20)
(1.01577 0.584995 5.1733e-20)
(1.01576 0.55911 -4.70453e-21)
(1.01554 0.534619 1.39467e-20)
(1.01556 0.511862 -1.11259e-20)
(1.01593 0.49085 -1.65283e-20)
(1.01657 0.471467 -2.87087e-21)
(1.0174 0.453565 8.0289e-21)
(1.01838 0.437001 4.44321e-21)
(1.01957 0.421682 -7.99345e-21)
(1.02115 0.407688 -4.48439e-22)
(1.02331 0.395301 3.74702e-20)
(1.02662 0.38406 -3.45266e-20)
(0.223156 0.170184 -4.67364e-19)
(0.532451 0.410311 -4.02129e-19)
(0.734631 0.560099 1.87811e-19)
(0.856863 0.636906 -2.26349e-19)
(0.924402 0.663495 -1.82289e-20)
(0.958419 0.659843 2.03757e-20)
(0.974039 0.640443 -3.2061e-20)
(0.980667 0.614389 -3.15157e-20)
(0.983484 0.58666 -4.15779e-20)
(0.985034 0.559623 -2.82655e-20)
(0.986416 0.534216 -2.67904e-20)
(0.988023 0.510688 2.59699e-20)
(0.989931 0.489006 -9.26875e-22)
(0.992079 0.469029 6.40859e-21)
(0.994362 0.450599 5.1055e-21)
(0.996697 0.433563 -5.67181e-20)
(0.999095 0.417808 -4.97532e-20)
(1.00171 0.403356 -5.38048e-20)
(1.00488 0.390519 -8.60348e-22)
(1.00929 0.379241 8.3382e-20)
(0.21858 0.179726 4.23582e-19)
(0.517081 0.427227 1.96446e-20)
(0.710087 0.57654 -4.39032e-20)
(0.825783 0.649713 5.02829e-20)
(0.889575 0.672149 1.39643e-19)
(0.922175 0.664962 -1.08135e-19)
(0.937982 0.642931 2.04028e-20)
(0.945721 0.615026 -3.98663e-20)
(0.950083 0.585987 -1.54126e-20)
(0.953318 0.557969 -9.93729e-22)
(0.95638 0.531769 -4.78717e-20)
(0.959614 0.507553 -4.04852e-20)
(0.963103 0.485246 4.41593e-20)
(0.966813 0.464694 -1.67398e-20)
(0.970659 0.445734 -1.77818e-19)
(0.974518 0.428222 1.74071e-19)
(0.978312 0.412024 -1.04569e-19)
(0.982203 0.397032 -6.64435e-20)
(0.986757 0.383478 8.33148e-20)
(0.99275 0.371929 -1.03078e-19)
(0.212384 0.188086 -9.02298e-20)
(0.498656 0.441314 9.76712e-20)
(0.682283 0.589361 5.0185e-20)
(0.791836 0.658737 -7.42414e-20)
(0.852456 0.677208 2.54516e-20)
(0.884174 0.666816 -4.54562e-20)
(0.900572 0.642498 -1.50254e-20)
(0.909692 0.61304 1.68693e-20)
(0.915763 0.582928 -1.24272e-21)
(0.920768 0.554111 -1.0681e-19)
(0.925541 0.527247 2.66885e-20)
(0.930395 0.502425 7.13059e-21)
(0.935432 0.479525 1.27437e-19)
(0.940676 0.458372 -3.25718e-19)
(0.946094 0.438804 3.03274e-19)
(0.951566 0.420708 1.61297e-19)
(0.956958 0.403942 -3.28745e-20)
(0.962512 0.388194 2.6199e-20)
(0.969084 0.373477 2.88952e-19)
(0.976957 0.361312 -1.20455e-19)
(0.204693 0.195113 -2.52785e-20)
(0.477512 0.45235 5.96435e-20)
(0.65166 0.598378 -5.4562e-20)
(0.755481 0.663851 7.12132e-20)
(0.813472 0.67859 -3.40184e-20)
(0.844784 0.665348 2.9176e-20)
(0.86212 0.6391 2.60891e-20)
(0.87284 0.608399 -7.24276e-20)
(0.880738 0.577468 7.2517e-20)
(0.887562 0.548056 5.09942e-20)
(0.894038 0.520691 2.59898e-20)
(0.900447 0.49538 3.94458e-21)
(0.906909 0.471943 1.04017e-19)
(0.913498 0.450156 -1.04995e-19)
(0.920249 0.429817 1.24945e-19)
(0.927095 0.410796 -2.61567e-19)
(0.93395 0.392903 2.92419e-19)
(0.941242 0.375528 -2.51221e-19)
(0.949925 0.358423 -1.69388e-19)
(0.958902 0.344973 2.89496e-19)
(0.195655 0.200679 1.82794e-20)
(0.454009 0.460154 -1.87379e-20)
(0.618674 0.60345 -9.78192e-21)
(0.717185 0.664965 -4.53134e-20)
(0.77305 0.676237 1.20125e-20)
(0.804378 0.660521 5.26707e-21)
(0.822943 0.63271 -1.63778e-19)
(0.83544 0.601087 1.09129e-19)
(0.845257 0.569611 1.09053e-19)
(0.853929 0.539843 -1.52776e-19)
(0.862087 0.512197 1.79284e-19)
(0.869975 0.486612 -6.85317e-20)
(0.877699 0.462854 1.34932e-19)
(0.885334 0.440639 -2.15485e-19)
(0.89293 0.41968 4.48418e-19)
(0.900448 0.399731 -1.01354e-19)
(0.907912 0.380395 -2.79827e-20)
(0.915978 0.360453 2.94957e-19)
(0.925425 0.33801 -1.43621e-19)
(0.931405 0.315515 6.3502e-20)
(0.185439 0.204674 -6.19279e-20)
(0.428525 0.464588 7.70117e-20)
(0.58379 0.604477 -3.26191e-20)
(0.677414 0.662022 4.72809e-20)
(0.731616 0.670122 -2.37153e-20)
(0.763326 0.652316 -1.63486e-19)
(0.783366 0.623316 2.50568e-19)
(0.797782 0.591096 1.71724e-20)
(0.80959 0.559354 -2.68053e-20)
(0.820142 0.529482 4.98008e-21)
(0.829988 0.501804 8.22e-20)
(0.839338 0.476219 1.41669e-19)
(0.848274 0.452486 8.50434e-20)
(0.856832 0.430332 -2.02219e-19)
(0.864999 0.409511 -5.79708e-20)
(0.872713 0.389834 -1.01545e-20)
(0.880069 0.371043 3.79365e-20)
(0.887646 0.352466 5.09489e-21)
(0.895407 0.333405 4.33129e-19)
(0.8988 0.315942 -3.02373e-19)
(0.174222 0.207011 1.62027e-19)
(0.401453 0.465548 -2.51833e-20)
(0.547477 0.601397 -1.13855e-19)
(0.636633 0.654996 3.71115e-19)
(0.689589 0.660238 7.22257e-20)
(0.721998 0.640734 -2.23016e-19)
(0.74371 0.610917 2.0901e-19)
(0.760156 0.578423 -4.73773e-20)
(0.774012 0.546692 1.85689e-19)
(0.786471 0.51696 8.50137e-20)
(0.798027 0.489473 -4.09511e-19)
(0.808876 0.464097 -4.75561e-20)
(0.819104 0.440583 5.70464e-19)
(0.828745 0.418666 -6.98328e-19)
(0.83778 0.398109 6.45924e-19)
(0.846138 0.378718 2.2378e-19)
(0.853881 0.360223 -7.96013e-19)
(0.861399 0.342062 3.84605e-19)
(0.868526 0.323932 -7.90853e-20)
(0.87184 0.308167 9.22955e-20)
(0.162197 0.207626 -2.9607e-19)
(0.373191 0.462974 -3.0529e-19)
(0.510202 0.594188 2.08635e-19)
(0.595297 0.643895 -2.62097e-19)
(0.647382 0.646605 -7.17074e-19)
(0.680755 0.625796 -2.36729e-20)
(0.704298 0.595527 -2.12719e-19)
(0.722854 0.563076 1.0675e-20)
(0.738794 0.53163 -4.17873e-19)
(0.753175 0.502285 -4.2525e-19)
(0.766444 0.475221 -2.89094e-19)
(0.778793 0.450285 -1.19567e-20)
(0.790316 0.42723 -7.16034e-19)
(0.801059 0.40581 -5.54247e-21)
(0.811027 0.385815 3.49147e-19)
(0.820187 0.367087 -3.47332e-19)
(0.82861 0.349412 -2.67758e-19)
(0.836617 0.332368 2.57743e-19)
(0.844034 0.315773 -1.84968e-19)
(0.848056 0.301476 3.56148e-20)
(0.14956 0.206479 2.369e-19)
(0.344141 0.456845 1.84037e-19)
(0.472426 0.582865 -6.91948e-21)
(0.553854 0.628758 -1.5037e-19)
(0.605397 0.629267 3.67387e-19)
(0.63995 0.607538 5.9007e-19)
(0.665443 0.577175 -6.11407e-20)
(0.686163 0.545072 1.12117e-20)
(0.704207 0.514172 1.15477e-19)
(0.720521 0.485442 2.62339e-19)
(0.73552 0.459009 3.80142e-19)
(0.7494 0.434706 -3.07479e-19)
(0.762268 0.412288 3.03963e-19)
(0.774189 0.391522 -1.0426e-19)
(0.785187 0.372212 3.54159e-19)
(0.79526 0.354208 -1.37803e-19)
(0.804508 0.337322 -3.4208e-19)
(0.813253 0.321221 2.06055e-19)
(0.821349 0.305837 -2.93795e-19)
(0.82635 0.292727 -3.34076e-19)
(0.136513 0.203551 1.04792e-19)
(0.314698 0.447174 1.91034e-19)
(0.434599 0.567478 -2.01099e-19)
(0.512734 0.609651 9.23919e-21)
(0.564021 0.608291 3.45684e-20)
(0.599924 0.58602 2.79471e-19)
(0.627445 0.555905 -4.13405e-19)
(0.650354 0.524443 3.93041e-19)
(0.670501 0.494337 -3.77647e-20)
(0.688741 0.466439 1.07581e-19)
(0.70547 0.44083 1.73389e-19)
(0.720891 0.417333 -3.30559e-19)
(0.735133 0.395711 1.58575e-19)
(0.748285 0.375743 1.50606e-19)
(0.760397 0.357246 5.55598e-20)
(0.771495 0.340079 -2.84913e-19)
(0.781708 0.324067 9.59774e-19)
(0.791352 0.308926 -5.37118e-19)
(0.800278 0.294622 9.76275e-19)
(0.806315 0.282443 -6.33512e-20)
(0.123256 0.198844 7.58383e-20)
(0.28525 0.434012 4.50715e-19)
(0.397156 0.548113 1.59953e-19)
(0.472353 0.586674 3.34123e-19)
(0.523625 0.583773 8.70437e-20)
(0.561004 0.561323 -5.33796e-19)
(0.590596 0.531782 8.27731e-19)
(0.61569 0.501237 4.28781e-19)
(0.637919 0.47216 1.79818e-20)
(0.658062 0.445295 5.55728e-19)
(0.676502 0.420686 8.97375e-20)
(0.69346 0.39815 5.82506e-20)
(0.709083 0.377457 3.32527e-19)
(0.723486 0.358395 -1.24289e-19)
(0.736743 0.340792 -1.31222e-19)
(0.748911 0.32451 7.75184e-19)
(0.760144 0.309386 -6.47917e-19)
(0.770747 0.295171 2.51472e-20)
(0.780564 0.281849 8.20128e-19)
(0.787663 0.270478 -7.92095e-22)
(0.109988 0.19238 -9.66734e-19)
(0.256173 0.417441 -1.63501e-19)
(0.360514 0.524888 -2.21146e-19)
(0.433106 0.559951 -1.6888e-19)
(0.484561 0.555828 -4.28101e-19)
(0.523499 0.533547 1.46581e-19)
(0.555169 0.504892 -2.05113e-19)
(0.582417 0.475525 5.91843e-20)
(0.606685 0.447695 -2.96893e-19)
(0.628688 0.42205 -2.81217e-19)
(0.648807 0.398602 5.83485e-20)
(0.667277 0.377167 -4.5513e-19)
(0.68427 0.357523 3.63408e-19)
(0.699922 0.339467 -1.31291e-19)
(0.714332 0.322835 4.11946e-19)
(0.727584 0.307491 -8.88872e-19)
(0.739847 0.293282 -1.6872e-19)
(0.751414 0.279988 -3.19057e-19)
(0.762123 0.267595 -8.57361e-19)
(0.770273 0.256962 -1.38131e-19)
(0.0969011 0.184204 1.57696e-19)
(0.227828 0.397578 -1.87084e-20)
(0.32507 0.497952 -2.43183e-19)
(0.395368 0.529638 8.58672e-20)
(0.447164 0.5246 -1.73625e-19)
(0.487703 0.502816 -2.27288e-21)
(0.521424 0.475338 2.36615e-19)
(0.550768 0.447393 -3.53135e-19)
(0.577009 0.421014 1.37904e-19)
(0.600811 0.396762 -7.97401e-20)
(0.622555 0.374626 2.15753e-20)
(0.642494 0.354419 -3.95394e-19)
(0.660822 0.33593 -4.81245e-19)
(0.677697 0.318968 -1.82238e-20)
(0.69324 0.303373 5.36447e-19)
(0.707557 0.289017 2.51443e-20)
(0.72083 0.275752 6.79312e-19)
(0.733333 0.263385 -9.90104e-19)
(0.744912 0.251899 5.26996e-19)
(0.754088 0.241979 9.08024e-19)
(0.0841816 0.174376 -1.37511e-19)
(0.200556 0.374566 7.38811e-20)
(0.291199 0.467484 4.80604e-19)
(0.359489 0.495914 1.18661e-19)
(0.411745 0.490254 -1.60102e-19)
(0.453889 0.469277 1.26339e-19)
(0.489603 0.443247 4.97395e-19)
(0.520961 0.41695 -4.03602e-19)
(0.549087 0.392212 3.75144e-20)
(0.574608 0.369514 -1.47391e-19)
(0.597906 0.348825 5.33224e-19)
(0.619253 0.329964 3.81073e-19)
(0.638863 0.31273 -5.52602e-20)
(0.656915 0.296943 -5.78957e-19)
(0.673549 0.282451 3.06408e-20)
(0.688892 0.269131 -7.15149e-20)
(0.70313 0.256845 3.40636e-19)
(0.716524 0.245422 5.5443e-19)
(0.728932 0.23484 4.84528e-19)
(0.739093 0.225632 -8.09491e-19)
(0.0720062 0.162975 -8.6049e-20)
(0.17468 0.348579 3.67242e-19)
(0.259248 0.433693 -3.58155e-19)
(0.325798 0.458987 4.98034e-19)
(0.378594 0.452979 -2.70914e-19)
(0.422311 0.433097 1.94283e-19)
(0.459932 0.408766 4.93631e-19)
(0.493196 0.384326 -5.93733e-19)
(0.523102 0.361403 2.70569e-19)
(0.550242 0.340406 3.42705e-19)
(0.575006 0.321291 -4.6599e-19)
(0.597682 0.303884 -3.31861e-20)
(0.618505 0.287997 -3.7431e-19)
(0.637671 0.27346 6.00355e-19)
(0.655338 0.260133 -3.25808e-19)
(0.671649 0.247898 3.50021e-19)
(0.686796 0.236628 -6.34225e-20)
(0.70102 0.226175 2.16502e-19)
(0.714206 0.216506 4.93643e-20)
(0.725302 0.20803 -1.26463e-19)
(0.0605408 0.150098 -2.63698e-19)
(0.150498 0.319817 -6.06938e-19)
(0.22954 0.39681 1.59757e-19)
(0.294593 0.419085 -5.12399e-19)
(0.347978 0.412985 -4.85413e-19)
(0.393204 0.394462 -3.49037e-19)
(0.432618 0.37206 2.72097e-19)
(0.46766 0.349668 2.09331e-19)
(0.49922 0.328719 -1.48196e-21)
(0.527865 0.309558 -1.82711e-19)
(0.553991 0.292132 -3.29665e-19)
(0.577903 0.276279 2.97455e-19)
(0.599855 0.261822 -1.02434e-19)
(0.620057 0.248608 -5.07262e-19)
(0.638685 0.236505 3.30469e-19)
(0.655895 0.225403 -2.48278e-19)
(0.67188 0.21519 -1.01242e-19)
(0.686867 0.205734 -2.83418e-19)
(0.700773 0.196997 -2.5687e-19)
(0.712744 0.189279 6.64392e-20)
(0.0499394 0.135854 2.30363e-19)
(0.128284 0.288502 1.19405e-19)
(0.202371 0.357095 1.82713e-19)
(0.26615 0.37646 -6.23351e-19)
(0.320138 0.370502 6.67774e-19)
(0.366782 0.353578 3.08265e-21)
(0.407849 0.333312 5.43548e-21)
(0.444521 0.313141 -4.07457e-19)
(0.477594 0.29431 3.80583e-19)
(0.507614 0.277107 -2.64821e-19)
(0.534984 0.261477 8.00151e-20)
(0.560027 0.247266 -3.55553e-19)
(0.58301 0.234319 -1.69277e-19)
(0.604159 0.222492 -8.09253e-20)
(0.623665 0.211669 6.09908e-19)
(0.641694 0.201748 -2.99487e-19)
(0.65844 0.19263 -2.7041e-19)
(0.674117 0.184201 2.78399e-19)
(0.688678 0.176418 -2.28651e-19)
(0.701453 0.169494 1.78211e-19)
(0.0403422 0.12037 4.89332e-19)
(0.108287 0.254882 -2.95522e-19)
(0.178004 0.314825 4.42881e-20)
(0.240714 0.331384 5.18079e-19)
(0.295294 0.325779 2.05677e-19)
(0.343235 0.310668 2.55266e-19)
(0.385797 0.292724 2.54201e-19)
(0.423934 0.274927 5.39452e-19)
(0.458362 0.258342 -1.23721e-19)
(0.489613 0.243207 2.95471e-19)
(0.518098 0.229465 4.29652e-19)
(0.544153 0.216979 1.58374e-19)
(0.56806 0.20561 2.86992e-19)
(0.590058 0.195232 1.04206e-19)
(0.610349 0.18574 6.13781e-20)
(0.62911 0.177044 -4.44681e-20)
(0.646534 0.169059 3.5685e-19)
(0.662823 0.161687 2.20173e-19)
(0.677968 0.154881 -2.0011e-19)
(0.691468 0.148786 1.88755e-19)
(0.0318745 0.103784 -3.24874e-19)
(0.0907282 0.219222 3.66794e-20)
(0.156675 0.270302 -9.39134e-20)
(0.218502 0.284146 -2.85314e-19)
(0.273638 0.27908 -1.513e-19)
(0.322734 0.26597 -2.74999e-19)
(0.366611 0.25051 1.27801e-19)
(0.406031 0.235221 -4.94891e-19)
(0.441646 0.220994 2.92352e-19)
(0.473973 0.208023 -4.04593e-19)
(0.503433 0.196252 -2.51418e-19)
(0.530374 0.185563 -3.32961e-19)
(0.555088 0.175834 7.62957e-20)
(0.577828 0.166958 -7.5334e-20)
(0.598804 0.158844 9.0196e-20)
(0.618203 0.151414 4.85791e-20)
(0.636215 0.144594 9.65626e-20)
(0.653034 0.138307 -8.07943e-19)
(0.66869 0.132502 4.02206e-19)
(0.682829 0.127273 -2.41153e-19)
(0.0246463 0.0862452 1.07337e-19)
(0.0757977 0.181805 2.16831e-19)
(0.138587 0.223841 -1.41531e-19)
(0.199703 0.235051 3.49572e-19)
(0.255334 0.230684 -5.62086e-20)
(0.305423 0.219737 4.05101e-19)
(0.350421 0.206898 7.83189e-20)
(0.390931 0.194231 -8.23587e-20)
(0.427551 0.182459 2.99751e-19)
(0.460791 0.171733 2.29376e-19)
(0.491076 0.162005 8.51363e-20)
(0.518766 0.153173 1.12025e-19)
(0.544165 0.145139 5.62253e-20)
(0.567532 0.137811 -2.3876e-19)
(0.589088 0.131115 -3.33008e-20)
(0.609026 0.124986 2.49634e-19)
(0.627535 0.119363 -1.70641e-19)
(0.6448 0.114184 -7.87388e-21)
(0.660887 0.109402 -3.57831e-19)
(0.675571 0.105074 7.20945e-19)
(0.0187502 0.0679131 2.87785e-19)
(0.0636574 0.142929 -3.45741e-19)
(0.12391 0.175774 1.62176e-19)
(0.184474 0.184419 -2.2962e-19)
(0.240524 0.180884 2.02568e-19)
(0.291427 0.17223 -3.51986e-19)
(0.337337 0.162126 -2.57962e-19)
(0.378733 0.152177 1.93326e-20)
(0.416167 0.142938 -3.52053e-19)
(0.450146 0.134526 -2.19881e-19)
(0.481101 0.126898 -3.81058e-19)
(0.509399 0.119976 -1.28567e-20)
(0.535351 0.11368 -1.48196e-19)
(0.559227 0.10794 3.75154e-19)
(0.581252 0.102696 2.58811e-19)
(0.601627 0.0978968 -8.68761e-20)
(0.620536 0.0934971 -7.8569e-20)
(0.63816 0.089447 -3.49563e-21)
(0.654597 0.0857072 9.7002e-21)
(0.669726 0.0823086 1.42365e-19)
(0.0142616 0.0489552 -7.19777e-20)
(0.0544377 0.102907 -2.46459e-19)
(0.112782 0.126445 -1.53752e-19)
(0.172941 0.13258 -9.62633e-20)
(0.229318 0.129979 -1.99624e-19)
(0.280843 0.123724 3.42349e-19)
(0.327448 0.116444 -3.66137e-20)
(0.369514 0.109285 -8.2494e-20)
(0.407566 0.102642 3.36477e-21)
(0.442105 0.0965957 2.42821e-19)
(0.473567 0.0911145 -2.30835e-19)
(0.502325 0.0861417 2.25965e-19)
(0.528698 0.0816198 1.06181e-19)
(0.552958 0.0774981 -1.93662e-19)
(0.575339 0.0737331 4.23565e-20)
(0.596043 0.0702886 1.2475e-19)
(0.615255 0.0671317 4.35206e-20)
(0.633151 0.0642272 -3.01154e-20)
(0.649852 0.061545 -2.62856e-19)
(0.66532 0.0591002 2.09341e-19)
(0.0112375 0.0295458 6.4915e-20)
(0.0482368 0.0620573 7.88395e-20)
(0.105306 0.0762085 2.21787e-20)
(0.1652 0.0798717 -1.67248e-20)
(0.221801 0.0782813 4.76214e-20)
(0.273747 0.0744991 7.29073e-20)
(0.320818 0.0701062 2.76527e-20)
(0.363336 0.0657904 3.37567e-20)
(0.401803 0.0617879 -7.19801e-20)
(0.436718 0.0581454 1.34871e-19)
(0.46852 0.0548442 -3.18958e-20)
(0.497587 0.0518496 -2.59413e-21)
(0.524241 0.049127 3.24398e-20)
(0.54876 0.0466456 3.65938e-20)
(0.571379 0.0443794 -9.84833e-20)
(0.592305 0.0423064 6.47447e-20)
(0.611719 0.0404069 4.2513e-20)
(0.629797 0.03866 3.63245e-20)
(0.646677 0.0370467 7.79888e-20)
(0.662372 0.0355733 3.23089e-20)
(0.00971637 0.00986364 -1.32932e-20)
(0.0451209 0.0207092 2.76311e-20)
(0.101552 0.0254239 -3.86819e-20)
(0.161315 0.0266397 2.43163e-20)
(0.21803 0.0261046 1.42951e-20)
(0.270187 0.0248399 6.4156e-21)
(0.317494 0.0233728 1.51386e-20)
(0.360238 0.0219322 -4.34247e-20)
(0.398914 0.0205966 2.77081e-20)
(0.434017 0.0193812 9.68212e-21)
(0.46599 0.0182799 -5.84929e-22)
(0.495212 0.017281 5.96954e-20)
(0.522008 0.016373 -1.81055e-20)
(0.546656 0.0155454 -1.73646e-20)
(0.569395 0.0147898 -1.67158e-20)
(0.590432 0.0140986 2.58999e-21)
(0.609948 0.0134654 -2.23881e-20)
(0.628116 0.0128832 4.26713e-21)
(0.645086 0.0123455 8.42748e-22)
(0.660896 0.011854 -2.84431e-21)
(0.0097173 -0.00990974 8.44371e-21)
(0.0451228 -0.0208057 -4.49432e-20)
(0.101555 -0.0255437 5.36012e-20)
(0.161318 -0.0267672 -4.02979e-20)
(0.218033 -0.026232 -1.88309e-20)
(0.27019 -0.0249641 5.63869e-20)
(0.317497 -0.0234926 4.70663e-21)
(0.360241 -0.0220474 1.32108e-21)
(0.398916 -0.0207073 2.64256e-20)
(0.43402 -0.0194878 1.36789e-20)
(0.465993 -0.0183825 -1.07891e-20)
(0.495215 -0.0173799 -3.79321e-20)
(0.52201 -0.0164683 3.58523e-21)
(0.546658 -0.0156374 -3.32709e-21)
(0.569398 -0.0148786 3.54504e-20)
(0.590434 -0.0141845 -2.1348e-20)
(0.60995 -0.0135485 2.93142e-20)
(0.628119 -0.0129637 -4.39521e-20)
(0.645088 -0.0124235 5.1413e-23)
(0.660898 -0.0119297 -9.26387e-21)
(0.0112403 -0.0295919 -2.80497e-20)
(0.0482427 -0.0621538 1.41533e-19)
(0.105314 -0.0763282 9.54232e-20)
(0.165208 -0.0799991 6.31845e-20)
(0.221809 -0.0784087 7.89451e-20)
(0.273755 -0.0746231 -1.91377e-20)
(0.320827 -0.0702259 8.75931e-20)
(0.363344 -0.0659055 1.79706e-20)
(0.401811 -0.0618985 -7.79979e-21)
(0.436726 -0.0582518 -6.26061e-20)
(0.468528 -0.0549466 6.50169e-20)
(0.497595 -0.0519483 -8.83561e-20)
(0.524249 -0.0492221 6.42547e-20)
(0.548767 -0.0467375 7.36728e-20)
(0.571387 -0.0444681 9.75558e-20)
(0.592312 -0.0423921 -6.40622e-20)
(0.611726 -0.0404899 1.81522e-20)
(0.629803 -0.0387403 6.78354e-20)
(0.646683 -0.0371245 -6.41542e-20)
(0.662379 -0.0356488 4.84006e-20)
(0.0142662 -0.0490013 -2.7119e-19)
(0.0544475 -0.103003 -1.36267e-19)
(0.112795 -0.126565 -1.51584e-19)
(0.172955 -0.132707 -1.19583e-20)
(0.229332 -0.130107 -8.18177e-20)
(0.280857 -0.123848 -1.00359e-19)
(0.327462 -0.116564 1.7745e-19)
(0.369528 -0.1094 9.05059e-20)
(0.40758 -0.102753 1.11633e-19)
(0.442119 -0.0967018 -1.21258e-19)
(0.47358 -0.0912166 8.99225e-20)
(0.502338 -0.0862401 1.09852e-19)
(0.52871 -0.0817147 3.87444e-20)
(0.55297 -0.0775896 -3.68266e-20)
(0.575351 -0.0738215 7.96403e-21)
(0.596055 -0.070374 -1.58749e-20)
(0.615266 -0.0672143 -1.55965e-19)
(0.633162 -0.0643072 2.41299e-20)
(0.649864 -0.0616225 1.51701e-19)
(0.66533 -0.0591753 -2.03796e-19)
(0.0187567 -0.0679591 -8.92703e-20)
(0.0636712 -0.143026 1.32263e-19)
(0.123928 -0.175894 3.06338e-20)
(0.184493 -0.184546 -5.72134e-20)
(0.240543 -0.181011 -1.61875e-19)
(0.291447 -0.172354 -3.47035e-19)
(0.337357 -0.162245 -3.30498e-19)
(0.378752 -0.152291 -2.38416e-20)
(0.416186 -0.143048 -1.92484e-19)
(0.450165 -0.134631 -2.88031e-19)
(0.481119 -0.126999 2.23552e-19)
(0.509417 -0.120074 -3.29726e-19)
(0.535369 -0.113774 6.57305e-20)
(0.559244 -0.108031 -2.0954e-20)
(0.581269 -0.102784 -6.92863e-20)
(0.601643 -0.0979818 -8.76599e-20)
(0.620552 -0.0935793 1.42141e-19)
(0.638176 -0.0895265 1.13685e-19)
(0.654613 -0.0857842 1.95514e-19)
(0.669741 -0.0823832 -2.92575e-19)
(0.0246547 -0.0862913 4.84221e-20)
(0.0758155 -0.181901 4.70563e-19)
(0.13861 -0.22396 1.34803e-19)
(0.199728 -0.235178 3.26014e-19)
(0.25536 -0.230811 -1.21865e-19)
(0.305449 -0.21986 1.87666e-19)
(0.350447 -0.207016 -5.90894e-20)
(0.390956 -0.194345 3.80955e-19)
(0.427576 -0.182569 -1.96104e-19)
(0.460815 -0.171838 2.31207e-19)
(0.4911 -0.162106 2.00821e-19)
(0.518789 -0.153271 2.14964e-19)
(0.544188 -0.145233 -1.92403e-19)
(0.567554 -0.137902 1.65267e-19)
(0.58911 -0.131202 -2.29761e-19)
(0.609048 -0.12507 -6.32414e-20)
(0.627556 -0.119445 -1.51567e-19)
(0.64482 -0.114263 -6.43959e-20)
(0.660907 -0.109479 2.55387e-19)
(0.675591 -0.105148 -4.22869e-19)
(0.0318849 -0.10383 -1.94806e-19)
(0.09075 -0.219318 -2.26447e-20)
(0.156703 -0.270421 -7.76612e-20)
(0.218533 -0.284272 -2.73049e-19)
(0.273669 -0.279206 4.6423e-20)
(0.322765 -0.266093 -4.27859e-19)
(0.366642 -0.250628 -1.79995e-19)
(0.406062 -0.235334 -1.39408e-20)
(0.441676 -0.221103 -4.53026e-19)
(0.474003 -0.208127 -1.4078e-19)