/*--------------------------------*- C++ -*----------------------------------*\
  =========                 |
  \\      /  F ield         | OpenFOAM: The Open Source CFD Toolbox
   \\    /   O peration     | Website:  https://openfoam.org
    \\  /    A nd           | Version:  6.0
     \\/     M anipulation  |
\*---------------------------------------------------------------------------*/
FoamFile
{
    version     2.0;
    format      ascii;
    class       volVectorField;
    location    "22";
    object      U;
}
// * * * * * * * * * * * * * * * * * * * * * * * * * * * * * * * * * * * * * //

dimensions      [0 1 -1 0 0 0 0];

internalField   nonuniform List<vector> 
8000
(
(-0.000493434 0.000492127 -3.51117e-21)
(-0.00269447 0.00122884 1.8768e-20)
(-0.006757 0.00174917 -2.28272e-20)
(-0.0117403 0.0021029 1.73826e-20)
(-0.0171556 0.00232767 8.46482e-21)
(-0.022728 0.00245409 -2.5419e-20)
(-0.0282612 0.00250838 -2.24678e-21)
(-0.0336287 0.00251283 -7.97464e-22)
(-0.0387604 0.00248622 -1.31947e-20)
(-0.0436277 0.00244441 -7.14861e-21)
(-0.0482313 0.00240067 5.3311e-21)
(-0.0525939 0.00236602 2.02683e-20)
(-0.0567527 0.00234935 -1.5178e-21)
(-0.0607542 0.00235762 2.17152e-21)
(-0.0646505 0.00239588 -2.0415e-20)
(-0.0685003 0.00246734 1.25789e-20)
(-0.0723625 0.00257346 -1.80232e-20)
(-0.0762458 0.00271499 2.72738e-20)
(-0.0800971 0.00289267 -3.05447e-23)
(-0.0842694 0.00309909 5.89043e-21)
(-0.000577971 0.00161912 1.16598e-20)
(-0.00289984 0.00402817 -5.95861e-20)
(-0.00703798 0.00572331 -4.11557e-20)
(-0.0120611 0.00686918 -2.79495e-20)
(-0.0174867 0.00759107 -3.59556e-20)
(-0.0230442 0.00799072 7.91316e-21)
(-0.0285411 0.0081546 -4.15065e-20)
(-0.0338534 0.00815551 -9.32277e-21)
(-0.0389131 0.00805434 2.94586e-21)
(-0.0436927 0.00790202 3.10236e-20)
(-0.0481945 0.00774089 -3.38415e-20)
(-0.0524417 0.00760582 4.70744e-20)
(-0.0564726 0.00752491 -3.52516e-20)
(-0.0603346 0.00752008 -4.18037e-20)
(-0.0640813 0.00760733 -5.76085e-20)
(-0.0677728 0.00779685 3.67909e-20)
(-0.0714696 0.00809343 -1.18986e-20)
(-0.0751823 0.00849948 -4.33273e-20)
(-0.0788573 0.00901739 4.0967e-20)
(-0.0828505 0.0096246 -3.04377e-20)
(-0.000748852 0.00273068 1.13976e-19)
(-0.00331459 0.0067886 5.9027e-20)
(-0.00760493 0.00964021 6.63826e-20)
(-0.012708 0.0115629 5.52361e-21)
(-0.018154 0.0127684 3.66899e-20)
(-0.0236818 0.0134284 4.5794e-20)
(-0.029106 0.013689 -8.32164e-20)
(-0.0343083 0.0136725 -4.4069e-20)
(-0.0392246 0.0134815 -5.73924e-20)
(-0.0438304 0.0132016 6.12685e-20)
(-0.0481299 0.0129043 -4.6796e-20)
(-0.0521482 0.0126484 -6.02069e-20)
(-0.0559255 0.012482 -2.19215e-20)
(-0.0595111 0.0124425 2.08266e-20)
(-0.062961 0.012558 -5.78992e-21)
(-0.0663383 0.0128465 8.35023e-21)
(-0.0697075 0.0133171 9.66355e-20)
(-0.0730823 0.0139748 -1.35704e-20)
(-0.0764086 0.0148245 -9.82346e-20)
(-0.0800487 0.0158282 1.29496e-19)
(-0.00100438 0.00381693 3.96534e-20)
(-0.00393493 0.00948495 -5.60159e-20)
(-0.00845327 0.0134627 -1.40517e-20)
(-0.0136762 0.0161371 2.62681e-20)
(-0.0191532 0.0178041 7.45912e-20)
(-0.0246372 0.018704 1.63313e-19)
(-0.0299542 0.0190405 1.59578e-19)
(-0.034994 0.0189845 1.32564e-20)
(-0.0396987 0.0186791 9.78572e-20)
(-0.0440479 0.0182442 1.49783e-19)
(-0.048049 0.01778 -1.19684e-19)
(-0.0517297 0.01737 1.77126e-19)
(-0.0551324 0.0170826 -4.0104e-20)
(-0.0583095 0.0169725 1.01185e-20)
(-0.0613203 0.017081 4.18838e-20)
(-0.0642327 0.0174361 5.56569e-20)
(-0.0671167 0.0180528 -8.759e-20)
(-0.0699914 0.0189402 -7.3101e-20)
(-0.0728029 0.0201075 -1.29367e-19)
(-0.0759237 0.0215009 1.88309e-19)
(-0.0013421 0.0048691 -2.07175e-20)
(-0.0047552 0.0120942 -2.12073e-19)
(-0.00957559 0.0171564 -6.27285e-20)
(-0.0149575 0.0205481 -1.52863e-19)
(-0.020476 0.022647 5.77806e-20)
(-0.0259031 0.0237593 -9.11303e-20)
(-0.0310799 0.0241444 3.13379e-20)
(-0.0359076 0.0240199 -1.93012e-19)
(-0.0403362 0.0235678 1.01822e-19)
(-0.0443511 0.0229412 -1.21427e-19)
(-0.0479634 0.0222688 -1.07988e-19)
(-0.0512039 0.0216588 -1.20909e-19)
(-0.0541179 0.0212012 1.09752e-19)
(-0.0567613 0.0209695 -9.85368e-20)
(-0.0591977 0.0210208 1.37211e-19)
(-0.0615008 0.0213956 3.96539e-20)
(-0.0637489 0.0221175 9.81527e-20)
(-0.0659686 0.0232025 4.30747e-20)
(-0.0681072 0.0246669 -1.70554e-19)
(-0.0705532 0.0264411 2.7758e-19)
(-0.00175899 0.0058797 9.1325e-20)
(-0.00576777 0.0145957 7.0273e-21)
(-0.0109612 0.02069 3.76221e-20)
(-0.016539 0.0247564 1.31278e-19)
(-0.0221083 0.0272509 -2.00988e-20)
(-0.0274651 0.0285428 2.13179e-19)
(-0.0324699 0.0289445 9.46159e-20)
(-0.0370382 0.0287174 7.95386e-21)
(-0.0411302 0.0280807 2.43296e-19)
(-0.044738 0.0272187 7.97185e-20)
(-0.0478775 0.0262878 3.78168e-20)
(-0.0505826 0.0254209 1.20024e-19)
(-0.0529016 0.0247308 1.10014e-19)
(-0.0548941 0.0243116 2.00838e-19)
(-0.0566288 0.0242395 -1.79512e-19)
(-0.0581865 0.024571 2.53738e-19)
(-0.0596556 0.0253425 3.3226e-21)
(-0.061073 0.0265812 -3.24303e-19)
(-0.0623903 0.0283147 4.20394e-19)
(-0.0640185 0.0304585 1.74191e-19)
(-0.00225146 0.00684245 -5.38198e-20)
(-0.00696294 0.0169715 -9.76925e-20)
(-0.0125956 0.0240359 -2.03299e-19)
(-0.018402 0.0287269 -6.02567e-21)
(-0.024028 0.0315754 3.46893e-20)
(-0.0292991 0.0330107 -2.596e-19)
(-0.0340992 0.0333944 -1.92594e-19)
(-0.0383614 0.0330287 -2.75506e-20)
(-0.0420583 0.0321666 -2.43611e-19)
(-0.0451903 0.0310217 -1.68667e-19)
(-0.0477783 0.0297761 -4.91556e-20)
(-0.0498597 0.0285872 -1.58277e-19)
(-0.0514855 0.0275909 -2.58066e-21)
(-0.0527186 0.0269043 -2.10186e-19)
(-0.0536327 0.0266261 8.84128e-20)
(-0.0543169 0.0268338 -1.00871e-19)
(-0.0548716 0.0275823 7.72658e-20)
(-0.0553472 0.0289161 -9.8335e-20)
(-0.0557035 0.0308812 -2.80982e-19)
(-0.0563839 0.03338 -8.53838e-20)
(-0.00281545 0.007752 -1.98071e-20)
(-0.00832862 0.0192052 -2.15104e-20)
(-0.0144589 0.0271691 1.70449e-19)
(-0.0205198 0.0324284 -2.77371e-19)
(-0.026202 0.0355859 4.06917e-20)
(-0.0313663 0.0371269 -1.60222e-19)
(-0.0359247 0.0374585 7.57169e-20)
(-0.0398314 0.0369197 3.40321e-19)
(-0.0430738 0.0357933 -2.18318e-20)
(-0.0456621 0.0343187 -2.5388e-19)
(-0.0476231 0.0327014 4.61311e-20)
(-0.0489972 0.0311213 8.945e-21)
(-0.0498376 0.0297376 -5.21226e-20)
(-0.0502096 0.028692 5.27528e-21)
(-0.0501918 0.0281094 4.5792e-19)
(-0.0498813 0.0280941 -6.52047e-20)
(-0.0493926 0.0287271 -1.27189e-19)
(-0.0487927 0.0300795 -2.28183e-19)
(-0.0480553 0.032226 2.32777e-19)
(-0.0476691 0.0350606 1.00375e-19)
(-0.00344625 0.0086035 1.00017e-19)
(-0.00984981 0.021282 -1.30854e-19)
(-0.0165255 0.0300664 1.85003e-19)
(-0.0228557 0.0358328 1.86238e-19)
(-0.028583 0.0392523 1.71681e-19)
(-0.0336094 0.0408627 3.48137e-19)
(-0.0378797 0.041112 2.25127e-19)
(-0.0413732 0.0403712 -4.83763e-19)
(-0.0440952 0.0389487 2.47407e-19)
(-0.0460672 0.0371049 1.94141e-19)
(-0.0473228 0.0350647 -2.75728e-21)
(-0.0479056 0.0330275 2.17322e-19)
(-0.04787 0.0311742 1.69426e-19)
(-0.0472826 0.0296717 -9.21627e-20)
(-0.0462252 0.0286742 3.11416e-19)
(-0.0448028 0.0283191 -3.86036e-19)
(-0.0431447 0.0287229 1.54511e-19)
(-0.0413379 0.0299957 1.98692e-19)
(-0.0393764 0.0322564 -4.62923e-20)
(-0.0378133 0.0353995 3.99131e-19)
(-0.00413834 0.00939204 2.0098e-19)
(-0.011508 0.0231865 1.04221e-20)
(-0.0187622 0.0327052 -7.21362e-20)
(-0.0253611 0.0389133 -7.61979e-20)
(-0.0311065 0.0425476 -3.52864e-19)
(-0.0359475 0.0441944 4.99674e-20)
(-0.039867 0.0443385 1.41575e-19)
(-0.0428738 0.0433779 -6.80956e-20)
(-0.0449941 0.0416408 5.61719e-20)
(-0.0462635 0.0394034 -1.48939e-20)
(-0.0467236 0.0369046 -7.33739e-20)
(-0.0464216 0.0343582 6.96657e-20)
(-0.0454125 0.0319631 -3.02873e-19)
(-0.0437627 0.0299096 2.90355e-19)
(-0.0415551 0.0283826 -2.51493e-19)
(-0.0389014 0.0275583 7.76851e-20)
(-0.0359453 0.0275988 1.76769e-19)
(-0.0327963 0.0286697 -3.67724e-20)
(-0.0294763 0.0309554 -1.22302e-19)
(-0.026628 0.0343674 -8.31599e-20)
(-0.00488506 0.0101121 -2.50351e-19)
(-0.0132802 0.0249028 -1.64748e-20)
(-0.0211272 0.0350619 5.27238e-20)
(-0.0279735 0.0416427 1.35561e-19)
(-0.0336877 0.0454453 -1.91382e-19)
(-0.0382719 0.0471013 -1.67008e-19)
(-0.0417528 0.0471278 3.89816e-19)
(-0.044173 0.0459449 -2.15401e-19)
(-0.0455836 0.0438952 -1.3895e-19)
(-0.0460374 0.0412642 -1.99378e-19)
(-0.0455863 0.038298 1.31989e-19)
(-0.0442824 0.0352183 -3.56655e-21)
(-0.0421815 0.0322351 -2.46485e-19)
(-0.0393486 0.0295571 -4.03215e-19)
(-0.0358658 0.0273978 3.07191e-19)
(-0.0318486 0.0259746 -2.48897e-19)
(-0.0274542 0.0255048 3.52879e-19)
(-0.0228152 0.0262283 -9.88573e-20)
(-0.0179884 0.0284246 2.07754e-19)
(-0.0137393 0.032048 -7.0544e-19)
(-0.00567825 0.0107572 -5.07027e-19)
(-0.0151386 0.0264127 3.32463e-19)
(-0.0235692 0.0371105 4.52156e-20)
(-0.0306151 0.0439913 8.74619e-21)
(-0.0362191 0.0479168 -2.05003e-19)
(-0.0404427 0.0495611 3.01466e-19)
(-0.0433614 0.0494702 3.29072e-20)
(-0.0450563 0.0480819 -6.18187e-20)
(-0.0456076 0.0457481 -1.98429e-19)
(-0.0450892 0.0427573 2.14492e-19)
(-0.0435667 0.0393554 5.43821e-19)
(-0.0411 0.0357633 -1.20138e-19)
(-0.0377476 0.032193 2.7149e-19)
(-0.0335731 0.0288621 -3.20698e-19)
(-0.0286567 0.0260051 -3.07514e-19)
(-0.0231152 0.0238775 1.84889e-19)
(-0.0171168 0.0227564 3.05466e-19)
(-0.0108157 0.0229742 -9.89845e-19)
(-0.00430671 0.0249427 1.16231e-19)
(0.00147897 0.0286972 1.58079e-19)
(-0.00650805 0.0113196 3.75452e-19)
(-0.0170497 0.0276956 1.23507e-19)
(-0.0260263 0.0388216 6.43398e-19)
(-0.0331915 0.0459251 3.31106e-20)
(-0.0385696 0.0499281 -7.15572e-20)
(-0.0422867 0.0515461 -3.40757e-19)
(-0.0444721 0.0513512 2.89781e-19)
(-0.0452498 0.0497958 5.19913e-19)
(-0.0447334 0.0472369 3.46396e-19)
(-0.043022 0.0439613 2.50091e-19)
(-0.0401999 0.040208 2.1561e-19)
(-0.0363394 0.0361879 -3.87167e-19)
(-0.0315059 0.032104 -1.21278e-19)
(-0.0257653 0.0281692 -8.9333e-20)
(-0.0191968 0.0246246 9.5725e-19)
(-0.0119176 0.0217512 -3.2678e-21)
(-0.0041046 0.0198806 -2.38575e-19)
(0.00407112 0.0194483 -7.52131e-20)
(0.0124802 0.0210399 6.84628e-19)
(0.0199766 0.024823 8.98019e-20)
(-0.00736272 0.011791 -1.8512e-20)
(-0.0189741 0.0287287 -3.55188e-19)
(-0.0284259 0.0401623 -5.28422e-19)
(-0.0355916 0.0474049 -1.47042e-19)
(-0.0405833 0.0514387 8.11942e-20)
(-0.0435967 0.0530198 1.74832e-20)
(-0.0448185 0.0527455 4.6369e-19)
(-0.0444188 0.0510812 -5.75084e-19)
(-0.0425487 0.0483875 -2.18751e-19)
(-0.0393371 0.0449468 -4.40862e-19)
(-0.0348923 0.0409867 -3.75507e-19)
(-0.0293058 0.0367017 -3.32515e-19)
(-0.0226576 0.0322744 8.31404e-20)
(-0.0150234 0.0278977 -1.07962e-19)
(-0.00648791 0.0237989 4.62606e-19)
(0.0028277 0.0202604 -2.53533e-19)
(0.0127376 0.0176461 -7.94872e-19)
(0.0230593 0.0164879 -1.60369e-19)
(0.0336455 0.0175788 3.92321e-19)
(0.043088 0.0212791 -3.419e-19)
(-0.00822871 0.0121624 -5.99043e-20)
(-0.0208662 0.0294879 4.34425e-19)
(-0.0306847 0.0410967 -5.54061e-19)
(-0.0376874 0.0483867 1.28064e-19)
(-0.0420802 0.0524005 -2.638e-19)
(-0.0441319 0.0539352 5.87611e-19)
(-0.0440888 0.0536134 -4.19977e-19)
(-0.0421697 0.0519143 4.80499e-19)
(-0.0385651 0.0492028 -4.55593e-19)
(-0.0334376 0.0457578 1.94399e-19)
(-0.0269255 0.0417959 -9.43398e-20)
(-0.0191474 0.0374929 -2.36887e-19)
(-0.0102089 0.0330048 -2.92721e-19)
(-0.00020895 0.0284917 2.91689e-19)
(0.0107487 0.0241446 -2.44301e-19)
(0.0225264 0.0202147 -5.34229e-19)
(0.0349206 0.0170554 5.56184e-19)
(0.0477396 0.0152565 -7.09615e-19)
(0.060852 0.0158261 3.19162e-19)
(0.0725621 0.0193671 8.17911e-21)
(-0.00909092 0.0124252 -5.43148e-19)
(-0.0226749 0.029949 -5.86471e-19)
(-0.0327082 0.0415882 6.75827e-20)
(-0.0393335 0.0488244 -5.65594e-19)
(-0.0428557 0.0527611 -5.03451e-20)
(-0.0436185 0.0542371 -4.16055e-19)
(-0.0419289 0.0539019 -9.54499e-20)
(-0.0380542 0.0522504 -2.78966e-19)
(-0.0322253 0.0496556 2.476e-21)
(-0.0246405 0.0463977 -1.22066e-19)
(-0.0154727 0.0426877 8.67092e-21)
(-0.0048764 0.0386879 -3.51773e-19)
(0.00700424 0.0345307 3.87749e-19)
(0.0200289 0.0303396 -5.50183e-19)
(0.0340517 0.0262551 1.94962e-19)
(0.0488938 0.0224654 7.42514e-21)
(0.0643089 0.0192559 -3.10596e-19)
(0.0800822 0.017196 7.70225e-19)
(0.0961471 0.0174589 -1.84026e-19)
(0.110556 0.0208912 -1.19409e-19)
(-0.00993289 0.0125722 6.09716e-19)
(-0.0243427 0.0300897 3.2923e-19)
(-0.0343899 0.0416024 3.06257e-19)
(-0.0403663 0.0486739 4.57216e-20)
(-0.0426797 0.0524689 4.14134e-19)
(-0.0417498 0.0538692 5.96936e-19)
(-0.0379431 0.0535522 4.88763e-19)
(-0.0315743 0.0520319 4.37431e-20)
(-0.022913 0.0496944 3.57953e-19)
(-0.0121935 0.0468289 5.53107e-19)
(0.000374062 0.0436511 -1.43486e-19)
(0.0145923 0.0403228 2.40815e-19)
(0.0302656 0.0369664 1.94448e-19)
(0.0471916 0.0336817 1.9783e-19)
(0.0651528 0.0305639 1.17075e-18)
(0.0838918 0.0277248 -4.38837e-19)
(0.103073 0.0253317 -2.68345e-20)
(0.122408 0.0238204 5.09503e-19)
(0.141934 0.0243975 -2.88999e-19)
(0.159608 0.028067 1.4294e-19)
(-0.010737 0.0125977 -4.93078e-19)
(-0.0258055 0.0298917 3.15973e-20)
(-0.03561 0.0411108 -3.94736e-19)
(-0.0406009 0.0478991 -5.13838e-20)
(-0.0412933 0.0514826 2.88964e-19)
(-0.0381826 0.0527859 -8.60236e-19)
(-0.0316935 0.0525156 -6.32264e-22)
(-0.0221844 0.051207 4.00346e-19)
(-0.00996144 0.0492643 3.76157e-19)
(0.00470665 0.0469937 -1.65613e-19)
(0.0215717 0.0446284 5.46149e-20)
(0.0403891 0.0423469 1.26674e-19)
(0.0609015 0.0402863 -5.99707e-20)
(0.0828252 0.0385529 -6.72999e-19)
(0.105838 0.0372316 1.70381e-19)
(0.129555 0.036389 4.69308e-19)
(0.153479 0.0360728 -6.68885e-19)
(0.177143 0.0364966 3.26314e-19)
(0.200669 0.0387362 8.77211e-20)
(0.222265 0.0437684 4.44706e-19)
(-0.0114839 0.0124979 -7.28127e-20)
(-0.0269908 0.0293418 -3.45511e-19)
(-0.0362316 0.0400947 1.58989e-19)
(-0.0398271 0.0464795 7.30158e-22)
(-0.0384036 0.0497819 -6.92955e-19)
(-0.0325328 0.0509688 1.08137e-19)
(-0.0226951 0.0507751 -2.05359e-20)
(-0.00929066 0.0497579 1.39896e-19)
(0.00734066 0.048342 -6.40367e-19)
(0.0268974 0.046856 -4.48978e-20)
(0.0490941 0.0455599 -1.50466e-19)
(0.0736381 0.0446657 1.33839e-19)
(0.100207 0.0443519 4.51939e-19)
(0.128427 0.0447759 -6.9864e-20)
(0.157847 0.0460817 2.70815e-20)
(0.187898 0.048393 1.78116e-19)
(0.217807 0.0517714 -4.39604e-20)
(0.246708 0.0563519 3.60203e-19)
(0.274525 0.063217 -2.08497e-19)
(0.300073 0.0730172 -3.30797e-19)
(-0.0121517 0.0122708 6.75337e-20)
(-0.0278149 0.0284333 1.64695e-20)
(-0.0360971 0.038549 1.38553e-19)
(-0.0378034 0.0444167 3.39353e-19)
(-0.0336774 0.0473793 1.90429e-19)
(-0.0243683 0.0484435 1.98696e-20)
(-0.0104124 0.0483695 -2.27337e-19)
(0.00774845 0.0477334 5.82787e-20)
(0.0297395 0.0469781 3.06504e-19)
(0.0552249 0.0464526 -5.19396e-19)
(0.0838814 0.0464429 3.91951e-19)
(0.115373 0.0471961 -2.95352e-19)
(0.149327 0.0489426 2.50716e-19)
(0.185313 0.0519169 -5.40897e-19)
(0.222809 0.0563829 5.95383e-19)
(0.261144 0.0626479 -6.36971e-19)
(0.299357 0.0710587 -1.65838e-19)
(0.336127 0.0822428 5.21579e-19)
(0.370295 0.0981627 -1.75781e-19)
(0.398753 0.118838 7.88682e-20)
(-0.0127148 0.0119154 -5.11151e-20)
(-0.0281798 0.0271657 4.82373e-19)
(-0.0350226 0.0364845 -2.02401e-21)
(-0.0342515 0.0417407 -2.99449e-19)
(-0.0267353 0.04433 -2.0139e-19)
(-0.0132054 0.0452948 3.68946e-19)
(0.00574122 0.045415 -1.46133e-19)
(0.0296135 0.0452791 -1.84096e-20)
(0.0579904 0.0453389 3.04548e-19)
(0.0904878 0.0459509 -3.78342e-19)
(0.126729 0.0474081 4.14962e-20)
(0.166326 0.0499663 -4.91965e-19)
(0.208863 0.0538688 2.59164e-19)
(0.253896 0.0593751 -7.41824e-19)
(0.300959 0.0667996 1.18252e-18)
(0.349576 0.0765622 -2.16575e-19)
(0.399298 0.0893074 2.26905e-19)
(0.449994 0.106452 -5.889e-19)
(0.502152 0.131018 3.06962e-21)
(0.547817 0.158753 6.73625e-19)
(-0.0131408 0.0114307 -1.54862e-19)
(-0.0279688 0.0255449 1.33803e-19)
(-0.032794 0.0339291 -4.92731e-19)
(-0.0288523 0.0385128 7.28779e-19)
(-0.0171501 0.0407378 -5.26147e-19)
(0.00148931 0.0416758 2.71527e-20)
(0.0263943 0.0421189 -5.67336e-19)
(0.0570039 0.0426574 4.05633e-19)
(0.092822 0.0437375 -5.79505e-20)
(0.133377 0.0457016 -3.57985e-19)
(0.178194 0.0488183 -2.08943e-19)
(0.226774 0.0533043 2.2076e-19)
(0.278595 0.0593432 1.46084e-19)
(0.333124 0.0671026 -6.46825e-19)
(0.389841 0.0767507 2.33417e-19)
(0.44829 0.088468 -3.4488e-19)
(0.508138 0.102468 4.18268e-20)
(0.569407 0.119198 -2.94061e-19)
(0.632952 0.139828 1.21699e-19)
(0.691513 0.160332 -4.42993e-19)
(-0.013389 0.0108153 4.40869e-19)
(-0.0270427 0.0235829 -2.67002e-19)
(-0.0291641 0.0309291 2.2001e-19)
(-0.0212463 0.0348278 -2.77757e-19)
(-0.00445124 0.0367568 4.65591e-19)
(0.0202866 0.0378094 -8.14934e-21)
(0.0521942 0.0387793 -5.66775e-20)
(0.090602 0.0402451 -4.20227e-20)
(0.134887 0.0426286 2.58662e-19)
(0.184426 0.0462337 4.39848e-19)
(0.238565 0.051272 -2.59828e-19)
(0.296612 0.0578816 2.5265e-19)
(0.357837 0.0661398 4.61718e-19)
(0.4215 0.0760731 -3.23736e-19)
(0.486883 0.0876614 -6.58517e-19)
(0.553335 0.100834 1.20498e-18)
(0.62032 0.115451 -2.15076e-19)
(0.687495 0.131349 -7.00767e-20)
(0.755081 0.148854 7.579e-19)
(0.817845 0.167034 -1.59578e-19)
(-0.0134083 0.0100674 -7.17784e-19)
(-0.0252388 0.0212984 -4.77836e-19)
(-0.0238533 0.0275494 -1.83433e-19)
(-0.0110389 0.0308134 3.53883e-19)
(0.0118608 0.0325895 -7.98902e-19)
(0.0437684 0.0339814 4.13712e-19)
(0.083764 0.0357705 5.24303e-20)
(0.131009 0.0385047 5.30148e-20)
(0.184676 0.0425579 -5.41864e-19)
(0.2439 0.0481653 -1.9136e-19)
(0.307756 0.0554479 -3.3738e-19)
(0.375257 0.0644294 3.25889e-19)
(0.445376 0.0750494 9.26144e-20)
(0.517082 0.0871739 1.82033e-20)
(0.589386 0.100602 4.25777e-19)
(0.661386 0.115065 -4.31034e-19)
(0.732302 0.13022 -1.7985e-20)
(0.801508 0.14566 1.06673e-20)
(0.868693 0.161232 5.8796e-20)
(0.930924 0.178475 3.36913e-19)
(-0.013136 0.009186 2.28549e-19)
(-0.0223702 0.0187188 5.88653e-19)
(-0.0165545 0.023875 4.72394e-19)
(0.00218698 0.0266292 -1.62825e-19)
(0.0322907 0.0284816 5.66285e-19)
(0.0724866 0.0305296 -4.77107e-20)
(0.12164 0.0335208 -6.72047e-20)
(0.178655 0.0379465 4.0007e-20)
(0.242399 0.0440995 5.47375e-19)
(0.311662 0.052109 3.21636e-19)
(0.385141 0.0619661 9.39218e-20)
(0.461474 0.0735452 5.74672e-21)
(0.539278 0.0866232 -6.2375e-19)
(0.61721 0.100899 5.41977e-19)
(0.694027 0.116012 9.31505e-20)
(0.768637 0.131552 -1.53179e-19)
(0.840125 0.14707 -6.66132e-19)
(0.907785 0.162108 -5.67e-20)
(0.971088 0.176202 2.63751e-19)
(1.0292 0.192493 -5.40472e-20)
(-0.0124981 0.00817218 -5.80025e-19)
(-0.0182287 0.0158833 2.42683e-19)
(-0.00694118 0.0200131 -1.18479e-18)
(0.0188528 0.0224674 4.85218e-19)
(0.0573159 0.0247178 -3.86953e-19)
(0.106912 0.0278306 2.85273e-19)
(0.166197 0.0324888 -4.4315e-19)
(0.233704 0.0390883 4.06816e-20)
(0.307877 0.0477964 -2.28413e-20)
(0.387045 0.0585899 1.19197e-19)
(0.469449 0.0712869 1.722e-19)
(0.553302 0.0855788 -3.25473e-19)
(0.636871 0.101065 1.72335e-19)
(0.718558 0.117284 1.58404e-19)
(0.796976 0.133748 6.85249e-19)
(0.87099 0.149965 -2.97421e-19)
(0.939744 0.165459 -1.98218e-19)
(1.00267 0.17982 3.33618e-19)
(1.05937 0.192481 1.78724e-19)
(1.11037 0.207311 -3.35265e-19)
(-0.0114101 0.00703199 5.08118e-19)
(-0.0125907 0.0128473 4.89955e-19)
(0.00531929 0.0160976 1.41331e-19)
(0.039361 0.0185534 5.95287e-19)
(0.0873487 0.0216174 2.92415e-19)
(0.14738 0.0262877 -5.27126e-19)
(0.217576 0.0331381 7.98364e-19)
(0.295967 0.0424157 -3.92885e-19)
(0.380448 0.0541064 3.9221e-19)
(0.468795 0.0679806 5.07559e-19)
(0.558751 0.0836413 -2.90076e-19)
(0.648128 0.100575 5.50895e-20)
(0.73493 0.118203 3.07472e-19)
(0.817449 0.135935 2.1677e-19)
(0.894336 0.153204 4.99839e-19)
(0.964627 0.169503 -1.99728e-19)
(1.02774 0.184405 -2.44038e-20)
(1.08346 0.197604 3.16411e-19)
(1.13173 0.208615 -6.7919e-20)
(1.17391 0.221371 3.62306e-22)
(-0.0097796 0.00577908 -2.6231e-19)
(-0.0052245 0.00968807 -9.64129e-19)
(0.0205502 0.0122934 2.2703e-19)
(0.0640678 0.0151476 -1.72828e-19)
(0.122695 0.0195296 -3.98924e-19)
(0.194034 0.0263169 -2.84785e-19)
(0.275623 0.0359118 -1.75933e-19)
(0.364846 0.0483452 4.27295e-19)
(0.458942 0.0633556 -2.53767e-19)
(0.555094 0.0804546 -2.59861e-19)
(0.650576 0.0989997 -3.28821e-19)
(0.742914 0.118271 -5.428e-20)
(0.830025 0.137545 -3.6688e-20)
(0.91031 0.15615 -7.61339e-19)
(0.98269 0.173517 3.69522e-19)
(1.04659 0.189201 -4.85882e-19)
(1.1019 0.202892 1.53029e-19)
(1.14886 0.214427 -1.16488e-18)
(1.18792 0.223532 3.51017e-19)
(1.2208 0.233775 4.45052e-19)
(-0.00750931 0.00443742 -6.58605e-20)
(0.00409949 0.00650911 4.70424e-19)
(0.0390471 0.00880024 3.01546e-20)
(0.0932545 0.0125449 7.25645e-20)
(0.163515 0.0188263 -1.47528e-19)
(0.246778 0.0283297 -2.41887e-21)
(0.339837 0.0412056 -3.78307e-21)
(0.439305 0.0571888 -8.90049e-20)
(0.541708 0.075704 3.15679e-19)
(0.643669 0.0959643 1.2208e-19)
(0.742126 0.117078 5.54356e-19)
(0.834523 0.138152 -1.51182e-19)
(0.918944 0.158376 1.05631e-19)
(0.994151 0.177085 -1.38021e-20)
(1.05957 0.193789 2.92769e-19)
(1.11518 0.208179 1.79351e-19)
(1.16144 0.220118 4.32749e-19)
(1.19911 0.229614 -6.99264e-19)
(1.22912 0.236642 8.80613e-19)
(1.25333 0.244223 -2.79124e-19)
(-0.00450068 0.00304349 -6.13289e-19)
(0.0155974 0.00344417 -1.91416e-19)
(0.0610573 0.00585486 1.4963e-19)
(0.127097 0.0110725 9.43307e-20)
(0.209784 0.0198916 9.66227e-20)
(0.305239 0.0327126 9.79737e-20)
(0.409361 0.0493384 -2.45171e-19)
(0.517908 0.0691235 -1.01405e-19)
(0.626718 0.0911253 3.14447e-20)
(0.731994 0.114247 -3.00421e-19)
(0.830569 0.137383 -1.35962e-19)
(0.920091 0.159536 8.21777e-19)
(0.999086 0.179905 -2.11972e-19)
(1.06692 0.197923 -2.92526e-19)
(1.12369 0.213263 -1.39058e-19)
(1.17002 0.225812 9.61869e-20)
(1.20694 0.235634 1.17601e-19)
(1.23568 0.242911 -5.63817e-19)
(1.25751 0.247843 8.16526e-19)
(1.27428 0.252881 -7.07963e-19)
(-0.000658166 0.00164781 -6.94456e-20)
(0.0294595 0.000658875 1.98996e-20)
(0.0867592 0.00372959 -2.5344e-20)
(0.165639 0.0110812 3.70446e-19)
(0.261266 0.0231046 2.03842e-20)
(0.368755 0.0398023 1.36028e-19)
(0.482996 0.0605245 -2.82583e-19)
(0.598892 0.0841717 -1.03086e-20)
(0.711726 0.109409 3.92617e-19)
(0.817531 0.134863 5.47527e-20)
(0.913347 0.15929 -3.42213e-19)
(0.997336 0.181694 -3.0058e-20)
(1.06873 0.201391 -2.81479e-19)
(1.12766 0.218004 2.80182e-19)
(1.17497 0.231433 3.89574e-19)
(1.2119 0.24179 -4.29594e-20)
(1.23997 0.249337 -5.24623e-20)
(1.26071 0.254406 1.59904e-19)
(1.27563 0.257365 -5.14582e-19)
(1.28646 0.26016 4.53131e-19)
(0.00410628 0.000315534 6.96929e-20)
(0.0458366 -0.00165008 -4.49737e-19)
(0.116241 0.00272686 1.20373e-19)
(0.208765 0.0129335 -3.73278e-19)
(0.317491 0.0288186 1.28342e-19)
(0.436376 0.0498591 -4.76644e-19)
(0.559259 0.0748519 1.92258e-19)
(0.680296 0.102197 -6.11969e-20)
(0.794472 0.130188 -2.47926e-21)
(0.897985 0.157255 6.26686e-20)
(0.988429 0.182133 -2.2832e-19)
(1.06476 0.203953 -3.26104e-19)
(1.12711 0.222248 -6.69335e-20)
(1.17643 0.236904 -3.00505e-20)
(1.21425 0.248074 -7.62709e-20)
(1.24235 0.256092 -2.4867e-20)
(1.26256 0.261388 -7.44525e-20)
(1.27658 0.264404 -6.45842e-20)
(1.28596 0.265609 -1.92356e-19)
(1.29231 0.26654 3.0535e-19)
(0.00986836 -0.000873789 1.67721e-19)
(0.0648268 -0.00325842 -1.86257e-19)
(0.149481 0.00316955 4.00822e-19)
(0.256184 0.0169849 -1.72984e-19)
(0.377757 0.0373367 4.62321e-19)
(0.506907 0.0630443 6.56527e-21)
(0.636479 0.092272 2.32187e-19)
(0.760126 0.122918 -6.21697e-20)
(0.872886 0.152984 2.5956e-19)
(0.971507 0.180826 1.87941e-20)
(1.05446 0.2053 6.18275e-19)
(1.12171 0.22578 -4.26856e-19)
(1.17431 0.242097 5.74914e-20)
(1.21404 0.254434 1.09769e-19)
(1.24297 0.263193 5.75522e-19)
(1.26325 0.268898 -2.06798e-19)
(1.27684 0.272097 -4.10267e-20)
(1.28549 0.273296 -2.17505e-19)
(1.29064 0.273007 -2.29617e-20)
(1.29372 0.27245 1.08889e-19)
(0.0166864 -0.00182742 -8.05482e-20)
(0.0864628 -0.00392055 2.32611e-19)
(0.186334 0.00538745 -2.38079e-19)
(0.30742 0.0235638 9.40652e-20)
(0.441148 0.0488889 -1.12393e-19)
(0.578964 0.0794039 4.12617e-19)
(0.712918 0.112605 -5.74501e-20)
(0.83651 0.145947 1.41632e-19)
(0.945254 0.177268 -8.33792e-20)
(1.03682 0.20501 -2.1768e-21)
(1.1108 0.228287 9.53254e-20)
(1.16823 0.246813 -7.38735e-20)
(1.2111 0.260761 1.91656e-19)
(1.24181 0.270603 -9.55394e-20)
(1.26285 0.276962 -4.21011e-19)
(1.27651 0.280495 4.18669e-19)
(1.28477 0.281823 -1.88744e-19)
(1.28926 0.281464 1.50729e-19)
(1.29129 0.279939 2.61507e-19)
(1.29208 0.278221 1.07445e-19)
(0.0245963 -0.00244153 2.00414e-19)
(0.110701 -0.0033782 -4.12984e-19)
(0.22652 0.00970117 7.90273e-20)
(0.361824 0.0329499 -5.73191e-20)
(0.506572 0.0636125 -2.31144e-19)
(0.651069 0.0988651 -1.81412e-19)
(0.786895 0.135558 -3.56524e-20)
(0.907842 0.170829 -3.23477e-19)
(1.01033 0.20252 -1.96987e-20)
(1.09324 0.229327 -6.01184e-20)
(1.15741 0.250738 -1.63245e-19)
(1.20495 0.266865 -3.62662e-20)
(1.2386 0.278227 -1.24999e-19)
(1.26124 0.285553 -2.08716e-19)
(1.27555 0.289631 2.13807e-19)
(1.28383 0.291202 2.95117e-20)
(1.28795 0.290903 5.8814e-20)
(1.28935 0.289233 -2.46497e-19)
(1.28914 0.2867 -6.14758e-21)
(1.28835 0.284079 -3.80535e-19)
(0.0336069 -0.0026042 2.19787e-19)
(0.137413 -0.00137101 1.46578e-19)
(0.269624 0.0164045 -2.36282e-19)
(0.418585 0.0453549 3.68975e-19)
(0.572818 0.081542 -3.97663e-20)
(0.721741 0.121244 1.37819e-19)
(0.856903 0.160762 4.77166e-20)
(0.972873 0.197092 1.69081e-19)
(1.06734 0.228275 -1.32396e-19)
(1.1406 0.253408 4.41368e-20)
(1.19475 0.272437 -4.2373e-20)
(1.23282 0.285887 -1.86593e-20)
(1.25813 0.294595 3.54639e-20)
(1.27382 0.299494 -6.53667e-20)
(1.2826 0.301475 -2.01001e-20)
(1.28665 0.301309 -6.14974e-20)
(1.28763 0.299615 -9.99935e-20)
(1.28677 0.296848 6.45537e-20)
(1.28501 0.293491 -8.86272e-20)
(1.28316 0.290156 3.82963e-19)
(0.0436959 -0.00219921 -1.09779e-19)
(0.166382 0.00235147 -3.10932e-19)
(0.315103 0.0257472 -4.1389e-20)
(0.476769 0.0609067 -1.12521e-20)
(0.638624 0.102606 -1.39263e-19)
(0.789588 0.146266 -2.28648e-19)
(0.921697 0.187802 7.48529e-20)
(1.03075 0.224286 -1.02856e-19)
(1.11599 0.254148 -1.15281e-19)
(1.17919 0.277001 6.42319e-20)
(1.22358 0.293289 -4.85497e-20)
(1.25295 0.303931 -9.82674e-20)
(1.27098 0.310026 -3.3348e-21)
(1.28088 0.31265 6.65635e-20)
(1.28524 0.312741 -6.7938e-20)
(1.28604 0.311057 9.42802e-20)
(1.28471 0.308167 2.53548e-20)
(1.28226 0.304474 6.39371e-20)
(1.27944 0.300431 1.24681e-19)
(1.27688 0.296511 -1.06819e-19)
(0.0548067 -0.0011106 1.0487e-19)
(0.197303 0.00801714 -9.28928e-21)
(0.362299 0.0379193 4.70342e-20)
(0.535362 0.0796411 -6.38473e-20)
(0.702749 0.126636 5.24095e-21)
(0.853385 0.173586 2.21542e-19)
(0.980332 0.216252 -1.45548e-19)
(1.08101 0.252009 6.16577e-20)
(1.15635 0.279843 5.43736e-20)
(1.20956 0.299954 -1.52872e-19)
(1.24484 0.313285 1.43683e-19)
(1.26648 0.321101 1.272e-21)
(1.27834 0.324698 -1.01301e-19)
(1.28355 0.325231 1.22119e-19)
(1.28447 0.323634 -4.84777e-20)
(1.28284 0.320622 3.70779e-20)
(1.27985 0.316698 -4.14678e-20)
(1.27629 0.312204 -1.6579e-20)
(1.27276 0.307575 -1.45286e-19)
(1.26975 0.303149 4.44954e-20)
(0.0668477 0.000772344 -3.53741e-20)
(0.229785 0.015819 9.49036e-20)
(0.410468 0.0530386 1.47921e-20)
(0.593317 0.101499 6.2059e-20)
(0.764033 0.153376 2.96078e-20)
(0.912124 0.202821 1.38783e-20)
(1.03218 0.245701 7.86969e-20)
(1.1235 0.279922 -9.55311e-21)
(1.18876 0.305145 3.47087e-20)
(1.23243 0.322193 5.578e-20)
(1.25946 0.33247 2.69239e-20)
(1.27445 0.337523 1.93325e-20)
(1.28123 0.338777 7.84081e-20)
(1.28271 0.337405 -7.59005e-20)
(1.28103 0.334303 1.62953e-20)
(1.27762 0.330118 -1.5261e-20)
(1.27345 0.325281 2.36171e-20)
(1.26916 0.320079 1.97898e-20)
(1.26517 0.314929 4.13407e-20)
(1.26187 0.310039 1.74314e-21)
(0.0796917 0.00354987 2.09698e-20)
(0.263369 0.0259039 1.91542e-20)
(0.458805 0.0711423 -2.65131e-20)
(0.649602 0.126328 1.65668e-20)
(0.82145 0.182507 9.35936e-21)
(0.965034 0.233568 -2.91149e-20)
(1.07688 0.275771 9.60927e-21)
(1.15834 0.307744 1.73138e-21)
(1.21374 0.329907 1.65763e-20)
(1.24859 0.343695 -4.44481e-20)
(1.26837 0.350913 -1.38104e-22)
(1.27777 0.353318 1.23224e-20)
(1.28045 0.352396 -9.81923e-21)
(1.27906 0.349294 9.93551e-21)
(1.27544 0.344843 2.59325e-20)
(1.27077 0.339606 -1.47561e-20)
(1.26581 0.333944 4.10714e-21)
(1.26103 0.328095 1.61718e-20)
(1.25677 0.322463 -2.66654e-20)
(1.25332 0.317127 1.27988e-20)
(0.0931792 0.0073066 5.84726e-20)
(0.297533 0.0383628 -3.17962e-20)
(0.506478 0.0921828 3.74382e-20)
(0.703249 0.153896 -2.78558e-20)
(0.874141 0.213658 -1.24936e-20)
(1.01158 0.265424 3.77623e-21)
(1.11435 0.306119 -1.22636e-20)
(1.18585 0.335249 4.41091e-20)
(1.2319 0.354028 -3.67314e-20)
(1.25882 0.364461 8.61905e-21)
(1.27238 0.368683 -6.4234e-21)
(1.27719 0.368583 -4.18474e-20)
(1.27665 0.365652 4.05931e-20)
(1.27311 0.360975 1.54563e-20)
(1.26809 0.355297 -1.53776e-20)
(1.26254 0.3491 3.60997e-20)
(1.25707 0.342673 -5.30148e-22)
(1.25202 0.336215 -3.50261e-20)
(1.24762 0.330123 2.595e-20)
(1.24409 0.324341 8.17994e-21)
(0.107121 0.012107 -2.04891e-20)
(0.331716 0.0532248 5.94243e-20)
(0.552665 0.116029 6.86559e-20)
(0.753381 0.183897 -3.23878e-20)
(0.921424 0.24643 5.63567e-20)
(1.05145 0.297997 8.91843e-20)
(1.14466 0.336442 -4.90891e-21)
(1.20645 0.362255 -1.53098e-20)
(1.24387 0.377439 7.5642e-20)
(1.26385 0.384505 3.68814e-20)
(1.2722 0.385836 -6.69142e-21)
(1.27333 0.383384 5.49799e-20)
(1.27033 0.378598 -5.89582e-20)
(1.26521 0.372477 9.18028e-20)
(1.25922 0.365669 -1.53156e-20)
(1.25311 0.358576 4.38679e-20)
(1.24734 0.351424 7.90475e-21)
(1.24216 0.344379 3.13943e-20)
(1.23772 0.337835 -2.98851e-20)
(1.23421 0.3316 7.18827e-21)
(0.121302 0.0179908 -3.18881e-20)
(0.365336 0.0704516 7.57095e-20)
(0.596573 0.14247 5.62397e-20)
(0.799243 0.215969 -8.52048e-21)
(0.962801 0.280402 8.76138e-20)
(1.0845 0.330912 -6.54169e-20)
(1.16805 0.366469 -5.12538e-21)
(1.22063 0.388608 5.77736e-20)
(1.2503 0.400083 1.83573e-20)
(1.26431 0.403831 2.56744e-20)
(1.26839 0.402402 -3.79094e-20)
(1.26666 0.397752 9.88329e-20)
(1.26184 0.39125 1.84493e-20)
(1.25561 0.383791 -8.75366e-20)
(1.24899 0.375927 1.2787e-19)
(1.24257 0.367984 -1.50867e-19)
(1.23666 0.36013 -6.92464e-20)
(1.23148 0.352513 1.14775e-20)
(1.22708 0.345519 6.72538e-20)
(1.22364 0.338818 -1.26742e-19)
(0.135491 0.0249705 -7.18076e-20)
(0.397808 0.0899377 -1.69378e-19)
(0.637478 0.171222 -1.46433e-19)
(0.840214 0.249705 -1.99399e-19)
(0.99794 0.315153 -1.13124e-19)
(1.11077 0.363817 -2.34579e-19)
(1.18483 0.395959 2.98039e-20)