1.275 	2.15223e-18 	-2.76991e-20 	-0.127949 	-0.0334559 	-2.6434e-22
1.825 	2.15223e-18 	-1.39322e-20 	-0.264754 	-0.0635496 	3.59467e-21
2.375 	2.15223e-18 	-2.66896e-23 	-0.258002 	0.048211 	-1.56285e-21
