/*--------------------------------*- C++ -*----------------------------------*\
  =========                 |
  \\      /  F ield         | OpenFOAM: The Open Source CFD Toolbox
   \\    /   O peration     | Website:  https://openfoam.org
    \\  /    A nd           | Version:  6.0
     \\/     M anipulation  |
\*---------------------------------------------------------------------------*/
FoamFile
{
    version     2.0;
    format      ascii;
    class       volVectorField;
    location    "49";
    object      U;
}
// * * * * * * * * * * * * * * * * * * * * * * * * * * * * * * * * * * * * * //

dimensions      [0 1 -1 0 0 0 0];

internalField   nonuniform List<vector> 
12500
(
(-0.000284223 0.00285384 -5.78657e-22)
(-0.0015335 0.00688375 8.04421e-21)
(-0.00388601 0.00962909 -1.16516e-20)
(-0.00687301 0.0113909 5.34141e-21)
(-0.0102354 0.0124116 3.17495e-22)
(-0.0138094 0.012887 -6.53403e-22)
(-0.0174636 0.0129735 -9.67872e-21)
(-0.0210999 0.0127944 5.30584e-21)
(-0.02465 0.0124453 3.50722e-21)
(-0.0280693 0.0119993 3.55381e-21)
(-0.0313319 0.0115111 -6.00827e-21)
(-0.0344273 0.0110207 3.48907e-21)
(-0.037357 0.0105566 -1.64104e-21)
(-0.0401317 0.010138 2.77991e-21)
(-0.0427696 0.00977708 -7.07827e-21)
(-0.0452941 0.00948044 1.0204e-20)
(-0.0477323 0.0092502 -1.9378e-21)
(-0.0501137 0.009085 -7.20375e-21)
(-0.0524685 0.00898058 3.69049e-21)
(-0.0548271 0.00893028 -3.51687e-21)
(-0.0572234 0.00892534 3.13907e-21)
(-0.0596912 0.00895517 4.13381e-21)
(-0.0622169 0.00900833 4.22967e-22)
(-0.0647207 0.00907295 -1.18174e-20)
(-0.0675298 0.00912979 6.22913e-21)
(-0.000398436 0.00344013 1.06803e-20)
(-0.00180617 0.0084132 -2.7523e-20)
(-0.00425755 0.0118833 8.093e-21)
(-0.00730053 0.0141853 5.40455e-21)
(-0.0106872 0.0155906 -4.30149e-21)
(-0.0142619 0.0163208 -2.44163e-20)
(-0.0178993 0.0165565 7.24603e-21)
(-0.021506 0.0164429 -1.36744e-20)
(-0.0250167 0.0160958 1.63312e-20)
(-0.0283893 0.0156058 -2.17666e-20)
(-0.0315995 0.0150434 1.1596e-20)
(-0.0346381 0.0144629 3.75547e-21)
(-0.0375073 0.0139048 -9.41714e-21)
(-0.0402186 0.0133993 -4.14731e-21)
(-0.0427908 0.0129679 3.03678e-20)
(-0.045248 0.0126251 -2.6836e-20)
(-0.047618 0.0123796 6.41697e-21)
(-0.0499313 0.0122351 1.10733e-20)
(-0.052219 0.0121912 -2.50542e-21)
(-0.0545127 0.0122438 1.7768e-20)
(-0.0568476 0.012385 3.24416e-21)
(-0.0592589 0.012604 -1.17705e-21)
(-0.0617341 0.0128892 -2.23751e-20)
(-0.0641942 0.01323 2.05529e-20)
(-0.0669665 0.0135959 -3.91981e-20)
(-0.000549541 0.00401418 3.43126e-20)
(-0.00217617 0.00991369 1.13694e-20)
(-0.00477397 0.0140975 -1.49187e-20)
(-0.00790814 0.0169326 6.40859e-21)
(-0.0113429 0.0187178 5.96348e-21)
(-0.0149314 0.0196994 2.26398e-20)
(-0.0185555 0.0200815 -2.87333e-20)
(-0.0221272 0.020031 -4.68872e-21)
(-0.0255852 0.0196827 -1.91963e-20)
(-0.0288904 0.019145 -1.6e-20)
(-0.0320207 0.018504 2.05975e-20)
(-0.0349683 0.0178278 -6.89243e-20)
(-0.0377367 0.0171696 -2.17262e-21)
(-0.0403385 0.0165706 -4.12716e-20)
(-0.0427933 0.0160617 -4.85771e-21)
(-0.0451263 0.015666 5.82692e-21)
(-0.0473666 0.015399 -3.19327e-20)
(-0.049546 0.0152702 -1.99575e-20)
(-0.0516973 0.0152834 -2.35812e-20)
(-0.0538541 0.0154375 3.68814e-20)
(-0.0560534 0.0157261 1.34581e-20)
(-0.0583329 0.0161386 -5.99059e-20)
(-0.0606824 0.0166634 -2.88159e-20)
(-0.0630225 0.0172916 -3.22328e-20)
(-0.0656828 0.0179814 8.66718e-20)
(-0.00073671 0.00457481 -1.03989e-21)
(-0.00264137 0.0113811 -2.6334e-20)
(-0.00543205 0.0162645 -1.26725e-20)
(-0.00869165 0.0196222 7.87434e-21)
(-0.0121972 0.0217791 4.86808e-20)
(-0.015812 0.0230055 -2.18961e-20)
(-0.0194258 0.023528 4.66897e-20)
(-0.0229566 0.0235342 4.44335e-20)
(-0.0263484 0.023178 2.69969e-20)
(-0.0295652 0.0225847 -3.91594e-22)
(-0.0325878 0.0218559 5.42981e-20)
(-0.0354102 0.0210737 9.39931e-21)
(-0.0380374 0.0203037 4.1342e-20)
(-0.0404834 0.0195983 9.49744e-20)
(-0.0427689 0.0189987 -1.10059e-19)
(-0.0449206 0.0185366 1.65337e-19)
(-0.046969 0.0182352 3.59437e-20)
(-0.0489479 0.0181104 -7.9262e-20)
(-0.0508923 0.0181711 -1.12182e-20)
(-0.0528383 0.01842 2.87e-20)
(-0.0548261 0.0188528 -1.44393e-20)
(-0.0568966 0.0194595 -8.68935e-21)
(-0.0590425 0.0202294 -8.44269e-21)
(-0.0611841 0.0211555 -3.38637e-20)
(-0.0636552 0.022185 1.18314e-19)
(-0.000959117 0.00512085 1.79338e-20)
(-0.00319955 0.0128114 -8.31515e-20)
(-0.00622821 0.018377 1.00794e-19)
(-0.00964621 0.0222434 -4.00464e-20)
(-0.0132443 0.0247608 4.79574e-20)
(-0.0168966 0.0262221 3.91244e-20)
(-0.0205021 0.0268758 1.48383e-20)
(-0.0239858 0.0269293 7.8682e-22)
(-0.0272972 0.0265549 8.33146e-20)
(-0.0304045 0.0258944 5.76458e-20)
(-0.0332916 0.0250646 -2.30202e-20)
(-0.0359548 0.0241611 -1.48251e-20)
(-0.0384008 0.0232623 6.25895e-20)
(-0.040645 0.022432 1.17644e-20)
(-0.0427096 0.0217219 3.19762e-20)
(-0.0446226 0.0211731 7.64169e-20)
(-0.0464167 0.0208173 -6.58557e-20)
(-0.0481278 0.0206777 5.30893e-20)
(-0.0497938 0.0207695 -1.14585e-19)
(-0.0514539 0.0210999 9.62434e-20)
(-0.0531523 0.0216681 6.48692e-22)
(-0.0549345 0.0224656 -7.67728e-20)
(-0.056797 0.0234829 3.07677e-20)
(-0.0586594 0.0247165 7.00347e-20)
(-0.0608625 0.0261021 -1.03036e-19)
(-0.00121593 0.00565122 9.2888e-20)
(-0.00384824 0.0142006 -9.85759e-20)
(-0.0071583 0.0204276 -1.57855e-20)
(-0.010766 0.024786 1.99975e-20)
(-0.0144766 0.0276495 -4.30668e-20)
(-0.0181764 0.0293332 -6.70587e-20)
(-0.0217743 0.0301061 -5.57558e-20)
(-0.0252036 0.0301949 -1.34253e-20)
(-0.0284199 0.0297891 -9.57746e-20)
(-0.0313964 0.0290468 7.64164e-20)
(-0.0341202 0.028099 -1.18418e-19)
(-0.0365904 0.027055 5.98979e-20)
(-0.0388156 0.0260055 -1.97603e-20)
(-0.0408126 0.0250261 4.5958e-20)
(-0.0426051 0.0241793 -1.15538e-19)
(-0.0442227 0.0235165 5.61031e-20)
(-0.0457002 0.0230787 4.24616e-21)
(-0.0470759 0.0228978 2.48158e-20)
(-0.0483912 0.0229963 1.49986e-19)
(-0.0496891 0.0233877 3.33575e-20)
(-0.0510187 0.0240758 -2.91908e-21)
(-0.0524312 0.0250549 9.50769e-21)
(-0.0539282 0.0263183 6.25016e-20)
(-0.0554289 0.0278668 1.78885e-20)
(-0.0572837 0.029625 5.85664e-20)
(-0.00150628 0.00616481 -5.7867e-20)
(-0.00458467 0.0155444 8.21274e-20)
(-0.00821739 0.0224093 5.16305e-21)
(-0.0120437 0.0272396 -1.00158e-19)
(-0.0158848 0.0304324 2.10668e-19)
(-0.01964 0.0323234 -6.80229e-20)
(-0.0232293 0.0332015 9.93439e-20)
(-0.0265954 0.0333114 9.08062e-20)
(-0.0297009 0.0328593 -7.50895e-20)
(-0.0325244 0.0320181 -1.09295e-19)
(-0.0350571 0.0309329 2.99229e-20)
(-0.0373008 0.0297257 -3.15557e-20)
(-0.039266 0.0284996 -1.39482e-19)
(-0.0409711 0.0273418 1.69556e-19)
(-0.0424412 0.0263262 -8.13114e-20)
(-0.0437074 0.025515 -5.60379e-20)
(-0.0448064 0.0249599 6.01278e-22)
(-0.0457794 0.0247024 4.59032e-20)
(-0.0466712 0.0247744 1.88873e-20)
(-0.0475296 0.0251974 -7.39254e-20)
(-0.0484094 0.0259819 8.46603e-20)
(-0.0493689 0.0271266 -1.46816e-19)
(-0.0504162 0.0286293 8.97549e-20)
(-0.0514706 0.0304975 -6.87032e-20)
(-0.0528962 0.0326442 1.78816e-20)
(-0.00182925 0.00666047 8.44655e-20)
(-0.00540558 0.0168387 -6.49264e-20)
(-0.00939944 0.0243144 -4.12531e-20)
(-0.0134705 0.029594 -7.28391e-20)
(-0.0174569 0.0330967 -1.33076e-19)
(-0.0212725 0.0351783 -9.82636e-20)
(-0.0248498 0.0361462 6.13091e-20)
(-0.0281417 0.0362621 -9.28069e-20)
(-0.0311189 0.0357476 1.17739e-19)
(-0.0337662 0.0347894 -1.9162e-19)
(-0.0360791 0.0335456 8.51236e-20)
(-0.0380625 0.0321505 1.7976e-19)
(-0.0397289 0.0307189 -2.52606e-19)
(-0.041098 0.0293494 3.60834e-20)
(-0.0421962 0.0281276 4.69877e-20)
(-0.0430558 0.027127 4.53908e-20)
(-0.0437153 0.0264112 -4.86617e-20)
(-0.0442185 0.026033 -1.18629e-20)
(-0.0446141 0.0260356 -3.58712e-20)
(-0.0449549 0.0264509 -2.98381e-20)
(-0.0453024 0.0272983 -1.64282e-19)
(-0.0457238 0.0285838 -1.11581e-20)
(-0.0462349 0.0303121 1.84742e-21)
(-0.046757 0.0325001 -7.43315e-20)
(-0.0476717 0.0350499 7.66044e-20)
(-0.00218377 0.00713688 2.47233e-21)
(-0.00630709 0.0180788 2.65365e-20)
(-0.010697 0.0261351 2.76734e-20)
(-0.0150351 0.0318386 1.59852e-20)
(-0.0191777 0.0356299 1.35608e-19)
(-0.0230549 0.0378841 1.27386e-19)
(-0.0266131 0.0389258 -1.03476e-19)
(-0.0298166 0.0390325 -3.15699e-20)
(-0.0326453 0.0384396 -2.79776e-20)
(-0.0350908 0.0373467 1.44301e-19)
(-0.0371537 0.0359235 5.18728e-20)
(-0.0388419 0.0343153 -7.53746e-20)
(-0.0401703 0.0326479 -6.38888e-20)
(-0.0411596 0.031031 1.53882e-19)
(-0.0418369 0.0295614 -3.79411e-20)
(-0.0422355 0.0283249 -4.6051e-20)
(-0.0423951 0.0273975 -6.4255e-20)
(-0.042362 0.0268454 -5.00645e-20)
(-0.0421885 0.026725 -6.39867e-20)
(-0.041933 0.0270817 -4.18583e-20)
(-0.0416645 0.0279471 1.73909e-19)
(-0.0414606 0.0293377 -8.5724e-20)
(-0.0413471 0.0312688 5.7739e-20)
(-0.0412486 0.0337705 -1.53854e-19)
(-0.0415709 0.0367355 6.18406e-20)
(-0.00256859 0.00759245 -7.59891e-20)
(-0.00728441 0.0192593 -1.98213e-20)
(-0.0121009 0.0278629 -1.54518e-19)
(-0.0167232 0.0339623 -7.40592e-20)
(-0.021028 0.0380195 -1.46045e-19)
(-0.0249629 0.0404275 -1.52181e-20)
(-0.02849 0.0415273 7.82353e-20)
(-0.0315863 0.0416106 -4.77229e-20)
(-0.034242 0.0409252 1.02708e-19)
(-0.0364565 0.0396817 -2.49608e-19)
(-0.0382358 0.0380601 -7.27566e-21)
(-0.0395917 0.0362154 4.42423e-20)
(-0.040541 0.0342828 -5.6124e-20)
(-0.0411055 0.0323824 5.11184e-20)
(-0.0413126 0.0306218 -3.91119e-20)
(-0.0411959 0.0290989 -8.38581e-20)
(-0.0407957 0.0279031 1.52993e-19)
(-0.0401601 0.0271153 9.49742e-20)
(-0.0393448 0.0268078 -1.96602e-20)
(-0.0384135 0.0270426 6.2817e-20)
(-0.037444 0.0278676 -1.23895e-19)
(-0.0365255 0.0293143 1.78734e-19)
(-0.0356964 0.0314135 -2.4415e-19)
(-0.0348874 0.0342146 5.02084e-20)
(-0.0345359 0.0376023 -9.56564e-20)
(-0.00298213 0.00802521 4.13339e-21)
(-0.00833161 0.0203741 -6.78105e-20)
(-0.0135997 0.0294881 1.00183e-19)
(-0.0185174 0.0359531 2.0539e-19)
(-0.0229838 0.0402521 -3.43307e-21)
(-0.026966 0.0427951 2.32552e-20)
(-0.0304433 0.0439383 -8.78754e-20)
(-0.033407 0.0439862 4.10676e-20)
(-0.0358591 0.0431972 2.83548e-19)
(-0.0378074 0.0417913 -6.43133e-20)
(-0.0392646 0.0399566 -7.60406e-20)
(-0.0402463 0.0378562 2.87265e-19)
(-0.0407717 0.0356332 9.39438e-20)
(-0.0408636 0.0334161 4.47303e-20)
(-0.0405491 0.0313225 4.58421e-20)
(-0.0398614 0.0294619 1.2474e-19)
(-0.0388408 0.0279372 -4.79555e-20)
(-0.037536 0.0268454 1.26988e-19)
(-0.0360054 0.0262768 1.71904e-19)
(-0.0343181 0.0263138 -1.46618e-19)
(-0.0325607 0.0270252 2.18091e-19)
(-0.030836 0.0284635 7.80901e-20)
(-0.0291974 0.0306816 -2.96004e-19)
(-0.0275856 0.0337562 4.28476e-19)
(-0.0264796 0.0375678 -3.47108e-19)
(-0.00342242 0.00843271 -1.9408e-19)
(-0.00944136 0.0214159 1.05588e-19)
(-0.0151792 0.0309999 -7.08707e-20)
(-0.0203962 0.0377978 -6.72348e-20)
(-0.0250157 0.0423132 -7.26619e-20)
(-0.0290265 0.0449729 -7.87542e-20)
(-0.0324267 0.0461467 2.1581e-20)
(-0.0352239 0.0461503 2.05362e-19)
(-0.0374328 0.0452513 -4.39077e-20)
(-0.0390714 0.0436769 -1.14545e-19)
(-0.0401594 0.0416214 -7.0018e-20)
(-0.0407175 0.0392535 -2.86108e-20)
(-0.0407673 0.0367222 8.4935e-20)
(-0.0403326 0.0341624 -5.41245e-20)
(-0.0394402 0.0316997 -1.76806e-19)
(-0.0381222 0.0294538 -1.95282e-19)
(-0.0364175 0.0275406 7.79029e-20)
(-0.0343747 0.0260733 -1.45065e-19)
(-0.0320538 0.0251627 1.26294e-19)
(-0.0295283 0.0249144 -3.5642e-19)
(-0.0268938 0.0254242 2.74169e-19)
(-0.0242681 0.0267719 -3.62913e-19)
(-0.0217226 0.0290422 -6.9402e-21)
(-0.0192124 0.0323495 -1.22606e-19)
(-0.0172715 0.0365768 3.59677e-19)
(-0.00388693 0.00881192 2.97893e-19)
(-0.0106047 0.0223764 4.36645e-20)
(-0.0168227 0.0323857 -2.87116e-20)
(-0.0223337 0.0394811 -1.2063e-20)
(-0.0270882 0.0441868 2.24921e-19)
(-0.0310985 0.0469453 7.31801e-20)
(-0.0343836 0.0481392 6.63937e-20)
(-0.0369689 0.048094 -5.33307e-20)
(-0.0388835 0.0470844 2.05724e-19)
(-0.0401567 0.0453431 -1.0109e-19)
(-0.0408167 0.0430685 6.52041e-20)
(-0.0408898 0.0404322 1.66163e-19)
(-0.0404012 0.0375864 -9.41842e-20)
(-0.0393757 0.0346699 1.02164e-19)
(-0.0378398 0.0318135 9.65229e-20)
(-0.035824 0.0291446 3.30098e-20)
(-0.0333652 0.0267904 -8.1491e-20)
(-0.0305106 0.0248797 2.25411e-19)
(-0.0273199 0.023544 -2.09849e-20)
(-0.0238703 0.0229158 -2.43066e-20)
(-0.0202658 0.0231224 2.70642e-19)
(-0.0166402 0.0242798 -1.92828e-19)
(-0.0130855 0.0265153 3.25057e-19)
(-0.00957696 0.0299963 -2.69997e-19)
(-0.00672024 0.0346182 3.46967e-19)
(-0.00437248 0.00915924 -1.44075e-19)
(-0.0118107 0.0232458 3.19454e-20)
(-0.0185099 0.0336315 -3.33191e-20)
(-0.0242995 0.0409862 -1.57258e-19)
(-0.0291595 0.0458544 9.13817e-21)
(-0.033128 0.0486944 8.95925e-20)
(-0.0362467 0.0499005 -3.64178e-19)
(-0.0385604 0.0498064 2.71905e-19)
(-0.0401143 0.0486927 -2.64673e-19)
(-0.0409505 0.0467956 -1.66917e-19)
(-0.0411069 0.044315 1.49823e-19)
(-0.0406169 0.0414235 -3.24359e-19)
(-0.0395099 0.0382733 2.7331e-19)
(-0.0378131 0.0350038 -8.68452e-20)
(-0.0355528 0.0317476 -2.4838e-19)
(-0.032758 0.0286362 6.13684e-20)
(-0.0294631 0.0258047 -5.75731e-20)
(-0.0257125 0.0233951 2.18022e-20)
(-0.0215646 0.0215585 -7.77133e-20)
(-0.0170981 0.0204555 -2.58645e-19)
(-0.0124244 0.0202495 5.78765e-20)
(-0.00769365 0.0211012 -3.40559e-23)
(-0.00302092 0.0231942 -2.67734e-19)
(0.00159259 0.0267682 1.881e-19)
(0.00544814 0.0317464 -1.6262e-19)
(-0.0048752 0.00947057 5.83685e-20)
(-0.0130465 0.0240132 1.07453e-19)
(-0.0202175 0.0347214 1.50198e-19)
(-0.0262583 0.0422935 7.7285e-20)
(-0.0311813 0.0472951 -7.57246e-20)
(-0.035052 0.0501994 1.80661e-19)
(-0.037937 0.0514118 1.33688e-19)
(-0.0399021 0.0512735 -4.85798e-20)
(-0.0410099 0.0500695 1.73849e-19)
(-0.0413169 0.0480377 -1.78819e-19)
(-0.0408723 0.0453781 -5.24264e-20)
(-0.0397179 0.0422614 5.32252e-20)
(-0.0378891 0.0388372 1.05669e-19)
(-0.0354164 0.0352419 1.22782e-21)
(-0.0323276 0.0316059 6.6984e-20)
(-0.0286507 0.0280601 1.23613e-19)
(-0.0244177 0.0247425 -2.10556e-19)
(-0.0196697 0.0218036 2.61916e-19)
(-0.0144625 0.0194108 8.86384e-20)
(-0.00887434 0.0177507 3.14519e-20)
(-0.00302223 0.0170255 -3.18625e-19)
(0.00292791 0.0174477 4.50785e-20)
(0.00883653 0.019272 7.00064e-20)
(0.0146713 0.0228353 -1.69139e-20)
(0.019614 0.0281109 7.99534e-20)
(-0.00539048 0.00974145 4.61599e-21)
(-0.0142972 0.0246668 -2.7682e-19)
(-0.0219187 0.0356378 -6.81867e-21)
(-0.0281701 0.0433817 -6.97574e-20)
(-0.0330986 0.0484848 -4.58307e-19)
(-0.0367992 0.0514357 3.95695e-19)
(-0.0393646 0.0526502 -2.81545e-19)
(-0.0408831 0.0524764 -1.41033e-20)
(-0.0414364 0.0512026 -1.33059e-19)
(-0.0410967 0.0490677 2.30144e-19)
(-0.039926 0.04627 -2.47779e-19)
(-0.0379763 0.0429767 -1.16073e-19)
(-0.0352907 0.0393324 2.51327e-21)
(-0.0319052 0.035467 -2.51461e-19)
(-0.0278507 0.0315045 3.43162e-19)
(-0.0231562 0.0275701 -3.97845e-19)
(-0.0178527 0.0237984 7.02674e-22)
(-0.0119788 0.0203411 6.10093e-20)
(-0.00558664 0.0173748 -1.52902e-19)
(0.00124733 0.0151072 1.48469e-19)
(0.00840277 0.0137765 -2.10608e-19)
(0.0156997 0.0136511 -1.3941e-19)
(0.0229743 0.0150708 2.60034e-19)
(0.0301599 0.0184988 -2.83892e-19)
(0.0362883 0.0239895 -5.54763e-21)
(-0.00591302 0.00996724 -2.34557e-19)
(-0.015546 0.0251942 2.68911e-19)
(-0.0235837 0.0363624 -8.29278e-20)
(-0.0299903 0.0442276 1.59618e-19)
(-0.0348502 0.0493971 1.72066e-19)
(-0.0382894 0.0523751 -1.51547e-19)
(-0.0404281 0.0535877 -1.00582e-19)
(-0.0413785 0.0533896 -1.20358e-19)
(-0.0412422 0.0520724 1.10169e-19)
(-0.0401083 0.049875 -7.30547e-21)
(-0.038053 0.0469937 1.60705e-19)
(-0.0351404 0.0435911 1.58464e-19)
(-0.0314233 0.0398049 -1.89438e-19)
(-0.0269458 0.0357568 3.72184e-19)
(-0.0217447 0.0315603 -2.46926e-19)
(-0.0158531 0.0273296 -4.25512e-20)
(-0.00930387 0.0231892 4.81724e-19)
(-0.00213511 0.019283 -2.23046e-19)
(0.00560297 0.0157867 1.42388e-19)
(0.0138365 0.0129178 2.78325e-19)
(0.0224438 0.0109426 -1.80615e-19)
(0.0312334 0.0101815 1.89929e-20)
(0.0400196 0.011069 -1.24741e-20)
(0.0487035 0.0142258 -7.43847e-20)
(0.0561335 0.0198268 1.39626e-19)
(-0.00643692 0.0101435 5.36551e-20)
(-0.0167742 0.0255832 -1.70532e-19)
(-0.0251795 0.0368764 9.32258e-20)
(-0.0316699 0.0448066 -1.13086e-21)
(-0.0363688 0.0500032 7.01074e-20)
(-0.0394347 0.0529858 -1.20637e-19)
(-0.0410162 0.0541915 6.90021e-20)
(-0.04125 0.0539813 1.87915e-19)
(-0.0402586 0.0526504 -5.72605e-21)
(-0.0381487 0.0504381 -9.60836e-20)
(-0.035012 0.0475387 9.66586e-20)
(-0.0309259 0.0441105 -2.17831e-21)
(-0.0259554 0.0402842 -3.06263e-19)
(-0.0201551 0.0361719 1.13568e-19)
(-0.0135718 0.0318748 2.51175e-20)
(-0.00624679 0.0274924 -4.4313e-20)
(0.00178056 0.0231324 -7.90336e-20)
(0.0104678 0.0189218 3.02701e-19)
(0.0197629 0.0150222 7.39832e-20)
(0.0295925 0.0116457 -1.58371e-19)
(0.0398341 0.0090692 -1.90814e-20)
(0.0502874 0.00765138 2.18546e-19)
(0.06075 0.00791878 -1.0203e-19)
(0.0711008 0.010678 4.39311e-20)
(0.0799748 0.0162702 2.95138e-20)
(-0.00695588 0.010266 -1.07441e-19)
(-0.0179615 0.0258221 1.06699e-19)
(-0.0266705 0.0371611 -6.01207e-20)
(-0.0331555 0.0450944 -1.92965e-19)
(-0.0375811 0.0502733 -1.77587e-19)
(-0.0401389 0.0532341 -7.86587e-20)
(-0.0410069 0.0544249 -6.50886e-20)
(-0.0403466 0.0542139 -1.92589e-19)
(-0.0383013 0.0528999 -7.77971e-20)
(-0.0349961 0.050724 7.08993e-20)
(-0.0305385 0.0478795 -1.01279e-19)
(-0.0250204 0.0445216 -1.07002e-19)
(-0.0185208 0.0407754 -1.00459e-19)
(-0.011108 0.0367446 1.82632e-19)
(-0.00284249 0.0325183 -3.83526e-19)
(0.00622095 0.0281801 2.19247e-19)
(0.0160297 0.023817 -3.75082e-19)
(0.0265296 0.0195318 -5.78702e-20)
(0.0376594 0.0154589 -2.06311e-19)
(0.04934 0.011786 -4.82585e-20)
(0.0614454 0.00877534 -5.88196e-20)
(0.0737669 0.00679555 -1.96706e-19)
(0.0860922 0.00644395 -2.1637e-20)
(0.0983006 0.00872698 1.20609e-19)
(0.108798 0.0141978 -3.1327e-19)
(-0.0074633 0.0103316 9.22156e-20)
(-0.0190865 0.0259005 1.20546e-19)
(-0.028018 0.0371996 4.21849e-19)
(-0.0343892 0.0450676 -7.40685e-20)
(-0.0384073 0.0501788 1.76183e-19)
(-0.0402978 0.0530865 4.19655e-19)
(-0.0402682 0.0542506 -1.14355e-19)
(-0.0385047 0.0540468 1.54779e-19)
(-0.0351715 0.0527789 9.02985e-20)
(-0.0304114 0.0506907 1.63667e-19)
(-0.0243479 0.0479766 -3.28201e-20)
(-0.0170882 0.044791 2.21286e-20)
(-0.00872638 0.0412566 -5.75164e-20)
(0.000652904 0.0374714 3.10484e-19)
(0.0109717 0.0335161 3.96815e-20)
(0.0221559 0.0294607 2.88333e-19)
(0.0341317 0.0253725 -7.38192e-20)
(0.0468234 0.0213267 2.64008e-19)
(0.060149 0.0174222 3.71212e-20)
(0.0740117 0.0138043 1.34353e-19)
(0.0882725 0.0106915 -5.80369e-20)
(0.10271 0.0084192 -1.04515e-20)
(0.117107 0.00760769 3.19758e-19)
(0.131381 0.00944834 1.96895e-19)
(0.143726 0.0147355 -8.19413e-20)
(-0.00795245 0.0103378 -2.23428e-19)
(-0.0201261 0.02581 -2.26303e-19)
(-0.0291805 0.0369773 -2.36442e-19)
(-0.0353084 0.0447059 8.66411e-20)
(-0.0387607 0.0496938 -1.73947e-19)
(-0.0397978 0.0525123 -2.59108e-20)
(-0.0386566 0.0536333 -6.8308e-20)
(-0.0355476 0.0534409 -2.83346e-19)
(-0.0306551 0.0522447 -4.42746e-20)
(-0.024139 0.0502928 7.26934e-20)
(-0.0161382 0.0477828 -2.28143e-19)
(-0.00677509 0.0448714 3.16235e-19)
(0.0038403 0.0416826 -4.29531e-19)
(0.0156055 0.0383143 1.03471e-19)
(0.0284218 0.0348444 -2.631e-19)
(0.0421901 0.0313358 -2.13624e-19)
(0.056808 0.0278427 -1.2197e-20)
(0.0721664 0.0244179 -3.23508e-20)
(0.0881475 0.0211247 2.54486e-20)
(0.104619 0.0180572 -1.22135e-19)
(0.121411 0.015365 -8.45473e-20)
(0.138273 0.0133009 1.03975e-19)
(0.154978 0.0124312 -2.87681e-19)
(0.171531 0.0140675 9.35243e-20)
(0.185999 0.0192305 6.66996e-20)
(-0.00841654 0.010283 -3.96253e-20)
(-0.021056 0.0255444 -6.57073e-20)
(-0.0301128 0.0364831 2.55311e-19)
(-0.0358441 0.0439936 9.49128e-20)
(-0.0385462 0.0487985 1.25594e-19)
(-0.0385147 0.0514878 -1.67724e-19)
(-0.0360158 0.0525458 2.84689e-22)
(-0.0312837 0.0523653 -1.35717e-19)
(-0.0245219 0.0512625 2.50821e-19)
(-0.0159064 0.0494911 8.19098e-20)
(-0.00559083 0.0472538 9.19678e-20)
(0.00628809 0.0447129 -3.65405e-19)
(0.0196043 0.0419977 4.50883e-19)
(0.0342367 0.0392117 -1.35393e-19)
(0.0500636 0.0364376 -9.69729e-20)
(0.0669575 0.0337415 2.905e-19)
(0.0847804 0.0311762 1.29756e-19)
(0.10338 0.0287857 -3.28368e-19)
(0.122586 0.0266109 -1.37226e-19)
(0.14221 0.0247023 4.14046e-19)
(0.162023 0.0231348 -3.16459e-19)
(0.181714 0.0220388 1.90357e-19)
(0.201017 0.0218275 1.06453e-19)
(0.220071 0.0238034 -1.36926e-19)
(0.236994 0.0291307 -1.31872e-19)
(-0.00884858 0.0101669 -1.45773e-19)
(-0.0218496 0.0250999 2.26484e-19)
(-0.0307654 0.03571 9.6407e-20)
(-0.0359203 0.0429212 -1.39185e-19)
(-0.0376582 0.0474815 -2.22644e-20)
(-0.0363107 0.05 -1.45862e-19)
(-0.0321734 0.0509737 -5.81069e-20)
(-0.0255035 0.0508041 6.52378e-20)
(-0.0165228 0.0498142 -1.62686e-20)
(-0.00542254 0.0482641 1.23159e-19)
(0.00762988 0.0463629 -1.06998e-19)
(0.0224837 0.0442804 2.96088e-19)
(0.0389972 0.0421549 -3.67212e-19)
(0.0570306 0.0401003 2.28993e-19)
(0.0764387 0.0382117 2.84773e-19)
(0.0970641 0.0365688 -4.11774e-19)
(0.11873 0.0352388 -1.25408e-19)
(0.141234 0.0342778 2.114e-19)
(0.164342 0.0337319 -1.3051e-19)
(0.187785 0.0336407 1.26155e-19)
(0.21124 0.0340337 -3.05731e-19)
(0.234285 0.0349214 5.09292e-20)
(0.256543 0.0364869 1.99409e-19)
(0.278292 0.0398681 -3.20879e-19)
(0.298033 0.0462136 8.64404e-20)
(-0.00924114 0.00998941 -1.34783e-19)
(-0.0224778 0.0244752 4.22394e-19)
(-0.0310825 0.0346561 8.10268e-20)
(-0.0354515 0.0414868 -2.18918e-19)
(-0.0359784 0.045742 1.56781e-19)
(-0.0330323 0.0480504 7.96197e-20)
(-0.0269384 0.0489211 1.27112e-19)
(-0.0179766 0.0487639 -8.25672e-21)
(-0.00638684 0.0479085 -1.31945e-20)
(0.00762463 0.0466207 -2.77117e-20)
(0.0238766 0.0451165 -1.21121e-19)
(0.042204 0.0435735 -4.18157e-21)
(0.0624494 0.04214 2.83061e-19)
(0.0844544 0.0409431 -4.64599e-19)
(0.108051 0.0400944 3.30568e-19)
(0.133054 0.0396955 6.69295e-20)
(0.159251 0.0398423 1.18415e-19)
(0.186392 0.0406269 -6.11644e-20)
(0.214178 0.0421408 5.42272e-19)
(0.242247 0.0444753 -3.35991e-19)
(0.270142 0.0477058 2.68862e-19)
(0.297239 0.0518393 6.33569e-20)
(0.322881 0.0569477 -1.97162e-19)
(0.347289 0.0640822 1.67085e-19)
(0.369723 0.0740268 2.5857e-19)
(-0.00958587 0.00975125 -3.91493e-20)
(-0.0229077 0.0236709 -1.48929e-19)
(-0.0310012 0.0333239 -2.54375e-19)
(-0.0343406 0.0396972 -1.44873e-19)
(-0.0333733 0.0435927 -2.02463e-20)
(-0.0285072 0.0456586 -5.71532e-20)
(-0.0200979 0.0464156 -2.64955e-19)
(-0.00844928 0.0462808 4.39022e-20)
(0.00618011 0.0455894 -2.97725e-19)
(0.0235675 0.0446117 -2.31231e-20)
(0.043516 0.0435688 -2.85591e-19)
(0.065844 0.0426444 -1.01758e-19)
(0.090376 0.0419946 5.84393e-20)
(0.116934 0.0417569 -2.78098e-19)
(0.145328 0.0420576 2.50533e-21)
(0.17535 0.0430192 -2.39806e-19)
(0.206767 0.0447685 9.26744e-20)
(0.239306 0.0474452 -3.35151e-19)
(0.272648 0.0512142 -5.75111e-20)
(0.306402 0.0562806 -7.89333e-21)
(0.340054 0.0628919 -5.67197e-20)
(0.372851 0.0713145 -5.81076e-20)
(0.403795 0.0820385 -2.90252e-20)
(0.432295 0.0966575 -1.16488e-19)
(0.456746 0.114782 -2.49448e-19)
(-0.00987299 0.00945298 7.15564e-20)
(-0.023101 0.0226893 1.88736e-19)
(-0.0304489 0.0317211 2.26706e-19)
(-0.0324776 0.0375682 -1.81077e-19)
(-0.0296922 0.04106 3.35931e-19)
(-0.0225425 0.0428638 -1.82303e-19)
(-0.0114167 0.0435109 9.89945e-20)
(0.00335562 0.0434242 1.54357e-19)
(0.0214939 0.042942 1.40427e-19)
(0.042755 0.0423372 6.8309e-20)
(0.0669208 0.0418323 1.10359e-19)
(0.0937869 0.0416125 6.41835e-20)
(0.123153 0.0418355 4.34004e-19)
(0.154813 0.0426405 -3.15438e-19)
(0.188552 0.0441565 3.60363e-19)
(0.22414 0.0465109 -1.49758e-19)
(0.261332 0.0498388 3.2357e-19)
(0.299865 0.0542971 -1.52277e-20)
(0.339468 0.0600839 -6.70306e-20)
(0.379869 0.0674685 -1.21965e-20)
(0.420801 0.0768309 2.54649e-19)
(0.462044 0.0887637 -2.49117e-19)
(0.503717 0.104517 1.74944e-19)
(0.546418 0.126104 1.93786e-19)
(0.586288 0.148237 3.9911e-20)
(-0.0100904 0.00909473 4.95049e-20)
(-0.023013 0.021534 -2.69894e-19)
(-0.0293427 0.0298601 -9.79584e-20)
(-0.0297375 0.0351251 8.94562e-20)
(-0.0247665 0.0381853 -2.75364e-19)
(-0.014925 0.0397264 -5.42794e-20)
(-0.000637732 0.0402886 3.76534e-20)
(0.0177354 0.0402985 1.48762e-19)
(0.0398861 0.0400951 -3.76468e-19)
(0.0655425 0.0399497 2.86461e-20)
(0.0944549 0.0400817 -1.10059e-19)
(0.126383 0.0406709 -3.34602e-19)
(0.161087 0.0418672 2.27957e-19)
(0.198318 0.043799 9.81712e-21)
(0.237816 0.04658 -6.90529e-21)
(0.279311 0.0503161 2.30136e-19)
(0.322522 0.0551125 -4.06829e-19)
(0.367174 0.0610819 3.22275e-19)
(0.413004 0.0683536 -5.9603e-20)
(0.459795 0.0770845 1.87972e-19)
(0.507398 0.0874642 -3.09496e-19)
(0.555793 0.0997432 1.7751e-19)
(0.605335 0.114446 -3.18063e-19)
(0.656824 0.132228 3.2813e-19)
(0.705218 0.147603 -1.02464e-19)
(-0.0102228 0.00867598 3.32601e-19)
(-0.0225909 0.0202091 -5.4161e-20)
(-0.0275873 0.0277572 3.9904e-19)
(-0.0259801 0.0324017 1.84631e-19)
(-0.0184099 0.0350241 1.48265e-20)
(-0.00542325 0.0363269 8.05274e-20)
(0.0125128 0.036857 1.9444e-20)
(0.0350001 0.037042 3.27937e-19)
(0.0616922 0.0372179 1.05618e-19)
(0.0922753 0.03765 -1.41835e-20)
(0.126452 0.0385482 2.83552e-20)
(0.163926 0.0400789 1.09177e-19)
(0.204394 0.0423739 9.11589e-20)
(0.24754 0.0455376 1.95167e-19)
(0.293031 0.049652 -2.22335e-19)
(0.340521 0.054782 6.7154e-20)
(0.389661 0.0609786 2.04428e-20)
(0.440109 0.0682825 9.94434e-20)
(0.491546 0.0767247 2.6944e-19)
(0.543701 0.0863253 -1.7587e-19)
(0.59637 0.0970818 1.49722e-20)
(0.64944 0.108958 -2.48602e-19)
(0.702998 0.121996 2.35176e-19)
(0.757403 0.136485 -2.27528e-19)
(0.807821 0.149015 2.19873e-20)
(-0.0102515 0.00819566 -2.77394e-19)
(-0.0217734 0.0187196 2.11966e-19)
(-0.0250753 0.0254333 -3.44801e-19)
(-0.0210509 0.0294407 2.97262e-20)
(-0.0104212 0.0316454 2.42396e-19)
(0.00620798 0.0327644 -4.03624e-19)
(0.0283176 0.0333484 3.20078e-19)
(0.0554596 0.033822 -5.07662e-19)
(0.0872337 0.0345136 1.0113e-19)
(0.123265 0.0356766 2.16346e-20)
(0.163184 0.0375039 1.70549e-19)
(0.206613 0.0401392 -5.66564e-19)
(0.253157 0.0436854 9.78317e-20)
(0.302398 0.0482101 1.03641e-19)
(0.353899 0.0537506 -6.21345e-20)
(0.407206 0.0603173 -3.85462e-19)
(0.461865 0.0678956 1.81504e-19)
(0.51743 0.0764478 3.39575e-19)
(0.573483 0.0859111 -3.58242e-19)
(0.62965 0.096194 2.59845e-19)
(0.685616 0.107165 -3.36766e-19)
(0.741125 0.118638 2.44768e-19)
(0.796015 0.130444 -6.7924e-20)
(0.85031 0.142807 3.88438e-19)
(0.900046 0.154076 -4.43753e-19)
(-0.0101536 0.00765226 3.96744e-20)
(-0.02049 0.0170721 3.12989e-20)
(-0.0216874 0.0229135 7.65563e-20)
(-0.0147825 0.0262931 2.73155e-19)
(-0.000588033 0.028131 -8.56084e-21)
(0.0202197 0.0291552 6.09778e-20)
(0.0470566 0.0299157 2.71384e-19)
(0.0794069 0.030829 1.0948e-19)
(0.116795 0.03221 -3.60767e-20)
(0.158758 0.0342921 3.06961e-19)
(0.204826 0.0372418 -3.49534e-19)
(0.254507 0.0411697 5.36258e-19)
(0.307279 0.0461375 -2.12802e-19)
(0.362591 0.0521643 3.86164e-19)
(0.41987 0.0592312 -1.30408e-19)
(0.47853 0.0672849 4.75577e-20)
(0.537988 0.0762412 5.76147e-20)
(0.597681 0.085987 -1.11321e-19)
(0.657081 0.0963805 9.32158e-20)
(0.715715 0.107251 5.99932e-20)
(0.77317 0.118392 8.27464e-20)
(0.829092 0.129555 1.7546e-19)
(0.883187 0.140497 -1.4914e-20)
(0.935328 0.151393 -8.02739e-20)
(0.982671 0.161924 2.42132e-19)
(-0.00990195 0.00704431 -2.31974e-19)
(-0.0186612 0.0152748 2.45045e-20)
(-0.017294 0.0202281 -4.40475e-19)
(-0.00699873 0.0230184 -1.05136e-19)
(0.0113062 0.0245745 -1.96786e-19)
(0.0368593 0.0256298 -4.21768e-20)
(0.0689922 0.0267278 -2.10598e-19)
(0.107098 0.0282699 -1.25838e-19)
(0.150597 0.0305485 1.66568e-19)
(0.198906 0.0337673 -2.77983e-19)
(0.251418 0.0380547 -7.72116e-20)
(0.30749 0.043475 3.0798e-21)
(0.366441 0.0500362 -5.21919e-19)
(0.427559 0.0576964 2.21885e-19)
(0.490111 0.0663707 -3.23935e-19)
(0.553366 0.0759366 -1.01033e-20)
(0.61661 0.0862401 6.39368e-20)
(0.679174 0.0971005 -1.037e-19)
(0.740444 0.108315 -9.09564e-20)
(0.799882 0.119661 4.5462e-20)
(0.857034 0.1309 5.08812e-20)
(0.911523 0.141774 -3.29686e-19)
(0.963038 0.152032 1.88043e-19)
(1.01143 0.161806 9.50085e-20)
(1.05491 0.171685 2.62534e-20)
(-0.00946543 0.00637101 2.37286e-19)
(-0.0161998 0.0133396 -2.53032e-19)
(-0.0117577 0.0174139 3.54777e-19)
(0.0024811 0.0196853 5.51943e-20)
(0.0254754 0.0210808 -1.6915e-20)
(0.0563586 0.0223317 -1.19075e-19)
(0.0943531 0.0239662 1.79118e-20)
(0.13873 0.0263609 1.81009e-19)
(0.18877 0.0297745 -2.49666e-19)
(0.24373 0.0343673 2.62193e-19)
(0.302829 0.0402155 -2.77083e-20)
(0.365235 0.0473225 1.22125e-20)
(0.43008 0.055628 3.40883e-19)
(0.496468 0.0650179 4.56967e-19)
(0.563502 0.0753333 -1.78795e-19)
(0.630312 0.0863799 3.17722e-19)
(0.696077 0.0979379 1.61506e-19)
(0.760053 0.109771 -9.8692e-20)
(0.821592 0.121633 3.13178e-19)
(0.880153 0.133277 -1.1851e-20)
(0.935312 0.14446 -3.01436e-19)
(0.98675 0.154946 3.18378e-19)
(1.03424 0.164515 4.61129e-20)
(1.07771 0.173271 -1.97771e-19)
(1.11624 0.182361 6.20224e-20)
(-0.00880926 0.00563313 -3.30118e-19)
(-0.0130123 0.0112832 3.44928e-19)
(-0.00493639 0.0145155 -2.18796e-19)
(0.0138365 0.0163729 -6.82399e-20)
(0.0421217 0.0177668 -1.52727e-19)
(0.0789218 0.0194159 2.7001e-19)
(0.123318 0.0218215 -1.56676e-19)
(0.174421 0.0253219 -7.17803e-20)
(0.23133 0.0301272 -2.05427e-19)
(0.293102 0.0363381 5.31326e-21)
(0.358737 0.0439612 -8.03602e-20)
(0.427189 0.0529225 3.91162e-20)
(0.49738 0.0630798 -4.11768e-19)
(0.568228 0.0742366 1.17318e-19)
(0.638687 0.0861554 -1.41696e-19)
(0.707773 0.0985725 -1.14238e-19)
(0.774605 0.111211 3.5174e-20)
(0.838425 0.123795 -1.67002e-19)
(0.898617 0.136056 -7.19629e-20)
(0.954712 0.147747 2.06773e-19)
(1.00639 0.158646 8.78769e-20)
(1.05347 0.16856 -3.73394e-19)
(1.09587 0.177321 2.74985e-19)
(1.13367 0.185037 -5.21206e-20)
(1.1666 0.193118 -1.07849e-19)
(-0.00789577 0.00483384 -1.20309e-19)
(-0.00900118 0.00912928 -6.43361e-20)
(0.00331257 0.0115873 -1.2835e-20)
(0.0272396 0.0131721 9.40887e-20)
(0.0614263 0.0147615 1.0228e-19)
(0.104713 0.0170477 8.90085e-20)
(0.155999 0.0204895 1.10698e-19)
(0.214192 0.0253701 1.68898e-19)
(0.278162 0.0318315 2.5808e-19)
(0.346721 0.0398951 2.55236e-19)
(0.418621 0.0494791 1.34749e-19)
(0.492578 0.0604151 -3.61989e-20)
(0.567302 0.0724669 9.01682e-21)
(0.641545 0.0853494 -1.23313e-20)
(0.714144 0.098748 1.06645e-19)
(0.78406 0.112338 -2.85477e-20)
(0.850416 0.1258 3.16737e-19)
(0.912514 0.138839 -1.41851e-19)
(0.969848 0.151189 2.32789e-21)
(1.0221 0.162626 1.00552e-19)