/*--------------------------------*- C++ -*----------------------------------*\
  =========                 |
  \\      /  F ield         | OpenFOAM: The Open Source CFD Toolbox
   \\    /   O peration     | Website:  https://openfoam.org
    \\  /    A nd           | Version:  6.0
     \\/     M anipulation  |
\*---------------------------------------------------------------------------*/
FoamFile
{
    version     2.0;
    format      ascii;
    class       volScalarField;
    location    "66";
    object      p;
}
// * * * * * * * * * * * * * * * * * * * * * * * * * * * * * * * * * * * * * //

dimensions      [0 2 -2 0 0 0 0];

internalField   nonuniform List<scalar> 
4000
(
-0.546706
-0.531936
-0.5183
-0.502521
-0.483382
-0.461628
-0.438396
-0.414784
-0.391678
-0.36967
-0.349077
-0.330013
-0.312464
-0.296346
-0.281539
-0.267917
-0.25536
-0.243725
-0.232798
-0.222894
-0.554272
-0.539091
-0.524497
-0.506999
-0.48561
-0.461458
-0.435987
-0.410466
-0.385824
-0.362624
-0.341122
-0.32137
-0.303298
-0.28678
-0.271665
-0.257807
-0.24507
-0.233289
-0.222239
-0.212314
-0.559689
-0.544193
-0.528579
-0.509241
-0.48553
-0.459002
-0.431401
-0.404131
-0.378134
-0.353918
-0.331668
-0.311367
-0.292894
-0.276084
-0.260759
-0.246752
-0.233916
-0.222064
-0.21096
-0.201087
-0.56258
-0.546863
-0.530178
-0.508913
-0.482869
-0.454051
-0.424485
-0.395668
-0.36852
-0.343478
-0.320647
-0.299944
-0.2812
-0.264211
-0.248776
-0.234714
-0.221863
-0.210016
-0.198932
-0.189186
-0.562588
-0.546742
-0.528949
-0.505719
-0.477392
-0.446436
-0.415116
-0.384984
-0.356908
-0.331241
-0.308004
-0.287053
-0.268169
-0.251119
-0.235682
-0.221661
-0.208884
-0.197123
-0.186136
-0.176594
-0.559387
-0.543503
-0.524587
-0.499402
-0.468909
-0.436022
-0.4032
-0.372009
-0.343243
-0.317158
-0.293696
-0.272651
-0.253765
-0.236776
-0.221446
-0.207568
-0.194957
-0.183366
-0.172559
-0.163299
-0.552689
-0.536857
-0.51683
-0.489759
-0.457275
-0.422712
-0.388672
-0.356696
-0.327484
-0.301194
-0.27769
-0.25671
-0.237961
-0.22116
-0.206051
-0.192419
-0.18007
-0.168739
-0.158196
-0.149297
-0.542256
-0.526565
-0.505472
-0.476635
-0.442392
-0.406448
-0.371497
-0.339019
-0.309611
-0.283329
-0.259967
-0.239213
-0.220744
-0.204258
-0.189487
-0.17621
-0.164221
-0.15324
-0.143051
-0.134591
-0.527905
-0.512445
-0.490363
-0.459935
-0.424211
-0.38721
-0.351668
-0.318978
-0.289621
-0.263561
-0.240523
-0.220155
-0.20211
-0.186068
-0.171755
-0.158943
-0.147417
-0.136882
-0.127138
-0.119196
-0.509513
-0.494375
-0.471416
-0.439619
-0.402728
-0.365016
-0.329208
-0.296593
-0.267532
-0.241902
-0.219368
-0.199546
-0.182066
-0.1666
-0.152866
-0.14063
-0.129673
-0.119685
-0.110483
-0.103139
-0.487022
-0.472299
-0.448608
-0.415703
-0.377986
-0.339918
-0.304171
-0.27191
-0.243383
-0.218383
-0.196528
-0.177405
-0.160632
-0.14587
-0.132835
-0.121292
-0.111012
-0.101677
-0.0931215
-0.0864659
-0.460439
-0.446227
-0.421978
-0.388257
-0.350074
-0.312006
-0.276638
-0.245001
-0.217232
-0.193053
-0.172043
-0.153767
-0.137835
-0.123904
-0.111687
-0.100949
-0.0914573
-0.0828866
-0.0750924
-0.0692214
-0.429837
-0.416235
-0.391625
-0.357405
-0.319121
-0.281404
-0.246719
-0.215958
-0.189159
-0.165979
-0.145967
-0.128677
-0.113712
-0.10073
-0.0894469
-0.0796259
-0.0710315
-0.0633411
-0.0564288
-0.0514289
-0.395354
-0.382461
-0.357708
-0.323318
-0.285298
-0.248269
-0.214552
-0.184904
-0.159265
-0.137246
-0.118371
-0.10219
-0.0883065
-0.0763832
-0.066139
-0.0573411
-0.0497549
-0.0430659
-0.0371537
-0.0330749
-0.357188
-0.345106
-0.32044
-0.286215
-0.248813
-0.212791
-0.180307
-0.151982
-0.127676
-0.106959
-0.0893415
-0.0743743
-0.061668
-0.0508947
-0.0417828
-0.0341063
-0.0276381
-0.022075
-0.0172754
-0.014157
-0.315595
-0.304423
-0.280083
-0.246355
-0.20991
-0.17519
-0.144178
-0.117366
-0.0945425
-0.0752461
-0.0589844
-0.0453135
-0.0338571
-0.024303
-0.0163956
-0.00992226
-0.00466901
-0.000350586
0.00319706
0.00518096
-0.270885
-0.260719
-0.236944
-0.204035
-0.168866
-0.135717
-0.10639
-0.0812556
-0.0600398
-0.0422607
-0.0274276
-0.0151097
-0.00494962
0.00334106
0.00999353
0.0152036
0.0191678
0.0221121
0.02413
0.0245051
-0.22341
-0.214343
-0.191368
-0.159587
-0.125986
-0.0946515
-0.067196
-0.0438783
-0.0243714
-0.00817928
0.00518213
0.016126
0.0249835
0.0320082
0.0373952
0.0413183
0.0439308
0.0452715
0.0451892
0.0433581
-0.173564
-0.165682
-0.143734
-0.113367
-0.0816023
-0.0522965
-0.0268756
-0.00549264
0.0122252
0.0267851
0.0386649
0.0482625
0.0558843
0.0617472
0.066008
0.0688081
0.0701796
0.0697413
0.0669731
0.0629149
-0.121771
-0.115151
-0.0944438
-0.0657553
-0.0360653
-0.00897785
0.0142663
0.0336115
0.0494706
0.0623612
0.0727606
0.0810636
0.0875728
0.0925039
0.0960272
0.0983031
0.0992297
0.097909
0.093592
0.0892184
-0.0684806
-0.0631911
-0.0439194
-0.017146
0.0102599
0.034965
0.0559087
0.0731232
0.087054
0.0982257
0.107115
0.114121
0.119559
0.123686
0.126758
0.129067
0.13058
0.130263
0.127844
0.131967
-0.0141497
-0.0102503
0.00740908
0.0320592
0.0570022
0.0791871
0.097726
0.112728
0.124664
0.134057
0.141377
0.147015
0.151285
0.154455
0.156799
0.15859
0.159813
0.159971
0.160002
0.166351
0.0407474
0.0432093
0.059104
0.0814558
0.10379
0.123345
0.139397
0.152121
0.162004
0.169564
0.175261
0.179473
0.18251
0.184635
0.18611
0.187164
0.187776
0.187637
0.187696
0.192867
0.0957356
0.0967258
0.11073
0.130643
0.150258
0.167103
0.180608
0.191006
0.198791
0.204471
0.208487
0.2112
0.212907
0.213858
0.214293
0.214417
0.214222
0.213475
0.212952
0.216548
0.150343
0.149841
0.161858
0.179229
0.196049
0.210137
0.221064
0.22911
0.234772
0.238542
0.24084
0.242007
0.24232
0.242006
0.241282
0.24032
0.239101
0.23742
0.23599
0.238127
0.204107
0.202107
0.212069
0.226831
0.240819
0.252134
0.260479
0.266173
0.26971
0.271562
0.272126
0.271723
0.270604
0.26898
0.267039
0.264929
0.262614
0.259911
0.257497
0.258237
0.256576
0.253088
0.260957
0.273084
0.284238
0.292799
0.298588
0.301955
0.303388
0.303338
0.302178
0.300204
0.297647
0.294696
0.291518
0.288233
0.284797
0.281056
0.277657
0.277078
0.307316
0.302363
0.308135
0.317635
0.325992
0.331849
0.335136
0.336229
0.335605
0.333692
0.33084
0.327321
0.323347
0.319086
0.314684
0.310241
0.305707
0.300955
0.296597
0.294767
0.355911
0.349533
0.353232
0.360154
0.365784
0.369018
0.369886
0.368781
0.366169
0.362455
0.357966
0.352951
0.347603
0.34207
0.336482
0.330919
0.325332
0.319618
0.314344
0.311328
0.401967
0.394219
0.395901
0.400325
0.403333
0.404056
0.402612
0.39941
0.394901
0.389469
0.383416
0.376973
0.370312
0.363567
0.356848
0.350223
0.343642
0.337026
0.330884
0.326749
0.445116
0.436067
0.435815
0.437857
0.438378
0.436728
0.433104
0.427927
0.421631
0.414581
0.407058
0.39927
0.391375
0.383489
0.375709
0.368089
0.360584
0.353131
0.346177
0.340994
0.485015
0.474749
0.472673
0.472476
0.470674
0.466816
0.461167
0.454155
0.446202
0.43765
0.428762
0.419727
0.410688
0.401746
0.392985
0.384449
0.376096
0.367877
0.36017
0.354016
0.521349
0.509963
0.506197
0.503937
0.5
0.494119
0.486618
0.47793
0.468464
0.458542
0.448407
0.438236
0.428153
0.418251
0.408597
0.399228
0.390109
0.381198
0.372805
0.365761
0.553834
0.541437
0.536139
0.532012
0.526154
0.518456
0.509294
0.499104
0.488282
0.477133
0.465883
0.454694
0.443678
0.432917
0.422466
0.412356
0.402556
0.393031
0.384021
0.376179
0.582217
0.56893
0.562276
0.556503
0.548957
0.539665
0.529047
0.517543
0.505534
0.493311
0.481086
0.469007
0.457177
0.445665
0.43452
0.423763
0.413372
0.403313
0.393763
0.385219
0.606278
0.592231
0.584415
0.577237
0.568251
0.557603
0.545749
0.533129
0.520112
0.506978
0.493926
0.481093
0.468572
0.456425
0.444691
0.433388
0.422497
0.411988
0.401979
0.392836
0.625832
0.611164
0.602396
0.594067
0.583905
0.572152
0.559291
0.545762
0.531925
0.51805
0.504325
0.490879
0.477797
0.465133
0.452921
0.441176
0.429881
0.419006
0.408623
0.398992
0.640727
0.625584
0.616085
0.606874
0.595813
0.583215
0.569584
0.55536
0.540898
0.526458
0.512219
0.498306
0.484796
0.471739
0.459164
0.447081
0.435479
0.424328
0.413658
0.403654
0.650851
0.635383
0.625383
0.615567
0.603891
0.590716
0.57656
0.561863
0.546974
0.532148
0.51756
0.503328
0.489528
0.476203
0.463381
0.45107
0.43926
0.42792
0.417055
0.406799
0.656126
0.640488
0.630222
0.620087
0.608086
0.594606
0.580173
0.565226
0.550113
0.535085
0.520314
0.505916
0.491963
0.478499
0.465548
0.453118
0.4412
0.429762
0.418797
0.40841
0.656512
0.64086
0.630569
0.620402
0.608368
0.594858
0.580399
0.565429
0.550296
0.53525
0.520464
0.506051
0.492086
0.478612
0.465652
0.453213
0.441287
0.429843
0.418872
0.408479
0.652006
0.636496
0.626419
0.616509
0.604736
0.591472
0.577237
0.562471
0.547521
0.532642
0.518008
0.503735
0.489898
0.476541
0.463691
0.451354
0.439521
0.428162
0.41728
0.407004
0.642644
0.627431
0.617805
0.608436
0.597216
0.58447
0.570708
0.55637
0.541807
0.527278
0.512962
0.49898
0.485409
0.472299
0.459677
0.447552
0.435913
0.424729
0.414029
0.403994
0.628498
0.613734
0.60479
0.596241
0.585857
0.573899
0.560855
0.547165
0.533188
0.51919
0.505357
0.491815
0.478649
0.465911
0.453633
0.441829
0.430483
0.419564
0.409139
0.399463
0.609678
0.595509
0.587468
0.58001
0.57074
0.55983
0.547743
0.534918
0.521721
0.50843
0.49524
0.482285
0.469657
0.457414
0.445596
0.434219
0.423263
0.412696
0.402635
0.393435
0.586328
0.572894
0.565969
0.559858
0.551968
0.542358
0.531458
0.519705
0.507478
0.495065
0.482672
0.470446
0.458486
0.446859
0.435612
0.424765
0.414294
0.404166
0.394553
0.385941
0.558631
0.546063
0.540449
0.535927
0.529668
0.521598
0.512105
0.501625
0.490548
0.479176
0.46773
0.456368
0.445201
0.434305
0.423736
0.41352
0.403627
0.394021
0.384939
0.377018
0.526801
0.51522
0.511097
0.508388
0.503995
0.49769
0.489812
0.480793
0.471036
0.460859
0.450502
0.440134
0.429878
0.419822
0.410033
0.400544
0.39132
0.382318
0.373841
0.36671
0.491086
0.480604
0.478132
0.477436
0.475124
0.470792
0.464721
0.457339
0.449061
0.440226
0.431087
0.421834
0.4126
0.403489
0.394577
0.385906
0.377436
0.369115
0.361317
0.355066
0.451765
0.44248
0.441797
0.443292
0.443253
0.441084
0.436996
0.431411
0.424758
0.417396
0.409598
0.401569
0.393461
0.385388
0.377442
0.369675
0.362042
0.354477
0.347424
0.342138
0.409149
0.401147
0.402366
0.4062
0.408602
0.408762
0.406814
0.403169
0.398273
0.392501
0.386151
0.379447
0.372556
0.365607
0.358709
0.351925
0.345204
0.338467
0.33222
0.327975
0.363575
0.356928
0.360135
0.366428
0.371411
0.374041
0.374368
0.372789
0.369761
0.365683
0.360875
0.35558
0.349985
0.344235
0.338454
0.332722
0.326985
0.321143
0.315757
0.312625
0.315408
0.310172
0.315428
0.324266
0.331937
0.337153
0.339867
0.340456
0.33939
0.337091
0.333901
0.330085
0.325849
0.321357
0.316751
0.312128
0.307436
0.302548
0.298074
0.296123
0.265037
0.261253
0.268587
0.280023
0.290459
0.298346
0.303532
0.306369
0.307338
0.306882
0.305366
0.303079
0.300248
0.297055
0.293663
0.29019
0.286588
0.282703
0.279182
0.278481
0.212871
0.210567
0.219979
0.234028
0.247269
0.257883
0.265599
0.27074
0.273793
0.275222
0.275416
0.274687
0.273283
0.271407
0.269245
0.266938
0.264449
0.261597
0.259057
0.259672
0.159342
0.158529
0.169987
0.186627
0.202679
0.216043
0.22632
0.233794
0.238956
0.242289
0.244204
0.245037
0.245054
0.244482
0.243528
0.242364
0.240966
0.23913
0.23757
0.23958
0.104896
0.105571
0.119012
0.138185
0.157016
0.17312
0.185958
0.195769
0.203041
0.208273
0.211897
0.214269
0.215675
0.216361
0.216562
0.216479
0.2161
0.215193
0.214534
0.218003
0.0499917
0.0521356
0.0674692
0.089078
0.11062
0.129422
0.144795
0.156922
0.166283
0.173389
0.178689
0.182554
0.185285
0.187143
0.188382
0.189227
0.189653
0.189352
0.189274
0.194316
-0.0049034
-0.00132197
0.015784
0.0396954
0.0638443
0.0852709
0.103125
0.117525
0.128934
0.137869
0.14479
0.15008
0.154045
0.156948
0.159057
0.16064
0.161679
0.161675
0.161567
0.167777
-0.0593179
-0.054344
-0.0356121
-0.00956561
0.017052
0.0410002
0.0612591
0.0778702
0.0912751
0.10199
0.110482
0.117142
0.122278
0.126141
0.128981
0.131085
0.132413
0.131933
0.129377
0.133366
-0.112781
-0.106472
-0.0862853
-0.0583038
-0.0293885
-0.00304937
0.0195158
0.0382625
0.0536004
0.066039
0.0760466
0.0840095
0.0902233
0.0948973
0.0981964
0.100274
0.101023
0.0995507
0.0951251
0.0906522
-0.164838
-0.157261
-0.135808
-0.106121
-0.075109
-0.0465355
-0.0217813
-0.000986289
0.0162202
0.0303378
0.0418356
0.0511035
0.058441
0.0640596
0.0681112
0.0707325
0.0719505
0.0713888
0.0685467
0.0644483
-0.215043
-0.206273
-0.183763
-0.152625
-0.119747
-0.0891209
-0.0623129
-0.0395668
-0.0205562
-0.00479215
0.00820137
0.0188297
0.0274175
0.034213
0.0394071
0.0431694
0.0456489
0.0468841
0.0467359
0.0448855
-0.262972
-0.253094
-0.229748
-0.197439
-0.162954
-0.130482
-0.101776
-0.0771908
-0.0564511
-0.0390812
-0.0245981
-0.0125785
-0.00267165
0.00540567
0.0118803
0.0169441
0.0207894
0.0236396
0.0255899
0.0259306
-0.308234
-0.29734
-0.273387
-0.240208
-0.204399
-0.170317
-0.139892
-0.113601
-0.0912281
-0.0723175
-0.056384
-0.042991
-0.0317686
-0.02241
-0.014664
-0.00832212
-0.00317393
0.00106244
0.00454821
0.00648705
-0.350475
-0.33866
-0.314338
-0.280602
-0.24378
-0.208347
-0.176411
-0.148571
-0.124685
-0.104324
-0.0870096
-0.0722961
-0.0598012
-0.0492025
-0.0402328
-0.0326701
-0.0262909
-0.0207949
-0.0160439
-0.012963
-0.389385
-0.376749
-0.352291
-0.318326
-0.280821
-0.244325
-0.211107
-0.181902
-0.156645
-0.13495
-0.116347
-0.100392
-0.0866934
-0.0749204
-0.0647961
-0.0560915
-0.0485755
-0.0419363
-0.0360565
-0.0319986
-0.424707
-0.411349
-0.386986
-0.353119
-0.315278
-0.278029
-0.243787
-0.213421
-0.18696
-0.164066
-0.14429
-0.127194
-0.112384
-0.0995257
-0.0883369
-0.078586
-0.0700405
-0.0623805
-0.0554834
-0.0504874
-0.456238
-0.442259
-0.418205
-0.384763
-0.346943
-0.30927
-0.274281
-0.242983
-0.215504
-0.191567
-0.170753
-0.152634
-0.136824
-0.122985
-0.110835
-0.100142
-0.0906746
-0.0821125
-0.0743148
-0.0684309
-0.483835
-0.469335
-0.445789
-0.413083
-0.375645
-0.337891
-0.302452
-0.270467
-0.242175
-0.217367
-0.195664
-0.176657
-0.159969
-0.145265
-0.132265
-0.120737
-0.110456
-0.101105
-0.0925241
-0.0858366
-0.50742
-0.492495
-0.469632
-0.437954
-0.401251
-0.363766
-0.328188
-0.29578
-0.266893
-0.2414
-0.218968
-0.199217
-0.181781
-0.166335
-0.1526
-0.140348
-0.129359
-0.119328
-0.110075
-0.102677
-0.526977
-0.511722
-0.48969
-0.459301
-0.423671
-0.386806
-0.351408
-0.318849
-0.289599
-0.263616
-0.240626
-0.22028
-0.202232
-0.186168
-0.171816
-0.158951
-0.14736
-0.136751
-0.126927
-0.118903
-0.542556
-0.527063
-0.505977
-0.477102
-0.442859
-0.406954
-0.372056
-0.339629
-0.310254
-0.283984
-0.26061
-0.239823
-0.221302
-0.204747
-0.189895
-0.176524
-0.164434
-0.153344
-0.143042
-0.134469
-0.554269
-0.538628
-0.518573
-0.491391
-0.458813
-0.424189
-0.390109
-0.358096
-0.328839
-0.302489
-0.278909
-0.257838
-0.238982
-0.222062
-0.206824
-0.193056
-0.180564
-0.169084
-0.158393
-0.149347
-0.562287
-0.546588
-0.527614
-0.502254
-0.471577
-0.438529
-0.405568
-0.374249
-0.345355
-0.319135
-0.295528
-0.274328
-0.255276
-0.238114
-0.222604
-0.208541
-0.195742
-0.183961
-0.172965
-0.16352
-0.566836
-0.55117
-0.533296
-0.509835
-0.48124
-0.450026
-0.418468
-0.388113
-0.359822
-0.33394
-0.310485
-0.289309
-0.270197
-0.252915
-0.237242
-0.222984
-0.20997
-0.197972
-0.186751
-0.176983
-0.568189
-0.552646
-0.535866
-0.514326
-0.487938
-0.45877
-0.428868
-0.399732
-0.372279
-0.346938
-0.32381
-0.302812
-0.283772
-0.266487
-0.250757
-0.236401
-0.223259
-0.211124
-0.199757
-0.189739
-0.56666
-0.551332
-0.535616
-0.51597
-0.491853
-0.464889
-0.436857
-0.409174
-0.382779
-0.358177
-0.335549
-0.314876
-0.296036
-0.278861
-0.263176
-0.248814
-0.235629
-0.223433
-0.211993
-0.201796
-0.562592
-0.547571
-0.532875
-0.51505
-0.493206
-0.468545
-0.442556
-0.416527
-0.391396
-0.367722
-0.345758
-0.325554
-0.307038
-0.290083
-0.274539
-0.260259
-0.24711
-0.234924
-0.223479
-0.213174
-0.556347
-0.541728
-0.527995
-0.511884
-0.492257
-0.469936
-0.446108
-0.421902
-0.398217
-0.375645
-0.354503
-0.334904
-0.316832
-0.300201
-0.28489
-0.270775
-0.257736
-0.245629
-0.234245
-0.223897
0.0737185
0.0436683
0.0221955
0.0125002
0.00386892
-0.00815875
-0.0217855
-0.0349139
-0.047208
-0.0591195
-0.0709191
-0.0825796
-0.0939958
-0.105116
-0.115943
-0.126496
-0.136795
-0.146859
-0.156714
-0.166396
0.0200601
0.00647331
-0.00481895
-0.0119449
-0.0175843
-0.0241169
-0.0316181
-0.0391321
-0.0461147
-0.0526244
-0.0588806
-0.0649787
-0.0708956
-0.0765873
-0.0820364
-0.0872484
-0.092233
-0.0969955
-0.101537
-0.105857
0.0112786
0.00568775
0.00145596
-0.00259113
-0.00673508
-0.0109934
-0.0153466
-0.019705
-0.0239727
-0.0281282
-0.032209
-0.0362531
-0.0402718
-0.0442598
-0.0482127
-0.0521328
-0.0560265
-0.0599009
-0.0637625
-0.0676172
0.00818954
0.00491302
0.00236235
-0.000656256
-0.00408698
-0.00753382
-0.0108381
-0.0140405
-0.0171974
-0.0203191
-0.0233952
-0.0264191
-0.0293911
-0.0323129
-0.035185
-0.0380073
-0.0407806
-0.0435063
-0.0461859
-0.0488214
0.00645763
0.00385639
0.00204321
6.03452e-05
-0.00225327
-0.00464409
-0.00693437
-0.0091201
-0.0112577
-0.0133787
-0.0154834
-0.0175641
-0.0196184
-0.0216491
-0.0236601
-0.0256547
-0.0276354
-0.0296044
-0.0315642
-0.0335173
0.005672
0.00361225
0.00231308
0.000991914
-0.000585246
-0.00227547
-0.00392983
-0.00551792
-0.00707219
-0.00862043
-0.0101682
-0.0117104
-0.0132428
-0.0147652
-0.0162789
-0.0177852
-0.019285
-0.0207786
-0.0222664
-0.0237491
0.0060376
0.00447741
0.00353622
0.00260173
0.00147253
0.000240345
-0.000982291
-0.00216366
-0.00332168
-0.00447628
-0.00563319
-0.00678961
-0.00794228
-0.00909024
-0.0102341
-0.0113746
-0.0125123
-0.0136476
-0.0147809
-0.0159126
0.00698917
0.00583416
0.00510877
0.0043797
0.00351262
0.00257078
0.00163078
0.000715855
-0.000184295
-0.0010825
-0.00198289
-0.00288392
-0.00378333
-0.00468022
-0.00557468
-0.00646708
-0.0073576
-0.00824633
-0.00913335
-0.0100188
0.00808843
0.00726163
0.00668257
0.00607432
0.0053739
0.00463022
0.00389002
0.00316548
0.00244982
0.00173559
0.00102055
0.000305686
-0.000407661
-0.00111893
-0.00182816
-0.00253552
-0.00324113
-0.00394505
-0.00464735
-0.00534811
0.00906133
0.00849241
0.00802712
0.00750527
0.00692239
0.0063218
0.00572933
0.00514753
0.00457065
0.00399469
0.003419
0.00284439
0.00227155
0.00170068
0.00113173
0.000564548
-9.42542e-07
-0.000564812
-0.00112714
-0.00168801
0.00981768
0.00944116
0.00907327
0.00863057
0.00814601
0.00766023
0.00718645
0.00672093
0.00625805
0.00579568
0.00533415
0.00487422
0.00441622
0.00396011
0.00350572
0.00305293
0.00260163
0.00215175
0.00170317
0.0012558
0.0103647
0.0101267
0.00984509
0.00948185
0.00908806
0.00870145
0.00832842
0.00796217
0.00759719
0.00723226
0.00686812
0.00650549
0.00614447
0.00578488
0.0054265
0.00506915
0.00471272
0.00435711
0.00400218
0.00364784
0.010777
0.0106479
0.0104477
0.0101639
0.009856
0.00955904
0.00927588
0.00899839
0.00872123
0.00844356
0.00816624
0.00788987
0.00761441
0.00733956
0.00706502
0.0067906
0.00651612
0.00624143
0.00596639
0.00569089
0.0111116
0.0110852
0.010966
0.0107585
0.0105299
0.0103152
0.0101149
0.00991946
0.00972341
0.00952599
0.00932805
0.00913006
0.0089318
0.00873283
0.00853276
0.00833131
0.00812826
0.00792343
0.00771664
0.00750778
0.0114082
0.0115098
0.0114925
0.011373
0.0112314
0.0111065
0.0109975
0.0108924
0.0107848
0.0106734
0.0105592
0.0104425
0.0103229
0.0101998
0.0100727
0.00994128
0.00980528
0.00966457
0.00951901
0.00936857
0.0115591
0.0117792
0.0119042
0.0119326
0.0119302
0.0119339
0.0119456
0.0119554
0.0119567
0.0119478
0.0119292
0.0119014
0.0118642
0.0118173
0.0117604
0.0116935
0.0116167
0.0115301
0.0114339
0.0113285
0.0120969
0.0124072
0.0127768
0.0131109
0.0133843
0.0136098
0.0138029
0.0139698
0.0141104
0.0142238
0.01431
0.0143703
0.0144062
0.0144192
0.0144105
0.0143814
0.014333
0.0142667
0.0141836
0.0140851
0.0149783
0.0155662
0.016185
0.0166999
0.0171042
0.0174281
0.0176931
0.0179075
0.0180741
0.0181947
0.0182724
0.0183109
0.0183137
0.0182841
0.018225
0.0181393
0.0180296
0.0178982
0.0177474
0.0175794
0.0266445
0.0303937
0.0317624
0.0312282
0.0302675
0.0295648
0.029108
0.0287105
0.0282745
0.0277966
0.0273023
0.0268076
0.0263158
0.0258253
0.0253353
0.0248464
0.02436
0.0238772
0.0233987
0.0229254
0.0386594
0.0508465
0.0546034
0.0521032
0.0484327
0.0458135
0.0441424
0.0427789
0.0413925
0.0399647
0.0385692
0.0372488
0.0360054
0.0348262
0.0337015
0.0326268
0.0316003
0.03062
0.0296835
0.0287884
0.129175
0.129649
0.130618
0.132076
0.13402
0.136465
0.139429
0.142933
0.14699
0.151604
0.156752
0.162379
0.168356
0.174451
0.180205
0.184806
0.186623
0.182536
0.165671
0.120964
0.120699
0.121038
0.121675
0.122629
0.123863
0.1254
0.127169
0.129202
0.131365
0.13369
0.135911
0.138041
0.139561
0.140402
0.139537
0.136632
0.12955
0.116994
0.0936579
0.0533353
0.110769
0.110937
0.111228
0.111653
0.11218
0.112799
0.113439
0.114066
0.114554
0.114834
0.114687
0.11397
0.112312
0.109424
0.104688
0.097555
0.0870943
0.072516
0.0530632
0.0285516
0.100033
0.100041
0.100033
0.100006
0.0999414
0.0998063
0.0995442
0.0990845
0.0983329
0.0971739
0.0954656
0.0930261
0.0896546
0.0850885
0.0790997
0.0714015
0.061887
0.0503553
0.0366975
0.019729
0.0891434
0.0890362
0.088812
0.0884641
0.0879818
0.0873281
0.0864624
0.0853127
0.083816
0.081869
0.079395
0.0762609
0.0723954
0.0676561
0.0620258
0.0553842
0.0477689
0.0389248
0.0285502
0.0154869
0.0786333
0.0784596
0.0781079
0.0775723
0.0768472
0.0759036
0.0747143
0.0732258
0.0714007
0.0691709
0.0665035
0.0633256
0.0596261
0.0553365
0.0504756
0.0449523
0.038751
0.0316144
0.0232631
0.0128548
0.0688597
0.0686577
0.0682513
0.0676362
0.06681
0.065754
0.064453
0.0628736
0.0609969
0.0587841
0.056224
0.0532777
0.0499472
0.0461887
0.0420094
0.0373353
0.0321468
0.0262794
0.0195777
0.0115057
0.0600098
0.0598049
0.0593937
0.0587726
0.0579412
0.0568887
0.0556084
0.0540814
0.0522995
0.0502406
0.0479011
0.0452566
0.0423096
0.0390295
0.0354235
0.0314494
0.027116
0.0223451
0.0170786
0.0109999
0.0521401
0.0519468
0.0515595
0.0509748
0.0501926
0.0492072
0.0480165
0.0466103
0.0449862
0.0431308
0.0410439
0.0387097
0.0361329
0.0332961
0.0302137
0.0268687
0.0232892
0.0194485
0.0153618
0.010916
0.0452219
0.0450471
0.0446973
0.0441687
0.0434612
0.0425714
0.0414998
0.0402415
0.0387974
0.0371603
0.0353333
0.0333077
0.0310918
0.0286775
0.0260833
0.0233041
0.0203759
0.0173022
0.014155
0.0109809
0.03918
0.039026
0.038718
0.038252
0.0376275
0.0368424
0.0358989
0.0347951
0.033535
0.0321157
0.0305439
0.0288163
0.0269444
0.024925
0.0227776
0.0205013
0.0181348
0.0156987
0.0132994
0.0110759
0.0339202
0.0337863
0.0335191
0.0331146
0.0325721
0.0318904
0.0310729
0.03012
0.0290374
0.0278253
0.0264923
0.0250392
0.0234799
0.0218155
0.020067
0.0182366
0.0163623
0.0144703
0.0126768
0.0111556
0.0293475
0.0292312
0.0289999
0.0286497
0.0281806
0.0275926
0.0268906
0.0260769
0.0251586
0.024137
0.0230212
0.0218128
0.0205266
0.0191675
0.0177607
0.0163154
0.0148718
0.0134561
0.0121778
0.0112126
0.0253802
0.0252768
0.025072
0.0247626
0.0243496
0.0238348
0.0232256
0.0225273
0.0217498
0.0208968
0.0199773
0.0189915
0.0179502
0.0168556
0.0157329
0.0145996
0.0135097
0.0125038
0.0116906
0.0112236
0.0219593
0.0218621
0.0216706
0.0213821
0.0209986
0.0205236
0.0199675
0.0193396
0.0186557
0.0179261
0.017167
0.0163821
0.0155809
0.0147539
0.0139101
0.0130507
0.0122342
0.0115307
0.0111029
0.0111427
0.0190555
0.018957
0.0187638
0.0184728
0.0180868
0.0176088
0.017051
0.0164242
0.0157505
0.0150482
0.0143513
0.0136813
0.0130734
0.012527
0.0120456
0.0115778
0.0111237
0.0107016
0.0105446
0.0109846
0.0166689
0.0165633
0.0163553
0.0160412
0.0156232
0.0151019
0.0144872
0.0137856
0.013018
0.0122019
0.0113816
0.0105998
0.0099414
0.00947443
0.00929318
0.00939166
0.00972419
0.0100942
0.0105117
0.0113853
0.0148235
0.0147095
0.0144793
0.0141308
0.0136628
0.0130747
0.0123673
0.0115419
0.0106023
0.00955607
0.00842161
0.00723526
0.00607274
0.00506923
0.00445097
0.00452515
0.00560559
0.00778512
0.0106664
0.0133994
0.013559
0.0134378
0.0131861
0.0128041
0.0122867
0.011633
0.0108325
0.00988215
0.00876317
0.00746947
0.00597101
0.00426317
0.00231755
0.000186538
-0.00202369
-0.00389362
-0.00463667
-0.00271503
0.00368942
0.0158259
0.0129173
0.0127892
0.0125245
0.0121216
0.011575
0.0108798
0.0100235
0.00899342
0.00776498
0.00631164
0.00458502
0.00252835
4.45099e-05
-0.00298183
-0.00671263
-0.0112442
-0.0163877
-0.0207459
-0.0193069
0.00373553
0.138949
0.139476
0.140661
0.142408
0.144862
0.147923
0.151833
0.156448
0.162147
0.168719
0.176754
0.185937
0.197208
0.210074
0.226122
0.244513
0.268137
0.29541
0.331875
0.374152
0.138909
0.139436
0.14062
0.142366
0.144819
0.147878
0.151786
0.156398
0.162092
0.168659
0.176686
0.185858
0.197112
0.209955
0.225962
0.2443
0.267826
0.294955
0.331169
0.373028
0.138835
0.139361
0.140544
0.142289
0.14474
0.147795
0.151699
0.156305
0.161991
0.168547
0.176558
0.185709
0.196929
0.209727
0.225656
0.243888
0.267221
0.294068
0.329792
0.370832
0.138727
0.139253
0.140435
0.142177
0.144624
0.147676
0.151573
0.15617
0.161844
0.168384
0.176371
0.185491
0.19666
0.209392
0.225204
0.243279
0.266326
0.292756
0.327751
0.367576
0.138586
0.139112
0.140291
0.142031
0.144473
0.147519
0.151407
0.155993
0.161652
0.168169
0.176126
0.185203
0.196306
0.20895
0.224609
0.242477
0.265146
0.291026
0.325054
0.363277
0.138412
0.138938
0.140115
0.14185
0.144287
0.147325
0.151203
0.155774
0.161414
0.167904
0.175823
0.184848
0.19587
0.208405
0.223873
0.241485
0.263686
0.288889
0.321713
0.357956
0.138206
0.13873
0.139905
0.141636
0.144066
0.147095
0.150961
0.155515
0.161131
0.16759
0.175464
0.184426
0.195352
0.207756
0.223002
0.240309
0.261954
0.286357
0.317743
0.35164
0.137966
0.138491
0.139662
0.141389
0.143811
0.14683
0.150681
0.155215
0.160805
0.167227
0.17505
0.18394
0.194756
0.207008
0.221999
0.238953
0.259959
0.283444
0.313159
0.344363
0.137695
0.138219
0.139387
0.141108
0.143522
0.146529
0.150364
0.154877
0.160437
0.166817
0.174582
0.183389
0.194084
0.206162
0.220869
0.237425
0.257712
0.280167
0.307981
0.336163
0.137392
0.137916
0.13908
0.140796
0.143201
0.146195
0.150012
0.1545
0.160027
0.16636
0.174062
0.182777
0.193339
0.205223
0.219619
0.23573
0.255225
0.276542
0.30223
0.327082
0.137058
0.137582
0.138742
0.140452
0.142846
0.145827
0.149624
0.154085
0.159577
0.165858
0.173491
0.182104
0.192523
0.204192
0.218255
0.233876
0.252511
0.272589
0.29593
0.31717
0.136692
0.137217
0.138374
0.140078
0.142461
0.145427
0.149202
0.153635
0.159087
0.165313
0.172873
0.181375
0.19164
0.203075
0.216783
0.23187
0.249587
0.268325
0.289108
0.306477
0.136297
0.136823
0.137976
0.139673
0.142045
0.144995
0.148748
0.153149
0.15856
0.164727
0.172208
0.18059
0.190694
0.201874
0.21521
0.229719
0.246469
0.263769
0.281796
0.295059
0.135871
0.136399
0.137549
0.13924
0.141599
0.144533
0.148261
0.15263
0.157997
0.1641
0.171498
0.179753
0.189687
0.200595
0.213545
0.227432
0.243176
0.258938
0.27403
0.282971
0.135417
0.135947
0.137094
0.138778
0.141124
0.144041
0.147744
0.152078
0.157399
0.163435
0.170745
0.178865
0.188622
0.199241
0.211793
0.225017
0.239728
0.253851
0.265854
0.270259
0.134934
0.135467
0.136611
0.138288
0.140621
0.14352
0.147195
0.151494
0.156764
0.162731
0.169948
0.177925
0.187497
0.197812
0.209953
0.222477
0.236138
0.248522
0.257324
0.256964
0.134423
0.13496
0.136102
0.137773
0.140092
0.142972
0.146619
0.15088
0.156099
0.161991
0.169112
0.17694
0.18632
0.196315
0.208037
0.219823
0.232428
0.242964
0.248502
0.243115
0.133885
0.134429
0.13557
0.137237
0.139545
0.142408
0.14603
0.150256
0.155427
0.16125
0.168278
0.175959
0.185152
0.194821
0.206126
0.21714
0.228685
0.237228
0.239431
0.228602
0.133319
0.133871
0.135015
0.136681
0.138981
0.141833
0.145435
0.149634
0.154764
0.160527
0.167473
0.175017
0.184031
0.193378
0.20427
0.214482
0.224964
0.231343
0.230119
0.212705
0.132723
0.133277
0.134413
0.136069
0.138343
0.141166
0.144717
0.148861
0.153903
0.159564
0.166352
0.173704
0.182428
0.191392
0.201735
0.211132
0.220485
0.224873
0.220726
0.195742
0.133004
0.133558
0.134693
0.136349
0.138624
0.141451
0.145006
0.149159
0.154208
0.159885
0.166684
0.174061
0.182806
0.191806
0.202191
0.211634
0.221084
0.225508
0.221573
0.196564
0.133585
0.134137
0.135279
0.136946
0.139246
0.142102
0.145707
0.149915
0.155051
0.160829
0.167785
0.175353
0.184387
0.193768
0.204703
0.214958
0.225541
0.231955
0.230967
0.213591
0.134135
0.13468
0.13582
0.137488
0.139796
0.142663
0.146287
0.150522
0.155697
0.161534
0.168571
0.176274
0.185484
0.195183
0.206529
0.217581
0.229227
0.237812
0.240267
0.229554
0.134659
0.135197
0.136337
0.13801
0.140329
0.143213
0.146862
0.15113
0.156353
0.162259
0.169387
0.177235
0.186632
0.196653
0.208415
0.220235
0.232938
0.243523
0.249315
0.244083
0.135155
0.135689
0.136832
0.138511
0.140844
0.143746
0.147424
0.151729
0.157004
0.162981
0.170206
0.178201
0.18779
0.198128
0.210308
0.222864
0.236621
0.249057
0.258107
0.25793
0.135623
0.136154
0.1373
0.138986
0.141333
0.144253
0.147957
0.152298
0.157622
0.16367
0.170987
0.179122
0.188896
0.199537
0.212125
0.225379
0.240182
0.254361
0.266603
0.271214
0.136063
0.136592
0.137741
0.139433
0.141793
0.14473
0.14846
0.152835
0.158205
0.164319
0.171723
0.179992
0.189941
0.200869
0.213854
0.22777
0.2436
0.259421
0.274743
0.283903
0.136474
0.137001
0.138154
0.139853
0.142225
0.145178
0.148932
0.153339
0.158753
0.164929
0.172415
0.180811
0.190928
0.202127
0.215496
0.230032
0.246863
0.264224
0.282469
0.295959
0.136855
0.137381
0.138538
0.140243
0.142626
0.145595
0.149372
0.153809
0.159264
0.165499
0.173064
0.181577
0.191856
0.203306
0.217045
0.232158
0.249951
0.268751
0.28974
0.307335
0.137206
0.137732
0.138892
0.140603
0.142997
0.145981
0.149779
0.154245
0.159738
0.166027
0.173665
0.182289
0.192719
0.204403
0.218494
0.23414
0.252844
0.272984
0.296517
0.317979
0.137526
0.138051
0.139215
0.140932
0.143337
0.146334
0.150152
0.154644
0.160173
0.166513
0.174219
0.182943
0.193516
0.205413
0.219835
0.23597
0.255527
0.276905
0.30277
0.327836
0.137815
0.13834
0.139508
0.14123
0.143645
0.146654
0.150489
0.155006
0.160568
0.166953
0.174722
0.183538
0.194242
0.206333
0.221062
0.23764
0.257984
0.280496
0.308472
0.336854
0.138072
0.138597
0.139769
0.141496
0.143919
0.146939
0.150791
0.155329
0.160921
0.167347
0.175173
0.184071
0.194896
0.207158
0.222169
0.239144
0.2602
0.283738
0.313599