/*--------------------------------*- C++ -*----------------------------------*\
  =========                 |
  \\      /  F ield         | OpenFOAM: The Open Source CFD Toolbox
   \\    /   O peration     | Website:  https://openfoam.org
    \\  /    A nd           | Version:  6.0
     \\/     M anipulation  |
\*---------------------------------------------------------------------------*/
FoamFile
{
    version     2.0;
    format      ascii;
    class       surfaceScalarField;
    location    "66";
    object      phi;
}
// * * * * * * * * * * * * * * * * * * * * * * * * * * * * * * * * * * * * * //

dimensions      [0 3 -1 0 0 0 0];

internalField   nonuniform List<scalar> 
7840
(
3.72907e-05
-0.0002856
0.000130572
-0.000886992
0.000260017
-0.00148044
0.00040468
-0.00201792
0.00054625
-0.00246461
0.000672078
-0.00280644
0.000775878
-0.00304777
0.000856579
-0.00320428
0.000916448
-0.00329585
0.000959311
-0.00334155
0.000989261
-0.00335714
0.00100993
-0.00335437
0.00102417
-0.0033413
0.00103408
-0.00332311
0.00104108
-0.003303
0.00104614
-0.00328283
0.00104988
-0.00326369
0.00105273
-0.00324623
0.00105495
-0.00323079
-0.00321771
0.00105668
3.84949e-05
-0.000324095
0.000132008
-0.000980505
0.000258041
-0.00160647
0.000394461
-0.00215434
0.000523453
-0.00259361
0.000633952
-0.00291694
0.000721516
-0.00313533
0.000786586
-0.00326935
0.000832363
-0.00334163
0.000863048
-0.00337223
0.000882703
-0.0033768
0.000894687
-0.00336635
0.00090151
-0.00334812
0.000904915
-0.00332652
0.000906058
-0.00330414
0.000905686
-0.00328246
0.000904285
-0.00326229
0.000902175
-0.00324412
0.000899554
-0.00322817
-0.00321468
0.000896524
3.9265e-05
-0.00036336
0.00013182
-0.00107306
0.000252836
-0.00172749
0.000379529
-0.00228104
0.000495034
-0.00270911
0.000590054
-0.00301196
0.000661912
-0.00320719
0.000712333
-0.00331977
0.000745194
-0.00337449
0.000764861
-0.0033919
0.000775225
-0.00338716
0.000779322
-0.00337045
0.000779307
-0.0033481
0.000776613
-0.00332382
0.000772152
-0.00329968
0.000766504
-0.00327681
0.00076004
-0.00325583
0.00075301
-0.00323709
0.000745564
-0.00322073
-0.00320689
0.000737779
3.95718e-05
-0.000402932
0.000129997
-0.00116349
0.000244544
-0.00184204
0.000360316
-0.00239681
0.000461763
-0.00281056
0.000541434
-0.00309163
0.000598274
-0.00326403
0.000635048
-0.00335655
0.000656076
-0.00339552
0.000665719
-0.00340154
0.000667609
-0.00338905
0.000664432
-0.00336727
0.000658007
-0.00334168
0.000649491
-0.00331531
0.000639598
-0.00328979
0.000628767
-0.00326598
0.000617289
-0.00324435
0.000605355
-0.00322516
0.000593088
-0.00320846
-0.00319435
0.000580544
3.9398e-05
-0.00044233
0.000126569
-0.00125066
0.000233376
-0.00194884
0.000337313
-0.00250075
0.000424419
-0.00289766
0.000489079
-0.00315629
0.000531673
-0.00330662
0.000555769
-0.00338064
0.000565931
-0.00340568
0.000566385
-0.003402
0.000560451
-0.00338312
0.000550466
-0.00335729
0.00053794
-0.00332915
0.000523795
-0.00330116
0.000508578
-0.00327457
0.000492624
-0.00325002
0.000476154
-0.00322788
0.000459323
-0.00320832
0.000442231
-0.00319137
-0.00317704
0.000424924
3.87383e-05
-0.000481068
0.000121606
-0.00133352
0.000219594
-0.00204683
0.000311041
-0.00259219
0.000383756
-0.00297038
0.000433886
-0.00320642
0.000463035
-0.00333577
0.000475359
-0.00339297
0.000475494
-0.00340581
0.000467446
-0.00339395
0.000454197
-0.00336987
0.000437749
-0.00334084
0.000419341
-0.00331074
0.000399696
-0.00328152
0.000379226
-0.0032541
0.000358182
-0.00322898
0.000336734
-0.00320643
0.000315005
-0.0031866
0.000293084
-0.00316944
-0.00315497
0.000271014
3.75986e-05
-0.000518667
0.000115205
-0.00141113
0.00020349
-0.00213512
0.000282024
-0.00267073
0.000340484
-0.00302884
0.000376653
-0.00324259
0.000393151
-0.00335227
0.000394522
-0.00339434
0.000385348
-0.00339664
0.000369354
-0.00337795
0.000349181
-0.0033497
0.000326524
-0.00331818
0.000302386
-0.00328661
0.000277327
-0.00325646
0.00025165
-0.00322842
0.000225536
-0.00320286
0.000199113
-0.00318001
0.000172485
-0.00315997
0.000145733
-0.00314269
-0.00312814
0.000118902
3.59946e-05
-0.000554661
0.000107491
-0.00148263
0.000185376
-0.002213
0.000250773
-0.00273612
0.000295252
-0.00307331
0.000318079
-0.00326542
0.000322683
-0.00335687
0.00031383
-0.00338549
0.000295951
-0.00337876
0.000272455
-0.00335446
0.000245654
-0.00332289
0.000216969
-0.0032895
0.000187205
-0.00325684
0.000156786
-0.00322604
0.000125929
-0.00319757
9.47565e-05
-0.00317169
6.33624e-05
-0.00314862
3.18341e-05
-0.00312844
2.50664e-07
-0.00311111
-0.00309656
-3.13367e-05
3.39507e-05
-0.000588612
9.86002e-05
-0.00154728
0.000165568
-0.00227997
0.000217771
-0.00278833
0.000248644
-0.00310419
0.000258765
-0.00327554
0.000252183
-0.00335029
0.000233745
-0.00336705
0.000207662
-0.00335268
0.000177015
-0.00332381
0.000143806
-0.00328969
0.000109219
-0.00325491
7.38945e-05
-0.00322152
3.81491e-05
-0.00319029
2.1275e-06
-0.00316154
-3.40964e-05
-0.00313547
-7.046e-05
-0.00311225
-0.000106889
-0.00309201
-0.000143302
-0.0030747
-0.00306022
-0.000179634
3.14987e-05
-0.000620111
8.86838e-05
-0.00160446
0.000144378
-0.00233566
0.000183468
-0.00282742
0.00020118
-0.0031219
0.000199227
-0.00327359
0.000182108
-0.00333317
0.000154643
-0.00333958
0.00012077
-0.00331881
8.32438e-05
-0.00328628
4.3787e-05
-0.00325023
3.37973e-06
-0.0032145
-3.74694e-05
-0.00318067
-7.85278e-05
-0.00314923
-0.000119709
-0.00312036
-0.000160982
-0.0030942
-0.000202315
-0.00307092
-0.000243646
-0.00305068
-0.000284883
-0.00303346
-0.00301916
-0.000325946
2.86759e-05
-0.000648787
7.78961e-05
-0.00165368
0.000122106
-0.00237987
0.000148273
-0.00285358
0.000153315
-0.00312694
0.000139904
-0.00326017
0.000112842
-0.00330611
7.68284e-05
-0.00330357
3.55054e-05
-0.00327748
-8.68722e-06
-0.00324209
-5.42794e-05
-0.00320464
-0.000100461
-0.00316832
-0.000146825
-0.00313431
-0.000193202
-0.00310286
-0.00023955
-0.00307401
-0.000285879
-0.00304787
-0.000332188
-0.00302461
-0.00037843
-0.00300444
-0.000424496
-0.00298739
-0.00297337
-0.000470283
2.55242e-05
-0.000674311
6.63931e-05
-0.00169455
9.90361e-05
-0.00241252
0.00011256
-0.00286711
0.00010545
-0.00311983
8.11734e-05
-0.0032359
4.47039e-05
-0.00326964
5.58739e-07
-0.00325942
-4.79325e-05
-0.00322899
-9.8628e-05
-0.0031914
-0.00015028
-0.00315298
-0.000202219
-0.00311639
-0.000254113
-0.00308241
-0.000305837
-0.00305113
-0.00035738
-0.00302247
-0.000408787
-0.00299646
-0.000460097
-0.0029733
-0.000511279
-0.00295326
-0.000562209
-0.00293646
-0.00292284
-0.000612745
2.20888e-05
-0.0006964
5.43288e-05
-0.00172679
7.54343e-05
-0.00243362
7.66639e-05
-0.00286834
5.79361e-05
-0.0031011
2.33574e-05
-0.00320132
-2.20308e-05
-0.00322425
-7.39429e-05
-0.00320751
-0.000129365
-0.00317357
-0.000186434
-0.00313433
-0.000244099
-0.00309532
-0.000301802
-0.00305868
-0.000359269
-0.00302494
-0.000416394
-0.00299401
-0.000473184
-0.00296568
-0.000529718
-0.00293993
-0.000586076
-0.00291694
-0.00064226
-0.00289707
-0.000698134
-0.00288059
-0.00286748
-0.00075349
1.8417e-05
-0.000714817
4.18529e-05
-0.00175023
5.15479e-05
-0.00244332
4.08869e-05
-0.00285768
1.10809e-05
-0.0030713
-3.32615e-05
-0.00315698
-8.71195e-05
-0.00317039
-0.000146473
-0.00314816
-0.000208619
-0.00311142
-0.000271954
-0.00307099
-0.0003356
-0.00303167
-0.000399096
-0.00299519
-0.000462201
-0.00296184
-0.000524814
-0.0029314
-0.000586941
-0.00290355
-0.000648678
-0.00287819
-0.000710156
-0.00285546
-0.000771428
-0.0028358
-0.000832354
-0.00281966
-0.00280721
-0.000892625
1.45571e-05
-0.000729374
2.91092e-05
-0.00176478
2.76043e-05
-0.00244181
5.49902e-06
-0.00283557
-3.48428e-05
-0.00303096
-8.8433e-05
-0.00310339
-0.000150342
-0.00310849
-0.000216834
-0.00308167
-0.000285513
-0.00304274
-0.000355013
-0.00300149
-0.000424614
-0.00296207
-0.000493939
-0.00292586
-0.000562774
-0.002893
-0.000631003
-0.00286317
-0.000698606
-0.00283595
-0.000765672
-0.00281112
-0.000832374
-0.00278876
-0.000898831
-0.00276934
-0.000964916
-0.00275358
-0.00274195
-0.00103017
1.05579e-05
-0.000739932
1.62341e-05
-0.00177045
3.81178e-06
-0.00242939
-2.9258e-05
-0.0028025
-7.9593e-05
-0.00298062
-0.000141932
-0.00304105
-0.000211491
-0.00303893
-0.000284832
-0.00300833
-0.000359848
-0.00296773
-0.0004354
-0.00292594
-0.000510916
-0.00288656
-0.000586101
-0.00285068
-0.000660771
-0.00281833
-0.00073479
-0.00278915
-0.000808085
-0.00276266
-0.000880701
-0.00273851
-0.00095282
-0.00271664
-0.00102464
-0.00269752
-0.00109606
-0.00268216
-0.00267149
-0.00116653
6.46746e-06
-0.000746399
3.35528e-06
-0.00176734
-1.96411e-05
-0.00240639
-6.31693e-05
-0.00275897
-0.000122955
-0.00292084
-0.000193556
-0.00297045
-0.000270372
-0.00296211
-0.000350265
-0.00292843
-0.000431408
-0.00288658
-0.000512869
-0.00284448
-0.000594222
-0.0028052
-0.000675264
-0.00276964
-0.000755857
-0.00273774
-0.000835863
-0.00270914
-0.000915154
-0.00268337
-0.000993696
-0.00265996
-0.00107165
-0.00263869
-0.0011493
-0.00261987
-0.00122662
-0.00260483
-0.00259483
-0.00130328
2.33229e-06
-0.000748731
-9.40975e-06
-0.0017556
-4.2586e-05
-0.00237322
-9.6046e-05
-0.00270551
-0.000164741
-0.00285214
-0.000243121
-0.00289207
-0.000326798
-0.00287843
-0.00041293
-0.0028423
-0.000499952
-0.00279956
-0.000587131
-0.0027573
-0.000674181
-0.00271815
-0.000761012
-0.0026828
-0.000847569
-0.00265118
-0.000933755
-0.00262296
-0.00101942
-0.0025977
-0.00110446
-0.00257492
-0.00118899
-0.00255417
-0.0012734
-0.00253546
-0.00135792
-0.00252031
-0.00250958
-0.00144317
-1.8038e-06
-0.000746928
-2.1955e-05
-0.00173545
-6.48756e-05
-0.0023303
-0.000127727
-0.00264266
-0.000204789
-0.00277508
-0.000290465
-0.00280639
-0.000380596
-0.0027883
-0.000472621
-0.00275027
-0.000565219
-0.00270696
-0.000657839
-0.00266468
-0.000750343
-0.00262565
-0.000842771
-0.00259038
-0.000935212
-0.00255874
-0.00102771
-0.00253046
-0.00112021
-0.0025052
-0.0012126
-0.00248253
-0.0013049
-0.00246187
-0.0013975
-0.00244287
-0.00149097
-0.00242683
-0.00241246
-0.00158808
-5.90065e-06
-0.000741027
-3.41879e-05
-0.00170716
-8.63863e-05
-0.0022781
-0.000158079
-0.00257097
-0.000242971
-0.00269019
-0.000335461
-0.0027139
-0.00043162
-0.00269214
-0.000529153
-0.00265274
-0.000626948
-0.00260917
-0.00072461
-0.00256702
-0.000822125
-0.00252813
-0.000919672
-0.00249283
-0.00101752
-0.00246089
-0.00111598
-0.002432
-0.00121534
-0.00240584
-0.00131581
-0.00238206
-0.00141752
-0.00236016
-0.00152107
-0.00233932
-0.00162881
-0.00231909
-0.00231149
-0.00172979
-9.91009e-06
-0.000731117
-4.60099e-05
-0.00167106
-0.000106995
-0.00221711
-0.00018698
-0.00249098
-0.000279173
-0.00259799
-0.000378002
-0.00261507
-0.000479763
-0.00259038
-0.000582394
-0.00255011
-0.000684957
-0.00250661
-0.00078716
-0.00246481
-0.00088905
-0.00242624
-0.000990847
-0.00239103
-0.00109289
-0.00235885
-0.00119566
-0.00232924
-0.0012998
-0.0023017
-0.00140615
-0.00227571
-0.0015156
-0.00225071
-0.00162852
-0.0022264
-0.00174587
-0.00220174
-0.00216936
-0.001888
-1.38239e-05
-0.000717293
-5.73959e-05
-0.00162749
-0.000126672
-0.00214784
-0.00021441
-0.00240325
-0.00031339
-0.00249901
-0.000418097
-0.00251036
-0.000525044
-0.00248344
-0.000632376
-0.00244278
-0.000739293
-0.00239969
-0.000845573
-0.00235854
-0.000951259
-0.00232056
-0.00105651
-0.00228579
-0.00116151
-0.00225384
-0.00126649
-0.00222425
-0.00137171
-0.00219649
-0.00147734
-0.00217007
-0.00158346
-0.00214459
-0.0016903
-0.00211956
-0.0017986
-0.00209344
-0.00206259
-0.00190537
-1.76047e-05
-0.000699688
-6.82773e-05
-0.00157682
-0.000145342
-0.00207077
-0.000240303
-0.00230828
-0.000345579
-0.00239374
-0.000455728
-0.00240021
-0.000567469
-0.0023717
-0.000679135
-0.00233111
-0.000790046
-0.00228878
-0.00090004
-0.00224854
-0.00100918
-0.00221142
-0.0011176
-0.00217737
-0.00122545
-0.00214599
-0.00133288
-0.00211682
-0.00143997
-0.00208941
-0.00154673
-0.00206331
-0.00165314
-0.00203818
-0.00175915
-0.00201355
-0.00186404
-0.00198855
-0.00196234
-0.00196428
-2.12325e-05
-0.000678456
-7.86182e-05
-0.00151943
-0.000162972
-0.00198642
-0.000264645
-0.00220661
-0.000375749
-0.00228263
-0.000490931
-0.00228503
-0.000607102
-0.00225552
-0.000722761
-0.00221545
-0.000837331
-0.00217421
-0.000950687
-0.00213519
-0.00106289
-0.00209922
-0.00117404
-0.00206621
-0.00128425
-0.00203578
-0.00139358
-0.00200749
-0.00150204
-0.00198095
-0.00160954
-0.00195581
-0.00171595
-0.00193177
-0.00182098
-0.00190852
-0.00192396
-0.00188558
-0.00186252
-0.00202378
-2.46912e-05
-0.000653764
-8.8393e-05
-0.00145573
-0.000179542
-0.00189527
-0.000287437
-0.00209872
-0.00040393
-0.00216614
-0.000523763
-0.0021652
-0.000644035
-0.00213525
-0.000763395
-0.00209609
-0.000881357
-0.00205625
-0.000997835
-0.00201871
-0.00111289
-0.00198416
-0.00122663
-0.00195248
-0.00133911
-0.00192329
-0.00145038
-0.00189622
-0.00156042
-0.00187091
-0.00166915
-0.00184708
-0.00177642
-0.00182449
-0.00188199
-0.00180294
-0.00198545
-0.00178212
-0.00176178
-0.0020862
-2.79686e-05
-0.000625796
-9.75851e-05
-0.00138611
-0.000195048
-0.00179781
-0.000308695
-0.00198507
-0.000430161
-0.00204467
-0.000554293
-0.00204107
-0.000678361
-0.00201119
-0.000801156
-0.0019733
-0.000922273
-0.00193513
-0.00104167
-0.00189932
-0.00115941
-0.00186642
-0.0012756
-0.00183629
-0.0013903
-0.00180859
-0.00150356
-0.00178297
-0.00161535
-0.00175912
-0.00172561
-0.00173681
-0.00183425
-0.00171585
-0.00194111
-0.00169608
-0.002046
-0.00167724
-0.00165916
-0.00214861
-3.10553e-05
-0.00059474
-0.000106184
-0.00131098
-0.000209492
-0.0016945
-0.000328441
-0.00186612
-0.000454489
-0.00191863
-0.000582587
-0.00191297
-0.000710173
-0.0018836
-0.000836164
-0.00184731
-0.000960232
-0.00181106
-0.00108237
-0.00177718
-0.00120266
-0.00174612
-0.00132122
-0.00171773
-0.00143813
-0.00169168
-0.00155342
-0.00166767
-0.00166712
-0.00164543
-0.0017792
-0.00162474
-0.00188961
-0.00160544
-0.00199828
-0.0015874
-0.00210513
-0.00157038
-0.00155429
-0.00221001
-3.39443e-05
-0.000560796
-0.000114185
-0.00123074
-0.000222878
-0.0015858
-0.0003467
-0.0017423
-0.000476957
-0.00178837
-0.000608711
-0.00178121
-0.000739553
-0.00175276
-0.000868518
-0.00171834
-0.000995348
-0.00168423
-0.00112007
-0.00165246
-0.0012428
-0.00162339
-0.00136366
-0.00159687
-0.00148274
-0.0015726
-0.00160011
-0.0015503
-0.00171581
-0.00152973
-0.00182986
-0.00151069
-0.00194225
-0.00149306
-0.00205298
-0.00147667
-0.00216203
-0.00146133
-0.00144698
-0.00226933
-3.66302e-05
-0.000524166
-0.000121583
-0.00114579
-0.000235217
-0.00147217
-0.000363496
-0.00161402
-0.000497607
-0.00165426
-0.000632719
-0.0016461
-0.000766567
-0.00161891
-0.000898294
-0.00158662
-0.00102771
-0.00155482
-0.00115487
-0.0015253
-0.00127992
-0.00149834
-0.00140299
-0.0014738
-0.0015242
-0.00145139
-0.00164364
-0.00143086
-0.00176138
-0.00141199
-0.00187746
-0.00139461
-0.00199192
-0.00137859
-0.0021048
-0.00136379
-0.00221612
-0.00135001
-0.00133723
-0.00232587
-3.91086e-05
-0.000485057
-0.000128377
-0.00105652
-0.000246515
-0.00135403
-0.000378851
-0.00148168
-0.000516473
-0.00151664
-0.000654657
-0.00150792
-0.000791269
-0.0014823
-0.000925549
-0.00145234
-0.00105736
-0.001423
-0.00118681
-0.00139585
-0.00131405
-0.00137111
-0.00143924
-0.00134861
-0.0015625
-0.00132812
-0.00168397
-0.0013094
-0.00180371
-0.00129225
-0.00192182
-0.00127651
-0.00203835
-0.00126206
-0.00215337
-0.00124877
-0.00226693
-0.00123645
-0.00122511
-0.00237905
-4.13758e-05
-0.000443682
-0.000134566
-0.000963333
-0.000256781
-0.00123182
-0.000392784
-0.00134568
-0.000533585
-0.00137584
-0.000674559
-0.00136694
-0.000813694
-0.00134316
-0.000950319
-0.00131571
-0.00108435
-0.00128897
-0.00121592
-0.00126428
-0.00134521
-0.00124182
-0.00147239
-0.00122143
-0.00159762
-0.0012029
-0.00172101
-0.001186
-0.0018427
-0.00117056
-0.00196276
-0.00115645
-0.00208129
-0.00114353
-0.00219838
-0.00113169
-0.00231408
-0.00112074
-0.00111074
-0.00242845
-4.34284e-05
-0.000400253
-0.000140149
-0.000866612
-0.000266021
-0.00110595
-0.00040531
-0.00120639
-0.000548963
-0.00123218
-0.000692451
-0.00122346
-0.00083387
-0.00120174
-0.000972627
-0.00117695
-0.00110869
-0.00115291
-0.00124221
-0.00113075
-0.00137339
-0.00111063
-0.00150243
-0.0010924
-0.00162948
-0.00107585
-0.00175469
-0.00106079
-0.0018782
-0.00104706
-0.00200011
-0.00103454
-0.00212052
-0.00102311
-0.00223955
-0.00101266
-0.00235725
-0.00100303
-0.000994292
-0.0024737
-4.52635e-05
-0.00035499
-0.000145123
-0.000766753
-0.000274239
-0.00097683
-0.000416439
-0.00106419
-0.000562624
-0.001086
-0.00070835
-0.00107773
-0.000851812
-0.00105828
-0.000992484
-0.00103628
-0.00113037
-0.00101502
-0.00126567
-0.000995465
-0.00139857
-0.000977728
-0.0015293
-0.000961673
-0.00165802
-0.00094712
-0.00178491
-0.000933901
-0.00191009
-0.000921875
-0.0020337
-0.000910927
-0.00215586
-0.000900961
-0.00227665
-0.000891864
-0.00239619
-0.0008835
-0.000875946
-0.00251453
-4.6878e-05
-0.000308112
-0.000149487
-0.000664143
-0.000281437
-0.000844881
-0.000426179
-0.000919449
-0.000574577
-0.000937601
-0.000722267
-0.000930039
-0.000867527
-0.000913023
-0.00100989
-0.000893916
-0.00114941
-0.000875507
-0.00128627
-0.000858601
-0.00142071
-0.000843283
-0.00155295
-0.000829432
-0.00168318
-0.000816891
-0.00181157
-0.000805513
-0.00193827
-0.000795178
-0.00206341
-0.000785785
-0.00218712
-0.00077725
-0.00230952
-0.00076947
-0.00243068
-0.000762332
-0.000755913
-0.00255072
-4.82695e-05
-0.000259842
-0.000153239
-0.000559174
-0.000287615
-0.000710505
-0.000434533
-0.000772531
-0.000584829
-0.000787305
-0.000734207
-0.000780662
-0.000881017
-0.000766212
-0.00102485
-0.000750086
-0.00116577
-0.000734586
-0.001304
-0.000720368
-0.00143979
-0.000707497
-0.00157335
-0.000695867
-0.0017049
-0.000685345
-0.0018346
-0.000675809
-0.00196262
-0.000667156
-0.00208911
-0.000659302
-0.00221418
-0.000652174
-0.00233797
-0.000645685
-0.00246056
-0.000639739
-0.000634411
-0.00258207
-4.94352e-05
-0.000210407
-0.000156375
-0.000452234
-0.000292774
-0.000574107
-0.000441505
-0.000623799
-0.000593384
-0.000635426
-0.000744172
-0.000629873
-0.000892282
-0.000618102
-0.00103734
-0.000605025
-0.00117945
-0.000592479
-0.00131884
-0.000580981
-0.00145576
-0.000570577
-0.00159044
-0.00056118
-0.0017231
-0.000552683
-0.00185393
-0.000544987
-0.00198307
-0.000538009
-0.00211069
-0.00053168
-0.00223693
-0.000525941
-0.00236189
-0.00052072
-0.00248569
-0.000515941
-0.000511671
-0.00260843
-5.0373e-05
-0.000160034
-0.000158894
-0.000343713
-0.000296912
-0.000436089
-0.000447095
-0.000473616
-0.000600241
-0.00048228
-0.000752162
-0.000477953
-0.000901317
-0.000468946
-0.00104737
-0.000458973
-0.00119043
-0.000449416
-0.00133075
-0.00044066
-0.00146859
-0.000432738
-0.00160419
-0.000425585
-0.00173775
-0.000419117
-0.00186948
-0.000413259
-0.00199954
-0.00040795
-0.00212809
-0.000403135
-0.00225526
-0.000398771
-0.00238118
-0.0003948
-0.00250595
-0.000391168
-0.000387927
-0.00262969
-5.1081e-05
-0.000108953
-0.000160792
-0.000234002
-0.000300028
-0.000296853
-0.000451302
-0.000322342
-0.000605402
-0.00032818
-0.000758175
-0.00032518
-0.000908119
-0.000319002
-0.00105492
-0.000312172
-0.00119871
-0.000305629
-0.00133974
-0.000299632
-0.00147827
-0.000294205
-0.00161455
-0.0002893
-0.00174881
-0.000284864
-0.00188122
-0.000280844
-0.00201197
-0.000277198
-0.00214122
-0.00027389
-0.0022691
-0.000270889
-0.00239574
-0.000268157
-0.00252125
-0.000265656
-0.000263424
-0.00264576
-5.15578e-05
-5.73952e-05
-0.000162069
-0.000123491
-0.000302122
-0.0001568
-0.000454126
-0.000170338
-0.000608866
-0.00017344
-0.000762211
-0.000171835
-0.000912684
-0.000168529
-0.00105999
-0.000164869
-0.00120426
-0.000161355
-0.00134576
-0.000158129
-0.00148477
-0.000155203
-0.00162151
-0.000152553
-0.00175623
-0.00015015
-0.00188911
-0.000147967
-0.00202032
-0.000145981
-0.00215004
-0.000144174
-0.0022784
-0.000142529
-0.00240553
-0.000141027
-0.00253154
-0.000139647
-0.000138409
-0.00265655
-5.18023e-05
-5.59287e-06
-0.000162722
-1.2571e-05
-0.000303191
-1.63306e-05
-0.000455568
-1.79609e-05
-0.000610632
-1.83764e-05
-0.000764267
-1.82002e-05
-0.000915008
-1.77879e-05
-0.00106257
-1.73102e-05
-0.00120709
-1.68355e-05
-0.00134883
-1.63856e-05
-0.00148807
-1.59644e-05
-0.00162505
-1.55706e-05
-0.00176
-1.52016e-05
-0.00189311
-1.48549e-05
-0.00202456
-1.45283e-05
-0.00215452
-1.42197e-05
-0.00228312
-1.39276e-05
-0.00241049
-1.36501e-05
-0.00253676
-1.33858e-05
-1.31342e-05
-0.00266203
-5.18141e-05
4.62213e-05
-0.000162751
9.83663e-05
-0.000303237
0.000124155
-0.000455626
0.000134429
-0.0006107
0.000136697
-0.000764343
0.000135442
-0.000915091
0.00013296
-0.00106265
0.000130254
-0.00120718
0.000127689
-0.00134893
0.000125363
-0.00148817
0.000123278
-0.00162516
0.000121415
-0.00176011
0.00011975
-0.00189322
0.00011826
-0.00202468
0.000116927
-0.00215463
0.000115737
-0.00228324
0.000114677
-0.00241062
0.000113729
-0.00253688
0.000112878
0.000112143
-0.00266216
-5.15935e-05
9.78148e-05
-0.000162158
0.000208931
-0.000302259
0.000264256
-0.000454302
0.000286472
-0.000609071
0.000291466
-0.00076244
0.000288811
-0.000912933
0.000283453
-0.00106025
0.000277575
-0.00120454
0.000271978
-0.00134606
0.000266879
-0.00148507
0.000262292
-0.00162183
0.000258174
-0.00175656
0.000254474
-0.00188944
0.000251147
-0.00202067
0.000248153
-0.00215039
0.000245462
-0.00227876
0.000243045
-0.0024059
0.000240867
-0.00253192
0.000238895
0.000237167
-0.00265694
-5.11407e-05
0.000148955
-0.000160941
0.000318731
-0.000300258
0.000403574
-0.000451596
0.00043781
-0.000605746
0.000445616
-0.000758559
0.000441623
-0.000908536
0.00043343
-0.00105537
0.000424404
-0.00119918
0.00041579
-0.00134023
0.00040793
-0.00147878
0.000400847
-0.00161509
0.000394477
-0.00174936
0.000388744
-0.00188179
0.000383578
-0.00201255
0.000378919
-0.00214181
0.000374721
-0.00226971
0.000370939
-0.00239636
0.000367524
-0.00252189
0.00036442
0.000361683
-0.0026464
-5.04568e-05
0.000199412
-0.000159103
0.000427377
-0.000297236
0.000541706
-0.000447509
0.000588084
-0.000600726
0.000598833
-0.000752702
0.0005936
-0.000901904
0.000582632
-0.001048
0.000570497
-0.0011911
0.00055889
-0.00133145
0.000548283
-0.00146932
0.000538714
-0.00160494
0.000530098
-0.00173853
0.000522334
-0.00187028
0.000515327
-0.00200036
0.000508998
-0.00212892
0.000503284
-0.00225611
0.000498128
-0.00238204
0.000493461
-0.00250684
0.00048921
0.000485445
-0.0026306
-4.95435e-05
0.000248956
-0.000156646
0.00053448
-0.000293193
0.000678253
-0.000442042
0.000736933
-0.000594011
0.000750802
-0.000744871
0.00074446
-0.000893042
0.000730802
-0.00103815
0.000715609
-0.00118031
0.000701042
-0.00131973
0.000687711
-0.00145669
0.000675671
-0.00159141
0.000664818
-0.0017241
0.000655025
-0.00185495
0.000646176
-0.00198412
0.00063817
-0.00211177
0.000630929
-0.00223802
0.000624383
-0.00236301
0.000618447
-0.00248683
0.00061303
0.000608208
-0.00260959
-4.84026e-05
0.000297358
-0.000153572
0.00063965
-0.000288132
0.000812812
-0.000435196
0.000883997
-0.000585604
0.00090121
-0.00073507
0.000893926
-0.000881954
0.000877687
-0.00102585
0.000859503
-0.00116683
0.000842019
-0.00130511
0.000825994
-0.00144094
0.000811502
-0.00157454
0.000798424
-0.00170613
0.000786608
-0.00183586
0.000775913
-0.00196392
0.000766223
-0.00209043
0.000757441
-0.00221553
0.000749486
-0.00233934
0.000742258
-0.00246196
0.000735648
0.000729735
-0.00258349
-4.70365e-05
0.000344395
-0.000149885
0.000742498
-0.000282054
0.00094498
-0.00042697
0.00102891
-0.000575502
0.00104974
-0.000723298
0.00104172
-0.000868646
0.00102303
-0.00101109
0.00100194
-0.00115067
0.000981599
-0.00128759
0.000962917
-0.00142209
0.000946
-0.00155438
0.000930712
-0.00168465
0.00091688
-0.00181308
0.000904339
-0.00193981
0.000892954
-0.00206498
0.000882615
-0.00218872
0.000873227
-0.00231114
0.00086468
-0.00243234
0.000856844
0.000849797
-0.0025524
-4.54478e-05
0.000389843
-0.000145587
0.000842637
-0.00027496
0.00107435
-0.000417364
0.00117132
-0.000563706
0.00119608
-0.000709556
0.00118757
-0.00085312
0.0011666
-0.000993881
0.00114271
-0.00113185
0.00111957
-0.00126721
0.00109828
-0.00140018
0.00107897
-0.00153096
0.00106149
-0.00165973
0.00104565
-0.00178666
0.00103127
-0.00191188
0.00101818
-0.00203553
0.00100626
-0.00215772
0.000995413
-0.00227855
0.000985511
-0.00239811
0.000976408
0.000968173
-0.00251649
-4.36394e-05
0.000433482
-0.000140681
0.000939679
-0.000266849
0.00120052
-0.000406374
0.00131084
-0.000550208
0.00133992
-0.000693838
0.0013312
-0.000835375
0.00130813
-0.000974233
0.00128156
-0.00111038
0.00125572
-0.00124398
0.00123188
-0.00137524
0.00121022
-0.00150433
0.00119059
-0.00163144
0.00117276
-0.0017567
0.00115653
-0.00188025
0.00114173
-0.0020022
0.00112821
-0.00212265
0.00111587
-0.00224171
0.00110457
-0.00235944
0.00109415
0.00108465
-0.00247593
-4.1614e-05
0.000475096
-0.000135169
0.00103323
-0.000257721
0.00132307
-0.000393993
0.00144711
-0.000535
0.00148092
-0.000676136
0.00147234
-0.000815405
0.0014474
-0.000952144
0.0014183
-0.00108628
0.00138985
-0.00121794
0.00136354
-0.0013473
0.00133959
-0.00147455
0.00131784
-0.00159984
0.00129804
-0.00172329
0.00127998
-0.00184502
0.00126346
-0.00196512
0.00124832
-0.00208369
0.00123444
-0.00220081
0.00122169
-0.00231655
0.00120988
0.00119905
-0.00243095
-3.9375e-05
0.000514471
-0.000129053
0.00112291
-0.000247572
0.00144159
-0.000380211
0.00157975
-0.000518066
0.00161878
-0.000656433
0.00161071
-0.000793195
0.00158416
-0.000927603
0.00155271
-0.00105953
0.00152178
-0.00118907
0.00149308
-0.0013164
0.00146691
-0.00144166
0.0014431
-0.001565
0.00142138
-0.00168652
0.0014015
-0.00180632
0.00138325
-0.00192447
0.00136647
-0.00204104
0.00135101
-0.0021561
0.00133675
-0.00226969
0.00132348
0.00131121
-0.00238185
-3.69257e-05
0.000551397
-0.000122336
0.00120832
-0.000236396
0.00155565
-0.000365016
0.00170837
-0.000499388
0.00175315
-0.000634705
0.00174602
-0.000768721
0.00171818
-0.00090059
0.00168458
-0.00103013
0.00165131
-0.0011574
0.00162035
-0.00128254
0.00159206
-0.0014057
0.00156626
-0.00152698
0.00154267
-0.00164649
0.00152101
-0.00176428
0.00150105
-0.00188041
0.00148259
-0.00199491
0.00146551
-0.00210783
0.00144967
-0.00221919
0.00143484
0.00142099
-0.00232897
-3.42698e-05
0.000585667
-0.000115018
0.00128907
-0.000224186
0.00166482
-0.000348388
0.00183258
-0.000478937
0.0018837
-0.000610919
0.00187801
-0.000741947
0.00184921
-0.000871069
0.0018137
-0.000998035
0.00177828
-0.00112288
0.00174519
-0.00124571
0.00171489
-0.00136666
0.00168721
-0.00148583
0.00166183
-0.00160327
0.00163845
-0.00171903
0.00161681
-0.00183313
0.00159669
-0.00194556
0.00157795
-0.00205633
0.00156044
-0.00216542
0.00154392
0.00152832
-0.00227276
-3.14119e-05
0.000617079
-0.000107101
0.00136476
-0.000210935
0.00176865
-0.000330308
0.00195195
-0.00045668
0.00201007
-0.000585032
0.00200636
-0.000712822
0.001977
-0.000838985
0.00193986
-0.000963202
0.00190249
-0.00108547
0.00186746
-0.00120588
0.0018353
-0.00132454
0.00180587
-0.00144153
0.00177882
-0.0015569
0.00175382
-0.00167067
0.00173057
-0.0017828
0.00170883
-0.00189326
0.00168841
-0.00200198
0.00166916
-0.00210888
0.00165082
0.00163323
-0.00221378
-2.83573e-05
0.000645436
-9.85898e-05
0.00143499
-0.000196636
0.0018667
-0.000310752
0.00206606
-0.000432578
0.0021319
-0.000556988
0.00213077
-0.000681281
0.00210129
-0.000804264
0.00206285
-0.000925544
0.00202377
-0.00104508
0.00198699
-0.00116295
0.00195317
-0.00127924
0.00192216
-0.00139405
0.00189362
-0.00150738
0.00186716
-0.00161925
0.00184244
-0.00172958
0.00181916
-0.00183828
0.00179711
-0.00194519
0.00177607
-0.00205012
0.00175574
0.00173589
-0.00215278
-2.51132e-05
0.000670549
-8.94899e-05
0.00149937
-0.000181282
0.00195849
-0.000289696
0.00217448
-0.000406586
0.00224879
-0.000526727
0.00225091
-0.000647245
0.00222181
-0.00076681
0.00218241
-0.000884948
0.00214191
-0.00100158
0.00210362
-0.00111677
0.00206836
-0.00123062
0.00203602
-0.00134321
0.00200621
-0.00145457
0.00197852
-0.00156469
0.00195255
-0.00167349
0.00192796
-0.00178084
0.00190445
-0.00188647
0.00188171
-0.00198998
0.00185926
0.00183668
-0.00209078
-2.16887e-05
0.000692238
-7.98119e-05
0.00155749
-0.000164872
0.00204355
-0.000267118
0.00227672
-0.000378662
0.00236033
-0.000494181
0.00236643
-0.000610621
0.00233825
-0.000726504
0.0022983
-0.000841264
0.00225667
-0.000954785
0.00221715
-0.00106713
0.00218071
-0.00117841
0.0021473
-0.00128874
0.00211653
-0.00139817
0.00208796
-0.00150672
0.0020611
-0.00161431
0.00203555
-0.0017208
0.00201094
-0.00182591
0.00198682
-0.00192896
0.00196231
0.00193658
-0.00202886
-1.80962e-05
0.000710334
-6.95726e-05
0.00160897
-0.000147414
0.00212139
-0.000243006
0.00237232
-0.000348766
0.00246609
-0.000459287
0.00247695
-0.000571321
0.00245028
-0.000683228
0.0024102
-0.000794345
0.00236779
-0.000904515
0.00232732
-0.0010138
0.00229
-0.00112236
0.00225585
-0.00123033
0.00222451
-0.00133787
0.00219549
-0.00144505
0.00216829
-0.0015519
0.0021424
-0.0016584
0.00211744
-0.0017645
0.00209292
-0.00186948
0.00206729
0.00203693
-0.00196983
-1.43516e-05
0.000724686
-5.87975e-05
0.00165341
-0.000128925
0.00219152
-0.000217358
0.00246075
-0.000316872
0.00256561
-0.000421986
0.00258206
-0.000529253
0.00255755
-0.000636845
0.0025178
-0.000743982
0.00247492
-0.000850448
0.00243378
-0.000956296
0.00239584
-0.00106168
0.00236124
-0.00116682
0.00232964
-0.00127192
0.00230059
-0.00137725
0.00227362
-0.00148301
0.00224816
-0.00158926
0.0022237
-0.00169625
0.0021999
-0.00180468
0.00217572
0.00214383
-0.00191158
-1.04747e-05
0.00073516
-4.75227e-05
0.00169046
-0.000109439
0.00225344
-0.000190191
0.0025415
-0.000282972
0.00265839
-0.000382248
0.00268134
-0.000484357
0.00265966
-0.000587269
0.00262071
-0.000690065
0.00257772
-0.000792467
0.00253618
-0.000894528
0.00249791
-0.000996475
0.00246319
-0.00109866
0.00243182
-0.00120155
0.00240349
-0.00130582
0.00237788
-0.0014123
0.00235464
-0.00152187
0.00233327
-0.0016349
0.00231294
-0.00175235
0.00229316
0.00228597
-0.00189449
-6.50261e-06
0.000741663
-3.58164e-05
0.00171978
-8.90336e-05
0.00230665
-0.00016157
0.00261404
-0.00024711
0.00274393
-0.000340091
0.00277432
-0.000436629
0.0027562
-0.000534464
0.00271854
-0.000632508
0.00267576
-0.000730377
0.00263405
-0.000828068
0.0025956
-0.000925761
0.00256088
-0.00102373
0.00252979
-0.00112228
0.00250204
-0.00122171
0.0024773
-0.0013222