1.275 	2.15223e-18 	-2.76991e-20 	-0.135586 	0.00843165 	-2.52065e-22
1.825 	2.15223e-18 	-1.39322e-20 	-0.265063 	0.0272888 	3.42206e-21
2.375 	2.15223e-18 	-2.66896e-23 	-0.310512 	0.0433502 	-1.58892e-21
