# Probe 0 (5.5 0.5 0)
# Probe 1 (5.5 -0.5 0)
#       Probe             0             1
#        Time
         0.01      -1.24883      -1.24591
         0.02     0.0406563     0.0378643
         0.03    -0.0321269    -0.0321883
         0.04    -0.0230982     -0.023085
         0.05    -0.0174131    -0.0174139
         0.06    -0.0133426    -0.0133452
         0.07    -0.0103527    -0.0103596
         0.08   -0.00814281   -0.00815111
         0.09   -0.00649389    -0.0065049
          0.1   -0.00524753   -0.00525909
         0.11   -0.00430115   -0.00430684
         0.12   -0.00356745   -0.00357601
         0.13   -0.00300023   -0.00300949
         0.14   -0.00255398   -0.00256282
         0.15   -0.00219806   -0.00220694
         0.16   -0.00191072   -0.00191913
         0.17   -0.00167508   -0.00168326
         0.18   -0.00147917   -0.00148682
         0.19   -0.00131436   -0.00131807
          0.2   -0.00117237    -0.0011758
         0.21   -0.00104906   -0.00105218
         0.22  -0.000938375  -0.000942504
         0.23  -0.000844672  -0.000849694
         0.24  -0.000755286  -0.000761044
         0.25  -0.000677879  -0.000683076
         0.26  -0.000606622  -0.000611163
         0.27  -0.000540468  -0.000543893
         0.28  -0.000480086  -0.000483086
         0.29  -0.000423913  -0.000426628
          0.3  -0.000371496  -0.000373868
         0.31   -0.00032273  -0.000324938
         0.32   -0.00027682  -0.000278802
         0.33  -0.000234195    -0.0002363
         0.34  -0.000193609  -0.000195405
         0.35  -0.000155371  -0.000156983
         0.36  -0.000119273  -0.000120697
         0.37  -8.51382e-05   -8.6398e-05
         0.38  -5.28443e-05  -5.39634e-05
         0.39  -2.22315e-05  -2.32234e-05
          0.4   7.53399e-06   6.92836e-06
         0.41   3.53278e-05   3.48349e-05
         0.42   6.36061e-05   6.32245e-05
         0.43   9.29847e-05   9.28791e-05
         0.44   0.000116809   0.000116823
         0.45   0.000139513   0.000139651
         0.46   0.000161611   0.000160844
         0.47   0.000182133   0.000181434
         0.48    0.00020167   0.000201026
         0.49   0.000220239   0.000219666
          0.5   0.000237927    0.00023738
         0.51   0.000254801   0.000254268
         0.52   0.000270795   0.000270287
         0.53    0.00028632   0.000285972
         0.54   0.000301084   0.000300797
         0.55   0.000315177   0.000314933
         0.56   0.000328651   0.000328445
         0.57   0.000341621   0.000341438
         0.58   0.000354039   0.000353889
         0.59   0.000366315   0.000367355
          0.6    0.00037781     0.0003789
         0.61   0.000388915   0.000390093
         0.62   0.000399636   0.000400853
         0.63   0.000409991   0.000411278
         0.64   0.000420027   0.000421365
         0.65   0.000429748   0.000431141
         0.66   0.000440145   0.000441959
         0.67    0.00044924   0.000451161
         0.68   0.000490747   0.000490073
         0.69   0.000500197   0.000499744
          0.7   0.000508232   0.000507938
         0.71   0.000515956   0.000515538
         0.72   0.000523696   0.000523363
         0.73   0.000531278   0.000531071
         0.74   0.000538752   0.000538619
         0.75   0.000546099   0.000546071
         0.76   0.000553372   0.000553385
         0.77   0.000560549   0.000560635
         0.78   0.000567665   0.000567783
         0.79   0.000574692    0.00057491
          0.8   0.000581693   0.000581946
         0.81   0.000588629    0.00058898
         0.82   0.000595556   0.000595949
         0.83   0.000602439   0.000602932
         0.84    0.00060933   0.000609867
         0.85   0.000616197   0.000616837
         0.86   0.000623086   0.000623776
         0.87   0.000629995   0.000630773
         0.88   0.000636895   0.000637743
         0.89   0.000643829   0.000644788
          0.9   0.000650818   0.000651834
         0.91    0.00065783   0.000658966
         0.92   0.000664912   0.000666116
         0.93   0.000672053   0.000673357
         0.94   0.000679238   0.000680653
         0.95   0.000686496   0.000688054
         0.96   0.000693845    0.00069551
         0.97   0.000701263    0.00070308
         0.98   0.000708793   0.000710711
         0.99    0.00071641   0.000718461
            1   0.000724164   0.000726289
         1.01   0.000732023   0.000734248
         1.02   0.000740038    0.00074231
         1.03   0.000748164   0.000750517
         1.04   0.000756458   0.000758845
         1.05   0.000764875   0.000767328
         1.06   0.000773471    0.00077595
         1.07   0.000782208   0.000784742
         1.08   0.000791142   0.000793702
         1.09   0.000800216   0.000802826
          1.1   0.000809496   0.000812137
         1.11   0.000818952   0.000821641
         1.12    0.00082861   0.000831336
         1.13   0.000838489   0.000841272
         1.14   0.000848522   0.000851347
         1.15   0.000858791   0.000861669
         1.16   0.000869277   0.000872211
         1.17   0.000879987   0.000882979
         1.18   0.000890959   0.000894004
         1.19   0.000902101   0.000905218
          1.2   0.000913508   0.000916705
         1.21   0.000925167   0.000928437
         1.22   0.000937062   0.000940436
         1.23   0.000949248   0.000952698
         1.24   0.000961648   0.000965214
         1.25   0.000974384   0.000977982
         1.26   0.000987381   0.000991045
         1.27    0.00100066    0.00100439
         1.28    0.00101426    0.00101806
         1.29    0.00102809    0.00103198
          1.3    0.00104226    0.00104623
         1.31    0.00105674    0.00106079
         1.32    0.00107133    0.00107533
         1.33    0.00108649    0.00109052
         1.34    0.00110198    0.00110607
         1.35    0.00111779    0.00112191
         1.36    0.00113395    0.00113811
         1.37    0.00115048    0.00115469
         1.38    0.00116736    0.00117158
         1.39    0.00118455    0.00118884
          1.4    0.00120216    0.00120646
         1.41    0.00122013    0.00122445
         1.42     0.0012385    0.00124284
         1.43    0.00125723     0.0012616
         1.44    0.00127636    0.00128076
         1.45    0.00129589    0.00130031
         1.46    0.00131453    0.00131916
         1.47    0.00133414     0.0013392
         1.48    0.00135336    0.00135871
         1.49    0.00137841    0.00138349
          1.5    0.00139993    0.00140506
         1.51     0.0014219    0.00142707
         1.52    0.00144542    0.00145128
         1.53    0.00146831     0.0014742
         1.54    0.00149158    0.00149753
         1.55     0.0015156    0.00152116
         1.56    0.00153971    0.00154531
         1.57    0.00156422    0.00156986
         1.58     0.0015892    0.00159484
         1.59    0.00161459    0.00162023
          1.6    0.00164038    0.00164601
         1.61    0.00166657    0.00167222
         1.62    0.00169317    0.00169884
         1.63    0.00172019    0.00172587
         1.64    0.00174761     0.0017533
         1.65    0.00177541    0.00178114
         1.66    0.00180366    0.00180937
         1.67    0.00183226    0.00183797
         1.68    0.00186128    0.00186698
         1.69    0.00189067     0.0018964
          1.7    0.00192051    0.00192623
         1.71     0.0019507    0.00195643
         1.72    0.00198125    0.00198698
         1.73    0.00201224    0.00201796
         1.74    0.00204355    0.00204927
         1.75    0.00207527    0.00208099
         1.76    0.00210733    0.00211304
         1.77    0.00213975    0.00214546
         1.78    0.00217252    0.00217822
         1.79    0.00220564    0.00221133
          1.8     0.0022391    0.00224478
         1.81    0.00227289    0.00227856
         1.82    0.00230702    0.00231268
         1.83    0.00234147    0.00234711
         1.84    0.00237624    0.00238187
         1.85    0.00241133    0.00241694
         1.86    0.00244672    0.00245231
         1.87    0.00248241    0.00248798
         1.88     0.0025184    0.00252395
         1.89    0.00255468    0.00256021
          1.9    0.00259125    0.00259676
         1.91    0.00262809    0.00263357
         1.92    0.00266521    0.00267067
         1.93    0.00270246      0.002708
         1.94    0.00274011    0.00274569
         1.95    0.00277798    0.00278357
         1.96    0.00281611    0.00282169
         1.97    0.00285448    0.00286005
         1.98    0.00289309    0.00289865
         1.99    0.00293194    0.00293748
            2    0.00297101    0.00297654
         2.01    0.00300944    0.00301477
         2.02    0.00304903    0.00305439
         2.03    0.00308875    0.00309406
         2.04    0.00312869    0.00313396
         2.05    0.00316883    0.00317405
         2.06    0.00320917    0.00321435
         2.07    0.00324969    0.00325483
         2.08     0.0032904     0.0032955
         2.09    0.00333129    0.00333634
          2.1    0.00337239    0.00337739
         2.11    0.00341357    0.00341854
         2.12    0.00345496    0.00345989
         2.13     0.0034965    0.00350139
         2.14     0.0035382    0.00354304
         2.15    0.00358004    0.00358485
         2.16    0.00362203    0.00362679
         2.17    0.00366416    0.00366887
         2.18    0.00370642    0.00371109
         2.19     0.0037488    0.00375344
          2.2    0.00379132    0.00379591
         2.21    0.00383395     0.0038385
         2.22     0.0038767    0.00388121
         2.23    0.00391956    0.00392403
         2.24    0.00396253    0.00396696
         2.25    0.00400561    0.00400999
         2.26    0.00404878    0.00405313
         2.27    0.00409205    0.00409636
         2.28    0.00413542    0.00413968
         2.29    0.00417888     0.0041831
          2.3    0.00422242     0.0042266
         2.31    0.00426604    0.00427019
         2.32    0.00430975    0.00431385
         2.33    0.00435353    0.00435759
         2.34    0.00439739    0.00440141
         2.35    0.00444132     0.0044453
         2.36    0.00448531    0.00448926
         2.37    0.00452938    0.00453328
         2.38     0.0045735    0.00457736
         2.39    0.00461769    0.00462151
          2.4     0.0046618    0.00466563
         2.41    0.00470622    0.00470998
         2.42    0.00475057    0.00475429
         2.43    0.00479497    0.00479865
         2.44    0.00483941    0.00484307
         2.45    0.00488392    0.00488752
         2.46    0.00492847    0.00493203
         2.47    0.00497305    0.00497657
         2.48    0.00501768    0.00502117
         2.49    0.00506234    0.00506579
          2.5    0.00510705    0.00511046
         2.51    0.00515179    0.00515516
         2.52    0.00519657     0.0051999
         2.53    0.00524132    0.00524437
         2.54     0.0052862    0.00528947
         2.55    0.00533104    0.00533404
         2.56    0.00537592    0.00537889
         2.57    0.00542085    0.00542379
         2.58     0.0054658    0.00546873
         2.59    0.00551078    0.00551369
          2.6    0.00555579    0.00555868
         2.61    0.00560084    0.00560369
         2.62     0.0056459    0.00564874
         2.63      0.005691    0.00569381
         2.64    0.00573615    0.00573891
         2.65    0.00578127    0.00578403
         2.66    0.00582644    0.00582918
         2.67    0.00587164    0.00587435
         2.68    0.00591686    0.00591955
         2.69    0.00596246    0.00596485
          2.7    0.00600771    0.00601007
         2.71    0.00605305    0.00605538
         2.72    0.00609836    0.00610067
         2.73    0.00614378    0.00614601
         2.74     0.0061891    0.00619131
         2.75     0.0062345    0.00623668
         2.76    0.00627997    0.00628209
         2.77    0.00632539     0.0063275
         2.78    0.00637087    0.00637295
         2.79    0.00641637    0.00641842
          2.8     0.0064619    0.00646392
         2.81    0.00650756    0.00650987
         2.82    0.00655318    0.00655544
         2.83    0.00659879    0.00660102
         2.84    0.00664448    0.00664665
         2.85    0.00669012    0.00669227
         2.86    0.00673582    0.00673794
         2.87    0.00678155    0.00678364
         2.88    0.00682731    0.00682936
         2.89     0.0068731    0.00687512
          2.9    0.00691897    0.00692136
         2.91    0.00696486     0.0069672
         2.92    0.00701075    0.00701306
         2.93    0.00705666    0.00705895
         2.94    0.00710358    0.00710522
         2.95    0.00714966    0.00715123
         2.96    0.00719571    0.00719725
         2.97     0.0072418    0.00724331
         2.98    0.00728792    0.00728939
         2.99    0.00733407    0.00733551
            3    0.00737933    0.00738062
         3.01    0.00742586     0.0074272
         3.02    0.00747216    0.00747347
         3.03    0.00751849    0.00751977
         3.04    0.00756482    0.00756608
         3.05    0.00761121    0.00761245
         3.06    0.00765765    0.00765885
         3.07    0.00770412     0.0077053
         3.08    0.00775063    0.00775177
         3.09    0.00779717     0.0077983
          3.1    0.00784378    0.00784488
         3.11    0.00789043     0.0078915
         3.12    0.00793714    0.00793818
         3.13    0.00798388     0.0079849
         3.14    0.00803069    0.00803167
         3.15    0.00807755    0.00807852
         3.16    0.00812445    0.00812538
         3.17     0.0081714    0.00817231
         3.18    0.00821842    0.00821929
         3.19    0.00826549    0.00826633
          3.2     0.0083126    0.00831341
         3.21    0.00835978    0.00836056
         3.22      0.008407    0.00840776
         3.23     0.0084543    0.00845502
         3.24    0.00850164    0.00850235
         3.25    0.00854905    0.00854973
         3.26    0.00859652    0.00859717
         3.27    0.00864405    0.00864468
         3.28    0.00869164    0.00869225
         3.29     0.0087393    0.00873988
          3.3    0.00878702    0.00878758
         3.31     0.0088348    0.00883534
         3.32    0.00888265    0.00888317
         3.33    0.00893057    0.00893106
         3.34    0.00897855    0.00897902
         3.35    0.00902661    0.00902705
         3.36    0.00907473    0.00907515
         3.37    0.00912292    0.00912332
         3.38    0.00917118    0.00917156
         3.39    0.00921951    0.00921987
          3.4    0.00926791    0.00926825
         3.41    0.00931639     0.0093167
         3.42    0.00936467    0.00936504
         3.43    0.00941326    0.00941361
         3.44    0.00946195    0.00946229
         3.45    0.00951071    0.00951104
         3.46    0.00955959     0.0095599
         3.47    0.00960848    0.00960878
         3.48    0.00965747    0.00965776
         3.49    0.00970638    0.00970681
          3.5    0.00975551    0.00975592
         3.51     0.0098045    0.00980496
         3.52    0.00985403    0.00985438
         3.53     0.0099032    0.00990363
         3.54    0.00995265    0.00995305
         3.55     0.0100022     0.0100026
         3.56     0.0100518     0.0100522
         3.57     0.0101015     0.0101019
         3.58     0.0101513     0.0101517
         3.59     0.0102012     0.0102015
          3.6     0.0102512     0.0102515
         3.61     0.0103012     0.0103015
         3.62     0.0103514     0.0103516
         3.63     0.0104016     0.0104018
         3.64     0.0104519     0.0104521
         3.65     0.0105023     0.0105025
         3.66     0.0105528      0.010553
         3.67     0.0106034     0.0106035
         3.68      0.010654     0.0106541
         3.69     0.0107047     0.0107049
          3.7     0.0107556     0.0107557
         3.71     0.0108065     0.0108066
         3.72     0.0108575     0.0108575
         3.73     0.0109086     0.0109086
         3.74     0.0109598     0.0109598
         3.75      0.011011      0.011011
         3.76     0.0110624     0.0110624
         3.77     0.0111138     0.0111138
         3.78     0.0111653     0.0111653
         3.79      0.011217     0.0112169
          3.8     0.0112687     0.0112686
         3.81     0.0113205     0.0113204
         3.82     0.0113723     0.0113722
         3.83     0.0114243     0.0114242
         3.84     0.0114764     0.0114762
         3.85     0.0115285     0.0115284
         3.86     0.0115808     0.0115806
         3.87     0.0116331     0.0116329
         3.88     0.0116855     0.0116853
         3.89      0.011738     0.0117378
          3.9     0.0117906     0.0117904
         3.91     0.0118433      0.011843
         3.92     0.0118961     0.0118958
         3.93     0.0119489     0.0119486
         3.94     0.0120019     0.0120015
         3.95     0.0120549     0.0120546
         3.96      0.012108     0.0121077
         3.97     0.0121612     0.0121609
         3.98     0.0122145     0.0122141
         3.99     0.0122679     0.0122675
            4     0.0123214      0.012321
         4.01     0.0123749     0.0123745
         4.02     0.0124286     0.0124281
         4.03     0.0124823     0.0124819
         4.04     0.0125361     0.0125357
         4.05       0.01259     0.0125895
         4.06      0.012644     0.0126435
         4.07     0.0126981     0.0126976
         4.08     0.0127522     0.0127517
         4.09     0.0128064     0.0128059
          4.1     0.0128608     0.0128602
         4.11     0.0129152     0.0129147
         4.12     0.0129696     0.0129691
         4.13     0.0130242     0.0130236
         4.14     0.0130789     0.0130783
         4.15     0.0131336      0.013133
         4.16     0.0131884     0.0131878
         4.17     0.0132433     0.0132427
         4.18     0.0132983     0.0132976
         4.19     0.0133533     0.0133527
          4.2     0.0134084     0.0134078
         4.21     0.0134636      0.013463
         4.22     0.0135189     0.0135182
         4.23     0.0135743     0.0135736
         4.24     0.0136297      0.013629
         4.25     0.0136852     0.0136845
         4.26     0.0137408     0.0137401
         4.27     0.0137964     0.0137957
         4.28     0.0138522     0.0138514
         4.29      0.013908     0.0139072
          4.3     0.0139639     0.0139631
         4.31     0.0140198     0.0140191
         4.32     0.0140758     0.0140751
         4.33     0.0141319     0.0141312
         4.34     0.0141881     0.0141873
         4.35     0.0142444     0.0142436
         4.36     0.0143007     0.0142998
         4.37      0.014357     0.0143562
         4.38     0.0144135     0.0144126
         4.39       0.01447     0.0144691
          4.4     0.0145266     0.0145257
         4.41     0.0145832     0.0145823
         4.42     0.0146399      0.014639
         4.43     0.0146967     0.0146958
         4.44     0.0147535     0.0147526
         4.45     0.0148104     0.0148095
         4.46     0.0148673     0.0148664
         4.47     0.0149243     0.0149234
         4.48     0.0149814     0.0149805
         4.49     0.0150385     0.0150376
          4.5     0.0150957     0.0150948
         4.51     0.0151529      0.015152
         4.52     0.0152102     0.0152093
         4.53     0.0152675     0.0152666
         4.54     0.0153249      0.015324
         4.55     0.0153824     0.0153814
         4.56     0.0154398     0.0154389
         4.57     0.0154974     0.0154964
         4.58     0.0155549      0.015554
         4.59     0.0156126     0.0156116
          4.6     0.0156702     0.0156692
         4.61     0.0157279      0.015727
         4.62     0.0157857     0.0157847
         4.63     0.0158435     0.0158425
         4.64     0.0159014     0.0159003
         4.65     0.0159593     0.0159582
         4.66     0.0160172     0.0160162
         4.67     0.0160752     0.0160741
         4.68     0.0161332     0.0161322
         4.69     0.0161913     0.0161902
          4.7     0.0162494     0.0162483
         4.71     0.0163075     0.0163064
         4.72     0.0163657     0.0163646
         4.73     0.0164239     0.0164228
         4.74     0.0164821      0.016481
         4.75     0.0165404     0.0165393
         4.76     0.0165987     0.0165976
         4.77      0.016657     0.0166559
         4.78     0.0167154     0.0167143
         4.79     0.0167737     0.0167726
          4.8     0.0168321      0.016831
         4.81     0.0168906     0.0168895
         4.82      0.016949     0.0169479
         4.83     0.0170075     0.0170064
         4.84      0.017066     0.0170649
         4.85     0.0171245     0.0171234
         4.86      0.017183     0.0171819
         4.87     0.0172416     0.0172404
         4.88     0.0173001      0.017299
         4.89     0.0173587     0.0173575
          4.9     0.0174172     0.0174161
         4.91     0.0174758     0.0174747
         4.92     0.0175344     0.0175333
         4.93      0.017593     0.0175918
         4.94     0.0176516     0.0176504
         4.95     0.0177102      0.017709
         4.96     0.0177688     0.0177676
         4.97     0.0178274     0.0178262
         4.98      0.017886     0.0178848
         4.99     0.0179446     0.0179434
            5     0.0180032      0.018002
         5.01     0.0180618     0.0180606
         5.02     0.0181204     0.0181192
         5.03     0.0181789     0.0181777
         5.04     0.0182375     0.0182363
         5.05      0.018296     0.0182948
         5.06     0.0183546     0.0183533
         5.07     0.0184131     0.0184119
         5.08     0.0184716     0.0184703
         5.09     0.0185301     0.0185288
          5.1     0.0185885     0.0185873
         5.11     0.0186469     0.0186457
         5.12     0.0187053     0.0187041
         5.13     0.0187637     0.0187625
         5.14     0.0188221     0.0188208
         5.15     0.0188804     0.0188791
         5.16     0.0189387     0.0189374
         5.17      0.018997     0.0189957
         5.18     0.0190552     0.0190539
         5.19     0.0191134     0.0191121
          5.2     0.0191715     0.0191702
         5.21     0.0192296     0.0192283
         5.22     0.0192876     0.0192864
         5.23     0.0193457     0.0193444
         5.24     0.0194037     0.0194024
         5.25     0.0194616     0.0194604
         5.26     0.0195195     0.0195183
         5.27     0.0195773     0.0195761
         5.28     0.0196352     0.0196339
         5.29     0.0196929     0.0196916
          5.3     0.0197506     0.0197493
         5.31     0.0198082     0.0198069
         5.32     0.0198657     0.0198644
         5.33     0.0199232     0.0199219
         5.34     0.0199806     0.0199793
         5.35     0.0200379     0.0200366
         5.36     0.0200952     0.0200939
         5.37     0.0201524      0.020151
         5.38     0.0202095     0.0202081
         5.39     0.0202665     0.0202652
          5.4     0.0203234     0.0203221
         5.41     0.0203803      0.020379
         5.42     0.0204371     0.0204358
         5.43     0.0204938     0.0204925
         5.44     0.0205504     0.0205491
         5.45      0.020607     0.0206056
         5.46     0.0206634      0.020662
         5.47     0.0207198     0.0207184
         5.48     0.0207761     0.0207747
         5.49     0.0208323     0.0208309
          5.5     0.0208883     0.0208869
         5.51     0.0209444     0.0209429
         5.52     0.0210003     0.0209989
         5.53     0.0210561     0.0210547
         5.54     0.0211118     0.0211104
         5.55     0.0211675      0.021166
         5.56      0.021223     0.0212215
         5.57     0.0212784      0.021277
         5.58     0.0213338     0.0213323
         5.59      0.021389     0.0213875
          5.6     0.0214442     0.0214427
         5.61     0.0214992     0.0214977
         5.62     0.0215542     0.0215526
         5.63      0.021609     0.0216075
         5.64     0.0216637     0.0216622
         5.65     0.0217184     0.0217168
         5.66     0.0217729     0.0217713
         5.67     0.0218273     0.0218257
         5.68     0.0218816       0.02188
         5.69     0.0219358     0.0219342
          5.7     0.0219899     0.0219883
         5.71     0.0220439     0.0220423
         5.72     0.0220978     0.0220961
         5.73     0.0221516     0.0221499
         5.74     0.0222052     0.0222036
         5.75     0.0222588     0.0222572
         5.76     0.0223122     0.0223106
         5.77     0.0223655     0.0223638
         5.78     0.0224187     0.0224171
         5.79     0.0224718     0.0224702
          5.8     0.0225248     0.0225231
         5.81     0.0225777      0.022576
         5.82     0.0226304     0.0226287
         5.83      0.022683     0.0226814
         5.84     0.0227356     0.0227339
         5.85      0.022788     0.0227863
         5.86     0.0228403     0.0228385
         5.87     0.0228924     0.0228907
         5.88     0.0229445     0.0229426
         5.89     0.0229964     0.0229945
          5.9     0.0230482     0.0230463
         5.91        0.0231      0.023098
         5.92     0.0231515     0.0231495
         5.93      0.023203      0.023201
         5.94     0.0232543     0.0232523
         5.95     0.0233056     0.0233035
         5.96     0.0233567     0.0233546
         5.97     0.0234077     0.0234056
         5.98     0.0234585     0.0234565
         5.99     0.0235093     0.0235072
            6     0.0235599     0.0235578
         6.01     0.0236104     0.0236083
         6.02     0.0236608     0.0236587
         6.03     0.0237111      0.023709
         6.04     0.0237613     0.0237591
         6.05     0.0238113     0.0238091
         6.06     0.0238612     0.0238589
         6.07      0.023911     0.0239088
         6.08     0.0239607     0.0239584
         6.09     0.0240102     0.0240079
          6.1     0.0240597     0.0240573
         6.11      0.024109     0.0241066
         6.12     0.0241582     0.0241558
         6.13     0.0242072     0.0242049
         6.14     0.0242562     0.0242538
         6.15      0.024305     0.0243026
         6.16     0.0243538     0.0243513
         6.17     0.0244023     0.0243999
         6.18     0.0244508     0.0244483
         6.19     0.0244992     0.0244967
          6.2     0.0245474     0.0245449
         6.21     0.0245955      0.024593
         6.22     0.0246435     0.0246409
         6.23     0.0246914     0.0246888
         6.24     0.0247392     0.0247365
         6.25     0.0247868     0.0247842
         6.26     0.0248343     0.0248317
         6.27     0.0248817     0.0248791
         6.28      0.024929     0.0249263
         6.29     0.0249762     0.0249735
          6.3     0.0250233     0.0250205
         6.31     0.0250702     0.0250674
         6.32      0.025117     0.0251142
         6.33     0.0251637     0.0251609
         6.34     0.0252103     0.0252075
         6.35     0.0252568      0.025254
         6.36     0.0253032     0.0253003
         6.37     0.0253495     0.0253466
         6.38     0.0253956     0.0253927
         6.39     0.0254416     0.0254387
          6.4     0.0254876     0.0254846
         6.41     0.0255334     0.0255304
         6.42     0.0255791     0.0255761
         6.43     0.0256247     0.0256217
         6.44     0.0256702     0.0256672
         6.45     0.0257156     0.0257125
         6.46     0.0257608     0.0257578
         6.47      0.025806     0.0258029
         6.48      0.025851     0.0258479
         6.49     0.0258961      0.025893
          6.5     0.0259408     0.0259377
         6.51     0.0259857     0.0259825
         6.52     0.0260301      0.026027
         6.53     0.0260748     0.0260717
         6.54     0.0261191     0.0261159
         6.55     0.0261636     0.0261604
         6.56     0.0262076     0.0262045
         6.57     0.0262518     0.0262486
         6.58     0.0262958     0.0262926
         6.59     0.0263398     0.0263365
          6.6     0.0263836     0.0263803
         6.61     0.0264273      0.026424
         6.62     0.0264709     0.0264676
         6.63     0.0265144     0.0265111
         6.64     0.0265578     0.0265545
         6.65     0.0266011     0.0265978
         6.66     0.0266444     0.0266411
         6.67     0.0266875     0.0266842
         6.68     0.0267305     0.0267272
         6.69     0.0267735     0.0267701
          6.7     0.0268163      0.026813
         6.71     0.0268591     0.0268557
         6.72     0.0269017     0.0268984
         6.73     0.0269443     0.0269409
         6.74     0.0269867     0.0269834
         6.75     0.0270291     0.0270258
         6.76     0.0270714     0.0270681
         6.77     0.0271136     0.0271103
         6.78     0.0271557     0.0271524
         6.79     0.0271978     0.0271944
          6.8     0.0272397     0.0272363
         6.81     0.0272816     0.0272782
         6.82     0.0273236     0.0273203
         6.83     0.0273652      0.027362
         6.84     0.0274068     0.0274036
         6.85     0.0274483     0.0274451
         6.86     0.0274897     0.0274866
         6.87     0.0275311     0.0275279
         6.88     0.0275724     0.0275692
         6.89     0.0276136     0.0276104
          6.9     0.0276547     0.0276516
         6.91     0.0276957     0.0276926
         6.92     0.0277367     0.0277336
         6.93     0.0277776     0.0277746
         6.94     0.0278194     0.0278162
         6.95     0.0278597     0.0278567
         6.96     0.0279004     0.0278974
         6.97      0.027941      0.027938
         6.98     0.0279816     0.0279786
         6.99     0.0280221     0.0280191
            7     0.0280625     0.0280595
         7.01     0.0281028     0.0280999
         7.02     0.0281431     0.0281402
         7.03     0.0281833     0.0281804
         7.04     0.0282234     0.0282205
         7.05     0.0282635     0.0282606
         7.06     0.0283035     0.0283007
         7.07     0.0283435     0.0283406
         7.08     0.0283833     0.0283805
         7.09     0.0284232     0.0284204
          7.1     0.0284629     0.0284602
         7.11     0.0285026     0.0284999