# Probe 0 (5.5 0.5 0)
# Probe 1 (5.5 -0.5 0)
#       Probe             0             1
#        Time
         0.01             (0.994408 -0.0031747 -8.24436e-20)             (0.994411 0.00317966 1.37911e-19)
         0.02             (0.994516 -0.00275512 2.64187e-21)             (0.994523 0.00276271 -4.26357e-21)
         0.03             (0.994363 -0.00257948 -2.15549e-21)             (0.994369 0.00258613 3.49034e-21)
         0.04             (0.994252 -0.00242434 -1.55326e-21)             (0.994258 0.00243155 2.49683e-21)
         0.05             (0.99416 -0.00229359 -1.17532e-21)             (0.994165 0.00230109 1.88056e-21)
         0.06             (0.994081 -0.00218444 -9.03389e-22)             (0.994087 0.00219229 1.43935e-21)
         0.07             (0.994014 -0.00209428 -7.03175e-22)             (0.994018 0.00210241 1.11609e-21)
         0.08             (0.993953 -0.00202046 -5.5458e-22)             (0.993958 0.00202888 8.77456e-22)
         0.09             (0.993899 -0.00196058 -4.43257e-22)             (0.993903 0.00196922 6.99639e-22)
          0.1             (0.993849 -0.00191248 -3.58808e-22)             (0.993853 0.00192131 5.65421e-22)
         0.11             (0.993802 -0.00187429 -2.94235e-22)             (0.993806 0.00188324 4.63256e-22)
         0.12             (0.993758 -0.00184434 -2.44195e-22)             (0.993761 0.00185348 3.84576e-22)
         0.13             (0.993715 -0.00182127 -2.05276e-22)             (0.993719 0.00183056 3.23615e-22)
         0.14             (0.993674 -0.00180389 -1.74504e-22)             (0.993678 0.00181332 2.75575e-22)
         0.15             (0.993635 -0.00179123 -1.49892e-22)             (0.993638 0.00180079 2.37269e-22)
         0.16             (0.993596 -0.00178245 -1.29943e-22)             (0.9936 0.00179213 2.06277e-22)
         0.17             (0.993559 -0.0017769 -1.13556e-22)             (0.993562 0.00178668 1.80845e-22)
         0.18             (0.993522 -0.00177398 -9.98977e-23)             (0.993525 0.00178387 1.59638e-22)
         0.19             (0.993485 -0.00177323 -8.83449e-23)             (0.993488 0.00178321 1.41462e-22)
          0.2             (0.993449 -0.00177428 -7.84447e-23)             (0.993452 0.00178433 1.26045e-22)
         0.21             (0.993414 -0.0017768 -6.98517e-23)             (0.993417 0.00178692 1.1262e-22)
         0.22             (0.993378 -0.00178054 -6.22123e-23)             (0.993381 0.00179072 1.00672e-22)
         0.23             (0.993343 -0.00178529 -5.56549e-23)             (0.993346 0.00179554 9.05995e-23)
         0.24             (0.993309 -0.00179088 -4.95658e-23)             (0.993312 0.0018012 8.09677e-23)
         0.25             (0.993274 -0.00179713 -4.41933e-23)             (0.993277 0.00180751 7.24279e-23)
         0.26             (0.99324 -0.00180394 -3.9264e-23)             (0.993243 0.00181438 6.45414e-23)
         0.27             (0.993206 -0.00181121 -3.47166e-23)             (0.993208 0.00182171 5.71621e-23)
         0.28             (0.993172 -0.00181886 -3.05569e-23)             (0.993174 0.00182941 5.04744e-23)
         0.29             (0.993138 -0.00182683 -2.67034e-23)             (0.99314 0.00183743 4.4254e-23)
          0.3             (0.993104 -0.00183507 -2.3111e-23)             (0.993107 0.00184572 3.84361e-23)
         0.31             (0.99307 -0.00184354 -1.97768e-23)             (0.993073 0.00185423 3.30338e-23)
         0.32             (0.993037 -0.00185219 -1.66412e-23)             (0.993039 0.00186293 2.79376e-23)
         0.33             (0.993003 -0.00186101 -1.37185e-23)             (0.993005 0.00187179 2.32283e-23)
         0.34             (0.992969 -0.00186996 -1.09534e-23)             (0.992972 0.00188079 1.87069e-23)
         0.35             (0.992936 -0.00187904 -8.35218e-24)             (0.992938 0.00188991 1.44531e-23)
         0.36             (0.992902 -0.00188823 -5.89847e-24)             (0.992904 0.00189914 1.04352e-23)
         0.37             (0.992868 -0.00189751 -3.58035e-24)             (0.99287 0.00190846 6.63516e-24)
         0.38             (0.992835 -0.00190688 -1.38949e-24)             (0.992837 0.00191786 3.03859e-24)
         0.39             (0.992801 -0.00191632 6.85993e-25)             (0.992803 0.00192735 -3.71133e-25)
          0.4             (0.992767 -0.00192582 2.73851e-24)             (0.992769 0.00193689 -3.7943e-24)
         0.41             (0.992733 -0.00193539 4.61822e-24)             (0.992735 0.00194649 -6.89319e-24)
         0.42             (0.992699 -0.00194503 6.48932e-24)             (0.992701 0.00195617 -9.99475e-24)
         0.43             (0.992665 -0.00195471 8.46053e-24)             (0.992667 0.00196589 -1.33086e-23)
         0.44             (0.992631 -0.00196445 1.00896e-23)             (0.992633 0.00197568 -1.59564e-23)
         0.45             (0.992597 -0.00197425 1.16265e-23)             (0.992599 0.00198553 -1.84948e-23)
         0.46             (0.992563 -0.00198411 1.30964e-23)             (0.992565 0.00199543 -2.08752e-23)
         0.47             (0.992529 -0.00199402 1.44838e-23)             (0.992531 0.00200538 -2.31661e-23)
         0.48             (0.992495 -0.00200398 1.58044e-23)             (0.992496 0.00201538 -2.53471e-23)
         0.49             (0.99246 -0.00201399 1.70602e-23)             (0.992462 0.00202543 -2.74232e-23)
          0.5             (0.992426 -0.00202406 1.82573e-23)             (0.992428 0.00203554 -2.93992e-23)
         0.51             (0.992391 -0.00203418 1.93985e-23)             (0.992393 0.00204569 -3.12818e-23)
         0.52             (0.992356 -0.00204434 2.04833e-23)             (0.992358 0.0020559 -3.30711e-23)
         0.53             (0.992322 -0.00205457 2.15313e-23)             (0.992323 0.00206614 -3.48388e-23)
         0.54             (0.992287 -0.00206484 2.25323e-23)             (0.992288 0.00207644 -3.64952e-23)
         0.55             (0.992252 -0.00207517 2.34886e-23)             (0.992253 0.00208679 -3.80758e-23)
         0.56             (0.992216 -0.00208554 2.44028e-23)             (0.992218 0.00209719 -3.95878e-23)
         0.57             (0.992181 -0.00209597 2.52836e-23)             (0.992183 0.00210764 -4.10433e-23)
         0.58             (0.992146 -0.00210645 2.61279e-23)             (0.992148 0.00211814 -4.24383e-23)
         0.59             (0.99211 -0.00211698 2.69504e-23)             (0.992112 0.0021287 -4.39201e-23)
          0.6             (0.992075 -0.00212756 2.77314e-23)             (0.992076 0.00213932 -4.52151e-23)
         0.61             (0.992039 -0.0021382 2.84871e-23)             (0.992041 0.00214999 -4.64696e-23)
         0.62             (0.992003 -0.00214888 2.9216e-23)             (0.992005 0.00216071 -4.76783e-23)
         0.63             (0.991967 -0.00215962 2.99217e-23)             (0.991969 0.00217149 -4.8849e-23)
         0.64             (0.991931 -0.00217042 3.0605e-23)             (0.991933 0.00218231 -4.99826e-23)
         0.65             (0.991895 -0.00218126 3.12682e-23)             (0.991896 0.0021932 -5.10821e-23)
         0.66             (0.991858 -0.00219216 3.19494e-23)             (0.99186 0.00220414 -5.22449e-23)
         0.67             (0.991822 -0.00220312 3.25726e-23)             (0.991823 0.00221513 -5.32798e-23)
         0.68             (0.991785 -0.00221401 3.53309e-23)             (0.991787 0.00222607 -5.7646e-23)
         0.69             (0.991749 -0.00222497 3.59703e-23)             (0.99175 0.00223707 -5.87262e-23)
          0.7             (0.991712 -0.00223599 3.65287e-23)             (0.991714 0.00224814 -5.96497e-23)
         0.71             (0.991676 -0.00224707 3.70557e-23)             (0.991677 0.00225927 -6.05133e-23)
         0.72             (0.991639 -0.00225821 3.75884e-23)             (0.99164 0.00227046 -6.13994e-23)
         0.73             (0.991602 -0.00226941 3.81118e-23)             (0.991603 0.00228171 -6.22714e-23)
         0.74             (0.991564 -0.00228067 3.86275e-23)             (0.991566 0.00229302 -6.31281e-23)
         0.75             (0.991527 -0.00229199 3.91352e-23)             (0.991528 0.00230439 -6.39737e-23)
         0.76             (0.99149 -0.00230337 3.96368e-23)             (0.991491 0.00231583 -6.48057e-23)
         0.77             (0.991452 -0.00231481 4.0132e-23)             (0.991453 0.00232732 -6.56296e-23)
         0.78             (0.991414 -0.00232631 4.06228e-23)             (0.991415 0.00233888 -6.64446e-23)
         0.79             (0.991376 -0.00233786 4.11095e-23)             (0.991377 0.00235049 -6.72543e-23)
          0.8             (0.991338 -0.00234948 4.15928e-23)             (0.991339 0.00236217 -6.8057e-23)
         0.81             (0.9913 -0.00236116 4.20733e-23)             (0.991301 0.00237391 -6.88567e-23)
         0.82             (0.991261 -0.0023729 4.25519e-23)             (0.991262 0.00238571 -6.96517e-23)
         0.83             (0.991222 -0.00238469 4.30288e-23)             (0.991224 0.00239757 -7.04458e-23)
         0.84             (0.991184 -0.00239655 4.3505e-23)             (0.991185 0.00240949 -7.12373e-23)
         0.85             (0.991145 -0.00240847 4.39808e-23)             (0.991146 0.00242148 -7.20299e-23)
         0.86             (0.991106 -0.00242045 4.44569e-23)             (0.991107 0.00243353 -7.28216e-23)
         0.87             (0.991066 -0.0024325 4.49345e-23)             (0.991067 0.00244565 -7.36165e-23)
         0.88             (0.991027 -0.00244461 4.54122e-23)             (0.991028 0.00245782 -7.4412e-23)
         0.89             (0.990987 -0.00245677 4.58924e-23)             (0.990988 0.00247006 -7.52128e-23)
          0.9             (0.990947 -0.00246901 4.63749e-23)             (0.990949 0.00248237 -7.6016e-23)
         0.91             (0.990907 -0.0024813 4.68604e-23)             (0.990909 0.00249474 -7.68261e-23)
         0.92             (0.990867 -0.00249366 4.73491e-23)             (0.990868 0.00250718 -7.76404e-23)
         0.93             (0.990827 -0.00250609 4.78429e-23)             (0.990828 0.00251968 -7.84627e-23)
         0.94             (0.990786 -0.00251858 4.83391e-23)             (0.990788 0.00253224 -7.92917e-23)
         0.95             (0.990746 -0.00253113 4.88414e-23)             (0.990747 0.00254488 -8.01307e-23)
         0.96             (0.990705 -0.00254375 4.93488e-23)             (0.990706 0.00255758 -8.09771e-23)
         0.97             (0.990664 -0.00255644 4.98624e-23)             (0.990665 0.00257034 -8.18348e-23)
         0.98             (0.990623 -0.00256919 5.03819e-23)             (0.990624 0.00258317 -8.2701e-23)
         0.99             (0.990581 -0.00258202 5.09083e-23)             (0.990583 0.00259607 -8.35796e-23)
            1             (0.99054 -0.0025949 5.14417e-23)             (0.990541 0.00260904 -8.44684e-23)
         1.01             (0.990498 -0.00260786 5.19831e-23)             (0.990499 0.00262207 -8.53715e-23)
         1.02             (0.990456 -0.00262088 5.25323e-23)             (0.990457 0.00263517 -8.6287e-23)
         1.03             (0.990414 -0.00263398 5.30909e-23)             (0.990415 0.00264834 -8.72185e-23)
         1.04             (0.990372 -0.00264714 5.36582e-23)             (0.990373 0.00266158 -8.81641e-23)
         1.05             (0.99033 -0.00266037 5.42359e-23)             (0.990331 0.00267489 -8.91271e-23)
         1.06             (0.990287 -0.00267367 5.48234e-23)             (0.990288 0.00268827 -9.01059e-23)
         1.07             (0.990244 -0.00268703 5.5422e-23)             (0.990245 0.00270172 -9.11034e-23)
         1.08             (0.990201 -0.00270047 5.60329e-23)             (0.990202 0.00271524 -9.21197e-23)
         1.09             (0.990158 -0.00271398 5.66528e-23)             (0.990159 0.00272884 -9.31537e-23)
          1.1             (0.990115 -0.00272756 5.7286e-23)             (0.990116 0.0027425 -9.42083e-23)
         1.11             (0.990071 -0.00274121 5.79318e-23)             (0.990072 0.00275624 -9.52842e-23)
         1.12             (0.990028 -0.00275493 5.85905e-23)             (0.990029 0.00277004 -9.63811e-23)
         1.13             (0.989984 -0.00276872 5.92645e-23)             (0.989985 0.00278392 -9.75042e-23)
         1.14             (0.98994 -0.00278259 5.99488e-23)             (0.989941 0.00279788 -9.86434e-23)
         1.15             (0.989896 -0.00279652 6.0649e-23)             (0.989897 0.0028119 -9.98097e-23)
         1.16             (0.989851 -0.00281053 6.13639e-23)             (0.989852 0.002826 -1.01e-22)
         1.17             (0.989807 -0.00282461 6.20938e-23)             (0.989808 0.00284017 -1.02216e-22)
         1.18             (0.989762 -0.00283877 6.2841e-23)             (0.989763 0.00285441 -1.0346e-22)
         1.19             (0.989717 -0.00285299 6.36005e-23)             (0.989718 0.00286873 -1.04725e-22)
          1.2             (0.989672 -0.00286729 6.43782e-23)             (0.989673 0.00288313 -1.0602e-22)
         1.21             (0.989627 -0.00288167 6.51722e-23)             (0.989628 0.00289759 -1.07343e-22)
         1.22             (0.989581 -0.00289611 6.59839e-23)             (0.989582 0.00291214 -1.08695e-22)
         1.23             (0.989535 -0.00291064 6.68144e-23)             (0.989536 0.00292675 -1.10077e-22)
         1.24             (0.98949 -0.00292523 6.76596e-23)             (0.989491 0.00294144 -1.11485e-22)
         1.25             (0.989444 -0.0029399 6.8523e-23)             (0.989445 0.00295621 -1.12923e-22)
         1.26             (0.989397 -0.00295465 6.9406e-23)             (0.989398 0.00297105 -1.14393e-22)
         1.27             (0.989351 -0.00296947 7.03079e-23)             (0.989352 0.00298597 -1.15894e-22)
         1.28             (0.989304 -0.00298437 7.12307e-23)             (0.989305 0.00300097 -1.17431e-22)
         1.29             (0.989258 -0.00299934 7.21712e-23)             (0.989259 0.00301604 -1.18996e-22)
          1.3             (0.989211 -0.00301439 7.31328e-23)             (0.989212 0.00303118 -1.20597e-22)
         1.31             (0.989164 -0.00302951 7.41156e-23)             (0.989165 0.00304641 -1.22233e-22)
         1.32             (0.989116 -0.00304472 7.5103e-23)             (0.989117 0.00306171 -1.23864e-22)
         1.33             (0.989069 -0.00306 7.61302e-23)             (0.98907 0.0030771 -1.25571e-22)
         1.34             (0.989021 -0.00307535 7.71791e-23)             (0.989022 0.00309256 -1.27317e-22)
         1.35             (0.988973 -0.00309079 7.82499e-23)             (0.988975 0.00310809 -1.29096e-22)
         1.36             (0.988926 -0.0031063 7.93439e-23)             (0.988927 0.00312371 -1.30915e-22)
         1.37             (0.988877 -0.00312188 8.04622e-23)             (0.988879 0.0031394 -1.32776e-22)
         1.38             (0.988829 -0.00313755 8.16043e-23)             (0.98883 0.00315517 -1.34673e-22)
         1.39             (0.988781 -0.00315329 8.27679e-23)             (0.988782 0.00317102 -1.36609e-22)
          1.4             (0.988732 -0.00316911 8.39582e-23)             (0.988733 0.00318695 -1.38587e-22)
         1.41             (0.988683 -0.00318501 8.51729e-23)             (0.988684 0.00320295 -1.40606e-22)
         1.42             (0.988634 -0.00320098 8.64148e-23)             (0.988635 0.00321904 -1.42669e-22)
         1.43             (0.988585 -0.00321704 8.7681e-23)             (0.988586 0.0032352 -1.44774e-22)
         1.44             (0.988535 -0.00323317 8.89734e-23)             (0.988537 0.00325144 -1.46922e-22)
         1.45             (0.988486 -0.00324938 9.02922e-23)             (0.988487 0.00326776 -1.49114e-22)
         1.46             (0.988436 -0.00326567 9.15657e-23)             (0.988438 0.00328416 -1.51237e-22)
         1.47             (0.988386 -0.00328205 9.29056e-23)             (0.988388 0.00330064 -1.53485e-22)
         1.48             (0.988336 -0.0032985 9.42199e-23)             (0.988338 0.0033172 -1.55664e-22)
         1.49             (0.988286 -0.00331502 9.58354e-23)             (0.988287 0.00333384 -1.58415e-22)
          1.5             (0.988236 -0.00333162 9.72881e-23)             (0.988237 0.00335056 -1.60833e-22)
         1.51             (0.988185 -0.0033483 9.87709e-23)             (0.988187 0.00336736 -1.63299e-22)
         1.52             (0.988135 -0.00336506 1.00356e-22)             (0.988136 0.00338422 -1.65989e-22)
         1.53             (0.988084 -0.0033819 1.01899e-22)             (0.988085 0.00340117 -1.68552e-22)
         1.54             (0.988033 -0.00339882 1.03467e-22)             (0.988034 0.0034182 -1.71162e-22)
         1.55             (0.987982 -0.00341581 1.05069e-22)             (0.987983 0.00343531 -1.73835e-22)
         1.56             (0.98793 -0.00343289 1.06693e-22)             (0.987932 0.00345251 -1.76536e-22)
         1.57             (0.987879 -0.00345005 1.08343e-22)             (0.98788 0.00346978 -1.79283e-22)
         1.58             (0.987827 -0.00346729 1.10023e-22)             (0.987829 0.00348714 -1.82076e-22)
         1.59             (0.987776 -0.00348461 1.11732e-22)             (0.987777 0.00350458 -1.84916e-22)
          1.6             (0.987724 -0.00350202 1.13467e-22)             (0.987725 0.00352211 -1.878e-22)
         1.61             (0.987672 -0.0035195 1.1523e-22)             (0.987673 0.00353971 -1.90731e-22)
         1.62             (0.987619 -0.00353707 1.1702e-22)             (0.987621 0.0035574 -1.93708e-22)
         1.63             (0.987567 -0.00355472 1.18838e-22)             (0.987568 0.00357517 -1.9673e-22)
         1.64             (0.987514 -0.00357246 1.20683e-22)             (0.987516 0.00359303 -1.99797e-22)
         1.65             (0.987462 -0.00359027 1.22554e-22)             (0.987463 0.00361097 -2.02908e-22)
         1.66             (0.987409 -0.00360817 1.24454e-22)             (0.98741 0.00362899 -2.06065e-22)
         1.67             (0.987356 -0.00362616 1.26379e-22)             (0.987357 0.0036471 -2.09263e-22)
         1.68             (0.987303 -0.00364423 1.28329e-22)             (0.987304 0.00366529 -2.12503e-22)
         1.69             (0.987249 -0.00366238 1.30308e-22)             (0.987251 0.00368356 -2.15794e-22)
          1.7             (0.987196 -0.00368062 1.32314e-22)             (0.987198 0.00370192 -2.19127e-22)
         1.71             (0.987142 -0.00369894 1.34344e-22)             (0.987144 0.00372037 -2.22501e-22)
         1.72             (0.987089 -0.00371735 1.36398e-22)             (0.98709 0.0037389 -2.25915e-22)
         1.73             (0.987035 -0.00373584 1.38481e-22)             (0.987037 0.00375752 -2.29376e-22)
         1.74             (0.986981 -0.00375443 1.40586e-22)             (0.986983 0.00377623 -2.32873e-22)
         1.75             (0.986927 -0.00377309 1.42719e-22)             (0.986929 0.00379502 -2.36417e-22)
         1.76             (0.986873 -0.00379185 1.44874e-22)             (0.986874 0.0038139 -2.39998e-22)
         1.77             (0.986818 -0.00381069 1.47053e-22)             (0.98682 0.00383287 -2.43619e-22)
         1.78             (0.986764 -0.00382962 1.49256e-22)             (0.986765 0.00385192 -2.47279e-22)
         1.79             (0.986709 -0.00384865 1.51482e-22)             (0.986711 0.00387107 -2.50977e-22)
          1.8             (0.986654 -0.00386776 1.5373e-22)             (0.986656 0.0038903 -2.54713e-22)
         1.81             (0.986599 -0.00388696 1.56002e-22)             (0.986601 0.00390963 -2.58486e-22)
         1.82             (0.986544 -0.00390625 1.58295e-22)             (0.986546 0.00392904 -2.62296e-22)
         1.83             (0.986489 -0.00392563 1.6061e-22)             (0.986491 0.00394855 -2.66142e-22)
         1.84             (0.986434 -0.0039451 1.62946e-22)             (0.986435 0.00396815 -2.70023e-22)
         1.85             (0.986378 -0.00396467 1.65304e-22)             (0.98638 0.00398784 -2.73939e-22)
         1.86             (0.986322 -0.00398432 1.67682e-22)             (0.986324 0.00400762 -2.77889e-22)
         1.87             (0.986267 -0.00400408 1.7008e-22)             (0.986269 0.0040275 -2.81873e-22)
         1.88             (0.986211 -0.00402392 1.72498e-22)             (0.986213 0.00404747 -2.85889e-22)
         1.89             (0.986155 -0.00404386 1.74935e-22)             (0.986157 0.00406754 -2.89938e-22)
          1.9             (0.986099 -0.0040639 1.77392e-22)             (0.986101 0.0040877 -2.94019e-22)
         1.91             (0.986042 -0.00408403 1.79867e-22)             (0.986045 0.00410796 -2.9813e-22)
         1.92             (0.985986 -0.00410426 1.82361e-22)             (0.985988 0.00412831 -3.02272e-22)
         1.93             (0.98593 -0.00412459 1.84874e-22)             (0.985932 0.00414876 -3.06415e-22)
         1.94             (0.985873 -0.00414502 1.87404e-22)             (0.985875 0.00416931 -3.10622e-22)
         1.95             (0.985816 -0.00416555 1.8995e-22)             (0.985818 0.00418996 -3.1485e-22)
         1.96             (0.985759 -0.00418618 1.92513e-22)             (0.985761 0.00421071 -3.19106e-22)
         1.97             (0.985702 -0.00420691 1.95092e-22)             (0.985704 0.00423156 -3.23389e-22)
         1.98             (0.985645 -0.00422774 1.97687e-22)             (0.985647 0.00425251 -3.27698e-22)
         1.99             (0.985588 -0.00424868 2.00298e-22)             (0.98559 0.00427356 -3.32033e-22)
            2             (0.98553 -0.00426971 2.02924e-22)             (0.985533 0.00429472 -3.36394e-22)
         2.01             (0.985473 -0.00429086 2.05526e-22)             (0.985475 0.00431597 -3.40688e-22)
         2.02             (0.985415 -0.0043121 2.08186e-22)             (0.985418 0.00433733 -3.45112e-22)
         2.03             (0.985357 -0.00433346 2.10856e-22)             (0.98536 0.0043588 -3.49543e-22)
         2.04             (0.985299 -0.00435492 2.1354e-22)             (0.985302 0.00438038 -3.53999e-22)
         2.05             (0.985241 -0.00437649 2.16238e-22)             (0.985244 0.00440206 -3.58477e-22)
         2.06             (0.985183 -0.00439817 2.18948e-22)             (0.985186 0.00442385 -3.62978e-22)
         2.07             (0.985125 -0.00441996 2.21672e-22)             (0.985128 0.00444576 -3.67499e-22)
         2.08             (0.985066 -0.00444186 2.24407e-22)             (0.985069 0.00446777 -3.72041e-22)
         2.09             (0.985008 -0.00446387 2.27155e-22)             (0.985011 0.0044899 -3.76603e-22)
          2.1             (0.984949 -0.004486 2.29917e-22)             (0.984952 0.00451214 -3.81188e-22)
         2.11             (0.98489 -0.00450824 2.32685e-22)             (0.984893 0.0045345 -3.85785e-22)
         2.12             (0.984832 -0.00453059 2.35466e-22)             (0.984834 0.00455697 -3.90403e-22)
         2.13             (0.984773 -0.00455307 2.38259e-22)             (0.984775 0.00457956 -3.95039e-22)
         2.14             (0.984713 -0.00457566 2.41061e-22)             (0.984716 0.00460226 -3.99692e-22)
         2.15             (0.984654 -0.00459837 2.43874e-22)             (0.984657 0.00462509 -4.04362e-22)
         2.16             (0.984595 -0.0046212 2.46696e-22)             (0.984598 0.00464803 -4.09048e-22)
         2.17             (0.984535 -0.00464415 2.49528e-22)             (0.984538 0.0046711 -4.13749e-22)
         2.18             (0.984475 -0.00466723 2.52368e-22)             (0.984479 0.00469429 -4.18466e-22)
         2.19             (0.984416 -0.00469043 2.55218e-22)             (0.984419 0.00471761 -4.23197e-22)
          2.2             (0.984356 -0.00471376 2.58076e-22)             (0.984359 0.00474105 -4.27942e-22)
         2.21             (0.984296 -0.00473721 2.60942e-22)             (0.984299 0.00476462 -4.32701e-22)
         2.22             (0.984235 -0.00476079 2.63816e-22)             (0.984239 0.00478831 -4.37473e-22)
         2.23             (0.984175 -0.0047845 2.66698e-22)             (0.984178 0.00481214 -4.42258e-22)
         2.24             (0.984115 -0.00480834 2.69588e-22)             (0.984118 0.0048361 -4.47056e-22)
         2.25             (0.984054 -0.00483231 2.72484e-22)             (0.984057 0.00486018 -4.51865e-22)
         2.26             (0.983993 -0.00485642 2.75387e-22)             (0.983997 0.00488441 -4.56686e-22)
         2.27             (0.983933 -0.00488066 2.78298e-22)             (0.983936 0.00490876 -4.61518e-22)
         2.28             (0.983872 -0.00490503 2.81214e-22)             (0.983875 0.00493326 -4.6636e-22)
         2.29             (0.98381 -0.00492955 2.84137e-22)             (0.983814 0.00495789 -4.71213e-22)
          2.3             (0.983749 -0.0049542 2.87066e-22)             (0.983753 0.00498266 -4.76076e-22)
         2.31             (0.983688 -0.004979 2.9e-22)             (0.983692 0.00500757 -4.80948e-22)
         2.32             (0.983626 -0.00500394 2.9294e-22)             (0.98363 0.00503262 -4.8583e-22)
         2.33             (0.983565 -0.00502902 2.95886e-22)             (0.983569 0.00505782 -4.9072e-22)
         2.34             (0.983503 -0.00505425 2.98836e-22)             (0.983507 0.00508317 -4.9562e-22)
         2.35             (0.983441 -0.00507962 3.01792e-22)             (0.983445 0.00510866 -5.00527e-22)
         2.36             (0.983379 -0.00510514 3.04752e-22)             (0.983383 0.0051343 -5.05442e-22)
         2.37             (0.983317 -0.00513082 3.07717e-22)             (0.983321 0.00516009 -5.10365e-22)
         2.38             (0.983255 -0.00515664 3.10686e-22)             (0.983259 0.00518603 -5.15296e-22)
         2.39             (0.983192 -0.00518262 3.1366e-22)             (0.983196 0.00521213 -5.20233e-22)
          2.4             (0.98313 -0.00520875 3.16631e-22)             (0.983134 0.00523838 -5.25168e-22)
         2.41             (0.983067 -0.00523505 3.19619e-22)             (0.983071 0.00526479 -5.30129e-22)
         2.42             (0.983004 -0.0052615 3.22604e-22)             (0.983008 0.00529136 -5.35086e-22)
         2.43             (0.982941 -0.00528811 3.25593e-22)             (0.982946 0.00531809 -5.40049e-22)
         2.44             (0.982878 -0.00531488 3.28584e-22)             (0.982882 0.00534498 -5.45018e-22)
         2.45             (0.982815 -0.00534182 3.31582e-22)             (0.982819 0.00537204 -5.49992e-22)
         2.46             (0.982751 -0.00536892 3.34581e-22)             (0.982756 0.00539926 -5.54972e-22)
         2.47             (0.982688 -0.0053962 3.37583e-22)             (0.982692 0.00542665 -5.59957e-22)
         2.48             (0.982624 -0.00542364 3.40588e-22)             (0.982629 0.00545421 -5.64947e-22)
         2.49             (0.98256 -0.00545125 3.43596e-22)             (0.982565 0.00548194 -5.69942e-22)
          2.5             (0.982497 -0.00547904 3.46607e-22)             (0.982501 0.00550985 -5.74941e-22)
         2.51             (0.982432 -0.005507 3.49621e-22)             (0.982437 0.00553793 -5.79945e-22)
         2.52             (0.982368 -0.00553514 3.52637e-22)             (0.982373 0.00556619 -5.84954e-22)
         2.53             (0.982304 -0.00556346 3.55653e-22)             (0.982309 0.00559463 -5.89938e-22)
         2.54             (0.982239 -0.00559196 3.58676e-22)             (0.982244 0.00562325 -5.94981e-22)
         2.55             (0.982175 -0.00562064 3.61698e-22)             (0.98218 0.00565205 -5.99976e-22)
         2.56             (0.98211 -0.00564951 3.64723e-22)             (0.982115 0.00568104 -6.04999e-22)
         2.57             (0.982045 -0.00567857 3.67751e-22)             (0.98205 0.00571021 -6.10026e-22)
         2.58             (0.98198 -0.00570782 3.70781e-22)             (0.981985 0.00573958 -6.15058e-22)
         2.59             (0.981914 -0.00573726 3.73814e-22)             (0.98192 0.00576913 -6.20093e-22)
          2.6             (0.981849 -0.00576689 3.76848e-22)             (0.981854 0.00579888 -6.25132e-22)
         2.61             (0.981783 -0.00579672 3.79885e-22)             (0.981789 0.00582883 -6.30174e-22)
         2.62             (0.981718 -0.00582675 3.82923e-22)             (0.981723 0.00585897 -6.3522e-22)
         2.63             (0.981652 -0.00585697 3.85964e-22)             (0.981657 0.00588932 -6.40269e-22)
         2.64             (0.981586 -0.0058874 3.89009e-22)             (0.981591 0.00591987 -6.45323e-22)
         2.65             (0.98152 -0.00591804 3.92051e-22)             (0.981525 0.00595062 -6.50377e-22)
         2.66             (0.981453 -0.00594888 3.95098e-22)             (0.981459 0.00598158 -6.55436e-22)
         2.67             (0.981387 -0.00597993 3.98146e-22)             (0.981393 0.00601275 -6.60499e-22)
         2.68             (0.98132 -0.00601119 4.01197e-22)             (0.981326 0.00604412 -6.65564e-22)
         2.69             (0.981254 -0.00604266 4.04251e-22)             (0.981259 0.00607572 -6.70634e-22)
          2.7             (0.981187 -0.00607436 4.07304e-22)             (0.981192 0.00610753 -6.75703e-22)
         2.71             (0.981119 -0.00610627 4.10361e-22)             (0.981125 0.00613956 -6.80782e-22)
         2.72             (0.981052 -0.0061384 4.13419e-22)             (0.981058 0.00617181 -6.8586e-22)
         2.73             (0.980985 -0.00617075 4.16481e-22)             (0.980991 0.00620428 -6.90943e-22)
         2.74             (0.980917 -0.00620333 4.19539e-22)             (0.980923 0.00623698 -6.96023e-22)
         2.75             (0.980849 -0.00623613 4.22602e-22)             (0.980856 0.0062699 -7.01111e-22)
         2.76             (0.980782 -0.00626917 4.25671e-22)             (0.980788 0.00630306 -7.06203e-22)
         2.77             (0.980713 -0.00630244 4.28735e-22)             (0.98072 0.00633644 -7.11296e-22)
         2.78             (0.980645 -0.00633594 4.31805e-22)             (0.980652 0.00637007 -7.16394e-22)