/*--------------------------------*- C++ -*----------------------------------*\
  =========                 |
  \\      /  F ield         | OpenFOAM: The Open Source CFD Toolbox
   \\    /   O peration     | Website:  https://openfoam.org
    \\  /    A nd           | Version:  6.0
     \\/     M anipulation  |
\*---------------------------------------------------------------------------*/
FoamFile
{
    version     2.0;
    format      ascii;
    class       volScalarField;
    location    "5";
    object      p;
}
// * * * * * * * * * * * * * * * * * * * * * * * * * * * * * * * * * * * * * //

dimensions      [0 2 -2 0 0 0 0];

internalField   nonuniform List<scalar> 
12500
(
-0.338646
-0.342274
-0.344585
-0.346332
-0.34798
-0.34963
-0.351353
-0.353197
-0.355182
-0.357311
-0.359575
-0.361958
-0.364444
-0.367012
-0.369642
-0.372316
-0.375015
-0.377721
-0.380416
-0.383093
-0.385755
-0.388354
-0.39068
-0.392804
-0.396516
-0.339253
-0.342796
-0.345061
-0.346782
-0.348411
-0.350046
-0.351759
-0.353595
-0.355575
-0.357701
-0.359963
-0.362346
-0.364833
-0.367403
-0.370037
-0.372715
-0.37542
-0.378131
-0.380834
-0.383518
-0.386188
-0.388797
-0.391134
-0.393263
-0.396978
-0.340448
-0.343826
-0.346001
-0.347669
-0.349258
-0.350865
-0.352557
-0.354378
-0.356347
-0.358465
-0.360723
-0.363105
-0.365593
-0.368167
-0.370807
-0.373493
-0.376207
-0.378929
-0.381644
-0.384341
-0.387026
-0.389653
-0.392011
-0.394148
-0.397869
-0.342185
-0.345321
-0.347365
-0.348954
-0.350485
-0.352049
-0.353708
-0.355505
-0.357456
-0.359562
-0.361811
-0.364189
-0.366676
-0.369253
-0.371898
-0.374593
-0.377317
-0.380053
-0.382782
-0.385496
-0.3882
-0.39085
-0.393236
-0.395381
-0.399108
-0.344394
-0.347224
-0.3491
-0.350586
-0.35204
-0.353545
-0.355159
-0.35692
-0.358844
-0.360929
-0.363163
-0.365531
-0.368012
-0.370587
-0.373234
-0.375934
-0.378667
-0.381414
-0.384157
-0.386887
-0.389608
-0.392284
-0.394701
-0.396855
-0.400582
-0.346992
-0.349463
-0.351137
-0.352498
-0.353856
-0.355286
-0.356841
-0.358555
-0.36044
-0.362492
-0.364701
-0.367049
-0.369515
-0.37208
-0.374722
-0.37742
-0.380154
-0.382906
-0.385658
-0.388399
-0.391134
-0.393831
-0.396278
-0.398437
-0.402155
-0.349885
-0.351958
-0.353405
-0.354621
-0.355864
-0.357203
-0.358683
-0.360333
-0.362164
-0.36417
-0.366339
-0.368653
-0.371092
-0.373634
-0.376257
-0.378942
-0.381666
-0.384413
-0.387163
-0.389905
-0.392644
-0.395354
-0.397826
-0.399985
-0.403684
-0.352974
-0.354624
-0.355825
-0.356878
-0.357991
-0.35922
-0.360607
-0.362176
-0.363935
-0.365876
-0.367988
-0.370251
-0.372644
-0.375146
-0.377735
-0.380389
-0.383088
-0.385813
-0.388547
-0.391276
-0.394007
-0.396718
-0.399206
-0.401356
-0.405022
-0.35616
-0.35738
-0.358322
-0.359199
-0.360164
-0.361267
-0.362542
-0.36401
-0.365675
-0.367531
-0.369563
-0.371753
-0.374079
-0.376519
-0.379052
-0.381655
-0.384308
-0.386993
-0.389691
-0.39239
-0.395095
-0.397792
-0.400283
-0.402416
-0.406037
-0.359352
-0.360148
-0.360828
-0.361519
-0.362322
-0.36328
-0.364423
-0.365767
-0.367316
-0.369061
-0.370989
-0.37308
-0.375313
-0.377667
-0.380118
-0.382646
-0.38523
-0.387851
-0.390492
-0.393141
-0.395801
-0.398465
-0.400944
-0.40305
-0.406614
-0.362466
-0.36286
-0.363283
-0.36378
-0.36441
-0.365206
-0.366196
-0.367394
-0.3688
-0.370408
-0.372203
-0.374168
-0.37628
-0.378518
-0.380861
-0.383287
-0.385775
-0.388308
-0.390868
-0.393443
-0.396037
-0.398649
-0.401099
-0.403169
-0.406668
-0.365435
-0.365463
-0.365639
-0.365942
-0.366387
-0.367006
-0.367823
-0.36885
-0.370087
-0.37153
-0.373164
-0.374971
-0.376933
-0.379027
-0.381232
-0.383528
-0.385893
-0.388311
-0.390764
-0.393241
-0.395748
-0.398286
-0.40069
-0.402715
-0.406145
-0.368206
-0.367914
-0.367863
-0.367972
-0.368227
-0.368655
-0.36928
-0.370112
-0.371155
-0.372404
-0.373848
-0.37547
-0.377251
-0.379172
-0.38121
-0.383347
-0.385562
-0.387838
-0.39016
-0.392515
-0.39491
-0.397354
-0.399694
-0.401664
-0.405026
-0.370748
-0.370189
-0.369933
-0.369855
-0.369916
-0.370143
-0.370558
-0.371175
-0.372
-0.373029
-0.374255
-0.375663
-0.377237
-0.378956
-0.380802
-0.382754
-0.384794
-0.386904
-0.389069
-0.391278
-0.393539
-0.395866
-0.39812
-0.400022
-0.403319
-0.373043
-0.372279
-0.371845
-0.371589
-0.371455
-0.371472
-0.371664
-0.372048
-0.372633
-0.373421
-0.374405
-0.375576
-0.376918
-0.378414
-0.380044
-0.38179
-0.383632
-0.385553
-0.387539
-0.38958
-0.391683
-0.393868
-0.396008
-0.397821
-0.401048
-0.375097
-0.374186
-0.373604
-0.373182
-0.372856
-0.372658
-0.372618
-0.372755
-0.373084
-0.373612
-0.374337
-0.375252
-0.376345
-0.377599
-0.378998
-0.38052
-0.382148
-0.383864
-0.385652
-0.387503
-0.389422
-0.391434
-0.393424
-0.395106
-0.398244
-0.376929
-0.375932
-0.37523
-0.374654
-0.374141
-0.373727
-0.373448
-0.373329
-0.373393
-0.373649
-0.374104
-0.374752
-0.375585
-0.376588
-0.377745
-0.379035
-0.380439
-0.381938
-0.383514
-0.385153
-0.386861
-0.388663
-0.390451
-0.391935
-0.394925
-0.378577
-0.377547
-0.376752
-0.376034
-0.37534
-0.374713
-0.374193
-0.373816
-0.373609
-0.37359
-0.373769
-0.374147
-0.374717
-0.375467
-0.37638
-0.377436
-0.378614
-0.37989
-0.381243
-0.382653
-0.384121
-0.385666
-0.387183
-0.388365
-0.391099
-0.380092
-0.379073
-0.378208
-0.377361
-0.376493
-0.375655
-0.374898
-0.374264
-0.373788
-0.373496
-0.373403
-0.373514
-0.373826
-0.374328
-0.375004
-0.375832
-0.376787
-0.377841
-0.378964
-0.380129
-0.381323
-0.382557
-0.383715
-0.384455
-0.386758
-0.381536
-0.380562
-0.379644
-0.378676
-0.377642
-0.376601
-0.375612
-0.374727
-0.373991
-0.373434
-0.373078
-0.372932
-0.372997
-0.373263
-0.373713
-0.374324
-0.375064
-0.3759
-0.376791
-0.377695
-0.378581
-0.379442
-0.380141
-0.380269
-0.3819
-0.382983
-0.382073
-0.381112
-0.38003
-0.378835
-0.377598
-0.376387
-0.375263
-0.374277
-0.373469
-0.372865
-0.372478
-0.372312
-0.372358
-0.372597
-0.373004
-0.373541
-0.374164
-0.374821
-0.37545
-0.375996
-0.376423
-0.376563
-0.375906
-0.376575
-0.38451
-0.38367
-0.382667
-0.381475
-0.380124
-0.378699
-0.377276
-0.375926
-0.374707
-0.373665
-0.372831
-0.372222
-0.371843
-0.371686
-0.371731
-0.371947
-0.372292
-0.37271
-0.373133
-0.373479
-0.37366
-0.373605
-0.373111
-0.37154
-0.370949
-0.386198
-0.385416
-0.384368
-0.383063
-0.381561
-0.379954
-0.378332
-0.376771
-0.375338
-0.374081
-0.373037
-0.372225
-0.371652
-0.371309
-0.371175
-0.371215
-0.371379
-0.3716
-0.371795
-0.371855
-0.371657
-0.371082
-0.369883
-0.367271
-0.36508
-0.388125
-0.387378
-0.38627
-0.384847
-0.383194
-0.381415
-0.379605
-0.377849
-0.376219
-0.374767
-0.373532
-0.372537
-0.371787
-0.371274
-0.370975
-0.370853
-0.370852
-0.370899
-0.370898
-0.370719
-0.370197
-0.369139
-0.367171
-0.363219
-0.358851
-0.390366
-0.389615
-0.388427
-0.386879
-0.385074
-0.383126
-0.381139
-0.379203
-0.377392
-0.375763
-0.374355
-0.373192
-0.37228
-0.371609
-0.371158
-0.370888
-0.370747
-0.370667
-0.370561
-0.370315
-0.369783
-0.368762
-0.366756
-0.362369
-0.356874
-0.392984
-0.392182
-0.390889
-0.389201
-0.38724
-0.385127
-0.382971
-0.380867
-0.37889
-0.377098
-0.375531
-0.374212
-0.373146
-0.372324
-0.371725
-0.371313
-0.371046
-0.370872
-0.370739
-0.3706
-0.370432
-0.370259
-0.370119
-0.370506
-0.376118
-0.396033
-0.395126
-0.393696
-0.391853
-0.389728
-0.387449
-0.38513
-0.382866
-0.380733
-0.378789
-0.377071
-0.375601
-0.374383
-0.373408
-0.372653
-0.372087
-0.371676
-0.371382
-0.371178
-0.371054
-0.371038
-0.371218
-0.371737
-0.373055
-0.378351
-0.399556
-0.398483
-0.396883
-0.394866
-0.392565
-0.390116
-0.387634
-0.385215
-0.382931
-0.380839
-0.378973
-0.377352
-0.375975
-0.374833
-0.373902
-0.373154
-0.372557
-0.372086
-0.371723
-0.371474
-0.371374
-0.371505
-0.371975
-0.372986
-0.376428
-0.403581
-0.402283
-0.400476
-0.398263
-0.395773
-0.393146
-0.390498
-0.387922
-0.385489
-0.383247
-0.381229
-0.379445
-0.377894
-0.376561
-0.37542
-0.374444
-0.373603
-0.372872
-0.37224
-0.371707
-0.371297
-0.371057
-0.371037
-0.371275
-0.372894
-0.40813
-0.406547
-0.404496
-0.402063
-0.399367
-0.396551
-0.39373
-0.390993
-0.388403
-0.386004
-0.38382
-0.381856
-0.380104
-0.378543
-0.377147
-0.375883
-0.374723
-0.373642
-0.372625
-0.371667
-0.370774
-0.369964
-0.369245
-0.368579
-0.368609
-0.413212
-0.411289
-0.408959
-0.406282
-0.40336
-0.400341
-0.397337
-0.394428
-0.391671
-0.3891
-0.386729
-0.384556
-0.382564
-0.380728
-0.379016
-0.377395
-0.375836
-0.374312
-0.372808
-0.371314
-0.369825
-0.368344
-0.366861
-0.365318
-0.364076
-0.418834
-0.416519
-0.413876
-0.41093
-0.407764
-0.404527
-0.401326
-0.398231
-0.395288
-0.392521
-0.389932
-0.387509
-0.385227
-0.383056
-0.380959
-0.378906
-0.376865
-0.374815
-0.37274
-0.370632
-0.368485
-0.366297
-0.36406
-0.361715
-0.35947
-0.424998
-0.422245
-0.419257
-0.416019
-0.412591
-0.409119
-0.405704
-0.402403
-0.39925
-0.396254
-0.393404
-0.390678
-0.388044
-0.385466
-0.38291
-0.380343
-0.377744
-0.375094
-0.372386
-0.369616
-0.366786
-0.363896
-0.360947
-0.357892
-0.354862
-0.431702
-0.428469
-0.425109
-0.42156
-0.417851
-0.414128
-0.410478
-0.406946
-0.403549
-0.400278
-0.397113
-0.394019
-0.390959
-0.387896
-0.384798
-0.381642
-0.378414
-0.375106
-0.371721
-0.368266
-0.364751
-0.361185
-0.357578
-0.353895
-0.350235
-0.438943
-0.435194
-0.431438
-0.427561
-0.423555
-0.419561
-0.415653
-0.411857
-0.40817
-0.404569
-0.401019
-0.397479
-0.393909
-0.390276
-0.386558
-0.382741
-0.378824
-0.374816
-0.37073
-0.366584
-0.362398
-0.35819
-0.353977
-0.349736
-0.345548
-0.446715
-0.442418
-0.438248
-0.434028
-0.42971
-0.425423
-0.421226
-0.417123
-0.41309
-0.409088
-0.405072
-0.400998
-0.396828
-0.39254
-0.388124
-0.383584
-0.378934
-0.374196
-0.369399
-0.36457
-0.359737
-0.354924
-0.350151
-0.345405
-0.340756
-0.455004
-0.450134
-0.445536
-0.440961
-0.436315
-0.431711
-0.427187
-0.422721
-0.418272
-0.413786
-0.409211
-0.404506
-0.399645
-0.394619
-0.389438
-0.384123
-0.378708
-0.373228
-0.367723
-0.362228
-0.356776
-0.351393
-0.346101
-0.340889
-0.335821
-0.463792
-0.458328
-0.453291
-0.448353
-0.443361
-0.438409
-0.433509
-0.428615
-0.423666
-0.418598
-0.413363
-0.407928
-0.402285
-0.396446
-0.390443
-0.384318
-0.378119
-0.371896
-0.365696
-0.35956
-0.353519
-0.347601
-0.341823
-0.336177
-0.330716
-0.47305
-0.466976
-0.461495
-0.456186
-0.450827
-0.445488
-0.440152
-0.434749
-0.429202
-0.423448
-0.417446
-0.411183
-0.404674
-0.397958
-0.39109
-0.384131
-0.377145
-0.37019
-0.363317
-0.356566
-0.349969
-0.343547
-0.337314
-0.33126
-0.325426
-0.482737
-0.476044
-0.470117
-0.464427
-0.458676
-0.452901
-0.447056
-0.44105
-0.434799
-0.428246
-0.42137
-0.414185
-0.406738
-0.399095
-0.391334
-0.383534
-0.375769
-0.368101
-0.360582
-0.353248
-0.346126
-0.339231
-0.332571
-0.32613
-0.319942
-0.492798
-0.485483
-0.479111
-0.47303
-0.466853
-0.460583
-0.454144
-0.447429
-0.440358
-0.432891
-0.42504
-0.416852
-0.408408
-0.399803
-0.391136
-0.3825
-0.373973
-0.365619
-0.357485
-0.349601
-0.341986
-0.334648
-0.327588
-0.320782
-0.314259
-0.503162
-0.49523
-0.488416
-0.48193
-0.475286
-0.468448
-0.461317
-0.453779
-0.445768
-0.437278
-0.428357
-0.419098
-0.409615
-0.40003
-0.39046
-0.381004
-0.371743
-0.362734
-0.354019
-0.345618
-0.337542
-0.329791
-0.322357
-0.315207
-0.308371
-0.513741
-0.505204
-0.497954
-0.491044
-0.483882
-0.476393
-0.468461
-0.459979
-0.45091
-0.441293
-0.431226
-0.420843
-0.410296
-0.39973
-0.389271
-0.379022
-0.369059
-0.359433
-0.350172
-0.341289
-0.332784
-0.324649
-0.316866
-0.309396
-0.30227
-0.524432
-0.51531
-0.507629
-0.500271
-0.492529
-0.484295
-0.475446
-0.465897
-0.455659
-0.444825
-0.433549
-0.422011
-0.410394
-0.398858
-0.387537
-0.37653
-0.365903
-0.355697
-0.345928
-0.336598
-0.327696
-0.319206
-0.311103
-0.303334
-0.295946
-0.535113
-0.525433
-0.517327
-0.509488
-0.501096
-0.492013
-0.482127
-0.471394
-0.459885
-0.447761
-0.435235
-0.422528
-0.40985
-0.397372
-0.385225
-0.3735
-0.362252
-0.351507
-0.341269
-0.331526
-0.32226
-0.313445
-0.305049
-0.297007
-0.289384
-0.545645
-0.535443
-0.526916
-0.518558
-0.509435
-0.499394
-0.488352
-0.476325
-0.463461
-0.449994
-0.436195
-0.422326
-0.408612
-0.39523
-0.382302
-0.369906
-0.358081
-0.346839
-0.33617
-0.326052
-0.316454
-0.307345
-0.298684
-0.290395
-0.282567
-0.555874
-0.545191
-0.536246
-0.527323
-0.517383
-0.506273
-0.493961
-0.480545
-0.46626
-0.451419
-0.436348
-0.42134
-0.40663
-0.392391
-0.378733
-0.365716
-0.353362
-0.341667
-0.330607
-0.320149
-0.310254
-0.300882
-0.291986
-0.283476
-0.275474
-0.565633
-0.554517
-0.545154
-0.535614
-0.524765
-0.512477
-0.498793
-0.48391
-0.468161
-0.451938
-0.435616
-0.419509
-0.403855
-0.388816
-0.374483
-0.360898
-0.348065
-0.335962
-0.324552
-0.313792
-0.303633
-0.294032
-0.28493
-0.276228
-0.268085
-0.574742
-0.563246
-0.553463
-0.543249
-0.5314
-0.517832
-0.502689
-0.486283
-0.469052
-0.451461
-0.433926
-0.416775
-0.40024
-0.384464
-0.369517
-0.355421
-0.342158
-0.329693
-0.317976
-0.306952
-0.296567
-0.28677
-0.277493
-0.268627
-0.260377
-0.583016
-0.571194
-0.560986
-0.550039
-0.5371
-0.522162
-0.505492
-0.487532
-0.468824
-0.449902
-0.431212
-0.413086
-0.39574
-0.379295
-0.363799
-0.349249
-0.335611
-0.322832
-0.310851
-0.299603
-0.289027
-0.279069
-0.26965
-0.260651
-0.252327
-0.590259
-0.57817
-0.567531
-0.55579
-0.541679
-0.525296
-0.507055
-0.487535
-0.467381
-0.447185
-0.427414
-0.408391
-0.390312
-0.373273
-0.357294
-0.342351
-0.328391
-0.315347
-0.303146
-0.291716
-0.280989
-0.270905
-0.261377
-0.252277
-0.243914
-0.596274
-0.58398
-0.5729
-0.560307
-0.544953
-0.527072
-0.50724
-0.486181
-0.464635
-0.443242
-0.422475
-0.402643
-0.383916
-0.366359
-0.349968
-0.334694
-0.320469
-0.30721
-0.294837
-0.283267
-0.272428
-0.262255
-0.252653
-0.243485
-0.235119
-0.600866
-0.588427
-0.576898
-0.563401
-0.546748
-0.527336
-0.505921
-0.48337
-0.460509
-0.438011
-0.416347
-0.395802
-0.376515
-0.358521
-0.341788
-0.326248
-0.311815
-0.298395
-0.285896
-0.274231
-0.263322
-0.253099
-0.243458
-0.234255
-0.225922
-0.603844
-0.591322
-0.579336
-0.564891
-0.546899
-0.525949
-0.502987
-0.479014
-0.454934
-0.431438
-0.408984
-0.387828
-0.368074
-0.349726
-0.332726
-0.316986
-0.302404
-0.288876
-0.276302
-0.264587
-0.25365
-0.243419
-0.233775
-0.224572
-0.216309
-0.605025
-0.59248
-0.580032
-0.564605
-0.545256
-0.522788
-0.498339
-0.47304
-0.447853
-0.423478
-0.40035
-0.378689
-0.358564
-0.339946
-0.322755
-0.306883
-0.292214
-0.278634
-0.266035
-0.254319
-0.243398
-0.233198
-0.223589
-0.214423
-0.206267
-0.604237
-0.591728
-0.578817
-0.562388
-0.541686
-0.517746
-0.491896
-0.465385
-0.43922
-0.414095
-0.390414
-0.368358
-0.347959
-0.32916
-0.311854
-0.295919
-0.281225
-0.26765
-0.25508
-0.24341
-0.232552
-0.222425
-0.212891
-0.203799
-0.195788
-0.601322
-0.588907
-0.575537
-0.558102
-0.536075
-0.510733
-0.483592
-0.456002
-0.428999
-0.40326
-0.379151
-0.356813
-0.33624
-0.317346
-0.300005
-0.284077
-0.269423
-0.255912
-0.243425
-0.231852
-0.221102
-0.211093
-0.201674
-0.192694
-0.184865
-0.596141
-0.583877
-0.570058
-0.551629
-0.528328
-0.501681
-0.473378
-0.444857
-0.417165
-0.390953
-0.366545
-0.344038
-0.323392
-0.304493
-0.287196
-0.271347
-0.256798
-0.243411
-0.231061
-0.219637
-0.209045
-0.199197
-0.189934
-0.181107
-0.173499
-0.588574
-0.576514
-0.562264
-0.542873
-0.518371
-0.490537
-0.461221
-0.431927
-0.403703
-0.377163
-0.352585
-0.330024
-0.309406
-0.290592
-0.273419
-0.257721
-0.243343
-0.230142
-0.217987
-0.206764
-0.196378
-0.186738
-0.177674
-0.16904
-0.161691
-0.578522
-0.56672
-0.552066
-0.531761
-0.506154
-0.47727
-0.447102
-0.417204
-0.388609
-0.361888
-0.33727
-0.314769
-0.29428
-0.27564
-0.258672
-0.243199
-0.22906
-0.216105
-0.204202
-0.193234
-0.183106
-0.173721
-0.164899
-0.156501
-0.149448
-0.56591
-0.554419
-0.539396
-0.518243
-0.491647
-0.461867
-0.431022
-0.400694
-0.371891
-0.345135
-0.320606
-0.298279
-0.278018
-0.259641
-0.242958
-0.227784
-0.21395
-0.201305
-0.189713
-0.179056
-0.169235
-0.160154
-0.151621
-0.143501
-0.136783
-0.55069
-0.539558
-0.524213
-0.502295
-0.474844
-0.444337
-0.412995
-0.382415
-0.353567
-0.32692
-0.302608
-0.280565
-0.26063
-0.242605
-0.226287
-0.211484
-0.198024
-0.185752
-0.17453
-0.164238
-0.154779
-0.14605
-0.137852
-0.130056
-0.123712
-0.532837
-0.522113
-0.5065
-0.483917
-0.455758
-0.424702
-0.393051
-0.362397
-0.333664
-0.307269
-0.283296
-0.261646
-0.242134
-0.224547
-0.208672
-0.194313
-0.181294
-0.169458
-0.158665
-0.148795
-0.139751
-0.131426
-0.123612
-0.116187
-0.110254
-0.512354
-0.502086
-0.486267
-0.463132
-0.434425
-0.403006
-0.371234
-0.340682
-0.312223
-0.286216
-0.262702
-0.24155
-0.222553
-0.205487
-0.190132
-0.176289
-0.163777
-0.152439
-0.142136
-0.132745
-0.12417
-0.116302
-0.108923
-0.101918
-0.0964338
-0.489268
-0.479502
-0.46355
-0.439986
-0.410901
-0.379309
-0.347604
-0.317326
-0.289292
-0.263806
-0.240864
-0.220309
-0.201917
-0.185452
-0.170691
-0.157431
-0.145492
-0.134715
-0.12496
-0.116106
-0.108056
-0.100699
-0.0938099
-0.0872759
-0.0822791
-0.463634
-0.454416
-0.438408
-0.414549
-0.385261
-0.353687
-0.322233
-0.292397
-0.264933
-0.240091
-0.21783
-0.197966
-0.180261
-0.164474
-0.150376
-0.137766
-0.126461
-0.116305
-0.107158
-0.0988991
-0.0914315
-0.0846423
-0.0783005
-0.0722941
-0.0678247
-0.435531
-0.426903
-0.410925
-0.386912
-0.3576
-0.326232
-0.295208
-0.265972
-0.239215
-0.215135
-0.193654
-0.174568
-0.157628
-0.142588
-0.129219
-0.117319
-0.106708
-0.0972308
-0.0887484
-0.0811419
-0.0743155
-0.0681545
-0.0624234
-0.0570082
-0.0531146
-0.405062
-0.397067
-0.381207
-0.357185
-0.328029
-0.297051
-0.266629
-0.238143
-0.212221
-0.189009
-0.168401
-0.150171
-0.134066
-0.119836
-0.107254
-0.0961192
-0.0862559
-0.0775106
-0.0697475
-0.0628502
-0.0567241
-0.0512543
-0.0462044
-0.0414561
-0.0381961
-0.372353
-0.36503
-0.349381
-0.325499
-0.296674
-0.266265
-0.236607
-0.209011
-0.184041
-0.161797
-0.142143
-0.124841
-0.109632
-0.0962665
-0.0845204
-0.0741975
-0.0651272
-0.0571605
-0.050166
-0.0440311
-0.0386636
-0.033951
-0.0296616
-0.0256685
-0.023097
-0.337551
-0.330938
-0.315594
-0.291999
-0.263678
-0.234008
-0.205266
-0.17869
-0.154779
-0.133591
-0.114964
-0.0986507
-0.0843889
-0.0719319
-0.0610608
-0.0515856
-0.0433427
-0.0361901
-0.0300036
-0.0246766
-0.0201217
-0.0162332
-0.0127905
-0.00964619
-0.00779922
-0.300822
-0.294955
-0.28001
-0.256847
-0.229197
-0.200426
-0.172741
-0.147303
-0.124547
-0.104493
-0.0869565
-0.0716832
-0.05841
-0.0468948
-0.0369254
-0.02832
-0.0209242
-0.0146055
-0.00924993
-0.00476103
-0.00106012
0.00194635
0.00446025
0.00666018
0.00772052
-0.262351
-0.257261
-0.242808
-0.220221
-0.193399
-0.165677
-0.139178
-0.114984
-0.09347
-0.0746174
-0.0582257
-0.0440338
-0.0317801
-0.0212283
-0.0121743
-0.00444618
0.00209977
0.00758306
0.0121029
0.0157401
0.018561
0.0206426
0.0221464
0.0232407
0.0232677
-0.222334
-0.218053
-0.204183
-0.182307
-0.156462
-0.129927
-0.104733
-0.0818781
-0.0616813
-0.0440898
-0.0288877
-0.0158095
-0.00459646
0.00498192
0.0131212
0.0199828
0.0256973
0.0303674
0.0340692
0.0368585
0.0387829
0.0398881
0.0402133
0.0397787
0.0382168
-0.180986
-0.177538
-0.16434
-0.143304
-0.118573
-0.0933511
-0.0695673
-0.0481377
-0.0293248
-0.0130456
0.000929225
0.0128681
0.0230277
0.0316334
0.0388743
0.0449037
0.0498411
0.0537719
0.0567445
0.0587814
0.0599018
0.0600659
0.0589968
0.0563608
0.0526797
-0.138529
-0.135936
-0.123491
-0.103417
-0.0799278
-0.0561322
-0.0338527
-0.0139228
0.00344771
0.0183697
0.031084
0.0418616
0.0509575
0.0585946
0.0649599
0.0702059
0.0744524
0.0777834
0.0802435
0.0818581
0.0826591
0.0825093
0.0806605
0.076381
0.0717788
-0.0951951
-0.0934757
-0.0818604
-0.0628581
-0.0407244
-0.0184561
0.00223644
0.0206014
0.0364785
0.0500034
0.0614266
0.0710202
0.079038
0.0857012
0.0911973
0.0956834
0.0992896
0.102119
0.104253
0.105792
0.106896
0.107512
0.106701
0.10392
0.106601
-0.0512155
-0.0503846
-0.0396701
-0.021841
-0.00116469
0.0194881
0.0385229
0.0552671
0.069607
0.0816999
0.0918034
0.100189
0.107109
0.112781
0.117391
0.121097
0.124034
0.126313
0.128035
0.129332
0.130373
0.131135
0.13109
0.130693
0.135725
-0.00683228
-0.00690075
0.00284984
0.0194166
0.0385476
0.0575107
0.0748288
0.0899067
0.102673
0.113305
0.122063
0.129219
0.135018
0.139676
0.143376
0.146275
0.148508
0.15019
0.15143
0.152359
0.153122
0.153691
0.153692
0.153649
0.158138
0.0377121
0.0367382
0.0454701
0.0606977
0.07821
0.0954228
0.110978
0.124354
0.13552
0.144667
0.152059
0.157963
0.16262
0.166239
0.168998
0.171049
0.172524
0.173537
0.174194
0.174618
0.17494
0.175137
0.174894
0.174634
0.178115
0.0821761
0.080295
0.0879625
0.101787
0.117622
0.133039
0.146797
0.158448
0.167994
0.175641
0.181652
0.186288
0.189785
0.192343
0.194132
0.195299
0.195968
0.196248
0.196236
0.196042
0.195777
0.195408
0.19465
0.193895
0.196415
0.12632
0.123534
0.130101
0.142473
0.156586
0.170176
0.182118
0.192031
0.199949
0.206088
0.210711
0.214072
0.216396
0.217876
0.218674
0.218929
0.218757
0.218256
0.217518
0.216637
0.215707
0.214682
0.2133
0.21195
0.213541
0.169907
0.166225
0.171664
0.182546
0.194911
0.206657
0.216776
0.22495
0.231243
0.235878
0.239114
0.241197
0.242346
0.242741
0.242537
0.241862
0.240825
0.239516
0.238014
0.236405
0.234765
0.23304
0.230993
0.229019
0.229723
0.212707
0.20814
0.212435
0.221806
0.232409
0.24231
0.250613
0.25706
0.261741
0.264884
0.266744
0.26756
0.267538
0.26685
0.265642
0.264033
0.262123
0.259992
0.257713
0.255359
0.252995
0.25056
0.247846
0.245249
0.245102
0.254493
0.249058
0.252203
0.260056
0.2689
0.276969
0.283477
0.288221
0.291314
0.292988
0.293494
0.293059
0.291882
0.290124
0.287921
0.285384
0.282603
0.279653
0.276597
0.2735
0.270415
0.26728
0.263913
0.260709
0.259747
0.295049
0.288766
0.290766
0.297106
0.30421
0.310476
0.315222
0.318298
0.319839
0.320077
0.319258
0.317601
0.315292
0.312485
0.309306
0.305857
0.302221
0.298465
0.294645
0.290818
0.287028
0.283216
0.279221
0.275429
0.273686
0.334164
0.32706
0.327928
0.332777
0.338172
0.342677
0.345707
0.347164
0.347197
0.346043
0.343939
0.341095
0.337688
0.333861
0.329733
0.325398
0.32093
0.31639
0.311828
0.307294
0.302825
0.298362
0.29377
0.289414
0.286923
0.371637
0.363743
0.363504
0.366894
0.370628
0.373427
0.374801
0.374695
0.373278
0.370783
0.367441
0.363455
0.35899
0.354182
0.34914
0.343951
0.338682
0.333388
0.328113
0.322901
0.317782
0.312702
0.307545
0.302652
0.299446
0.407278
0.398628
0.397316
0.399295
0.401428
0.402588
0.402376
0.400777
0.397973
0.394198
0.389676
0.384599
0.379124
0.37338
0.367465
0.36146
0.355428
0.349415
0.343462
0.337607
0.331873
0.32621
0.320522
0.315121
0.311234
0.440906
0.431539
0.429198
0.429825
0.43043
0.430031
0.428313
0.425299
0.421183
0.416196
0.410557
0.404448
0.398018
0.391387
0.384648
0.377873
0.371118
0.364427
0.357835
0.351373
0.345062
0.338855
0.332672
0.326792
0.322261
0.472352
0.462312
0.458993
0.458338
0.4575
0.455634
0.452501
0.448159
0.442812
0.43669
0.430003
0.422927
0.415603
0.408142
0.40063
0.393134
0.385704
0.37838
0.37119
0.364163
0.357314
0.350603
0.343961
0.337635
0.332498
0.501458
0.490792
0.486557
0.484702
0.482516
0.479284
0.474836
0.469261
0.462772
0.455596
0.447939
0.439967
0.431814
0.423584
0.415356
0.407192
0.399138
0.391227
0.383486
0.375938
0.368593
0.361418
0.354356
0.347616
0.341916
0.52808
0.516839
0.511756
0.508791
0.505364
0.500875
0.49522
0.488515
0.48098
0.47284
0.464294
0.455501
0.446589
0.437655
0.428773
0.419998
0.411373
0.402927
0.394682
0.386658
0.378862
0.371265
0.363822
0.356703
0.350486
0.552084
0.540324
0.534468
0.530494
0.52594
0.520314
0.513567
0.505841
0.497361
0.488351
0.479002
0.46947
0.459873
0.450304
0.440831
0.431506
0.422367
0.413438
0.40474
0.396288
0.388087
0.380112
0.372327
0.364865
0.358178
0.573353
0.56113
0.554584
0.549709
0.544152
0.537514
0.529798
0.521166
0.511848
0.502065
0.492006
0.481817
0.471614
0.461482
0.451486
0.441674
0.432079
0.422724
0.413625
0.404794
0.396235
0.387926
0.37984
0.372075
0.364969
0.591782
0.579157
0.572008
0.566347
0.559917
0.5524
0.543842
0.534424
0.524379
0.513928
0.503252
0.492494
0.481765
0.471146
0.460697
0.450463
0.440473
0.430749
0.421303
0.412145
0.403276
0.39468
0.386334
0.378305
0.370834
0.607279
0.594315
0.586657
0.580332
0.573164
0.564906
0.55564
0.54556
0.534903
0.523889
0.512694
0.501459
0.490287
0.479258
0.468429
0.457839
0.447518
0.437484
0.427746
0.418313
0.409185
0.400348
0.391783
0.383532
0.375754
0.619768
0.606531
0.59846
0.591597
0.583833
0.574977
0.565139
0.554525
0.543376
0.531908
0.520295
0.508674
0.497146
0.485787
0.47465
0.463775
0.453187
0.442903
0.432931
0.423277
0.413939
0.404908
0.396169
0.387738
0.37971
0.629189
0.615745
0.607361
0.600092
0.591877
0.582569
0.572299
0.561283
0.549762
0.537951
0.526023
0.514111
0.502315
0.490706
0.479338
0.468248
0.457458
0.446985
0.436837
0.427016
0.41752
0.408344
0.399472
0.390906
0.38269
0.635495
0.621912
0.613319
0.605776
0.59726
0.587649
0.57709
0.565803
0.554033
0.541993
0.529855
0.517748
0.505772
0.493996
0.482474
0.471238
0.460314
0.449716
0.439449
0.429516
0.419915
0.410641
0.401681
0.393024
0.384681
0.638654
0.625003
0.616304
0.608624
0.599956
0.590193
0.579489
0.568068
0.556173
0.544018
0.531774
0.51957
0.507503
0.495644
0.484044
0.472736
0.461745
0.451083
0.440757
0.430768
0.421115
0.411791
0.402788
0.394085
0.385678
0.638653
0.625001
0.616302
0.608622
0.599955
0.590192
0.579488
0.568067
0.556172
0.544017
0.531772
0.519568
0.507502
0.495643
0.484042
0.472735
0.461744
0.451082
0.440756
0.430767
0.421113
0.41179
0.402787
0.394084
0.385677
0.63549
0.621908
0.613314
0.605771
0.597255
0.587645
0.577086
0.565799
0.554029
0.541989
0.529851
0.517744
0.505768
0.493993
0.48247
0.471235
0.460311
0.449712
0.439445
0.429513
0.419912
0.410638
0.401678
0.393021
0.384678
0.629181
0.615737
0.607354
0.600084
0.59187
0.582562
0.572292
0.561276
0.549755
0.537944
0.526017
0.514105
0.502308
0.4907
0.479332
0.468242
0.457452
0.446979
0.436831
0.42701
0.417515
0.408338
0.399467
0.3909
0.382684
0.619757
0.60652
0.598449
0.591587
0.583823
0.574967
0.565129
0.554516
0.543367
0.531898
0.520286
0.508665
0.497138
0.485778
0.474642
0.463767
0.453179
0.442895
0.432923
0.423269
0.413931
0.4049
0.396161
0.38773
0.379703
0.607265
0.594301
0.586643
0.580318
0.573151
0.564893
0.555627
0.545547
0.534891
0.523877
0.512683
0.501447
0.490276
0.479247
0.468418
0.457828
0.447508
0.437473
0.427736
0.418303
0.409175
0.400338
0.391774
0.383522
0.375744
0.591764
0.57914
0.571991
0.566331
0.559901
0.552384
0.543827
0.534409
0.524364
0.513913
0.503237
0.49248
0.481751
0.471132
0.460684
0.450449
0.44046
0.430736
0.42129
0.412132
0.403263
0.394668
0.386322
0.378293
0.370823
0.573333
0.56111
0.554564
0.549689
0.544133
0.537496
0.52978
0.521148
0.51183
0.502048
0.491989
0.481801
0.471597
0.461466
0.45147
0.441658
0.432063
0.422708
0.41361
0.404779
0.39622
0.387912
0.379826
0.372061
0.364955
0.55206
0.5403
0.534444
0.530471
0.525918
0.520293
0.513546
0.505821
0.497341
0.488331
0.478983
0.469451
0.459854
0.450285
0.440813
0.431488
0.422349
0.413421
0.404723
0.396271
0.38807
0.380095
0.37231
0.364849
0.358162
0.528052
0.516812
0.511729
0.508765
0.505339
0.500851
0.495196
0.488492
0.480957
0.472817
0.464271
0.45548
0.446568
0.437634
0.428752
0.419978
0.411353
0.402907
0.394662
0.386638
0.378843
0.371246
0.363803
0.356684
0.350467
0.501428
0.490762
0.486527
0.484672
0.482488
0.479256
0.474809
0.469235
0.462746
0.455571
0.447914
0.439942
0.43179
0.42356
0.415332
0.407169
0.399115
0.391205
0.383464
0.375916
0.368572
0.361397
0.354335
0.347595
0.341896
0.472318
0.462278
0.45896
0.458306
0.457468
0.455604
0.452471
0.44813
0.442783
0.436661
0.429975
0.4229
0.415576
0.408116
0.400604
0.393108
0.385679
0.378355
0.371166
0.364139
0.35729
0.350579
0.343938
0.337612
0.332476
0.440869
0.431502
0.429161
0.429789
0.430395
0.429997
0.42828
0.425267
0.421151
0.416165
0.410526
0.404418
0.397989
0.391358
0.384619
0.377845
0.371091
0.3644
0.357808
0.351347
0.345036
0.338829
0.332646
0.326767
0.322236
0.407237
0.398587
0.397275
0.399256
0.40139
0.402551
0.402339
0.400742
0.397938
0.394164
0.389642
0.384566
0.379092
0.373348
0.367434
0.36143
0.355398
0.349385
0.343433
0.337578
0.331844
0.326182
0.320494
0.315094
0.311207
0.371593
0.363698
0.36346
0.366852
0.370587
0.373386
0.374761
0.374657
0.37324
0.370746
0.367405
0.363419
0.358955
0.354148
0.349107
0.343917
0.338649
0.333355
0.328081
0.32287
0.317752
0.312672
0.307515
0.302623
0.299417
0.334115
0.327012
0.32788
0.33273
0.338127
0.342633
0.345664
0.347122
0.347157
0.346003
0.3439
0.341056
0.33765
0.333824
0.329697
0.325362
0.320895
0.316355
0.311794
0.307261
0.302792
0.298329
0.293737
0.289382
0.286892
0.294997
0.288714
0.290714
0.297056
0.304161
0.310428
0.315175
0.318253
0.319795
0.320034
0.319216
0.31756
0.315251
0.312445
0.309267
0.305819
0.302183
0.298427
0.294608
0.290782
0.286993
0.283181
0.279187
0.275395
0.273653
0.254437
0.249001
0.252147
0.260002
0.268847
0.276918
0.283427
0.288173
0.291267
0.292942
0.293448
0.293015
0.291838
0.290081
0.287879
0.285343
0.282563
0.279613
0.276557
0.273461
0.270377
0.267243
0.263877
0.260672
0.259712
0.212646
0.208079
0.212375
0.221748
0.232353
0.242255
0.25056
0.257008
0.261691
0.264835
0.266696
0.267513
0.267491
0.266805
0.265598
0.263989
0.262079
0.259949
0.257671
0.255318
0.252954
0.25052
0.247806
0.24521
0.245065
0.169842
0.16616
0.1716
0.182484
0.194851
0.206598
0.216719
0.224895
0.231189
0.235825
0.239062
0.241147
0.242296
0.242692
0.242489
0.241815
0.240779
0.23947
0.237969
0.236361
0.234722
0.232998
0.230951
0.228978
0.229683
0.12625
0.123465
0.130033
0.142406
0.156522
0.170113
0.182057
0.191972
0.199892
0.206032
0.210656
0.214018
0.216343
0.217824
0.218624
0.218879
0.218708
0.218209
0.217471
0.216591
0.215662
0.214638
0.213256
0.211906
0.213499
0.0821021
0.0802212
0.0878899
0.101717
0.117553
0.132972
0.146733
0.158386
0.167934
0.175581
0.181594
0.186232
0.18973
0.192288
0.194078
0.195246
0.195917
0.196197
0.196186
0.195993
0.195729
0.195361
0.194603
0.193849
0.19637
0.0376335
0.0366597
0.045393
0.0606227
0.0781374
0.0953526
0.11091
0.124288
0.135456
0.144604
0.151997
0.157903
0.162561
0.166181
0.168941
0.170993
0.172469
0.173483
0.174141
0.174567
0.174889
0.175087
0.174845
0.174586
0.178067
-0.00691576
-0.00698406
0.00276805
0.0193371
0.0384707
0.0574363
0.0747567
0.0898367
0.102605
0.113238
0.121998
0.129155
0.134956