/*--------------------------------*- C++ -*----------------------------------*\
  =========                 |
  \\      /  F ield         | OpenFOAM: The Open Source CFD Toolbox
   \\    /   O peration     | Website:  https://openfoam.org
    \\  /    A nd           | Version:  6.0
     \\/     M anipulation  |
\*---------------------------------------------------------------------------*/
FoamFile
{
    version     2.0;
    format      ascii;
    class       surfaceScalarField;
    location    "5";
    object      phi;
}
// * * * * * * * * * * * * * * * * * * * * * * * * * * * * * * * * * * * * * //

dimensions      [0 3 -1 0 0 0 0];

internalField   nonuniform List<scalar> 
24700
(
-6.78619e-06
6.74636e-06
3.98245e-08
-2.34722e-05
1.66012e-05
8.4808e-08
-4.75443e-05
2.39676e-05
1.04529e-07
-7.71699e-05
2.95194e-05
1.0619e-07
-0.000110986
3.3721e-05
9.54361e-08
-0.000147981
3.69185e-05
7.6568e-08
-0.000187403
3.93693e-05
5.27601e-08
-0.000228695
4.12648e-05
2.62755e-08
-0.00027144
4.27464e-05
-1.32939e-09
-0.000315329
4.39179e-05
-2.90319e-08
-0.000360127
4.48543e-05
-5.6207e-08
-0.000405654
4.56097e-05
-8.25155e-08
-0.000451768
4.62224e-05
-1.07814e-07
-0.000498356
4.672e-05
-1.32089e-07
-0.000545324
4.71227e-05
-1.55416e-07
-0.000592592
4.7446e-05
-1.77924e-07
-0.000640095
4.77029e-05
-1.99768e-07
-0.000687778
4.79043e-05
-2.21116e-07
-0.000735596
4.80605e-05
-2.42131e-07
-0.000783514
4.81812e-05
-2.62956e-07
-0.000831507
4.82762e-05
-2.83716e-07
-0.000879557
4.83543e-05
-3.04506e-07
-0.000927653
4.84212e-05
-3.25413e-07
-0.000975788
4.8482e-05
-3.4654e-07
4.85671e-05
-3.67973e-07
-0.00102399
-6.60627e-06
1.33526e-05
-2.28886e-05
3.28835e-05
-4.64157e-05
4.74947e-05
-7.54057e-05
5.85093e-05
-0.000108526
6.68415e-05
-0.000144781
7.31735e-05
-0.000183427
7.80148e-05
-0.000223906
8.17444e-05
-0.000265803
8.46433e-05
-0.000308803
8.69182e-05
-0.000352668
8.87191e-05
-0.000397212
9.0154e-05
-0.00044229
9.12997e-05
-0.000487781
9.22117e-05
-0.000533589
9.29305e-05
-0.000579631
9.34875e-05
-0.000625836
9.39081e-05
-0.000672146
9.42145e-05
-0.000718513
9.44272e-05
-0.000764897
9.45654e-05
-0.00081127
9.46487e-05
-0.00085761
9.4695e-05
-0.000903905
9.47157e-05
-0.000950144
9.4721e-05
9.47696e-05
-0.000996346
-6.25476e-06
1.96074e-05
-2.17463e-05
4.83751e-05
-4.42036e-05
6.9952e-05
-7.19436e-05
8.62494e-05
-0.000103693
9.85912e-05
-0.000138489
0.00010797
-0.000175603
0.000115128
-0.000214481
0.000120622
-0.000254704
0.000124866
-0.000295951
0.000128165
-0.000337975
0.000130743
-0.000380581
0.000132761
-0.000423615
0.000134333
-0.000466949
0.000135545
-0.000510476
0.000136458
-0.000554106
0.000137118
-0.000597762
0.000137564
-0.000641378
0.000137831
-0.000684899
0.000137948
-0.00072828
0.000137946
-0.000771483
0.000137853
-0.000814485
0.000137697
-0.000857265
0.000137496
-0.000899809
0.000137265
0.000137088
-0.000942127
-5.74793e-06
2.53553e-05
-2.00942e-05
6.27214e-05
-4.09966e-05
9.08543e-05
-6.69143e-05
0.000112167
-9.66607e-05
0.000128338
-0.000129321
0.000140629
-0.000164188
0.000149995
-0.000200716
0.000157151
-0.000238483
0.000162633
-0.000277158
0.000166841
-0.000316484
0.000170069
-0.000356253
0.000172529
-0.000396297
0.000174378
-0.000436477
0.000175725
-0.000476675
0.000176656
-0.000516791
0.000177233
-0.000556737
0.00017751
-0.000596438
0.000177532
-0.000635829
0.00017734
-0.000674858
0.000176974
-0.000713479
0.000176474
-0.000751661
0.000175878
-0.000789377
0.000175212
-0.00082661
0.000174497
0.000173837
-0.000863359
-5.10904e-06
3.04644e-05
-1.80026e-05
7.5615e-05
-3.69226e-05
0.000109774
-6.05072e-05
0.000135752
-8.76794e-05
0.00015551
-0.000117587
0.000170537
-0.000149554
0.000181963
-0.000183047
0.000190643
-0.00021764
0.000197226
-0.000252994
0.000202195
-0.000288838
0.000205912
-0.000324948
0.00020864
-0.000361144
0.000210573
-0.00039727
0.000211852
-0.000433196
0.000212582
-0.000468809
0.000212846
-0.000504011
0.000212711
-0.000538714
0.000212235
-0.000572846
0.000211471
-0.000606343
0.000210471
-0.000639154
0.000209285
-0.000671238
0.000207963
-0.000702568
0.000206542
-0.000733119
0.000205049
0.000203605
-0.000762887
-4.36693e-06
3.48313e-05
-1.55592e-05
8.68072e-05
-3.2143e-05
0.000126358
-5.29624e-05
0.000156571
-7.70698e-05
0.000179617
-0.000103689
0.000197156
-0.000132184
0.000210458
-0.000162036
0.000220495
-0.00019282
0.00022801
-0.00022419
0.000233566
-0.00025586
0.000237582
-0.000287593
0.000240373
-0.00031919
0.00024217
-0.000350482
0.000243144
-0.000381324
0.000243424
-0.000411589
0.000243111
-0.000441167
0.000242289
-0.000469961
0.000241029
-0.000497888
0.000239398
-0.000524876
0.000237459
-0.000550868
0.000235276
-0.000575818
0.000232914
-0.000599697
0.000230421
-0.000622483
0.000227835
0.000225291
-0.000644169
-3.55435e-06
3.83856e-05
-1.28653e-05
9.61181e-05
-2.6845e-05
0.000140338
-4.45613e-05
0.000174287
-6.52096e-05
0.000200266
-8.81004e-05
0.000220047
-0.000112646
0.000235004
-0.00013835
0.000246199
-0.000164792
0.000254453
-0.000191621
0.000260394
-0.000218538
0.000264499
-0.000245292
0.000267127
-0.000271669
0.000268547
-0.000297485
0.000268959
-0.00032258
0.000268519
-0.000346814
0.000267346
-0.000370066
0.000265541
-0.000392228
0.000263192
-0.00041321
0.00026038
-0.000432933
0.000257182
-0.000451335
0.000253679
-0.000468371
0.000249949
-0.000484012
0.000246062
-0.000498245
0.000242068
0.000238116
-0.000511071
-2.70618e-06
4.10918e-05
-1.00298e-05
0.000103442
-2.12332e-05
0.000151541
-3.5614e-05
0.000188668
-5.25189e-05
0.000217171
-7.13532e-05
0.000238881
-9.15854e-05
0.000255236
-0.000112747
0.00026736
-0.000134429
0.000276135
-0.000156278
0.000282243
-0.000177988
0.000286209
-0.000199296
0.000288435
-0.000219974
0.000289225
-0.000239824
0.000288809
-0.000258673
0.000287368
-0.000276369
0.000285042
-0.000292781
0.000281952
-0.000307791
0.000278202
-0.000321302
0.00027389
-0.000333231
0.000269111
-0.000343514
0.000263962
-0.000352108
0.000258544
-0.000358995
0.000252949
-0.000364176
0.000247248
0.00024161
-0.000367669
-1.85751e-06
4.29493e-05
-7.16468e-06
0.000108749
-1.55199e-05
0.000159896
-2.64463e-05
0.000199595
-3.94431e-05
0.000230167
-5.40152e-05
0.000253453
-6.9693e-05
0.000270914
-8.60436e-05
0.000283711
-0.000102675
0.000292767
-0.000119239
0.000298806
-0.000135426
0.000302396
-0.000150965
0.000303974
-0.000165618
0.000303877
-0.000179174
0.000302366
-0.000191451
0.000299644
-0.000202286
0.000295877
-0.000211536
0.000291202
-0.000219079
0.000285745
-0.000224808
0.000279619
-0.000228639
0.000272942
-0.000230507
0.000265831
-0.000230377
0.000258414
-0.000228242
0.000250814
-0.000224128
0.000243135
0.000235572
-0.00021809
-1.04185e-06
4.39912e-05
-4.3787e-06
0.000112086
-9.91518e-06
0.000165433
-1.73849e-05
0.000207064
-2.64341e-05
0.000239216
-3.66681e-05
0.000263687
-4.76838e-05
0.000281929
-5.909e-05
0.000295117
-7.05189e-05
0.000304196
-8.16327e-05
0.00030992
-9.21257e-05
0.000312889
-0.000101724
0.000313573
-0.000110183
0.000312337
-0.000117286
0.000309469
-0.000122841
0.000305199
-0.000126675
0.000299711
-0.000128639
0.000293166
-0.0001286
0.000285706
-0.000126447
0.000277467
-0.000122091
0.000268586
-0.000115469
0.000259208
-0.00010655
0.000249494
-9.53459e-05
0.00023961
-8.1917e-05
0.000229706
0.000220023
-6.63681e-05
-2.89529e-07
4.42807e-05
-1.7727e-06
0.000113569
-4.6171e-06
0.000168277
-8.74246e-06
0.00021119
-1.393e-05
0.000244404
-1.98824e-05
0.000269639
-2.62647e-05
0.000288312
-3.27324e-05
0.000301585
-3.89481e-05
0.000310411
-4.45926e-05
0.000315565
-4.937e-05
0.000317667
-5.301e-05
0.000317213
-5.52681e-05
0.000314595
-5.59237e-05
0.000310125
-5.47788e-05
0.000304054
-5.16555e-05
0.000296588
-4.6395e-05
0.000287906
-3.88571e-05
0.000278168
-2.89217e-05
0.000267531
-1.64926e-05
0.000256157
-1.50326e-06
0.000244219
1.60727e-05
0.000231919
3.6206e-05
0.000219477
5.87964e-05
0.000207116
0.000195152
8.36675e-05
3.73651e-07
4.39071e-05
5.65207e-07
0.000113377
1.97691e-07
0.000168645
-8.02671e-07
0.00021219
-2.33469e-06
0.000245936
-4.19044e-06
0.000271495
-6.10248e-06
0.000290224
-7.77597e-06
0.000303258
-8.90973e-06
0.000311545
-9.20967e-06
0.000315865
-8.39681e-06
0.000316854
-6.21143e-06
0.000315027
-2.41454e-06
0.000310798
3.21252e-06
0.000304498
1.08694e-05
0.000296397
2.07385e-05
0.000286719
3.2986e-05
0.000275658
4.77622e-05
0.000263392
6.51993e-05
0.000250094
8.54067e-05
0.000235949
0.000108462
0.000221163
0.000134396
0.000205984
0.00016317
0.000190703
0.000194639
0.000175647
0.000161256
0.000228534
9.27421e-07
4.29796e-05
2.56347e-06
0.000111741
4.38218e-06
0.000166826
6.19332e-06
0.000210379
8.00281e-06
0.000244126
9.94057e-06
0.000269557
1.22107e-05
0.000287954
1.50573e-05
0.000300412
1.87415e-05
0.000307861
2.35264e-05
0.00031108
2.96677e-05
0.000310713
3.74079e-05
0.000307287
4.69742e-05
0.000301232
5.85783e-05
0.000292894
7.24172e-05
0.000282558
8.86751e-05
0.000270461
0.000107525
0.000256808
0.000129129
0.000241788
0.000153637
0.000225587
0.000181179
0.000208407
0.000211857
0.000190485
0.000245721
0.00017212
0.000282734
0.000153691
0.000322716
0.000135665
0.000118686
0.000365286
1.35771e-06
4.16219e-05
4.17005e-06
0.000108929
7.82588e-06
0.00016317
1.20594e-05
0.000206145
1.6807e-05
0.000239379
2.21353e-05
0.000264229
2.8192e-05
0.000281897
3.51723e-05
0.000293431
4.32954e-05
0.000299738
5.27898e-05
0.000301585
6.38824e-05
0.00029962
7.67932e-05
0.000294376
9.17323e-05
0.000286292
0.000108899
0.000275727
0.000128484
0.000262973
0.000150671
0.000248274
0.000175638
0.000231841
0.000203561
0.000213864
0.000234612
0.000194536
0.000268952
0.000174067
0.00030672
0.000152717
0.000348005
0.000130835
0.000392796
0.000108901
0.000440892
8.75683e-05
6.77927e-05
0.000491785
1.65701e-06
3.99649e-05
5.35456e-06
0.000105231
1.04603e-05
0.000158065
1.66748e-05
0.000199931
2.38927e-05
0.000232161
3.21343e-05
0.000255987
4.15011e-05
0.00027253
5.21437e-05
0.000282789
6.42408e-05
0.000287641
7.79844e-05
0.000287842
9.35704e-05
0.000284034
0.000111193
0.000276754
0.000131041
0.000266445
0.000153298
0.00025347
0.000178145
0.000238126
0.000205763
0.000220657
0.000236334
0.00020127
0.000270047
0.000180151
0.0003071
0.000157483
0.000347692
0.000133475
0.000392013
0.000108397
0.000440209
8.26392e-05
0.00049232
5.67886e-05
0.000548155
3.17338e-05
8.87553e-06
0.000607072
1.82453e-06
3.81404e-05
6.10945e-06
0.000100947
1.22623e-05
0.000151912
1.99916e-05
0.000192202
2.91779e-05
0.000222975
3.98147e-05
0.000245351
5.19693e-05
0.000260376
6.57554e-05
0.000269003
8.13153e-05
0.000272081
9.88072e-05
0.00027035
0.000118396
0.000264445
0.000140251
0.0002549
0.000164538
0.000242158
0.000191425
0.000226583
0.000221081
0.000208469
0.000253683
0.000188055
0.000289415
0.000165538
0.00032848
0.000141086
0.000371097
0.000114866
0.000417505
8.70663e-05
0.000467951
5.79519e-05
0.000522651
2.79387e-05
0.000581722
-2.28237e-06
0.000645007
-3.1551e-05
-5.78625e-05
0.000711745
1.86614e-06
3.62742e-05
6.4504e-06
9.63623e-05
1.32566e-05
0.000145105
2.20394e-05
0.000183419
3.26933e-05
0.000212321
4.52048e-05
0.000232839
5.96215e-05
0.000245959
7.60312e-05
0.000252593
9.45479e-05
0.000253564
0.000115302
0.000249596
0.000138434
0.000241313
0.000164089
0.000229245
0.000192416
0.00021383
0.00022357
0.000195429
0.000257711
0.000174328
0.000295009
0.000150757
0.000335652
0.000124896
0.000379847
9.68912e-05
0.000427832
6.68807e-05
0.000479875
3.50234e-05
0.000536267
1.55916e-06
0.000597296
-3.30902e-05
0.000663159
-6.81453e-05
0.000733762
-0.000102154
-0.000132351
0.00080825
1.79415e-06
3.44801e-05
6.416e-06
9.17405e-05
1.3515e-05
0.000138006
2.29266e-05
0.000174007
3.45854e-05
0.000200662
4.84914e-05
0.000218933
6.46891e-05
0.000229761
8.32542e-05
0.000234028
0.000104285
0.000232533
0.000127894
0.000225986
0.000154208
0.000215
0.000183358
0.000200094
0.000215485
0.000181703
0.000250736
0.000160177
0.000289268
0.000135797
0.000331247
0.000108777
0.00037686
7.92826e-05
0.000426314
4.74371e-05
0.000479847
1.33476e-05
0.000537733
-2.28621e-05
0.00060028
-6.09878e-05
0.000667811
-0.000100621
0.000740587
-0.000140921
0.000818585
-0.000180152
-0.000214662
0.000900896
1.62695e-06
3.28531e-05
6.06637e-06
8.7301e-05
1.31544e-05
0.000130918
2.28372e-05
0.000164324
3.51137e-05
0.000188386
5.00176e-05
0.000204029
6.76088e-05
0.00021217
8.7968e-05
0.000213669
0.000111193
0.000209308
0.000137396
0.000199783
0.000166702
0.000185694
0.000199246
0.000167551
0.00023517
0.000145778
0.000274627
0.00012072
0.000317777
9.26473e-05
0.000364787
6.17669e-05
0.000415838
2.82316e-05
0.000471124
-7.84807e-06
0.000530856
-4.63846e-05
0.000595275
-8.7281e-05
0.000664652
-0.000130365
0.000739284
-0.000175254
0.000819435
-0.000221072
0.000905129
-0.000265846
-0.00030499
0.000995456
1.38832e-06
3.14648e-05
5.48074e-06
8.32086e-05
1.23319e-05
0.000124067
2.20232e-05
0.000154633
3.46394e-05
0.000175769
5.02686e-05
0.0001884
6.90057e-05
0.000193433
9.09557e-05
0.000191719
0.000116236
0.000184028
0.000144976
0.000171042
0.00017732
0.00015335
0.000213421
0.00013145
0.000253441
0.000105758
0.00029755
7.66113e-05
0.000345919
4.42784e-05
0.000398718
8.96724e-06
0.000456115
-2.91652e-05
0.000518269
-7.00019e-05
0.000585333
-0.000113449
0.00065746
-0.000159407
0.000734808
-0.000207713
0.000817553
-0.000257999
0.000905864
-0.000309382
0.000999746
-0.000359728
-0.000403579
0.00109834
1.10641e-06
3.03584e-05
4.75365e-06
7.95614e-05
1.12365e-05
0.000117584
2.07908e-05
0.000145079
3.36063e-05
0.000162954
4.98451e-05
0.000172161
6.96575e-05
0.00017362
9.31937e-05
0.000168182
0.000120612
0.00015661
0.00015208
0.000139574
0.00018778
0.00011765
0.000227902
9.13284e-05
0.000272642
6.10178e-05
0.000322197
2.70565e-05
0.000376754
-1.02782e-05
0.000436481
-5.07602e-05
0.000501519
-9.42034e-05
0.000571969
-0.000140451
0.000647882
-0.000189362
0.000729262
-0.000240787
0.00081607
-0.000294522
0.000908249
-0.000350178
0.00100574
-0.000406871
0.00110841
-0.000462395
-0.000510607
0.00121543
8.12287e-07
2.95461e-05
3.98951e-06
7.63841e-05
1.00781e-05
0.000111496
1.94821e-05
0.000135675
3.25123e-05
0.000149924
4.94231e-05
0.00015525
7.04403e-05
0.000152603
9.57805e-05
0.000142842
0.000125662
0.000126728
0.000160313
0.000104923
0.000199968
7.79953e-05
0.000244868
4.64285e-05
0.000295251
1.06342e-05
0.000351344
-2.90361e-05
0.000413344
-7.22783e-05
0.000481406
-0.000118823
0.000555623
-0.00016842
0.000636005
-0.000220833
0.000722461
-0.000275818
0.000814788
-0.000333114
0.000912673
-0.000392407
0.00101572
-0.000453223
0.00112349
-0.000514641
0.00123552
-0.000574431
-0.000626032
0.00135095
5.37893e-07
2.90082e-05
3.29583e-06
7.36262e-05
9.07328e-06
0.000105718
1.84506e-05
0.000126297
3.18728e-05
0.000136501
4.97027e-05
0.00013742
7.22597e-05
0.000130046
9.98443e-05
0.000115258
0.000132753
9.38193e-05
0.000171286
6.63911e-05
0.000215741
3.35399e-05
0.000266414
-4.24455e-06
0.000323582
-4.65337e-05
0.00038749
-9.29434e-05
0.000458328
-0.000143117
0.000536216
-0.00019671
0.000621167
-0.000253372
0.000713071
-0.000312737
0.000811658
-0.000374405
0.000916479
-0.000437935
0.00102689
-0.000502818
0.00114208
-0.000568411
0.00126112
-0.000633683
0.00138302
-0.000696334
-0.000749716
0.00150671
3.13752e-07
2.86945e-05
2.77541e-06
7.11646e-05
8.4295e-06
0.000100064
1.80355e-05
0.000116691
3.21814e-05
0.000122356
5.13515e-05
0.00011825
7.59722e-05
0.000105426
0.000106441
8.47889e-05
0.000143142
5.71186e-05
0.000186449
2.30838e-05
0.000236724
-1.67352e-05
0.000294304
-6.18245e-05
0.000359486
-0.000111715
0.000432506
-0.000165963
0.000513517
-0.000224129
0.000602566
-0.000285759
0.000699563
-0.000350368
0.000804252
-0.000417427
0.000916187
-0.000486339
0.00103468
-0.00055643
0.00115878
-0.000626914
0.00128721
-0.000696847
0.00141845
-0.000764918
0.00155074
-0.000828629
-0.000881868
0.0016829
1.66546e-07
2.85279e-05
2.51849e-06
6.88126e-05
8.32916e-06
9.42536e-05
1.85344e-05
0.000106486
3.38699e-05
0.00010702
5.49485e-05
9.71718e-05
8.23108e-05
7.80633e-05
0.000116455
5.06444e-05
0.000157851
1.57227e-05
0.000206939
-2.60042e-05
0.000264123
-7.39187e-05
0.000329752
-0.000127454
0.000404104
-0.000186068
0.000487362
-0.000249221
0.000579589
-0.000316356
0.000680714
-0.000386883
0.000790509
-0.000460163
0.000908581
-0.000535498
0.00103436
-0.000612117
0.00116708
-0.000689153
0.00130578
-0.000765608
0.00144917
-0.000840247
0.00159543
-0.000911173
0.0017409
-0.000974101
-0.00101776
0.00187679
1.16487e-07
2.84114e-05
2.59521e-06
6.63339e-05
8.91528e-06
8.79335e-05
2.0181e-05
9.52203e-05
3.72745e-05
8.99266e-05
6.09375e-05
7.35087e-05
9.18235e-05
4.71773e-05
0.000130525
1.19433e-05
0.00017758
-3.13325e-05
0.00023347
-8.18944e-05
0.000298603
-0.000139052
0.000373293
-0.000202144
0.000457737
-0.000270512
0.000551995
-0.000343479
0.000655969
-0.00042033
0.000769396
-0.000500311
0.000891849
-0.000582616
0.00102275
-0.000666399
0.00116141
-0.000750777
0.0013071
-0.000834842
0.00145917
-0.000917682
0.0016173
-0.000998376
0.00178202
-0.00107589
0.00195667
-0.00114875
-0.00121177
0.00215067
1.77813e-07
2.82336e-05
3.05429e-06
6.34574e-05
1.02865e-05
8.07014e-05
2.31341e-05
8.23727e-05
4.26178e-05
7.04429e-05
6.96011e-05
4.65254e-05
0.000104838
1.19404e-05
0.000148994
-3.22129e-05
0.000202648
-8.49865e-05
0.000266278
-0.000145525
0.000340241
-0.000213015
0.000424748
-0.00028665
0.000519837
-0.000365602
0.000625361
-0.000449003
0.000740971
-0.00053594
0.000866117
-0.000625457
0.00100007
-0.000716568
0.00114194
-0.000808272
0.00129075
-0.000899583
0.00144547
-0.000989562
0.00160514
-0.00107736
0.001769
-0.00116224
0.00193673
-0.00124362
0.00210875
-0.00132077
-0.00138827
0.00228525
3.55574e-07
2.78781e-05
3.91696e-06
5.9896e-05
1.24884e-05
7.21299e-05
2.74671e-05
6.7394e-05
4.99978e-05
4.79122e-05
8.10489e-05
1.54743e-05
0.000121452
-2.84625e-05
0.000171912
-8.26735e-05
0.000233003
-0.000146077
0.000305142
-0.000217663
0.000388564
-0.000296437
0.000483297
-0.000381383
0.000589137
-0.000471442
0.00070564
-0.000565505
0.000832118
-0.000662418
0.000967658
-0.000760997
0.00111115
-0.00086006
0.00126134
-0.000958456
0.00141685
-0.0010551
0.00157632
-0.00114902
0.00173836
-0.0012394
0.00190169
-0.00132558
0.00206518
-0.0014071
0.00222779
-0.00148338
-0.00154937
0.00238889
6.48266e-07
2.72298e-05
5.18217e-06
5.53621e-05
1.55214e-05
6.17907e-05
3.31782e-05
4.97372e-05
5.94002e-05
2.16902e-05
9.52342e-05
-2.03598e-05
0.000141554
-7.47823e-05
0.00019906
-0.000140179
0.000268259
-0.000215276
0.000349438
-0.000298842
0.000442631
-0.00038963
0.000547598
-0.00048635
0.000663807
-0.000587652
0.000790439
-0.000692138
0.000926405
-0.000798384
0.00107038
-0.000904972
0.00122086
-0.00101054
0.0013762
-0.0011138
0.00153471
-0.00121362
0.00169471
-0.00130902
0.00185456
-0.00139925
0.00201273
-0.00148375
0.0021678
-0.00156216
0.00231849
-0.00163408
-0.00169542
0.00246455
1.04891e-06
2.61809e-05
6.8305e-06
4.95805e-05
1.93485e-05
4.92727e-05
4.02038e-05
2.88818e-05
7.07183e-05
-8.82424e-06
0.000111982
-6.16235e-05
0.000164865
-0.000127665
0.000230003
-0.000205317
0.000307769
-0.000293042
0.000398236
-0.00038931
0.000501156
-0.000492549
0.000615934
-0.000601128
0.000741639
-0.000713356
0.000877021
-0.000827519
0.00102056
-0.000941918
0.00117051
-0.00105492
0.001325
-0.00116503
0.00148209
-0.00127089
0.00163988
-0.0013714
0.00179652
-0.00146566
0.00195033
-0.00155306
0.00209978
-0.00163321
0.00224357
-0.00170595
0.00238062
-0.00177113
-0.00182578
0.00251098
1.54725e-06
2.46336e-05
8.83061e-06
4.22972e-05
2.39073e-05
3.41961e-05
4.84369e-05
4.35216e-06
8.37801e-05
-4.41674e-05
0.000131025
-0.000108869
0.000190983
-0.000187623
0.000264154
-0.000278489
0.000350697
-0.000379585
0.000450391
-0.000489004
0.000562616
-0.000604774
0.000686354
-0.000724866
0.000820217
-0.00084722
0.000962499
-0.000969802
0.00111125
-0.00109067
0.00126437
-0.00120805
0.00141971
-0.00132036
0.00157515
-0.00142633
0.0017287
-0.00152495
0.00187857
-0.00161554
0.00202322
-0.00169771
0.00216137
-0.00177136
0.00229202
-0.00183661
0.00241452
-0.00189362
-0.00194049
0.00252923
2.13201e-06
2.25016e-05
1.11459e-05
3.32832e-05
2.91226e-05
1.62195e-05
5.77463e-05
-2.42716e-05
9.83744e-05
-8.47955e-05
0.00015204
-0.000162535
0.000219426
-0.000255009
0.000300823
-0.000359886
0.000396088
-0.00047485
0.000504619
-0.000597535
0.000625352
-0.000725506
0.000756788
-0.000856302
0.00089706
-0.000987492
0.00104402
-0.00111676
0.00119535
-0.001242
0.00134867
-0.00136137
0.00150169
-0.00147338
0.00165226
-0.0015769
0.00179851
-0.00167119
0.00193885
-0.00175588
0.00207205
-0.00183091
0.00219721
-0.00189652
0.00231379
-0.00195318
0.00242155
-0.00200138
-0.00204011
0.00252117
2.79275e-06
1.97089e-05
1.37402e-05
2.23357e-05
3.49164e-05
-4.95669e-06
6.79922e-05
-5.73473e-05
0.000114272
-0.000131075
0.000174671
-0.000222934
0.000249669
-0.000330006
0.000339258
-0.000449475
0.00044291
-0.000578502
0.00055956
-0.000714185
0.000687641
-0.000853588
0.000825149
-0.00099381
0.00096975
-0.00113209
0.00111891
-0.00126592
0.00127004
-0.00139313
0.00142062
-0.00151196
0.00156838
-0.00162114
0.00171131
-0.00171983
0.00184779
-0.00180767
0.0019766
-0.00188469
0.00209693
-0.00195123
0.00220833
-0.00200792
0.00231071
-0.00205555
0.00240426
-0.00209494
-0.00212577
0.00248992
3.52107e-06
1.61878e-05
1.6581e-05
9.2758e-06
4.12143e-05
-2.959e-05
7.90348e-05
-9.51678e-05
0.000131237
-0.000183278
0.000198545
-0.000290242
0.000281152
-0.000412613
0.000378665
-0.000546988
0.000490083
-0.00068992
0.000613817
-0.000837919
0.000747764
-0.000987534
0.000889421
-0.00113547
0.00103604
-0.00127871
0.00118481
-0.00141469
0.00133301
-0.00154132
0.00147815
-0.0016571
0.00161811
-0.00176109
0.00175119
-0.00185292
0.00187617
-0.00193265
0.00199227
-0.00200079
0.00209915
-0.0020581
0.0021968
-0.00210558
0.00228555
-0.00214431
0.00236597
-0.00217535
-0.00219894
0.00243914
4.31086e-06
1.1877e-05
1.96406e-05
-6.05395e-06
4.79473e-05
-5.78967e-05
9.07372e-05
-0.000137958
0.000149029
-0.000241569
0.000223277
-0.00036449
0.000313297
-0.000502633
0.000418221
-0.000651913
0.000536507
-0.000808205
0.000665998
-0.00096741
0.000804056
-0.00112559
0.000947734
-0.00127915
0.00109398
-0.00142496
0.00123982
-0.00156053
0.00138257
-0.00168407
0.00151994
-0.00179447
0.00165012
-0.00189128
0.00177184
-0.00197464
0.00188434
-0.00204515
0.00198731
-0.00210377
0.00208087
-0.00215166
0.00216543
-0.00219014
0.00224164
-0.00222051
0.00231031
-0.00224402
-0.00226125
0.00237262
5.15793e-06
6.71903e-06
2.28951e-05
-2.37911e-05
5.50494e-05
-9.0051e-05
0.000102962
-0.00018587
0.000167401
-0.000306008
0.000248462
-0.000445551
0.000345495
-0.000599666
0.000457078
-0.000763496
0.000581073
-0.0009322
0.000714749
-0.00110109
0.000854976
-0.00126582
0.000998457
-0.00142263
0.00114196
-0.00156846
0.00128255
-0.00170112
0.00141771
-0.00181923
0.00154549
-0.00192225
0.00166454
-0.00201032
0.00177406
-0.00208416
0.00187379
-0.00214487
0.00196388
-0.00219386
0.00204483
-0.00223262
0.00211738
-0.00226269
0.0021824
-0.00228554
0.00224086
-0.00230248
-0.00231432
0.00229393
6.05906e-06
6.59971e-07
2.63217e-05
-4.40537e-05
6.2454e-05
-0.000126183
0.000115564
-0.000238981
0.000186089
-0.000376533
0.000273675
-0.000533137
0.000377117
-0.000703108
0.000494378
-0.000880758
0.000622701
-0.00106052
0.00075881
-0.0012372
0.000899171
-0.00140618
0.00104027
-0.00156372
0.00117886
-0.00170706
0.00131218
-0.00183444
0.00143808
-0.00194513
0.00155505
-0.00203922
0.00166224
-0.00211751
0.00175936
-0.00218128
0.00184661
-0.00223213
0.00192455
-0.00227179
0.00199397
-0.00230204
0.00205583
-0.00232455
0.00211113
-0.00234084
0.00216089
-0.00235223
-0.00235964
0.00220621
7.01091e-06
-6.35094e-06
2.98958e-05
-6.69386e-05
7.0088e-05
-0.000166376
0.000128388
-0.000297281
0.00020481
-0.000452955
0.000298463
-0.00062679
0.000407515
-0.000812159
0.000529271
-0.00100251
0.000660371
-0.00119162
0.000797065
-0.00137389
0.000935539
-0.00154465
0.00107222
-0.0017004
0.00120401
-0.00183885
0.0013285
-0.00195893
0.00144398
-0.00206061
0.00154947
-0.00214471
0.00164464
-0.00221268
0.00172968
-0.00226632
0.00180518
-0.00230763
0.00187201
-0.00233862
0.00193117
-0.00236121
0.00198374
-0.00237711
0.00203074
-0.00238784
0.00207318
-0.00239467
-0.00239851
0.00211204
8.00899e-06
-1.43599e-05
3.35884e-05
-9.2518e-05
7.78681e-05
-0.000210655
0.000141257
-0.00036067
0.000223259
-0.000534957
0.000322358
-0.000725889
0.000436039
-0.00092584
0.000560946
-0.00112742
0.000693167
-0.00132384
0.000828592
-0.00150931
0.000963277
-0.00167934
0.00109375
-0.00183088
0.00121725
-0.00196235
0.0013318
-0.00207348
0.00143622
-0.00216503
0.00153008
-0.00223857
0.00161353
-0.00229613
0.00168718
-0.00233997
0.00175193
-0.00237238
0.00180886
-0.00239555
0.00185907
-0.00241142
0.00190367
-0.00242171
0.00194367
-0.00242784
0.00197997
-0.00243098
-0.00243198
0.00201345
9.04688e-06
-2.34068e-05
3.73639e-05
-0.000120835
8.56982e-05
-0.00025899
0.000153979
-0.000428951
0.000241108
-0.000622086
0.000344878
-0.000829658
0.000462059
-0.00104302
0.000588665
-0.00125403
0.000720324
-0.0014555
0.000852708
-0.0016417
0.00098191
-0.00180854
0.00110473
-0.0019537
0.00121884
-0.00207646
0.00132279
-0.00217743
0.00141598
-0.00225822
0.00149848
-0.00232106
0.00157086
-0.00236851
0.00163406
-0.00240317
0.00168919
-0.00242752
0.00173744
-0.00244379
0.00177995
-0.00245393
0.00181779
-0.00245955
0.00185188
-0.00246194
0.00188304
-0.00246214
-0.00246092
0.00191198
1.01159e-05
-3.35227e-05
4.11794e-05
-0.000151898
9.34692e-05
-0.000311279
0.000166344
-0.000501825
0.000258021
-0.000713763
0.000365549
-0.000937186
0.000484991
-0.00116246
0.000611795
-0.00138083
0.000741258
-0.00158497
0.000868992
-0.00176943
0.000991291
-0.00193084
0.00110536
-0.00206777
0.00120941
-0.0021805
0.00130255
-0.00227057
0.0013847
-0.00234038
0.0014564
-0.00239276
0.00151858
-0.00243068
0.00157237
-0.00245696
0.00161903
-0.00247418
0.00165977
-0.00248453
0.0016957
-0.00248986
0.0017278
-0.00249165
0.00175691
-0.00249104
0.0017837
-0.00248893
-0.00248599
0.00180877
1.12049e-05
-4.47275e-05
4.49851e-05
-0.000185679
0.000101061
-0.000367355
0.000178131
-0.000578896
0.000273661
-0.000809293
0.000383928
-0.00104745
0.000504326
-0.00128286
0.000629841
-0.00150635
0.000755589
-0.00171071
0.000877285
-0.00189113
0.000991575
-0.00204513
0.00109617
-0.00217237
0.00118985
-0.00227418
0.0012723
-0.00235302
0.00134392
-0.002412
0.0014056
-0.00245445
0.00145853
-0.00248361
0.00150399
-0.00250243
0.00154326
-0.00251345
0.00157754
-0.0025188
0.00160784
-0.00252016
0.00163505
-0.00251886
0.00165988
-0.00251588
0.00168291
-0.00251196
-0.00250767
0.0017046
1.23006e-05
-5.70281e-05
4.87256e-05
-0.000222104
0.000108345
-0.000426975
0.000189117
-0.000659667
0.000287702
-0.000907878
0.000399614
-0.00115937
0.000519649
-0.0014029
0.000642462
-0.00162916
0.000763147
-0.0018314
0.00087768
-0.00200566
0.000983174
-0.00215062
0.00107791
-0.00226711
0.00116125
-0.00235752
0.0012334
-0.00242516
0.00129515
-0.00247375
0.0013477
-0.00250699
0.00139237
-0.00252828
0.00143051
-0.00254057
0.00146337
-0.00254632
0.00149207
-0.0025475
0.00151754
-0.00254563
0.00154053
-0.00254185
0.00156165
-0.002537
0.00158137
-0.00253168
-0.00252633
0.00160003
1.3388e-05
-7.04161e-05
5.23412e-05
-0.000261057
0.000115192
-0.000489826
0.000199085
-0.00074356
0.00029985
-0.00100864
0.000412275
-0.00127179
0.000530659
-0.00152128
0.000649478
-0.00174798
0.000763961
-0.00194588
0.000870482
-0.00211218
0.0009667
-0.00224684
0.0010515
-0.00235191
0.00112477
-0.0024308
0.00118719
-0.00248758
0.00123987
-0.00252644
0.00128418
-0.0025513
0.00132153
-0.00256563
0.00135327
-0.0025723
0.00138057
-0.00257362
0.00140444
-0.00257137
0.0014257
-0.00256689
0.001445
-0.00256115
0.00146282
-0.00255482
0.00147955
-0.00254841
-0.00254223
0.00149544
1.44507e-05
-8.48669e-05
5.577e-05
-0.000302376
0.000121471
-0.000555527
0.000207832
-0.000829921
0.00030985
-0.00111066
0.000421653
-0.00138359
0.000537176
-0.0016368
0.000650867
-0.00186167
0.000758241
-0.00205326
0.000856168
-0.00221011
0.000942903
-0.00233357
0.00101791
-0.00242691
0.00108159
-0.00249448
0.00113496
-0.00254095
0.00117939
-0.00257086
0.00121634
-0.00258825
0.00124724
-0.00259653
0.00127336
-0.00259842
0.0012958
-0.00259606
0.00131544
-0.00259101
0.00133299
-0.00258444
0.00134897
-0.00257713
0.00136381
-0.00256966
0.00137778
-0.00256238
-0.00255554
0.00139109
1.54717e-05
-0.000100339
5.89506e-05
-0.000345855
0.00012706
-0.000623636
0.000215178
-0.000918039
0.000317496
-0.00121298
0.000427579
-0.00149368
0.000539138
-0.00174836
0.00064675
-0.00196928
0.000746338
-0.00215284
0.000835341
-0.00229911
0.000912615
-0.00241085
0.00097817
-0.00249247
0.00103283
-0.00254913
0.00107789
-0.00258601
0.00111487
-0.00260784
0.00114527
-0.00261865
0.00117047
-0.00262173
0.00119165
-0.00261961
0.0012098
-0.00261421
0.00122568
-0.00260689
0.00123988
-0.00259864
0.00125285
-0.0025901
0.00126491
-0.00258172
0.00127629
-0.00257375
-0.00256638
0.00128712
1.64335e-05
-0.000116772
6.18236e-05
-0.000391245
0.000131848
-0.000693661
0.000220971
-0.00100716
0.000322638
-0.00131465
0.000429968
-0.00160101
0.000536597
-0.00185499
0.000637372
-0.00207005
0.000728718
-0.00224419
0.000808679
-0.00237907
0.000876697
-0.00247886
0.000933262
-0.00254904
0.00097954
-0.00259541
0.00101703
-0.0026235
0.00104732
-0.00263812
0.00107188
-0.00264321
0.00109202
-0.00264187
0.00110882
-0.00263641
0.00112314
-0.00262852
0.00113561
-0.00261937
0.00114675
-0.00260978
0.00115691
-0.00260026
0.00116634
-0.00259115
0.00117522
-0.00258264
-0.00257482
0.00118367
1.73192e-05
-0.000134091
6.43338e-05
-0.00043826
0.000135737
-0.000765064
0.000225096
-0.00109652
0.000325189
-0.00141474
0.000428821
-0.00170464
0.000529704
-0.00195587
0.000623073
-0.00216342
0.000705922
-0.00232704
0.000776903
-0.00245006
0.000835999
-0.00253796
0.000884113
-0.00259715
0.000922669
-0.00263397
0.000953288
-0.00265412
0.000977562
-0.0026624
0.000996914
-0.00266257
0.00101254
-0.0026575
0.0010254
-0.00264927
0.00103622
-0.00263934
0.00104557
-0.00262872
0.00105384
-0.00261805
0.00106133
-0.00260775
0.00106824
-0.00259806
0.0010747
-0.0025891
-0.00258092
0.0010808
1.81125e-05
-0.000152204
6.6432e-05
-0.000486579
0.000138649
-0.000837281
0.000227473
-0.00118535
0.000325116
-0.00151238
0.000424215
-0.00180374
0.000518692
-0.00205035
0.000604264
-0.00224899