/*--------------------------------*- C++ -*----------------------------------*\
  =========                 |
  \\      /  F ield         | OpenFOAM: The Open Source CFD Toolbox
   \\    /   O peration     | Website:  https://openfoam.org
    \\  /    A nd           | Version:  6.0
     \\/     M anipulation  |
\*---------------------------------------------------------------------------*/
FoamFile
{
    version     2.0;
    format      ascii;
    class       volVectorField;
    location    "5";
    object      U;
}
// * * * * * * * * * * * * * * * * * * * * * * * * * * * * * * * * * * * * * //

dimensions      [0 1 -1 0 0 0 0];

internalField   nonuniform List<vector> 
12500
(
(-0.00147979 0.00166351 -7.49684e-22)
(-0.00794018 0.00402845 1.03527e-20)
(-0.0197987 0.00568722 -1.50574e-20)
(-0.0344383 0.00684958 6.93483e-21)
(-0.0505782 0.00765186 4.25268e-22)
(-0.0675296 0.00819124 -8.49544e-22)
(-0.0847894 0.00853985 -1.27122e-20)
(-0.102014 0.00875072 6.98519e-21)
(-0.118981 0.00886253 4.63286e-21)
(-0.13555 0.00890328 4.71707e-21)
(-0.151638 0.00889299 -8.05786e-21)
(-0.167195 0.00884583 4.69577e-21)
(-0.182198 0.00877172 -2.22833e-21)
(-0.196638 0.00867768 3.78658e-21)
(-0.210517 0.00856874 -9.7359e-21)
(-0.223842 0.00844868 1.41493e-20)
(-0.236627 0.00832051 -2.66806e-21)
(-0.248886 0.00818682 -1.00908e-20)
(-0.260636 0.00804994 5.19344e-21)
(-0.2719 0.00791197 -5.00272e-21)
(-0.282722 0.00777468 4.48804e-21)
(-0.293118 0.00764006 5.97614e-21)
(-0.302915 0.00751221 6.4436e-22)
(-0.311944 0.00739511 -1.71856e-20)
(-0.321666 0.00727131 9.33592e-21)
(-0.00164838 0.00498196 1.36746e-20)
(-0.00824902 0.0120658 -3.53724e-20)
(-0.0200506 0.0170341 1.04599e-20)
(-0.0345295 0.0205114 7.02233e-21)
(-0.05045 0.0229053 -5.5737e-21)
(-0.067146 0.0245075 -3.19067e-20)
(-0.0841286 0.0255347 9.46226e-21)
(-0.101062 0.0261467 -1.80688e-20)
(-0.117728 0.0264601 2.16369e-20)
(-0.13399 0.0265594 -2.89125e-20)
(-0.149762 0.0265051 1.5557e-20)
(-0.164996 0.0263401 5.08948e-21)
(-0.179667 0.0260944 -1.27858e-20)
(-0.193766 0.0257891 -5.76318e-21)
(-0.207293 0.0254393 4.16745e-20)
(-0.220258 0.0250564 -3.71202e-20)
(-0.23267 0.0246494 8.82957e-21)
(-0.244547 0.0242257 1.54454e-20)
(-0.255902 0.0237924 -3.63336e-21)
(-0.266759 0.0233557 2.52378e-20)
(-0.277161 0.0229207 4.75596e-21)
(-0.287126 0.0224933 -1.50577e-21)
(-0.29648 0.0220859 -3.22005e-20)
(-0.305045 0.0217107 2.99996e-20)
(-0.314283 0.021315 -5.8584e-20)
(-0.00197689 0.00815752 4.39576e-20)
(-0.00885217 0.0197945 1.4691e-20)
(-0.0205432 0.0279893 -1.92923e-20)
(-0.034708 0.0337468 8.33789e-21)
(-0.050198 0.0377253 7.76259e-21)
(-0.0663916 0.0403983 2.96131e-20)
(-0.082828 0.0421192 -3.76779e-20)
(-0.0991873 0.0431493 -6.17801e-21)
(-0.11526 0.0436805 -2.54165e-20)
(-0.130912 0.0438523 -2.13517e-20)
(-0.14606 0.0437653 2.75761e-20)
(-0.160654 0.0434908 -9.27744e-20)
(-0.17467 0.0430792 -3.05897e-21)
(-0.188095 0.0425661 -5.6373e-20)
(-0.200931 0.0419769 -6.85543e-21)
(-0.213183 0.0413308 7.93954e-21)
(-0.224862 0.0406429 -4.44863e-20)
(-0.235984 0.039926 -2.80321e-20)
(-0.246562 0.0391918 -3.33334e-20)
(-0.256619 0.0384507 5.22521e-20)
(-0.266197 0.0377115 1.94372e-20)
(-0.275318 0.0369838 -8.5756e-20)
(-0.283807 0.0362888 -4.16799e-20)
(-0.291467 0.0356481 -4.70578e-20)
(-0.299758 0.0349733 1.29374e-19)
(-0.00244735 0.0111027 -1.18132e-21)
(-0.00971909 0.0270233 -3.38651e-20)
(-0.0212521 0.0383077 -1.65838e-20)
(-0.0349629 0.0462859 1.01419e-20)
(-0.0498278 0.0518349 6.33739e-20)
(-0.0652891 0.0555897 -2.8653e-20)
(-0.0809268 0.0580271 6.11747e-20)
(-0.0964449 0.059502 5.85414e-20)
(-0.111647 0.0602767 3.57342e-20)
(-0.126403 0.0605437 -6.1942e-22)
(-0.140633 0.0604423 7.26074e-20)
(-0.154288 0.0600722 1.26471e-20)
(-0.167339 0.0595043 5.59558e-20)
(-0.179776 0.0587892 1.29761e-19)
(-0.191596 0.0579634 -1.51074e-19)
(-0.202804 0.057054 2.28407e-19)
(-0.213411 0.0560829 5.05418e-20)
(-0.22343 0.0550684 -1.10732e-19)
(-0.232874 0.054027 -1.60355e-20)
(-0.241766 0.0529736 4.04741e-20)
(-0.250148 0.0519208 -2.06998e-20)
(-0.258044 0.0508822 -1.27064e-20)
(-0.265281 0.049888 -1.23835e-20)
(-0.271634 0.0489718 -4.94183e-20)
(-0.278562 0.0480085 1.76073e-19)
(-0.00303447 0.0137414 2.31569e-20)
(-0.0108064 0.0335821 -1.07513e-19)
(-0.0221425 0.0477671 1.30738e-19)
(-0.0352792 0.0578802 -5.21502e-20)
(-0.0493479 0.0649752 6.25743e-20)
(-0.0638718 0.0698218 5.13326e-20)
(-0.0784827 0.073003 1.95964e-20)
(-0.0929156 0.0749563 1.12258e-21)
(-0.106991 0.0760082 1.10531e-19)
(-0.120588 0.0764002 7.69975e-20)
(-0.133629 0.076309 -3.09605e-20)
(-0.146065 0.0758624 -2.04148e-20)
(-0.157869 0.0751521 8.4517e-20)
(-0.169026 0.074244 1.58418e-20)
(-0.179534 0.0731862 4.38679e-20)
(-0.189396 0.0720148 1.05794e-19)
(-0.19862 0.0707586 -9.15121e-20)
(-0.20722 0.0694419 7.43952e-20)
(-0.21521 0.0680865 -1.61403e-19)
(-0.22261 0.0667121 1.36576e-19)
(-0.229464 0.0653355 1.11509e-21)
(-0.2358 0.0639745 -1.10327e-19)
(-0.241448 0.0626689 4.41297e-20)
(-0.24615 0.0614671 1.01574e-19)
(-0.251356 0.0602078 -1.53448e-19)
(-0.00370743 0.016012 1.20277e-19)
(-0.012061 0.0393292 -1.28029e-19)
(-0.0231715 0.0561766 -2.03809e-20)
(-0.0356383 0.0683103 2.62222e-20)
(-0.04877 0.0769119 -5.63211e-20)
(-0.0621827 0.0828548 -8.79409e-20)
(-0.0755696 0.0868072 -7.36283e-20)
(-0.0887035 0.0892759 -1.78771e-20)
(-0.101426 0.0906434 -1.27209e-19)
(-0.113628 0.0911958 1.0208e-19)
(-0.125238 0.0911449 -1.58852e-19)
(-0.136207 0.0906456 8.06488e-20)
(-0.146508 0.0898106 -2.68879e-20)
(-0.156126 0.0887217 6.28387e-20)
(-0.165057 0.0874392 -1.58807e-19)
(-0.173304 0.0860089 7.77212e-20)
(-0.180874 0.0844672 6.04674e-21)
(-0.187781 0.0828449 3.45652e-20)
(-0.194038 0.0811697 2.11605e-19)
(-0.199665 0.0794668 4.79424e-20)
(-0.204708 0.0777574 -3.62419e-21)
(-0.209201 0.0760639 1.37612e-20)
(-0.212982 0.0744364 9.01423e-20)
(-0.215752 0.0729425 2.59927e-20)
(-0.218944 0.0713853 8.75907e-20)
(-0.00443199 0.0178704 -7.4868e-20)
(-0.0134229 0.0441563 1.06683e-19)
(-0.0242908 0.063383 6.79534e-21)
(-0.0360199 0.0773925 -1.30972e-19)
(-0.0481081 0.0874421 2.76311e-19)
(-0.0602729 0.0944747 -8.94115e-20)
(-0.0722757 0.0992204 1.31024e-19)
(-0.0839328 0.10224 1.2045e-19)
(-0.0951115 0.103963 -9.95172e-20)
(-0.105718 0.104714 -1.46164e-19)
(-0.115686 0.104737 4.00036e-20)
(-0.124973 0.104213 -4.24085e-20)
(-0.133552 0.103274 -1.89586e-19)
(-0.141408 0.10202 2.32027e-19)
(-0.148537 0.100523 -1.12009e-19)
(-0.154941 0.0988394 -7.78696e-20)
(-0.160627 0.097014 7.33184e-22)
(-0.16561 0.0950849 6.44181e-20)
(-0.169902 0.0930863 2.68987e-20)
(-0.173527 0.0910495 -1.04854e-19)
(-0.176529 0.0890013 1.21358e-19)
(-0.178954 0.0869689 -2.1112e-19)
(-0.180648 0.0850137 1.2946e-19)
(-0.18127 0.0832271 -1.00117e-19)
(-0.182229 0.08138 2.50818e-20)
(-0.00517293 0.0192912 1.10492e-19)
(-0.0148299 0.0479928 -8.50474e-20)
(-0.0254499 0.0692767 -5.41031e-20)
(-0.036403 0.0849857 -9.57201e-20)
(-0.0473793 0.0964004 -1.74971e-19)
(-0.0582004 0.104499 -1.29512e-19)
(-0.0687005 0.110049 8.11382e-20)
(-0.0787437 0.113649 -1.23389e-19)
(-0.0882271 0.115765 1.57063e-19)
(-0.0970747 0.116752 -2.56551e-19)
(-0.105232 0.116883 1.14648e-19)
(-0.112661 0.116363 2.43849e-19)
(-0.119338 0.115345 -3.4411e-19)
(-0.12525 0.113944 4.92632e-20)
(-0.130392 0.112245 6.51657e-20)
(-0.134768 0.110316 6.3538e-20)
(-0.138387 0.108211 -6.72534e-20)
(-0.141261 0.105977 -1.60335e-20)
(-0.143408 0.103653 -5.03116e-20)
(-0.144851 0.10128 -4.228e-20)
(-0.145637 0.0988909 -2.35535e-19)
(-0.145823 0.0965179 -1.63754e-20)
(-0.145268 0.0942352 2.7838e-21)
(-0.143592 0.0921638 -1.08045e-19)
(-0.142166 0.0900476 1.13384e-19)
(-0.00589643 0.0202681 3.501e-21)
(-0.0162212 0.0508072 3.4831e-20)
(-0.0265993 0.0737944 3.64768e-20)
(-0.0367684 0.0909947 2.0835e-20)
(-0.0466031 0.103664 1.78647e-19)
(-0.0560278 0.112782 1.68475e-19)
(-0.064951 0.11913 -1.36923e-19)
(-0.0732876 0.123328 -4.20671e-20)
(-0.0809678 0.125864 -3.74136e-20)
(-0.0879373 0.127121 1.93568e-19)
(-0.094155 0.127393 7.04086e-20)
(-0.0995921 0.126907 -1.0166e-19)
(-0.10423 0.125834 -8.73744e-20)
(-0.108059 0.124305 2.10871e-19)
(-0.111076 0.122419 -5.18657e-20)
(-0.113285 0.120255 -6.35888e-20)
(-0.114698 0.117877 -8.97685e-20)
(-0.115329 0.11534 -7.0327e-20)
(-0.115198 0.112693 -9.07754e-20)
(-0.11433 0.109984 -6.00873e-20)
(-0.112777 0.107253 2.49461e-19)
(-0.110605 0.104542 -1.2333e-19)
(-0.107694 0.101938 8.33807e-20)
(-0.103625 0.099599 -2.24145e-19)
(-0.0997196 0.0972495 9.00988e-20)
(-0.00657235 0.0208136 -1.00142e-19)
(-0.0175415 0.0526074 -2.62916e-20)
(-0.0276942 0.0769207 -2.03836e-19)
(-0.0370997 0.0953745 -9.7954e-20)
(-0.0458012 0.109157 -1.93148e-19)
(-0.0538203 0.11922 -2.02819e-20)
(-0.0611378 0.126336 1.03893e-19)
(-0.0677208 0.13113 -6.36275e-20)
(-0.0735357 0.134103 1.375e-19)
(-0.0785528 0.135653 -3.35311e-19)
(-0.0827481 0.136093 -1.03558e-20)
(-0.0861044 0.135667 5.99736e-20)
(-0.0886105 0.134563 -7.6345e-20)
(-0.090262 0.132925 7.06576e-20)
(-0.0910601 0.130868 -5.35654e-20)
(-0.0910114 0.12848 -1.16519e-19)
(-0.0901286 0.125836 2.143e-19)
(-0.0884292 0.122999 1.34304e-19)
(-0.0859354 0.12003 -2.72272e-20)
(-0.082676 0.116984 9.00839e-20)
(-0.0787058 0.113914 -1.77543e-19)
(-0.0741038 0.110869 2.58098e-19)
(-0.0687715 0.107954 -3.53241e-19)
(-0.0622603 0.105371 7.2753e-20)
(-0.055834 0.102838 -1.41773e-19)
(-0.00717611 0.0209566 5.5087e-21)
(-0.0187445 0.0534381 -9.02255e-20)
(-0.0286971 0.0786873 1.32465e-19)
(-0.0373851 0.09813 2.718e-19)
(-0.0449975 0.112854 -4.64582e-21)
(-0.0516425 0.123757 3.0812e-20)
(-0.0573696 0.131583 -1.17092e-19)
(-0.0621977 0.136948 5.44736e-20)
(-0.0661309 0.140353 3.79732e-19)
(-0.0691671 0.142206 -8.61216e-20)
(-0.0713026 0.142831 -1.03112e-19)
(-0.0725344 0.142484 3.89781e-19)
(-0.0728621 0.141367 1.28866e-19)
(-0.0722883 0.139639 6.2033e-20)
(-0.0708195 0.137424 6.34895e-20)
(-0.0684664 0.134822 1.73044e-19)
(-0.065244 0.131918 -6.75294e-20)
(-0.0611726 0.128785 1.7838e-19)
(-0.0562768 0.125492 2.43517e-19)
(-0.0505882 0.122107 -2.09064e-19)
(-0.0441652 0.118694 3.12703e-19)
(-0.0370986 0.115317 1.13362e-19)
(-0.0293166 0.1121 -4.28961e-19)
(-0.0203479 0.109299 6.22802e-19)
(-0.0113935 0.106646 -5.06721e-19)
(-0.00769028 0.0207404 -2.58537e-19)
(-0.019796 0.0533771 1.39802e-19)
(-0.0295811 0.07917 -9.39494e-20)
(-0.0376189 0.0993159 -8.89642e-20)
(-0.0442164 0.114778 -9.64621e-20)
(-0.0495555 0.126383 -1.04684e-19)
(-0.053748 0.134831 2.84109e-20)
(-0.0568623 0.140714 2.73987e-19)
(-0.0589412 0.144525 -5.81819e-20)
(-0.0600123 0.146671 -1.53399e-19)
(-0.0600946 0.147482 -9.42493e-20)
(-0.0592025 0.147224 -3.87452e-20)
(-0.0573484 0.146108 1.15891e-19)
(-0.0545448 0.144301 -7.36865e-20)
(-0.050805 0.141939 -2.43692e-19)
(-0.0461442 0.139132 -2.71427e-19)
(-0.0405808 0.135971 1.08418e-19)
(-0.0341371 0.13254 -2.04083e-19)
(-0.0268396 0.128918 1.79283e-19)
(-0.0187217 0.125185 -5.06459e-19)
(-0.0098437 0.121418 3.92385e-19)
(-0.000307373 0.1177 -5.22199e-19)
(0.00993052 0.114181 -1.08951e-20)
(0.0213531 0.111185 -1.79163e-19)
(0.0328197 0.108477 5.22762e-19)
(-0.00810548 0.0202194 3.97161e-19)
(-0.0206758 0.0525297 5.80954e-20)
(-0.0303309 0.0784833 -3.82557e-20)
(-0.0378016 0.0990326 -1.59881e-20)
(-0.043482 0.115005 2.9872e-19)
(-0.0476131 0.127141 9.74319e-20)
(-0.0503606 0.136089 8.85707e-20)
(-0.0518391 0.142407 -7.10536e-20)
(-0.0521296 0.146571 2.75266e-19)
(-0.0512905 0.148979 -1.3606e-19)
(-0.0493658 0.149962 8.7298e-20)
(-0.0463897 0.149788 2.24479e-19)
(-0.0423899 0.148674 -1.28288e-19)
(-0.0373902 0.146794 1.39513e-19)
(-0.0314125 0.144292 1.3234e-19)
(-0.0244774 0.141283 4.55727e-20)
(-0.0166066 0.137866 -1.14607e-19)
(-0.00782367 0.134133 3.15315e-19)
(0.0018445 0.130171 -2.99062e-20)
(0.0123647 0.126071 -3.60036e-20)
(0.0236769 0.121929 3.85857e-19)
(0.0356714 0.117846 -2.77535e-19)
(0.0483623 0.114008 4.68779e-19)
(0.0622322 0.110823 -3.922e-19)
(0.0761886 0.108123 4.99303e-19)
(-0.00842077 0.0194555 -1.92766e-19)
(-0.0213787 0.0510218 4.24759e-20)
(-0.0309442 0.0767732 -4.44979e-20)
(-0.0379398 0.0974206 -2.08936e-19)
(-0.042816 0.113653 1.21832e-20)
(-0.0458571 0.126124 1.19089e-19)
(-0.0472737 0.135419 -4.84615e-19)
(-0.0472222 0.142059 3.62441e-19)
(-0.0458198 0.146494 -3.53363e-19)
(-0.0431563 0.14911 -2.24032e-19)
(-0.039302 0.150229 2.01223e-19)
(-0.0343124 0.150119 -4.38607e-19)
(-0.0282324 0.148998 3.70474e-19)
(-0.0210988 0.147044 -1.17904e-19)
(-0.0129429 0.144402 -3.40909e-19)
(-0.00379131 0.141193 8.49139e-20)
(0.00633135 0.13752 -7.99109e-20)
(0.0174012 0.133479 3.14263e-20)
(0.0293932 0.129162 -1.08753e-19)
(0.0422772 0.124671 -3.66409e-19)
(0.0559966 0.120118 8.18421e-20)
(0.0704377 0.115629 -6.90557e-22)
(0.0855873 0.111432 -3.8604e-19)
(0.101914 0.10804 2.71012e-19)
(0.118349 0.105396 -2.33306e-19)
(-0.00864343 0.0185145 7.82605e-20)
(-0.0219143 0.0489923 1.43451e-19)
(-0.0314303 0.074209 1.9976e-19)
(-0.0380446 0.0946532 1.02721e-19)
(-0.0422342 0.110885 -1.00637e-19)
(-0.0443122 0.12347 2.40038e-19)
(-0.0445244 0.132935 1.77907e-19)
(-0.0430637 0.139756 -6.46247e-20)
(-0.0400811 0.144355 2.32114e-19)
(-0.0356972 0.147099 -2.38998e-19)
(-0.0300084 0.1483 -7.06269e-20)
(-0.0230925 0.148219 7.15158e-20)
(-0.0150124 0.147071 1.42189e-19)
(-0.00581903 0.145033 1.75932e-21)
(0.00444671 0.142249 9.1269e-20)
(0.0157518 0.138842 1.70499e-19)
(0.0280695 0.134914 -2.91485e-19)
(0.041377 0.130561 3.64245e-19)
(0.0556533 0.125878 1.24476e-19)
(0.0708746 0.120972 4.56319e-20)
(0.0869912 0.11597 -4.50838e-19)
(0.10389 0.111021 6.31701e-20)
(0.121534 0.106405 1.00056e-19)
(0.140366 0.10276 -2.5013e-20)
(0.159299 0.100193 1.14782e-19)
(-0.00878807 0.017462 6.0106e-21)
(-0.0223049 0.0465852 -3.69269e-19)
(-0.0318088 0.0709732 -9.07123e-21)
(-0.0381286 0.0909265 -9.27432e-20)
(-0.0417428 0.106892 -6.08283e-19)
(-0.0429796 0.11936 5.24968e-19)
(-0.0421116 0.128796 -3.73521e-19)
(-0.0393621 0.135636 -1.90789e-20)
(-0.0349127 0.14027 -1.77035e-19)
(-0.0289125 0.143045 3.06614e-19)
(-0.0214835 0.144256 -3.30841e-19)
(-0.0127252 0.144155 -1.55552e-19)
(-0.00271854 0.142951 2.55502e-21)
(0.00847198 0.140815 -3.4023e-19)
(0.0207956 0.137889 4.65439e-19)
(0.0342136 0.13429 -5.43341e-19)
(0.0486977 0.130118 3.7088e-22)
(0.0642273 0.125464 8.34528e-20)
(0.0807874 0.120419 -2.13161e-19)
(0.0983627 0.11509 2.0917e-19)
(0.116914 0.109611 -2.95833e-19)
(0.136333 0.104154 -1.98084e-19)
(0.156559 0.099049 3.71196e-19)
(0.178002 0.0950871 -4.07077e-19)
(0.199503 0.0925974 -7.83405e-21)
(-0.0088752 0.0163606 -3.13728e-19)
(-0.0225831 0.0439415 3.58554e-19)
(-0.0321049 0.067252 -1.10559e-19)
(-0.0382016 0.0864494 2.11913e-19)
(-0.0413324 0.101893 2.28235e-19)
(-0.0418306 0.114006 -2.00971e-19)
(-0.0399872 0.123207 -1.32981e-19)
(-0.0360501 0.12989 -1.59611e-19)
(-0.0302275 0.134417 1.46166e-19)
(-0.022694 0.13711 -1.02347e-20)
(-0.0135947 0.138249 2.13925e-19)
(-0.00304922 0.138072 2.1151e-19)
(0.00884523 0.136778 -2.5457e-19)
(0.0220114 0.134533 5.00687e-19)
(0.0363898 0.13147 -3.34215e-19)
(0.0519367 0.1277 -5.78497e-20)
(0.0686228 0.123314 6.58463e-19)
(0.0864302 0.118395 -3.05545e-19)
(0.10535 0.113024 1.97738e-19)
(0.125376 0.107301 3.88737e-19)
(0.146479 0.101356 -2.52617e-19)
(0.168556 0.0953735 2.6445e-20)
(0.191526 0.0897333 -1.8386e-20)
(0.215756 0.0853942 -1.06435e-19)
(0.239959 0.0829737 1.96225e-19)
(-0.00892917 0.0152661 7.18742e-20)
(-0.0227871 0.0411918 -2.26419e-19)
(-0.0323449 0.0632251 1.23765e-19)
(-0.0382645 0.0814325 -1.62582e-21)
(-0.0409724 0.0961143 9.27553e-20)
(-0.040799 0.107647 -1.59287e-19)
(-0.0380472 0.116407 9.10858e-20)
(-0.032984 0.122756 2.48379e-19)
(-0.0258393 0.127028 -7.97571e-21)
(-0.0168089 0.129523 -1.27149e-19)
(-0.00605748 0.130503 1.27623e-19)
(0.00627841 0.130193 -2.71939e-21)
(0.020088 0.128782 -4.08441e-19)
(0.0352835 0.126424 1.51119e-19)
(0.0517982 0.123245 3.30592e-20)
(0.0695842 0.119346 -5.94652e-20)
(0.0886105 0.114808 -1.08888e-19)
(0.10886 0.109701 4.12481e-19)
(0.130328 0.104091 1.01687e-19)
(0.153012 0.0980622 -2.18845e-19)
(0.176891 0.0917303 -2.73981e-20)
(0.201859 0.0852771 3.07236e-19)
(0.227811 0.0791168 -1.43293e-19)
(0.255072 0.074386 6.2874e-20)
(0.282173 0.0720507 4.07898e-20)
(-0.0089758 0.0142251 -1.43302e-19)
(-0.0229557 0.0384499 1.42096e-19)
(-0.0325496 0.0590564 -7.96576e-20)
(-0.0383035 0.0760779 -2.55393e-19)
(-0.0406039 0.0897868 -2.34782e-19)
(-0.0397745 0.100531 -1.03246e-19)
(-0.0361249 0.108658 -8.59124e-20)
(-0.0299357 0.114505 -2.53503e-19)
(-0.0214533 0.118382 -1.02836e-19)
(-0.0108896 0.12057 9.41423e-20)
(0.00157581 0.121313 -1.33865e-19)
(0.0157942 0.120823 -1.40889e-19)
(0.0316446 0.119277 -1.33027e-19)
(0.0490315 0.11682 2.43937e-19)
(0.0678824 0.113569 -5.1163e-19)
(0.0881445 0.109615 2.95506e-19)
(0.109783 0.105028 -5.05498e-19)
(0.132777 0.0998625 -7.85137e-20)
(0.157116 0.0941678 -2.8232e-19)
(0.182795 0.0880032 -6.66938e-20)
(0.209785 0.0814612 -8.12056e-20)
(0.237968 0.074701 -2.74856e-19)
(0.267199 0.068146 -3.13561e-20)
(0.297768 0.0631039 1.71216e-19)
(0.328004 0.0609392 -4.38651e-19)
(-0.00903957 0.0132731 1.23012e-19)
(-0.0231226 0.0358073 1.60215e-19)
(-0.0327274 0.054887 5.58037e-19)
(-0.0382824 0.0705687 -9.76785e-20)
(-0.0401339 0.0831294 2.32315e-19)
(-0.0385977 0.0929075 5.52337e-19)
(-0.0339865 0.100237 -1.50482e-19)
(-0.02659 0.105436 2.03428e-19)
(-0.0166651 0.108798 1.18318e-19)
(-0.00443433 0.110587 2.14995e-19)
(0.00991353 0.111032 -4.2748e-20)
(0.026222 0.110334 2.92935e-20)
(0.0443639 0.108659 -7.66527e-20)
(0.0642381 0.106142 4.10002e-19)
(0.085766 0.102894 5.19622e-20)
(0.108888 0.0989955 3.84141e-19)
(0.133558 0.0945081 -9.92023e-20)
(0.159742 0.0894726 3.56257e-19)
(0.187412 0.0839197 5.12334e-20)
(0.216539 0.0778833 1.84138e-19)
(0.247067 0.0714225 -8.03072e-20)
(0.278843 0.0646562 -1.66228e-20)
(0.311664 0.0579818 4.46926e-19)
(0.345787 0.0528513 2.79194e-19)
(0.379382 0.051064 -1.13963e-19)
(-0.00914081 0.0124326 -2.96511e-19)
(-0.0233104 0.0333295 -2.98935e-19)
(-0.0328683 0.050828 -3.11666e-19)
(-0.0381379 0.0650615 1.14361e-19)
(-0.0394311 0.0763412 -2.28831e-19)
(-0.0370578 0.0850157 -3.40196e-20)
(-0.031332 0.0914176 -8.95888e-20)
(-0.0225479 0.0958564 -3.71071e-19)
(-0.010968 0.0986138 -5.79999e-20)
(0.00318022 0.0999407 9.49942e-20)
(0.0197041 0.100057 -2.98294e-19)
(0.0384433 0.0991503 4.14291e-19)
(0.0592669 0.0973797 -5.63474e-19)
(0.0820678 0.0948745 1.36225e-19)
(0.106759 0.0917375 -3.46624e-19)
(0.133265 0.0880456 -2.83311e-19)
(0.161522 0.0838522 -1.67146e-20)
(0.191464 0.0791893 -4.39286e-20)
(0.223025 0.0740727 3.34776e-20)
(0.256127 0.0685135 -1.66499e-19)
(0.29066 0.0625357 -1.15979e-19)
(0.326404 0.0562045 1.44234e-19)
(0.363066 0.0498524 -4.01638e-19)
(0.400877 0.0450265 1.31177e-19)
(0.437972 0.0439873 9.47016e-20)
(-0.009293 0.0117125 -5.2275e-20)
(-0.0235254 0.0310539 -8.61212e-20)
(-0.0329383 0.0469576 3.36564e-19)
(-0.0377746 0.0596794 1.2464e-19)
(-0.0383242 0.0695917 1.64586e-19)
(-0.0348947 0.0770706 -2.19645e-19)
(-0.0278013 0.0824592 6.9869e-22)
(-0.0173397 0.086067 -1.77024e-19)
(-0.00377352 0.0881703 3.27181e-19)
(0.0126691 0.0890119 1.06849e-19)
(0.0317948 0.0888029 1.20286e-19)
(0.0534413 0.087724 -4.7643e-19)
(0.0774724 0.0859274 5.89419e-19)
(0.103772 0.083538 -1.76445e-19)
(0.132234 0.0806549 -1.26948e-19)
(0.162761 0.077353 3.82794e-19)
(0.195248 0.0736832 1.72744e-19)
(0.229582 0.0696742 -4.37245e-19)
(0.26563 0.0653345 -1.85425e-19)
(0.303236 0.0606599 5.59484e-19)
(0.342202 0.0556458 -4.31366e-19)
(0.382211 0.0503007 2.60903e-19)
(0.422842 0.0448557 1.48613e-19)
(0.464287 0.0408843 -1.91437e-19)
(0.504858 0.0411517 -1.83878e-19)
(-0.00950056 0.0111091 -1.91899e-19)
(-0.0237537 0.0289898 2.98569e-19)
(-0.0328758 0.0433184 1.26788e-19)
(-0.0370649 0.0545084 -1.82842e-19)
(-0.0366041 0.0630144 -2.92664e-20)
(-0.0318059 0.0692547 -1.90653e-19)
(-0.0229877 0.0735935 -7.56066e-20)
(-0.0104456 0.0763479 8.50813e-20)
(0.00555792 0.0777938 -2.14057e-20)
(0.0247955 0.0781702 1.59864e-19)
(0.0470728 0.0776824 -1.38986e-19)
(0.0722228 0.0765058 3.85251e-19)
(0.100098 0.0747878 -4.78457e-19)
(0.130563 0.0726501 2.98484e-19)
(0.163481 0.0701906 3.72874e-19)
(0.198711 0.0674845 -5.4083e-19)
(0.236091 0.0645853 -1.65699e-19)
(0.275433 0.0615251 2.8052e-19)
(0.31651 0.0583159 -1.73741e-19)
(0.359058 0.0549529 1.70479e-19)
(0.402753 0.0514198 -4.1398e-19)
(0.447147 0.0476813 6.85096e-20)
(0.491657 0.0438484 2.75765e-19)
(0.536403 0.0414614 -4.48171e-19)
(0.580138 0.0438923 1.17417e-19)
(-0.00975737 0.0106065 -1.76683e-19)
(-0.0239593 0.0271205 5.5445e-19)
(-0.0325916 0.0399193 1.06084e-19)
(-0.0358501 0.0495961 -2.86426e-19)
(-0.0340306 0.0567027 2.05006e-19)
(-0.0274584 0.061711 1.04105e-19)
(-0.0164572 0.065014 1.65375e-19)
(-0.0013245 0.0669425 -1.0734e-20)
(0.0176765 0.0677766 -1.73844e-20)
(0.0403163 0.067754 -3.62869e-20)
(0.066394 0.0670766 -1.57312e-19)
(0.0957284 0.065915 -5.51099e-21)
(0.128148 0.0644124 3.67517e-19)
(0.163482 0.0626871 -6.05035e-19)
(0.201544 0.0608356 4.30661e-19)
(0.242128 0.0589343 8.7414e-20)
(0.284991 0.0570419 1.55244e-19)
(0.329849 0.0552012 -8.19345e-20)
(0.376364 0.0534408 7.21449e-19)
(0.424136 0.0517792 -4.49027e-19)
(0.472686 0.0502254 3.62646e-19)
(0.521383 0.048751 8.70549e-20)
(0.569413 0.0474127 -2.71472e-19)
(0.616702 0.0478023 2.31591e-19)
(0.662516 0.0539605 3.58569e-19)
(-0.0100463 0.0101793 -5.08707e-20)
(-0.0240832 0.0254074 -1.95336e-19)
(-0.0319696 0.0367384 -3.33096e-19)
(-0.0339457 0.0449533 -1.89085e-19)
(-0.0303409 0.0507092 -2.64224e-20)
(-0.0215039 0.0545385 -7.43151e-20)
(-0.00777073 0.0568687 -3.44419e-19)
(0.0105537 0.058048 5.73627e-20)
(0.033199 0.0583634 -3.85979e-19)
(0.0599246 0.058053 -2.9949e-20)
(0.09051 0.0573154 -3.7001e-19)
(0.124743 0.0563159 -1.31847e-19)
(0.162409 0.055191 7.58841e-20)
(0.203275 0.0540527 -3.61144e-19)
(0.247083 0.052992 3.12385e-21)
(0.29354 0.0520823 -3.13344e-19)
(0.342304 0.0513838 1.21853e-19)
(0.392987 0.0509487 -4.41423e-19)
(0.445142 0.0508283 -7.67465e-20)
(0.498262 0.0510837 -1.0173e-20)
(0.551754 0.0517932 -7.57509e-20)
(0.604861 0.0530351 -7.69273e-20)
(0.656566 0.0550542 -3.67633e-20)
(0.706256 0.0598044 -1.55745e-19)
(0.752024 0.0712381 -3.36255e-19)
(-0.0103399 0.00979568 9.40289e-20)
(-0.0240461 0.0237954 2.46904e-19)
(-0.0308717 0.0337291 2.9608e-19)
(-0.0311483 0.0405592 -2.36093e-19)
(-0.0252611 0.0450489 4.37783e-19)
(-0.0135947 0.0477941 -2.37136e-19)
(0.00349209 0.0492591 1.28772e-19)
(0.0256766 0.0498112 2.00377e-19)
(0.0526685 0.0497449 1.81952e-19)
(0.084199 0.0492988 8.84817e-20)
(0.120007 0.0486664 1.42883e-19)
(0.159824 0.0480042 8.30889e-20)
(0.203362 0.0474375 5.62671e-19)
(0.250301 0.0470651 -4.09438e-19)
(0.300278 0.0469633 4.68775e-19)
(0.352886 0.0471908 -1.9529e-19)
(0.407671 0.0477942 4.23784e-19)
(0.464135 0.0488155 -1.89084e-20)
(0.521745 0.050303 -8.81654e-20)
(0.579945 0.0523284 -1.55692e-20)
(0.638171 0.0550094 3.379e-19)
(0.695864 0.0585558 -3.28774e-19)
(0.752592 0.0635936 2.33698e-19)
(0.808339 0.0721725 2.5681e-19)
(0.856896 0.0834523 5.1239e-20)
(-0.0106017 0.00942051 6.4926e-20)
(-0.0237514 0.0222201 -3.52147e-19)
(-0.0291428 0.0308281 -1.27829e-19)
(-0.0272436 0.0363693 1.16699e-19)
(-0.0185175 0.0397065 -3.58582e-19)
(-0.0033999 0.0414984 -7.03728e-20)
(0.017713 0.0422449 4.88844e-20)
(0.0444641 0.0423318 1.92797e-19)
(0.0765223 0.0420601 -4.87922e-19)
(0.113566 0.0416661 3.70702e-20)
(0.155263 0.0413344 -1.42494e-19)
(0.201257 0.0412077 -4.334e-19)
(0.251151 0.0413925 2.95441e-19)
(0.304499 0.0419644 1.27404e-20)
(0.360804 0.0429733 -9.06529e-21)
(0.419516 0.0444471 3.00292e-19)
(0.480044 0.0463981 -5.31475e-19)
(0.541766 0.0488283 4.22387e-19)
(0.604048 0.0517371 -7.79022e-20)
(0.666272 0.0551292 2.47256e-19)
(0.727861 0.0590204 -4.06893e-19)
(0.788313 0.0634451 2.33291e-19)
(0.847308 0.0685911 -4.1346e-19)
(0.904998 0.0753263 4.21541e-19)
(0.956284 0.0822912 -1.3353e-19)
(-0.0107886 0.00901914 4.33659e-19)
(-0.0230899 0.0206149 -7.03526e-20)
(-0.0266172 0.027965 5.19964e-19)
(-0.0220141 0.0323255 2.40444e-19)
(-0.00984578 0.0346474 1.92737e-20)
(0.00938367 0.0356465 1.04683e-19)
(0.0352209 0.0358551 2.53347e-20)
(0.0672507 0.0356739 4.25373e-19)
(0.105073 0.0354066 1.36866e-19)
(0.148281 0.0352827 -1.83623e-20)
(0.196434 0.0354724 3.66644e-20)
(0.249047 0.0360963 1.41378e-19)
(0.305575 0.037233 1.18198e-19)
(0.365411 0.0389246 2.53663e-19)
(0.42789 0.0411815 -2.88853e-19)
(0.492296 0.0439882 8.75721e-20)
(0.557884 0.047308 2.66384e-20)
(0.6239 0.0510887 1.29985e-19)
(0.689605 0.055268 3.5267e-19)
(0.754305 0.0597765 -2.30728e-19)
(0.81738 0.0645386 1.96142e-20)
(0.878305 0.0694649 -3.22424e-19)
(0.936688 0.0745023 3.03244e-19)
(0.99248 0.0800884 -2.86724e-19)
(1.04193 0.0859871 3.08565e-20)
(-0.0108535 0.00856074 -3.61436e-19)
(-0.0219448 0.0189188 2.76206e-19)
(-0.0231243 0.0250718 -4.49056e-19)
(-0.0152457 0.0283686 3.87008e-20)
(0.00100162 0.0298308 3.15199e-19)
(0.0250234 0.0302232 -5.24538e-19)
(0.0562838 0.0301035 4.15559e-19)
(0.0942788 0.0298812 -6.58738e-19)
(0.138504 0.029857 1.31234e-19)
(0.188425 0.0302463 2.80288e-20)
(0.243453 0.0311962 2.21247e-19)
(0.302929 0.0327959 -7.3493e-19)
(0.366121 0.035085 1.26838e-19)
(0.432229 0.0380602 1.34625e-19)
(0.500395 0.0416819 -8.08356e-20)
(0.569728 0.0458802 -5.02212e-19)
(0.639332 0.050562 2.36443e-19)
(0.708331 0.055617 4.42743e-19)
(0.775905 0.0609234 -4.66528e-19)
(0.841314 0.0663519 3.37956e-19)
(0.903928 0.0717659 -4.35324e-19)
(0.963232 0.0770164 3.15906e-19)
(1.01884 0.0819625 -8.516e-20)
(1.07063 0.0868666 4.87157e-19)
(1.11614 0.0923356 -5.45342e-19)
(-0.0107475 0.00802073 5.15858e-20)
(-0.0201964 0.0170826 4.07831e-20)
(-0.018494 0.022093 9.96077e-20)
(-0.00673244 0.0244498 3.5536e-19)
(0.0142513 0.0252244 -1.11123e-20)
(0.0437475 0.0252186 7.93314e-20)
(0.0811063 0.0250061 3.52566e-19)
(0.125698 0.0249965 1.42172e-19)
(0.17687 0.0254781 -4.6784e-20)
(0.233915 0.0266426 3.98511e-19)
(0.296047 0.0286025 -4.53847e-19)
(0.362394 0.0314036 6.96441e-19)
(0.432003 0.0350341 -2.76457e-19)
(0.503855 0.0394338 5.02189e-19)
(0.576897 0.0445027 -1.69617e-19)
(0.650069 0.0501103 6.19098e-20)
(0.722347 0.0561044 7.50049e-20)
(0.792776 0.0623202 -1.44642e-19)
(0.860505 0.0685879 1.2125e-19)
(0.924811 0.0747384 7.81012e-20)
(0.985119 0.0806067 1.06906e-19)
(1.041 0.0860309 2.23754e-19)
(1.09217 0.0908604 -2.06548e-20)
(1.13858 0.0952671 -1.01876e-19)
(1.17888 0.100375 2.94312e-19)
(-0.0104224 0.00738248 -3.01682e-19)
(-0.0177257 0.0150734 3.18576e-20)
(-0.0125604 0.0189931 -5.72882e-19)
(0.00371993 0.0205419 -1.36707e-19)
(0.0301063 0.0208173 -2.5586e-19)
(0.0657436 0.0206437 -5.48552e-20)
(0.10983 0.020598 -2.73715e-19)
(0.161566 0.0210782 -1.63468e-19)
(0.220101 0.0223476 2.16534e-19)
(0.284507 0.0245608 -3.61283e-19)
(0.353754 0.0277816 -1.00341e-19)
(0.42672 0.0319979 3.99284e-21)
(0.502206 0.037133 -6.78896e-19)
(0.578972 0.0430586 2.8869e-19)
(0.65578 0.0496071 -4.21551e-19)
(0.731435 0.0565843 -1.31239e-20)
(0.804838 0.0637826 8.29594e-20)
(0.875019 0.0709921 -1.34789e-19)
(0.941171 0.0780109 -1.18112e-19)
(1.00267 0.0846525 5.82494e-20)
(1.05906 0.0907509 6.453e-20)
(1.1101 0.0961617 -4.19002e-19)
(1.15567 0.100762 2.38475e-19)
(1.19588 0.104686 1.17079e-19)
(1.23019 0.109278 2.88472e-20)
(-0.0098315 0.00663799 3.08437e-19)
(-0.0144172 0.012878 -3.28866e-19)
(-0.0051647 0.0157628 4.61239e-19)
(0.0162917 0.0166478 7.18081e-20)
(0.0487444 0.016631 -2.19875e-20)
(0.0911576 0.0165422 -1.54898e-19)
(0.142534 0.0169459 2.32632e-20)
(0.201851 0.0182126 2.35456e-19)
(0.268012 0.0205643 -3.24757e-19)
(0.339812 0.0241014 3.41049e-19)
(0.415941 0.028822 -3.60028e-20)
(0.494999 0.0346396 1.57703e-20)
(0.575535 0.0413996 4.43815e-19)
(0.656105 0.0488963 5.94786e-19)
(0.735324 0.056891 -2.32771e-19)
(0.811924 0.065129 4.12925e-19)
(0.884802 0.0733563 2.09064e-19)
(0.953059 0.0813331 -1.28083e-19)
(1.01602 0.0888453 4.03598e-19)
(1.07322 0.0957117 -1.66733e-20)
(1.12444 0.101788 -3.85311e-19)
(1.16963 0.106967 4.03749e-19)
(1.20892 0.111173 5.63982e-20)
(1.24261 0.114535 -2.46309e-19)
(1.27073 0.118418 7.71919e-20)
(-0.00893063 0.00578782 -4.28889e-19)
(-0.0101611 0.0105039 4.48251e-19)
(0.00384248 0.0124218 -2.84325e-19)
(0.0311466 0.0128053 -8.86576e-20)
(0.070315 0.0127255 -1.98589e-19)
(0.12009 0.0129977 3.51155e-19)
(0.179229 0.0141542 -2.03901e-19)
(0.246431 0.0165182 -9.3467e-20)
(0.320296 0.0202501 -2.67583e-19)
(0.3993 0.025375 6.87467e-21)
(0.481819 0.0318059 -1.0463e-19)
(0.566167 0.0393657 5.09652e-20)
(0.650661 0.0478102 -5.36247e-19)
(0.733694 0.056852 1.52816e-19)
(0.813801 0.0661837 -1.84293e-19)
(0.889722 0.0754999 -1.48177e-19)
(0.960445 0.0845161 4.54579e-20)
(1.02523 0.0929832 -2.15591e-19)
(1.08361 0.100697 -9.17218e-20)
(1.13537 0.107504 2.6514e-19)
(1.18054 0.1133 1.10912e-19)
(1.21934 0.118031 -4.72345e-19)
(1.25213 0.121672 3.45132e-19)
(1.27939 0.124376 -6.51308e-20)
(1.30154 0.127394 -1.32427e-19)
(-0.00767802 0.00484042 -1.56145e-19)
(-0.00485343 0.00797923 -8.35176e-20)
(0.014599 0.00902012 -1.6634e-20)
(0.0484281 0.00908919 1.22319e-19)
(0.0949348 0.00920159 1.33012e-19)
(0.152592 0.0101343 1.15834e-19)
(0.219853 0.0123642 1.44083e-19)
(0.295084 0.0161425 2.19944e-19)
(0.376525 0.021543 3.36172e-19)
(0.462301 0.0284923 3.32631e-19)
(0.550458 0.0367977 1.75608e-19)
(0.639041 0.0461773 -4.71691e-20)
(0.72618 0.0562909 1.17911e-20)
(0.810175 0.0667713 -1.57811e-20)
(0.889572 0.0772529 1.38907e-19)
(0.96322 0.0873972 -3.65565e-20)
(1.03029 0.0969111 4.09595e-19)
(1.09029 0.10556 -1.84051e-19)
(1.14303 0.113174 2.59154e-21)
(1.18858 0.119645 1.27452e-19)
(1.22727 0.124926 -2.79083e-19)
(1.25954 0.129019 4.61177e-19)
(1.28599 0.13196 -3.72726e-19)
(1.30725 0.133926 6.70607e-20)
(1.32395 0.135993 -2.37544e-19)
(-0.00603414 0.00381116 3.34947e-19)
(0.00160198 0.00535093 2.25784e-19)
(0.0272284 0.00563619 -1.44616e-19)
(0.0682554 0.00560913 6.39298e-19)
(0.12268 0.00619738 -5.53201e-19)
(0.188652 0.00811243 1.16667e-19)
(0.264261 0.0117469 -8.75492e-20)
(0.347479 0.0172511 -3.86746e-19)
(0.436149 0.0245841 -3.98581e-20)
(0.528017 0.0335488 -3.11721e-19)
(0.620815 0.0438289 6.73085e-21)
(0.712363 0.0550284 -3.22981e-19)