/*--------------------------------*- C++ -*----------------------------------*\
  =========                 |
  \\      /  F ield         | OpenFOAM: The Open Source CFD Toolbox
   \\    /   O peration     | Website:  https://openfoam.org
    \\  /    A nd           | Version:  6.0
     \\/     M anipulation  |
\*---------------------------------------------------------------------------*/
FoamFile
{
    version     2.0;
    format      ascii;
    class       volScalarField;
    location    "24.4";
    object      p;
}
// * * * * * * * * * * * * * * * * * * * * * * * * * * * * * * * * * * * * * //

dimensions      [0 2 -2 0 0 0 0];

internalField   nonuniform List<scalar> 
8000
(
-0.261615
-0.262622
-0.263279
-0.263755
-0.264151
-0.264484
-0.264769
-0.265018
-0.265241
-0.265444
-0.265632
-0.265811
-0.265983
-0.266153
-0.266327
-0.266511
-0.26671
-0.266882
-0.267009
-0.267523
-0.26174
-0.262742
-0.263396
-0.263867
-0.264258
-0.264586
-0.264865
-0.265108
-0.265324
-0.26552
-0.265701
-0.265872
-0.266037
-0.2662
-0.266365
-0.266543
-0.266734
-0.2669
-0.267019
-0.267529
-0.261984
-0.262978
-0.263624
-0.264085
-0.264466
-0.264782
-0.265048
-0.265278
-0.265481
-0.265662
-0.265829
-0.265984
-0.266133
-0.266279
-0.266429
-0.26659
-0.266767
-0.266919
-0.267022
-0.267524
-0.262346
-0.263328
-0.263962
-0.264409
-0.264773
-0.265071
-0.265319
-0.265528
-0.265709
-0.265868
-0.266011
-0.266142
-0.266266
-0.266387
-0.266511
-0.266648
-0.266801
-0.26693
-0.26701
-0.267498
-0.262827
-0.263793
-0.26441
-0.264838
-0.26518
-0.265453
-0.265674
-0.265855
-0.266006
-0.266134
-0.266244
-0.266341
-0.26643
-0.266515
-0.266603
-0.266705
-0.266825
-0.266923
-0.26697
-0.267439
-0.263427
-0.264373
-0.264968
-0.265371
-0.265685
-0.265927
-0.266113
-0.266258
-0.26637
-0.266458
-0.266525
-0.266577
-0.266619
-0.266657
-0.266696
-0.26675
-0.266826
-0.266881
-0.266884
-0.267329
-0.264144
-0.265067
-0.265637
-0.26601
-0.266288
-0.266491
-0.266635
-0.266735
-0.266799
-0.266836
-0.26685
-0.266845
-0.266828
-0.266804
-0.266781
-0.266774
-0.26679
-0.266789
-0.266736
-0.267149
-0.264982
-0.265878
-0.266416
-0.266753
-0.266989
-0.267145
-0.267239
-0.267285
-0.267293
-0.267269
-0.267217
-0.267144
-0.267054
-0.266953
-0.266851
-0.266764
-0.266704
-0.26663
-0.266506
-0.26688
-0.265943
-0.266807
-0.267309
-0.267603
-0.267789
-0.267891
-0.267927
-0.267911
-0.267852
-0.267757
-0.267629
-0.267474
-0.267296
-0.267102
-0.266903
-0.266717
-0.266559
-0.266391
-0.266175
-0.2665
-0.267031
-0.267858
-0.268317
-0.26856
-0.26869
-0.26873
-0.268699
-0.268613
-0.26848
-0.268304
-0.268091
-0.267841
-0.267561
-0.267257
-0.26694
-0.266631
-0.266349
-0.266059
-0.265724
-0.265986
-0.268252
-0.269035
-0.269443
-0.269628
-0.269693
-0.269663
-0.269559
-0.269395
-0.26918
-0.268918
-0.268609
-0.268255
-0.26786
-0.267428
-0.266971
-0.266513
-0.266076
-0.265628
-0.265136
-0.265313
-0.269613
-0.270342
-0.270691
-0.270809
-0.2708
-0.270692
-0.270508
-0.270261
-0.269959
-0.269604
-0.269194
-0.268729
-0.268207
-0.267632
-0.267015
-0.266378
-0.26575
-0.265097
-0.264397
-0.264452
-0.271122
-0.271787
-0.272066
-0.272106
-0.272013
-0.271819
-0.271547
-0.271211
-0.270818
-0.270367
-0.269854
-0.269273
-0.26862
-0.267891
-0.267094
-0.26625
-0.265389
-0.264476
-0.263493
-0.26337
-0.272789
-0.273376
-0.273572
-0.273523
-0.273335
-0.273044
-0.272676
-0.272246
-0.271759
-0.271211
-0.270594
-0.269898
-0.269111
-0.268223
-0.267232
-0.266155
-0.265019
-0.26378
-0.262416
-0.262024
-0.274624
-0.275118
-0.275216
-0.275062
-0.274765
-0.274366
-0.273892
-0.27336
-0.272774
-0.272128
-0.27141
-0.270601
-0.269684
-0.268637
-0.267447
-0.266118
-0.264667
-0.26303
-0.261161
-0.260365
-0.276639
-0.277022
-0.277005
-0.276729
-0.276306
-0.275782
-0.27519
-0.274546
-0.273854
-0.273107
-0.272286
-0.27137
-0.270328
-0.269129
-0.267742
-0.266154
-0.26436
-0.262262
-0.259751
-0.258359
-0.278849
-0.279102
-0.278949
-0.278531
-0.277961
-0.277293
-0.276564
-0.275793
-0.274984
-0.274127
-0.273202
-0.272179
-0.271021
-0.269683
-0.268114
-0.266276
-0.26414
-0.261557
-0.258292
-0.256054
-0.281274
-0.281375
-0.281063
-0.280477
-0.279735
-0.2789
-0.278012
-0.277094
-0.276151
-0.275173
-0.274136
-0.273007
-0.271741
-0.27028
-0.268554
-0.266494
-0.264034
-0.260966
-0.256835
-0.253352
-0.283937
-0.283862
-0.283364
-0.282584
-0.281642
-0.280611
-0.279539
-0.278451
-0.277354
-0.276238
-0.275083
-0.273852
-0.272499
-0.270959
-0.269144
-0.266946
-0.264233
-0.260645
-0.255322
-0.249809
-0.28687
-0.28659
-0.285877
-0.284871
-0.283699
-0.282444
-0.281159
-0.279876
-0.278606
-0.277342
-0.276068
-0.274759
-0.273381
-0.271893
-0.270237
-0.268342
-0.266085
-0.262999
-0.257849
-0.251725
-0.290111
-0.289595
-0.288634
-0.28737
-0.285936
-0.284427
-0.282904
-0.281404
-0.279941
-0.278519
-0.277132
-0.275774
-0.274446
-0.273167
-0.271997
-0.271073
-0.270658
-0.271174
-0.274172
-0.2866
-0.293709
-0.292916
-0.291672
-0.290118
-0.288391
-0.286601
-0.284816
-0.283079
-0.281413
-0.279826
-0.278326
-0.276927
-0.275661
-0.274594
-0.273849
-0.273649
-0.274359
-0.276527
-0.28133
-0.293421
-0.297716
-0.296602
-0.295037
-0.293159
-0.291113
-0.289017
-0.286952
-0.284966
-0.283086
-0.281332
-0.27972
-0.278282
-0.27707
-0.276176
-0.275745
-0.276006
-0.277284
-0.280002
-0.284747
-0.29407
-0.302192
-0.300705
-0.298777
-0.296546
-0.294153
-0.291734
-0.289376
-0.287132
-0.285035
-0.283109
-0.28138
-0.279887
-0.278691
-0.277887
-0.27761
-0.278045
-0.279422
-0.281991
-0.286007
-0.292597
-0.307197
-0.305277
-0.302947
-0.300332
-0.297572
-0.294814
-0.292153
-0.289644
-0.287322
-0.285214
-0.283347
-0.281759
-0.280507
-0.279671
-0.279353
-0.279678
-0.280773
-0.282746
-0.285683
-0.289793
-0.31279
-0.310373
-0.307599
-0.304574
-0.301427
-0.298318
-0.295344
-0.292561
-0.29
-0.287685
-0.285636
-0.283885
-0.282474
-0.281458
-0.280903
-0.280874
-0.281424
-0.282569
-0.284328
-0.28644
-0.319024
-0.316042
-0.312783
-0.309324
-0.305775
-0.302302
-0.299004
-0.295929
-0.2931
-0.290531
-0.288232
-0.286222
-0.284524
-0.28317
-0.282193
-0.281617
-0.281451
-0.281669
-0.282266
-0.282818
-0.325945
-0.322328
-0.318547
-0.314631
-0.310665
-0.306815
-0.303173
-0.299774
-0.296627
-0.293732
-0.291088
-0.288696
-0.286567
-0.284715
-0.283152
-0.281884
-0.280902
-0.280174
-0.279687
-0.27904
-0.333586
-0.329267
-0.324927
-0.320538
-0.316138
-0.311891
-0.307872
-0.304096
-0.300556
-0.297236
-0.294122
-0.291208
-0.288496
-0.285994
-0.283709
-0.281645
-0.279794
-0.278135
-0.276656
-0.275051
-0.341964
-0.336879
-0.331953
-0.327073
-0.322221
-0.317544
-0.313096
-0.308867
-0.304829
-0.300956
-0.297227
-0.293637
-0.290192
-0.286905
-0.283792
-0.280864
-0.278123
-0.275565
-0.273177
-0.270758
-0.351076
-0.345171
-0.339635
-0.334249
-0.328919
-0.323764
-0.31881
-0.314019
-0.30935
-0.30477
-0.300267
-0.295848
-0.291534
-0.287355
-0.283338
-0.279507
-0.275877
-0.272457
-0.269229
-0.266076
-0.360896
-0.354128
-0.347965
-0.342058
-0.33621
-0.330507
-0.32494
-0.31945
-0.313988
-0.308534
-0.303096
-0.297706
-0.29241
-0.287258
-0.282293
-0.277549
-0.273048
-0.268803
-0.264791
-0.260952
-0.371371
-0.36371
-0.356911
-0.35046
-0.344039
-0.337689
-0.331371
-0.325014
-0.318581
-0.31208
-0.305556
-0.299077
-0.292717
-0.286545
-0.280617
-0.27497
-0.269628
-0.264601
-0.259855
-0.255366
-0.382414
-0.373848
-0.366408
-0.359381
-0.352308
-0.345184
-0.337947
-0.330535
-0.322945
-0.315234
-0.307497
-0.299841
-0.292368
-0.28516
-0.278278
-0.271758
-0.265616
-0.259853
-0.25442
-0.249317
-0.393904
-0.384436
-0.376353
-0.368704
-0.360876
-0.352818
-0.34447
-0.335804
-0.32688
-0.317819
-0.308774
-0.299889
-0.291286
-0.283055
-0.275251
-0.2679
-0.261006
-0.254558
-0.248486
-0.242813
-0.405679
-0.395333
-0.386604
-0.37827
-0.369553
-0.360377
-0.350711
-0.340599
-0.330183
-0.319666
-0.309254
-0.299124
-0.289407
-0.280188
-0.271509
-0.26338
-0.25579
-0.24871
-0.24205
-0.235858
-0.41754
-0.406355
-0.396972
-0.387869
-0.378105
-0.367608
-0.356419
-0.344685
-0.332656
-0.320615
-0.308818
-0.29746
-0.28667
-0.276517
-0.267023
-0.258177
-0.24995
-0.242296
-0.235102
-0.228448
-0.429243
-0.417277
-0.407227
-0.397247
-0.386257
-0.374231
-0.361327
-0.34783
-0.334108
-0.32052
-0.307358
-0.29482
-0.283018
-0.271999
-0.261758
-0.252262
-0.243463
-0.235295
-0.227624
-0.220571
-0.440509
-0.427832
-0.417092
-0.406111
-0.393705
-0.379948
-0.365168
-0.34981
-0.334362
-0.319248
-0.304774
-0.291127
-0.278394
-0.266587
-0.255675
-0.2456
-0.236297
-0.22768
-0.219592
-0.212205
-0.451024
-0.437718
-0.426257
-0.414133
-0.400121
-0.384458
-0.367682
-0.350417
-0.333259
-0.316677
-0.300975
-0.286312
-0.272738
-0.260232
-0.24873
-0.238153
-0.228416
-0.219416
-0.210974
-0.203323
-0.460448
-0.446604
-0.434379
-0.420965
-0.405171
-0.387463
-0.368625
-0.349459
-0.330654
-0.312699
-0.295877
-0.280306
-0.265993
-0.252881
-0.240877
-0.229877
-0.219782
-0.210467
-0.201739
-0.193894
-0.468417
-0.454132
-0.441094
-0.426248
-0.408524
-0.388682
-0.367772
-0.346766
-0.326418
-0.307215
-0.2894
-0.273042
-0.258102
-0.244485
-0.232069
-0.22073
-0.210355
-0.200798
-0.191851
-0.183887
-0.474563
-0.459935
-0.446034
-0.429625
-0.409864
-0.387856
-0.364925
-0.342188
-0.320439
-0.300137
-0.281472
-0.264458
-0.249009
-0.234992
-0.222261
-0.210672
-0.200097
-0.190374
-0.181281
-0.173271
-0.478516
-0.463644
-0.448832
-0.430758
-0.408903
-0.384757
-0.359912
-0.335599
-0.312621
-0.291389
-0.272029
-0.254498
-0.238663
-0.224358
-0.211411
-0.199664
-0.188976
-0.179164
-0.169999
-0.162019
-0.479918
-0.464901
-0.449138
-0.429331
-0.405383
-0.379192
-0.352591
-0.326895
-0.302884
-0.280905
-0.261015
-0.243112
-0.22702
-0.212542
-0.199484
-0.187675
-0.176962
-0.167142
-0.157985
-0.150113
-0.478436
-0.46337
-0.446632
-0.425069
-0.39909
-0.371003
-0.342851
-0.315993
-0.291163
-0.268631
-0.248383
-0.230258
-0.214043
-0.199511
-0.186451
-0.17468
-0.164034
-0.154292
-0.145224
-0.137538
-0.473768
-0.458747
-0.441033
-0.417739
-0.38985
-0.36007
-0.33061
-0.302836
-0.277414
-0.25453
-0.234098
-0.215907
-0.199704
-0.185242
-0.172293
-0.160663
-0.150179
-0.140602
-0.131708
-0.124287
-0.465656
-0.450772
-0.432107
-0.407161
-0.377539
-0.346313
-0.315815
-0.287386
-0.261607
-0.238576
-0.21814
-0.200038
-0.183987
-0.16972
-0.156996
-0.145614
-0.13539
-0.126071
-0.117438
-0.110361
-0.453893
-0.439237
-0.419675
-0.393205
-0.362078
-0.329689
-0.298445
-0.269631
-0.243733
-0.220761
-0.200498
-0.182642
-0.166885
-0.152941
-0.14056
-0.129535
-0.119673
-0.110705
-0.102425
-0.0957704
-0.438327
-0.423991
-0.403618
-0.375801
-0.343437
-0.310196
-0.27851
-0.249584
-0.223802
-0.201092
-0.181179
-0.163726
-0.148402
-0.13491
-0.122991
-0.112434
-0.103038
-0.0945213
-0.0866905
-0.080539
-0.41887
-0.404945
-0.383878
-0.354932
-0.321635
-0.287867
-0.256046
-0.227278
-0.201844
-0.179594
-0.160202
-0.143304
-0.128552
-0.11564
-0.104303
-0.0943277
-0.0855062
-0.0775451
-0.0702661
-0.0647056
-0.395495
-0.382075
-0.360459
-0.33064
-0.296733
-0.262772
-0.231121
-0.202774
-0.177909
-0.156308
-0.137603
-0.121406
-0.10736
-0.095152
-0.0845163
-0.0752352
-0.0670973
-0.0598021
-0.053187
-0.0483128
-0.368244
-0.355422
-0.333429
-0.303017
-0.268839
-0.235019
-0.203833
-0.176155
-0.152069
-0.131294
-0.113429
-0.098072
-0.0848583
-0.0734734
-0.0636523
-0.0551767
-0.0478319
-0.0413175
-0.0354851
-0.0313843
-0.33722
-0.325091
-0.302914
-0.272209
-0.238101
-0.204746
-0.174306
-0.147532
-0.124417
-0.104629
-0.0877452
-0.0733522
-0.0610858
-0.0506337
-0.0417341
-0.0341706
-0.027729
-0.0221153
-0.0171839
-0.013912
-0.302591
-0.291249
-0.269095
-0.238407
-0.204708
-0.172129
-0.142696
-0.117038
-0.0950689
-0.0764133
-0.0606314
-0.0473098
-0.0360884
-0.0266627
-0.0187787
-0.0122264
-0.00679792
-0.00220892
0.00170712
0.00410446
-0.26458
-0.254121
-0.232207
-0.201847
-0.168885
-0.137372
-0.109187
-0.0848377
-0.0641662
-0.0467657
-0.0321879
-0.0200234
-0.00992297
-0.00159535
0.00519872
0.0106571
0.0149754
0.0184215
0.021184
0.0225407
-0.223469
-0.213981
-0.192531
-0.162807
-0.13089
-0.100713
-0.0739907
-0.0511186
-0.0318756
-0.0158312
-0.00253566
0.00841004
0.0173388
0.0245205
0.0301717
0.0344744
0.0376079
0.0397854
0.0411321
0.0410081
-0.179582
-0.171154
-0.150388
-0.121595
-0.0910134
-0.0624157
-0.0373483
-0.0160983
0.0016089
0.0162212
0.0281847
0.0378837
0.0456278
0.0516546
0.056147
0.0592656
0.0611496
0.0618394
0.0612334
0.0590642
-0.133289
-0.126002
-0.106135
-0.078552
-0.0495715
-0.0227718
0.000472254
0.0199755
0.03606
0.0491876
0.0598009
0.0682714
0.0748864
0.0798494
0.0833067
0.0853872
0.0861173
0.0851455
0.0820166
0.0777387
-0.084992
-0.0789187
-0.0601549
-0.0340418
-0.00690223
0.0179051
0.0391774
0.0568242
0.0712097
0.0828085
0.092065
0.0993489
0.104945
0.109056
0.111839
0.113443
0.113769
0.111979
0.107378
0.102733
-0.0351198
-0.0303249
-0.0128537
0.0115553
0.0366415
0.0592866
0.0784567
0.0941478
0.106759
0.116774
0.124639
0.130728
0.135341
0.138717
0.141098
0.142758
0.143673
0.142871
0.140092
0.143541
0.0158869
0.0193463
0.0353528
0.0578495
0.0806988
0.101037
0.117994
0.131642
0.142405
0.150772
0.157183
0.162005
0.165538
0.168032
0.169747
0.170943
0.171609
0.171279
0.170836
0.176425
0.0675686
0.0696473
0.084039
0.104446
0.124907
0.142822
0.157475
0.169007
0.177862
0.184523
0.189421
0.192916
0.1953
0.196824
0.197735
0.198252
0.198359
0.197766
0.197372
0.201862
0.119463
0.120128
0.132779
0.150953
0.168907
0.184311
0.196595
0.205957
0.212851
0.217754
0.22108
0.223174
0.224315
0.224741
0.224681
0.22433
0.223684
0.222522
0.221585
0.224594
0.171108
0.17034
0.181152
0.196983
0.212348
0.225184
0.23506
0.24222
0.247124
0.250235
0.251949
0.252592
0.252423
0.251664
0.250516
0.249146
0.247539
0.2455
0.243709
0.245337
0.222049
0.219841
0.228745
0.24216
0.25489
0.265135
0.27259
0.277541
0.280447
0.281753
0.281837
0.281
0.279484
0.27749
0.275197
0.272746
0.270105
0.267101
0.264382
0.264686
0.271842
0.268203
0.275157
0.286122
0.296206
0.303868
0.308921
0.311682
0.312605
0.312118
0.310574
0.308256
0.305383
0.302136
0.298675
0.295115
0.291416
0.28743
0.283778
0.28283
0.320057
0.315011
0.320004
0.32852
0.335984
0.341105
0.343801
0.344416
0.343397
0.34115
0.338007
0.334229
0.330016
0.325531
0.320912
0.316256
0.311517
0.306574
0.302013
0.299874
0.366283
0.359866
0.362919
0.369023
0.373927
0.37658
0.376992
0.37553
0.372631
0.36868
0.363988
0.358794
0.35328
0.347591
0.341849
0.336132
0.330394
0.32454
0.319108
0.31584
0.410129
0.402395
0.403555
0.407318
0.409757
0.410042
0.40827
0.404824
0.400129
0.394551
0.388378
0.38183
0.375073
0.368234
0.361419
0.354695
0.348015
0.341303
0.335047
0.330712
0.451227
0.442243
0.441586
0.443114
0.443212
0.441257
0.437424
0.432108
0.425721
0.418609
0.411041
0.403219
0.39529
0.38737
0.379549
0.37188
0.364323
0.356816
0.349788
0.344453
0.489238
0.479084
0.476712
0.476139
0.474049
0.470007
0.464258
0.457205
0.449247
0.440712
0.43185
0.422845
0.413831
0.404908
0.396156
0.387617
0.379254
0.371021
0.363276
0.357014
0.523846
0.512618
0.508657
0.506145
0.502044
0.496092
0.488592
0.479952
0.47056
0.460726
0.450683
0.440599
0.430596
0.420761
0.411162
0.401833
0.392742
0.383851
0.375454
0.368342
0.55477
0.542572
0.537171
0.532907
0.526997
0.519331
0.51026
0.500199
0.489524
0.478527
0.467428
0.456379
0.445492
0.434842
0.424487
0.414454
0.404717
0.395243
0.38626
0.378385
0.581756
0.568706
0.562032
0.556226
0.548728
0.53956
0.529116
0.517813
0.506016
0.494004
0.481982
0.470091
0.458432
0.447072
0.436058
0.425413
0.415114
0.405134
0.395638
0.387094
0.604586
0.59081
0.583049
0.575929
0.567082
0.556639
0.545032
0.532677
0.51993
0.507058
0.494255
0.481652
0.46934
0.457379
0.445809
0.434647
0.423876
0.413469
0.403538
0.394423
0.623075
0.608708
0.60006
0.591869
0.581925
0.570449
0.557897
0.54469
0.531173
0.517605
0.504169
0.49099
0.47815
0.465703
0.453682
0.442102
0.43095
0.420199
0.409913
0.400335
0.637073
0.622258
0.612934
0.603928
0.593152
0.580892
0.567625
0.553772
0.539672
0.525577
0.511662
0.498046
0.484806
0.471991
0.45963
0.447734
0.436294
0.425283
0.414727
0.404796
0.646469
0.631351
0.621572
0.612018
0.600682
0.587895
0.574149
0.559861
0.54537
0.530922
0.516685
0.502776
0.489267
0.476206
0.463616
0.451508
0.439875
0.42869
0.417953
0.407785
0.651186
0.635917
0.625908
0.616078
0.604461
0.59141
0.577422
0.562917
0.54823
0.533603
0.519205
0.505149
0.491506
0.47832
0.465616
0.453402
0.441672
0.430399
0.419571
0.409283
0.651187
0.635917
0.625909
0.616079
0.604462
0.591411
0.577423
0.562918
0.548231
0.533604
0.519206
0.50515
0.491507
0.478322
0.465617
0.453403
0.441673
0.4304
0.419572
0.409285
0.646472
0.631354
0.621575
0.612021
0.600685
0.587898
0.574152
0.559865
0.545374
0.530925
0.516689
0.502779
0.489271
0.476209
0.46362
0.451512
0.439879
0.428693
0.417957
0.407788
0.637078
0.622262
0.612939
0.603933
0.593157
0.580897
0.567631
0.553778
0.539678
0.525583
0.511668
0.498052
0.484812
0.471997
0.459636
0.44774
0.4363
0.425289
0.414734
0.404803
0.623081
0.608715
0.600067
0.591876
0.581932
0.570456
0.557905
0.544698
0.531181
0.517614
0.504178
0.490998
0.478158
0.465711
0.453691
0.442111
0.430959
0.420208
0.409922
0.400343
0.604594
0.590819
0.583059
0.575938
0.567091
0.556649
0.545042
0.532687
0.51994
0.507069
0.494266
0.481663
0.469352
0.457391
0.44582
0.434658
0.423888
0.413481
0.403549
0.394435
0.581767
0.568717
0.562044
0.556238
0.548741
0.539573
0.529129
0.517826
0.506029
0.494018
0.481995
0.470105
0.458446
0.447086
0.436072
0.425427
0.415129
0.405149
0.395653
0.387108
0.554783
0.542586
0.537185
0.532921
0.527012
0.519346
0.510276
0.500215
0.48954
0.478544
0.467444
0.456396
0.445508
0.434859
0.424504
0.414471
0.404734
0.39526
0.386277
0.378402
0.523863
0.512634
0.508674
0.506162
0.502062
0.49611
0.48861
0.479971
0.470579
0.460745
0.450702
0.440619
0.430615
0.420781
0.411182
0.401852
0.392762
0.383871
0.375473
0.368362
0.489257
0.479104
0.476732
0.476159
0.474069
0.470028
0.46428
0.457227
0.449269
0.440734
0.431872
0.422867
0.413854
0.404931
0.396179
0.38764
0.379277
0.371043
0.363299
0.357036
0.45125
0.442267
0.44161
0.443138
0.443236
0.441281
0.437449
0.432133
0.425746
0.418634
0.411067
0.403244
0.395316
0.387395
0.379574
0.371906
0.364348
0.356842
0.349813
0.344478
0.410156
0.402422
0.403582
0.407346
0.409785
0.410069
0.408298
0.404852
0.400157
0.394579
0.388407
0.381859
0.375102
0.368263
0.361448
0.354724
0.348043
0.341332
0.335076
0.33074
0.366314
0.359898
0.362951
0.369054
0.373959
0.376611
0.377024
0.375562
0.372663
0.368713
0.364021
0.358826
0.353313
0.347623
0.341881
0.336164
0.330427
0.324572
0.31914
0.315871
0.320094
0.315047
0.320041
0.328556
0.336019
0.341141
0.343837
0.344452
0.343432
0.341186
0.338043
0.334265
0.330052
0.325566
0.320948
0.316292
0.311552
0.306609
0.302048
0.299908
0.271884
0.268245
0.275199
0.286163
0.296246
0.303909
0.308961
0.311722
0.312645
0.312158
0.310614
0.308295
0.305423
0.302176
0.298715
0.295155
0.291455
0.287469
0.283816
0.282867
0.222097
0.219889
0.228792
0.242206
0.254935
0.26518
0.272635
0.277586
0.280492
0.281798
0.281881
0.281044
0.279528
0.277534
0.275241
0.272789
0.270148
0.267144
0.264424
0.264727
0.171162
0.170394
0.181205
0.197034
0.212399
0.225234
0.23511
0.242269
0.247173
0.250284
0.251998
0.25264
0.252471
0.251711
0.250563
0.249193
0.247586
0.245546
0.243755
0.245382
0.119523
0.120188
0.132839
0.15101
0.168964
0.184366
0.19665
0.206011
0.212905
0.217807
0.221133
0.223227
0.224367
0.224793
0.224733
0.224381
0.223734
0.222572
0.221634
0.224643
0.0676363
0.0697151
0.0841053
0.104511
0.12497
0.142883
0.157536
0.169067
0.177921
0.184581
0.189479
0.192974
0.195357
0.196881
0.197791
0.198307
0.198414
0.197821
0.197425
0.201915
0.0159624
0.0194219
0.0354266
0.057921
0.0807683
0.101105
0.118061
0.131707
0.14247
0.150836
0.157246
0.162068
0.1656
0.168093
0.169808
0.171003
0.171668
0.171338
0.170895
0.176482
-0.0350359
-0.030241
-0.0127719
0.0116343
0.036718
0.0593611
0.0785297
0.0942194
0.106829
0.116843
0.124707
0.130796
0.135407
0.138783
0.141164
0.142823
0.143737
0.142935
0.140156
0.143603
-0.0848992
-0.078826
-0.0600647
-0.0339548
-0.00681822
0.0179867
0.039257
0.0569022
0.0712862
0.0828838
0.0921391
0.099422
0.105017
0.109127
0.11191
0.113513
0.113838
0.112048
0.107447
0.102802
-0.133187
-0.1259
-0.106036
-0.0784566
-0.0494797
-0.0226829
0.00055881
0.02006
0.0361428
0.0492689
0.0598808
0.0683501
0.0749639
0.079926
0.0833823
0.0854621
0.0861915
0.0852191
0.0820898
0.0778119
-0.179471
-0.171043
-0.15028
-0.121491
-0.0909133
-0.062319
-0.0372544
-0.0160069
0.00169823
0.0163087
0.0282706
0.0379681
0.0457109
0.0517365
0.0562277
0.0593454
0.0612285
0.0619173
0.0613106
0.059141
-0.223347
-0.21386
-0.192413
-0.162693
-0.130781
-0.100608
-0.0738893
-0.0510201
-0.0317795
-0.0157373
-0.00244368
0.00850028
0.0174275
0.0246077
0.0302575
0.034559
0.0376914
0.0398677
0.0412133
0.0410887
-0.264448
-0.253989
-0.232079
-0.201725
-0.168767
-0.137259
-0.109078
-0.0847318
-0.0640632
-0.0466652
-0.0320896
-0.0199273
-0.00982865
-0.00150275
0.00528973
0.0107466
0.0150635
0.0185082
0.0212694
0.0226252
-0.302447
-0.291107
-0.268956
-0.238274
-0.204581
-0.172007
-0.142579
-0.116925
-0.0949589
-0.0763061
-0.0605269
-0.0472076
-0.0359884
-0.0265646
-0.0186825
-0.0121319
-0.00670508
-0.00211771
0.00179678
0.00419305
-0.337066
-0.324938
-0.302765
-0.272066
-0.237965
-0.204616
-0.17418
-0.147411
-0.1243
-0.104515
-0.0876342
-0.0732439
-0.0609799
-0.0505301
-0.0416326
-0.0340711
-0.0276314
-0.0220196
-0.0170899
-0.0138194
-0.368079
-0.355258
-0.333269
-0.302864
-0.268693
-0.234879
-0.203699
-0.176026
-0.151944
-0.131173
-0.113311
-0.0979574
-0.0847465
-0.0733642
-0.0635455
-0.0550722
-0.0477295
-0.0412171
-0.0353868
-0.0312875
-0.395319
-0.3819
-0.360289
-0.330477
-0.296577
-0.262624
-0.230979
-0.202637
-0.177777
-0.15618
-0.137479
-0.121285
-0.107243
-0.0950371
-0.084404
-0.0751256
-0.06699
-0.0596972
-0.0530843
-0.0482119
-0.418683
-0.404759
-0.383697
-0.354759
-0.321469
-0.287709
-0.255895
-0.227133
-0.201704
-0.179459
-0.160071
-0.143177
-0.128429
-0.115519
-0.104186
-0.0942129
-0.085394
-0.0774354
-0.0701588
-0.0646003
-0.43813
-0.423794
-0.403426
-0.375617
-0.343262
-0.310029
-0.27835
-0.249431
-0.223654
-0.20095
-0.181041
-0.163592
-0.148272
-0.134783
-0.122868
-0.112314
-0.102921
-0.0944068
-0.0865787
-0.0804294
-0.453685
-0.43903
-0.419473
-0.393011
-0.361893
-0.329513
-0.298277
-0.26947
-0.243578
-0.220611
-0.200353
-0.182502
-0.166749
-0.152809
-0.140432
-0.129409
-0.119551
-0.110585
-0.102309
-0.0956564
-0.465439
-0.450556
-0.431895
-0.406957
-0.377344
-0.346127
-0.315638
-0.287217
-0.261444
-0.238419
-0.217988
-0.199891
-0.183845
-0.169582
-0.156862
-0.145483
-0.135263
-0.125946
-0.117317
-0.110243
-0.473541
-0.458521
-0.440812
-0.417526
-0.389646
-0.359876
-0.330424
-0.302658
-0.277243
-0.254366
-0.23394
-0.215754
-0.199556
-0.185098
-0.172153
-0.160526
-0.150046
-0.140473
-0.131582
-0.124164
-0.478201
-0.463136
-0.446403
-0.424847
-0.398877
-0.3708
-0.342657
-0.315808
-0.290986
-0.26846
-0.248218
-0.230099
-0.213888
-0.199361
-0.186306
-0.174538
-0.163896
-0.154158
-0.145093
-0.13741
-0.479675
-0.46466
-0.4489
-0.429101
-0.405162
-0.378981
-0.352389
-0.326702
-0.302699
-0.280726
-0.260843
-0.242946
-0.226859
-0.212386
-0.199333
-0.187528
-0.176819
-0.167003
-0.15785
-0.149981
-0.478266
-0.463396
-0.448587
-0.430519
-0.408674
-0.384538
-0.359702
-0.335399
-0.312429
-0.291204
-0.271851
-0.254326
-0.238496
-0.224196
-0.211254
-0.199511
-0.188827
-0.17902
-0.169859
-0.161883
-0.474307
-0.45968
-0.445783
-0.42938
-0.409628
-0.387629
-0.364707
-0.34198
-0.32024
-0.299945
-0.281287
-0.264279
-0.248836
-0.234825
-0.222098
-0.210514
-0.199944
-0.190225
-0.181136
-0.173129
-0.468156
-0.453872
-0.440838
-0.425997
-0.408281
-0.388448
-0.367548
-0.34655
-0.326212
-0.307016
-0.289208
-0.272857
-0.257923
-0.244311
-0.231901
-0.220567
-0.210196
-0.200644
-0.191701
-0.183741
-0.460182
-0.44634
-0.434118
-0.420709
-0.404922
-0.387223
-0.368394
-0.349237
-0.330441
-0.312494
-0.295679
-0.280114
-0.265808
-0.252702
-0.240703
-0.229708
-0.219618
-0.210308
-0.201584
-0.193744
-0.450755
-0.437451
-0.425992
-0.413873
-0.399868
-0.384213
-0.367445
-0.350189
-0.33304
-0.316466
-0.300771
-0.286115
-0.272547
-0.260046
-0.24855
-0.237978
-0.228246
-0.219251
-0.210814
-0.203167
-0.440238
-0.427562
-0.416825
-0.405848
-0.393448
-0.379698
-0.364926
-0.349576
-0.334137
-0.31903
-0.304564
-0.290924
-0.278196
-0.266395
-0.255489
-0.24542
-0.236121
-0.227509
-0.219426
-0.212044
-0.42897
-0.417006
-0.406958
-0.396982
-0.385997
-0.373977
-0.36108
-0.347591
-0.333876
-0.320297
-0.307142
-0.29461
-0.282815
-0.271801
-0.261566
-0.252076
-0.243282
-0.235119
-0.227453
-0.220404
-0.417266
-0.406084
-0.396703
-0.387602
-0.377843
-0.367351
-0.356168
-0.344441
-0.332419
-0.320386
-0.308596
-0.297245
-0.286461
-0.276313
-0.266825
-0.257985
-0.249763
-0.242114
-0.234925
-0.228276
-0.405406
-0.395062
-0.386334
-0.378003
-0.36929
-0.360118
-0.350458
-0.340351
-0.329942
-0.319432
-0.309026
-0.298902
-0.289191
-0.279978
-0.271305
-0.263182
-0.255596
-0.248522
-0.241867
-0.23568
-0.393631
-0.384166
-0.376084
-0.368438
-0.360612
-0.352558
-0.344214
-0.335554
-0.326635
-0.31758
-0.308541
-0.299661
-0.291064
-0.282839
-0.27504
-0.267695
-0.260806
-0.254363
-0.248296
-0.242629
-0.382142
-0.373578
-0.36614
-0.359115
-0.352045
-0.344923
-0.33769
-0.330282
-0.322696
-0.314991
-0.307259
-0.299608
-0.29214
-0.284937
-0.278061
-0.271546
-0.265409
-0.259651
-0.254223
-0.249126
-0.3711
-0.363442
-0.356645
-0.350195
-0.343777
-0.337429
-0.331114
-0.32476
-0.31833
-0.311833
-0.305313
-0.298839
-0.292483
-0.286316
-0.280392
-0.274751
-0.269414
-0.264392
-0.259651
-0.255167
-0.360627
-0.353862
-0.347701
-0.341795
-0.335949
-0.330248
-0.324683
-0.319195
-0.313735
-0.308283
-0.302848
-0.297462
-0.29217
-0.287022
-0.282061
-0.277322
-0.272825
-0.268585
-0.264579
-0.260745
-0.350809
-0.344907
-0.339372
-0.333988
-0.328659
-0.323506
-0.318553
-0.313764
-0.309096
-0.304518
-0.300016
-0.295599
-0.291288
-0.287112
-0.283098
-0.279272
-0.275646
-0.27223
-0.269007
-0.26586
-0.341699
-0.336616
-0.331692
-0.326814
-0.321963
-0.317287
-0.31284
-0.308611
-0.304574
-0.300701
-0.296972
-0.293383
-0.28994
-0.286655
-0.283545
-0.28062
-0.277883
-0.27533
-0.272946
-0.270532
-0.333323
-0.329006
-0.324668
-0.320281
-0.315882
-0.311636
-0.307617
-0.303841
-0.3003
-0.29698
-0.293865
-0.29095
-0.288238
-0.285737
-0.283454
-0.281392
-0.279544
-0.27789
-0.276415
-0.274815
-0.325683
-0.322069
-0.318289
-0.314376
-0.310411
-0.306562
-0.302919
-0.299519
-0.29637
-0.293474
-0.290827
-0.288434
-0.286304
-0.284451
-0.282889
-0.281622
-0.280642
-0.279917
-0.279435
-0.278794
-0.318763
-0.315784
-0.312528
-0.30907
-0.305522
-0.30205
-0.298751
-0.295674
-0.292843
-0.29027
-0.287969
-0.285955
-0.284255
-0.282899
-0.281921
-0.281345
-0.281181
-0.281401
-0.282003
-0.28256
-0.312529
-0.310116
-0.307344
-0.304321
-0.301175
-0.298066
-0.295092
-0.292306
-0.289742
-0.287422
-0.28537
-0.283614
-0.282199
-0.28118
-0.280622
-0.280593
-0.281143
-0.282289
-0.284052
-0.28617
-0.306937
-0.305021
-0.302694
-0.300081
-0.297321
-0.294563
-0.2919
-0.289388
-0.287063
-0.28495
-0.283077
-0.281484
-0.280226
-0.279385
-0.279064
-0.279386
-0.28048
-0.282454
-0.285394
-0.289511
-0.301934
-0.30045
-0.298525
-0.296295
-0.293903
-0.291483
-0.289122
-0.286875
-0.284773
-0.282841
-0.281106
-0.279607
-0.278405
-0.277594
-0.277312
-0.277743
-0.279117
-0.281686
-0.285704
-0.292302
-0.297459
-0.296349
-0.294786
-0.29291
-0.290863
-0.288766
-0.286698
-0.284707
-0.282822
-0.281061
-0.279443
-0.277997
-0.276778
-0.275875
-0.275438
-0.275693
-0.276968
-0.279683
-0.28443
-0.293761
-0.293453
-0.292665
-0.291423
-0.289869
-0.288142
-0.286349
-0.284561
-0.282819
-0.281146
-0.279552
-0.278044
-0.276637
-0.275362
-0.274287
-0.273534
-0.273326
-0.274031
-0.276195
-0.280999
-0.293097
-0.289858
-0.289346
-0.288387
-0.287124
-0.285688
-0.284176
-0.282648
-0.281142
-0.279673
-0.278242
-0.276847
-0.275479
-0.274141
-0.272854
-0.271675
-0.270742
-0.270319
-0.27083
-0.273825
-0.286258
-0.286621
-0.286346
-0.285635
-0.284628
-0.283454
-0.282194
-0.280904
-0.279615
-0.278336
-0.277063
-0.275779
-0.27446
-0.273072
-0.271574
-0.269908
-0.268004
-0.265736
-0.262639
-0.257481
-0.251348
-0.283694
-0.283623
-0.283127
-0.282345
-0.2814
-0.280364
-0.279286
-0.27819
-0.277084
-0.275959
-0.274793
-0.273552
-0.272188
-0.270637
-0.268811
-0.266603
-0.263879
-0.260281
-0.25495
-0.249426
-0.281039
-0.281144
-0.280832
-0.280245
-0.279499
-0.278658
-0.277763
-0.276837
-0.275884
-0.274895
-0.273847
-0.272707
-0.271429
-0.269957
-0.268221
-0.26615
-0.26368
-0.260602
-0.256465
-0.252973
-0.278624
-0.27888
-0.278727
-0.278306
-0.277731
-0.277058
-0.276321
-0.275541
-0.274721
-0.273854
-0.272917
-0.271883
-0.270713
-0.269363
-0.267784
-0.265935
-0.263789
-0.261197
-0.257928
-0.255681
-0.276426
-0.27681
-0.276792
-0.276514
-0.276086
-0.275555
-0.274955
-0.274301
-0.273599
-0.27284
-0.272008
-0.27108
-0.270026
-0.268816
-0.267419
-0.26582
-0.264017
-0.261911
-0.259397
-0.257997
-0.274424
-0.274918
-0.275014
-0.274857
-0.274555
-0.274149
-0.273667
-0.273126
-0.272529
-0.271872
-0.271142
-0.270322
-0.269392
-0.268334
-0.267134
-0.265795
-0.264335
-0.262691
-0.260821
-0.260017
-0.272605
-0.27319
-0.273384
-0.27333
-0.273137
-0.27284
-0.272463
-0.272024
-0.271526
-0.270967
-0.270339
-0.269632
-0.268833
-0.267934
-0.266934
-0.265847
-0.264703
-0.263457
-0.262091
-0.261692
-0.270954
-0.271616
-0.271891
-0.271928
-0.271829
-0.271628
-0.271348
-0.271003
-0.2706
-0.270139
-0.269615
-0.269023
-0.268359
-0.26762
-0.266813
-0.26596
-0.265091
-0.264172
-0.263187
-0.263056
-0.269461
-0.270187
-0.270532
-0.270645
-0.27063
-0.270516
-0.270324
-0.270068
-0.269757
-0.269392
-0.268972
-0.268496
-0.267965
-0.267381
-0.266754
-0.266109
-0.265473
-0.264815
-0.264112
-0.264159
-0.268117
-0.268895
-0.269299
-0.269479
-0.269539
-0.269502
-0.269391
-0.269219
-0.268996
-0.268724
-0.268406
-0.268043
-0.267638
-0.267197
-0.266732
-0.266266
-0.265823
-0.265368
-0.264874
-0.265043
-0.266913
-0.267734
-0.268188
-0.268427
-0.268551
-0.268585
-0.268548
-0.268454
-0.268313
-0.268129
-0.267907
-0.267649
-0.267361
-0.267048
-0.266724
-0.266407
-0.26612
-0.265824
-0.265486
-0.265741
-0.265841
-0.266699
-0.267196
-0.267485
-0.267666
-0.267763