/*--------------------------------*- C++ -*----------------------------------*\
  =========                 |
  \\      /  F ield         | OpenFOAM: The Open Source CFD Toolbox
   \\    /   O peration     | Website:  https://openfoam.org
    \\  /    A nd           | Version:  6.0
     \\/     M anipulation  |
\*---------------------------------------------------------------------------*/
FoamFile
{
    version     2.0;
    format      ascii;
    class       surfaceScalarField;
    location    "12.2";
    object      phi;
}
// * * * * * * * * * * * * * * * * * * * * * * * * * * * * * * * * * * * * * //

dimensions      [0 3 -1 0 0 0 0];

internalField   nonuniform List<scalar> 
15760
(
-3.64546e-06
3.69731e-06
-5.18496e-08
-1.27672e-05
9.26906e-06
-1.47352e-07
-2.60338e-05
1.35012e-05
-2.34637e-07
-4.24179e-05
1.6697e-05
-3.1288e-07
-6.11304e-05
1.90945e-05
-3.81999e-07
-8.15798e-05
2.08921e-05
-4.42695e-07
-0.000103339
2.22558e-05
-4.96149e-07
-0.000126121
2.33258e-05
-5.43763e-07
-0.000149755
2.42206e-05
-5.86962e-07
-0.000174169
2.5041e-05
-6.27067e-07
-0.000199376
2.58717e-05
-6.65204e-07
-0.000225457
2.67835e-05
-7.02266e-07
-0.000252551
2.78335e-05
-7.38898e-07
-0.000280842
2.90659e-05
-7.75515e-07
-0.000310542
3.05122e-05
-8.12327e-07
-0.000341884
3.21914e-05
-8.49363e-07
-0.000375107
3.41098e-05
-8.86494e-07
-0.000410444
3.62601e-05
-9.23483e-07
-0.00044811
3.86268e-05
-9.59994e-07
4.12039e-05
-9.95793e-07
-0.000488319
-3.59039e-06
7.28771e-06
-1.25817e-05
1.82604e-05
-2.56575e-05
2.65771e-05
-4.17959e-05
3.28354e-05
-6.02073e-05
3.75059e-05
-8.02958e-05
4.09806e-05
-0.000101628
4.35876e-05
-0.000123905
4.56036e-05
-0.000146948
4.72628e-05
-0.000170671
4.87645e-05
-0.000195077
5.02772e-05
-0.000220235
5.19422e-05
-0.000246277
5.3875e-05
-0.000273377
5.61662e-05
-0.000301747
5.88816e-05
-0.000331618
6.20625e-05
-0.000363233
6.57251e-05
-0.000396832
6.98587e-05
-0.000432639
7.44343e-05
7.94404e-05
-0.000470876
-3.48583e-06
1.07735e-05
-1.22285e-05
2.7003e-05
-2.49394e-05
3.9288e-05
-4.06064e-05
4.85024e-05
-5.84393e-05
5.53388e-05
-7.78337e-05
6.0375e-05
-9.83418e-05
6.40957e-05
-0.000119648
6.69096e-05
-0.000141549
6.91638e-05
-0.000163938
7.11542e-05
-0.000186794
7.3133e-05
-0.000210165
7.53134e-05
-0.000234163
7.78726e-05
-0.000258949
8.09523e-05
-0.000284726
8.4659e-05
-0.000311727
8.90635e-05
-0.000340202
9.41995e-05
-0.000370403
0.00010006
-0.000402575
0.000106607
0.000113825
-0.00043696
-3.33986e-06
1.41134e-05
-1.17326e-05
3.53958e-05
-2.39278e-05
5.14831e-05
-3.89267e-05
6.35013e-05
-5.5938e-05
7.23502e-05
-7.4346e-05
7.8783e-05
-9.3683e-05
8.34327e-05
-0.000113607
8.68337e-05
-0.000133884
8.94409e-05
-0.000154374
9.1644e-05
-0.000175019
9.37778e-05
-0.000195835
9.61291e-05
-0.000216903
9.89407e-05
-0.000238363
0.000102413
-0.000260405
0.000106701
-0.000283259
0.000111918
-0.000307186
0.000118126
-0.000332461
0.000125335
-0.000359361
0.000133507
0.000142625
-0.000388162
-3.1634e-06
1.72768e-05
-1.11282e-05
4.33606e-05
-2.26881e-05
6.3043e-05
-3.68608e-05
7.7674e-05
-5.28545e-05
8.83438e-05
-7.00399e-05
9.59684e-05
-8.79256e-05
0.000101318
-0.000106138
0.000105046
-0.000124403
0.000107706
-0.000142536
0.000109778
-0.000160434
0.000111676
-0.000178067
0.000113761
-0.000195473
0.000116347
-0.00021276
0.000119699
-0.000230095
0.000124037
-0.000247705
0.000129527
-0.000265859
0.000136281
-0.000284867
0.000144342
-0.000305052
0.000153692
0.00016432
-0.000326747
-2.96893e-06
2.02457e-05
-1.0454e-05
5.08457e-05
-2.12952e-05
7.38842e-05
-3.45283e-05
9.09071e-05
-4.93618e-05
0.000103177
-6.51531e-05
0.00011176
-8.13856e-05
0.000117551
-9.76494e-05
0.000121309
-0.000113627
0.000123683
-0.00012908
0.000125231
-0.000143849
0.000126445
-0.000157844
0.000127756
-0.00017105
0.000129553
-0.000183525
0.000132174
-0.000195403
0.000135915
-0.000206896
0.00014102
-0.000218287
0.000147672
-0.000229921
0.000155977
-0.00024219
0.000165961
0.000177642
-0.000255512
-2.769e-06
2.30147e-05
-9.74913e-06
5.78258e-05
-1.98241e-05
8.39592e-05
-3.20485e-05
0.000103132
-4.56332e-05
0.000116762
-5.99241e-05
0.000126051
-7.43809e-05
0.000132008
-8.85578e-05
0.000135486
-0.00010209
0.000137215
-0.000114683
0.000137824
-0.000126109
0.000137871
-0.000136209
0.000137857
-0.000144896
0.000138239
-0.000152163
0.000139441
-0.000158093
0.000141845
-0.000162869
0.000145796
-0.000166777
0.00015158
-0.000170205
0.000159405
-0.000173631
0.000169387
0.000181606
-0.000177596
-2.57474e-06
2.55895e-05
-9.04789e-06
6.4299e-05
-1.83405e-05
9.32518e-05
-2.95253e-05
0.000114316
-4.18183e-05
0.000129055
-5.45585e-05
0.000138791
-6.71862e-05
0.000144635
-7.92241e-05
0.000147524
-9.02621e-05
0.000148253
-9.99477e-05
0.00014751
-0.000107983
0.000145906
-0.000114127
0.000144001
-0.000118207
0.000142319
-0.000120129
0.000141363
-0.000119903
0.00014162
-0.000117659
0.000143553
-0.00011367
0.000147591
-0.000108361
0.000154096
-0.000102313
0.000163339
0.000175529
-9.62353e-05
-2.39448e-06
2.79839e-05
-8.37564e-06
7.02802e-05
-1.68916e-05
0.000101768
-2.70318e-05
0.000124457
-3.80205e-05
0.000140044
-4.91957e-05
0.000149966
-5.99865e-05
0.000155426
-6.98923e-05
0.00015743
-7.84653e-05
0.000156826
-8.53002e-05
0.000154345
-9.00294e-05
0.000150636
-9.23268e-05
0.000146298
-9.19196e-05
0.000141912
-8.86095e-05
0.000138053
-8.23019e-05
0.000135312
-7.30432e-05
0.000134294
-6.10604e-05
0.000135608
-4.67994e-05
0.000139835
-3.09508e-05
0.000147491
0.00015902
-1.44427e-05
-2.23278e-06
3.02167e-05
-7.74532e-06
7.57927e-05
-1.54996e-05
0.000109522
-2.45986e-05
0.000133556
-3.42773e-05
0.000149722
-4.388e-05
0.000159569
-5.28348e-05
0.000164381
-6.06294e-05
0.000165225
-6.67916e-05
0.000162988
-7.08754e-05
0.000158429
-7.24531e-05
0.000152213
-7.11169e-05
0.000144962
-6.64906e-05
0.000137285
-5.82538e-05
0.000129816
-4.61803e-05
0.000123238
-3.0192e-05
0.000118306
-1.04255e-05
0.000115841
1.26924e-05
0.000116717
3.83714e-05
0.000121812
0.000131975
6.54165e-05
-2.08994e-06
3.23066e-05
-7.1558e-06
8.08586e-05
-1.41576e-05
0.000116524
-2.22061e-05
0.000141604
-3.05483e-05
0.000158065
-3.85409e-05
0.000167561
-4.56209e-05
0.000171461
-5.12787e-05
0.000170883
-5.50349e-05
0.000166744
-5.64212e-05
0.000159815
-5.49689e-05
0.000150761
-5.02044e-05
0.000140198
-4.1657e-05
0.000128738
-2.88807e-05
0.00011704
-1.14976e-05
0.000105855
1.07353e-05
9.60728e-05
3.78291e-05
8.87474e-05
6.94387e-05
8.51074e-05
0.000104714
8.65368e-05
9.45293e-05
0.00014216
-1.9622e-06
3.42689e-05
-6.59215e-06
8.54885e-05
-1.28297e-05
0.000122762
-1.97843e-05
0.000148559
-2.67127e-05
0.000164993
-3.29865e-05
0.000173835
-3.80597e-05
0.000176534
-4.14379e-05
0.000174261
-4.2652e-05
0.000167959
-4.12348e-05
0.000158398
-3.67037e-05
0.00014623
-2.85488e-05
0.000132043
-1.62318e-05
0.000116421
8.00081e-07
0.000100008
2.30763e-05
8.35791e-05
5.10299e-05
6.81192e-05
8.48772e-05
5.49001e-05
0.000124438
4.55465e-05
0.000168882
4.20925e-05
4.69914e-05
0.00021642
-1.84253e-06
3.61114e-05
-6.02791e-06
8.96739e-05
-1.1455e-05
0.000128189
-1.7219e-05
0.000154323
-2.25781e-05
0.000170352
-2.69158e-05
0.000178173
-2.97042e-05
0.000179323
-3.04713e-05
0.000175028
-2.87718e-05
0.000166259
-2.41613e-05
0.000153787
-1.61742e-05
0.000138243
-4.30455e-06
0.000120173
1.20066e-05
0.00010011
3.33713e-05
7.86431e-05
6.04331e-05
5.65172e-05
9.38049e-05
3.47474e-05
0.000133941
1.47638e-05
0.000180914
-1.42655e-06
0.00023404
-1.10329e-05
-1.02726e-05
0.000291304
-1.72184e-06
3.78332e-05
-5.42882e-06
9.33809e-05
-9.95533e-06
0.000132715
-1.43639e-05
0.000158731
-1.78997e-05
0.000173888
-1.99461e-05
0.000180219
-1.99853e-05
0.000179362
-1.75634e-05
0.000172606
-1.22624e-05
0.000160958
-3.67354e-06
0.000145198
8.62554e-06
0.000125944
2.50943e-05
0.000103704
4.62511e-05
7.89529e-05
7.269e-05
5.22042e-05
0.000105085
2.41226e-05
0.000144156
-4.32375e-06
0.000190568
-3.16489e-05
0.0002447
-5.55585e-05
0.000306168
-7.25003e-05
-7.70195e-05
0.000372915
-1.59042e-06
3.94237e-05
-4.75718e-06
9.65476e-05
-8.2439e-06
0.000136202
-1.10569e-05
0.000161544
-1.2406e-05
0.000175237
-1.16534e-05
0.000179467
-8.27075e-06
0.000175979
-1.80514e-06
0.00016614
8.14741e-06
0.000151005
2.19635e-05
0.000131382
4.00119e-05
0.000107895
6.26737e-05
8.10424e-05
9.03666e-05
5.126e-05
0.000123572
1.89984e-05
0.000162866
-1.51713e-05
0.00020893
-5.03876e-05
0.00026251
-8.52292e-05
0.000324246
-0.000117294
0.000394184
-0.000142439
-0.000153373
0.000470538
-1.43902e-06
4.08627e-05
-3.97544e-06
9.9084e-05
-6.23313e-06
0.00013846
-7.13398e-06
0.000162445
-5.82371e-06
0.000173927
-1.61299e-06
0.000175256
6.06853e-06
0.000168298
1.77051e-05
0.000154504
3.37168e-05
0.000134994
5.44735e-05
0.000110626
8.0304e-05
8.20647e-05
0.000111506
4.98406e-05
0.000148358
1.44073e-05
0.000191149
-2.37917e-05
0.00024021
-6.42323e-05
0.000295976
-0.000106154
0.000359025
-0.000148278
0.000430036
-0.000188305
0.000509474
-0.000221877
-0.000240092
0.000596193
-1.25931e-06
4.2122e-05
-3.04792e-06
0.000100873
-3.83885e-06
0.00013925
-2.43821e-06
0.000161044
2.10578e-06
0.000169383
1.05704e-05
0.000166791
2.36078e-05
0.00015526
4.17762e-05
0.000136335
6.55561e-05
0.000111214
9.53544e-05
8.08274e-05
0.0001315
4.59188e-05
0.000174236
7.10499e-06
0.000223709
-3.5066e-05
0.000279976
-8.00582e-05
0.000343022
-0.000127279
0.00041283
-0.000175961
0.000489472
-0.00022492
0.000573227
-0.00027206
0.000664595
-0.000313245
-0.000338854
0.000763358
-1.04343e-06
4.31654e-05
-1.93988e-06
0.000101769
-9.7924e-07
0.00013829
3.18059e-06
0.000156884
1.1624e-05
0.000160939
2.52546e-05
0.000153161
4.48482e-05
0.000135667
7.10826e-05
0.000110101
0.000104548
7.77487e-05
0.00014574
3.96352e-05
0.000195044
-3.38509e-06
0.000252704
-5.05552e-05
0.00031879
-0.000101152
0.000393163
-0.000154431
0.00047545
-0.000209566
0.000565064
-0.000265575
0.000661287
-0.000321144
0.000763448
-0.000374221
0.000871213
-0.00042101
-0.000453015
0.000985374
-7.82769e-07
4.39482e-05
-6.14124e-07
0.0001016
2.43106e-06
0.000135245
9.87462e-06
0.000149441
2.29669e-05
0.000147847
4.27734e-05
0.000133354
7.02306e-05
0.000108209
0.000106174
7.41581e-05
0.000151342
3.25809e-05
0.000206364
-1.53872e-05
0.000271734
-6.87549e-05
0.000347767
-0.000126588
0.000434551
-0.000187936
0.00053188
-0.000251759
0.000639173
-0.00031686
0.000755392
-0.000381794
0.000878978
-0.00044473
0.00100785
-0.000503096
0.00113969
-0.00055285
-0.000588813
0.00127549
-4.66321e-07
4.44145e-05
9.73477e-07
0.000100161
6.48936e-06
0.000129729
1.78113e-05
0.000138119
3.63841e-05
0.000129274
6.34626e-05
0.000106276
0.000100167
7.15047e-05
0.000147508
2.68169e-05
0.000206386
-2.62967e-05
0.000277572
-8.6573e-05
0.000361682
-0.000152865
0.000459146
-0.000224052
0.000570171
-0.000298961
0.000694711
-0.000376299
0.000832419
-0.000454568
0.000982577
-0.000531952
0.00114392
-0.000606068
0.00131396
-0.000673144
0.00148645
-0.000725338
-0.000744469
0.00164211
-7.99877e-08
4.44945e-05
2.87676e-06
9.72039e-05
1.13107e-05
0.000121295
2.71831e-05
0.000122247
5.21537e-05
0.000104304
8.76795e-05
7.07498e-05
0.000135066
2.4118e-05
0.000195482
-3.35994e-05
0.000269949
-0.000100764
0.000359317
-0.00017594
0.000464237
-0.000257786
0.000585152
-0.000344967
0.000722304
-0.000436113
0.000875789
-0.000529784
0.0010457
-0.000624478
0.00123239
-0.000718643
0.00143701
-0.000810692
0.00166278
-0.000898911
0.001919
-0.000981554
-0.0010528
0.00222732
3.96754e-07
4.40977e-05
5.16502e-06
9.24357e-05
1.70346e-05
0.000109425
3.82138e-05
0.000101067
7.0586e-05
7.19314e-05
0.000115805
2.55313e-05
0.00017533
-3.54075e-05
0.000250427
-0.000108696
0.000342133
-0.00019247
0.000451222
-0.000285029
0.000578167
-0.000384731
0.000723132
-0.000489932
0.000885985
-0.000598966
0.00106637
-0.000710167
0.00126381
-0.000821924
0.00147794
-0.000932773
0.00170877
-0.00104152
0.00195721
-0.00114735
0.00222554
-0.00124989
-0.00134102
0.00251377
9.86315e-07
4.31114e-05
7.91416e-06
8.55078e-05
2.38119e-05
9.35275e-05
5.11399e-05
7.37394e-05
9.19971e-05
3.10742e-05
0.000148201
-3.06724e-05
0.000221299
-0.000108506
0.000312538
-0.000199935
0.000422807
-0.000302739
0.00055258
-0.000414802
0.000701872
-0.000534023
0.000870232
-0.000658291
0.00105677
-0.000785499
0.0012602
-0.000913606
0.00147901
-0.00104073
0.00171148
-0.00116524
0.00195586
-0.0012859
0.00221042
-0.00140191
0.00247335
-0.00151281
-0.00161064
0.00274296
1.71407e-06
4.13974e-05
1.12052e-05
7.60167e-05
3.17964e-05
7.29363e-05
6.61894e-05
3.93464e-05
0.000116667
-1.94035e-05
0.000185144
-9.91493e-05
0.000273141
-0.000196503
0.000381718
-0.000308512
0.000511389
-0.00043241
0.000662056
-0.000565468
0.000832973
-0.000704941
0.00102277
-0.000848084
0.00122949
-0.000992225
0.00145075
-0.00113487
0.00168382
-0.00127379
0.00192575
-0.00140718
0.00217351
-0.00153366
0.00242397
-0.00165237
0.00267402
-0.00176286
-0.00185894
0.00292232
2.60519e-06
3.87922e-05
1.51149e-05
6.35069e-05
4.1125e-05
4.69263e-05
8.35457e-05
-3.07429e-06
0.00014478
-8.06379e-05
0.000226729
-0.000181098
0.000330716
-0.00030049
0.000457386
-0.000435182
0.000606601
-0.000581625
0.000777393
-0.00073626
0.00096797
-0.000895518
0.0011758
-0.00105591
0.00139775
-0.00121418
0.0016303
-0.00136741
0.00186968
-0.00151318
0.00211214
-0.00164963
0.002354
-0.00177552
0.00259178
-0.00189015
0.00282232
-0.0019934
-0.00208124
0.00304462
3.6821e-06
3.51101e-05
1.97066e-05
4.74824e-05
5.18977e-05
1.47352e-05
0.000103311
-5.4488e-05
0.000176365
-0.000153692
0.000272781
-0.000277513
0.000393455
-0.000421165
0.000538335
-0.000580061
0.000706326
-0.000749617
0.000895303
-0.000925238
0.00110221
-0.00110242
0.00132325
-0.00127696
0.00155417
-0.0014451
0.00179052
-0.00160375
0.00202792
-0.00175058
0.00226233
-0.00188404
0.00249014
-0.00200333
0.00270833
-0.00210834
0.00291448
-0.00219955
-0.00227498
0.00310821
4.96238e-06
3.01477e-05
2.50226e-05
2.74222e-05
6.41602e-05
-2.44024e-05
0.000125477
-0.000115804
0.000211248
-0.000239463
0.00032279
-0.000389055
0.000460289
-0.000558665
0.000622677
-0.000742448
0.000807606
-0.000934547
0.00101158
-0.00112921
0.00123018
-0.00132103
0.00145845
-0.00150523
0.00169125
-0.0016779
0.00192364
-0.00183614
0.00215118
-0.00197812
0.00237013
-0.00210299
0.00257759
-0.00221079
0.00277149
-0.00230224
0.00295059
-0.00237865
-0.00243969
0.00311531
6.45725e-06
2.36904e-05
3.10779e-05
2.80151e-06
7.78907e-05
-7.12152e-05
0.000149896
-0.00018781
0.000249015
-0.000338582
0.000375877
-0.000515917
0.000529633
-0.00071242
0.000707884
-0.000920699
0.000906799
-0.00113346
0.00112141
-0.00134382
0.00134606
-0.00154568
0.00157491
-0.00173407
0.0018024
-0.00190539
0.00202365
-0.0020574
0.00223473
-0.00218921
0.00243278
-0.00230104
0.00261599
-0.002394
0.00278356
-0.00246981
0.00293547
-0.00253056
-0.00257722
0.00307299
8.17071e-06
1.55197e-05
3.78569e-05
-2.68847e-05
9.29908e-05
-0.000126349
0.000176275
-0.000271094
0.000289006
-0.000451312
0.0004308
-0.000657711
0.000599439
-0.00088106
0.000790939
-0.0011122
0.000999873
-0.0013424
0.00121991
-0.00156386
0.00144445
-0.00177022
0.00166726
-0.00195688
0.00188292
-0.00212105
0.00208721
-0.00226169
0.00227721
-0.00237921
0.00245127
-0.0024751
0.00260888
-0.00255161
0.00275044
-0.00261137
0.00287702
-0.00265714
-0.00269078
0.00299058
1.0099e-05
5.42075e-06
4.53103e-05
-6.2096e-05
0.000109281
-0.00019032
0.000204166
-0.000365979
0.000330318
-0.000577464
0.000485995
-0.000813389
0.000667318
-0.00106238
0.000868568
-0.00131345
0.0010828
-0.00155663
0.00130262
-0.00178368
0.00152099
-0.00198859
0.00173185
-0.00216773
0.00193053
-0.00231973
0.00211393
-0.00244508
0.00228043
-0.00254571
0.00242972
-0.00262439
0.0025625
-0.00268439
0.00268017
-0.00272904
0.00278454
-0.00276151
-0.00278419
0.00287794
1.22301e-05
-6.80932e-06
5.33541e-05
-0.00010322
0.000126499
-0.000263465
0.000232974
-0.000472454
0.000371839
-0.000716329
0.000539662
-0.000981212
0.000730705
-0.00125343
0.000937539
-0.00152028
0.00115197
-0.00177106
0.00136605
-0.00199775
0.00157287
-0.00219541
0.00176715
-0.00236202
0.00194543
-0.00249801
0.00210599
-0.00260565
0.00224861
-0.00268833
0.00237419
-0.00274997
0.00248438
-0.00279458
0.00258124
-0.00282589
0.00266694
-0.00284722
-0.00286115
0.00274391
1.45432e-05
-2.13526e-05
6.18687e-05
-0.000150546
0.000144305
-0.000345901
0.000261975
-0.000590124
0.000412294
-0.000866647
0.00058988
-0.0011588
0.000787079
-0.00145062
0.000994968
-0.00172817
0.00120458
-0.00198067
0.00140798
-0.00220115
0.00159902
-0.00238646
0.00177366
-0.00253666
0.00192991
-0.00265425
0.00206748
-0.00274322
0.0021874
-0.00280825
0.00229151
-0.00285408
0.00238206
-0.00288513
0.00246143
-0.00290526
0.00253187
-0.00291765
-0.00292489
0.00259561
1.70086e-05
-3.83612e-05
7.06996e-05
-0.000204237
0.000162285
-0.000437486
0.000290343
-0.000718183
0.000450324
-0.00102663
0.000634749
-0.00134322
0.000834175
-0.00165005
0.00103859
-0.00193259
0.00123884
-0.00218091
0.00142762
-0.00238993
0.00160003
-0.00255887
0.00175354
-0.00269017
0.00188767
-0.00278838
0.00200342
-0.00285898
0.00210279
-0.00290761
0.0021882
-0.0029395
0.00226221
-0.00295914
0.00232718
-0.00297023
0.00238525
-0.00297572
-0.00297797
0.00243833
1.95868e-05
-5.7948e-05
7.96598e-05
-0.00026431
0.000179967
-0.000537793
0.00031719
-0.000855407
0.000484572
-0.00119401
0.000672543
-0.0015312
0.000870184
-0.00184769
0.00106695
-0.00212935
0.0012541
-0.00236806
0.0014255
-0.00256134
0.0015778
-0.00271116
0.00171005
-0.00282242
0.00182311
-0.00290145
0.00191904
-0.0029549
0.00200042
-0.00298899
0.00206997
-0.00300905
0.00213025
-0.00301941
0.00218346
-0.00302344
0.00223145
-0.00302371
-0.0030223
0.00227578
2.22293e-05
-8.01773e-05
8.85349e-05
-0.000330615
0.000196842
-0.0006461
0.000341621
-0.00100019
0.000513781
-0.00136617
0.000701844
-0.00171926
0.000893886
-0.00203973
0.00107944
-0.00231491
0.00125075
-0.00253937
0.00140321
-0.0027138
0.00153511
-0.00284306
0.00164696
-0.00293427
0.00174074
-0.00299523
0.00181917
-0.00303333
0.00188516
-0.00305497
0.00194142
-0.00306532
0.00199034
-0.00306833
0.00203385
-0.00306695
0.00207348
-0.00306334
-0.00305926
0.00211043
2.48795e-05
-0.000105057
9.70905e-05
-0.000402826
0.000212387
-0.000761397
0.000362786
-0.00115059
0.000536883
-0.00154027
0.000721641
-0.00190402
0.000904708
-0.0022228
0.00107629
-0.00248649
0.00123004
-0.00269312
0.00136304
-0.00284681
0.00147516
-0.00295518
0.00156813
-0.00302725
0.00164472
-0.00307182
0.00170801
-0.00309662
0.00176094
-0.00310791
0.00180609
-0.00311046
0.00184552
-0.00310777
0.00188087
-0.0031023
0.00191335
-0.00309582
-0.00308978
0.00194387
2.74742e-05
-0.000132531
0.000105082
-0.000480434
0.000226095
-0.00088241
0.000379938
-0.00130443
0.000553073
-0.0017134
0.000731384
-0.00208233
0.000902696
-0.00239411
0.00105838
-0.00264217
0.00119377
-0.00282851
0.00130763
-0.00296067
0.00140119
-0.00304874
0.00147713
-0.00310318
0.00153865
-0.00313334
0.00158895
-0.00314692
0.00163083
-0.00314978
0.00166656
-0.0031462
0.00169792
-0.00313913
0.00172622
-0.00313059
0.00175239
-0.00312199
-0.00311449
0.00177709
2.99461e-05
-0.000162477
0.000112269
-0.000562757
0.000237505
-0.00100765
0.000392479
-0.0014594
0.000561846
-0.00188277
0.000730977
-0.00225146
0.000888431
-0.00255157
0.00102711
-0.00278085
0.0011441
-0.0029455
0.00123971
-0.00305628
0.00131628
-0.00312531
0.00137707
-0.00316397
0.0014255
-0.00318178
0.00146466
-0.00318607
0.00149708
-0.0031822
0.00152471
-0.00317383
0.00154901
-0.00316343
0.00157101
-0.00315259
0.00159142
-0.0031424
-0.00313378
0.00161071
3.22266e-05
-0.000194704
0.000118422
-0.000648952
0.000246227
-0.00113545
0.000399991
-0.00161317
0.000563015
-0.00204579
0.00072073
-0.00240917
0.000862898
-0.00269373
0.000984151
-0.0029021
0.00108327
-0.00304462
0.00116188
-0.00313489
0.00122311
-0.00318654
0.00127056
-0.00321142
0.00130762
-0.00321884
0.00133714
-0.00321559
0.00136134
-0.00320639
0.00138183
-0.00319433
0.00139978
-0.00318137
0.00141598
-0.00316879
0.00143098
-0.00315739
-0.0031479
0.0014451
3.42489e-05
-0.000228953
0.00012334
-0.000738043
0.000251962
-0.00126407
0.000402254
-0.00176346
0.00055668
-0.00220022
0.000701281
-0.00255377
0.000827349
-0.0028198
0.000931304
-0.00300606
0.00101346
-0.00312678
0.00107648
-0.0031979
0.001124
-0.00323406
0.00115971
-0.00324713
0.00118683
-0.00324596
0.00120789
-0.00323666
0.00122478
-0.00322328
0.00123881
-0.00320835
0.00125088
-0.00319345
0.00126162
-0.00317953
0.00127142
-0.00316719
-0.00315699
0.00128051
3.59551e-05
-0.000264908
0.000126865
-0.000828953
0.000254529
-0.00139174
0.000399249
-0.00190818
0.000543211
-0.00234418
0.000673518
-0.00268408
0.00078319
-0.00292947
0.000870372
-0.00309324
0.000936682
-0.00319309
0.000985531
-0.00324675
0.00102082
-0.00326935
0.00104617
-0.00327248
0.00106449
-0.00326428
0.001078
-0.00325017
0.00108824
-0.00323352
0.00109627
-0.00321638
0.00110279
-0.00319997
0.00110826
-0.003185
0.00111299
-0.00317192
-0.00316112
0.00111713
3.72842e-05
-0.000302192
0.000128861
-0.00092053
0.000253821
-0.0015167
0.000391096
-0.00204545
0.000523124
-0.00247621
0.000638421
-0.00279938
0.000731809
-0.00302286
0.000803003
-0.00316444
0.000854666
-0.00324475
0.000890701
-0.00328279
0.000915068
-0.00329372
0.000931163
-0.00328857
0.000941592
-0.00327471
0.000948213
-0.00325679
0.000952283
-0.00323759
0.000954627
-0.00321873
0.000955786
-0.00320113
0.000956116
-0.00318533
0.000955841
-0.00317164
-0.00316035
0.000955071
3.81949e-05
-0.000340387
0.000129258
-0.00101159
0.000249865
-0.0016373
0.000378092
-0.00217368
0.000497108
-0.00259522
0.000597079
-0.00289935
0.000674593
-0.00310038
0.000730728
-0.00322057
0.000768936
-0.00328296
0.000793379
-0.00330723
0.000807922
-0.00330826
0.000815667
-0.00329632
0.000818879
-0.00327792
0.000819095
-0.00325701
0.000817316
-0.00323581
0.000814181
-0.00321559
0.000810107
-0.00319705
0.000805365
-0.00318059
0.000800127
-0.0031664
-0.0031547
0.000794469
3.86534e-05
-0.00037904
0.000128026
-0.00110097
0.00024277
-0.00175205
0.000360632
-0.00229154
0.000465917
-0.00270051
0.000550563
-0.002984
0.000612812
-0.00316262
0.000654875
-0.00326263
0.000680747
-0.00330883
0.000694667
-0.00332115
0.00070029
-0.00331389
0.000700389
-0.00329642
0.00069689
-0.00327442
0.000691044
-0.00325116
0.000683636
-0.0032284
0.000675156
-0.00320711
0.000665923
-0.00318782
0.000656149
-0.00317082
0.000645966
-0.00315622
-0.00314416
0.000635432
3.86382e-05
-0.000417678
0.00012518
-0.00118751
0.00023272
-0.00185959
0.000339188
-0.00239801
0.000430331
-0.00279165
0.000499894
-0.00305356
0.000547606
-0.00321034
0.000576575
-0.0032916
0.000591126
-0.00332338
0.000595431
-0.00332545
0.000592862
-0.00331132
0.000585852
-0.00328941
0.000576012
-0.00326458
0.000564344
-0.00323949
0.000551455
-0.00321551
0.000537715
-0.00319337
0.000523368
-0.00317347
0.000508583
-0.00315603
0.000493466
-0.0031411
-0.00312876
0.000478064
3.81395e-05
-0.000455818
0.000120775
-0.00127014
0.000219958
-0.00195877
0.00031427
-0.00249232
0.000391121
-0.0028685
0.000446013
-0.00310845
0.000479971
-0.00324429
0.000496775
-0.00330841
0.0005009
-0.00332751
0.000496342
-0.00332089
0.000486156
-0.00330113
0.000472443
-0.00327569
0.000456529
-0.00324867
0.000439205
-0.00322217
0.000420931
-0.00319724
0.000401985
-0.00317443
0.000382553
-0.00315404
0.000362769
-0.00313625
0.000342725
-0.00312106
-0.0031085
0.000322463
3.71595e-05
-0.000492977
0.0001149
-0.00134788
0.000204766
-0.00204864
0.000286405
-0.00257396
0.000349018
-0.00293112
0.000389767
-0.0031492
0.000410763
-0.00326529
0.000416254
-0.0033139
0.000410723
-0.00332198
0.000397919
-0.00330809
0.000380563
-0.00328378
0.000360446
-0.00325557
0.000338646
-0.00322687
0.00031578
-0.0031993
0.000292186
-0.00317365
0.000268069
-0.00315031
0.000243568
-0.00312954
0.000218794
-0.00311147
0.000193829
-0.00309609
-0.00308339
0.000168717
3.57104e-05
-0.000528688
0.000107668
-0.00141984
0.000187452
-0.00212842
0.000256113
-0.00264262
0.000304703
-0.00297971
0.000331902
-0.0031764
0.000340704
-0.00327409
0.000335649
-0.00330884
0.000321115
-0.00330744
0.000300558
-0.00328753
0.000276375
-0.00325959
0.000250071
-0.00322927
0.000222517
-0.00319932
0.000194183
-0.00317097
0.000165313
-0.00314478
0.000136048
-0.00312104
0.000106491
-0.00309998
7.67327e-05
-0.00308172
4.68547e-05
-0.00306622
-0.00305344
1.69055e-05
3.38141e-05
-0.000562502
9.92143e-05
-0.00148524
0.000168331
-0.00219754
0.000223891
-0.00269818
0.00025879
-0.0030146
0.000273065
-0.00319067
0.000270399
-0.00327143
0.000255475
-0.00329392
0.000232484
-0.00328445
0.000204567
-0.00325962
0.000173812
-0.00322884
0.000141476
-0.00319693
0.000108255
-0.0031661
7.45013e-05
-0.00313722
4.03832e-05
-0.00311066
5.9873e-06
-0.00308665
-2.86167e-05
-0.00306538
-6.33516e-05
-0.00304698
-9.8134e-05
-0.00303143
-0.00301867
-0.000132903
3.15001e-05
-0.000594002
8.96855e-05
-0.00154343
0.00014772
-0.00225557
0.000190206
-0.00274067
0.000211829
-0.00303623
0.000213812
-0.00319266
0.000200352
-0.00325797
0.000176149
-0.00326972
0.000145152
-0.00325345
0.000110185
-0.00322465
7.30472e-05
-0.0031917
3.47831e-05
-0.00315867
-4.05288e-06
-0.00312726
-4.31993e-05
-0.00309807
-8.25512e-05
-0.00307131
-0.000122068
-0.00304713
-0.000161711
-0.00302574
-0.000201416
-0.00300728
-0.000241093
-0.00299176
-0.0029791
-0.000280662
2.88045e-05
-0.000622806
7.92362e-05
-0.00159386
0.000125927
-0.00230226
0.000155487
-0.00277023
0.000164307
-0.00304505
0.000154619
-0.00318297
0.000130979
-0.00323433
9.80105e-05
-0.00323675
5.93826e-05
-0.00321483
1.76054e-05
-0.00318287
-2.578e-05
-0.00314832
-6.99078e-05
-0.00311454
-0.000114336
-0.00308283
-0.00015887
-0.00305353
-0.000203455
-0.00302672
-0.000248091
-0.00300249
-0.000292774
-0.00298105
-0.000337452
-0.0029626
-0.000382021
-0.00294719
-0.00293474
-0.000426377
2.57682e-05
-0.000648575
6.80237e-05
-0.00163611
0.000103243
-0.00233748
0.000120126
-0.00278711
0.000116649
-0.00304157
9.58931e-05
-0.00316221
6.26343e-05
-0.00320107
2.13448e-05
-0.00319546
-2.46055e-05
-0.00316888
-7.30057e-05
-0.00313447
-0.000122545
-0.00309878
-0.000172506
-0.00306458
-0.00022253
-0.00303281
-0.000272471
-0.00300359
-0.000322309
-0.00297688
-0.000372081
-0.00295272
-0.000421818
-0.00293132
-0.000471491
-0.00291292
-0.000520979
-0.0028977
-0.00288558
-0.00057014
2.24359e-05
-0.000671011
5.62043e-05
-0.00166988
7.99455e-05
-0.00236122
8.44758e-05
-0.00279164
6.92318e-05
-0.00302633
3.79833e-05
-0.00313097
-4.38362e-06
-0.0031587
-5.36044e-05
-0.00314624
-0.000106617
-0.00311586
-0.000161493
-0.0030796
-0.000217123
-0.00304315
-0.000272913
-0.00300879
-0.000328566
-0.00297716
-0.000383961
-0.0029482
-0.000439097
-0.00292175
-0.000494043
-0.00289778
-0.000548877
-0.00287648
-0.000603598
-0.0028582
-0.000658075
-0.00284322
-0.00283155
-0.000712103
1.88549e-05
-0.000689865
4.39311e-05
-0.00169496
5.62902e-05
-0.00237358
4.88541e-05
-0.0027842
2.23828e-05
-0.00299986
-1.88063e-05
-0.00308978
-6.98123e-05
-0.00310769
-0.000126617
-0.00308943
-0.000186467
-0.00305601
-0.000247695
-0.00301837
-0.000309375
-0.00298147
-0.000371013
-0.00294715
-0.000432352
-0.00291582
-0.00049328
-0.00288727
-0.000553795
-0.00286123
-0.000613987
-0.00283758
-0.000673981
-0.00281649
-0.000733829
-0.00279836
-0.000793393
-0.00278366
-0.00277257
-0.000852376
1.5074e-05
-0.000704939
3.13513e-05
-0.00171124
3.25142e-05
-0.00237475
1.35459e-05
-0.00276524
-2.36073e-05
-0.0029627
-7.42078e-05
-0.00303918
-0.000133416
-0.00304849
-0.000197486
-0.00302536
-0.000263966
-0.00298953
-0.000331434
-0.0029509
-0.000399128
-0.00291377
-0.000466644
-0.00287964
-0.000533755
-0.0028487
-0.000600337
-0.00282069
-0.000666364
-0.00279521
-0.00073192
-0.00277203
-0.000797172
-0.00275124
-0.000862236
-0.00273329
-0.000926989
-0.00271891
-0.00270857
-0.000990992
1.11421e-05
-0.000716082
1.86053e-05
-0.0017187
8.83438e-06
-0.00236498
-2.1194e-05
-0.00273521
-6.84819e-05
-0.00291541
-0.000127982
-0.00297968
-0.000194976
-0.00298149
-0.000266005
-0.00295433
-0.00033891
-0.00291663
-0.000412498
-0.00287731
-0.00048616
-0.00284011
-0.00055958
-0.00280622
-0.000632561
-0.00277572
-0.000704963
-0.00274829
-0.000776712
-0.00272346
-0.000847847
-0.00270089
-0.000918542
-0.00268054
-0.000988994
-0.00266284
-0.00105911
-0.00264879
-0.00263934
-0.00112834
7.10821e-06
-0.00072319
5.82427e-06
-0.00171742
-1.45527e-05
-0.0023446
-5.51396e-05
-0.00269462
-0.000112014
-0.00285854
-0.000179915
-0.00291177
-0.000254289
-0.00290712
-0.00033197
-0.00287665
-0.000411078
-0.00283752
-0.000490638
-0.00279775
-0.000570186
-0.00276056
-0.000649502
-0.0027269
-0.00072844
-0.00269679
-0.000806855
-0.00266987
-0.000884621
-0.00264569
-0.0009617
-0.00262381
-0.00103824
-0.002604
-0.00111453
-0.00258655
-0.00119056
-0.00257276
-0.00256394
-0.00126596
3.01941e-06
-0.000726209
-6.87036e-06
-0.00170753
-3.74713e-05
-0.002314
-8.80925e-05
-0.002644
-0.000154005
-0.00279263
-0.000229814
-0.00283597
-0.00031116
-0.00282577
-0.000395171
-0.00279264
-0.000480231
-0.00275246
-0.000565565
-0.00271242
-0.000650859
-0.00267527
-0.000736003
-0.00264176
-0.000820934
-0.00261186
-0.00090555
-0.00258525
-0.000989706
-0.00256154
-0.00107329
-0.00254023
-0.0011564
-0.00252089
-0.00123944
-0.00250351
-0.00132262
-0.00248958
-0.00248002
-0.00140654
-1.07959e-06
-0.00072513
-1.93692e-05
-0.00168924
-5.97679e-05
-0.0022736
-0.000119883
-0.00258388
-0.000194286
-0.00271822
-0.00027751
-0.00275274
-0.000365412
-0.00273787
-0.0004554
-0.00270265
-0.000546104
-0.00266176
-0.000636937
-0.00262159
-0.000727732
-0.00258447
-0.000818515
-0.00255097
-0.000909361
-0.00252101
-0.00100031
-0.00249431
-0.00109129
-0.00247055
-0.00118222
-0.00244931
-0.00127309
-0.00243002
-0.00136426
-0.00241234
-0.00145631
-0.00239753
-0.00238434
-0.00155199
-5.14778e-06
-0.000719982
-3.15762e-05
-0.00166281
-8.13128e-05
-0.00222386
-0.000150371
-0.00251483
-0.00023272
-0.00263587
-0.000322868
-0.0026626
-0.000416895
-0.00264384
-0.00051247
-0.00260708
-0.000608438
-0.00256579
-0.000704372
-0.00252565
-0.000800233
-0.00248861
-0.000896182
-0.00245502
-0.000992479
-0.00242471
-0.00108942
-0.00239737
-0.00118728
-0.00237268
-0.00128628
-0.00235031
-0.00138652
-0.00232978
-0.00148859
-0.00231027
-0.00159477
-0.00229135
-0.0022846
-0.00169451
-9.13638e-06
-0.000710845
-4.33902e-05
-0.00162855
-0.000101978
-0.00216527
-0.000179428
-0.00243738
-0.000269188
-0.00254611