/*--------------------------------*- C++ -*----------------------------------*\
  =========                 |
  \\      /  F ield         | OpenFOAM: The Open Source CFD Toolbox
   \\    /   O peration     | Website:  https://openfoam.org
    \\  /    A nd           | Version:  6.0
     \\/     M anipulation  |
\*---------------------------------------------------------------------------*/
FoamFile
{
    version     2.0;
    format      ascii;
    class       surfaceScalarField;
    location    "48";
    object      phi;
}
// * * * * * * * * * * * * * * * * * * * * * * * * * * * * * * * * * * * * * //

dimensions      [0 3 -1 0 0 0 0];

internalField   nonuniform List<scalar> 
24700
(
-1.23454e-06
9.75197e-06
-8.51743e-06
-4.48286e-06
2.33227e-05
-2.00744e-05
-9.3365e-06
3.23792e-05
-2.75255e-05
-1.54288e-05
3.79782e-05
-3.1886e-05
-2.24389e-05
4.09824e-05
-3.39723e-05
-3.00924e-05
4.20895e-05
-3.4436e-05
-3.8159e-05
4.18557e-05
-3.37891e-05
-4.64504e-05
4.07173e-05
-3.2426e-05
-5.48171e-05
3.90119e-05
-3.06452e-05
-6.31454e-05
3.69963e-05
-2.86679e-05
-7.13552e-05
3.48637e-05
-2.6654e-05
-7.93964e-05
3.27574e-05
-2.47161e-05
-8.72476e-05
3.07822e-05
-2.2931e-05
-9.49128e-05
2.90142e-05
-2.1349e-05
-0.00010242
2.75078e-05
-2.00008e-05
-0.000109817
2.63009e-05
-1.89033e-05
-0.000117173
2.54188e-05
-1.80634e-05
-0.000124569
2.48766e-05
-1.74804e-05
-0.000132102
2.46808e-05
-1.7148e-05
-0.000139876
2.48296e-05
-1.7055e-05
-0.000148004
2.53135e-05
-1.71855e-05
-0.0001566
2.61144e-05
-1.75188e-05
-0.000165777
2.72052e-05
-1.80283e-05
-0.000175646
2.85544e-05
-1.86852e-05
3.01307e-05
-1.94605e-05
-0.000186316
-1.21339e-06
1.09654e-05
-4.41578e-06
2.65251e-05
-9.21076e-06
3.71741e-05
-1.52394e-05
4.40069e-05
-2.21856e-05
4.79286e-05
-2.97767e-05
4.96806e-05
-3.77824e-05
4.98614e-05
-4.60129e-05
4.89479e-05
-5.43163e-05
4.73152e-05
-6.25757e-05
4.52558e-05
-7.07072e-05
4.29953e-05
-7.86573e-05
4.07074e-05
-8.64007e-05
3.85256e-05
-9.39387e-05
3.65522e-05
-0.000101297
3.48659e-05
-0.000108523
3.35268e-05
-0.000115684
3.25801e-05
-0.000122866
3.20582e-05
-0.000130167
3.19819e-05
-0.000137698
3.23609e-05
-0.000145578
3.31938e-05
-0.000153931
3.44672e-05
-0.000162881
3.61547e-05
-0.00017255
3.82237e-05
4.06425e-05
-0.000183062
-1.19547e-06
1.21608e-05
-4.35781e-06
2.96874e-05
-9.09992e-06
4.19162e-05
-1.50688e-05
4.99758e-05
-2.1951e-05
5.48109e-05
-2.94745e-05
5.7204e-05
-3.74074e-05
5.77944e-05
-4.55569e-05
5.70973e-05
-5.37664e-05
5.55247e-05
-6.19136e-05
5.3403e-05
-6.99084e-05
5.099e-05
-7.76906e-05
4.84896e-05
-8.52286e-05
4.60636e-05
-9.25176e-05
4.38412e-05
-9.9578e-05
4.19263e-05
-0.000106454
4.04026e-05
-0.000113211
3.93369e-05
-0.000119933
3.8781e-05
-0.000126724
3.87728e-05
-0.0001337
3.93362e-05
-0.000140986
4.04805e-05
-0.000148719
4.21995e-05
-0.000157035
4.44706e-05
-0.000166073
4.72621e-05
5.05438e-05
-0.000175974
-1.18026e-06
1.33411e-05
-4.30691e-06
3.28141e-05
-8.99972e-06
4.66091e-05
-1.49097e-05
5.58858e-05
-2.17252e-05
6.16263e-05
-2.91731e-05
6.4652e-05
-3.70191e-05
6.56403e-05
-4.50654e-05
6.51436e-05
-5.31492e-05
6.36086e-05
-6.11408e-05
6.13945e-05
-6.89412e-05
5.87903e-05
-7.64809e-05
5.60293e-05
-8.37187e-05
5.33014e-05
-9.06404e-05
5.0763e-05
-9.72582e-05
4.85441e-05
-0.000103609
4.67533e-05
-0.000109753
4.54814e-05
-0.000115775
4.48024e-05
-0.000121776
4.47744e-05
-0.000127879
4.5439e-05
-0.000134219
4.68205e-05
-0.000140943
4.89237e-05
-0.000148206
5.17332e-05
-0.000156165
5.52215e-05
5.9363e-05
-0.000164985
-1.16711e-06
1.45082e-05
-4.26065e-06
3.59076e-05
-8.90506e-06
5.12535e-05
-1.47541e-05
6.17348e-05
-2.14965e-05
6.83687e-05
-2.88578e-05
7.20133e-05
-3.65998e-05
7.33823e-05
-4.45192e-05
7.3063e-05
-5.24455e-05
7.15349e-05
-6.02393e-05
6.91883e-05
-6.77907e-05
6.63418e-05
-7.50182e-05
6.32569e-05
-8.18678e-05
6.0151e-05
-8.83125e-05
5.72077e-05
-9.4352e-05
5.45836e-05
-0.000100013
5.2414e-05
-0.000105347
5.08157e-05
-0.000110433
4.98884e-05
-0.000115373
4.97142e-05
-0.000120291
5.03573e-05
-0.000125332
5.18617e-05
-0.000130657
5.42489e-05
-0.00013644
5.75157e-05
-0.000142862
6.16437e-05
6.66156e-05
-0.000150115
-1.15523e-06
1.56634e-05
-4.21606e-06
3.89685e-05
-8.80972e-06
5.58471e-05
-1.45917e-05
6.75168e-05
-2.12508e-05
7.50278e-05
-2.85106e-05
7.9273e-05
-3.61287e-05
8.10005e-05
-4.38955e-05
8.08298e-05
-5.16319e-05
7.92713e-05
-5.91877e-05
7.67441e-05
-6.644e-05
7.35941e-05
-7.32927e-05
7.01095e-05
-7.96758e-05
6.65342e-05
-8.55459e-05
6.30777e-05
-9.08863e-05
5.9924e-05
-9.57083e-05
5.7236e-05
-0.000100052
5.51591e-05
-0.000103985
5.38217e-05
-0.000107606
5.33351e-05
-0.00011104
5.37914e-05
-0.000114439
5.52612e-05
-0.00011798
5.77895e-05
-0.000121857
6.13926e-05
-0.000126281
6.60676e-05
7.18114e-05
-0.000131477
-1.14363e-06
1.68071e-05
-4.16947e-06
4.19943e-05
-8.70613e-06
6.03838e-05
-1.44102e-05
7.32209e-05
-2.09705e-05
8.15881e-05
-2.81088e-05
8.64113e-05
-3.55787e-05
8.84704e-05
-4.31643e-05
8.84154e-05
-5.06773e-05
8.67844e-05
-5.7956e-05
8.40228e-05
-6.48633e-05
8.05013e-05
-7.12861e-05
7.65324e-05
-7.71359e-05
7.2384e-05
-8.2349e-05
6.82908e-05
-8.68881e-05
6.44632e-05
-9.07445e-05
6.10924e-05
-9.39396e-05
5.83542e-05
-9.65274e-05
5.64095e-05
-9.85961e-05
5.54038e-05
-0.000100269
5.54639e-05
-0.000101702
5.66949e-05
-0.000103087
5.91745e-05
-0.000104643
6.29481e-05
-0.000106613
6.80382e-05
7.44642e-05
-0.000109266
-1.1311e-06
1.79382e-05
-4.11646e-06
4.49797e-05
-8.58505e-06
6.48524e-05
-1.41945e-05
7.88304e-05
-2.0634e-05
8.80276e-05
-2.7624e-05
9.34013e-05
-3.4915e-05
9.57614e-05
-4.22851e-05
9.57856e-05
-4.95378e-05
9.4037e-05
-5.64994e-05
9.09843e-05
-6.30178e-05
8.70197e-05
-6.8962e-05
8.24767e-05
-7.42224e-05
7.76444e-05
-7.87119e-05
7.27803e-05
-8.23682e-05
6.81194e-05
-8.5157e-05
6.38812e-05
-8.70756e-05
6.02728e-05
-8.81569e-05
5.74908e-05
-8.84728e-05
5.57197e-05
-8.81378e-05
5.51289e-05
-8.73106e-05
5.58677e-05
-8.6194e-05
5.80579e-05
-8.5033e-05
6.17871e-05
-8.41113e-05
6.71164e-05
7.41008e-05
-8.37479e-05
-1.11616e-06
1.90543e-05
-4.05175e-06
4.79153e-05
-8.43548e-06
6.92361e-05
-1.39263e-05
8.43213e-05
-2.02144e-05
9.43156e-05
-2.70202e-05
0.000100207
-3.40923e-05
0.000102834
-4.12043e-05
0.000102898
-4.81521e-05
0.000100985
-5.47512e-05
9.75834e-05
-6.0835e-05
9.31036e-05
-6.62541e-05
8.78957e-05
-7.08763e-05
8.22666e-05
-7.45887e-05
7.64926e-05
-7.73e-05
7.08308e-05
-7.89454e-05
6.55266e-05
-7.94912e-05
6.08186e-05
-7.89413e-05
5.69409e-05
-7.73436e-05
5.4122e-05
-7.47961e-05
5.25814e-05
-7.14524e-05
5.25239e-05
-6.75242e-05
5.41298e-05
-6.32826e-05
5.75455e-05
-5.9056e-05
6.28899e-05
7.02718e-05
-5.5227e-05
-1.09715e-06
2.01515e-05
-3.96928e-06
5.07874e-05
-8.24466e-06
7.35115e-05
-1.35841e-05
8.96607e-05
-1.96798e-05
0.000100411
-2.62537e-05
0.000106781
-3.3054e-05
0.000109634
-3.98518e-05
0.000109695
-4.64373e-05
0.00010757
-5.26172e-05
0.000103763
-5.82116e-05
9.8698e-05
-6.30537e-05
9.27378e-05
-6.69889e-05
8.62019e-05
-6.98772e-05
7.93809e-05
-7.15956e-05
7.25492e-05
-7.20438e-05
6.59748e-05
-7.11508e-05
5.99256e-05
-6.88833e-05
5.46734e-05
-6.52553e-05
5.04939e-05
-6.03381e-05
4.76643e-05
-5.42709e-05
4.64566e-05
-4.72678e-05
4.71267e-05
-3.96238e-05
4.99015e-05
-3.17169e-05
5.4983e-05
6.25615e-05
-2.40066e-05
-1.07218e-06
2.12237e-05
-3.86237e-06
5.35776e-05
-7.99843e-06
7.76476e-05
-1.31436e-05
9.48059e-05
-1.89934e-05
0.000106261
-2.52726e-05
0.00011306
-3.17312e-05
0.000116092
-3.81399e-05
0.000116104
-4.42861e-05
0.000113717
-4.997e-05
0.000109447
-5.50016e-05
0.00010373
-5.91988e-05
9.6935e-05
-6.23865e-05
8.93896e-05
-6.4398e-05
8.13924e-05
-6.50779e-05
7.32291e-05
-6.42874e-05
6.51843e-05
-6.19125e-05
5.75507e-05
-5.78744e-05
5.06353e-05
-5.21425e-05
4.4762e-05
-4.47495e-05
4.02713e-05
-3.5807e-05
3.75141e-05
-2.55212e-05
3.68408e-05
-1.42053e-05
3.85857e-05
-2.28976e-06
4.30674e-05
5.05975e-05
9.67433e-06
-1.03935e-06
2.2263e-05
-3.7241e-06
5.62623e-05
-7.68185e-06
8.16053e-05
-1.25788e-05
9.97028e-05
-1.81146e-05
0.000111797
-2.40184e-05
0.000118964
-3.00438e-05
0.000122118
-3.59637e-05
0.000122024
-4.15656e-05
0.000119319
-4.6647e-05
0.000114529
-5.10113e-05
0.000108094
-5.44652e-05
0.000100389
-5.68166e-05
9.1741e-05
-5.78754e-05
8.24512e-05
-5.74552e-05
7.28089e-05
-5.53784e-05
6.31075e-05
-5.14847e-05
5.36571e-05
-4.56432e-05
4.47938e-05
-3.77682e-05
3.6887e-05
-2.78396e-05
3.03427e-05
-1.59262e-05
2.56006e-05
-2.21045e-06
2.31251e-05
1.29868e-05
2.33884e-05
2.91843e-05
2.68699e-05
3.40573e-05
4.57244e-05
-9.96855e-07
2.32599e-05
-3.5478e-06
5.88133e-05
-7.28015e-06
8.53377e-05
-1.18631e-05
0.000104286
-1.7001e-05
0.000116935
-2.24281e-05
0.000124391
-2.79032e-05
0.000127593
-3.32039e-05
0.000127325
-3.81206e-05
0.000124235
-4.24517e-05
0.00011886
-4.59989e-05
0.000111641
-4.85628e-05
0.000102953
-4.99403e-05
9.31185e-05
-4.99232e-05
8.24341e-05
-4.82991e-05
7.11848e-05
-4.48551e-05
5.96635e-05
-3.93851e-05
4.81871e-05
-3.17024e-05
3.71112e-05
-2.16582e-05
2.68429e-05
-9.16599e-06
1.78504e-05
5.76677e-06
1.06679e-05
2.30013e-05
5.89058e-06
4.22273e-05
4.16247e-06
6.29206e-05
6.17657e-06
1.26728e-05
8.43051e-05
-9.43193e-07
2.42031e-05
-3.32768e-06
6.11978e-05
-6.77996e-06
8.87899e-05
-1.09715e-05
0.000108477
-1.56109e-05
0.000121574
-2.04378e-05
0.000129218
-2.5217e-05
0.000132372
-2.97318e-05
0.000131839
-3.37784e-05
0.000128282
-3.71597e-05
0.000122241
-3.96802e-05
0.000114162
-4.11405e-05
0.000104413
-4.13337e-05
9.33117e-05
-4.00418e-05
8.11422e-05
-3.70349e-05
6.81779e-05
-3.20724e-05
5.4701e-05
-2.49084e-05
4.10232e-05
-1.53031e-05
2.75059e-05
-3.04075e-06
1.45805e-05
1.20422e-05
2.76751e-06
3.00177e-05
-7.30759e-06
5.08154e-05
-1.49071e-05
7.41614e-05
-1.91835e-05
9.95068e-05
-1.91688e-05
-1.37723e-05
0.000125952
-8.77394e-07
2.50805e-05
-3.05948e-06
6.33799e-05
-6.17052e-06
9.1901e-05
-9.88258e-06
0.000112189
-1.39069e-05
0.000125599
-1.79874e-05
0.000133299
-2.18943e-05
0.000136279
-2.54172e-05
0.000135362
-2.83592e-05
0.000131224
-3.05301e-05
0.000124412
-3.17413e-05
0.000115373
-3.17995e-05
0.000104471
-3.05015e-05
9.20137e-05
-2.76296e-05
7.82704e-05
-2.29481e-05
6.34964e-05
-1.62014e-05
4.79543e-05
-7.11638e-06
3.19382e-05
4.59025e-06
1.57992e-05
1.91961e-05
-2.5383e-08
3.69451e-05
-1.49815e-05
5.80031e-05
-2.83656e-05
8.2394e-05
-3.92981e-05
0.000109914
-4.67038e-05
0.000140022
-4.92763e-05
-4.54513e-05
0.000171701
-7.99193e-07
2.58797e-05
-2.74108e-06
6.53218e-05
-5.44496e-06
9.46049e-05
-8.58041e-06
0.000115325
-1.18585e-05
0.000128877
-1.50248e-05
0.000136465
-1.78531e-05
0.000139107
-2.01377e-05
0.000137647
-2.16879e-05
0.000132774
-2.23214e-05
0.000125046
-2.18586e-05
0.00011491
-2.01169e-05
0.000102729
-1.6904e-05
8.88008e-05
-1.20127e-05
7.33791e-05
-5.21507e-06
5.66987e-05
3.7426e-06
3.89966e-05
1.51418e-05
2.05389e-05
2.92901e-05
1.65101e-06
4.65105e-05
-1.72458e-05
6.71188e-05
-3.55897e-05
9.1379e-05
-5.26258e-05
0.000119431
-6.73497e-05
0.000151179
-7.84522e-05
0.000186136
-8.42336e-05
-8.25145e-05
0.000223199
-7.09153e-07
2.65888e-05
-2.37281e-06
6.69854e-05
-4.601e-06
9.68331e-05
-7.05622e-06
0.00011778
-9.44495e-06
0.000131265
-1.15105e-05
0.00013853
-1.3026e-05
0.000140623
-1.37873e-05
0.000138408
-1.3607e-05
0.000132594
-1.23089e-05
0.000123747
-9.72241e-06
0.000112324
-5.67687e-06
9.86839e-05
3.84268e-09
8.31201e-05
7.50788e-06
6.58751e-05
1.70422e-05
4.71644e-05
2.88399e-05
2.71989e-05
4.3167e-05
6.21191e-06
6.03266e-05
-1.55086e-05
8.06581e-05
-3.75773e-05
0.000104523
-5.9455e-05
0.000132271
-8.03736e-05
0.000164165
-9.92429e-05
0.000200253
-0.000114541
0.000240166
-0.000124146
-0.000125119
0.00028277
-6.08667e-07
2.71975e-05
-1.95753e-06
6.83343e-05
-3.64108e-06
9.85166e-05
-5.30865e-06
0.000119448
-6.65631e-06
0.000132613
-7.4193e-06
0.000139293
-7.36453e-06
0.000140568
-6.28381e-06
0.000137328
-3.98803e-06
0.000130298
-3.02227e-07
0.000120062
4.93893e-06
0.000107082
1.18955e-05
9.17273e-05
2.07268e-05
7.42887e-05
3.15972e-05
5.50048e-05
4.46821e-05
3.40794e-05
6.01769e-05
1.17041e-05
7.83064e-05
-1.19176e-05
9.93353e-05
-3.65375e-05
0.000123577
-6.18192e-05
0.000151395
-8.72732e-05
0.000183185
-0.000112163
0.000219314
-0.000135372
0.000259997
-0.000155224
0.000305046
-0.000169195
-0.00017347
0.000353397
-4.998e-07
2.76973e-05
-1.50008e-06
6.93346e-05
-2.57155e-06
9.95881e-05
-3.34277e-06
0.000120219
-3.49219e-06
0.000132762
-2.73987e-06
0.000138541
-8.39409e-07
0.000138667
2.42887e-06
0.000134059
7.26331e-06
0.000125463
1.3845e-05
0.00011348
2.23409e-05
9.85865e-05
3.29064e-05
8.11618e-05
4.56882e-05
6.1507e-05
6.08269e-05
3.98661e-05
7.84624e-05
1.6444e-05
9.87402e-05
-8.57376e-06
0.000121822
-3.49994e-05
0.000147899
-6.26147e-05
0.00017721
-9.11303e-05
0.000210058
-0.000120121
0.000246817
-0.000148922
0.000287905
-0.00017646
0.000333684
-0.000201003
0.000384204
-0.000219716
-0.000227873
0.000438608
-3.84975e-07
2.80823e-05
-1.00636e-06
6.9956e-05
-1.40082e-06
9.99825e-05
-1.16728e-06
0.000119985
4.16764e-08
0.000131553
2.52933e-06
0.000136054
6.56372e-06
0.000134633
1.23848e-05
0.000128238
2.02092e-05
0.000117639
3.02339e-05
0.000103455
4.26372e-05
8.61833e-05
5.75794e-05
6.62195e-05
7.52029e-05
4.38835e-05
9.56319e-05
1.94371e-05
0.000118973
-6.89736e-06
0.00014532
-3.49202e-05
0.000174757
-6.44364e-05
0.000207375
-9.52331e-05
0.000243292
-0.000127047
0.000282678
-0.000159508
0.000325795
-0.000192039
0.000373009
-0.000223674
0.000424755
-0.000252749
0.000481336
-0.000276296
-0.000288792
0.000542254
-2.66492e-07
2.83488e-05
-4.81782e-07
7.01713e-05
-1.36534e-07
9.96373e-05
1.20982e-06
0.000118639
3.93952e-06
0.000128824
8.38795e-06
0.000131605
1.48538e-05
0.000128167
2.36067e-05
0.000119485
3.48919e-05
0.000106354
4.89326e-05
8.94147e-05
6.59298e-05
6.91861e-05
8.60608e-05
4.60885e-05
0.000109476
2.04685e-05
0.000136294
-7.38141e-06
0.000166601
-3.7204e-05
0.000200443
-6.87622e-05
0.00023783
-0.000101824
0.000278741
-0.000136144
0.000323138
-0.000171444
0.000371001
-0.00020737
0.000422372
-0.00024341
0.000477428
-0.000278729
0.000536518
-0.000311839
0.000600114
-0.000339892
-0.000356874
0.000668196
-1.45948e-07
2.84947e-05
7.04803e-08
6.99548e-05
1.21787e-06
9.84899e-05
3.78671e-06
0.00011607
8.20339e-06
0.000124407
1.48444e-05
0.000124964
2.40481e-05
0.000118963
3.61231e-05
0.00010741
5.13532e-05
9.11238e-05
6.99982e-05
7.07696e-05
9.22932e-05
4.6891e-05
0.000118444
1.99374e-05
0.000148623
-9.71023e-06
0.000182959
-4.17169e-05
0.000221529
-7.57745e-05
0.000264353
-0.000111586
0.00031138
-0.00014885
0.000362486
-0.00018725
0.000417477
-0.000226435
0.000476104
-0.000265997
0.000538114
-0.00030542
0.00060333
-0.000343946
0.000671781
-0.000380289
0.000743834
-0.000411946
-0.000433001
0.000819961
-2.36306e-08
2.85183e-05
6.51405e-07
6.92798e-05
2.66682e-06
9.64745e-05
6.57364e-06
0.000112163
1.28517e-05
0.000118129
2.19272e-05
0.000115889
3.41869e-05
0.000106704
4.9987e-05
9.16102e-05
6.9658e-05
7.14529e-05
9.35051e-05
4.69225e-05
0.000121806
1.859e-05
0.000154806
-1.30622e-05
0.000192707
-4.76117e-05
0.000235663
-8.46724e-05
0.000283761
-0.000123873
0.000337014
-0.000164839
0.000395339
-0.000207175
0.000458543
-0.000250454
0.000526306
-0.000294197
0.00059817
-0.000337862
0.000673555
-0.000380805
0.000751817
-0.000422208
0.000832388
-0.00046086
0.000915055
-0.000494613
-0.000518743
0.0010008
1.02022e-07
2.84163e-05
1.26774e-06
6.81141e-05
4.22577e-06
9.35165e-05
9.59798e-06
0.000106791
1.79265e-05
0.000109801
2.96956e-05
0.000104119
4.53474e-05
9.10519e-05
6.52926e-05
7.1665e-05
8.99142e-05
4.68313e-05
0.000119568
1.72689e-05
0.000154578
-1.64199e-05
0.00019523
-5.37145e-05
0.000241764
-9.4146e-05
0.000294362
-0.000137271
0.000353136
-0.000182647
0.000418112
-0.000229815
0.000489215
-0.000278278
0.000566244
-0.000327483
0.000648841
-0.000376795
0.000736448
-0.000425469
0.000828257
-0.000472614
0.000923163
-0.000517114
0.00101977
-0.000557464
0.00111666
-0.000591502
-0.000617362
0.00121528
2.34765e-07
2.81816e-05
1.93307e-06
6.64158e-05
5.9232e-06
8.95263e-05
1.29074e-05
9.98069e-05
2.34983e-05
9.92096e-05
3.82449e-05
8.93729e-05
5.76507e-05
7.1646e-05
8.21844e-05
4.71313e-05
0.000112283
1.67325e-05
0.000148351
-1.87994e-05
0.000190756
-5.88242e-05
0.000239817
-0.000102776
0.000295801
-0.00015013
0.000358911
-0.000200381
0.000429278
-0.000253013
0.000506953
-0.00030749
0.000591903
-0.000363228
0.000684005
-0.000419585
0.00078304
-0.00047583
0.00088867
-0.000531099
0.00100039
-0.000584331
0.00111737
-0.000634102
0.00123802
-0.000678113
0.0013583
-0.000711781
-0.000727061
0.001468
3.80123e-07
2.78014e-05
2.66716e-06
6.41288e-05
7.79996e-06
8.43935e-05
1.65694e-05
9.10374e-05
2.96652e-05
8.61138e-05
4.77064e-05
7.13317e-05
7.12607e-05
4.80917e-05
0.000100854
1.75377e-05
0.000136974
-1.93871e-05
0.000180063
-6.18884e-05
0.000230514
-0.000109275
0.00028866
-0.000160922
0.000354764
-0.000216235
0.000429014
-0.000274631
0.000511518
-0.000335518
0.000602311
-0.000398282
0.000701365
-0.000462282
0.000808627
-0.000526847
0.000924069
-0.000591272
0.0010478
-0.000654831
0.00118025
-0.00071678
0.0013225
-0.000776347
0.00147705
-0.000832663
0.00165024
-0.000884974
-0.000933505
0.00185668
5.46988e-07
2.72545e-05
3.49827e-06
6.11775e-05
9.91124e-06
7.79806e-05
2.06718e-05
8.02769e-05
3.65516e-05
7.02339e-05
5.82423e-05
4.96411e-05
8.63744e-05
1.99596e-05
0.000121526
-1.76137e-05
0.00016422
-6.20815e-05
0.00021492
-0.000112588
0.000274012
-0.000168368
0.000341803
-0.000228712
0.000418499
-0.000292931
0.000504207
-0.000360339
0.000598932
-0.000430242
0.000702581
-0.000501932
0.000814993
-0.000574694
0.000935963
-0.000647817
0.00106531
-0.000720618
0.00120295
-0.00079247
0.00134902
-0.00086285
0.00150405
-0.000931381
0.00166926
-0.000997868
0.00184654
-0.00106225
-0.00112167
0.0020347
7.44376e-07
2.65101e-05
4.45675e-06
5.74651e-05
1.23175e-05
7.01198e-05
2.5311e-05
6.72834e-05
4.42932e-05
5.12518e-05
7.00265e-05
2.39077e-05
0.000103198
-1.32123e-05
0.000144425
-5.884e-05
0.000194243
-0.0001119
0.000253102
-0.000171446
0.000321342
-0.000236608
0.000399181
-0.000306551
0.000486704
-0.000380454
0.000583854
-0.000457489
0.000690433
-0.000536821
0.000806113
-0.000617612
0.000930459
-0.00069904
0.00106296
-0.000780315
0.00120305
-0.000860714
0.0013502
-0.000939616
0.00150389
-0.00101655
0.00166372
-0.0010912
0.00182931
-0.00116346
0.00200011
-0.00123305
-0.00129579
0.00217423
9.82527e-07
2.55276e-05
5.57572e-06
5.28719e-05
1.50829e-05
6.06127e-05
3.05873e-05
5.1779e-05
5.30267e-05
2.88123e-05
8.32283e-05
-6.29389e-06
0.000121922
-5.19063e-05
0.00016974
-0.000106658
0.0002272
-0.000169361
0.000294691
-0.000238937
0.000372447
-0.000314364
0.000460532
-0.000394637
0.000558829
-0.000478751
0.000667031
-0.00056569
0.000784648
-0.000654438
0.000911028
-0.000743991
0.00104537
-0.000833385
0.00118678
-0.000921721
0.00133427
-0.0010082
0.00148681
-0.00109216
0.00164336
-0.00117309
0.00180282
-0.00125067
0.00196406
-0.00132469
0.00212579
-0.00139478
-0.00145676
0.00228676
1.27151e-06
2.42561e-05
6.88731e-06
4.72561e-05
1.82687e-05
4.92312e-05
3.65935e-05
3.34542e-05
6.28742e-05
2.53171e-06
9.79887e-05
-4.14084e-05
0.000142688
-9.66054e-05
0.000197584
-0.000161554
0.000263132
-0.000234908
0.0003396
-0.000315405
0.000427049
-0.000401812
0.000525311
-0.000492899
0.000633984
-0.000587424
0.000752433
-0.00068414
0.000879809
-0.000781814
0.00101507
-0.000879256
0.00115704
-0.000975351
0.00130441
-0.00106909
0.00145583
-0.00115962
0.00160989
-0.00124622
0.00176519
-0.0013284
0.00192034
-0.00140581
0.0020739
-0.00147826
0.00222453
-0.00154541
-0.0016037
0.00237147
1.62037e-06
2.26357e-05
8.41991e-06
4.04566e-05
2.19276e-05
3.57236e-05
4.34056e-05
1.19761e-05
7.39271e-05
-2.79898e-05
0.000114399
-8.18802e-05
0.000165559
-0.000147765
0.000227956
-0.000223951
0.000301919
-0.000308871
0.000387529
-0.000401015
0.000484595
-0.000498878
0.000592638
-0.000600942
0.000710897
-0.000705683
0.000838348
-0.000811591
0.000973738
-0.000917204
0.00111563
-0.00102115
0.00126248
-0.00112219
0.00141264
-0.00121926
0.00156449
-0.00131146
0.00171642
-0.00139816
0.0018669
-0.00147888
0.00201448
-0.00155339
0.00215783
-0.00162161
0.0022958
-0.00168337
-0.00173598
0.00242807
2.03647e-06
2.05992e-05
1.01958e-05
3.22973e-05
2.60981e-05
1.98213e-05
5.1074e-05
-1.29998e-05
8.62347e-05
-6.31505e-05
0.000132484
-0.000128129
0.000190501
-0.000205782
0.000260711
-0.000294162
0.000343251
-0.000391411
0.000437935
-0.000495699
0.000544237
-0.00060518
0.000661296
-0.000718001
0.000787934
-0.000832321
0.000922703
-0.00094636
0.00106394
-0.00105844
0.00120986
-0.00116707
0.00135859
-0.00127092
0.00150829
-0.00136896
0.0016572
-0.00146038
0.0018037
-0.00154465
0.00194631
-0.00162149
0.00208377
-0.00169085
0.00221501
-0.00175286
0.00233925
-0.00180761
-0.00185329
0.00245656
2.52504e-06
1.80742e-05
1.22295e-05
2.25929e-05
3.08021e-05
1.24863e-06
5.96179e-05
-4.18156e-05
9.97946e-05
-0.000103327
0.000152188
-0.000180523
0.000217364
-0.000270958
0.000295554
-0.000372352
0.00038662
-0.000482478
0.000490029
-0.000599108
0.000604849
-0.00072
0.000729775
-0.000842927
0.000863182
-0.000965728
0.0010032
-0.00108638
0.0011478
-0.00120304
0.0012949
-0.00131417
0.00144246
-0.00141849
0.00158857
-0.00151507
0.00173149
-0.0016033
0.00186974
-0.0016829
0.0020021
-0.00175385
0.00212762
-0.00181637
0.00224563
-0.00187087
0.00235576
-0.00191774
-0.00195597
0.00245844
3.089e-06
1.49852e-05
1.45271e-05
1.11548e-05
3.60425e-05
-2.02668e-05
6.90223e-05
-7.47954e-05
0.000114549
-0.000148854
0.000173375
-0.000239349
0.000245883
-0.000343465
0.000332031
-0.0004585
0.000431326
-0.000581772
0.000542807
-0.00071059
0.000665077
-0.00084227
0.000796355
-0.000974205
0.000934572
-0.00110394
0.00107748
-0.00122928
0.00122276
-0.00134833
0.00136819
-0.00145959
0.00151166
-0.00156196
0.00165135
-0.00165476
0.00178573
-0.00173768
0.0019136
-0.00181076
0.00203409
-0.00187434
0.00214666
-0.00192895
0.00225108
-0.00197529
0.00234739
-0.00201405
-0.00204489
0.00243631
3.72904e-06
1.12561e-05
1.70861e-05
-2.20232e-06
4.18029e-05
-4.49836e-05
7.92372e-05
-0.00011223
0.000130383
-0.000199999
0.000195824
-0.000304791
0.000275679
-0.00042332
0.000369549
-0.000552371
0.000476504
-0.000688727
0.000595094
-0.00082918
0.000723417
-0.000970593
0.00085922
-0.00111001
0.00100003
-0.00124476
0.00114332
-0.00137257
0.00128661
-0.00149162
0.00142763
-0.00160062
0.00156443
-0.00169876
0.0016954
-0.00178573
0.00181933
-0.00186161
0.00193542
-0.00192685
0.00204322
-0.00198214
0.00214262
-0.00202835
0.00223378
-0.00206645
0.00231711
-0.00209738
-0.00212133
0.00239355
4.44381e-06
6.81234e-06
1.98961e-05
-1.76546e-05
4.80485e-05
-7.31359e-05
9.01788e-05
-0.00015436
0.000147129
-0.000256949
0.000219237
-0.000376899
0.000306273
-0.000510355
0.000407397
-0.000653495
0.000521169
-0.0008025
0.00064561
-0.00095362
0.000778309
-0.00110329
0.000916585
-0.00124828
0.00105766
-0.00138583
0.00119881
-0.00151372
0.00133758
-0.00163039
0.00147183
-0.00173487
0.00159986
-0.00182679
0.00172042
-0.00190629
0.00183272
-0.00197391
0.00193638
-0.00203051
0.00203139
-0.00207715
0.00211803
-0.00211499
0.0021968
-0.00214522
0.00226838
-0.00216897
-0.00218679
0.00233384
5.23018e-06
1.58216e-06
2.29391e-05
-3.53636e-05
5.4727e-05
-0.000104924
0.000101732
-0.000201365
0.00016457
-0.000319787
0.000243249
-0.000455578
0.000337102
-0.000604208
0.000444772
-0.000761165
0.00056426
-0.000921989
0.000693043
-0.0010824
0.000828239
-0.00123849
0.000966821
-0.00138687
0.00110582
-0.00152483
0.00124251
-0.00165041
0.00137456
-0.00176244
0.00150012
-0.00186043
0.00161787
-0.00194454
0.001727
-0.00201541
0.00182716
-0.00207407
0.00191842
-0.00212176
0.00200113
-0.00215986
0.00207591
-0.00218976
0.0021435
-0.00221281
0.00220476
-0.00223023
-0.00224282
0.00226078
6.08341e-06
-4.50125e-06
2.61901e-05
-5.54703e-05
6.17702e-05
-0.000140504
0.000113752
-0.000253346
0.000182445
-0.00038848
0.000267436
-0.000540569
0.000367541
-0.000704313
0.000480822
-0.000874447
0.000604699
-0.00104587
0.000736127
-0.00121383
0.000871834
-0.0013742
0.00100857
-0.0015236
0.00114331
-0.00165957
0.00127349
-0.00178059
0.00139706
-0.00188601
0.00151257
-0.00197594
0.00161915
-0.00205112
0.00171645
-0.00211272
0.00180458
-0.0021622
0.00188397
-0.00220115
0.0019553
-0.00223119
0.0020194
-0.00225386
0.00207717
-0.00227059
0.00212955
-0.0022826
-0.00229086
0.0021776
6.99723e-06
-1.14985e-05
2.96179e-05
-7.8091e-05
6.90951e-05
-0.000179981
0.00012607
-0.000310321
0.000200456
-0.000462866
0.000291335
-0.000631448
0.000396929
-0.000809907
0.000514685
-0.000992202
0.000641447
-0.00117263
0.00077372
-0.0013461
0.000907949
-0.00150842
0.0010408
-0.00165645
0.00116939
-0.00178816
0.00129141
-0.00190262
0.00140524
-0.00199984
0.00150989
-0.00208059
0.00160497
-0.0021462
0.00169059
-0.00219834
0.00176724
-0.00223885
0.00183567
-0.00226957
0.00189676
-0.00229228
0.00195148
-0.00230859
0.0020008
-0.00231991
0.00204566
-0.00232746
-0.00233222
0.00208702
7.96391e-06
-1.94624e-05
3.31851e-05
-0.000103312
7.6605e-05
-0.000223401
0.000138493
-0.00037221
0.000218279
-0.000542652
0.000314454
-0.000727623
0.000424597
-0.00092005
0.000545526
-0.00111313
0.000673563
-0.00130067
0.00080486
-0.0014774
0.000935724
-0.00163929
0.0010629
-0.00178363
0.00118377
-0.00190903
0.00129644
-0.00201529
0.00139977
-0.00210316
0.00149326
-0.00217408
0.00157701
-0.00222994
0.0016515
-0.00227284
0.00171755
-0.00230489
0.00177609
-0.00232812
0.00182818
-0.00234436
0.00187481
-0.00235522
0.00191695
-0.00236205
0.00195547
-0.00236599
-0.00236798
0.00199123
8.97412e-06
-2.84365e-05
3.68482e-05
-0.000131186
8.41913e-05
-0.000270744
0.000150813
-0.000438831
0.000235569
-0.000627408
0.000336294
-0.000828348
0.000449892
-0.00103365
0.000572583
-0.00123582
0.00070025
-0.00142833
0.000828821
-0.00160597
0.000954625
-0.00176509
0.00107464
-0.00190364
0.00118664
-0.00202103
0.00128922
-0.00211787
0.00138175
-0.00219569
0.00146422
-0.00225656
0.00153715
-0.00230287
0.00160134
-0.00233703
0.0016578
-0.00236136
0.00170764
-0.00237796
0.00175192
-0.00238864
0.00179163
-0.00239494
0.00182769
-0.00239811
0.00186088
-0.00239917
-0.002399
0.0018919
1.00169e-05
-3.84534e-05
4.05582e-05
-0.000161727
9.17347e-05
-0.000321921
0.000162806
-0.000509902
0.000251974
-0.000716576
0.000356366
-0.00093274
0.000472216
-0.0011495
0.000595204
-0.00135881
0.000720891
-0.00155402
0.000845137
-0.00173022
0.000964443
-0.0018844
0.00107615
-0.00201535
0.00117853
-0.0021234
0.0012707
-0.00221004
0.00135252
-0.00227752
0.00142445
-0.00232849
0.00148732
-0.00236573
0.00154216
-0.00239187
0.00159014
-0.00240933
0.00163238
-0.0024202
0.00166995
-0.00242621
0.00170377
-0.00242877
0.00173467
-0.00242901
0.00176331
-0.00242782
-0.00242598
0.00179028
1.10797e-05
-4.95331e-05
4.42611e-05
-0.000194909
9.9108e-05
-0.000376768
0.000174242
-0.000585036
0.000267146
-0.00080948
0.000374215
-0.00103981
0.000491043
-0.00126633
0.00061287
-0.00148064
0.000735075
-0.00167622
0.000853607
-0.00184875
0.00096528
-0.00199607
0.00106791
-0.00211798
0.00116028
-0.00221578
0.00124207
-0.00229183
0.0013136
-0.00234905
0.00137566
-0.00239056
0.00142935
-0.00241942
0.00147586
-0.00243838
0.00151639
-0.00244987
0.00155207
-0.00245587
0.00158387
-0.00245801
0.00161265
-0.00245755
0.00163912
-0.00245547
0.00166384
-0.00245253
-0.0024494
0.00168726
1.21484e-05
-6.16816e-05
4.78988e-05
-0.000230659
0.000106179
-0.000435048
0.000184894
-0.000663752
0.000280756
-0.000905342
0.000389432
-0.00114848
0.000505946
-0.00138284
0.00062522
-0.00159991
0.000742603
-0.00179361
0.00085428
-0.00196043
0.000957496
-0.00209929
0.0010506
-0.00221108
0.00113293
-0.00229811
0.00120465
-0.00236354
0.00126647
-0.00241087
0.00131949
-0.00244358
0.00136494
-0.00246486
0.00140409
-0.00247753
0.00143812
-0.0024839
0.00146811
-0.00248585
0.00149494
-0.00248484
0.00151936
-0.00248197
0.00154196
-0.00247807
0.00156321
-0.00247379
-0.00246966
0.00158347
1.32076e-05
-7.48891e-05
5.14104e-05
-0.000268862
0.000112815
-0.000496453
0.000194542
-0.000745478
0.000292505
-0.00100331
0.000401678
-0.00125766
0.000516613
-0.00149778
0.000632056
-0.00171535
0.000743477
-0.00190503
0.000847426
-0.00206438
0.000941663
-0.00219352
0.0010251
-0.00229451
0.0010976
-0.00237062
0.00115976
-0.0024257
0.00121261
-0.00246372
0.00125742
-0.00248839
0.00129553
-0.00250297
0.00132821
-0.0025102
0.00135658
-0.00251227
0.00138162
-0.00251089
0.00140411
-0.00250733
0.00142469
-0.00250255
0.00144386
-0.00249724
0.00146198
-0.00249191
-0.00248701
0.00147933
1.42407e-05
-8.91298e-05
5.47335e-05
-0.000309355
0.000118886
-0.000560605
0.00020298
-0.000829572
0.000302134
-0.00110246
0.00041069
-0.00136621
0.000522852
-0.00160994
0.000633336
-0.00182584
0.000737877
-0.00200957
0.000833491
-0.00215999
0.0009185
-0.00227853
0.000992368
-0.00236838
0.00105544
-0.00243369
0.00110867
-0.00247893
0.00115332
-0.00250837
0.00119077
-0.00252584
0.00122238
-0.00253458
0.00124936
-0.00253719
0.00127277
-0.00253568
0.00129345
-0.00253157
0.0013121
-0.00252598
0.00132925
-0.0025197
0.00134529
-0.00251328
0.00136052
-0.00250714
-0.00250163
0.00137514
1.52307e-05
-0.00010436
5.78066e-05
-0.000351931
0.000124268
-0.000627067
0.000210029
-0.000915333
0.000309435
-0.00120187
0.000416293
-0.00147307
0.000524592
-0.00171824
0.000629166
-0.00193041
0.000726135
-0.00210654
0.000813053
-0.00224691
0.000888815
-0.00235429
0.000953407
-0.00243297
0.00100759
-0.00248787
0.00105257
-0.00252391
0.00108979
-0.00254558
0.00112066
-0.00255672
0.00114651
-0.00256043
0.00116846
-0.00255915
0.00118747
-0.00255469
0.00120427
-0.00254838
0.00121946
-0.00254116
0.00123345
-0.00253369
0.00124659
-0.00252642
0.00125909
-0.00251965
-0.00251365
0.00127111
1.61602e-05
-0.000120521
6.05705e-05
-0.000396341
0.000128852
-0.000695348
0.000215538
-0.00100202
0.000314259
-0.00130059
0.000418398
-0.00157721
0.000521874
-0.00182171
0.000619775
-0.00202831
0.000708699
-0.00219546
0.000786773
-0.00232498
0.000853453
-0.00242097
0.000909189
-0.00248871
0.000955074
-0.00253376
0.000992523
-0.00256136
0.00102304
-0.0025761
0.00104803
-0.00258171
0.00106874
-0.00258115
0.00108622
-0.00257662
0.00110128
-0.00256975
0.00111457
-0.00256166
0.00112656
-0.00255316
0.00113762
-0.00254475
0.001148
-0.0025368
0.00115788
-0.00252953
-0.00252314
0.00116737