1.275 	2.15223e-18 	-2.76991e-20 	-0.131573 	0.0228055 	-2.54552e-22
1.825 	2.15223e-18 	-1.39322e-20 	-0.266837 	0.0195418 	3.50184e-21
2.375 	2.15223e-18 	-2.66896e-23 	-0.286242 	-0.0559289 	-1.57805e-21
