1.22 	3.45254e-18 	-6.98323e-18 	-0.252968 	0.00887891 	-5.34613e-22
1.66 	3.45254e-18 	-6.96118e-18 	-0.527096 	0.00471032 	-3.36752e-23
2.1 	3.45254e-18 	-6.93894e-18 	-0.507611 	-0.00180115 	-1.69685e-21
2.54 	3.45254e-18 	-8.30431e-18 	-0.472446 	-0.00662784 	-3.05337e-23
2.98 	3.45254e-18 	-8.28171e-18 	-0.200999 	-0.00781579 	5.78892e-22
3.42 	3.45254e-18 	-6.87115e-18 	-0.0658195 	-0.00622856 	1.99411e-22
3.86 	3.45254e-18 	-6.84819e-18 	0.149523 	-0.0058896 	-1.47181e-23
4.3 	3.45254e-18 	-6.82504e-18 	0.296932 	-0.00455071 	-2.89631e-22
4.74 	3.45254e-18 	-5.41391e-18 	0.437863 	-0.00365745 	2.12324e-22
5.18 	3.45254e-18 	-2.61482e-18 	0.537486 	-0.00276877 	1.34364e-22
5.62 	3.45254e-18 	-1.2033e-18 	0.617988 	-0.00222677 	-6.01702e-23
6.06 	3.45254e-18 	-1.17937e-18 	0.679851 	-0.00186304 	-1.67709e-22
6.5 	3.45254e-18 	-1.15524e-18 	0.731099 	-0.00161455 	8.32717e-23
