/*--------------------------------*- C++ -*----------------------------------*\
  =========                 |
  \\      /  F ield         | OpenFOAM: The Open Source CFD Toolbox
   \\    /   O peration     | Website:  https://openfoam.org
    \\  /    A nd           | Version:  6.0
     \\/     M anipulation  |
\*---------------------------------------------------------------------------*/
FoamFile
{
    version     2.0;
    format      ascii;
    class       volVectorField;
    location    "4.7";
    object      U;
}
// * * * * * * * * * * * * * * * * * * * * * * * * * * * * * * * * * * * * * //

dimensions      [0 1 -1 0 0 0 0];

internalField   nonuniform List<vector> 
8000
(
(-0.00244263 0.00260628 -4.61587e-21)
(-0.0121554 0.00598508 2.47005e-20)
(-0.0290537 0.00812302 -3.01959e-20)
(-0.0489862 0.00945364 2.30595e-20)
(-0.0700575 0.0102395 1.132e-20)
(-0.091366 0.0106553 -3.40163e-20)
(-0.112317 0.0108208 -3.04138e-21)
(-0.132549 0.0108168 -1.12746e-21)
(-0.151862 0.0106962 -1.80448e-20)
(-0.170153 0.0104928 -9.87599e-21)
(-0.187374 0.0102279 7.27297e-21)
(-0.203509 0.00991471 2.8139e-20)
(-0.21856 0.00956139 -1.98477e-21)
(-0.23254 0.00917358 3.13635e-21)
(-0.245467 0.00875572 -2.87874e-20)
(-0.25736 0.00831193 1.78127e-20)
(-0.268245 0.00784645 -2.56813e-20)
(-0.278176 0.0073636 3.89231e-20)
(-0.28722 0.00686861 -4.41013e-23)
(-0.295305 0.00637102 8.71627e-21)
(-0.00274697 0.00775261 1.53241e-20)
(-0.0126317 0.0178178 -7.85797e-20)
(-0.0293023 0.024192 -5.46036e-20)
(-0.0488245 0.0281525 -3.72728e-20)
(-0.0693951 0.0304774 -4.82241e-20)
(-0.090151 0.0316872 1.03915e-20)
(-0.110518 0.0321413 -5.61294e-20)
(-0.130142 0.0320828 -1.28464e-20)
(-0.148825 0.0316719 3.74238e-21)
(-0.166464 0.0310124 4.2359e-20)
(-0.183009 0.0301699 -4.67434e-20)
(-0.19844 0.0291851 6.53744e-20)
(-0.21276 0.0280839 -4.92854e-20)
(-0.22598 0.026884 -5.88641e-20)
(-0.238118 0.0255987 -8.17091e-20)
(-0.249193 0.0242405 5.19354e-20)
(-0.259232 0.0228217 -1.71825e-20)
(-0.26829 0.0213544 -6.21809e-20)
(-0.276434 0.0198535 5.87261e-20)
(-0.283592 0.0183459 -4.51362e-20)
(-0.00333122 0.012563 1.50233e-19)
(-0.0135504 0.0289783 7.8383e-20)
(-0.0297831 0.0394577 8.83656e-20)
(-0.0485105 0.0460186 7.43095e-21)
(-0.0681065 0.0499012 4.90709e-20)
(-0.0877834 0.0519425 6.14579e-20)
(-0.107007 0.0527252 -1.12335e-19)
(-0.12544 0.0526467 -5.99803e-20)
(-0.142891 0.0519721 -7.90776e-20)
(-0.159255 0.0508746 8.40757e-20)
(-0.174478 0.0494652 -6.46713e-20)
(-0.188538 0.047814 -8.42653e-20)
(-0.201434 0.0459665 -3.09719e-20)
(-0.213177 0.0439537 2.93701e-20)
(-0.223783 0.0417996 -8.50416e-21)
(-0.233275 0.0395256 1.15488e-20)
(-0.24168 0.0371525 1.38367e-19)
(-0.249054 0.0347005 -1.92671e-20)
(-0.255466 0.0321935 -1.41424e-19)
(-0.260847 0.0296736 1.9158e-19)
(-0.00414732 0.0168416 5.29777e-20)
(-0.0148432 0.0390657 -7.40346e-20)
(-0.0304613 0.0534305 -1.88883e-20)
(-0.0480588 0.0625349 3.52666e-20)
(-0.066259 0.0679976 1.00311e-19)
(-0.0843823 0.0709256 2.20557e-19)
(-0.101954 0.0720989 2.16716e-19)
(-0.118665 0.072056 1.85472e-20)
(-0.134333 0.0711615 1.34493e-19)
(-0.148853 0.0696572 2.07031e-19)
(-0.16217 0.0677008 -1.6665e-19)
(-0.174257 0.0653945 2.46799e-19)
(-0.185111 0.0628056 -5.76331e-20)
(-0.19474 0.0599811 1.36939e-20)
(-0.203163 0.0569577 5.99224e-20)
(-0.210403 0.0537674 8.03936e-20)
(-0.216492 0.0504403 -1.25996e-19)
(-0.221486 0.0470053 -1.05954e-19)
(-0.225459 0.043495 -1.87786e-19)
(-0.228352 0.0399632 2.79349e-19)
(-0.00512992 0.0204319 -2.74588e-20)
(-0.0164163 0.0477455 -2.83758e-19)
(-0.0312884 0.0656867 -8.44562e-20)
(-0.0474906 0.0772398 -2.06117e-19)
(-0.0639483 0.0842962 7.80025e-20)
(-0.0801176 0.0881733 -1.23786e-19)
(-0.095601 0.0898137 4.32483e-20)
(-0.11013 0.0898789 -2.64871e-19)
(-0.123538 0.0888245 1.40498e-19)
(-0.135724 0.0869588 -1.68144e-19)
(-0.146632 0.0844871 -1.50495e-19)
(-0.156236 0.0815457 -1.70397e-19)
(-0.164527 0.078227 1.55272e-19)
(-0.171516 0.0745972 -1.40976e-19)
(-0.177221 0.0707079 1.96295e-19)
(-0.18167 0.0666042 5.73167e-20)
(-0.184897 0.0623277 1.42748e-19)
(-0.186965 0.0579166 6.27224e-20)
(-0.187952 0.0534125 -2.49136e-19)
(-0.187825 0.0488775 4.11708e-19)
(-0.00620347 0.0232273 1.23229e-19)
(-0.0181593 0.05477 8.75484e-21)
(-0.0322074 0.0758913 5.08983e-20)
(-0.0468325 0.0897475 1.77569e-19)
(-0.0612926 0.0983868 -2.6908e-20)
(-0.0751994 0.103269 2.90459e-19)
(-0.0882488 0.105457 1.30237e-19)
(-0.100224 0.105712 1.09787e-20)
(-0.110984 0.104571 3.37743e-19)
(-0.120439 0.102403 1.12129e-19)
(-0.128536 0.0994608 5.35944e-20)
(-0.135249 0.0959166 1.69514e-19)
(-0.140573 0.0918902 1.56704e-19)
(-0.144516 0.0874698 2.88621e-19)
(-0.147101 0.0827253 -2.58212e-19)
(-0.148359 0.0777179 3.69104e-19)
(-0.148333 0.0725029 6.72882e-21)
(-0.147087 0.0671314 -4.74605e-19)
(-0.144711 0.061656 6.18104e-19)
(-0.141218 0.0561419 2.592e-19)
(-0.00729032 0.0251764 -7.23948e-20)
(-0.019956 0.0599914 -1.3305e-19)
(-0.0331581 0.0838138 -2.76462e-19)
(-0.0461155 0.0997659 -8.36804e-21)
(-0.0584252 0.109936 4.81013e-20)
(-0.0698649 0.115854 -3.55199e-19)
(-0.0802371 0.11866 -2.64909e-19)
(-0.0893889 0.119189 -3.76005e-20)
(-0.0972142 0.118041 -3.3847e-19)
(-0.103643 0.115641 -2.36528e-19)
(-0.108632 0.112286 -6.91748e-20)
(-0.112162 0.108185 -2.24276e-19)
(-0.114229 0.103486 -3.14546e-21)
(-0.114845 0.0983011 -3.01905e-19)
(-0.114038 0.092722 1.28231e-19)
(-0.111845 0.0868287 -1.46129e-19)
(-0.108315 0.0806949 1.13993e-19)
(-0.103519 0.0743895 -1.4341e-19)
(-0.0975549 0.0679816 -4.1483e-19)
(-0.090518 0.0615358 -1.26702e-19)
(-0.00831893 0.0262834 -2.77389e-20)
(-0.0216965 0.0633671 -2.99801e-20)
(-0.0340838 0.0893402 2.32537e-19)
(-0.045374 0.10711 -3.79944e-19)
(-0.0554856 0.118701 5.55583e-20)
(-0.0643637 0.125645 -2.21106e-19)
(-0.071925 0.129114 1.042e-19)
(-0.0780912 0.129986 4.73226e-19)
(-0.0828024 0.128909 -2.93074e-20)
(-0.0860169 0.126352 -3.57142e-19)
(-0.0877101 0.122653 6.41932e-20)
(-0.0878725 0.118053 1.21755e-20)
(-0.0865083 0.112729 -7.65416e-20)
(-0.0836353 0.10682 5.46743e-21)
(-0.0792838 0.100437 6.6632e-19)
(-0.0734983 0.0936838 -9.37475e-20)
(-0.0663361 0.0866574 -1.87517e-19)
(-0.0578713 0.0794533 -3.39479e-19)
(-0.0482136 0.0721685 3.45664e-19)
(-0.0375718 0.064867 1.48942e-19)
(-0.00923113 0.0266046 1.36588e-19)
(-0.0232877 0.0649578 -1.79826e-19)
(-0.0349381 0.0924759 2.5388e-19)
(-0.0446446 0.111714 2.56032e-19)
(-0.0526106 0.124546 2.35865e-19)
(-0.0589397 0.132448 4.79804e-19)
(-0.0636657 0.136581 3.12048e-19)
(-0.0667928 0.137838 -6.73594e-19)
(-0.0683171 0.136895 3.46444e-19)
(-0.0682351 0.134252 2.74268e-19)
(-0.0665479 0.13028 -3.86382e-21)
(-0.063263 0.125248 3.11557e-19)
(-0.0583959 0.11936 2.45951e-19)
(-0.0519706 0.112775 -1.32305e-19)
(-0.0440217 0.105628 4.55883e-19)
(-0.0345978 0.0980463 -5.65511e-19)
(-0.023763 0.0901544 2.28554e-19)
(-0.0115927 0.0820865 2.95354e-19)
(0.00179703 0.0739889 -6.88028e-20)
(0.0160419 0.0659348 5.9192e-19)
(-0.00998787 0.0262392 2.77949e-19)
(-0.024663 0.0649171 1.4621e-20)
(-0.0356894 0.0933414 -9.93445e-20)
(-0.0439641 0.11363 -1.04486e-19)
(-0.0499228 0.127447 -4.87024e-19)
(-0.0538114 0.13617 6.89582e-20)
(-0.0557774 0.140912 1.96825e-19)
(-0.0559122 0.142554 -9.50322e-20)
(-0.0542756 0.141778 7.87606e-20)
(-0.0509104 0.139107 -2.01086e-20)
(-0.0458506 0.134928 -1.03874e-19)
(-0.0391266 0.129533 9.91608e-20)
(-0.0307678 0.123146 -4.37929e-19)
(-0.0208053 0.115943 4.19821e-19)
(-0.00927571 0.108078 -3.68101e-19)
(0.00377215 0.0996987 1.13204e-19)
(0.0182718 0.0909622 2.62342e-19)
(0.0341509 0.0820531 -5.34889e-20)
(0.0512949 0.0731987 -1.82309e-19)
(0.0691391 0.0645112 -1.22905e-19)
(-0.0105725 0.0253184 -3.47738e-19)
(-0.0257884 0.0634743 -2.22914e-20)
(-0.0363249 0.0921598 7.31531e-20)
(-0.0433657 0.113026 1.87521e-19)
(-0.0475184 0.127501 -2.64596e-19)
(-0.0491486 0.136833 -2.31449e-19)
(-0.0485097 0.142062 5.42669e-19)
(-0.04578 0.144035 -2.99424e-19)
(-0.0410875 0.143423 -1.94424e-19)
(-0.0345272 0.140751 -2.81539e-19)
(-0.0261714 0.136417 1.87402e-19)
(-0.0160768 0.130725 -3.2899e-21)
(-0.00428852 0.123907 -3.5269e-19)
(0.00915584 0.116149 -5.85359e-19)
(0.0242214 0.107618 4.46773e-19)
(0.0408651 0.0984758 -3.66986e-19)
(0.0590246 0.0889076 5.21459e-19)
(0.0786362 0.0791596 -1.45553e-19)
(0.0995977 0.0695806 3.13534e-19)
(0.121092 0.0603801 -1.03818e-18)
(-0.0109917 0.0239923 -7.07641e-19)
(-0.0266641 0.0609114 4.62368e-19)
(-0.0368498 0.0892356 6.26562e-20)
(-0.0428731 0.110173 1.21669e-20)
(-0.0454521 0.124919 -2.84002e-19)
(-0.0450472 0.134579 4.17784e-19)
(-0.0420051 0.140107 4.61061e-20)
(-0.0365867 0.142299 -8.62579e-20)
(-0.0289885 0.141801 -2.77963e-19)
(-0.0193592 0.139125 3.01283e-19)
(-0.0078114 0.134668 7.7043e-19)
(0.00557079 0.128733 -1.70067e-19)
(0.0207267 0.121554 3.88791e-19)
(0.0376147 0.113317 -4.64055e-19)
(0.0562058 0.104187 -4.49133e-19)
(0.076469 0.0943297 2.69984e-19)
(0.0983519 0.0839501 4.53419e-19)
(0.121803 0.0733568 -1.47071e-18)
(0.146745 0.0630638 1.71285e-19)
(0.172049 0.0534662 2.31132e-19)
(-0.0112733 0.0224159 5.24612e-19)
(-0.0273214 0.0575377 1.72503e-19)
(-0.0372817 0.0849285 8.92444e-19)
(-0.04249 0.105424 4.57274e-20)
(-0.0437198 0.120013 -9.92273e-20)
(-0.0415012 0.129669 -4.72425e-19)
(-0.0362587 0.135252 4.01495e-19)
(-0.0283273 0.1375 7.22503e-19)
(-0.0179665 0.137021 4.84558e-19)
(-0.00537604 0.134306 3.50598e-19)
(0.00929367 0.129737 3.04117e-19)
(0.0259336 0.12361 -5.49395e-19)
(0.0444704 0.116148 -1.752e-19)
(0.0648608 0.107527 -1.28663e-19)
(0.0870845 0.0978982 1.38936e-18)
(0.111125 0.0874188 -2.07806e-21)
(0.136941 0.076293 -3.51714e-19)
(0.164488 0.0648812 -1.15467e-19)
(0.193724 0.0539008 1.01674e-18)
(0.223149 0.0440444 1.29205e-19)
(-0.0114614 0.0207361 -2.59413e-20)
(-0.0278142 0.0536622 -4.94065e-19)
(-0.0376398 0.0796223 -7.3281e-19)
(-0.0421866 0.0991853 -2.03283e-19)
(-0.0422391 0.113182 1.12203e-19)
(-0.0383746 0.122471 2.39785e-20)
(-0.0310786 0.127829 6.42388e-19)
(-0.0207466 0.129933 -7.97344e-19)
(-0.0076915 0.129348 -3.03683e-19)
(0.00784463 0.126536 -6.15597e-19)
(0.0256806 0.121858 -5.27984e-19)
(0.0456882 0.115592 -4.69894e-19)
(0.0677846 0.107947 1.17427e-19)
(0.091926 0.0990785 -1.5366e-19)
(0.118098 0.0891161 6.67653e-19)
(0.146292 0.0781908 -3.65604e-19)
(0.176463 0.0664861 -1.16325e-18)
(0.208552 0.0543878 -2.40394e-19)
(0.242561 0.0428398 5.79631e-19)
(0.276582 0.0329563 -4.94759e-19)
(-0.0116095 0.0190803 -8.36054e-20)
(-0.0282043 0.0495682 6.03725e-19)
(-0.0379291 0.0736937 -7.6798e-19)
(-0.041882 0.0918847 1.77696e-19)
(-0.0408292 0.104875 -3.64274e-19)
(-0.0353766 0.11344 8.10685e-19)
(-0.026053 0.118288 -5.79952e-19)
(-0.0132984 0.120037 6.65067e-19)
(0.00253603 0.119213 -6.30205e-19)
(0.0211785 0.116243 2.71328e-19)
(0.0424273 0.111465 -1.30848e-19)
(0.0661409 0.105137 -3.31449e-19)
(0.0922284 0.0974482 -4.13163e-19)
(0.120639 0.0885327 4.14757e-19)
(0.151349 0.0784923 -3.4963e-19)
(0.184334 0.0674239 -7.73624e-19)
(0.219514 0.0554693 8.09305e-19)
(0.256767 0.0430029 -1.03859e-18)
(0.296128 0.0311945 4.72048e-19)
(0.335332 0.0217132 1.53262e-20)
(-0.0117709 0.0175468 -7.57041e-19)
(-0.0285451 0.0454917 -8.13817e-19)
(-0.0381215 0.0674826 9.3905e-20)
(-0.0414266 0.0839393 -7.80067e-19)
(-0.0391941 0.0955648 -6.82984e-20)
(-0.0320454 0.103088 -5.72854e-19)
(-0.0205356 0.107167 -1.31226e-19)
(-0.0051305 0.108374 -3.83711e-19)
(0.013797 0.107197 4.72546e-21)
(0.0359592 0.104033 -1.67781e-19)
(0.0611426 0.0991958 1.38265e-20)
(0.0891941 0.0929239 -4.89753e-19)
(0.120006 0.0853886 5.46731e-19)
(0.153501 0.0767058 -7.74617e-19)
(0.189613 0.0669525 2.79179e-19)
(0.228257 0.0561907 1.26429e-20)
(0.269261 0.0445091 -4.4681e-19)
(0.312366 0.0322282 1.123e-18)
(0.357602 0.0207127 -2.65998e-19)
(0.402552 0.0123511 -1.70877e-19)
(-0.0119893 0.0161982 8.47875e-19)
(-0.0288623 0.0416044 4.56416e-19)
(-0.0381374 0.0612677 4.23242e-19)
(-0.0405876 0.0757241 6.30281e-20)
(-0.0369152 0.08571 5.70374e-19)
(-0.0277494 0.0919441 8.20764e-19)
(-0.0136562 0.0950566 6.70315e-19)
(0.00488891 0.0955896 6.12365e-20)
(0.027506 0.0939985 4.92581e-19)
(0.0539004 0.0906552 7.61916e-19)
(0.0838467 0.0858536 -1.97395e-19)
(0.117169 0.0798163 3.33317e-19)
(0.153719 0.0727024 2.68903e-19)
(0.19335 0.0646157 2.7613e-19)
(0.2359 0.055617 1.65486e-18)
(0.281158 0.045742 -6.22056e-19)
(0.328789 0.0350262 -3.7434e-20)
(0.378311 0.0236946 7.36616e-19)
(0.429673 0.0132335 -4.19831e-19)
(0.480693 0.00701622 2.03131e-19)
(-0.012289 0.0150592 -6.83836e-19)
(-0.0291381 0.0380053 4.29106e-20)
(-0.0378324 0.0552492 -5.42906e-19)
(-0.0390436 0.0675459 -6.99936e-20)
(-0.033458 0.0757205 3.95893e-19)
(-0.0217102 0.0805152 -1.17844e-18)
(-0.00436803 0.0825549 -1.49195e-21)
(0.0180939 0.0823638 5.48403e-19)
(0.0452935 0.0803759 5.14749e-19)
(0.0769251 0.0769432 -2.27286e-19)
(0.112734 0.0723439 7.55579e-20)
(0.152491 0.0667901 1.74267e-19)
(0.195956 0.0604344 -8.25558e-20)
(0.242855 0.0533773 -9.38729e-19)
(0.292851 0.0456755 2.37055e-19)
(0.345521 0.037353 6.65526e-19)
(0.400295 0.028404 -9.53282e-19)
(0.456394 0.0189251 4.64322e-19)
(0.513595 0.0104195 1.25949e-19)
(0.570449 0.00767027 6.28284e-19)
(-0.012668 0.0141169 -9.96226e-20)
(-0.0293002 0.0347192 -4.76421e-19)
(-0.0369914 0.0495404 2.1896e-19)
(-0.0363913 0.0596258 9.44575e-22)
(-0.0281964 0.0659304 -9.49579e-19)
(-0.0130526 0.0692473 1.48557e-19)
(0.00847038 0.0702153 -2.80023e-20)
(0.0358956 0.0693527 1.90994e-19)
(0.0688272 0.06708 -8.74849e-19)
(0.106923 0.0637341 -6.24293e-20)
(0.149858 0.0595806 -2.07693e-19)
(0.197292 0.0548229 1.82682e-19)
(0.248829 0.049611 6.25024e-19)
(0.303988 0.0440494 -9.62952e-20)
(0.362177 0.0382049 3.86853e-20)
(0.422678 0.0321138 2.48536e-19)
(0.484592 0.0257623 -6.28775e-20)
(0.546778 0.0191495 5.15475e-19)
(0.608716 0.0137742 -2.94833e-19)
(0.669819 0.0161659 -4.60754e-19)
(-0.0130942 0.0133273 9.32645e-20)
(-0.0292181 0.0317046 2.32978e-20)
(-0.0353338 0.0441702 1.90634e-19)
(-0.0321644 0.0520922 4.65614e-19)
(-0.0204528 0.0565797 2.60666e-19)
(-0.000872719 0.0584962 2.68773e-20)
(0.025989 0.0585074 -3.09917e-19)
(0.0596298 0.0571341 7.95376e-20)
(0.0996032 0.0547874 4.18226e-19)
(0.145477 0.0517896 -7.09168e-19)
(0.196792 0.04839 5.36099e-19)
(0.253019 0.0447781 -4.05091e-19)
(0.313526 0.0410944 3.45465e-19)
(0.377562 0.0374425 -7.48168e-19)
(0.444238 0.0339034 8.28241e-19)
(0.512528 0.0305465 -8.87862e-19)
(0.581223 0.0274117 -2.33052e-19)
(0.648851 0.0245762 7.32698e-19)
(0.714415 0.023746 -2.465e-19)
(0.776069 0.0319441 1.099e-19)
(-0.0135066 0.0126241 -7.01877e-20)
(-0.0287085 0.028869 6.62163e-19)
(-0.0325273 0.0390951 -3.22161e-21)
(-0.0258616 0.0449865 -4.10225e-19)
(-0.00954602 0.0478121 -2.74625e-19)
(0.0156875 0.0485152 5.03527e-19)
(0.0491985 0.0477943 -1.99277e-19)
(0.0904099 0.0461756 -2.50681e-20)
(0.138758 0.0440586 4.15133e-19)
(0.193639 0.0417437 -5.15708e-19)
(0.254364 0.0394517 5.71245e-20)
(0.320121 0.0373385 -6.73338e-19)
(0.389965 0.0355094 3.55943e-19)
(0.462819 0.034035 -1.02023e-18)
(0.537498 0.0329709 1.62954e-18)
(0.612752 0.0323825 -3.00453e-19)
(0.68731 0.0323766 3.10928e-19)
(0.760013 0.0333043 -8.04914e-19)
(0.830458 0.0369688 9.74013e-21)
(0.890876 0.043926 8.49013e-19)
(-0.0138194 0.0119305 -2.1211e-19)
(-0.0275454 0.0260903 1.828e-19)
(-0.0282064 0.0342226 -6.74162e-19)
(-0.016976 0.0382836 9.96351e-19)
(0.00516458 0.0396904 -7.18528e-19)
(0.0373769 0.0394651 3.70363e-20)
(0.0789062 0.038337 -7.73258e-19)
(0.129021 0.0368327 5.52724e-19)
(0.186944 0.0353306 -7.90128e-20)
(0.251791 0.034094 -4.88611e-19)
(0.322529 0.0332922 -2.85938e-19)
(0.397965 0.0330182 3.01893e-19)
(0.476758 0.0333038 2.00238e-19)
(0.55746 0.0341366 -8.85248e-19)
(0.638577 0.0354772 3.19607e-19)
(0.718643 0.0372764 -4.71322e-19)
(0.796305 0.0394899 5.93848e-20)
(0.870437 0.0421374 -3.91121e-19)
(0.940605 0.0457527 1.4293e-19)
(1.00264 0.0504928 -5.61845e-19)
(-0.0139299 0.0111714 6.04116e-19)
(-0.0254753 0.0232413 -3.65974e-19)
(-0.0219915 0.0294404 3.01216e-19)
(-0.00502005 0.0319239 -3.79685e-19)
(0.0242468 0.0322293 6.35888e-19)
(0.0647953 0.0314463 -1.12411e-20)
(0.115668 0.0303243 -7.73791e-20)
(0.175871 0.0293759 -5.7513e-20)
(0.244289 0.0289403 3.52767e-19)
(0.319629 0.0292186 6.00329e-19)
(0.400405 0.0302991 -3.54875e-19)
(0.484952 0.0321782 3.45427e-19)
(0.571491 0.0347801 6.31017e-19)
(0.658203 0.0379783 -4.41979e-19)
(0.74333 0.0416155 -8.92656e-19)
(0.825265 0.0455222 1.62812e-18)
(0.902636 0.0495277 -2.90318e-19)
(0.974386 0.0534812 -9.09118e-20)
(1.03994 0.0573823 9.60062e-19)
(1.09768 0.0626364 -2.15242e-19)
(-0.0137271 0.0102849 -9.82372e-19)
(-0.0222312 0.0202139 -6.53584e-19)
(-0.0135055 0.0246496 -2.50623e-19)
(0.0104577 0.025852 4.83437e-19)
(0.0481786 0.0254386 -1.09108e-18)
(0.0983766 0.0245449 5.64627e-19)
(0.159775 0.0239183 7.15071e-20)
(0.230981 0.0240334 7.19957e-20)
(0.310404 0.0251593 -7.40096e-19)
(0.396214 0.0274004 -2.6162e-19)
(0.486374 0.0307268 -4.60947e-19)
(0.57871 0.0350031 4.4498e-19)
(0.67102 0.0400181 1.25437e-19)
(0.7612 0.0455153 2.43542e-20)
(0.847359 0.051221 5.70785e-19)
(0.927918 0.0568684 -5.81319e-19)
(1.00167 0.0622123 -2.28449e-20)
(1.06783 0.067055 1.95435e-20)
(1.126 0.0712008 8.31824e-20)
(1.17627 0.0767162 4.11507e-19)
(-0.0130983 0.00922913 3.12683e-19)
(-0.0175454 0.0169385 8.04691e-19)
(-0.00238509 0.0197944 6.45385e-19)
(0.0298631 0.0200554 -2.22436e-19)
(0.0773413 0.0193679 7.73461e-19)
(0.138385 0.0188793 -6.4951e-20)
(0.211255 0.0193016 -9.19078e-20)
(0.294007 0.0210317 5.43668e-20)
(0.384427 0.0242259 7.48084e-19)
(0.480044 0.0288463 4.39545e-19)
(0.578224 0.034703 1.28474e-19)
(0.676311 0.0414976 8.37725e-21)
(0.771791 0.0488681 -8.46263e-19)
(0.862439 0.0564319 7.35995e-19)
(0.946448 0.0638241 1.23446e-19)
(1.02249 0.0707248 -2.06686e-19)
(1.08975 0.0768771 -8.70395e-19)
(1.1479 0.0821102 -6.80065e-20)
(1.19698 0.0862088 3.33075e-19)
(1.23817 0.0914397 -6.37034e-20)
(-0.011934 0.00798619 -7.92247e-19)
(-0.0111574 0.0133968 3.31354e-19)
(0.011711 0.0148848 -1.61808e-18)
(0.0535494 0.0145951 6.62871e-19)
(0.112013 0.0141411 -5.28742e-19)
(0.18491 0.0146362 3.90183e-19)
(0.269874 0.0167066 -6.06106e-19)
(0.364245 0.020617 5.54879e-20)
(0.465059 0.0263535 -3.11925e-20)
(0.569146 0.0336839 1.62865e-19)
(0.673308 0.04222 2.34528e-19)
(0.774528 0.0514818 -4.4287e-19)
(0.870177 0.0609622 2.3531e-19)
(0.958162 0.0701815 2.14112e-19)
(1.03701 0.0787305 9.0897e-19)
(1.10589 0.0862951 -3.98482e-19)
(1.16454 0.092667 -2.54504e-19)
(1.21324 0.0977515 4.24799e-19)
(1.25256 0.101431 2.14001e-19)
(1.28422 0.105816 -4.22814e-19)
(-0.0101301 0.00656244 6.93333e-19)
(-0.00282033 0.00962797 6.68235e-19)
(0.0290933 0.0100095 1.92994e-19)
(0.0818062 0.00962204 8.13012e-19)
(0.152355 0.00997404 3.99964e-19)
(0.237852 0.0120822 -7.2079e-19)
(0.335122 0.0164189 1.09259e-18)
(0.440639 0.023045 -5.37786e-19)
(0.55061 0.0317101 5.36584e-19)
(0.661187 0.0419381 6.93018e-19)
(0.768739 0.0531182 -3.95785e-19)
(0.870115 0.0645955 7.54458e-20)
(0.962847 0.075752 4.15244e-19)
(1.04526 0.0860664 2.90103e-19)
(1.11646 0.0951498 6.58747e-19)
(1.17628 0.102758 -2.68569e-19)
(1.22516 0.108783 -3.7029e-20)
(1.26395 0.113239 3.97077e-19)
(1.29375 0.116151 -8.78654e-20)
(1.31652 0.119321 -8.72747e-22)
(-0.00758796 0.00498624 -3.57793e-19)
(0.00769409 0.00572734 -1.31453e-18)
(0.0500313 0.00533672 3.09765e-19)
(0.114842 0.00537871 -2.3587e-19)
(0.198387 0.00717074 -5.45295e-19)
(0.296891 0.0115514 -3.89824e-19)
(0.406194 0.0187518 -2.4092e-19)
(0.521792 0.0285452 5.8483e-19)
(0.639064 0.0403795 -3.47194e-19)
(0.753616 0.0535006 -3.55765e-19)
(0.861624 0.0670793 -4.47051e-19)
(0.96011 0.0803258 -7.36744e-20)
(1.04708 0.0925759 -5.2166e-20)
(1.12154 0.103342 -1.01498e-18)
(1.18337 0.112326 4.83766e-19)
(1.23317 0.11941 -6.37256e-19)
(1.27201 0.124624 1.91787e-19)
(1.30129 0.128106 -1.46692e-18)
(1.3225 0.130022 4.43829e-19)
(1.3376 0.13183 5.42856e-19)
(-0.00421427 0.00330503 -8.99745e-20)
(0.0205898 0.00184133 6.40342e-19)
(0.0747385 0.00110679 4.11095e-20)
(0.152758 0.00218563 9.89742e-20)
(0.249952 0.00610093 -2.01392e-19)
(0.361458 0.0134107 -3.37789e-21)
(0.481981 0.024002 -5.17959e-21)
(0.606005 0.0372741 -1.2147e-19)
(0.728196 0.0523234 4.31451e-19)
(0.843861 0.0681157 1.66099e-19)
(0.94932 0.0836461 7.5049e-19)
(1.04211 0.0980641 -2.03843e-19)
(1.12102 0.110746 1.40717e-19)
(1.18591 0.121319 -1.6574e-20)
(1.23751 0.129639 3.85918e-19)
(1.27715 0.135752 2.31698e-19)
(1.30647 0.139837 5.4706e-19)
(1.32723 0.14215 -8.77893e-19)
(1.34114 0.142968 1.09063e-18)
(1.35007 0.143444 -3.44639e-19)
(7.84123e-05 0.0015824 -8.3315e-19)
(0.0360382 -0.00184031 -2.60696e-19)
(0.103354 -0.00238214 2.03295e-19)
(0.195523 0.000418246 1.28344e-19)
(0.306688 0.00716557 1.32161e-19)
(0.430717 0.0180154 1.33772e-19)
(0.561094 0.0324003 -3.35354e-19)
(0.691366 0.0492733 -1.37772e-19)
(0.815729 0.0673628 4.33536e-20)
(0.929547 0.0853951 -4.07797e-19)
(1.02967 0.102272 -1.82669e-19)
(1.11447 0.117183 1.1016e-18)
(1.18372 0.129637 -2.84939e-19)
(1.23824 0.139446 -3.85673e-19)
(1.27956 0.146662 -1.7815e-19)
(1.30962 0.151505 1.25917e-19)
(1.33044 0.154294 1.47325e-19)
(1.34399 0.155378 -7.04789e-19)
(1.35201 0.155106 1.00715e-18)
(1.35621 0.154393 -8.7083e-19)
(0.0053695 -0.000104062 -9.35922e-20)
(0.0541679 -0.00509294 2.66891e-20)
(0.135921 -0.0047914 -3.46758e-20)
(0.242941 0.000478518 5.04135e-19)
(0.368008 0.0107576 2.81886e-20)
(0.503575 0.0256634 1.85384e-19)
(0.641922 0.044072 -3.85735e-19)
(0.775874 0.0644495 -1.38011e-20)
(0.899517 0.0851875 5.33492e-19)
(1.00869 0.10486 7.34139e-20)
(1.10115 0.122388 -4.60448e-19)
(1.17634 0.137108 -4.04899e-20)
(1.23512 0.148746 -3.7051e-19)
(1.27921 0.157343 3.71153e-19)
(1.31083 0.16316 5.0578e-19)
(1.33233 0.166579 -5.5329e-20)
(1.34595 0.168029 -6.55864e-20)
(1.35366 0.167922 1.99583e-19)
(1.35714 0.166641 -6.3159e-19)
(1.35788 0.164924 5.60415e-19)
(0.0117267 -0.00166425 9.48845e-20)
(0.0750527 -0.00766537 -6.09461e-19)
(0.172371 -0.00576023 1.62879e-19)
(0.294643 0.00276559 -5.07728e-19)
(0.433101 0.0172245 1.74829e-19)
(0.578724 0.0365597 -6.48886e-19)
(0.72274 0.059015 2.61642e-19)
(0.857597 0.0825791 -8.35266e-20)
(0.977722 0.105391 -3.50343e-21)
(1.07986 0.125996 8.40249e-20)
(1.16293 0.143464 -3.0495e-19)
(1.22762 0.157373 -4.31855e-19)
(1.27581 0.167722 -8.68892e-20)
(1.31002 0.174799 -3.89843e-20)
(1.33294 0.179059 -9.83572e-20)
(1.34714 0.181016 -3.15509e-20)
(1.35489 0.181173 -9.43608e-20)
(1.35806 0.179969 -8.12135e-20)
(1.35816 0.177794 -2.36824e-19)
(1.35645 0.17526 3.72793e-19)
(0.0192009 -0.0029969 2.26338e-19)
(0.0986996 -0.00928836 -2.51593e-19)
(0.212507 -0.00492407 5.4229e-19)
(0.350073 0.00764838 -2.34718e-19)
(0.500956 0.0268384 6.27486e-19)
(0.654715 0.0507945 9.61916e-21)
(0.801824 0.0771 3.14702e-19)
(0.934812 0.103335 -8.4837e-20)
(1.04893 0.127518 3.49216e-19)
(1.14216 0.148313 2.40407e-20)
(1.21482 0.165055 8.20763e-19)
(1.26878 0.177638 -5.64224e-19)
(1.30685 0.186358 7.69133e-20)
(1.33211 0.191739 1.44758e-19)
(1.34754 0.194396 7.39238e-19)
(1.35574 0.194934 -2.64908e-19)
(1.35888 0.193893 -5.18235e-20)
(1.35862 0.191707 -2.69112e-19)
(1.35628 0.188759 -2.66208e-20)
(1.35289 0.185567 1.33643e-19)
(0.0278211 -0.00399131 -1.0771e-19)
(0.125038 -0.00968357 3.12587e-19)
(0.255998 -0.00193239 -3.2194e-19)
(0.408507 0.0154418 1.26413e-19)
(0.570409 0.0397749 -1.52626e-19)
(0.730048 0.0683378 5.58172e-19)
(0.877573 0.0980875 -7.83668e-20)
(1.00612 0.126324 1.89493e-19)
(1.1122 0.151112 -1.12381e-19)
(1.1953 0.171381 -3.32715e-21)
(1.25714 0.186823 1.25352e-19)
(1.3007 0.197691 -9.66581e-20)
(1.32949 0.204569 2.49547e-19)
(1.34696 0.208185 -1.24679e-19)
(1.35615 0.209269 -5.38339e-19)
(1.35958 0.208478 5.32586e-19)
(1.35918 0.206352 -2.37025e-19)
(1.35642 0.203299 1.88784e-19)
(1.35236 0.199687 3.2303e-19)
(1.34785 0.19596 1.32345e-19)
(0.0375891 -0.00452967 2.68473e-19)
(0.153913 -0.00857362 -5.53672e-19)
(0.302379 0.00353408 1.0568e-19)
(0.469074 0.0263878 -7.70886e-20)
(0.640211 0.0561027 -3.1218e-19)
(0.803268 0.0890474 -2.44497e-19)
(0.94861 0.121657 -4.837e-20)
(1.0705 0.15113 -4.3335e-19)
(1.16706 0.175753 -2.63369e-20)
(1.2394 0.194849 -7.99415e-20)
(1.29056 0.208534 -2.15499e-19)
(1.32444 0.217419 -4.81185e-20)
(1.34504 0.22235 -1.63171e-19)
(1.35592 0.224209 -2.68969e-19)
(1.36008 0.223798 2.73203e-19)
(1.35979 0.221786 3.60539e-20)
(1.35677 0.218686 7.17462e-20)
(1.35221 0.214866 -3.08747e-19)
(1.34698 0.210679 -8.62611e-21)
(1.34173 0.206499 -4.69626e-19)
(0.0484753 -0.00449048 2.92481e-19)
(0.185081 -0.00569317 1.95604e-19)
(0.351061 0.0117471 -3.16976e-19)
(0.530794 0.0406411 4.94745e-19)
(0.709088 0.0757828 -5.38183e-20)
(0.873048 0.112687 1.84665e-19)
(1.01384 0.147439 6.38786e-20)
(1.12732 0.177342 2.24854e-19)
(1.21344 0.201077 -1.76076e-19)
(1.27492 0.218456 5.81288e-20)
(1.31596 0.230042 -5.56063e-20)
(1.34114 0.236786 -2.37609e-20)
(1.35469 0.239745 4.59162e-20)
(1.36017 0.239907 -8.3751e-20)
(1.36035 0.2381 -2.52106e-20)
(1.35726 0.234973 -7.7485e-20)
(1.35232 0.230995 -1.25112e-19)
(1.34651 0.226488 8.10739e-20)
(1.34049 0.221791 -1.0905e-19)
(1.33478 0.217207 4.73167e-19)
(0.0604162 -0.00375271 -1.45359e-19)
(0.218212 -0.000800677 -4.13601e-19)
(0.401351 0.0229166 -5.51029e-20)
(0.592625 0.0582621 -1.55371e-20)
(0.775817 0.0986761 -1.85825e-19)
(0.938254 0.13895 -3.04907e-19)
(1.07248 0.175042 9.92903e-20)
(1.1763 0.204581 -1.36371e-19)
(1.25157 0.226784 -1.51742e-19)
(1.30252 0.242011 8.41048e-20)
(1.33428 0.251268 -6.32815e-20)
(1.35185 0.255799 -1.26978e-19)
(1.35952 0.256819 -3.53177e-21)
(1.36066 0.255369 8.58617e-20)
(1.35778 0.252268 -8.63119e-20)
(1.3526 0.248121 1.19857e-19)
(1.3463 0.243341 3.25886e-20)
(1.33963 0.238203 8.04257e-20)
(1.33311 0.233039 1.54592e-19)
(1.32712 0.228073 -1.32337e-19)
(0.0733128 -0.00220059 1.3851e-19)
(0.252895 0.00630978 -1.15123e-20)
(0.452475 0.037179 6.2923e-20)
(0.653512 0.0792146 -8.48501e-20)
(0.839281 0.124557 7.46898e-21)
(0.997978 0.167481 2.94184e-19)
(1.12403 0.20408 -1.92694e-19)
(1.21744 0.23251 8.13327e-20)
(1.28191 0.252636 7.1505e-20)
(1.32299 0.265387 -1.99568e-19)
(1.34646 0.272177 1.86823e-19)
(1.35754 0.274488 1.71328e-21)
(1.36039 0.273635 -1.30137e-19)
(1.35813 0.270668 1.56509e-19)
(1.35293 0.266367 -6.17078e-20)
(1.34625 0.261276 4.70014e-20)
(1.339 0.25575 -5.26912e-20)
(1.33177 0.250019 -2.13085e-20)
(1.32496 0.244413 -1.80887e-19)
(1.31882 0.239066 5.55711e-20)
(0.0870313 0.000271288 -4.61962e-20)
(0.28865 0.0157976 1.25073e-19)
(0.503612 0.0545894 1.96933e-20)
(0.712431 0.10337 8.19903e-20)
(0.898508 0.153129 3.92154e-20)
(1.05155 0.197901 1.84073e-20)
(1.16827 0.234182 1.0354e-19)
(1.25095 0.260836 -1.2502e-20)
(1.30503 0.278444 4.53363e-20)
(1.33709 0.288495 7.2506e-20)
(1.35335 0.292757 3.47791e-20)
(1.35901 0.292885 2.48735e-20)
(1.35802 0.290243 1.00579e-19)
(1.35314 0.28585 -9.73128e-20)
(1.34624 0.280427 2.07856e-20)
(1.33849 0.274451 -1.93381e-20)
(1.33061 0.268216 2.99489e-20)
(1.32305 0.261913 2.50187e-20)
(1.31607 0.255877 5.17457e-20)
(1.30988 0.250137 2.03001e-21)
(0.101406 0.00375292 2.7428e-20)
(0.324941 0.0277666 2.50403e-20)
(0.553921 0.0751178 -3.47664e-20)
(0.768431 0.130514 2.17316e-20)
(0.952695 0.184043 1.22591e-20)
(1.09852 0.229818 -3.82113e-20)
(1.20519 0.265001 1.25358e-20)
(1.27721 0.289306 2.33843e-21)
(1.32156 0.304059 2.14963e-20)
(1.34558 0.311271 -5.76131e-20)
(1.35569 0.312999 -1.47722e-22)
(1.35694 0.311011 1.58324e-20)
(1.35293 0.306668 -1.26249e-20)
(1.34609 0.300933 1.27513e-20)
(1.33797 0.294451 3.30857e-20)
(1.3295 0.287631 -1.877e-20)
(1.32124 0.280709 5.26817e-21)
(1.3135 0.273844 2.0428e-20)
(1.30648 0.267379 -3.35073e-20)
(1.30031 0.261224 1.61757e-20)
(0.116243 0.00831432 7.56286e-20)
(0.3612 0.0422581 -4.13539e-20)
(0.602576 0.0986495 4.88267e-20)
(0.820663 0.16036 -3.63492e-20)
(1.00122 0.216913 -1.62767e-20)
(1.13864 0.262843 4.98104e-21)
(1.23492 0.296218 -1.5922e-20)
(1.29666 0.3177 5.71276e-20)
(1.33212 0.329356 -4.75017e-20)
(1.34913 0.333661 1.11593e-20)
(1.35411 0.332892 -8.30027e-21)
(1.35184 0.328869 -5.38286e-20)
(1.34553 0.32291 5.21539e-20)
(1.33727 0.315903 1.98011e-20)
(1.32832 0.308411 -1.96509e-20)
(1.3194 0.300774 4.60598e-20)
(1.31094 0.293176 -7.19325e-22)
(1.30315 0.285753 -4.44396e-20)
(1.29617 0.278851 3.27938e-20)
(1.29008 0.272259 1.03445e-20)
(0.131325 0.0140017 -2.65395e-20)
(0.396836 0.0592476 7.67131e-20)
(0.648795 0.12499 8.89004e-20)
(0.868404 0.192563 -4.20496e-20)
(1.04364 0.251329 7.30012e-20)
(1.17184 0.296596 1.15438e-19)
(1.25773 0.327539 -6.44604e-21)
(1.30981 0.345824 -1.98132e-20)
(1.33731 0.354226 9.75307e-20)
(1.34833 0.355612 4.75313e-20)
(1.34914 0.352409 -8.59579e-21)
(1.34412 0.346437 7.07635e-20)
(1.33612 0.338943 -7.56985e-20)
(1.32688 0.330722 1.17979e-19)
(1.3174 0.322256 -1.96256e-20)
(1.30824 0.313819 5.62497e-20)
(1.29972 0.305548 1.0113e-20)
(1.292 0.297566 4.00034e-20)
(1.28512 0.29022 -3.80277e-20)
(1.27917 0.283165 9.34578e-21)
(0.146416 0.0208339 -4.12832e-20)
(0.431261 0.0786426 9.65633e-20)
(0.691858 0.153871 7.19986e-20)
(0.911056 0.226725 -1.09508e-20)
(1.07965 0.286868 1.12562e-19)
(1.19817 0.33071 -8.4752e-20)
(1.27396 0.358691 -6.53131e-21)
(1.31716 0.373499 7.42267e-20)
(1.33768 0.378561 2.34798e-20)
(1.3437 0.37706 3.30256e-20)
(1.34118 0.371506 -4.87722e-20)
(1.33409 0.363674 1.2736e-19)
(1.3249 0.354716 2.3762e-20)
(1.31504 0.345329 -1.12605e-19)
(1.30528 0.335915 1.64802e-19)
(1.29606 0.326688 -1.94197e-19)
(1.28761 0.317746 -8.90755e-20)
(1.28002 0.309201 1.49602e-20)
(1.27331 0.301401 8.61403e-20)
(1.26756 0.293861 -1.63427e-19)
(0.161271 0.0288006 -9.14831e-20)
(0.463908 0.100285 -2.16567e-19)
(0.731128 0.18496 -1.88164e-19)
(0.948164 0.262418 -2.55506e-19)
(1.10911 0.323103 -1.45369e-19)
(1.21779 0.364832 -3.01049e-19)
(1.28399 0.389417 3.83038e-20)
(1.31917 0.400557 -1.60011e-19)
(1.33371 0.402255 -1.76731e-20)
(1.33564 0.397931 2.63593e-20)
(1.33055 0.390118 -5.8025e-20)
(1.32199 0.380512 7.29095e-20)
(1.31203 0.370153 1.29785e-19)
(1.30183 0.359641 -1.82159e-19)
(1.29201 0.349299 2.97158e-20)
(1.28287 0.33929 8.48948e-20)
(1.27458 0.329676 1.42079e-19)
(1.26722 0.320567 -1.22536e-19)
(1.26074 0.312303 -5.86472e-21)