/*--------------------------------*- C++ -*----------------------------------*\
  =========                 |
  \\      /  F ield         | OpenFOAM: The Open Source CFD Toolbox
   \\    /   O peration     | Website:  https://openfoam.org
    \\  /    A nd           | Version:  6.0
     \\/     M anipulation  |
\*---------------------------------------------------------------------------*/
FoamFile
{
    version     2.0;
    format      ascii;
    class       surfaceScalarField;
    location    "44";
    object      phi;
}
// * * * * * * * * * * * * * * * * * * * * * * * * * * * * * * * * * * * * * //

dimensions      [0 3 -1 0 0 0 0];

internalField   nonuniform List<scalar> 
7840
(
3.45519e-05
-0.000244144
0.000122958
-0.000771095
0.00024871
-0.00130358
0.000393449
-0.00179934
0.000539946
-0.00222502
0.0006751
-0.00256348
0.000791231
-0.00281356
0.000885637
-0.0029853
0.000959209
-0.00309416
0.00101487
-0.00315643
0.00105627
-0.00318654
0.00108698
-0.00319589
0.00110998
-0.00319274
0.00112761
-0.00318271
0.00114154
-0.00316942
0.00115293
-0.00315511
0.00116259
-0.00314116
0.00117103
-0.0031284
0.00117861
-0.00311737
-0.00310859
0.0011855
3.60157e-05
-0.000280159
0.000125568
-0.000860647
0.000249416
-0.00142743
0.000387641
-0.00193756
0.000523003
-0.00236038
0.00064361
-0.00268409
0.00074351
-0.00291346
0.000821615
-0.00306341
0.000879978
-0.00315252
0.000922138
-0.00319859
0.000951922
-0.00321633
0.000972743
-0.00321671
0.000987311
-0.00320731
0.000997612
-0.00319301
0.00100502
-0.00317683
0.00101046
-0.00316055
0.00101454
-0.00314524
0.00101766
-0.00313153
0.00102009
-0.0031198
-0.00311044
0.00102194
3.70815e-05
-0.000317241
0.000126618
-0.000950184
0.000246876
-0.00154769
0.000376862
-0.00206755
0.000499822
-0.00248334
0.000605364
-0.00278963
0.000689282
-0.00299738
0.000751932
-0.00312606
0.00079627
-0.00319686
0.000826213
-0.00322853
0.000845574
-0.00323569
0.000857525
-0.00322866
0.000864448
-0.00321423
0.000868005
-0.00319657
0.0008693
-0.00317812
0.000869051
-0.0031603
0.000867727
-0.00314392
0.000865639
-0.00312944
0.000862977
-0.00311713
-0.00310729
0.000859828
3.77107e-05
-0.000354952
0.000126057
-0.00103853
0.000241157
-0.00166279
0.000361455
-0.00218785
0.00047112
-0.00259301
0.000561437
-0.00287995
0.000629874
-0.00306582
0.000678015
-0.0031742
0.000709474
-0.00322831
0.00072834
-0.0032474
0.000738279
-0.00324563
0.000742162
-0.00323255
0.000742037
-0.00321411
0.000739269
-0.0031938
0.00073473
-0.00317358
0.000728971
-0.00315454
0.000722353
-0.0031373
0.000715113
-0.0031222
0.0007074
-0.00310942
-0.00309917
0.000699273
3.78764e-05
-0.000392828
0.00012388
-0.00112453
0.000232409
-0.00177132
0.000341858
-0.00229729
0.000437668
-0.00268882
0.000512876
-0.00295516
0.000566492
-0.00311943
0.000601097
-0.0032088
0.000620736
-0.00324795
0.000629507
-0.00325617
0.000630839
-0.00324696
0.000627276
-0.00322898
0.000620545
-0.00320738
0.000611749
-0.003185
0.000601566
-0.0031634
0.000590414
-0.00314339
0.000578568
-0.00312545
0.000566215
-0.00310985
0.000553471
-0.00309668
-0.00308608
0.000540384
3.75639e-05
-0.000430392
0.000120126
-0.0012071
0.000220849
-0.00187204
0.000318564
-0.00239501
0.000400241
-0.0027705
0.000460665
-0.00301558
0.000500207
-0.00315898
0.000522219
-0.00323082
0.000530986
-0.00325672
0.000530488
-0.00325567
0.000523863
-0.00324034
0.000513326
-0.00321845
0.000500312
-0.00319436
0.000485696
-0.00317039
0.000469996
-0.0031477
0.000453526
-0.00312692
0.000436495
-0.00310842
0.000419051
-0.0030924
0.000401292
-0.00307892
-0.00306805
0.000383258
3.67703e-05
-0.000467162
0.000114867
-0.00128519
0.000206742
-0.00196391
0.000292095
-0.00248036
0.000359594
-0.00283799
0.000405699
-0.00306169
0.000431946
-0.00318522
0.000442248
-0.00324112
0.000440968
-0.00325544
0.000431882
-0.00324658
0.00041781
-0.00322626
0.000400653
-0.00320129
0.000381585
-0.00317529
0.000361292
-0.00315009
0.000340162
-0.00312657
0.000318424
-0.00310518
0.000296235
-0.00308623
0.000273716
-0.00306988
0.000250954
-0.00305616
-0.00304508
0.000227987
3.55039e-05
-0.000502666
0.000108208
-0.0013579
0.000190386
-0.00204609
0.000262975
-0.00255295
0.000316432
-0.00289145
0.000348774
-0.00309403
0.000362499
-0.00319895
0.000361893
-0.00324051
0.000351272
-0.00324482
0.00033415
-0.00322946
0.000313024
-0.00320514
0.000289505
-0.00317777
0.000264546
-0.00315034
0.000238674
-0.00312422
0.000212171
-0.00310007
0.000185199
-0.00307821
0.000157873
-0.00305891
0.000130291
-0.0030423
0.000102536
-0.0030284
-0.0030172
7.46531e-05
3.37827e-05
-0.000536449
0.000100275
-0.00142439
0.000172095
-0.00211791
0.000231714
-0.00261257
0.000271404
-0.00293114
0.000290587
-0.00311321
0.000292532
-0.00320089
0.000281733
-0.00322971
0.000262366
-0.00322545
0.000237647
-0.00320474
0.000209766
-0.00317726
0.000180071
-0.00314808
0.000149331
-0.00311959
0.000117944
-0.00309283
8.61069e-05
-0.00306823
5.3925e-05
-0.00304603
2.14764e-05
-0.00302646
-1.11575e-05
-0.00300967
-4.38925e-05
-0.00299567
-0.00298442
-7.66713e-05
3.16336e-05
-0.000568082
9.12107e-05
-0.00148397
0.000152187
-0.00217889
0.000198796
-0.00265918
0.000225093
-0.00295744
0.000231743
-0.00311986
0.0002226
-0.00319175
0.000202236
-0.00320935
0.000174618
-0.00319783
0.000142653
-0.00317278
0.000108236
-0.00314284
7.24958e-05
-0.00311233
3.60434e-05
-0.00308314
-8.21055e-07
-0.00305597
-3.79687e-05
-0.00303108
-7.53445e-05
-0.00300865
-0.000112904
-0.0029889
-0.00015058
-0.00297199
-0.000188282
-0.00295796
-0.00294677
-0.000225934
2.90903e-05
-0.000597173
8.11684e-05
-0.00153604
0.000130976
-0.0022287
0.00016467
-0.00269287
0.000178019
-0.00297079
0.000172758
-0.0031146
0.000153166
-0.00317216
0.000123786
-0.00317997
8.83276e-05
-0.00316238
4.93883e-05
-0.00313384
8.59861e-06
-0.00310205
-3.31055e-05
-0.00307063
-7.52336e-05
-0.00304101
-0.000117561
-0.00301364
-0.000160013
-0.00298863
-0.000202577
-0.00296609
-0.000245243
-0.00294623
-0.000287959
-0.00292927
-0.000330623
-0.0029153
-0.00290426
-0.000373133
2.61924e-05
-0.000623365
7.03054e-05
-0.00158016
0.000108762
-0.00226715
0.000129747
-0.00271386
0.000130638
-0.00297168
0.000114077
-0.00309804
8.46215e-05
-0.0031427
4.67017e-05
-0.00314205
3.74259e-06
-0.00311942
-4.19574e-05
-0.00308814
-8.90068e-05
-0.003055
-0.000136629
-0.00302301
-0.000184427
-0.00299322
-0.00023223
-0.00296584
-0.00028
-0.00294086
-0.000327763
-0.00291833
-0.000375548
-0.00289845
-0.000423322
-0.0028815
-0.000470968
-0.00286765
-0.00285688
-0.000518348
2.29838e-05
-0.000646349
5.87801e-05
-0.00161595
8.5833e-05
-0.00229421
9.44007e-05
-0.00272243
8.33536e-05
-0.00296063
5.60795e-05
-0.00307077
1.72957e-05
-0.00310392
-2.87466e-05
-0.00309601
-7.89206e-05
-0.00306924
-0.000131213
-0.00303585
-0.000184444
-0.00300177
-0.000237969
-0.00296948
-0.00029146
-0.00293973
-0.000344778
-0.00291252
-0.000397907
-0.00288773
-0.000450905
-0.00286533
-0.000503844
-0.00284551
-0.000556724
-0.00282862
-0.000609417
-0.00281496
-0.00280457
-0.000661724
1.95114e-05
-0.00066586
4.67486e-05
-0.00164319
6.24546e-05
-0.00230991
5.89683e-05
-0.00271894
3.652e-05
-0.00293818
-9.02111e-07
-0.00303335
-4.85237e-05
-0.0030563
-0.000102318
-0.00304221
-0.00015946
-0.0030121
-0.000218206
-0.0029771
-0.000277564
-0.00294241
-0.000337002
-0.00291005
-0.000396238
-0.00288049
-0.000455144
-0.00285362
-0.000513707
-0.00282917
-0.000572007
-0.00280703
-0.000630162
-0.00278736
-0.00068822
-0.00277056
-0.000746053
-0.00275713
-0.00274725
-0.000803369
1.5824e-05
-0.000681684
3.43621e-05
-0.00166173
3.88751e-05
-0.00231442
2.37521e-05
-0.00270382
-9.55137e-06
-0.00290488
-5.65784e-05
-0.00298632
-0.000112581
-0.0030003
-0.000173788
-0.00298101
-0.000237675
-0.00294821
-0.000302749
-0.00291203
-0.000368192
-0.00287697
-0.000433565
-0.00284467
-0.000498623
-0.00281543
-0.000563233
-0.00278901
-0.000627358
-0.00276504
-0.000691075
-0.00274331
-0.000754538
-0.00272389
-0.000817864
-0.00270724
-0.000880936
-0.00269406
-0.00268486
-0.000943326
1.19712e-05
-0.000693655
2.17651e-05
-0.00167152
1.53216e-05
-0.00230798
-1.09775e-05
-0.00267752
-5.45852e-05
-0.00286127
-0.000110692
-0.00293021
-0.000174642
-0.00293635
-0.000242939
-0.00291271
-0.000313354
-0.0028778
-0.000384626
-0.00284075
-0.0004561
-0.0028055
-0.000527428
-0.00277334
-0.000598403
-0.00274446
-0.000668876
-0.00271853
-0.000738767
-0.00269515
-0.000808108
-0.00267397
-0.000877063
-0.00265494
-0.000945823
-0.00263848
-0.00101431
-0.00262558
-0.0026172
-0.00108197
8.00247e-06
-0.000701658
9.09352e-06
-0.00167261
-7.9995e-06
-0.00229089
-4.49804e-05
-0.00264054
-9.83391e-05
-0.00280791
-0.000163013
-0.00286554
-0.00023449
-0.00286487
-0.000309558
-0.00283764
-0.000386269
-0.00280109
-0.000463585
-0.00276344
-0.000541003
-0.00272808
-0.000618278
-0.00269607
-0.000695249
-0.00266748
-0.000771772
-0.00264201
-0.000847715
-0.00261921
-0.000923036
-0.00259865
-0.000997875
-0.0025801
-0.00107251
-0.00256384
-0.00114693
-0.00255116
-0.00254336
-0.00122077
3.96587e-06
-0.000705624
-3.52696e-06
-0.00166512
-3.09036e-05
-0.00226351
-7.80461e-05
-0.00259339
-0.000140601
-0.00274536
-0.000213338
-0.0027928
-0.000291921
-0.00278629
-0.000373427
-0.00275614
-0.000456176
-0.00271834
-0.000539336
-0.00268028
-0.000622557
-0.00264486
-0.000705706
-0.00261292
-0.00078871
-0.00258448
-0.000871464
-0.00255926
-0.00095382
-0.00253685
-0.00103566
-0.0025168
-0.00111709
-0.00249867
-0.00119847
-0.00248246
-0.00128003
-0.00246959
-0.00246105
-0.00136234
-9.29513e-08
-0.000705531
-1.59825e-05
-0.00164923
-5.32288e-05
-0.00222626
-0.000109994
-0.00253663
-0.00018119
-0.00267416
-0.000261487
-0.0027125
-0.000346751
-0.00270102
-0.000434335
-0.00266855
-0.00052281
-0.00262986
-0.000611537
-0.00259155
-0.000700317
-0.00255608
-0.000789155
-0.00252408
-0.000878114
-0.00249552
-0.000967223
-0.00247015
-0.00105643
-0.00244765
-0.00114562
-0.00242762
-0.00123479
-0.0024095
-0.00132429
-0.00239296
-0.00141468
-0.00237921
-0.00236706
-0.00150866
-4.13185e-06
-0.000701399
-2.81729e-05
-0.00162519
-7.48381e-05
-0.0021796
-0.000140676
-0.00247079
-0.000219962
-0.00259488
-0.000307318
-0.00262515
-0.000398822
-0.00260952
-0.000492089
-0.00257528
-0.000585909
-0.00253604
-0.000679807
-0.00249765
-0.000773718
-0.00246217
-0.000867781
-0.00243002
-0.000962242
-0.00240106
-0.00105739
-0.002375
-0.00115349
-0.00235154
-0.00125075
-0.00233036
-0.00134928
-0.00231097
-0.00144965
-0.0022926
-0.00155405
-0.0022748
-0.0022688
-0.00165232
-8.10118e-06
-0.000693298
-3.99934e-05
-0.0015933
-9.55972e-05
-0.002124
-0.000169953
-0.00239644
-0.000256787
-0.00250804
-0.000350713
-0.00253122
-0.000448017
-0.00251222
-0.00054655
-0.00247675
-0.000645284
-0.00243731
-0.000743859
-0.00239908
-0.000842277
-0.00236375
-0.000940728
-0.00233157
-0.00103953
-0.00230226
-0.00113914
-0.0022754
-0.00124016
-0.00225052
-0.00134343
-0.00222709
-0.00144981
-0.00220459
-0.0015597
-0.0021827
-0.00167406
-0.00216044
-0.00213084
-0.00181202
-1.19895e-05
-0.000681308
-5.14104e-05
-0.00155388
-0.000115464
-0.00205994
-0.000197792
-0.00231411
-0.000291647
-0.00241419
-0.000391667
-0.0024312
-0.000494342
-0.00240954
-0.000597737
-0.00237336
-0.000700969
-0.00233408
-0.000803756
-0.00229629
-0.000906107
-0.0022614
-0.00100815
-0.00222952
-0.00111008
-0.00220033
-0.0012121
-0.00217338
-0.00131446
-0.00214816
-0.00141735
-0.0021242
-0.00152083
-0.0021011
-0.00162514
-0.00207839
-0.00173098
-0.00205461
-0.00202631
-0.00183551
-1.57579e-05
-0.00066555
-6.23498e-05
-0.00150728
-0.000134354
-0.00198794
-0.000224118
-0.00222434
-0.000324488
-0.00231382
-0.000430151
-0.00232554
-0.000537796
-0.00230189
-0.000645677
-0.00226547
-0.000753043
-0.00222671
-0.000859677
-0.00218966
-0.000965609
-0.00215547
-0.00107096
-0.00212417
-0.00117587
-0.00209542
-0.00128048
-0.00206877
-0.00138486
-0.00204378
-0.00148903
-0.00202003
-0.00159296
-0.00199717
-0.00169661
-0.00197475
-0.00179928
-0.00195194
-0.00192793
-0.00189766
-1.93841e-05
-0.000646166
-7.27697e-05
-0.0014539
-0.000152223
-0.00190848
-0.000248903
-0.00212766
-0.000355308
-0.00220741
-0.000466191
-0.00221466
-0.00057843
-0.00218966
-0.000690451
-0.00215345
-0.000801611
-0.00211555
-0.00091174
-0.00207953
-0.00102087
-0.00204634
-0.0011291
-0.00201594
-0.00123652
-0.001988
-0.00134319
-0.0019621
-0.00144911
-0.00193786
-0.00155422
-0.00191493
-0.00165836
-0.00189303
-0.00176126
-0.00187184
-0.00186227
-0.00185093
-0.00182987
-0.00196033
-2.28502e-05
-0.000623316
-8.26395e-05
-0.00139411
-0.000169048
-0.00182208
-0.000272142
-0.00202457
-0.000384128
-0.00209543
-0.000499838
-0.00209895
-0.000616331
-0.00207316
-0.00073219
-0.00203759
-0.000846869
-0.00200087
-0.000960244
-0.00196615
-0.00107236
-0.00193422
-0.00118329
-0.00190501
-0.00129312
-0.00187817
-0.00140186
-0.00185335
-0.00150951
-0.00183021
-0.00161598
-0.00180846
-0.00172114
-0.00178787
-0.00182474
-0.00176825
-0.00192638
-0.00174929
-0.00173077
-0.00202548
-2.6142e-05
-0.000597174
-9.19374e-05
-0.00132831
-0.000184815
-0.0017292
-0.000293842
-0.00191554
-0.000410981
-0.00197829
-0.000531149
-0.00197878
-0.000651582
-0.00195273
-0.000771004
-0.00191817
-0.000888959
-0.00188292
-0.00100537
-0.00184974
-0.00112028
-0.00181931
-0.00123379
-0.0017915
-0.00134596
-0.00176601
-0.00145682
-0.0017425
-0.00156634
-0.00172068
-0.00167448
-0.00170032
-0.00178113
-0.00168122
-0.00188614
-0.00166323
-0.00198932
-0.00164611
-0.00162971
-0.00209038
-2.92483e-05
-0.000567926
-0.000100649
-0.00125691
-0.000199518
-0.00163033
-0.000314019
-0.00180104
-0.000435903
-0.0018564
-0.000560189
-0.00185449
-0.000684271
-0.00182865
-0.000807009
-0.00179543
-0.000928027
-0.0017619
-0.00104729
-0.00173048
-0.00116486
-0.00170173
-0.00128085
-0.00167551
-0.00139533
-0.00165153
-0.00150834
-0.00162949
-0.00161988
-0.00160914
-0.00172994
-0.00159026
-0.00183846
-0.0015727
-0.00194538
-0.00155631
-0.00205061
-0.00154088
-0.00152632
-0.002154
-3.21605e-05
-0.000535765
-0.000108764
-0.00118031
-0.00021316
-0.00152593
-0.00033269
-0.00168151
-0.000458936
-0.00173016
-0.000587013
-0.00172641
-0.000714473
-0.00170119
-0.000840295
-0.00166961
-0.000964179
-0.00163802
-0.00108613
-0.00160854
-0.00120624
-0.00158162
-0.00132463
-0.00155712
-0.00144138
-0.00153478
-0.00155656
-0.00151432
-0.0016702
-0.0014955
-0.00178231
-0.00147814
-0.0018929
-0.0014621
-0.00200196
-0.00144725
-0.00210946
-0.00143338
-0.00142044
-0.00221534
-3.48717e-05
-0.000500894
-0.000116277
-0.0010989
-0.000225744
-0.00141647
-0.000349876
-0.00155738
-0.000480115
-0.00159992
-0.000611675
-0.00159486
-0.00074225
-0.00157061
-0.000870935
-0.00154093
-0.000997496
-0.00151145
-0.00112197
-0.00148406
-0.00124449
-0.0014591
-0.00136518
-0.00143643
-0.00148415
-0.00141581
-0.00160149
-0.00139698
-0.00171725
-0.00137974
-0.00183148
-0.00136391
-0.00194422
-0.00134937
-0.00205549
-0.00133598
-0.00216533
-0.00132354
-0.00131206
-0.00227371
-3.73763e-05
-0.000463517
-0.000123182
-0.0010131
-0.000237275
-0.00130237
-0.000365596
-0.00142906
-0.000499471
-0.00146604
-0.000634214
-0.00146011
-0.000767653
-0.00143717
-0.000898982
-0.0014096
-0.00102803
-0.0013824
-0.00115488
-0.00135721
-0.00127967
-0.0013343
-0.00140255
-0.00131355
-0.00152366
-0.0012947
-0.00164309
-0.00127755
-0.00176093
-0.0012619
-0.00187726
-0.00124758
-0.00199213
-0.00123449
-0.00210561
-0.0012225
-0.00221774
-0.00121141
-0.00120126
-0.00232854
-3.96694e-05
-0.000423848
-0.000129476
-0.000923291
-0.000247757
-0.00118409
-0.000379863
-0.00129695
-0.000517029
-0.00132888
-0.000654663
-0.00132248
-0.000790715
-0.00130112
-0.00092447
-0.00127584
-0.00105582
-0.00125106
-0.00118486
-0.00122817
-0.00131177
-0.00120739
-0.00143672
-0.0011886
-0.00155985
-0.00117158
-0.00168128
-0.00115612
-0.00180113
-0.00114205
-0.00191947
-0.00112924
-0.0020364
-0.00111756
-0.002152
-0.0011069
-0.00226632
-0.00109709
-0.00108817
-0.00237942
-4.17467e-05
-0.000382101
-0.000135155
-0.000829883
-0.000257192
-0.00106206
-0.000392691
-0.00116145
-0.000532809
-0.00118876
-0.000673045
-0.00118224
-0.00081146
-0.00116271
-0.000947421
-0.00113988
-0.00108086
-0.00111762
-0.00121193
-0.0010971
-0.0013408
-0.00107852
-0.00146766
-0.00106174
-0.00159267
-0.00104656
-0.00171598
-0.00103281
-0.0018377
-0.00102033
-0.00195795
-0.00100899
-0.00207682
-0.000998695
-0.0021944
-0.000989318
-0.00231077
-0.000980716
-0.000972951
-0.00242598
-4.36043e-05
-0.000338497
-0.000140217
-0.00073327
-0.000265584
-0.000936689
-0.000404086
-0.00102295
-0.000546823
-0.00104602
-0.000689375
-0.00103969
-0.000829903
-0.00102218
-0.000967842
-0.00100194
-0.00110317
-0.000982287
-0.00123606
-0.000964215
-0.00136671
-0.000947869
-0.00149532
-0.000933128
-0.00162206
-0.00091982
-0.00174709
-0.000907783
-0.00187054
-0.00089688
-0.00199254
-0.000887
-0.00211318
-0.00087805
-0.00223258
-0.000869919
-0.00235082
-0.00086248
-0.000855805
-0.00246796
-4.52387e-05
-0.000293258
-0.000144656
-0.000633853
-0.000272932
-0.000808413
-0.000414056
-0.000881828
-0.000559081
-0.000900998
-0.000703663
-0.000895107
-0.000846048
-0.000879794
-0.000985736
-0.000862256
-0.00112274
-0.000845281
-0.00125725
-0.000829703
-0.00138949
-0.000815631
-0.00151966
-0.000802956
-0.00164795
-0.000791529
-0.00177453
-0.000781208
-0.00189953
-0.000771876
-0.00202309
-0.000763437
-0.00214534
-0.000755808
-0.00226636
-0.000748891
-0.00238627
-0.000742576
-0.00073694
-0.00250513
-4.66464e-05
-0.000246612
-0.00014847
-0.000532029
-0.000279236
-0.000677647
-0.000422602
-0.000738461
-0.000569587
-0.000754014
-0.000715913
-0.000748781
-0.000859899
-0.000735808
-0.0010011
-0.000721058
-0.00113955
-0.000706824
-0.00127548
-0.000693781
-0.00140909
-0.000682012
-0.00154063
-0.000671422
-0.00167027
-0.000661884
-0.0017982
-0.00065328
-0.00192457
-0.000645512
-0.0020495
-0.000638499
-0.00217314
-0.000632169
-0.00229559
-0.00062644
-0.00241695
-0.00062122
-0.00061658
-0.00253731
-4.78247e-05
-0.000198787
-0.000151656
-0.000428198
-0.000284494
-0.000544809
-0.000429726
-0.000593229
-0.000578343
-0.000605397
-0.000726125
-0.000600999
-0.000871452
-0.000590481
-0.00101392
-0.000578592
-0.0011536
-0.000567146
-0.00129071
-0.00055667
-0.00142549
-0.000547226
-0.00155818
-0.000538734
-0.00168897
-0.000531092
-0.00181805
-0.000524206
-0.00194556
-0.000517996
-0.00207166
-0.000512396
-0.00219649
-0.000507349
-0.00232014
-0.000502786
-0.00244272
-0.000498635
-0.00049496
-0.00256434
-4.87707e-05
-0.000150016
-0.000154209
-0.00032276
-0.000288704
-0.000410314
-0.000435428
-0.000446505
-0.000585351
-0.000455473
-0.0007343
-0.000452051
-0.000880703
-0.000444078
-0.00102419
-0.000435106
-0.00116485
-0.000426484
-0.00130292
-0.0004186
-0.00143865
-0.000411496
-0.00157227
-0.000405113
-0.00170399
-0.000399372
-0.001834
-0.000394203
-0.00196245
-0.000389545
-0.00208949
-0.000385349
-0.00221527
-0.000381571
-0.0023399
-0.000378159
-0.00246348
-0.000375058
-0.000372322
-0.00258611
-4.94824e-05
-0.000100534
-0.000156127
-0.000216116
-0.000291864
-0.000274577
-0.000439706
-0.000298663
-0.000590609
-0.00030457
-0.000740434
-0.000302226
-0.000887647
-0.000296865
-0.0010319
-0.000290851
-0.00117331
-0.000285079
-0.0013121
-0.000279804
-0.00144855
-0.000275053
-0.00158287
-0.000270786
-0.0017153
-0.000266949
-0.001846
-0.000263497
-0.00197516
-0.000260387
-0.00210292
-0.000257587
-0.00222943
-0.000255068
-0.00235479
-0.000252794
-0.00247912
-0.00025073
-0.000248912
-0.00260253
-4.99579e-05
-5.05761e-05
-0.000157407
-0.000108667
-0.000293973
-0.000138011
-0.00044256
-0.000150075
-0.000594116
-0.000153013
-0.000744526
-0.000151816
-0.000892281
-0.000149111
-0.00103705
-0.000146082
-0.00117895
-0.000143176
-0.00131823
-0.000140522
-0.00145516
-0.000138132
-0.00158996
-0.000135985
-0.00172285
-0.000134054
-0.00185403
-0.000132317
-0.00198366
-0.000130753
-0.00211191
-0.000129345
-0.0022389
-0.000128078
-0.00236476
-0.000126935
-0.00248959
-0.000125897
-0.000124984
-0.00261352
-5.01962e-05
-3.79934e-07
-0.000158048
-8.15204e-07
-0.000295028
-1.03125e-06
-0.000443988
-1.11529e-06
-0.000595872
-1.1299e-06
-0.000746575
-1.11325e-06
-0.0008946
-1.0852e-06
-0.00103963
-1.05461e-06
-0.00118178
-1.02478e-06
-0.0013213
-9.96654e-07
-0.00145847
-9.70364e-07
-0.0015935
-9.4579e-07
-0.00172664
-9.22774e-07
-0.00185805
-9.01165e-07
-0.00198793
-8.8083e-07
-0.00211641
-8.61659e-07
-0.00224364
-8.43553e-07
-0.00236975
-8.264e-07
-0.00249484
-8.10064e-07
-7.94559e-07
-0.00261903
-5.01968e-05
4.98169e-05
-0.00015805
0.000107038
-0.00029503
0.000135949
-0.000443991
0.000147845
-0.000595875
0.000150754
-0.000746578
0.00014959
-0.000894604
0.000146941
-0.00103963
0.000143973
-0.00118178
0.000141127
-0.00132131
0.000138529
-0.00145847
0.000136191
-0.00159351
0.000134093
-0.00172664
0.000132209
-0.00185806
0.000130515
-0.00198793
0.000128992
-0.00211641
0.000127622
-0.00224365
0.000126391
-0.00236976
0.000125282
-0.00249484
0.000124277
0.000123395
-0.00261903
-4.99598e-05
9.97766e-05
-0.000157411
0.000214489
-0.000293979
0.000272517
-0.000442568
0.000296434
-0.000594126
0.000302312
-0.000744537
0.000300001
-0.000892293
0.000294696
-0.00103706
0.000288743
-0.00117897
0.00028303
-0.00131825
0.000277811
-0.00145517
0.000273113
-0.00158997
0.000268895
-0.00172287
0.000265104
-0.00185405
0.000261695
-0.00198368
0.000258625
-0.00211192
0.000255864
-0.00223891
0.000253381
-0.00236477
0.000251142
-0.00248961
0.00024911
0.000247324
-0.00261353
-4.94854e-05
0.000149262
-0.000156134
0.000321138
-0.000291875
0.000408259
-0.000439721
0.00044428
-0.000590626
0.000453218
-0.000740453
0.000449828
-0.000887667
0.00044191
-0.00103192
0.000432999
-0.00117333
0.000424436
-0.00131213
0.000416608
-0.00144857
0.000409557
-0.0015829
0.000403223
-0.00171532
0.000397528
-0.00184603
0.000392402
-0.00197519
0.000387784
-0.00210295
0.000383627
-0.00222945
0.000379885
-0.00235482
0.000376507
-0.00247915
0.000373439
0.000370734
-0.00260256
-4.8775e-05
0.000198037
-0.000154219
0.000426582
-0.00028872
0.000542759
-0.000435448
0.000591008
-0.000585375
0.000603144
-0.000734326
0.000598779
-0.000880731
0.000588315
-0.00102422
0.000576487
-0.00116488
0.0005651
-0.00130295
0.00055468
-0.00143869
0.000545288
-0.00157231
0.000536845
-0.00170403
0.000529249
-0.00183403
0.000522406
-0.00196248
0.000516236
-0.00208953
0.000510674
-0.00221531
0.000505663
-0.00233994
0.000501135
-0.00246352
0.000497017
0.000493373
-0.00258615
-4.78303e-05
0.000245867
-0.000151669
0.000530421
-0.000284515
0.000675605
-0.000429753
0.000736246
-0.000578374
0.000751765
-0.000726159
0.000746564
-0.000871488
0.000733645
-0.00101396
0.000718955
-0.00115364
0.000704779
-0.00129075
0.000691792
-0.00142554
0.000680075
-0.00155823
0.000669534
-0.00168902
0.000660041
-0.00181809
0.000651481
-0.00194561
0.000643753
-0.00207171
0.000636778
-0.00219653
0.000630484
-0.00232019
0.000624789
-0.00244277
0.000619602
0.000614994
-0.0025644
-4.66533e-05
0.000292521
-0.000148487
0.000632255
-0.000279262
0.000806379
-0.000422635
0.000879619
-0.000569625
0.000898755
-0.000715955
0.000892894
-0.000859944
0.000877634
-0.00100114
0.000860156
-0.0011396
0.000843239
-0.00127553
0.000827716
-0.00140915
0.000813696
-0.00154069
0.00080107
-0.00167033
0.000789687
-0.00179826
0.00077941
-0.00192463
0.000770118
-0.00204956
0.000761717
-0.0021732
0.000754124
-0.00229566
0.000747241
-0.00241701
0.00074096
0.000735354
-0.00253737
-4.52469e-05
0.000337768
-0.000144676
0.000731685
-0.000272963
0.000934666
-0.000414095
0.00102075
-0.000559126
0.00104379
-0.000703713
0.00103748
-0.000846103
0.00102002
-0.000985793
0.000999847
-0.0011228
0.000980248
-0.00125732
0.00096223
-0.00138956
0.000945936
-0.00151973
0.000931243
-0.00164802
0.00091798
-0.0017746
0.000905986
-0.0018996
0.000895123
-0.00202317
0.000885281
-0.00214541
0.000876366
-0.00226644
0.00086827
-0.00238634
0.000860864
0.00085422
-0.00250521
-4.36139e-05
0.000381381
-0.00014024
0.000828311
-0.00026562
0.00106005
-0.000404133
0.00115926
-0.000546876
0.00118653
-0.000689434
0.00118004
-0.000829966
0.00116056
-0.00096791
0.00113779
-0.00110324
0.00111558
-0.00123614
0.00109512
-0.00136679
0.00107659
-0.0014954
0.00105985
-0.00162214
0.00104472
-0.00174717
0.00103102
-0.00187063
0.00101857
-0.00199262
0.00100727
-0.00211327
0.000997013
-0.00223267
0.000987671
-0.0023509
0.000979101
0.000971368
-0.00246805
-4.17577e-05
0.000423139
-0.000135183
0.000921736
-0.000257234
0.0011821
-0.000392744
0.00129477
-0.00053287
0.00132666
-0.000673113
0.00132028
-0.000811534
0.00129898
-0.000947499
0.00127376
-0.00108094
0.00124903
-0.00121201
0.00122619
-0.00134088
0.00120546
-0.00146775
0.00118672
-0.00159277
0.00116974
-0.00171608
0.00115433
-0.0018378
0.0011403
-0.00195804
0.00112752
-0.00207691
0.00111588
-0.00219449
0.00110525
-0.00231087
0.00109547
0.00108659
-0.00242608
-3.96818e-05
0.000462821
-0.000129507
0.00101156
-0.000247804
0.00130039
-0.000379924
0.00142689
-0.000517099
0.00146383
-0.000654741
0.00145792
-0.000790799
0.00143503
-0.000924559
0.00140752
-0.00105591
0.00138038
-0.00118496
0.00135524
-0.00131187
0.00133238
-0.00143682
0.00131167
-0.00155995
0.00129287
-0.00168139
0.00127576
-0.00180123
0.00126014
-0.00191958
0.00124587
-0.00203651
0.00123281
-0.00215211
0.00122085
-0.00226644
0.0012098
0.00119968
-0.00237953
-3.73903e-05
0.000500211
-0.000123217
0.00109739
-0.000237329
0.00141451
-0.000365664
0.00155523
-0.00049955
0.00159772
-0.000634302
0.00159267
-0.000767747
0.00156848
-0.000899082
0.00153885
-0.00102814
0.00150943
-0.00115499
0.00148209
-0.00127978
0.00145717
-0.00140267
0.00143456
-0.00152377
0.00141398
-0.00164321
0.00139519
-0.00176105
0.00137799
-0.00187738
0.00136219
-0.00199225
0.00134769
-0.00210573
0.00133433
-0.00221787
0.00132193
0.00131048
-0.00232867
-3.48872e-05
0.000535099
-0.000116316
0.00117882
-0.000225804
0.00152399
-0.000349953
0.00167938
-0.000480204
0.00172797
-0.000611773
0.00172424
-0.000742357
0.00169906
-0.000871047
0.00166754
-0.000997613
0.001636
-0.0011221
0.00160657
-0.00124462
0.0015797
-0.00136531
0.00155525
-0.00148428
0.00153295
-0.00160162
0.00151253
-0.00171738
0.00149375
-0.00183161
0.00147643
-0.00194435
0.00146043
-0.00205563
0.00144561
-0.00216547
0.00143177
0.00141886
-0.00227385
-3.21776e-05
0.000567276
-0.000108808
0.00125545
-0.000213227
0.00162841
-0.000332776
0.00179893
-0.000459036
0.00185423
-0.000587124
0.00185233
-0.000714591
0.00182653
-0.00084042
0.00179337
-0.00096431
0.00175989
-0.00108626
0.00172852
-0.00120638
0.00169981
-0.00132477
0.00167364
-0.00144152
0.0016497
-0.0015567
0.00162771
-0.00167035
0.00160739
-0.00178247
0.00158855
-0.00189306
0.00157102
-0.00200211
0.00155467
-0.00210962
0.00153927
0.00152474
-0.0022155
-2.92671e-05
0.000596543
-0.000100697
0.00132688
-0.000199592
0.00172731
-0.000314114
0.00191345
-0.000436014
0.00197613
-0.000560311
0.00197663
-0.000684403
0.00195062
-0.000807148
0.00191612
-0.000928173
0.00188091
-0.00104744
0.00184779
-0.00116502
0.0018174
-0.00128101
0.00178963
-0.00139549
0.00176418
-0.0015085
0.00174072
-0.00162005
0.00171894
-0.0017301
0.0016986
-0.00183863
0.00167954
-0.00194555
0.00166159
-0.00205078
0.0016445
0.00162813
-0.00215417
-2.61625e-05
0.000622706
-9.19899e-05
0.0013927
-0.000184897
0.00182022
-0.000293947
0.0020225
-0.000411103
0.00209329
-0.000531285
0.00209681
-0.000651728
0.00207106
-0.000771159
0.00203555
-0.000889121
0.00199887
-0.00100553
0.0019642
-0.00112046
0.00193232
-0.00123397
0.00190315
-0.00134614
0.00187635
-0.001457
0.00185157
-0.00156653
0.00182847
-0.00167467
0.00180675
-0.00178132
0.00178619
-0.00188633
0.0017666
-0.00198951
0.00174768
0.00172919
-0.00209057
-2.28726e-05
0.000645578
-8.26969e-05
0.00145253
-0.000169138
0.00190666
-0.000272258
0.00212562
-0.000384264
0.00220529
-0.000499988
0.00221253
-0.000616493
0.00218757
-0.000732361
0.00215141
-0.000847048
0.00211356
-0.000960429
0.00207758
-0.00107255
0.00204444
-0.00118349
0.00201408
-0.00129332
0.00198618
-0.00140206
0.00196032
-0.00150971
0.00193611
-0.00161619
0.00191322
-0.00172134
0.00189135
-0.00182494
0.0018702
-0.00192658
0.00184932
0.00182829
-0.00202568
-1.94084e-05
0.000664987
-7.28325e-05
0.00150595
-0.000152322
0.00198615
-0.000249031
0.00222233
-0.000355458
0.00231172
-0.000466357
0.00232343
-0.000578609
0.00229982
-0.00069064
0.00226345
-0.000801808
0.00222473
-0.000911944
0.00218772
-0.00102108
0.00215357
-0.00112931
0.00212232
-0.00123673
0.0020936
-0.00134341
0.00206699
-0.00144933
0.00204204
-0.00155444
0.00201832
-0.00165858
0.00199549
-0.00176148
0.00197311
-0.0018625
0.00195033
0.00192635
-0.00196056
-1.57841e-05
0.000680771
-6.24181e-05
0.00155259
-0.000134462
0.00205819
-0.000224258
0.00231212
-0.000324652
0.00241211
-0.000430333
0.00242912
-0.000537993
0.00240748
-0.000645885
0.00237134
-0.00075326
0.0023321
-0.000859902
0.00229436
-0.00096584
0.00225951
-0.0010712
0.00222767
-0.00117611
0.00219852
-0.00128072
0.0021716
-0.0013851
0.00214642
-0.00148927
0.00212249
-0.0015932
0.00209943
-0.00169685
0.00207675
-0.00179951
0.002053
0.00202473
-0.0018979
-1.20177e-05
0.000692789
-5.14845e-05
0.00159205
-0.000115582
0.00212229
-0.000197946
0.00239449
-0.000291828
0.00250599
-0.000391868
0.00252916
-0.000494559
0.00251017
-0.000597966
0.00247475
-0.000701209
0.00243535
-0.000804004
0.00239716
-0.000906361
0.00236187
-0.00100841
0.00232972
-0.00111034
0.00230045
-0.00121237
0.00227363
-0.00131473
0.00224878
-0.00141761
0.00222538
-0.0015211
0.00220291
-0.00162542
0.00218106
-0.00173124
0.00215883
0.00212926
-0.00183577
-8.13143e-06
0.00070092
-4.00736e-05
0.00162399
-9.57258e-05
0.00217794
-0.000170121
0.00246888
-0.000256985
0.00259286
-0.000350934
0.0026231
-0.000448255
0.00260749
-0.000546802
0.00257329
-0.000645547
0.00253409
-0.000744132
0.00249574
-0.000842557
0.00246029
-0.000941014
0.00242818
-0.00103982
0.00239926
-0.00113943
0.00237323
-0.00124046
0.0023498
-0.00134372
0.00232865
-0.0014501
0.00230929
-0.00155998
0.00229095
-0.00167433
0.00227318
0.00226719
-0.00181226
-4.16413e-06
0.000705084
-2.82594e-05
0.00164809
-7.49777e-05
0.00222466
-0.000140859
0.00253476
-0.000220178
0.00267218
-0.00030756
0.00271049
-0.000399083
0.00269902
-0.000492366
0.00266657
-0.000586198
0.00262792
-0.000680107
0.00258965
-0.000774026
0.00255421
-0.000868095
0.00252225
-0.00096256
0.00249372
-0.00105771
0.00246838
-0.00115381