/*--------------------------------*- C++ -*----------------------------------*\
  =========                 |
  \\      /  F ield         | OpenFOAM: The Open Source CFD Toolbox
   \\    /   O peration     | Website:  https://openfoam.org
    \\  /    A nd           | Version:  6.0
     \\/     M anipulation  |
\*---------------------------------------------------------------------------*/
FoamFile
{
    version     2.0;
    format      ascii;
    class       volScalarField;
    location    "24";
    object      p;
}
// * * * * * * * * * * * * * * * * * * * * * * * * * * * * * * * * * * * * * //

dimensions      [0 2 -2 0 0 0 0];

internalField   nonuniform List<scalar> 
4000
(
-0.262296
-0.263307
-0.263967
-0.264445
-0.264842
-0.265177
-0.265463
-0.265713
-0.265937
-0.266141
-0.26633
-0.266509
-0.266682
-0.266854
-0.267028
-0.267214
-0.267414
-0.267588
-0.26772
-0.268227
-0.262418
-0.263426
-0.264082
-0.264555
-0.264947
-0.265276
-0.265556
-0.2658
-0.266017
-0.266214
-0.266396
-0.266568
-0.266733
-0.266896
-0.267063
-0.267241
-0.267433
-0.267601
-0.267724
-0.268227
-0.262661
-0.26366
-0.264308
-0.264772
-0.265153
-0.265471
-0.265738
-0.265969
-0.266172
-0.266354
-0.266521
-0.266677
-0.266826
-0.266973
-0.267123
-0.267285
-0.267462
-0.267615
-0.267723
-0.268216
-0.263024
-0.26401
-0.264646
-0.265095
-0.26546
-0.265759
-0.266007
-0.266217
-0.266399
-0.266558
-0.266701
-0.266832
-0.266956
-0.267078
-0.267202
-0.267338
-0.267492
-0.267622
-0.267706
-0.268185
-0.263506
-0.264475
-0.265094
-0.265523
-0.265866
-0.266141
-0.266362
-0.266543
-0.266695
-0.266823
-0.266933
-0.26703
-0.267119
-0.267204
-0.267291
-0.267392
-0.267512
-0.26761
-0.267661
-0.268121
-0.264107
-0.265056
-0.265653
-0.266057
-0.266372
-0.266614
-0.266801
-0.266946
-0.267059
-0.267146
-0.267213
-0.267265
-0.267307
-0.267343
-0.267382
-0.267435
-0.26751
-0.267565
-0.267571
-0.268006
-0.264827
-0.265752
-0.266323
-0.266697
-0.266975
-0.267179
-0.267323
-0.267423
-0.267488
-0.267524
-0.267537
-0.267532
-0.267514
-0.267489
-0.267465
-0.267456
-0.267471
-0.267469
-0.267419
-0.267823
-0.265667
-0.266565
-0.267104
-0.267441
-0.267678
-0.267834
-0.267928
-0.267974
-0.267982
-0.267957
-0.267905
-0.26783
-0.267739
-0.267637
-0.267533
-0.267445
-0.267382
-0.267307
-0.267185
-0.26755
-0.266631
-0.267497
-0.267999
-0.268293
-0.26848
-0.268582
-0.268617
-0.268601
-0.268541
-0.268445
-0.268317
-0.26816
-0.267981
-0.267785
-0.267584
-0.267395
-0.267235
-0.267065
-0.266851
-0.267167
-0.267722
-0.26855
-0.269009
-0.269253
-0.269382
-0.269422
-0.269391
-0.269304
-0.26917
-0.268994
-0.268779
-0.268528
-0.268246
-0.267939
-0.267619
-0.267307
-0.267023
-0.26673
-0.266397
-0.26665
-0.268947
-0.26973
-0.270138
-0.270323
-0.270387
-0.270357
-0.270252
-0.270088
-0.269872
-0.269608
-0.269298
-0.268942
-0.268544
-0.26811
-0.26765
-0.267188
-0.266748
-0.266296
-0.265807
-0.265974
-0.270311
-0.27104
-0.271388
-0.271506
-0.271496
-0.271388
-0.271202
-0.270955
-0.270652
-0.270295
-0.269884
-0.269416
-0.268892
-0.268315
-0.267694
-0.267053
-0.26642
-0.265764
-0.265065
-0.265111
-0.271823
-0.272487
-0.272766
-0.272805
-0.272712
-0.272517
-0.272243
-0.271907
-0.271513
-0.271061
-0.270546
-0.269963
-0.269306
-0.268574
-0.267773
-0.266925
-0.266059
-0.265141
-0.264158
-0.264027
-0.273493
-0.274079
-0.274274
-0.274224
-0.274035
-0.273744
-0.273374
-0.272943
-0.272455
-0.271906
-0.271288
-0.270589
-0.269799
-0.268908
-0.267913
-0.266831
-0.265689
-0.264444
-0.263079
-0.262679
-0.275331
-0.275823
-0.27592
-0.275766
-0.275468
-0.275067
-0.274592
-0.27406
-0.273472
-0.272825
-0.272105
-0.271295
-0.270375
-0.269325
-0.26813
-0.266796
-0.265338
-0.263694
-0.261822
-0.261016
-0.277349
-0.277731
-0.277712
-0.277435
-0.277011
-0.276486
-0.275892
-0.275247
-0.274554
-0.273806
-0.272984
-0.272066
-0.271022
-0.26982
-0.268429
-0.266834
-0.265033
-0.262926
-0.260408
-0.259004
-0.279562
-0.279814
-0.279659
-0.279239
-0.278668
-0.277999
-0.277268
-0.276496
-0.275686
-0.274828
-0.273902
-0.272878
-0.271718
-0.270376
-0.268803
-0.266959
-0.264814
-0.262219
-0.258944
-0.25669
-0.28199
-0.282089
-0.281775
-0.281188
-0.280444
-0.279607
-0.278718
-0.277799
-0.276855
-0.275876
-0.274838
-0.273708
-0.27244
-0.270976
-0.269245
-0.267178
-0.264708
-0.261625
-0.25748
-0.253977
-0.284656
-0.284579
-0.284079
-0.283297
-0.282353
-0.28132
-0.280246
-0.279157
-0.278059
-0.276943
-0.275787
-0.274555
-0.2732
-0.271657
-0.269837
-0.267631
-0.264906
-0.261302
-0.255959
-0.250421
-0.287592
-0.28731
-0.286595
-0.285587
-0.284412
-0.283155
-0.281869
-0.280585
-0.279313
-0.278048
-0.276773
-0.275463
-0.274083
-0.272591
-0.27093
-0.269027
-0.266756
-0.263653
-0.258481
-0.252328
-0.290837
-0.290318
-0.289355
-0.288088
-0.286652
-0.28514
-0.283616
-0.282114
-0.280651
-0.279228
-0.277839
-0.276479
-0.275148
-0.273866
-0.272689
-0.271754
-0.271322
-0.271814
-0.274773
-0.287141
-0.294438
-0.293643
-0.292396
-0.290839
-0.28911
-0.287317
-0.28553
-0.283792
-0.282124
-0.280536
-0.279035
-0.277634
-0.276365
-0.275292
-0.274539
-0.274325
-0.275017
-0.277159
-0.281922
-0.293954
-0.29845
-0.297333
-0.295764
-0.293884
-0.291835
-0.289737
-0.28767
-0.285682
-0.2838
-0.282044
-0.280431
-0.27899
-0.277774
-0.276872
-0.276432
-0.276678
-0.277936
-0.280626
-0.285334
-0.294602
-0.30293
-0.30144
-0.299509
-0.297275
-0.294879
-0.292457
-0.290097
-0.287851
-0.285752
-0.283824
-0.282092
-0.280596
-0.279394
-0.278582
-0.278293
-0.278712
-0.280067
-0.282607
-0.286586
-0.293127
-0.30794
-0.306017
-0.303684
-0.301066
-0.298302
-0.295541
-0.292878
-0.290366
-0.288043
-0.285932
-0.284061
-0.282468
-0.281209
-0.280363
-0.280032
-0.280339
-0.281411
-0.283355
-0.286257
-0.290323
-0.313539
-0.311118
-0.308341
-0.305312
-0.302162
-0.29905
-0.296074
-0.293288
-0.290724
-0.288405
-0.286352
-0.284594
-0.283175
-0.282147
-0.281577
-0.281529
-0.282055
-0.283171
-0.284897
-0.286972
-0.31978
-0.316793
-0.313531
-0.310067
-0.306515
-0.30304
-0.299739
-0.29666
-0.293827
-0.291253
-0.288949
-0.286931
-0.285222
-0.283855
-0.282861
-0.282265
-0.282075
-0.282265
-0.282832
-0.283353
-0.326708
-0.323086
-0.3193
-0.315381
-0.311411
-0.307558
-0.303913
-0.300509
-0.297358
-0.294457
-0.291805
-0.289404
-0.287262
-0.285395
-0.283814
-0.282525
-0.281519
-0.280765
-0.28025
-0.279576
-0.334356
-0.330032
-0.325688
-0.321294
-0.316891
-0.31264
-0.308616
-0.304836
-0.301291
-0.297963
-0.294839
-0.291913
-0.289187
-0.286668
-0.284364
-0.282278
-0.280404
-0.278721
-0.277216
-0.275586
-0.342742
-0.337651
-0.33272
-0.327836
-0.32298
-0.318299
-0.313846
-0.309611
-0.305566
-0.301683
-0.297942
-0.294338
-0.290877
-0.287573
-0.28444
-0.28149
-0.278726
-0.276145
-0.273733
-0.271292
-0.351862
-0.345951
-0.340409
-0.33502
-0.329685
-0.324525
-0.319565
-0.314767
-0.310089
-0.305497
-0.300981
-0.296546
-0.292214
-0.288015
-0.283978
-0.280126
-0.276474
-0.273031
-0.269781
-0.266608
-0.36169
-0.354916
-0.348748
-0.342836
-0.336983
-0.331274
-0.325699
-0.3202
-0.314727
-0.309259
-0.303805
-0.298398
-0.293083
-0.287911
-0.282925
-0.27816
-0.273638
-0.269372
-0.26534
-0.261481
-0.372173
-0.364506
-0.357701
-0.351245
-0.344818
-0.338462
-0.332135
-0.325766
-0.319319
-0.312802
-0.306261
-0.299763
-0.293383
-0.28719
-0.281241
-0.275574
-0.270212
-0.265165
-0.2604
-0.255892
-0.383224
-0.374651
-0.367205
-0.360172
-0.353094
-0.345961
-0.338713
-0.331287
-0.323681
-0.315952
-0.308196
-0.30052
-0.293026
-0.285798
-0.278895
-0.272355
-0.266194
-0.260412
-0.254961
-0.249841
-0.394721
-0.385246
-0.377157
-0.369503
-0.361666
-0.353598
-0.345237
-0.336555
-0.327612
-0.318533
-0.309466
-0.30056
-0.291937
-0.283685
-0.275861
-0.268491
-0.261578
-0.255112
-0.249023
-0.243334
-0.406503
-0.39615
-0.387414
-0.379074
-0.370347
-0.361159
-0.351478
-0.341347
-0.330911
-0.320373
-0.309939
-0.299787
-0.29005
-0.28081
-0.272112
-0.263965
-0.256356
-0.249259
-0.242583
-0.236375
-0.418369
-0.407178
-0.397788
-0.388677
-0.378902
-0.36839
-0.357183
-0.345429
-0.333378
-0.321315
-0.309496
-0.298116
-0.287305
-0.277132
-0.267619
-0.258755
-0.250511
-0.242841
-0.235631
-0.228962
-0.430077
-0.418104
-0.408047
-0.398058
-0.387055
-0.375011
-0.362087
-0.348568
-0.334822
-0.321212
-0.308027
-0.295467
-0.283645
-0.272606
-0.262347
-0.252834
-0.244018
-0.235835
-0.228149
-0.221082
-0.441346
-0.428662
-0.417915
-0.406923
-0.394502
-0.380726
-0.365923
-0.350541
-0.335069
-0.319931
-0.305435
-0.291766
-0.279012
-0.267187
-0.256257
-0.246166
-0.236846
-0.228215
-0.220113
-0.212713
-0.451862
-0.43855
-0.427081
-0.414944
-0.400915
-0.385231
-0.36843
-0.35114
-0.333957
-0.317351
-0.301627
-0.286942
-0.273348
-0.260824
-0.249305
-0.238712
-0.22896
-0.219946
-0.211491
-0.203827
-0.451667
-0.438356
-0.426889
-0.414756
-0.400732
-0.385053
-0.36826
-0.350976
-0.3338
-0.3172
-0.301482
-0.286803
-0.273214
-0.260694
-0.24918
-0.238591
-0.228843
-0.219832
-0.211381
-0.203721
-0.441147
-0.428465
-0.41772
-0.406731
-0.394314
-0.380544
-0.365748
-0.350373
-0.334907
-0.319775
-0.305284
-0.291621
-0.278872
-0.267051
-0.256127
-0.24604
-0.236724
-0.228097
-0.219999
-0.212602
-0.429876
-0.417904
-0.407849
-0.397863
-0.386864
-0.374825
-0.361907
-0.348394
-0.334655
-0.32105
-0.307871
-0.295316
-0.283499
-0.272465
-0.262211
-0.252702
-0.243891
-0.235712
-0.228031
-0.220967
-0.418167
-0.406977
-0.397589
-0.38848
-0.378708
-0.3682
-0.356999
-0.34525
-0.333205
-0.321148
-0.309334
-0.29796
-0.287154
-0.276985
-0.267477
-0.258618
-0.250378
-0.242713
-0.235507
-0.228843
-0.406299
-0.395948
-0.387214
-0.378875
-0.370152
-0.360967
-0.35129
-0.341164
-0.330734
-0.320201
-0.309772
-0.299626
-0.289893
-0.280658
-0.271965
-0.263822
-0.256218
-0.249126
-0.242454
-0.236251
-0.394516
-0.385044
-0.376956
-0.369303
-0.361469
-0.353404
-0.345046
-0.336369
-0.327431
-0.318356
-0.309294
-0.300393
-0.291774
-0.283527
-0.275708
-0.268342
-0.261434
-0.254973
-0.248888
-0.243203
-0.383019
-0.374448
-0.367004
-0.359973
-0.352896
-0.345765
-0.33852
-0.331097
-0.323495
-0.315771
-0.308019
-0.300347
-0.292858
-0.285634
-0.278736
-0.272201
-0.266044
-0.260267
-0.25482
-0.249704
-0.371968
-0.364303
-0.357501
-0.351045
-0.34462
-0.338265
-0.331941
-0.325575
-0.319131
-0.312617
-0.306079
-0.299585
-0.293209
-0.28702
-0.281075
-0.275413
-0.270055
-0.265013
-0.260252
-0.255749
-0.361486
-0.354714
-0.348548
-0.342637
-0.336785
-0.331078
-0.325505
-0.320007
-0.314536
-0.30907
-0.303619
-0.298214
-0.292903
-0.287734
-0.282752
-0.277991
-0.273474
-0.269212
-0.265185
-0.261331
-0.351659
-0.34575
-0.34021
-0.334822
-0.329488
-0.324329
-0.319369
-0.314573
-0.309895
-0.305305
-0.30079
-0.296357
-0.292028
-0.287832
-0.283798
-0.27995
-0.276302
-0.272864
-0.269618
-0.26645
-0.342539
-0.337451
-0.332521
-0.327639
-0.322784
-0.318103
-0.31365
-0.309416
-0.305371
-0.301488
-0.297748
-0.294145
-0.290685
-0.287383
-0.284253
-0.281306
-0.278546
-0.275969
-0.273562
-0.271125
-0.334155
-0.329832
-0.32549
-0.321098
-0.316695
-0.312444
-0.308421
-0.30464
-0.301094
-0.297766
-0.294641
-0.291715
-0.288989
-0.286471
-0.284169
-0.282086
-0.280215
-0.278536
-0.277035
-0.27541
-0.326507
-0.322888
-0.319104
-0.315185
-0.311216
-0.307363
-0.303717
-0.300313
-0.29716
-0.294257
-0.291604
-0.289201
-0.287059
-0.285191
-0.283611
-0.282324
-0.28132
-0.28057
-0.280059
-0.27939
-0.319579
-0.316595
-0.313335
-0.309873
-0.306321
-0.302845
-0.299543
-0.296463
-0.293628
-0.291051
-0.288744
-0.286723
-0.285013
-0.283644
-0.28265
-0.282055
-0.281866
-0.28206
-0.282631
-0.283157
-0.313339
-0.310921
-0.308145
-0.305118
-0.301968
-0.298856
-0.295878
-0.293089
-0.290523
-0.2882
-0.286143
-0.284382
-0.282959
-0.28193
-0.281358
-0.281309
-0.281837
-0.282955
-0.284685
-0.286765
-0.307741
-0.30582
-0.303489
-0.300872
-0.298109
-0.295347
-0.292681
-0.290167
-0.287839
-0.285724
-0.283849
-0.282251
-0.280988
-0.280138
-0.279805
-0.28011
-0.281182
-0.283127
-0.286033
-0.290105
-0.302731
-0.301244
-0.299316
-0.297082
-0.294686
-0.292263
-0.289899
-0.287649
-0.285546
-0.283613
-0.281876
-0.280374
-0.279168
-0.278351
-0.278058
-0.278474
-0.279828
-0.282369
-0.28635
-0.292897
-0.298252
-0.297139
-0.295572
-0.293693
-0.291642
-0.289542
-0.287471
-0.285479
-0.283592
-0.28183
-0.280211
-0.278764
-0.277541
-0.276635
-0.276189
-0.276431
-0.277687
-0.280375
-0.285085
-0.29436
-0.294243
-0.293451
-0.292206
-0.290649
-0.288918
-0.287122
-0.285331
-0.283588
-0.281914
-0.280319
-0.278811
-0.277403
-0.276127
-0.275048
-0.274289
-0.274071
-0.274758
-0.276897
-0.281662
-0.2937
-0.290645
-0.290129
-0.289167
-0.2879
-0.286462
-0.284946
-0.283417
-0.281909
-0.280439
-0.279009
-0.277613
-0.276245
-0.274907
-0.273617
-0.272433
-0.271493
-0.271055
-0.271543
-0.2745
-0.286871
-0.287405
-0.287126
-0.286412
-0.285402
-0.284225
-0.282963
-0.281671
-0.28038
-0.279101
-0.277828
-0.276545
-0.275226
-0.273839
-0.272339
-0.270671
-0.26876
-0.266482
-0.26337
-0.258192
-0.25203
-0.284475
-0.284401
-0.283901
-0.283117
-0.282169
-0.281132
-0.280051
-0.278954
-0.277848
-0.276724
-0.275558
-0.274318
-0.272954
-0.271403
-0.269575
-0.267362
-0.264629
-0.261017
-0.255669
-0.250123
-0.281817
-0.281919
-0.281604
-0.281014
-0.280266
-0.279424
-0.278527
-0.2776
-0.276647
-0.275659
-0.274612
-0.273473
-0.272196
-0.270724
-0.268985
-0.266911
-0.264434
-0.261344
-0.257195
-0.253687
-0.2794
-0.279652
-0.279496
-0.279073
-0.278497
-0.277822
-0.277084
-0.276303
-0.275484
-0.274617
-0.273681
-0.272648
-0.271479
-0.270129
-0.268548
-0.266697
-0.264545
-0.261946
-0.25867
-0.256412
-0.277198
-0.277579
-0.277559
-0.277278
-0.276849
-0.276317
-0.275716
-0.275062
-0.27436
-0.273602
-0.272771
-0.271843
-0.270791
-0.269581
-0.268182
-0.266581
-0.264774
-0.262664
-0.260148
-0.258741
-0.275193
-0.275684
-0.275778
-0.275619
-0.275315
-0.274908
-0.274426
-0.273885
-0.273289
-0.272632
-0.271903
-0.271083
-0.270155
-0.269097
-0.267896
-0.266556
-0.265093
-0.263447
-0.261578
-0.260771
-0.273369
-0.273952
-0.274143
-0.274088
-0.273894
-0.273596
-0.27322
-0.27278
-0.272283
-0.271725
-0.271098
-0.270391
-0.269593
-0.268694
-0.267694
-0.266607
-0.265461
-0.264215
-0.262853
-0.262452
-0.271713
-0.272373
-0.272647
-0.272682
-0.272583
-0.272381
-0.272101
-0.271757
-0.271354
-0.270894
-0.270371
-0.26978
-0.269116
-0.268378
-0.267571
-0.266718
-0.265849
-0.264931
-0.263951
-0.263819
-0.270215
-0.270938
-0.271282
-0.271395
-0.27138
-0.271265
-0.271073
-0.270818
-0.270507
-0.270143
-0.269725
-0.26925
-0.268719
-0.268136
-0.26751
-0.266865
-0.26623
-0.265574
-0.264877
-0.264923
-0.268864
-0.269641
-0.270044
-0.270224
-0.270283
-0.270247
-0.270136
-0.269965
-0.269742
-0.269472
-0.269155
-0.268793
-0.268389
-0.267949
-0.267485
-0.26702
-0.266578
-0.266127
-0.26564
-0.265806
-0.267653
-0.268474
-0.268928
-0.269166
-0.269291
-0.269325
-0.269288
-0.269196
-0.269055
-0.268873
-0.268652
-0.268396
-0.268108
-0.267797
-0.267474
-0.267159
-0.266873
-0.266581
-0.26625
-0.266503
-0.266574
-0.267432
-0.267929
-0.268218
-0.268401
-0.268498
-0.268528
-0.268506
-0.268442
-0.26834
-0.268207
-0.268045
-0.267861
-0.267662
-0.267458
-0.267267
-0.267105
-0.266935
-0.266724
-0.26704
-0.265621
-0.266511
-0.267045
-0.267378
-0.26761
-0.267763
-0.267852
-0.267893
-0.267896
-0.267867
-0.26781
-0.267731
-0.267636
-0.267531
-0.267425
-0.267335
-0.267271
-0.267197
-0.267077
-0.267442
-0.26479
-0.265708
-0.266274
-0.266644
-0.266919
-0.267118
-0.267259
-0.267355
-0.267416
-0.267448
-0.267458
-0.267449
-0.267428
-0.2674
-0.267374
-0.267364
-0.267378
-0.267377
-0.267329
-0.267733
-0.264078
-0.265021
-0.265613
-0.266014
-0.266325
-0.266565
-0.266748
-0.26689
-0.266999
-0.267083
-0.267147
-0.267196
-0.267236
-0.26727
-0.267308
-0.26736
-0.267434
-0.26749
-0.267498
-0.267933
-0.263485
-0.264448
-0.265063
-0.26549
-0.26583
-0.266101
-0.26632
-0.266499
-0.266648
-0.266773
-0.266881
-0.266976
-0.267062
-0.267146
-0.267232
-0.267332
-0.267452
-0.267551
-0.267603
-0.268064
-0.263009
-0.26399
-0.264622
-0.265069
-0.265432
-0.265729
-0.265975
-0.266183
-0.266363
-0.26652
-0.266661
-0.266791
-0.266913
-0.267033
-0.267157
-0.267293
-0.267446
-0.267577
-0.267662
-0.268142
-0.262651
-0.263646
-0.264292
-0.264754
-0.265134
-0.26545
-0.265716
-0.265945
-0.266146
-0.266327
-0.266493
-0.266647
-0.266796
-0.266942
-0.267091
-0.267253
-0.26743
-0.267584
-0.267692
-0.268186
-0.262412
-0.263418
-0.264073
-0.264544
-0.264936
-0.265264
-0.265543
-0.265786
-0.266002
-0.266198
-0.266379
-0.26655
-0.266715
-0.266878
-0.267044
-0.267222
-0.267414
-0.267582
-0.267706
-0.268209
-0.262294
-0.263304
-0.263964
-0.264441
-0.264838
-0.265173
-0.265458
-0.265708
-0.265932
-0.266136
-0.266325
-0.266503
-0.266676
-0.266848
-0.267022
-0.267208
-0.267407
-0.267582
-0.267714
-0.268221
-0.284019
-0.284598
-0.34683
-0.298726
-0.202139
-0.138785
-0.0773357
-0.0333677
-0.00841199
0.0103308
0.015888
0.0196341
0.0190154
0.0182566
0.0160037
0.0139161
0.0109499
0.00851862
0.00504968
0.00276588
-0.284131
-0.284599
-0.346929
-0.299032
-0.202499
-0.139164
-0.0776836
-0.0335573
-0.0085018
0.0103158
0.0158995
0.0196452
0.0190176
0.0182457
0.0159851
0.0138921
0.0109267
0.00849898
0.00503537
0.00275926
-0.284338
-0.284695
-0.347342
-0.299773
-0.20313
-0.139721
-0.0781983
-0.0338553
-0.00868252
0.0102353
0.0158632
0.01962
0.0189932
0.0182156
0.0159519
0.0138572
0.0108946
0.00847206
0.00501615
0.00274856
-0.284618
-0.284862
-0.34802
-0.300909
-0.204019
-0.140448
-0.0788728
-0.03426
-0.00895268
0.0100879
0.0157778
0.0195572
0.0189415
0.0181661
0.015904
0.0138115
0.0108538
0.00843798
0.00499222
0.00273384
-0.284946
-0.285066
-0.348888
-0.302384
-0.205151
-0.141338
-0.0796988
-0.0347695
-0.00931035
0.00987195
0.0156422
0.0194552
0.0188616
0.0180966
0.0158416
0.0137551
0.0108045
0.00839687
0.00496383
0.00271518
-0.285289
-0.285267
-0.34986
-0.30413
-0.206507
-0.142382
-0.080667
-0.0353819
-0.00975315
0.00958582
0.0154553
0.0193128
0.018753
0.0180067
0.0157646
0.013688
0.0107469
0.00834885
0.00493122
0.00269264
-0.285612
-0.285423
-0.350844
-0.306077
-0.208066
-0.143568
-0.0817679
-0.0360948
-0.0102783
0.00922812
0.0152161
0.0191284
0.018615
0.0178959
0.0156731
0.0136101
0.0106812
0.00829403
0.00489466
0.00266632
-0.285885
-0.285494
-0.351749
-0.308155
-0.209807
-0.144887
-0.0829913
-0.0369055
-0.0108826
0.00879788
0.0149239
0.0189011
0.018447
0.0177641
0.0155673
0.0135216
0.0106076
0.00823253
0.0048544
0.00263631
-0.286079
-0.285442
-0.352496
-0.310303
-0.211713
-0.146328
-0.0843272
-0.0378108
-0.0115625
0.00829475
0.0145785
0.0186298
0.0182487
0.0176109
0.0154474
0.0134227
0.0105264
0.00816447
0.00481071
0.00260272
-0.286175
-0.285239
-0.353015
-0.312467
-0.213769
-0.147878
-0.0857654
-0.0388066
-0.0123138
0.00771921
0.0141801
0.0183144
0.0180202
0.0174364
0.0153137
0.0133133
0.0104377
0.00808998
0.00476384
0.00256566
-0.286159
-0.284863
-0.353252
-0.314606
-0.215963
-0.149528
-0.0872955
-0.0398881
-0.013132
0.00707262
0.0137293
0.0179547
0.0177614
0.0172407
0.0151665
0.0131938
0.0103418
0.00800921
0.00471402
0.00252526
-0.286027
-0.284304
-0.353168
-0.316687
-0.218288
-0.151268
-0.0889074
-0.0410499
-0.0140119
0.00635725
0.0132272
0.0175514
0.0174729
0.0170242
0.0150062
0.0130644
0.0102389
0.00792233
0.00466149
0.00248169
-0.285782
-0.283555
-0.352735
-0.318688
-0.220741
-0.153092
-0.090593
-0.0422869
-0.0149489
0.005576
0.0126756
0.0171055
0.0171553
0.0167874
0.0148335
0.0129255
0.0101294
0.00782952
0.00460646
0.00243509
-0.285432
-0.28262
-0.351932
-0.320592
-0.223328
-0.154998
-0.0923457
-0.0435942
-0.0159378
0.00473245
0.0120764
0.0166183
0.0168094
0.0165311
0.0146489
0.0127775
0.0100135
0.00773101
0.00454913
0.00238564
-0.284981
-0.281501
-0.350738
-0.322364
-0.226039
-0.156975
-0.0941496
-0.0449601
-0.0169688
0.00383292
0.0114328
0.0160915
0.016436
0.0162557
0.0144529
0.0126207
0.0098913
0.00762692
0.00448963
0.0023335
-0.284421
-0.280204
-0.349136
-0.323941
-0.228829
-0.158987
-0.0959668
-0.0463585
-0.0180242
0.00288857
0.0107503
0.0155282
0.0160366
0.015962
0.014246
0.0124554
0.00976309
0.00751734
0.00442803
0.0022788
-0.283783
-0.27876
-0.347161
-0.325364
-0.231696
-0.161028
-0.0978004
-0.0477908
-0.0191089
0.00190231
0.0100321
0.0149333
0.0156146
0.0156529
0.0140297
0.012283
0.0096295
0.00740313
0.00436464
0.00222188
-0.283124
-0.277219
-0.344865
-0.326982
-0.23499
-0.163359
-0.0998809
-0.0494027
-0.0203193
0.000831791
0.00926333
0.014307
0.0151747
0.0153342
0.013808
0.0121071
0.00949298
0.00728714
0.0043009
0.00216354
-0.281857
-0.275377
-0.341834
-0.328727
-0.239165
-0.166355
-0.102456
-0.0513449
-0.021718
-0.000368556
0.00841991
0.0136305
0.0147065
0.0150001
0.0135804
0.0119277
0.00935442
0.00716873
0.0042377
0.00210369
-0.277847
-0.272569
-0.336917
-0.327785
-0.242289
-0.168648
-0.104189
-0.0527248
-0.0226527
-0.00140988
0.00760341
0.0128865
0.0141648
0.0146
0.0133186
0.0117165
0.00919636
0.00702355
0.00416514
0.0020362
-0.24078
-0.250825
-0.300415
-0.304131
-0.246417
-0.172266
-0.104972
-0.0543248
-0.0233745
-0.00521275
0.0036518
0.00839857
0.0105876
0.0117963
0.0115236
0.0102294
0.00811629
0.0059608
0.00364507
0.00159117
-0.201996
-0.228148
-0.251317
-0.258286
-0.226229
-0.164221
-0.102149
-0.0552906
-0.0263361
-0.0112253
-0.00356186
0.00081379
0.00389109
0.00633108
0.00749319
0.00722506
0.00590823
0.00419521
0.00244748
0.000796445
-0.180285
-0.200554
-0.211459
-0.212477
-0.191116
-0.146571
-0.0969384
-0.0568355
-0.0309138
-0.0170852
-0.00993323
-0.00550872
-0.00185419
0.00132756
0.00350055
0.00427393
0.00386981
0.00276502
0.00146099
0.000448066
-0.149191
-0.170392
-0.176489
-0.17306
-0.157494
-0.127911
-0.0918515
-0.0595386
-0.0364269
-0.0227238
-0.0150722
-0.010181
-0.00619867
-0.00274956
-2.07153e-05
0.00160441
0.00210011
0.00166059
0.000761817
0.000218542
-0.123309
-0.142491
-0.147421
-0.143294
-0.131961
-0.112642
-0.0874575
-0.0620349
-0.0413632
-0.0273904
-0.0187612
-0.0132889
-0.00927289
-0.00594647
-0.00305091
-0.000836375
0.000399677
0.000642803
0.000131708
-0.000236441
-0.102075
-0.118996
-0.124177
-0.121479
-0.113491
-0.10042
-0.082556
-0.0625265
-0.0442039
-0.0303069
-0.0209998
-0.0152464
-0.0114958
-0.00852482
-0.00565663
-0.00307672
-0.00126576
-0.00035931
-0.000391773
-0.000425714
-0.0856988
-0.100255
-0.105912
-0.105013
-0.0995765
-0.0901825
-0.0768883
-0.0609247
-0.0450075
-0.0319105
-0.0226731
-0.0170268
-0.0135623
-0.0108066
-0.00790417
-0.00505826
-0.00280751
-0.00130033
-0.000761593
-0.000487274
-0.0731127
-0.0856158
-0.0914458
-0.0919347
-0.0883405
-0.0812104
-0.0708378
-0.058009
-0.0445537
-0.0329211
-0.0243857
-0.0189547
-0.0154671
-0.0125932
-0.009573
-0.0065704
-0.0040705
-0.00210888
-0.001039
-0.000533438
-0.0634135
-0.0741464
-0.0798114
-0.081147
-0.0788182
-0.0732579
-0.064994
-0.054705
-0.0436392
-0.0337517
-0.0260977
-0.0207173
-0.0168807
-0.0137344
-0.0106792
-0.00770104
-0.0051385
-0.00288851
-0.00138095
-0.000618364
-0.0558228
-0.0650373
-0.0703225
-0.0720752
-0.0706322
-0.0663458
-0.0597934
-0.0516037
-0.0426597
-0.0343587
-0.027413
-0.0219373
-0.0177428
-0.0144641
-0.0115334
-0.00868104
-0.006102
-0.00366196
-0.00176755
-0.000669458
-0.0497633
-0.0576878
-0.0625048
-0.0644346
-0.0636833
-0.0605044
-0.0553793
-0.0488899
-0.0416392
-0.0345263
-0.0280861
-0.0226319
-0.0183639
-0.0151397
-0.0123419
-0.00953582
-0.00688776
-0.0043163
-0.00211197
-0.000697512
-0.0448307
-0.0516764
-0.0560419
-0.0580707
-0.0578967
-0.055646
-0.0516799
-0.0464993
-0.0404692
-0.0342004
-0.0282657
-0.0231199
-0.0190175
-0.0158364
-0.0130193
-0.0101541
-0.0074363
-0.00481716
-0.00243565
-0.000764531
-0.0407313
-0.0467098
-0.0507148
-0.052839
-0.0531266
-0.0516097
-0.0485462
-0.0443104
-0.0391449
-0.0335969
-0.028287
-0.0235993
-0.019654
-0.0163879
-0.0134597
-0.0105598
-0.00783688
-0.00523986
-0.00277014
-0.000858991
-0.0372561
-0.0425836
-0.0463494
-0.0485663
-0.0492023
-0.0482477
-0.0458503
-0.0422873
-0.0378284
-0.0330003
-0.0283116
-0.0239871
-0.020097
-0.0167304
-0.0137525
-0.0108912
-0.00818599
-0.0056038
-0.00306787
-0.000943396
-0.0342304
-0.0391424
-0.0427823
-0.0450893
-0.0459925
-0.0454487
-0.0435285
-0.0405069
-0.0367006
-0.0325092
-0.0282684
-0.0241676
-0.0203454
-0.0169829
-0.0140214
-0.0111937
-0.00847045
-0.00587026
-0.00329604
-0.00102086
-0.0315455
-0.0362678
-0.0398896
-0.042299
-0.0434022
-0.0431442
-0.0416011
-0.0390621
-0.0357966
-0.0320542
-0.0281047
-0.0242053
-0.0205277
-0.0172253
-0.0142596
-0.0114226
-0.00866762
-0.00605178
-0.00347452
-0.0010981
-0.0290982
-0.0338901
-0.0375962
-0.040109
-0.0413521
-0.0413151
-0.0401001
-0.0379461
-0.035049
-0.0316086
-0.0279039
-0.0242186
-0.0206875
-0.0174191
-0.0144214
-0.0115733
-0.0088089
-0.00618759
-0.00361418
-0.00116311
-0.0269241
-0.0320085
-0.03587
-0.0384648
-0.0398062
-0.0399537
-0.0389985
-0.0371066
-0.0344525
-0.0312468
-0.027754
-0.0242333
-0.0207936
-0.0175389
-0.0145225
-0.0116809
-0.00891926
-0.00628698
-0.00371055
-0.00120945
-0.025141
-0.0306703
-0.0347017
-0.0373506
-0.0387539
-0.0390268
-0.0382441
-0.0365287
-0.0340503
-0.0310147
-0.0276574
-0.0242283
-0.0208438
-0.0176092
-0.0145916
-0.0117568
-0.00899338
-0.00634715
-0.00376838
-0.00123992
-0.0240237
-0.0299575
-0.0341026
-0.0367781
-0.038208
-0.038537
-0.0378414
-0.0362276
-0.0338507
-0.0309001
-0.0276001
-0.0242118
-0.0208615
-0.0176454
-0.0146289
-0.0117938
-0.00902718
-0.00637339
-0.00379578
-0.0012554
-0.162872
-0.172907
-0.183063
-0.193431
-0.204111
-0.215219
-0.226877
-0.239217
-0.252367
-0.266441
-0.281495
-0.297507
-0.314242
-0.331258
-0.347591
-0.362132
-0.372901
-0.379166
-0.378665
-0.376149
-0.103147
-0.106641
-0.109831
-0.112698
-0.115224
-0.117384
-0.119153
-0.120505
-0.121417
-0.121872
-0.121865
-0.121426
-0.120618
-0.11961
-0.118618
-0.118097
-0.118429
-0.12052
-0.124665
-0.133003
-0.0779498
-0.0822417
-0.0865687
-0.0909414
-0.0953712
-0.09987
-0.10445
-0.109125
-0.113906
-0.118805
-0.123827
-0.128973
-0.134226
-0.139554
-0.144879
-0.1501
-0.155032
-0.159496
-0.163181
-0.165897
-0.0641684
-0.0670838
-0.0699585
-0.0727933
-0.0755887
-0.0783449
-0.081062
-0.0837397
-0.0863772
-0.0889743
-0.0915309
-0.0940483
-0.0965305
-0.0989866
-0.101434
-0.103902
-0.106442
-0.10913
-0.112122
-0.115645
-0.053659
-0.056012
-0.0583682
-0.0607302
-0.0631003
-0.065481
-0.0678748
-0.0702842
-0.0727116
-0.0751594
-0.07763
-0.0801252
-0.0826463
-0.0851929
-0.087764
-0.0903525
-0.0929548
-0.0955477
-0.0981472
-0.100707
-0.047135
-0.0489774
-0.0508173
-0.0526554
-0.0544921
-0.0563283
-0.0581645
-0.0600016
-0.0618402
-0.0636813
-0.0655258
-0.0673746
-0.0692291
-0.0710905
-0.0729616
-0.0748435
-0.0767457
-0.0786671
-0.0806539
-0.0827063
-0.0419042
-0.0433766
-0.0448499
-0.0463247
-0.0478016
-0.0492811
-0.0507637
-0.0522502
-0.053741
-0.0552368
-0.0567382
-0.0582457
-0.05976
-0.0612812
-0.0628105
-0.0643468
-0.0658945
-0.0674467
-0.0690317
-0.0706279
-0.0380063
-0.0392014
-0.0403967
-0.0415924
-0.0427886
-0.0439856
-0.0451836
-0.0463829
-0.0475838
-0.0487864
-0.0499912
-0.0511985
-0.0524086
-0.0536217
-0.0548386
-0.0560588
-0.057286
-0.0585154
-0.0597702
-0.0610321
-0.0348713
-0.0358518
-0.0368322
-0.0378129
-0.0387938
-0.0397752
-0.0407571
-0.0417397
-0.0427233
-0.0437079
-0.0446936
-0.0456808
-0.0466694
-0.0476596
-0.0486518
-0.0496453
-0.0506427
-0.05164
-0.0526542
-0.0536689
-0.0323835
-0.0331953
-0.034007
-0.0348185
-0.0356301
-0.0364417
-0.0372534
-0.0380654
-0.0388776
-0.0396901
-0.0405031
-0.0413166
-0.0421306
-0.0429452
-0.0437606
-0.0445763
-0.045394
-0.0462109
-0.0470396
-0.0478675
-0.030346
-0.0310198
-0.0316937
-0.0323677
-0.0330417
-0.0337159
-0.0343904
-0.0350651
-0.0357401
-0.0364153
-0.0370909
-0.0377669
-0.0384431
-0.0391197
-0.0397966
-0.0404736
-0.0411518
-0.0418289
-0.0425147
-0.0431996
-0.0286468
-0.0292062
-0.0297661
-0.0303267
-0.0308878
-0.0314495
-0.0320118
-0.0325748
-0.0331384
-0.0337025
-0.0342672
-0.0348323
-0.0353979
-0.0359638
-0.03653
-0.0370962
-0.0376633
-0.0382295
-0.038802
-0.0393744
-0.0271297
-0.0275921
-0.028056
-0.0285214
-0.0289883
-0.0294568
-0.0299267
-0.030398
-0.0308707
-0.0313447
-0.0318198
-0.0322959
-0.0327731
-0.033251
-0.0337296
-0.0342087
-0.0346886
-0.0351682
-0.0356529
-0.0361385
-0.0257092
-0.0260904
-0.0264746
-0.0268617
-0.0272516
-0.0276442
-0.0280395
-0.0284373
-0.0288375
-0.0292398
-0.0296442
-0.0300503
-0.0304579
-0.0308669
-0.0312771
-0.0316881
-0.0321001
-0.0325123
-0.0329284
-0.0333466
-0.0241428
-0.024456
-0.0247745
-0.0250984
-0.0254272
-0.0257609
-0.0260991
-0.0264416
-0.0267881
-0.0271382
-0.0274917
-0.0278482
-0.0282073
-0.0285688
-0.0289322
-0.0292973
-0.029664
-0.0300316
-0.0304028
-0.030777
-0.0224018
-0.0226653
-0.0229376
-0.0232181
-0.0235063
-0.0238017
-0.0241038
-0.0244119
-0.0247256
-0.0250443
-0.0253675
-0.0256946
-0.0260251
-0.0263585
-0.0266944
-0.0270322
-0.0273717
-0.0277122
-0.0280556
-0.0284024
-0.0198242
-0.0200812
-0.0203508
-0.020632
-0.0209237
-0.0212247
-0.0215341
-0.0218509
-0.0221743
-0.0225033
-0.0228372
-0.0231752
-0.0235166
-0.0238607
-0.0242069
-0.0245547
-0.0249035
-0.0252528
-0.0256037
-0.0259573
-0.0165115
-0.0168326
-0.0171662
-0.0175106
-0.0178643
-0.0182261
-0.0185946
-0.0189686
-0.0193472
-0.0197294
-0.0201142
-0.0205009
-0.0208887
-0.021277
-0.0216652
-0.0220528
-0.0224392
-0.0228242
-0.0232081
-0.0235923
-0.0114864
-0.0120704
-0.0126485
-0.0132201
-0.0137849
-0.0143427
-0.0148931
-0.015436
-0.0159713
-0.0164987
-0.0170182
-0.0175297
-0.0180332
-0.0185287
-0.0190161
-0.0194955
-0.0199669
-0.0204304
-0.0208865
-0.0213365
-0.00599
-0.00693337
-0.00784241
-0.00871901
-0.00956495
-0.0103819
-0.0111716
-0.0119353
-0.0126746
-0.0133906
-0.0140847
-0.014758
-0.0154116
-0.0160464
-0.0166634
-0.0172635
-0.0178475
-0.0184162
-0.0189705
-0.0195119
-0.00598197
-0.00692537
-0.00783443
-0.00871103
-0.00955697
-0.0103739
-0.0111635
-0.0119273
-0.0126665
-0.0133825
-0.0140766
-0.0147498
-0.0154033
-0.0160381
-0.016655
-0.017255
-0.0178389
-0.0184076
-0.0189617
-0.019503
-0.0114792
-0.0120632
-0.0126412
-0.0132128
-0.0137776
-0.0143354
-0.0148858
-0.0154287
-0.0159638
-0.0164912
-0.0170107
-0.0175222
-0.0180256
-0.018521
-0.0190084
-0.0194877
-0.019959
-0.0204225
-0.0208784
-0.0213284
-0.016506
-0.0168271
-0.0171605
-0.0175049
-0.0178586
-0.0182203
-0.0185887
-0.0189627
-0.0193412
-0.0197233
-0.020108
-0.0204947
-0.0208824
-0.0212707
-0.0216588
-0.0220463
-0.0224326
-0.0228175
-0.0232013