/*--------------------------------*- C++ -*----------------------------------*\
  =========                 |
  \\      /  F ield         | OpenFOAM: The Open Source CFD Toolbox
   \\    /   O peration     | Website:  https://openfoam.org
    \\  /    A nd           | Version:  6.0
     \\/     M anipulation  |
\*---------------------------------------------------------------------------*/
FoamFile
{
    version     2.0;
    format      ascii;
    class       volVectorField;
    location    "24";
    object      U;
}
// * * * * * * * * * * * * * * * * * * * * * * * * * * * * * * * * * * * * * //

dimensions      [0 1 -1 0 0 0 0];

internalField   nonuniform List<vector> 
4000
(
(-0.000480522 0.000527443 -3.46258e-21)
(-0.00262663 0.00129933 1.85084e-20)
(-0.00659106 0.00182842 -2.2511e-20)
(-0.0114564 0.00217143 1.71417e-20)
(-0.0167446 0.00237185 8.3474e-21)
(-0.0221853 0.00246478 -2.50667e-20)
(-0.0275854 0.00247975 -2.21556e-21)
(-0.0328198 0.00244132 -7.86241e-22)
(-0.037819 0.00236981 -1.30117e-20)
(-0.042554 0.002282 -7.04939e-21)
(-0.0470252 0.00219173 5.25714e-21)
(-0.0512543 0.0021103 1.99861e-20)
(-0.0552776 0.00204678 -1.49668e-21)
(-0.0591406 0.00200822 2.14137e-21)
(-0.0628945 0.0019998 -2.01306e-20)
(-0.0665982 0.00202484 1.24036e-20)
(-0.0703111 0.00208493 -1.77712e-20)
(-0.0740318 0.00218121 2.68925e-20)
(-0.0776847 0.00231514 -3.0107e-23)
(-0.0817001 0.00247815 5.80716e-21)
(-0.000565346 0.00162506 1.1499e-20)
(-0.00283396 0.00403027 -5.87648e-20)
(-0.00687749 0.0057086 -4.05877e-20)
(-0.0117871 0.00682682 -2.75632e-20)
(-0.0170906 0.00751306 -3.54589e-20)
(-0.022522 0.00787147 7.80291e-21)
(-0.027892 0.00799032 -4.0933e-20)
(-0.033078 0.00794361 -9.19383e-21)
(-0.0380126 0.00779297 2.90498e-21)
(-0.0426682 0.00758966 3.05936e-20)
(-0.0470465 0.00737617 -3.33731e-20)
(-0.0511701 0.00718736 4.6423e-20)
(-0.0550763 0.00705131 -3.47639e-20)
(-0.0588115 0.00698994 -4.1225e-20)
(-0.0624283 0.0070194 -5.68099e-20)
(-0.0659872 0.00715003 3.62814e-20)
(-0.0695492 0.00738689 -1.17337e-20)
(-0.0731147 0.00773341 -4.27224e-20)
(-0.0766073 0.00819384 4.03953e-20)
(-0.0804603 0.00874189 -3.00023e-20)
(-0.000734808 0.00270921 1.12409e-19)
(-0.00324774 0.0067268 5.82134e-20)
(-0.00744792 0.00953758 6.54678e-20)
(-0.012444 0.0114168 5.44758e-21)
(-0.017776 0.0125762 3.61842e-20)
(-0.0231869 0.013188 4.51607e-20)
(-0.0284946 0.0133985 -8.20709e-20)
(-0.0335822 0.0133305 -4.3461e-20)
(-0.0383861 0.0130864 -5.66025e-20)
(-0.042882 0.0127517 6.0422e-20)
(-0.0470736 0.0123974 -4.61502e-20)
(-0.0509855 0.0120822 -5.93782e-20)
(-0.0546567 0.0118537 -2.16217e-20)
(-0.058136 0.0117495 2.05398e-20)
(-0.0614781 0.0117975 -5.70958e-21)
(-0.0647465 0.0120161 8.23433e-21)
(-0.0680062 0.0124147 9.5299e-20)
(-0.0712607 0.0129998 -1.33886e-20)
(-0.0744328 0.0137794 -9.68747e-20)
(-0.0779615 0.0147093 1.27691e-19)
(-0.000987479 0.00377098 3.91093e-20)
(-0.00386463 0.00936576 -5.5245e-20)
(-0.00829799 0.0132809 -1.38578e-20)
(-0.0134224 0.0158974 2.59081e-20)
(-0.0187959 0.0175091 7.35663e-20)
(-0.0241755 0.0183548 1.61067e-19)
(-0.0293899 0.0186374 1.57385e-19)
(-0.0343307 0.0185273 1.30755e-20)
(-0.0389404 0.0181666 9.65122e-20)
(-0.0431991 0.0176746 1.47725e-19)
(-0.0471137 0.0171508 -1.18038e-19)
(-0.0507114 0.0166779 1.74691e-19)
(-0.054034 0.0163238 -3.95565e-20)
(-0.0571329 0.016143 9.97886e-21)
(-0.0600667 0.0161768 4.13084e-20)
(-0.0629032 0.0164532 5.48933e-20)
(-0.0657131 0.0169875 -8.63909e-20)
(-0.068505 0.017791 -7.20984e-20)
(-0.0712013 0.0188773 -1.27584e-19)
(-0.0742505 0.0201838 1.85712e-19)
(-0.00132127 0.00480229 -2.04333e-20)
(-0.00467952 0.0119257 -2.09161e-19)
(-0.00942066 0.0169062 -6.18674e-20)
(-0.0147138 0.0202277 -1.50764e-19)
(-0.0201413 0.0222633 5.69884e-20)
(-0.0254789 0.0233169 -8.98797e-20)
(-0.03057 0.0236457 3.09104e-20)
(-0.0353177 0.0234659 -1.90365e-19)
(-0.0396726 0.0229582 1.00428e-19)
(-0.0436203 0.0222745 -1.19763e-19)
(-0.0471722 0.0215422 -1.06507e-19)
(-0.0503586 0.0208686 -1.19256e-19)
(-0.0532244 0.0203429 1.08249e-19)
(-0.0558245 0.0200378 -9.71926e-20)
(-0.0582218 0.0200103 1.35336e-19)
(-0.0604902 0.0203007 3.91124e-20)
(-0.062708 0.0209328 9.68132e-20)
(-0.0648915 0.0219252 4.24779e-20)
(-0.0669636 0.0232997 -1.68224e-19)
(-0.069387 0.024976 2.73866e-19)
(-0.00173354 0.00579611 9.00717e-20)
(-0.00568543 0.0143872 6.93022e-21)
(-0.0108056 0.020384 3.71063e-20)
(-0.0163053 0.0243698 1.29478e-19)
(-0.0217975 0.0267949 -1.98219e-20)
(-0.0270813 0.0280249 2.10259e-19)
(-0.0320194 0.0283695 9.3323e-20)
(-0.0365289 0.028088 7.84559e-21)
(-0.0405709 0.0273975 2.39971e-19)
(-0.0441382 0.026481 7.86308e-20)
(-0.0472467 0.0254931 3.73023e-20)
(-0.0499305 0.0245655 1.18386e-19)
(-0.0522377 0.0238096 1.08515e-19)
(-0.054227 0.0233186 1.98105e-19)
(-0.0559663 0.0231679 -1.77069e-19)
(-0.0575366 0.0234135 2.50293e-19)
(-0.0590263 0.0240917 3.27985e-21)
(-0.0604617 0.0252323 -3.19887e-19)
(-0.0617685 0.0268699 4.1467e-19)
(-0.06343 0.0289067 1.71921e-19)
(-0.00222111 0.00674635 -5.30807e-20)
(-0.00687332 0.0167326 -9.6353e-20)
(-0.0124387 0.0236872 -2.00514e-19)
(-0.0181781 0.0282896 -5.94379e-21)
(-0.0237415 0.0310646 3.42167e-20)
(-0.028957 0.0324366 -2.5605e-19)
(-0.0337104 0.0327641 -1.89962e-19)
(-0.0379364 0.0323469 -2.71735e-20)
(-0.0416086 0.0314355 -2.40285e-19)
(-0.0447283 0.0302415 -1.66367e-19)
(-0.047317 0.0289456 -4.84856e-20)
(-0.0494123 0.0277029 -1.56123e-19)
(-0.0510654 0.0266479 -2.54509e-21)
(-0.0523386 0.0258961 -2.07333e-19)
(-0.053305 0.0255448 8.72126e-20)
(-0.0540536 0.0256704 -9.95018e-20)
(-0.0546846 0.026327 7.62207e-20)
(-0.0552377 0.0275615 -9.70141e-20)
(-0.055645 0.029428 -2.77169e-19)
(-0.056419 0.0318138 -8.42359e-20)
(-0.00278027 0.00764761 -1.95353e-20)
(-0.00823172 0.0189458 -2.12164e-20)
(-0.0143006 0.0267909 1.68116e-19)
(-0.0203054 0.0319564 -2.73579e-19)
(-0.0259396 0.0350381 4.01346e-20)
(-0.0310659 0.0365163 -1.58038e-19)
(-0.0355978 0.0367945 7.46826e-20)
(-0.0394911 0.036209 3.35685e-19)
(-0.0427346 0.0350403 -2.15329e-20)
(-0.0453393 0.0335255 -2.50429e-19)
(-0.047333 0.0318681 4.54995e-20)
(-0.0487571 0.0302458 8.82299e-21)
(-0.0496649 0.0288157 -5.14226e-20)
(-0.0501218 0.0277175 5.19682e-21)
(-0.0502057 0.0270737 4.51743e-19)
(-0.0500138 0.0269867 -6.43179e-20)
(-0.04966 0.0275355 -1.25482e-19)
(-0.0492002 0.028793 -2.25116e-19)
(-0.048578 0.0308426 2.29639e-19)
(-0.0483477 0.0335614 9.9076e-20)
(-0.00340664 0.00849472 9.86456e-20)
(-0.00974619 0.0210111 -1.29062e-19)
(-0.016366 0.0296716 1.8247e-19)
(-0.0226506 0.0353415 1.83694e-19)
(-0.0283441 0.0386849 1.69337e-19)
(-0.0333495 0.0402346 3.43389e-19)
(-0.0376131 0.0404351 2.22061e-19)
(-0.0411157 0.0396547 -4.77183e-19)
(-0.0438637 0.0381992 2.44047e-19)
(-0.0458803 0.0363269 1.9151e-19)
(-0.0472 0.0342607 -2.72266e-21)
(-0.047868 0.0321976 2.14389e-19)
(-0.0479394 0.0303159 1.67148e-19)
(-0.0474812 0.0287798 -9.09167e-20)
(-0.0465748 0.0277403 3.0724e-19)
(-0.0453253 0.0273316 -3.80858e-19)
(-0.0438613 0.0276665 1.5245e-19)
(-0.042258 0.0288559 1.96035e-19)
(-0.0404764 0.031027 -4.56715e-20)
(-0.0391299 0.0340556 3.9407e-19)
(-0.00409491 0.00928232 1.98222e-19)
(-0.0113986 0.0229125 1.02824e-20)
(-0.0186022 0.0323055 -7.11482e-20)
(-0.0251654 0.0384169 -7.51559e-20)
(-0.0308903 0.0419768 -3.48056e-19)
(-0.0357265 0.0435668 4.92877e-20)
(-0.0396582 0.0436683 1.3965e-19)
(-0.0426954 0.0426766 -6.71733e-20)
(-0.0448656 0.040918 5.5412e-20)
(-0.0462061 0.0386665 -1.46881e-20)
(-0.0467602 0.036159 -7.23814e-20)
(-0.0465767 0.0336071 6.87294e-20)
(-0.0457123 0.031207 -2.98804e-19)
(-0.0442339 0.0291455 2.8646e-19)
(-0.0422248 0.0276035 -2.48133e-19)
(-0.0397964 0.0267523 7.66425e-20)
(-0.0370921 0.0267483 1.74427e-19)
(-0.0342087 0.0277556 -3.62797e-20)
(-0.0311313 0.0299664 -1.20662e-19)
(-0.0285558 0.0332703 -8.21041e-20)
(-0.00483857 0.0100043 -2.4692e-19)
(-0.0131665 0.0246329 -1.6255e-20)
(-0.0209678 0.0346677 5.20035e-20)
(-0.0277876 0.041154 1.33717e-19)
(-0.0334936 0.0448857 -1.88777e-19)
(-0.0380884 0.0464901 -1.6474e-19)
(-0.0415993 0.0464813 3.84528e-19)
(-0.0440698 0.0452772 -2.12479e-19)
(-0.0455527 0.0432187 -1.3707e-19)
(-0.0461026 0.0405897 -1.96687e-19)
(-0.0457732 0.0376347 1.3021e-19)
(-0.0446189 0.0345732 -3.50928e-21)
(-0.0426976 0.0316126 -2.43172e-19)
(-0.0400755 0.028958 -3.97829e-19)
(-0.0368353 0.0268181 3.03093e-19)
(-0.0330928 0.0254037 -2.45605e-19)
(-0.0290048 0.0249237 3.4821e-19)
(-0.0246903 0.0256134 -9.75542e-20)
(-0.0201647 0.0277584 2.05027e-19)
(-0.0162373 0.0312862 -6.96501e-19)
(-0.00562954 0.0106535 -5.00087e-19)
(-0.0150222 0.0261526 3.27924e-19)
(-0.0234118 0.0367305 4.45975e-20)
(-0.0304398 0.0435211 8.62779e-21)
(-0.0360475 0.0473806 -2.02222e-19)
(-0.0402962 0.0489798 2.97379e-19)
(-0.0432616 0.0488619 3.24601e-20)
(-0.0450259 0.0474629 -6.09811e-20)
(-0.0456708 0.0451335 -1.95755e-19)
(-0.0452719 0.0421615 2.11601e-19)
(-0.0438973 0.0387915 5.36513e-19)
(-0.0416092 0.035243 -1.1852e-19)
(-0.0384686 0.0317257 2.67861e-19)
(-0.0345413 0.0284537 -3.16429e-19)
(-0.0299084 0.0256563 -3.03446e-19)
(-0.0246872 0.0235809 1.82434e-19)
(-0.0190456 0.0224937 3.01448e-19)
(-0.0131234 0.0227181 -9.76828e-19)
(-0.00696878 0.0246688 1.14692e-19)
(-0.00154426 0.0283479 1.56033e-19)
(-0.00645795 0.0112218 3.70315e-19)
(-0.0169322 0.0274499 1.21832e-19)
(-0.0258727 0.0384628 6.3466e-19)
(-0.0330285 0.0454822 3.26652e-20)
(-0.0384218 0.0494258 -7.05877e-20)
(-0.0421781 0.0510058 -3.36151e-19)
(-0.0444268 0.0507925 2.85861e-19)
(-0.0452926 0.0492369 5.12902e-19)
(-0.0448906 0.0466954 3.41729e-19)
(-0.0433219 0.0434547 2.46734e-19)
(-0.0406731 0.0397534 2.12726e-19)
(-0.0370193 0.0358019 -3.81979e-19)
(-0.0324287 0.0318014 -1.19659e-19)
(-0.0269696 0.0279622 -8.81508e-20)
(-0.0207227 0.0245201 9.44577e-19)
(-0.0138062 0.0217474 -3.20281e-21)
(-0.00639625 0.0199623 -2.35452e-19)
(0.00135067 0.019587 -7.42223e-20)
(0.00935769 0.0212045 6.75634e-19)
(0.0164643 0.0249406 8.84847e-20)
(-0.00731199 0.0117001 -1.82513e-20)
(-0.0188573 0.0285008 -3.50354e-19)
(-0.0282784 0.0398299 -5.21252e-19)
(-0.0354434 0.0469963 -1.45056e-19)
(-0.040462 0.0509783 8.00996e-20)
(-0.0435291 0.0525294 1.72455e-20)
(-0.0448311 0.0522454 4.57439e-19)
(-0.0445391 0.0505909 -5.67331e-19)
(-0.0428052 0.0479265 -2.15804e-19)
(-0.0397604 0.0445351 -4.34934e-19)
(-0.0355155 0.0406448 -3.70467e-19)
(-0.0301647 0.0364504 -3.28068e-19)
(-0.023791 0.0321342 8.20296e-20)
(-0.0164728 0.0278872 -1.06528e-19)
(-0.00829653 0.0239323 4.56494e-19)
(0.000615793 0.0205436 -2.50164e-19)
(0.0100789 0.0180698 -7.84472e-19)
(0.0199256 0.0170251 -1.58283e-19)
(0.0300666 0.0181939 3.87226e-19)
(0.0391007 0.0218835 -3.37651e-19)
(-0.00817807 0.012079 -5.90847e-20)
(-0.0207522 0.02928 4.28543e-19)
(-0.030546 0.0407948 -5.46571e-19)
(-0.0375573 0.0480178 1.26328e-19)
(-0.0419897 0.0519885 -2.60245e-19)
(-0.0441106 0.0535016 5.79706e-19)
(-0.0441663 0.0531786 -4.14328e-19)
(-0.0423761 0.0514984 4.74038e-19)
(-0.0389319 0.0488265 -4.49475e-19)
(-0.0339981 0.0454427 1.91791e-19)
(-0.0277154 0.041565 -9.30719e-20)
(-0.0202052 0.0373703 -2.33717e-19)
(-0.0115761 0.0330155 -2.88817e-19)
(-0.00192941 0.0286599 2.87807e-19)
(0.00862936 0.0244919 -2.41064e-19)
(0.0199622 0.0207553 -5.27217e-19)
(0.0318664 0.0177881 5.48909e-19)
(0.0441659 0.0161596 -7.00397e-19)
(0.056792 0.0168626 3.15038e-19)
(0.0680823 0.0204345 8.33675e-21)
(-0.00904097 0.0123497 -5.35793e-19)
(-0.0225655 0.0297624 -5.78557e-19)
(-0.0325814 0.0413194 6.66669e-20)
(-0.0392261 0.0484992 -5.57996e-19)
(-0.042802 0.0524022 -4.96795e-20)
(-0.0436516 0.0538655 -4.10468e-19)
(-0.0420816 0.0535374 -9.41702e-20)
(-0.0383601 0.0519132 -2.75227e-19)
(-0.0327192 0.0493667 2.43716e-21)
(-0.0253592 0.0461794 -1.20431e-19)
(-0.016455 0.0425641 8.55633e-21)
(-0.00616397 0.038685 -3.47063e-19)
(0.00536736 0.0346762 3.82576e-19)
(0.0179965 0.0306619 -5.42846e-19)
(0.0315763 0.0267816 1.92385e-19)
(0.0459285 0.0232176 7.34529e-21)
(0.0608084 0.0202418 -3.06543e-19)
(0.076017 0.0184014 7.60257e-19)
(0.091553 0.0188487 -1.81665e-19)
(0.105533 0.0223534 -1.18052e-19)
(-0.00988418 0.0125044 6.01489e-19)
(-0.0242399 0.0299252 3.24798e-19)
(-0.0342787 0.0413685 3.0214e-19)
(-0.0402871 0.048395 4.5107e-20)
(-0.0426706 0.0521666 4.08582e-19)
(-0.0418476 0.0535633 5.88935e-19)
(-0.0381848 0.053262 4.82222e-19)
(-0.0319973 0.0517768 4.31511e-20)
(-0.023556 0.0494949 3.53156e-19)
(-0.0130972 0.046707 5.45696e-19)
(-0.000833078 0.043631 -1.41564e-19)
(0.0130369 0.0404309 2.37588e-19)
(0.0283151 0.0372316 1.91839e-19)
(0.0447979 0.0341342 1.95179e-19)
(0.0622673 0.0312345 1.1552e-18)
(0.0804672 0.0286405 -4.3302e-19)
(0.0990649 0.0265078 -2.64912e-20)
(0.117788 0.0252507 5.0296e-19)
(0.136739 0.0260503 -2.85336e-19)
(0.153968 0.0298259 1.41272e-19)
(-0.01069 0.0125374 -4.86456e-19)
(-0.0257114 0.0297495 3.11897e-20)
(-0.0355185 0.0409127 -3.89472e-19)
(-0.0405566 0.0476682 -5.06988e-20)
(-0.0413383 0.0512391 2.85114e-19)
(-0.0383582 0.0525485 -8.48751e-19)
(-0.0320409 0.0523022 -6.13452e-22)
(-0.0227456 0.051036 3.94991e-19)
(-0.0107796 0.0491553 3.71125e-19)
(0.00358679 0.0469678 -1.63396e-19)
(0.0201037 0.0447089 5.38821e-20)
(0.038525 0.0425597 1.24976e-19)
(0.0585925 0.0406598 -5.91643e-20)
(0.0800221 0.0391177 -6.6401e-19)
(0.102493 0.0380198 1.68102e-19)
(0.125621 0.0374306 4.63154e-19)
(0.148915 0.0373884 -6.60181e-19)
(0.171921 0.0380861 3.22101e-19)
(0.194821 0.0405693 8.66245e-20)
(0.215945 0.0457252 4.39673e-19)
(-0.011439 0.0124449 -7.18561e-20)
(-0.0269078 0.0292218 -3.40906e-19)
(-0.0361648 0.0399327 1.56862e-19)
(-0.0398255 0.0462973 7.09283e-22)
(-0.0385142 0.0495983 -6.83731e-19)
(-0.0328016 0.050801 1.06695e-19)
(-0.0231681 0.0506396 -2.02597e-20)
(-0.0100145 0.0496717 1.38028e-19)
(0.00631842 0.0483233 -6.31809e-19)
(0.0255281 0.0469246 -4.42912e-20)
(0.0473282 0.045738 -1.48446e-19)
(0.0714261 0.0449778 1.32045e-19)
(0.0975 0.0448258 4.45885e-19)
(0.125177 0.045442 -6.8925e-20)
(0.154008 0.0469731 2.67195e-20)
(0.183428 0.0495427 1.75782e-19)
(0.212668 0.0532065 -4.33688e-20)
(0.240871 0.058082 3.55714e-19)
(0.26801 0.0652175 -2.05741e-19)
(0.29304 0.075161 -3.26845e-19)
(-0.0121096 0.0122248 6.66336e-20)
(-0.0277458 0.028335 1.62376e-20)
(-0.0360606 0.0384228 1.36714e-19)
(-0.0378539 0.044283 3.3485e-19)
(-0.033867 0.0472554 1.87897e-19)
(-0.0247482 0.0483448 1.96049e-20)
(-0.0110336 0.048311 -2.24314e-19)
(0.00683478 0.0477303 5.75054e-20)
(0.0284818 0.047047 3.02409e-19)
(0.0535718 0.0466118 -5.12451e-19)
(0.0817823 0.0467128 3.86702e-19)
(0.112779 0.0476003 -2.91393e-19)
(0.146194 0.0495078 2.47361e-19)
(0.181599 0.0526743 -5.33678e-19)
(0.218477 0.057368 5.87493e-19)
(0.256162 0.0639007 -6.28568e-19)
(0.293698 0.0726213 -1.63707e-19)
(0.329761 0.084155 5.15124e-19)
(0.363213 0.100442 -1.73498e-19)
(0.391073 0.121369 7.83201e-20)
(-0.012676 0.0118762 -5.04442e-20)
(-0.0281279 0.0270888 4.76016e-19)
(-0.0350233 0.0363934 -2.0024e-21)
(-0.0343652 0.0416544 -2.95493e-19)
(-0.0270197 0.0442641 -1.98732e-19)
(-0.013717 0.0452629 3.64067e-19)
(0.00494641 0.04543 -1.442e-19)
(0.0284801 0.0453544 -1.81667e-20)
(0.0564642 0.0454889 3.00484e-19)
(0.0885167 0.0461919 -3.73295e-19)
(0.124265 0.0477589 4.09387e-20)
(0.163326 0.0504486 -4.8538e-19)
(0.205291 0.0545083 2.55707e-19)
(0.249727 0.0602028 -7.31976e-19)
(0.296178 0.0678526 1.167e-18)
(0.344182 0.0778864 -2.13692e-19)
(0.393304 0.0909605 2.24202e-19)
(0.443435 0.108511 -5.81803e-19)
(0.495075 0.133553 2.73189e-21)
(0.540347 0.161666 6.67737e-19)
(-0.0131064 0.0113981 -1.52849e-19)
(-0.027938 0.0254891 1.32071e-19)
(-0.0328401 0.0338722 -4.86282e-19)
(-0.029042 0.0384721 7.19222e-19)
(-0.0175471 0.0407269 -5.19236e-19)
(0.000822881 0.0417063 2.67896e-20)
(0.025398 0.0422014 -5.59832e-19)
(0.0556193 0.042803 4.00255e-19)
(0.090994 0.0439583 -5.71863e-20)
(0.131056 0.0460114 -3.5321e-19)
(0.175337 0.0492334 -2.06148e-19)
(0.22335 0.0538441 2.17801e-19)
(0.274585 0.0600309 1.44144e-19)
(0.328523 0.0679659 -6.38324e-19)
(0.384663 0.0778226 2.30319e-19)
(0.442569 0.0897878 -3.40472e-19)
(0.501931 0.104082 4.13018e-20)
(0.562797 0.121166 -2.90699e-19)
(0.626051 0.142211 1.20865e-19)
(0.684411 0.163061 -4.38777e-19)
(-0.0133602 0.0107893 4.35131e-19)
(-0.0270382 0.0235478 -2.63502e-19)
(-0.0292651 0.0309051 2.17126e-19)
(-0.0215267 0.0348303 -2.74111e-19)
(-0.00498092 0.0367969 4.59498e-19)
(0.0194404 0.0378962 -8.05377e-21)
(0.0509674 0.038921 -5.59285e-20)
(0.088935 0.0404502 -4.14645e-20)
(0.132727 0.0429068 2.55226e-19)
(0.181729 0.0465963 4.33981e-19)
(0.2353 0.051733 -2.56368e-19)
(0.292763 0.0584579 2.49279e-19)
(0.353407 0.066852 4.55609e-19)
(0.416511 0.0769454 -3.19453e-19)
(0.481378 0.0887218 -6.50116e-19)
(0.547382 0.102114 1.18988e-18)
(0.614007 0.116984 -2.12348e-19)
(0.680935 0.13317 -6.92764e-20)
(0.74841 0.151009 7.50559e-19)
(0.811133 0.169482 -1.57617e-19)
(-0.0133868 0.0100482 -7.08514e-19)
(-0.0252665 0.0212838 -4.71667e-19)
(-0.0240203 0.027557 -1.81063e-19)
(-0.0114262 0.0308558 3.49293e-19)
(0.0111771 0.0326754 -7.88493e-19)
(0.0427168 0.0341172 4.08286e-19)
(0.0822785 0.0359615 5.17382e-20)
(0.129031 0.0387569 5.23016e-20)
(0.18216 0.0428787 -5.34685e-19)
(0.240813 0.0485641 -1.88823e-19)
(0.304084 0.0559371 -3.32902e-19)
(0.371006 0.0650246 3.21566e-19)
(0.440574 0.0757697 9.14242e-20)
(0.511782 0.0880418 1.80007e-20)
(0.583662 0.101642 4.20498e-19)
(0.655333 0.116304 -4.25584e-19)
(0.726033 0.131683 -1.78009e-20)
(0.795149 0.14737 1.03729e-20)
(0.862385 0.16322 5.7917e-20)
(0.924736 0.180728 3.33953e-19)
(-0.013124 0.0091738 2.25611e-19)
(-0.022437 0.0187245 5.81094e-19)
(-0.0167995 0.0239125 4.6633e-19)
(0.00167543 0.0267081 -1.60722e-19)
(0.0314313 0.0286074 5.58913e-19)
(0.0712048 0.0307056 -4.70857e-20)
(0.119871 0.0337501 -6.6325e-20)
(0.176346 0.0382326 3.94799e-20)
(0.239516 0.0444481 5.40138e-19)
(0.308188 0.0525287 3.17365e-19)
(0.381087 0.0624692 9.2666e-20)
(0.456873 0.0741474 5.65488e-21)
(0.534188 0.0873443 -6.15636e-19)
(0.611714 0.101762 5.34916e-19)
(0.688226 0.117039 9.20216e-20)
(0.762647 0.132768 -1.5122e-19)
(0.834072 0.148495 -6.58446e-19)
(0.901798 0.163758 -5.62502e-20)
(0.965298 0.178092 2.61051e-19)
(1.02368 0.194638 -5.36644e-20)
(-0.0124983 0.00816734 -5.72666e-19)
(-0.0183427 0.015909 2.39602e-19)
(-0.00727738 0.0200787 -1.16966e-18)
(0.0181993 0.0225785 4.78974e-19)
(0.0562596 0.0248768 -3.81958e-19)
(0.105379 0.0280378 2.81584e-19)
(0.164126 0.0327448 -4.37367e-19)
(0.231054 0.0393952 4.01524e-20)
(0.30463 0.0481596 -2.25348e-20)
(0.383211 0.0590185 1.17618e-19)
(0.465065 0.0717946 1.6994e-19)
(0.548433 0.0861837 -3.21214e-19)
(0.631606 0.101788 1.70056e-19)
(0.713007 0.11815 1.56365e-19)
(0.791258 0.13478 6.76871e-19)
(0.865232 0.151184 -2.93679e-19)
(0.934072 0.166882 -1.96014e-19)
(0.997206 0.181458 3.30046e-19)
(1.05421 0.194336 1.77208e-19)
(1.10558 0.209415 -3.31842e-19)
(-0.0114256 0.00703479 5.0174e-19)
(-0.0127604 0.0128926 4.83812e-19)
(0.00487831 0.0161889 1.39525e-19)
(0.0385481 0.018692 5.87703e-19)
(0.0860767 0.0218021 2.88651e-19)
(0.145578 0.0265163 -5.20311e-19)
(0.215194 0.0334093 7.87991e-19)
(0.292981 0.0427315 -3.87769e-19)
(0.376863 0.0544732 3.87073e-19)
(0.464652 0.0684101 5.00913e-19)
(0.554117 0.0841504 -2.86272e-19)
(0.6431 0.101185 5.43598e-20)
(0.729623 0.118939 3.03521e-19)
(0.811991 0.136821 2.14041e-19)
(0.888855 0.154263 4.93801e-19)
(0.959247 0.170754 -1.97179e-19)
(1.02257 0.18586 -2.39788e-20)
(1.0786 0.199267 3.13123e-19)
(1.12724 0.210479 -6.71453e-20)
(1.16985 0.223474 4.0072e-22)
(-0.00981377 0.00578965 -2.59033e-19)
(-0.00545903 0.009752 -9.52082e-19)
(0.019991 0.0124072 2.24174e-19)
(0.0630796 0.0153079 -1.70646e-19)
(0.121192 0.0197319 -3.93836e-19)
(0.191954 0.0265568 -2.81094e-19)
(0.272931 0.0361875 -1.73645e-19)
(0.361543 0.0486599 4.21758e-19)
(0.455063 0.0637187 -2.50472e-19)
(0.550712 0.0808818 -2.56448e-19)
(0.645791 0.0995127 -3.24565e-19)
(0.737849 0.118895 -5.35804e-20)
(0.824812 0.138306 -3.61637e-20)
(0.905083 0.157074 -7.51849e-19)
(0.977573 0.174624 3.65126e-19)
(1.04169 0.190505 -4.80062e-19)
(1.0973 0.204397 1.51416e-19)
(1.14462 0.216132 -1.15253e-18)
(1.18409 0.225421 3.47234e-19)
(1.2174 0.235886 4.40862e-19)
(-0.00756578 0.00445565 -6.50278e-20)
(0.00379094 0.00658999 4.64633e-19)
(0.0383567 0.00893265 2.97769e-20)
(0.0920774 0.0127206 7.16601e-20)
(0.161771 0.0190376 -1.45684e-19)
(0.244419 0.0285709 -2.37512e-21)
(0.336851 0.0414759 -3.72355e-21)
(0.435723 0.0574947 -8.78547e-20)
(0.537599 0.0760596 3.116e-19)
(0.639137 0.0963909 1.2052e-19)
(0.737299 0.117602 5.47257e-19)
(0.829542 0.138802 -1.49273e-19)
(0.913946 0.159179 1.04319e-19)
(0.989264 0.178063 -1.36694e-20)
(1.05489 0.194957 2.89218e-19)
(1.1108 0.209545 1.77279e-19)
(1.15741 0.221679 4.28035e-19)
(1.19547 0.231361 -6.91822e-19)
(1.22587 0.238553 8.71607e-19)
(1.25046 0.246329 -2.76342e-19)
(-0.0045832 0.00306894 -6.05864e-19)
(0.0152059 0.00353954 -1.8905e-19)
(0.0602245 0.00600082 1.47813e-19)
(0.125721 0.0112559 9.31766e-20)
(0.207796 0.0201024 9.539e-20)
(0.302611 0.0329454 9.67449e-20)
(0.40611 0.0495952 -2.42048e-19)
(0.514098 0.0694159 -1.00121e-19)
(0.622453 0.0914736 3.10441e-20)
(0.727407 0.114679 -2.96583e-19)
(0.825807 0.137928 -1.34241e-19)
(0.915299 0.160224 8.11476e-19)
(0.994396 0.18076 -2.09295e-19)
(1.06244 0.198962 -2.88974e-19)
(1.1195 0.214495 -1.37477e-19)
(1.16617 0.227236 9.50356e-20)
(1.20345 0.23724 1.16336e-19)
(1.23255 0.244683 -5.57838e-19)
(1.25473 0.249757 8.0816e-19)
(1.27183 0.254958 -7.00862e-19)
(-0.000770451 0.00167966 -6.86478e-20)
(0.0289768 0.000765331 1.96773e-20)
(0.0857745 0.00388292 -2.50223e-20)
(0.164059 0.0112639 3.65921e-19)
(0.259038 0.0233054 2.01055e-20)
(0.365877 0.0400177 1.3434e-19)
(0.479519 0.0607617 -2.79029e-19)
(0.594916 0.0844489 -1.01787e-20)
(0.707388 0.109754 3.87659e-19)
(0.812983 0.135307 5.40666e-20)
(0.908744 0.159865 -3.37929e-19)
(0.992815 0.182428 -2.96713e-20)
(1.0644 0.202303 -2.78075e-19)
(1.12361 0.219105 2.76753e-19)
(1.17124 0.232722 3.84998e-19)
(1.20852 0.243258 -4.24621e-20)
(1.23693 0.250968 -5.19043e-20)
(1.25801 0.25618 1.58184e-19)
(1.27322 0.259258 -5.09327e-19)
(1.28433 0.262184 4.48431e-19)
(0.00396065 0.000352543 6.88408e-20)
(0.0452555 -0.00153688 -4.44379e-19)
(0.115098 0.00288036 1.1895e-19)
(0.206979 0.0131062 -3.68735e-19)
(0.315034 0.0289999 1.26766e-19)
(0.433279 0.0500497 -4.70774e-19)
(0.555608 0.0750658 1.89871e-19)
(0.676226 0.10246 -6.04227e-20)
(0.790142 0.130534 -2.4411e-21)
(0.893558 0.157719 6.18883e-20)
(0.984055 0.182746 -2.25523e-19)
(1.06056 0.204737 -3.2214e-19)
(1.12316 0.223215 -6.6144e-20)
(1.17279 0.238056 -2.96964e-20)
(1.21094 0.249403 -7.53863e-20)
(1.23937 0.257582 -2.45872e-20)
(1.25989 0.26302 -7.36219e-20)
(1.2742 0.266155 -6.38792e-20)
(1.28383 0.267456 -1.90357e-19)
(1.29039 0.26849 3.02249e-19)
(0.0096861 -0.000833277 1.65772e-19)
(0.0641415 -0.00314374 -1.84078e-19)
(0.148176 0.0033151 3.96095e-19)
(0.254198 0.0171382 -1.70909e-19)
(0.375092 0.0374899 4.56759e-19)
(0.503628 0.0632043 6.45801e-21)
(0.632712 0.0924613 2.2936e-19)
(0.756031 0.12317 -6.13793e-20)
(0.868637 0.153337 2.56377e-19)
(0.967267 0.181315 1.8578e-20)
(1.05036 0.205952 6.10784e-19)
(1.11785 0.22661 -4.21721e-19)
(1.17074 0.24311 5.67867e-20)
(1.21079 0.255622 1.08447e-19)
(1.24004 0.264542 5.68889e-19)
(1.26061 0.270387 -2.04422e-19)
(1.27447 0.273706 -4.05716e-20)
(1.28334 0.275002 -2.15172e-19)
(1.28869 0.274789 -2.27421e-20)
(1.29195 0.27431 1.07751e-19)
(0.0164647 -0.00178547 -7.96542e-20)
(0.0856695 -0.00381043 2.29964e-19)
(0.184868 0.00551642 -2.35281e-19)
(0.305247 0.0236885 9.29945e-20)
(0.438301 0.0490064 -1.11031e-19)
(0.575549 0.0795297 4.07691e-19)
(0.709092 0.11277 -5.67324e-20)
(0.832455 0.146192 1.39949e-19)
(0.941146 0.177632 -8.23624e-20)
(1.03281 0.205527 -2.13006e-21)
(1.10699 0.228977 9.42043e-20)
(1.1647 0.247682 -7.29992e-20)
(1.20787 0.261805 1.89408e-19)
(1.23889 0.271808 -9.44116e-20)
(1.26021 0.278309 -4.16185e-19)
(1.27413 0.281962 4.13909e-19)
(1.28262 0.283388 -1.86647e-19)
(1.2873 0.283107 1.49056e-19)
(1.28949 0.281643 2.58681e-19)
(1.29041 0.279983 1.06281e-19)
(0.0243329 -0.00240055 1.9817e-19)
(0.109798 -0.00327924 -4.08337e-19)
(0.224899 0.00980472 7.81486e-20)
(0.359479 0.0330374 -5.66648e-20)
(0.503577 0.0636886 -2.28426e-19)
(0.647566 0.098955 -1.79266e-19)
(0.783067 0.135702 -3.52195e-20)
(0.903882 0.171071 -3.19634e-19)
(1.0064 0.2029 -1.94489e-20)
(1.08948 0.22987 -5.93991e-20)
(1.1539 0.251458 -1.61309e-19)
(1.20173 0.26776 -3.58334e-20)
(1.23567 0.279285 -1.23532e-19)
(1.25859 0.286756 -2.06296e-19)
(1.27316 0.290957 2.11352e-19)
(1.28165 0.292628 2.91899e-20)
(1.28596 0.292409 5.81721e-20)
(1.28751 0.290801 -2.43737e-19)
(1.28743 0.288316 -6.0731e-21)
(1.28676 0.28574 -3.76349e-19)
(0.0333003 -0.00256691 2.174e-19)
(0.136402 -0.00129016 1.44963e-19)
(0.267856 0.016474 -2.3361e-19)
(0.416091 0.0453977 3.64801e-19)
(0.569711 0.0815725 -3.92988e-20)
(0.718197 0.121298 1.36229e-19)
(0.853125 0.160887 4.71597e-20)
(0.969051 0.197333 1.67109e-19)
(1.06363 0.228669 -1.30847e-19)
(1.1371 0.253973 4.36165e-20)
(1.19152 0.273177 -4.18796e-20)
(1.22987 0.286794 -1.84498e-20)
(1.25546 0.295651 3.50519e-20)
(1.2714 0.300677 -6.46127e-20)
(1.28039 0.302762 -1.98707e-20)
(1.28462 0.30268 -6.0792e-20)
(1.28575 0.30105 -9.88602e-20)
(1.28502 0.298334 6.38204e-20)
(1.28337 0.295014 -8.76339e-20)
(1.28161 0.291715 3.7866e-19)
(0.0433453 -0.00216854 -1.08612e-19)
(0.165265 0.00240719 -3.07554e-19)
(0.313201 0.0257747 -4.09334e-20)
(0.474152 0.0608988 -1.11097e-20)
(0.635444 0.102589 -1.37704e-19)
(0.786048 0.146285 -2.26058e-19)
(0.918008 0.18791 7.40011e-20)
(1.0271 0.224528 -1.01683e-19)
(1.1125 0.254554 -1.13966e-19)
(1.17594 0.27758 6.34936e-20)
(1.22061 0.294038 -4.79931e-20)
(1.25025 0.304834 -9.71364e-20)
(1.26852 0.311063 -3.29622e-21)
(1.27864 0.313798 6.57943e-20)
(1.28318 0.313977 -6.71481e-20)
(1.28413 0.312362 9.31889e-20)
(1.28293 0.309526 2.50592e-20)
(1.28058 0.305872 6.31994e-20)
(1.27784 0.301861 1.23249e-19)
(1.27537 0.297969 -1.05594e-19)
(0.0544125 -0.00108957 1.03767e-19)
(0.196086 0.00804101 -9.2176e-21)
(0.36028 0.0378979 4.6509e-20)
(0.532652 0.0795782 -6.31505e-20)
(0.699534 0.12657 5.17179e-21)
(0.84989 0.173573 2.1906e-19)
(0.976766 0.216345 -1.43923e-19)
(1.07753 0.252251 6.09539e-20)
(1.15308 0.280254 5.37455e-20)
(1.20654 0.300538 -1.51131e-19)
(1.24209 0.31403 1.42036e-19)
(1.26398 0.321987 1.25398e-21)
(1.27606 0.325703 -1.00127e-19)
(1.28145 0.32633 1.20702e-19)
(1.28252 0.324809 -4.79087e-20)
(1.28102 0.321854 3.66435e-20)
(1.27813 0.317974 -4.0985e-20)
(1.27466 0.313515 -1.63808e-20)
(1.27121 0.308913 -1.43576e-19)
(1.26827 0.304511 4.39621e-20)
(0.066411 0.000780717 -3.50184e-20)
(0.228478 0.0158048 9.3912e-20)
(0.408351 0.0529625 1.46312e-20)
(0.590543 0.101378 6.13945e-20)
(0.760819 0.153263 2.92811e-20)
(0.908705 0.202777 1.37243e-20)
(1.02875 0.24578 7.78281e-20)
(1.12022 0.28016 -9.45192e-21)
(1.1857 0.305556 3.43167e-20)
(1.22963 0.322772 5.51492e-20)
(1.25691 0.333199 2.66152e-20)
(1.27212 0.33838 1.9108e-20)
(1.27908 0.339737 7.74951e-20)
(1.28073 0.338448 -7.50135e-20)
(1.27917 0.33541 1.61041e-20)
(1.27587 0.331274 -1.50744e-20)
(1.27179 0.326476 2.33386e-20)
(1.26757 0.321303 1.95539e-20)
(1.26365 0.316177 4.08405e-20)
(1.26042 0.311309 1.72721e-21)
(0.0792148 0.00354264 2.0758e-20)
(0.261981 0.0258459 1.896e-20)
(0.456611 0.071007 -2.62394e-20)
(0.646794 0.126148 1.63947e-20)
(0.818269 0.182347 9.25927e-21)
(0.961717 0.233494 -2.88026e-20)
(1.07362 0.275835 9.505e-21)
(1.15525 0.307975 1.71094e-21)
(1.21088 0.33031 1.63932e-20)
(1.24598 0.344258 -4.39493e-20)
(1.26598 0.351616 -1.34948e-22)
(1.27558 0.354135 1.21794e-20)
(1.27842 0.353305 -9.70494e-21)
(1.27717 0.350275 9.82003e-21)
(1.27366 0.345878 2.56221e-20)
(1.26908 0.340685 -1.45755e-20)
(1.26419 0.335057 4.05889e-21)
(1.25949 0.329234 1.59694e-20)
(1.25529 0.323625 -2.63313e-20)
(1.25189 0.318309 1.26382e-20)
(0.079181 -0.00354259 5.59145e-20)
(0.261895 -0.0258447 -3.0729e-20)
(0.456486 -0.071005 3.6271e-20)
(0.646647 -0.126149 -2.7013e-20)
(0.818115 -0.182353 -1.22283e-20)
(0.961567 -0.23351 3.76722e-21)
(1.07348 -0.275862 -1.21123e-20)
(1.15513 -0.308013 4.3805e-20)
(1.21078 -0.330359 -3.66808e-20)
(1.24589 -0.344317 8.38955e-21)
(1.26591 -0.351682 -6.47222e-21)
(1.27552 -0.354208 -4.25635e-20)
(1.27837 -0.353382 4.14782e-20)
(1.27713 -0.350356 1.60988e-20)
(1.27362 -0.345962 -1.55168e-20)
(1.26904 -0.34077 3.7312e-20)
(1.26416 -0.335144 -4.35063e-22)
(1.25946 -0.329322 -3.64432e-20)
(1.25527 -0.323714 2.67734e-20)
(1.25187 -0.318399 8.93735e-21)
(0.0663789 -0.000781792 -2.0049e-20)
(0.228394 -0.0158061 5.42452e-20)
(0.408227 -0.0529635 6.34398e-20)
(0.590392 -0.101381 -3.06958e-20)
(0.760658 -0.15327 5.3039e-20)
(0.908546 -0.202793 8.61278e-20)
(1.0286 -0.245807 -4.86999e-21)
(1.12008 -0.280198 -1.55072e-20)
(1.18559 -0.305605 7.6708e-20)
(1.22953 -0.322831 3.79453e-20)
(1.25683 -0.333267 -7.13675e-21)
(1.27205 -0.338454 5.78658e-20)
(1.27903 -0.339817 -6.22144e-20)
(1.28068 -0.338531 9.95608e-20)
(1.27913 -0.335497 -1.62838e-20)
(1.27583 -0.331364 4.96826e-20)
(1.27176 -0.326567 9.75746e-21)
(1.26755 -0.321396 3.55957e-20)
(1.26363 -0.316271 -3.34344e-20)
(1.2604 -0.311403 9.27234e-21)
(0.0543822 0.00108749 -2.97111e-20)
(0.196005 -0.00804487 6.49193e-20)
(0.360157 -0.0379019 4.83941e-20)
(0.5325 -0.0795835 -7.72527e-21)
(0.699367 -0.126579 8.10059e-20)
(0.849721 -0.173589 -6.3991e-20)
(0.976605 -0.216371 -6.74362e-21)
(1.07739 -0.252288 5.77085e-20)
(1.15295 -0.280302 1.92246e-20)
(1.20644 -0.300597 2.68924e-20)
(1.24199 -0.314097 -3.96718e-20)
(1.2639 -0.322062 1.10695e-19)
(1.276 -0.325784 2.1547e-20)
(1.28139 -0.326417 -9.78152e-20)
(1.28248 -0.324899 1.50661e-19)
(1.28098 -0.321947 -1.78495e-19)
(1.2781 -0.31807 -8.50145e-20)
(1.27463 -0.313612 1.44682e-20)
(1.27118 -0.309011 8.20413e-20)
(1.26825 -0.30461 -1.5539e-19)
(0.0433171 0.0021656 -6.2291e-20)
(0.165188 -0.00241331 -1.46233e-19)
(0.313082 -0.0257816 -1.28896e-19)
(0.474001 -0.0609068 -1.76103e-19)
(0.635274 -0.1026 -1.04727e-19)
(0.785871 -0.146302 -2.22534e-19)