/*--------------------------------*- C++ -*----------------------------------*\
  =========                 |
  \\      /  F ield         | OpenFOAM: The Open Source CFD Toolbox
   \\    /   O peration     | Website:  https://openfoam.org
    \\  /    A nd           | Version:  6.0
     \\/     M anipulation  |
\*---------------------------------------------------------------------------*/
FoamFile
{
    version     2.0;
    format      ascii;
    class       surfaceScalarField;
    location    "44";
    object      phi;
}
// * * * * * * * * * * * * * * * * * * * * * * * * * * * * * * * * * * * * * //

dimensions      [0 3 -1 0 0 0 0];

internalField   nonuniform List<scalar> 
24700
(
-1.24454e-06
1.95989e-06
-7.15343e-07
-4.53026e-06
5.57596e-06
-2.29024e-06
-9.47128e-06
8.87851e-06
-3.9375e-06
-1.57289e-05
1.18474e-05
-5.5898e-06
-2.30113e-05
1.44802e-05
-7.19785e-06
-3.10713e-05
1.67901e-05
-8.73009e-06
-3.97039e-05
1.88012e-05
-1.01686e-05
-4.87432e-05
2.05448e-05
-1.15055e-05
-5.80586e-05
2.20559e-05
-1.27405e-05
-6.75522e-05
2.33718e-05
-1.38782e-05
-7.71551e-05
2.45292e-05
-1.49263e-05
-8.68248e-05
2.55638e-05
-1.58941e-05
-9.65422e-05
2.65089e-05
-1.67915e-05
-0.000106309
2.73953e-05
-1.76285e-05
-0.000116145
2.82503e-05
-1.84143e-05
-0.000126085
2.90981e-05
-1.91578e-05
-0.000136178
2.99598e-05
-1.9867e-05
-0.000146482
3.08532e-05
-2.05493e-05
-0.000157063
3.17929e-05
-2.12116e-05
-0.000167994
3.2791e-05
-2.18604e-05
-0.000179349
3.38566e-05
-2.25019e-05
-0.000191203
3.4997e-05
-2.31426e-05
-0.000203631
3.62166e-05
-2.37885e-05
-0.000216704
3.75182e-05
-2.44451e-05
3.8905e-05
-2.51178e-05
-0.000230491
-1.22848e-06
3.18837e-06
-4.47222e-06
8.81969e-06
-9.34932e-06
1.37556e-05
-1.55239e-05
1.8022e-05
-2.27059e-05
2.16623e-05
-3.06497e-05
2.47338e-05
-3.91507e-05
2.73022e-05
-4.80429e-05
2.9437e-05
-5.71955e-05
3.12086e-05
-6.65095e-05
3.26858e-05
-7.5915e-05
3.39346e-05
-8.53677e-05
3.50165e-05
-9.4847e-05
3.59882e-05
-0.000104353
3.69009e-05
-0.000113902
3.78001e-05
-0.00012353
3.87257e-05
-0.000133282
3.97118e-05
-0.000143215
4.07867e-05
-0.000153396
4.19736e-05
-0.000163895
4.329e-05
-0.000174787
4.47487e-05
-0.000186148
4.63578e-05
-0.000198052
4.81209e-05
-0.000210572
5.0038e-05
5.21106e-05
-0.000223778
-1.21291e-06
4.40128e-06
-4.41455e-06
1.20213e-05
-9.22543e-06
1.85665e-05
-1.53111e-05
2.41076e-05
-2.23821e-05
2.87333e-05
-3.01927e-05
3.25444e-05
-3.85378e-05
3.56473e-05
-4.72501e-05
3.81494e-05
-5.6197e-05
4.01554e-05
-6.52772e-05
4.17659e-05
-7.44176e-05
4.30751e-05
-8.35713e-05
4.41702e-05
-9.27141e-05
4.5131e-05
-0.000101843
4.60293e-05
-0.000110972
4.6929e-05
-0.000120132
4.78859e-05
-0.000129368
4.89476e-05
-0.000138735
5.0154e-05
-0.000148298
5.15371e-05
-0.00015813
5.31211e-05
-0.000168304
5.49231e-05
-0.000178899
5.69531e-05
-0.000189993
5.92143e-05
-0.000201659
6.17047e-05
6.44239e-05
-0.000213973
-1.19839e-06
5.59967e-06
-4.35905e-06
1.5182e-05
-9.10318e-06
2.33106e-05
-1.50962e-05
3.01006e-05
-2.2048e-05
3.56852e-05
-2.97118e-05
4.02081e-05
-3.78805e-05
4.38161e-05
-4.63846e-05
4.66534e-05
-5.5088e-05
4.88589e-05
-6.38858e-05
5.05637e-05
-7.27008e-05
5.18901e-05
-8.14811e-05
5.29505e-05
-9.01977e-05
5.38477e-05
-9.88425e-05
5.46741e-05
-0.000107426
5.55122e-05
-0.000115974
5.64345e-05
-0.00012453
5.7503e-05
-0.000133146
5.87701e-05
-0.000141887
6.0278e-05
-0.000150824
6.20589e-05
-0.000160037
6.41356e-05
-0.000169605
6.65214e-05
-0.000179611
6.92199e-05
-0.000190134
7.22284e-05
7.55449e-05
-0.000201255
-1.18551e-06
6.78518e-06
-4.30759e-06
1.83041e-05
-8.98616e-06
2.79892e-05
-1.4885e-05
3.59994e-05
-2.17123e-05
4.25125e-05
-2.92188e-05
4.77146e-05
-3.71949e-05
5.17921e-05
-4.54673e-05
5.49257e-05
-5.38958e-05
5.72874e-05
-6.23702e-05
5.90382e-05
-7.08078e-05
6.03276e-05
-7.91504e-05
6.12931e-05
-8.73625e-05
6.20597e-05
-9.54294e-05
6.2741e-05
-0.000103355
6.34383e-05
-0.000111162
6.42413e-05
-0.000118887
6.5228e-05
-0.000126582
6.64644e-05
-0.000134309
6.80049e-05
-0.000142141
6.98917e-05
-0.000150161
7.21552e-05
-0.000158453
7.48136e-05
-0.000167106
7.78733e-05
-0.00017621
8.13316e-05
8.51861e-05
-0.000185851
-1.17482e-06
7.96e-06
-4.26181e-06
2.1391e-05
-8.87753e-06
3.26049e-05
-1.46827e-05
4.18046e-05
-2.13825e-05
4.92123e-05
-2.87246e-05
5.50567e-05
-3.64958e-05
5.95633e-05
-4.45184e-05
6.29484e-05
-5.26471e-05
6.54161e-05
-6.07655e-05
6.71566e-05
-6.87837e-05
6.83458e-05
-7.66358e-05
6.91452e-05
-8.42783e-05
6.97022e-05
-9.16881e-05
7.01508e-05
-9.88618e-05
7.0612e-05
-0.000105814
7.11935e-05
-0.000112576
7.19903e-05
-0.000119196
7.30845e-05
-0.000125736
7.45445e-05
-0.000132269
7.6425e-05
-0.000138881
7.87669e-05
-0.000145664
8.15963e-05
-0.000152715
8.49244e-05
-0.000160134
8.87511e-05
9.30746e-05
-0.000168023
-1.16675e-06
9.12675e-06
-4.22292e-06
2.44472e-05
-8.77949e-06
3.71615e-05
-1.44927e-05
4.75178e-05
-2.10638e-05
5.57835e-05
-2.82368e-05
6.22298e-05
-3.57944e-05
6.71208e-05
-4.35539e-05
7.07079e-05
-5.13642e-05
7.32263e-05
-5.91019e-05
7.48943e-05
-6.6669e-05
7.59129e-05
-7.39904e-05
7.64666e-05
-8.10128e-05
7.67246e-05
-8.7703e-05
7.68411e-05
-9.40476e-05
7.69566e-05
-0.000100052
7.7198e-05
-0.000105741
7.76789e-05
-0.000111155
7.84991e-05
-0.000116355
7.97441e-05
-0.000121414
8.14845e-05
-0.000126423
8.37751e-05
-0.00013148
8.66535e-05
-0.000136695
9.01397e-05
-0.000142183
9.42392e-05
9.89531e-05
-0.000148062
-1.1615e-06
1.02883e-05
-4.19135e-06
2.74771e-05
-8.69266e-06
4.16628e-05
-1.43158e-05
5.31409e-05
-2.07577e-05
6.22253e-05
-2.7758e-05
6.92301e-05
-3.50952e-05
7.44579e-05
-4.25816e-05
7.81943e-05
-5.00599e-05
8.07047e-05
-5.73993e-05
8.22337e-05
-6.44928e-05
8.30064e-05
-7.12552e-05
8.3229e-05
-7.76216e-05
8.3091e-05
-8.35469e-05
8.27664e-05
-8.90056e-05
8.24152e-05
-9.39914e-05
8.21839e-05
-9.85183e-05
8.22058e-05
-0.00010262
8.26011e-05
-0.000106352
8.34754e-05
-0.000109786
8.49191e-05
-0.000113017
8.70056e-05
-0.000116152
8.97893e-05
-0.000119316
9.33036e-05
-0.000122642
9.75647e-05
0.00010258
-0.000126269
-1.159e-06
1.14473e-05
-4.1665e-06
3.04846e-05
-8.61548e-06
4.61118e-05
-1.41494e-05
5.86749e-05
-2.04602e-05
6.85361e-05
-2.72833e-05
7.60532e-05
-3.4393e-05
8.15677e-05
-4.15972e-05
8.53985e-05
-4.87323e-05
8.78398e-05
-5.56601e-05
8.91616e-05
-6.22645e-05
8.96107e-05
-6.84491e-05
8.94136e-05
-7.41367e-05
8.87786e-05
-7.92682e-05
8.78979e-05
-8.38034e-05
8.69504e-05
-8.77218e-05
8.61022e-05
-9.10238e-05
8.55077e-05
-9.3732e-05
8.53093e-05
-9.5893e-05
8.56364e-05
-9.75774e-05
8.66036e-05
-9.88805e-05
8.83087e-05
-9.99206e-05
9.08294e-05
-0.000100837
9.42198e-05
-0.000101786
9.85135e-05
0.000103731
-0.000102936
-1.15877e-06
1.2606e-05
-4.14644e-06
3.34722e-05
-8.54373e-06
5.0509e-05
-1.39862e-05
6.41173e-05
-2.01604e-05
7.47103e-05
-2.67981e-05
8.26909e-05
-3.367e-05
8.84396e-05
-4.05798e-05
9.23082e-05
-4.73588e-05
9.46188e-05
-5.38619e-05
9.56647e-05
-5.9964e-05
9.57128e-05
-6.55578e-05
9.50074e-05
-7.05525e-05
9.37732e-05
-7.48738e-05
9.22193e-05
-7.84649e-05
9.05415e-05
-8.12876e-05
8.8925e-05
-8.33253e-05
8.75454e-05
-8.45852e-05
8.65693e-05
-8.51018e-05
8.61529e-05
-8.49387e-05
8.64405e-05
-8.41908e-05
8.75609e-05
-8.29846e-05
8.96232e-05
-8.14768e-05
9.27119e-05
-7.98516e-05
9.68883e-05
0.000102195
-7.83154e-05
-1.15992e-06
1.37659e-05
-4.1278e-06
3.64401e-05
-8.47006e-06
5.48513e-05
-1.38136e-05
6.94608e-05
-1.98396e-05
8.07363e-05
-2.62765e-05
8.91279e-05
-3.28924e-05
9.50555e-05
-3.9488e-05
9.89038e-05
-4.58908e-05
0.000101022
-5.19499e-05
0.000101724
-5.75323e-05
0.000101295
-6.25202e-05
9.99954e-05
-6.68098e-05
9.80628e-05
-7.03107e-05
9.57202e-05
-7.29475e-05
9.31783e-05
-7.46619e-05
9.06394e-05
-7.54163e-05
8.82998e-05
-7.51976e-05
8.63506e-05
-7.40227e-05
8.4978e-05
-7.19427e-05
8.43604e-05
-6.90476e-05
8.46658e-05
-6.54693e-05
8.60448e-05
-6.13818e-05
8.86245e-05
-5.70012e-05
9.25077e-05
9.77741e-05
-5.25803e-05
-1.16112e-06
1.49271e-05
-4.10564e-06
3.93846e-05
-8.38391e-06
5.91296e-05
-1.36134e-05
7.46903e-05
-1.94702e-05
8.65931e-05
-2.56798e-05
9.53375e-05
-3.20089e-05
0.000101385
-3.82568e-05
0.000105152
-4.42486e-05
0.000107013
-4.98298e-05
0.000107305
-5.48614e-05
0.000106327
-5.92167e-05
0.000104351
-6.27797e-05
0.000101626
-6.54448e-05
9.83852e-05
-6.71172e-05
9.48508e-05
-6.77166e-05
9.12388e-05
-6.71806e-05
8.77638e-05
-6.54709e-05
8.4641e-05
-6.25802e-05
8.20872e-05
-5.85399e-05
8.03201e-05
-5.34281e-05
7.95539e-05
-4.7376e-05
7.99928e-05
-4.05735e-05
8.18219e-05
-3.32709e-05
8.52051e-05
9.02801e-05
-2.5777e-05
-1.16061e-06
1.60877e-05
-4.07358e-06
4.22976e-05
-8.2716e-06
6.33276e-05
-1.33621e-05
7.97808e-05
-1.90158e-05
9.22468e-05
-2.49562e-05
0.000101278
-3.09495e-05
0.000107378
-3.67952e-05
0.000110997
-4.23183e-05
0.000112537
-4.73629e-05
0.00011235
-5.17866e-05
0.00011075
-5.54567e-05
0.000108021
-5.82477e-05
0.000104417
-6.00403e-05
0.000100178
-6.07218e-05
9.55323e-05
-6.0189e-05
9.07061e-05
-5.83528e-05
8.59276e-05
-5.51449e-05
8.1433e-05
-5.0527e-05
7.74693e-05
-4.45019e-05
7.42951e-05
-3.71259e-05
7.2178e-05
-2.85213e-05
7.13882e-05
-1.88869e-05
7.21875e-05
-8.50781e-06
7.48261e-05
7.95307e-05
2.24166e-06
-1.15631e-06
1.7244e-05
-4.02405e-06
4.51653e-05
-8.11675e-06
6.74203e-05
-1.30309e-05
8.4695e-05
-1.84319e-05
9.76477e-05
-2.40414e-05
0.000106887
-2.96259e-05
0.000112962
-3.49866e-05
0.000116358
-3.99505e-05
0.0001175
-4.43629e-05
0.000116762
-4.80813e-05
0.000114469
-5.09708e-05
0.00011091
-5.29003e-05
0.000106346
-5.37407e-05
0.000101018
-5.33646e-05
9.51562e-05
-5.16482e-05
8.89897e-05
-4.84755e-05
8.27549e-05
-4.37456e-05
7.67031e-05
-3.73833e-05
7.1107e-05
-2.93536e-05
6.62653e-05
-1.96789e-05
6.25033e-05
-8.45886e-06
6.01682e-05
4.10937e-06
5.96193e-05
1.77109e-05
6.12246e-05
6.53433e-05
3.18982e-05
-1.14595e-06
1.83899e-05
-3.94864e-06
4.7968e-05
-7.90106e-06
7.13727e-05
-1.25877e-05
8.93816e-05
-1.76677e-05
0.000102728
-2.28607e-05
0.00011208
-2.79338e-05
0.000118035
-3.26908e-05
0.000121115
-3.69622e-05
0.000121772
-4.05972e-05
0.000120397
-4.34566e-05
0.000117328
-4.54074e-05
0.000112861
-4.63182e-05
0.000107257
-4.60561e-05
0.000100756
-4.44849e-05
9.3585e-05
-4.14656e-05
8.59704e-05
-3.68593e-05
7.81485e-05
-3.05335e-05
7.03773e-05
-2.23735e-05
6.2947e-05
-1.22981e-05
5.619e-05
-2.83021e-07
5.04882e-05
1.36117e-05
4.62735e-05
2.92086e-05
4.40224e-05
4.61755e-05
4.42576e-05
4.75292e-05
6.39896e-05
-1.1272e-06
1.95171e-05
-3.83873e-06
5.06795e-05
-7.60539e-06
7.51394e-05
-1.19981e-05
9.37743e-05
-1.66682e-05
0.000107398
-2.1332e-05
0.000116744
-2.5757e-05
0.00012246
-2.97491e-05
0.000125107
-3.3143e-05
0.000125166
-3.57933e-05
0.000123047
-3.7567e-05
0.000119102
-3.83374e-05
0.000113631
-3.79786e-05
0.000106898
-3.63612e-05
9.91386e-05
-3.33489e-05
9.05728e-05
-2.8797e-05
8.14185e-05
-2.25526e-05
7.19042e-05
-1.4459e-05
6.22837e-05
-4.36476e-06
5.28527e-05
7.86001e-06
4.39652e-05
2.22977e-05
3.60505e-05
3.89471e-05
2.96241e-05
5.76755e-05
2.5294e-05
7.81571e-05
2.3776e-05
2.58846e-05
9.98017e-05
-1.09791e-06
2.0615e-05
-3.686e-06
5.32676e-05
-7.21087e-06
7.86642e-05
-1.12274e-05
9.77908e-05
-1.5377e-05
0.000111547
-1.93704e-05
0.000120738
-2.29729e-05
0.000126063
-2.59913e-05
0.000128126
-2.82636e-05
0.000127438
-2.96496e-05
0.000124433
-3.00239e-05
0.000119476
-2.92691e-05
0.000112877
-2.72701e-05
0.000104899
-2.39089e-05
9.57774e-05
-1.90597e-05
8.57236e-05
-1.25851e-05
7.49439e-05
-4.33342e-06
6.36524e-05
5.8614e-06
5.20889e-05
1.81747e-05
4.05395e-05
3.27784e-05
2.93615e-05
4.98163e-05
1.90125e-05
6.93628e-05
1.00776e-05
9.13603e-05
3.29652e-06
0.000115528
-3.912e-07
1.79238e-07
0.000141233
-1.05629e-06
2.16713e-05
-3.48306e-06
5.56944e-05
-6.70013e-06
8.18813e-05
-1.02432e-05
0.000101334
-1.374e-05
0.000115044
-1.68922e-05
0.00012389
-1.94594e-05
0.00012863
-2.12456e-05
0.000129912
-2.20888e-05
0.000128281
-2.18519e-05
0.000124196
-2.04158e-05
0.00011804
-1.76731e-05
0.000110134
-1.35225e-05
0.000100749
-7.86386e-06
9.01188e-05
-5.92422e-07
7.84521e-05
8.40664e-06
6.59448e-05
1.9264e-05
5.27951e-05
3.21308e-05
3.92221e-05
4.71811e-05
2.54892e-05
6.46067e-05
1.19359e-05
8.46004e-05
-9.81112e-07
0.000107317
-1.26387e-05
0.000132803
-2.21896e-05
0.000160874
-2.84628e-05
-2.98595e-05
0.000190913
-1.00101e-06
2.26723e-05
-3.22387e-06
5.79172e-05
-6.05816e-06
8.47156e-05
-9.01614e-06
0.000104292
-1.17075e-05
0.000117736
-1.38196e-05
0.000126002
-1.51009e-05
0.000129911
-1.53472e-05
0.000130158
-1.43908e-05
0.000127325
-1.20925e-05
0.000121898
-8.33464e-06
0.000114282
-3.01666e-06
0.000104816
3.9496e-06
9.37826e-05
1.2644e-05
8.14244e-05
2.31426e-05
6.79535e-05
3.55238e-05
5.35637e-05
4.9875e-05
3.84438e-05
6.63023e-05
2.27948e-05
8.49395e-05
6.852e-06
0.000105956
-9.08038e-06
0.000129554
-2.45793e-05
0.000155948
-3.90329e-05
0.000185303
-5.15439e-05
0.000217591
-6.07509e-05
-6.45719e-05
0.000252303
-9.3127e-07
2.36036e-05
-2.9039e-06
5.98899e-05
-5.27276e-06
8.70845e-05
-7.52158e-06
0.000106541
-9.23615e-06
0.00011945
-1.00834e-05
0.000126849
-9.79378e-06
0.000129622
-8.14713e-06
0.000128511
-4.96215e-06
0.00012414
-8.8718e-08
0.000117025
6.59734e-06
0.000107596
1.51977e-05
9.62156e-05
2.5794e-05
8.31863e-05
3.84492e-05
6.87692e-05
5.32102e-05
5.31926e-05
7.01107e-05
3.66632e-05
8.91774e-05
1.93771e-05
0.00011044
1.53236e-06
0.000133945
-1.66527e-05
0.000159775
-3.49106e-05
0.00018807
-5.28751e-05
0.000219038
-7.00009e-05
0.000252929
-8.54349e-05
0.000289921
-9.77427e-05
-0.000104404
0.000329754
-8.46732e-07
2.44503e-05
-2.51995e-06
6.15631e-05
-4.33424e-06
8.88987e-05
-5.73884e-06
0.000107945
-6.28913e-06
0.00012
-5.62428e-06
0.000126184
-3.44852e-06
0.000127446
4.83305e-07
0.00012458
6.37625e-06
0.000118247
1.44022e-05
0.000108999
2.4704e-05
9.72946e-05
3.73967e-05
8.35229e-05
5.25678e-05
6.80152e-05
7.02753e-05
5.10617e-05
9.05458e-05
3.29221e-05
0.000113373
1.38363e-05
0.000138717
-5.96685e-06
0.00016651
-2.6261e-05
0.000196669
-4.68118e-05
0.000229118
-6.73599e-05
0.000263829
-8.75856e-05
0.000300869
-0.000107041
0.000340461
-0.000125026
0.000382967
-0.000140248
-0.000149954
0.000428516
-7.47332e-07
2.51977e-05
-2.06959e-06
6.28853e-05
-3.23446e-06
9.00636e-05
-3.65004e-06
0.000108361
-2.83423e-06
0.000119185
-3.9053e-07
0.000123741
4.01179e-06
0.000123044
1.06528e-05
0.000117939
1.97725e-05
0.000109127
3.15769e-05
9.71942e-05
4.62414e-05
8.26301e-05
6.39105e-05
6.58538e-05
8.46949e-05
4.72308e-05
0.000108667
2.70895e-05
0.000135854
5.73542e-06
0.000166228
-1.6538e-05
0.000199701
-3.94394e-05
0.000236113
-6.26731e-05
0.000275235
-8.59337e-05
0.000316776
-0.000108902
0.000360425
-0.000131234
0.000405919
-0.000152535
0.000453189
-0.000172296
0.000502565
-0.000189625
-0.000202073
0.000554684
-6.3297e-07
2.58306e-05
-1.55025e-06
6.38026e-05
-1.96509e-06
9.04784e-05
-1.23745e-06
0.000107633
1.1596e-06
0.000116788
5.66612e-06
0.000119234
1.26566e-05
0.000116053
2.24556e-05
0.00010814
3.53489e-05
9.62341e-05
5.15888e-05
8.09543e-05
7.13972e-05
6.28217e-05
9.49639e-05
4.2287e-05
0.000122443
1.97519e-05
0.000153944
-4.41188e-06
0.000189525
-2.98452e-05
0.000229174
-5.61867e-05
0.000272794
-8.30594e-05
0.000320179
-0.000110059
0.000370993
-0.000136747
0.000424736
-0.000162645
0.000480747
-0.000187245
0.000538236
-0.000210024
0.000596437
-0.000230497
0.000655042
-0.00024823
-0.000262537
0.000715506
-5.03141e-07
2.63338e-05
-9.58074e-07
6.42576e-05
-5.15536e-07
9.00359e-05
1.51986e-06
0.000105598
5.72697e-06
0.00011258
1.25969e-05
0.000112364
2.25557e-05
0.000106094
3.59811e-05
9.47142e-05
5.3213e-05
7.90022e-05
7.45598e-05
5.96074e-05
0.0001003
3.7081e-05
0.000130683
1.19046e-05
0.00016592
-1.54852e-05
0.000206183
-4.46745e-05
0.000251589
-7.5252e-05
0.000302192
-0.000106789
0.000357954
-0.000138822
0.000418721
-0.000170826
0.000484171
-0.000202196
0.000553742
-0.000232216
0.000626537
-0.000260041
0.000701213
-0.0002847
0.000775905
-0.00030519
0.000848635
-0.000320959
-0.000335638
0.000921736
-3.56545e-07
2.66903e-05
-2.86822e-07
6.41878e-05
1.12927e-06
8.86198e-05
4.6494e-06
0.000102078
1.0911e-05
0.000106319
2.04626e-05
0.000102813
3.37883e-05
9.27687e-05
5.13245e-05
7.7178e-05
7.34708e-05
5.68559e-05
0.000100596
3.24825e-05
0.000133039
4.63792e-06
0.00017111
-2.61663e-05
0.000215086
-5.94613e-05
0.000265208
-9.47969e-05
0.000321678
-0.000131722
0.000384651
-0.000169763
0.000454233
-0.000208404
0.000530467
-0.00024706
0.00061331
-0.00028504
0.000702588
-0.000321493
0.000797873
-0.000355326
0.000898241
-0.000385068
0.00100156
-0.000408508
0.0011026
-0.000422004
-0.000421575
0.00118854
-1.91271e-07
2.68816e-05
4.7229e-07
6.35243e-05
2.98963e-06
8.61025e-05
8.18703e-06
9.68803e-05
1.67662e-05
9.77397e-05
2.93382e-05
9.02405e-05
4.64489e-05
7.5658e-05
6.85956e-05
5.50314e-05
9.62371e-05
2.92144e-05
0.000129799
-1.07922e-06
0.000169673
-3.52368e-05
0.000216221
-7.27139e-05
0.000269767
-0.000113008
0.000330605
-0.000155634
0.000398996
-0.000200113
0.000475185
-0.000245952
0.000559417
-0.000292636
0.000651979
-0.000339621
0.000753267
-0.000386328
0.000863909
-0.000432136
0.00098498
-0.000476397
0.00111835
-0.000518442
0.00126754
-0.000557691
0.00144012
-0.000594593
-0.000634676
0.00165323
-2.82474e-09
2.68844e-05
1.33412e-06
6.21873e-05
5.09562e-06
8.2341e-05
1.21821e-05
8.97938e-05
2.33639e-05
8.65579e-05
3.93177e-05
7.42867e-05
6.06519e-05
5.43238e-05
8.79222e-05
2.77611e-05
0.00012164
-4.50304e-06
0.000162273
-4.17128e-05
0.000210249
-8.32124e-05
0.000265947
-0.000128412
0.000329701
-0.000176761
0.000401797
-0.000227731
0.000482485
-0.0002808
0.000571984
-0.000335451
0.000670517
-0.000391169
0.000778348
-0.000447452
0.000895848
-0.000503828
0.0010236
-0.000559888
0.00116253
-0.00061533
0.00131412
-0.000670027
0.00148056
-0.000724136
0.00166437
-0.000778402
-0.000832802
0.0018625
2.13233e-07
2.66712e-05
2.31495e-06
6.00856e-05
7.48123e-06
7.71747e-05
1.66906e-05
8.05845e-05
3.07848e-05
7.24637e-05
5.05064e-05
5.45651e-05
7.65231e-05
2.83071e-05
0.000109441
-5.15646e-06
0.000149808
-4.48699e-05
0.000198113
-9.00185e-05
0.000254783
-0.000139883
0.000320174
-0.000193802
0.000394566
-0.000251154
0.000478167
-0.000311331
0.000571109
-0.000373742
0.000673465
-0.000437807
0.000785263
-0.000502967
0.000906517
-0.000568706
0.00103726
-0.000634569
0.00117757
-0.000700204
0.00132764
-0.0007654
0.00148775
-0.000830133
0.00165817
-0.000894556
0.00183859
-0.000958818
-0.00101999
0.00202577
4.62887e-07
2.62083e-05
3.43487e-06
5.71136e-05
1.01865e-05
7.0423e-05
2.17765e-05
6.89945e-05
3.9118e-05
5.51221e-05
6.30164e-05
3.06667e-05
9.41902e-05
-2.86668e-06
0.00013328
-4.42466e-05
0.000180849
-9.24384e-05
0.000237372
-0.000146541
0.000303229
-0.00020574
0.000378696
-0.000269269
0.00046393
-0.000336389
0.000558975
-0.000406376
0.000663753
-0.00047852
0.000778079
-0.000552133
0.000901672
-0.000626559
0.00103417
-0.0007012
0.00117513
-0.000775537
0.00132409
-0.000849162
0.00148049
-0.000921802
0.00164369
-0.000993334
0.00181287
-0.00106373
0.00198678
-0.00113272
-0.00119637
0.00216316
7.52806e-07
2.54555e-05
4.71569e-06
5.31507e-05
1.32539e-05
6.18848e-05
2.75055e-05
5.47429e-05
4.84519e-05
3.41757e-05
7.6953e-05
2.16565e-06
0.000113764
-3.96774e-05
0.000159536
-9.00193e-05
0.000214813
-0.000147715
0.000280011
-0.00021174
0.00035541
-0.000281138
0.000441133
-0.000354992
0.000537142
-0.000432398
0.000643232
-0.000512466
0.000759034
-0.000594322
0.000884024
-0.000677123
0.00101754
-0.000760074
0.00115879
-0.000842455
0.0013069
-0.000923641
0.00146086
-0.00100312
0.00161959
-0.00108053
0.00178188
-0.00115562
0.00194636
-0.00122822
0.00211152
-0.00129789
-0.00136068
0.00227583
1.08986e-06
2.43656e-05
6.17928e-06
4.80613e-05
1.67247e-05
5.13394e-05
3.39391e-05
3.75285e-05
5.88641e-05
9.25072e-06
9.24e-05
-3.13703e-05
0.000135315
-8.25927e-05
0.00018824
-0.000142944
0.000251652
-0.000211127
0.000325854
-0.000285941
0.000410955
-0.00036624
0.000506858
-0.000450894
0.000613248
-0.000538788
0.000729599
-0.000628818
0.000855183
-0.000719907
0.00098909
-0.00081103
0.00113026
-0.000901239
0.00127749
-0.000989687
0.0014295
-0.00107565
0.00158492
-0.00115855
0.00174233
-0.00123794
0.00190024
-0.00131353
0.00205714
-0.00138511
0.00221154
-0.00145229
-0.00151164
0.0023625
1.48062e-06
2.2885e-05
7.84582e-06
4.16961e-05
2.06352e-05
3.85501e-05
4.11276e-05
1.7036e-05
7.04109e-05
-2.00325e-05
0.000109404
-7.03631e-05
0.000158856
-0.000132045
0.000219331
-0.00020342
0.000291184
-0.000282981
0.000374538
-0.000369295
0.000469259
-0.00046096
0.000574949
-0.000556585
0.000690949
-0.000654788
0.000816352
-0.00075422
0.000950031
-0.000853586
0.00109068
-0.000951678
0.00123685
-0.00104741
0.00138702
-0.00113985
0.0015396
-0.00122823
0.00169302
-0.00131196
0.00184572
-0.00139063
0.00199618
-0.001464
0.00214298
-0.00153192
0.00228488
-0.00159418
-0.00164813
0.00242137
1.93086e-06
2.09541e-05
9.73214e-06
3.38948e-05
2.50134e-05
2.32688e-05
4.91044e-05
-7.055e-06
8.31177e-05
-5.40458e-05
0.000127959
-0.000115205
0.000184316
-0.000188401
0.00025263
-0.000271733
0.000333067
-0.000363418
0.000425492
-0.00046172
0.000529452
-0.000564921
0.000644181
-0.000671313
0.000768614
-0.000779222
0.00090143
-0.000887036
0.0010411
-0.000993255
0.00118595
-0.00109653
0.00133422
-0.00119569
0.00148415
-0.00128978
0.00163401
-0.0013781
0.00178219
-0.00146014
0.00192716
-0.00153561
0.00206761
-0.00160444
0.00220237
-0.00166668
0.00233054
-0.00172235
-0.00176963
0.00245204
2.44522e-06
1.85089e-05
1.18503e-05
2.44897e-05
2.98757e-05
5.24345e-06
5.78802e-05
-3.50595e-05
9.69709e-05
-9.31365e-05
0.000147999
-0.000166233
0.000211534
-0.000251937
0.000287829
-0.000348028
0.000376784
-0.000452372
0.000477928
-0.000562864
0.000590418
-0.00067741
0.000713058
-0.000793953
0.000844349
-0.000910512
0.000982551
-0.00102524
0.00112577
-0.00113647
0.00127203
-0.00124279
0.00141939
-0.00134304
0.00156597
-0.00143637
0.00171007
-0.0015222
0.00185018
-0.00160024
0.00198502
-0.00167045
0.00211356
-0.00173299
0.00223503
-0.00178815
0.00234895
-0.00183627
-0.00187628
0.0024556
3.0269e-06
1.5482e-05
1.42066e-05
1.331e-05
3.52247e-05
-1.57747e-05
6.74391e-05
-6.72738e-05
0.000111912
-0.000137609
0.000169386
-0.000223707
0.000240248
-0.000322799
0.000324483
-0.000432263
0.000421648
-0.000549537
0.000530861
-0.000672077
0.000650827
-0.000797376
0.000779888
-0.000923015
0.000916109
-0.00104673
0.00105737
-0.0011665
0.0012015
-0.00128059
0.00134633
-0.00138762
0.00148984
-0.00148656
0.00163025
-0.00157677
0.00176599
-0.00165794
0.00189583
-0.00173009
0.00201884
-0.00179346
0.00213437
-0.00184852
0.0022421
-0.00189587
0.00234194
-0.00193611
-0.00196886
0.00243451
3.67749e-06
1.18045e-05
1.68008e-05
1.86677e-07
4.10478e-05
-4.00216e-05
7.77365e-05
-0.000103963
0.000127833
-0.000187706
0.00019191
-0.000287784
0.000270092
-0.000400981
0.000362019
-0.00052419
0.000466822
-0.00065434
0.000583145
-0.000788401
0.000709206
-0.000923436
0.000842884
-0.00105669
0.000981847
-0.0011857
0.00112368
-0.00130834
0.00126603
-0.00142294
0.0014067
-0.00152829
0.00154377
-0.00162363
0.00167564
-0.00170863
0.00180105
-0.00178336
0.00191916
-0.00184819
0.00202942
-0.00190372
0.00213162
-0.00195073
0.00222585
-0.0019901
0.00231239
-0.00202266
-0.00204857
0.00239211
4.39694e-06
7.40758e-06
1.96258e-05
-1.50422e-05
4.73158e-05
-6.77116e-05
8.8697e-05
-0.000145344
0.000144579
-0.000243587
0.000215288
-0.000358493
0.000300608
-0.000486301
0.000399747
-0.000623329
0.000511345
-0.000765938
0.000633529
-0.000910585
0.000764023
-0.00105393
0.000900282
-0.00119295
0.00103966
-0.00132507
0.00117957
-0.00144825
0.00131761
-0.00156099
0.00145171
-0.0016624
0.00158019
-0.0017521
0.00170176
-0.00183021
0.00181559
-0.00189719
0.00192123
-0.00195382
0.00201857
-0.00200106
0.00210781
-0.00203997
0.00218935
-0.00207164
0.0022638
-0.00209711
-0.00211693
0.00233215
5.18343e-06
2.22415e-06
2.26673e-05
-3.25261e-05
5.39831e-05
-9.90274e-05
0.000100215
-0.000191575
0.000161945
-0.000305317
0.000239171
-0.000435719
0.000331251
-0.000578382
0.00043689
-0.000728967
0.000554182
-0.00088323
0.000680727
-0.00103713
0.000813786
-0.00118699
0.000950469
-0.00132964
0.00108793
-0.00146254
0.00122356
-0.00158387
0.00135507
-0.0016925
0.00148065
-0.00178798
0.00159897
-0.00187042
0.00170917
-0.00194041
0.00181084
-0.00199887
0.00190397
-0.00204695
0.00198884
-0.00208593
0.00206596
-0.00211709
0.00213602
-0.00214169
0.00219979
-0.00216088
-0.00217548
0.00225834
6.03339e-06
-3.80924e-06
2.59038e-05
-5.23965e-05
6.09874e-05
-0.000134111
0.000112155
-0.000242743
0.000179681
-0.000372843
0.000263151
-0.00051919
0.000361416
-0.000676647
0.000472615
-0.000840166
0.000594276
-0.00100489
0.000723493
-0.00116635
0.000857136
-0.00132063
0.000992088
-0.00146459
0.00112545
-0.00159591
0.00125473
-0.00171315
0.00137792
-0.00181569
0.00149356
-0.00190363
0.00160078
-0.00197763
0.00169915
-0.00203878
0.00178872
-0.00208843
0.00186984
-0.00212807
0.00194311
-0.0021592
0.00200929
-0.00218327
0.00206923
-0.00220163
0.0021238
-0.00221546
-0.00222571
0.00217403
6.94142e-06
-1.07507e-05
2.93065e-05
-7.47616e-05
6.82501e-05
-0.000173055
0.000124354
-0.000298847
0.0001975
-0.00044599
0.000286776
-0.000608465
0.000390455
-0.000780325
0.000506074
-0.000955784
0.000630605
-0.00112942
0.000760695
-0.00129644
0.000892937
-0.00145287
0.00102413
-0.00159578
0.00115147
-0.00172325
0.00127273
-0.0018344
0.00138628
-0.00192925
0.00149115
-0.00200849
0.00158688
-0.00207337
0.00167354
-0.00212544
0.00175152
-0.00216642
0.00182151
-0.00219806
0.00188432
-0.00222202
0.00194087
-0.00223982
0.00199208
-0.00225283
0.00203883
-0.00226221
-0.00226896
0.00208208
7.90025e-06
-1.86509e-05
3.28394e-05
-9.97007e-05
7.56776e-05
-0.000215893
0.000136625
-0.000359794
0.000215083
-0.000524448
0.000309562
-0.000702945
0.000417707
-0.00088847
0.000536445
-0.00107452
0.000662238
-0.00125522
0.000791386
-0.00142559
0.00092034
-0.00158183
0.00104596
-0.0017214
0.00116571
-0.00184299
0.00127772
-0.00194642
0.00138086
-0.00203238
0.00147461
-0.00210224
0.00155899
-0.00215775
0.00163444
-0.00220089
0.00170169
-0.00223367
0.00176163
-0.002258
0.00181523
-0.00227561
0.00186345
-0.00228805
0.00190721
-0.0022966
0.00194737
-0.00230236
-0.00230633
0.00198474
8.90073e-06
-2.75516e-05
3.64598e-05
-0.00012726
8.31624e-05
-0.000262595
0.000148759
-0.000425391
0.000232089
-0.000607777
0.000331017
-0.000801873
0.000442531
-0.000999985
0.000562978
-0.00119497
0.000688389
-0.00138063
0.000814849
-0.00155205
0.000938816
-0.00170579
0.00105737
-0.00183995
0.00116834
-0.00195397
0.00127036
-0.00204843
0.00136275
-0.00212478
0.00144549
-0.00218498
0.00151901
-0.00223126
0.00158407
-0.00226594
0.00164161
-0.00229121
0.00169266
-0.00230905
0.00173825
-0.00232121
0.00177934
-0.00232914
0.0018168
-0.00233405
0.00185138
-0.00233694
-0.00233874
0.00188379
9.93179e-06
-3.74834e-05
4.01186e-05
-0.000157447
9.05854e-05
-0.000313062
0.000160537
-0.000495342
0.000248168
-0.000695409
0.000350655
-0.00090436
0.000464334
-0.00111366
0.000585027
-0.00131566
0.000708453
-0.00150405
0.000830627
-0.00167422
0.000948168
-0.00182334
0.00105851
-0.00195029
0.00115994
-0.0020554
0.0012516
-0.00214009
0.00133333
-0.00220651
0.00140551
-0.00225716
0.00146891
-0.00229467
0.00152453
-0.00232156
0.00157344
-0.00234012
0.00161674
-0.00235235
0.00165544
-0.0023599
0.00169044
-0.00236413
0.00172252
-0.00236613
0.00175235
-0.00236678
-0.00236689
0.0017805
1.09806e-05
-4.8464e-05
4.37612e-05
-0.000190227
9.78192e-05
-0.00036712
0.000171728
-0.000569251
0.000262976
-0.000786657
0.000368027
-0.00100941
0.000482597
-0.00122823
0.000602084
-0.00143515
0.00072203
-0.001624
0.00083853
-0.00179072
0.000948508
-0.00193331
0.00104984
-0.00205162
0.00114135
-0.00214691
0.00122268
-0.00222142
0.00129411
-0.00227794
0.00135641
-0.00231945
0.00141057
-0.00234883
0.00145775
-0.00236874
0.00149909
-0.00238146
0.00153566
-0.00238892
0.00156843
-0.00239267
0.00159821
-0.00239391
0.00162568
-0.0023936
0.00165139
-0.00239249
-0.0023913
0.0016758
1.20327e-05
-6.04967e-05
4.73288e-05
-0.000225523
0.000104731
-0.000424523
0.000182105
-0.000646625
0.000276186
-0.000880738
0.00038273
-0.00111595
0.000496905
-0.00134241
0.000613801
-0.00155204
0.000728932
-0.00173913
0.000838622
-0.00190041
0.00094021
-0.0020349
0.00103209
-0.0021435
0.00111361
-0.00222844
0.0011849
-0.00229271
0.00124664
-0.00233968
0.00129984
-0.00237265
0.0013457
-0.00239469
0.00138542
-0.00240846
0.00142014
-0.00241619
0.00145088
-0.00241967
0.00147852
-0.00242031
0.00150377
-0.00241916
0.00152721
-0.00241704
0.00154929
-0.00241457
-0.00241236
0.00157035
1.30722e-05
-7.35689e-05
5.07598e-05
-0.000263211
0.000111188
-0.000484951
0.000191449
-0.000726886
0.000287502
-0.00097679
0.000394432
-0.00122288
0.000506953
-0.00145493
0.000619988
-0.00166508
0.000729173
-0.00184832
0.000831185
-0.00200242
0.000923859
-0.00212758
0.00100614
-0.00222578
0.00107788
-0.00230018
0.00113963
-0.00235446
0.00119238
-0.00239243
0.00123734
-0.00241761
0.00127579
-0.00243313
0.00130894
-0.0024416
0.00133788
-0.00244513
0.00136354
-0.00244533
0.00138669
-0.00244346
0.00140795
-0.00244042
0.0014278
-0.00243688
0.00144659
-0.00243337
-0.00243036
0.00146459
1.40825e-05
-8.76514e-05
5.39917e-05
-0.00030312
0.00011706
-0.000548019
0.000199558
-0.000809384
0.000296671
-0.0010739
0.000402878
-0.00132909
0.00051256
-0.00156461
0.000620619
-0.00177314
0.000722949
-0.00195065
0.000816678
-0.00209615
0.000900189
-0.00221109
0.000972958
-0.00229855
0.00103531
-0.00236253
0.00108815
-0.0024073
0.00113268
-0.00243696
0.00117023
-0.00245516
0.0012021
-0.002465
0.00122947
-0.00246897
0.00125333
-0.00246899
0.00127451
-0.00246652
0.00129369
-0.00246264
0.00131137
-0.0024581
0.00132794
-0.00245346
0.0013437
-0.00244912
-0.00244548
0.00135882
1.50461e-05
-0.000102698
5.69628e-05
-0.000345037
0.000122225
-0.000613282
0.000206255
-0.000893414
0.000303492
-0.00117114
0.000407902
-0.0014335
0.000513667
-0.00167038
0.000615811
-0.00187528
0.000710602
-0.00204544
0.000795691
-0.00218124
0.000870017
-0.00228541
0.000933563
-0.00236209
0.000987054
-0.00241602
0.00103166
-0.0024519
0.00106873
-0.00247404
0.00109966
-0.00248609
0.00112569
-0.00249104
0.00114793
-0.00249121
0.00116729
-0.00248834
0.00118448
-0.00248371
0.00120006
-0.00247822
0.00121446
-0.0024725
0.00122799
-0.00246699