/*--------------------------------*- C++ -*----------------------------------*\
  =========                 |
  \\      /  F ield         | OpenFOAM: The Open Source CFD Toolbox
   \\    /   O peration     | Website:  https://openfoam.org
    \\  /    A nd           | Version:  6.0
     \\/     M anipulation  |
\*---------------------------------------------------------------------------*/
FoamFile
{
    version     2.0;
    format      ascii;
    class       volVectorField;
    location    "44";
    object      U;
}
// * * * * * * * * * * * * * * * * * * * * * * * * * * * * * * * * * * * * * //

dimensions      [0 1 -1 0 0 0 0];

internalField   nonuniform List<vector> 
12500
(
(-0.000259037 0.000666766 -5.37006e-22)
(-0.00150537 0.0019483 7.4e-21)
(-0.00390827 0.00315069 -1.07161e-20)
(-0.00698072 0.00425988 4.9133e-21)
(-0.0104551 0.00526726 2.94483e-22)
(-0.0141634 0.006171 -6.04674e-22)
(-0.0179711 0.00697484 -8.90635e-21)
(-0.0217783 0.00768628 4.88369e-21)
(-0.0255151 0.00831519 3.22384e-21)
(-0.0291356 0.00887275 3.2703e-21)
(-0.0326128 0.00937057 -5.52679e-21)
(-0.0359348 0.00982012 3.21084e-21)
(-0.0391013 0.0102323 -1.50973e-21)
(-0.0421215 0.010617 2.55614e-21)
(-0.0450111 0.0109833 -6.51076e-21)
(-0.0477909 0.0113391 9.39656e-21)
(-0.0504855 0.0116912 -1.79024e-21)
(-0.0531209 0.0120456 -6.62547e-21)
(-0.0557243 0.0124072 3.38768e-21)
(-0.0583224 0.0127801 -3.22837e-21)
(-0.0609455 0.0131679 2.88583e-21)
(-0.0636231 0.0135732 3.81011e-21)
(-0.0663421 0.0139991 3.85223e-22)
(-0.069031 0.0144486 -1.08737e-20)
(-0.0719834 0.0149192 5.73258e-21)
(-0.000305766 0.00127609 9.79019e-21)
(-0.00162388 0.00353182 -2.52583e-20)
(-0.00407162 0.00548121 7.43942e-21)
(-0.00716835 0.00714855 4.96349e-21)
(-0.01065 0.00855664 -3.95201e-21)
(-0.0143508 0.00973109 -2.24193e-20)
(-0.0181386 0.0107007 6.65742e-21)
(-0.021915 0.0114953 -1.25507e-20)
(-0.0256117 0.0121447 1.4996e-20)
(-0.0291839 0.0126776 -1.99917e-20)
(-0.0326055 0.0131209 1.06586e-20)
(-0.0358652 0.0134996 3.43668e-21)
(-0.0389634 0.0138362 -8.65104e-21)
(-0.0419095 0.0141507 -3.81757e-21)
(-0.0447196 0.0144607 2.78967e-20)
(-0.047415 0.0147811 -2.46422e-20)
(-0.0500201 0.0151245 5.88492e-21)
(-0.0525617 0.0155012 1.01656e-20)
(-0.055067 0.0159192 -2.32069e-21)
(-0.0575633 0.0163847 1.63363e-20)
(-0.060081 0.0169016 2.96432e-21)
(-0.0626506 0.0174722 -1.05956e-21)
(-0.0652593 0.0180991 -2.05296e-20)
(-0.0678355 0.0187864 1.88664e-20)
(-0.0706719 0.0195211 -3.59448e-20)
(-0.000390608 0.00187458 3.1391e-20)
(-0.00184211 0.00508706 1.04263e-20)
(-0.00438256 0.00776954 -1.36473e-20)
(-0.00753874 0.00998363 5.85241e-21)
(-0.0110512 0.011783 5.47694e-21)
(-0.0147576 0.0132201 2.07514e-20)
(-0.0185291 0.0143484 -2.63204e-20)
(-0.02227 0.0152198 -4.26903e-21)
(-0.0259141 0.0158836 -1.75718e-20)
(-0.0294185 0.0163856 -1.465e-20)
(-0.0327586 0.0167681 1.88976e-20)
(-0.0359242 0.0170692 -6.31451e-20)
(-0.0389167 0.0173229 -1.96367e-21)
(-0.0417463 0.0175595 -3.77785e-20)
(-0.0444299 0.0178048 -4.43789e-21)
(-0.0469893 0.0180812 5.35516e-21)
(-0.0494499 0.018407 -2.91933e-20)
(-0.0518391 0.0187971 -1.82357e-20)
(-0.0541852 0.019263 -2.1564e-20)
(-0.0565165 0.0198127 3.37478e-20)
(-0.0588646 0.0204512 1.23187e-20)
(-0.0612611 0.0211804 -5.46735e-20)
(-0.0636947 0.0220028 -2.62977e-20)
(-0.0660934 0.0229235 -2.93479e-20)
(-0.0687499 0.0239194 7.9101e-20)
(-0.000512832 0.00246081 -9.871e-22)
(-0.00215835 0.00660959 -2.4108e-20)
(-0.0048389 0.0100079 -1.15453e-20)
(-0.00808953 0.0127541 7.15369e-21)
(-0.0116564 0.0149318 4.45285e-20)
(-0.0153819 0.0166202 -2.00661e-20)
(-0.0191412 0.0178968 4.27205e-20)
(-0.0228423 0.018835 4.06275e-20)
(-0.026422 0.0195034 2.47022e-20)
(-0.0298401 0.0199646 -3.73865e-22)
(-0.0330738 0.0202756 4.96612e-20)
(-0.0361147 0.0204878 8.58234e-21)
(-0.0389654 0.0206467 3.77867e-20)
(-0.0416374 0.0207924 8.6727e-20)
(-0.0441486 0.0209596 -1.00478e-19)
(-0.046522 0.021178 1.50864e-19)
(-0.0487841 0.0214721 3.27641e-20)
(-0.0509637 0.0218618 -7.22032e-20)
(-0.0530904 0.0223623 -1.02324e-20)
(-0.0551944 0.0229842 2.61995e-20)
(-0.0573092 0.0237338 -1.30985e-20)
(-0.0594685 0.024613 -7.8143e-21)
(-0.061663 0.0256242 -7.61555e-21)
(-0.0638201 0.0267744 -3.06647e-20)
(-0.0662341 0.02803 1.07426e-19)
(-0.000671734 0.0030337 1.63399e-20)
(-0.00257083 0.00809562 -7.5883e-20)
(-0.00543821 0.0121896 9.19516e-20)
(-0.00881787 0.0154499 -3.65754e-20)
(-0.0124626 0.01799 4.37351e-20)
(-0.0162205 0.0199151 3.56395e-20)
(-0.0199719 0.0213263 1.35155e-20)
(-0.0236293 0.0223182 6.46341e-22)
(-0.0271337 0.0229779 7.59269e-20)
(-0.0304477 0.0233846 5.2481e-20)
(-0.0335514 0.0236097 -2.10334e-20)
(-0.0364382 0.0237175 -1.35191e-20)
(-0.0391127 0.0237648 5.69619e-20)
(-0.0415875 0.0238019 1.07206e-20)
(-0.0438821 0.0238722 2.90268e-20)
(-0.0460208 0.0240133 6.94481e-20)
(-0.0480318 0.0242562 -5.99513e-20)
(-0.0499457 0.0246265 4.8351e-20)
(-0.0517941 0.0251435 -1.04055e-19)
(-0.0536095 0.0258214 8.73434e-20)
(-0.055428 0.026668 5.56449e-22)
(-0.0572866 0.0276859 -6.94622e-20)
(-0.0591788 0.0288782 2.79619e-20)
(-0.0610312 0.0302539 6.33918e-20)
(-0.0631417 0.031769 -9.3221e-20)
(-0.000866666 0.0035925 8.44901e-20)
(-0.00307774 0.00954207 -8.96796e-20)
(-0.00617776 0.0143087 -1.44352e-20)
(-0.00972025 0.0180622 1.81662e-20)
(-0.0134656 0.0209458 -3.92326e-20)
(-0.0172687 0.0230901 -6.1136e-20)
(-0.0210163 0.0246195 -5.0782e-20)
(-0.0246266 0.025649 -1.22331e-20)
(-0.028045 0.0262839 -8.72885e-20)
(-0.0312381 0.0266192 6.94223e-20)
(-0.034189 0.0267405 -1.07786e-19)
(-0.0368939 0.0267245 5.44276e-20)
(-0.0393589 0.0266393 -1.80715e-20)
(-0.0415988 0.0265452 4.17826e-20)
(-0.0436343 0.0264948 -1.04971e-19)
(-0.0454916 0.0265337 5.07955e-20)
(-0.0472005 0.0267004 3.76624e-21)
(-0.0487939 0.0270264 2.25129e-20)
(-0.0503061 0.0275366 1.35833e-19)
(-0.0517725 0.0282491 3.00298e-20)
(-0.0532327 0.0291747 -2.76429e-21)
(-0.0547277 0.0303171 8.56353e-21)
(-0.0562549 0.0316808 5.64301e-20)
(-0.0577406 0.0332779 1.60483e-20)
(-0.0594881 0.0350536 5.26285e-20)
(-0.00109705 0.00413669 -5.26469e-20)
(-0.00367722 0.0109464 7.47214e-20)
(-0.0070544 0.0163601 4.67562e-21)
(-0.0107922 0.0205834 -9.11208e-20)
(-0.0146598 0.0237888 1.91462e-19)
(-0.01852 0.0261324 -6.18811e-20)
(-0.0222672 0.0277611 9.02601e-20)
(-0.0258262 0.02881 8.25456e-20)
(-0.029148 0.0294015 -6.82759e-20)
(-0.0322037 0.029646 -9.92997e-20)
(-0.0349801 0.0296428 2.71645e-20)
(-0.0374761 0.0294804 -2.86223e-20)
(-0.0397003 0.029238 -1.26537e-19)
(-0.041669 0.0289859 1.5359e-19)
(-0.0434048 0.0287861 -7.36105e-20)
(-0.0449356 0.0286927 -5.07289e-20)
(-0.0462933 0.0287521 4.45735e-22)
(-0.0475132 0.0290032 4.13563e-20)
(-0.0486325 0.0294771 1.70487e-20)
(-0.0496903 0.0301973 -6.67618e-20)
(-0.0507306 0.0311787 7.61029e-20)
(-0.0517997 0.0324273 -1.32214e-19)
(-0.0528996 0.0339504 8.06721e-20)
(-0.0539574 0.0357638 -6.17458e-20)
(-0.0552843 0.0378024 1.61784e-20)
(-0.0013624 0.00466596 7.65436e-20)
(-0.00436727 0.0123064 -5.88544e-20)
(-0.00806432 0.0183393 -3.74329e-20)
(-0.012028 0.0230064 -6.60567e-20)
(-0.0160373 0.0265098 -1.20742e-19)
(-0.0199648 0.0290308 -8.91876e-20)
(-0.0237135 0.0307383 5.55454e-20)
(-0.0272159 0.0317865 -8.40978e-20)
(-0.0304298 0.0323147 1.06706e-19)
(-0.0333314 0.0324476 -1.7359e-19)
(-0.0359117 0.0322971 7.70688e-20)
(-0.0381728 0.0319635 1.62696e-19)
(-0.0401257 0.0315365 -2.28484e-19)
(-0.0417885 0.0310961 3.26057e-20)
(-0.0431858 0.0307138 4.2387e-20)
(-0.0443469 0.0304527 4.09749e-20)
(-0.0453058 0.030368 -4.40444e-20)
(-0.0461004 0.0305069 -1.08483e-20)
(-0.0467714 0.0309083 -3.22614e-20)
(-0.0473619 0.0316027 -2.69167e-20)
(-0.0479212 0.0326106 -1.47499e-19)
(-0.0485021 0.0339424 -9.93619e-21)
(-0.0491127 0.0356089 1.59603e-21)
(-0.0496818 0.0376324 -6.65979e-20)
(-0.0505322 0.0399367 6.8413e-20)
(-0.00166226 0.00518003 2.19675e-21)
(-0.00514563 0.01362 2.40657e-20)
(-0.00920278 0.0202419 2.50439e-20)
(-0.01342 0.0253247 1.45503e-20)
(-0.0175879 0.0291006 1.2285e-19)
(-0.0215898 0.0317756 1.1532e-19)
(-0.0253392 0.0335404 -9.37214e-20)
(-0.0287777 0.0345675 -2.84902e-20)
(-0.0318704 0.0350118 -2.53038e-20)
(-0.0346 0.0350117 1.30521e-19)
(-0.036962 0.0346909 4.68065e-20)
(-0.0389619 0.0341603 -6.81718e-20)
(-0.0406134 0.0335194 -5.76395e-20)
(-0.0419367 0.0328579 1.38848e-19)
(-0.0429577 0.0322566 -3.4226e-20)
(-0.0437073 0.0317881 -4.14552e-20)
(-0.0442214 0.031517 -5.78257e-20)
(-0.0445405 0.0315 -4.49783e-20)
(-0.0447087 0.0317855 -5.73656e-20)
(-0.0447738 0.032413 -3.74907e-20)
(-0.0447911 0.0334108 1.55741e-19)
(-0.0448212 0.0347958 -7.66409e-20)
(-0.0448799 0.0365854 5.15828e-20)
(-0.0448997 0.0388099 -1.37071e-19)
(-0.0452191 0.0413829 5.52369e-20)
(-0.00199615 0.00567851 -6.86945e-20)
(-0.00600961 0.0148849 -1.78744e-20)
(-0.0104638 0.0220635 -1.39697e-19)
(-0.0149584 0.0275321 -6.68981e-20)
(-0.0192973 0.0315535 -1.32043e-19)
(-0.0233768 0.0343585 -1.37597e-20)
(-0.0271223 0.0361588 7.07209e-20)
(-0.0304857 0.0371447 -4.30441e-20)
(-0.033441 0.0374855 9.27572e-20)
(-0.0359777 0.037332 -2.25283e-19)
(-0.0380969 0.0368187 -6.50288e-21)
(-0.039808 0.036066 3.98951e-20)
(-0.0411274 0.0351824 -5.05926e-20)
(-0.0420771 0.0342665 4.59943e-20)
(-0.0426844 0.033408 -3.51492e-20)
(-0.0429814 0.032689 -7.526e-20)
(-0.0430057 0.0321844 1.37224e-19)
(-0.0427998 0.0319617 8.50466e-20)
(-0.0424112 0.0320804 -1.76307e-20)
(-0.0418929 0.0325914 5.60417e-20)
(-0.0413068 0.033534 -1.10559e-19)
(-0.0407227 0.0349344 1.59248e-19)
(-0.0401659 0.0368196 -2.17432e-19)
(-0.0395747 0.0392321 4.47724e-20)
(-0.0393097 0.0420759 -8.46716e-20)
(-0.00236352 0.00616074 3.72084e-21)
(-0.00695575 0.0160981 -6.10481e-20)
(-0.0118396 0.0237988 9.04577e-20)
(-0.0166303 0.0296217 1.85407e-19)
(-0.0211473 0.0338607 -3.03452e-21)
(-0.0253019 0.0367716 2.09816e-20)
(-0.0290329 0.0385865 -7.92305e-20)
(-0.0323046 0.0395125 3.71181e-20)
(-0.0351009 0.0397324 2.55535e-19)
(-0.0374193 0.039408 -5.79764e-20)
(-0.0392671 0.0386831 -6.83978e-20)
(-0.0406582 0.0376862 2.58459e-19)
(-0.0416118 0.0365337 8.4314e-20)
(-0.0421519 0.0353317 4.01126e-20)
(-0.0423068 0.0341784 4.10298e-20)
(-0.0421095 0.0331651 1.11818e-19)
(-0.0415984 0.0323772 -4.29509e-20)
(-0.0408179 0.0318939 1.13441e-19)
(-0.0398185 0.031788 1.53447e-19)
(-0.0386579 0.0321243 -1.30849e-19)
(-0.0374058 0.0329566 1.94299e-19)
(-0.0361421 0.0343244 6.92283e-20)
(-0.0349039 0.0362694 -2.62763e-19)
(-0.0336384 0.0388509 3.7982e-19)
(-0.0327357 0.0419654 -3.07123e-19)
(-0.00276354 0.00662554 -1.74737e-19)
(-0.00797959 0.0172557 9.52556e-20)
(-0.0133202 0.0254418 -6.38922e-20)
(-0.0184192 0.0315857 -6.06925e-20)
(-0.0231143 0.0360139 -6.54475e-20)
(-0.0273336 0.039007 -7.09939e-20)
(-0.0310322 0.0408173 1.95008e-20)
(-0.0341877 0.0416675 1.84986e-19)
(-0.0367957 0.0417529 -3.96528e-20)
(-0.0388631 0.0412446 -1.03134e-19)
(-0.0404039 0.0402943 -6.29328e-20)
(-0.0414372 0.0390369 -2.57493e-20)
(-0.0419857 0.0375948 7.60295e-20)
(-0.0420753 0.0360804 -4.85948e-20)
(-0.0417352 0.0345989 -1.58468e-19)
(-0.0409987 0.03325 -1.74739e-19)
(-0.0399045 0.0321291 6.96429e-20)
(-0.0384978 0.0313281 -1.29568e-19)
(-0.0368317 0.0309344 1.12382e-19)
(-0.0349683 0.0310299 -3.17396e-19)
(-0.0329849 0.0316864 2.43713e-19)
(-0.0309734 0.0329625 -3.2214e-19)
(-0.0289842 0.0349203 -5.98239e-21)
(-0.0269774 0.0376433 -1.08308e-19)
(-0.0253825 0.041024 3.17591e-19)
(-0.00319502 0.00707114 2.68066e-19)
(-0.00907525 0.0183523 3.92683e-20)
(-0.0148929 0.0269843 -2.579e-20)
(-0.0203044 0.0334147 -1.08936e-20)
(-0.0251684 0.0380034 2.02443e-19)
(-0.0294328 0.0410561 6.57995e-20)
(-0.0330706 0.0428449 5.96282e-20)
(-0.0360751 0.0436073 -4.7949e-20)
(-0.0384549 0.0435496 1.8481e-19)
(-0.0402275 0.0428512 -9.08593e-20)
(-0.0414151 0.0416694 5.86372e-20)
(-0.0420428 0.040144 1.48964e-19)
(-0.0421373 0.0384011 -8.44657e-20)
(-0.0417266 0.0365575 9.13778e-20)
(-0.0408408 0.0347232 8.62601e-20)
(-0.0395133 0.0330047 2.95237e-20)
(-0.0377824 0.0315067 -7.26583e-20)
(-0.0356934 0.030333 2.00903e-19)
(-0.0333005 0.029587 -1.8694e-20)
(-0.0306697 0.0293698 -2.14942e-20)
(-0.0278857 0.0297759 2.40209e-19)
(-0.025053 0.0308888 -1.7076e-19)
(-0.0222378 0.0327992 2.87525e-19)
(-0.019417 0.035625 -2.38273e-19)
(-0.0170724 0.0392606 3.06073e-19)
(-0.00365621 0.00749496 -1.29425e-19)
(-0.0102351 0.0193809 2.86565e-20)
(-0.0165419 0.0284164 -2.98688e-20)
(-0.0222602 0.0350971 -1.41463e-19)
(-0.0272731 0.0398172 8.21094e-21)
(-0.031551 0.0429083 8.04514e-20)
(-0.0350869 0.0446617 -3.27235e-19)
(-0.037892 0.045329 2.44163e-19)
(-0.0399894 0.0451265 -2.37636e-19)
(-0.0414088 0.04424 -1.49823e-19)
(-0.0421818 0.0428311 1.34275e-19)
(-0.0423407 0.0410421 -2.90413e-19)
(-0.041917 0.0390009 2.44507e-19)
(-0.0409418 0.0368256 -7.77583e-20)
(-0.0394463 0.0346289 -2.21885e-19)
(-0.0374639 0.0325213 5.47956e-20)
(-0.0350321 0.0306142 -5.14512e-20)
(-0.0321951 0.0290223 1.93512e-20)
(-0.0290075 0.0278643 -6.92707e-20)
(-0.0255375 0.0272624 -2.29527e-19)
(-0.0218767 0.0273375 5.14284e-20)
(-0.0181424 0.0282046 -1.13222e-22)
(-0.0144183 0.0299932 -2.36144e-19)
(-0.0107022 0.0328693 1.65864e-19)
(-0.00754492 0.0367382 -1.43221e-19)
(-0.00414463 0.00789361 5.23736e-20)
(-0.0114493 0.0203326 9.63983e-20)
(-0.0182476 0.0297257 1.34882e-19)
(-0.0242556 0.0366185 6.93419e-20)
(-0.0293845 0.0414409 -6.7996e-20)
(-0.0336298 0.0445505 1.62164e-19)
(-0.0370073 0.0462577 1.19949e-19)
(-0.0395474 0.0468279 -4.36984e-20)
(-0.04129 0.046486 1.55831e-19)
(-0.0422783 0.0454235 -1.60264e-19)
(-0.0425549 0.0438044 -4.6991e-20)
(-0.0421605 0.0417715 4.76766e-20)
(-0.041133 0.039452 9.43471e-20)
(-0.0395073 0.036963 1.14364e-21)
(-0.0373171 0.034416 5.96328e-20)
(-0.0345961 0.0319222 1.10057e-19)
(-0.0313809 0.0295963 -1.87321e-19)
(-0.0277147 0.0275604 2.32744e-19)
(-0.0236505 0.0259463 7.84168e-20)
(-0.0192578 0.0248969 2.75958e-20)
(-0.0146334 0.024562 -2.81877e-19)
(-0.00990686 0.0250941 3.98876e-20)
(-0.00518024 0.0266733 6.18294e-20)
(-0.000475626 0.0295312 -1.48085e-20)
(0.0035667 0.0335983 7.0359e-20)
(-0.00465698 0.0082629 4.0774e-21)
(-0.0127059 0.0211969 -2.48294e-19)
(-0.0199866 0.0308975 -6.21216e-21)
(-0.0262538 0.0379617 -6.25889e-20)
(-0.0314508 0.0428564 -4.1116e-19)
(-0.0356008 0.0459657 3.54887e-19)
(-0.0387445 0.0476192 -2.52447e-19)
(-0.0409337 0.0480954 -1.27254e-20)
(-0.0422265 0.0476277 -1.19146e-19)
(-0.0426812 0.0464119 2.05915e-19)
(-0.042353 0.0446133 -2.21547e-19)
(-0.0412927 0.0423739 -1.03669e-19)
(-0.039546 0.0398179 2.15904e-21)
(-0.0371537 0.0370583 -2.24018e-19)
(-0.0341533 0.0342023 3.05551e-19)
(-0.0305803 0.0313575 -3.53798e-19)
(-0.0264718 0.0286369 7.26118e-22)
(-0.0218696 0.0261645 5.41665e-20)
(-0.0168253 0.0240807 -1.35434e-19)
(-0.0114077 0.0225453 1.31304e-19)
(-0.00571675 0.0217364 -1.86259e-19)
(0.000106792 0.0218481 -1.2296e-19)
(0.00594359 0.0231222 2.29019e-19)
(0.0117456 0.0258783 -2.49772e-19)
(0.0167593 0.0300918 -4.75018e-21)
(-0.005189 0.00859794 -2.10127e-19)
(-0.0139901 0.0219615 2.41056e-19)
(-0.0217314 0.0319145 -7.43903e-20)
(-0.0282125 0.0391067 1.43134e-19)
(-0.0334125 0.0440424 1.54312e-19)
(-0.0373852 0.047133 -1.35891e-19)
(-0.0401981 0.0487276 -9.00072e-20)
(-0.0419263 0.0491178 -1.07745e-19)
(-0.0426474 0.0485451 9.86302e-20)
(-0.0424363 0.0472092 -6.59893e-21)
(-0.0413622 0.0452765 1.43628e-19)
(-0.0394876 0.0428867 1.41494e-19)
(-0.0368681 0.0401599 -1.68901e-19)
(-0.0335526 0.0372026 3.31521e-19)
(-0.0295849 0.0341148 -2.19737e-19)
(-0.0250052 0.0309957 -3.76034e-20)
(-0.0198529 0.027951 4.27553e-19)
(-0.0141706 0.0250997 -1.97947e-19)
(-0.00800915 0.0225824 1.26008e-19)
(-0.00143593 0.0205684 2.46011e-19)
(0.00544743 0.0192581 -1.59592e-19)
(0.012492 0.0188861 1.68316e-20)
(0.0195639 0.0197647 -1.09614e-20)
(0.026592 0.0223255 -6.52787e-20)
(0.0326835 0.0266161 1.22999e-19)
(-0.00573548 0.00889337 4.80047e-20)
(-0.0152845 0.0226128 -1.52723e-19)
(-0.02345 0.0327576 8.34565e-20)
(-0.030083 0.0400304 -1.03491e-21)
(-0.0352019 0.0449739 6.28042e-20)
(-0.0388938 0.0480272 -1.0802e-19)
(-0.0412546 0.0495592 6.17893e-20)
(-0.0423842 0.049875 1.68196e-19)
(-0.0423807 0.0492242 -5.09995e-21)
(-0.0413367 0.047811 -8.57968e-20)
(-0.0393366 0.0458027 8.62044e-20)
(-0.0364564 0.0433369 -2.0235e-21)
(-0.0327634 0.0405291 -2.72808e-19)
(-0.0283174 0.0374787 1.01134e-19)
(-0.0231717 0.034276 2.23272e-20)
(-0.0173749 0.0310085 -3.92318e-20)
(-0.0109732 0.0277687 -6.99745e-20)
(-0.00401395 0.0246628 2.68224e-19)
(0.00344983 0.0218211 6.53302e-20)
(0.0113504 0.0194095 -1.4004e-19)
(0.0195855 0.0176381 -1.68152e-20)
(0.0280005 0.016772 1.92612e-19)
(0.0364529 0.0171941 -8.99429e-20)
(0.0448586 0.0194715 3.86065e-20)
(0.0521614 0.0237556 2.60626e-20)
(-0.00629029 0.00914359 -9.61176e-20)
(-0.0165693 0.0231367 9.55526e-20)
(-0.0251066 0.0334066 -5.38397e-20)
(-0.0318109 0.0407084 -1.72794e-19)
(-0.0367438 0.0456235 -1.59037e-19)
(-0.0400274 0.0486195 -7.03373e-20)
(-0.041788 0.0500856 -5.82438e-20)
(-0.0421507 0.0503404 -1.72204e-19)
(-0.0412351 0.0496428 -6.95329e-20)
(-0.039152 0.048202 6.33638e-20)
(-0.0360018 0.0461872 -9.0427e-20)
(-0.031875 0.0437353 -9.54138e-20)
(-0.0268528 0.0409581 -8.94666e-20)
(-0.0210085 0.0379488 1.62334e-19)
(-0.0144087 0.0347878 -3.409e-19)
(-0.00711531 0.0315495 1.94508e-19)
(0.000812707 0.0283096 -3.32561e-19)
(0.00931658 0.0251542 -5.12091e-20)
(0.0183342 0.0221918 -1.82438e-19)
(0.0277922 0.019569 -4.25702e-20)
(0.0375853 0.0174843 -5.19379e-20)
(0.0475542 0.0162109 -1.73382e-19)
(0.0575554 0.0161868 -1.89634e-20)
(0.0675136 0.0181285 1.06031e-19)
(0.0761956 0.0223231 -2.75736e-19)
(-0.00684645 0.00934312 8.24358e-20)
(-0.017822 0.0235189 1.0782e-19)
(-0.026661 0.0338407 3.77613e-19)
(-0.0333358 0.0411151 -6.62749e-20)
(-0.0379549 0.0459623 1.57707e-19)
(-0.040677 0.0488789 3.75534e-19)
(-0.0416599 0.0502746 -1.02318e-19)
(-0.0410544 0.0504825 1.38415e-19)
(-0.0390017 0.0497712 8.06933e-20)
(-0.0356308 0.0483564 1.46159e-19)
(-0.0310584 0.0464111 -2.9238e-20)
(-0.0253899 0.0440735 1.97778e-20)
(-0.0187219 0.0414546 -5.10291e-20)
(-0.0111434 0.0386438 2.76247e-19)
(-0.00273818 0.0357147 3.53573e-20)
(0.00641303 0.0327305 2.55841e-19)
(0.016231 0.0297502 -6.53683e-20)
(0.0266361 0.0268365 2.33709e-19)
(0.0375461 0.0240676 3.27484e-20)
(0.048871 0.0215539 1.18644e-19)
(0.0604935 0.0194563 -5.11676e-20)
(0.0722454 0.0180187 -9.06618e-21)
(0.0839887 0.0176953 2.81742e-19)
(0.0956931 0.0193413 1.73189e-19)
(0.105962 0.0233983 -7.22095e-20)
(-0.00739622 0.00948684 -1.99786e-19)
(-0.0190174 0.0237457 -2.02513e-19)
(-0.0280685 0.0340399 -2.11639e-19)
(-0.0345913 0.0412255 7.75365e-20)
(-0.0387438 0.0459618 -1.55669e-19)
(-0.0407234 0.0487743 -2.31842e-20)
(-0.0407198 0.0500936 -6.11044e-20)
(-0.0389098 0.0502676 -2.53235e-19)
(-0.0354556 0.0495757 -3.94783e-20)
(-0.0305038 0.0482415 6.48702e-20)
(-0.0241868 0.0464439 -2.03345e-19)
(-0.0166253 0.0443255 2.8176e-19)
(-0.0079311 0.042 -3.82281e-19)
(0.00178925 0.0395582 9.19513e-20)
(0.0124317 0.0370723 -2.33718e-19)
(0.0238918 0.0346003 -1.89477e-19)
(0.0360623 0.0321904 -1.07588e-20)
(0.0488313 0.0298858 -2.85682e-20)
(0.0620815 0.0277336 2.25727e-20)
(0.0756885 0.0257985 -1.07886e-19)
(0.0895041 0.0241796 -7.46367e-20)
(0.103335 0.0230448 9.16936e-20)
(0.117045 0.0227953 -2.53558e-19)
(0.1307 0.0243688 8.24117e-20)
(0.142805 0.0283391 5.85011e-20)
(-0.00793125 0.00957029 -3.54465e-20)
(-0.0201282 0.0238049 -5.882e-20)
(-0.0292801 0.0339859 2.28466e-19)
(-0.035504 0.0410172 8.49469e-20)
(-0.0390103 0.0455963 1.12377e-19)
(-0.0400365 0.0482779 -1.5005e-19)
(-0.0388045 0.0495131 2.67657e-22)
(-0.0355169 0.049665 -1.21254e-19)
(-0.0303561 0.0490243 2.24068e-19)
(-0.0234854 0.0478239 7.30655e-20)
(-0.0150517 0.0462505 8.18525e-20)
(-0.00518993 0.0444541 -3.25589e-19)
(0.00597291 0.0425558 4.01235e-19)
(0.0183127 0.0406532 -1.20488e-19)
(0.0317038 0.0388247 -8.61281e-20)
(0.0460146 0.0371332 2.57761e-19)
(0.0611036 0.0356275 1.14913e-19)
(0.0768166 0.0343448 -2.90791e-19)
(0.0929853 0.0333133 -1.21303e-19)
(0.109427 0.0325587 3.66035e-19)
(0.125935 0.0321102 -2.79596e-19)
(0.142254 0.0320188 1.68093e-19)
(0.158222 0.0325362 9.39529e-20)
(0.174044 0.0345576 -1.2083e-19)
(0.188289 0.0386957 -1.16527e-19)
(-0.00844252 0.0095898 -1.30388e-19)
(-0.021124 0.0236861 2.02582e-19)
(-0.0302416 0.0336637 8.62681e-20)
(-0.0359931 0.0404718 -1.24568e-19)
(-0.0386443 0.0448457 -1.99425e-20)
(-0.038474 0.0473686 -1.30539e-19)
(-0.035737 0.0485118 -5.19797e-20)
(-0.0306608 0.048653 5.82942e-20)
(-0.0234473 0.0480946 -1.45882e-20)
(-0.0142753 0.0470792 1.09872e-19)
(-0.00330519 0.0458028 -9.53791e-20)
(0.00931536 0.0444252 2.63836e-19)
(0.0234452 0.0430781 -3.26808e-19)
(0.0389437 0.0418713 2.0376e-19)
(0.0556641 0.0408976 2.52959e-19)
(0.0734475 0.0402357 -3.65464e-19)
(0.0921163 0.0399514 -1.11165e-19)
(0.111468 0.0400976 1.87282e-19)
(0.13127 0.0407122 -1.15596e-19)
(0.15126 0.0418154 1.11585e-19)
(0.171129 0.0433957 -2.70465e-19)
(0.190506 0.0453864 4.50303e-20)
(0.209117 0.047806 1.76315e-19)
(0.227321 0.0513445 -2.83694e-19)
(0.244048 0.056462 7.68295e-20)
(-0.00892031 0.00954251 -1.20626e-19)
(-0.0219716 0.0233812 3.78008e-19)
(-0.0308932 0.0330618 7.25558e-20)
(-0.0359694 0.039577 -1.95992e-19)
(-0.0375245 0.0436982 1.4034e-19)
(-0.0358803 0.0460364 7.12029e-20)
(-0.0313245 0.0470818 1.13671e-19)
(-0.0241098 0.0472263 -7.4703e-21)
(-0.0144568 0.0467829 -1.18278e-20)
(-0.00255916 0.0460037 -2.47324e-20)
(0.0114101 0.0450942 -1.07972e-19)
(0.0272913 0.0442245 -3.60171e-21)
(0.0449305 0.0435383 2.52116e-19)
(0.0641721 0.0431607 -4.13188e-19)
(0.0848513 0.0432035 2.93934e-19)
(0.106786 0.0437706 5.9466e-20)
(0.129767 0.0449605 1.05108e-19)
(0.15355 0.0468685 -5.41465e-20)
(0.177838 0.0495862 4.80499e-19)
(0.202273 0.0531965 -2.97694e-19)
(0.226404 0.0577474 2.3811e-19)
(0.249637 0.0631801 5.61159e-20)
(0.271397 0.0694055 -1.74562e-19)
(0.291983 0.0769776 1.47938e-19)
(0.311063 0.0857575 2.29455e-19)
(-0.00935396 0.00942633 -3.50905e-20)
(-0.022634 0.0228844 -1.3331e-19)
(-0.031168 0.032174 -2.27777e-19)
(-0.0353332 0.038328 -1.29771e-19)
(-0.0355165 0.0421528 -1.81519e-20)
(-0.0320837 0.0442855 -5.12057e-20)
(-0.025357 0.0452341 -2.37061e-19)
(-0.0156143 0.0454025 3.92699e-20)
(-0.00309548 0.0451132 -2.66019e-19)
(0.0119904 0.0446263 -2.0606e-20)
(0.0294569 0.044155 -2.54834e-19)
(0.0491315 0.0438776 -9.06965e-20)
(0.070847 0.0439479 5.2016e-20)
(0.0944344 0.0445039 -2.47575e-19)
(0.119715 0.045675 2.25119e-21)
(0.146491 0.0475898 -2.13099e-19)
(0.174543 0.0503839 8.22464e-20)
(0.203612 0.0542087 -2.97505e-19)
(0.233389 0.059243 -5.10058e-20)
(0.26349 0.0657057 -7.16345e-21)
(0.2934 0.0738509 -5.039e-20)
(0.322369 0.0839316 -5.17431e-20)
(0.349425 0.0963523 -2.59979e-20)
(0.373985 0.112245 -1.04022e-19)
(0.39478 0.12997 -2.23376e-19)
(-0.00973163 0.00923984 6.39808e-20)
(-0.0230697 0.0221927 1.69029e-19)
(-0.030991 0.0309991 2.03108e-19)
(-0.0339738 0.0367289 -1.62273e-19)
(-0.0324712 0.0402213 3.00885e-19)
(-0.0268959 0.042138 -1.63308e-19)
(-0.0176059 0.0430023 8.86326e-20)
(-0.00490627 0.0432282 1.38048e-19)
(0.0109416 0.0431451 1.25535e-19)
(0.0297104 0.0430182 6.09977e-20)
(0.0511963 0.0430649 9.85494e-20)
(0.0752093 0.043467 5.72794e-20)
(0.101565 0.0443822 3.86787e-19)
(0.130075 0.0459521 -2.80991e-19)
(0.160548 0.0483117 3.20705e-19)
(0.192776 0.0515975 -1.33263e-19)
(0.226542 0.0559586 2.87579e-19)
(0.261617 0.0615708 -1.36738e-20)
(0.297761 0.0686583 -5.95536e-20)
(0.334738 0.0775252 -1.10693e-20)
(0.37232 0.0885954 2.26751e-19)
(0.410342 0.102519 -2.22949e-19)
(0.449037 0.120591 1.55957e-19)
(0.489122 0.144544 1.74483e-19)
(0.527402 0.168026 3.65474e-20)
(-0.0100396 0.00898188 4.42808e-20)
(-0.0232317 0.0213052 -2.41948e-19)
(-0.0302783 0.0295415 -8.78038e-20)
(-0.0317677 0.0347935 8.00901e-20)
(-0.0282242 0.0379301 -2.46786e-19)
(-0.020111 0.0396356 -4.86761e-20)
(-0.00782465 0.0404459 3.37141e-20)
(0.00829862 0.0407822 1.33046e-19)
(0.0279712 0.0409778 -3.36823e-19)
(0.0509407 0.041299 2.55718e-20)
(0.0769775 0.041962 -9.83748e-20)
(0.105864 0.0431456 -2.98648e-19)
(0.137384 0.0450011 2.03416e-19)
(0.171321 0.0476611 8.67366e-21)
(0.207449 0.0512468 -6.05995e-21)
(0.245538 0.0558748 2.04743e-19)
(0.285353 0.061665 -3.62111e-19)
(0.326669 0.068749 2.86742e-19)
(0.369281 0.0772808 -5.2976e-20)
(0.413033 0.0874476 1.67843e-19)
(0.457846 0.0994749 -2.76239e-19)
(0.503792 0.113657 1.59097e-19)
(0.551366 0.130558 -2.86535e-19)
(0.601499 0.150643 2.97871e-19)
(0.649382 0.167483 -9.23195e-20)
(-0.0102619 0.00865147 2.9824e-19)
(-0.0230664 0.0202233 -4.86721e-20)
(-0.0289355 0.0278116 3.57931e-19)
(-0.028578 0.0325455 1.65557e-19)
(-0.0225957 0.0353206 1.32196e-20)
(-0.0115067 0.0368406 7.21971e-20)
(0.00424849 0.037651 1.74071e-20)
(0.0242963 0.038177 2.93684e-19)
(0.0483139 0.0387512 9.45023e-20)
(0.0760128 0.0396366 -1.26497e-20)
(0.107123 0.0410419 2.54078e-20)
(0.141382 0.0431344 9.76503e-20)
(0.178523 0.0460492 8.14016e-20)
(0.218274 0.0498964 1.73971e-19)
(0.260351 0.0547664 -1.98219e-19)
(0.304466 0.0607351 5.98442e-20)
(0.35033 0.0678672 1.81225e-20)
(0.397666 0.076219 8.85985e-20)
(0.446227 0.0858397 2.4045e-19)
(0.495814 0.0967677 -1.56651e-19)
(0.546303 0.109018 1.36058e-20)
(0.597666 0.122571 -2.23473e-19)
(0.6501 0.137486 2.12369e-19)
(0.704057 0.153951 -2.07342e-19)
(0.754659 0.16782 1.90164e-20)
(-0.0103796 0.00824787 -2.48853e-19)
(-0.0225133 0.0189511 1.90157e-19)
(-0.0268579 0.0258257 -3.0939e-19)
(-0.0242551 0.0300195 2.66901e-20)
(-0.0153919 0.0324497 2.17418e-19)
(-0.000847873 0.0338359 -3.61982e-19)
(0.0188847 0.0347298 2.8688e-19)
(0.0433848 0.0355558 -4.54836e-19)
(0.0722811 0.0366415 9.06081e-20)
(0.105232 0.0382401 1.93207e-20)
(0.141906 0.0405457 1.52409e-19)
(0.181972 0.0437053 -5.06351e-19)
(0.225085 0.047827 8.74176e-20)
(0.270888 0.0529861 9.2512e-20)
(0.319007 0.0592293 -5.54577e-20)
(0.36906 0.0665784 -3.43869e-19)
(0.420664 0.0750312 1.61886e-19)
(0.473449 0.0845626 3.03214e-19)
(0.527069 0.0951215 -3.20344e-19)
(0.581225 0.106626 2.32657e-19)
(0.635669 0.118949 -3.02707e-19)
(0.690209 0.131903 2.20298e-19)
(0.74475 0.145322 -6.19474e-20)
(0.799366 0.15939 3.545e-19)
(0.849894 0.171909 -4.07896e-19)
(-0.0103707 0.00777053 3.56734e-20)
(-0.021504 0.0174949 2.80963e-20)
(-0.0239301 0.0236065 6.88532e-20)
(-0.0186378 0.0272603 2.45323e-19)
(-0.00640846 0.0293891 -7.64286e-21)
(0.0121079 0.0307241 5.47863e-20)
(0.0363555 0.0318181 2.43459e-19)
(0.0658509 0.0330893 9.81491e-20)
(0.100156 0.0348544 -3.2282e-20)
(0.138851 0.037349 2.74867e-19)
(0.181519 0.0407439 -3.12714e-19)
(0.227727 0.0451555 4.79581e-19)
(0.277022 0.0506536 -1.90177e-19)
(0.328928 0.0572673 3.4501e-19)
(0.38295 0.0649887 -1.16466e-19)
(0.438582 0.0737766 4.24743e-20)
(0.495319 0.0835582 5.14732e-20)
(0.552674 0.0942301 -9.96698e-20)
(0.610187 0.105658 8.33875e-20)
(0.667445 0.117672 5.36793e-20)
(0.724084 0.130063 7.43766e-20)
(0.779784 0.14257 1.5876e-19)
(0.834277 0.154939 -1.29393e-20)
(0.887445 0.167339 -7.28163e-20)
(0.936188 0.179075 2.23581e-19)
(-0.0102097 0.00721939 -2.08572e-19)
(-0.0199625 0.0158647 2.20379e-20)
(-0.0200275 0.0211836 -3.95984e-19)
(-0.0115558 0.0243239 -9.45429e-20)
(0.00456516 0.0262256 -1.76773e-19)
(0.0276023 0.0276259 -3.7928e-20)
(0.0569204 0.0290722 -1.89054e-19)
(0.091953 0.03097 -1.1283e-19)
(0.132169 0.033616 1.49346e-19)
(0.177043 0.0372194 -2.49141e-19)
(0.226036 0.0419163 -6.91616e-20)
(0.278584 0.0477805 2.67456e-21)
(0.334087 0.0548313 -4.66857e-19)
(0.391923 0.0630398 1.98427e-19)
(0.451448 0.0723339 -2.89684e-19)
(0.512014 0.0826038 -9.05678e-21)
(0.572986 0.0937058 5.73008e-20)
(0.633759 0.105466 -9.28527e-20)
(0.693774 0.117685 -8.14845e-20)
(0.752529 0.130135 4.10347e-20)
(0.809589 0.142568 4.61514e-20)
(0.864579 0.154705 -2.98715e-19)
(0.917174 0.166275 1.70559e-19)
(0.967201 0.177414 8.73003e-20)
(1.01262 0.188492 2.52471e-20)
(-0.00986741 0.00659529 2.13557e-19)
(-0.0178057 0.0140741 -2.27812e-19)
(-0.0150176 0.0185943 3.19204e-19)
(-0.00283364 0.0212773 4.95005e-20)
(0.0177389 0.0230603 -1.51996e-20)
(0.0458664 0.0246786 -1.07095e-19)
(0.0808129 0.026666 1.61042e-20)
(0.121901 0.0294056 1.62481e-19)
(0.168476 0.0331637 -2.24006e-19)
(0.219869 0.0381102 2.35044e-19)
(0.275385 0.0443333 -2.47777e-20)
(0.334287 0.05185 1.09471e-20)
(0.395805 0.0606153 3.05315e-19)
(0.459142 0.0705307 4.09062e-19)
(0.523492 0.0814519 -1.60014e-19)
(0.588065 0.093197 2.84638e-19)
(0.652108 0.105555 1.45029e-19)
(0.714922 0.118292 -8.85033e-20)
(0.775888 0.13116 2.81845e-19)
(0.834472 0.143902 -1.01684e-20)
(0.890236 0.156258 -2.72354e-19)
(0.942829 0.167968 2.88778e-19)
(0.991972 0.178783 4.25283e-20)
(1.03754 0.188808 -1.80897e-19)
(1.0784 0.199108 5.6719e-20)
(-0.00931159 0.00590054 -2.9743e-19)
(-0.0149446 0.0121423 3.10629e-19)
(-0.00876321 0.0158848 -1.97069e-19)
(0.00770494 0.0181999 -6.15629e-20)
(0.0333144 0.0200087 -1.37404e-19)
(0.0671094 0.0220347 2.42788e-19)
(0.108224 0.0247869 -1.4085e-19)
(0.155838 0.0286134 -6.4461e-20)
(0.20913 0.0337361 -1.84446e-19)
(0.267253 0.0402701 4.78774e-21)
(0.329312 0.0482388 -7.20582e-20)
(0.39437 0.0575866 3.50611e-20)
(0.461457 0.0681903 -3.68999e-19)
(0.529594 0.0798711 1.05114e-19)
(0.597819 0.0924068 -1.26982e-19)
(0.665218 0.105544 -1.02564e-19)
(0.730951 0.119012 3.1675e-20)
(0.794282 0.132531 -1.50189e-19)
(0.854589 0.145825 -6.51197e-20)
(0.911377 0.15863 1.86632e-19)
(0.964279 0.170703 7.99187e-20)
(1.01305 0.181821 -3.39171e-19)
(1.05753 0.191785 2.50704e-19)
(1.09772 0.200693 -4.75994e-20)
(1.13319 0.209983 -9.93093e-20)
(-0.00850696 0.0051396 -1.0863e-19)
(-0.0112856 0.0100948 -5.80796e-20)
(-0.00112508 0.0131114 -1.16539e-20)
(0.0202309 0.0151839 8.46673e-20)
(0.0514767 0.0172006 9.20917e-20)
(0.0915061 0.0198601 8.01647e-20)
(0.139289 0.023632 9.95507e-20)
(0.193817 0.0288134 1.51868e-19)
(0.254065 0.0355635 2.31877e-19)
(0.31896 0.0439237 2.29234e-19)
(0.387375 0.053834 1.20921e-19)
(0.458146 0.0651492 -3.24373e-20)
(0.530096 0.0776548 8.1649e-21)
(0.60207 0.0910844 -1.11422e-20)
(0.672976 0.105137 9.5684e-20)
(0.741818 0.119494 -2.58169e-20)
(0.807734 0.133837 2.84939e-19)
(0.870012 0.147861 -1.27344e-19)
(0.928104 0.161284 2.2155e-21)