/*--------------------------------*- C++ -*----------------------------------*\
  =========                 |
  \\      /  F ield         | OpenFOAM: The Open Source CFD Toolbox
   \\    /   O peration     | Website:  https://openfoam.org
    \\  /    A nd           | Version:  6.0
     \\/     M anipulation  |
\*---------------------------------------------------------------------------*/
FoamFile
{
    version     2.0;
    format      ascii;
    class       volScalarField;
    location    "25";
    object      p;
}
// * * * * * * * * * * * * * * * * * * * * * * * * * * * * * * * * * * * * * //

dimensions      [0 2 -2 0 0 0 0];

internalField   nonuniform List<scalar> 
4000
(
-0.459216
-0.445381
-0.433168
-0.419775
-0.40401
-0.386337
-0.367536
-0.348409
-0.329641
-0.311721
-0.294931
-0.27939
-0.265105
-0.252018
-0.240038
-0.22906
-0.218986
-0.209691
-0.200981
-0.193154
-0.46719
-0.452913
-0.43989
-0.425066
-0.407374
-0.387569
-0.366699
-0.345732
-0.325422
-0.306253
-0.288469
-0.27214
-0.257227
-0.243635
-0.231242
-0.219924
-0.209569
-0.200031
-0.191102
-0.183154
-0.473345
-0.458724
-0.444839
-0.428456
-0.408729
-0.38676
-0.363869
-0.341172
-0.31946
-0.299192
-0.280558
-0.263572
-0.248148
-0.234155
-0.221446
-0.209877
-0.199322
-0.189616
-0.18054
-0.172545
-0.477309
-0.462445
-0.447649
-0.429603
-0.407785
-0.38368
-0.358876
-0.334603
-0.311661
-0.290461
-0.271131
-0.253627
-0.237817
-0.223534
-0.210608
-0.198881
-0.188211
-0.178416
-0.169267
-0.161302
-0.478727
-0.463717
-0.447971
-0.428195
-0.404286
-0.378136
-0.351576
-0.325919
-0.301943
-0.279995
-0.260134
-0.242257
-0.226188
-0.211732
-0.198694
-0.186904
-0.176208
-0.166405
-0.157263
-0.149405
-0.477263
-0.462204
-0.445485
-0.423954
-0.398014
-0.36997
-0.341859
-0.315039
-0.290242
-0.267741
-0.24752
-0.22942
-0.213227
-0.198715
-0.185675
-0.173921
-0.163291
-0.153565
-0.144511
-0.136838
-0.472616
-0.457602
-0.439908
-0.416648
-0.388799
-0.359061
-0.329641
-0.301903
-0.276514
-0.253659
-0.233253
-0.215085
-0.198904
-0.184461
-0.17153
-0.159916
-0.149448
-0.139886
-0.131005
-0.123596
-0.464529
-0.449651
-0.431007
-0.406096
-0.376514
-0.345329
-0.31487
-0.286476
-0.260728
-0.237725
-0.217313
-0.199233
-0.183203
-0.168954
-0.156247
-0.14488
-0.134671
-0.125365
-0.116745
-0.10968
-0.452792
-0.438143
-0.418603
-0.392168
-0.361081
-0.328733
-0.297526
-0.268745
-0.242876
-0.21993
-0.19969
-0.181855
-0.166117
-0.15219
-0.139825
-0.128814
-0.118966
-0.11001
-0.101743
-0.0950985
-0.437256
-0.422926
-0.402576
-0.374794
-0.34247
-0.309267
-0.277617
-0.248722
-0.222967
-0.200282
-0.18039
-0.162956
-0.14765
-0.134174
-0.122271
-0.111727
-0.102344
-0.0938385
-0.0860187
-0.0798767
-0.41783
-0.403911
-0.382867
-0.353957
-0.320697
-0.286966
-0.255179
-0.22644
-0.201032
-0.178804
-0.159433
-0.142553
-0.127817
-0.11492
-0.103597
-0.0936338
-0.0848239
-0.0768737
-0.0696049
-0.064053
-0.394489
-0.381074
-0.359482
-0.329696
-0.295826
-0.261901
-0.230281
-0.201961
-0.17712
-0.155539
-0.136853
-0.120673
-0.106642
-0.0944476
-0.0838243
-0.0745548
-0.0664274
-0.0591423
-0.0525365
-0.04767
-0.367272
-0.354456
-0.332486
-0.302107
-0.267964
-0.234176
-0.203019
-0.175367
-0.151303
-0.130547
-0.112699
-0.097357
-0.0841571
-0.0727847
-0.0629749
-0.0545097
-0.0471746
-0.0406692
-0.0348452
-0.0307512
-0.336284
-0.32416
-0.302005
-0.271331
-0.237257
-0.203933
-0.173519
-0.146768
-0.123673
-0.103903
-0.0870347
-0.0726555
-0.0604015
-0.0499606
-0.0410712
-0.0335171
-0.0270842
-0.0214786
-0.0165546
-0.0132887
-0.30169
-0.290354
-0.268221
-0.237563
-0.203895
-0.171344
-0.141936
-0.116299
-0.094348
-0.0757082
-0.0599404
-0.0466312
-0.035421
-0.0260053
-0.0181304
-0.0115864
-0.00616559
-0.00158378
0.00232572
0.00471788
-0.263716
-0.253261
-0.231368
-0.201037
-0.168103
-0.136616
-0.108453
-0.0841228
-0.0634677
-0.0460815
-0.0315161
-0.0193628
-0.00927223
-0.0009535
0.00583255
0.0112837
0.0155953
0.0190352
0.021792
0.0231444
-0.222641
-0.213158
-0.191727
-0.162029
-0.130138
-0.0999849
-0.0732826
-0.0504276
-0.0311992
-0.0151675
-0.00188302
0.00905289
0.017973
0.0251469
0.0307911
0.0350877
0.0382155
0.0403877
0.0417298
0.0416027
-0.17879
-0.170366
-0.149618
-0.120849
-0.0902916
-0.061715
-0.0366654
-0.0154307
0.00226367
0.0168648
0.0288186
0.0385091
0.0462456
0.0522657
0.0567522
0.0598656
0.0617448
0.0624305
0.0618213
0.0596504
-0.132533
-0.125249
-0.105398
-0.0778375
-0.0488786
-0.0220977
0.00113056
0.0206205
0.0366937
0.0498116
0.0604165
0.0688796
0.075488
0.0804454
0.0838975
0.0859737
0.0866999
0.0857251
0.0825945
0.0783158
-0.0842695
-0.0781992
-0.0594507
-0.0333576
-0.00623723
0.0185535
0.039812
0.0574474
0.0718231
0.0834136
0.0926628
0.0999403
0.105531
0.109636
0.112416
0.114015
0.114338
0.112546
0.107944
0.103297
-0.0344305
-0.0296382
-0.0121807
0.0122104
0.0372797
0.0599104
0.0790687
0.0947499
0.107353
0.117361
0.12522
0.131303
0.135911
0.139283
0.141661
0.143317
0.144228
0.143424
0.140644
0.144087
0.0165442
0.0200017
0.035996
0.0584768
0.0813115
0.101638
0.118584
0.132224
0.142981
0.151342
0.157747
0.162565
0.166094
0.168584
0.170296
0.171489
0.172152
0.171819
0.171374
0.176958
0.0681955
0.0702728
0.0846537
0.105047
0.125495
0.1434
0.158045
0.16957
0.178419
0.185075
0.18997
0.193461
0.195842
0.197364
0.198272
0.198786
0.198891
0.198296
0.197899
0.202385
0.120061
0.120725
0.133367
0.151529
0.169473
0.184868
0.197145
0.206502
0.213392
0.218291
0.221614
0.223706
0.224844
0.225268
0.225206
0.224853
0.224205
0.223041
0.222102
0.225108
0.171679
0.17091
0.181715
0.197536
0.212892
0.225722
0.235592
0.242748
0.247649
0.250758
0.25247
0.253111
0.252941
0.25218
0.251031
0.24966
0.248051
0.24601
0.244218
0.245843
0.222595
0.220387
0.229284
0.242691
0.255414
0.265654
0.273106
0.278054
0.280958
0.282263
0.282345
0.281507
0.279991
0.277996
0.275702
0.27325
0.270608
0.267604
0.264884
0.265185
0.272364
0.268726
0.275675
0.286633
0.296712
0.304371
0.309421
0.312181
0.313103
0.312615
0.311071
0.308752
0.30588
0.302633
0.299171
0.295611
0.291911
0.287925
0.284273
0.283322
0.320557
0.315512
0.320502
0.329012
0.336473
0.341592
0.344287
0.344902
0.343882
0.341635
0.338493
0.334716
0.330504
0.326018
0.3214
0.316744
0.312005
0.307063
0.302502
0.300361
0.366763
0.360348
0.363398
0.369499
0.374401
0.377052
0.377465
0.376004
0.373105
0.369156
0.364465
0.359272
0.353759
0.348071
0.34233
0.336614
0.330877
0.325022
0.319592
0.316322
0.410591
0.402859
0.404018
0.407779
0.410217
0.410502
0.408731
0.405287
0.400593
0.395017
0.388846
0.3823
0.375544
0.368707
0.361894
0.35517
0.348491
0.341781
0.335525
0.33119
0.451674
0.442692
0.442034
0.443561
0.44366
0.441706
0.437875
0.432561
0.426176
0.419067
0.411502
0.403682
0.395755
0.387837
0.380017
0.37235
0.364794
0.35729
0.350262
0.344927
0.48967
0.479519
0.477147
0.476575
0.474485
0.470446
0.4647
0.45765
0.449695
0.441163
0.432304
0.423302
0.41429
0.40537
0.39662
0.388083
0.379722
0.37149
0.363747
0.357485
0.524266
0.513041
0.509081
0.50657
0.502472
0.496523
0.489026
0.48039
0.471001
0.461171
0.451131
0.441051
0.43105
0.421218
0.411621
0.402294
0.393206
0.384317
0.375921
0.36881
0.55518
0.542985
0.537585
0.533324
0.527417
0.519754
0.510688
0.500631
0.489959
0.478967
0.467871
0.456826
0.445942
0.435295
0.424943
0.414912
0.405178
0.395706
0.386724
0.378851
0.582157
0.569111
0.562439
0.556636
0.549142
0.539978
0.529538
0.51824
0.506447
0.49444
0.482421
0.470535
0.458879
0.447522
0.436511
0.425869
0.415573
0.405595
0.396101
0.387558
0.604981
0.591209
0.583451
0.576333
0.56749
0.557052
0.54545
0.5331
0.520357
0.507491
0.494691
0.482093
0.469785
0.457827
0.44626
0.435101
0.424332
0.413928
0.403998
0.394886
0.623465
0.609102
0.600458
0.592269
0.58233
0.570859
0.558313
0.54511
0.531598
0.518036
0.504604
0.491429
0.478592
0.466149
0.454132
0.442555
0.431405
0.420657
0.410373
0.400796
0.637461
0.622649
0.613329
0.604326
0.593555
0.5813
0.568039
0.554191
0.540096
0.526006
0.512096
0.498484
0.485248
0.472437
0.460079
0.448186
0.436748
0.42574
0.415187
0.405258
0.646855
0.631742
0.621966
0.612416
0.601084
0.588303
0.574561
0.56028
0.545794
0.53135
0.517118
0.503213
0.489709
0.476651
0.464065
0.45196
0.44033
0.429147
0.418412
0.408246
0.651573
0.636308
0.626303
0.616477
0.604864
0.591818
0.577835
0.563336
0.548654
0.534032
0.519639
0.505587
0.491948
0.478766
0.466065
0.453855
0.442127
0.430856
0.420031
0.409745
0.651577
0.636311
0.626306
0.61648
0.604867
0.591821
0.577838
0.563339
0.548656
0.534035
0.519642
0.505589
0.491951
0.478769
0.466068
0.453857
0.44213
0.430859
0.420033
0.409747
0.646866
0.631752
0.621976
0.612425
0.601093
0.588312
0.57457
0.560288
0.545802
0.531358
0.517126
0.503221
0.489717
0.476658
0.464072
0.451967
0.440337
0.429154
0.418419
0.408252
0.637478
0.622667
0.613345
0.604342
0.59357
0.581315
0.568053
0.554205
0.54011
0.526019
0.512109
0.498496
0.48526
0.472449
0.460091
0.448198
0.43676
0.425751
0.415198
0.405269
0.623489
0.609127
0.600481
0.592292
0.582352
0.57088
0.558333
0.54513
0.531617
0.518054
0.504622
0.491446
0.47861
0.466166
0.454149
0.442571
0.431422
0.420673
0.410389
0.400812
0.605012
0.59124
0.583481
0.576362
0.567518
0.557079
0.545476
0.533125
0.520382
0.507515
0.494715
0.482116
0.469807
0.457849
0.446282
0.435122
0.424354
0.413949
0.404019
0.394906
0.582196
0.569149
0.562477
0.556672
0.549176
0.540011
0.52957
0.518271
0.506477
0.494469
0.48245
0.470563
0.458907
0.447549
0.436538
0.425895
0.415599
0.40562
0.396126
0.387582
0.555226
0.543031
0.53763
0.533366
0.527458
0.519793
0.510726
0.500668
0.489995
0.479002
0.467905
0.45686
0.445975
0.435328
0.424975
0.414944
0.405208
0.395736
0.386754
0.37888
0.52432
0.513094
0.509132
0.50662
0.502519
0.496569
0.48907
0.480432
0.471043
0.461212
0.451171
0.44109
0.431088
0.421256
0.411658
0.40233
0.393241
0.384352
0.375955
0.368843
0.489731
0.47958
0.477206
0.476631
0.47454
0.470498
0.464751
0.457699
0.449743
0.44121
0.432349
0.423346
0.414334
0.405413
0.396662
0.388124
0.379762
0.371529
0.363786
0.357523
0.451743
0.442761
0.442101
0.443625
0.443721
0.441765
0.437932
0.432616
0.42623
0.41912
0.411553
0.403731
0.395804
0.387885
0.380064
0.372396
0.36484
0.357334
0.350306
0.34497
0.410668
0.402936
0.404092
0.40785
0.410286
0.410567
0.408795
0.405348
0.400653
0.395075
0.388903
0.382356
0.375599
0.36876
0.361946
0.355221
0.348541
0.34183
0.335574
0.331237
0.366849
0.360433
0.363481
0.369577
0.374477
0.377125
0.377535
0.376072
0.373171
0.36922
0.364528
0.359333
0.353819
0.34813
0.342387
0.33667
0.330932
0.325077
0.319645
0.316374
0.320652
0.315605
0.320592
0.329099
0.336556
0.341672
0.344364
0.344976
0.343954
0.341706
0.338562
0.334783
0.330569
0.326082
0.321463
0.316806
0.312065
0.307122
0.30256
0.300418
0.272467
0.268828
0.275774
0.286728
0.296802
0.304458
0.309505
0.312262
0.313182
0.312692
0.311146
0.308825
0.305951
0.302702
0.29924
0.295678
0.291977
0.287989
0.284336
0.283384
0.222707
0.220498
0.229392
0.242794
0.255513
0.265749
0.273197
0.278143
0.281044
0.282346
0.282426
0.281586
0.280068
0.278071
0.275776
0.273323
0.270679
0.267673
0.264952
0.265251
0.1718
0.171031
0.181831
0.197647
0.212999
0.225824
0.235691
0.242844
0.247742
0.250847
0.252557
0.253196
0.253024
0.252261
0.25111
0.249738
0.248127
0.246085
0.244292
0.245915
0.120192
0.120855
0.133493
0.151649
0.169588
0.184978
0.197252
0.206604
0.213491
0.218387
0.221708
0.223797
0.224934
0.225356
0.225292
0.224936
0.224287
0.223122
0.222181
0.225185
0.0683366
0.0704124
0.0847889
0.105176
0.125619
0.143518
0.158159
0.16968
0.178526
0.185179
0.190071
0.19356
0.195938
0.197457
0.198363
0.198876
0.198979
0.198382
0.197984
0.202467
0.0166953
0.0201513
0.0361408
0.0586154
0.0814439
0.101764
0.118706
0.132341
0.143094
0.151452
0.157855
0.16267
0.166196
0.168684
0.170394
0.171585
0.172246
0.171912
0.171465
0.177046
-0.0342691
-0.0294784
-0.012026
0.0123584
0.037421
0.0600457
0.0791986
0.0948752
0.107474
0.117478
0.125334
0.131415
0.13602
0.139389
0.141765
0.143419
0.144329
0.143523
0.140742
0.144183
-0.0840977
-0.0780291
-0.059286
-0.0332
-0.00608686
0.0186974
0.0399502
0.0575805
0.0719518
0.0835385
0.0927842
0.100059
0.105646
0.10975
0.112527
0.114124
0.114445
0.112652
0.108049
0.103402
-0.13235
-0.125068
-0.105223
-0.0776703
-0.048719
-0.0219451
0.00127704
0.0207616
0.0368301
0.0499439
0.0605451
0.0690049
0.0756104
0.0805652
0.0840151
0.0860892
0.0868136
0.0858374
0.0827059
0.0784269
-0.178597
-0.170175
-0.149433
-0.120672
-0.0901227
-0.0615535
-0.0365106
-0.0152815
0.00240778
0.0170045
0.0289544
0.0386413
0.0463747
0.0523921
0.056876
0.0599872
0.0618646
0.0625485
0.0619379
0.0597662
-0.222437
-0.212956
-0.191531
-0.161842
-0.12996
-0.0998145
-0.0731193
-0.0502704
-0.0310474
-0.0150204
-0.00174015
0.00919202
0.0181088
0.0252796
0.0309212
0.0352153
0.0383409
0.0405111
0.0418514
0.0417231
-0.263502
-0.253049
-0.231162
-0.20084
-0.167915
-0.136437
-0.108281
-0.0839576
-0.0633082
-0.045927
-0.0313662
-0.0192169
-0.00912991
-0.000814437
0.00596868
0.0114171
0.0157263
0.0191639
0.0219186
0.0232696
-0.301465
-0.290132
-0.268005
-0.237356
-0.203698
-0.171156
-0.141755
-0.116126
-0.0941808
-0.0755464
-0.0597834
-0.0464785
-0.0352722
-0.02586
-0.0179883
-0.0114472
-0.00602907
-0.00144981
0.00245735
0.00484779
-0.336049
-0.323927
-0.301779
-0.271115
-0.237051
-0.203736
-0.17333
-0.146587
-0.123499
-0.103734
-0.0868707
-0.0724961
-0.0602463
-0.0498092
-0.0409232
-0.0333722
-0.0269423
-0.0213394
-0.016418
-0.0131541
-0.367027
-0.354213
-0.33225
-0.30188
-0.267748
-0.23397
-0.202822
-0.175178
-0.15112
-0.13037
-0.112528
-0.0971911
-0.0839956
-0.0726271
-0.062821
-0.0543593
-0.0470272
-0.0405249
-0.0347036
-0.0306119
-0.394234
-0.380822
-0.359236
-0.329461
-0.295601
-0.261686
-0.230075
-0.201764
-0.17693
-0.155356
-0.136675
-0.120501
-0.106474
-0.094284
-0.0836647
-0.0743987
-0.0662748
-0.0589929
-0.05239
-0.0475259
-0.417566
-0.40365
-0.382612
-0.353712
-0.320463
-0.286743
-0.254965
-0.226235
-0.200834
-0.178614
-0.159249
-0.142374
-0.127643
-0.11475
-0.103432
-0.0934723
-0.084666
-0.0767191
-0.0694535
-0.0639042
-0.436984
-0.422656
-0.402312
-0.37454
-0.342227
-0.309035
-0.277395
-0.248509
-0.222763
-0.200084
-0.180199
-0.162771
-0.14747
-0.133999
-0.122099
-0.11156
-0.102181
-0.0936788
-0.0858625
-0.0797233
-0.452512
-0.437865
-0.418331
-0.391906
-0.36083
-0.328493
-0.297297
-0.268525
-0.242664
-0.219726
-0.199493
-0.181664
-0.165931
-0.152009
-0.139649
-0.128642
-0.118797
-0.109846
-0.101582
-0.0949403
-0.464241
-0.449365
-0.430728
-0.405825
-0.376255
-0.345082
-0.314634
-0.286249
-0.260509
-0.237514
-0.217109
-0.199035
-0.183011
-0.168767
-0.156065
-0.144703
-0.134498
-0.125195
-0.116579
-0.109517
-0.472322
-0.457309
-0.439622
-0.416371
-0.388533
-0.358806
-0.329396
-0.301669
-0.276288
-0.253441
-0.233043
-0.214881
-0.198706
-0.184268
-0.171342
-0.159733
-0.149269
-0.139711
-0.130834
-0.123429
-0.476963
-0.461906
-0.445192
-0.42367
-0.397741
-0.369708
-0.341608
-0.314798
-0.290011
-0.267517
-0.247303
-0.22921
-0.213023
-0.198517
-0.185482
-0.173733
-0.163108
-0.153385
-0.144335
-0.136666
-0.478422
-0.463414
-0.447674
-0.427905
-0.404006
-0.377868
-0.351319
-0.325671
-0.301705
-0.279765
-0.259912
-0.242041
-0.225979
-0.211528
-0.198496
-0.18671
-0.176019
-0.16622
-0.157082
-0.149227
-0.477
-0.462138
-0.447347
-0.429308
-0.4075
-0.383406
-0.358612
-0.334349
-0.311417
-0.290226
-0.270903
-0.253406
-0.237602
-0.223325
-0.210405
-0.198682
-0.188017
-0.178226
-0.169082
-0.161121
-0.473033
-0.458415
-0.444533
-0.428157
-0.408439
-0.38648
-0.3636
-0.340913
-0.319211
-0.298951
-0.280324
-0.263345
-0.247928
-0.233941
-0.221237
-0.209673
-0.199122
-0.189422
-0.180349
-0.172359
-0.466876
-0.452602
-0.439582
-0.424764
-0.40708
-0.387285
-0.366425
-0.345467
-0.325166
-0.306006
-0.28823
-0.271908
-0.257002
-0.243415
-0.231028
-0.219715
-0.209365
-0.199832
-0.190907
-0.182963
-0.4589
-0.445068
-0.432859
-0.419471
-0.403713
-0.386049
-0.367258
-0.34814
-0.329381
-0.311469
-0.294687
-0.279153
-0.264874
-0.251794
-0.239819
-0.228846
-0.218777
-0.209487
-0.200781
-0.192958
0.0847748
0.0569273
0.0363955
0.0265733
0.0177813
0.0059311
-0.00735736
-0.0201938
-0.0322866
-0.044045
-0.0557078
-0.0672472
-0.0785718
-0.0896414
-0.100465
-0.111068
-0.121475
-0.131717
-0.141828
-0.151855
0.0275885
0.0136579
0.00140416
-0.00599778
-0.0114977
-0.0179061
-0.0253832
-0.0329025
-0.0398761
-0.0463614
-0.0525843
-0.0586399
-0.0645018
-0.0701225
-0.0754818
-0.0805807
-0.0854237
-0.0900102
-0.0943345
-0.0983881
0.01298
0.00680429
0.00120415
-0.00345
-0.0076047
-0.011865
-0.0164176
-0.0210799
-0.025649
-0.030081
-0.0344348
-0.0387658
-0.0430881
-0.0473933
-0.0516747
-0.0559347
-0.060181
-0.0644218
-0.0686645
-0.072916
0.00420429
0.000354797
-0.00346935
-0.00717931
-0.0107775
-0.0143352
-0.0179038
-0.021474
-0.0250074
-0.0284804
-0.031894
-0.0352587
-0.0385805
-0.0418584
-0.0450898
-0.0482732
-0.0514091
-0.054499
-0.0575439
-0.0605451
-0.00266307
-0.0057737
-0.00866925
-0.0113238
-0.0139061
-0.0164984
-0.0190928
-0.0216644
-0.0242025
-0.0267085
-0.0291873
-0.031643
-0.0340788
-0.0364968
-0.0388988
-0.0412871
-0.0436639
-0.0460317
-0.0483931
-0.0507505
-0.00790854
-0.0104105
-0.0125849
-0.0144965
-0.0163716
-0.0182997
-0.020257
-0.0222056
-0.0241337
-0.0260465
-0.0279506
-0.0298484
-0.03174
-0.033625
-0.0355035
-0.037376
-0.0392431
-0.0411052
-0.0429628
-0.0448163
-0.0112827
-0.0132314
-0.0148687
-0.0163006
-0.0177226
-0.0192022
-0.0207143
-0.0222248
-0.0237228
-0.0252128
-0.0267004
-0.0281875
-0.0296735
-0.0311577
-0.0326398
-0.0341202
-0.0355992
-0.0370771
-0.0385543
-0.040031
-0.0133868
-0.0148914
-0.0161738
-0.0173152
-0.0184529
-0.0196345
-0.020843
-0.0220536
-0.0232578
-0.0244581
-0.0256581
-0.0268594
-0.0280614
-0.0292633
-0.0304649
-0.031666
-0.0328667
-0.0340672
-0.0352674
-0.0364674
-0.0147465
-0.0158898
-0.0169226
-0.0178754
-0.0188205
-0.0197891
-0.020775
-0.0217646
-0.0227517
-0.0237366
-0.0247216
-0.0257074
-0.0266938
-0.0276804
-0.0286668
-0.0296529
-0.0306388
-0.0316245
-0.0326099
-0.0335952
-0.0157466
-0.0165941
-0.0174326
-0.0182474
-0.0190525
-0.0198617
-0.0206779
-0.0214974
-0.0223171
-0.0231359
-0.0239544
-0.0247729
-0.0255916
-0.0264102
-0.0272286
-0.0280466
-0.0288643
-0.0296816
-0.0304987
-0.0313154
-0.016583
-0.0171991
-0.0178755
-0.0185711
-0.0192588
-0.019938
-0.0206156
-0.021295
-0.0219759
-0.0226568
-0.0233374
-0.0240174
-0.0246972
-0.0253768
-0.0260561
-0.0267351
-0.0274139
-0.0280925
-0.0287708
-0.029449
-0.0173275
-0.0177708
-0.0183093
-0.0188924
-0.0194717
-0.0200367
-0.0205951
-0.0211541
-0.021715
-0.0222768
-0.0228384
-0.0233997
-0.0239608
-0.0245218
-0.025083
-0.0256444
-0.0262059
-0.0267677
-0.0273298
-0.0278924
-0.0179623
-0.0182691
-0.0186851
-0.0191607
-0.0196375
-0.0200983
-0.02055
-0.0210012
-0.0214548
-0.0219099
-0.0223655
-0.0228213
-0.0232774
-0.0237341
-0.0241917
-0.0246502
-0.0251099
-0.0255707
-0.0260327
-0.0264962
-0.0184712
-0.0186534
-0.0189558
-0.0193318
-0.0197139
-0.0200788
-0.0204326
-0.0207853
-0.0211408
-0.0214987
-0.0218581
-0.0222185
-0.0225804
-0.022944
-0.0233099
-0.0236781
-0.0240488
-0.0244222
-0.0247984
-0.0251775
-0.0188475
-0.0188838
-0.0190585
-0.0193273
-0.0196091
-0.0198721
-0.0201216
-0.0203697
-0.0206222
-0.0208795
-0.0211406
-0.0214052
-0.0216737
-0.0219468
-0.0222248
-0.0225082
-0.0227969
-0.0230912
-0.0233912
-0.0236968
-0.0192256
-0.0191295
-0.019142
-0.0192471
-0.0193778
-0.0195014
-0.0196187
-0.0197398
-0.019871
-0.0200134
-0.0201665
-0.0203299
-0.0205036
-0.0206881
-0.0208835
-0.0210898
-0.0213069
-0.0215347
-0.0217728
-0.0220209
-0.019097
-0.0189004
-0.0186519
-0.0184363
-0.0182789
-0.0181697
-0.0180947
-0.0180477
-0.0180285
-0.0180378
-0.0180753
-0.0181399
-0.01823
-0.0183442
-0.0184812
-0.0186396
-0.0188182
-0.0190157
-0.0192308
-0.0194622
-0.0164989
-0.0160163
-0.0155043
-0.0150951
-0.0147966
-0.0145802
-0.0144248
-0.0143217
-0.0142683
-0.0142621
-0.0143003
-0.0143791
-0.0144948
-0.0146443
-0.0148244
-0.0150322
-0.0152652
-0.0155208
-0.0157968
-0.0160908
-0.00493247
-0.00124183
5.17956e-05
-0.000585207
-0.00166164
-0.00248036
-0.00305048
-0.00356025
-0.00410969
-0.00470282
-0.00531394
-0.00592653
-0.00653717
-0.00714738
-0.00775803
-0.00836842
-0.00897721
-0.00958319
-0.0101855
-0.0107834
0.0070613
0.0193123
0.0230622
0.0204551
0.0166374
0.013876
0.0120776
0.0105942
0.00908756
0.0075371
0.00601716
0.00457181
0.00320343
0.00189925
0.000649229
-0.00055109
-0.00170361
-0.00281017
-0.00387313
-0.00489507
0.121944
0.122474
0.123558
0.125188
0.127364
0.130099
0.133416
0.137334
0.141872
0.14703
0.152797
0.159112
0.165865
0.172819
0.179562
0.18529
0.188503
0.186173
0.171736
0.130266
0.112664
0.113053
0.11379
0.114897
0.116334
0.118123
0.120198
0.122588
0.125166
0.127958
0.130714
0.133432
0.135625
0.137203
0.137191
0.135234
0.129278
0.118038
0.096432
0.058759
0.101686
0.101896
0.102268
0.102814
0.103501
0.104323
0.105202
0.106114
0.106923
0.10757
0.107827
0.107564
0.106393
0.104052
0.0998863
0.0934014
0.0836188
0.0698992
0.0515496
0.0288793
0.0897061
0.0897456
0.089795
0.0898557
0.0899048
0.0899144
0.0898211
0.089561
0.0890288
0.0881198
0.0866738
0.0845259
0.0814456
0.0771962
0.0715063
0.0641355
0.0549384
0.0438262
0.0307441
0.0148654
0.0774273
0.0773397
0.0771504
0.0768554
0.0764412
0.0758739
0.0751066
0.074071
0.0726942
0.0708791
0.068533
0.0655324
0.0617823
0.0571552
0.0516035
0.0450349
0.0374617
0.0286984
0.0184852
0.00591899
0.0654359
0.0652706
0.0649327
0.0644181
0.063719
0.0628076
0.0616521
0.0601998
0.0584056
0.0562033
0.0535487
0.0503722
0.0466472
0.042311
0.0373627
0.0317234
0.0253598
0.0180514
0.00954671
-0.000832506
0.0541398
0.0539366
0.0535258
0.0529039
0.0520671
0.050997
0.0496746
0.0480658
0.0461461
0.0438763
0.0412372
0.03819
0.0347262
0.030803
0.0264136
0.0214878
0.0159922
0.00977946
0.00270688
-0.00566965
0.0437712
0.0435573
0.0431268
0.0424764
0.0416046
0.0405005
0.0391543
0.037546
0.035663
0.0334818
0.030993
0.028171
0.0250104
0.0214797
0.017576
0.0132575
0.00852266
0.0033002
-0.00246804
-0.00906185
0.0344244
0.0342162
0.0337981
0.0331665
0.032321
0.0312549
0.0299642
0.0284372
0.026668
0.0246417
0.0223536
0.0197862
0.0169384
0.013791
0.0103513
0.00660159
0.00256216
-0.00179124
-0.00644902
-0.0115138
0.0261008
0.0259068
0.0255175
0.0249293
0.0241412
0.0231493
0.0219526
0.0205445
0.0189236
0.0170809
0.0150161
0.0127188
0.0101929
0.00742857
0.00443899
0.00121806
-0.00220419
-0.00582311
-0.00957162
-0.0133974
0.0187478
0.0185715
0.018218
0.0176832
0.016966
0.0160638
0.0149775
0.0137039
0.0122452
0.0105969
0.0087631
0.00673907
0.00453297
0.00214009
-0.000424138
-0.00316144
-0.00603747
-0.00903027
-0.0120354
-0.0149053
0.0122875
0.0121293
0.0118126
0.0113332
0.0106899
0.00988107
0.00890917
0.00777355
0.0064785
0.00502291
0.00341369
0.00165012
-0.000256069
-0.0023051
-0.00447876
-0.00677568
-0.00916018
-0.0116047
-0.013992
-0.0161378
0.00663623
0.00649432
0.00621103
0.00578223
0.00520739
0.00448613
0.00362274
0.00261873
0.00148016
0.000207533
-0.00119148
-0.00271633
-0.00435367
-0.00609955
-0.00793034
-0.00983757
-0.0117819
-0.0137356
-0.0155868
-0.0171494
0.0017193
0.00158955
0.00133149
0.000941474
0.000420041
-0.000231261
-0.00100546
-0.00189775
-0.00289892
-0.00400596
-0.0052105
-0.00651324
-0.00790412
-0.00938174
-0.0109215
-0.0125062
-0.0140818
-0.0156061
-0.0169672
-0.0180025
-0.00251791
-0.00264177
-0.00288711
-0.00325718
-0.00375028
-0.00436319
-0.0050857
-0.00590885
-0.00681713
-0.00780073
-0.00884364
-0.00994276
-0.0110888
-0.0122918
-0.0135427
-0.0148405
-0.0161258
-0.0173268
-0.0182769
-0.0187765
-0.00610274
-0.00622799
-0.00647519
-0.00684795
-0.00734387
-0.00796005
-0.00868439
-0.00950648
-0.010404
-0.011359
-0.0123375
-0.013318
-0.0142649
-0.0151791
-0.0160566
-0.0169489
-0.0178552
-0.0187557
-0.0194118
-0.0194823
-0.00903408
-0.0091664
-0.00942833
-0.00982407
-0.0103519
-0.0110112
-0.0117922
-0.0126886
-0.0136794
-0.0147472
-0.0158474
-0.0169373
-0.017931
-0.0187598
-0.0193277
-0.01964
-0.0197412
-0.0198288
-0.0198898
-0.0195059
-0.0112878
-0.0114285
-0.0117124
-0.0121425
-0.01272
-0.0134459
-0.0143193
-0.0153392
-0.0165016
-0.0177992
-0.0192135
-0.0207081
-0.0222066
-0.0235726
-0.0245769
-0.0249083
-0.0242473
-0.0224971
-0.0200561
-0.0177869
-0.0128243
-0.0129721
-0.0132775
-0.0137408
-0.0143677
-0.015159
-0.0161253
-0.01727
-0.0186117
-0.0201571
-0.0219362
-0.0239542
-0.0262397
-0.0287403
-0.0313484
-0.0336408
-0.0348211
-0.0333339
-0.0273333
-0.0155478
-0.0136019
-0.0137566
-0.0140749
-0.0145592
-0.015215
-0.0160478
-0.0170699
-0.0182942
-0.0197454
-0.0214508
-0.0234587
-0.0258272
-0.0286538
-0.0320564
-0.0361972
-0.0411762
-0.0467999
-0.0516607
-0.0506877
-0.0279093
0.132453
0.133031
0.134322
0.13623
0.1389
0.142231
0.146467
0.151463
0.1576
0.164665
0.173248
0.18303
0.19495
0.208499
0.225258
0.244358
0.268655
0.296507
0.33336
0.375719
0.132416
0.132994
0.134284
0.136192
0.13886
0.14219
0.146424
0.151418
0.15755
0.16461
0.173186
0.182958
0.194861
0.208389
0.22511
0.24416
0.268364
0.296081
0.332701
0.374668
0.132343
0.13292
0.13421
0.136116
0.138782
0.142109
0.146339
0.151327
0.157452
0.164502
0.173063
0.182814
0.194685
0.20817
0.224817
0.243765
0.267787
0.295233
0.331389
0.372572
0.132232
0.13281
0.134098
0.136002
0.138665
0.141988
0.146211
0.151192
0.157305
0.16434
0.172879
0.1826
0.194423
0.207845
0.22438
0.243176
0.266926
0.293968
0.329431
0.369445
0.132086
0.132663
0.133949
0.13585
0.138509
0.141827
0.146042
0.151012
0.157111
0.164125
0.172634
0.182316
0.194076
0.207412
0.223801
0.242397
0.265785
0.292296
0.326834
0.365303
0.131903
0.13248
0.133764
0.135662
0.138316
0.141626
0.145832
0.150788
0.156869
0.163858
0.172331
0.181963
0.193645
0.206876
0.223084
0.24143
0.264371
0.290224
0.32361
0.360166
0.131685
0.132261
0.133543
0.135437
0.138084
0.141386
0.145581
0.150521
0.15658
0.163539
0.17197
0.181542
0.193133
0.206237
0.222231
0.240282
0.26269
0.287767
0.319774
0.354063
0.131431
0.132007
0.133286
0.135176
0.137816
0.141109
0.145289
0.150212
0.156246
0.16317
0.171552
0.181054
0.192541
0.205499
0.221249
0.238958
0.260753
0.284938
0.315342
0.347025
0.131142
0.131718
0.132993
0.134879
0.137511
0.140793
0.144959
0.149861
0.155867
0.162751
0.171078
0.180502
0.191873
0.204663
0.220142
0.237463
0.258569
0.281754
0.310334
0.33909
0.130818
0.131395
0.132667
0.134547
0.13717
0.140441
0.14459
0.149469
0.155444
0.162285
0.170552
0.179888
0.191131
0.203734
0.218915
0.235805
0.256151
0.27823
0.304769
0.330301
0.13046
0.131037
0.132306
0.134181
0.136795
0.140053
0.144184
0.149038
0.154979
0.161772
0.169974
0.179213
0.190319
0.202715
0.217575
0.233991
0.253512
0.274386
0.298674
0.320706
0.130068
0.130646
0.131912
0.133781
0.136385
0.13963
0.143741
0.148569
0.154474
0.161214
0.169346
0.178479
0.189439
0.201609
0.216129
0.232027
0.250668
0.27024
0.292075
0.310356
0.129643
0.130223
0.131485
0.133349
0.135943
0.139173
0.143263
0.148062
0.153928
0.160613
0.16867
0.17769
0.188494
0.200421
0.214584
0.229922
0.247634
0.26581
0.285003
0.299307
0.129186
0.129767
0.131027
0.132885
0.135468
0.138684
0.142751
0.14752
0.153345
0.159971
0.167949
0.176848
0.18749
0.199156
0.212947
0.227685
0.244431
0.261115
0.277494
0.287611
0.128696
0.129281
0.130538
0.13239
0.134962
0.138162
0.142206
0.146944
0.152725
0.159288
0.167184
0.175954
0.186427
0.197816
0.211225
0.225323
0.241077
0.256173
0.269593
0.275317
0.128175
0.128763
0.130018
0.131866
0.134425
0.137609
0.141628
0.146332
0.152067
0.158565
0.166373
0.175009
0.185304
0.196401
0.209415
0.222839
0.237585
0.250999
0.261353
0.262465
0.127623
0.128217
0.12947
0.131312
0.133859
0.137027
0.14102
0.14569
0.151377
0.157806
0.165522
0.174017
0.184128
0.19492
0.20753
0.220246
0.233975
0.245607
0.252833
0.249084
0.127042
0.127642
0.128897
0.130736
0.133273
0.136427
0.140397
0.145037
0.15068
0.157045
0.164675
0.173032
0.182964
0.193446
0.205655
0.21763
0.23034
0.240052
0.244082
0.235078
0.12643
0.12704
0.128298
0.130139
0.13267
0.135816
0.13977
0.144387
0.149996
0.156308
0.163863
0.172093
0.181858
0.192035
0.20385
0.215058
0.226747
0.23438
0.23512
0.219784
0.125785
0.126397
0.12765
0.12948
0.131988
0.135106
0.139012
0.143577
0.149101
0.155316
0.162719
0.170765
0.18025
0.19006
0.201342
0.21177
0.222371
0.228106
0.226026
0.203491
0.125797
0.126409
0.127661
0.129492
0.132
0.135119
0.139026
0.143592
0.149117
0.155334
0.162739
0.170787
0.180275
0.190088
0.201375
0.211808
0.222415
0.228159
0.22609
0.203569
0.126441
0.127051
0.128309
0.13015
0.132682
0.135828
0.139783
0.144402
0.150011
0.156325
0.163882
0.172114
0.181882
0.192062
0.20388
0.215094
0.226788
0.234429
0.23518
0.219858
0.127052
0.127652
0.128907
0.130747
0.133285
0.136439
0.14041
0.145051
0.150695
0.157061
0.164693
0.173052
0.182987
0.193472
0.205684
0.217663
0.230379
0.240099
0.244138
0.235147
0.127633
0.128226
0.12948
0.131323
0.13387
0.137038
0.141032
0.145703
0.151391
0.157821
0.165539
0.174036
0.184149
0.194944
0.207557
0.220278
0.234012
0.245651
0.252886
0.249149
0.128184
0.128772
0.130028
0.131875
0.134435
0.13762
0.141639
0.146345
0.15208
0.158579
0.166388
0.175026
0.185324
0.196424
0.209441
0.222869
0.23762
0.25104
0.261403
0.262526
0.128704
0.129289
0.130547
0.1324
0.134971
0.138172
0.142216
0.146955
0.152737
0.159302
0.167199
0.175971
0.186446
0.197838
0.211249
0.225351
0.24111
0.256212
0.26964
0.275374
0.129194
0.129775
0.131035
0.132894
0.135477
0.138693
0.142761
0.147531
0.153357
0.159983
0.167963
0.176863
0.187508
0.199176
0.21297
0.227711
0.244462
0.261151
0.277538
0.287664
0.129651
0.13023
0.131493
0.133357
0.135951
0.139182
0.143272
0.148072
0.153939
0.160625
0.168683
0.177704
0.188511
0.20044
0.214605
0.229947
0.247663
0.265844
0.285043
0.299356
0.130075
0.130653
0.131919
0.133788
0.136393
0.139638
0.143749
0.148578
0.154483
0.161225
0.169358
0.178492
0.189453
0.201626
0.216149
0.23205
0.250694
0.270271
0.292111
0.310401
0.130466
0.131044
0.132312
0.134187
0.136802
0.140061
0.144191
0.149046
0.154988
0.161782
0.169985
0.179225
0.190332
0.202731
0.217593
0.234011
0.253536
0.274414
0.298707
0.320747
0.130824
0.1314
0.132673
0.134553
0.137177
0.140448
0.144597
0.149477
0.155452
0.162294
0.170562
0.179899
0.191143
0.203748
0.218931
0.235824
0.256173
0.278256
0.3048
0.330338
0.131147
0.131723
0.132999
0.134884
0.137517
0.140799
0.144965
0.149867
0.155874