/*--------------------------------*- C++ -*----------------------------------*\
  =========                 |
  \\      /  F ield         | OpenFOAM: The Open Source CFD Toolbox
   \\    /   O peration     | Website:  https://openfoam.org
    \\  /    A nd           | Version:  6.0
     \\/     M anipulation  |
\*---------------------------------------------------------------------------*/
FoamFile
{
    version     2.0;
    format      ascii;
    class       volScalarField;
    location    "45";
    object      p;
}
// * * * * * * * * * * * * * * * * * * * * * * * * * * * * * * * * * * * * * //

dimensions      [0 2 -2 0 0 0 0];

internalField   nonuniform List<scalar> 
4000
(
-0.242822
-0.243707
-0.244291
-0.244716
-0.24507
-0.245365
-0.245613
-0.245827
-0.246015
-0.246183
-0.246336
-0.246479
-0.246616
-0.246751
-0.246888
-0.247037
-0.2472
-0.247325
-0.247388
-0.24791
-0.242899
-0.243778
-0.244357
-0.244777
-0.245123
-0.24541
-0.245651
-0.245856
-0.246034
-0.246192
-0.246335
-0.246467
-0.246593
-0.246718
-0.246844
-0.246983
-0.247135
-0.247252
-0.247306
-0.247819
-0.243072
-0.243945
-0.244517
-0.244927
-0.245262
-0.245536
-0.245762
-0.245951
-0.246113
-0.246254
-0.246379
-0.246493
-0.246601
-0.246706
-0.246815
-0.246936
-0.247071
-0.247173
-0.247211
-0.247711
-0.24334
-0.244207
-0.24477
-0.245167
-0.245486
-0.245741
-0.245946
-0.246114
-0.246252
-0.246367
-0.246467
-0.246554
-0.246635
-0.246713
-0.246794
-0.246889
-0.247001
-0.24708
-0.247094
-0.247578
-0.243706
-0.244567
-0.245118
-0.245498
-0.245796
-0.246027
-0.246205
-0.246342
-0.246449
-0.246531
-0.246596
-0.246647
-0.246691
-0.246732
-0.246777
-0.246836
-0.246915
-0.246963
-0.246946
-0.247409
-0.244172
-0.245026
-0.245563
-0.245922
-0.246193
-0.246394
-0.246537
-0.246637
-0.246704
-0.246744
-0.246764
-0.24677
-0.246766
-0.246759
-0.246756
-0.246768
-0.246803
-0.24681
-0.246751
-0.247189
-0.244741
-0.245588
-0.246108
-0.246441
-0.246681
-0.246843
-0.246945
-0.247
-0.247018
-0.247006
-0.246971
-0.246919
-0.246856
-0.246788
-0.246723
-0.246675
-0.246653
-0.246607
-0.246495
-0.246901
-0.245421
-0.246258
-0.246757
-0.247059
-0.24726
-0.247379
-0.247431
-0.247432
-0.247393
-0.247319
-0.247219
-0.247097
-0.246961
-0.246817
-0.246674
-0.24655
-0.246454
-0.246339
-0.246159
-0.246527
-0.246217
-0.247042
-0.247514
-0.247781
-0.247937
-0.248004
-0.247999
-0.247939
-0.247833
-0.247688
-0.247511
-0.247307
-0.247083
-0.246846
-0.246608
-0.246387
-0.246198
-0.245993
-0.245726
-0.246047
-0.247139
-0.247946
-0.248387
-0.24861
-0.248714
-0.248722
-0.248654
-0.248524
-0.248344
-0.248119
-0.247855
-0.247556
-0.247229
-0.246882
-0.246528
-0.246186
-0.245878
-0.245557
-0.245176
-0.245436
-0.248197
-0.248979
-0.24938
-0.249552
-0.249597
-0.24954
-0.249401
-0.249195
-0.248934
-0.248621
-0.248261
-0.247857
-0.247413
-0.246938
-0.246444
-0.245956
-0.245497
-0.245024
-0.244493
-0.24467
-0.249403
-0.250149
-0.250502
-0.250615
-0.250591
-0.250461
-0.250244
-0.249958
-0.24961
-0.249204
-0.248742
-0.248224
-0.247652
-0.247032
-0.246376
-0.24571
-0.245062
-0.244392
-0.243658
-0.243719
-0.250768
-0.251466
-0.251759
-0.251801
-0.251701
-0.25149
-0.25119
-0.250817
-0.250379
-0.249878
-0.24931
-0.248673
-0.247965
-0.247187
-0.246348
-0.245473
-0.244594
-0.243668
-0.24266
-0.242549
-0.252304
-0.252938
-0.253158
-0.253119
-0.25293
-0.252628
-0.252238
-0.251774
-0.251244
-0.250646
-0.249973
-0.249217
-0.24837
-0.247426
-0.246387
-0.245274
-0.244118
-0.242869
-0.24149
-0.241119
-0.254024
-0.254576
-0.254706
-0.254571
-0.254281
-0.253878
-0.253387
-0.252827
-0.252201
-0.251505
-0.250729
-0.249857
-0.248874
-0.247763
-0.246516
-0.245143
-0.243667
-0.242022
-0.240147
-0.239384
-0.255941
-0.25639
-0.256413
-0.256163
-0.255755
-0.255236
-0.254634
-0.253968
-0.253241
-0.252446
-0.251567
-0.250585
-0.249472
-0.248201
-0.246748
-0.245105
-0.243279
-0.24117
-0.238661
-0.237318
-0.258069
-0.258392
-0.258285
-0.257901
-0.257355
-0.2567
-0.255971
-0.255185
-0.254347
-0.253447
-0.252466
-0.251377
-0.250144
-0.248728
-0.247085
-0.245184
-0.243008
-0.24041
-0.237153
-0.234983
-0.260423
-0.260596
-0.260336
-0.259792
-0.259084
-0.258271
-0.257392
-0.256469
-0.255505
-0.254489
-0.253401
-0.252208
-0.250867
-0.249327
-0.247523
-0.245396
-0.242896
-0.239817
-0.235704
-0.232307
-0.263025
-0.263021
-0.262581
-0.261849
-0.26095
-0.259952
-0.258899
-0.257815
-0.256705
-0.255561
-0.254361
-0.253071
-0.251647
-0.25003
-0.248138
-0.245874
-0.243122
-0.239531
-0.234236
-0.228821
-0.2659
-0.265691
-0.26504
-0.26409
-0.262969
-0.261756
-0.260501
-0.259231
-0.257957
-0.256673
-0.255362
-0.254002
-0.252562
-0.251006
-0.249283
-0.247334
-0.245044
-0.241956
-0.236847
-0.230869
-0.269084
-0.268636
-0.26774
-0.26654
-0.265165
-0.263706
-0.262221
-0.260743
-0.259287
-0.257853
-0.256439
-0.255041
-0.253665
-0.25234
-0.251136
-0.25021
-0.24985
-0.250519
-0.2539
-0.267067
-0.272617
-0.271893
-0.270717
-0.269232
-0.267572
-0.265839
-0.264099
-0.262393
-0.260739
-0.259149
-0.257633
-0.256208
-0.254912
-0.253823
-0.253079
-0.252923
-0.253753
-0.256154
-0.261407
-0.274319
-0.276549
-0.275505
-0.274012
-0.272209
-0.270234
-0.268202
-0.266188
-0.264238
-0.262378
-0.26063
-0.259013
-0.257565
-0.256345
-0.255458
-0.255066
-0.255418
-0.256869
-0.259872
-0.265072
-0.275179
-0.280935
-0.279521
-0.277671
-0.275518
-0.273202
-0.27085
-0.268547
-0.266345
-0.264276
-0.262366
-0.260647
-0.259163
-0.257987
-0.257225
-0.25703
-0.257605
-0.259206
-0.262106
-0.266584
-0.2739
-0.285835
-0.283994
-0.281746
-0.279213
-0.276533
-0.273846
-0.271244
-0.268782
-0.266497
-0.264418
-0.262578
-0.261025
-0.259825
-0.25907
-0.258879
-0.259392
-0.260753
-0.263086
-0.266483
-0.271237
-0.291305
-0.288975
-0.286288
-0.283349
-0.280285
-0.27725
-0.27434
-0.271611
-0.269098
-0.266827
-0.26483
-0.263143
-0.261821
-0.26093
-0.260547
-0.260749
-0.261598
-0.263116
-0.265323
-0.267988
-0.2974
-0.294515
-0.291349
-0.287979
-0.284515
-0.281121
-0.277892
-0.27488
-0.272114
-0.269611
-0.267392
-0.265482
-0.263914
-0.262729
-0.261967
-0.26166
-0.261817
-0.262413
-0.263438
-0.264466
-0.304168
-0.300658
-0.296975
-0.293153
-0.289275
-0.285508
-0.281943
-0.278621
-0.275556
-0.272755
-0.270225
-0.267974
-0.26602
-0.264381
-0.263074
-0.262106
-0.261464
-0.261113
-0.261033
-0.260804
-0.311641
-0.307441
-0.303207
-0.298914
-0.294607
-0.290449
-0.286519
-0.282838
-0.279406
-0.276214
-0.273254
-0.270525
-0.268034
-0.265788
-0.263796
-0.262056
-0.260558
-0.259274
-0.258183
-0.256956
-0.319841
-0.314887
-0.310072
-0.305293
-0.30054
-0.295962
-0.291619
-0.287509
-0.283613
-0.279906
-0.276376
-0.273019
-0.269839
-0.266849
-0.264059
-0.261475
-0.259095
-0.256908
-0.254893
-0.252832
-0.328768
-0.323005
-0.317585
-0.312306
-0.307082
-0.302041
-0.297214
-0.292575
-0.288086
-0.283719
-0.279462
-0.275322
-0.271315
-0.267466
-0.263797
-0.260326
-0.257062
-0.254008
-0.251141
-0.248334
-0.338399
-0.331783
-0.325742
-0.319947
-0.314217
-0.308647
-0.303237
-0.297937
-0.2927
-0.287508
-0.282365
-0.277298
-0.272346
-0.267552
-0.262954
-0.258579
-0.254446
-0.250563
-0.246904
-0.243402
-0.348684
-0.341184
-0.334512
-0.328181
-0.321894
-0.315704
-0.30958
-0.303458
-0.2973
-0.291111
-0.284929
-0.278812
-0.272826
-0.267034
-0.261485
-0.256214
-0.251238
-0.246568
-0.242167
-0.238009
-0.359543
-0.351144
-0.343836
-0.336939
-0.330023
-0.323091
-0.316092
-0.308965
-0.301702
-0.294353
-0.287
-0.279739
-0.272664
-0.265852
-0.259357
-0.253213
-0.247435
-0.242023
-0.236928
-0.23215
-0.370859
-0.361562
-0.353616
-0.346113
-0.338467
-0.330643
-0.322582
-0.314256
-0.305711
-0.297057
-0.288431
-0.279968
-0.271781
-0.263955
-0.256541
-0.249565
-0.243031
-0.236927
-0.231186
-0.22583
-0.382477
-0.372303
-0.363717
-0.355547
-0.347047
-0.338151
-0.328828
-0.319109
-0.309122
-0.299051
-0.289088
-0.279399
-0.270109
-0.261299
-0.25301
-0.245253
-0.238016
-0.231274
-0.224937
-0.219055
-0.394202
-0.383189
-0.373957
-0.365041
-0.355534
-0.345369
-0.334579
-0.323291
-0.311735
-0.300174
-0.288848
-0.277944
-0.267586
-0.257843
-0.248736
-0.240256
-0.232377
-0.225053
-0.218175
-0.211822
-0.405797
-0.394
-0.384112
-0.374348
-0.363661
-0.352022
-0.339572
-0.32657
-0.313358
-0.300275
-0.287599
-0.275522
-0.264155
-0.253542
-0.243684
-0.234548
-0.226089
-0.218245
-0.210881
-0.20412
-0.416991
-0.404479
-0.393913
-0.383181
-0.371128
-0.357815
-0.343542
-0.328721
-0.313813
-0.299221
-0.285242
-0.272059
-0.259756
-0.248352
-0.237817
-0.228095
-0.219123
-0.210821
-0.203033
-0.195929
-0.427474
-0.414329
-0.403056
-0.391219
-0.377612
-0.362448
-0.346226
-0.329532
-0.312935
-0.296887
-0.281683
-0.267481
-0.254334
-0.242223
-0.231091
-0.220858
-0.211445
-0.202751
-0.1946
-0.187223
-0.428836
-0.415683
-0.404393
-0.39252
-0.378858
-0.363625
-0.347325
-0.33055
-0.313873
-0.297746
-0.282468
-0.268196
-0.254982
-0.242808
-0.231615
-0.221324
-0.211855
-0.203107
-0.194905
-0.187478
-0.418394
-0.405873
-0.395292
-0.384528
-0.372426
-0.359049
-0.344701
-0.3298
-0.31481
-0.300138
-0.286082
-0.272825
-0.260452
-0.24898
-0.238379
-0.228595
-0.219563
-0.211203
-0.203358
-0.1962
-0.407235
-0.395427
-0.385524
-0.375733
-0.365003
-0.353306
-0.340786
-0.327707
-0.314415
-0.301251
-0.288495
-0.276341
-0.264899
-0.254214
-0.244287
-0.235084
-0.22656
-0.218652
-0.211228
-0.204408
-0.395667
-0.384641
-0.375396
-0.366456
-0.356912
-0.346696
-0.335842
-0.324482
-0.312848
-0.301206
-0.2898
-0.278816
-0.26838
-0.258561
-0.24938
-0.240829
-0.23288
-0.225489
-0.218544
-0.212128
-0.383963
-0.373774
-0.365175
-0.356986
-0.348454
-0.339514
-0.330134
-0.320349
-0.310288
-0.30014
-0.290096
-0.280326
-0.270955
-0.262066
-0.253699
-0.245866
-0.238555
-0.23174
-0.225332
-0.21938
-0.37236
-0.363047
-0.355089
-0.347568
-0.339897
-0.332035
-0.323926
-0.31554
-0.306927
-0.298199
-0.289495
-0.28095
-0.272682
-0.264773
-0.257278
-0.250221
-0.243607
-0.237425
-0.231607
-0.226177
-0.361053
-0.352637
-0.345317
-0.338406
-0.331468
-0.324505
-0.317466
-0.310287
-0.302964
-0.295546
-0.288118
-0.280778
-0.273621
-0.266724
-0.260145
-0.253916
-0.248053
-0.242557
-0.237379
-0.23252
-0.350199
-0.342681
-0.335997
-0.329653
-0.323349
-0.317135
-0.310978
-0.304812
-0.298602
-0.292352
-0.2861
-0.279907
-0.273841
-0.267964
-0.262328
-0.256967
-0.251902
-0.247142
-0.242652
-0.238406
-0.339914
-0.333281
-0.327228
-0.321421
-0.315677
-0.310088
-0.304653
-0.299318
-0.294038
-0.288793
-0.283587
-0.27845
-0.27342
-0.268542
-0.263855
-0.259389
-0.255161
-0.251182
-0.247427
-0.243831
-0.330282
-0.324501
-0.319069
-0.313779
-0.308544
-0.303488
-0.298643
-0.293978
-0.289454
-0.285044
-0.280734
-0.276529
-0.272449
-0.268519
-0.264761
-0.261196
-0.257833
-0.254677
-0.251708
-0.248799
-0.321352
-0.316379
-0.311551
-0.306762
-0.302
-0.297412
-0.293056
-0.288929
-0.285007
-0.281267
-0.277693
-0.27428
-0.271034
-0.267966
-0.265089
-0.26241
-0.259928
-0.257633
-0.255507
-0.253336
-0.313147
-0.308928
-0.30468
-0.300378
-0.296064
-0.291899
-0.287962
-0.284271
-0.280823
-0.277607
-0.274613
-0.271838
-0.269288
-0.266971
-0.264895
-0.263061
-0.261457
-0.26006
-0.258849
-0.257504
-0.305668
-0.302139
-0.298442
-0.294611
-0.290727
-0.286957
-0.28339
-0.280064
-0.276992
-0.274176
-0.271622
-0.269336
-0.267332
-0.26563
-0.264244
-0.263183
-0.262435
-0.261966
-0.261757
-0.261397
-0.298895
-0.295988
-0.292809
-0.28943
-0.285963
-0.282568
-0.279343
-0.276333
-0.273566
-0.271058
-0.268825
-0.266889
-0.265282
-0.264043
-0.263209
-0.262812
-0.262863
-0.263337
-0.264224
-0.265106
-0.292793
-0.29044
-0.287739
-0.284794
-0.281728
-0.278696
-0.275794
-0.273073
-0.270566
-0.268299
-0.266296
-0.264594
-0.263242
-0.262305
-0.261859
-0.261977
-0.262721
-0.264115
-0.266175
-0.268676
-0.287314
-0.285449
-0.283188
-0.28065
-0.27797
-0.27529
-0.2727
-0.270252
-0.267981
-0.265911
-0.264075
-0.262515
-0.261295
-0.260505
-0.260259
-0.260695
-0.261956
-0.264163
-0.267407
-0.271976
-0.282403
-0.280964
-0.279101
-0.276945
-0.274633
-0.272292
-0.270006
-0.267823
-0.265773
-0.26388
-0.262171
-0.260689
-0.259502
-0.258714
-0.258473
-0.25898
-0.260486
-0.263262
-0.267583
-0.274694
-0.278
-0.276931
-0.275427
-0.273624
-0.271656
-0.269639
-0.267646
-0.265721
-0.263887
-0.262161
-0.260563
-0.259123
-0.2579
-0.256995
-0.256566
-0.256858
-0.258222
-0.261106
-0.266147
-0.276032
-0.274045
-0.273296
-0.272112
-0.27063
-0.268982
-0.267268
-0.265555
-0.263878
-0.262255
-0.260694
-0.259202
-0.257792
-0.2565
-0.255399
-0.254626
-0.254418
-0.255168
-0.257455
-0.262543
-0.275212
-0.270481
-0.27001
-0.269109
-0.267915
-0.266556
-0.265122
-0.263668
-0.262225
-0.260804
-0.259405
-0.25802
-0.256643
-0.255277
-0.253948
-0.252722
-0.251754
-0.251324
-0.25189
-0.255109
-0.268025
-0.267257
-0.267028
-0.266374
-0.265435
-0.264334
-0.26315
-0.26193
-0.260701
-0.259468
-0.258222
-0.256946
-0.255612
-0.254188
-0.252635
-0.2509
-0.248921
-0.246585
-0.243431
-0.238211
-0.232141
-0.26433
-0.264312
-0.263872
-0.263155
-0.26228
-0.261315
-0.260302
-0.259262
-0.258198
-0.257097
-0.255936
-0.254678
-0.253276
-0.251668
-0.249772
-0.247489
-0.244704
-0.241066
-0.23568
-0.230218
-0.261667
-0.261831
-0.261576
-0.26105
-0.26037
-0.259594
-0.258758
-0.257882
-0.256967
-0.255999
-0.254954
-0.253797
-0.252484
-0.250961
-0.249161
-0.247026
-0.244507
-0.241397
-0.237211
-0.233803
-0.259241
-0.259562
-0.259466
-0.259102
-0.258587
-0.257972
-0.257288
-0.256553
-0.255767
-0.254917
-0.253983
-0.252935
-0.251736
-0.250343
-0.248713
-0.246815
-0.244635
-0.24202
-0.238709
-0.23656
-0.257033
-0.257487
-0.257525
-0.257299
-0.256925
-0.256447
-0.255893
-0.255278
-0.254605
-0.253863
-0.253035
-0.252097
-0.251023
-0.249782
-0.248351
-0.246722
-0.244904
-0.242793
-0.240246
-0.238951
-0.255029
-0.255594
-0.255744
-0.255635
-0.255381
-0.25502
-0.254578
-0.25407
-0.253499
-0.252857
-0.252133
-0.25131
-0.250369
-0.249295
-0.248077
-0.246728
-0.245273
-0.243638
-0.241743
-0.241046
-0.253216
-0.253872
-0.254116
-0.254105
-0.253954
-0.253695
-0.253352
-0.252941
-0.252465
-0.251922
-0.251302
-0.250597
-0.249796
-0.248894
-0.247891
-0.24681
-0.245685
-0.244458
-0.243075
-0.242782
-0.251585
-0.252313
-0.252633
-0.252707
-0.252643
-0.252474
-0.252222
-0.251901
-0.251517
-0.251069
-0.250555
-0.24997
-0.249311
-0.248578
-0.24778
-0.246944
-0.246104
-0.245209
-0.24421
-0.244185
-0.250125
-0.250908
-0.251291
-0.251436
-0.251449
-0.251361
-0.25119
-0.250954
-0.250658
-0.250305
-0.249896
-0.249429
-0.248908
-0.248335
-0.247724
-0.247102
-0.246499
-0.245865
-0.245151
-0.245301
-0.248826
-0.24965
-0.250085
-0.250289
-0.25037
-0.250353
-0.250258
-0.2501
-0.249888
-0.249627
-0.249318
-0.248964
-0.248571
-0.248144
-0.247697
-0.247255
-0.246843
-0.246411
-0.245906
-0.246174
-0.247679
-0.248532
-0.249007
-0.249262
-0.249401
-0.249448
-0.249421
-0.249337
-0.249203
-0.249026
-0.248811
-0.248561
-0.248283
-0.247984
-0.247676
-0.247382
-0.247122
-0.246843
-0.246492
-0.246839
-0.246674
-0.247547
-0.248054
-0.248351
-0.24854
-0.248643
-0.248678
-0.248658
-0.248596
-0.248496
-0.248364
-0.248206
-0.248028
-0.247837
-0.247644
-0.247469
-0.247327
-0.247164
-0.246928
-0.247331
-0.245801
-0.246686
-0.247218
-0.247551
-0.247783
-0.247934
-0.248022
-0.24806
-0.24806
-0.248028
-0.247969
-0.247889
-0.247795
-0.247694
-0.247594
-0.247512
-0.247461
-0.247385
-0.247236
-0.247679
-0.245051
-0.245945
-0.246496
-0.246857
-0.247124
-0.247317
-0.24745
-0.247538
-0.247591
-0.247615
-0.247618
-0.247604
-0.247578
-0.247549
-0.247522
-0.247513
-0.247531
-0.247521
-0.247437
-0.247909
-0.244419
-0.245316
-0.245882
-0.246265
-0.246562
-0.246788
-0.246958
-0.247087
-0.247184
-0.247255
-0.247308
-0.247346
-0.247376
-0.247402
-0.247432
-0.247479
-0.247548
-0.247586
-0.247553
-0.248047
-0.243898
-0.244796
-0.245372
-0.245773
-0.246092
-0.246344
-0.246545
-0.246706
-0.246838
-0.246946
-0.247038
-0.247116
-0.247188
-0.247257
-0.24733
-0.247418
-0.247525
-0.247599
-0.247603
-0.248113
-0.243482
-0.24438
-0.244963
-0.245377
-0.245713
-0.245985
-0.246208
-0.246394
-0.246552
-0.246688
-0.246808
-0.246917
-0.24702
-0.24712
-0.247224
-0.247341
-0.247476
-0.247575
-0.247606
-0.248126
-0.243169
-0.244065
-0.244652
-0.245074
-0.245422
-0.245708
-0.245947
-0.24615
-0.246326
-0.246482
-0.246622
-0.246751
-0.246875
-0.246996
-0.247121
-0.247258
-0.24741
-0.247526
-0.247576
-0.248102
-0.242956
-0.243849
-0.244438
-0.244864
-0.245218
-0.245513
-0.245761
-0.245974
-0.246161
-0.246328
-0.24648
-0.246622
-0.246758
-0.246891
-0.247028
-0.247176
-0.247338
-0.247464
-0.247525
-0.248053
-0.242841
-0.24373
-0.244318
-0.244745
-0.245101
-0.245399
-0.24565
-0.245867
-0.246058
-0.246228
-0.246385
-0.246531
-0.246671
-0.246809
-0.24695
-0.247102
-0.247267
-0.247396
-0.247461
-0.247988
-0.266372
-0.254814
-0.284059
-0.29517
-0.25622
-0.185441
-0.120361
-0.0776269
-0.0451691
-0.0187856
-0.00752083
0.00177444
0.00467205
0.00851214
0.00912397
0.00969681
0.0087237
0.00646895
0.00369163
0.00221542
-0.266278
-0.255116
-0.286232
-0.298236
-0.257483
-0.183868
-0.117389
-0.0750624
-0.0439947
-0.0192103
-0.0086643
0.000386174
0.00347678
0.0079062
0.0088927
0.0100115
0.00923808
0.00703701
0.00426011
0.00240328
-0.266282
-0.255449
-0.288411
-0.301427
-0.258988
-0.182534
-0.114564
-0.0725694
-0.0428852
-0.0196717
-0.00982515
-0.000979677
0.00231899
0.00732265
0.00867045
0.0103214
0.00973675
0.00760254
0.00482786
0.00259159
-0.266367
-0.255795
-0.29055
-0.30468
-0.260699
-0.181453
-0.11193
-0.0701908
-0.0418649
-0.0201695
-0.010994
-0.00231265
0.00120833
0.00676574
0.00846039
0.0106241
0.0102154
0.00815995
0.00538781
0.00277727
-0.266512
-0.256131
-0.2926
-0.307925
-0.262573
-0.180631
-0.109528
-0.0679685
-0.0409565
-0.020704
-0.0121624
-0.00360501
0.000151403
0.00623769
0.00826438
0.0109167
0.01067
0.00870366
0.00593298
0.00295722
-0.266692
-0.256437
-0.294514
-0.311091
-0.264565
-0.180073
-0.107396
-0.0659407
-0.0401797
-0.0212756
-0.0133231
-0.00485147
-0.00084811
0.00573884
0.00808296
0.0111958
0.0110968
0.0092281
0.0064567
0.00312841
-0.266879
-0.25669
-0.296244
-0.314112
-0.266628
-0.179776
-0.105565
-0.0641399
-0.0395495
-0.0218846
-0.0144696
-0.00604907
-0.0017892
0.00526788
0.00791543
0.0114576
0.0114926
0.00972798
0.00695285
0.00328808
-0.267046
-0.25687
-0.297749
-0.316928
-0.268721
-0.179737
-0.10406
-0.0625916
-0.039076
-0.0225307
-0.0155968
-0.00719674
-0.00267311
0.00482218
0.00775997
0.0116984
0.0118548
0.0101984
0.00741607
0.00343378
-0.267168
-0.256961
-0.298992
-0.319488
-0.270805
-0.179953
-0.1029
-0.0613131
-0.038764
-0.0232128
-0.0167
-0.00829491
-0.00350282
0.0043981
0.00761391
0.0119145
0.0121811
0.0106349
0.00784192
0.00356353
-0.267222
-0.256947
-0.299946
-0.32175
-0.272849
-0.180416
-0.102093
-0.0603134
-0.0386128
-0.0239293
-0.0177756
-0.00934512
-0.00428256
0.00399141
0.00747391
0.0121025
0.0124699
0.0110339
0.00822698
0.00367589
-0.267189
-0.256819
-0.300588
-0.323683
-0.274827
-0.181121
-0.101646
-0.0595939
-0.038617
-0.0246772
-0.0188204
-0.0103496
-0.00501729
0.00359763
0.0073363
0.0122591
0.0127203
0.0113923
0.00856891
0.00376995
-0.267055
-0.256573
-0.300904
-0.325262
-0.276721
-0.18206
-0.101554
-0.0591489
-0.0387672
-0.0254531
-0.0198319
-0.0113109
-0.00571235
0.00321231
0.00719728
0.0123819
0.0129316
0.0117079
0.00886644
0.00384541
-0.266812
-0.256207
-0.300884
-0.326473
-0.278518
-0.183231
-0.101812
-0.0589679
-0.0390511
-0.0262528
-0.0208081
-0.012232
-0.00637315
0.00283122
0.00705314
0.0124688
0.013104
0.0119791
0.00911934
0.00390248
-0.266458
-0.255724
-0.300524
-0.327305
-0.280209
-0.184629
-0.102412
-0.0590367
-0.0394546
-0.0270722
-0.0217478
-0.0131158
-0.00700493
0.00245046
0.00690039
0.0125184
0.0132378
0.0122054
0.00932833
0.00394189
-0.265984
-0.255127
-0.299824
-0.327747
-0.281774
-0.186232
-0.103333
-0.0593355
-0.0399607
-0.0279055
-0.022649
-0.0139643
-0.00761194
0.00206691
0.00673613
0.0125297
0.0133339
0.0123863
0.00949484
0.00396478
-0.265376
-0.254414
-0.298789
-0.327787
-0.283162
-0.187979
-0.104526
-0.0598336
-0.0405478
-0.0287451
-0.0235089
-0.0147778
-0.00819646
0.00167918
0.00655858
0.0125026
0.0133932
0.0125223
0.00962086
0.00397259
-0.264662
-0.253623
-0.297445
-0.327451
-0.284401
-0.189872
-0.105972
-0.0605098
-0.0412052
-0.0295874
-0.0243297
-0.0155594
-0.00876252
0.00128687
0.00636663
0.0124401
0.0134179
0.0126159
0.00970938
0.00396676
-0.263923
-0.252858
-0.295788
-0.326825
-0.285829
-0.192285
-0.107883
-0.0614348
-0.0419738
-0.0304555
-0.0251354
-0.0163299
-0.00932891
0.000881554
0.00615463
0.0123468
0.0134118
0.012673
0.00976571
0.00394876
-0.262577
-0.251939
-0.293594
-0.32574
-0.287633
-0.195619
-0.110556
-0.0627293
-0.0428831
-0.0313772
-0.0259454
-0.0171156
-0.00992095
0.000437737
0.00590889
0.0122089
0.0133747
0.0126919
0.00979395
0.00392201
-0.258315
-0.249762
-0.290732
-0.323241
-0.287588
-0.197677
-0.112723
-0.0638636
-0.0435394
-0.032177
-0.0266035
-0.017809
-0.0104565
-3.17052e-05
0.00564265
0.0119704
0.0132866
0.012628
0.00977792
0.0038946
-0.218223
-0.228241
-0.272383
-0.301679
-0.272978
-0.195442
-0.117037
-0.0669391
-0.0442323
-0.0350356
-0.0288196
-0.0207074
-0.0128484
-0.00270253
0.00407707
0.00991285
0.0124085
0.0116522
0.00936195
0.00376459
-0.180325
-0.21144
-0.241344
-0.257388
-0.235379
-0.178912
-0.117939
-0.0741662
-0.0503933
-0.0388916
-0.0303363
-0.0219748
-0.0144995
-0.00580358
0.000845733
0.00593669
0.00865576
0.00823183
0.00650813
0.00242868
-0.164049
-0.189058
-0.206697
-0.212342
-0.196255
-0.158492
-0.113944
-0.0777851
-0.0542322
-0.0399694
-0.0301753
-0.0222856
-0.015799
-0.00900246
-0.00298879
0.00145653
0.00416579
0.00461452
0.00381865
0.00163898
-0.137445
-0.161864
-0.172752
-0.174301
-0.163639
-0.138315
-0.10553
-0.0765421
-0.0557799
-0.041748
-0.0318714
-0.0241938
-0.0180717
-0.0121616
-0.00647371
-0.00210287
0.000816187
0.00204367
0.00201885
0.000998955
-0.114503
-0.135988
-0.144814
-0.145646
-0.138224
-0.120468
-0.0966302
-0.0747336
-0.058003
-0.0450194
-0.034484
-0.0260894
-0.0196925
-0.0142203
-0.00901329
-0.00481898
-0.00186989
-0.000196775
0.000376618
0.000270062
-0.0951919
-0.114176
-0.122557
-0.123611
-0.118231
-0.105921
-0.0892879
-0.073062
-0.059161
-0.0467788
-0.03583
-0.0271328
-0.0207848
-0.015762
-0.011064
-0.00703238
-0.00400864
-0.00197658
-0.000764982
-3.93952e-05
-0.080157
-0.0965649
-0.104641
-0.106284
-0.102862
-0.0947399
-0.0830577
-0.0702789
-0.0581049
-0.0467396
-0.0364658
-0.0281196
-0.0218961
-0.0170547
-0.0126409
-0.0087058
-0.00560532
-0.00329497
-0.00162971
-0.000408485
-0.068465
-0.0825314
-0.0902084
-0.092635
-0.0909678
-0.0855638
-0.0767925
-0.0662854
-0.0558691
-0.0460791
-0.0369189
-0.0290001
-0.0227974
-0.0179977
-0.0137956
-0.0100117
-0.00688851
-0.00439668
-0.0024083
-0.00074139
-0.0593629
-0.0714217
-0.0786479
-0.0816978
-0.0812042
-0.0773843
-0.0705852
-0.0621379
-0.0535209
-0.0451555
-0.0369593
-0.0295172
-0.0234851
-0.0187998
-0.0147849
-0.0111241
-0.00795165
-0.00528775
-0.0030021
-0.000949349
-0.0522135
-0.0626072
-0.0693074
-0.0726321
-0.0728342
-0.0701488
-0.0650212
-0.0583749
-0.0511842
-0.0438912
-0.0365995
-0.0298233
-0.0241256
-0.0195521
-0.0156084
-0.0119839
-0.00874401
-0.00593097
-0.00342486
-0.00110112
-0.0465127
-0.0555206
-0.0616369
-0.0650003
-0.0657127
-0.0640025
-0.0602215
-0.054926
-0.048827
-0.0424827
-0.0361079
-0.0300288
-0.0246504
-0.0201327
-0.0162018
-0.0126058
-0.00933164
-0.00641502
-0.00374817
-0.00122052
-0.0418766
-0.0497304
-0.0552921
-0.0586293
-0.0597692
-0.0588326
-0.0560302
-0.0517585
-0.0466187
-0.0411552
-0.0355649
-0.0300521
-0.0249572
-0.0205282
-0.0166423
-0.013085
-0.00978827
-0.00678318
-0.00398459
-0.00131058
-0.0380185
-0.0449446
-0.0500531
-0.0533652
-0.0548287
-0.0544551
-0.0523881
-0.0489678
-0.0446671
-0.0399224
-0.0349282
-0.0298876
-0.0251031
-0.0208215
-0.0169906
-0.0134481
-0.0101242
-0.00704957
-0.00416215
-0.00138899
-0.034737
-0.0409587
-0.0457378
-0.0490334
-0.0507273
-0.0507792
-0.0493044
-0.0465781
-0.0429401
-0.0387516
-0.0342457
-0.0296396
-0.0251661
-0.0210315
-0.0172396
-0.0137047
-0.0103701
-0.00725627
-0.00430976
-0.00145342
-0.0318607
-0.0376161
-0.0421924
-0.0454914
-0.0473621
-0.0477505
-0.0467397
-0.0445397
-0.041413
-0.0376876
-0.033608
-0.029373
-0.025157
-0.0211502
-0.0174055
-0.0138971
-0.0105684
-0.00742552
-0.00442264
-0.00149363
-0.0292851
-0.03481
-0.0393125
-0.0426448
-0.0446572
-0.0453006
-0.0446333
-0.0428306
-0.040118
-0.0367843
-0.0330511
-0.0291002
-0.0250903
-0.0212091
-0.0175281
-0.0140523
-0.0107272
-0.00755346
-0.00449654
-0.00151504
-0.0269144
-0.0324818
-0.0370308
-0.0404194
-0.0425369
-0.0433627
-0.0429507
-0.0414589
-0.0390778
-0.0360502
-0.0325784
-0.028844
-0.0250082
-0.021244
-0.0176208
-0.0141659
-0.0108392
-0.0076417
-0.00454339
-0.00152708
-0.0247907
-0.0306332
-0.035317
-0.0387645
-0.0409507
-0.0419047
-0.0416844
-0.0404284
-0.0382909
-0.0354848
-0.0322071
-0.0286402
-0.0249411
-0.0212654
-0.0176815
-0.0142372
-0.0109092
-0.00769843
-0.00457597
-0.00153891
-0.0230358
-0.0293146
-0.0341596
-0.0376492
-0.0398755
-0.0409161
-0.0408279
-0.0397297
-0.0377529
-0.035097
-0.0319542
-0.0285025
-0.0248923
-0.0212731
-0.017714
-0.0142757
-0.0109467
-0.0077277
-0.00459756
-0.00155128
-0.0219299
-0.0286112
-0.0335659
-0.0370741
-0.0393197
-0.0404064
-0.0403862
-0.039367
-0.037473
-0.0348966
-0.0318244
-0.0284302
-0.0248627
-0.021272
-0.0177265
-0.014291
-0.0109604
-0.00773635
-0.00460724
-0.00155718
-0.148362
-0.158344
-0.168456
-0.178794
-0.189459
-0.20057
-0.212252
-0.224638
-0.237855
-0.252014
-0.267163
-0.283258
-0.300034
-0.316994
-0.333119
-0.347222
-0.357322
-0.362649
-0.36114
-0.357524
-0.0896117
-0.0929476
-0.0959636
-0.0986409
-0.100958
-0.102889
-0.104409
-0.10549
-0.106108
-0.106246
-0.105903
-0.105112
-0.103945
-0.10258
-0.101251
-0.100425
-0.100495
-0.102356
-0.106275
-0.114329
-0.0667573
-0.0710373
-0.0753511
-0.0797094
-0.0841233
-0.0886045
-0.0931654
-0.0978184
-0.102575
-0.107446
-0.112434
-0.117539
-0.122741
-0.128001
-0.133236
-0.13834
-0.143117
-0.147383
-0.150807
-0.15318
-0.0543819
-0.0573063
-0.0601871
-0.0630247
-0.0658194
-0.0685708
-0.0712786
-0.0739419
-0.0765597
-0.0791311
-0.0816557
-0.0841345
-0.0865713
-0.0889755
-0.0913647
-0.0937694
-0.0962406
-0.0988525
-0.101752
-0.105146
-0.0452102
-0.0476021
-0.0499962
-0.0523948
-0.0548
-0.0572144
-0.0596401
-0.0620797
-0.0645353
-0.0670093
-0.0695038
-0.0720203
-0.0745599
-0.0771218
-0.0797042
-0.0822994
-0.0849023
-0.0874866
-0.0900609
-0.0925581
-0.0397243
-0.041617
-0.0435064
-0.0453932
-0.0472777
-0.0491606
-0.0510425
-0.0529238
-0.0548054
-0.0566878
-0.0585718
-0.0604583
-0.0623484
-0.064243
-0.066145
-0.068055
-0.0699822
-0.0719242
-0.073923
-0.0759655
-0.0353584
-0.0368867
-0.0384157
-0.0399456
-0.0414772
-0.0430108
-0.044547
-0.0460863
-0.0476292
-0.0491763
-0.0507281
-0.052285
-0.0538477
-0.0554162
-0.0569915
-0.0585722
-0.0601625
-0.0617545
-0.0633733
-0.0649872
-0.0321524
-0.0334037
-0.0346551
-0.0359066
-0.0371583
-0.0384105
-0.0396634
-0.0409171
-0.0421719
-0.043428
-0.0446857
-0.0459453
-0.047207
-0.0484709
-0.049738
-0.0510074
-0.0522826
-0.0535585
-0.054856
-0.0561503
-0.0295836
-0.0306184
-0.0316532
-0.032688
-0.0337229
-0.034758
-0.0357934
-0.0368291
-0.0378655
-0.0389024
-0.0399401
-0.0409787
-0.0420183
-0.0430588
-0.0441008
-0.0451434
-0.046189
-0.0472333
-0.0482918
-0.0493437
-0.0275578
-0.0284215
-0.0292851
-0.0301484
-0.0310116
-0.0318747
-0.0327377
-0.0336007
-0.0344637
-0.0353267
-0.0361898
-0.0370529
-0.0379162
-0.0387795
-0.0396432
-0.0405065
-0.0413712
-0.0422341
-0.0431067
-0.0439735
-0.0259022
-0.0266256
-0.027349
-0.0280725
-0.0287961
-0.0295198
-0.0302435
-0.0309673
-0.0316912
-0.0324152
-0.0331393
-0.0338634
-0.0345875
-0.0353114
-0.0360354
-0.0367589
-0.0374831
-0.0382055
-0.0389347
-0.0396598
-0.0245193
-0.0251261
-0.0257335
-0.0263415
-0.0269502
-0.0275594
-0.0281692
-0.0287796
-0.0293905
-0.0300018
-0.0306134
-0.0312254
-0.0318375
-0.0324497
-0.033062
-0.0336739
-0.0342862
-0.0348973
-0.035513
-0.0361269
-0.0232641
-0.0237719
-0.0242812
-0.0247922
-0.0253048
-0.025819
-0.0263346
-0.0268517
-0.0273701
-0.0278897
-0.0284104
-0.0289321
-0.0294546
-0.0299778
-0.0305015
-0.0310254
-0.0315499
-0.0320739
-0.0326015
-0.0331293
-0.0220591
-0.0224837
-0.0229114
-0.0233422
-0.023776
-0.0242126
-0.0246521
-0.025094
-0.0255384
-0.0259851
-0.0264337
-0.0268841
-0.027336
-0.0277892
-0.0282435
-0.0286985
-0.0291544
-0.0296104
-0.0300691
-0.03053
-0.0206652
-0.0210199
-0.0213803
-0.0217461
-0.0221172
-0.0224933
-0.022874
-0.0232592
-0.0236485
-0.0240416
-0.0244381
-0.0248377
-0.02524
-0.0256446
-0.0260513
-0.0264597
-0.0268695
-0.0272803
-0.0276937
-0.0281109
-0.0190589
-0.0193623
-0.0196747
-0.0199957
-0.0203246
-0.0206609
-0.0210041
-0.0213536
-0.0217088
-0.0220692
-0.0224342
-0.0228033
-0.0231759
-0.0235516
-0.0239297
-0.0243099
-0.0246918
-0.0250749
-0.02546
-0.0258497
-0.0165764
-0.0168719
-0.0171804
-0.0175008
-0.017832
-0.0181728
-0.0185222
-0.0188794
-0.0192433
-0.0196131
-0.019988
-0.0203672
-0.02075
-0.0211356
-0.0215235
-0.021913
-0.0223037
-0.0226952
-0.0230874
-0.023484
-0.0133246
-0.0136835
-0.0140551
-0.014438
-0.0148306
-0.0152314
-0.0156394
-0.0160532
-0.0164717
-0.0168941
-0.0173195
-0.0177469
-0.0181757
-0.0186051
-0.0190346
-0.0194637
-0.0198917
-0.0203186
-0.0207437
-0.0211711
-0.00831816
-0.0089407
-0.00955754
-0.0101683
-0.0107725
-0.0113699
-0.0119602
-0.0125433
-0.0131189
-0.0136869
-0.0142473
-0.0147999
-0.0153446
-0.0158815
-0.0164106
-0.0169318
-0.0174451
-0.0179509
-0.0184485
-0.0189422
-0.00281123
-0.00379469
-0.00474397
-0.00566096
-0.00654747
-0.00740519
-0.00823571
-0.00904052
-0.00982102
-0.0105785
-0.0113142
-0.0120293
-0.0127248
-0.0134017
-0.0140611
-0.0147036
-0.0153302
-0.015942
-0.0165385
-0.0171244
-0.00253485
-0.00352011
-0.00447121
-0.00539006
-0.00627846
-0.00713811
-0.0079706
-0.00877741
-0.00955995
-0.0103195
-0.0110573
-0.0117745
-0.0124722
-0.0131514
-0.013813
-0.0144579
-0.0150867
-0.0157009
-0.0162998
-0.0168882
-0.0080397
-0.00866395
-0.00928253
-0.00989502
-0.0105011
-0.0111003
-0.0116926
-0.0122776
-0.0128552
-0.0134252
-0.0139876
-0.0145423
-0.0150892
-0.0156282
-0.0161595
-0.0166829
-0.0171985
-0.0177066
-0.0182065
-0.0187026
-0.0130403
-0.0134008
-0.0137741
-0.0141587
-0.014553
-0.0149556
-0.0153653
-0.015781
-0.0162015
-0.0166258
-0.0170531