/*--------------------------------*- C++ -*----------------------------------*\
  =========                 |
  \\      /  F ield         | OpenFOAM: The Open Source CFD Toolbox
   \\    /   O peration     | Website:  https://openfoam.org
    \\  /    A nd           | Version:  6.0
     \\/     M anipulation  |
\*---------------------------------------------------------------------------*/
FoamFile
{
    version     2.0;
    format      ascii;
    class       surfaceScalarField;
    location    "45";
    object      phi;
}
// * * * * * * * * * * * * * * * * * * * * * * * * * * * * * * * * * * * * * //

dimensions      [0 3 -1 0 0 0 0];

internalField   nonuniform List<scalar> 
7840
(
-2.40931e-06
2.82254e-06
-4.1323e-07
-8.5769e-06
7.46228e-06
-1.2947e-06
-1.76147e-05
1.12289e-05
-2.19114e-06
-2.87733e-05
1.4224e-05
-3.0653e-06
-4.14386e-05
1.65584e-05
-3.89311e-06
-5.5122e-05
1.83464e-05
-4.66297e-06
-6.9449e-05
1.96989e-05
-5.3719e-06
-8.41469e-05
2.07202e-05
-6.0223e-06
-9.90329e-05
2.15057e-05
-6.61967e-06
-0.000114003
2.21408e-05
-7.17072e-06
-0.000129022
2.27008e-05
-7.68221e-06
-0.000144111
2.325e-05
-8.16025e-06
-0.000159344
2.38423e-05
-8.60993e-06
-0.00017483
2.45215e-05
-9.03529e-06
-0.000190711
2.5321e-05
-9.43945e-06
-0.000207151
2.62647e-05
-9.82485e-06
-0.000224325
2.73674e-05
-1.01936e-05
-0.000242412
2.8635e-05
-1.05478e-05
-0.00026159
3.00658e-05
-1.08879e-05
3.16581e-05
-1.12144e-05
-0.000282034
-2.39683e-06
5.21937e-06
-8.52924e-06
1.35947e-05
-1.75089e-05
2.02086e-05
-2.85854e-05
2.53005e-05
-4.11426e-05
2.91156e-05
-5.46893e-05
3.1893e-05
-6.88473e-05
3.38569e-05
-8.33395e-05
3.52124e-05
-9.7978e-05
3.61442e-05
-0.000112653
3.68161e-05
-0.000127324
3.73715e-05
-0.000142008
3.79336e-05
-0.000156771
3.86061e-05
-0.000171723
3.94735e-05
-0.000187004
4.06013e-05
-0.000202776
4.20366e-05
-0.000219217
4.38087e-05
-0.000236511
4.5929e-05
-0.00025484
4.83951e-05
5.12036e-05
-0.000274386
-2.38669e-06
7.60607e-06
-8.48438e-06
1.96924e-05
-1.73989e-05
2.91231e-05
-2.83739e-05
3.62755e-05
-4.07872e-05
4.15289e-05
-5.41405e-05
4.52464e-05
-6.80478e-05
4.77642e-05
-8.22224e-05
4.9387e-05
-9.64659e-05
5.03876e-05
-0.000110657
5.10077e-05
-0.000124745
5.14587e-05
-0.000138735
5.19236e-05
-0.000152686
5.25576e-05
-0.000166701
5.34886e-05
-0.000180918
5.48176e-05
-0.0001955
5.66189e-05
-0.000210631
5.89402e-05
-0.000226504
6.18021e-05
-0.000243313
6.52041e-05
6.91428e-05
-0.000261253
-2.38003e-06
9.9861e-06
-8.44549e-06
2.57578e-05
-1.72906e-05
3.79682e-05
-2.81487e-05
4.71336e-05
-4.03878e-05
5.3768e-05
-5.34993e-05
5.83579e-05
-6.70849e-05
6.13498e-05
-8.08442e-05
6.31462e-05
-9.4563e-05
6.41065e-05
-0.000108104
6.45485e-05
-0.000121397
6.47518e-05
-0.000134433
6.49602e-05
-0.000147259
6.53827e-05
-0.000159965
6.61949e-05
-0.000172685
6.75382e-05
-0.000185587
6.95201e-05
-0.00019886
7.22132e-05
-0.000212711
7.56536e-05
-0.000227355
7.9848e-05
8.47961e-05
-0.000243008
-2.3779e-06
1.2364e-05
-8.4152e-06
3.17951e-05
-1.71887e-05
4.67417e-05
-2.79179e-05
5.78628e-05
-3.99581e-05
6.58082e-05
-5.27875e-05
7.11874e-05
-6.59931e-05
7.45553e-05
-7.92567e-05
7.64098e-05
-9.2344e-05
7.71938e-05
-0.000105095
7.72997e-05
-0.000117417
7.70741e-05
-0.000129279
7.6822e-05
-0.000140706
7.68094e-05
-0.000151775
7.7264e-05
-0.000162612
7.83747e-05
-0.000173382
8.02908e-05
-0.000184288
8.3119e-05
-0.000195555
8.69206e-05
-0.000207425
9.17182e-05
9.75206e-05
-0.00022015
-2.38081e-06
1.47448e-05
-8.39431e-06
3.78087e-05
-1.70943e-05
5.54418e-05
-2.76835e-05
6.84519e-05
-3.95029e-05
7.76276e-05
-5.20165e-05
8.3701e-05
-6.47946e-05
8.73334e-05
-7.74993e-05
8.91145e-05
-8.98724e-05
8.9567e-05
-0.000101727
8.91542e-05
-0.000112941
8.82878e-05
-0.000123452
8.73337e-05
-0.00013326
8.66169e-05
-0.000142418
8.64222e-05
-0.000151038
8.69945e-05
-0.000159282
8.85355e-05
-0.000167363
9.11994e-05
-0.000175529
9.50867e-05
-0.00018406
0.00010025
0.000106717
-0.000193257
-2.38835e-06
1.71332e-05
-8.38025e-06
4.38006e-05
-1.70015e-05
6.4063e-05
-2.74361e-05
7.88865e-05
-3.90108e-05
8.92023e-05
-5.11755e-05
9.58657e-05
-6.34842e-05
9.96421e-05
-7.55785e-05
0.000101209
-8.71745e-05
0.000101163
-9.80544e-05
0.000100034
-0.000108061
9.82944e-05
-0.000117096
9.63685e-05
-0.00012512
9.46409e-05
-0.000132156
9.34581e-05
-0.000138291
9.31295e-05
-0.000143678
9.39226e-05
-0.000148534
9.60559e-05
-0.000153137
9.9689e-05
-0.000157812
0.000104925
0.000111831
-0.000162926
-2.3987e-06
1.95319e-05
-8.36571e-06
4.97676e-05
-1.68946e-05
7.25919e-05
-2.715e-05
8.91419e-05
-3.84456e-05
0.000100498
-5.02193e-05
0.000107639
-6.20111e-05
0.000111434
-7.34437e-05
0.000112641
-8.42082e-05
0.000111927
-9.40542e-05
0.00010988
-0.000102786
0.000107026
-0.000110259
0.000103842
-0.00011639
0.000100772
-0.000121157
9.82244e-05
-0.000124609
9.65815e-05
-0.000126877
9.61907e-05
-0.000128177
9.73561e-05
-0.000128811
0.000100323
-0.000129163
0.000105277
0.000112353
-0.000129685
-2.40833e-06
2.19402e-05
-8.33759e-06
5.56968e-05
-1.67457e-05
8.1e-05
-2.67784e-05
9.91747e-05
-3.77386e-05
0.000111458
-4.90561e-05
0.000118957
-6.02612e-05
0.000122639
-7.0962e-05
0.000123342
-8.08277e-05
0.000121793
-8.95775e-05
0.00011863
-9.69749e-05
0.000114423
-0.000102828
0.000109696
-0.000106996
0.00010494
-0.0001094
0.000100628
-0.000110037
9.72178e-05
-0.000108996
9.51498e-05
-0.000106476
9.48369e-05
-0.000102798
9.6645e-05
-9.84062e-05
0.000100885
0.00010781
-9.38639e-05
-2.41187e-06
2.43521e-05
-8.27653e-06
6.15615e-05
-1.65138e-05
8.92372e-05
-2.62512e-05
0.000108912
-3.67839e-05
0.000121991
-4.75384e-05
0.000129711
-5.80413e-05
0.000133142
-6.78931e-05
0.000133194
-7.6748e-05
0.000130648
-8.43002e-05
0.000126182
-9.0277e-05
0.0001204
-9.44376e-05
0.000113856
-9.65801e-05
0.000107082
-9.65556e-05
0.000100604
-9.42892e-05
9.49514e-05
-8.98076e-05
9.06682e-05
-8.32687e-05
8.8298e-05
-7.49906e-05
8.83668e-05
-6.54765e-05
9.13707e-05
9.77578e-05
-5.54239e-05
-2.40238e-06
2.67545e-05
-8.15754e-06
6.73166e-05
-1.6145e-05
9.72247e-05
-2.54747e-05
0.000118242
-3.54366e-05
0.000131953
-4.54584e-05
0.000139733
-5.50699e-05
0.000142753
-6.38721e-05
0.000141996
-7.15144e-05
0.00013829
-7.7677e-05
0.000132345
-8.20603e-05
0.000124783
-8.43818e-05
0.000116178
-8.43808e-05
0.000107081
-8.18329e-05
9.80557e-05
-7.65757e-05
8.96943e-05
-6.85462e-05
8.26387e-05
-5.78278e-05
7.75796e-05
-4.47043e-05
7.52433e-05
-2.97182e-05
7.63845e-05
8.17571e-05
-1.37174e-05
-2.37187e-06
2.91263e-05
-7.95155e-06
7.28963e-05
-1.55758e-05
0.000104849
-2.43359e-05
0.000127002
-3.3517e-05
0.000141134
-4.25512e-05
0.000148768
-5.09765e-05
0.000151179
-5.84033e-05
0.000149423
-6.44873e-05
0.000144374
-6.8909e-05
0.000136767
-7.13589e-05
0.000127233
-7.15294e-05
0.000116348
-6.91147e-05
0.000104667
-6.38218e-05
9.27628e-05
-5.53955e-05
8.1268e-05
-4.36619e-05
7.0905e-05
-2.85918e-05
6.25096e-05
-1.03854e-05
5.70369e-05
1.04189e-05
5.55802e-05
5.93506e-05
3.28254e-05
-2.31223e-06
3.14386e-05
-7.62812e-06
7.82122e-05
-1.47377e-05
0.000111959
-2.27093e-05
0.000134973
-3.08206e-05
0.000149245
-3.85069e-05
0.000156454
-4.5316e-05
0.000157988
-5.08725e-05
0.000154979
-5.48488e-05
0.000148351
-5.6941e-05
0.000138859
-5.68507e-05
0.000127143
-5.42716e-05
0.000113769
-4.88819e-05
9.9277e-05
-4.03465e-05
8.42274e-05
-2.83343e-05
6.92557e-05
-1.25578e-05
5.51285e-05
7.15447e-06
4.27973e-05
3.07455e-05
3.34459e-05
5.77568e-05
2.85689e-05
3.00203e-05
8.70871e-05
-2.2163e-06
3.36549e-05
-7.15873e-06
8.31546e-05
-1.35636e-05
0.000118363
-2.0468e-05
0.000141878
-2.71342e-05
0.000155911
-3.29928e-05
0.000162312
-3.75965e-05
0.000162592
-4.05826e-05
0.000157966
-4.16433e-05
0.000149411
-4.05013e-05
0.000137717
-3.68903e-05
0.000123532
-3.05368e-05
0.000107416
-2.11458e-05
8.9886e-05
-8.39099e-06
7.14727e-05
8.08394e-06
5.27808e-05
2.86428e-05
3.45696e-05
5.35955e-05
1.78447e-05
8.30761e-05
3.9653e-06
0.000116811
-5.16643e-06
-6.87624e-06
0.000153708
-2.0789e-06
3.57338e-05
-6.51993e-06
8.75957e-05
-1.19945e-05
0.000123838
-1.7495e-05
0.000147378
-2.22533e-05
0.000160669
-2.56808e-05
0.00016574
-2.73205e-05
0.000164231
-2.68094e-05
0.000157455
-2.38516e-05
0.000146453
-1.8196e-05
0.000132061
-9.61884e-06
0.000114955
2.09326e-06
9.57035e-05
1.71608e-05
7.48185e-05
3.58305e-05
5.28029e-05
5.83937e-05
3.02176e-05
8.51935e-05
7.76978e-06
0.000116602
-1.35634e-05
0.000152931
-3.23645e-05
0.000194199
-4.64341e-05
-5.2202e-05
0.000239525
-1.8975e-06
3.76313e-05
-5.69549e-06
9.13937e-05
-9.9841e-06
0.000128127
-1.36919e-05
0.000151086
-1.59995e-05
0.000162977
-1.62757e-05
0.000166016
-1.40285e-05
0.000161984
-8.86991e-06
0.000152296
-4.91431e-07
0.000138075
1.13511e-05
0.000120219
2.68484e-05
9.94574e-05
4.61464e-05
7.64055e-05
6.93578e-05
5.1607e-05
9.65801e-05
2.55807e-05
0.000127923
-1.12561e-06
0.000163548
-2.78549e-05
0.0002037
-5.3715e-05
0.000248716
-7.73813e-05
0.000298912
-9.66301e-05
-0.00010716
0.00035387
-1.67213e-06
3.93034e-05
-4.6763e-06
9.43978e-05
-7.49942e-06
0.00013095
-8.98254e-06
0.000152569
-8.22812e-06
0.000162223
-4.53226e-06
0.00016232
2.6657e-06
0.000154786
1.38169e-05
0.000141145
2.9282e-05
0.00012261
4.93392e-05
0.000100161
7.41835e-05
7.4613e-05
0.000103922
4.66674e-05
0.000138565
1.69632e-05
0.000178031
-1.38848e-05
0.000222152
-4.52463e-05
0.000270717
-7.64206e-05
0.000323546
-0.000106544
0.000380604
-0.000134439
0.000442173
-0.000158199
-0.000173507
0.00050852
-1.40434e-06
4.07077e-05
-3.45753e-06
9.6451e-05
-4.51626e-06
0.000132008
-3.3068e-06
0.00015136
1.17651e-06
0.000157739
9.7445e-06
0.000153752
2.30657e-05
0.000141465
4.16988e-05
0.000122512
6.61076e-05
9.82011e-05
9.66614e-05
6.96076e-05
0.000133624
3.76509e-05
0.000177129
3.16182e-06
0.000227155
-3.30623e-05
0.000283482
-7.02118e-05
0.000345661
-0.000107426
0.000412997
-0.000143756
0.00048457
-0.000178117
0.000559356
-0.000209225
0.000636636
-0.000235479
-0.000254507
0.000717636
-1.09528e-06
4.1803e-05
-2.03304e-06
9.73888e-05
-1.00909e-06
0.000130985
3.39392e-06
0.000146957
1.23204e-05
0.000148813
2.67222e-05
0.00013935
4.74135e-05
0.000120773
7.51038e-05
9.48215e-05
0.00011041
6.28952e-05
0.000153852
2.61652e-05
0.000205839
-1.4336e-05
0.000266634
-5.76335e-05
0.000336312
-0.00010274
0.000414686
-0.000148586
0.000501213
-0.000193953
0.000594857
-0.0002374
0.000693918
-0.000277178
0.000795834
-0.000311141
0.000897342
-0.000336988
-0.000356967
0.000999802
-7.43205e-07
4.25462e-05
-3.88278e-07
9.70338e-05
3.0623e-06
0.000127534
1.11978e-05
0.000138821
2.53295e-05
0.000134681
4.6579e-05
0.000118101
7.59352e-05
9.14172e-05
0.000114287
5.64697e-05
0.000162435
1.47476e-05
0.000221088
-3.24884e-05
0.000290856
-8.4104e-05
0.000372228
-0.000139006
0.000465553
-0.000196064
0.000571005
-0.000254038
0.000688523
-0.000311471
0.000817679
-0.000366557
0.000957368
-0.000416867
0.00110481
-0.000458584
0.00125229
-0.000484466
-0.00048112
0.00137644
-3.4191e-07
4.28881e-05
1.50544e-06
9.51865e-05
7.76443e-06
0.000121275
2.02216e-05
0.000126364
4.03779e-05
0.000114525
6.95427e-05
8.89363e-05
0.00010889
5.20699e-05
0.000159488
5.87219e-06
0.000222304
-4.80693e-05
0.00029821
-0.000108394
0.00038797
-0.000173864
0.000492258
-0.000243294
0.000611689
-0.000315496
0.000746899
-0.000389247
0.000898712
-0.000463284
0.00106846
-0.000536303
0.00125854
-0.000606952
0.00147377
-0.000673808
0.00172526
-0.000735958
-0.000792523
0.00203666
1.23502e-07
4.27646e-05
3.69956e-06
9.16104e-05
1.32028e-05
0.000111772
3.06378e-05
0.000108929
5.77093e-05
8.74531e-05
9.59173e-05
5.07283e-05
0.000146606
1.38123e-06
0.00021098
-5.85022e-05
0.000290101
-0.00012719
0.000384874
-0.000203166
0.000496035
-0.000285026
0.000624166
-0.000371425
0.000769721
-0.00046105
0.000933109
-0.000552636
0.00111483
-0.000645003
0.00131567
-0.000737148
0.00153707
-0.000828352
0.00178157
-0.000918308
0.00205281
-0.0010072
-0.00108836
0.00234865
6.72831e-07
4.20918e-05
6.26169e-06
8.60216e-05
1.95136e-05
9.85198e-05
4.26638e-05
8.57791e-05
7.7623e-05
5.24939e-05
0.000126065
2.28675e-06
0.000189457
-6.20111e-05
0.000269058
-0.000138103
0.000365888
-0.000224021
0.000480697
-0.000317975
0.00061394
-0.000418269
0.000765771
-0.000523255
0.000936063
-0.000631342
0.00112446
-0.00074103
0.00133044
-0.00085098
0.00155339
-0.000960106
0.00179271
-0.00106767
0.00204776
-0.00117336
0.00231757
-0.00127701
-0.00137025
0.00259946
1.33195e-06
4.07598e-05
9.2748e-06
7.80787e-05
2.68566e-05
8.0938e-05
5.65444e-05
5.60912e-05
0.000100439
8.59936e-06
0.000160343
-5.76172e-05
0.000237765
-0.000139433
0.000333883
-0.000234222
0.000449492
-0.000339629
0.000584948
-0.000453431
0.000740139
-0.000573459
0.000914478
-0.000697594
0.00110693
-0.000823795
0.00131607
-0.000950173
0.00154015
-0.00107506
0.00177716
-0.00119711
0.00202481
-0.00131533
0.00228059
-0.00142913
0.0025417
-0.00153812
-0.00163478
0.00280623
2.12927e-06
3.86306e-05
1.28267e-05
6.73813e-05
3.5394e-05
5.83708e-05
7.25134e-05
1.89718e-05
0.000126434
-4.53211e-05
0.000199006
-0.00013019
0.000291649
-0.000232075
0.000405272
-0.000347845
0.000540207
-0.000474564
0.00069614
-0.000609365
0.000872104
-0.000749423
0.0010665
-0.000891991
0.00127718
-0.00103448
0.00150155
-0.00117454
0.00173668
-0.00131019
0.00197942
-0.00143985
0.00222647
-0.00156239
0.00247445
-0.00167711
0.00272
-0.00178367
-0.00187643
0.00296166
3.09238e-06
3.55382e-05
1.69986e-05
5.3475e-05
4.52658e-05
3.01036e-05
9.07492e-05
-2.65116e-05
0.000155769
-0.000110341
0.000242096
-0.000216517
0.000350869
-0.000340849
0.000482492
-0.000479468
0.000636546
-0.000628618
0.000811764
-0.000784583
0.00100606
-0.000943724
0.00121666
-0.00110259
0.00144023
-0.00125804
0.00167309
-0.0014074
0.0019114
-0.00154851
0.00215136
-0.00167981
0.00238931
-0.00180033
0.00262183
-0.00190963
0.0028459
-0.00200774
-0.0020911
0.00306057
4.24483e-06
3.12934e-05
2.18543e-05
3.58655e-05
5.65663e-05
-4.60841e-06
0.000111333
-8.12787e-05
0.000188425
-0.000187432
0.000289347
-0.000317439
0.000414715
-0.000466217
0.000564133
-0.000628886
0.000736141
-0.000800626
0.000928255
-0.000976697
0.00113711
-0.00115258
0.00135871
-0.00132418
0.00158865
-0.00148799
0.00182248
-0.00164123
0.00205591
-0.00178193
0.00228503
-0.00190893
0.00250645
-0.00202176
0.00271741
-0.00212058
0.00291577
-0.0022061
-0.00227661
0.00310127
5.60378e-06
2.56896e-05
2.74315e-05
1.40378e-05
6.93252e-05
-4.65022e-05
0.000134218
-0.000146172
0.000224153
-0.000277367
0.000340129
-0.000433416
0.000481944
-0.000608031
0.000648091
-0.000795033
0.000835798
-0.000988332
0.0010412
-0.00118209
0.00125962
-0.00137101
0.00148599
-0.00155055
0.0017152
-0.00171719
0.00194246
-0.00186849
0.00216359
-0.00200306
0.00237516
-0.0021205
0.00257461
-0.00222121
0.00276023
-0.00230621
0.0029311
-0.00237697
-0.00243334
0.00308784
7.17853e-06
1.8511e-05
3.37356e-05
-1.25192e-05
8.34949e-05
-9.62615e-05
0.000159205
-0.000221882
0.00026245
-0.000380611
0.000393429
-0.000564395
0.000550797
-0.000765399
0.000731653
-0.000975889
0.000931724
-0.0011884
0.00114573
-0.00139611
0.00136789
-0.00159317
0.0015924
-0.00177506
0.00181391
-0.00193871
0.0020279
-0.00208247
0.00223081
-0.00220597
0.00242022
-0.0023099
0.00259471
-0.0023957
0.00275381
-0.00246531
0.00289778
-0.00252094
-0.00256365
0.00302809
8.96987e-06
9.54117e-06
4.07374e-05
-4.42867e-05
9.89439e-05
-0.000154468
0.000185937
-0.000308875
0.000302557
-0.000497231
0.000447874
-0.000709712
0.000619089
-0.000936615
0.000811692
-0.00116849
0.00101987
-0.00139658
0.00123712
-0.00161335
0.00145688
-0.00181293
0.00167315
-0.00199134
0.00188094
-0.0021465
0.00207649
-0.00227802
0.00225737
-0.00238685
0.00242236
-0.0024749
0.00257132
-0.00254467
0.00270493
-0.00259891
0.00282441
-0.00264042
-0.00267106
0.00293182
1.09699e-05
-1.4287e-06
4.83711e-05
-8.1688e-05
0.000115455
-0.000221552
0.000213901
-0.000407321
0.000343478
-0.000626809
0.000501796
-0.000868029
0.00068435
-0.00111917
0.000884939
-0.00136908
0.00109636
-0.001608
0.00131124
-0.00182823
0.00152279
-0.00202448
0.0017254
-0.00219395
0.00191495
-0.00233604
0.00208887
-0.00245194
0.00224604
-0.00254402
0.00238655
-0.0026154
0.00251134
-0.00266946
0.00262198
-0.00270955
0.00272032
-0.00273876
-0.00275943
0.00280869
1.31618e-05
-1.45905e-05
5.65348e-05
-0.000125061
0.000132728
-0.000297745
0.000242441
-0.000517033
0.000384027
-0.000768395
0.000553337
-0.00103734
0.000744024
-0.00130986
0.000948293
-0.00157335
0.00115789
-0.00181761
0.00136511
-0.00203545
0.00156352
-0.00222289
0.00174843
-0.00237886
0.00191699
-0.0025046
0.00206802
-0.00260297
0.00220172
-0.00267772
0.00231927
-0.00273295
0.00242245
-0.00277264
0.00251335
-0.00280045
0.0025941
-0.00281951
-0.00283235
0.00266702
1.55197e-05
-3.01102e-05
6.50906e-05
-0.000174632
0.000150386
-0.00038304
0.000270782
-0.00063743
0.000422888
-0.0009205
0.000600582
-0.00121503
0.000795693
-0.00150497
0.000999122
-0.00177678
0.00120208
-0.00202056
0.0013971
-0.00223047
0.00157868
-0.00240447
0.00174344
-0.00254362
0.00188998
-0.00265114
0.00201849
-0.00273148
0.00213029
-0.00278952
0.00222736
-0.00283002
0.00231197
-0.00285726
0.00238642
-0.0028749
0.00245285
-0.00288594
-0.00289284
0.00251333
1.80087e-05
-4.81189e-05
7.38671e-05
-0.00023049
0.000167986
-0.000477159
0.00029807
-0.000767515
0.000458699
-0.00108113
0.000641702
-0.00139804
0.000837285
-0.00170055
0.0010355
-0.001975
0.00122761
-0.00221267
0.00140698
-0.00240984
0.00156943
-0.00256691
0.00171309
-0.00268728
0.00183799
-0.00277604
0.00194548
-0.00283897
0.0020377
-0.00288174
0.00211712
-0.00290943
0.00218618
-0.00292632
0.00224714
-0.00293586
0.00230193
-0.00294074
-0.00294323
0.00235232
2.05844e-05
-6.87033e-05
8.26633e-05
-0.000292569
0.000185038
-0.000579533
0.000323411
-0.000905888
0.000490147
-0.00124786
0.000675108
-0.001583
0.000867249
-0.00189269
0.00105635
-0.00216409
0.0012343
-0.00239063
0.00139576
-0.00257129
0.00153808
-0.00270923
0.00166091
-0.00281011
0.00176552
-0.00288065
0.00185413
-0.00292758
0.00192937
-0.00295698
0.00199388
-0.00297394
0.00205005
-0.00298249
0.00209993
-0.00298573
0.00214518
-0.00298599
-0.00298525
0.00218721
2.31941e-05
-9.18973e-05
9.12543e-05
-0.000360629
0.000201024
-0.000689303
0.000345931
-0.00105079
0.000516063
-0.001418
0.000699566
-0.0017665
0.000884656
-0.00207778
0.00106143
-0.00234087
0.00122292
-0.00255212
0.00136534
-0.00271371
0.00148762
-0.00283152
0.00159077
-0.00291326
0.00167699
-0.00296687
0.00174906
-0.00299966
0.00180982
-0.00301774
0.00186184
-0.00302596
0.00190731
-0.00302796
0.00194798
-0.0030264
0.00198522
-0.00302323
-0.00302012
0.00202009
2.57777e-05
-0.000117675
9.94008e-05
-0.000434253
0.000215431
-0.000805334
0.000364829
-0.00120019
0.000535502
-0.00158867
0.00071428
-0.00194528
0.000889218
-0.00225272
0.00105128
-0.00250293
0.00119499
-0.00269583
0.0013182
-0.00283691
0.00142132
-0.00293465
0.00150642
-0.00299836
0.00157636
-0.00303681
0.00163417
-0.00305746
0.00168265
-0.00306621
0.00172416
-0.00306748
0.00176061
-0.00306441
0.00179345
-0.00305924
0.00182375
-0.00305353
-0.00304866
0.00185229
2.82698e-05
-0.000145945
0.00010686
-0.000512843
0.000227774
-0.000926248
0.000379431
-0.00135185
0.000547803
-0.00175704
0.000718913
-0.00211639
0.000881234
-0.00241504
0.00102703
-0.00264872
0.00115248
-0.00282129
0.00125704
-0.00294148
0.00134237
-0.00301997
0.00141128
-0.00306727
0.001467
-0.00309253
0.00151256
-0.00310303
0.00155058
-0.00310424
0.00158314
-0.00310004
0.00161183
-0.0030931
0.0016378
-0.00308521
0.00166188
-0.0030776
-0.00307141
0.00168462
3.06025e-05
-0.000176547
0.000113397
-0.000595637
0.000237627
-0.00105048
0.000389229
-0.00150345
0.000552614
-0.00192043
0.000713566
-0.00227734
0.000861479
-0.00256295
0.000990198
-0.00277744
0.00109761
-0.0029287
0.00118457
-0.00302844
0.00125368
-0.00308908
0.00130826
-0.00312185
0.00135161
-0.00313587
0.00138662
-0.00313804
0.00141563
-0.00313325
0.0014404
-0.00312481
0.00146221
-0.00311491
0.00148197
-0.00310497
0.00150031
-0.00309594
-0.00308871
0.0015176
3.27082e-05
0.000118797
0.000244648
0.000393902
0.000549891
0.000698708
0.000831071
0.000942543
0.0010326
0.00110327
0.0011578
0.00119974
0.00123231
0.00125814
0.00127923
0.00129705
0.0013126
0.00132659
0.00133948
0.00135154
3.27341e-05
0.00017741
0.000118839
0.000597817
0.000244642
0.0010536
0.00039375
0.00150712
0.000549488
0.00192427
0.000697969
0.00228105
0.000829944
0.00256632
0.000941013
0.00278035
0.00103068
0.00293113
0.00110099
0.00303041
0.00115521
0.00309066
0.00119688
0.00312309
0.00122922
0.00313684
0.00125484
0.00313878
0.00127576
0.00313381
0.00129342
0.00312522
0.00130883
0.00311519
0.00132269
0.00310513
0.00133546
0.00309599
0.00308866
0.00134741
3.06357e-05
0.000146775
0.000113468
0.000514985
0.000237686
0.000929383
0.000389182
0.00135563
0.000552352
0.0017611
0.000712987
0.00212042
0.000860512
0.0024188
0.000988808
0.00265206
0.0010958
0.00282414
0.00118236
0.00294385
0.00125111
0.00302191
0.00130536
0.00306883
0.00134843
0.00309377
0.00138321
0.00310401
0.00141201
0.003105
0.0014366
0.00310063
0.00145825
0.00309354
0.00147786
0.00308551
0.00149606
0.00307779
0.00307148
0.00151324
2.83093e-05
0.000118465
0.000106958
0.000436337
0.000227896
0.000808445
0.000379494
0.00120403
0.000547694
0.0015929
0.000718521
0.00194959
0.000880465
0.00225685
0.00102582
0.0025067
0.00115082
0.00269914
0.00125494
0.00283973
0.00133985
0.002937
0.0014084
0.00300029
0.00146378
0.00303838
0.00150906
0.00305873
0.00154684
0.00306723
0.00157918
0.00306828
0.00160768
0.00306504
0.00163348
0.00305972
0.0016574
0.00305387
0.00304888
0.00168001
2.58222e-05
9.26431e-05
9.95231e-05
0.000362636
0.000215612
0.000692356
0.000364999
0.00105464
0.000535554
0.00142235
0.000714093
0.00177105
0.000888683
0.00208226
0.00105031
0.00234507
0.00119355
0.00255591
0.00131627
0.00271701
0.00141893
0.00283434
0.0015036
0.00291562
0.00157316
0.00296883
0.00163063
0.00300126
0.00167881
0.00301905
0.00172006
0.00302703
0.00175629
0.00302882
0.00178892
0.00302708
0.00181903
0.00302375
0.00302051
0.00184741
2.32424e-05
6.94008e-05
9.13966e-05
0.000294481
0.000201258
0.000582495
0.000346202
0.000909699
0.000516276
0.00125227
0.000699599
0.00158773
0.000884384
0.00189748
0.00106075
0.0021687
0.00122176
0.00239489
0.00136366
0.00257511
0.00148544
0.00271257
0.00158809
0.00281296
0.00167386
0.00288306
0.00174553
0.00292959
0.00180593
0.00295865
0.00185763
0.00297532
0.00190282
0.00298363
0.00194325
0.00298665
0.00198027
0.00298673
0.00298583
0.00201495
2.06351e-05
4.87656e-05
8.28212e-05
0.000232295
0.000185316
0.000480001
0.000323775
0.00077124
0.000490515
0.00108553
0.000675363
0.00140288
0.000867262
0.00170558
0.00105599
0.00197997
0.00123349
0.0022174
0.00139441
0.00241418
0.00153618
0.0025708
0.00165847
0.00269068
0.00176255
0.00277897
0.00185068
0.00284146
0.00192549
0.00288384
0.00198962
0.00291119
0.00204546
0.00292779
0.00209504
0.00293707
0.00214003
0.00294174
0.00294405
0.00218181
1.80606e-05
3.0705e-05
7.40363e-05
0.00017632
0.0001683
0.000385737
0.000298513
0.000641026
0.000459209
0.000924839
0.000642175
0.00121992
0.000837591
0.00151016
0.00103551
0.00178206
0.00122719
0.00202571
0.00140605
0.00223533
0.00156792
0.00240893
0.00171098
0.00254762
0.00183529
0.00265466
0.00194223
0.00273453
0.00203394
0.00279213
0.00211289
0.00283224
0.00218153
0.00285914
0.00224212
0.00287649
0.00229659
0.00288727
0.00289395
0.00234669
1.55718e-05
1.51332e-05
6.52667e-05
0.000126625
0.000150727
0.000300277
0.000271291
0.000520462
0.000423522
0.000772608
0.000601257
0.00104218
0.000796289
0.00131513
0.000999498
0.00157885
0.0012021
0.00182312
0.00139664
0.00204079
0.00157765
0.00222792
0.00174179
0.00238348
0.00188768
0.00250876
0.00201556
0.00260665
0.00212675
0.00268094
0.00222326
0.00273573
0.00230737
0.00277503
0.00238137
0.00280249
0.00244739
0.00282125
0.00283382
0.00250751
1.32131e-05
1.9201e-06
5.67146e-05
8.31232e-05
0.000133088
0.000223904
0.000243
0.000410549
0.000384766
0.000630842
0.000554192
0.000872755
0.000744891
0.00112443
0.000949038
0.0013747
0.00115837
0.00161378
0.00136518
0.00183398
0.00156306
0.00203004
0.00174734
0.00219919
0.00191522
0.00234088
0.00206556
0.00245632
0.00219857
0.00254793
0.00231545
0.00261885
0.00241802
0.00267247
0.00250836
0.00271215
0.00258861
0.00274099
0.00276135
0.00266108
1.10202e-05
-9.10009e-06
4.85525e-05
4.55909e-05
0.000115828
0.000156629
0.000214498
0.000311879
0.000344301
0.00050104
0.000502802
0.000714253
0.000685458
0.000941777
0.000886031
0.00117413
0.00109729
0.00140252
0.00131186
0.00161941
0.00152295
0.00181894
0.00172498
0.00199716
0.00191385
0.00215201
0.00208704
0.00228314
0.00224345
0.00239152
0.0023832
0.0024791
0.00250727
0.0025484
0.00261723
0.00260219
0.00271494
0.00264328
0.00267355
0.00280275
9.01935e-06
-1.81194e-05
4.09199e-05
1.36904e-05
9.9326e-05
9.82229e-05
0.000186564
0.000224641
0.000303445
0.000384159
0.000449004
0.000568694
0.000620405
0.000770376
0.000813095
0.000981437
0.00102123
0.00119438
0.00123828
0.00140236
0.00145769
0.00159954
0.00167347
0.00178139
0.00188063
0.00194485
0.00207545
0.00208832
0.00225553
0.00221144
0.00241969
0.00231493
0.00256783
0.00240026
0.00270063
0.00246939
0.00281935
0.00252456
0.00256684
0.00292606
7.22805e-06
-2.53475e-05
3.39208e-05
-1.30023e-05
8.38868e-05
4.82568e-05
0.000159857
0.000148671
0.000263391
0.000280625
0.00039466
0.000437424
0.000552284
0.000612752
0.000733323
0.000800398
0.000933469
0.000994238
0.00114742
0.00118841
0.00136936
0.0013776
0.00159348
0.00155726
0.00181446
0.00172388
0.00202776
0.00187501
0.00222989
0.00200931
0.00241843
0.00212639
0.00259202
0.00222668
0.00275021
0.0023112
0.00289329
0.00238148
0.00243738
0.00302274
5.65485e-06
-3.10023e-05
2.76227e-05
-3.49702e-05
6.97307e-05
6.1488e-06
0.000134896
8.3506e-05
0.000225141
0.000190379
0.000341443
0.000321122
0.00048357
0.000470626
0.000649982
0.000633985
0.000837872
0.000806349
0.00104334
0.000982949
0.00126168
0.00115925
0.00148782
0.00133113
0.00171662
0.00149508
0.00194331
0.00164832
0.00216371
0.0017889
0.00237444
0.00191566
0.00257296
0.00202816
0.0027576
0.00212657
0.00292746
0.00221161
0.00228165
0.00308319
4.29942e-06
-3.53018e-05
2.20563e-05
-5.2727e-05
5.69915e-05
-2.87865e-05
0.000112042
2.84556e-05
0.00018946
0.000112961
0.000290734
0.000219848
0.000416457
0.000344904
0.000566204
0.000484238
0.000738483
0.000634069
0.00093078
0.000790653
0.0011397
0.000950328
0.00136121
0.00110962
0.0015909
0.00126538
0.00182431
0.00141492
0.00205714
0.00155607
0.0022855
0.0016873
0.00250603
0.00180763
0.00271598
0.00191662
0.00291326
0.00201433
0.00209727
0.00309764
3.15252e-06
-3.84543e-05
1.72161e-05
-6.67906e-05
4.57175e-05
-5.72878e-05
9.14951e-05
-1.7322e-05
0.000156854
4.76018e-05
0.000243552
0.00013315
0.000352708
0.000235748
0.000484705
0.000352241
0.0006391
0.000479673
0.000814597
0.000615156
0.00100908
0.000755841
0.00121974
0.000898959
0.00144323
0.0010419
0.00167583
0.00118231
0.00191371
0.00131819
0.00215305
0.00144796
0.0023902
0.00157047
0.00262177
0.00168505
0.00284476
0.00179135
0.0018838
0.00305823
2.19661e-06
-4.06509e-05
1.30633e-05
-7.76572e-05
3.58767e-05
-8.01013e-05
7.33006e-05
-5.47459e-05
0.00012757
-6.66756e-06
0.000200523
6.0197e-05
0.000293566
0.000142705
0.000407594
0.000238214
0.000542917
0.00034435
0.000699201
0.000458872
0.00087545
0.000579592
0.00107004
0.000704371
0.00128079
0.000831152
0.00150507
0.000958028
0.00173995
0.00108332
0.00198224
0.00120566
0.00222866
0.00132406
0.0024758
0.00143791
0.00272033
0.00154682
0.00164334
0.00296079
1.40719e-06
-4.20581e-05
9.53123e-06
-8.57813e-05
2.73698e-05
-9.79399e-05
5.73698e-05
-8.47458e-05
0.000101618
-5.09156e-05
0.000161906
-9.15549e-08
0.000239735
6.48768e-05
0.000336271
0.000141677
0.000452296
0.000228325
0.00058815
0.000323018
0.000743699
0.000424043
0.00091833
0.000529739
0.00111098
0.000638499
0.0013202
0.000748808
0.00154421
0.000859312
0.00178096
0.000968912
0.00202816
0.00107686
0.00228325
0.00118281
0.00254345
0.00128662
0.00137994
0.00280685
7.55308e-07
-4.28134e-05
6.53464e-06
-9.15606e-05
2.00496e-05
-0.000111455
4.35133e-05
-0.00010821
7.88228e-05
-8.62251e-05
0.000127643
-4.89117e-05
0.000191436
1.08392e-06
0.000271453
6.16596e-05
0.000368708
0.000131071
0.000483938
0.000207788
0.000617584
0.000290397
0.00076978
0.000377543
0.000940375
0.000467904
0.00112898
0.0005602
0.00133505
0.000653244
0.00155794
0.000746022
0.00179699
0.000837803
0.00205154
0.000928267
0.00232059
0.00101757
0.00109904
0.00260149
2.10945e-07
-4.30243e-05
3.98097e-06
-9.53306e-05
1.37451e-05
-0.000121219
3.14845e-05
-0.000125949
5.88911e-05
-0.000113632
9.74581e-05
-8.74786e-05
0.000148526
-4.99842e-05
0.000213298
-3.11207e-06
0.000292831
5.15377e-05
0.000388023
0.000112595
0.000499605
0.000178815
0.000628143
0.000249006
0.000774073
0.000321974
0.000937781
0.000396492
0.00111973
0.000471293
0.00132068
0.000545071
0.00154201
0.000616474
0.00178621
0.000684073
0.00205686
0.000746923
0.000803981
0.00235192
-2.53348e-07
-4.2771e-05
1.78267e-06
-9.73667e-05
8.28802e-06
-0.000127724
2.1026e-05
-0.000138687
4.14858e-05
-0.000134092
7.0972e-05
-0.000116965
0.000110658
-8.96702e-05
0.000161612
-5.40662e-05
0.000224804
-1.16544e-05
0.000301103
3.62964e-05
0.000391271
8.86468e-05
0.000495978
0.0001443
0.000615826
0.000202125
0.000751438
0.00026088
0.000903618
0.000319113
0.00107367
0.000375023
0.00126395
0.000426192
0.00147922
0.000468804
0.00173057
0.000495565
0.000492952
0.0020416
-6.58633e-07
-4.21124e-05
-1.31502e-07
-9.78938e-05
3.53593e-06
-0.000131392
1.19107e-05
-0.000147062
2.62944e-05
-0.000148475
4.78059e-05
-0.000138476
7.74363e-05
-0.000119301
0.000116078
-9.27081e-05
0.000164536
-6.01125e-05
0.000223525
-2.2692e-05
0.000293655
1.85167e-05
0.000375418
6.25367e-05
0.000469164
0.000108379
0.000575067
0.000154977
0.000693069
0.000201111
0.00082275
0.000245342
0.000963026
0.000285916
0.00111117
0.000320656
0.00125958
0.000347155
0.000367288
0.00138525
-1.02054e-06
-4.10918e-05
-1.81492e-06
-9.70994e-05
-6.20102e-07
-0.000132587
3.96144e-06
-0.000151643
1.30667e-05
-0.00015758
2.76475e-05
-0.000153057
4.85225e-05
-0.000140176
7.64077e-05
-0.000120593
0.000111927
-9.56319e-05
0.000155609
-6.63741e-05
0.000207869
-3.37435e-05
0.000268979
1.42671e-06
0.000339021
3.83377e-05
0.00041782
7.61778e-05
0.000504848
0.000114083
0.000599093
0.000151096