/*--------------------------------*- C++ -*----------------------------------*\
  =========                 |
  \\      /  F ield         | OpenFOAM: The Open Source CFD Toolbox
   \\    /   O peration     | Website:  https://openfoam.org
    \\  /    A nd           | Version:  6.0
     \\/     M anipulation  |
\*---------------------------------------------------------------------------*/
FoamFile
{
    version     2.0;
    format      ascii;
    class       volScalarField;
    location    "15.5";
    object      p;
}
// * * * * * * * * * * * * * * * * * * * * * * * * * * * * * * * * * * * * * //

dimensions      [0 2 -2 0 0 0 0];

internalField   nonuniform List<scalar> 
8000
(
-0.28133
-0.28247
-0.283206
-0.283735
-0.284178
-0.284557
-0.284888
-0.285186
-0.285464
-0.285728
-0.285985
-0.286242
-0.286503
-0.286774
-0.287063
-0.287379
-0.287728
-0.288076
-0.288406
-0.289095
-0.281474
-0.282604
-0.283333
-0.283856
-0.284293
-0.284665
-0.284988
-0.28528
-0.285549
-0.285805
-0.286053
-0.2863
-0.286551
-0.286812
-0.287091
-0.287397
-0.287736
-0.288074
-0.288395
-0.289079
-0.281764
-0.282875
-0.283591
-0.284101
-0.284524
-0.284882
-0.285191
-0.285466
-0.28572
-0.285958
-0.286188
-0.286416
-0.286647
-0.286888
-0.287145
-0.287431
-0.287751
-0.288071
-0.288372
-0.289047
-0.282197
-0.283281
-0.283976
-0.284466
-0.284869
-0.285205
-0.285491
-0.285743
-0.285971
-0.286183
-0.286384
-0.286582
-0.286782
-0.28699
-0.287215
-0.287469
-0.287759
-0.288052
-0.288323
-0.288984
-0.282768
-0.283818
-0.284486
-0.28495
-0.285325
-0.285632
-0.285886
-0.286105
-0.286298
-0.286472
-0.286634
-0.28679
-0.286946
-0.287109
-0.287288
-0.287497
-0.287745
-0.287997
-0.288228
-0.28887
-0.283472
-0.284482
-0.285117
-0.285549
-0.285888
-0.286156
-0.286371
-0.286546
-0.286693
-0.286818
-0.286928
-0.287028
-0.287126
-0.287229
-0.287346
-0.287495
-0.287686
-0.287886
-0.288063
-0.28868
-0.284304
-0.28527
-0.285866
-0.286259
-0.286555
-0.286776
-0.286941
-0.287062
-0.287152
-0.287215
-0.287259
-0.287289
-0.287312
-0.287338
-0.287376
-0.287446
-0.287563
-0.287694
-0.287805
-0.288389
-0.285261
-0.28618
-0.286732
-0.287078
-0.287323
-0.287489
-0.287593
-0.28765
-0.28767
-0.28766
-0.287624
-0.287568
-0.287499
-0.287428
-0.287367
-0.287337
-0.287358
-0.287399
-0.287429
-0.287972
-0.28634
-0.287209
-0.287713
-0.288006
-0.288191
-0.288292
-0.288327
-0.28831
-0.28825
-0.288152
-0.288022
-0.287864
-0.287686
-0.287497
-0.287313
-0.287159
-0.287058
-0.286986
-0.286912
-0.287405
-0.287544
-0.28836
-0.288809
-0.289041
-0.289159
-0.289187
-0.289143
-0.289042
-0.288893
-0.288698
-0.288462
-0.288187
-0.287881
-0.287554
-0.287222
-0.286914
-0.286661
-0.286441
-0.286237
-0.286665
-0.288875
-0.289633
-0.290021
-0.290186
-0.290228
-0.290175
-0.290045
-0.289853
-0.289606
-0.289306
-0.288955
-0.288552
-0.288103
-0.287618
-0.287112
-0.286618
-0.286173
-0.285764
-0.285385
-0.285726
-0.29034
-0.291035
-0.291354
-0.291442
-0.2914
-0.291258
-0.291036
-0.290747
-0.290399
-0.289989
-0.289517
-0.28898
-0.288377
-0.287716
-0.287012
-0.286297
-0.285615
-0.28496
-0.284345
-0.284557
-0.291948
-0.29257
-0.292811
-0.292813
-0.292678
-0.292439
-0.292119
-0.29173
-0.291278
-0.290758
-0.290166
-0.289492
-0.288732
-0.287885
-0.286961
-0.285992
-0.285021
-0.284046
-0.283102
-0.283113
-0.293708
-0.294247
-0.294399
-0.294303
-0.294065
-0.293721
-0.293296
-0.292803
-0.292247
-0.29162
-0.290912
-0.290108
-0.289193
-0.288157
-0.287
-0.285744
-0.28443
-0.283049
-0.281644
-0.281332
-0.295634
-0.296077
-0.296125
-0.295918
-0.295563
-0.295103
-0.294565
-0.293965
-0.293304
-0.292573
-0.291756
-0.290829
-0.289768
-0.288549
-0.287154
-0.28559
-0.283882
-0.281996
-0.279959
-0.279134
-0.297742
-0.298071
-0.297998
-0.297663
-0.297176
-0.296585
-0.295923
-0.295207
-0.294438
-0.293604
-0.292682
-0.291643
-0.290448
-0.289057
-0.287431
-0.285548
-0.283406
-0.280926
-0.278063
-0.276458
-0.300048
-0.300244
-0.300031
-0.299547
-0.298907
-0.298167
-0.297365
-0.29652
-0.295634
-0.294691
-0.293666
-0.292519
-0.291202
-0.289655
-0.287813
-0.28562
-0.283035
-0.279913
-0.27606
-0.273336
-0.302575
-0.302617
-0.302239
-0.301582
-0.300764
-0.299852
-0.298889
-0.297896
-0.296876
-0.295814
-0.294678
-0.293425
-0.291994
-0.290308
-0.288275
-0.285796
-0.28278
-0.278999
-0.274006
-0.269687
-0.305351
-0.305212
-0.304643
-0.303784
-0.302761
-0.30165
-0.300499
-0.299335
-0.298162
-0.296964
-0.29571
-0.294353
-0.292827
-0.291044
-0.288889
-0.286216
-0.28285
-0.278395
-0.271957
-0.265245
-0.308409
-0.30806
-0.307269
-0.306179
-0.304919
-0.303578
-0.302213
-0.300853
-0.299505
-0.298157
-0.296782
-0.295339
-0.293775
-0.292021
-0.289988
-0.287564
-0.284579
-0.280525
-0.274095
-0.266469
-0.311792
-0.311197
-0.310151
-0.308796
-0.307269
-0.305669
-0.304063
-0.302483
-0.300941
-0.299431
-0.297934
-0.296428
-0.294888
-0.293306
-0.291698
-0.290149
-0.288852
-0.288136
-0.289307
-0.299018
-0.315547
-0.314668
-0.313329
-0.311676
-0.30985
-0.307965
-0.306093
-0.304273
-0.302522
-0.300839
-0.299218
-0.29765
-0.296143
-0.294729
-0.293491
-0.292596
-0.292347
-0.293211
-0.296216
-0.305715
-0.319732
-0.318519
-0.316849
-0.314866
-0.312713
-0.310519
-0.308363
-0.306289
-0.304317
-0.302455
-0.300703
-0.299068
-0.297577
-0.296286
-0.295304
-0.294809
-0.295076
-0.296468
-0.299505
-0.306463
-0.324406
-0.322805
-0.320763
-0.318418
-0.315914
-0.313391
-0.310936
-0.308597
-0.306397
-0.304346
-0.30245
-0.300724
-0.299201
-0.297943
-0.29705
-0.296669
-0.29699
-0.298227
-0.300606
-0.305076
-0.329629
-0.32758
-0.325125
-0.322388
-0.31951
-0.316643
-0.313879
-0.311265
-0.308825
-0.306566
-0.304497
-0.302629
-0.300993
-0.299639
-0.298643
-0.2981
-0.298115
-0.298777
-0.300172
-0.302431
-0.335461
-0.332897
-0.329987
-0.326832
-0.323562
-0.320338
-0.317252
-0.314349
-0.311647
-0.309148
-0.306851
-0.304765
-0.302906
-0.301307
-0.300014
-0.299078
-0.298543
-0.298426
-0.298756
-0.299281
-0.341954
-0.338807
-0.3354
-0.331804
-0.328125
-0.324529
-0.321106
-0.317891
-0.314889
-0.312093
-0.309492
-0.307081
-0.304867
-0.302865
-0.301099
-0.299591
-0.298353
-0.297374
-0.296663
-0.295853
-0.349151
-0.345351
-0.341411
-0.337351
-0.333247
-0.329263
-0.325478
-0.321911
-0.31855
-0.315374
-0.312362
-0.309499
-0.306784
-0.304223
-0.301831
-0.299619
-0.297591
-0.295736
-0.294058
-0.292229
-0.357084
-0.352564
-0.348055
-0.343514
-0.338968
-0.334571
-0.330384
-0.326402
-0.322596
-0.31893
-0.315376
-0.311916
-0.308549
-0.305286
-0.302143
-0.299135
-0.296273
-0.293559
-0.290994
-0.28834
-0.365765
-0.360463
-0.355358
-0.350319
-0.345309
-0.340461
-0.33581
-0.331326
-0.326959
-0.322666
-0.318419
-0.314209
-0.310048
-0.305958
-0.301969
-0.298108
-0.294396
-0.290849
-0.287468
-0.284101
-0.375188
-0.369051
-0.363328
-0.357776
-0.35227
-0.346916
-0.341714
-0.336607
-0.331535
-0.326456
-0.321355
-0.316248
-0.311165
-0.306151
-0.301253
-0.296509
-0.291952
-0.287604
-0.28346
-0.279437
-0.385322
-0.378309
-0.371953
-0.365868
-0.359823
-0.353881
-0.348011
-0.342132
-0.336185
-0.330148
-0.324037
-0.317898
-0.311793
-0.305789
-0.299948
-0.294317
-0.288932
-0.283817
-0.278957
-0.27431
-0.396107
-0.388192
-0.381193
-0.374549
-0.367902
-0.361264
-0.354575
-0.347748
-0.340743
-0.333578
-0.326313
-0.319035
-0.311838
-0.304809
-0.298018
-0.291515
-0.285333
-0.279488
-0.273952
-0.268708
-0.407448
-0.398622
-0.390975
-0.383737
-0.376399
-0.368926
-0.361239
-0.353269
-0.345021
-0.336571
-0.328035
-0.319543
-0.311218
-0.303157
-0.295433
-0.28809
-0.28115
-0.274617
-0.268445
-0.262636
-0.419217
-0.409486
-0.401189
-0.393304
-0.385161
-0.376683
-0.367798
-0.358484
-0.34882
-0.338954
-0.329064
-0.319319
-0.309861
-0.300789
-0.292168
-0.284029
-0.276377
-0.269202
-0.262436
-0.2561
-0.431242
-0.420633
-0.41168
-0.403078
-0.393987
-0.38431
-0.374017
-0.363168
-0.351938
-0.340561
-0.329273
-0.318272
-0.307704
-0.297663
-0.288195
-0.279311
-0.271001
-0.263234
-0.255921
-0.249105
-0.443314
-0.43187
-0.422251
-0.412839
-0.402633
-0.391547
-0.379639
-0.367086
-0.35418
-0.341239
-0.328546
-0.316316
-0.304688
-0.293735
-0.283481
-0.273913
-0.265002
-0.256698
-0.248887
-0.241645
-0.45518
-0.442961
-0.432659
-0.422322
-0.410814
-0.398108
-0.384397
-0.370009
-0.355359
-0.340844
-0.326779
-0.313376
-0.300754
-0.28896
-0.277988
-0.267803
-0.258352
-0.249568
-0.241314
-0.233706
-0.466551
-0.453629
-0.442618
-0.431223
-0.418218
-0.403693
-0.388025
-0.371717
-0.355305
-0.339248
-0.323873
-0.309376
-0.295843
-0.283288
-0.271675
-0.260941
-0.251017
-0.241815
-0.233174
-0.225264
-0.477106
-0.463565
-0.451807
-0.439208
-0.424513
-0.407997
-0.390264
-0.372003
-0.353859
-0.336331
-0.319738
-0.304244
-0.289896
-0.276669
-0.264494
-0.253287
-0.242959
-0.233403
-0.224437
-0.216292
-0.486497
-0.472428
-0.459876
-0.445923
-0.429363
-0.410726
-0.390875
-0.370681
-0.35088
-0.331986
-0.31429
-0.297911
-0.282851
-0.269046
-0.256398
-0.244796
-0.234138
-0.224295
-0.215068
-0.206757
-0.494355
-0.479854
-0.466457
-0.451003
-0.432437
-0.411601
-0.389637
-0.367585
-0.346244
-0.326116
-0.30745
-0.29031
-0.274651
-0.260369
-0.247336
-0.235424
-0.224512
-0.214453
-0.205033
-0.196627
-0.500306
-0.485472
-0.471177
-0.454094
-0.433422
-0.410368
-0.386356
-0.36257
-0.33984
-0.318635
-0.299145
-0.281378
-0.265238
-0.250585
-0.237264
-0.225128
-0.214044
-0.203842
-0.1943
-0.185874
-0.50398
-0.48891
-0.473667
-0.454857
-0.432033
-0.406806
-0.380867
-0.355513
-0.331574
-0.309466
-0.289311
-0.271057
-0.25456
-0.239648
-0.226139
-0.213872
-0.202699
-0.192434
-0.182843
-0.174472
-0.505019
-0.489811
-0.47358
-0.452982
-0.42802
-0.400725
-0.373032
-0.346313
-0.321368
-0.298544
-0.277892
-0.259297
-0.242575
-0.227517
-0.213926
-0.201623
-0.190451
-0.180201
-0.170641
-0.162402
-0.50309
-0.487838
-0.470599
-0.448198
-0.421173
-0.391975
-0.362745
-0.33489
-0.30916
-0.285818
-0.264842
-0.246059
-0.229243
-0.214162
-0.200597
-0.188358
-0.177277
-0.167129
-0.15768
-0.14965
-0.497897
-0.482694
-0.464448
-0.44028
-0.411327
-0.380441
-0.349927
-0.321191
-0.294906
-0.271251
-0.250127
-0.231311
-0.21454
-0.199558
-0.186131
-0.174059
-0.163166
-0.153206
-0.143954
-0.136212
-0.489186
-0.474124
-0.454901
-0.429054
-0.398363
-0.36605
-0.334532
-0.30518
-0.278579
-0.254817
-0.233726
-0.215034
-0.198448
-0.183691
-0.170518
-0.158721
-0.148113
-0.138433
-0.129464
-0.12209
-0.476756
-0.461926
-0.441785
-0.414401
-0.382213
-0.348766
-0.316542
-0.28685
-0.260174
-0.236512
-0.215633
-0.197222
-0.180962
-0.166559
-0.153757
-0.142343
-0.132122
-0.122817
-0.114224
-0.107295
-0.460464
-0.445956
-0.424991
-0.396256
-0.362852
-0.32859
-0.29597
-0.266214
-0.2397
-0.216344
-0.195853
-0.177881
-0.162087
-0.148167
-0.135856
-0.124938
-0.115208
-0.106377
-0.0982552
-0.0918523
-0.440229
-0.426136
-0.404469
-0.374614
-0.340306
-0.305562
-0.272858
-0.243311
-0.217192
-0.194338
-0.174409
-0.157028
-0.14184
-0.12853
-0.116831
-0.106521
-0.0973905
-0.0891391
-0.0815919
-0.0758031
-0.416035
-0.40245
-0.380235
-0.349523
-0.314644
-0.279758
-0.247278
-0.218203
-0.192702
-0.17054
-0.151338
-0.134695
-0.120246
-0.107671
-0.0967013
-0.0871136
-0.0786919
-0.0711304
-0.0642702
-0.0591911
-0.38793
-0.374948
-0.352362
-0.321084
-0.285979
-0.251289
-0.219329
-0.190977
-0.166303
-0.145011
-0.126688
-0.110921
-0.0973382
-0.0856182
-0.0754917
-0.0667367
-0.0591334
-0.0523766
-0.0463227
-0.0420399
-0.356028
-0.343745
-0.320987
-0.28945
-0.254467
-0.220299
-0.189142
-0.161747
-0.138092
-0.117831
-0.100528
-0.0857607
-0.073158
-0.0624016
-0.0532255
-0.0454095
-0.0387348
-0.0329029
-0.0277733
-0.0243407
-0.320504
-0.309016
-0.2863
-0.254819
-0.2203
-0.186967
-0.156875
-0.130649
-0.108187
-0.0891
-0.0729377
-0.0592773
-0.0477522
-0.0380527
-0.0299206
-0.0231425
-0.0175063
-0.0127233
-0.00863187
-0.0060934
-0.281592
-0.270994
-0.248542
-0.217435
-0.183708
-0.151503
-0.122716
-0.0978493
-0.0767312
-0.0589411
-0.0440203
-0.0315515
-0.021179
-0.0126072
-0.005593
6.46561e-05
0.00456534
0.00818099
0.0110958
0.0125717
-0.239579
-0.229963
-0.208002
-0.177578
-0.144957
-0.114147
-0.0868789
-0.0635399
-0.0438949
-0.027501
-0.0138986
-0.00268158
0.00648859
0.0138858
0.0197299
0.0242059
0.0274968
0.0298186
0.0312906
0.0312551
-0.194799
-0.186253
-0.165007
-0.135565
-0.104339
-0.0751676
-0.0496089
-0.0279407
-0.00987445
0.00504912
0.017285
0.0272241
0.0351807
0.041396
0.0460555
0.0493227
0.0513398
0.0521464
0.051631
0.049513
-0.147626
-0.140232
-0.119919
-0.0917402
-0.0621748
-0.0348597
-0.0111771
0.00869784
0.0251003
0.0385028
0.0493562
0.0580378
0.0648391
0.0699666
0.0735687
0.0757772
0.0766192
0.0757362
0.0726599
0.0684097
-0.0984689
-0.0923019
-0.0731276
-0.0464718
-0.0188062
0.00646014
0.0281202
0.0460941
0.0607583
0.0725977
0.082064
0.0895325
0.0952918
0.0995472
0.10246
0.104179
0.104606
0.102887
0.0983202
0.0937181
-0.0477622
-0.042887
-0.025042
-0.000143626
0.025411
0.0484607
0.0679699
0.0839454
0.0967976
0.10702
0.115067
0.121315
0.12607
0.129574
0.132072
0.133841
0.134854
0.134126
0.131397
0.134975
0.00404935
0.00757524
0.0239182
0.0468515
0.0701134
0.090804
0.108053
0.121945
0.132914
0.141457
0.148021
0.152979
0.156632
0.159236
0.161052
0.162345
0.1631
0.162845
0.162478
0.168214
0.0565025
0.0586336
0.0733242
0.0941163
0.114936
0.133153
0.148055
0.159791
0.168817
0.175624
0.18065
0.184257
0.186741
0.188357
0.189354
0.189953
0.190137
0.189611
0.189287
0.193907
0.109131
0.109835
0.122748
0.141256
0.159518
0.175176
0.187667
0.197196
0.20423
0.209249
0.212677
0.21486
0.216081
0.216582
0.216591
0.216308
0.215726
0.214622
0.213747
0.216863
0.161472
0.160728
0.171766
0.187884
0.203507
0.216553
0.226596
0.233888
0.238901
0.242101
0.243892
0.244602
0.244494
0.24379
0.242696
0.241379
0.239821
0.237827
0.236086
0.237803
0.213068
0.210871
0.219965
0.233621
0.246563
0.256976
0.264561
0.269611
0.272596
0.273966
0.274103
0.273312
0.271838
0.269882
0.267626
0.265212
0.262607
0.259636
0.256954
0.257329
0.263474
0.259832
0.266943
0.278105
0.288358
0.296149
0.301296
0.304126
0.3051
0.304653
0.30314
0.300848
0.297998
0.294773
0.291334
0.287796
0.284119
0.280153
0.276526
0.275634
0.312257
0.307195
0.312314
0.320986
0.328579
0.333792
0.33655
0.337206
0.336212
0.333982
0.33085
0.327079
0.322872
0.318393
0.313781
0.309134
0.304403
0.299469
0.294923
0.292825
0.359008
0.352563
0.355711
0.361934
0.36693
0.369641
0.370085
0.368638
0.365741
0.361786
0.357085
0.351881
0.346357
0.340659
0.33491
0.329189
0.323449
0.317591
0.312164
0.308924
0.403333
0.39556
0.396788
0.400636
0.403132
0.403444
0.401677
0.398222
0.393507
0.387905
0.381707
0.375133
0.368351
0.361489
0.354656
0.347915
0.341221
0.334497
0.328236
0.323917
0.444867
0.435833
0.435218
0.436799
0.436924
0.434968
0.431116
0.425768
0.419342
0.412189
0.404579
0.396716
0.38875
0.380795
0.372943
0.365248
0.357667
0.350139
0.343097
0.337767
0.483267
0.473055
0.470702
0.470154
0.468062
0.463995
0.458205
0.4511
0.443086
0.434494
0.425576
0.416517
0.407453
0.398485
0.389692
0.381116
0.372722
0.364459
0.356692
0.350426
0.518222
0.506925
0.502964
0.500451
0.496324
0.490325
0.482763
0.474055
0.464591
0.454686
0.444574
0.434425
0.424361
0.414471
0.404822
0.395448
0.386318
0.377391
0.368964
0.36184
0.549446
0.537173
0.531753
0.527467
0.52151
0.513777
0.504628
0.494483
0.483722
0.472643
0.461463
0.45034
0.439382
0.428669
0.418256
0.408171
0.398387
0.388871
0.379853
0.371958
0.57669
0.563558
0.55685
0.551002
0.543439
0.534188
0.523651
0.512252
0.500358
0.488252
0.47614
0.464166
0.452429
0.440998
0.42992
0.419216
0.408866
0.398838
0.389302
0.380731
0.599733
0.58587
0.578062
0.570884
0.561957
0.551418
0.539705
0.527243
0.51439
0.501416
0.488515
0.475822
0.463426
0.451388
0.439747
0.428522
0.417694
0.407236
0.397259
0.388113
0.618392
0.603934
0.595229
0.586967
0.576931
0.565347
0.552681
0.539358
0.525727
0.512051
0.498511
0.485235
0.472305
0.459776
0.447681
0.436034
0.424821
0.414015
0.403681
0.394066
0.632517
0.617607
0.608218
0.599133
0.588255
0.575879
0.562492
0.548516
0.534297
0.520087
0.506064
0.492347
0.479014
0.466114
0.453674
0.441708
0.430204
0.419135
0.408529
0.398558
0.641997
0.626782
0.616933
0.607293
0.595849
0.582942
0.569069
0.554655
0.540041
0.525474
0.511127
0.497114
0.48351
0.47036
0.45769
0.44551
0.433811
0.422566
0.411777
0.401567
0.646755
0.631387
0.621306
0.611387
0.59966
0.586485
0.572368
0.557735
0.542922
0.528176
0.513666
0.499504
0.485764
0.47249
0.459704
0.447417
0.43562
0.424287
0.413406
0.403075
0.646753
0.631386
0.621305
0.611386
0.599659
0.586484
0.572368
0.557734
0.542922
0.528176
0.513665
0.499504
0.485764
0.472489
0.459704
0.447417
0.43562
0.424287
0.413405
0.403075
0.641993
0.626779
0.616929
0.60729
0.595847
0.582939
0.569067
0.554653
0.540039
0.525473
0.511125
0.497112
0.483508
0.470359
0.457689
0.445509
0.433811
0.422566
0.411777
0.401566
0.632511
0.617601
0.608212
0.599128
0.58825
0.575875
0.562488
0.548512
0.534294
0.520085
0.506062
0.492345
0.479012
0.466112
0.453673
0.441707
0.430203
0.419134
0.408528
0.398557
0.618383
0.603926
0.595221
0.58696
0.576924
0.565341
0.552676
0.539353
0.525723
0.512047
0.498508
0.485232
0.472303
0.459774
0.447679
0.436032
0.424819
0.414013
0.403679
0.394064
0.599722
0.585859
0.578052
0.570875
0.561948
0.55141
0.539699
0.527237
0.514384
0.501411
0.488511
0.475818
0.463422
0.451384
0.439744
0.428519
0.417691
0.407233
0.397257
0.388111
0.576676
0.563545
0.556838
0.550991
0.543429
0.534179
0.523643
0.512244
0.500351
0.488246
0.476135
0.464161
0.452425
0.440994
0.429916
0.419213
0.408862
0.398835
0.389299
0.380728
0.54943
0.537158
0.531739
0.527454
0.521498
0.513766
0.504618
0.494475
0.483715
0.472636
0.461457
0.450334
0.439377
0.428664
0.418251
0.408167
0.398384
0.388868
0.37985
0.371955
0.518203
0.506908
0.502947
0.500436
0.496311
0.490313
0.482752
0.474045
0.464582
0.454678
0.444567
0.434419
0.424356
0.414466
0.404817
0.395444
0.386314
0.377387
0.368961
0.361837
0.483247
0.473035
0.470683
0.470137
0.468047
0.463981
0.458192
0.451089
0.443076
0.434485
0.425568
0.416509
0.407446
0.398479
0.389686
0.381111
0.372717
0.364454
0.356688
0.350422
0.444844
0.435811
0.435198
0.43678
0.436907
0.434953
0.431102
0.425755
0.419331
0.412179
0.40457
0.396708
0.388742
0.380788
0.372937
0.365242
0.357661
0.350134
0.343092
0.337763
0.403308
0.395536
0.396765
0.400615
0.403114
0.403427
0.401662
0.398208
0.393495
0.387894
0.381697
0.375124
0.368342
0.361482
0.354649
0.347909
0.341215
0.334492
0.328231
0.323913
0.35898
0.352537
0.355687
0.361912
0.36691
0.369622
0.370069
0.368623
0.365728
0.361774
0.357075
0.351871
0.346348
0.340651
0.334903
0.329182
0.323443
0.317586
0.312159
0.308919
0.312228
0.307166
0.312287
0.320962
0.328557
0.333773
0.336533
0.33719
0.336198
0.333969
0.330838
0.327068
0.322863
0.318384
0.313773
0.309126
0.304397
0.299463
0.294917
0.292819
0.263442
0.259801
0.266914
0.278079
0.288334
0.296128
0.301277
0.304109
0.305085
0.304639
0.303128
0.300836
0.297988
0.294764
0.291325
0.287788
0.284111
0.280146
0.27652
0.275628
0.213035
0.210839
0.219935
0.233594
0.246538
0.256954
0.264541
0.269594
0.27258
0.273952
0.274089
0.2733
0.271827
0.269872
0.267617
0.265204
0.2626
0.259629
0.256948
0.257323
0.161438
0.160694
0.171735
0.187855
0.203481
0.21653
0.226575
0.23387
0.238884
0.242086
0.243878
0.244589
0.244483
0.24378
0.242686
0.24137
0.239813
0.23782
0.236079
0.237796
0.109095
0.109799
0.122715
0.141226
0.15949
0.175152
0.187645
0.197177
0.204212
0.209233
0.212662
0.214847
0.216069
0.21657
0.216581
0.216298
0.215717
0.214614
0.213739
0.216856
0.0564647
0.0585968
0.0732897
0.0940847
0.114907
0.133127
0.148032
0.159771
0.168798
0.175607
0.180634
0.184243
0.186728
0.188345
0.189343
0.189943
0.190128
0.189603
0.189279
0.193899
0.00401037
0.00753736
0.0238825
0.0468188
0.0700839
0.0907776
0.10803
0.121923
0.132895
0.14144
0.148005
0.152964
0.156619
0.159224
0.161041
0.162334
0.16309
0.162836
0.162469
0.168206
-0.0478021
-0.0429258
-0.0250786
-0.000177181
0.0253807
0.0484334
0.0679454
0.0839233
0.0967776
0.107002
0.11505
0.1213
0.126056
0.129561
0.13206
0.13383
0.134844
0.134117
0.131388
0.134967
-0.0985096
-0.0923414
-0.073165
-0.0465061
-0.0188372
0.00643221
0.0280951
0.0460715
0.0607378
0.072579
0.0820469
0.0895169
0.0952774
0.0995339
0.102447
0.104167
0.104595
0.102877
0.0983103
0.0937085
-0.147667
-0.140272
-0.119957
-0.091775
-0.0622064
-0.0348882
-0.0112027
0.0086747
0.0250793
0.0384837
0.0493387
0.0580217
0.0648242
0.0699528
0.0735558
0.0757651
0.0766078
0.0757252
0.0726492
0.0683991
-0.19484
-0.186293
-0.165045
-0.1356
-0.104371
-0.0751964
-0.0496349
-0.0279641
-0.00989576
0.00502968
0.0172672
0.0272076
0.0351655
0.0413818
0.0460422
0.0493102
0.0513278
0.052135
0.0516198
0.0495019
-0.23962
-0.230003
-0.20804
-0.177613
-0.144989
-0.114176
-0.086905
-0.0635635
-0.0439165
-0.0275206
-0.0139167
-0.00269823
0.00647314
0.0138714
0.0197164
0.0241931
0.0274845
0.0298068
0.0312792
0.0312439
-0.281633
-0.271034
-0.24858
-0.21747
-0.18374
-0.151532
-0.122742
-0.097873
-0.0767528
-0.0589608
-0.0440384
-0.0315682
-0.0211946
-0.0126218
-0.00560675
5.16193e-05
0.0045529
0.00816903
0.0110843
0.0125604
-0.320544
-0.309055
-0.286337
-0.254854
-0.220331
-0.186996
-0.156901
-0.130673
-0.108208
-0.0891197
-0.0729558
-0.0592941
-0.0477679
-0.0380673
-0.0299345
-0.0231556
-0.0175189
-0.0127354
-0.00864358
-0.00610479
-0.356067
-0.343783
-0.321024
-0.289484
-0.254498
-0.220327
-0.189168
-0.16177
-0.138113
-0.117851
-0.100546
-0.0857774
-0.0731736
-0.0624163
-0.0532394
-0.0454226
-0.0387475
-0.0329151
-0.0277851
-0.0243522
-0.387968
-0.374985
-0.352398
-0.321117
-0.28601
-0.251316
-0.219354
-0.191
-0.166324
-0.145031
-0.126706
-0.110938
-0.0973536
-0.0856328
-0.0755055
-0.0667498
-0.059146
-0.0523888
-0.0463346
-0.0420515
-0.416071
-0.402485
-0.380268
-0.349555
-0.314673
-0.279785
-0.247302
-0.218225
-0.192722
-0.170559
-0.151355
-0.134711
-0.120261
-0.107686
-0.0967149
-0.0871267
-0.0787044
-0.0711425
-0.0642821
-0.0592026
-0.440264
-0.426169
-0.404501
-0.374645
-0.340334
-0.305588
-0.272881
-0.243332
-0.217212
-0.194357
-0.174426
-0.157044
-0.141855
-0.128544
-0.116844
-0.106534
-0.0974028
-0.0891511
-0.0816036
-0.0758146
-0.460496
-0.445987
-0.425021
-0.396285
-0.362879
-0.328614
-0.295992
-0.266234
-0.239719
-0.216361
-0.195869
-0.177896
-0.162102
-0.14818
-0.135869
-0.12495
-0.11522
-0.106389
-0.0982668
-0.0918637
-0.476785
-0.461954
-0.441813
-0.414427
-0.382237
-0.348788
-0.316562
-0.286869
-0.260191
-0.236528
-0.215648
-0.197237
-0.180976
-0.166572
-0.153769
-0.142356
-0.132134
-0.122828
-0.114235
-0.107306
-0.489212
-0.47415
-0.454926
-0.429078
-0.398386
-0.366071
-0.334551
-0.305198
-0.278596
-0.254833
-0.233741
-0.215048
-0.198461
-0.183704
-0.17053
-0.158732
-0.148124
-0.138444
-0.129475
-0.122101
-0.49792
-0.482717
-0.464471
-0.440301
-0.411347
-0.38046
-0.349944
-0.321207
-0.29492
-0.271265
-0.25014
-0.231323
-0.214552
-0.199569
-0.186142
-0.17407
-0.163177
-0.153217
-0.143964
-0.136223
-0.50311
-0.487858
-0.470618
-0.448216
-0.42119
-0.391991
-0.36276
-0.334905
-0.309173
-0.285831
-0.264854
-0.24607
-0.229254
-0.214173
-0.200607
-0.188368
-0.177288
-0.167139
-0.15769
-0.149661
-0.505036
-0.489827
-0.473596
-0.452997
-0.428035
-0.400739
-0.373045
-0.346325
-0.321379
-0.298555
-0.277903
-0.259308
-0.242584
-0.227527
-0.213936
-0.201633
-0.190461
-0.180211
-0.170651
-0.162412
-0.503993
-0.488923
-0.473679
-0.454869
-0.432045
-0.406817
-0.380878
-0.355523
-0.331583
-0.309475
-0.28932
-0.271065
-0.254569
-0.239656
-0.226148
-0.213881
-0.202708
-0.192443
-0.182853
-0.174482
-0.500316
-0.485481
-0.471186
-0.454103
-0.433431
-0.410377
-0.386364
-0.362578
-0.339847
-0.318642
-0.299153
-0.281385
-0.265245
-0.250592
-0.237272
-0.225136
-0.214052
-0.203851
-0.194309
-0.185884
-0.494361
-0.47986
-0.466463
-0.451008
-0.432442
-0.411606
-0.389642
-0.36759
-0.346249
-0.326122
-0.307455
-0.290316
-0.274657
-0.260375
-0.247343
-0.235431
-0.224519
-0.214461
-0.205041
-0.196637
-0.4865
-0.47243
-0.459878
-0.445924
-0.429365
-0.410728
-0.390877
-0.370684
-0.350883
-0.331989
-0.314294
-0.297915
-0.282856
-0.269051
-0.256403
-0.244802
-0.234144
-0.224302
-0.215076
-0.206765
-0.477106
-0.463564
-0.451805
-0.439207
-0.424512
-0.407996
-0.390264
-0.372002
-0.353859
-0.336331
-0.31974
-0.304246
-0.289898
-0.276672
-0.264498
-0.253292
-0.242965
-0.233409
-0.224444
-0.2163
-0.466547
-0.453625
-0.442613
-0.431218
-0.418213
-0.403689
-0.388021
-0.371713
-0.355302
-0.339246
-0.323872
-0.309375
-0.295844
-0.28329
-0.271677
-0.260944
-0.251021
-0.24182
-0.233181
-0.225272
-0.455172
-0.442953
-0.43265
-0.422314
-0.410806
-0.398101
-0.38439
-0.370003
-0.355354
-0.34084
-0.326775
-0.313373
-0.300752
-0.288959
-0.277989
-0.267804
-0.258355
-0.249572
-0.241319
-0.233712
-0.443303
-0.431859
-0.42224
-0.412828
-0.402622
-0.391537
-0.379629
-0.367077
-0.354172
-0.341232
-0.32854
-0.316311
-0.304684
-0.293732
-0.283479
-0.273913
-0.265003
-0.2567
-0.248891
-0.241651
-0.431229
-0.42062
-0.411666
-0.403064
-0.393973
-0.384297
-0.374004
-0.363156
-0.351927
-0.340551
-0.329264
-0.318264
-0.307697
-0.297658
-0.288191
-0.279309
-0.271
-0.263235
-0.255924
-0.24911
-0.419201
-0.40947
-0.401172
-0.393287
-0.385144
-0.376667
-0.367782
-0.358469
-0.348806
-0.338941
-0.329052
-0.319309
-0.309851
-0.300782
-0.292163
-0.284025
-0.276375
-0.269201
-0.262438
-0.256104
-0.40743
-0.398603
-0.390956
-0.383718
-0.37638
-0.368907
-0.36122
-0.353251
-0.345004
-0.336555
-0.32802
-0.31953
-0.311206
-0.303147
-0.295425
-0.288084
-0.281146
-0.274615
-0.268445
-0.262638
-0.396086
-0.388171
-0.381172
-0.374528
-0.36788
-0.361243
-0.354554
-0.347727
-0.340723
-0.333559
-0.326295
-0.319019
-0.311823
-0.304795
-0.298006
-0.291506
-0.285326
-0.279483
-0.27395
-0.268709
-0.385299
-0.378287
-0.371931
-0.365845
-0.3598
-0.353858
-0.347987
-0.342108
-0.336162
-0.330126
-0.324016
-0.317878
-0.311775
-0.305773
-0.299933
-0.294305
-0.288923
-0.28381
-0.278953
-0.274309
-0.375164
-0.369027
-0.363304
-0.357751
-0.352245
-0.34689
-0.341688
-0.336581
-0.331509
-0.32643
-0.321331
-0.316224
-0.311143
-0.306131
-0.301235
-0.296494
-0.29194
-0.287594
-0.283454
-0.279434
-0.365739
-0.360437
-0.355332
-0.350293
-0.345282
-0.340434
-0.335782
-0.331297
-0.32693
-0.322637
-0.318391
-0.314182
-0.310022
-0.305934
-0.301948
-0.298089
-0.294381
-0.290837
-0.287458
-0.284095
-0.357056
-0.352536
-0.348028
-0.343486
-0.33894
-0.334542
-0.330353
-0.32637
-0.322564
-0.318898
-0.315344
-0.311885
-0.30852
-0.305258
-0.302117
-0.299113
-0.296254
-0.293543
-0.290981
-0.288331
-0.349122
-0.345323
-0.341382
-0.337322
-0.333218
-0.329232
-0.325446
-0.321877
-0.318515
-0.315339
-0.312327
-0.309465
-0.30675
-0.304191
-0.301802
-0.299593
-0.297568
-0.295717
-0.294043
-0.292218
-0.341923
-0.338778
-0.335371
-0.331774
-0.328094
-0.324497
-0.321072
-0.317855
-0.314852
-0.312054
-0.309453
-0.307042
-0.304829
-0.302829
-0.301065
-0.29956
-0.298326
-0.29735
-0.296644
-0.295839
-0.335429
-0.332867
-0.329957
-0.326801
-0.32353
-0.320304
-0.317216
-0.314311
-0.311607
-0.309106
-0.306809
-0.304722
-0.302864
-0.301267
-0.299977
-0.299044
-0.298513
-0.298399
-0.298734
-0.299263
-0.329598
-0.32755
-0.325094
-0.322357
-0.319477
-0.316608
-0.313841
-0.311225
-0.308782
-0.306522
-0.304451
-0.302583
-0.300948
-0.299596
-0.298602
-0.298062
-0.298081
-0.298747
-0.300147
-0.302411
-0.324375
-0.322775
-0.320733
-0.318387
-0.31588
-0.313355
-0.310897
-0.308555
-0.306352
-0.304299
-0.302401
-0.300675
-0.299152
-0.297896
-0.297006
-0.296628
-0.296953
-0.298195
-0.300578
-0.305053
-0.319703
-0.318491
-0.31682
-0.314835
-0.31268
-0.310483
-0.308323
-0.306245
-0.304271
-0.302406
-0.300652
-0.299017
-0.297526
-0.296237
-0.295257
-0.294766
-0.295037
-0.296435
-0.299476
-0.30644
-0.31552
-0.314641
-0.313302
-0.311647
-0.309818
-0.307929
-0.306053
-0.30423
-0.302475
-0.300789
-0.299166
-0.297598
-0.296091
-0.294679
-0.293443
-0.292553
-0.292308
-0.293177
-0.296188
-0.305692
-0.311768
-0.311174
-0.310127
-0.308769
-0.307238
-0.305635
-0.304024
-0.30244
-0.300894
-0.299381
-0.297882
-0.296375
-0.294836
-0.293255
-0.291651
-0.290106
-0.288815
-0.288105
-0.289282
-0.298998
-0.30839
-0.308041
-0.307249
-0.306155
-0.304892
-0.303547
-0.302177
-0.300812
-0.29946
-0.298109
-0.296732
-0.295288
-0.293724
-0.291972
-0.289943
-0.287524
-0.284546
-0.280498
-0.274075
-0.266457
-0.305338
-0.305198
-0.304627
-0.303765
-0.302738
-0.301622
-0.300466
-0.299298
-0.29812
-0.296919
-0.295663
-0.294305
-0.292779
-0.290999
-0.288848
-0.28618
-0.282821
-0.278374
-0.271945
-0.265242
-0.302569
-0.302609
-0.302229
-0.301568
-0.300746
-0.299829
-0.298861
-0.297863
-0.296839
-0.295774
-0.294636
-0.293382
-0.291952
-0.290268
-0.288239
-0.285766
-0.282758
-0.278986
-0.274004
-0.269697
-0.30005
-0.300243
-0.300027
-0.299539
-0.298894
-0.298149
-0.297343
-0.296494
-0.295603
-0.294657
-0.29363
-0.292483
-0.291167
-0.289623
-0.287785
-0.285598
-0.283022
-0.27991
-0.27607
-0.273359
-0.297751
-0.298076
-0.298
-0.297661
-0.297169
-0.296574
-0.295907
-0.295187
-0.294415
-0.293578
-0.292655
-0.291615
-0.290422
-0.289034
-0.287412
-0.285536
-0.283403
-0.280934
-0.278085
-0.276495
-0.295652
-0.296089
-0.296133
-0.295922
-0.295563
-0.295098
-0.294556
-0.293952
-0.293288
-0.292556
-0.291737
-0.29081
-0.289751
-0.288536
-0.287146
-0.285589
-0.28389
-0.282016
-0.279993
-0.279184
-0.293733
-0.294266
-0.294413
-0.294314
-0.294071
-0.293723
-0.293294
-0.292798
-0.292239
-0.291611
-0.290902
-0.290099
-0.289186
-0.288154
-0.287002
-0.285754
-0.28445
-0.28308
-0.281689
-0.281392
-0.29198
-0.292595
-0.292831
-0.292829
-0.29269
-0.292448
-0.292124
-0.291732
-0.291278
-0.290757
-0.290165
-0.289493
-0.288735
-0.287892
-0.286974
-0.286012
-0.285051
-0.284088
-0.283156
-0.283183
-0.290378
-0.291065
-0.291379
-0.291463
-0.291418
-0.291272
-0.291047
-0.290756
-0.290406
-0.289996
-0.289524
-0.288988
-0.288389
-0.287732
-0.287034
-0.286327
-0.285655
-0.28501
-0.284408
-0.284636
-0.288918
-0.289668
-0.29005
-0.290211
-0.29025
-0.290193
-0.290061
-0.289867
-0.289619
-0.289319
-0.288968
-0.288568
-0.288122
-0.287641
-0.287142
-0.286655
-0.28622
-0.285821
-0.285455
-0.285811
-0.287589
-0.288397
-0.288841
-0.289069
-0.289184
-0.289209
-0.289163
-0.289061
-0.288911
-0.288716
-0.288481
-0.288209
-0.287906
-0.287584
-0.287258
-0.286957
-0.286713
-0.286504
-0.28631
-0.286753
-0.286387