/*--------------------------------*- C++ -*----------------------------------*\
  =========                 |
  \\      /  F ield         | OpenFOAM: The Open Source CFD Toolbox
   \\    /   O peration     | Website:  https://openfoam.org
    \\  /    A nd           | Version:  6.0
     \\/     M anipulation  |
\*---------------------------------------------------------------------------*/
FoamFile
{
    version     2.0;
    format      ascii;
    class       volScalarField;
    location    "60";
    object      p;
}
// * * * * * * * * * * * * * * * * * * * * * * * * * * * * * * * * * * * * * //

dimensions      [0 2 -2 0 0 0 0];

internalField   nonuniform List<scalar> 
12500
(
-0.388538
-0.389666
-0.390379
-0.390873
-0.391283
-0.391641
-0.39197
-0.392285
-0.392592
-0.392894
-0.393188
-0.393472
-0.393744
-0.394
-0.39424
-0.394464
-0.394673
-0.394867
-0.39505
-0.395225
-0.395393
-0.395557
-0.395742
-0.395968
-0.396028
-0.393244
-0.394312
-0.395006
-0.395511
-0.395956
-0.396375
-0.39679
-0.397216
-0.397661
-0.398124
-0.398602
-0.399092
-0.39959
-0.400092
-0.400596
-0.401098
-0.401599
-0.402098
-0.402595
-0.403092
-0.403586
-0.404079
-0.404601
-0.405176
-0.40552
-0.398033
-0.399028
-0.399694
-0.400204
-0.40068
-0.401155
-0.401654
-0.40219
-0.402769
-0.40339
-0.40405
-0.404743
-0.405465
-0.406208
-0.40697
-0.407745
-0.408532
-0.409328
-0.410131
-0.410941
-0.411753
-0.412566
-0.413416
-0.414328
-0.414959
-0.402878
-0.403786
-0.404416
-0.404924
-0.405425
-0.405952
-0.40653
-0.407171
-0.40788
-0.408655
-0.409491
-0.410382
-0.41132
-0.412298
-0.413309
-0.414348
-0.41541
-0.41649
-0.417586
-0.418694
-0.419807
-0.420923
-0.422082
-0.42331
-0.424225
-0.407754
-0.408559
-0.409142
-0.40964
-0.41016
-0.410733
-0.411382
-0.412122
-0.412954
-0.413876
-0.414881
-0.415961
-0.417105
-0.418307
-0.419555
-0.420844
-0.422165
-0.423512
-0.42488
-0.426264
-0.427655
-0.42905
-0.430488
-0.432002
-0.433188
-0.412632
-0.413318
-0.413843
-0.414323
-0.414852
-0.415462
-0.416176
-0.417005
-0.417951
-0.41901
-0.420173
-0.421429
-0.422768
-0.424178
-0.425647
-0.427167
-0.428726
-0.430317
-0.431931
-0.433562
-0.435199
-0.436839
-0.43852
-0.440276
-0.441713
-0.417481
-0.418033
-0.418489
-0.418941
-0.419469
-0.420107
-0.420874
-0.421781
-0.422829
-0.424012
-0.425318
-0.426736
-0.428252
-0.429851
-0.431521
-0.433248
-0.43502
-0.436825
-0.438654
-0.440496
-0.442341
-0.444184
-0.446061
-0.448007
-0.449666
-0.422271
-0.422675
-0.423051
-0.423464
-0.42398
-0.424632
-0.425439
-0.426411
-0.427546
-0.428835
-0.430268
-0.431828
-0.4335
-0.435267
-0.437112
-0.439019
-0.440973
-0.442959
-0.444964
-0.446977
-0.448986
-0.450983
-0.453001
-0.455077
-0.456918
-0.42697
-0.427214
-0.427499
-0.427862
-0.428354
-0.429006
-0.429837
-0.430856
-0.432059
-0.433437
-0.434974
-0.436654
-0.438458
-0.440365
-0.442357
-0.444414
-0.446515
-0.448644
-0.450784
-0.452921
-0.455042
-0.45714
-0.459237
-0.461375
-0.463353
-0.431548
-0.431624
-0.431808
-0.432109
-0.432562
-0.433198
-0.434036
-0.435082
-0.436332
-0.437774
-0.439391
-0.441164
-0.443072
-0.445091
-0.447198
-0.449368
-0.45158
-0.45381
-0.45604
-0.458251
-0.46043
-0.462569
-0.464681
-0.466806
-0.468867
-0.435975
-0.43588
-0.435955
-0.436182
-0.436581
-0.437183
-0.438007
-0.439057
-0.440329
-0.441809
-0.443478
-0.445316
-0.447296
-0.449393
-0.451579
-0.453827
-0.456108
-0.458397
-0.460668
-0.462901
-0.465081
-0.467198
-0.469255
-0.47129
-0.473375
-0.440228
-0.43996
-0.43992
-0.440062
-0.440392
-0.44094
-0.441727
-0.442756
-0.444022
-0.445511
-0.447202
-0.449071
-0.45109
-0.453229
-0.455457
-0.457742
-0.460051
-0.462352
-0.464616
-0.466818
-0.46894
-0.470971
-0.472901
-0.474763
-0.476806
-0.444287
-0.443851
-0.443691
-0.443737
-0.44398
-0.444455
-0.44518
-0.446161
-0.447392
-0.448858
-0.450536
-0.452402
-0.454423
-0.456566
-0.458797
-0.461077
-0.46337
-0.465637
-0.467844
-0.469961
-0.471965
-0.473845
-0.475576
-0.47718
-0.479107
-0.448135
-0.447541
-0.447259
-0.447199
-0.44734
-0.44772
-0.448358
-0.449262
-0.450426
-0.451835
-0.453466
-0.455291
-0.457276
-0.459385
-0.461577
-0.463811
-0.466043
-0.468231
-0.470331
-0.472307
-0.474134
-0.475797
-0.477254
-0.478508
-0.480236
-0.451768
-0.45103
-0.450626
-0.45045
-0.450473
-0.450736
-0.451262
-0.452059
-0.453124
-0.454442
-0.45599
-0.457737
-0.459647
-0.461681
-0.463793
-0.465938
-0.468066
-0.470126
-0.47207
-0.473852
-0.475442
-0.476819
-0.477924
-0.478732
-0.480162
-0.455187
-0.454322
-0.453798
-0.453498
-0.453388
-0.453513
-0.453901
-0.454563
-0.455497
-0.45669
-0.458117
-0.459749
-0.461546
-0.463466
-0.465458
-0.467472
-0.469452
-0.471339
-0.473077
-0.47461
-0.475901
-0.476922
-0.477595
-0.47785
-0.478863
-0.458403
-0.457431
-0.456791
-0.456359
-0.456103
-0.456071
-0.456296
-0.456795
-0.457567
-0.458601
-0.459875
-0.461356
-0.463003
-0.46477
-0.466604
-0.468446
-0.470234
-0.471903
-0.473385
-0.474616
-0.475544
-0.476138
-0.476292
-0.475877
-0.476327
-0.461437
-0.460379
-0.459628
-0.459059
-0.458643
-0.458435
-0.458476
-0.458785
-0.459368
-0.460214
-0.461302
-0.462599
-0.464062
-0.465641
-0.467279
-0.468911
-0.470467
-0.471872
-0.47305
-0.473921
-0.474423
-0.474512
-0.474058
-0.472849
-0.472562
-0.464321
-0.463198
-0.462339
-0.461627
-0.461041
-0.460643
-0.460479
-0.460577
-0.460945
-0.461576
-0.462451
-0.463535
-0.464784
-0.466143
-0.467551
-0.468936
-0.47022
-0.471319
-0.472141
-0.472597
-0.472606
-0.47211
-0.470955
-0.468826
-0.467602
-0.467095
-0.465925
-0.464963
-0.464104
-0.463337
-0.462735
-0.462351
-0.462219
-0.462352
-0.462748
-0.463386
-0.464232
-0.46524
-0.466352
-0.467499
-0.468604
-0.469578
-0.470326
-0.470746
-0.470729
-0.470178
-0.469018
-0.467069
-0.463903
-0.461525
-0.46981
-0.468608
-0.467544
-0.466533
-0.465578
-0.464762
-0.464145
-0.463769
-0.463653
-0.463795
-0.464178
-0.464766
-0.465512
-0.466352
-0.467211
-0.468004
-0.468633
-0.46899
-0.46896
-0.468418
-0.467245
-0.465349
-0.462531
-0.45824
-0.454497
-0.472526
-0.471298
-0.470132
-0.468964
-0.467815
-0.466776
-0.465919
-0.46529
-0.464912
-0.46479
-0.464904
-0.46522
-0.465685
-0.466231
-0.466778
-0.467231
-0.467481
-0.46741
-0.466888
-0.465774
-0.463931
-0.461247
-0.457516
-0.452075
-0.446803
-0.475307
-0.474052
-0.472779
-0.471449
-0.4701
-0.468835
-0.467732
-0.466844
-0.4662
-0.465806
-0.465642
-0.465673
-0.465842
-0.466077
-0.466289
-0.466375
-0.466219
-0.465688
-0.464641
-0.462921
-0.460368
-0.456853
-0.452166
-0.445544
-0.438594
-0.478222
-0.47693
-0.475542
-0.474044
-0.472491
-0.470996
-0.469645
-0.468497
-0.467585
-0.466913
-0.466466
-0.466202
-0.466061
-0.465967
-0.465824
-0.465523
-0.46494
-0.463936
-0.462359
-0.46004
-0.456795
-0.45245
-0.446719
-0.438661
-0.429736
-0.481341
-0.479992
-0.478477
-0.476803
-0.475041
-0.473315
-0.471717
-0.47031
-0.469128
-0.468178
-0.46744
-0.466872
-0.466408
-0.465968
-0.46545
-0.464744
-0.463724
-0.462256
-0.460197
-0.457391
-0.453671
-0.448845
-0.442496
-0.433459
-0.423387
-0.484731
-0.483297
-0.481637
-0.479777
-0.477803
-0.475845
-0.474
-0.472336
-0.470885
-0.469654
-0.46862
-0.467736
-0.466932
-0.466124
-0.465209
-0.464075
-0.462606
-0.460682
-0.458188
-0.455023
-0.45111
-0.446404
-0.440845
-0.43473
-0.431693
-0.488456
-0.486899
-0.485073
-0.483017
-0.480825
-0.478633
-0.476543
-0.474622
-0.472902
-0.471385
-0.470045
-0.468828
-0.467663
-0.466459
-0.465115
-0.463521
-0.461572
-0.459164
-0.456213
-0.452655
-0.448465
-0.443668
-0.43833
-0.432814
-0.429525
-0.492572
-0.490847
-0.48883
-0.486565
-0.484147
-0.481719
-0.479383
-0.477204
-0.475211
-0.4734
-0.471738
-0.470169
-0.468612
-0.466977
-0.465163
-0.463067
-0.460593
-0.457657
-0.454196
-0.450176
-0.445599
-0.44051
-0.434988
-0.429234
-0.424705
-0.497126
-0.495184
-0.492948
-0.490457
-0.487804
-0.485135
-0.482551
-0.480109
-0.477834
-0.475715
-0.473711
-0.471757
-0.469773
-0.467663
-0.46533
-0.46268
-0.459628
-0.456107
-0.452074
-0.447513
-0.442437
-0.436893
-0.430938
-0.424672
-0.419025
-0.502154
-0.499942
-0.497458
-0.494724
-0.491826
-0.488908
-0.486066
-0.483353
-0.480782
-0.478333
-0.475956
-0.473582
-0.471124
-0.468488
-0.465581
-0.462319
-0.458633
-0.454472
-0.449811
-0.444648
-0.439005
-0.432927
-0.42646
-0.419655
-0.41312
-0.507684
-0.50515
-0.502385
-0.49939
-0.496232
-0.493054
-0.489944
-0.486944
-0.484056
-0.481247
-0.47846
-0.475618
-0.472632
-0.469411
-0.465871
-0.461941
-0.457567
-0.452718
-0.447387
-0.441588
-0.435351
-0.428723
-0.42175
-0.414471
-0.407298
-0.513734
-0.510824
-0.507749
-0.504473
-0.50104
-0.497586
-0.494192
-0.490883
-0.487648
-0.484441
-0.481196
-0.477829
-0.474254
-0.470385
-0.466152
-0.461498
-0.456391
-0.45082
-0.444796
-0.438349
-0.431521
-0.424363
-0.416927
-0.409251
-0.401624
-0.520313
-0.516978
-0.513562
-0.509985
-0.506259
-0.502513
-0.498812
-0.495165
-0.491544
-0.48789
-0.484129
-0.480173
-0.475941
-0.47136
-0.466373
-0.460946
-0.455071
-0.448756
-0.442033
-0.434946
-0.427549
-0.419899
-0.412051
-0.404047
-0.396101
-0.527421
-0.523616
-0.519832
-0.515934
-0.511897
-0.507836
-0.5038
-0.499777
-0.495721
-0.491562
-0.487216
-0.4826
-0.477639
-0.472279
-0.466484
-0.460245
-0.453576
-0.44651
-0.439095
-0.431389
-0.423454
-0.415352
-0.407138
-0.39886
-0.390677
-0.535052
-0.530737
-0.526561
-0.522324
-0.517954
-0.513553
-0.509147
-0.5047
-0.50015
-0.495413
-0.490406
-0.48505
-0.479289
-0.473087
-0.466436
-0.459354
-0.45188
-0.444066
-0.435977
-0.42768
-0.419242
-0.410725
-0.402185
-0.393667
-0.385292
-0.543193
-0.538333
-0.533744
-0.529151
-0.524427
-0.519654
-0.514833
-0.509905
-0.504788
-0.499394
-0.49364
-0.487463
-0.480828
-0.473727
-0.466183
-0.458239
-0.449958
-0.44141
-0.432672
-0.423816
-0.414909
-0.406011
-0.397172
-0.388436
-0.379889
-0.551821
-0.546389
-0.54137
-0.536405
-0.531303
-0.52612
-0.52083
-0.515351
-0.509585
-0.503442
-0.496851
-0.48977
-0.482193
-0.474146
-0.46568
-0.456866
-0.447788
-0.438529
-0.429171
-0.419788
-0.410445
-0.401194
-0.392078
-0.383135
-0.374423
-0.560907
-0.554879
-0.549419
-0.544066
-0.538558
-0.53292
-0.527097
-0.520984
-0.514474
-0.507484
-0.499963
-0.491899
-0.483321
-0.474289
-0.464886
-0.455206
-0.445349
-0.435406
-0.425462
-0.415585
-0.405835
-0.396254
-0.386877
-0.377733
-0.368855
-0.570406
-0.56377
-0.55786
-0.552103
-0.546155
-0.540008
-0.533576
-0.526735
-0.519379
-0.51144
-0.502897
-0.493777
-0.484148
-0.474106
-0.463762
-0.453231
-0.442621
-0.432027
-0.421529
-0.411191
-0.401061
-0.391171
-0.381545
-0.372205
-0.36316
-0.580267
-0.573014
-0.566649
-0.560471
-0.554044
-0.547323
-0.540193
-0.532521
-0.524209
-0.515218
-0.505568
-0.49533
-0.484613
-0.473549
-0.462273
-0.450913
-0.439582
-0.428372
-0.417356
-0.406587
-0.396102
-0.385922
-0.376059
-0.366525
-0.357314
-0.590419
-0.58255
-0.575728
-0.569109
-0.562157
-0.554785
-0.546859
-0.538243
-0.528863
-0.518722
-0.507887
-0.496482
-0.484656
-0.472572
-0.460383
-0.448225
-0.436209
-0.42442
-0.41292
-0.40175
-0.390934
-0.380481
-0.370394
-0.360671
-0.351298
-0.600781
-0.592302
-0.585023
-0.57794
-0.570405
-0.562297
-0.553467
-0.543791
-0.533233
-0.52185
-0.509768
-0.497161
-0.484219
-0.471129
-0.458057
-0.445137
-0.432476
-0.420147
-0.408198
-0.396656
-0.385531
-0.374824
-0.364525
-0.354619
-0.345093
-0.611251
-0.602179
-0.594444
-0.586866
-0.578685
-0.569745
-0.559895
-0.549041
-0.537202
-0.524499
-0.511123
-0.497297
-0.483247
-0.469177
-0.455258
-0.44162
-0.428356
-0.415525
-0.403161
-0.391275
-0.379865
-0.368922
-0.358425
-0.348346
-0.338677
-0.621714
-0.612072
-0.603882
-0.595774
-0.586873
-0.576996
-0.566008
-0.553863
-0.54065
-0.526566
-0.511866
-0.496821
-0.481685
-0.466673
-0.451952
-0.437641
-0.423817
-0.410524
-0.397777
-0.385576
-0.373906
-0.362745
-0.352067
-0.341825
-0.332029
-0.632038
-0.621855
-0.613211
-0.604532
-0.594828
-0.583905
-0.571661
-0.558121
-0.543457
-0.527949
-0.511915
-0.495668
-0.479482
-0.463573
-0.448099
-0.433164
-0.418826
-0.405109
-0.392015
-0.379527
-0.36762
-0.356263
-0.34542
-0.33503
-0.325126
-0.642074
-0.631389
-0.62229
-0.61299
-0.602395
-0.590314
-0.576704
-0.561677
-0.545504
-0.528548
-0.511189
-0.493774
-0.476585
-0.459833
-0.443661
-0.428152
-0.413345
-0.399246
-0.385838
-0.373093
-0.360974
-0.349444
-0.338455
-0.327934
-0.317943
-0.651662
-0.640516
-0.630959
-0.620985
-0.609406
-0.596058
-0.580982
-0.564394
-0.546675
-0.528271
-0.509615
-0.491077
-0.472943
-0.455409
-0.438597
-0.422568
-0.407338
-0.392896
-0.37921
-0.366239
-0.353935
-0.342255
-0.331142
-0.320507
-0.310452
-0.660626
-0.649067
-0.639048
-0.62834
-0.615684
-0.600968
-0.584338
-0.566138
-0.546859
-0.527027
-0.50712
-0.487521
-0.468507
-0.450256
-0.432865
-0.416369
-0.400766
-0.386023
-0.372095
-0.358929
-0.346469
-0.334665
-0.32345
-0.312723
-0.30263
-0.668783
-0.656864
-0.646374
-0.634872
-0.621048
-0.604872
-0.586621
-0.56678
-0.54595
-0.524732
-0.503636
-0.483048
-0.463229
-0.444331
-0.426423
-0.409518
-0.393589
-0.378589
-0.364457
-0.351129
-0.338543
-0.326642
-0.31535
-0.304554
-0.294449
-0.675943
-0.663718
-0.652749
-0.640389
-0.625313
-0.607601
-0.587686
-0.566199
-0.543853
-0.52131
-0.499102
-0.477607
-0.457061
-0.437589
-0.419231
-0.401974
-0.38577
-0.370556
-0.356259
-0.342805
-0.330125
-0.318156
-0.306814
-0.295972
-0.285885
-0.681911
-0.669438
-0.657978
-0.644701
-0.628298
-0.608993
-0.587395
-0.564284
-0.540478
-0.516689
-0.493458
-0.471145
-0.449959
-0.429989
-0.411248
-0.393698
-0.377271
-0.361889
-0.347468
-0.333925
-0.321185
-0.30918
-0.297815
-0.286955
-0.276916
-0.686489
-0.673826
-0.661866
-0.647615
-0.629826
-0.608895
-0.585619
-0.560932
-0.535744
-0.510805
-0.486651
-0.463618
-0.441879
-0.421491
-0.402437
-0.384654
-0.368059
-0.352557
-0.338055
-0.324462
-0.311697
-0.299688
-0.288331
-0.27748
-0.26752
-0.689485
-0.676692
-0.664221
-0.648949
-0.629732
-0.607164
-0.582244
-0.556053
-0.529581
-0.5036
-0.478633
-0.454981
-0.432782
-0.412058
-0.392762
-0.37481
-0.3581
-0.342528
-0.327989
-0.314387
-0.301635
-0.289658
-0.278339
-0.267528
-0.257679
-0.690713
-0.677849
-0.66486
-0.64853
-0.627861
-0.603674
-0.57717
-0.54957
-0.521928
-0.495026
-0.469361
-0.445198
-0.422634
-0.401656
-0.382191
-0.364134
-0.347368
-0.331777
-0.317249
-0.30368
-0.290981
-0.279071
-0.267824
-0.257084
-0.24738
-0.689996
-0.677119
-0.663607
-0.646196
-0.624076
-0.598311
-0.570308
-0.541414
-0.512733
-0.48504
-0.4588
-0.434236
-0.411403
-0.390256
-0.370697
-0.352601
-0.335838
-0.320281
-0.305811
-0.292321
-0.279715
-0.267911
-0.25677
-0.246135
-0.236611
-0.687169
-0.674336
-0.660303
-0.641802
-0.618253
-0.59098
-0.561587
-0.531533
-0.501954
-0.473608
-0.446919
-0.422066
-0.399063
-0.377835
-0.358257
-0.34019
-0.32349
-0.308022
-0.293662
-0.280295
-0.267827
-0.256168
-0.245169
-0.234673
-0.225364
-0.682084
-0.669351
-0.654805
-0.635222
-0.610292
-0.581604
-0.550951
-0.519885
-0.48956
-0.460704
-0.433696
-0.408667
-0.385595
-0.364372
-0.344853
-0.326883
-0.310309
-0.294987
-0.280788
-0.267594
-0.255307
-0.243835
-0.233016
-0.222695
-0.213636
-0.674611
-0.662033
-0.646989
-0.62635
-0.60011
-0.570123
-0.538358
-0.506443
-0.47553
-0.446311
-0.419115
-0.394026
-0.370984
-0.349854
-0.330473
-0.31267
-0.296285
-0.281168
-0.267184
-0.254211
-0.242151
-0.230908
-0.220308
-0.210201
-0.201427
-0.66464
-0.65227
-0.636754
-0.615104
-0.587646
-0.556497
-0.523785
-0.491191
-0.459854
-0.430421
-0.403168
-0.378133
-0.355221
-0.334274
-0.315109
-0.297545
-0.281414
-0.266561
-0.252846
-0.240146
-0.228361
-0.217391
-0.207051
-0.197195
-0.188744
-0.652085
-0.639975
-0.624019
-0.601421
-0.572859
-0.540705
-0.507221
-0.474126
-0.442532
-0.413034
-0.385854
-0.360988
-0.338307
-0.31763
-0.298761
-0.281508
-0.265696
-0.251167
-0.237778
-0.225403
-0.213941
-0.203289
-0.193251
-0.183688
-0.175596
-0.636883
-0.625084
-0.608732
-0.585267
-0.555734
-0.522743
-0.488673
-0.455259
-0.423575
-0.39416
-0.367183
-0.342598
-0.320246
-0.299928
-0.281433
-0.264563
-0.249137
-0.234993
-0.221986
-0.20999
-0.198901
-0.188614
-0.178922
-0.169694
-0.161997
-0.618996
-0.607558
-0.590862
-0.566628
-0.536272
-0.502627
-0.468163
-0.434613
-0.403005
-0.373817
-0.34717
-0.322975
-0.301051
-0.281177
-0.263135
-0.24672
-0.231746
-0.218049
-0.205482
-0.193919
-0.183255
-0.173381
-0.164081
-0.155231
-0.147966
-0.598411
-0.587384
-0.570407
-0.545515
-0.514499
-0.48039
-0.445725
-0.412222
-0.380852
-0.352035
-0.325839
-0.302143
-0.280739
-0.261395
-0.243883
-0.227993
-0.213538
-0.20035
-0.188282
-0.177207
-0.16702
-0.15761
-0.148749
-0.140324
-0.133528
-0.575143
-0.564575
-0.547388
-0.521964
-0.490461
-0.456083
-0.421412
-0.388134
-0.35716
-0.328849
-0.303223
-0.280128
-0.259336
-0.240605
-0.223698
-0.208403
-0.194531
-0.181914
-0.170403
-0.159872
-0.150217
-0.141321
-0.132951
-0.124999
-0.118709
-0.549233
-0.539169
-0.521851
-0.496031
-0.464221
-0.429772
-0.395287
-0.362408
-0.331982
-0.304308
-0.279363
-0.256966
-0.236874
-0.218833
-0.202604
-0.187972
-0.174746
-0.162761
-0.151867
-0.141936
-0.132868
-0.124541
-0.116714
-0.109287
-0.103539
-0.520744
-0.511232
-0.493869
-0.467796
-0.435863
-0.40154
-0.367428
-0.335116
-0.305381
-0.278466
-0.254308
-0.232702
-0.21339
-0.196113
-0.18063
-0.166725
-0.154208
-0.142913
-0.132693
-0.123421
-0.114995
-0.107294
-0.10007
-0.0932223
-0.0880576
-0.489767
-0.480851
-0.463535
-0.437359
-0.40549
-0.371485
-0.337927
-0.30634
-0.277432
-0.25139
-0.228117
-0.207385
-0.188929
-0.172484
-0.157809
-0.14469
-0.132939
-0.122391
-0.112902
-0.104345
-0.0966212
-0.0896058
-0.0830473
-0.076845
-0.0723113
-0.456415
-0.448139
-0.430964
-0.404839
-0.373219
-0.339721
-0.306889
-0.276175
-0.248218
-0.223155
-0.200854
-0.181074
-0.16354
-0.147988
-0.134177
-0.121898
-0.110964
-0.101216
-0.0925106
-0.0847258
-0.0777624
-0.0714964
-0.0656751
-0.0601952
-0.0563516
-0.420825
-0.413229
-0.396294
-0.370374
-0.339185
-0.306373
-0.274429
-0.244726
-0.217835
-0.193845
-0.172597
-0.153835
-0.137282
-0.122673
-0.109774
-0.0983783
-0.0883066
-0.0794029
-0.0715296
-0.0645691
-0.0584248
-0.0529749
-0.0479719
-0.0433055
-0.0402082
-0.383152
-0.376276
-0.35968
-0.334119
-0.303535
-0.271581
-0.240675
-0.212109
-0.186389
-0.163557
-0.143431
-0.125745
-0.11022
-0.0965964
-0.0846443
-0.0741647
-0.0649862
-0.0569603
-0.049957
-0.0438652
-0.0385935
-0.0340273
-0.029931
-0.0261744
-0.0238593
-0.34357
-0.337451
-0.321293
-0.296241
-0.266432
-0.235495
-0.205767
-0.178454
-0.153996
-0.132396
-0.113451
-0.0968883
-0.0824296
-0.0698204
-0.0588385
-0.0492939
-0.0410248
-0.0338933
-0.0277803
-0.0225855
-0.0182265
-0.0146015
-0.0114952
-0.00874621
-0.00727432
-0.302273
-0.296944
-0.281321
-0.256924
-0.228049
-0.198278
-0.169854
-0.143897
-0.120783
-0.100479
-0.0827657
-0.0673638
-0.0539983
-0.042421
-0.0324187
-0.023812
-0.0164512
-0.0102117
-0.00499044
-0.000703454
0.00271854
0.00536001
0.00739303
0.00896752
0.00934003
-0.259466
-0.254958
-0.239964
-0.216361
-0.188569
-0.160101
-0.133095
-0.108586
-0.0868887
-0.0679363
-0.0514945
-0.0372818
-0.025026
-0.014486
-0.00545783
0.00222656
0.00870294
0.0140777
0.0184297
0.0218156
0.0242855
0.0258902
0.0266724
0.0266256
0.0253091
-0.215368
-0.211706
-0.197432
-0.174754
-0.148184
-0.121142
-0.0956581
-0.0726774
-0.0524594
-0.0349058
-0.0197697
-0.00676741
0.00437018
0.0138786
0.0219545
0.0287574
0.0344113
0.0390041
0.0425849
0.0451755
0.0467957
0.0474054
0.0467112
0.0443344
0.0407617
-0.170207
-0.167416
-0.153946
-0.132315
-0.107092
-0.0815881
-0.057716
-0.0363353
-0.0176511
-0.00153719
0.0122638
0.0240374
0.0340506
0.0425359
0.0496878
0.055665
0.0605916
0.0645544
0.0675986
0.0697497
0.0710421
0.0713314
0.069823
0.0657199
0.0611858
-0.124223
-0.122319
-0.109731
-0.0892584
-0.0654956
-0.0416276
-0.0194469
0.000272296
0.0173753
0.032013
0.0444515
0.054977
0.0638546
0.0713147
0.0775527
0.0827317
0.086987
0.0904257
0.0931323
0.0952135
0.0968387
0.0979508
0.0975467
0.0950292
0.0982762
-0.077649
-0.0766493
-0.0650154
-0.0458021
-0.0235994
-0.00145261
0.0189692
0.0369746
0.0524561
0.0655857
0.076636
0.0858924
0.0936166
0.100036
0.105345
0.109707
0.113261
0.116125
0.118403
0.120234
0.121797
0.123065
0.123473
0.123488
0.129239
-0.0307322
-0.0306473
-0.0200315
-0.00216647
0.0183903
0.0387446
0.0573521
0.0736014
0.0874284
0.0990231
0.108662
0.116629
0.12318
0.128538
0.132895
0.136412
0.139232
0.141473
0.14325
0.144699
0.145974
0.147043
0.1475
0.147888
0.153066
0.0162821
0.0154458
0.0249885
0.0414294
0.0602689
0.0787734
0.0955236
0.109985
0.122133
0.132172
0.140381
0.147038
0.152395
0.156667
0.16004
0.162673
0.164702
0.166245
0.167414
0.168338
0.169153
0.169835
0.170043
0.170207
0.17432
0.0631496
0.0613904
0.0698143
0.0847686
0.101835
0.118447
0.133309
0.145962
0.156415
0.164885
0.171651
0.176985
0.18113
0.184295
0.186657
0.188367
0.189556
0.190335
0.190807
0.191085
0.191288
0.191378
0.191047
0.190694
0.193801
0.109629
0.10695
0.114219
0.127638
0.142889
0.157581
0.170539
0.181374
0.190126
0.197023
0.202341
0.206345
0.209267
0.211309
0.212638
0.213398
0.213709
0.213676
0.213389
0.212951
0.212459
0.211865
0.21088
0.209907
0.212041
0.155481
0.15189
0.157978
0.169828
0.18324
0.195998
0.20705
0.216068
0.223125
0.228454
0.232327
0.235001
0.236699
0.237611
0.237896
0.237688
0.237099
0.236222
0.23514
0.233942
0.232709
0.231383
0.229704
0.22808
0.229287
0.200476
0.195985
0.200877
0.211138
0.222701
0.233528
0.242682
0.249899
0.255276
0.259053
0.261494
0.262849
0.263329
0.263115
0.262355
0.261175
0.259676
0.257943
0.256051
0.254077
0.252088
0.25002
0.247644
0.245371
0.24569
0.244387
0.239013
0.242704
0.25137
0.26109
0.270003
0.277284
0.282727
0.286452
0.2887
0.289733
0.289788
0.289067
0.28774
0.285946
0.2838
0.281396
0.27881
0.276109
0.27336
0.270619
0.26782
0.264764
0.261857
0.261326
0.286996
0.280761
0.283256
0.290337
0.298236
0.305265
0.31071
0.314418
0.316528
0.317285
0.316942
0.315726
0.313829
0.311412
0.308604
0.30551
0.302216
0.298791
0.295294
0.291786
0.28831
0.284804
0.281092
0.277574
0.276229
0.328095
0.321025
0.32234
0.327859
0.333972
0.339163
0.342822
0.344845
0.345389
0.344699
0.343021
0.340573
0.337536
0.33406
0.330266
0.32625
0.322091
0.317852
0.313583
0.309337
0.305154
0.300969
0.296634
0.29253
0.290405
0.367483
0.359609
0.35977
0.363764
0.368141
0.371554
0.373488
0.373887
0.372924
0.370841
0.367879
0.364245
0.36011
0.355615
0.350871
0.345968
0.340976
0.335953
0.330942
0.325991
0.32113
0.316302
0.311378
0.306715
0.303846
0.40497
0.396328
0.395372
0.397889
0.400594
0.402299
0.402583
0.40143
0.399026
0.395615
0.391427
0.38666
0.381477
0.376009
0.370359
0.364609
0.358824
0.353053
0.347337
0.341715
0.336214
0.330779
0.325301
0.32011
0.316531
0.440378
0.431007
0.428978
0.430081
0.431191
0.431272
0.429989
0.427365
0.423598
0.418928
0.41358
0.407742
0.401568
0.395179
0.388672
0.382122
0.375586
0.36911
0.362728
0.356476
0.350373
0.34437
0.338377
0.332687
0.328437
0.473539
0.463483
0.460436
0.460198
0.459801
0.458352
0.455596
0.45159
0.446544
0.440695
0.43426
0.427418
0.420314
0.413063
0.405753
0.398453
0.391215
0.384079
0.377076
0.370235
0.363572
0.357042
0.350571
0.344416
0.339536
0.504297
0.493605
0.489602
0.488107
0.486302
0.483427
0.479301
0.474013
0.467779
0.460835
0.453391
0.445617
0.437652
0.429601
0.421547
0.413552
0.405664
0.397918
0.39034
0.382955
0.375775
0.368762
0.361852
0.355266
0.349798
0.532509
0.521233
0.516345
0.513687
0.510582
0.506395
0.50101
0.494544
0.487221
0.479274
0.470904
0.462277
0.453522
0.444738
0.436002
0.427372
0.418889
0.410584
0.402482
0.3946
0.386949
0.379495
0.372186
0.365205
0.359195
0.558046
0.54624
0.540544
0.536826
0.53254
0.527163
0.520637
0.513105
0.504797
0.495942
0.486736
0.477337
0.467868
0.458423
0.449071
0.439866
0.430847
0.422039
0.413462
0.405133
0.397057
0.389208
0.381542
0.374203
0.3677
0.580791
0.568514
0.562094
0.557427
0.552085
0.545646
0.538105
0.529625
0.52044
0.510778
0.500829
0.490745
0.480642
0.470608
0.46071
0.450995
0.441498
0.432244
0.423247
0.414521
0.40607
0.39787
0.389888
0.382231
0.375288
0.60064
0.587953
0.580899
0.5754
0.569137
0.561772
0.553345
0.544039
0.534092
0.523728
0.513132
0.502451
0.491797
0.481252
0.470878
0.46072
0.45081
0.441167
0.431806
0.422735
0.413958
0.405455
0.397199
0.389265
0.381935
0.617506
0.604473
0.596879
0.590673
0.583626
0.575476
0.566299
0.556294
0.545701
0.534743
0.523601
0.512416
0.501295
0.490318
0.479542
0.46901
0.458749
0.448778
0.439109
0.429748
0.420695
0.411936
0.403449
0.39528
0.387622
0.631314
0.618001
0.609966
0.603182
0.595496
0.586705
0.576917
0.566343
0.555225
0.543784
0.532198
0.520603
0.509103
0.497774
0.486672
0.475836
0.465291
0.455054
0.445134
0.435536
0.42626
0.417294
0.40862
0.400259
0.392333
0.642006
0.62848
0.620105
0.612877
0.604699
0.595416
0.585161
0.57415
0.562631
0.55082
0.538893
0.526984
0.515194
0.503597
0.492245
0.481176
0.470413
0.459972
0.449861
0.440083
0.430636
0.421511
0.412693
0.404186
0.396052
0.649538
0.635868
0.627258
0.61972
0.611202
0.601579
0.591
0.579688
0.567891
0.555826
0.543664
0.53154
0.51955
0.507767
0.496243
0.485014
0.474101
0.46352
0.453277
0.443374
0.433808
0.424574
0.415658
0.407049
0.398771
0.653881
0.640137
0.631398
0.623689
0.614983
0.605173
0.594416
0.58294
0.570991
0.558787
0.546497
0.534255
0.522156
0.510273
0.498655
0.487338
0.476344
0.465686
0.455371
0.445399
0.435769
0.426475
0.417505
0.40884
0.400482
0.655023
0.641273
0.632512
0.624771
0.616031
0.606187
0.5954
0.583896
0.571922
0.559695
0.547385
0.535124
0.523008
0.511108
0.499475
0.488144
0.477136
0.466465
0.456138
0.446155
0.436514
0.42721
0.41823
0.409557
0.401183
0.652964
0.63928
0.630603
0.62297
0.614348
0.604625
0.593953
0.582558
0.570686
0.558552
0.546329
0.534147
0.522105
0.510273
0.498704
0.487432
0.476479
0.46586
0.455581
0.445643
0.436044
0.426779
0.417835
0.409199
0.400873
0.647724
0.634174
0.625688
0.618298
0.609948
0.600498
0.590089
0.578939
0.567293
0.555368
0.543337
0.531333
0.519456
0.507777
0.496349
0.485208
0.474379
0.463874
0.453703
0.443867
0.434364
0.425187
0.416323
0.40777
0.399557
0.639334
0.625988
0.617796
0.610786
0.602857
0.593831
0.583828
0.573057
0.561762
0.550161
0.538428
0.526699
0.515075
0.503632
0.492423
0.481486
0.470847
0.460521
0.450516
0.440837
0.431483
0.422443
0.413704
0.405279
0.397241
0.627844
0.614769
0.606972
0.600475
0.593114
0.58466
0.575203
0.564944
0.554122
0.542956
0.531625
0.520266
0.508986
0.49786
0.486946
0.476284
0.465901
0.455815
0.446036
0.436569
0.427415
0.418561
0.409991
0.401739
0.393937
0.613317
0.600577
0.593274
0.587417
0.580767
0.573028
0.564257
0.554638
0.544409
0.533789
0.522961
0.512066
0.501215
0.490487
0.479943
0.469626
0.459564
0.449779
0.440282
0.431082
0.42218
0.41356
0.405201
0.397164
0.389659
0.59583
0.58349
0.576774
0.57168
0.565878
0.558994
0.551042
0.542189
0.532668
0.522701
0.512475
0.502136
0.491798
0.481546
0.471445
0.461539
0.451863
0.442439
0.433281
0.4244
0.415799
0.40746
0.399355
0.391576
0.384424
0.575477
0.563597
0.557557
0.553342
0.54852
0.542625
0.53562
0.527654
0.518954
0.509744
0.500214
0.490519
0.480776
0.471076
0.461487
0.45206
0.442831
0.433824
0.425059
0.41655
0.4083
0.400287
0.392477
0.384997
0.378254
0.552364
0.541003
0.535721
0.532494
0.528777
0.523996
0.518063
0.5111
0.503327
0.494973
0.486232
0.477264
0.468195
0.45912
0.450112
0.441226
0.432503
0.423971
0.415652
0.407563
0.399712
0.39207
0.384597
0.377454
0.371171
0.526612
0.515824
0.511378
0.50924
0.506742
0.503196
0.49845
0.492599
0.485857
0.478453
0.470588
0.462429
0.454108
0.445727
0.437364
0.429081
0.42092
0.412916
0.405093
0.397474
0.390067
0.382841
0.375744
0.368976
0.363201
0.498355
0.488192
0.484649
0.483693
0.482521
0.480321
0.476871
0.472236
0.46662
0.460255
0.453348
0.446074
0.438572
0.430951
0.423295
0.415671
0.408127
0.400702
0.393424
0.386319
0.379402
0.372633
0.365952
0.359593
0.354373
0.467739
0.458248
0.455671
0.455978
0.456228
0.455476
0.453422
0.450099
0.445699
0.440456
0.434585
0.428266
0.421649
0.414848
0.407957
0.401046
0.39417
0.387371
0.380684
0.374138
0.367752
0.361482
0.355254
0.349338
0.344715
0.434923
0.426148
0.424589
0.426231
0.427989
0.428776
0.42821
0.426285
0.423184
0.419139
0.414373
0.409076
0.403404
0.397481
0.391406
0.385258
0.379097
0.372969
0.366915
0.360969
0.355154
0.349423
0.343685
0.338244
0.334259
0.400079
0.392059
0.391562
0.394598
0.397938
0.400344
0.401346
0.400899
0.39917
0.396393
0.392796
0.38858
0.383907
0.378913
0.373702
0.368362
0.362957
0.357542
0.352159
0.346851
0.341646
0.336491
0.331279
0.326343
0.323031
0.363387
0.356158
0.356758
0.361235
0.366217
0.37031
0.372952
0.374051
0.373759
0.37231
0.36994
0.366855
0.363232
0.35921
0.354906
0.350412
0.345801
0.341133
0.336457
0.331821
0.327259
0.322717
0.318065
0.313663
0.31106
0.325041
0.318633
0.320354
0.326306
0.332978
0.338814
0.343154
0.345857
0.347059
0.34699
0.345894
0.343987
0.341452
0.338442
0.335079
0.331464
0.327678
0.323788
0.319847
0.315912
0.312025
0.308127
0.304068
0.300226
0.298366
0.285242
0.279681
0.282538
0.289986
0.29838
0.306002
0.312086
0.316442
0.319182
0.320537
0.320755
0.32006
0.318648
0.316678
0.314284
0.311574
0.308637
0.305546
0.302363
0.299152
0.295963
0.292738
0.289302
0.286043
0.284959
0.2442
0.239508
0.243506
0.252457
0.262591
0.272026
0.279889
0.285932
0.290247
0.293059
0.29462
0.295167
0.294901
0.293994
0.292586
0.290797
0.288724
0.286446
0.284034
0.28156
0.279086
0.276555
0.273766
0.271112
0.270838
0.202136
0.198329
0.203462
0.213908
0.225786
0.237047
0.24671
0.254465
0.260378
0.264669
0.267596
0.269401
0.270297
0.270464
0.270053
0.269191
0.267985
0.266522
0.264881
0.263146
0.261391
0.259564
0.257437
0.255402
0.255973
0.159274
0.156365
0.162616
0.174537
0.188146
0.201232
0.212701
0.222179
0.229704
0.235488
0.23979
0.242863
0.244926
0.24617
0.246754
0.246815
0.246467
0.245807
0.244924
0.243911
0.24286
0.241726
0.240258
0.238843
0.240297
0.115847
0.113843
0.121187
0.134545
0.149858
0.164753
0.178021
0.189222
0.198361
0.20564
0.21132
0.215659
0.218886
0.2212
0.222768
0.223734
0.224222
0.224336
0.224173
0.223841
0.223449
0.222965
0.222115
0.221291
0.223668
0.0720923
0.0709961
0.0793968
0.0941429
0.111115
0.127788
0.142834
0.155745
0.16649
0.175257
0.182308
0.187905
0.192284
0.195651
0.198182
0.200026
0.201312
0.202154
0.202655
0.202936
0.203125
0.2032
0.20286
0.202525
0.205857
0.0282489
0.0280593
0.037471
0.0535417
0.0721141
0.0905188
0.107311
0.121907
0.134239
0.144479
0.152885
0.159723
0.165237
0.169635
0.173101
0.175786
0.177824