/*--------------------------------*- C++ -*----------------------------------*\
  =========                 |
  \\      /  F ield         | OpenFOAM: The Open Source CFD Toolbox
   \\    /   O peration     | Website:  https://openfoam.org
    \\  /    A nd           | Version:  6.0
     \\/     M anipulation  |
\*---------------------------------------------------------------------------*/
FoamFile
{
    version     2.0;
    format      ascii;
    class       volScalarField;
    location    "67";
    object      p;
}
// * * * * * * * * * * * * * * * * * * * * * * * * * * * * * * * * * * * * * //

dimensions      [0 2 -2 0 0 0 0];

internalField   nonuniform List<scalar> 
12500
(
-0.428556
-0.42943
-0.429811
-0.429867
-0.429749
-0.429532
-0.429283
-0.429053
-0.428875
-0.428771
-0.428751
-0.428822
-0.428988
-0.429251
-0.429613
-0.430075
-0.430635
-0.431291
-0.432038
-0.432869
-0.433788
-0.434784
-0.43573
-0.436496
-0.438277
-0.428296
-0.42873
-0.428836
-0.428696
-0.428409
-0.428044
-0.427664
-0.42732
-0.42705
-0.426877
-0.426816
-0.426877
-0.427066
-0.427386
-0.427842
-0.428433
-0.42916
-0.430017
-0.431
-0.432099
-0.433314
-0.434636
-0.435943
-0.437094
-0.43922
-0.428087
-0.428106
-0.427952
-0.427623
-0.427172
-0.426661
-0.426151
-0.425692
-0.425324
-0.425073
-0.424958
-0.424992
-0.425184
-0.42554
-0.426064
-0.426756
-0.427618
-0.428644
-0.429828
-0.43116
-0.432638
-0.434251
-0.435885
-0.437391
-0.439835
-0.42786
-0.427501
-0.427104
-0.426597
-0.425989
-0.425335
-0.424693
-0.424115
-0.423639
-0.423299
-0.423115
-0.423104
-0.423278
-0.423644
-0.424209
-0.424973
-0.425939
-0.427101
-0.428453
-0.429986
-0.431693
-0.433566
-0.435497
-0.43733
-0.440067
-0.427558
-0.426867
-0.426251
-0.425577
-0.424819
-0.424025
-0.42325
-0.422545
-0.421952
-0.421508
-0.421237
-0.42116
-0.421292
-0.421643
-0.422219
-0.423026
-0.424064
-0.42533
-0.426818
-0.428518
-0.430424
-0.432527
-0.434725
-0.43686
-0.439867
-0.427141
-0.426168
-0.42536
-0.424535
-0.423634
-0.422702
-0.421791
-0.420951
-0.42023
-0.419665
-0.419288
-0.419122
-0.419186
-0.419493
-0.420053
-0.420871
-0.42195
-0.423287
-0.424878
-0.426714
-0.428788
-0.43109
-0.433527
-0.435939
-0.439198
-0.426581
-0.425383
-0.424412
-0.423451
-0.422417
-0.421349
-0.420298
-0.419316
-0.418453
-0.41775
-0.417245
-0.416966
-0.416936
-0.41717
-0.417682
-0.418479
-0.419565
-0.420941
-0.422603
-0.424542
-0.426752
-0.429225
-0.431874
-0.434539
-0.438035
-0.425865
-0.424499
-0.423398
-0.422319
-0.42116
-0.419959
-0.418766
-0.417633
-0.416613
-0.415755
-0.415101
-0.414684
-0.41453
-0.414662
-0.415094
-0.415838
-0.416898
-0.418279
-0.419977
-0.421986
-0.424302
-0.426917
-0.429752
-0.432648
-0.436369
-0.424992
-0.423519
-0.42232
-0.42114
-0.419867
-0.418536
-0.417197
-0.415904
-0.414716
-0.413685
-0.41286
-0.41228
-0.411976
-0.411976
-0.412296
-0.412952
-0.413953
-0.415303
-0.417004
-0.419051
-0.42144
-0.424168
-0.427162
-0.430269
-0.434208
-0.423975
-0.42245
-0.421186
-0.419924
-0.418548
-0.417091
-0.415603
-0.414144
-0.412775
-0.411555
-0.41054
-0.409774
-0.409295
-0.409133
-0.409311
-0.409848
-0.410755
-0.41204
-0.413707
-0.415757
-0.418187
-0.420998
-0.424124
-0.427423
-0.431579
-0.422834
-0.421313
-0.420016
-0.418689
-0.417219
-0.41564
-0.414004
-0.412373
-0.410813
-0.409393
-0.40817
-0.407198
-0.406521
-0.406172
-0.40618
-0.406566
-0.407347
-0.408533
-0.410133
-0.412149
-0.414587
-0.417447
-0.420677
-0.424149
-0.428524
-0.421601
-0.420135
-0.418832
-0.417457
-0.415905
-0.414209
-0.412425
-0.410618
-0.408863
-0.407231
-0.40579
-0.404598
-0.403703
-0.403147
-0.402961
-0.403171
-0.403796
-0.404851
-0.406349
-0.408297
-0.410705
-0.413581
-0.416881
-0.420501
-0.425099
-0.420314
-0.418948
-0.417666
-0.416258
-0.414632
-0.412824
-0.410894
-0.408913
-0.40696
-0.405113
-0.403447
-0.402025
-0.400903
-0.400125
-0.399728
-0.399741
-0.400187
-0.401085
-0.402449
-0.404294
-0.406633
-0.409484
-0.412814
-0.416545
-0.42136
-0.419021
-0.417794
-0.416554
-0.415124
-0.413432
-0.411519
-0.409447
-0.407294
-0.405146
-0.403086
-0.401195
-0.399543
-0.39819
-0.397185
-0.396569
-0.396374
-0.396625
-0.397344
-0.398548
-0.400256
-0.402487
-0.405266
-0.40857
-0.412355
-0.41736
-0.417777
-0.416718
-0.415536
-0.414093
-0.412342
-0.410329
-0.408121
-0.405804
-0.403467
-0.401202
-0.399095
-0.397219
-0.395642
-0.394415
-0.393582
-0.393177
-0.393228
-0.393756
-0.394781
-0.396323
-0.398404
-0.401055
-0.404261
-0.408009
-0.413133
-0.416642
-0.415771
-0.414657
-0.413207
-0.411402
-0.409294
-0.406959
-0.404486
-0.401974
-0.399518
-0.397208
-0.395126
-0.39334
-0.391906
-0.390869
-0.390265
-0.39012
-0.390457
-0.391292
-0.392643
-0.394534
-0.396993
-0.400008
-0.403583
-0.408696
-0.415684
-0.41501
-0.413966
-0.412511
-0.410654
-0.408458
-0.406004
-0.40339
-0.400718
-0.398091
-0.395603
-0.393337
-0.391367
-0.38975
-0.388533
-0.38775
-0.387426
-0.387579
-0.388222
-0.389364
-0.391023
-0.393221
-0.395932
-0.399152
-0.404049
-0.414973
-0.414492
-0.413516
-0.412052
-0.410146
-0.407867
-0.405306
-0.402567
-0.399757
-0.396983
-0.394343
-0.391926
-0.389803
-0.388036
-0.386669
-0.385735
-0.385256
-0.385241
-0.385694
-0.386613
-0.387999
-0.389858
-0.392135
-0.394783
-0.399186
-0.414583
-0.41428
-0.413359
-0.411881
-0.409925
-0.40757
-0.404914
-0.402068
-0.399144
-0.396252
-0.393494
-0.390959
-0.38872
-0.386839
-0.385357
-0.384305
-0.383695
-0.383528
-0.383795
-0.384473
-0.385541
-0.386978
-0.388686
-0.390532
-0.39411
-0.414587
-0.414431
-0.413549
-0.412049
-0.410041
-0.407616
-0.404878
-0.401945
-0.398933
-0.395954
-0.393111
-0.390495
-0.388178
-0.386219
-0.384656
-0.383513
-0.382795
-0.382488
-0.382564
-0.382977
-0.383676
-0.384602
-0.38561
-0.386444
-0.388859
-0.415054
-0.415004
-0.414135
-0.412601
-0.410539
-0.408049
-0.405243
-0.402244
-0.399169
-0.396134
-0.393241
-0.390578
-0.388217
-0.386212
-0.384596
-0.383384
-0.382568
-0.38212
-0.38199
-0.382106
-0.382378
-0.382711
-0.382909
-0.382582
-0.383541
-0.416044
-0.416048
-0.415165
-0.413582
-0.41146
-0.408909
-0.406048
-0.403001
-0.399889
-0.396826
-0.393911
-0.391232
-0.388854
-0.386827
-0.385175
-0.383903
-0.382989
-0.382387
-0.382025
-0.381802
-0.381595
-0.381268
-0.380589
-0.379045
-0.378359
-0.417608
-0.417605
-0.416673
-0.415024
-0.412836
-0.410226
-0.40732
-0.404242
-0.401113
-0.398044
-0.395131
-0.392457
-0.390082
-0.388045
-0.386363
-0.385028
-0.384003
-0.383224
-0.382598
-0.381998
-0.381266
-0.38023
-0.378631
-0.375862
-0.373427
-0.419783
-0.419707
-0.41869
-0.416954
-0.414688
-0.412019
-0.409072
-0.405974
-0.402843
-0.399784
-0.396889
-0.394232
-0.391866
-0.389821
-0.388103
-0.38669
-0.385536
-0.38456
-0.383654
-0.38267
-0.381424
-0.3797
-0.377174
-0.373093
-0.368742
-0.422591
-0.422375
-0.421232
-0.419387
-0.417029
-0.414294
-0.411307
-0.408194
-0.405067
-0.402025
-0.399153
-0.396515
-0.394154
-0.39209
-0.390317
-0.388806
-0.387499
-0.386314
-0.385141
-0.383842
-0.38225
-0.380155
-0.377176
-0.372373
-0.366938
-0.426042
-0.425619
-0.42431
-0.422328
-0.419861
-0.417048
-0.414016
-0.410885
-0.40776
-0.404734
-0.40188
-0.399251
-0.396879
-0.394772
-0.392916
-0.391271
-0.389778
-0.388358
-0.386921
-0.385367
-0.383607
-0.38157
-0.379188
-0.376563
-0.376892
-0.430133
-0.42944
-0.427924
-0.425776
-0.423178
-0.420271
-0.417182
-0.414023
-0.410893
-0.407871
-0.40502
-0.40238
-0.39997
-0.397785
-0.395801
-0.393973
-0.392238
-0.390528
-0.388766
-0.386886
-0.384838
-0.382612
-0.380234
-0.377872
-0.377577
-0.434857
-0.433835
-0.432071
-0.429728
-0.426974
-0.423952
-0.420789
-0.417588
-0.414435
-0.411399
-0.408528
-0.405845
-0.403357
-0.401046
-0.398878
-0.396801
-0.394756
-0.39268
-0.390511
-0.388202
-0.385729
-0.383096
-0.380337
-0.377519
-0.375791
-0.440199
-0.438798
-0.436747
-0.434178
-0.431241
-0.428083
-0.424824
-0.421559
-0.418363
-0.415286
-0.41236
-0.409594
-0.406977
-0.404479
-0.402057
-0.399656
-0.397219
-0.394691
-0.392023
-0.389184
-0.38616
-0.382958
-0.379602
-0.376103
-0.373136
-0.446147
-0.444321
-0.441948
-0.439124
-0.435977
-0.432658
-0.429281
-0.425929
-0.42266
-0.419508
-0.416485
-0.413582
-0.410772
-0.408014
-0.405257
-0.402447
-0.399532
-0.396465
-0.393215
-0.389763
-0.386106
-0.382256
-0.378232
-0.374028
-0.370039
-0.45269
-0.4504
-0.447674
-0.444567
-0.441186
-0.437682
-0.434162
-0.430694
-0.427318
-0.424047
-0.420872
-0.417766
-0.414687
-0.411584
-0.408403
-0.405094
-0.401615
-0.397933
-0.394033
-0.389913
-0.385583
-0.381064
-0.376381
-0.371533
-0.366767
-0.459822
-0.457035
-0.453928
-0.450515
-0.446876
-0.443164
-0.439475
-0.435859
-0.432333
-0.428888
-0.425495
-0.422107
-0.418669
-0.415126
-0.411427
-0.40753
-0.403407
-0.399045
-0.394448
-0.38963
-0.384619
-0.379446
-0.374144
-0.368722
-0.363348
-0.467541
-0.464226
-0.460715
-0.456977
-0.453061
-0.449118
-0.445231
-0.441428
-0.4377
-0.434016
-0.430323
-0.42656
-0.422664
-0.418581
-0.414267
-0.409697
-0.404863
-0.399772
-0.394449
-0.388927
-0.383246
-0.37745
-0.37158
-0.365653
-0.359794
-0.475845
-0.471975
-0.468043
-0.463964
-0.459755
-0.455558
-0.45144
-0.447402
-0.44341
-0.439405
-0.435318
-0.431075
-0.426613
-0.421886
-0.416867
-0.41155
-0.40595
-0.400099
-0.394039
-0.387821
-0.381496
-0.375115
-0.368723
-0.362344
-0.356076
-0.484734
-0.480286
-0.475917
-0.471486
-0.466967
-0.462492
-0.458103
-0.453773
-0.449438
-0.445019
-0.44043
-0.435594
-0.430456
-0.424985
-0.419176
-0.413051
-0.406647
-0.400019
-0.393227
-0.386332
-0.379395
-0.372467
-0.365595
-0.358805
-0.352173
-0.494202
-0.489153
-0.484338
-0.479546
-0.474702
-0.469919
-0.46521
-0.460518
-0.45575
-0.450808
-0.445599
-0.440052
-0.434128
-0.427821
-0.421153
-0.414173
-0.406943
-0.399537
-0.392027
-0.384483
-0.376966
-0.369528
-0.362209
-0.355038
-0.348068
-0.504236
-0.498569
-0.493301
-0.488141
-0.482953
-0.477825
-0.472737
-0.467598
-0.462292
-0.456706
-0.450753
-0.444377
-0.437566
-0.430341
-0.422759
-0.414895
-0.406832
-0.398659
-0.390455
-0.382292
-0.374229
-0.366313
-0.358577
-0.351046
-0.343754
-0.514811
-0.508512
-0.502788
-0.497253
-0.491698
-0.486179
-0.48064
-0.474955
-0.468992
-0.462636
-0.455812
-0.448495
-0.440704
-0.432498
-0.423964
-0.415201
-0.406312
-0.397392
-0.388523
-0.379774
-0.371198
-0.362833
-0.354705
-0.346833
-0.33923
-0.525891
-0.518951
-0.51277
-0.506851
-0.500901
-0.494933
-0.488855
-0.482512
-0.475763
-0.468504
-0.460688
-0.452327
-0.44348
-0.434246
-0.424739
-0.41508
-0.405381
-0.395741
-0.38624
-0.376939
-0.367881
-0.359095
-0.350597
-0.342398
-0.334496
-0.537422
-0.529838
-0.523202
-0.516888
-0.510504
-0.504017
-0.497299
-0.490174
-0.482504
-0.474211
-0.465289
-0.455796
-0.445836
-0.435543
-0.425059
-0.414517
-0.404035
-0.393709
-0.38361
-0.37379
-0.36428
-0.355099
-0.346253
-0.337742
-0.329554
-0.549334
-0.54111
-0.534023
-0.527297
-0.520431
-0.513342
-0.505869
-0.497828
-0.4891
-0.479649
-0.469521
-0.458825
-0.447713
-0.436351
-0.424899
-0.413499
-0.402267
-0.391291
-0.38063
-0.370324
-0.360392
-0.35084
-0.341666
-0.33286
-0.324401
-0.56154
-0.552688
-0.545152
-0.537993
-0.530585
-0.522797
-0.514444
-0.505349
-0.49543
-0.484707
-0.473289
-0.461341
-0.449058
-0.436631
-0.424235
-0.41201
-0.400066
-0.388477
-0.377291
-0.366531
-0.356205
-0.346308
-0.336828
-0.327742
-0.319032
-0.573933
-0.56447
-0.556492
-0.548869
-0.540848
-0.532253
-0.522886
-0.512599
-0.501364
-0.489273
-0.476502
-0.463273
-0.449817
-0.436346
-0.423039
-0.41003
-0.397415
-0.385254
-0.373578
-0.362397
-0.351705
-0.341487
-0.331723
-0.322375
-0.313435
-0.586387
-0.576342
-0.567923
-0.5598
-0.551084
-0.541562
-0.531046
-0.519433
-0.506772
-0.493235
-0.47907
-0.464551
-0.449939
-0.435459
-0.421283
-0.407534
-0.394292
-0.381599
-0.36947
-0.357899
-0.34687
-0.336358
-0.326332
-0.316742
-0.307596
-0.598761
-0.588167
-0.57931
-0.57064
-0.561137
-0.550564
-0.538763
-0.525702
-0.511522
-0.496484
-0.480907
-0.46511
-0.449376
-0.433929
-0.418933
-0.404494
-0.390671
-0.377488
-0.364942
-0.353015
-0.341677
-0.330896
-0.320632
-0.310822
-0.301495
-0.610895
-0.599792
-0.590497
-0.581226
-0.570836
-0.559086
-0.545872
-0.531257
-0.515487
-0.498917
-0.481932
-0.464887
-0.448076
-0.431717
-0.415956
-0.400878
-0.386522
-0.37289
-0.359965
-0.347714
-0.336098
-0.325076
-0.3146
-0.304591
-0.295112
-0.622615
-0.61105
-0.601313
-0.59138
-0.579999
-0.566946
-0.552203
-0.535948
-0.518543
-0.500436
-0.482068
-0.463822
-0.445991
-0.428781
-0.412314
-0.396652
-0.38181
-0.367773
-0.354507
-0.341968
-0.330104
-0.31887
-0.308207
-0.298025
-0.288422
-0.633734
-0.621759
-0.611572
-0.600911
-0.588432
-0.573961
-0.55759
-0.539633
-0.520574
-0.500946
-0.481241
-0.461855
-0.443073
-0.425078
-0.407967
-0.391777
-0.3765
-0.362103
-0.348536
-0.335743
-0.323665
-0.312249
-0.301427
-0.291098
-0.2814
-0.644056
-0.631725
-0.621079
-0.609619
-0.59594
-0.579946
-0.56187
-0.542176
-0.521468
-0.500362
-0.479383
-0.458931
-0.439273
-0.420565
-0.402877
-0.386217
-0.370557
-0.355845
-0.342017
-0.329007
-0.316749
-0.305183
-0.294232
-0.283782
-0.274023
-0.653376
-0.640748
-0.629631
-0.6173
-0.602324
-0.584721
-0.564888
-0.543448
-0.521126
-0.498604
-0.476431
-0.454997
-0.434545
-0.415201
-0.397002
-0.379933
-0.363943
-0.348963
-0.334918
-0.32173
-0.309327
-0.297644
-0.286595
-0.276054
-0.266266
-0.661488
-0.648622
-0.637018
-0.623748
-0.607391
-0.588113
-0.566498
-0.543332
-0.519454
-0.495598
-0.472323
-0.450001
-0.428844
-0.408942
-0.390304
-0.372888
-0.356622
-0.341424
-0.327205
-0.313881
-0.301371
-0.289606
-0.27849
-0.267888
-0.258106
-0.668182
-0.655137
-0.643033
-0.628759
-0.610952
-0.589959
-0.566566
-0.541724
-0.51637
-0.491279
-0.467007
-0.443898
-0.422127
-0.40175
-0.382745
-0.365046
-0.348562
-0.333196
-0.31885
-0.305431
-0.292853
-0.281043
-0.269894
-0.259263
-0.249521
-0.673253
-0.660091
-0.647471
-0.632139
-0.612833
-0.59011
-0.564972
-0.538528
-0.5118
-0.485589
-0.460433
-0.436643
-0.414354
-0.393587
-0.37429
-0.356373
-0.33973
-0.324249
-0.309824
-0.296354
-0.283751
-0.271934
-0.260787
-0.25016
-0.240495
-0.676505
-0.663285
-0.650138
-0.633704
-0.61287
-0.588432
-0.561611
-0.533664
-0.505683
-0.478477
-0.452558
-0.428198
-0.405491
-0.38442
-0.364907
-0.346841
-0.330098
-0.314558
-0.300104
-0.28663
-0.274042
-0.262259
-0.25115
-0.240563
-0.23101
-0.677752
-0.664532
-0.65085
-0.633283
-0.610918
-0.584808
-0.556392
-0.527063
-0.497964
-0.469899
-0.443346
-0.41853
-0.395505
-0.37422
-0.354569
-0.336422
-0.319642
-0.304099
-0.289668
-0.276238
-0.263712
-0.252002
-0.240969
-0.230458
-0.221056
-0.676819
-0.663657
-0.649437
-0.630725
-0.606851
-0.57914
-0.549243
-0.51867
-0.488602
-0.459821
-0.432765
-0.40761
-0.38437
-0.362961
-0.343252
-0.325095
-0.308343
-0.292855
-0.278501
-0.265164
-0.252745
-0.241152
-0.230235
-0.219837
-0.210624
-0.673552
-0.660503
-0.645749
-0.625899
-0.600562
-0.571346
-0.540104
-0.508445
-0.477565
-0.448218
-0.420792
-0.395418
-0.372067
-0.350624
-0.330938
-0.312844
-0.296186
-0.280813
-0.266591
-0.253398
-0.241134
-0.229702
-0.218941
-0.208696
-0.199709
-0.667815
-0.654932
-0.639658
-0.618693
-0.591965
-0.561367
-0.528935
-0.496357
-0.464832
-0.435072
-0.407413
-0.381938
-0.35858
-0.337196
-0.317614
-0.299658
-0.283159
-0.267963
-0.253929
-0.240934
-0.228873
-0.217648
-0.207085
-0.197033
-0.188311
-0.659493
-0.64683
-0.631057
-0.609022
-0.581
-0.549162
-0.515711
-0.482393
-0.450392
-0.420374
-0.392619
-0.367163
-0.343902
-0.32267
-0.303275
-0.28553
-0.269259
-0.254302
-0.240515
-0.22777
-0.215963
-0.204991
-0.194669
-0.184852
-0.176435
-0.648496
-0.636103
-0.619864
-0.596823
-0.567625
-0.534709
-0.500423
-0.466551
-0.434248
-0.404126
-0.376411
-0.351092
-0.328033
-0.307043
-0.287918
-0.270459
-0.254485
-0.239831
-0.226349
-0.21391
-0.202409
-0.191738
-0.181702
-0.172162
-0.164088
-0.634759
-0.622686
-0.606023
-0.582059
-0.551823
-0.518006
-0.483078
-0.448841
-0.41641
-0.386338
-0.358796
-0.333731
-0.310977
-0.290322
-0.271549
-0.254451
-0.238843
-0.224555
-0.211438
-0.199362
-0.188218
-0.177898
-0.168193
-0.158976
-0.151284
-0.618243
-0.606539
-0.589506
-0.564719
-0.533599
-0.499071
-0.4637
-0.429289
-0.396901
-0.36703
-0.339792
-0.315096
-0.292746
-0.272516
-0.254177
-0.237516
-0.222343
-0.208486
-0.195794
-0.184136
-0.173404
-0.163485
-0.154161
-0.145311
-0.13804
-0.598935
-0.587649
-0.570308
-0.544813
-0.512978
-0.477938
-0.442326
-0.407929
-0.375754
-0.346231
-0.319425
-0.295208
-0.273362
-0.253644
-0.235819
-0.219668
-0.204998
-0.191637
-0.179432
-0.16825
-0.157984
-0.148517
-0.139624
-0.13119
-0.124379
-0.57685
-0.56603
-0.548452
-0.52238
-0.49001
-0.454659
-0.419009
-0.384813
-0.353014
-0.323979
-0.297728
-0.274096
-0.252848
-0.233729
-0.216495
-0.200927
-0.186829
-0.174027
-0.162368
-0.15172
-0.141977
-0.133016
-0.124605
-0.116639
-0.110326
-0.55203
-0.541721
-0.523988
-0.497479
-0.464761
-0.429305
-0.393816
-0.360001
-0.328735
-0.300324
-0.274743
-0.251799
-0.231238
-0.212798
-0.196232
-0.181316
-0.167855
-0.155675
-0.144624
-0.134569
-0.125404
-0.117005
-0.109132
-0.101685
-0.0959095
-0.524542
-0.514789
-0.49699
-0.470192
-0.437318
-0.401961
-0.366828
-0.333566
-0.302982
-0.275323
-0.25052
-0.228359
-0.208571
-0.190888
-0.175059
-0.160862
-0.148101
-0.136605
-0.12622
-0.116816
-0.108288
-0.10051
-0.0932338
-0.0863632
-0.0811659
-0.494478
-0.485326
-0.467554
-0.440623
-0.407786
-0.372729
-0.338138
-0.305595
-0.275832
-0.249043
-0.225121
-0.20383
-0.184892
-0.168036
-0.15301
-0.139593
-0.127592
-0.116836
-0.107176
-0.0984829
-0.0906511
-0.0835537
-0.0769398
-0.0707114
-0.0661422
-0.461956
-0.453448
-0.435799
-0.408895
-0.376287
-0.341725
-0.307854
-0.276182
-0.247372
-0.221561
-0.198612
-0.178271
-0.160254
-0.144287
-0.130122
-0.11754
-0.106353
-0.0963917
-0.0875109
-0.0795843
-0.0725087
-0.0661566
-0.0602767
-0.0547687
-0.0508881
-0.427113
-0.41929
-0.401867
-0.375149
-0.342958
-0.309077
-0.276095
-0.245438
-0.217698
-0.192965
-0.171071
-0.15175
-0.134715
-0.119691
-0.106436
-0.0947363
-0.084407
-0.0752869
-0.0672343
-0.0601278
-0.0538669
-0.0483269
-0.0432621
-0.0385653
-0.0354292
-0.39011
-0.383011
-0.365916
-0.339544
-0.307952
-0.274929
-0.242991
-0.21348
-0.18692
-0.163351
-0.142586
-0.124346
-0.108342
-0.0943058
-0.0819985
-0.0712146
-0.061777
-0.0535322
-0.0463462
-0.0401043
-0.0347114
-0.0300503
-0.0258879
-0.0220967
-0.0197372
-0.351126
-0.344788
-0.328123
-0.302251
-0.271433
-0.239435
-0.208685
-0.18044
-0.155154
-0.13283
-0.113255
-0.0961458
-0.0812142
-0.0681962
-0.0568619
-0.0470143
-0.0384861
-0.0311345
-0.0248362
-0.0194874
-0.0150024
-0.011277
-0.00809844
-0.0053066
-0.00378055
-0.310357
-0.304814
-0.288678
-0.263458
-0.23358
-0.202759
-0.17333
-0.146458
-0.122533
-0.101519
-0.0831872
-0.0672492
-0.053419
-0.0414395
-0.0310897
-0.0221834
-0.0145653
-0.00810591
-0.00269806
0.00174561
0.00529767
0.00804486
0.0101576
0.0117857
0.0122192
-0.268012
-0.263294
-0.247786
-0.223363
-0.194578
-0.165077
-0.137087
-0.111683
-0.0891943
-0.0695492
-0.0525046
-0.0377685
-0.0250587
-0.0141252
-0.00475632
0.00322246
0.0099526
0.0155454
0.0200835
0.0236274
0.0262304
0.0279459
0.0288156
0.0288323
0.0275745
-0.224314
-0.22045
-0.205663
-0.182171
-0.154623
-0.12657
-0.100126
-0.076276
-0.0552887
-0.0370624
-0.021341
-0.00783053
0.00374824
0.0136394
0.0220472
0.0291376
0.0350402
0.0398476
0.0436133
0.0463628
0.0481201
0.0488482
0.0482535
0.0459534
0.0424452
-0.179497
-0.176509
-0.16253
-0.140096
-0.113916
-0.0874277
-0.0626244
-0.0404015
-0.0209735
-0.00420973
0.0101565
0.022421
0.0328605
0.0417158
0.0491889
0.0554446
0.0606127
0.0647849
0.0680105
0.0703195
0.0717509
0.0721646
0.0707673
0.0667593
0.0623223
-0.133803
-0.131709
-0.11862
-0.0973597
-0.0726636
-0.0478417
-0.0247615
-0.00423081
0.013588
0.0288504
0.041832
0.052829
0.0621159
0.0699315
0.0764779
0.0819246
0.086412
0.0900516
0.0929319
0.0951636
0.0969182
0.0981404
0.0978342
0.0954093
0.0986747
-0.0874695
-0.0862877
-0.0741624
-0.0541811
-0.0310738
-0.00800684
0.0132796
0.0320632
0.0482298
0.0619569
0.0735261
0.0832328
0.0913479
0.0981067
0.10371
0.108327
0.112103
0.115158
0.117603
0.119577
0.121263
0.122635
0.123139
0.123251
0.129013
-0.0407478
-0.0404894
-0.0293949
-0.0107849
0.0106441
0.0318816
0.0513161
0.0683079
0.0827873
0.0949502
0.105082
0.113476
0.120398
0.126078
0.130713
0.134473
0.137502
0.139925
0.141859
0.143443
0.144834
0.146
0.14655
0.147027
0.152213
0.00611303
0.00544083
0.0154471
0.0326065
0.0522826
0.0716303
0.0891673
0.104333
0.117099
0.127675
0.13635
0.14341
0.149115
0.15369
0.157326
0.160186
0.162411
0.164125
0.165442
0.166493
0.167417
0.168192
0.168488
0.168737
0.172857
0.0528648
0.0512596
0.0601294
0.0757727
0.0936366
0.111049
0.126656
0.139973
0.151008
0.159983
0.167185
0.172896
0.177367
0.180814
0.18342
0.185342
0.186714
0.187652
0.18826
0.188656
0.188959
0.189136
0.188887
0.188613
0.191724
0.0992621
0.0967259
0.104421
0.118497
0.134505
0.149952
0.163611
0.175068
0.184364
0.191732
0.197455
0.201809
0.205034
0.207336
0.208891
0.209845
0.210325
0.210436
0.210275
0.209945
0.209545
0.209029
0.208121
0.207219
0.209354
0.145064
0.141603
0.148096
0.160567
0.174692
0.188159
0.199864
0.209462
0.217023
0.222788
0.227035
0.230031
0.232006
0.233156
0.233647
0.233616
0.233179
0.232433
0.231465
0.230364
0.229213
0.227958
0.226347
0.224788
0.225991
0.190033
0.18566
0.190932
0.201778
0.214008
0.225495
0.235255
0.243008
0.248849
0.253024
0.255807
0.257454
0.258186
0.258187
0.257612
0.25659
0.255227
0.253612
0.25182
0.249932
0.248015
0.246009
0.243693
0.241477
0.241788
0.233942
0.228672
0.232718
0.24193
0.252269
0.261791
0.26963
0.275563
0.27971
0.28232
0.283662
0.283979
0.283482
0.282347
0.280716
0.278709
0.276425
0.273941
0.271326
0.268651
0.265971
0.263225
0.260221
0.257363
0.256819
0.276567
0.270422
0.273245
0.280831
0.289299
0.296887
0.302839
0.306991
0.309482
0.310562
0.310493
0.309509
0.30781
0.305559
0.302892
0.299918
0.296726
0.293388
0.289964
0.286516
0.283091
0.279628
0.275959
0.272482
0.271119
0.317697
0.310701
0.312316
0.318298
0.32493
0.330628
0.334743
0.337163
0.338045
0.33764
0.336202
0.333954
0.331087
0.327753
0.324077
0.320162
0.316087
0.311917
0.307706
0.30351
0.299365
0.295214
0.290913
0.286841
0.284693
0.357127
0.349311
0.349743
0.354155
0.359001
0.362867
0.365207
0.365955
0.365286
0.36345
0.360693
0.357228
0.353234
0.348855
0.344208
0.339385
0.334459
0.329489
0.324522
0.319607
0.314774
0.309969
0.305069
0.30043
0.297532
0.394663
0.386062
0.385346
0.388237
0.391359
0.393464
0.394102
0.39325
0.391098
0.387894
0.383876
0.379247
0.374177
0.3688
0.363223
0.357533
0.351795
0.346061
0.340374
0.334776
0.329291
0.323868
0.318406
0.313229
0.309617
0.430121
0.420775
0.418955
0.420387
0.421862
0.422288
0.421308
0.418938
0.415379
0.410878
0.405664
0.399933
0.393842
0.387519
0.381063
0.374552
0.368045
0.36159
0.355223
0.34898
0.342882
0.336881
0.330894
0.32521
0.320921
0.463331
0.453282
0.450412
0.450459
0.450373
0.449217
0.446712
0.442913
0.438032
0.432312
0.425976
0.419209
0.412161
0.40495
0.397669
0.390387
0.38316
0.376029
0.369026
0.362181
0.355511
0.348974
0.3425
0.336342
0.331417
0.494132
0.483428
0.479571
0.478315
0.476769
0.474134
0.470208
0.465079
0.458968
0.452115
0.444735
0.437005
0.429068
0.421032
0.412983
0.404987
0.397092
0.389334
0.381742
0.374341
0.367143
0.360112
0.353189
0.346592
0.341075
0.522377
0.511069
0.506294
0.503831
0.500934
0.496933
0.491699
0.485346
0.478103
0.470208
0.461869
0.453255
0.4445
0.435707
0.426954
0.418302
0.409794
0.401462
0.393331
0.385421
0.37774
0.370259
0.362928
0.355928
0.349865
0.547929
0.536073
0.530459
0.526891
0.522762
0.517519
0.511094
0.50363
0.495361
0.48652
0.477311
0.467896
0.4584
0.44892
0.439531
0.430285
0.421222
0.412372
0.403753
0.395383
0.387267
0.37938
0.371684
0.364317
0.357758
0.570669
0.558322
0.551952
0.547392
0.542158
0.535803
0.528315
0.519858
0.510671
0.500988
0.491003
0.480872
0.470716
0.460624
0.450667
0.440892
0.431336
0.422024
0.412972
0.404193
0.395691
0.387445
0.379424
0.371732
0.364729
0.590487
0.577711
0.570676
0.565242
0.559038
0.551708
0.543287
0.533961
0.523973
0.513552
0.502889
0.492133
0.4814
0.470774
0.460321
0.450085
0.440098
0.430383
0.420954
0.411819
0.402982
0.394424
0.386121
0.378144
0.370752
0.607291
0.594149
0.586544
0.580363
0.573329
0.565166
0.55595
0.545883
0.535212
0.524163
0.512922
0.501635
0.49041
0.479331
0.468456
0.457828
0.447476
0.43742
0.42767
0.418234
0.409112
0.40029
0.391748
0.383529
0.375808
0.621
0.607558
0.599484
0.592685
0.584968
0.576119
0.56625
0.555574
0.544341
0.532777
0.521062
0.509339
0.497712
0.486261
0.475041
0.464092
0.453441
0.443105
0.433094
0.423412
0.414058
0.405021
0.396285
0.387869
0.379878
0.631551
0.617877
0.609436
0.602156
0.593904
0.584521
0.574143
0.562994
0.551324
0.539359
0.527277
0.515215
0.503276
0.491536
0.480049
0.468852
0.45797
0.447419
0.437206
0.427334
0.417801
0.408599
0.399713
0.391144
0.382947
0.638893
0.625055
0.616354
0.608731
0.6001
0.590337
0.579596
0.56811
0.556132
0.543882
0.53154
0.519238
0.507079
0.495136
0.483461
0.472089
0.461045
0.450342
0.439988
0.429983
0.420325
0.411008
0.402018
0.393343
0.385003
0.642991
0.629061
0.620207
0.612382
0.603527
0.59354
0.582587
0.570903
0.558743
0.546328
0.533833
0.521393
0.509106
0.497045
0.485262
0.47379
0.462653
0.451864
0.441429
0.431349
0.421621
0.412238
0.403189
0.394455
0.386038
0.643827
0.629874
0.620977
0.613093
0.604171
0.594117
0.5831
0.571359
0.559146
0.546684
0.534147
0.521669
0.509348
0.497256
0.485444
0.473946
0.462786
0.451976
0.441523
0.431425
0.421681
0.412285
0.403223
0.394477
0.386047
0.641395
0.62749
0.61866
0.610858
0.602027
0.592064
0.581135
0.569475
0.55734
0.544949
0.532479
0.520064
0.507801
0.495765
0.484005
0.472557
0.461444
0.450679
0.440267
0.43021
0.420506
0.411146
0.402117
0.393406
0.38503
0.635708
0.621921
0.613266
0.605689
0.597105
0.58739
0.576697
0.56526
0.553329
0.541129
0.528835
0.516583
0.504473
0.492578
0.48095
0.469626
0.45863
0.447974
0.437666
0.427708
0.418097
0.408824
0.399874
0.391246
0.382989
0.626791
0.613192
0.604819
0.597607
0.589425
0.580113
0.569805
0.558727
0.54713
0.535238
0.523228
0.511239
0.499373
0.487705
0.476289
0.465163
0.454353
0.443871
0.433728
0.423926
0.414463
0.405327
0.396501
0.388003
0.37993
0.614685
0.601343
0.593358
0.586647
0.57902
0.570263
0.560487
0.549905
0.538767
0.527298
0.515679
0.504051
0.49252
0.481164
0.470039
0.459184
0.448628
0.438385
0.428467
0.418877
0.409615
0.400667
0.392011
0.383687
0.375861
0.599448
0.586429
0.578933
0.572857
0.565933
0.557881
0.548779
0.538827
0.528271
0.517339
0.506217
0.495047
0.483941
0.472979
0.462221
0.45171
0.441475
0.431534
0.4219
0.412579
0.403572
0.39486
0.386418
0.378314
0.370796
0.58115
0.568519
0.561609
0.556298
0.55022
0.543018
0.534729
0.525537
0.515685
0.505401
0.494877
0.48426
0.473666
0.46318
0.452865
0.442767
0.432919
0.423342
0.41405
0.405052
0.396352
0.387926
0.379743
0.371902
0.364751
0.559876
0.547696
0.541466
0.537041
0.531947
0.525736
0.518394
0.510088
0.501056
0.491529
0.481702
0.47173
0.461733
0.451801
0.442003
0.432388
0.422991
0.413837
0.404944
0.396324
0.387981
0.379889
0.372007
0.364472
0.357745
0.535727
0.524057
0.518595
0.515172
0.511193
0.506105
0.499841
0.492543
0.484443
0.475776
0.466742
0.457503
0.448185
0.438884
0.429673
0.420606
0.411723
0.403052
0.394612
0.386422
0.378487
0.370776
0.363238
0.356049
0.349801
0.508815
0.497712
0.493098
0.490786
0.488046
0.484209
0.479144
0.472969
0.465909
0.458202
0.450053
0.441632
0.433072
0.424475
0.415919
0.407465
0.399155
0.391022
0.383089
0.375379
0.367901
0.360616
0.353465
0.34666
0.340941
0.479268
0.468784
0.465094
0.463992
0.462605
0.460137
0.456388
0.451445
0.445527
0.438874
0.431697
0.424175
0.416447
0.408623
0.400788
0.393006
0.385326
0.377786
0.370412
0.363231
0.356255
0.349441
0.342718
0.336336
0.331194
0.447225
0.43741
0.43471
0.434908
0.434979
0.433989
0.431664
0.428056
0.423376
0.417865
0.411743
0.405195
0.398369
0.391383
0.384329
0.377277
0.370282
0.363385
0.356618
0.350012
0.343585
0.337286
0.331031
0.325107
0.320587
0.412837
0.403738
0.402087
0.403663
0.405286
0.405875
0.405073
0.402895
0.399541
0.395254
0.390262
0.384758
0.3789
0.372814
0.366597
0.360329
0.354068
0.347862
0.341747
0.335761
0.329925
0.324184
0.318436
0.313004
0.309149
0.376269
0.367926
0.367374
0.370397
0.373656
0.375913
0.376722
0.37606
0.374113
0.371125
0.367333
0.362938
0.358107
0.352975
0.347648
0.342211
0.336731
0.331259
0.325839
0.320514
0.315309
0.310166
0.304964
0.300056
0.296906
0.337697
0.330147
0.330734
0.335259
0.340224
0.344227
0.346727
0.347658
0.347189
0.345569
0.343038
0.339809
0.336059
0.33193
0.327538
0.322976
0.318318
0.31362
0.308933
0.304304
0.299769
0.295263
0.290644
0.286291
0.283883
0.297305
0.290581
0.292338
0.29841
0.305137
0.310951
0.315211
0.3178
0.318875
0.31868
0.317465
0.315452
0.312828
0.309745
0.306328
0.302678
0.298875
0.294985
0.291063
0.287164
0.283331
0.279498
0.275498
0.271728
0.270099
0.25529
0.24942
0.252369
0.260016
0.26855
0.276227
0.282302
0.286607
0.289277
0.290558
0.290705
0.28995
0.288491
0.286489
0.284078
0.281369
0.278449
0.275392
0.27226
0.269117
0.266014
0.262885
0.259535
0.256377
0.255562
0.211858
0.206865
0.211015
0.220255
0.230624
0.240203
0.248137
0.254202
0.258512
0.261308
0.262854
0.263391
0.263125
0.262231
0.26085
0.259101
0.257083
0.254876
0.25255
0.25018
0.247826
0.245425
0.242754
0.240228
0.240266
0.167222
0.163126
0.168478
0.179311
0.191529
0.203035
0.212859
0.220717
0.226699
0.231042
0.234014
0.235866
0.236816
0.237045
0.236707
0.23593
0.234821
0.233469
0.231953
0.230358
0.22876
0.227099
0.225123
0.223248
0.224177
0.121604
0.118418
0.124962
0.137378
0.151443
0.164886
0.176617
0.186289
0.193965
0.199875
0.204292
0.207474
0.209649
0.21101
0.211718
0.211911
0.211705
0.211199
0.210481
0.209648
0.208792
0.207864
0.206582
0.205358
0.207221
0.0752326
0.0729663
0.0806808
0.0946524
0.110548
0.125924
0.139567
0.151063
0.160444
0.167932
0.173801
0.17832
0.181723
0.184212
0.185959
0.187109
0.187787
0.188099
0.188143
0.188032
0.187875
0.187634
0.187007
0.186405
0.189244
0.0283421
0.0269999
0.0358545
0.051341
0.069036
0.0863238
0.10187
0.115188
0.126274
0.135341
0.142664
0.148516
0.153141
0.156748
0.159517
0.161599
0.163126
0.164212
0.164964
0.165505
0.165968
0.166323
0.166236
0.166151
0.170004
-0.0188292
-0.0192476
-0.00929338
0.00765343
0.0271
0.0462667
0.0636939
0.0788198
0.0916035
0.102242
0.111011
0.118188
0.124022