/*--------------------------------*- C++ -*----------------------------------*\
  =========                 |
  \\      /  F ield         | OpenFOAM: The Open Source CFD Toolbox
   \\    /   O peration     | Website:  https://openfoam.org
    \\  /    A nd           | Version:  6.0
     \\/     M anipulation  |
\*---------------------------------------------------------------------------*/
FoamFile
{
    version     2.0;
    format      ascii;
    class       surfaceScalarField;
    location    "57";
    object      phi;
}
// * * * * * * * * * * * * * * * * * * * * * * * * * * * * * * * * * * * * * //

dimensions      [0 3 -1 0 0 0 0];

internalField   nonuniform List<scalar> 
15760
(
-2.34546e-06
5.41273e-07
1.80419e-06
-8.35535e-06
-1.81015e-07
6.19092e-06
-1.71532e-05
-2.15191e-06
1.09498e-05
-2.79907e-05
-4.91809e-06
1.57556e-05
-4.02489e-05
-8.14129e-06
2.03995e-05
-5.34319e-05
-1.15906e-05
2.47736e-05
-6.7157e-05
-1.51141e-05
2.88392e-05
-8.11437e-05
-1.86154e-05
3.26021e-05
-9.52036e-05
-2.20338e-05
3.60937e-05
-0.00010923
-2.53305e-05
3.93565e-05
-0.000123187
-2.84777e-05
4.2435e-05
-0.000137103
-3.1453e-05
4.53692e-05
-0.000151059
-3.42359e-05
4.8192e-05
-0.00016518
-3.68068e-05
5.09277e-05
-0.000179625
-3.91472e-05
5.35923e-05
-0.000194578
-4.12413e-05
5.61946e-05
-0.000210238
-4.30777e-05
5.87376e-05
-0.000226808
-4.46498e-05
6.12193e-05
-0.000244488
-4.59481e-05
6.36277e-05
-4.69591e-05
6.59454e-05
-0.000263474
-2.42858e-06
2.96987e-06
-8.63502e-06
6.02544e-06
-1.77075e-05
6.92064e-06
-2.88724e-05
6.2468e-06
-4.14918e-05
4.47813e-06
-5.50552e-05
1.97284e-06
-6.9168e-05
-1.00131e-06
-8.35401e-05
-4.24333e-06
-9.79744e-05
-7.59949e-06
-0.000112357
-1.09478e-05
-0.000126647
-1.41873e-05
-0.000140869
-1.72311e-05
-0.000155102
-2.00032e-05
-0.000169471
-2.24376e-05
-0.00018414
-2.44787e-05
-0.000199298
-2.60834e-05
-0.000215152
-2.72229e-05
-0.000231918
-2.78841e-05
-0.000249808
-2.80585e-05
-2.77348e-05
-0.000269032
-2.51369e-06
5.48356e-06
-8.91545e-06
1.24272e-05
-1.82526e-05
1.62578e-05
-2.97217e-05
1.77159e-05
-4.2662e-05
1.74184e-05
-5.6544e-05
1.58549e-05
-7.09568e-05
1.34115e-05
-8.55949e-05
1.03947e-05
-0.000100247
7.05243e-06
-0.000114785
3.5903e-06
-0.000129156
1.8414e-07
-0.000143375
-3.01267e-06
-0.000157513
-5.86552e-06
-0.000171692
-8.25783e-06
-0.000186079
-1.00921e-05
-0.00020087
-1.12923e-05
-0.000216286
-1.18072e-05
-0.000232558
-1.16122e-05
-0.00024992
-1.06959e-05
-9.04627e-06
-0.000268609
-2.59777e-06
8.08133e-06
-9.18606e-06
1.90155e-05
-1.87676e-05
2.58394e-05
-3.05064e-05
2.94547e-05
-4.37161e-05
3.06281e-05
-5.78456e-05
2.99843e-05
-7.24636e-05
2.80295e-05
-8.72447e-05
2.51758e-05
-0.000101957
2.17649e-05
-0.000116453
1.80862e-05
-0.00013066
1.43911e-05
-0.000144574
1.09015e-05
-0.000158254
7.81464e-06
-0.000171815
5.30303e-06
-0.000185421
3.51327e-06
-0.000199275
2.56242e-06
-0.000213616
2.5328e-06
-0.000228697
3.46883e-06
-0.000244784
5.3917e-06
8.31953e-06
-0.00026215
-2.67761e-06
1.07589e-05
-9.43556e-06
2.57735e-05
-1.92302e-05
3.5634e-05
-3.11919e-05
4.14165e-05
-4.46082e-05
4.40443e-05
-5.89046e-05
4.42808e-05
-7.36275e-05
4.27523e-05
-8.84277e-05
3.99761e-05
-0.000103048
3.63855e-05
-0.000117314
3.23522e-05
-0.000131126
2.8203e-05
-0.000144454
2.42298e-05
-0.000157336
2.0696e-05
-0.000169869
1.78366e-05
-0.000182213
1.58565e-05
-0.000194575
1.49248e-05
-0.00020721
1.51677e-05
-0.000220403
1.66619e-05
-0.000234461
1.94502e-05
2.3566e-05
-0.000249708
-2.74955e-06
1.35085e-05
-9.65098e-06
3.26749e-05
-1.96144e-05
4.55974e-05
-3.17381e-05
5.35402e-05
-4.52841e-05
5.75903e-05
-5.96555e-05
5.86522e-05
-7.43755e-05
5.74723e-05
-8.90691e-05
5.46697e-05
-0.00010345
5.07665e-05
-0.000117311
4.62133e-05
-0.000130518
4.14093e-05
-0.000143005
3.67168e-05
-0.000154777
3.2468e-05
-0.000165907
2.89669e-05
-0.000176538
2.6487e-05
-0.000186877
2.5264e-05
-0.000197194
2.54846e-05
-0.000207809
2.72769e-05
-0.000219082
3.07233e-05
3.58883e-05
-0.000231404
-2.80918e-06
1.63177e-05
-9.81677e-06
3.96825e-05
-1.98891e-05
5.56698e-05
-3.20955e-05
6.57466e-05
-4.56758e-05
7.11707e-05
-6.00133e-05
7.29897e-05
-7.46092e-05
7.20682e-05
-8.90631e-05
6.91237e-05
-0.000103058
6.4761e-05
-0.000116348
5.95037e-05
-0.000128758
5.38191e-05
-0.000140177
4.81362e-05
-0.000150566
4.28567e-05
-0.000159958
3.83589e-05
-0.000168466
3.49954e-05
-0.000176287
3.3085e-05
-0.0001837
3.28975e-05
-0.000191061
3.46378e-05
-0.000198794
3.84561e-05
4.44735e-05
-0.000207379
-2.85112e-06
1.91688e-05
-9.91414e-06
4.67455e-05
-2.00161e-05
6.57717e-05
-3.22024e-05
7.79328e-05
-4.56958e-05
8.46642e-05
-5.9864e-05
8.71579e-05
-7.41906e-05
8.63948e-05
-8.82521e-05
8.31851e-05
-0.000101701
7.82094e-05
-0.000114252
7.20556e-05
-0.000125684
6.52506e-05
-0.000135831
5.82836e-05
-0.000144597
5.16222e-05
-0.000151959
4.57207e-05
-0.000157983
4.10198e-05
-0.000162837
3.79388e-05
-0.000166797
3.6857e-05
-0.00017025
3.80909e-05
-0.000173692
4.18987e-05
4.85003e-05
-0.000177719
-2.86903e-06
2.20379e-05
-9.9209e-06
5.37974e-05
-1.99496e-05
7.58004e-05
-3.19828e-05
8.9966e-05
-4.52326e-05
9.79139e-05
-5.90573e-05
0.000100983
-7.29291e-05
0.000100267
-8.64065e-05
9.66626e-05
-9.91156e-05
9.09184e-05
-0.000110736
8.36759e-05
-0.000120995
7.55096e-05
-0.000129669
6.69575e-05
-0.000136591
5.85443e-05
-0.000141666
5.07958e-05
-0.000144891
4.4245e-05
-0.000146379
3.94268e-05
-0.000146381
3.68589e-05
-0.000145303
3.70128e-05
-0.000143716
4.03117e-05
4.71393e-05
-0.000142355
-2.85583e-06
2.48937e-05
-9.81207e-06
6.07536e-05
-1.96368e-05
8.56251e-05
-3.13468e-05
0.000101676
-4.41498e-05
0.000110717
-5.74022e-05
0.000114235
-7.05718e-05
0.000113436
-8.32079e-05
0.000109299
-9.49179e-05
0.000102628
-0.000105351
9.41094e-05
-0.000114192
8.43497e-05
-0.000121154
7.39201e-05
-0.000125997
6.33868e-05
-0.000128536
5.33349e-05
-0.000128675
4.43846e-05
-0.000126443
3.71946e-05
-0.000122031
3.24472e-05
-0.000115837
3.08187e-05
-0.000108498
3.29726e-05
3.95553e-05
-0.000100914
-2.80427e-06
2.7698e-05
-9.56149e-06
6.75109e-05
-1.90209e-05
9.50846e-05
-3.01939e-05
0.000112849
-4.22897e-05
0.000122813
-5.46689e-05
0.000126614
-6.68029e-05
0.00012557
-7.8241e-05
0.000120737
-8.85833e-05
0.000112971
-9.74613e-05
0.000102987
-0.000104525
9.14134e-05
-0.000109439
7.88339e-05
-0.000111887
6.58347e-05
-0.000111591
5.30387e-05
-0.000108342
4.11357e-05
-0.000102049
3.09022e-05
-9.28036e-05
2.32016e-05
-8.09477e-05
1.89628e-05
-6.7157e-05
1.91818e-05
2.49105e-05
-5.25121e-05
-2.70782e-06
3.04058e-05
-9.14446e-06
7.39475e-05
-1.80457e-05
0.000103986
-2.84204e-05
0.000123224
-3.94819e-05
0.000133874
-5.05988e-05
0.000137731
-6.12523e-05
0.000136224
-7.10002e-05
0.000130485
-7.94476e-05
0.000121418
-8.62235e-05
0.000109763
-9.09636e-05
9.61535e-05
-9.33e-05
8.11703e-05
-9.28604e-05
6.53952e-05
-8.92806e-05
4.94588e-05
-8.2234e-05
3.40891e-05
-7.14864e-05
2.01547e-05
-5.69785e-05
8.69364e-06
-3.89365e-05
9.20789e-07
-1.80159e-05
-1.73878e-06
2.36467e-06
4.52987e-06
-2.56176e-06
3.29676e-05
-8.54097e-06
7.99267e-05
-1.66615e-05
0.000112106
-2.59283e-05
0.00013249
-3.5557e-05
0.000143503
-4.49233e-05
0.000147097
-5.3519e-05
0.000144819
-6.09154e-05
0.000137881
-6.67321e-05
0.000127235
-7.0612e-05
0.000113643
-7.21992e-05
9.77407e-05
-7.11234e-05
8.00944e-05
-6.69896e-05
6.12613e-05
-5.93794e-05
4.18486e-05
-4.78701e-05
2.25798e-05
-3.20834e-05
4.36798e-06
-1.17763e-05
-1.16134e-05
1.3013e-05
-2.38685e-05
4.17425e-05
-3.04683e-05
-2.89336e-05
7.30407e-05
-2.36428e-06
3.53318e-05
-7.73891e-06
8.53014e-05
-1.4832e-05
0.000119199
-2.26371e-05
0.000140296
-3.03642e-05
0.00015123
-3.73881e-05
0.000154121
-4.3205e-05
0.000150636
-4.73966e-05
0.000142073
-4.95996e-05
0.000129438
-4.94807e-05
0.000113524
-4.67143e-05
9.49743e-05
-4.09613e-05
7.43415e-05
-3.18518e-05
5.21517e-05
-1.89714e-05
2.89682e-05
-1.86134e-06
5.46981e-06
1.99552e-05
-1.74485e-05
4.68959e-05
-3.85541e-05
7.91627e-05
-5.61353e-05
0.000116449
-6.77543e-05
-6.98835e-05
0.000157399
-2.11715e-06
3.7449e-05
-6.73635e-06
8.99206e-05
-1.25386e-05
0.000125002
-1.84925e-05
0.000146249
-2.37867e-05
0.000156524
-2.77793e-05
0.000158114
-2.99555e-05
0.000152812
-2.98928e-05
0.00014201
-2.72355e-05
0.000126781
-2.16722e-05
0.000107961
-1.29168e-05
8.62189e-05
-6.89368e-07
6.21141e-05
1.53049e-05
3.61574e-05
3.53996e-05
8.87355e-06
5.99893e-05
-1.91199e-05
8.95389e-05
-4.69981e-05
0.000124551
-7.35658e-05
0.000165446
-9.70304e-05
0.000212262
-0.000114571
-0.00012151
0.000263889
-1.82574e-06
3.92747e-05
-5.54166e-06
9.36365e-05
-9.78218e-06
0.000129242
-1.34701e-05
0.000149937
-1.5751e-05
0.000158805
-1.59425e-05
0.000158305
-1.34926e-05
0.000150363
-7.94912e-06
0.000136467
1.06152e-06
0.00011777
1.38493e-05
9.51732e-05
3.06713e-05
6.93969e-05
5.17424e-05
4.1043e-05
7.72495e-05
1.06504e-05
0.000107374
-2.12506e-05
0.000142324
-5.40705e-05
0.000182382
-8.70561e-05
0.000227931
-0.000119115
0.00027944
-0.000148539
0.000337282
-0.000172413
-0.000185082
0.000400853
-1.49804e-06
4.07728e-05
-4.1706e-06
9.6309e-05
-6.57786e-06
0.00013165
-7.57041e-06
0.00015093
-6.22327e-06
0.000157458
-1.78321e-06
0.000153865
6.37191e-06
0.000142207
1.87606e-05
0.000124078
3.58131e-05
0.000100717
5.78773e-05
7.3109e-05
8.52179e-05
4.20563e-05
0.000118012
8.24914e-06
0.000156344
-2.76822e-05
0.000200213
-6.51196e-05
0.000249549
-0.000103406
0.000304261
-0.000141768
0.000364315
-0.00017917
0.000429828
-0.000214051
0.000501157
-0.000243742
-0.000262326
0.000578401
-1.14245e-06
4.19152e-05
-2.64019e-06
9.78068e-05
-2.94425e-06
0.000131954
-8.02504e-07
0.000148788
4.81144e-06
0.000151844
1.47548e-05
0.000143922
2.97567e-05
0.000127206
5.04433e-05
0.000103391
7.73474e-05
7.38133e-05
0.000110907
3.95498e-05
0.00015145
1.51312e-06
0.000199176
-3.94771e-05
0.000254127
-8.26333e-05
0.000316157
-0.00012715
0.000384908
-0.000172157
0.000459808
-0.000216669
0.00054012
-0.000259482
0.000625047
-0.000298979
0.000714032
-0.000332726
-0.000356323
0.000808028
-7.64918e-07
4.26801e-05
-9.60006e-07
9.80019e-05
1.11284e-06
0.000129881
6.84098e-06
0.00014306
1.73836e-05
0.000141302
3.37343e-05
0.000127571
5.67638e-05
0.000104176
8.72432e-05
7.29119e-05
0.00012585
3.52062e-05
0.000173162
-7.76152e-06
0.000229633
-5.49582e-05
0.000295568
-0.000105412
0.000371076
-0.000158141
0.00045601
-0.000212083
0.000549882
-0.000266029
0.000651764
-0.00031855
0.000760161
-0.000367879
0.000872881
-0.000411699
0.000987161
-0.000447006
-0.000473184
0.00110402
-3.65691e-07
4.30458e-05
8.77297e-07
9.67589e-05
5.61826e-06
0.00012514
1.54121e-05
0.000133266
3.15799e-05
0.000125134
5.52787e-05
0.000103873
8.75457e-05
7.19091e-05
0.000129319
3.11385e-05
0.000181442
-1.69168e-05
0.000244654
-7.09731e-05
0.000319572
-0.000129877
0.000406676
-0.000192516
0.000506278
-0.000257744
0.000618502
-0.000324306
0.000743228
-0.000390756
0.000880002
-0.000455324
0.00102779
-0.000515663
0.00118411
-0.000568027
0.00134204
-0.000604934
-0.000611473
0.00148033
6.25603e-08
4.29833e-05
2.9025e-06
9.39189e-05
1.06408e-05
0.000117401
2.50295e-05
0.000118878
4.75753e-05
0.000102588
7.96154e-05
7.18324e-05
0.00012236
2.91648e-05
0.000176906
-2.34081e-05
0.000244238
-8.42489e-05
0.000325213
-0.000151948
0.000420549
-0.000225214
0.000530831
-0.000302798
0.000656531
-0.000383443
0.000798081
-0.000465856
0.000956028
-0.000548703
0.00113132
-0.000630621
0.00132587
-0.000710213
0.00154383
-0.000785982
0.00179557
-0.000856677
-0.000919419
0.00210352
5.3859e-07
4.24447e-05
5.17747e-06
8.92801e-05
1.63041e-05
0.000106275
3.58919e-05
9.92898e-05
6.56484e-05
7.28314e-05
0.000107092
3.03884e-05
0.000161587
-2.533e-05
0.000230342
-9.2163e-05
0.000314395
-0.000168301
0.000414586
-0.000252139
0.000531541
-0.000342169
0.000665668
-0.000436925
0.000817187
-0.000534962
0.000986198
-0.000634867
0.00117281
-0.000735311
0.00137732
-0.000835133
0.00160056
-0.000933451
0.00184435
-0.00102978
0.00211174
-0.00112406
-0.00120913
0.00240145
1.08801e-06
4.13567e-05
7.78623e-06
8.25818e-05
2.27734e-05
9.12876e-05
4.82597e-05
7.38035e-05
8.61555e-05
3.49356e-05
0.000138141
-2.15972e-05
0.000205681
-9.28702e-05
0.000290003
-0.000176485
0.000392056
-0.000270354
0.000512465
-0.000372547
0.000651498
-0.000481202
0.000809064
-0.00059449
0.000984724
-0.000710622
0.00117775
-0.000827897
0.00138722
-0.000944777
0.00161207
-0.00105998
0.0018512
-0.00117258
0.0021035
-0.00128208
0.00236764
-0.0013882
-0.00148283
0.00264133
1.74328e-06
3.96134e-05
1.08306e-05
7.34945e-05
3.02421e-05
7.18761e-05
6.2426e-05
4.16196e-05
0.000109478
-1.2116e-05
0.000173189
-8.53087e-05
0.000255034
-0.000174715
0.000356113
-0.000277564
0.000477087
-0.000391328
0.000618117
-0.000513576
0.000778827
-0.000641912
0.000958311
-0.000773974
0.00115517
-0.000907484
0.0013676
-0.00104032
0.00159345
-0.00117062
0.00183033
-0.00129686
0.00207566
-0.00141792
0.00232666
-0.00153308
0.00258041
-0.00164194
-0.00173763
0.00283521
2.53897e-06
3.70744e-05
1.44159e-05
6.16176e-05
3.89028e-05
4.73892e-05
7.86668e-05
1.85562e-06
0.000135941
-6.93902e-05
0.000212539
-0.000161907
0.0003098
-0.000271975
0.000428496
-0.000396261
0.000568749
-0.000531581
0.000729971
-0.000674798
0.000910857
-0.000822799
0.00110944
-0.000972554
0.00132317
-0.00112122
0.0015491
-0.00126625
0.00178398
-0.0014055
0.00202441
-0.0015373
0.00226696
-0.00166047
0.00250822
-0.00177434
0.00274493
-0.00187865
-0.0019685
0.0029758
3.50732e-06
3.35671e-05
1.86364e-05
4.64885e-05
4.89172e-05
1.71084e-05
9.71873e-05
-4.64144e-05
0.000165732
-0.000137934
0.000256245
-0.00025242
0.000369727
-0.000385457
0.000506367
-0.000532901
0.000665457
-0.000690672
0.000845376
-0.000854718
0.00104365
-0.00102107
0.0012571
-0.001186
0.00148202
-0.00134615
0.00171446
-0.00149869
0.00195038
-0.00164142
0.00218589
-0.00177281
0.00241739
-0.00189196
0.00264162
-0.00199858
0.00285586
-0.00209288
-0.00217202
0.00305937
4.67443e-06
2.88927e-05
2.35628e-05
2.76002e-05
6.03888e-05
-1.97176e-05
0.000118076
-0.000104101
0.000198825
-0.000218684
0.000304013
-0.000357608
0.000434042
-0.000515486
0.000588218
-0.000687076
0.000764709
-0.000867163
0.000960618
-0.00105063
0.00117217
-0.00123262
0.00139498
-0.00140882
0.0016244
-0.00157556
0.00185578
-0.00173007
0.0020848
-0.00187044
0.00230765
-0.00199566
0.00252118
-0.00210549
0.00272293
-0.00220033
0.00291116
-0.00228111
-0.00234676
0.0030859
6.05774e-06
2.28349e-05
2.92322e-05
4.42566e-06
7.33433e-05
-6.38287e-05
0.00014127
-0.000172028
0.00023494
-0.000312354
0.000355155
-0.000477823
0.000501412
-0.000661744
0.000671825
-0.00085749
0.000863186
-0.00105852
0.00107119
-0.00125863
0.00129078
-0.00145222
0.00151661
-0.00163464
0.0017434
-0.00180235
0.00196637
-0.00195304
0.00218146
-0.00208554
0.00238553
-0.00219973
0.00257634
-0.0022963
0.00275258
-0.00237656
0.00291372
-0.00244226
-0.00249372
0.00306068
7.6649e-06
1.517e-05
3.56445e-05
-2.35539e-05
8.77182e-05
-0.000115903
0.000166542
-0.000250852
0.000273522
-0.000419334
0.000408577
-0.000612878
0.000569979
-0.000823145
0.000754373
-0.00104188
0.000957025
-0.00126118
0.00117225
-0.00147385
0.00139395
-0.00167392
0.00161618
-0.00185687
0.00183362
-0.00201979
0.00204188
-0.0021613
0.00223772
-0.00228138
0.00241905
-0.00238106
0.00258486
-0.00246211
0.00273505
-0.00252675
0.00287024
-0.00257745
-0.00261559
0.00299211
9.49373e-06
5.67631e-06
4.27599e-05
-5.68201e-05
0.00010336
-0.000176502
0.000193494
-0.000340986
0.000313749
-0.00053959
0.000462829
-0.000761957
0.000637474
-0.000997791
0.000832683
-0.00123709
0.0010422
-0.00147069
0.00125919
-0.00169084
0.00147692
-0.00189166
0.00168943
-0.00206938
0.00189189
-0.00222224
0.00208084
-0.00235025
0.00225421
-0.00245475
0.00241119
-0.00253804
0.002552
-0.00260292
0.00267762
-0.00265238
0.00278954
-0.00268937
-0.002716
0.00288994
1.15327e-05
-5.85639e-06
5.05007e-05
-9.5788e-05
0.000120025
-0.000246027
0.000221571
-0.000442531
0.000354571
-0.000672589
0.000516181
-0.000923568
0.000701389
-0.001183
0.000903506
-0.00143921
0.00111496
-0.00168214
0.00132817
-0.00190405
0.00153635
-0.00209984
0.00173408
-0.0022671
0.00191752
-0.00240569
0.0020845
-0.00251723
0.0022343
-0.00260454
0.00236733
-0.00267107
0.00248486
-0.00272045
0.00258866
-0.00275617
0.00268072
-0.00278143
-0.00279868
0.0027634
1.37614e-05
-1.96178e-05
5.87525e-05
-0.000140779
0.00013739
-0.000324665
0.000250081
-0.000555221
0.000394755
-0.000817264
0.000566747
-0.00109556
0.000759183
-0.00137543
0.000963837
-0.00164386
0.00117221
-0.00189051
0.00137654
-0.00210838
0.00157056
-0.00229387
0.0017499
-0.00244644
0.00191207
-0.00256786
0.00205631
-0.00266146
0.00218315
-0.00273138
0.00229405
-0.00278198
0.00239101
-0.00281741
0.00247622
-0.00284138
0.00255187
-0.00285708
-0.00286704
0.00262023
1.61507e-05
-3.57685e-05
6.73668e-05
-0.000191995
0.000155057
-0.000412356
0.000278222
-0.000678386
0.000432966
-0.000972008
0.000612616
-0.00127521
0.000808506
-0.00157132
0.00101121
-0.00184657
0.00121182
-0.00209113
0.00140302
-0.00229957
0.00157957
-0.00247042
0.00173849
-0.00260536
0.00187877
-0.00270814
0.00200096
-0.00278365
0.00210665
-0.00283707
0.00219801
-0.00287334
0.00227743
-0.00289683
0.00234723
-0.00291119
0.00240954
-0.00291938
-0.00292386
0.00246636
1.86627e-05
-5.44312e-05
7.61632e-05
-0.000249496
0.000172569
-0.000508761
0.000305123
-0.00081094
0.000467845
-0.00113473
0.000652011
-0.00145938
0.000847405
-0.00176672
0.00104389
-0.00204305
0.00123278
-0.00228002
0.0014077
-0.00247449
0.00156484
-0.00262756
0.00170274
-0.00274326
0.00182179
-0.00282719
0.00192362
-0.00288549
0.00201057
-0.00292402
0.00208519
-0.00294797
0.00214998
-0.00296161
0.00220715
-0.00296836
0.00225862
-0.00297085
-0.00297129
0.00230604
2.1251e-05
-7.56821e-05
8.49341e-05
-0.000313179
0.000189426
-0.000613253
0.000329893
-0.000951408
0.000498108
-0.00130294
0.000683418
-0.00164469
0.000874473
-0.00195777
0.00106101
-0.00222959
0.00123513
-0.00245414
0.00139182
-0.00263118
0.00152885
-0.0027646
0.00164625
-0.00286066
0.00174558
-0.00292652
0.00182926
-0.00296917
0.00190004
-0.00299479
0.00196057
-0.0030085
0.00201323
-0.00301428
0.00206002
-0.00301515
0.00210255
-0.00301338
-0.00301086
0.00214212
2.38611e-05
-9.95433e-05
9.34515e-05
-0.000382769
0.000205111
-0.000724912
0.000351672
-0.00109797
0.000522633
-0.00147391
0.000705704
-0.00182776
0.000888934
-0.002141
0.00106253
-0.00240318
0.00121982
-0.00261143
0.00135742
-0.00276878
0.00147466
-0.00288184
0.00157285
-0.00295885
0.00165443
-0.0030081
0.00172229
-0.00303702
0.0017793
-0.0030518
0.00182802
-0.00305722
0.00187059
-0.00305685
0.00190871
-0.00305327
0.00194368
-0.00304834
-0.00304367
0.00197648
2.64322e-05
-0.000125975
0.000101475
-0.000457812
0.000219116
-0.000842553
0.000369686
-0.00124854
0.000540539
-0.00164476
0.00071818
-0.0020054
0.000890641
-0.00231346
0.00104911
-0.00256165
0.00118849
-0.00275081
0.00130703
-0.00288732
0.00140549
-0.00298031
0.00148618
-0.00303954
0.0015521
-0.00307402
0.00160634
-0.00309126
0.00165168
-0.00309714
0.00169045
-0.00309599
0.00172448
-0.00309089
0.00175517
-0.00308396
0.00178353
-0.0030767
-0.00307043
0.0018103
2.88983e-05
-0.000154874
0.000108764
-0.000537678
0.000230969
-0.000964758
0.000383297
-0.00140087
0.000551235
-0.0018127
0.000720611
-0.00217477
0.000880005
-0.00247286
0.00102199
-0.00270364
0.00114317
-0.00287199
0.00124334
-0.00298749
0.00132445
-0.00306142
0.0013895
-0.00310459
0.00144177
-0.00312629
0.00148431
-0.0031338
0.00151969
-0.00313252
0.00154994
-0.00312624
0.00157657
-0.00311752
0.0016007
-0.00310808
0.00162309
-0.0030991
-0.00309162
0.00164428
3.11919e-05
-0.000186066
0.000115088
-0.000621574
0.000240264
-0.00108993
0.000392039
-0.00155264
0.00055444
-0.0019751
0.000713183
-0.00233352
0.000857881
-0.00261756
0.000982746
-0.0028285
0.00108606
-0.0029753
0.00116899
-0.00307042
0.00123435
-0.00312678
0.00128557
-0.00315581
0.00132597
-0.00316668
0.00135841
-0.00316625
0.00138518
-0.00315929
0.00140797
-0.00314903
0.001428
-0.00313756
0.00144615
-0.00312623
0.00146299
-0.00311594
-0.00310752
0.00147889
3.32463e-05
-0.000219312
0.000120241
-0.000708569
0.000246677
-0.00121637
0.000395634
-0.0017016
0.000550169
-0.00212963
0.000696431
-0.00247978
0.000825433
-0.00274656
0.000933127
-0.0029362
0.00101934
-0.00306151
0.00108637
-0.00313744
0.0011376
-0.00317801
0.00117663
-0.00319484
0.00120667
-0.00319672
0.0012303
-0.00318987
0.00124946
-0.00317845
0.00126555
-0.00316512
0.00127953
-0.00315154
0.00129208
-0.00313877
0.00130362
-0.00312748
-0.00311831
0.00131441
3.50023e-05
-0.000254314
0.000124055
-0.000797621
0.000249999
-0.00134231
0.000394011
-0.00184561
0.000538715
-0.00227433
0.000671167
-0.00261223
0.000784019
-0.00285941
0.000874931
-0.00302711
0.00094509
-0.00313167
0.000997604
-0.00318996
0.00103622
-0.00321663
0.00106449
-0.00322311
0.00108539
-0.00321762
0.00110118
-0.00320566
0.00111347
-0.00319074
0.00112339
-0.00317504
0.00113169
-0.00315984
0.00113887
-0.00314596
0.00114527
-0.00313387
-0.00312408
0.00115104
3.63977e-05
-0.000290712
0.000126383
-0.000887607
0.000250095
-0.00146603
0.000387239
-0.00198275
0.000520535
-0.00240763
0.000638325
-0.00273002
0.000735007
-0.00295609
0.000809829
-0.00310193
0.000865086
-0.00318693
0.000904449
-0.00322932
0.000931785
-0.00324396
0.000950487
-0.00324182
0.000963213
-0.00323035
0.000971892
-0.00321434
0.000977845
-0.0031967
0.000981954
-0.00317915
0.000984801
-0.00316269
0.000986771
-0.00314793
0.000988105
-0.00313521
-0.0031249
0.000988921
3.73887e-05
-0.000328101
0.000127144
-0.000977362
0.000246962
-0.00158584
0.000375571
-0.00211136
0.000496275
-0.00252833
0.000598968
-0.00283271
0.00067979
-0.00303691
0.000739393
-0.00316153
0.000780923
-0.00322846
0.000808382
-0.00325678
0.000825588
-0.00326117
0.000835675
-0.0032519
0.000840968
-0.00323564
0.000843075
-0.00321644
0.000843055
-0.00319668
0.000841592
-0.00317768
0.000839133
-0.00316023
0.000835973
-0.00314477
0.000832294
-0.00313153
-0.00312078
0.000828178
3.79391e-05
-0.00036604
0.000126296
-0.00106572
0.000240684
-0.00170023
0.000359371
-0.00223005
0.000466663
-0.00263563
0.00055416
-0.00292021
0.000619661
-0.00310242
0.000664999
-0.00320687
0.000693928
-0.00325739
0.000710583
-0.00327344
0.000718613
-0.0032692
0.000720839
-0.00325413
0.000719254
-0.00323405
0.000715172
-0.00321236
0.000709428
-0.00319093
0.000702547
-0.0031708
0.000694873
-0.00315256
0.000686632
-0.00313653
0.000677965
-0.00312286
-0.00311175
0.000668931
3.80242e-05
-0.000404064
0.000123841
-0.00115154
0.000231423
-0.00180782
0.000339084
-0.00233771
0.000432466
-0.00272901
0.000504931
-0.00299268
0.00055579
-0.00315327
0.000587828
-0.00323891
0.000605189
-0.00327475
0.000611985
-0.00328023
0.000611612
-0.00326883
0.000606559
-0.00324908
0.000598502
-0.003226
0.000588501
-0.00320236
0.000577201
-0.00317963
0.000565003
-0.00315861
0.000552168
-0.00313972
0.000538873
-0.00312323
0.000525231
-0.00310922
-0.00309781
0.000511289
3.76315e-05
-0.000441695
0.000119824
-0.00123373
0.000219404
-0.0019074
0.000315208
-0.00243352
0.000394451
-0.00280825
0.00045224
-0.00305047
0.000489212
-0.00319025
0.00050888
-0.00325858
0.00051559
-0.00328146
0.000513317
-0.00327796
0.000505153
-0.00326066
0.000493261
-0.00323718
0.000479029
-0.00321176
0.000463295
-0.00318662
0.000446553
-0.00316289
0.0004291
-0.00314115
0.000411136
-0.00312176
0.000392803
-0.0031049
0.000374195
-0.00309061
-0.00307896
0.000355352
3.67599e-05
-0.000478455
0.000114323
-0.00131129
0.000204897
-0.00199797
0.000288261
-0.00251688
0.000353359
-0.00287335
0.000396956
-0.00309406
0.000420817
-0.00321411
0.000428978
-0.00326674
0.000425835
-0.00327832
0.00041514
-0.00326726
0.000399667
-0.00324519
0.000381263
-0.00321878
0.000361065
-0.00319157
0.000339727
-0.00316529
0.000317616
-0.00314078
0.00029495
-0.00311849
0.000271878
-0.00309869
0.000248517
-0.00308154
0.000224949
-0.00306705
-0.00305523
0.000201216
3.54193e-05
-0.000513875
0.000107447
-0.00138332
0.000188202
-0.00207873
0.000258763
-0.00258744
0.000309879
-0.00292447
0.000339849
-0.00312403
0.000351365
-0.00322562
0.0003488
-0.00326417
0.000336482
-0.003266
0.00031789
-0.00324867
0.000295474
-0.00322277
0.000270799
-0.0031941
0.000244781
-0.00316555
0.000217924
-0.00313843
0.000190494
-0.00311335
0.000162642
-0.00309063
0.000134477
-0.00307052
0.000106094
-0.00305315
7.75747e-05
-0.00303853
-0.00302662
4.89636e-05
3.36291e-05
-0.000547504
9.93227e-05
-0.00144901
0.000169631
-0.00214903
0.000227216
-0.00264503
0.000264644
-0.00296189
0.000281594
-0.00314098
0.000281493
-0.00322552
0.000268896
-0.00325158
0.000247973
-0.00324508
0.000221901
-0.0032226
0.000192821
-0.00319369
0.000162044
-0.00316333
0.000130305
-0.00313381
9.79848e-05
-0.00310611
6.5267e-05
-0.00308063
3.22478e-05
-0.00305762
-9.98935e-07
-0.00303728
-3.4395e-05
-0.00301976
-6.78576e-05
-0.00300506
-0.00299315
-0.000101329
3.14169e-05
-0.000578921
9.00948e-05
-0.00150769
0.000149499
-0.00220844
0.000194091
-0.00268962
0.000218218
-0.00298602
0.000222771
-0.00314554
0.000211733
-0.00321448
0.000189713
-0.00322956
0.000160658
-0.00321602
0.000127435
-0.00318938
9.18968e-05
-0.00315816
5.51341e-05
-0.00312656
1.77347e-05
-0.00309641
-2.00177e-05
-0.00306836
-5.80052e-05
-0.00304264
-9.61795e-05
-0.00301944
-0.0001345
-0.00299896
-0.000172903
-0.00298136
-0.000211298
-0.00296667
-0.00295484
-0.00024961
2.88171e-05
-0.000607738
7.99151e-05
-0.00155879
0.000128115
-0.00225664
0.00015983
-0.00272133
0.000171106
-0.0029973
0.00016388
-0.00313831
0.000142529
-0.00319313
0.000111615
-0.00319864
7.48211e-05
-0.00317923
3.47044e-05
-0.00314926
-7.14443e-06
-0.00311631
-4.98196e-05
-0.00308389
-9.28508e-05
-0.00305338
-0.000136027
-0.00302518
-0.000179282
-0.00299939
-0.000222609
-0.00297611
-0.000266002
-0.00295556
-0.000309413
-0.00293795
-0.000352737
-0.00292334
-0.0029117
-0.000395876
2.58697e-05
-0.000633607
6.89401e-05
-0.00160186
0.000105775
-0.00229347
0.000124832
-0.00274039
0.00012375
-0.00299622
0.000105346
-0.00311991
7.42536e-05
-0.00316204
3.49062e-05
-0.0031593
-9.3016e-06
-0.00313502
-5.61117e-05
-0.00310245
-0.000104168
-0.00306825
-0.000152718
-0.00303534
-0.000201381
-0.00300472
-0.000249998
-0.00297656
-0.000298537
-0.00295085
-0.000347032
-0.00292762
-0.000395513
-0.00290708
-0.00044395
-0.00288951
-0.000492229
-0.00287507
-0.00286372
-0.000540209
2.26186e-05
-0.000656226
5.73267e-05
-0.00163657
8.27606e-05
-0.00231891
8.94607e-05
-0.00274709
7.65414e-05
-0.0029833
4.75388e-05
-0.0030909
7.22592e-06
-0.00312173
-4.01519e-05
-0.00311192
-9.15014e-05
-0.00308367
-0.000144847
-0.0030491
-0.00019904
-0.00301406
-0.000253457
-0.00298092
-0.000307781
-0.00295039
-0.000361882
-0.00292246
-0.000415751
-0.00289698
-0.000469452
-0.00287392
-0.000523059
-0.00285347
-0.000576574
-0.00283599
-0.000629872
-0.00282177
-0.00281083
-0.000682753
1.91104e-05
-0.000675336
4.52287e-05
-0.00166268
5.93325e-05
-0.00233301
5.40453e-05
-0.0027418
2.98222e-05
-0.00295907
-9.22303e-06
-0.00305186
-5.82772e-05
-0.00307267
-0.000113327
-0.00305687
-0.000171582
-0.00302542
-0.000231333
-0.00298935
-0.000291616
-0.00295377
-0.000351914
-0.00292062
-0.000411956
-0.00289035
-0.00047162
-0.0028628
-0.000530898
-0.0028377
-0.000589874
-0.00281494
-0.000648671
-0.00279468
-0.00070734
-0.00277732
-0.000765754
-0.00276335
-0.00275297
-0.000823619
1.53938e-05
-0.00069073
3.27952e-05
-0.00168009
3.57334e-05
-0.00233595
1.88799e-05
-0.00272495
-1.61046e-05
-0.00292409
-6.46581e-05
-0.00300331
-0.000122007
-0.00301532
-0.0001844
-0.00299448
-0.000249346
-0.00296047
-0.000315385
-0.00292331
-0.00038172
-0.00288744
-0.000447927
-0.00285442
-0.000513769
-0.00282451
-0.000579115
-0.00279745
-0.000643934
-0.00277288
-0.000708304
-0.00275057
-0.000772388
-0.00273059
-0.000836303
-0.00271341
-0.000899934
-0.00269972
-0.00269005
-0.00096285
1.15179e-05
-0.000702248
2.01685e-05
-0.00168874
1.21859e-05
-0.00232797
-1.57717e-05
-0.00269699
-6.09712e-05
-0.00287889
-0.000118516
-0.00294576
-0.000183736
-0.0029501
-0.000253158
-0.00292505
-0.000324584
-0.00288904
-0.000396785
-0.00285111
-0.000469123
-0.0028151
-0.000541264
-0.00278228
-0.000613004
-0.00275277
-0.000684197
-0.00272626
-0.000754765
-0.00270232
-0.000824743
-0.00268059
-0.0008943
-0.00266104
-0.000963631
-0.00264408
-0.00103265
-0.0026307
-0.00262188
-0.00110082
7.53178e-06
-0.00070978
7.48221e-06
-0.00168869
-1.1108e-05
-0.00230938
-4.96753e-05
-0.00265842
-0.000104541
-0.00282402
-0.000170573
-0.00287973
-0.000243251
-0.00287743
-0.000319388
-0.00284892
-0.000397069
-0.00281136
-0.000475282
-0.0027729
-0.00055354
-0.00273684
-0.000631608
-0.00270421
-0.00070933
-0.00267505
-0.000786561
-0.00264903
-0.000863171
-0.00262571
-0.000939118
-0.00260465
-0.00101455
-0.00258561
-0.00108974
-0.00256889
-0.00116468
-0.00255576
-0.00254754
-0.00123902
3.48295e-06
-0.000713263
-5.13997e-06
-0.00168006
-3.39675e-05
-0.00228055
-8.2625e-05
-0.00260977
-0.000146608
-0.00276004
-0.000220628
-0.00280571
-0.00030035
-0.0027977
-0.000382877
-0.00276639
-0.000466557
-0.00272768
-0.000550584
-0.00268887
-0.000634622
-0.00265281
-0.000718547
-0.00262028
-0.00080229
-0.0025913
-0.000885746
-0.00256557
-0.000968766
-0.00254269
-0.00105123
-0.00252218
-0.00113324
-0.0025036
-0.00121518
-0.00248695
-0.00129727
-0.00247367
-0.00246471
-0.0013801
-5.83415e-07
-0.000712679
-1.75861e-05
-0.00166306
-5.62342e-05
-0.0022419
-0.000114445
-0.00255156
-0.000186994
-0.00268749
-0.000268506
-0.0027242
-0.000354851
-0.00271136
-0.000443411
-0.00267783
-0.000532782
-0.00263831
-0.000622347
-0.00259931
-0.000711922
-0.00256323
-0.000801519
-0.00253069
-0.000891206
-0.00250162
-0.000981014
-0.00247576
-0.00107089
-0.00245281
-0.00116071
-0.00243235
-0.00125049
-0.00241382
-0.00134056
-0.00239688
-0.00143149
-0.00238274
-0.00237018
-0.00152602
-4.6257e-06
-0.000708054
-2.97578e-05
-0.00163793
-7.77736e-05
-0.00219388
-0.000144989
-0.00248434
-0.000225558
-0.00260692
-0.000314066
-0.00263569
-0.000406599
-0.00261883
-0.000500799
-0.00258363
-0.000595479
-0.00254363
-0.000690187
-0.0025046
-0.000784868
-0.00246855
-0.00087967
-0.00243588
-0.000974846
-0.00240644
-0.00107069
-0.00237992
-0.00116746
-0.00235603
-0.00126538
-0.00233443
-0.00136456
-0.00231465
-0.00146555
-0.00229589
-0.00157059
-0.0022777
-0.00227147
-0.0016693
-8.59467e-06
-0.000699459