/*--------------------------------*- C++ -*----------------------------------*\
  =========                 |
  \\      /  F ield         | OpenFOAM: The Open Source CFD Toolbox
   \\    /   O peration     | Website:  https://openfoam.org
    \\  /    A nd           | Version:  6.0
     \\/     M anipulation  |
\*---------------------------------------------------------------------------*/
FoamFile
{
    version     2.0;
    format      ascii;
    class       volVectorField;
    location    "20";
    object      U;
}
// * * * * * * * * * * * * * * * * * * * * * * * * * * * * * * * * * * * * * //

dimensions      [0 1 -1 0 0 0 0];

internalField   nonuniform List<vector> 
12500
(
(-0.000293447 0.000406645 -8.27468e-22)
(-0.00170847 0.00107043 1.18477e-20)
(-0.00443737 0.00159911 -1.72842e-20)
(-0.00792478 0.00201586 7.97924e-21)
(-0.0118721 0.00233883 4.80993e-22)
(-0.0160946 0.00258378 -9.93127e-22)
(-0.0204458 0.00276505 -1.47235e-20)
(-0.0248173 0.00289554 8.11472e-21)
(-0.0291339 0.00298675 5.38378e-21)
(-0.0333469 0.0030489 5.48522e-21)
(-0.0374277 0.003091 -9.3113e-21)
(-0.041364 0.00312096 5.4306e-21)
(-0.0451561 0.00314569 -2.56346e-21)
(-0.0488139 0.00317111 4.35581e-21)
(-0.0523549 0.00320227 -1.11326e-20)
(-0.0558016 0.00324338 1.61162e-20)
(-0.0591805 0.00329784 -3.07669e-21)
(-0.0625201 0.00336833 -1.14325e-20)
(-0.0658493 0.00345678 5.86329e-21)
(-0.0691975 0.00356449 -5.60326e-21)
(-0.0725999 0.00369201 5.01984e-21)
(-0.0760916 0.00383931 6.64224e-21)
(-0.0796354 0.00400685 6.75879e-22)
(-0.083102 0.00419617 -1.90416e-20)
(-0.0869878 0.00439946 1.06994e-20)
(-0.000338365 0.0011108 1.51029e-20)
(-0.00182156 0.00288919 -4.04504e-20)
(-0.00459677 0.00426945 1.20001e-20)
(-0.00811304 0.00532428 8.06273e-21)
(-0.0120744 0.0061104 -6.45936e-21)
(-0.0162983 0.00667608 -3.68691e-20)
(-0.0206396 0.00706455 1.1007e-20)
(-0.0249913 0.00731403 -2.08654e-20)
(-0.0292795 0.00745807 2.5049e-20)
(-0.033456 0.00752611 -3.35429e-20)
(-0.0374929 0.00754392 1.79596e-20)
(-0.0413785 0.00753393 5.81917e-21)
(-0.0451133 0.00751561 -1.46929e-20)
(-0.0487077 0.00750569 -6.50769e-21)
(-0.0521794 0.00751839 4.77082e-20)
(-0.0555513 0.00756553 -4.22826e-20)
(-0.0588503 0.00765672 1.01269e-20)
(-0.0621052 0.0077994 1.75443e-20)
(-0.0653456 0.00799897 -4.01482e-21)
(-0.0686013 0.00825887 2.83445e-20)
(-0.0719081 0.00858038 5.1685e-21)
(-0.0753021 0.00896294 -1.84425e-21)
(-0.0787465 0.00940751 -3.58836e-20)
(-0.0821111 0.00991841 3.30671e-20)
(-0.0858929 0.0104717 -6.71235e-20)
(-0.00042654 0.00180729 4.84378e-20)
(-0.00204416 0.0046883 1.67017e-20)
(-0.00491208 0.00691059 -2.20284e-20)
(-0.00848727 0.00859549 9.51469e-21)
(-0.0124788 0.00983775 8.95325e-21)
(-0.0167078 0.0107178 3.41361e-20)
(-0.0210323 0.0113073 -4.35408e-20)
(-0.0253479 0.0116697 -7.10583e-21)
(-0.0295825 0.0118603 -2.93662e-20)
(-0.0336896 0.0119275 -2.45958e-20)
(-0.0376426 0.0119137 3.18507e-20)
(-0.0414304 0.0118558 -1.06882e-19)
(-0.0450546 0.0117858 -3.34771e-21)
(-0.048526 0.0117314 -6.44326e-20)
(-0.051863 0.011716 -7.60301e-21)
(-0.0550893 0.0117592 9.18333e-21)
(-0.0582324 0.0118771 -5.02837e-20)
(-0.061322 0.0120822 -3.15054e-20)
(-0.0643888 0.0123836 -3.73536e-20)
(-0.0674638 0.0127872 5.85972e-20)
(-0.0705841 0.0132953 2.1456e-20)
(-0.0737873 0.0139069 -9.54333e-20)
(-0.077038 0.0146238 -4.60153e-20)
(-0.080204 0.0154533 -5.15094e-20)
(-0.0837839 0.0163553 1.47841e-19)
(-0.000557279 0.00249196 -1.51139e-21)
(-0.00237476 0.00645691 -3.86205e-20)
(-0.0053815 0.00950614 -1.8653e-20)
(-0.00904571 0.0118083 1.16347e-20)
(-0.0130838 0.0134954 7.28346e-20)
(-0.0173221 0.0146794 -3.30102e-20)
(-0.0216235 0.0154602 7.06816e-20)
(-0.0258872 0.0159255 6.7579e-20)
(-0.0300442 0.0161522 4.12849e-20)
(-0.0340503 0.0162074 -6.26301e-22)
(-0.0378805 0.01615 8.37424e-20)
(-0.0415253 0.0160311 1.45349e-20)
(-0.0449871 0.0158953 6.42275e-20)
(-0.0482779 0.0157811 1.47979e-19)
(-0.0514168 0.0157214 -1.72022e-19)
(-0.0544285 0.0157441 2.59136e-19)
(-0.0573416 0.015872 5.64792e-20)
(-0.0601874 0.0161231 -1.24786e-19)
(-0.0629978 0.0165107 -1.77401e-20)
(-0.0658057 0.0170438 4.5501e-20)
(-0.0686503 0.017726 -2.28394e-20)
(-0.0715718 0.0185565 -1.36861e-20)
(-0.0745367 0.0195379 -1.33568e-20)
(-0.0774102 0.0206813 -5.38654e-20)
(-0.0806937 0.0219301 2.00836e-19)
(-0.00072964 0.00316106 2.52318e-20)
(-0.00281125 0.00818499 -1.21633e-19)
(-0.00600246 0.0120408 1.48489e-19)
(-0.00978569 0.0149428 -5.94641e-20)
(-0.0138867 0.0170594 7.15722e-20)
(-0.0181391 0.0185333 5.86868e-20)
(-0.0224118 0.0194918 2.23823e-20)
(-0.026609 0.0200465 1.09717e-21)
(-0.0306657 0.0202952 1.26988e-19)
(-0.0345406 0.0203235 8.81961e-20)
(-0.0382112 0.020206 -3.54793e-20)
(-0.0416697 0.0200081 -2.29152e-20)
(-0.0449199 0.0197868 9.68857e-20)
(-0.0479749 0.0195917 1.82914e-20)
(-0.050855 0.0194653 4.97429e-20)
(-0.0535861 0.0194442 1.19379e-19)
(-0.0561981 0.0195583 -1.03329e-19)
(-0.058724 0.019832 8.3575e-20)
(-0.061198 0.0202837 -1.80432e-19)
(-0.0636552 0.0209258 1.51872e-19)
(-0.0661379 0.0217643 9.88058e-22)
(-0.0686896 0.0227989 -1.21434e-19)
(-0.0712798 0.0240339 4.89454e-20)
(-0.0737707 0.0254848 1.11296e-19)
(-0.0766678 0.0270783 -1.74408e-19)
(-0.000942482 0.00381135 1.30506e-19)
(-0.00335095 0.0098636 -1.43824e-19)
(-0.00677153 0.0145006 -2.32996e-20)
(-0.0107034 0.0179808 2.95635e-20)
(-0.0148838 0.0205077 -6.42188e-20)
(-0.0191553 0.022254 -1.00658e-19)
(-0.0233943 0.0233734 -8.40984e-20)
(-0.0275113 0.0240009 -2.03662e-20)
(-0.0314463 0.0242545 -1.45993e-19)
(-0.0351618 0.0242373 1.16708e-19)
(-0.0386382 0.0240395 -1.81919e-19)
(-0.0418699 0.0237403 9.22561e-20)
(-0.0448622 0.0234089 -3.07178e-20)
(-0.0476296 0.0231061 7.13477e-20)
(-0.0501936 0.0228844 -1.79871e-19)
(-0.0525814 0.0227893 8.73745e-20)
(-0.0548246 0.022859 6.52548e-21)
(-0.0569584 0.0231248 3.89313e-20)
(-0.0590193 0.023611 2.35654e-19)
(-0.0610457 0.024335 5.23091e-20)
(-0.0630833 0.025306 -4.76137e-21)
(-0.0651807 0.0265251 1.49871e-20)
(-0.0673112 0.0279992 9.88946e-20)
(-0.069334 0.0297494 2.82086e-20)
(-0.0717606 0.0316854 9.86424e-20)
(-0.00119452 0.00444012 -8.13159e-20)
(-0.00399067 0.0114849 1.19835e-19)
(-0.00768435 0.0168732 7.56184e-21)
(-0.0117938 0.0209058 -1.48244e-19)
(-0.0160696 0.0238204 3.13534e-19)
(-0.020365 0.0258186 -1.01924e-19)
(-0.0245656 0.0270796 1.49527e-19)
(-0.0285896 0.0277608 1.37459e-19)
(-0.0323828 0.0279994 -1.1423e-19)
(-0.0359124 0.0279154 -1.6694e-19)
(-0.0391623 0.027614 4.58639e-20)
(-0.0421292 0.0271875 -4.85287e-20)
(-0.0448205 0.0267173 -2.15383e-19)
(-0.047252 0.026275 2.62444e-19)
(-0.0494465 0.0259236 -1.26221e-19)
(-0.0514325 0.025718 -8.72699e-20)
(-0.0532436 0.0257054 7.95491e-22)
(-0.0549168 0.025925 7.16187e-20)
(-0.056492 0.0264088 2.96028e-20)
(-0.0580111 0.0271801 -1.16174e-19)
(-0.0595246 0.0282529 1.32879e-19)
(-0.061087 0.0296313 -2.31307e-19)
(-0.0626769 0.0313258 1.41478e-19)
(-0.0641512 0.0333649 -1.08563e-19)
(-0.0660296 0.0356413 2.99054e-20)
(-0.00148437 0.00504517 1.1833e-19)
(-0.00472672 0.0130422 -9.44617e-20)
(-0.0087355 0.0191476 -6.05169e-20)
(-0.01305 0.0237033 -1.07535e-19)
(-0.0174361 0.0269799 -1.97791e-19)
(-0.0217596 0.0292069 -1.46965e-19)
(-0.0259169 0.0305882 9.20694e-20)
(-0.0298351 0.0313022 -1.40127e-19)
(-0.0334671 0.0315044 1.78658e-19)
(-0.0367856 0.0313308 -2.91991e-19)
(-0.0397785 0.0309004 1.30211e-19)
(-0.0424454 0.0303183 2.76026e-19)
(-0.0447958 0.0296771 -3.89142e-19)
(-0.0468467 0.0290596 5.5735e-20)
(-0.0486223 0.0285389 7.27421e-20)
(-0.0501524 0.0281802 7.05389e-20)
(-0.0514721 0.0280402 -7.59761e-20)
(-0.052621 0.0281678 -1.87181e-20)
(-0.053642 0.0286037 -5.60256e-20)
(-0.0545816 0.0293795 -4.68452e-20)
(-0.0554956 0.0305158 -2.57591e-19)
(-0.0564461 0.0320214 -1.74299e-20)
(-0.0574186 0.0339126 2.81823e-21)
(-0.0582689 0.0362275 -1.17109e-19)
(-0.0595281 0.0388422 1.28029e-19)
(-0.00181056 0.00562477 3.41849e-21)
(-0.00555488 0.0145296 3.86311e-20)
(-0.00991829 0.0213143 4.05114e-20)
(-0.0144631 0.0263603 2.36662e-20)
(-0.0189725 0.0299707 2.01302e-19)
(-0.0233265 0.0324017 1.90127e-19)
(-0.0274342 0.0338805 -1.55354e-19)
(-0.031233 0.0346057 -4.75081e-20)
(-0.0346841 0.0347497 -4.23851e-20)
(-0.0377668 0.0344631 2.1962e-19)
(-0.0404733 0.0338778 7.91486e-20)
(-0.0428068 0.0331105 -1.15654e-19)
(-0.0447787 0.0322647 -9.82257e-20)
(-0.0464077 0.0314334 2.37434e-19)
(-0.0477187 0.0307002 -5.87154e-20)
(-0.0487428 0.0301404 -7.13774e-20)
(-0.0495163 0.0298217 -9.9882e-20)
(-0.0500813 0.0298036 -7.79344e-20)
(-0.050484 0.0301376 -9.97115e-20)
(-0.0507756 0.0308659 -6.53542e-20)
(-0.0510186 0.0320181 2.72103e-19)
(-0.0512837 0.0336109 -1.34236e-19)
(-0.0515656 0.0356687 9.05531e-20)
(-0.0517211 0.0382428 -2.41254e-19)
(-0.0522964 0.0411931 1.03009e-19)
(-0.00217155 0.00617746 -1.06263e-19)
(-0.00647028 0.0159422 -2.87269e-20)
(-0.0112245 0.0233645 -2.26007e-19)
(-0.0160215 0.0288655 -1.08996e-19)
(-0.0206639 0.0327792 -2.16468e-19)
(-0.0250479 0.0353881 -2.26989e-20)
(-0.0290971 0.0369415 1.17282e-19)
(-0.0327607 0.0376564 -7.1786e-20)
(-0.0360097 0.0377211 1.55419e-19)
(-0.0388305 0.0372994 -3.79238e-19)
(-0.041221 0.0365345 -1.10334e-20)
(-0.043188 0.0355535 6.77299e-20)
(-0.0447452 0.0344696 -8.62192e-20)
(-0.0459127 0.0333854 7.87116e-20)
(-0.0467163 0.0323942 -6.03462e-20)
(-0.0471875 0.0315821 -1.29681e-19)
(-0.0473639 0.0310279 2.37194e-19)
(-0.0472893 0.0308034 1.47476e-19)
(-0.0470133 0.0309729 -3.06265e-20)
(-0.0465919 0.0315916 9.77582e-20)
(-0.0460951 0.0327021 -1.93278e-19)
(-0.045604 0.0343321 2.7912e-19)
(-0.0451247 0.0365184 -3.81911e-19)
(-0.0445178 0.0393298 7.87593e-20)
(-0.0443506 0.0426122 -1.58666e-19)
(-0.00256568 0.00670191 5.76375e-21)
(-0.00746725 0.017275 -9.8139e-20)
(-0.0126441 0.0252904 1.46389e-19)
(-0.0177106 0.0312083 3.02116e-19)
(-0.022491 0.0353936 -4.99725e-21)
(-0.0269 0.0381537 3.46135e-20)
(-0.0308772 0.039759 -1.31472e-19)
(-0.0343857 0.0404438 6.18671e-20)
(-0.0374074 0.0404105 4.28339e-19)
(-0.0399372 0.0398342 -9.76081e-20)
(-0.0419794 0.0388684 -1.15729e-19)
(-0.043545 0.0376485 4.39e-19)
(-0.0446503 0.0362961 1.43848e-19)
(-0.0453169 0.034922 6.86993e-20)
(-0.045571 0.0336286 7.05224e-20)
(-0.0454442 0.0325119 1.92715e-19)
(-0.0449747 0.0316625 -7.42704e-20)
(-0.0442073 0.0311653 1.9678e-19)
(-0.0431946 0.0310996 2.66932e-19)
(-0.0419977 0.031537 -2.28202e-19)
(-0.0406943 0.0325366 3.39779e-19)
(-0.0393776 0.0341423 1.21469e-19)
(-0.0380675 0.0364086 -4.61788e-19)
(-0.0366321 0.0394284 6.68986e-19)
(-0.0356678 0.0430365 -5.7366e-19)
(-0.00299107 0.00719676 -2.70575e-19)
(-0.00853915 0.0185232 1.53059e-19)
(-0.0141648 0.027084 -1.03432e-19)
(-0.0195121 0.0333785 -9.88932e-20)
(-0.0244291 0.0378022 -1.07374e-19)
(-0.0288513 0.040687 -1.17155e-19)
(-0.0327366 0.0423231 3.23268e-20)
(-0.0360634 0.0429606 3.08595e-19)
(-0.0388262 0.0428142 -6.64138e-20)
(-0.0410298 0.0420693 -1.73678e-19)
(-0.0426857 0.0408868 -1.06478e-19)
(-0.0438099 0.0394092 -4.37305e-20)
(-0.0444219 0.0377642 1.29771e-19)
(-0.0445448 0.0360692 -8.31695e-20)
(-0.0442049 0.034434 -2.72264e-19)
(-0.0434339 0.0329637 -3.01282e-19)
(-0.0422693 0.0317599 1.20445e-19)
(-0.0407565 0.0309216 -2.24768e-19)
(-0.0389499 0.0305446 1.95628e-19)
(-0.0369151 0.0307199 -5.53742e-19)
(-0.0347383 0.031528 4.26361e-19)
(-0.032526 0.0330347 -5.6498e-19)
(-0.0303143 0.0353201 -1.05701e-20)
(-0.0279837 0.0385094 -1.90933e-19)
(-0.0261698 0.0424324 5.92907e-19)
(-0.00344556 0.00766035 4.15149e-19)
(-0.00967805 0.0196816 6.31439e-20)
(-0.0157716 0.0287369 -4.17833e-20)
(-0.0214031 0.0353656 -1.77508e-20)
(-0.0264471 0.039994 3.32186e-19)
(-0.030862 0.0429775 1.08647e-19)
(-0.034626 0.0446252 9.90299e-20)
(-0.037735 0.0452019 -8.00141e-20)
(-0.0401977 0.044933 3.09984e-19)
(-0.0420299 0.0440118 -1.53088e-19)
(-0.0432518 0.0426055 9.91812e-20)
(-0.0438853 0.0408609 2.5319e-19)
(-0.0439539 0.0389097 -1.44106e-19)
(-0.0434822 0.0368734 1.56536e-19)
(-0.0424973 0.034867 1.48285e-19)
(-0.04103 0.0330028 5.09026e-20)
(-0.0391166 0.0313921 -1.25753e-19)
(-0.0368022 0.0301472 3.48643e-19)
(-0.0341419 0.0293815 -3.25337e-20)
(-0.0312048 0.0292083 -3.75783e-20)
(-0.0280852 0.0297341 4.20336e-19)
(-0.0249038 0.0310537 -2.9962e-19)
(-0.021716 0.033282 5.05628e-19)
(-0.0184192 0.0365894 -4.2008e-19)
(-0.0157026 0.0408088 5.70413e-19)
(-0.00392654 0.00809063 -2.00526e-19)
(-0.0108745 0.0207437 4.6104e-20)
(-0.0174467 0.0302395 -4.8411e-20)
(-0.0233562 0.0371582 -2.30685e-19)
(-0.028507 0.0419566 1.34731e-20)
(-0.0328827 0.0450138 1.3286e-19)
(-0.0364842 0.0466567 -5.43334e-19)
(-0.0393264 0.0471636 4.07568e-19)
(-0.0414339 0.0467693 -3.98605e-19)
(-0.0428354 0.0456733 -2.52491e-19)
(-0.0435608 0.0440468 2.27317e-19)
(-0.0436395 0.0420388 -4.93767e-19)
(-0.0430995 0.0397825 4.17338e-19)
(-0.0419684 0.0374006 -1.33157e-19)
(-0.0402739 0.0350104 -3.81468e-19)
(-0.0380461 0.0327281 9.45126e-20)
(-0.03532 0.0306723 -8.89837e-20)
(-0.0321389 0.0289665 3.36263e-20)
(-0.0285574 0.0277415 -1.20511e-19)
(-0.024647 0.0271339 -4.00721e-19)
(-0.0205088 0.0272807 8.9958e-20)
(-0.0162784 0.0283132 -1.72752e-22)
(-0.0120323 0.0303926 -4.15495e-19)
(-0.00769048 0.033751 2.9241e-19)
(-0.00401311 0.0382371 -2.66798e-19)
(-0.00443088 0.00848501 8.11688e-20)
(-0.0121172 0.0217025 1.55093e-19)
(-0.0191688 0.0315812 2.18534e-19)
(-0.0253388 0.0387432 1.13133e-19)
(-0.0305636 0.0436763 -1.11629e-19)
(-0.0348544 0.0467829 2.67817e-19)
(-0.0382366 0.0484076 1.99237e-19)
(-0.0407463 0.0488407 -7.29021e-20)
(-0.0424256 0.0483254 2.61494e-19)
(-0.0433176 0.0470662 -2.70146e-19)
(-0.0434636 0.0452362 -7.95563e-20)
(-0.0429016 0.0429846 8.10389e-20)
(-0.041666 0.0404433 1.61088e-19)
(-0.0397881 0.0377334 1.94207e-21)
(-0.0372977 0.0349706 1.02593e-19)
(-0.0342247 0.0322713 1.8995e-19)
(-0.0306029 0.0297571 -3.24293e-19)
(-0.0264732 0.0275591 4.04142e-19)
(-0.0218887 0.0258222 1.36667e-19)
(-0.0169212 0.024706 4.83196e-20)
(-0.0116774 0.0243801 -4.93571e-19)
(-0.00630707 0.0250192 6.99835e-20)
(-0.000909106 0.0268439 1.08776e-19)
(0.00456947 0.0301687 -2.61573e-20)
(0.00927516 0.0348774 1.31081e-19)
(-0.00495478 0.00884038 6.33491e-21)
(-0.013393 0.0225493 -3.99477e-19)
(-0.020913 0.0327494 -1.00389e-20)
(-0.0273128 0.0401055 -1.02105e-19)
(-0.0325638 0.0451369 -6.75066e-19)
(-0.0367073 0.0482694 5.86167e-19)
(-0.0397951 0.0498648 -4.19293e-19)
(-0.0418861 0.0502251 -2.12288e-20)
(-0.0430415 0.0496011 -1.9996e-19)
(-0.0433204 0.0482009 3.4721e-19)
(-0.0427769 0.0461984 -3.75216e-19)
(-0.0414594 0.0437413 -1.76329e-19)
(-0.0394103 0.0409579 3.70264e-21)
(-0.0366667 0.0379647 -3.84058e-19)
(-0.0332618 0.0348722 5.25615e-19)
(-0.0292274 0.031792 -6.10709e-19)
(-0.0245967 0.0288434 1.20298e-21)
(-0.0194092 0.0261592 9.40591e-20)
(-0.0137155 0.0238927 -2.35957e-19)
(-0.00758649 0.022222 2.29411e-19)
(-0.00113212 0.0213483 -3.26149e-19)
(0.0054851 0.0214935 -2.15933e-19)
(0.0121443 0.0229502 4.03111e-19)
(0.0188692 0.0261408 -4.40544e-19)
(0.0246867 0.03101 -8.99024e-21)
(-0.00549369 0.00915313 -3.25746e-19)
(-0.0146864 0.0232745 3.8787e-19)
(-0.0226509 0.0337302 -1.20559e-19)
(-0.0292345 0.041228 2.33535e-19)
(-0.0344469 0.0463196 2.53375e-19)
(-0.0383612 0.0494545 -2.24452e-19)
(-0.0410577 0.0510115 -1.49552e-19)
(-0.0426195 0.0513044 -1.79959e-19)
(-0.0431281 0.0505908 1.65516e-19)
(-0.0426597 0.0490822 -1.11183e-20)
(-0.041283 0.0469527 2.43258e-19)
(-0.0390583 0.0443473 2.40654e-19)
(-0.036038 0.0413896 -2.88478e-19)
(-0.0322672 0.0381888 5.68318e-19)
(-0.0277856 0.0348469 -3.78037e-19)
(-0.0226291 0.0314665 -6.50113e-20)
(-0.0168332 0.0281579 7.40495e-19)
(-0.0104377 0.025048 -3.43765e-19)
(-0.00349205 0.0222895 2.1958e-19)
(0.00393476 0.0200703 4.29867e-19)
(0.0117311 0.0186159 -2.79514e-19)
(0.0197244 0.0181936 2.95208e-20)
(0.0277743 0.0191768 -1.93056e-20)
(0.0358781 0.0221238 -1.1526e-19)
(0.0429141 0.0270736 2.28218e-19)
(-0.00604237 0.00941931 7.44383e-20)
(-0.0159797 0.0238676 -2.45738e-19)
(-0.02435 0.034508 1.35275e-19)
(-0.0310546 0.0420916 -1.6878e-21)
(-0.0361441 0.047203 1.03126e-19)
(-0.0397257 0.050316 -1.78441e-19)
(-0.0419094 0.0518265 1.02633e-19)
(-0.0428033 0.0520601 2.80877e-19)
(-0.0425105 0.0512817 -8.59209e-21)
(-0.0411252 0.0497063 -1.44719e-19)
(-0.0387315 0.0475082 1.46051e-19)
(-0.0354035 0.0448301 -3.3978e-21)
(-0.0312055 0.04179 -4.65984e-19)
(-0.0261934 0.0384895 1.73344e-19)
(-0.0204164 0.0350199 3.8405e-20)
(-0.0139187 0.0314709 -6.77844e-20)
(-0.00674265 0.0279383 -1.21285e-19)
(0.00106758 0.0245342 4.65978e-19)
(0.00946036 0.0213997 1.13907e-19)
(0.0183665 0.0187183 -2.44655e-19)
(0.0276736 0.0167257 -2.94748e-20)
(0.0372014 0.0157226 3.38337e-19)
(0.0467954 0.0161623 -1.58309e-19)
(0.0564364 0.0187646 6.81094e-20)
(0.0648291 0.0237026 4.82266e-20)
(-0.00659483 0.00963485 -1.49022e-19)
(-0.0172531 0.0243176 1.53765e-19)
(-0.0259741 0.0350665 -8.72518e-20)
(-0.0327182 0.0426759 -2.8194e-19)
(-0.0375792 0.0477636 -2.61151e-19)
(-0.0407002 0.0508286 -1.162e-19)
(-0.0422218 0.0522843 -9.67753e-20)
(-0.0422781 0.0524684 -2.87608e-19)
(-0.0409939 0.0516535 -1.16728e-19)
(-0.038482 0.0500591 1.06863e-19)
(-0.0348426 0.0478609 -1.53159e-19)
(-0.0301644 0.0452002 -1.62281e-19)
(-0.0245256 0.0421911 -1.52801e-19)
(-0.0179956 0.038928 2.78407e-19)
(-0.0106371 0.035492 -5.86516e-19)
(-0.00250753 0.0319585 3.359e-19)
(0.00633792 0.0284052 -5.76033e-19)
(0.0158435 0.0249222 -8.89981e-20)
(0.0259482 0.021627 -3.17952e-19)
(0.0365772 0.0186813 -7.44352e-20)
(0.0476144 0.0163086 -9.09869e-20)
(0.0588726 0.0148179 -3.04572e-19)
(0.0701901 0.0147243 -3.34341e-20)
(0.0815534 0.0169234 1.87146e-19)
(0.0914802 0.0217616 -5.11104e-19)
(-0.00714441 0.0097958 1.27825e-19)
(-0.0184845 0.0246137 1.73517e-19)
(-0.0274832 0.0353892 6.11973e-19)
(-0.0341643 0.0429598 -1.08139e-19)
(-0.0386679 0.0479772 2.5894e-19)
(-0.0411738 0.0509657 6.20341e-19)
(-0.0418541 0.0523568 -1.69954e-19)
(-0.0408693 0.0525009 2.31139e-19)
(-0.0383655 0.0516793 1.3541e-19)
(-0.0344739 0.050117 2.46454e-19)
(-0.0293111 0.0479931 -4.95336e-20)
(-0.0229808 0.0454496 3.36193e-20)
(-0.0155763 0.0425996 -8.72681e-20)
(-0.00718305 0.0395334 4.73523e-19)
(0.00211924 0.0363247 6.07659e-20)
(0.0122541 0.0330369 4.41718e-19)
(0.0231459 0.02973 -1.13266e-19)
(0.0347176 0.0264695 4.06098e-19)
(0.0468878 0.0233402 5.71273e-20)
(0.0595642 0.0204657 2.07375e-19)
(0.072618 0.0180293 -8.97034e-20)
(0.0858503 0.0163094 -1.60359e-20)
(0.0990972 0.0158398 4.96078e-19)
(0.112388 0.0176794 3.05679e-19)
(0.124071 0.0223731 -1.33703e-19)
(-0.00768389 0.00989853 -3.09694e-19)
(-0.0196494 0.0247455 -3.25781e-19)
(-0.0288329 0.0354606 -3.42928e-19)
(-0.035326 0.0429235 1.26498e-19)
(-0.0393174 0.0478204 -2.55596e-19)
(-0.0410251 0.0507013 -3.82983e-20)
(-0.040653 0.0520163 -1.01484e-19)
(-0.0383872 0.0521287 -4.22894e-19)
(-0.0343952 0.0513296 -6.631e-20)
(-0.0288258 0.0498508 1.09387e-19)
(-0.0218111 0.0478769 -3.44476e-19)
(-0.0134699 0.045554 4.79261e-19)
(-0.00391117 0.0429976 -6.52879e-19)
(0.00676224 0.0402989 1.57664e-19)
(0.0184502 0.0375302 -4.02089e-19)
(0.0310522 0.034749 -3.2716e-19)
(0.0444643 0.0320039 -1.86724e-20)
(0.0585767 0.0293398 -4.96909e-20)
(0.0732726 0.0268091 3.92844e-20)
(0.0884242 0.0244878 -1.8856e-19)
(0.103871 0.0224953 -1.30791e-19)
(0.119387 0.0210316 1.61107e-19)
(0.1348 0.0205769 -4.46478e-19)
(0.150231 0.0222938 1.45421e-19)
(0.163936 0.0269095 1.08606e-19)
(-0.00820549 0.00993998 -5.49202e-20)
(-0.0207213 0.0247039 -9.45594e-20)
(-0.0299746 0.0352666 3.70175e-19)
(-0.0361297 0.0425496 1.38555e-19)
(-0.0394262 0.0472731 1.8448e-19)
(-0.0401214 0.0500135 -2.47787e-19)
(-0.0384512 0.0512392 4.52906e-22)
(-0.0346271 0.051327 -2.02477e-19)
(-0.0288367 0.050578 3.75963e-19)
(-0.0212453 0.0492326 1.23219e-19)
(-0.0119999 0.0474826 1.3874e-19)
(-0.0012334 0.045481 -5.5372e-19)
(0.0109297 0.0433504 6.85217e-19)
(0.0243686 0.0411884 -2.06456e-19)
(0.038961 0.0390733 -1.4817e-19)
(0.0545787 0.0370669 4.4497e-19)
(0.0710829 0.0352178 1.991e-19)
(0.088321 0.0335639 -5.05194e-19)
(0.106125 0.0321377 -2.11466e-19)
(0.124308 0.030975 6.39583e-19)
(0.14265 0.0301241 -4.89863e-19)
(0.160864 0.0296677 2.95203e-19)
(0.178738 0.0299351 1.65436e-19)
(0.196529 0.0320667 -2.13175e-19)
(0.212575 0.0368892 -2.14892e-19)
(-0.00870083 0.00991767 -2.01977e-19)
(-0.0216705 0.0244815 3.25823e-19)
(-0.0308542 0.0347964 1.39756e-19)
(-0.0364936 0.0418247 -2.03153e-19)
(-0.038882 0.046321 -3.27091e-20)
(-0.0383171 0.0488876 -2.15481e-19)
(-0.0350668 0.0500111 -8.62789e-20)
(-0.0293676 0.0500814 9.73342e-20)
(-0.0214264 0.04941 -2.44425e-20)
(-0.0114239 0.0482463 1.85247e-19)
(0.000479132 0.0467906 -1.61534e-19)
(0.0141363 0.0452052 4.48661e-19)
(0.0294085 0.0436228 -5.58051e-19)
(0.0461572 0.0421531 3.49152e-19)
(0.0642379 0.0408877 4.35157e-19)
(0.0834937 0.0399035 -6.30822e-19)
(0.103748 0.039265 -1.92544e-19)
(0.124799 0.0390244 3.25324e-19)
(0.146414 0.0392221 -2.01352e-19)
(0.168325 0.0398863 1.94981e-19)
(0.190216 0.0410241 -4.73684e-19)
(0.211679 0.0426017 7.90177e-20)
(0.23239 0.0447187 3.10311e-19)
(0.252741 0.0483368 -5.00425e-19)
(0.271472 0.0542157 1.4035e-19)
(-0.00916075 0.00982973 -1.86743e-19)
(-0.0224645 0.0240725 6.07654e-19)
(-0.0314116 0.0340424 1.1747e-19)
(-0.0363269 0.0407415 -3.19496e-19)
(-0.0375606 0.0449582 2.3026e-19)
(-0.0354517 0.0473204 1.17603e-19)
(-0.030301 0.048332 1.8873e-19)
(-0.0223695 0.0483953 -1.23798e-20)
(-0.0118829 0.0478316 -1.98171e-20)
(0.000962777 0.0468988 -4.17068e-20)
(0.0159936 0.0458061 -1.82861e-19)
(0.0330499 0.0447254 -6.2141e-21)
(0.0519782 0.0438009 4.30345e-19)
(0.0726231 0.0431566 -7.08157e-19)
(0.0948195 0.0429025 5.05426e-19)
(0.118385 0.0431391 1.02591e-19)
(0.143108 0.0439618 1.81931e-19)
(0.168742 0.0454623 -9.41178e-20)
(0.194989 0.0477303 8.36871e-19)
(0.221486 0.0508521 -5.19805e-19)
(0.247776 0.0548884 4.16857e-19)
(0.27324 0.0598106 9.85157e-20)
(0.297249 0.0656129 -3.07126e-19)
(0.320125 0.0731565 2.60799e-19)
(0.341388 0.0827528 4.19724e-19)
(-0.00957504 0.00967476 -5.42373e-20)
(-0.0230666 0.0234733 -2.1424e-19)
(-0.0315794 0.0330016 -3.68681e-19)
(-0.0355282 0.0392999 -2.11426e-19)
(-0.0353237 0.0431897 -2.97449e-20)
(-0.0313484 0.0453235 -8.44322e-20)
(-0.0239364 0.0462213 -3.93439e-19)
(-0.0133742 0.0462962 6.55324e-20)
(9.32096e-05 0.045878 -4.46174e-19)
(0.0162534 0.0452317 -3.47614e-20)
(0.0349178 0.0445736 -4.31368e-19)
(0.0559117 0.0440832 -1.54202e-19)
(0.0790658 0.0439141 8.8813e-20)
(0.104208 0.0442024 -4.24139e-19)
(0.131154 0.0450742 3.84983e-21)
(0.159703 0.0466534 -3.67669e-19)
(0.189626 0.0490691 1.42392e-19)
(0.220657 0.0524652 -5.1644e-19)
(0.252481 0.0570119 -8.88172e-20)
(0.284706 0.06292 -1.23945e-20)
(0.316815 0.0704402 -8.80835e-20)
(0.348043 0.0798323 -9.05246e-20)
(0.377385 0.0915529 -4.53601e-20)
(0.404276 0.107041 -1.8247e-19)
(0.427328 0.125327 -4.0419e-19)
(-0.0099321 0.00945176 9.91098e-20)
(-0.0234351 0.0226823 2.71551e-19)
(-0.0312813 0.0316757 3.2864e-19)
(-0.0339839 0.0375081 -2.64284e-19)
(-0.032018 0.041033 4.93378e-19)
(-0.0258124 0.042926 -2.69324e-19)
(-0.0157364 0.0437211 1.47034e-19)
(-0.00210393 0.0438407 2.30328e-19)
(0.0148178 0.0436205 2.10488e-19)
(0.0347965 0.0433298 1.0279e-19)
(0.057624 0.0431885 1.66755e-19)
(0.0831051 0.0433791 9.7325e-20)
(0.111048 0.0440582 6.60056e-19)
(0.141259 0.0453649 -4.81276e-19)
(0.173531 0.0474298 5.51301e-19)
(0.207648 0.050383 -2.29816e-19)
(0.243375 0.0543651 4.97605e-19)
(0.280464 0.0595406 -2.36174e-20)
(0.318658 0.0661188 -1.03604e-19)
(0.357698 0.0743853 -1.91286e-20)
(0.397332 0.0847418 3.95968e-19)
(0.437359 0.097812 -3.89173e-19)
(0.477942 0.114885 2.73375e-19)
(0.519736 0.137907 3.04778e-19)
(0.559089 0.161071 6.47395e-20)
(-0.0102182 0.00915969 6.85748e-20)
(-0.0235225 0.0216995 -3.88363e-19)
(-0.0304316 0.0300712 -1.42012e-19)
(-0.031567 0.0353835 1.30549e-19)
(-0.027474 0.0385195 -4.04464e-19)
(-0.0186309 0.0401762 -8.0209e-20)
(-0.00544607 0.0408994 5.59202e-20)
(0.0117352 0.0411178 2.21972e-19)
(0.0326178 0.04117 -5.64478e-19)
(0.0569421 0.0413261 4.30997e-20)
(0.0844705 0.0418039 -1.66375e-19)
(0.114975 0.0427824 -5.07439e-19)
(0.14823 0.0444114 3.46942e-19)
(0.184 0.0468203 1.49005e-20)
(0.222042 0.0501251 -1.0471e-20)
(0.262103 0.0544356 3.53112e-19)
(0.303925 0.0598628 -6.26225e-19)
(0.347252 0.066527 4.97306e-19)
(0.391846 0.0745679 -9.21566e-20)
(0.437515 0.0841561 2.92075e-19)
(0.484141 0.0954979 -4.81857e-19)
(0.531741 0.108865 2.77504e-19)
(0.580733 0.124808 -4.99441e-19)
(0.63199 0.143932 5.17869e-19)
(0.680482 0.160298 -1.64222e-19)
(-0.0104171 0.00879746 4.60944e-19)
(-0.0232741 0.0205267 -7.7975e-20)
(-0.0289335 0.0282 5.78547e-19)
(-0.0281369 0.032953 2.6952e-19)
(-0.0215064 0.0356952 2.1756e-20)
(-0.00957503 0.0371426 1.18995e-19)
(0.00720426 0.03785 2.8875e-20)
(0.0284475 0.0382489 4.89555e-19)
(0.0538219 0.0386772 1.58369e-19)
(0.0830281 0.0394003 -2.13344e-20)
(0.115783 0.0406283 4.29054e-20)
(0.151809 0.0425279 1.65735e-19)
(0.190819 0.0452321 1.38793e-19)
(0.232517 0.0488468 2.97929e-19)
(0.276593 0.0534574 -3.40504e-19)
(0.322727 0.0591324 1.03156e-19)
(0.370594 0.0659281 3.1378e-20)
(0.419879 0.073891 1.53577e-19)
(0.470295 0.0830594 4.17565e-19)
(0.521599 0.0934604 -2.72925e-19)
(0.57362 0.105099 2.34971e-20)
(0.626282 0.117944 -3.89287e-19)
(0.67972 0.132046 3.69721e-19)
(0.734343 0.14767 -3.59901e-19)
(0.785232 0.161079 3.45291e-20)
(-0.0105093 0.00836398 -3.84483e-19)
(-0.0226274 0.019168 3.05056e-19)
(-0.0266792 0.0260795 -4.99947e-19)
(-0.0235397 0.0302532 4.33955e-20)
(-0.0139161 0.0326206 3.56117e-19)
(0.00159652 0.0339134 -5.96459e-19)
(0.0224921 0.0346916 4.75518e-19)
(0.0483366 0.0353856 -7.57961e-19)
(0.0787452 0.0363271 1.51712e-19)
(0.11336 0.0377714 3.25618e-20)
(0.151831 0.0399127 2.57823e-19)
(0.193801 0.0428967 -8.59829e-19)
(0.2389 0.0468283 1.48992e-19)
(0.286735 0.0517778 1.58325e-19)
(0.336897 0.0577861 -9.5235e-20)
(0.388962 0.0648674 -5.92492e-19)
(0.442507 0.0730115 2.79734e-19)
(0.497114 0.0821846 5.25161e-19)
(0.552396 0.0923277 -5.55882e-19)
(0.608007 0.103352 4.0442e-19)
(0.663658 0.115125 -5.26387e-19)
(0.71912 0.127459 3.83611e-19)
(0.774255 0.140181 -1.07354e-19)
(0.829115 0.153509 6.15091e-19)
(0.879611 0.165578 -7.14678e-19)
(-0.010472 0.00785829 5.50132e-20)
(-0.0215122 0.0176294 4.50224e-20)
(-0.0235504 0.0237329 1.11031e-19)
(-0.0176102 0.0273309 3.98861e-19)
(-0.00449403 0.0293707 -1.2566e-20)
(0.015131 0.0305954 9.01429e-20)
(0.0406929 0.0315655 4.03277e-19)
(0.0716914 0.0327047 1.63494e-19)
(0.107669 0.0343324 -5.41e-20)
(0.148183 0.0366855 4.62474e-19)
(0.192789 0.0399337 -5.28658e-19)
(0.241021 0.0441905 8.14122e-19)
(0.292387 0.0495211 -3.24163e-19)
(0.346368 0.0559483 5.90268e-19)
(0.402423 0.0634573 -1.99934e-19)
(0.459999 0.0719987 7.31465e-20)
(0.518543 0.0814916 8.88898e-20)
(0.577521 0.0918254 -1.72451e-19)
(0.636431 0.102859 1.44694e-19)
(0.694821 0.114421 9.33435e-20)
(0.752294 0.126299 1.29364e-19)
(0.808508 0.138238 2.75825e-19)
(0.863173 0.149984 -2.30361e-20)
(0.91617 0.161714 -1.26828e-19)
(0.964527 0.172988 3.90297e-19)
(-0.0102786 0.00727983 -3.21701e-19)
(-0.0198502 0.0159204 3.53079e-20)
(-0.0194191 0.02119 -6.38942e-19)
(-0.0101743 0.024243 -1.5357e-19)
(0.00697404 0.0260344 -2.89206e-19)
(0.0312729 0.0273127 -6.23651e-20)
(0.062067 0.0286324 -3.13002e-19)
(0.0987672 0.0304033 -1.87933e-19)
(0.140816 0.032924 2.49953e-19)
(0.187655 0.0364029 -4.18948e-19)
(0.238709 0.0409736 -1.1683e-19)
(0.293368 0.0467048 4.63562e-21)
(0.350985 0.0536093 -7.95473e-19)
(0.410883 0.0616503 3.39333e-19)
(0.472367 0.0707472 -4.97076e-19)
(0.534737 0.0807812 -1.55862e-20)
(0.597308 0.091601 9.885e-20)
(0.659431 0.103026 -1.60657e-19)
(0.720513 0.114853 -1.41318e-19)
(0.780024 0.126854 7.11059e-20)
(0.837513 0.138783 7.99674e-20)
(0.892598 0.150371 -5.18839e-19)
(0.944956 0.161351 2.96652e-19)
(0.994429 0.171859 1.51141e-19)
(1.03912 0.182441 4.31748e-20)
(-0.009899 0.00662903 3.29157e-19)
(-0.0175558 0.0140544 -3.64476e-19)
(-0.0141499 0.0184884 5.14738e-19)
(-0.00105342 0.0210579 8.05844e-20)
(0.0207003 0.0227147 -2.48542e-20)
(0.0502537 0.0242053 -1.76094e-19)
(0.0868447 0.0260692 2.66248e-20)
(0.129766 0.0286926 2.70418e-19)
(0.178325 0.0323418 -3.74724e-19)
(0.231812 0.037184 3.95202e-19)
(0.28948 0.0433019 -4.19073e-20)
(0.350539 0.0507054 1.8509e-20)
(0.414158 0.0593405 5.19861e-19)
(0.47948 0.0690988 6.99307e-19)
(0.545644 0.0798261 -2.74445e-19)
(0.611806 0.0913313 4.89641e-19)
(0.677167 0.103396 2.50016e-19)
(0.740997 0.115782 -1.53036e-19)
(0.802652 0.128239 4.87944e-19)
(0.861588 0.140514 -1.80036e-20)
(0.917369 0.152353 -4.72836e-19)
(0.969657 0.163506 5.01566e-19)
(1.0182 0.173738 7.34195e-20)
(1.06289 0.18315 -3.14167e-19)
(1.10275 0.192909 9.94277e-20)
(-0.00929966 0.0059079 -4.58064e-19)
(-0.0145377 0.0120502 4.9687e-19)
(-0.00760283 0.0156746 -3.17515e-19)
(0.0099307 0.0178557 -9.97478e-20)
(0.0368869 0.0195289 -2.24536e-19)
(0.0722799 0.0214276 3.99265e-19)
(0.11521 0.0240655 -2.32954e-19)
(0.164816 0.0277915 -1.07257e-19)
(0.220229 0.032825 -3.0842e-19)
(0.280545 0.0392756 8.00464e-21)
(0.344808 0.0471585 -1.2165e-19)
(0.412014 0.0564076 5.94822e-20)
(0.481127 0.0668884 -6.28205e-19)
(0.551102 0.0784104 1.79574e-19)
(0.620922 0.0907406 -2.17714e-19)
(0.689624 0.103617 -1.76292e-19)
(0.756339 0.116763 5.45364e-20)
(0.820307 0.129897 -2.59443e-19)
(0.880903 0.142745 -1.1252e-19)
(0.937641 0.155049 3.2355e-19)
(0.990175 0.166577 1.38451e-19)
(1.03829 0.177119 -5.89029e-19)
(1.08187 0.186493 4.35599e-19)
(1.12097 0.194799 -8.27268e-20)
(1.15526 0.203511 -1.73711e-19)
(-0.00844423 0.00512075 -1.67031e-19)
(-0.0107003 0.00993354 -9.27445e-20)
(0.000363272 0.0128053 -1.86696e-20)
(0.0229498 0.0147297 1.37453e-19)
(0.0557171 0.016608 1.504e-19)
(0.0975205 0.0191473 1.31673e-19)
(0.147285 0.0228197 1.64605e-19)
(0.203952 0.0279203 2.52435e-19)
(0.266431 0.0346026 3.87518e-19)
(0.33358 0.042899 3.84977e-19)
(0.4042 0.0527378 2.04084e-19)
(0.47705 0.0639604 -5.49982e-20)
(0.550882 0.0763386 1.3799e-20)
(0.624477 0.0895931 -1.90414e-20)
(0.696694 0.103412 1.63901e-19)
(0.766504 0.117471 -4.42859e-20)
(0.833025 0.131448 4.90808e-19)
(0.895546 0.14504 -2.20092e-19)