/*--------------------------------*- C++ -*----------------------------------*\
  =========                 |
  \\      /  F ield         | OpenFOAM: The Open Source CFD Toolbox
   \\    /   O peration     | Website:  https://openfoam.org
    \\  /    A nd           | Version:  6.0
     \\/     M anipulation  |
\*---------------------------------------------------------------------------*/
FoamFile
{
    version     2.0;
    format      ascii;
    class       surfaceScalarField;
    location    "90";
    object      phi;
}
// * * * * * * * * * * * * * * * * * * * * * * * * * * * * * * * * * * * * * //

dimensions      [0 3 -1 0 0 0 0];

internalField   nonuniform List<scalar> 
15760
(
9.41234e-07
0.000121739
-0.00012268
1.10681e-06
0.00031399
-0.000314155
-8.70084e-07
0.000463825
-0.000461848
-5.38589e-06
0.000577182
-0.000572666
-1.21448e-05
0.000660108
-0.00065335
-2.04179e-05
0.000718673
-0.0007104
-2.92815e-05
0.000758425
-0.000749561
-3.78055e-05
0.000784036
-0.000775512
-4.51818e-05
0.000799173
-0.000791797
-5.07969e-05
0.000806539
-0.000800924
-5.42573e-05
0.000808019
-0.000804558
-5.53806e-05
0.000804864
-0.000803741
-5.41636e-05
0.000797879
-0.000799096
-5.07377e-05
0.000787564
-0.00079099
-4.53197e-05
0.000774227
-0.000779645
-3.81631e-05
0.000758049
-0.000765206
-2.95131e-05
0.000739127
-0.000747777
-1.95697e-05
0.000717477
-0.00072742
-8.46099e-06
0.000692955
-0.000704064
0.000665228
-0.000677504
3.81493e-06
2.50271e-06
0.000119236
6.42171e-06
0.000310071
9.68696e-06
0.00046056
1.13364e-05
0.000575533
1.12212e-05
0.000660224
9.74018e-06
0.000720154
7.59105e-06
0.000760574
5.5676e-06
0.000786059
4.41526e-06
0.000800326
4.74436e-06
0.00080621
6.99178e-06
0.000805771
1.14191e-05
0.000800437
1.8134e-05
0.000791164
2.71248e-05
0.000778573
3.82984e-05
0.000763053
5.15171e-05
0.00074483
6.6633e-05
0.000724011
8.35158e-05
0.000700594
0.000102074
0.000674397
0.000644991
0.000122311
3.85424e-06
0.000115382
1.11441e-05
0.000302781
1.9248e-05
0.000452456
2.67242e-05
0.000568056
3.30186e-05
0.000653929
3.82106e-05
0.000714962
4.27681e-05
0.000756016
4.734e-05
0.000781488
5.26017e-05
0.000795064
5.91566e-05
0.000799655
6.74842e-05
0.000797444
7.79264e-05
0.000789995
9.06961e-05
0.000778394
0.000105901
0.000763368
0.000123568
0.000745386
0.000143671
0.000724727
0.000166153
0.000701529
0.000190945
0.000675803
0.000217975
0.000647367
0.000615736
0.00024723
4.97841e-06
0.000110403
1.52005e-05
0.000292559
2.76542e-05
0.000440002
4.05189e-05
0.000555192
5.28902e-05
0.000641558
6.45512e-05
0.000703301
7.57429e-05
0.000744824
8.69619e-05
0.000770268
9.88032e-05
0.000783223
0.000111852
0.000786607
0.00012662
0.000782676
0.00014352
0.000773095
0.000162862
0.000759052
0.000184863
0.000741366
0.000209666
0.000720583
0.000237347
0.000697046
0.000267934
0.000670942
0.000301414
0.000642323
0.00033773
0.000611051
0.000576641
0.000376825
5.8642e-06
0.000104539
1.85357e-05
0.000279887
3.47756e-05
0.000423762
5.24955e-05
0.000537472
7.05092e-05
0.000623544
8.8338e-05
0.000685472
0.000106007
0.000727156
0.000123856
0.000752419
0.000142387
0.000764691
0.000162152
0.000766843
0.000183676
0.000761151
0.000207428
0.000749343
0.000233797
0.000732683
0.000263096
0.000712067
0.000295567
0.000688112
0.000331384
0.00066123
0.000370653
0.000631673
0.000413413
0.000599563
0.000459617
0.000564847
0.000527115
0.000509143
6.50568e-06
9.80334e-05
2.11093e-05
0.000265284
4.05058e-05
0.000404365
6.24561e-05
0.000515522
8.55709e-05
0.000600429
0.000109155
0.000661888
0.000133035
0.000703275
0.000157398
0.000728057
0.000182641
0.000739449
0.000209261
0.000740222
0.000237782
0.00073263
0.000268699
0.000718425
0.000302463
0.00069892
0.000339461
0.000675069
0.000380019
0.000647554
0.000424397
0.000616852
0.000472773
0.000583296
0.000525237
0.000547099
0.000581746
0.000508338
0.000466768
0.000642093
6.90009e-06
9.11333e-05
2.28923e-05
0.000249291
4.47583e-05
0.000382499
7.02269e-05
0.000490053
9.77904e-05
0.000572866
0.000126591
0.000633088
0.000156286
0.000673579
0.000186915
0.000697428
0.000218763
0.000707601
0.000252258
0.000706727
0.000287893
0.000696995
0.000326173
0.000680146
0.000367579
0.000657514
0.000412555
0.000630093
0.000461493
0.000598616
0.000514722
0.000563623
0.000572492
0.000525526
0.000634941
0.00048465
0.00070203
0.000441249
0.000395356
0.000773441
7.04766e-06
8.40856e-05
2.38667e-05
0.000232472
4.74679e-05
0.000358898
7.56625e-05
0.000461858
0.000106912
0.000541617
0.000140256
0.000599744
0.00017522
0.000638615
0.000211706
0.000660941
0.000249888
0.00066942
0.00029011
0.000666505
0.000332817
0.000654288
0.000378493
0.00063447
0.00042763
0.000608376
0.000480704
0.00057702
0.000538155
0.000541165
0.000600376
0.000501402
0.000667686
0.000458217
0.000740278
0.000412057
0.000818122
0.000363405
0.000312713
0.000900765
6.95103e-06
7.71346e-05
2.40264e-05
0.000215397
4.85948e-05
0.00033433
7.86566e-05
0.000431797
0.000112728
0.000507545
0.00014981
0.000562662
0.000189335
0.00059909
0.000231094
0.000619183
0.000275148
0.000625366
0.000321752
0.000619901
0.000371282
0.000604758
0.000424185
0.000581566
0.000480941
0.000551621
0.000542037
0.000515924
0.000607951
0.000475251
0.000679135
0.000430217
0.000755985
0.000381368
0.000838771
0.000329271
0.000927495
0.000274682
0.000218671
0.00102154
6.61578e-06
7.05188e-05
2.33803e-05
0.000198632
4.81338e-05
0.000309576
7.91611e-05
0.000400769
0.000115113
0.000471593
0.000155014
0.000522762
0.000198248
0.000555856
0.000244518
0.000572912
0.00029379
0.000576094
0.000346223
0.000567468
0.000402118
0.000548863
0.000461868
0.000521816
0.000525924
0.000487565
0.000594773
0.000447075
0.000668925
0.000401099
0.000748894
0.000350248
0.000835172
0.00029509
0.000928145
0.000236297
0.00102789
0.000174938
0.00011296
0.0011336
6.05197e-06
6.44668e-05
2.19588e-05
0.000182726
4.61298e-05
0.000285405
7.72149e-05
0.000369684
0.000114069
0.000434739
0.000155798
0.000481032
0.000201785
0.000509869
0.000251678
0.000523019
0.000305362
0.00052241
0.000362913
0.000509916
0.000424556
0.00048722
0.000490625
0.000455747
0.000561537
0.000416653
0.000637775
0.000370837
0.000719881
0.000318993
0.000808443
0.000261685
0.000904071
0.000199462
0.00100731
0.000133061
0.00111836
6.38909e-05
-4.9009e-06
0.00123622
5.27718e-06
5.91896e-05
1.98236e-05
0.000168179
4.26984e-05
0.000262531
7.29806e-05
0.000339402
0.000109787
0.000397932
0.00015236
0.00043846
0.000200125
0.000462104
0.000252715
0.000470429
0.000309965
0.00046516
0.000371889
0.000447993
0.00043865
0.000420458
0.000510538
0.00038386
0.000587945
0.000339246
0.000671359
0.000287423
0.000761359
0.000228993
0.000858612
0.000164432
0.000963851
9.42227e-05
0.00107779
1.91252e-05
0.00120078
-5.91005e-05
-0.000135745
0.00133162
4.3207e-06
5.48689e-05
1.7081e-05
0.000155419
3.80518e-05
0.00024156
6.67887e-05
0.000310665
0.000102718
0.000362003
0.000145265
0.000395913
0.000193948
0.000413422
0.000248429
0.000415947
0.00030854
0.00040505
0.000374271
0.000382261
0.000445765
0.000348965
0.000523297
0.000306328
0.000607264
0.000255279
0.000698176
0.000196511
0.000796652
0.000130517
0.000903417
5.76667e-05
0.00101928
-2.16447e-05
0.00114506
-0.000106655
0.00128122
-0.000195256
-0.000280843
0.00142632
3.22835e-06
5.16406e-05
1.38946e-05
0.000144753
3.25231e-05
0.000222931
5.91781e-05
0.00028401
9.3633e-05
0.000327548
0.000135542
0.000354003
0.00018457
0.000364394
0.000240468
0.000360048
0.000303123
0.000342395
0.000372567
0.000312818
0.000448977
0.000272554
0.00053267
0.000222635
0.000624084
0.000163865
0.000723765
9.68302e-05
0.000832351
2.19312e-05
0.000950556
-6.05386e-05
0.00107914
-0.00015023
0.00121884
-0.000246349
0.00137002
-0.000346442
-0.000441807
0.00153099
2.0663e-06
4.95743e-05
1.04943e-05
0.000136325
2.65815e-05
0.000206844
5.09198e-05
0.000259672
8.36618e-05
0.000294806
0.000124739
0.000312926
0.000174021
0.000315112
0.000231421
0.000302648
0.000296958
0.000276858
0.00037078
0.000238996
0.000453171
0.000190162
0.00054454
0.000131266
0.000645391
6.30142e-05
0.00075629
-1.40682e-05
0.000877818
-9.95977e-05
0.00101053
-0.000193253
0.00115492
-0.000294614
0.00131132
-0.000402755
0.00147975
-0.000514872
-0.000620203
0.00165815
9.21531e-07
4.86527e-05
7.17475e-06
0.000130071
2.0826e-05
0.000193193
4.30034e-05
0.000237494
7.4269e-05
0.000263541
0.000114881
0.000272314
0.000164983
0.00026501
0.000224726
0.000242905
0.000294339
0.000207245
0.00037416
0.000159175
0.000464631
9.96914e-05
0.000566271
2.96262e-05
0.000679623
-5.03373e-05
0.000805185
-0.000139631
0.000943334
-0.000237747
0.00109424
-0.000344161
0.00125782
-0.000458197
0.00143371
-0.000578644
0.00162121
-0.000702363
-0.000816818
0.00181782
-1.03092e-07
4.87558e-05
4.27756e-06
0.000125691
1.59469e-05
0.000181523
3.65704e-05
0.000216871
6.71478e-05
0.000232963
0.000108315
0.000231146
0.000160554
0.000212772
0.000224318
0.00017914
0.00030011
0.000131454
0.000388487
7.07982e-05
0.000490046
-1.86751e-06
0.000605359
-8.56874e-05
0.000734893
-0.000179871
0.000878902
-0.00028364
0.00103732
-0.000396168
0.00120968
-0.000516517
0.00139503
-0.000643545
0.001592
-0.000775616
0.00179894
-0.000909303
-0.00103072
0.00201284
-8.99947e-07
4.96558e-05
2.15524e-06
0.000122636
1.26538e-05
0.000171025
3.2791e-05
0.000196734
6.40276e-05
0.000201727
0.000107418
0.000187756
0.000163826
0.000156364
0.000234046
0.00010892
0.000318854
4.66459e-05
0.000418995
-2.93425e-05
0.000535124
-0.000117996
0.000667712
-0.000218275
0.000816932
-0.000329092
0.000982537
-0.000449245
0.00116375
-0.000577377
0.00135917
-0.000711939
0.00156679
-0.000851165
0.00178411
-0.000992936
0.00200849
-0.00113369
-0.00125858
0.00223636
-1.3725e-06
5.10283e-05
1.123e-06
0.00012014
1.15797e-05
0.000160568
3.27037e-05
0.00017561
6.64255e-05
0.000168005
0.000114235
0.000139946
0.000177384
9.32156e-05
0.00025698
2.93228e-05
0.000354006
-5.03792e-05
0.000469258
-0.000144595
0.00060326
-0.000251998
0.000756137
-0.000371153
0.000927492
-0.000500447
0.0011163
-0.000638049
0.00132081
-0.000781889
0.00153854
-0.000929668
0.00176628
-0.00107891
0.00200035
-0.00122701
0.00223724
-0.00137058
-0.00149459
0.00247326
-1.4517e-06
5.248e-05
1.40962e-06
0.000117279
1.31853e-05
0.000148793
3.70569e-05
0.000151738
7.54084e-05
0.000129653
0.000130142
8.52129e-05
0.000202844
2.05137e-05
0.000294837
-6.26703e-05
0.000407144
-0.000162687
0.000540397
-0.000277847
0.00069471
-0.000406312
0.000869565
-0.000546007
0.00106371
-0.000694594
0.00127513
-0.000849463
0.00150101
-0.00100778
0.00173788
-0.00116653
0.00198161
-0.00132263
0.00222746
-0.00147286
0.00246991
-0.00161304
-0.00172704
0.00270236
-1.10859e-06
5.35886e-05
3.1218e-06
0.000113048
1.76918e-05
0.000134222
4.62021e-05
0.000123228
9.1439e-05
8.44166e-05
0.000155642
2.10096e-05
0.000240613
-6.44575e-05
0.000347708
-0.000169765
0.00047775
-0.000292728
0.000630904
-0.000431001
0.000806557
-0.000581965
0.00100324
-0.000742686
0.00121859
-0.000909945
0.00144944
-0.00108032
0.00169198
-0.00125032
0.00194196
-0.00141652
0.00219505
-0.00157572
0.00244728
-0.00172509
0.0026964
-0.00186216
-0.00197936
0.00294873
-3.53587e-07
5.39422e-05
6.24161e-06
0.000106453
2.50726e-05
0.000115391
6.00799e-05
8.82205e-05
0.000114362
3.01346e-05
0.000190366
-5.49949e-05
0.000289924
-0.000164015
0.000414172
-0.000294014
0.000563429
-0.000441986
0.000737064
-0.000604635
0.000933408
-0.000778309
0.00114976
-0.00095904
0.00138249
-0.00114267
0.00162723
-0.00132506
0.00187916
-0.00150225
0.00213337
-0.00167072
0.00238516
-0.00182752
0.00263049
-0.00197041
0.00286643
-0.0020981
-0.00220671
0.00309377
7.66752e-07
5.31754e-05
1.06415e-05
9.65785e-05
3.5088e-05
9.09449e-05
7.8285e-05
4.50235e-05
0.000143513
-3.5093e-05
0.000233245
-0.000144727
0.000349096
-0.000279865
0.000491683
-0.0004366
0.000660481
-0.000610784
0.000853728
-0.000797883
0.00106843
-0.000993013
0.0013005
-0.00119111
0.00154502
-0.00138719
0.00179655
-0.00157659
0.00204959
-0.00175529
0.00229891
-0.00192004
0.00253993
-0.00206853
0.00276892
-0.0021994
0.00298308
-0.00231226
-0.00240576
0.00318213
2.1886e-06
5.09868e-05
1.61335e-05
8.26336e-05
4.73731e-05
5.97053e-05
0.000100202
-7.80576e-06
0.000177915
-0.000112806
0.000282782
-0.000249594
0.000415905
-0.000412988
0.000577043
-0.000597738
0.000764487
-0.000798228
0.000975062
-0.00100846
0.00120428
-0.00122223
0.00144668
-0.00143351
0.00169621
-0.00163672
0.00194678
-0.00182716
0.00219267
-0.00200118
0.00242893
-0.00215631
0.00265168
-0.00229128
0.00285815
-0.00240587
0.00304674
-0.00250085
-0.00257694
0.00321793
3.8478e-06
4.7139e-05
2.25184e-05
6.39631e-05
6.15284e-05
2.06953e-05
0.000125147
-7.14239e-05
0.000216476
-0.000204135
0.000337306
-0.000370424
0.000487893
-0.000563575
0.000666783
-0.000776629
0.00087078
-0.00100222
0.0010951
-0.00123278
0.00133378
-0.00146091
0.00158015
-0.00167987
0.00182747
-0.00188405
0.00206952
-0.0020692
0.00230097
-0.00223263
0.00251776
-0.0023731
0.00271718
-0.00249069
0.00289784
-0.00258653
0.00305951
-0.00266252
-0.0027208
0.00320336
5.69397e-06
4.1445e-05
2.96251e-05
4.00319e-05
7.71895e-05
-2.68691e-05
0.000152462
-0.000146697
0.00025811
-0.000309783
0.000395121
-0.000507435
0.000562545
-0.000730999
0.000757383
-0.000971467
0.000974721
-0.00121956
0.00120815
-0.00146621
0.00145039
-0.00170315
0.00169403
-0.00192351
0.00193221
-0.00212223
0.00215917
-0.00229617
0.00237061
-0.00244407
0.00256377
-0.00256626
0.00273742
-0.00266434
0.0028916
-0.00274071
0.00302738
-0.0027983
-0.00284011
0.00314669
7.69706e-06
3.3748e-05
3.73292e-05
1.03997e-05
9.4057e-05
-8.35968e-05
0.000181562
-0.000234201
0.000301783
-0.000430004
0.000454552
-0.000660204
0.00063735
-0.000913798
0.000845361
-0.00117948
0.00107188
-0.00144608
0.00130903
-0.00170336
0.00154866
-0.00194278
0.00178317
-0.00215803
0.00200624
-0.0023453
0.00221319
-0.00250311
0.00240112
-0.002632
0.00256885
-0.002734
0.00271661
-0.00281209
0.00284568
-0.00286979
0.00295809
-0.00291071
-0.00293828
0.00305626
9.84557e-06
2.39024e-05
4.5548e-05
-2.53027e-05
0.000111885
-0.000149934
0.000211902
-0.000334218
0.000346477
-0.000564579
0.000513908
-0.000827635
0.000709789
-0.00110968
0.000927344
-0.00139703
0.00115819
-0.00167693
0.00139339
-0.00193856
0.00162449
-0.00217388
0.00184441
-0.00237794
0.00204792
-0.00254881
0.00223185
-0.00268704
0.00239493
-0.00279509
0.00253749
-0.00287655
0.002661
-0.0029356
0.00276766
-0.00297646
0.00286006
-0.0030031
-0.00301904
0.00294082
1.21388e-05
1.17636e-05
5.42197e-05
-6.73836e-05
0.000130445
-0.00022616
0.000242931
-0.000446703
0.000391127
-0.000712776
0.000571439
-0.00100795
0.000777356
-0.0013156
0.00100018
-0.00161986
0.0012302
-0.00190695
0.00145798
-0.00216634
0.00167546
-0.00239136
0.00187666
-0.00257915
0.00205792
-0.00273006
0.00221774
-0.00284686
0.00235643
-0.00293378
0.00247557
-0.0029957
0.00257755
-0.00303758
0.00266508
-0.00306399
0.00274092
-0.00307894
-0.00308577
0.00280765
1.45771e-05
-2.81354e-06
6.32766e-05
-0.000116083
0.000149478
-0.000312361
0.000274031
-0.000571256
0.000434579
-0.000873323
0.000625341
-0.00119871
0.000837641
-0.0015279
0.00106112
-0.00184333
0.00128527
-0.0021311
0.00150084
-0.00238191
0.00170081
-0.00259133
0.00188076
-0.00275909
0.00203877
-0.00288807
0.00217498
-0.00298308
0.00229102
-0.00304981
0.00238938
-0.00309406
0.00247296
-0.00312115
0.00254464
-0.00313567
0.00260709
-0.00314138
-0.00314132
0.00266263
1.71532e-05
-1.99668e-05
7.26234e-05
-0.000171553
0.000168666
-0.000408404
0.000304493
-0.000707084
0.000475591
-0.00104442
0.00067382
-0.00139694
0.000888479
-0.00174255
0.00110801
-0.00206286
0.00132177
-0.00234486
0.00152138
-0.00258152
0.00170132
-0.00277128
0.00185899
-0.00291676
0.00199416
-0.00302325
0.00210839
-0.0030973
0.00220425
-0.00314567
0.00228478
-0.0031746
0.00235304
-0.00318941
0.00241181
-0.00319444
0.00246349
-0.00319307
-0.00318789
0.00251007
1.98469e-05
-3.98136e-05
8.21241e-05
-0.00023383
0.000187615
-0.000513894
0.000333519
-0.000852987
0.000512885
-0.00122379
0.00071521
-0.00159926
0.000928111
-0.00195546
0.00113945
-0.0022742
0.00133915
-0.00254455
0.00152022
-0.00276259
0.00167897
-0.00293003
0.00181459
-0.00305237
0.00192835
-0.00313701
0.00202285
-0.0031918
0.00210127
-0.00322409
0.00216683
-0.00324016
0.00222249
-0.00324507
0.00227078
-0.00324273
0.00231375
-0.00323603
-0.00322714
0.002353
2.26235e-05
-6.24371e-05
9.1601e-05
-0.000302808
0.000205869
-0.000628162
0.000360262
-0.00100738
0.000545235
-0.00140876
0.000748103
-0.00180213
0.000955326
-0.00216268
0.00115487
-0.00247375
0.00133783
-0.00272751
0.00149897
-0.00292374
0.00163651
-0.00306756
0.00175122
-0.00316709
0.00184558
-0.00323137
0.00192285
-0.00326908
0.00198647
-0.0032877
0.00203959
-0.00329328
0.00208491
-0.0032904
0.00212462
-0.00328244
0.00216038
-0.00327179
-0.00326021
0.00219345
2.54352e-05
-8.78723e-05
0.000100842
-0.000378215
0.000222931
-0.000750251
0.000383886
-0.00116834
0.000571562
-0.00159644
0.000771461
-0.00200203
0.000969525
-0.00236074
0.00115448
-0.00265871
0.00131904
-0.00289207
0.00145991
-0.00306461
0.00157704
-0.0031847
0.00167257
-0.00326262
0.00174977
-0.00330857
0.00181225
-0.00333156
0.00186342
-0.00333887
0.0019062
-0.00333606
0.00194295
-0.00332715
0.00197547
-0.00331495
0.00200508
-0.00330141
-0.00328789
0.00203276
2.82236e-05
-0.000116096
0.000109614
-0.000459605
0.000238297
-0.000878935
0.000403627
-0.00133367
0.000591018
-0.00178383
0.000784682
-0.00219569
0.00097071
-0.00254677
0.00113914
-0.00282714
0.00128458
-0.0030375
0.00140562
-0.00318564
0.00150373
-0.00328282
0.00158205
-0.00334093
0.00164431
-0.00337083
0.00169419
-0.00338143
0.00173488
-0.00337956
0.00176898
-0.00337016
0.00179846
-0.00335663
0.00182479
-0.00334128
0.00184898
-0.0033256
-0.00331067
0.00187176
3.09238e-05
-0.00014702
0.000117673
-0.000546355
0.000251493
-0.00101275
0.000418846
-0.00150102
0.000603039
-0.00196802
0.000787606
-0.00238026
0.00095941
-0.00271857
0.0011102
-0.00297792
0.00123654
-0.00316384
0.00133876
-0.00328786
0.00141954
-0.0033636
0.00148265
-0.00340404
0.001532
-0.00342019
0.00157113
-0.00342056
0.00160293
-0.00341136
0.0016296
-0.00339683
0.00165276
-0.00337979
0.00167355
-0.00336207
0.00169278
-0.00334483
-0.00332886
0.00171097
3.34673e-05
-0.000180487
0.000124787
-0.000637675
0.000262101
-0.00115007
0.000429073
-0.00166799
0.000607366
-0.00214631
0.000780477
-0.00255337
0.000936558
-0.00287466
0.00106928
-0.00311065
0.00117713
-0.00327169
0.00126187
-0.00337261
0.00132708
-0.0034288
0.00137685
-0.00345382
0.00141507
-0.0034584
0.00144497
-0.00345047
0.00146907
-0.00343546
0.00148922
-0.00341697
0.0015067
-0.00339728
0.00152242
-0.00337779
0.00153696
-0.00335937
-0.00334262
0.00155072
3.5786e-05
-0.000216273
0.000130742
-0.00073263
0.000269787
-0.00128911
0.000434026
-0.00183223
0.000604036
-0.00231632
0.000763875
-0.00271321
0.000903366
-0.00301415
0.00101818
-0.00322546
0.00110849
-0.003362
0.00117726
-0.00344138
0.0012286
-0.00348014
0.0012667
-0.00349192
0.00129524
-0.00348694
0.00131709
-0.00347232
0.0013344
-0.00345277
0.00134866
-0.00343123
0.0013609
-0.00340951
0.0013718
-0.00338868
0.00138181
-0.00336938
-0.00335202
0.00139122
3.78153e-05
-0.000254088
0.000135353
-0.000830168
0.000274317
-0.00142808
0.000433616
-0.00199153
0.000593339
-0.00247605
0.000738626
-0.0028585
0.000861195
-0.00313672
0.000958641
-0.00332291
0.00103262
-0.00343598
0.00108691
-0.00349567
0.00112594
-0.00351916
0.00115379
-0.00351977
0.00117381
-0.00350696
0.00118852
-0.00348703
0.00119968
-0.00346393
0.00120849
-0.00344004
0.00121575
-0.00341677
0.00122198
-0.00339492
0.00122754
-0.00337493
-0.00335711
0.00123262
3.94967e-05
-0.000293585
0.000138478
-0.00092915
0.000275562
-0.00156516
0.00042793
-0.0021439
0.000575771
-0.00262389
0.000705709
-0.00298844
0.000811451
-0.00324246
0.000892354
-0.00340381
0.000951258
-0.00349489
0.000992509
-0.00353692
0.00102058
-0.00354724
0.00103934
-0.00353853
0.00105177
-0.00351939
0.00105999
-0.00349525
0.00106544
-0.00346938
0.00106908
-0.00344368
0.00107153
-0.00341921
0.00107318
-0.00339657
0.0010743
-0.00337605
-0.00335785
0.00107504
4.07851e-05
-0.00033437
0.000140028
-0.00102839
0.000273511
-0.00169864
0.000417222
-0.00228761
0.00055199
-0.00275865
0.0006662
-0.00310265
0.000755522
-0.00333178
0.000820858
-0.00346915
0.000865946
-0.00353997
0.000895441
-0.00356642
0.000913718
-0.00356552
0.000924316
-0.00354913
0.000929832
-0.0035249
0.000932039
-0.00349745
0.000932093
-0.00346944
0.000930736
-0.00344233
0.000928447
-0.00341692
0.00092554
-0.00339366
0.000922214
-0.00337273
-0.00335423
0.000918592
4.16326e-05
-0.000376003
0.000139934
-0.00112669
0.00026821
-0.00182692
0.000401821
-0.00242122
0.000522691
-0.00287952
0.000621128
-0.00320108
0.000694651
-0.0034053
0.000745455
-0.00351995
0.000777913
-0.00357243
0.000796782
-0.00358529
0.000806211
-0.00357494
0.000809376
-0.00355229
0.000808494
-0.00352402
0.00080502
-0.00349398
0.000799869
-0.00346429
0.000793617
-0.00343607
0.000786636
-0.00340994
0.00077917
-0.0033862
0.000771376
-0.00336493
-0.00334621
0.000763352
4.2015e-05
-0.000418018
0.000138195
-0.00122287
0.000259821
-0.00194855
0.000382182
-0.00254358
0.000488659
-0.002986
0.000571535
-0.00328396
0.00063001
-0.00346378
0.000667314
-0.00355726
0.000688219
-0.00359334
0.000697423
-0.00359449
0.000698771
-0.00357629
0.000695057
-0.00354858
0.000688148
-0.00351711
0.000679218
-0.00348505
0.000668985
-0.00345405
0.000657891
-0.00342498
0.000646226
-0.00339828
0.000634185
-0.00337416
0.000621893
-0.00335264
-0.00333374
0.000609428
4.19154e-05
-0.000459933
0.000134845
-0.0013158
0.00024856
-0.00206226
0.000358798
-0.00265382
0.000450662
-0.00307787
0.000518377
-0.00335167
0.000562618
-0.00350802
0.000587405
-0.00358204
0.000597709
-0.00360364
0.000598048
-0.00359483
0.000591917
-0.00357016
0.000581741
-0.0035384
0.000569066
-0.00350444
0.00055483
-0.00347081
0.000539586
-0.00343881
0.000523673
-0.00340907
0.000507318
-0.00338192
0.000490678
-0.00335752
0.000473855
-0.00333582
-0.0033168
0.000456917
4.13283e-05
-0.000501261
0.000129954
-0.00140443
0.000234689
-0.002167
0.000332186
-0.00275132
0.000409437
-0.00315512
0.000462517
-0.00340475
0.000493352
-0.00353885
0.000506528
-0.00359522
0.000507052
-0.00360416
0.00049918
-0.00358696
0.000486042
-0.00355702
0.000469709
-0.00352207
0.00045145
-0.00348618
0.000432002
-0.00345137
0.000411787
-0.00341859
0.00039106
-0.00338834
0.000369999
-0.00336086
0.000348734
-0.00333625
0.000327352
-0.00331444
-0.00329536
0.000305913
4.0259e-05
-0.00054152
0.000123619
-0.00148779
0.0002185
-0.00226188
0.000302862
-0.00283568
0.000365674
-0.00321793
0.00040472
-0.0034438
0.000422956
-0.00355709
0.000425336
-0.0035976
0.000416778
-0.00359561
0.000401223
-0.00357141
0.000381435
-0.00353724
0.000359167
-0.0034998
0.000335446
-0.00346246
0.000310844
-0.00342676
0.000285675
-0.00339343
0.000260129
-0.0033628
0.000234344
-0.00333508
0.000208429
-0.00331034
0.000182463
-0.00328847
-0.0032694
0.000156502
3.87226e-05
-0.000580243
0.000115961
-0.00156503
0.000200299
-0.00234622
0.000271324
-0.0029067
0.00032
-0.00326661
0.000345651
-0.00346945
0.000352053
-0.00356349
0.000344358
-0.0035899
0.000327301
-0.00357855
0.000304482
-0.00354859
0.000278314
-0.00351107
0.000250266
-0.00347175
0.000221163
-0.00343336
0.000191438
-0.00339704
0.000161321
-0.00336331
0.000130946
-0.00333242
0.000100418
-0.00330455
6.983e-05
-0.00327975
3.9259e-05
-0.0032579
-0.00323891
8.76084e-06
3.67421e-05
-0.000616985
0.000107115
-0.0016354
0.000180396
-0.0024195
0.000238043
-0.00296435
0.000272978
-0.00330154
0.000285883
-0.00348235
0.000281159
-0.00355877
0.000264019
-0.00357276
0.000238947
-0.00355348
0.000209192
-0.00351883
0.000176843
-0.00347872
0.000143121
-0.00343803
0.000108681
-0.00339892
7.38485e-05
-0.00336221
3.87802e-05
-0.00332824
3.5643e-06
-0.00329721
-3.17234e-05
-0.00326926
-6.70036e-05
-0.00324447
-0.000102197
-0.00322271
-0.00320386
-0.000137242
3.43476e-05
-0.000651333
9.72282e-05
-0.00169828
0.000159095
-0.00248136
0.000203454
-0.00300871
0.000225106
-0.00332319
0.000225904
-0.00348315
0.000210701
-0.00354356
0.00018466
-0.00354672
0.00015197
-0.00352079
0.000115534
-0.00348239
7.71463e-05
-0.00344033
3.78166e-05
-0.0033987
-1.9368e-06
-0.00335916
-4.1876e-05
-0.00332227
-8.19038e-05
-0.00328821
-0.000121974
-0.00325714
-0.000162037
-0.0032292
-0.000202025
-0.00320448
-0.000241854
-0.00318288
-0.00316426
-0.00028145
3.15747e-05
-0.000682907
8.64494e-05
-0.00175316
0.000136686
-0.0025316
0.000167955
-0.00303998
0.00017682
-0.00333206
0.000166128
-0.00347246
0.000141032
-0.00351847
0.000106558
-0.00351225
6.65747e-05
-0.0034808
2.36535e-05
-0.00343947
-2.06741e-05
-0.003396
-6.55752e-05
-0.0033538
-0.00011064
-0.0033141
-0.000155699
-0.00327721
-0.000200701
-0.00324321
-0.00024564
-0.0032122
-0.000290495
-0.00318434
-0.000335208
-0.00315977
-0.000379681
-0.0031384
-0.00312012
-0.000423829
2.84632e-05
-0.000711371
7.49297e-05
-0.00179962
0.000113446
-0.00257012
0.000131903
-0.00305843
0.000128501
-0.00332865
0.000106908
-0.00345086
7.24465e-05
-0.00348401
2.99418e-05
-0.00346975
-1.70685e-05
-0.00343379
-6.63258e-05
-0.00339022
-0.000116529
-0.0033458
-0.000166992
-0.00330334
-0.000217387
-0.0032637
-0.000267592
-0.003227
-0.000317596
-0.0031932
-0.000367428
-0.00316236
-0.000417098
-0.00313467
-0.000466559
-0.0031103
-0.000515699
-0.00308927
-0.00307141
-0.000564406
2.50558e-05
-0.000736426
6.2818e-05
-0.00183738
8.96325e-05
-0.00259693
9.56226e-05
-0.00306442
8.04825e-05
-0.00331351
4.85454e-05
-0.00341893
5.19556e-06
-0.00344066
-4.49911e-05
-0.00341956
-9.88088e-05
-0.00337998
-0.000154288
-0.00333474
-0.000210331
-0.00328976
-0.000266367
-0.0032473
-0.000322131
-0.00320794
-0.000377531
-0.00317161
-0.000432581
-0.00313815
-0.000487346
-0.0031076
-0.000541872
-0.00308015
-0.000596132
-0.00305605
-0.000649993
-0.0030354
-0.0030181
-0.000703305
2.13977e-05
-0.000757824
5.02592e-05
-0.00186625
6.54837e-05
-0.00261216
5.94019e-05
-0.00305834
3.30571e-05
-0.00328717
-8.69646e-06
-0.00337717
-6.05019e-05
-0.00338885
-0.000118064
-0.003362
-0.000178502
-0.00331954
-0.000240114
-0.00327312
-0.000301977
-0.00322789
-0.000363619
-0.00318566
-0.000424813
-0.00314674
-0.00048548
-0.00311094
-0.000545648
-0.00307799
-0.00060541
-0.00304784
-0.00066486
-0.0030207
-0.000724002
-0.0029969
-0.000782689
-0.00297672
-0.00296009
-0.000840701
1.75352e-05
-0.000775359
3.73926e-05
-0.0018861
4.12207e-05
-0.00261598
2.35017e-05
-0.00304062
-1.35165e-05
-0.00325015
-6.45856e-05
-0.0033261
-0.000124447
-0.00332899
-0.000189107
-0.00329734
-0.000256
-0.00325265
-0.000323667
-0.00320546
-0.000391344
-0.00316022
-0.000458636
-0.00311837
-0.000525344
-0.00308004
-0.000591383
-0.0030449
-0.000656773
-0.0030126
-0.000721627
-0.00298298
-0.00078609
-0.00295623
-0.000850218
-0.00293278
-0.000913861
-0.00291307
-0.00289726
-0.000976686
1.35151e-05
-0.000788874
2.4351e-05
-0.00189694
1.70461e-05
-0.00260868
-1.18441e-05
-0.00301173
-5.90074e-05
-0.00320299
-0.000118912
-0.0032662
-0.000186454
-0.00326145
-0.00025795
-0.00322584
-0.000331136
-0.00317946
-0.000404782
-0.00313181
-0.000478263
-0.00308674
-0.000551258
-0.00304537
-0.000623585
-0.00300771
-0.000695139
-0.00297335
-0.000765907
-0.00294183
-0.000835994
-0.0029129
-0.000905586
-0.00288664
-0.00097481
-0.00286355
-0.00104352
-0.00284436
-0.00282954
-0.00111124
9.38431e-06
-0.000798259
1.126e-05
-0.00189881
-6.85437e-06
-0.00259057
-4.6425e-05
-0.00297216
-0.000103208
-0.00314621
-0.000171483
-0.00319793
-0.000246342
-0.00318659
-0.000324415
-0.00314777
-0.000403726
-0.00310015
-0.000483254
-0.00305228
-0.000562511
-0.00300748
-0.00064125
-0.00296663
-0.000719311
-0.00292965
-0.000796567
-0.00289609
-0.000872948
-0.00286545
-0.000948506
-0.00283734
-0.00102344
-0.00281171
-0.00109795
-0.00278904
-0.00117192
-0.00277038
-0.00275667
-0.0012448
5.18859e-06
-0.000803447
-1.76313e-06
-0.00189186
-3.03123e-05
-0.00256202
-8.00531e-05
-0.00292242
-0.000145932
-0.00308033
-0.00022212
-0.00312174
-0.000303934
-0.00310477
-0.000388315
-0.00306339
-0.000473558
-0.00301491
-0.000558838
-0.002967
-0.0006438
-0.00292252
-0.000728285
-0.00288215
-0.000812178
-0.00284576
-0.000895346
-0.00281292
-0.000977663
-0.00278313
-0.00105909
-0.00275591
-0.00113981
-0.00273099
-0.00122012
-0.00270873
-0.00129999
-0.00269052
-0.00267756
-0.0013791
9.72126e-07
-0.00080442
-1.46105e-05
-0.00187628
-5.3177e-05
-0.00252345
-0.000112562
-0.00286304
-0.000187014
-0.00300587
-0.000270659
-0.00303809
-0.000359059
-0.00301637
-0.000449455
-0.00297299
-0.000540395
-0.00292396
-0.000631242
-0.00287616
-0.000721775
-0.00283198
-0.000811941
-0.00279198
-0.000901709
-0.00275599
-0.000990993
-0.00272364
-0.00107965
-0.00269448
-0.00116756
-0.00266799
-0.00125486
-0.00264369
-0.00134199
-0.0026216
-0.00142917
-0.00260334
-0.00258968
-0.00151705
-3.22368e-06
-0.000801196
-2.71852e-05
-0.00185232
-7.53172e-05
-0.00247532
-0.00014381
-0.00279455
-0.000226312
-0.00292337
-0.000316954
-0.00294745
-0.000411553
-0.00292178
-0.000507632
-0.00287691
-0.000603975
-0.00282762
-0.000700115
-0.00278002
-0.000795971
-0.00273613
-0.000891621
-0.00269633
-0.00098718
-0.00266043
-0.00108271
-0.00262811
-0.00117816
-0.00259902
-0.00127345
-0.00257271
-0.00136859
-0.00254854
-0.00146401
-0.00252618
-0.00156032
-0.00250703
-0.00248969
-0.00166031
-7.36112e-06
-0.000793835
-3.94031e-05
-0.00182028
-9.6623e-05
-0.0024181
-0.000173681
-0.00271749
-0.000263712
-0.00283334
-0.000360891
-0.00285027
-0.00046128
-0.00282139
-0.000562667
-0.00277553
-0.000664036
-0.00272625
-0.000765065
-0.00267899
-0.00086579
-0.0026354
-0.000966422
-0.0025957
-0.00106726
-0.00255959
-0.00116864
-0.00252673
-0.00127088
-0.00249678
-0.00137422
-0.00246937
-0.0014788
-0.00244396
-0.00158526
-0.00241972
-0.00169613
-0.00239617
-0.00238634
-0.00179948
-1.13937e-05
-0.000782441
-5.11721e-05
-0.0017805
-0.000116983
-0.00235229
-0.000202065
-0.00263241
-0.000299115
-0.00273629
-0.000402373
-0.00274701
-0.000508141
-0.00271562
-0.000614435
-0.00266923
-0.000720403
-0.00262029
-0.000825816
-0.00257358
-0.00093076
-0.00253046
-0.00103548
-0.00249098
-0.00114034
-0.00245473
-0.00124583
-0.00242124
-0.00135263
-0.00238998
-0.00146162
-0.00236037
-0.00157371
-0.00233187
-0.00168924
-0.00230419
-0.00180918
-0.00227622
-0.00224008