/*--------------------------------*- C++ -*----------------------------------*\
  =========                 |
  \\      /  F ield         | OpenFOAM: The Open Source CFD Toolbox
   \\    /   O peration     | Website:  https://openfoam.org
    \\  /    A nd           | Version:  6.0
     \\/     M anipulation  |
\*---------------------------------------------------------------------------*/
FoamFile
{
    version     2.0;
    format      ascii;
    class       volScalarField;
    location    "4.3";
    object      p;
}
// * * * * * * * * * * * * * * * * * * * * * * * * * * * * * * * * * * * * * //

dimensions      [0 2 -2 0 0 0 0];

internalField   nonuniform List<scalar> 
8000
(
-0.351968
-0.356552
-0.359336
-0.361478
-0.36364
-0.365932
-0.368389
-0.371006
-0.373741
-0.376534
-0.379321
-0.382039
-0.384627
-0.387032
-0.3892
-0.39108
-0.392655
-0.393988
-0.395035
-0.395014
-0.353042
-0.357466
-0.360172
-0.362276
-0.364413
-0.366691
-0.369145
-0.371765
-0.37451
-0.37732
-0.380129
-0.382874
-0.385494
-0.387933
-0.390139
-0.392059
-0.393673
-0.395046
-0.396133
-0.396155
-0.355129
-0.35924
-0.361795
-0.363821
-0.365908
-0.368158
-0.370599
-0.373223
-0.375984
-0.378822
-0.38167
-0.384463
-0.387138
-0.389639
-0.391912
-0.393903
-0.395588
-0.39703
-0.398193
-0.398299
-0.3581
-0.361765
-0.364101
-0.366009
-0.368018
-0.370218
-0.372635
-0.375254
-0.378028
-0.380896
-0.383788
-0.386638
-0.389381
-0.39196
-0.394317
-0.396398
-0.398174
-0.399704
-0.400965
-0.401192
-0.361779
-0.36489
-0.366946
-0.368699
-0.370597
-0.372722
-0.375092
-0.377688
-0.380462
-0.383348
-0.386276
-0.389178
-0.391987
-0.394642
-0.397085
-0.399259
-0.401132
-0.402754
-0.404122
-0.404502
-0.365958
-0.36844
-0.370167
-0.371726
-0.373478
-0.375494
-0.377786
-0.380331
-0.383076
-0.385955
-0.388897
-0.39183
-0.394686
-0.3974
-0.399915
-0.402171
-0.40413
-0.405835
-0.407304
-0.407862
-0.370421
-0.372233
-0.373594
-0.374923
-0.376492
-0.378359
-0.380532
-0.382983
-0.38566
-0.388493
-0.391411
-0.394339
-0.397208
-0.399951
-0.402508
-0.404821
-0.406844
-0.408611
-0.41016
-0.410912
-0.374956
-0.376095
-0.377069
-0.378136
-0.379481
-0.381154
-0.383158
-0.385465
-0.38802
-0.390756
-0.393599
-0.396474
-0.39931
-0.402039
-0.404599
-0.406931
-0.408988
-0.410786
-0.412386
-0.413337
-0.379379
-0.379877
-0.380459
-0.381237
-0.382318
-0.383747
-0.385528
-0.387631
-0.390004
-0.392581
-0.395289
-0.398053
-0.400801
-0.403463
-0.405977
-0.408284
-0.410335
-0.41213
-0.413743
-0.414889
-0.38354
-0.383462
-0.383662
-0.384131
-0.384912
-0.386049
-0.387548
-0.389384
-0.39151
-0.393862
-0.39637
-0.39896
-0.401559
-0.404098
-0.406512
-0.408745
-0.410744
-0.412495
-0.414077
-0.4154
-0.387337
-0.386773
-0.386617
-0.386765
-0.387216
-0.388015
-0.389177
-0.390686
-0.392499
-0.394561
-0.396804
-0.399158
-0.401549
-0.403907
-0.406167
-0.408272
-0.410168
-0.411825
-0.413318
-0.414782
-0.390718
-0.389774
-0.389298
-0.389124
-0.389221
-0.389646
-0.390424
-0.391551
-0.392996
-0.39471
-0.396632
-0.398694
-0.400823
-0.402949
-0.405002
-0.406923
-0.408659
-0.410159
-0.411481
-0.413009
-0.393678
-0.39247
-0.391718
-0.391227
-0.390959
-0.390983
-0.391343
-0.392047
-0.39308
-0.394403
-0.395961
-0.397689
-0.399516
-0.401367
-0.403167
-0.40485
-0.406358
-0.407619
-0.408645
-0.410094
-0.396262
-0.3949
-0.393917
-0.393122
-0.392486
-0.392098
-0.39202
-0.39228
-0.392876
-0.393783
-0.394953
-0.396324
-0.397822
-0.399368
-0.400876
-0.402268
-0.403472
-0.404384
-0.404939
-0.406069
-0.398556
-0.397134
-0.395963
-0.39488
-0.393884
-0.393085
-0.392567
-0.392378
-0.392534
-0.39302
-0.393798
-0.394805
-0.395966
-0.397189
-0.398373
-0.399419
-0.400231
-0.40066
-0.400518
-0.400978
-0.400679
-0.399269
-0.397943
-0.39659
-0.395249
-0.394052
-0.393108
-0.392484
-0.392215
-0.392295
-0.392692
-0.393345
-0.394168
-0.395057
-0.395889
-0.396531
-0.396851
-0.396648
-0.395569
-0.394923
-0.402777
-0.401419
-0.399958
-0.398352
-0.396684
-0.395114
-0.39377
-0.392742
-0.392075
-0.391777
-0.391817
-0.392129
-0.392619
-0.393161
-0.393606
-0.393779
-0.393504
-0.392528
-0.390321
-0.388127
-0.40501
-0.40371
-0.40212
-0.400273
-0.3983
-0.396386
-0.394678
-0.393283
-0.392257
-0.391613
-0.39132
-0.391305
-0.391459
-0.391634
-0.391644
-0.391271
-0.390285
-0.388387
-0.384896
-0.380767
-0.407542
-0.40627
-0.404542
-0.40246
-0.400204
-0.397976
-0.395943
-0.394221
-0.392874
-0.391915
-0.39131
-0.390975
-0.390786
-0.39057
-0.390109
-0.38914
-0.387363
-0.384388
-0.379331
-0.372825
-0.410526
-0.409223
-0.407331
-0.405015
-0.402491
-0.399979
-0.397656
-0.395643
-0.394006
-0.392755
-0.391847
-0.39119
-0.390644
-0.390029
-0.389121
-0.387653
-0.38531
-0.381608
-0.3754
-0.367237
-0.414095
-0.412675
-0.410582
-0.408025
-0.405242
-0.402468
-0.399882
-0.397605
-0.395697
-0.39416
-0.392941
-0.391937
-0.391005
-0.389968
-0.388631
-0.386797
-0.38429
-0.380954
-0.376819
-0.375088
-0.418353
-0.416715
-0.414374
-0.411557
-0.408517
-0.40549
-0.402656
-0.400126
-0.397949
-0.396114
-0.394554
-0.393155
-0.391771
-0.390235
-0.388377
-0.38605
-0.383155
-0.379664
-0.375736
-0.373103
-0.423373
-0.42141
-0.418764
-0.415663
-0.412354
-0.409074
-0.405992
-0.403204
-0.400742
-0.398575
-0.39662
-0.394755
-0.392831
-0.390692
-0.388195
-0.38523
-0.381736
-0.377715
-0.373268
-0.369087
-0.429203
-0.426806
-0.423795
-0.420377
-0.416779
-0.413231
-0.409887
-0.406819
-0.404034
-0.40148
-0.399056
-0.396631
-0.394059
-0.391201
-0.38794
-0.384198
-0.379939
-0.375175
-0.369982
-0.364581
-0.435866
-0.432932
-0.429496
-0.425724
-0.421809
-0.41797
-0.414334
-0.410945
-0.407779
-0.404759
-0.401767
-0.398669
-0.395331
-0.391636
-0.387501
-0.382882
-0.377776
-0.372209
-0.366258
-0.359943
-0.44337
-0.439808
-0.43589
-0.431726
-0.427461
-0.423295
-0.419323
-0.415552
-0.411922
-0.408331
-0.404652
-0.400754
-0.396527
-0.391887
-0.386794
-0.381243
-0.375265
-0.368915
-0.362278
-0.355335
-0.451718
-0.447445
-0.442995
-0.438402
-0.433752
-0.429214
-0.424844
-0.420603
-0.416399
-0.412108
-0.407602
-0.40277
-0.397536
-0.391862
-0.385754
-0.37925
-0.372415
-0.365326
-0.358076
-0.350655
-0.460901
-0.45585
-0.450825
-0.445771
-0.440694
-0.435726
-0.430873
-0.42605
-0.421132
-0.415987
-0.410503
-0.404602
-0.398257
-0.391483
-0.384332
-0.376881
-0.36922
-0.361444
-0.353641
-0.345824
-0.470905
-0.465019
-0.459388
-0.453842
-0.44829
-0.442815
-0.437367
-0.431818
-0.426021
-0.419852
-0.413234
-0.406142
-0.398604
-0.390688
-0.38249
-0.374116
-0.365671
-0.357251
-0.348935
-0.340746
-0.481701
-0.474938
-0.468677
-0.462608
-0.456521
-0.450438
-0.444254
-0.437804
-0.430941
-0.423572
-0.415674
-0.407286
-0.398499
-0.389428
-0.380201
-0.370941
-0.361754
-0.352728
-0.343926
-0.335367
-0.493241
-0.485571
-0.478664
-0.472036
-0.465338
-0.458518
-0.451425
-0.443876
-0.435748
-0.427007
-0.417701
-0.407943
-0.397878
-0.387663
-0.377442
-0.36734
-0.357454
-0.347855
-0.338586
-0.329652
-0.50545
-0.496856
-0.489292
-0.482061
-0.474649
-0.466935
-0.458732
-0.449868
-0.440278
-0.430011
-0.4192
-0.408028
-0.396688
-0.385359
-0.374191
-0.363297
-0.352755
-0.342616
-0.332896
-0.323585
-0.518217
-0.5087
-0.500469
-0.492576
-0.484323
-0.475526
-0.465989
-0.455592
-0.444359
-0.432441
-0.420062
-0.407465
-0.394876
-0.382483
-0.370424
-0.35879
-0.347636
-0.336988
-0.326835
-0.317157
-0.531398
-0.520973
-0.512063
-0.503429
-0.494179
-0.484084
-0.472981
-0.460842
-0.447812
-0.434157
-0.420183
-0.406182
-0.392395
-0.378998
-0.366108
-0.353789
-0.342069
-0.330948
-0.320384
-0.310358
-0.544805
-0.533502
-0.523897
-0.514422
-0.503992
-0.492367
-0.47947
-0.465405
-0.450463
-0.435024
-0.419467
-0.404111
-0.389191
-0.374861
-0.361207
-0.34826
-0.33602
-0.324462
-0.313516
-0.30317
-0.558209
-0.546074
-0.53575
-0.525309
-0.513494
-0.500105
-0.485202
-0.469064
-0.45214
-0.434917
-0.417822
-0.401182
-0.385209
-0.370023
-0.355673
-0.342158
-0.329447
-0.317495
-0.306198
-0.295571
-0.571341
-0.558433
-0.547356
-0.535804
-0.522388
-0.507007
-0.489919
-0.47161
-0.452683
-0.433714
-0.415158
-0.397323
-0.380387
-0.364428
-0.349455
-0.335432
-0.322305
-0.310002
-0.298393
-0.287531
-0.583895
-0.570285
-0.55841
-0.545585
-0.530348
-0.512775
-0.49337
-0.472842
-0.45194
-0.431303
-0.411385
-0.392461
-0.374661
-0.358016
-0.342493
-0.328028
-0.31454
-0.301936
-0.29006
-0.279013
-0.595536
-0.581302
-0.568571
-0.554303
-0.53704
-0.51711
-0.49531
-0.472573
-0.449772
-0.427577
-0.406418
-0.38652
-0.36796
-0.35072
-0.334728
-0.319888
-0.306101
-0.29325
-0.281155
-0.269978
-0.6059
-0.591127
-0.577476
-0.561594
-0.542127
-0.519728
-0.495515
-0.470634
-0.446049
-0.422432
-0.40017
-0.379425
-0.360215
-0.342475
-0.326095
-0.310954
-0.296933
-0.283893
-0.271633
-0.260388
-0.614611
-0.599386
-0.584746
-0.567092
-0.545283
-0.520362
-0.493779
-0.466869
-0.440652
-0.415775
-0.392559
-0.3711
-0.351357
-0.333216
-0.316536
-0.301171
-0.286986
-0.273819
-0.261452
-0.250202
-0.621285
-0.605697
-0.589999
-0.570438
-0.5462
-0.518769
-0.489921
-0.461143
-0.433477
-0.407516
-0.383508
-0.361475
-0.341318
-0.322882
-0.305994
-0.290487
-0.276211
-0.262985
-0.250575
-0.239387
-0.625542
-0.60968
-0.592863
-0.571296
-0.544601
-0.514738
-0.483783
-0.453338
-0.42443
-0.397578
-0.372946
-0.350484
-0.330039
-0.311417
-0.294417
-0.278855
-0.264568
-0.251353
-0.238968
-0.227911
-0.627021
-0.610971
-0.592988
-0.569358
-0.540244
-0.508088
-0.475236
-0.443357
-0.413431
-0.38589
-0.360809
-0.33807
-0.317467
-0.298772
-0.281761
-0.266237
-0.252022
-0.238892
-0.226604
-0.215752
-0.625381
-0.60923
-0.590054
-0.564358
-0.532925
-0.498677
-0.464177
-0.431122
-0.400418
-0.372397
-0.347047
-0.324183
-0.303556
-0.284907
-0.267992
-0.252601
-0.238545
-0.225581
-0.213466
-0.202893
-0.620323
-0.604154
-0.583787
-0.556074
-0.522486
-0.486393
-0.45053
-0.416575
-0.38534
-0.357054
-0.331618
-0.308787
-0.288274
-0.269792
-0.253083
-0.237925
-0.22412
-0.211405
-0.199544
-0.189327
-0.611586
-0.595486
-0.573957
-0.544335
-0.508812
-0.471167
-0.434247
-0.399681
-0.368169
-0.339832
-0.314494
-0.291856
-0.271596
-0.253408
-0.237018
-0.222197
-0.208738
-0.196358
-0.184835
-0.175052
-0.598964
-0.583018
-0.560394
-0.529021
-0.491833
-0.452961
-0.41531
-0.380426
-0.348889
-0.320718
-0.295662
-0.273378
-0.253514
-0.235746
-0.219791
-0.205415
-0.192398
-0.180446
-0.169349
-0.160076
-0.582307
-0.566602
-0.542983
-0.51007
-0.471527
-0.431775
-0.393727
-0.358819
-0.327507
-0.299714
-0.275124
-0.253352
-0.234026
-0.216808
-0.201407
-0.187584
-0.175112
-0.163681
-0.153101
-0.144416
-0.561524
-0.546152
-0.521671
-0.487472
-0.447916
-0.407645
-0.369534
-0.334891
-0.30405
-0.276841
-0.252894
-0.231793
-0.213146
-0.196607
-0.18188
-0.168721
-0.156898
-0.146088
-0.13612
-0.128102
-0.536591
-0.521646
-0.496469
-0.461271
-0.421063
-0.380641
-0.342795
-0.308697
-0.278561
-0.252135
-0.229004
-0.208726
-0.190897
-0.175164
-0.16123
-0.148849
-0.137781
-0.127697
-0.118445
-0.11118
-0.507544
-0.493125
-0.467444
-0.431562
-0.391077
-0.350865
-0.313602
-0.280316
-0.251106
-0.225651
-0.203498
-0.184188
-0.167309
-0.152507
-0.139483
-0.127992
-0.117789
-0.10854
-0.100117
-0.0937004
-0.474487
-0.460694
-0.434722
-0.39849
-0.358102
-0.318453
-0.282075
-0.249849
-0.221771
-0.197461
-0.176436
-0.158229
-0.142425
-0.128669
-0.116668
-0.106175
-0.0969462
-0.088648
-0.0811729
-0.0756894
-0.437582
-0.424518
-0.398487
-0.362245
-0.322325
-0.283573
-0.248361
-0.217423
-0.190663
-0.167653
-0.147892
-0.130908
-0.116289
-0.103687
-0.0928113
-0.0834223
-0.0752751
-0.0680471
-0.0616373
-0.0571377
-0.397051
-0.384819
-0.358971
-0.323063
-0.283964
-0.246424
-0.212634
-0.18319
-0.157913
-0.136339
-0.117956
-0.102295
-0.0889534
-0.0775931
-0.0679343
-0.059744
-0.0527861
-0.0467508
-0.041517
-0.0380382
-0.353171
-0.341873
-0.316454
-0.281214
-0.243272
-0.207232
-0.175095
-0.147325
-0.123673
-0.103649
-0.0867367
-0.0724771
-0.0604817
-0.0504288
-0.0420554
-0.0351424
-0.0294675
-0.0247404
-0.0208172
-0.0185203
-0.306266
-0.296001
-0.271255
-0.237006
-0.200535
-0.166255
-0.135974
-0.110033
-0.0881243
-0.0697383
-0.0543646
-0.0415582
-0.0309513
-0.0222467
-0.0152066
-0.00962854
-0.00530904
-0.00201772
0.000325109
0.000985032
-0.256704
-0.247566
-0.22373
-0.190778
-0.156062
-0.123774
-0.0955252
-0.071544
-0.0514711
-0.0347861
-0.0209877
-0.0096507
-0.000434497
0.00692177
0.0126197
0.0168389
0.0197382
0.0213619
0.0215576
0.0199801
-0.204888
-0.196964
-0.174266
-0.142893
-0.110189
-0.0800964
-0.0540322
-0.0321184
-0.0139526
0.000993777
0.0132135
0.0231148
0.0310117
0.0371271
0.0416233
0.0446467
0.0462322
0.0460058
0.0434567
0.0395797
-0.151251
-0.144619
-0.12327
-0.093732
-0.0632689
-0.0355497
-0.0118006
0.00795296
0.0241508
0.0373295
0.0479792
0.0565032
0.0632104
0.0683208
0.0720094
0.0744396
0.0755087
0.0743202
0.07014
0.0658712
-0.0962469
-0.0909756
-0.0711671
-0.0436926
-0.0156678
0.00952639
0.030848
0.0483585
0.0625278
0.0738972
0.0829549
0.0901058
0.0956721
0.0999127
0.103089
0.105495
0.107092
0.106833
0.10446
0.108667
-0.0403365
-0.0364845
-0.0183888
0.0068238
0.0322437
0.0547873
0.0735884
0.0887845
0.100867
0.110375
0.117788
0.123502
0.127836
0.131061
0.133454
0.13529
0.136547
0.136725
0.136775
0.143181
0.0160047
0.0183912
0.0346275
0.0574136
0.0800952
0.0998909
0.1161
0.128925
0.138873
0.146474
0.152196
0.156421
0.159464
0.161591
0.163064
0.164115
0.164715
0.164554
0.164599
0.169803
0.0723019
0.0731903
0.087448
0.107678
0.127523
0.144503
0.158072
0.168488
0.176263
0.181917
0.185896
0.188568
0.19023
0.191135
0.191524
0.191604
0.191361
0.19056
0.189995
0.193592
0.128085
0.127457
0.139646
0.157228
0.174173
0.188301
0.199209
0.2072
0.212786
0.21647
0.218678
0.219754
0.219975
0.219574
0.218765
0.217722
0.216422
0.214659
0.213162
0.215272
0.182894
0.180745
0.190806
0.205684
0.219704
0.230977
0.23923
0.244804
0.248207
0.249921
0.250347
0.249808
0.248558
0.246808
0.24475
0.242527
0.240102
0.237291
0.234787
0.235474
0.236281
0.232623
0.240526
0.252685
0.263791
0.272236
0.27787
0.281061
0.28231
0.282076
0.280736
0.278588
0.275865
0.272757
0.26943
0.266005
0.262435
0.258563
0.255052
0.254397
0.287815
0.282676
0.288423
0.297883
0.306122
0.311801
0.314878
0.315747
0.314896
0.31276
0.309692
0.305967
0.301797
0.29735
0.292774
0.288167
0.283476
0.278574
0.274086
0.272158
0.337086
0.330507
0.334132
0.340951
0.346403
0.349408
0.35002
0.348651
0.345775
0.341805
0.33707
0.331821
0.32625
0.320509
0.314724
0.308977
0.303215
0.297334
0.291913
0.28878
0.383705
0.375744
0.377309
0.381578
0.384359
0.38481
0.383072
0.379572
0.374769
0.369054
0.362731
0.35603
0.349126
0.342152
0.335219
0.328392
0.32162
0.314823
0.308519
0.304252
0.427307
0.418036
0.417633
0.419476
0.419731
0.417775
0.413828
0.408326
0.401713
0.394357
0.386542
0.378479
0.370323
0.362193
0.354183
0.346348
0.338639
0.330994
0.323865
0.318536
0.467556
0.457061
0.454806
0.454379
0.45228
0.448088
0.442093
0.434737
0.426448
0.417574
0.408379
0.399054
0.38974
0.380542
0.371539
0.362776
0.35421
0.345789
0.337898
0.331585
0.504141
0.492523
0.488557
0.486041
0.481786
0.475553
0.46769
0.458644
0.448828
0.438572
0.42812
0.417647
0.407281
0.397111
0.387208
0.377604
0.368263
0.359144
0.350558
0.343347
0.536783
0.524153
0.518641
0.514242
0.508052
0.499991
0.490458
0.479901
0.468721
0.45723
0.445655
0.434158
0.422852
0.411817
0.40111
0.390759
0.380733
0.370994
0.361786
0.353769
0.565233
0.551714
0.54484
0.538787
0.530902
0.521243
0.51025
0.498375
0.486006
0.473438
0.460884
0.448494
0.436369
0.424581
0.413175
0.402175
0.391553
0.381277
0.371526
0.362801
0.589277
0.575002
0.566965
0.559506
0.550182
0.539169
0.526942
0.513952
0.500576
0.487098
0.473717
0.460572
0.447756
0.435331
0.423336
0.411788
0.400666
0.389939
0.379726
0.3704
0.608733
0.593842
0.584857
0.576254
0.565763
0.553653
0.540426
0.526533
0.512343
0.498128
0.484077
0.470322
0.456947
0.444008
0.431537
0.419547
0.408021
0.396929
0.386341
0.376527
0.623453
0.608096
0.59839
0.588917
0.577541
0.5646
0.550616
0.53604
0.521233
0.50646
0.491903
0.477686
0.463889
0.45056
0.437729
0.425405
0.413575
0.402207
0.391334
0.381149
0.633328
0.617656
0.607465
0.597408
0.585437
0.571938
0.557446
0.542411
0.527191
0.512044
0.497147
0.48262
0.46854
0.45495
0.441877
0.429329
0.417295
0.405743
0.394679
0.384244
0.638284
0.622454
0.612018
0.601667
0.589398
0.575618
0.560871
0.545606
0.530179
0.514844
0.499777
0.485095
0.470871
0.457151
0.443957
0.431297
0.419161
0.407516
0.396355
0.385794
0.638283
0.622453
0.612017
0.601666
0.589397
0.575617
0.56087
0.545605
0.530178
0.514843
0.499776
0.485094
0.47087
0.45715
0.443956
0.431296
0.41916
0.407515
0.396354
0.385793
0.633325
0.617653
0.607462
0.597405
0.585434
0.571934
0.557442
0.542408
0.527188
0.512041
0.497144
0.482617
0.468536
0.454947
0.441874
0.429326
0.417292
0.40574
0.394676
0.384241
0.623448
0.60809
0.598384
0.588912
0.577536
0.564595
0.550611
0.536035
0.521228
0.506455
0.491898
0.477681
0.463884
0.450555
0.437724
0.4254
0.41357
0.402202
0.391329
0.381144
0.608725
0.593834
0.58485
0.576247
0.565756
0.553646
0.540419
0.526526
0.512336
0.49812
0.48407
0.470315
0.45694
0.444
0.431529
0.419539
0.408014
0.396922
0.386334
0.37652
0.589267
0.574992
0.566955
0.559496
0.550172
0.539159
0.526933
0.513942
0.500567
0.487088
0.473707
0.460562
0.447747
0.435322
0.423327
0.411779
0.400657
0.38993
0.379716
0.370391
0.565221
0.551702
0.544827
0.538775
0.53089
0.521231
0.510238
0.498363
0.485994
0.473426
0.460872
0.448482
0.436358
0.424569
0.413164
0.402163
0.391542
0.381266
0.371515
0.36279
0.536768
0.524137
0.518626
0.514228
0.508038
0.499977
0.490444
0.479887
0.468707
0.457216
0.445641
0.434144
0.422838
0.411803
0.401097
0.390746
0.380719
0.37098
0.361773
0.353756
0.504123
0.492505
0.48854
0.486024
0.481769
0.475537
0.467674
0.458628
0.448812
0.438556
0.428103
0.417631
0.407265
0.397095
0.387192
0.377588
0.368248
0.359128
0.350542
0.343332
0.467535
0.45704
0.454786
0.454359
0.45226
0.448069
0.442074
0.434718
0.426429
0.417555
0.40836
0.399035
0.389722
0.380523
0.371521
0.362758
0.354192
0.345771
0.33788
0.331568
0.427283
0.418012
0.41761
0.419453
0.419709
0.417753
0.413806
0.408304
0.401691
0.394336
0.386521
0.378458
0.370302
0.362172
0.354163
0.346327
0.338619
0.330974
0.323846
0.318517
0.383678
0.375716
0.377283
0.381552
0.384334
0.384785
0.383048
0.379548
0.374745
0.36903
0.362707
0.356007
0.349103
0.342129
0.335196
0.328369
0.321598
0.314801
0.308497
0.30423
0.337055
0.330476
0.334102
0.340921
0.346375
0.34938
0.349992
0.348623
0.345748
0.341778
0.337043
0.331795
0.326224
0.320483
0.314699
0.308952
0.30319
0.29731
0.291889
0.288757
0.28778
0.282641
0.288389
0.29785
0.30609
0.31177
0.314848
0.315717
0.314866
0.31273
0.309663
0.305938
0.301768
0.297322
0.292746
0.288139
0.283449
0.278547
0.27406
0.272132
0.236242
0.232584
0.240488
0.252648
0.263755
0.272202
0.277836
0.281028
0.282277
0.282044
0.280704
0.278557
0.275834
0.272726
0.2694
0.265976
0.262405
0.258534
0.255024
0.254369
0.182851
0.180702
0.190763
0.205644
0.219665
0.230938
0.239192
0.244767
0.248171
0.249885
0.250312
0.249773
0.248524
0.246775
0.244717
0.242494
0.24007
0.23726
0.234756
0.235444
0.128037
0.127409
0.139599
0.157183
0.174129
0.188259
0.199168
0.207159
0.212747
0.216432
0.21864
0.219716
0.219938
0.219537
0.218729
0.217687
0.216388
0.214625
0.213128
0.215239
0.0722485
0.073137
0.0873963
0.107628
0.127475
0.144456
0.158027
0.168444
0.17622
0.181875
0.185855
0.188527
0.19019
0.191096
0.191486
0.191566
0.191324
0.190524
0.189959
0.193557
0.0159457
0.0183325
0.0345706
0.057359
0.0800427
0.0998402
0.116051
0.128877
0.138826
0.146428
0.152151
0.156378
0.159421
0.161549
0.163023
0.164074
0.164675
0.164515
0.16456
0.169766
-0.0404013
-0.0365489
-0.0184512
0.00676404
0.0321863
0.054732
0.0735349
0.0887325
0.100816
0.110326
0.11774
0.123455
0.12779
0.131016
0.133409
0.135246
0.136505
0.136683
0.136734
0.143141
-0.0963178
-0.0910461
-0.0712353
-0.0437578
-0.0157302
0.00946634
0.03079
0.0483023
0.0624732
0.073844
0.0829029
0.0900551
0.0956225
0.0998642
0.103042
0.105448
0.107046
0.106788
0.104415
0.108623
-0.151328
-0.144696
-0.123344
-0.093803
-0.0633368
-0.0356147
-0.0118633
0.00789237
0.0240921
0.0372724
0.0479235
0.0564489
0.0631573
0.068269
0.0719586
0.0743898
0.0754598
0.074272
0.0700922
0.0658238
-0.204972
-0.197048
-0.174347
-0.14297
-0.110262
-0.0801666
-0.0540998
-0.0321835
-0.0140156
0.000932584
0.013154
0.0230568
0.0309552
0.0370719
0.0415693
0.0445937
0.0461802
0.0459546
0.0434063
0.0395296
-0.256795
-0.247657
-0.223818
-0.190862
-0.156142
-0.123849
-0.0955978
-0.0716139
-0.0515385
-0.0348514
-0.0210512
-0.00971238
-0.000494548
0.00686321
0.0125625
0.016783
0.0196834
0.0213081
0.0215048
0.0199279
-0.306365
-0.296099
-0.271349
-0.237096
-0.20062
-0.166336
-0.136051
-0.110108
-0.0881963
-0.0698079
-0.054432
-0.0416237
-0.0310149
-0.0223086
-0.0152669
-0.00968747
-0.00536665
-0.00207408
0.000269891
0.000930643
-0.353277
-0.341979
-0.316556
-0.281311
-0.243364
-0.207319
-0.175178
-0.147405
-0.12375
-0.103723
-0.0868082
-0.0725464
-0.0605488
-0.050494
-0.0421189
-0.0352043
-0.0295279
-0.0247994
-0.0208748
-0.0185769
-0.397165
-0.384933
-0.359081
-0.323167
-0.284062
-0.246517
-0.212722
-0.183274
-0.157994
-0.136417
-0.118032
-0.102368
-0.0890242
-0.0776618
-0.0680009
-0.0598088
-0.0528492
-0.0468122
-0.041577
-0.038097
-0.437704
-0.424639
-0.398605
-0.362357
-0.32243
-0.283672
-0.248455
-0.217513
-0.190749
-0.167736
-0.147972
-0.130985
-0.116363
-0.103759
-0.0928811
-0.08349
-0.0753408
-0.0681111
-0.0616996
-0.0571986
-0.474617
-0.460824
-0.434848
-0.398608
-0.358214
-0.318559
-0.282176
-0.249945
-0.221862
-0.197548
-0.17652
-0.15831
-0.142503
-0.128745
-0.116741
-0.106246
-0.0970147
-0.0887144
-0.0812375
-0.0757524
-0.507683
-0.493263
-0.467577
-0.431688
-0.391196
-0.350977
-0.313708
-0.280417
-0.251202
-0.225743
-0.203586
-0.184273
-0.167391
-0.152586
-0.139559
-0.128065
-0.11786
-0.108609
-0.100184
-0.0937654
-0.536738
-0.521792
-0.49661
-0.461405
-0.421189
-0.380759
-0.342907
-0.308803
-0.278661
-0.252232
-0.229096
-0.208814
-0.190982
-0.175246
-0.161309
-0.148925
-0.137855
-0.127768
-0.118514
-0.111247
-0.561679
-0.546307
-0.521821
-0.487614
-0.448049
-0.407771
-0.369652
-0.335002
-0.304155
-0.276942
-0.25299
-0.231885
-0.213235
-0.196692
-0.181962
-0.1688
-0.156974
-0.146161
-0.136191
-0.128171
-0.58247
-0.566764
-0.54314
-0.51022
-0.471668
-0.431907
-0.393851
-0.358936
-0.327618
-0.299819
-0.275224
-0.253448
-0.234118
-0.216896
-0.201492
-0.187666
-0.175191
-0.163757
-0.153174
-0.144486
-0.599135
-0.583187
-0.560558
-0.529178
-0.491981
-0.453099
-0.41544
-0.380549
-0.349005
-0.320828
-0.295767
-0.273478
-0.253609
-0.235837
-0.219879
-0.205499
-0.192479
-0.180524
-0.169424
-0.160148
-0.611764
-0.595663
-0.574129
-0.544499
-0.508966
-0.471312
-0.434383
-0.399809
-0.368289
-0.339946
-0.314602
-0.29196
-0.271695
-0.253502
-0.237108
-0.222284
-0.208821
-0.196438
-0.184912
-0.175126
-0.620507
-0.604338
-0.583966
-0.556246
-0.522648
-0.486545
-0.450672
-0.416708
-0.385466
-0.357173
-0.33173
-0.308894
-0.288375
-0.269889
-0.253176
-0.238014
-0.224205
-0.211486
-0.199622
-0.189402
-0.625573
-0.60942
-0.59024
-0.564536
-0.533093
-0.498834
-0.464324
-0.43126
-0.400548
-0.37252
-0.347163
-0.324294
-0.303661
-0.285007
-0.268087
-0.252692
-0.238632
-0.225664
-0.213546
-0.20297
-0.627217
-0.611167
-0.59318
-0.569542
-0.540418
-0.508252
-0.475389
-0.443501
-0.413566
-0.386018
-0.36093
-0.338183
-0.317575
-0.298874
-0.281859
-0.26633
-0.252111
-0.238977
-0.226685
-0.21583
-0.625745
-0.609882
-0.593061
-0.571486
-0.544782
-0.514908
-0.483942
-0.453487
-0.424569
-0.397709
-0.373069
-0.350601
-0.33015
-0.311522
-0.294517
-0.27895
-0.264659
-0.251439
-0.23905
-0.22799
-0.621492
-0.605903
-0.590201
-0.570633
-0.546386
-0.518944
-0.490085
-0.461296
-0.433621
-0.407652
-0.383635
-0.361595
-0.341432
-0.32299
-0.306096
-0.290584
-0.276303
-0.263072
-0.250658
-0.239466
-0.614822
-0.599596
-0.584953
-0.567292
-0.545474
-0.520542
-0.493948
-0.467027
-0.4408
-0.415914
-0.39269
-0.371223
-0.351473
-0.333326
-0.31664
-0.30127
-0.287079
-0.273908
-0.261537
-0.250282
-0.606113
-0.591339
-0.577685
-0.561798
-0.542322
-0.519913
-0.495689
-0.470796
-0.446201
-0.422575
-0.400304
-0.379551
-0.360334
-0.342587
-0.326201
-0.311054
-0.297028
-0.283983
-0.271718
-0.260468
-0.595751
-0.581516
-0.568783
-0.55451
-0.537239
-0.517299
-0.495488
-0.47274
-0.449928
-0.427723
-0.406555
-0.386649
-0.368081
-0.350834
-0.334835
-0.319989
-0.306196
-0.29334
-0.28124
-0.270059
-0.584113
-0.570501
-0.558623
-0.545794
-0.53055
-0.512967
-0.493551
-0.473012
-0.4521
-0.431453
-0.411526
-0.392593
-0.374784
-0.358132
-0.342603
-0.32813
-0.314637
-0.302027
-0.290146
-0.279093
-0.571559
-0.55865
-0.54757
-0.536014
-0.522591
-0.507202
-0.490104
-0.471784
-0.452846
-0.433867
-0.415301
-0.397457
-0.380513
-0.364547
-0.349566
-0.335536
-0.322402
-0.310093
-0.298479
-0.287611
-0.558427
-0.54629
-0.535964
-0.52552
-0.513699
-0.500302
-0.485389
-0.469241
-0.452307
-0.435073
-0.417969
-0.401319
-0.385337
-0.370143
-0.355786
-0.342263
-0.329546
-0.317586
-0.306283
-0.295651
-0.545022
-0.533717
-0.524111
-0.514632
-0.504197
-0.492565
-0.479659
-0.465584
-0.450632
-0.435183
-0.419617
-0.404251
-0.389322
-0.374983
-0.361321
-0.348366
-0.336119
-0.324554
-0.313601
-0.30325
-0.531614
-0.521187
-0.512275
-0.503638
-0.494384
-0.484282
-0.473172
-0.461024
-0.447984
-0.434319
-0.420335
-0.406325
-0.392528
-0.379122
-0.366224
-0.353897
-0.342168
-0.33104
-0.320469
-0.310436
-0.518432
-0.508913
-0.500679
-0.492784
-0.484527
-0.475724
-0.46618
-0.455775
-0.444533
-0.432606
-0.420217
-0.40761
-0.395012
-0.38261
-0.370541
-0.358898
-0.347736
-0.337081
-0.32692
-0.317235
-0.505662
-0.497066
-0.4895
-0.482267
-0.474851
-0.467133
-0.458923
-0.450052
-0.440454
-0.430178
-0.419358
-0.408176
-0.396826
-0.385488
-0.374311
-0.363407
-0.352856
-0.342709
-0.33298
-0.323662
-0.493451
-0.485778
-0.478869
-0.472239
-0.465538
-0.458715
-0.451617
-0.444061
-0.435926
-0.427176
-0.417862
-0.408094
-0.39802
-0.387794
-0.377564
-0.367452
-0.357556
-0.347949
-0.338671
-0.329728
-0.481908
-0.475142
-0.468879
-0.462808
-0.456719
-0.450633
-0.444445
-0.43799
-0.43112
-0.423744
-0.415838
-0.407441
-0.398643
-0.389562
-0.380326
-0.371055
-0.361858
-0.352822
-0.344011
-0.335443
-0.471109
-0.46522
-0.459587
-0.454039
-0.448485
-0.443007
-0.437557
-0.432003
-0.426201
-0.420026
-0.413401
-0.4063
-0.398752
-0.390826
-0.382618
-0.374233
-0.365777
-0.357347
-0.34902
-0.340822
-0.461102
-0.456048
-0.451021
-0.445965
-0.440886
-0.435916
-0.431061
-0.426235
-0.421313
-0.416163
-0.410672
-0.404764
-0.39841
-0.391625
-0.384463
-0.377001
-0.36933
-0.361542
-0.353727
-0.3459
-0.451916
-0.44764
-0.443187
-0.438593
-0.433941
-0.429402
-0.42503
-0.420788
-0.416581
-0.412286
-0.407774
-0.402935
-0.397692
-0.392009
-0.38589
-0.379375
-0.372527
-0.365427
-0.358164
-0.350731
-0.443565
-0.439999
-0.436079
-0.431914
-0.427648
-0.423481
-0.419509
-0.415736
-0.412104
-0.40851
-0.404827
-0.400923
-0.396688
-0.392039
-0.386935
-0.381373
-0.375382
-0.369019
-0.362369
-0.355413
-0.436057
-0.433121
-0.429683
-0.425909
-0.421993
-0.418154
-0.414517
-0.411128
-0.407962
-0.40494
-0.401945
-0.398842
-0.395497
-0.391793
-0.387648
-0.383018
-0.377898
-0.372318
-0.366353
-0.360023
-0.429392
-0.426992
-0.423979
-0.42056
-0.416961
-0.413413
-0.410069
-0.407002
-0.404217
-0.401663
-0.399237
-0.396808
-0.39423
-0.391364
-0.388094
-0.38434
-0.380068
-0.375289
-0.37008
-0.364664
-0.423559
-0.421593
-0.418945
-0.415843
-0.412533
-0.409254
-0.406173
-0.403386
-0.400925
-0.398758
-0.396803
-0.394935
-0.393006
-0.390861
-0.388355
-0.385379
-0.381871
-0.377835
-0.373372
-0.369173
-0.418535
-0.416895
-0.414552
-0.411734
-0.408694
-0.405668
-0.402836
-0.400308
-0.398133
-0.396299
-0.394738
-0.393339
-0.391951
-0.390409
-0.388543
-0.386206
-0.383297
-0.379792
-0.375846
-0.373193
-0.414274
-0.412851
-0.410757
-0.408199
-0.405417
-0.402644
-0.40006
-0.397785
-0.39588
-0.394345
-0.393127
-0.392123
-0.391189
-0.390147
-0.388803
-0.386959
-0.384439
-0.381089
-0.376936
-0.375184
-0.410701
-0.409395
-0.407502
-0.405186
-0.402662
-0.400153
-0.397833
-0.395823
-0.394189
-0.392941
-0.392035
-0.391378
-0.390831
-0.390212
-0.389297
-0.38782
-0.385466
-0.38175
-0.375527
-0.367348
-0.407713
-0.406439
-0.404709
-0.402627
-0.400372
-0.398147
-0.396117
-0.394399
-0.393055
-0.3921
-0.391497
-0.391164
-0.390974
-0.390755
-0.390289
-0.389312
-0.387524
-0.384535
-0.379463
-0.372939
-0.405176
-0.403874
-0.402283
-0.400436
-0.398465
-0.396553
-0.394849
-0.393458
-0.392436
-0.391796
-0.391506
-0.391493
-0.391648
-0.39182
-0.391825
-0.391445
-0.390448
-0.388537
-0.385029
-0.38088
-0.402937
-0.401578
-0.400116
-0.398511
-0.396845
-0.395277
-0.393938
-0.392914
-0.392252
-0.391958
-0.392
-0.392315
-0.392805
-0.393346
-0.393786
-0.393952
-0.393667
-0.392677
-0.390453
-0.388239
-0.400833
-0.399422
-0.398095
-0.396744
-0.395404
-0.394211
-0.393271
-0.392652
-0.392387
-0.392472
-0.392872
-0.393527
-0.394351
-0.395238
-0.396066
-0.3967
-0.397011
-0.396794
-0.395698
-0.395031
-0.398703
-0.39728
-0.396109
-0.395028
-0.394035
-0.393239
-0.392725
-0.39254
-0.392701
-0.393191
-0.393972
-0.394982
-0.396142
-0.397363
-0.398544
-0.399583
-0.400384
-0.4008
-0.40064
-0.401081
-0.396402
-0.395039
-0.394056
-0.393263
-0.39263
-0.392246
-0.392172
-0.392436
-0.393036
-0.393947
-0.39512
-0.396493
-0.397991
-0.399534
-0.401038
-0.402422
-0.403616
-0.404515
-0.405053
-0.406164
-0.393809
-0.392601
-0.39185
-0.391361
-0.391096
-0.391124
-0.391488
-0.392196
-0.393233
-0.394559
-0.39612
-0.397849
-0.399675
-0.401523
-0.403317
-0.404993
-0.406491
-0.407738
-0.408748
-0.41018
-0.39084
-0.389897
-0.389422
-0.38925
-0.389351
-0.389779
-0.390561
-0.391692
-0.39314
-0.394857
-0.396781
-0.398843
-0.400971
-0.403093
-0.40514
-0.407053
-0.408778
-0.410265
-0.411571
-0.413082
-0.387451
-0.386887
-0.386732
-0.386883
-0.387336
-0.388139
-0.389305
-0.390817
-0.392634
-0.394698
-0.396942
-0.399295
-0.401684
-0.404038
-0.406292
-0.408387
-0.410272
-0.411916
-0.413394
-0.414841
-0.383644
-0.383566
-0.383768
-0.38424
-0.385024
-0.386163
-0.387666
-0.389506
-0.391634
-0.393988
-0.396496
-0.399085
-0.401681
-0.404215
-0.406622
-0.408845
-0.410833
-0.41257
-0.414137
-0.415445
-0.379472
-0.379971
-0.380555
-0.381335