/*--------------------------------*- C++ -*----------------------------------*\
  =========                 |
  \\      /  F ield         | OpenFOAM: The Open Source CFD Toolbox
   \\    /   O peration     | Website:  https://openfoam.org
    \\  /    A nd           | Version:  6.0
     \\/     M anipulation  |
\*---------------------------------------------------------------------------*/
FoamFile
{
    version     2.0;
    format      ascii;
    class       surfaceScalarField;
    location    "12";
    object      phi;
}
// * * * * * * * * * * * * * * * * * * * * * * * * * * * * * * * * * * * * * //

dimensions      [0 3 -1 0 0 0 0];

internalField   nonuniform List<scalar> 
24700
(
-2.04703e-06
2.10399e-06
-5.69578e-08
-7.33172e-06
5.45973e-06
-1.75046e-07
-1.52069e-05
8.16879e-06
-2.93603e-07
-2.51564e-05
1.03583e-05
-4.08855e-07
-3.67661e-05
1.2128e-05
-5.18277e-07
-4.97067e-05
1.35612e-05
-6.2058e-07
-6.37199e-05
1.47286e-05
-7.1542e-07
-7.86068e-05
1.56901e-05
-8.03138e-07
-9.42196e-05
1.64973e-05
-8.84526e-07
-0.000110454
1.71947e-05
-9.6064e-07
-0.000127242
1.78206e-05
-1.03264e-06
-0.000144548
1.8408e-05
-1.10165e-06
-0.000162364
1.89852e-05
-1.1687e-06
-0.000180706
1.95762e-05
-1.23465e-06
-0.000199607
2.02012e-05
-1.30018e-06
-0.000219118
2.08765e-05
-1.36575e-06
-0.000239301
2.16153e-05
-1.43168e-06
-0.000260231
2.24273e-05
-1.49806e-06
-0.000281985
2.33192e-05
-1.56487e-06
-0.000304648
2.4295e-05
-1.63194e-06
-0.000328305
2.53557e-05
-1.69903e-06
-0.000353039
2.64999e-05
-1.76581e-06
-0.00037893
2.77236e-05
-1.83192e-06
-0.000406055
2.90219e-05
-1.89688e-06
3.03934e-05
-1.96034e-06
-0.000434488
-2.02204e-06
4.12603e-06
-7.2459e-06
1.06836e-05
-1.50322e-05
1.59551e-05
-2.48691e-05
2.01952e-05
-3.63447e-05
2.36036e-05
-4.91304e-05
2.63469e-05
-6.29671e-05
2.85653e-05
-7.76548e-05
3.03778e-05
-9.30437e-05
3.18862e-05
-0.000109027
3.31778e-05
-0.000125534
3.43278e-05
-0.000142527
3.54009e-05
-0.000159994
3.64525e-05
-0.000177948
3.75301e-05
-0.00019642
3.86732e-05
-0.000215458
3.99147e-05
-0.000235124
4.12807e-05
-0.000255488
4.27914e-05
-0.000276629
4.44605e-05
-0.000298631
4.62967e-05
-0.000321578
4.83028e-05
-0.000345555
5.04767e-05
-0.000370642
5.28112e-05
-0.000396917
5.52969e-05
5.79313e-05
-0.000424455
-1.97441e-06
6.10044e-06
-7.08214e-06
1.57913e-05
-1.46985e-05
2.35715e-05
-2.43198e-05
2.98165e-05
-3.55381e-05
3.48219e-05
-4.80258e-05
3.88345e-05
-6.15228e-05
4.20623e-05
-7.58265e-05
4.46815e-05
-9.0783e-05
4.68428e-05
-0.000106281
4.86755e-05
-0.000122244
5.02912e-05
-0.000138629
5.17858e-05
-0.000155419
5.3242e-05
-0.000172619
5.47304e-05
-0.000190256
5.63106e-05
-0.000208374
5.80325e-05
-0.00022703
5.99363e-05
-0.000246291
6.2053e-05
-0.000266236
6.44051e-05
-0.000286946
6.70066e-05
-0.000308506
6.98634e-05
-0.000331003
7.29736e-05
-0.00035452
7.63274e-05
-0.000379134
7.99115e-05
8.37212e-05
-0.000404924
-1.90634e-06
8.00678e-06
-6.84755e-06
2.07325e-05
-1.42197e-05
3.09437e-05
-2.35306e-05
3.91274e-05
-3.43778e-05
4.56691e-05
-4.64351e-05
5.08919e-05
-5.94411e-05
5.50683e-05
-7.31892e-05
5.84295e-05
-8.75199e-05
6.11735e-05
-0.000102315
6.34703e-05
-0.00011749
6.54667e-05
-0.000132994
6.72894e-05
-0.0001488
6.90479e-05
-0.000164905
7.08362e-05
-0.00018133
7.27348e-05
-0.000198108
7.4811e-05
-0.000215292
7.71205e-05
-0.000232946
7.9707e-05
-0.000251144
8.26029e-05
-0.000269967
8.58296e-05
-0.000289501
8.93977e-05
-0.000309835
9.33071e-05
-0.000331054
9.75467e-05
-0.000353243
0.0001021
0.00010696
-0.000376481
-1.82092e-06
9.8277e-06
-6.5522e-06
2.54638e-05
-1.36154e-05
3.80069e-05
-2.25325e-05
4.80444e-05
-3.29082e-05
5.60447e-05
-4.44181e-05
6.24018e-05
-5.67988e-05
6.7449e-05
-6.98388e-05
7.14696e-05
-8.33719e-05
7.47065e-05
-9.72704e-05
7.73689e-05
-0.000111441
7.96372e-05
-0.00012582
8.16682e-05
-0.000140369
8.35976e-05
-0.000155076
8.55431e-05
-0.000169948
8.76063e-05
-0.00018501
8.98734e-05
-0.000200307
9.24169e-05
-0.000215895
9.52951e-05
-0.000231845
9.8553e-05
-0.000248237
0.000102222
-0.000265159
0.000106319
-0.000282702
0.00011085
-0.000300958
0.000115803
-0.000320019
0.000121161
0.000126913
-0.000339972
-1.72196e-06
1.15497e-05
-6.20844e-06
2.99503e-05
-1.29098e-05
4.47083e-05
-2.13641e-05
5.64988e-05
-3.11843e-05
6.58649e-05
-4.20482e-05
7.32658e-05
-5.36904e-05
7.90911e-05
-6.5894e-05
8.36732e-05
-7.84844e-05
8.7297e-05
-9.13238e-05
9.02083e-05
-0.000104306
9.26199e-05
-0.000117355
9.47169e-05
-0.000130419
9.6661e-05
-0.000143469
9.85932e-05
-0.000156499
0.000100636
-0.000169523
0.000102897
-0.000182572
0.000105467
-0.000195697
0.00010842
-0.000208962
0.000111818
-0.000222446
0.000115705
-0.000236237
0.000120111
-0.000250433
0.000125046
-0.000265135
0.000130506
-0.000280446
0.000136471
0.000142931
-0.000296464
-1.61371e-06
1.31634e-05
-5.83007e-06
3.41666e-05
-1.21298e-05
5.10081e-05
-2.00684e-05
6.44373e-05
-2.92675e-05
7.5064e-05
-3.9408e-05
8.34062e-05
-5.02223e-05
8.99054e-05
-6.14879e-05
9.49388e-05
-7.30215e-05
9.88305e-05
-8.46736e-05
0.00010186
-9.63249e-05
0.000104271
-0.000107883
0.000106275
-0.00011928
0.000108058
-0.00013047
0.000109783
-0.00014143
0.000111596
-0.000152157
0.000113625
-0.00016267
0.00011598
-0.000173008
0.000118757
-0.000183226
0.000122037
-0.000193402
0.000125881
-0.000203625
0.000130334
-0.000214002
0.000135422
-0.000224645
0.000141148
-0.000235673
0.0001475
0.000154463
-0.000247205
-1.50061e-06
1.4664e-05
-5.43147e-06
3.80975e-05
-1.13037e-05
5.68803e-05
-1.86902e-05
7.18238e-05
-2.7222e-05
8.35959e-05
-3.65834e-05
9.27676e-05
-4.65053e-05
9.98273e-05
-5.67597e-05
0.000105193
-6.71544e-05
0.000109225
-7.75281e-05
0.000112234
-8.77469e-05
0.00011449
-9.77014e-05
0.00011623
-0.000107305
0.000117661
-0.000116493
0.000118971
-0.000125221
0.000120325
-0.000133468
0.000121871
-0.000141233
0.000123746
-0.000148541
0.000126065
-0.000155439
0.000128934
-0.000161996
0.000132438
-0.000168306
0.000136644
-0.000174483
0.000141599
-0.000180656
0.000147322
-0.000186968
0.000153812
0.000161061
-0.000193566
-1.38694e-06
1.60509e-05
-5.02664e-06
4.17372e-05
-1.04586e-05
6.23123e-05
-1.72728e-05
7.8638e-05
-2.51099e-05
9.1433e-05
-3.36578e-05
0.000101315
-4.26467e-05
0.000108816
-5.18441e-05
0.000114391
-6.10494e-05
0.000118431
-7.00899e-05
0.000121275
-7.88169e-05
0.000123217
-8.71036e-05
0.000124516
-9.48432e-05
0.000125401
-0.000101949
0.000126077
-0.000108354
0.000126729
-0.000114013
0.000127531
-0.000118904
0.000128637
-0.000123032
0.000130193
-0.000126429
0.000132331
-0.000129156
0.000135165
-0.000131306
0.000138794
-0.000133002
0.000143295
-0.000134395
0.000148715
-0.000135659
0.000155076
0.000162382
-0.00013698
-1.27662e-06
1.73275e-05
-4.62823e-06
4.50888e-05
-9.61941e-06
6.73034e-05
-1.58556e-05
8.48742e-05
-2.29869e-05
9.85642e-05
-3.07055e-05
0.000109034
-3.87421e-05
0.000116853
-4.68607e-05
0.000122509
-5.4854e-05
0.000126424
-6.25388e-05
0.000128959
-6.97527e-05
0.000130431
-7.63517e-05
0.000131115
-8.22084e-05
0.000131258
-8.72127e-05
0.000131081
-9.12722e-05
0.000130789
-9.43145e-05
0.000130573
-9.62913e-05
0.000130614
-9.71813e-05
0.000131083
-9.6996e-05
0.000132145
-9.57833e-05
0.000133952
-9.36315e-05
0.000136643
-9.06717e-05
0.000140335
-8.70777e-05
0.000145121
-8.30627e-05
0.000151061
0.000158187
-7.88674e-05
-1.17287e-06
1.85004e-05
-4.24673e-06
4.81627e-05
-8.80633e-06
7.1863e-05
-1.44705e-05
9.05384e-05
-2.08978e-05
0.000104992
-2.77858e-05
0.000115922
-3.48666e-05
0.000123934
-4.19029e-05
0.000129546
-4.86825e-05
0.000133203
-5.5014e-05
0.000135291
-6.07232e-05
0.00013614
-6.56502e-05
0.000136042
-6.96482e-05
0.000135256
-7.25834e-05
0.000134016
-7.4336e-05
0.000132541
-7.48038e-05
0.000131041
-7.39066e-05
0.000129716
-7.15919e-05
0.000128769
-6.78425e-05
0.000128396
-6.26847e-05
0.000128794
-5.61952e-05
0.000130153
-4.85091e-05
0.000132649
-3.98233e-05
0.000136435
-3.0398e-05
0.000141636
0.000148334
-2.05455e-05
-1.07809e-06
1.95785e-05
-3.88976e-06
5.09743e-05
-8.03389e-06
7.60072e-05
-1.31396e-05
9.56441e-05
-1.88734e-05
0.000110725
-2.49379e-05
0.000121987
-3.10686e-05
0.000130064
-3.70286e-05
0.000135506
-4.26037e-05
0.000138779
-4.75973e-05
0.000140285
-5.18265e-05
0.000140369
-5.51185e-05
0.000139334
-5.73093e-05
0.000137446
-5.82427e-05
0.000134949
-5.7772e-05
0.000132071
-5.57631e-05
0.000129032
-5.21e-05
0.000126053
-4.66926e-05
0.000123361
-3.94867e-05
0.00012119
-3.04762e-05
0.000119784
-1.97163e-05
0.000119393
-7.33686e-06
0.000120269
6.44513e-06
0.000122653
2.13176e-05
0.000126763
0.000132774
3.68782e-05
-9.93669e-07
2.05722e-05
-3.5616e-06
5.35423e-05
-7.30982e-06
7.97554e-05
-1.18741e-05
0.000100208
-1.69269e-05
0.000115778
-2.21766e-05
0.000127236
-2.73628e-05
0.000135251
-3.22516e-05
0.000140394
-3.66296e-05
0.000143157
-4.02986e-05
0.000143954
-4.3071e-05
0.000143142
-4.47654e-05
0.000141029
-4.52047e-05
0.000137886
-4.4214e-05
0.000133959
-4.1622e-05
0.000129479
-3.72633e-05
0.000124673
-3.09842e-05
0.000119774
-2.26519e-05
0.000115029
-1.21664e-05
0.000110705
5.2237e-07
0.000107095
1.53949e-05
0.000104521
3.23397e-05
0.000103325
5.11296e-05
0.000103863
7.14e-05
0.000106493
0.000111534
9.26397e-05
-9.19968e-07
2.14921e-05
-3.26301e-06
5.58853e-05
-6.63452e-06
8.31269e-05
-1.06725e-05
0.000104246
-1.50533e-05
0.000120159
-1.94901e-05
0.000131673
-2.37277e-05
0.000139488
-2.75369e-05
0.000144204
-3.0708e-05
0.000146328
-3.30451e-05
0.000146291
-3.43602e-05
0.000144457
-3.4469e-05
0.000141137
-3.31868e-05
0.000136603
-3.0326e-05
0.000131098
-2.56959e-05
0.000124849
-1.91038e-05
0.000118081
-1.03602e-05
0.000111031
7.12815e-07
0.000103956
1.4267e-05
9.71505e-05
3.04082e-05
9.0954e-05
4.91688e-05
8.57602e-05
7.04745e-05
8.20189e-05
9.41049e-05
8.0233e-05
0.00011965
8.09482e-05
8.47093e-05
0.000146475
-8.56335e-07
2.23485e-05
-2.99124e-06
5.80202e-05
-6.00121e-06
8.61369e-05
-9.52119e-06
0.000107766
-1.32285e-05
0.000123866
-1.68397e-05
0.000135284
-2.01044e-05
0.000142753
-2.27992e-05
0.000146898
-2.47204e-05
0.000148249
-2.56773e-05
0.000147248
-2.54864e-05
0.000144266
-2.39659e-05
0.000139617
-2.09305e-05
0.000133568
-1.61881e-05
0.000126355
-9.53674e-06
0.000118197
-7.64885e-07
0.000109309
1.03464e-05
9.99194e-05
2.40159e-05
9.02864e-05
4.04491e-05
8.07173e-05
5.98152e-05
7.15879e-05
8.22146e-05
6.33608e-05
0.000107633
5.66009e-05
0.000135881
5.1985e-05
0.000166521
5.03077e-05
5.24412e-05
0.000198789
-8.01223e-07
2.31497e-05
-2.7404e-06
5.99594e-05
-5.39645e-06
8.87929e-05
-8.39536e-06
0.000110765
-1.14113e-05
0.000126882
-1.41614e-05
0.000138034
-1.63991e-05
0.000144991
-1.79059e-05
0.000148405
-1.84848e-05
0.000148828
-1.79525e-05
0.000146715
-1.61334e-05
0.000142447
-1.2853e-05
0.000136337
-7.93293e-06
0.000128648
-1.18521e-06
0.000119608
7.59167e-06
0.00010942
1.86158e-05
9.82851e-05
3.21225e-05
8.64128e-05
4.836e-05
7.40488e-05
6.75797e-05
6.14976e-05
9.00145e-05
4.91531e-05
0.000115843
3.75326e-05
0.000145132
2.73118e-05
0.000177757
1.93598e-05
0.000213287
1.47781e-05
1.48933e-05
0.000250834
-7.52355e-07
2.3902e-05
-2.50196e-06
6.1709e-05
-4.8012e-06
9.10921e-05
-7.26042e-06
0.000113224
-9.5454e-06
0.000129167
-1.13701e-05
0.000139859
-1.2488e-05
0.000146108
-1.26839e-05
0.000148601
-1.17655e-05
0.000147909
-9.55693e-06
0.000144507
-5.89133e-06
0.000138781
-6.05255e-07
0.000131051
6.46742e-06
0.000121575
1.55014e-05
0.000110574
2.66855e-05
9.82363e-05
4.02283e-05
8.47423e-05
5.63619e-05
7.02792e-05
7.53436e-05
5.50672e-05
9.74508e-05
3.93904e-05
0.000122966
2.36379e-05
0.000152143
8.35566e-06
0.000185146
-5.69099e-06
0.000221949
-1.74433e-05
0.000262174
-2.54476e-05
-2.77819e-05
0.00030485
-7.06925e-07
2.4609e-05
-2.26539e-06
6.32674e-05
-4.1921e-06
9.30188e-05
-6.07437e-06
0.000115107
-7.56333e-06
0.000130656
-8.36405e-06
0.00014066
-8.2253e-06
0.00014597
-6.93009e-06
0.000147306
-4.28735e-06
0.000145267
-1.24801e-07
0.000140344
5.71723e-06
0.000132939
1.33914e-05
0.000123376
2.30488e-05
0.000111918
3.48443e-05
9.87782e-05
4.89429e-05
8.41377e-05
6.55263e-05
6.81589e-05
8.48001e-05
5.10054e-05
0.000107
3.2867e-05
0.000132397
1.3994e-05
0.000161288
-5.25362e-06
0.00019398
-2.43362e-05
0.000230729
-4.24398e-05
0.000271635
-5.83491e-05
0.000316436
-7.02488e-05
-7.54889e-05
0.000364143
-6.61792e-07
2.52708e-05
-2.01879e-06
6.46244e-05
-3.54277e-06
9.45428e-05
-4.79005e-06
0.000116354
-5.38976e-06
0.000131256
-5.03108e-06
0.000140301
-3.45105e-06
0.00014439
-4.24017e-07
0.000144279
4.24693e-06
0.000140596
1.07368e-05
0.000133854
1.92039e-05
0.000124472
2.97946e-05
0.000112786
4.26466e-05
9.90659e-05
5.78934e-05
8.35314e-05
7.56689e-05
6.63622e-05
9.61133e-05
4.77144e-05
0.000119382
2.7737e-05
0.000145654
6.59484e-06
0.000175146
-1.54981e-05
0.000208119
-3.82267e-05
0.000244876
-6.10929e-05
0.000285727
-8.32912e-05
0.0003309
-0.000103522
0.00038031
-0.000119659
-0.000128249
0.00043307
-6.13628e-07
2.58844e-05
-1.74939e-06
6.57602e-05
-2.82492e-06
9.56183e-05
-3.3571e-06
0.000116886
-2.94493e-06
0.000130844
-1.25342e-06
0.000138609
2.00073e-06
0.000141135
7.06082e-06
0.000139219
1.4139e-05
0.000133517
2.34227e-05
0.000124571
3.50784e-05
0.000112816
4.9255e-05
9.86092e-05
6.60842e-05
8.22366e-05
8.56829e-05
6.39328e-05
0.000108153
4.38917e-05
0.000133587
2.22804e-05
0.000162071
-7.46746e-07
0.000193696
-2.50296e-05
0.000228572
-5.03743e-05
0.000266852
-7.6507e-05
0.00030875
-0.000102991
0.000354546
-0.000129087
0.000404539
-0.000153515
0.000458861
-0.000173981
-0.000186272
0.000516884
-5.58999e-07
2.64434e-05
-1.44388e-06
6.66451e-05
-2.00903e-06
9.61835e-05
-1.7233e-06
0.0001166
-1.46864e-07
0.000129267
3.0885e-06
0.000135374
8.29613e-06
0.000135928
1.57474e-05
0.000131767
2.5681e-05
0.000123584
3.83084e-05
0.000111943
5.38169e-05
9.73078e-05
7.23702e-05
8.00558e-05
9.4107e-05
6.04998e-05
0.000119138
3.89014e-05
0.000147544
1.54858e-05
0.000179371
-9.54657e-06
0.000214632
-3.60071e-05
0.000253308
-6.37057e-05
0.000295364
-9.24302e-05
0.000340769
-0.000121913
0.000389541
-0.000151762
0.000441785
-0.000181331
0.000497739
-0.000209469
0.000557703
-0.000233945
-0.000250027
0.000621458
-4.94356e-07
2.69377e-05
-1.08842e-06
6.72391e-05
-1.06454e-06
9.61596e-05
1.64993e-07
0.000115371
3.08763e-06
0.000126345
8.11424e-06
0.000130347
1.55983e-05
0.000128444
2.58502e-05
0.000121515
3.91468e-05
0.000110287
5.57361e-05
9.53539e-05
7.58398e-05
7.72041e-05
9.96511e-05
5.62446e-05
0.000127331
3.28202e-05
0.000159001
7.23162e-06
0.000194735
-2.0249e-05
0.000234553
-4.93642e-05
0.000278405
-7.98593e-05
0.00032617
-0.00011147
0.00037765
-0.00014391
0.000432586
-0.000176849
0.000490692
-0.000209868
0.000551727
-0.000242366
0.000615613
-0.000273355
0.000682573
-0.000300905
-0.000320336
0.000752882
-4.15957e-07
2.73537e-05
-6.68498e-07
6.74917e-05
4.03876e-08
9.54507e-05
2.36311e-06
0.000113048
6.84331e-06
0.000121865
1.39436e-05
0.000123247
2.40673e-05
0.00011832
3.7574e-05
0.000108009
5.47894e-05
9.3072e-05
7.60097e-05
7.41336e-05
0.000101503
5.17112e-05
0.000131504
2.62434e-05
0.000166211
-1.8872e-06
0.000205775
-3.23326e-05
0.000250288
-6.47612e-05
0.000299764
-9.88409e-05
0.000354129
-0.000134224
0.000413192
-0.000170533
0.000476626
-0.000207345
0.000543951
-0.000244174
0.000614534
-0.000280451
0.00068763
-0.000315463
0.000762517
-0.000348242
0.000838816
-0.000377204
-0.000398948
0.000917429
-3.19736e-07
2.76734e-05
-1.68568e-07
6.73405e-05
1.33945e-06
9.39427e-05
4.92893e-06
0.000109459
1.12075e-05
0.000115586
2.06979e-05
0.000113757
3.38616e-05
0.000105156
5.11158e-05
9.07545e-05
7.2843e-05
7.13447e-05
9.93953e-05
4.75813e-05
0.000131094
2.00129e-05
0.000168224
-1.08872e-05
0.000211031
-4.46943e-05
0.000259707
-8.10086e-05
0.00031438
-0.000119434
0.000375098
-0.000159559
0.000441807
-0.000200933
0.000514324
-0.00024305
0.000592298
-0.000285319
0.000675152
-0.000327028
0.000762011
-0.00036731
0.000851628
-0.000405079
0.00094234
-0.000438954
0.00103238
-0.00046724
-0.000489829
0.00112326
-2.01171e-07
2.78746e-05
4.28244e-07
6.67111e-05
2.86871e-06
9.15022e-05
7.9236e-06
0.000104404
1.62714e-05
0.000107238
2.85015e-05
0.000101527
4.51399e-05
8.85179e-05
6.66667e-05
6.92277e-05
9.35247e-05
4.44867e-05
0.000126123
1.49831e-05
0.000164835
-1.86992e-05
0.000209995
-5.60472e-05
0.00026189
-9.65894e-05
0.000320754
-0.000139872
0.000386756
-0.000185437
0.000459999
-0.000232801
0.000540506
-0.00028144
0.000628213
-0.000330758
0.000722957
-0.000380063
0.00082444
-0.000428511
0.000932154
-0.000475024
0.0010452
-0.000518127
0.00116173
-0.000555478
0.00127716
-0.000582676
-0.000592494
0.00137983
-5.5717e-08
2.79303e-05
1.13948e-06
6.55159e-05
4.66584e-06
8.79759e-05
1.14108e-05
9.76589e-05
2.21289e-05
9.652e-05
3.74808e-05
8.61749e-05
5.80605e-05
6.79382e-05
8.44112e-05
4.2877e-05
0.000117033
1.18647e-05
0.000156385
-2.43688e-05
0.000202881
-6.51948e-05
0.000256883
-0.000110049
0.000318698
-0.000158404
0.000388569
-0.000209743
0.000466678
-0.000263545
0.000553146
-0.000319269
0.000648052
-0.000376346
0.000751464
-0.00043417
0.0008635
-0.000492099
0.000984437
-0.000549449
0.00111492
-0.000605504
0.00125629
-0.0006595
0.00141142
-0.000710604
0.00158706
-0.000758321
-0.000804312
0.00179888
1.2304e-07
2.78073e-05
1.98636e-06
6.36526e-05
6.77351e-06
8.31887e-05
1.54597e-05
8.89727e-05
2.88788e-05
8.31008e-05
4.77651e-05
6.72886e-05
7.27791e-05
4.29243e-05
0.000104522
1.11339e-05
0.000143541
-2.71544e-05
0.000190327
-7.11542e-05
0.000245305
-0.000120173
0.000308832
-0.000173576
0.000381183
-0.000230755
0.000462551
-0.000291111
0.000553045
-0.000354039
0.0006527
-0.000418925
0.000761499
-0.000485145
0.000879407
-0.000552078
0.00100643
-0.000619123
0.00114271
-0.00068573
0.00128865
-0.000751441
0.0014451
-0.000815945
0.00161361
-0.000879123
0.00179638
-0.000941089
-0.000999569
0.00199164
3.40536e-07
2.74667e-05
2.98866e-06
6.10045e-05
9.23259e-06
7.69448e-05
2.01369e-05
7.80684e-05
3.6616e-05
6.66218e-05
5.94753e-05
4.44293e-05
8.94361e-05
1.29635e-05
0.000127146
-2.65759e-05
0.000173178
-7.31865e-05
0.000228024
-0.000126
0.000292084
-0.000184233
0.000365652
-0.000247144
0.000448908
-0.000314011
0.000541911
-0.000384115
0.000644602
-0.00045673
0.00075681
-0.000531132
0.00087827
-0.000606605
0.00100866
-0.000682464
0.00114761
-0.000758079
0.0012948
-0.000832915
0.00144993
-0.00090657
0.0016128
-0.000978816
0.00178326
-0.00104958
0.00196084
-0.00111868
-0.001182
0.00214328
6.02886e-07
2.68638e-05
4.16704e-06
5.74403e-05
1.20842e-05
6.90277e-05
2.55075e-05
6.46451e-05
4.54288e-05
4.67005e-05
7.27187e-05
1.71393e-05
0.000108147
-2.24645e-05
0.000152385
-7.08144e-05
0.000206003
-0.000126805
0.000269453
-0.00018945
0.000343052
-0.000257832
0.000426968
-0.00033106
0.000521209
-0.000408252
0.000625615
-0.000488521
0.000739861
-0.000570977
0.000863472
-0.000654743
0.000995834
-0.000738968
0.00113623
-0.000822859
0.00128385
-0.000905704
0.00143785
-0.000986909
0.0015973
-0.00106602
0.00176124
-0.00114275
0.00192858
-0.00121693
0.00209805
-0.00128815
-0.00135203
0.00226808
9.16086e-07
2.59478e-05
5.54122e-06
5.28152e-05
1.53664e-05
5.92025e-05
3.1629e-05
4.83825e-05
5.53914e-05
2.2938e-05
8.75768e-05
-1.50461e-05
0.000128982
-6.38699e-05
0.000180275
-0.000122107
0.000241977
-0.000188507
0.000314446
-0.000261919
0.000397852
-0.000341238
0.000492163
-0.000425371
0.000597132
-0.000513221
0.000712297
-0.000603686
0.000836992
-0.000695672
0.000970365
-0.000788116
0.00111141
-0.000880011
0.00125899
-0.000970438
0.00141188
-0.00105859
0.00156879
-0.00114382
0.00172837
-0.00122561
0.00188924
-0.00130362
0.00204994
-0.00137763
0.002209
-0.00144721
-0.00150846
0.00236543
1.2857e-06
2.46621e-05
7.12886e-06
4.6972e-05
1.91117e-05
4.72196e-05
3.85473e-05
2.89469e-05
6.6556e-05
-5.07072e-06
0.000104094
-5.25837e-05
0.000151955
-0.000111731
0.000210759
-0.000180911
0.000280927
-0.000258675
0.000362657
-0.000343649
0.000455897
-0.000434478
0.000560333
-0.000529808
0.000675388
-0.000628275
0.000800227
-0.000728525
0.000933789
-0.000829234
0.00107482
-0.000929145
0.00122191
-0.0010271
0.00137356
-0.00112209
0.00152822
-0.00121325
0.00168431
-0.00129991
0.00184028
-0.00138157
0.0019946
-0.00145794
0.00214581
-0.00152884
0.0022926
-0.001594
-0.0016503
0.00243444
1.7166e-06
2.29455e-05
8.94442e-06
3.97442e-05
2.33445e-05
3.28195e-05
4.6292e-05
5.99951e-06
7.89455e-05
-3.77242e-05
0.000122264
-9.59025e-05
0.000177
-0.000166466
0.000243669
-0.000247581
0.000322529
-0.000337534
0.000413537
-0.000434657
0.000516343
-0.000537284
0.000630275
-0.000643739
0.000754356
-0.000752356
0.000887335
-0.000861504
0.00102773
-0.000969633
0.00117391
-0.00107532
0.00132411
-0.00117731
0.00147657
-0.00127455
0.00162952
-0.0013662
0.0017813
-0.00145168
0.00193034
-0.00153062
0.00207523
-0.00160284
0.00221473
-0.00166834
0.00234783
-0.0017271
-0.00177689
0.00247442
2.21269e-06
2.07328e-05
1.09983e-05
3.09586e-05
2.80792e-05
1.57386e-05
5.48722e-05
-2.07935e-05
9.25466e-05
-7.53986e-05
0.000142026
-0.000145382
0.000203965
-0.000228405
0.000278716
-0.000322331
0.000366289
-0.000425107
0.000466327
-0.000534696
0.0005781
-0.000649056
0.00070051
-0.00076615
0.00083214
-0.000883986
0.000971305
-0.00100067
0.00111613
-0.00111446
0.00126465
-0.00122384
0.00141488
-0.00132753
0.00156488
-0.00142455
0.00171288
-0.0015142
0.00185727
-0.00159607
0.00199667
-0.00167002
0.00212996
-0.00173612
0.00225625
-0.00179463
0.00237495
-0.00184579
-0.00188826
0.00248631
2.77678e-06
1.7956e-05
1.3296e-05
2.04393e-05
3.3318e-05
-4.28332e-06
6.42737e-05
-5.17492e-05
0.000107306
-0.000118431
0.000163251
-0.000201327
0.000232605
-0.000297759
0.000315475
-0.000405202
0.000411547
-0.000521179
0.000520066
-0.000643216
0.000639854
-0.000768843
0.000769345
-0.000895642
0.000906667
-0.00102131
0.00104973
-0.00114373
0.00119633
-0.00126106
0.00134428
-0.00137178
0.00149147
-0.00147472
0.001636
-0.00156908
0.00177622
-0.00165442
0.00191075
-0.00173061
0.00203855
-0.00179782
0.00215887
-0.00185644
0.00227125
-0.00190701
0.00237554
-0.00195008
-0.00198504
0.00247233
3.41042e-06
1.45456e-05
1.58378e-05
8.01197e-06
3.90498e-05
-2.74954e-05
7.44559e-05
-8.71553e-05
0.000123124
-0.000167099
0.000185744
-0.000263947
0.000262574
-0.000374589
0.000353396
-0.000496024
0.000457487
-0.00062527
0.000573624
-0.000759353
0.000700132
-0.000895351
0.000834965
-0.00103047
0.000975821
-0.00116216
0.00112027
-0.00128818
0.0012659
-0.00140669
0.00141043
-0.00151631
0.0015518
-0.0016161
0.00168829
-0.00170557
0.00181851
-0.00178464
0.00194146
-0.00185356
0.00205649
-0.00191286
0.00216329
-0.00196324
0.00226184
-0.00200555
0.00235238
-0.00204062
-0.00206842
0.00243575
4.11382e-06
1.04317e-05
1.86177e-05
-6.4919e-06
4.52493e-05
-5.4127e-05
8.53508e-05
-0.000127257
0.000139857
-0.000221605
0.000209238
-0.000333328
0.000293433
-0.000458785
0.000391812
-0.000594403
0.000503166
-0.000736624
0.000625751
-0.000881938
0.000757379
-0.00102698
0.000895546
-0.00116864
0.00103759
-0.00130421
0.00118087
-0.00143146
0.00132288
-0.0015487
0.00146141
-0.00165484
0.00159461
-0.0017493
0.00172108
-0.00183203
0.0018398
-0.00190337
0.00195022
-0.00196397
0.00205211
-0.00201475
0.00214558
-0.00205671
0.00223099
-0.00209097
0.00230891
-0.00211854
-0.00213985
0.00238034
4.88574e-06
5.546e-06
2.16237e-05
-2.32299e-05
5.18757e-05
-8.43789e-05
9.68616e-05
-0.000172243
0.000157315
-0.000282058
0.000233402
-0.000409415
0.000324658
-0.000550041
0.000429959
-0.000699703
0.00054755
-0.000854215
0.00067514
-0.00100953
0.000810047
-0.00116189
0.000949378
-0.00130797
0.00109023
-0.00144506
0.00122986
-0.00157109
0.00136587
-0.00168471
0.00149626
-0.00178523
0.00161952
-0.00187257
0.00173466
-0.00194717
0.00184112
-0.00200982
0.00193876
-0.00206162
0.00202781
-0.00210379
0.00210871
-0.00213762
0.00218213
-0.00216438
0.00224884
-0.00218525
-0.00220095
0.00230993
5.7234e-06
-1.77406e-07
2.48372e-05
-4.23437e-05
5.88728e-05
-0.000118414
0.000108863
-0.000222233
0.000175261
-0.000348456
0.000257844
-0.000491998
0.000355655
-0.000647851
0.000467006
-0.000811055
0.000589565
-0.000976773
0.0007205
-0.00114046
0.000856696
-0.00129808
0.000994981
-0.00144626
0.00113235
-0.00158243
0.00126613
-0.00170488
0.00139416
-0.00181274
0.0015148
-0.00190586
0.00162698
-0.00198475
0.00173015
-0.00205034
0.00182422
-0.0021039
0.00190948
-0.00214688
0.00198648
-0.00218078
0.00205594
-0.00220709
0.00211873
-0.00222717
0.00217573
-0.00224226
-0.00225325
0.00222804
6.62231e-06
-6.79972e-06
2.82326e-05
-6.3954e-05
6.61683e-05
-0.00015635
0.000121201
-0.000277266
0.000193419
-0.000420674
0.00028212
-0.000580699
0.000385778
-0.000751509
0.000502095
-0.000927372
0.000628152
-0.00110283
0.000760631
-0.00127294
0.000896085
-0.00143354
0.0010312
-0.00158137
0.00116302
-0.00171425
0.00128912
-0.00183098
0.00140769
-0.00193131
0.00151755
-0.00201572
0.0016181
-0.0020853
0.00170926
-0.0021415
0.00179137
-0.00218601
0.00186505
-0.00222056
0.0019311
-0.00224684
0.00199045
-0.00226643
0.00204403
-0.00228075
0.00209278
-0.002291
-0.00229817
0.0021377
7.57618e-06
-1.43759e-05
3.1777e-05
-8.81549e-05
7.36748e-05
-0.000198248
0.000133698
-0.000337289
0.000211479
-0.000498455
0.000305753
-0.000674973
0.000414361
-0.000860118
0.000534376
-0.00104739
0.000662327
-0.00123078
0.000794498
-0.00140511
0.000927242
-0.00156628
0.00105726
-0.00171139
0.00118182
-0.0018388
0.00129885
-0.00194801
0.001407
-0.00203946
0.00150558
-0.00211431
0.0015945
-0.00217421
0.00167409
-0.00222109
0.00174502
-0.00225695
0.00180819
-0.00228372
0.00186455
-0.0023032
0.00191512
-0.002317
0.00196085
-0.00232648
0.00200264
-0.00233279
-0.00233691
0.00204137
8.57681e-06
-2.29527e-05
3.54308e-05
-0.000115009
8.12898e-05
-0.000244107
0.000146152
-0.000402151
0.000229104
-0.000581407
0.000328244
-0.000774113
0.000440743
-0.000972617
0.000563056
-0.0011697
0.000691233
-0.00135896
0.000821282
-0.00153516
0.000949514
-0.00169451
0.00107281
-0.00183468
0.00118877
-0.00195477
0.0012958
-0.00205505
0.00139307
-0.00213672
0.00148038
-0.00220162
0.00155807
-0.0022519
0.00162684
-0.00228986
0.00168762
-0.00231773
0.00174145
-0.00233755
0.00178938
-0.00235114
0.00183243
-0.00236005
0.00187151
-0.00236555
0.00190744
-0.00236872
-0.00237044
0.00194097
9.61404e-06
-3.25668e-05
3.91474e-05
-0.000144542
8.88984e-05
-0.000293858
0.000158344
-0.000471597
0.000245943
-0.000669006
0.000349097
-0.000877267
0.000464299
-0.00108782
0.000587434
-0.00129284
0.000714183
-0.00148571
0.000840425
-0.00166141
0.000962585
-0.00181667
0.00107786
-0.00194996
0.00118432
-0.00206123
0.00128089
-0.00215161
0.00136724
-0.00222307
0.00144364
-0.00227803
0.00151081
-0.00231907
0.00156971
-0.00234876
0.00162143
-0.00236945
0.0016671
-0.00238322
0.00170778
-0.00239181
0.00174442
-0.00239669
0.00177786
-0.002399
0.00180882
-0.00239967
-0.00239954
0.00183791
1.06758e-05
-4.32426e-05
4.28744e-05
-0.000176741
9.63754e-05
-0.000347359
0.000170046
-0.000545267
0.000261643
-0.000760603
0.00036784
-0.000983463
0.000484471
-0.00120445
0.000606941
-0.00141531
0.000730693
-0.00160946
0.000851636
-0.00178235
0.00096646
-0.00193149
0.0010728
-0.0020563
0.00116924
-0.00215767
0.00125526
-0.00223763
0.001331
-0.00229881
0.00139714
-0.00234416
0.00145466
-0.00237659
0.00150471
-0.00239881
0.00154847
-0.00241321
0.00158707
-0.00242181
0.00162151
-0.00242626
0.00165268
-0.00242785
0.0016813
-0.00242762
0.00170799
-0.00242636
-0.00242479
0.00173324
1.17483e-05
-5.49909e-05
4.65541e-05
-0.000211547
0.000103589
-0.000404393
0.000181026
-0.000622704
0.000275864
-0.000855442
0.000384042
-0.00109164
0.000500794
-0.0013212
0.000621159
-0.00153567
0.000740493
-0.00172879
0.000854889
-0.00189674
0.000961432
-0.00203804
0.00105827
-0.00215313
0.00114455
-0.00224395
0.00122024
-0.00231332
0.00128592
-0.0023645
0.00134258
-0.00240082
0.0013914
-0.00242541
0.00143361
-0.00244103
0.00147043
-0.00245003
0.00150291
-0.00245429
0.00153199
-0.00245534
0.00155844
-0.00245431
0.00158289
-0.00245207
0.00160584
-0.00244931
-0.00244661
0.00162766
1.28161e-05
-6.7807e-05
5.01254e-05
-0.000248856
0.000110403
-0.000464671
0.000191056
-0.000703358
0.000288292
-0.000952677
0.000397336
-0.00120069
0.000512915
-0.00143678
0.000629835
-0.00165259
0.000743523
-0.00184248
0.000850396
-0.00200362
0.000948026
-0.00213567
0.00103512
-0.00224023
0.00111136
-0.00232019
0.00117719
-0.00237914
0.00123352
-0.00242083
0.00128156
-0.00244886
0.00132261
-0.00246646
0.00135794
-0.00247636
0.00138869
-0.00248078
0.00141587
-0.00248147
0.00144029
-0.00247976
0.00146262
-0.00247664
0.00148338
-0.00247284
0.00150298
-0.00246891
-0.00246533
0.0015217
1.38628e-05
-8.16698e-05
5.35254e-05
-0.000288519
0.000116685
-0.000527831
0.000199926
-0.000786598
0.000298651
-0.0010514
0.000407432
-0.00130947
0.000520599
-0.00154995
0.00063288
-0.00176487
0.000739916
-0.00194952
0.000838562
-0.00210226
0.000926939
-0.00222404
0.00100432
-0.00231761
0.00107088
-0.00238676
0.00112744
-0.0024357
0.0011752
-0.00246858
0.00121549
-0.00248915
0.00124965
-0.00250063
0.00127893
-0.00250564
0.00130439
-0.00250624
0.00132691
-0.002504
0.00134723
-0.00250007
0.00136589
-0.0024953
0.00138333
-0.00249027
0.00139985
-0.00248544
-0.00248117
0.00141569
1.4871e-05
-9.65408e-05
5.6691e-05
-0.000330338
0.000122308
-0.000593448
0.000207443
-0.000871733
0.000306715
-0.00115067
0.000414125
-0.00141688
0.00052374
-0.00165956
0.000630358
-0.00187149
0.000729969
-0.00204913
0.000819942
-0.00219224
0.000898976
-0.00230308
0.000966876
-0.00238551
0.00102426
-0.00244414
0.00107225
-0.00248369
0.00111222
-0.00250855
0.00114558
-0.00252251
0.00117365
-0.0025287
0.00119759
-0.00252958
0.00121837
-0.00252702
0.00123677
-0.0025224
0.00125341
-0.00251671
0.00126874
-0.00251063
0.00128311
-0.00250464
0.00129676
-0.00249909
-0.00249426
0.00130986
1.58232e-05
-0.000112364
5.95611e-05
-0.000374076
0.000127155
-0.000661042
0.000213444
-0.000958022
0.000312313
-0.00124954
0.000417297
-0.00152186
0.000522346
-0.00176461
0.000622469
-0.00197161
0.000714106
-0.00214076
0.000795193
-0.00227332
0.000864995
-0.00237288
0.000923807
-0.00244432
0.000972607
-0.00249294
0.00101274
-0.00252383
0.00104569
-0.00254149
0.00107285
-0.00254967
0.0010955
-0.00255135
0.0011147
-0.00254878
0.00113131
-0.00254363
0.001146
-0.00253709
0.00115928
-0.00252998
0.00117151
-0.00252287
0.001183
-0.00251612
0.00119391
-0.00251
-0.00250472
0.00120436
1.67019e-05