/*--------------------------------*- C++ -*----------------------------------*\
  =========                 |
  \\      /  F ield         | OpenFOAM: The Open Source CFD Toolbox
   \\    /   O peration     | Website:  https://openfoam.org
    \\  /    A nd           | Version:  6.0
     \\/     M anipulation  |
\*---------------------------------------------------------------------------*/
FoamFile
{
    version     2.0;
    format      ascii;
    class       volVectorField;
    location    "12";
    object      U;
}
// * * * * * * * * * * * * * * * * * * * * * * * * * * * * * * * * * * * * * //

dimensions      [0 1 -1 0 0 0 0];

internalField   nonuniform List<vector> 
12500
(
(-0.000426605 0.000535137 -9.02217e-22)
(-0.00242963 0.00137461 1.29191e-20)
(-0.00625127 0.00202335 -1.88567e-20)
(-0.0111138 0.00252464 8.7094e-21)
(-0.0166168 0.00290922 5.26151e-22)
(-0.022525 0.00320145 -1.08365e-21)
(-0.028656 0.00342182 -1.60866e-20)
(-0.0348778 0.00358756 8.8674e-21)
(-0.0411013 0.00371321 5.88524e-21)
(-0.0472693 0.00381107 5.99788e-21)
(-0.053349 0.00389155 -1.01903e-20)
(-0.059326 0.00396342 5.94482e-21)
(-0.0651999 0.00403402 -2.80846e-21)
(-0.0709807 0.00410941 4.77369e-21)
(-0.0766859 0.0041945 -1.22123e-20)
(-0.0823382 0.00429314 1.76932e-20)
(-0.0879636 0.00440824 -3.37396e-21)
(-0.0935897 0.00454181 -1.25682e-20)
(-0.0992443 0.00469505 6.45089e-21)
(-0.104955 0.00486843 -6.17509e-21)
(-0.110751 0.00506166 5.53614e-21)
(-0.116663 0.00527384 7.33993e-21)
(-0.122671 0.00550412 7.59383e-22)
(-0.128707 0.00575226 -2.10813e-20)
(-0.135065 0.00601301 1.19503e-20)
(-0.000485859 0.00154059 1.64646e-20)
(-0.00256687 0.00393015 -4.41115e-20)
(-0.00642468 0.00575056 1.30926e-20)
(-0.0112948 0.00713406 8.80229e-21)
(-0.0167837 0.00817459 -7.04985e-21)
(-0.0226602 0.00894595 -4.02726e-20)
(-0.0287447 0.00950958 1.2022e-20)
(-0.0349076 0.00991658 -2.2812e-20)
(-0.0410611 0.0102096 2.73905e-20)
(-0.047149 0.0104242 -3.66851e-20)
(-0.0531391 0.0105906 1.96566e-20)
(-0.0590173 0.0107338 6.37662e-21)
(-0.0647837 0.0108749 -1.60989e-20)
(-0.0704482 0.011031 -7.14542e-21)
(-0.0760287 0.0112165 5.23283e-20)
(-0.081548 0.0114423 -4.64187e-20)
(-0.0870323 0.0117172 1.11115e-20)
(-0.0925098 0.012047 1.92791e-20)
(-0.0980084 0.0124356 -4.43339e-21)
(-0.103556 0.0128846 3.12269e-20)
(-0.109184 0.0133935 5.73014e-21)
(-0.114921 0.01396 -1.98949e-21)
(-0.120751 0.0145819 -3.96367e-20)
(-0.126601 0.0152592 3.66396e-20)
(-0.132769 0.0159762 -7.49431e-20)
(-0.000602363 0.00252395 5.28176e-20)
(-0.00283737 0.00643334 1.82255e-20)
(-0.00676791 0.00940504 -2.40455e-20)
(-0.0116548 0.0116563 1.03941e-20)
(-0.0171178 0.0133418 9.77594e-21)
(-0.0229336 0.0145835 3.72956e-20)
(-0.0289287 0.0154827 -4.75824e-20)
(-0.0349772 0.0161235 -7.77193e-21)
(-0.0409943 0.0165761 -3.21174e-20)
(-0.0469258 0.0168992 -2.6916e-20)
(-0.0527406 0.0171423 3.48594e-20)
(-0.0584254 0.0173467 -1.17043e-19)
(-0.0639808 0.0175471 -3.68442e-21)
(-0.0694173 0.017772 -7.06569e-20)
(-0.0747527 0.0180451 -8.3669e-21)
(-0.0800106 0.018385 1.00648e-20)
(-0.0852176 0.0188061 -5.52661e-20)
(-0.0904025 0.019319 -3.46648e-20)
(-0.0955943 0.0199302 -4.11374e-20)
(-0.100822 0.0206429 6.45552e-20)
(-0.106118 0.0214567 2.37205e-20)
(-0.111513 0.022368 -1.0535e-19)
(-0.11699 0.0233736 -5.09316e-20)
(-0.122476 0.0244738 -5.71269e-20)
(-0.128271 0.0256423 1.64978e-19)
(-0.000773516 0.00347196 -1.62254e-21)
(-0.00323617 0.00885253 -4.21281e-20)
(-0.00727619 0.0129425 -2.03935e-20)
(-0.0121906 0.0160378 1.27026e-20)
(-0.0176183 0.0183504 7.9557e-20)
(-0.0233475 0.0200479 -3.60667e-20)
(-0.029213 0.0212697 7.72448e-20)
(-0.0350952 0.0221319 7.38895e-20)
(-0.0409134 0.0227314 4.51532e-20)
(-0.0466161 0.0231492 -6.92694e-22)
(-0.0521742 0.0234539 9.16649e-20)
(-0.0575755 0.0237027 1.59198e-20)
(-0.0628213 0.0239438 7.03789e-20)
(-0.0679226 0.0242176 1.62304e-19)
(-0.0728978 0.024557 -1.88768e-19)
(-0.077771 0.0249889 2.84564e-19)
(-0.0825696 0.0255339 6.21551e-20)
(-0.0873236 0.0262076 -1.37228e-19)
(-0.0920632 0.0270201 -1.95748e-20)
(-0.0968193 0.0279765 5.00998e-20)
(-0.101626 0.0290772 -2.52269e-20)
(-0.106516 0.0303176 -1.5189e-20)
(-0.111476 0.0316939 -1.48504e-20)
(-0.116427 0.0332072 -5.97474e-20)
(-0.121675 0.0348197 2.24024e-19)
(-0.000995668 0.0043729 2.75472e-20)
(-0.00375622 0.0111593 -1.32794e-19)
(-0.00794271 0.0163227 1.62173e-19)
(-0.0128975 0.0202295 -6.49628e-20)
(-0.0182837 0.0231445 7.82145e-20)
(-0.0239041 0.0252776 6.41687e-20)
(-0.0296046 0.0268041 2.4485e-20)
(-0.0352735 0.0278705 1.2195e-21)
(-0.0408356 0.0285991 1.38957e-19)
(-0.046243 0.0290926 9.65662e-20)
(-0.0514691 0.0294377 -3.8857e-20)
(-0.0565032 0.0297076 -2.51503e-20)
(-0.0613476 0.029964 1.06174e-19)
(-0.0660138 0.0302587 2.00381e-20)
(-0.0705211 0.0306348 5.45979e-20)
(-0.074894 0.0311275 1.31152e-19)
(-0.0791611 0.0317648 -1.13559e-19)
(-0.0833536 0.0325677 9.19476e-20)
(-0.0875039 0.0335509 -1.98665e-19)
(-0.0916448 0.0347227 1.67415e-19)
(-0.0958135 0.0360845 1.1322e-21)
(-0.100047 0.0376318 -1.34196e-19)
(-0.104333 0.0393606 5.40587e-20)
(-0.108589 0.0412737 1.23302e-19)
(-0.11313 0.0433208 -1.9434e-19)
(-0.00126436 0.00521702 1.42548e-19)
(-0.00438882 0.0133295 -1.5714e-19)
(-0.00875893 0.0195106 -2.54303e-20)
(-0.0137694 0.0241882 3.23341e-20)
(-0.0191117 0.0276741 -7.01998e-20)
(-0.0246059 0.030217 -1.10047e-19)
(-0.0301115 0.0320255 -9.19986e-20)
(-0.0355262 0.0332743 -2.22921e-20)
(-0.0407815 0.0341096 -1.59765e-19)
(-0.0458342 0.0346548 1.27809e-19)
(-0.0506606 0.0350139 -1.99254e-19)
(-0.0552521 0.0352755 1.01089e-19)
(-0.0596119 0.0355146 -3.36745e-20)
(-0.0637525 0.0357947 7.82813e-20)
(-0.0676935 0.0361692 -1.97458e-19)
(-0.0714603 0.0366825 9.60109e-20)
(-0.0750827 0.0373706 7.19806e-21)
(-0.0785936 0.0382614 4.27977e-20)
(-0.0820276 0.0393752 2.5954e-19)
(-0.0854206 0.0407245 5.77859e-20)
(-0.0888136 0.0423135 -5.13551e-21)
(-0.0922489 0.0441384 1.65719e-20)
(-0.0957176 0.0461963 1.09384e-19)
(-0.0991325 0.0484926 3.1272e-20)
(-0.10282 0.0509637 1.09765e-19)
(-0.00157461 0.00599689 -8.88088e-20)
(-0.00512405 0.0153437 1.30931e-19)
(-0.00971485 0.0224776 8.27621e-21)
(-0.0147988 0.0278776 -1.6207e-19)
(-0.0200987 0.0318967 3.42897e-19)
(-0.0254547 0.0348183 -1.11475e-19)
(-0.0307412 0.0368814 1.636e-19)
(-0.0358673 0.0382865 1.50447e-19)
(-0.0407726 0.039202 -1.25013e-19)
(-0.0454192 0.0397702 -1.82831e-19)
(-0.0497872 0.0401121 5.02319e-20)
(-0.0538701 0.0403305 -5.31733e-20)
(-0.0576724 0.0405133 -2.36217e-19)
(-0.0612073 0.0407359 2.88028e-19)
(-0.0644951 0.0410623 -1.38616e-19)
(-0.0675618 0.0415468 -9.59257e-20)
(-0.0704384 0.0422344 8.62824e-22)
(-0.0731595 0.0431612 7.88222e-20)
(-0.0757627 0.0443548 3.2651e-20)
(-0.0782874 0.0458337 -1.28055e-19)
(-0.0807796 0.0476066 1.46726e-19)
(-0.0832878 0.049672 -2.55611e-19)
(-0.0858091 0.0520294 1.56438e-19)
(-0.088253 0.054689 -1.2037e-19)
(-0.0909588 0.0575726 3.33187e-20)
(-0.00192121 0.00670749 1.29439e-19)
(-0.00595131 0.0171879 -1.03335e-19)
(-0.0107994 0.0252016 -6.61975e-20)
(-0.0159768 0.0312687 -1.17655e-19)
(-0.0212396 0.0357775 -2.16397e-19)
(-0.02645 0.0390421 -1.60808e-19)
(-0.0314993 0.0413282 1.00789e-19)
(-0.0363094 0.0428597 -1.5344e-19)
(-0.0408289 0.0438252 1.95674e-19)
(-0.0450265 0.0443845 -3.19893e-19)
(-0.0488865 0.0446737 1.42722e-19)
(-0.0524049 0.0448093 3.02721e-19)
(-0.0555878 0.0448916 -4.26943e-19)
(-0.058449 0.0450073 6.11653e-20)
(-0.0610091 0.0452315 7.99484e-20)
(-0.0632948 0.0456288 7.76033e-20)
(-0.0653379 0.0462545 -8.34634e-20)
(-0.067175 0.0471545 -2.05024e-20)
(-0.0688465 0.0483655 -6.16497e-20)
(-0.0703964 0.0499144 -5.16282e-20)
(-0.0718762 0.0518168 -2.8442e-19)
(-0.073343 0.0540762 -1.93282e-20)
(-0.0748013 0.0566967 3.15644e-21)
(-0.0761606 0.0596953 -1.29766e-19)
(-0.0777758 0.0629797 1.42147e-19)
(-0.00229902 0.0073463 3.77681e-21)
(-0.00685975 0.0188536 4.22606e-20)
(-0.0120005 0.0276676 4.43467e-20)
(-0.0172927 0.0343407 2.58659e-20)
(-0.022527 0.0392906 2.20312e-19)
(-0.0275887 0.0428578 2.08147e-19)
(-0.0323878 0.0453318 -1.70073e-19)
(-0.0368604 0.0469569 -5.20515e-20)
(-0.0409654 0.0479397 -4.64383e-20)
(-0.0446791 0.0484555 2.4067e-19)
(-0.0479904 0.0486541 8.68251e-20)
(-0.0508986 0.0486642 -1.26789e-19)
(-0.0534112 0.0485977 -1.07819e-19)
(-0.0555428 0.0485521 2.60664e-19)
(-0.057314 0.0486132 -6.4443e-20)
(-0.0587515 0.0488569 -7.842e-20)
(-0.0598879 0.0493495 -1.09869e-19)
(-0.0607613 0.0501485 -8.57812e-20)
(-0.0614151 0.051302 -1.09897e-19)
(-0.061898 0.0528484 -7.21614e-20)
(-0.0622686 0.0548133 3.00441e-19)
(-0.0625936 0.0572085 -1.48305e-19)
(-0.0628883 0.0600465 1.00113e-19)
(-0.0630656 0.0633546 -2.67403e-19)
(-0.0635009 0.067027 1.14289e-19)
(-0.00270323 0.00791306 -1.16358e-19)
(-0.00783863 0.020337 -3.14788e-20)
(-0.0133057 0.0298672 -2.47461e-19)
(-0.0187342 0.0370803 -1.19369e-19)
(-0.0239501 0.0424184 -2.37026e-19)
(-0.028863 0.0462444 -2.48627e-20)
(-0.0334028 0.0488682 1.2845e-19)
(-0.0375211 0.0505521 -7.8658e-20)
(-0.0411886 0.0515181 1.70316e-19)
(-0.0443899 0.051955 -4.15704e-19)
(-0.0471197 0.0520241 -1.21524e-20)
(-0.0493808 0.051865 7.42952e-20)
(-0.0511825 0.0515995 -9.46018e-20)
(-0.0525398 0.0513351 8.64872e-20)
(-0.0534732 0.051168 -6.62562e-20)
(-0.0540091 0.0511852 -1.42573e-19)
(-0.0541798 0.0514649 2.60996e-19)
(-0.0540246 0.0520777 1.62457e-19)
(-0.0535896 0.0530861 -3.36428e-20)
(-0.0529282 0.0545429 1.07908e-19)
(-0.0521069 0.0564881 -2.13336e-19)
(-0.0512039 0.0589469 3.08558e-19)
(-0.0502482 0.0619449 -4.22397e-19)
(-0.0491618 0.0655252 8.71822e-20)
(-0.048347 0.0695707 -1.75582e-19)
(-0.00312953 0.00840949 6.3185e-21)
(-0.00887763 0.021639 -1.0761e-19)
(-0.0147017 0.0317982 1.6034e-19)
(-0.020287 0.0394815 3.30913e-19)
(-0.0254946 0.0451512 -5.49681e-21)
(-0.0302593 0.0491894 3.79142e-20)
(-0.0345322 0.0519233 -1.44057e-19)
(-0.0382819 0.0536305 6.77572e-20)
(-0.0414921 0.0545459 4.69487e-19)
(-0.0441568 0.0548692 -1.06983e-19)
(-0.0462775 0.0547715 -1.26967e-19)
(-0.047861 0.0544009 4.81641e-19)
(-0.0489188 0.0538874 1.57966e-19)
(-0.0494664 0.0533471 7.55125e-20)
(-0.0495238 0.0528853 7.75119e-20)
(-0.0491162 0.0525995 2.11843e-19)
(-0.0482753 0.0525804 -8.17693e-20)
(-0.0470403 0.052913 2.16597e-19)
(-0.0454592 0.0536761 2.94112e-19)
(-0.0435901 0.0549412 -2.51676e-19)
(-0.0415076 0.0567678 3.75058e-19)
(-0.039303 0.0592006 1.34399e-19)
(-0.0370225 0.0622858 -5.10955e-19)
(-0.0346044 0.0660899 7.4084e-19)
(-0.0324873 0.0704892 -6.34371e-19)
(-0.00357422 0.00883887 -2.96763e-19)
(-0.00996694 0.0227642 1.67695e-19)
(-0.0161743 0.0334632 -1.13338e-19)
(-0.0219339 0.0415442 -1.08325e-19)
(-0.0271409 0.0474864 -1.17657e-19)
(-0.0317563 0.0516884 -1.28356e-19)
(-0.0357536 0.0544921 3.5396e-20)
(-0.0391196 0.0561876 3.38183e-19)
(-0.0418524 0.0570205 -7.27397e-20)
(-0.0439569 0.057199 -1.90375e-19)
(-0.0454421 0.0569014 -1.1676e-19)
(-0.0463201 0.0562819 -4.79714e-20)
(-0.0466047 0.0554766 1.42458e-19)
(-0.0463123 0.0546077 -9.12763e-20)
(-0.0454621 0.053788 -2.99116e-19)
(-0.0440776 0.0531242 -3.31255e-19)
(-0.0421887 0.0527188 1.32445e-19)
(-0.0398334 0.0526715 -2.47445e-19)
(-0.0370603 0.0530797 2.15606e-19)
(-0.0339315 0.0540371 -6.10377e-19)
(-0.0305296 0.0556286 4.70467e-19)
(-0.0269604 0.0579261 -6.2402e-19)
(-0.0232906 0.0610065 -1.19763e-20)
(-0.0194834 0.0649705 -2.11727e-19)
(-0.016028 0.0696963 6.5461e-19)
(-0.00403422 0.00920553 4.5538e-19)
(-0.0110972 0.0237196 6.92321e-20)
(-0.0177087 0.0348687 -4.58243e-20)
(-0.0236546 0.0432732 -1.94445e-20)
(-0.0288636 0.0494272 3.64021e-19)
(-0.0333237 0.0537437 1.19064e-19)
(-0.0370317 0.0565772 1.08539e-19)
(-0.0399942 0.0582283 -8.76911e-20)
(-0.042225 0.0589506 3.39802e-19)
(-0.0437411 0.0589586 -1.67875e-19)
(-0.0445608 0.0584352 1.08721e-19)
(-0.0447018 0.0575383 2.77726e-19)
(-0.0441817 0.056407 -1.58165e-19)
(-0.0430179 0.0551672 1.71846e-19)
(-0.0412289 0.0539364 1.6284e-19)
(-0.038836 0.0528277 5.59325e-20)
(-0.0358665 0.0519537 -1.38428e-19)
(-0.0323558 0.0514282 3.8358e-19)
(-0.0283518 0.0513681 -3.5873e-20)
(-0.0239185 0.0518919 -4.16573e-20)
(-0.0191464 0.0531159 4.63551e-19)
(-0.0141561 0.0551485 -3.30973e-19)
(-0.00903862 0.0581097 5.58836e-19)
(-0.00379166 0.0621497 -4.65104e-19)
(0.00102567 0.0671622 6.2919e-19)
(-0.00450702 0.00951432 -2.20081e-19)
(-0.0122593 0.0245136 5.05415e-20)
(-0.0192885 0.0360237 -5.31175e-20)
(-0.0254249 0.0446766 -2.52838e-19)
(-0.0306305 0.0509807 1.47846e-20)
(-0.0349205 0.0553625 1.45604e-19)
(-0.0383166 0.0581874 -5.9544e-19)
(-0.0408461 0.0597646 4.46688e-19)
(-0.0425401 0.0603538 -4.36895e-19)
(-0.0434294 0.0601736 -2.76837e-19)
(-0.0435424 0.0594092 2.49244e-19)
(-0.0429045 0.0582192 -5.41654e-19)
(-0.0415376 0.056743 4.57894e-19)
(-0.0394612 0.0551067 -1.46111e-19)
(-0.0366936 0.0534287 -4.18953e-19)
(-0.0332541 0.0518256 1.03874e-19)
(-0.0291665 0.0504163 -9.78237e-20)
(-0.0244626 0.0493262 3.71126e-20)
(-0.0191875 0.0486902 -1.32587e-19)
(-0.0134058 0.0486535 -4.41537e-19)
(-0.00721404 0.0493681 9.90887e-20)
(-0.000747882 0.0509883 -3.00602e-22)
(0.00587481 0.0536925 -4.59389e-19)
(0.0126112 0.0577009 3.23251e-19)
(0.0188062 0.0629432 -2.9405e-19)
(-0.00499052 0.00977009 8.91159e-20)
(-0.0134441 0.0251553 1.70148e-19)
(-0.0208954 0.036938 2.39591e-19)
(-0.0272161 0.0457639 1.24016e-19)
(-0.0324012 0.0521565 -1.22348e-19)
(-0.0364939 0.0565551 2.93504e-19)
(-0.0395415 0.0593352 2.18331e-19)
(-0.0415937 0.0608135 -7.99005e-20)
(-0.0427 0.0612542 2.86606e-19)
(-0.0429062 0.0608782 -2.96109e-19)
(-0.0422528 0.0598707 -8.7251e-20)
(-0.040774 0.0583888 8.88569e-20)
(-0.0384978 0.056569 1.76636e-19)
(-0.035447 0.0545341 2.14126e-21)
(-0.0316408 0.0523997 1.12602e-19)
(-0.0270973 0.0502808 2.087e-19)
(-0.0218369 0.0482977 -3.56427e-19)
(-0.0158874 0.0465827 4.44386e-19)
(-0.00928955 0.0452848 1.50447e-19)
(-0.00210636 0.044574 5.34167e-20)
(0.00556147 0.0446402 -5.43842e-19)
(0.0135639 0.0456918 7.69991e-20)
(0.0217546 0.0479816 1.20001e-19)
(0.0300361 0.0518264 -2.91061e-20)
(0.0376234 0.0572201 1.44168e-19)
(-0.0054828 0.00997726 6.92179e-21)
(-0.0146419 0.0256529 -4.38203e-19)
(-0.0225086 0.037621 -1.1003e-20)
(-0.0289944 0.0465449 -1.11943e-19)
(-0.0341268 0.0529645 -7.3982e-19)
(-0.0379781 0.0573326 6.42304e-19)
(-0.0406221 0.0600347 -4.59415e-19)
(-0.0421318 0.0613941 -2.32997e-20)
(-0.0425765 0.0616788 -2.19101e-19)
(-0.0420184 0.0611106 3.80465e-19)
(-0.0405111 0.0598731 -4.11205e-19)
(-0.0380994 0.0581201 -1.93287e-19)
(-0.0348191 0.0559828 3.97317e-21)
(-0.0306985 0.0535775 -4.21283e-19)
(-0.0257595 0.0510126 5.76674e-19)
(-0.0200206 0.0483962 -6.70419e-19)
(-0.0135004 0.0458443 1.25401e-21)
(-0.00622293 0.0434883 1.03268e-19)
(0.00177543 0.0414844 -2.59545e-19)
(0.0104349 0.0400213 2.52648e-19)
(0.0196528 0.0393246 -3.59074e-19)
(0.0292663 0.03966 -2.38134e-19)
(0.0391004 0.0413702 4.45058e-19)
(0.0489966 0.0448991 -4.86973e-19)
(0.0579991 0.0503429 -9.75757e-21)
(-0.00598192 0.0101394 -3.57491e-19)
(-0.015842 0.026013 4.25443e-19)
(-0.0241046 0.0380807 -1.32231e-19)
(-0.0307201 0.0470278 2.55968e-19)
(-0.0357492 0.0534135 2.77656e-19)
(-0.0392939 0.0577053 -2.45942e-19)
(-0.0414557 0.0602991 -1.6379e-19)
(-0.0423314 0.0615249 -1.97132e-19)
(-0.042011 0.0616539 1.81322e-19)
(-0.040574 0.0609085 -1.22406e-20)
(-0.0380886 0.0594701 2.66518e-19)
(-0.0346115 0.0574881 2.6371e-19)
(-0.0301884 0.0550869 -3.16271e-19)
(-0.0248551 0.0523737 6.23107e-19)
(-0.0186392 0.0494465 -4.14685e-19)
(-0.0115628 0.0464018 -7.13449e-20)
(-0.00364549 0.0433437 8.12978e-19)
(0.00508989 0.0403946 -3.77481e-19)
(0.0146099 0.0377073 2.41457e-19)
(0.0248579 0.0354782 4.73017e-19)
(0.0357304 0.0339586 -3.07626e-19)
(0.047054 0.0334683 3.24423e-20)
(0.0586272 0.0344484 -2.14087e-20)
(0.0702301 0.0375031 -1.27459e-19)
(0.0806902 0.0428764 2.51095e-19)
(-0.00648563 0.0102591 8.17161e-20)
(-0.0170322 0.0262404 -2.6936e-19)
(-0.025656 0.0383226 1.48278e-19)
(-0.032347 0.0472186 -1.87265e-21)
(-0.0372003 0.0535102 1.12975e-19)
(-0.0403485 0.0576813 -1.95418e-19)
(-0.0419211 0.0601393 1.12391e-19)
(-0.0420395 0.0612212 3.07605e-19)
(-0.0408146 0.0612023 -9.45161e-21)
(-0.0383439 0.0603053 -1.58466e-19)
(-0.0347109 0.0587102 1.59885e-19)
(-0.0299856 0.0565617 -3.71051e-21)
(-0.0242252 0.0539773 -5.10537e-19)
(-0.017476 0.0510547 1.89881e-19)
(-0.00977474 0.0478793 4.20294e-20)
(-0.001151 0.0445323 -7.43094e-20)
(0.00836939 0.0411006 -1.33261e-19)
(0.0187596 0.0376883 5.11499e-19)
(0.0299847 0.0344321 1.25174e-19)
(0.0419881 0.0315203 -2.68933e-19)
(0.054665 0.0292123 -3.25315e-20)
(0.0678325 0.0278662 3.72744e-19)
(0.0812675 0.0280185 -1.74334e-19)
(0.0946982 0.0304614 7.53444e-20)
(0.106691 0.0356371 5.31223e-20)
(-0.00699116 0.0103378 -1.63475e-19)
(-0.018198 0.0263372 1.6863e-19)
(-0.027131 0.0383493 -9.56055e-20)
(-0.0338221 0.0471203 -3.08886e-19)
(-0.038402 0.0532582 -2.86059e-19)
(-0.0410351 0.0572655 -1.27151e-19)
(-0.0418792 0.0595625 -1.05967e-19)
(-0.0410804 0.0604944 -3.14811e-19)
(-0.0387705 0.060341 -1.27818e-19)
(-0.0350649 0.0593271 1.17066e-19)
(-0.0300626 0.0576317 -1.67691e-19)
(-0.0238479 0.0553967 -1.77601e-19)
(-0.0164911 0.0527341 -1.67306e-19)
(-0.00805158 0.0497331 3.05059e-19)
(0.00142097 0.0464674 -6.42587e-19)
(0.0118838 0.0430021 3.68352e-19)
(0.0232981 0.0394034 -6.31704e-19)
(0.0356251 0.0357505 -9.76728e-20)
(0.0488196 0.032152 -3.4922e-19)
(0.0628179 0.0287696 -8.18613e-20)
(0.077509 0.0258456 -1.00036e-19)
(0.0926988 0.0237461 -3.35348e-19)
(0.108149 0.0230797 -3.70804e-20)
(0.12356 0.0248396 2.06655e-19)
(0.137208 0.0297107 -5.61037e-19)
(-0.00749494 0.0103755 1.40229e-19)
(-0.0193224 0.0263032 1.90234e-19)
(-0.0284931 0.0381606 6.704e-19)
(-0.0350847 0.0467332 -1.18408e-19)
(-0.0392656 0.0526585 2.83523e-19)
(-0.0412329 0.0564603 6.79059e-19)
(-0.0411732 0.0585732 -1.86035e-19)
(-0.0392569 0.0593519 2.52959e-19)
(-0.0356361 0.0590821 1.48135e-19)
(-0.0304435 0.0579919 2.69677e-19)
(-0.0237936 0.0562616 -5.41461e-20)
(-0.0157848 0.0540327 3.68129e-20)
(-0.00650216 0.0514146 -9.56058e-20)
(0.00397978 0.0484915 5.18328e-19)
(0.0155942 0.0453286 6.64622e-20)
(0.0282791 0.0419782 4.83926e-19)
(0.0419745 0.0384871 -1.24202e-19)
(0.0566188 0.0349078 4.45473e-19)
(0.0721439 0.0313133 6.28174e-20)
(0.0884654 0.0278223 2.27869e-19)
(0.105455 0.0246316 -9.86805e-20)
(0.122899 0.0220722 -1.79494e-20)
(0.140549 0.0207744 5.46295e-19)
(0.15812 0.0219154 3.37526e-19)
(0.173603 0.0264442 -1.46246e-19)
(-0.0079924 0.0103716 -3.39448e-19)
(-0.0203851 0.0261359 -3.5679e-19)
(-0.0297001 0.0377537 -3.75445e-19)
(-0.0360658 0.0460549 1.38525e-19)
(-0.0396911 0.05171 -2.79763e-19)
(-0.0408072 0.0552663 -4.19086e-20)
(-0.0396293 0.0571744 -1.11033e-19)
(-0.0363517 0.0577994 -4.62598e-19)
(-0.031146 0.0574344 -7.25339e-20)
(-0.0241611 0.0563125 1.19622e-19)
(-0.0155262 0.0546179 -3.76719e-19)
(-0.00535396 0.0524945 5.24225e-19)
(0.00625546 0.0500532 -7.14217e-19)
(0.0192102 0.0473784 1.72541e-19)
(0.0334227 0.0445329 -4.40062e-19)
(0.0488059 0.0415627 -3.58302e-19)
(0.0652697 0.0385027 -2.05195e-20)
(0.0827173 0.035384 -5.45629e-20)
(0.101042 0.0322459 4.29936e-20)
(0.120118 0.0291572 -2.07102e-19)
(0.13978 0.0262464 -1.43742e-19)
(0.159778 0.0237615 1.77256e-19)
(0.179844 0.0222778 -4.91629e-19)
(0.199766 0.0230906 1.60226e-19)
(0.217327 0.0273833 1.18197e-19)
(-0.00847774 0.0103241 -6.01331e-20)
(-0.021362 0.0258309 -1.03413e-19)
(-0.0307032 0.037124 4.0527e-19)
(-0.0366871 0.0450819 1.516e-19)
(-0.0395668 0.0504114 2.01797e-19)
(-0.0396084 0.053685 -2.71026e-19)
(-0.0370565 0.0553704 5.55423e-22)
(-0.0321285 0.0558445 -2.21366e-19)
(-0.0250142 0.0554086 4.11042e-19)
(-0.0158779 0.0543026 1.34719e-19)
(-0.00486275 0.0527165 1.51735e-19)
(0.00790489 0.0507998 -6.05363e-19)
(0.0223092 0.0486692 7.49339e-19)
(0.0382396 0.0464148 -2.2571e-19)
(0.0555848 0.0441047 -1.62079e-19)
(0.0742278 0.0417885 4.87057e-19)
(0.0940407 0.0395012 2.18175e-19)
(0.11488 0.0372663 -5.53613e-19)
(0.136582 0.0351032 -2.32083e-19)
(0.158959 0.0330404 7.01916e-19)
(0.181779 0.0311345 -5.37999e-19)
(0.204724 0.0295149 3.24377e-19)
(0.227476 0.0286078 1.82058e-19)
(0.249948 0.0297013 -2.34645e-19)
(0.269894 0.0341148 -2.34353e-19)
(-0.00894367 0.0102303 -2.2106e-19)
(-0.0222244 0.0253822 3.567e-19)
(-0.0314461 0.0362656 1.52945e-19)
(-0.0368603 0.0438108 -2.22279e-19)
(-0.0387678 0.0487627 -3.57834e-20)
(-0.037472 0.051721 -2.35593e-19)
(-0.0332468 0.053171 -9.42748e-20)
(-0.0263323 0.0535019 1.06413e-19)
(-0.0169361 0.0530239 -2.67485e-20)
(-0.0052372 0.0519847 2.02409e-19)
(0.00860804 0.0505815 -1.76522e-19)
(0.0244592 0.0489716 4.90391e-19)
(0.0421842 0.0472809 -6.10071e-19)
(0.0616523 0.0456102 3.81714e-19)
(0.0827267 0.0440398 4.76006e-19)
(0.105257 0.0426336 -6.90292e-19)
(0.129073 0.041441 -2.10845e-19)
(0.153974 0.0404991 3.56393e-19)
(0.179729 0.0398342 -2.20648e-19)
(0.206063 0.0394663 2.13951e-19)
(0.232641 0.0394116 -5.19781e-19)
(0.259028 0.0396867 8.67122e-20)
(0.28479 0.0405007 3.40913e-19)
(0.309974 0.0429943 -5.50107e-19)
(0.332642 0.0484586 1.54375e-19)
(-0.00938112 0.0100869 -2.04212e-19)
(-0.0229386 0.024783 6.64678e-19)
(-0.0318644 0.0351727 1.28436e-19)
(-0.0364854 0.0422394 -3.49305e-19)
(-0.0371555 0.046768 2.51743e-19)
(-0.034217 0.0493857 1.28615e-19)
(-0.0279742 0.0505957 2.06234e-19)
(-0.0186901 0.0507993 -1.34982e-20)
(-0.00659033 0.0503158 -2.16898e-20)
(0.00813122 0.0494004 -4.56259e-20)
(0.0253039 0.0482578 -1.99827e-19)
(0.044772 0.0470541 -6.81569e-21)
(0.0663855 0.0459251 4.70269e-19)
(0.0899918 0.0449847 -7.74177e-19)
(0.115427 0.0443297 5.52576e-19)
(0.142507 0.0440457 1.12193e-19)
(0.171019 0.04421 1.99054e-19)
(0.200709 0.0448956 -1.03196e-19)
(0.231272 0.0461733 9.16932e-19)
(0.262333 0.0481142 -5.69684e-19)
(0.293422 0.0507809 4.57129e-19)
(0.323895 0.0541892 1.08085e-19)
(0.353044 0.0584492 -3.37086e-19)
(0.38087 0.0646477 2.8636e-19)
(0.406109 0.0737456 4.56852e-19)
(-0.00977896 0.00989013 -5.91962e-20)
(-0.0234646 0.024026 -2.34291e-19)
(-0.0318839 0.0338402 -4.03067e-19)
(-0.0354504 0.0403691 -2.31012e-19)
(-0.0345762 0.0444373 -3.24926e-20)
(-0.0296457 0.0466999 -9.22003e-20)
(-0.0209951 0.0476775 -4.29814e-19)
(-0.00891213 0.0477825 7.16547e-20)
(0.00635845 0.0473425 -4.87356e-19)
(0.0246052 0.046619 -3.79771e-20)
(0.0456399 0.045823 -4.71209e-19)
(0.0692876 0.045127 -1.68461e-19)
(0.0953761 0.0446753 9.70596e-20)
(0.123727 0.0445919 -4.6352e-19)
(0.154148 0.0449879 4.18775e-21)
(0.186424 0.0459691 -4.02107e-19)
(0.220309 0.0476428 1.55835e-19)
(0.255517 0.050127 -5.65213e-19)
(0.291711 0.0535619 -9.72897e-20)
(0.328479 0.0581264 -1.34035e-20)
(0.365288 0.0640439 -9.63899e-20)
(0.401368 0.0715691 -9.8888e-20)
(0.435691 0.081201 -4.92308e-20)
(0.467517 0.0945892 -1.9896e-19)
(0.494636 0.111696 -4.38638e-19)
(-0.0101237 0.00963577 1.08449e-19)
(-0.0237561 0.0231044 2.96809e-19)
(-0.0314206 0.0322654 3.59098e-19)
(-0.0336299 0.0382057 -2.88676e-19)
(-0.0308609 0.0417889 5.39008e-19)
(-0.0235437 0.0436971 -2.94138e-19)
(-0.0120498 0.0444668 1.60613e-19)
(0.00330582 0.0445203 2.51595e-19)
(0.0222545 0.0441912 2.29875e-19)
(0.0445619 0.0437452 1.12273e-19)
(0.0700152 0.0433961 1.82123e-19)
(0.0984113 0.0433187 1.06301e-19)
(0.129546 0.0436591 7.2115e-19)
(0.163207 0.0445433 -5.25911e-19)
(0.199165 0.0460851 6.02608e-19)
(0.237169 0.0483945 -2.51247e-19)
(0.27695 0.0515866 5.44257e-19)
(0.318214 0.0557948 -2.57038e-20)
(0.360654 0.0611897 -1.13342e-19)
(0.403954 0.0680079 -2.06544e-20)
(0.4478 0.0765917 4.32646e-19)
(0.491911 0.0874875 -4.23635e-19)
(0.53631 0.101897 2.985e-19)
(0.581481 0.121973 3.30163e-19)
(0.622859 0.143119 6.89904e-20)
(-0.0103989 0.00931934 7.50065e-20)
(-0.0237592 0.0220117 -4.24159e-19)
(-0.0303793 0.0304483 -1.55125e-19)
(-0.030885 0.0357614 1.42667e-19)
(-0.0258254 0.0388512 -4.41719e-19)
(-0.0156814 0.0404251 -8.75232e-20)
(-0.000864485 0.0410337 6.10634e-20)
(0.0182769 0.0411065 2.42407e-19)
(0.0414428 0.0409806 -6.16375e-19)
(0.0683659 0.0409219 4.70728e-20)
(0.098796 0.0411423 -1.81682e-19)
(0.132487 0.0418121 -5.54263e-19)
(0.169186 0.0430702 3.78995e-19)
(0.208626 0.0450319 1.62945e-20)
(0.25052 0.0477961 -1.14712e-20)
(0.294564 0.0514523 3.86061e-19)
(0.340438 0.0560866 -6.84596e-19)
(0.387819 0.0617907 5.43712e-19)
(0.436392 0.0686705 -1.00851e-19)
(0.485875 0.0768568 3.18551e-19)
(0.536053 0.0865118 -5.25679e-19)
(0.586823 0.0978544 3.01734e-19)
(0.638427 0.111375 -5.40838e-19)
(0.691568 0.127857 5.57128e-19)
(0.740916 0.142426 -1.77517e-19)
(-0.0105851 0.00893629 5.03298e-19)
(-0.0234122 0.020743 -8.50307e-20)
(-0.0286537 0.0283929 6.31652e-19)
(-0.0270636 0.0330558 2.94287e-19)
(-0.0192717 0.035664 2.38012e-20)
(-0.00581668 0.0369479 1.2991e-19)
(0.0128427 0.0374691 3.15497e-20)
(0.0363152 0.0376613 5.34484e-19)
(0.064257 0.0378609 1.72922e-19)
(0.0963523 0.0383294 -2.3307e-20)
(0.132295 0.0392704 4.68246e-20)
(0.171772 0.0408414 1.8097e-19)
(0.214458 0.0431634 1.51608e-19)
(0.260002 0.0463282 3.25578e-19)
(0.308033 0.0504036 -3.72092e-19)
(0.358157 0.0554388 1.12744e-19)
(0.409972 0.0614681 3.43675e-20)
(0.463074 0.0685144 1.67816e-19)
(0.517081 0.0765913 4.55713e-19)
(0.571652 0.0857021 -2.98286e-19)
(0.626512 0.0958301 2.52166e-20)
(0.681471 0.106928 -4.22444e-19)
(0.736525 0.119022 3.99614e-19)
(0.791969 0.13248 -3.8606e-19)
(0.842937 0.144403 3.86417e-20)
(-0.0106595 0.00848246 -4.19702e-19)
(-0.0226454 0.0192958 3.33023e-19)
(-0.0261266 0.0261089 -5.45724e-19)
(-0.0220016 0.0301171 4.73536e-20)
(-0.0109909 0.0322798 3.88725e-19)
(0.00630017 0.0333462 -6.5106e-19)
(0.0293545 0.033885 5.19091e-19)
(0.0577238 0.0343295 -8.27451e-19)
(0.091003 0.0350106 1.65621e-19)
(0.128805 0.036179 3.55679e-20)
(0.170742 0.0380217 2.8162e-19)
(0.216407 0.0406739 -9.39156e-19)
(0.265367 0.0442276 1.62738e-19)
(0.317157 0.048738 1.72983e-19)
(0.371287 0.0542283 -1.04055e-19)
(0.427244 0.060694 -6.4734e-19)
(0.484507 0.0681055 3.05688e-19)
(0.542564 0.0764104 5.73292e-19)
(0.600928 0.0855333 -6.06157e-19)
(0.659159 0.0953729 4.40495e-19)
(0.716877 0.105793 -5.71593e-19)
(0.773766 0.116607 4.16049e-19)
(0.829607 0.127644 -1.1516e-19)
(0.884391 0.139161 6.59218e-19)
(0.934264 0.14992 -7.60035e-19)
(-0.0105958 0.00795441 5.99822e-20)
(-0.0213814 0.017671 4.91283e-20)
(-0.0226714 0.0236122 1.21064e-19)
(-0.0155255 0.026984 4.3518e-19)
(-0.000767213 0.028765 -1.37383e-20)
(0.0209194 0.0297179 9.83411e-20)
(0.0489435 0.0304134 4.40129e-19)
(0.0827801 0.0312784 1.78467e-19)
(0.121938 0.0326312 -5.90763e-20)
(0.165932 0.0347031 5.04986e-19)
(0.214257 0.037655 -5.77387e-19)
(0.266378 0.0415884 8.89256e-19)
(0.321721 0.0465537 -3.5413e-19)
(0.379674 0.0525569 6.44892e-19)
(0.439598 0.0595647 -2.18451e-19)
(0.500836 0.0675095 7.99164e-20)
(0.562733 0.0762934 9.70958e-20)
(0.624659 0.0857911 -1.87989e-19)
(0.686022 0.0958519 1.57851e-19)
(0.746291 0.1063 1.01749e-19)
(0.805004 0.116931 1.40537e-19)
(0.861772 0.127503 2.98027e-19)
(0.916274 0.137779 -2.57977e-20)
(0.968376 0.147943 -1.36726e-19)
(1.01542 0.157993 4.13799e-19)
(-0.0103643 0.00734986 -3.50789e-19)
(-0.0195355 0.0158738 3.85037e-20)
(-0.0181529 0.0209268 -6.96818e-19)
(-0.00745541 0.0237066 -1.67465e-19)
(0.0116163 0.0252005 -3.15503e-19)
(0.0382831 0.0261784 -6.80125e-20)
(0.0718594 0.0272052 -3.41543e-19)
(0.111718 0.0286937 -2.05145e-19)
(0.157249 0.0309399 2.72875e-19)
(0.207833 0.0341451 -4.57414e-19)
(0.262812 0.0384313 -1.27577e-19)
(0.321484 0.0438529 5.09041e-21)
(0.383101 0.050405 -8.68985e-19)
(0.446874 0.0580318 3.70693e-19)
(0.511997 0.0666335 -5.42941e-19)
(0.577661 0.0760735 -1.69884e-20)
(0.643083 0.0861852 1.07737e-19)
(0.707529 0.0967783 -1.75329e-19)
(0.770334 0.107644 -1.54092e-19)
(0.83092 0.118561 7.70536e-20)
(0.888806 0.129294 8.63123e-20)
(0.943606 0.139598 -5.6032e-19)
(0.995012 0.149234 3.2004e-19)
(1.0429 0.158335 1.61259e-19)
(1.08566 0.167711 4.42866e-20)
(-0.00993223 0.00666833 3.58767e-19)
(-0.0170169 0.0139152 -3.97219e-19)
(-0.0124304 0.0180863 5.61161e-19)
(0.00239069 0.0203478 8.79762e-20)
(0.0263711 0.0216831 -2.71073e-20)
(0.058615 0.0228602 -1.92041e-19)
(0.0983152 0.0244285 2.90305e-20)
(0.144708 0.0267755 2.95128e-19)
(0.197028 0.0301627 -4.09034e-19)
(0.254478 0.0347472 4.3151e-19)
(0.316209 0.0405969 -4.57812e-20)
(0.381314 0.0477032 2.01984e-20)
(0.448842 0.0559917 5.67818e-19)
(0.517812 0.0653328 7.63764e-19)
(0.587249 0.0755522 -2.99774e-19)
(0.656204 0.086442 5.34304e-19)
(0.723794 0.0977717 2.72303e-19)
(0.789225 0.109298 -1.6689e-19)
(0.851817 0.120773 5.30428e-19)
(0.911012 0.131954 -2.0324e-20)
(0.966385 0.142608 -5.12183e-19)
(1.01764 0.152513 5.41602e-19)
(1.06457 0.161467 7.81247e-20)
(1.10715 0.169575 -3.36821e-19)
(1.14464 0.178118 1.06512e-19)
(-0.00926406 0.00591173 -4.99035e-19)
(-0.0137303 0.0118135 5.41444e-19)
(-0.0053605 0.0151357 -3.45985e-19)
(0.0141916 0.0169851 -1.08625e-19)
(0.0436946 0.0183263 -2.44816e-19)
(0.0821089 0.0199127 4.35439e-19)
(0.128471 0.0222658 -2.54116e-19)
(0.18184 0.0257333 -1.17061e-19)
(0.24125 0.0305261 -3.36652e-19)
(0.305684 0.0367393 8.7157e-21)
(0.374059 0.0443687 -1.32836e-19)
(0.445235 0.0533258 6.49614e-20)
(0.51804 0.0634524 -6.86062e-19)
(0.591306 0.0745351 1.9613e-19)
(0.663903 0.0863215 -2.3765e-19)
(0.734785 0.0985354 -1.92203e-19)
(0.80302 0.110892 5.93738e-20)
(0.867821 0.123112 -2.82291e-19)
(0.928564 0.134931 -1.218e-19)
(0.98479 0.146109 3.51137e-19)
(1.03621 0.156439 1.49353e-19)
(1.08267 0.165747 -6.35833e-19)
(1.12416 0.173885 4.68781e-19)
(1.16081 0.180963 -8.88127e-20)
(1.19249 0.188454 -1.85364e-19)
(-0.00832199 0.00508498 -1.81798e-19)
(-0.00957758 0.00959522 -1.0096e-19)
(0.00319939 0.0121323 -2.02759e-20)
(0.0281171 0.0137119 1.49846e-19)
(0.063762 0.01526 1.63939e-19)
(0.108917 0.0175011 1.43532e-19)
(0.162419 0.0209113 1.79539e-19)
(0.223104 0.0257802 2.7538e-19)
(0.289759 0.0322478 4.22888e-19)
(0.361099 0.0403264 4.20216e-19)
(0.435775 0.0499198 2.22829e-19)
(0.512399 0.0608428 -6.00735e-20)
(0.589582 0.0728409 1.50423e-20)
(0.665987 0.085612 -2.06607e-20)
(0.740382 0.0988274 1.78943e-19)
(0.811678 0.112153 -4.80492e-20)
(0.878972 0.125266 5.34475e-19)
(0.941565 0.137873 -2.3996e-19)
(0.998967 0.149716 3.88498e-21)
(1.05089 0.160586 1.70745e-19)