/*--------------------------------*- C++ -*----------------------------------*\
  =========                 |
  \\      /  F ield         | OpenFOAM: The Open Source CFD Toolbox
   \\    /   O peration     | Website:  https://openfoam.org
    \\  /    A nd           | Version:  6.0
     \\/     M anipulation  |
\*---------------------------------------------------------------------------*/
FoamFile
{
    version     2.0;
    format      ascii;
    class       volScalarField;
    location    "50";
    object      p;
}
// * * * * * * * * * * * * * * * * * * * * * * * * * * * * * * * * * * * * * //

dimensions      [0 2 -2 0 0 0 0];

internalField   nonuniform List<scalar> 
8000
(
-0.243606
-0.244483
-0.245064
-0.245487
-0.245838
-0.246133
-0.246381
-0.246595
-0.246783
-0.246952
-0.247107
-0.247252
-0.247392
-0.24753
-0.247671
-0.247825
-0.247992
-0.248125
-0.248201
-0.248713
-0.243855
-0.244735
-0.245316
-0.245738
-0.24609
-0.246383
-0.246631
-0.246846
-0.247035
-0.247206
-0.247363
-0.247511
-0.247655
-0.247798
-0.247945
-0.248106
-0.248282
-0.248426
-0.248512
-0.249042
-0.244199
-0.245081
-0.24566
-0.246079
-0.246425
-0.246712
-0.246954
-0.247162
-0.247345
-0.24751
-0.247661
-0.247804
-0.247944
-0.248084
-0.248229
-0.248389
-0.248567
-0.248715
-0.248803
-0.249348
-0.24464
-0.245522
-0.246097
-0.246508
-0.246843
-0.247119
-0.247347
-0.247542
-0.247711
-0.247862
-0.247999
-0.248128
-0.248254
-0.248381
-0.248515
-0.248666
-0.248837
-0.24898
-0.249063
-0.249618
-0.245178
-0.24606
-0.246628
-0.247026
-0.247346
-0.247603
-0.247812
-0.247985
-0.248132
-0.248259
-0.248373
-0.248478
-0.24858
-0.248683
-0.248794
-0.248925
-0.24908
-0.249209
-0.249276
-0.249836
-0.245818
-0.246698
-0.247255
-0.247636
-0.247934
-0.248166
-0.248347
-0.248491
-0.248606
-0.2487
-0.24878
-0.248849
-0.248915
-0.248982
-0.249058
-0.249155
-0.249281
-0.249384
-0.249425
-0.249984
-0.246563
-0.247438
-0.247981
-0.24834
-0.24861
-0.248809
-0.248954
-0.249059
-0.249134
-0.249184
-0.249218
-0.249239
-0.249254
-0.24927
-0.249295
-0.249344
-0.249426
-0.249489
-0.249488
-0.250039
-0.247419
-0.248286
-0.248809
-0.24914
-0.249374
-0.249534
-0.249635
-0.249692
-0.249716
-0.249712
-0.249687
-0.249646
-0.249596
-0.249543
-0.249499
-0.24948
-0.249498
-0.249502
-0.249443
-0.249976
-0.248393
-0.249246
-0.249744
-0.250039
-0.250232
-0.250344
-0.250392
-0.250393
-0.250356
-0.250286
-0.25019
-0.250073
-0.24994
-0.249801
-0.249666
-0.249555
-0.249486
-0.249407
-0.249266
-0.249767
-0.249493
-0.250325
-0.25079
-0.251043
-0.251185
-0.251241
-0.25123
-0.251166
-0.251058
-0.250913
-0.250734
-0.250526
-0.250294
-0.250046
-0.249796
-0.249567
-0.249381
-0.249187
-0.248932
-0.249385
-0.250728
-0.251529
-0.251953
-0.252155
-0.252239
-0.252231
-0.252152
-0.252016
-0.25183
-0.251601
-0.251328
-0.251016
-0.250668
-0.250291
-0.2499
-0.249521
-0.249181
-0.248831
-0.24842
-0.248796
-0.252107
-0.252866
-0.253238
-0.253379
-0.253396
-0.253317
-0.253162
-0.252947
-0.252678
-0.252357
-0.251984
-0.251557
-0.251079
-0.250553
-0.249994
-0.249429
-0.248892
-0.248335
-0.247708
-0.247967
-0.253641
-0.254343
-0.254651
-0.25472
-0.25466
-0.2545
-0.254263
-0.253964
-0.253606
-0.25319
-0.252711
-0.252164
-0.251545
-0.250855
-0.250103
-0.249317
-0.248533
-0.247704
-0.246781
-0.246859
-0.255338
-0.255967
-0.256197
-0.256182
-0.256032
-0.255782
-0.255455
-0.255065
-0.254616
-0.254103
-0.253517
-0.252848
-0.252084
-0.251219
-0.250255
-0.249214
-0.248132
-0.246955
-0.245631
-0.245429
-0.25721
-0.257746
-0.257881
-0.257767
-0.257514
-0.257161
-0.256734
-0.256247
-0.255702
-0.255091
-0.254399
-0.253609
-0.252702
-0.25166
-0.250472
-0.24915
-0.247723
-0.246118
-0.244259
-0.24363
-0.259265
-0.259689
-0.259711
-0.259479
-0.259105
-0.258633
-0.258094
-0.2575
-0.256852
-0.256139
-0.255343
-0.254437
-0.253392
-0.252179
-0.250768
-0.249154
-0.247346
-0.245241
-0.242697
-0.241438
-0.261517
-0.261807
-0.261694
-0.261322
-0.260806
-0.260197
-0.259526
-0.25881
-0.258048
-0.257228
-0.256324
-0.255306
-0.254134
-0.252762
-0.251144
-0.249249
-0.247059
-0.244424
-0.241077
-0.238922
-0.26398
-0.264112
-0.26384
-0.263304
-0.262621
-0.261849
-0.261025
-0.260167
-0.259276
-0.258335
-0.257319
-0.25619
-0.254901
-0.253394
-0.251599
-0.249453
-0.246906
-0.243746
-0.239485
-0.236017
-0.266674
-0.266624
-0.266166
-0.265437
-0.264558
-0.263595
-0.262591
-0.261568
-0.260526
-0.259451
-0.258316
-0.257084
-0.255703
-0.254107
-0.252209
-0.249906
-0.247077
-0.243365
-0.237868
-0.232292
-0.269626
-0.269367
-0.268693
-0.267741
-0.266634
-0.265449
-0.264237
-0.263022
-0.261808
-0.260586
-0.259334
-0.258023
-0.256617
-0.255071
-0.253329
-0.251322
-0.248933
-0.245692
-0.240341
-0.234117
-0.272871
-0.272372
-0.27145
-0.270241
-0.268874
-0.267437
-0.265988
-0.264556
-0.263153
-0.261774
-0.26041
-0.259052
-0.257699
-0.256371
-0.25513
-0.254121
-0.253617
-0.254063
-0.25708
-0.269684
-0.276455
-0.275678
-0.274473
-0.272975
-0.271316
-0.269598
-0.267887
-0.266218
-0.264609
-0.263065
-0.26159
-0.260194
-0.258909
-0.257804
-0.257007
-0.25675
-0.257416
-0.259575
-0.264469
-0.276843
-0.280428
-0.279332
-0.277807
-0.275987
-0.274007
-0.271983
-0.26999
-0.26807
-0.266246
-0.264534
-0.262947
-0.261516
-0.260293
-0.259374
-0.258913
-0.259147
-0.260419
-0.263171
-0.26803
-0.277646
-0.28485
-0.283385
-0.281501
-0.279328
-0.277001
-0.274652
-0.272363
-0.270182
-0.268138
-0.266253
-0.264551
-0.263071
-0.261875
-0.261063
-0.260779
-0.261218
-0.262624
-0.265264
-0.269408
-0.276275
-0.289782
-0.287892
-0.285609
-0.283052
-0.280358
-0.277667
-0.275072
-0.272624
-0.270354
-0.268287
-0.26645
-0.264883
-0.263644
-0.262819
-0.262519
-0.262876
-0.264031
-0.266099
-0.269173
-0.273526
-0.295283
-0.292906
-0.290183
-0.287218
-0.284137
-0.281094
-0.278184
-0.275459
-0.272949
-0.270677
-0.268665
-0.266945
-0.265564
-0.264581
-0.264068
-0.264099
-0.264731
-0.265987
-0.267885
-0.270199
-0.301412
-0.298479
-0.295277
-0.29188
-0.288396
-0.284989
-0.281753
-0.278735
-0.275959
-0.273439
-0.271187
-0.269222
-0.267573
-0.266275
-0.265365
-0.264872
-0.264807
-0.265147
-0.265882
-0.266601
-0.308213
-0.304657
-0.300938
-0.297088
-0.293187
-0.289402
-0.285822
-0.282483
-0.279394
-0.276557
-0.273973
-0.271645
-0.269587
-0.267814
-0.266343
-0.265179
-0.264314
-0.263715
-0.263365
-0.262862
-0.315722
-0.311475
-0.307205
-0.302883
-0.298551
-0.29437
-0.290415
-0.286705
-0.283232
-0.279984
-0.276948
-0.274119
-0.271502
-0.269104
-0.266934
-0.264994
-0.263273
-0.261751
-0.260408
-0.258934
-0.323958
-0.318957
-0.314106
-0.309297
-0.304516
-0.299908
-0.29553
-0.291375
-0.287419
-0.283636
-0.280007
-0.276527
-0.273202
-0.270044
-0.267067
-0.264279
-0.261681
-0.259266
-0.257017
-0.254727
-0.332921
-0.32711
-0.321655
-0.316344
-0.311088
-0.306008
-0.301134
-0.296433
-0.291864
-0.287397
-0.283019
-0.278737
-0.274568
-0.27054
-0.266678
-0.263002
-0.259526
-0.256255
-0.25317
-0.250149
-0.342585
-0.33592
-0.329844
-0.324015
-0.318248
-0.31263
-0.307157
-0.301776
-0.296438
-0.291124
-0.285839
-0.280612
-0.275486
-0.270505
-0.265711
-0.261134
-0.256796
-0.252707
-0.248842
-0.245141
-0.3529
-0.345351
-0.338643
-0.332275
-0.325943
-0.319692
-0.313489
-0.307266
-0.300985
-0.294654
-0.288311
-0.282021
-0.275851
-0.269868
-0.264123
-0.258655
-0.253482
-0.248617
-0.244023
-0.239677
-0.363782
-0.355333
-0.347989
-0.341052
-0.33408
-0.327074
-0.319977
-0.312728
-0.305322
-0.297812
-0.290283
-0.282839
-0.275574
-0.268569
-0.261882
-0.255547
-0.24958
-0.243983
-0.238707
-0.233753
-0.375112
-0.365768
-0.357784
-0.350234
-0.342523
-0.334607
-0.326429
-0.31796
-0.309253
-0.300422
-0.29161
-0.282956
-0.274577
-0.26656
-0.258958
-0.251798
-0.245084
-0.238805
-0.232893
-0.227373
-0.386734
-0.376514
-0.367889
-0.359665
-0.351086
-0.342081
-0.33262
-0.322739
-0.312574
-0.302314
-0.292157
-0.282274
-0.272793
-0.263796
-0.255325
-0.247391
-0.239984
-0.233076
-0.226579
-0.220541
-0.398451
-0.387394
-0.378121
-0.369142
-0.359542
-0.349249
-0.338301
-0.326835
-0.315086
-0.303328
-0.291804
-0.280706
-0.27016
-0.260234
-0.250952
-0.242304
-0.234262
-0.226782
-0.219753
-0.213255
-0.410025
-0.398187
-0.388253
-0.378417
-0.36762
-0.355834
-0.34321
-0.330014
-0.3166
-0.303315
-0.29044
-0.278171
-0.26662
-0.255832
-0.245806
-0.236509
-0.227896
-0.219904
-0.212398
-0.2055
-0.421181
-0.408632
-0.398017
-0.3872
-0.37502
-0.361543
-0.347079
-0.332054
-0.316937
-0.302141
-0.287965
-0.274594
-0.262114
-0.250541
-0.239846
-0.229971
-0.220854
-0.212412
-0.20449
-0.197258
-0.431611
-0.418431
-0.407104
-0.39517
-0.38142
-0.366075
-0.34965
-0.332744
-0.315937
-0.299685
-0.284288
-0.269905
-0.256586
-0.244314
-0.233029
-0.222651
-0.2131
-0.204275
-0.195998
-0.1885
-0.440977
-0.427256
-0.415178
-0.401983
-0.386487
-0.369134
-0.350678
-0.331893
-0.313453
-0.295836
-0.279322
-0.264032
-0.249976
-0.237098
-0.225309
-0.214507
-0.204597
-0.195456
-0.18689
-0.179197
-0.448922
-0.434756
-0.42188
-0.407281
-0.389892
-0.370439
-0.349937
-0.329329
-0.309355
-0.290495
-0.272989
-0.256912
-0.242227
-0.228842
-0.216639
-0.205497
-0.195304
-0.185919
-0.177133
-0.169317
-0.455078
-0.440567
-0.426842
-0.410713
-0.391321
-0.369731
-0.347228
-0.324901
-0.303532
-0.283573
-0.265217
-0.24848
-0.233283
-0.219496
-0.206975
-0.19558
-0.185185
-0.17563
-0.166695
-0.158829
-0.45908
-0.444322
-0.429702
-0.411937
-0.390483
-0.36678
-0.342377
-0.318482
-0.295884
-0.274993
-0.255939
-0.238682
-0.223094
-0.209015
-0.196274
-0.184717
-0.174205
-0.164558
-0.155548
-0.147708
-0.46057
-0.445664
-0.430111
-0.410642
-0.387122
-0.361392
-0.335243
-0.309965
-0.286332
-0.264689
-0.245099
-0.227465
-0.211616
-0.197358
-0.184502
-0.172878
-0.162337
-0.152678
-0.143671
-0.135934
-0.459217
-0.444259
-0.427748
-0.406549
-0.381019
-0.353406
-0.325709
-0.299268
-0.27481
-0.252608
-0.232652
-0.21479
-0.19881
-0.184493
-0.171629
-0.160037
-0.149558
-0.139971
-0.131049
-0.123492
-0.454718
-0.439802
-0.422332
-0.399424
-0.372
-0.3427
-0.313694
-0.28633
-0.261271
-0.238709
-0.218561
-0.200624
-0.18465
-0.170395
-0.157634
-0.146178
-0.135854
-0.126427
-0.117673
-0.110375
-0.446814
-0.432033
-0.413626
-0.389083
-0.359937
-0.329192
-0.299142
-0.271114
-0.245687
-0.222967
-0.202804
-0.184947
-0.169117
-0.155049
-0.142506
-0.13129
-0.12122
-0.112044
-0.103545
-0.0965837
-0.435295
-0.420742
-0.40145
-0.375396
-0.344749
-0.312837
-0.282031
-0.253605
-0.228046
-0.205372
-0.185372
-0.167751
-0.152204
-0.13845
-0.126242
-0.115375
-0.105659
-0.0968271
-0.0886749
-0.0821282
-0.42001
-0.405774
-0.385681
-0.358288
-0.326403
-0.293629
-0.262367
-0.233814
-0.208357
-0.185931
-0.166269
-0.149038
-0.133915
-0.120603
-0.108848
-0.0984402
-0.0891823
-0.0807941
-0.0730832
-0.0670316
-0.400864
-0.387037
-0.366257
-0.337738
-0.304913
-0.271599
-0.240186
-0.211774
-0.186649
-0.164668
-0.145514
-0.128826
-0.114263
-0.10152
-0.0903374
-0.0805018
-0.0718091
-0.0639687
-0.0568014
-0.0513322
-0.377829
-0.364505
-0.343179
-0.313785
-0.28034
-0.246816
-0.215553
-0.187543
-0.16297
-0.141622
-0.12314
-0.107141
-0.0932715
-0.0812217
-0.0707292
-0.0615784
-0.0535599
-0.0463766
-0.0398643
-0.0350722
-0.350942
-0.338213
-0.316511
-0.286517
-0.252785
-0.219382
-0.188564
-0.161203
-0.137391
-0.116853
-0.0991961
-0.0840227
-0.0709728
-0.0597346
-0.0500457
-0.0416899
-0.0344548
-0.0280428
-0.0223037
-0.0182758
-0.320302
-0.308263
-0.286373
-0.256076
-0.222396
-0.189436
-0.159341
-0.132863
-0.110003
-0.090436
-0.0737443
-0.059521
-0.0474052
-0.0370877
-0.0283089
-0.0208544
-0.0145124
-0.00899121
-0.00414345
-0.000936118
-0.286072
-0.274817
-0.252944
-0.22265
-0.189358
-0.15715
-0.128038
-0.102656
-0.0809215
-0.0624689
-0.046864
-0.0336978
-0.0226138
-0.0133102
-0.00553541
0.000919037
0.00625863
0.0107653
0.0146072
0.0169477
-0.248474
-0.238095
-0.216455
-0.186472
-0.153892
-0.122726
-0.0948375
-0.0707414
-0.0502858
-0.0330709
-0.0186543
-0.00663087
0.00334554
0.0115635
0.0182603
0.0236321
0.0278726
0.031247
0.0339455
0.0352553
-0.207781
-0.19837
-0.177182
-0.147814
-0.116255
-0.0863978
-0.0599488
-0.0373078
-0.0182612
-0.0023851
0.0107648
0.0215838
0.0304017
0.037486
0.0430518
0.0472795
0.0503463
0.0524636
0.0537593
0.0536047
-0.164318
-0.15596
-0.135443
-0.106984
-0.0767341
-0.0484294
-0.0236108
-0.00257021
0.0149599
0.0294209
0.041254
0.05084
0.0584858
0.0644272
0.0688456
0.0719
0.0737281
0.0743706
0.0737314
0.0715514
-0.118447
-0.111224
-0.0915912
-0.0643192
-0.0356429
-0.00910954
0.0139101
0.0332255
0.0491517
0.0621444
0.072642
0.0810126
0.0875409
0.0924292
0.095822
0.0978471
0.0985301
0.0975239
0.0943807
0.0901005
-0.0705694
-0.0645533
-0.0460075
-0.0201803
0.00668281
0.0312504
0.0523223
0.0698024
0.0840479
0.0955281
0.104683
0.111879
0.117399
0.121443
0.124169
0.125722
0.126005
0.124188
0.119579
0.114917
-0.0211096
-0.0163648
0.000906057
0.0250545
0.049892
0.0723237
0.0913171
0.106862
0.119351
0.129263
0.13704
0.143054
0.1476
0.150918
0.153247
0.154859
0.15573
0.154899
0.152102
0.155487
0.0294941
0.0329113
0.0487356
0.0709975
0.0936257
0.113777
0.13058
0.144102
0.154761
0.163041
0.169377
0.174135
0.177612
0.180056
0.181726
0.18288
0.183508
0.183146
0.182671
0.188189
0.0807852
0.0828295
0.0970577
0.117256
0.137523
0.155275
0.169798
0.181224
0.189991
0.19658
0.201417
0.20486
0.207198
0.208681
0.209555
0.210037
0.210111
0.209491
0.209066
0.213495
0.132303
0.132942
0.145449
0.163439
0.181225
0.196492
0.208667
0.217941
0.224766
0.229611
0.232889
0.234942
0.236048
0.236443
0.236353
0.235974
0.235302
0.234117
0.233155
0.236115
0.183588
0.182802
0.193489
0.209161
0.224384
0.237107
0.246894
0.253985
0.258836
0.261903
0.263583
0.264196
0.264003
0.263221
0.262053
0.260663
0.259038
0.256982
0.255172
0.256761
0.234187
0.23197
0.240766
0.254047
0.26666
0.276814
0.284201
0.289101
0.291968
0.293246
0.293306
0.292452
0.290922
0.288914
0.28661
0.284146
0.281494
0.278481
0.27575
0.276023
0.283658
0.280017
0.286882
0.297736
0.307726
0.315319
0.320323
0.323049
0.323949
0.323446
0.321892
0.319566
0.316689
0.313438
0.309974
0.30641
0.302707
0.298718
0.29506
0.29409
0.33157
0.32653
0.331452
0.339879
0.347272
0.352344
0.355008
0.355605
0.354577
0.352327
0.349185
0.34541
0.341202
0.336721
0.332107
0.327454
0.322718
0.31778
0.313219
0.311066
0.377515
0.371112
0.37411
0.380147
0.385001
0.387623
0.388021
0.386556
0.38366
0.379719
0.375038
0.369857
0.364357
0.35868
0.35295
0.347244
0.341516
0.335671
0.330246
0.32697
0.421103
0.413389
0.41451
0.418226
0.420635
0.420906
0.419135
0.4157
0.411021
0.405463
0.399312
0.392786
0.386051
0.379232
0.372437
0.365729
0.359065
0.352369
0.346124
0.341789
0.461966
0.453009
0.452328
0.453826
0.453911
0.451959
0.448142
0.442849
0.43649
0.429409
0.421872
0.41408
0.40618
0.398287
0.390492
0.382846
0.37531
0.367824
0.360811
0.355482
0.499764
0.489644
0.487262
0.486676
0.484588
0.480565
0.474845
0.467827
0.459907
0.451412
0.442589
0.433622
0.424644
0.415756
0.407035
0.398524
0.390188
0.381978
0.374254
0.368003
0.534185
0.522996
0.519036
0.516527
0.512444
0.506523
0.499063
0.490469
0.481124
0.471339
0.461342
0.451303
0.441343
0.431548
0.421985
0.412689
0.403629
0.394767
0.386393
0.379298
0.564945
0.552791
0.547403
0.543155
0.537276
0.529652
0.520632
0.510626
0.500007
0.489066
0.478019
0.467022
0.456183
0.445578
0.435264
0.425269
0.415566
0.406124
0.397169
0.389314
0.591792
0.578791
0.57214
0.56636
0.558905
0.54979
0.539406
0.528166
0.516431
0.504482
0.492518
0.480684
0.469078
0.457767
0.446798
0.436194
0.425934
0.415989
0.406524
0.398003
0.614509
0.600786
0.593055
0.585971
0.577176
0.566795
0.555255
0.54297
0.530292
0.517488
0.504749
0.492207
0.479952
0.468044
0.456522
0.445404
0.434674
0.424305
0.414407
0.405319
0.632909
0.618599
0.609988
0.601841
0.591956
0.580549
0.568072
0.554939
0.541496
0.528001
0.514633
0.501518
0.488738
0.476347
0.464377
0.452845
0.441735
0.431024
0.420773
0.411224
0.646845
0.632089
0.622807
0.613852
0.603141
0.590955
0.577767
0.563993
0.549971
0.535952
0.522108
0.508559
0.495382
0.482625
0.470317
0.45847
0.447075
0.436105
0.425586
0.415686
0.656205
0.641148
0.631414
0.621915
0.610648
0.59794
0.584275
0.57007
0.55566
0.541288
0.527126
0.513285
0.499842
0.48684
0.474305
0.462248
0.45066
0.439517
0.428818
0.418681
0.660912
0.645705
0.635744
0.625971
0.614425
0.601454
0.58755
0.573129
0.558524
0.543976
0.529653
0.515667
0.50209
0.488965
0.476316
0.464153
0.45247
0.441239
0.43045
0.420194
0.66093
0.645724
0.635763
0.62599
0.614445
0.601474
0.587571
0.57315
0.558545
0.543998
0.529675
0.515689
0.502112
0.488987
0.476339
0.464176
0.452492
0.441262
0.430472
0.420216
0.65626
0.641205
0.631472
0.621973
0.610708
0.598
0.584337
0.570133
0.555724
0.541353
0.527191
0.513352
0.499909
0.486907
0.474372
0.462315
0.450728
0.439584
0.428886
0.418748
0.646938
0.632185
0.622904
0.61395
0.603241
0.591057
0.577871
0.564099
0.550079
0.53606
0.522218
0.50867
0.495494
0.482738
0.47043
0.458584
0.447188
0.436218
0.425699
0.415797
0.633042
0.618737
0.610127
0.601981
0.592099
0.580694
0.568219
0.555089
0.541648
0.528155
0.514788
0.501675
0.488896
0.476505
0.464537
0.453004
0.441895
0.431183
0.420932
0.41138
0.614685
0.600968
0.593239
0.586156
0.577363
0.566985
0.555448
0.543165
0.53049
0.517688
0.504951
0.492411
0.480157
0.46825
0.456728
0.445611
0.434881
0.424511
0.414612
0.405521
0.592016
0.579022
0.572371
0.566593
0.55914
0.550027
0.539646
0.528409
0.516678
0.50473
0.492769
0.480937
0.469331
0.458021
0.447053
0.436449
0.426188
0.416243
0.406776
0.398251
0.565221
0.553075
0.547687
0.543439
0.537562
0.529941
0.520924
0.510921
0.500304
0.489365
0.478321
0.467325
0.456486
0.445882
0.435568
0.425572
0.415869
0.406427
0.39747
0.38961
0.534519
0.523338
0.519378
0.516867
0.512785
0.506866
0.499409
0.490817
0.481475
0.471691
0.461696
0.451659
0.441699
0.431904
0.422341
0.413044
0.403983
0.395119
0.386744
0.379642
0.500163
0.490052
0.487667
0.487078
0.48499
0.480967
0.475249
0.468232
0.460314
0.451821
0.442999
0.434032
0.425055
0.416166
0.407444
0.398932
0.390594
0.382383
0.374656
0.368397
0.462437
0.453488
0.452803
0.454296
0.454379
0.452426
0.448609
0.443317
0.436958
0.429877
0.422341
0.414548
0.406648
0.398754
0.390957
0.383309
0.375771
0.368282
0.361266
0.355928
0.421654
0.413949
0.415063
0.418771
0.421174
0.421442
0.41967
0.416234
0.411554
0.405995
0.399843
0.393316
0.386579
0.379758
0.37296
0.36625
0.359582
0.352882
0.346633
0.342287
0.378155
0.37176
0.374749
0.380773
0.385618
0.388234
0.388628
0.38716
0.384263
0.380319
0.375636
0.370452
0.364948
0.359269
0.353535
0.347824
0.342092
0.336242
0.330812
0.327524
0.332308
0.327275
0.332184
0.340595
0.347974
0.353037
0.355695
0.356286
0.355253
0.352999
0.349853
0.346073
0.341861
0.337375
0.332756
0.328097
0.323355
0.318411
0.313844
0.311676
0.284503
0.280869
0.287717
0.298549
0.308521
0.316101
0.321094
0.323812
0.324705
0.324195
0.322635
0.320303
0.317419
0.314162
0.31069
0.307119
0.303408
0.299413
0.295747
0.29476
0.235151
0.232938
0.241713
0.254966
0.267555
0.27769
0.285063
0.289951
0.292808
0.294076
0.294128
0.293265
0.291726
0.289711
0.287397
0.284925
0.282263
0.279242
0.276502
0.276756
0.18468
0.183897
0.194557
0.210195
0.225388
0.238086
0.247854
0.254929
0.259766
0.262821
0.264489
0.265091
0.264887
0.264095
0.262916
0.261515
0.259878
0.257813
0.255993
0.257559
0.133534
0.134175
0.146649
0.164597
0.182346
0.197582
0.209732
0.218986
0.225792
0.230621
0.233885
0.235924
0.237016
0.237398
0.237296
0.236903
0.236218
0.235023
0.234048
0.236983
0.0821659
0.0842107
0.0983999
0.118547
0.138769
0.156484
0.170975
0.182375
0.191119
0.197688
0.202507
0.205933
0.208255
0.209723
0.210582
0.211048
0.211109
0.210477
0.210039
0.214439
0.0310353
0.034451
0.0502296
0.0724318
0.0950054
0.115111
0.131876
0.145365
0.155997
0.164252
0.170566
0.175304
0.178762
0.181189
0.182842
0.183979
0.184591
0.184217
0.18373
0.189216
-0.0193976
-0.0146562
0.00256179
0.0266409
0.0514139
0.073791
0.0927386
0.108245
0.120701
0.130583
0.138334
0.144323
0.148848
0.152146
0.154456
0.15605
0.156904
0.156061
0.153259
0.156619
-0.0686766
-0.0626662
-0.0441803
-0.0184328
0.00835516
0.0328584
0.0538762
0.0713104
0.0855163
0.0969616
0.106085
0.113253
0.118748
0.12277
0.125476
0.12701
0.127278
0.12545
0.120838
0.116177
-0.116365
-0.109149
-0.0895836
-0.0624019
-0.0338121
-0.00735361
0.0156028
0.0348643
0.050744
0.0636959
0.0741572
0.0824953
0.0889945
0.0938567
0.0972264
0.0992311
0.0998963
0.0988758
0.0957231
0.0914406
-0.162037
-0.153689
-0.133246
-0.104889
-0.0747373
-0.0465188
-0.0217734
-0.000795376
0.0166806
0.0310941
0.0428851
0.0524333
0.0600452
0.065956
0.0703467
0.0733763
0.0751817
0.0758035
0.0751467
0.0729568
-0.205294
-0.195895
-0.174789
-0.145533
-0.114085
-0.0843263
-0.0579613
-0.0353922
-0.0164079
-0.000586615
0.0125146
0.0232897
0.0320681
0.0391165
0.0446495
0.0488472
0.0518863
0.0539771
0.0552486
0.055078
-0.245775
-0.23541
-0.213858
-0.183999
-0.151543
-0.120487
-0.0926948
-0.0686808
-0.0482963
-0.0311442
-0.0167835
-0.00481034
0.00512043
0.0132967
0.0199552
0.0252919
0.0294994
0.0328421
0.0355111
0.0368
-0.283157
-0.271917
-0.250139
-0.219979
-0.186824
-0.15474
-0.125736
-0.100446
-0.0787927
-0.0604113
-0.0448699
-0.031761
-0.0207291
-0.0114733
-0.00374248
0.00267124
0.00797261
0.0124424
0.0162498
0.0185648
-0.317167
-0.305145
-0.283355
-0.253203
-0.219673
-0.186851
-0.156875
-0.130501
-0.107732
-0.0882451
-0.071625
-0.0574664
-0.0454096
-0.0351462
-0.0264174
-0.0190093
-0.0127109
-0.00723173
-0.00242348
0.000753652
-0.347586
-0.334875
-0.313278
-0.283438
-0.249869
-0.216617
-0.185931
-0.158687
-0.134975
-0.114527
-0.09695
-0.0818491
-0.0688652
-0.0576877
-0.048055
-0.0397514
-0.0325653
-0.0262005
-0.0205059
-0.016513
-0.374254
-0.360949
-0.339731
-0.310499
-0.277228
-0.243868
-0.212752
-0.184869
-0.160408
-0.139159
-0.120766
-0.104847
-0.091051
-0.0790686
-0.0686386
-0.0595458
-0.0515818
-0.0444509
-0.0379879
-0.0332358
-0.397072
-0.383266
-0.362594
-0.334245
-0.301605
-0.268468
-0.237214
-0.208941
-0.183939
-0.162067
-0.143011
-0.126411
-0.111929
-0.09926
-0.0881464
-0.0783747
-0.069742
-0.061959
-0.054846
-0.0494216
-0.416007
-0.401792
-0.381808
-0.354589
-0.322899
-0.290313
-0.259223
-0.230822
-0.205499
-0.183192
-0.163636
-0.146502
-0.131467
-0.118236
-0.106556
-0.0962183
-0.0870259
-0.0787003
-0.0710485
-0.0650468
-0.431089
-0.416557
-0.397374
-0.371496
-0.34105
-0.309338
-0.278716
-0.250453
-0.225039
-0.202494
-0.18261
-0.165093
-0.149642
-0.135976
-0.12385
-0.113058
-0.103413
-0.094649
-0.0865609
-0.0800691
-0.442414
-0.427656
-0.409355
-0.384988
-0.356048
-0.325511
-0.295656
-0.267803
-0.242532
-0.21995
-0.199912
-0.182168
-0.166441
-0.152468
-0.140013
-0.128879
-0.118885
-0.109782
-0.101352
-0.0944506
-0.450136
-0.435245
-0.417876
-0.395141
-0.367926
-0.338842
-0.31004
-0.282861
-0.257969
-0.235554
-0.21554
-0.197724
-0.18186
-0.167707
-0.155041
-0.143672
-0.13343
-0.124082
-0.115402
-0.108168
-0.454469
-0.439536
-0.423122
-0.40209
-0.376768
-0.349375
-0.32189
-0.295644
-0.271361
-0.249316
-0.229503
-0.211769
-0.195908
-0.181699
-0.168935
-0.157437
-0.147045
-0.137542
-0.128699
-0.121212
-0.455671
-0.440792
-0.425329
-0.40602
-0.382704
-0.357195
-0.331263
-0.306189
-0.282739
-0.261263
-0.241823
-0.224325
-0.208601
-0.194458
-0.181709
-0.170185
-0.159737
-0.150166
-0.141244
-0.133582
-0.454047
-0.439318
-0.424783
-0.407167
-0.38591
-0.362427
-0.338244
-0.314557
-0.292151
-0.271433
-0.252537
-0.235424
-0.219968
-0.20601
-0.193383
-0.181931
-0.171518
-0.161964
-0.153044
-0.145286
-0.449931
-0.435451
-0.421804
-0.405812
-0.386607
-0.365231
-0.342947
-0.320833
-0.299661
-0.279883
-0.261691
-0.245106
-0.230047
-0.216388
-0.203985
-0.192702
-0.182411
-0.172955
-0.164115
-0.156336
-0.44368
-0.429549
-0.416742
-0.402268
-0.385053
-0.365805
-0.345519
-0.325124
-0.305351
-0.286677
-0.269342
-0.253422
-0.238881
-0.225631
-0.213553
-0.202528
-0.192445
-0.183164
-0.174478
-0.166754
-0.43566
-0.421977
-0.409962
-0.396878
-0.381541
-0.364381
-0.346133
-0.327559
-0.30932
-0.291893
-0.275556
-0.260429
-0.246523
-0.233785
-0.222126
-0.211448
-0.201653
-0.192621
-0.184161
-0.176566
-0.426239
-0.413099
-0.40183
-0.389993
-0.376385
-0.361218
-0.344991
-0.328289
-0.311683
-0.295622
-0.280405
-0.266189
-0.253026
-0.240899
-0.22975
-0.219501
-0.210071
-0.201361
-0.193195
-0.185801
-0.415772
-0.403267
-0.392704
-0.381972
-0.369917
-0.356599
-0.342319
-0.327489
-0.312568
-0.297962
-0.283968
-0.270768
-0.258448
-0.247025
-0.236471
-0.22673
-0.21774
-0.209419
-0.201612
-0.194491
-0.404597
-0.392807
-0.382921
-0.373157
-0.362467
-0.350822
-0.338364
-0.325351
-0.312124
-0.299026
-0.286332
-0.274235
-0.262847
-0.252213
-0.242334
-0.233176
-0.224696
-0.21683
-0.209446
-0.202665
-0.39302
-0.382014
-0.372785
-0.363869
-0.354359
-0.344187
-0.333387
-0.322086
-0.310514
-0.298935
-0.287588
-0.276662
-0.266281
-0.256513
-0.247382
-0.238878
-0.230974
-0.223627
-0.216725
-0.21035
-0.381315
-0.371148
-0.362565
-0.354395
-0.345891
-0.336988
-0.327654
-0.317921
-0.307916
-0.297825
-0.287839
-0.278124
-0.268808
-0.259971
-0.251654
-0.243869
-0.236605
-0.229836
-0.223473
-0.217565
-0.369717
-0.360427
-0.352484
-0.344981
-0.337332
-0.3295
-0.321429
-0.313086
-0.304522
-0.295845
-0.287194
-0.278702
-0.270486
-0.262629
-0.255184
-0.248177
-0.241612
-0.235477
-0.229706
-0.224322
-0.358421
-0.350028
-0.342724
-0.335828
-0.328908
-0.32197
-0.314959
-0.307815
-0.300532
-0.293158
-0.285776
-0.278485
-0.271377
-0.26453
-0.258001
-0.251822
-0.246009
-0.240563
-0.235434
-0.230623
-0.347582
-0.340087
-0.33342
-0.32709
-0.320801
-0.314604
-0.308469
-0.30233
-0.29615
-0.289934
-0.283721
-0.277571
-0.271549
-0.265719
-0.260131
-0.25482
-0.249806
-0.245097
-0.240658
-0.236463
-0.337315
-0.330705
-0.324668
-0.318875
-0.313145
-0.307569
-0.302149
-0.296831
-0.291572
-0.286352
-0.281176
-0.276072
-0.27108
-0.266245
-0.261603
-0.257185
-0.253008
-0.249082
-0.24538
-0.241837
-0.327702
-0.321945
-0.31653
-0.311254
-0.30603
-0.300985
-0.296148
-0.291492
-0.28698
-0.282584
-0.278293
-0.274113
-0.270063
-0.266168
-0.262451
-0.258932
-0.25562
-0.252517
-0.249604
-0.24675
-0.318793
-0.313844
-0.309034
-0.304259
-0.299507
-0.294927
-0.290575
-0.286449
-0.28253
-0.278794
-0.275227
-0.271827
-0.268601
-0.265561
-0.262719
-0.260083
-0.257649
-0.255409
-0.253341
-0.251228
-0.310608
-0.306413
-0.302184
-0.297897
-0.293593
-0.289433
-0.285496
-0.2818
-0.278346
-0.275123
-0.272125
-0.269352
-0.266811
-0.264511
-0.262463
-0.260666
-0.259108
-0.257766
-0.256617
-0.255334
-0.303148
-0.299644
-0.295967
-0.292152
-0.288278
-0.284511
-0.28094
-0.277603
-0.274516
-0.271685
-0.269115
-0.266818
-0.264812
-0.263116
-0.261748
-0.260717
-0.260011
-0.259597
-0.259453
-0.259162
-0.296391
-0.293511
-0.290353
-0.286991
-0.283534
-0.28014
-0.276907
-0.273882
-0.271093
-0.268559
-0.2663
-0.264342
-0.262719
-0.261474
-0.260647
-0.260272
-0.26036
-0.260888
-0.261844
-0.262805
-0.290303
-0.28798
-0.285303
-0.282373
-0.279316
-0.276284
-0.27337
-0.270628
-0.268093
-0.265791
-0.263753
-0.262017
-0.260637
-0.259682
-0.25923
-0.259361
-0.260136
-0.261581
-0.263713
-0.266308
-0.284836
-0.283005
-0.280768
-0.278246
-0.275574
-0.27289
-0.270285
-0.267812
-0.265505
-0.263394
-0.261512
-0.259908
-0.258648
-0.257827
-0.257564
-0.258001
-0.259284
-0.261538
-0.264856
-0.269536
-0.279938
-0.278537
-0.276699
-0.274558
-0.27225
-0.269903
-0.267597
-0.265382
-0.263291
-0.261348
-0.259586
-0.258051
-0.256813
-0.255982
-0.255712
-0.256207
-0.257726
-0.260543
-0.264938
-0.272176
-0.275551
-0.274523
-0.273044
-0.271253
-0.269287
-0.267259
-0.265241
-0.263278
-0.261396
-0.259614
-0.257954
-0.256452
-0.255169
-0.254211
-0.253741
-0.25401
-0.255375
-0.25829
-0.263404
-0.273431
-0.271616
-0.270912
-0.269752
-0.26828
-0.266629
-0.264899
-0.263154
-0.261433
-0.259756
-0.258132
-0.25657
-0.25509
-0.25373
-0.252567
-0.251743
-0.251501
-0.252242
-0.254553
-0.259719
-0.272549
-0.268081
-0.267658
-0.266779
-0.265591
-0.264224
-0.262767
-0.261276
-0.259782
-0.2583
-0.25683
-0.25537
-0.253915
-0.252474
-0.251074
-0.249789
-0.248776
-0.248324
-0.248901
-0.252196
-0.265279
-0.264898
-0.264717
-0.264084
-0.263146
-0.262032
-0.260819
-0.259555
-0.258268
-0.256966
-0.255644
-0.254285
-0.252867
-0.251361
-0.249729
-0.247925
-0.245887
-0.243505
-0.24032
-0.235123
-0.22906
-0.262027
-0.262056
-0.261634
-0.260914
-0.26002
-0.259019
-0.257955
-0.256851
-0.255711
-0.254527
-0.253277
-0.251929
-0.250438
-0.248746
-0.246773
-0.244423
-0.241579
-0.237893
-0.232513
-0.227008
-0.259437
-0.259644
-0.259404
-0.25887
-0.258165
-0.257347
-0.256455
-0.255508
-0.254512
-0.253454
-0.252315
-0.251062
-0.249655
-0.24804
-0.246155
-0.243942
-0.24135
-0.238176
-0.233977
-0.230475
-0.257102
-0.257461
-0.257374
-0.256998
-0.256454
-0.255792
-0.255046
-0.254235
-0.253362
-0.252418
-0.251385
-0.250235
-0.248934
-0.247443
-0.245719
-0.243731
-0.241461
-0.238765
-0.235417
-0.233129
-0.255003
-0.255489
-0.255531
-0.255289
-0.25488
-0.254351
-0.253731
-0.253036
-0.252272
-0.251432
-0.250499
-0.249455
-0.248273
-0.246927
-0.245391
-0.243659
-0.241737
-0.239526
-0.236921
-0.23545
-0.253127
-0.253715
-0.253864
-0.253734
-0.253442
-0.253026
-0.252515
-0.251925
-0.25126
-0.250517
-0.249685
-0.248751
-0.247697
-0.246509
-0.245179
-0.243715
-0.24214
-0.24039
-0.238417
-0.237518
-0.251458
-0.252128
-0.252364
-0.252329
-0.252137
-0.251821
-0.251408
-0.250913
-0.250343
-0.249695
-0.248966
-0.248146
-0.247228
-0.246206
-0.245083
-0.243878
-0.242621
-0.241266
-0.239785
-0.239274
-0.249985
-0.250717
-0.251025
-0.25107
-0.250964
-0.250738
-0.250414
-0.250009
-0.24953
-0.248979
-0.248354
-0.247653
-0.246873
-0.246017
-0.245092
-0.244125
-0.243144
-0.242111
-0.241001
-0.240747
-0.248696
-0.249473
-0.249839
-0.249952
-0.249922
-0.249775
-0.249534
-0.249215
-0.248825
-0.24837
-0.247851
-0.247269
-0.246626
-0.245928
-0.245187
-0.244428
-0.24368
-0.242903
-0.242067
-0.241984
-0.247577
-0.248386
-0.248798
-0.24897
-0.249006
-0.248932
-0.248768
-0.248529
-0.248227
-0.247865
-0.247449
-0.246982
-0.246468
-0.245917
-0.245339
-0.24476
-0.244202
-0.243624
-0.242992
-0.243028
-0.246616
-0.247446
-0.247895
-0.248116
-0.248211
-0.248203
-0.248109
-0.247947
-0.247727
-0.247455
-0.247136
-0.246776
-0.246382
-0.245961
-0.245525
-0.245096
-0.244692
-0.24427
-0.243791
-0.243912
-0.2458
-0.246644
-0.247123