/*--------------------------------*- C++ -*----------------------------------*\
  =========                 |
  \\      /  F ield         | OpenFOAM: The Open Source CFD Toolbox
   \\    /   O peration     | Website:  https://openfoam.org
    \\  /    A nd           | Version:  6.0
     \\/     M anipulation  |
\*---------------------------------------------------------------------------*/
FoamFile
{
    version     2.0;
    format      ascii;
    class       surfaceScalarField;
    location    "50";
    object      phi;
}
// * * * * * * * * * * * * * * * * * * * * * * * * * * * * * * * * * * * * * //

dimensions      [0 3 -1 0 0 0 0];

internalField   nonuniform List<scalar> 
15760
(
-2.38886e-06
3.62933e-06
-1.24047e-06
-8.50682e-06
8.58839e-06
-2.47043e-06
-1.74723e-05
1.18056e-05
-2.84013e-06
-2.85398e-05
1.37005e-05
-2.63302e-06
-4.10971e-05
1.46179e-05
-2.06064e-06
-5.46568e-05
1.48361e-05
-1.27635e-06
-6.88452e-05
1.45767e-05
-3.88257e-07
-8.33902e-05
1.4015e-05
5.29903e-07
-9.81095e-05
1.32895e-05
1.42989e-06
-0.0001129
1.25089e-05
2.28183e-06
-0.000127728
1.17591e-05
3.06868e-06
-0.000142618
1.11072e-05
3.78223e-06
-0.000157643
1.06048e-05
4.42023e-06
-0.000172917
1.02903e-05
4.98446e-06
-0.000188587
1.01896e-05
5.47958e-06
-0.000204817
1.03179e-05
5.9125e-06
-0.000221788
1.06787e-05
6.29224e-06
-0.000239683
1.12651e-05
6.6296e-06
-0.000258682
1.20644e-05
6.93513e-06
1.30636e-05
7.21924e-06
-0.000278965
-2.39742e-06
6.02675e-06
-8.53382e-06
1.47248e-05
-1.75212e-05
2.0793e-05
-2.86081e-05
2.47874e-05
-4.11767e-05
2.71866e-05
-5.4734e-05
2.83934e-05
-6.89002e-05
2.87429e-05
-8.33971e-05
2.85119e-05
-9.80362e-05
2.79286e-05
-0.000112709
2.71813e-05
-0.000127374
2.6425e-05
-0.000142054
2.5787e-05
-0.000156819
2.53697e-05
-0.000171782
2.52536e-05
-0.000187091
2.5498e-05
-0.000202915
2.61422e-05
-0.000219441
2.7205e-05
-0.000236862
2.86855e-05
-0.000255367
3.05701e-05
3.28449e-05
-0.000275149
-2.40768e-06
8.43442e-06
-8.56133e-06
2.08784e-05
-1.75611e-05
2.97928e-05
-2.86453e-05
3.58715e-05
-4.11862e-05
3.97275e-05
-5.46809e-05
4.18882e-05
-6.87393e-05
4.28013e-05
-8.30717e-05
4.28443e-05
-9.74781e-05
4.2335e-05
-0.000111837
4.15406e-05
-0.000126099
4.06864e-05
-0.000140273
3.99608e-05
-0.000154423
3.95203e-05
-0.00016866
3.94906e-05
-0.000183131
3.99688e-05
-0.000198012
4.10227e-05
-0.000213498
4.26913e-05
-0.000229796
4.49838e-05
-0.000247116
4.78895e-05
5.13955e-05
-0.000265666
-2.41958e-06
1.0854e-05
-8.58852e-06
2.70474e-05
-1.75902e-05
3.87945e-05
-2.86486e-05
4.69299e-05
-4.11232e-05
5.2202e-05
-5.44978e-05
5.52627e-05
-6.83677e-05
5.66712e-05
-8.24277e-05
5.69043e-05
-9.64604e-05
5.63677e-05
-0.000110327
5.54072e-05
-0.000123959
5.43182e-05
-0.00013735
5.33526e-05
-0.000150554
5.27235e-05
-0.00016367
5.26072e-05
-0.000176845
5.3144e-05
-0.000190261
5.44381e-05
-0.000204125
5.65554e-05
-0.000218664
5.95227e-05
-0.000234112
6.33379e-05
6.7993e-05
-0.00025071
-2.43301e-06
1.3287e-05
-8.61418e-06
3.32285e-05
-1.76056e-05
4.77859e-05
-2.86143e-05
5.79386e-05
-4.09844e-05
6.45721e-05
-5.41842e-05
6.84625e-05
-6.77921e-05
7.02791e-05
-8.14832e-05
7.05954e-05
-9.50181e-05
6.99026e-05
-0.000108234
6.86233e-05
-0.000121038
6.71225e-05
-0.000133403
6.57169e-05
-0.000145359
6.46794e-05
-0.000156994
6.42426e-05
-0.000168448
6.45982e-05
-0.000179906
6.5896e-05
-0.000191591
6.82399e-05
-0.000203753
7.16848e-05
-0.000216662
7.62469e-05
8.19305e-05
-0.000230599
-2.44744e-06
1.57344e-05
-8.63549e-06
3.94166e-05
-1.76012e-05
5.67516e-05
-2.85329e-05
6.88703e-05
-4.07587e-05
7.6798e-05
-5.37307e-05
8.14346e-05
-6.70088e-05
8.35572e-05
-8.02461e-05
8.38326e-05
-9.31775e-05
8.2834e-05
-0.000105611
8.1057e-05
-0.000117423
7.89346e-05
-0.000128554
7.68475e-05
-0.000139006
7.51319e-05
-0.000148846
7.40822e-05
-0.000158199
7.3951e-05
-0.000167249
7.49459e-05
-0.000176232
7.72235e-05
-0.00018543
8.08823e-05
-0.000195155
8.59723e-05
9.25222e-05
-0.000205747
-2.46148e-06
1.81959e-05
-8.64676e-06
4.56019e-05
-1.75648e-05
6.56697e-05
-2.83851e-05
7.96906e-05
-4.04205e-05
8.88333e-05
-5.31078e-05
9.41219e-05
-6.59889e-05
9.64383e-05
-7.86945e-05
9.65383e-05
-9.09317e-05
9.50712e-05
-0.000102475
9.26007e-05
-0.000113164
8.96231e-05
-0.000122898
8.65814e-05
-0.000131642
8.38756e-05
-0.000139426
8.1867e-05
-0.000146354
8.08787e-05
-0.000152599
8.1191e-05
-0.000158408
8.3032e-05
-0.000164091
8.6566e-05
-0.000170019
9.18999e-05
9.91075e-05
-0.000176604
-2.47254e-06
2.06685e-05
-8.63812e-06
5.17674e-05
-1.74758e-05
7.45074e-05
-2.81371e-05
9.03518e-05
-3.99218e-05
0.000100618
-5.22545e-05
0.000106455
-6.46619e-05
0.000108846
-7.67539e-05
0.00010863
-8.82102e-05
0.000106527
-9.87704e-05
0.000103161
-0.000108231
9.90832e-05
-0.000116443
9.47942e-05
-0.000123323
9.07552e-05
-0.000128853
8.73971e-05
-0.000133096
8.51218e-05
-0.000136203
8.42982e-05
-0.00013842
8.52489e-05
-0.000140088
8.82338e-05
-0.000141639
9.34509e-05
0.000101053
-0.000143585
-2.47657e-06
2.3145e-05
-8.59476e-06
5.78856e-05
-1.73029e-05
8.32155e-05
-2.77363e-05
0.000100785
-3.91857e-05
0.000112067
-5.10676e-05
0.000118337
-6.28984e-05
0.000120676
-7.42722e-05
0.000120004
-8.48444e-05
0.0001171
-9.43211e-05
0.000112638
-0.000102454
0.000107216
-0.000109043
0.000101383
-0.000113942
9.56536e-05
-0.00011707
9.05255e-05
-0.000118433
8.64847e-05
-0.000118138
8.40028e-05
-0.000116412
8.35229e-05
-0.000113616
8.54381e-05
-0.000110251
9.00859e-05
9.77526e-05
-0.00010695
-2.46803e-06
2.56131e-05
-8.49667e-06
6.39143e-05
-1.70034e-05
9.17222e-05
-2.71099e-05
0.000110892
-3.81017e-05
0.000123059
-4.9393e-05
0.000129628
-6.04965e-05
0.00013178
-7.09975e-05
0.000130505
-8.05346e-05
0.000126637
-8.87862e-05
0.000120889
-9.5464e-05
0.000113894
-0.000100313
0.000106232
-0.00010312
9.84603e-05
-0.000103728
9.11339e-05
-0.000102063
8.48201e-05
-9.81629e-05
8.01022e-05
-9.22086e-05
7.75686e-05
-8.45599e-05
7.77894e-05
-7.57808e-05
8.13068e-05
8.86236e-05
-6.66518e-05
-2.44017e-06
2.80532e-05
-8.3195e-06
6.97936e-05
-1.65246e-05
9.99273e-05
-2.61655e-05
0.000120533
-3.65257e-05
0.000133419
-4.70227e-05
0.000140125
-5.71727e-05
0.00014193
-6.65614e-05
0.000139894
-7.48209e-05
0.000134896
-8.16132e-05
0.000127682
-8.66195e-05
0.000118901
-8.95379e-05
0.000109151
-9.00895e-05
9.90118e-05
-8.80343e-05
8.90787e-05
-8.32006e-05
7.99865e-05
-7.55259e-05
7.24275e-05
-6.51095e-05
6.71522e-05
-5.22722e-05
6.49522e-05
-3.76203e-05
6.6655e-05
7.31019e-05
-2.20986e-05
-2.38569e-06
3.04389e-05
-8.03633e-06
7.54442e-05
-1.58069e-05
0.000107698
-2.47953e-05
0.000129521
-3.42848e-05
0.000142909
-4.36994e-05
0.000149539
-5.25648e-05
0.000150795
-6.04758e-05
0.000147805
-6.70705e-05
0.000141491
-7.20093e-05
0.00013262
-7.49608e-05
0.000121852
-7.55935e-05
0.000109783
-7.3577e-05
9.69954e-05
-6.85944e-05
8.40961e-05
-6.037e-05
7.17621e-05
-4.87176e-05
6.07751e-05
-3.36115e-05
5.20461e-05
-1.52795e-05
4.66202e-05
5.67692e-06
4.56985e-05
5.06274e-05
2.81514e-05
-2.29769e-06
3.27366e-05
-7.62049e-06
8.0767e-05
-1.47886e-05
0.000114866
-2.28844e-05
0.000137617
-3.11884e-05
0.000151213
-3.913e-05
0.000157481
-4.62463e-05
0.000157912
-5.21474e-05
0.000153706
-5.64875e-05
0.000145831
-5.8942e-05
0.000135075
-5.91892e-05
0.000122099
-5.68959e-05
0.00010749
-5.17108e-05
9.18103e-05
-4.32674e-05
7.56528e-05
-3.12033e-05
5.96979e-05
-1.52048e-05
4.47766e-05
4.91249e-06
3.19288e-05
2.90786e-05
2.24541e-05
5.6779e-05
1.79981e-05
2.06172e-05
8.67893e-05
-2.17072e-06
3.49073e-05
-7.04881e-06
8.56451e-05
-1.34129e-05
0.00012123
-2.03214e-05
0.000144525
-2.70436e-05
0.000157935
-3.30075e-05
0.000163445
-3.77567e-05
0.000162661
-4.09145e-05
0.000156864
-4.21558e-05
0.000147072
-4.11829e-05
0.000134102
-3.77055e-05
0.000118622
-3.14225e-05
0.000101207
-2.20069e-05
8.23947e-05
-9.09607e-06
6.27419e-05
7.70614e-06
4.28957e-05
2.8803e-05
2.36798e-05
5.45349e-05
6.19679e-06
8.50429e-05
-8.05389e-06
0.000120012
-1.69711e-05
-1.7589e-05
0.000158218
-2.00173e-06
3.69091e-05
-6.30454e-06
8.99479e-05
-1.16333e-05
0.000126559
-1.70085e-05
0.000149901
-2.16733e-05
0.0001626
-2.50391e-05
0.000166811
-2.66411e-05
0.000164263
-2.61041e-05
0.000156327
-2.31154e-05
0.000144084
-1.74044e-05
0.000128391
-8.72427e-06
0.000109942
3.16514e-06
8.93176e-05
1.85162e-05
6.70436e-05
3.76134e-05
4.36447e-05
6.07924e-05
1.97168e-05
8.84452e-05
-3.97301e-06
0.000120991
-2.63485e-05
0.00015877
-4.58338e-05
0.000201782
-5.99825e-05
-6.48234e-05
0.000249016
-1.79058e-06
3.86996e-05
-5.37889e-06
9.35363e-05
-9.41792e-06
0.000130598
-1.287e-05
0.000153353
-1.49306e-05
0.00016466
-1.4971e-05
0.000166851
-1.24931e-05
0.000161785
-7.09748e-06
0.000150931
1.53959e-06
0.000135447
1.36806e-05
0.00011625
2.95374e-05
9.40849e-05
4.92808e-05
6.95742e-05
7.3053e-05
4.32715e-05
0.000100987
1.57106e-05
0.000133237
-1.25335e-05
0.000170018
-4.07535e-05
0.000211633
-6.79635e-05
0.00025847
-9.26713e-05
0.000310852
-0.000112365
-0.000122221
0.00036825
-1.53962e-06
4.02393e-05
-4.27019e-06
9.62668e-05
-6.74817e-06
0.000133076
-7.85262e-06
0.000154457
-6.70388e-06
0.000163512
-2.60244e-06
0.00016275
5.01675e-06
0.000154166
1.66149e-05
0.000139333
3.25665e-05
0.000119495
5.31663e-05
9.56503e-05
7.8628e-05
6.86232e-05
0.00010908
3.91225e-05
0.000144559
7.79259e-06
0.000185012
-2.47429e-05
0.000230314
-5.78355e-05
0.000280307
-9.07468e-05
0.000334877
-0.000122533
0.000394059
-0.000151853
0.000458172
-0.000176478
-0.000191455
0.000527406
-1.25242e-06
4.14917e-05
-2.98e-06
9.79944e-05
-3.61251e-06
0.000133708
-1.91682e-06
0.000152761
3.0927e-06
0.000158502
1.22206e-05
0.000153622
2.61382e-05
0.000140248
4.54124e-05
0.000120059
7.05188e-05
9.43885e-05
0.000101841
6.43286e-05
0.000139656
3.08077e-05
0.000184117
-5.33843e-06
0.000235219
-4.33095e-05
0.000292768
-8.22917e-05
0.000356348
-0.000121415
0.000425312
-0.000159711
0.000498813
-0.000196035
0.000575925
-0.000228965
0.000656017
-0.000256569
-0.000275708
0.00074027
-9.31448e-07
4.24231e-05
-1.50664e-06
9.85696e-05
5.58167e-09
0.000132196
4.98109e-06
0.000147786
1.45429e-05
0.00014894
2.96348e-05
0.00013853
5.10719e-05
0.000118811
7.95694e-05
9.15612e-05
0.000115753
5.82053e-05
0.000160152
1.99292e-05
0.000213185
-2.22252e-05
0.000275125
-6.7278e-05
0.000346054
-0.000114239
0.0004258
-0.000162038
0.000513839
-0.000209455
0.000609173
-0.000255044
0.000710174
-0.000297036
0.000814411
-0.000333201
0.000918811
-0.00036097
-0.000381654
0.00102476
-5.7539e-07
4.29985e-05
1.62807e-07
9.78314e-05
4.14258e-06
0.000128216
1.29125e-05
0.000139016
2.77619e-05
0.000134091
4.98028e-05
0.000116489
8.00226e-05
8.85914e-05
0.000119313
5.22713e-05
0.000168477
9.04076e-06
0.000228229
-3.9823e-05
0.000299178
-9.3174e-05
0.00038181
-0.00014991
0.000476468
-0.000208896
0.000583316
-0.000268885
0.000702284
-0.000328424
0.000832949
-0.000385709
0.000974237
-0.000438324
0.00112348
-0.000482446
0.00127322
-0.000510711
-0.000509259
0.00140083
-1.77401e-07
4.31759e-05
2.05855e-06
9.55955e-05
8.86723e-06
0.000121408
2.19969e-05
0.000125886
4.29268e-05
0.000113161
7.29552e-05
8.64605e-05
0.000113252
4.82946e-05
0.000164883
6.40249e-07
0.000228815
-5.48912e-05
0.000305911
-0.000116919
0.000396927
-0.000184189
0.000502515
-0.000255499
0.000623261
-0.000329642
0.000759758
-0.000405382
0.000912772
-0.000481437
0.00108355
-0.000556491
0.00127441
-0.000629178
0.00149001
-0.00069805
0.0017414
-0.000762096
-0.000819951
0.00205209
2.79014e-07
4.28969e-05
4.23649e-06
9.1638e-05
1.42929e-05
0.000111351
3.24183e-05
0.000107761
6.02966e-05
8.52828e-05
9.94155e-05
4.73416e-05
0.000151112
-3.40168e-06
0.000216583
-6.48313e-05
0.000296881
-0.000135189
0.000392893
-0.000212931
0.000505333
-0.000296629
0.000634744
-0.000384909
0.000781532
-0.00047643
0.000946041
-0.000569892
0.00112869
-0.000664084
0.00133016
-0.000757967
0.00155177
-0.000850786
0.00179591
-0.000942191
0.00206612
-0.00103231
-0.00111435
0.00236052
8.15925e-07
4.2081e-05
6.77081e-06
8.56831e-05
2.05677e-05
9.75543e-05
4.4412e-05
8.39167e-05
8.01948e-05
4.95e-05
0.000129576
-2.03962e-06
0.000194012
-6.78381e-05
0.000274748
-0.000145567
0.000372784
-0.000233225
0.000488842
-0.000328989
0.000623336
-0.000431124
0.000776369
-0.000537943
0.00094775
-0.000647811
0.00113705
-0.000759187
0.00134365
-0.000870686
0.00156686
-0.00098118
0.00180597
-0.00108989
0.00206023
-0.00119646
0.00232862
-0.00130069
-0.00139428
0.00260855
1.46177e-06
4.06192e-05
9.752e-06
7.73929e-05
2.78651e-05
7.94412e-05
5.82432e-05
5.35385e-05
0.000102969
4.77452e-06
0.000163828
-6.28994e-05
0.000242314
-0.000146324
0.000339582
-0.000242835
0.000456393
-0.000350036
0.000593061
-0.000465658
0.00074942
-0.000587482
0.000924815
-0.000713338
0.00111814
-0.000841135
0.00132788
-0.000968932
0.00155222
-0.00109502
0.00178905
-0.00121801
0.00203605
-0.00133688
0.00229061
-0.00145102
0.00254994
-0.00156002
-0.00165651
0.00281217
2.24733e-06
3.83719e-05
1.32748e-05
6.63654e-05
3.63599e-05
5.63561e-05
7.41642e-05
1.57343e-05
0.000128918
-4.99798e-05
0.000202454
-0.000136435
0.000296164
-0.000240034
0.000410925
-0.000357596
0.000547021
-0.000486131
0.000704079
-0.000622716
0.000881062
-0.000764465
0.00107629
-0.00090857
0.00128755
-0.00105239
0.00151214
-0.00119353
0.00174709
-0.00132997
0.0019892
-0.00146012
0.00223513
-0.00158282
0.00248149
-0.00169738
0.00272496
-0.00180349
-0.00189564
0.00296409
3.20196e-06
3.51699e-05
1.74258e-05
5.21416e-05
4.62015e-05
2.75803e-05
9.23664e-05
-3.04307e-05
0.000158221
-0.000115834
0.00024551
-0.000223724
0.000355336
-0.00034986
0.000488054
-0.000490313
0.000643181
-0.000641259
0.000819377
-0.000798912
0.00101448
-0.000959565
0.00122561
-0.00111971
0.00144938
-0.00127615
0.00168204
-0.00142619
0.00191972
-0.00156765
0.00215859
-0.00169899
0.00239501
-0.00181923
0.00262559
-0.00192796
0.00284737
-0.00202527
-0.00210772
0.00305945
4.35015e-06
3.08198e-05
2.22714e-05
3.42204e-05
5.74886e-05
-7.63688e-06
0.000112937
-8.58789e-05
0.000190861
-0.000193758
0.000292731
-0.000325595
0.000419113
-0.000476242
0.000569544
-0.000640744
0.000742484
-0.0008142
0.000935364
-0.000991792
0.00114473
-0.00116894
0.00136651
-0.00134148
0.00159624
-0.00150589
0.00182944
-0.00165939
0.00206181
-0.00180002
0.00228946
-0.00192664
0.00250905
-0.00203883
0.00271788
-0.00213679
0.0029139
-0.00222129
-0.00229075
0.00309693
5.7091e-06
2.51107e-05
2.78492e-05
1.20802e-05
7.02504e-05
-5.0038e-05
0.000135825
-0.000151454
0.000226583
-0.000284516
0.000343475
-0.000442488
0.000486232
-0.000618998
0.000653265
-0.000807777
0.000841708
-0.00100264
0.0010476
-0.00119769
0.0012662
-0.00138754
0.00149237
-0.00156765
0.00172097
-0.00173448
0.0019472
-0.00188563
0.00216692
-0.00201974
0.00237676
-0.00213648
0.00257423
-0.0022363
0.00275771
-0.00232027
0.00292635
-0.00238993
-0.00244524
0.00308085
7.2874e-06
1.78233e-05
3.41629e-05
-1.47953e-05
8.44347e-05
-0.00010031
0.000160824
-0.000227843
0.00026487
-0.000388562
0.000396709
-0.000574326
0.00055491
-0.0007772
0.000736477
-0.000989344
0.000937039
-0.00120321
0.00115124
-0.00141188
0.00137321
-0.00160951
0.00159714
-0.00179158
0.00181769
-0.00195503
0.00203035
-0.00209828
0.00223164
-0.00222103
0.00241921
-0.00232404
0.00259172
-0.00240881
0.0027488
-0.00247734
0.00289077
-0.00253191
-0.00257363
0.00301916
9.08468e-06
8.73863e-06
4.11794e-05
-4.689e-05
9.99027e-05
-0.000159033
0.000187565
-0.000315505
0.000304946
-0.000505943
0.000451036
-0.000720416
0.000622938
-0.000949101
0.000816036
-0.00118244
0.00102443
-0.0014116
0.00124154
-0.00162899
0.00146078
-0.00182876
0.00167616
-0.00200696
0.00188271
-0.00216159
0.00207676
-0.00229233
0.00225593
-0.00240021
0.00241912
-0.00248722
0.00256624
-0.00255593
0.00269804
-0.00260914
0.0028158
-0.00264968
-0.00267944
0.00292162
1.10917e-05
-2.35306e-06
4.88288e-05
-8.46271e-05
0.000116429
-0.000226634
0.000215521
-0.000414596
0.000345798
-0.00063622
0.000504772
-0.00087939
0.000687831
-0.00113216
0.000888673
-0.00138328
0.00110002
-0.00162295
0.00131446
-0.00184343
0.0015252
-0.0020395
0.00172668
-0.00220844
0.00191484
-0.00234974
0.00208719
-0.00246468
0.0022427
-0.00255572
0.00238153
-0.00262605
0.00250469
-0.0026791
0.00261379
-0.00271824
0.00271071
-0.0027466
-0.00276653
0.0027978
1.32904e-05
-1.56434e-05
5.70052e-05
-0.000128342
0.000133707
-0.000303335
0.000244027
-0.000524917
0.000386227
-0.000778421
0.000556049
-0.00104921
0.000747035
-0.00132315
0.000951304
-0.00158755
0.00116056
-0.0018322
0.00136707
-0.00204994
0.00156446
-0.00223689
0.0017481
-0.00239208
0.00191522
-0.00251686
0.00206473
-0.00261419
0.00219689
-0.00268789
0.00231296
-0.00274211
0.00241475
-0.00278089
0.00250437
-0.00280787
0.00258398
-0.0028262
-0.00283842
0.00265588
1.56539e-05
-3.12974e-05
6.55677e-05
-0.000178256
0.000151352
-0.000389119
0.0002723
-0.000645865
0.000424911
-0.000931032
0.00060295
-0.00122725
0.000798145
-0.00151834
0.00100133
-0.00179074
0.0012037
-0.00203457
0.00139782
-0.00224407
0.00157825
-0.00241732
0.0017417
-0.00255552
0.00188684
-0.002662
0.00201394
-0.00274129
0.00212438
-0.00279833
0.00222018
-0.00283791
0.00230364
-0.00286435
0.00237706
-0.00288128
0.00244257
-0.00289171
-0.00289809
0.00250223
1.81465e-05
-4.94439e-05
7.43423e-05
-0.000234451
0.000168919
-0.000483696
0.000299481
-0.000776426
0.000460488
-0.00109204
0.000643658
-0.00141042
0.000839113
-0.0017138
0.00103687
-0.0019885
0.00122821
-0.00222591
0.00140656
-0.00242241
0.00156781
-0.00257857
0.00171018
-0.00269789
0.00183378
-0.0027856
0.00194002
-0.00284753
0.00203108
-0.00288939
0.00210944
-0.00291627
0.00217755
-0.00293247
0.00223767
-0.0029414
0.00229173
-0.00294577
-0.00294782
0.00234146
2.07233e-05
-7.01672e-05
8.31264e-05
-0.000296855
0.000185914
-0.000586484
0.000324676
-0.000915188
0.000491652
-0.00125902
0.000676601
-0.00159537
0.000868421
-0.00190562
0.00105689
-0.00217697
0.00123395
-0.00240297
0.00139432
-0.00258278
0.00153546
-0.00271971
0.00165709
-0.00281952
0.00176054
-0.00288905
0.00184806
-0.00293506
0.00192232
-0.00296365
0.00198596
-0.00297991
0.00204136
-0.00298787
0.00209056
-0.0029906
0.00213522
-0.00299042
-0.0029893
0.0021767
2.33313e-05
-9.34984e-05
9.16947e-05
-0.000365218
0.000201823
-0.000696612
0.000347016
-0.00106038
0.000517243
-0.00142924
0.000700566
-0.00177869
0.000885173
-0.00209022
0.00106119
-0.00235298
0.00122172
-0.0025635
0.00136305
-0.00272411
0.00148422
-0.00284088
0.00158628
-0.00292158
0.00167148
-0.00297425
0.00174264
-0.00300621
0.00180258
-0.00302359
0.00185388
-0.00303121
0.00189871
-0.00303271
0.00193883
-0.00303072
0.00197557
-0.00302717
-0.00302372
0.00201
2.59102e-05
-0.000119409
9.98078e-05
-0.000439116
0.00021613
-0.000812934
0.000365705
-0.00120996
0.000536333
-0.00159987
0.000714781
-0.00195714
0.00088911
-0.00226455
0.00105034
-0.00251421
0.00119306
-0.00270623
0.00131523
-0.00284628
0.00141733
-0.00294298
0.00150147
-0.00300572
0.00157054
-0.00304332
0.00162757
-0.00306324
0.00167537
-0.00307138
0.0017163
-0.00307214
0.00175223
-0.00306864
0.0017846
-0.00306309
0.00181448
-0.00305705
-0.00305188
0.00184264
2.83946e-05
-0.000147803
0.000107223
-0.000517945
0.000228356
-0.000934066
0.00038008
-0.00136168
0.000548274
-0.00176806
0.000718932
-0.0021278
0.000880555
-0.00242618
0.00102548
-0.00265913
0.00114997
-0.00283073
0.00125357
-0.00294988
0.00133797
-0.00302738
0.00140605
-0.0030738
0.00146102
-0.00309829
0.00150594
-0.00310816
0.00154339
-0.00310884
0.00157546
-0.0031042
0.00160371
-0.00309689
0.00162929
-0.00308867
0.00165301
-0.00308077
-0.0030743
0.00167542
3.07168e-05
-0.00017852
0.000113708
-0.000600936
0.000238078
-0.00105844
0.000389639
-0.00151324
0.000552732
-0.00193116
0.000713136
-0.0022882
0.0008603
-0.00257334
0.000988149
-0.00278698
0.00109465
-0.00293723
0.00118073
-0.00303596
0.00124903
-0.00309568
0.00130289
-0.00312765
0.0013456
-0.00314101
0.00138007
-0.00314262
0.00140861
-0.00313737
0.00143296
-0.00312856
0.00145439
-0.00311832
0.00147382
-0.00310809
0.00149184
-0.00309879
-0.00309131
0.00150884
3.28095e-05
-0.00021133
0.00011905
-0.000687177
0.00024496
-0.00118435
0.000394073
-0.00166235
0.000549674
-0.00208676
0.000697878
-0.00243641
0.000829471
-0.00270493
0.000940099
-0.00289761
0.00102932
-0.00302645
0.00109919
-0.00310584
0.00115302
-0.00314951
0.00119434
-0.00316897
0.00122637
-0.00317304
0.00125173
-0.00316799
0.00127242
-0.00315807
0.00128988
-0.00314601
0.00130511
-0.00313355
0.0013188
-0.00312178
0.00133141
-0.0031114
-0.00310311
0.00134321
3.46122e-05
-0.000245942
0.000123075
-0.000775639
0.000248773
-0.00131004
0.000393279
-0.00180686
0.000539353
-0.00223283
0.000673935
-0.00257099
0.00078941
-0.00282041
0.00088314
-0.00299134
0.000956068
-0.00309937
0.00101114
-0.00316091
0.00105204
-0.0031904
0.0010823
-0.00319923
0.00110493
-0.00319566
0.00112222
-0.00318529
0.00113586
-0.0031717
0.001147
-0.00315715
0.00115641
-0.00314297
0.00116464
-0.00313
0.00117202
-0.00311878
-0.00310981
0.00117872
3.60617e-05
-0.000282003
0.00012563
-0.000865207
0.000249365
-0.00143378
0.000387298
-0.00194479
0.000522198
-0.00236773
0.000642225
-0.00269102
0.000741492
-0.00291968
0.000818972
-0.00306882
0.000876755
-0.00315716
0.000918402
-0.00320256
0.000947742
-0.00321974
0.000968183
-0.00321968
0.000982424
-0.0032099
0.000992439
-0.0031953
0.000999594
-0.00317886
0.0010048
-0.00316235
0.00100867
-0.00314684
0.0010116
-0.00313293
0.00101385
-0.00312102
-0.0031115
0.00101553
3.71123e-05
-0.000319116
0.000126625
-0.00095472
0.000246717
-0.00155387
0.000376364
-0.00207444
0.000498838
-0.00249021
0.000603807
-0.00279598
0.000687126
-0.003003
0.000749203
-0.00313089
0.000793024
-0.00320098
0.000822517
-0.00323205
0.000841492
-0.00323872
0.000853113
-0.0032313
0.00085975
-0.00321654
0.000863055
-0.00319861
0.000864125
-0.00317993
0.00086367
-0.0031619
0.000862157
-0.00314532
0.000859892
-0.00313067
0.000857066
-0.0031182
-0.00310819
0.000853764
3.7726e-05
-0.000356842
0.00012601
-0.001043
0.000240899
-0.00166876
0.000360824
-0.00219437
0.000469993
-0.00259937
0.000559753
-0.00288574
0.000627631
-0.00307087
0.000675252
-0.00317852
0.00070625
-0.00323198
0.00072472
-0.00325052
0.000734322
-0.00324832
0.000737915
-0.00323489
0.000737538
-0.00321616
0.000734546
-0.00319561
0.000729804
-0.00317519
0.000723859
-0.00315595
0.000717068
-0.00313853
0.000709668
-0.00312327
0.000701804
-0.00311033
-0.00309993
0.000693537
3.78763e-05
-0.000394718
0.000123783
-0.00112891
0.000232063
-0.00177704
0.000341116
-0.00230342
0.00043643
-0.00269469
0.000511106
-0.00296042
0.000564205
-0.00312397
0.000598339
-0.00321265
0.000617569
-0.00325121
0.000625991
-0.00325894
0.000627025
-0.00324935
0.000623205
-0.00323107
0.00061625
-0.00320921
0.000607251
-0.00318662
0.000596883
-0.00316482
0.000585561
-0.00314463
0.000573557
-0.00312653
0.000561056
-0.00311077
0.000548174
-0.00309745
-0.00308671
0.000534958
3.75488e-05
-0.000432267
0.000119983
-0.00121135
0.000220427
-0.00187748
0.000317733
-0.00240073
0.000398924
-0.00277588
0.000458844
-0.00302034
0.00049791
-0.00316304
0.000519499
-0.00323424
0.000527901
-0.00325961
0.000527093
-0.00325813
0.000520204
-0.00324246
0.000509437
-0.0032203
0.000496219
-0.00319599
0.000481419
-0.00317182
0.000465549
-0.00314895
0.000448923
-0.00312801
0.000431746
-0.00310935
0.000414165
-0.00309319
0.000396279
-0.00307956
-0.00306856
0.000378126
3.67412e-05
-0.000469008
0.000114683
-0.00128929
0.000206258
-0.00196906
0.000291196
-0.00248566
0.000358224
-0.00284291
0.000403857
-0.00306597
0.000429669
-0.00318885
0.000439588
-0.00324416
0.000437982
-0.003258
0.000428619
-0.00324877
0.00041431
-0.00322815
0.000396944
-0.00320294
0.00037769
-0.00317674
0.000357228
-0.00315135
0.000335942
-0.00312766
0.000314059
-0.00310612
0.000291735
-0.00308703
0.00026909
-0.00307054
0.000246208
-0.00305668
-0.00304548
0.000223132
3.54617e-05
-0.00050447
0.000107988
-0.00136181
0.000189851
-0.00205092
0.000262028
-0.00255784
0.000315034
-0.00289591
0.000346935
-0.00309788
0.000360263
-0.00320218
0.000359312
-0.00324321
0.000348398
-0.00324709
0.000331025
-0.0032314
0.000309684
-0.00320681
0.000285975
-0.00317923
0.000260844
-0.00315161
0.000234816
-0.00312533
0.000208168
-0.00310101
0.000181061
-0.00307902
0.000153609
-0.00305958
0.00012591
-0.00304284
9.80447e-05
-0.00302882
-0.0030175
7.006e-05
3.37289e-05
-0.000538199
0.000100026
-0.00142811
0.000171522
-0.00212242
0.000230736
-0.00261705
0.000269997
-0.00293517
0.000288772
-0.00311665
0.000290353
-0.00320376
0.000279241
-0.0032321
0.000259609
-0.00322746
0.000234664
-0.00320645
0.000206585
-0.00317873
0.000176715
-0.00314936
0.000145816
-0.00312071
0.000114283
-0.00309379
8.23111e-05
-0.00306904
5.00035e-05
-0.00304671
1.74376e-05
-0.00302701
-1.53059e-05
-0.0030101
-4.81432e-05
-0.00299598
-0.00298462
-8.10169e-05
3.15694e-05
-0.000569768
9.0938e-05
-0.00148748
0.000151586
-0.00218307
0.000197801
-0.00266327
0.000223693
-0.00296107
0.000229965
-0.00312292
0.000220489
-0.00319428
0.000199842
-0.00321145
0.000171982
-0.0031996
0.000139809
-0.00317428
0.000105211
-0.00314414
6.93072e-05
-0.00311345
3.27067e-05
-0.00308411
-4.294e-06
-0.00305679
-4.15678e-05
-0.00303177
-7.90611e-05
-0.00300922
-0.00011673
-0.00298934
-0.000154508
-0.00297232
-0.000192305
-0.00295818
-0.00294688
-0.000230046
2.90174e-05
-0.000598785
8.08772e-05
-0.00153934
0.000130357
-0.00223255
0.000163671
-0.00269658
0.000176639
-0.00297403
0.000171029
-0.00311731
0.000151133
-0.00317438
0.000121494
-0.00318181
8.58135e-05
-0.00316392
4.66824e-05
-0.00313515
5.72335e-06
-0.00310318
-3.61332e-05
-0.0030716
-7.84002e-05
-0.00304184
-0.000120856
-0.00301434
-0.000163426
-0.0029892
-0.0002061
-0.00296654
-0.000248869
-0.00294657
-0.00029168
-0.00292951
-0.000334433
-0.00291543
-0.00290429
-0.000377025
2.61122e-05
-0.000624898
7.00007e-05
-0.00158323
0.000108135
-0.00227068
0.000128755
-0.0027172
0.000129289
-0.00297457
0.000112405
-0.00310043
8.26703e-05
-0.00314465
4.45123e-05
-0.00314365
1.34883e-06
-0.00312075
-4.45295e-05
-0.00308927
-9.17375e-05
-0.00305597
-0.000139503
-0.00302383
-0.000187432
-0.00299391
-0.000235355
-0.00296641
-0.000283237
-0.00294132
-0.000331104
-0.00291867
-0.000378984
-0.00289869
-0.000426848
-0.00288164
-0.000474577
-0.0028677
-0.00285683
-0.000522033
2.28978e-05
-0.000647795
5.84664e-05
-0.0016188
8.52033e-05
-0.00229742
9.34245e-05
-0.00272543
8.20434e-05
-0.00296319
5.44706e-05
-0.00307285
1.54293e-05
-0.00310561
-3.08329e-05
-0.00309739
-8.11966e-05
-0.00307039
-0.000133656
-0.00303681
-0.000187036
-0.00300259
-0.000240698
-0.00297017
-0.000294313
-0.0029403
-0.000347745
-0.00291298
-0.000400978
-0.00288808
-0.000454074
-0.00286558
-0.000507103
-0.00284566
-0.000560067
-0.00282868
-0.000612837
-0.00281493
-0.00280445
-0.000665216
1.94209e-05
-0.000667216
4.643e-05
-0.00164581
6.18292e-05
-0.00231282
5.80141e-05
-0.00272161
3.52538e-05
-0.00294043
-2.44484e-06
-0.00303516
-5.03043e-05
-0.00305775
-0.000104302
-0.00304339
-0.000161622
-0.00301307
-0.000220525
-0.00297791
-0.000280025
-0.00294309
-0.000339592
-0.0029106
-0.000398947
-0.00288094
-0.000457961
-0.00285397
-0.000516625
-0.00282942
-0.000575016
-0.00280719
-0.000633256
-0.00278742
-0.000691392
-0.00277054
-0.000749297
-0.00275703
-0.00274707
-0.00080668
1.57304e-05
-0.000682947
3.40421e-05
-0.00166412
3.8259e-05
-0.00231703
2.28251e-05
-0.00270618
-1.07695e-05
-0.00290683
-5.80529e-05
-0.00298787
-0.000114276
-0.00300153
-0.000175673
-0.00298199
-0.000239727
-0.00294902
-0.00030495
-0.00291269
-0.000370527
-0.00287751
-0.000436024
-0.00284511
-0.000501197
-0.00281577
-0.00056591
-0.00278925
-0.000630132
-0.0027652
-0.000693935
-0.00274338
-0.000757479
-0.00272388
-0.000820879
-0.00270714
-0.000884018
-0.00269389
-0.00268462
-0.00094647
1.18757e-05
-0.000694823
2.14467e-05
-0.00167369
1.4719e-05
-0.00231031
-1.18734e-05
-0.00267958
-5.57527e-05
-0.00286295
-0.000112098
-0.00293153
-0.000176253
-0.00293737
-0.000244728
-0.00291352
-0.000315299
-0.00287844
-0.000386713
-0.00284127
-0.000458316
-0.00280591
-0.000529764
-0.00277366
-0.000600849
-0.00274468
-0.000671423
-0.00271868
-0.000741406
-0.00269522
-0.000810831
-0.00267396
-0.000879863
-0.00265485
-0.000948693
-0.00263831
-0.00101724
-0.00262534
-0.0026169
-0.00108496
7.906e-06
-0.000702729
8.77928e-06
-0.00167456
-8.58542e-06
-0.00229294
-4.58424e-05
-0.00264233
-9.94543e-05
-0.00280934
-0.00016435
-0.00286663
-0.000236018
-0.0028657
-0.000311252
-0.00283828
-0.000388113
-0.00280158
-0.000465564
-0.00276382
-0.000543107
-0.00272836
-0.000620497
-0.00269627
-0.000697575
-0.00266761
-0.000774196
-0.00264206
-0.00085023
-0.00261918
-0.000925633
-0.00259855
-0.00100055
-0.00257994
-0.00107525
-0.00256361
-0.00114973
-0.00255086
-0.002543
-0.00122362
3.8694e-06
-0.000706598
-3.8349e-06
-0.00166686
-3.14702e-05
-0.00226531
-7.88722e-05
-0.00259493
-0.000141663
-0.00274655
-0.000214606
-0.00279369
-0.000293369
-0.00278694
-0.000375032
-0.00275662
-0.000457922
-0.00271869
-0.000541211
-0.00268053
-0.000624552
-0.00264502
-0.000707813
-0.00261301
-0.000790922
-0.0025845
-0.000873773
-0.00255921
-0.000956219
-0.00253674
-0.00103814
-0.00251663
-0.00111964
-0.00249844
-0.00120109
-0.00248216
-0.00128271
-0.00246924
-0.00246063
-0.00136508
-1.88584e-07
-0.000706409
-1.62824e-05
-0.00165076
-5.37743e-05
-0.00222781
-0.000110783
-0.00253792
-0.0001822
-0.00267513
-0.000262689
-0.0027132
-0.000348119
-0.00270151
-0.000435852
-0.00266889
-0.000524461
-0.00263009
-0.000613312
-0.00259168
-0.000702208
-0.00255613
-0.000791154
-0.00252406
-0.000880216
-0.00249544
-0.000969423
-0.00247
-0.00105872
-0.00244744
-0.00114799
-0.00242736
-0.00123724
-0.00240919
-0.00132681
-0.0023926
-0.00141726
-0.00237879
-0.00236659
-0.0015113
-4.22594e-06
-0.000702183
-2.84633e-05
-0.00162653
-7.53609e-05
-0.00218092
-0.000141427
-0.00247185
-0.000220918
-0.00259564
-0.000308454
-0.00262566
-0.000400115
-0.00260985
-0.000493521
-0.00257548
-0.000587468
-0.00253614
-0.000681485
-0.00249766
-0.000775506
-0.00246211
-0.000869675
-0.00242989
-0.000964237
-0.00240087
-0.00105948
-0.00237476
-0.00115568
-0.00235124
-0.00125302
-0.00233001
-0.00135164
-0.00231057
-0.00145209
-0.00229216
-0.00155657
-0.00227431
-0.00226828
-0.00165488
-8.19311e-06
-0.00069399
-4.02731e-05
-0.00159445
-9.60963e-05
-0.00212509
-0.000170666
-0.00239728
-0.000257691