/*--------------------------------*- C++ -*----------------------------------*\
  =========                 |
  \\      /  F ield         | OpenFOAM: The Open Source CFD Toolbox
   \\    /   O peration     | Website:  https://openfoam.org
    \\  /    A nd           | Version:  6.0
     \\/     M anipulation  |
\*---------------------------------------------------------------------------*/
FoamFile
{
    version     2.0;
    format      ascii;
    class       volVectorField;
    location    "50";
    object      U;
}
// * * * * * * * * * * * * * * * * * * * * * * * * * * * * * * * * * * * * * //

dimensions      [0 1 -1 0 0 0 0];

internalField   nonuniform List<vector> 
8000
(
(-0.000416632 0.000965424 -3.21488e-21)
(-0.00226943 0.00216624 1.71864e-20)
(-0.0056963 0.00281591 -2.08998e-20)
(-0.00990522 0.00307063 1.5914e-20)
(-0.0144759 0.00304995 7.74829e-21)
(-0.0191663 0.00284495 -2.32708e-20)
(-0.0238027 0.002525 -2.05581e-21)
(-0.0282727 0.00214215 -7.27776e-22)
(-0.0325148 0.00173491 -1.20782e-20)
(-0.0365047 0.0013315 -6.54237e-21)
(-0.0402458 0.00095234 4.87939e-21)
(-0.0437616 0.000611966 1.85391e-20)
(-0.0470894 0.000320323 -1.38801e-21)
(-0.0502752 8.36867e-05 1.98793e-21)
(-0.05337 -9.47722e-05 -1.86736e-20)
(-0.0564333 -0.00021476 1.15063e-20)
(-0.0595254 -0.000278646 -1.64806e-20)
(-0.062635 -0.000289871 2.49435e-20)
(-0.0656587 -0.000251144 -2.8054e-23)
(-0.0690968 -0.000177246 5.37804e-21)
(-0.000512278 0.00190391 1.06826e-20)
(-0.00250476 0.00452227 -5.46067e-20)
(-0.00603103 0.00617508 -3.77114e-20)
(-0.0103051 0.00710404 -2.56024e-20)
(-0.0149124 0.00749857 -3.29405e-20)
(-0.0196157 0.00750909 7.23672e-21)
(-0.0242452 0.00725718 -3.80219e-20)
(-0.0286916 0.00683994 -8.5379e-21)
(-0.0328954 0.00633432 2.69676e-21)
(-0.0368342 0.00580117 2.83998e-20)
(-0.0405131 0.00528836 -3.09892e-20)
(-0.0439569 0.00483321 4.31085e-20)
(-0.0472046 0.0044641 -3.22841e-20)
(-0.0503036 0.00420176 -3.82821e-20)
(-0.0533071 0.00405988 -5.27465e-20)
(-0.0562769 0.00404531 3.36889e-20)
(-0.0592759 0.00415857 -1.09037e-20)
(-0.0622947 0.00439836 -3.96621e-20)
(-0.0652284 0.00476536 3.74964e-20)
(-0.0685856 0.00522365 -2.78121e-20)
(-0.000683246 0.0028386 1.04516e-19)
(-0.00293026 0.00686649 5.41052e-20)
(-0.00663784 0.0095138 6.08492e-20)
(-0.0110297 0.0111081 5.06509e-21)
(-0.0157005 0.0119085 3.36304e-20)
(-0.0204212 0.0121246 4.19401e-20)
(-0.025029 0.0119298 -7.62937e-20)
(-0.0294196 0.011466 -4.03802e-20)
(-0.033538 0.0108484 -5.26145e-20)
(-0.0373651 0.0101705 5.61223e-20)
(-0.0409086 0.00950776 -4.28764e-20)
(-0.0441959 0.00892085 -5.51929e-20)
(-0.0472687 0.00845737 -2.0122e-20)
(-0.0501773 0.00815341 1.90909e-20)
(-0.0529786 0.00803429 -5.3026e-21)
(-0.0557382 0.00811455 7.6412e-21)
(-0.0585241 0.00839856 8.85461e-20)
(-0.0613305 0.00888809 -1.24627e-20)
(-0.0640512 0.00958829 -9.00269e-20)
(-0.0672058 0.0104417 1.18522e-19)
(-0.000929598 0.00376564 3.63901e-20)
(-0.00354528 0.00918687 -5.13514e-20)
(-0.00751453 0.012812 -1.28764e-20)
(-0.0120748 0.0150549 2.41154e-20)
(-0.0168341 0.0162445 6.84228e-20)
(-0.0215753 0.0166489 1.49767e-19)
(-0.0261452 0.0164929 1.46348e-19)
(-0.0304475 0.0159623 1.21767e-20)
(-0.0344333 0.0152101 8.97416e-20)
(-0.0380881 0.0143623 1.37367e-19)
(-0.0414234 0.0135224 -1.0973e-19)
(-0.0444703 0.0127747 1.62424e-19)
(-0.0472739 0.0121874 -3.68246e-20)
(-0.0498888 0.0118133 9.27065e-21)
(-0.0523764 0.0116911 3.84155e-20)
(-0.0548085 0.0118449 5.10653e-20)
(-0.0572602 0.0122847 -8.03874e-20)
(-0.0597313 0.013017 -6.71076e-20)
(-0.0621149 0.0140532 -1.18714e-19)
(-0.0649451 0.015314 1.7266e-19)
(-0.00125126 0.00468115 -1.90105e-20)
(-0.00434831 0.0114712 -1.94593e-19)
(-0.00865709 0.0160495 -5.75588e-20)
(-0.0134336 0.0189171 -1.40258e-19)
(-0.0183035 0.0204725 5.30402e-20)
(-0.0230655 0.0210417 -8.36139e-20)
(-0.0275796 0.0208997 2.87967e-20)
(-0.0317601 0.0202753 -1.77111e-19)
(-0.0355657 0.0193585 9.34675e-20)
(-0.0389881 0.0183071 -1.11419e-19)
(-0.0420436 0.0172524 -9.90793e-20)
(-0.0447672 0.0163035 -1.10984e-19)
(-0.0472085 0.0155501 1.00722e-19)
(-0.0494268 0.0150639 -9.04919e-20)
(-0.0514896 0.0148996 1.25963e-19)
(-0.0534762 0.0150934 3.64137e-20)
(-0.0554713 0.0156636 9.01576e-20)
(-0.057483 0.0166242 3.95282e-20)
(-0.0594041 0.017996 -1.5671e-19)
(-0.0617884 0.0196777 2.55088e-19)
(-0.00164794 0.0055811 8.38488e-20)
(-0.0053366 0.0137069 6.42534e-21)
(-0.0100588 0.0192059 3.4543e-20)
(-0.0150946 0.0226676 1.20509e-19)
(-0.0200928 0.0245599 -1.84143e-20)
(-0.0248721 0.0252659 1.9572e-19)
(-0.0293096 0.0251088 8.69082e-20)
(-0.0333325 0.0243592 7.31425e-21)
(-0.0369095 0.0232422 2.23423e-19)
(-0.0400396 0.0219465 7.32192e-20)
(-0.0427443 0.0206309 3.47514e-20)
(-0.0450632 0.0194297 1.10229e-19)
(-0.0470503 0.0184555 1.01056e-19)
(-0.0487703 0.0178013 1.84519e-19)
(-0.0502973 0.0175409 -1.6493e-19)
(-0.0517199 0.0177266 2.33221e-19)
(-0.0531345 0.0183892 3.12986e-21)
(-0.0545606 0.0195538 -2.98128e-19)
(-0.0558925 0.0212556 3.866e-19)
(-0.0577097 0.0233716 1.60452e-19)
(-0.00211893 0.00646121 -4.94069e-20)
(-0.0065055 0.0158806 -8.9733e-20)
(-0.011709 0.0222603 -1.86715e-19)
(-0.0170406 0.0262797 -5.53894e-21)
(-0.0221779 0.0284762 3.18989e-20)
(-0.026965 0.029288 -2.38436e-19)
(-0.0312997 0.0290852 -1.76902e-19)
(-0.0351254 0.0281771 -2.52981e-20)
(-0.0384229 0.0268219 -2.23773e-19)
(-0.0411993 0.0252374 -1.54954e-19)
(-0.0434822 0.023609 -4.51573e-20)
(-0.0453157 0.0220958 -1.45431e-19)
(-0.0467578 0.0208348 -2.36882e-21)
(-0.0478785 0.0199426 -1.93192e-19)
(-0.048759 0.0195161 8.12624e-20)
(-0.0494979 0.0196289 -9.27146e-20)
(-0.0502061 0.0203294 7.10974e-20)
(-0.0509174 0.0216606 -9.04422e-20)
(-0.0515307 0.0236787 -2.5854e-19)
(-0.0526598 0.0262412 -7.85734e-20)
(-0.00266293 0.00731653 -1.82137e-20)
(-0.00784776 0.0179775 -1.97882e-20)
(-0.0135918 0.0251903 1.56584e-19)
(-0.019246 0.0297264 -2.54881e-19)
(-0.0245235 0.0321919 3.73814e-20)
(-0.0292994 0.0330788 -1.47291e-19)
(-0.0334968 0.0328006 6.95609e-20)
(-0.0370787 0.0317027 3.12801e-19)
(-0.0400399 0.0300733 -2.00616e-20)
(-0.0423974 0.0281563 -2.33399e-19)
(-0.044185 0.0261615 4.23526e-20)
(-0.045451 0.024272 8.22265e-21)
(-0.046257 0.0226495 -4.79807e-20)
(-0.0466773 0.0214367 4.79081e-21)
(-0.0467996 0.0207579 4.21276e-19)
(-0.0467335 0.0207137 -5.99236e-20)
(-0.046606 0.0213781 -1.17108e-19)
(-0.0464689 0.0228207 -2.10199e-19)
(-0.0462298 0.0251293 2.14367e-19)
(-0.0465489 0.0281461 9.26066e-20)
(-0.0032776 0.00814106 9.1882e-20)
(-0.0093525 0.0199807 -1.20252e-19)
(-0.0156847 0.0279717 1.70021e-19)
(-0.0216748 0.0329795 1.71219e-19)
(-0.0270799 0.0356784 1.57828e-19)
(-0.0318121 0.0366116 3.20052e-19)
(-0.0358245 0.0362335 2.06989e-19)
(-0.0391038 0.0349211 -4.44845e-19)
(-0.0416615 0.0329886 2.27532e-19)
(-0.0435258 0.0307022 1.7858e-19)
(-0.0447375 0.0282925 -2.57796e-21)
(-0.0453488 0.0259641 1.99973e-19)
(-0.0454237 0.0239027 1.55935e-19)
(-0.0450395 0.0222783 -8.47791e-20)
(-0.0442893 0.0212463 2.86699e-19)
(-0.0432929 0.0209414 -3.5539e-19)
(-0.0421953 0.0214729 1.42341e-19)
(-0.0410696 0.022949 1.83067e-19)
(-0.0398374 0.0255048 -4.26509e-20)
(-0.0392218 0.0289753 3.68821e-19)
(-0.00395921 0.00892736 1.84723e-19)
(-0.0110042 0.0218704 9.61823e-21)
(-0.0179563 0.0305769 -6.63023e-20)
(-0.0242785 0.0360081 -7.00292e-20)
(-0.0297799 0.0389057 -3.2451e-19)
(-0.0344165 0.0398617 4.59931e-20)
(-0.0381772 0.0393675 1.3022e-19)
(-0.0410762 0.0378276 -6.26894e-20)
(-0.043145 0.0355769 5.17111e-20)
(-0.0444253 0.0328989 -1.36663e-20)
(-0.0449658 0.0300399 -6.75152e-20)
(-0.0448225 0.0272219 6.41615e-20)
(-0.0440611 0.024651 -2.78802e-19)
(-0.04276 0.022524 2.67336e-19)
(-0.0410156 0.0210299 -2.31623e-19)
(-0.0389565 0.0203441 7.15196e-20)
(-0.036746 0.0206216 1.62946e-19)
(-0.0344813 0.0220262 -3.38342e-20)
(-0.0321046 0.0247618 -1.12695e-19)
(-0.0304242 0.028671 -7.68549e-20)
(-0.0047021 0.0096662 -2.30211e-19)
(-0.0127817 0.0236232 -1.5191e-20)
(-0.0203658 0.0329742 4.8502e-20)
(-0.0269936 0.0387775 1.24751e-19)
(-0.0325359 0.041841 -1.76089e-19)
(-0.0369992 0.0428034 -1.5369e-19)
(-0.0404141 0.042189 3.58754e-19)
(-0.042827 0.0404251 -1.98255e-19)
(-0.0442933 0.0378622 -1.27905e-19)
(-0.0448708 0.0347946 -1.83561e-19)
(-0.0446183 0.0314779 1.21526e-19)
(-0.0435964 0.0281447 -3.23374e-21)
(-0.0418722 0.0250159 -2.26963e-19)
(-0.0395235 0.0223108 -3.71395e-19)
(-0.0366477 0.0202511 2.82974e-19)
(-0.0333796 0.0190569 -2.29415e-19)
(-0.0298997 0.0189401 3.2527e-19)
(-0.026331 0.020139 -9.11073e-20)
(-0.0226421 0.0229569 1.91835e-19)
(-0.0197564 0.0272682 -6.52015e-19)
(-0.00549828 0.0103465 -4.66512e-19)
(-0.0146571 0.0252116 3.05971e-19)
(-0.022861 0.0351267 4.15882e-20)
(-0.0297405 0.0412473 8.06207e-21)
(-0.0352376 0.0444463 -1.88754e-19)
(-0.0394164 0.0454065 2.77586e-19)
(-0.0423548 0.0446821 3.02611e-20)
(-0.0441364 0.0427188 -5.69033e-20)
(-0.0448448 0.0398772 -1.82813e-19)
(-0.0445578 0.036456 1.97568e-19)
(-0.0433473 0.0327129 5.00967e-19)
(-0.0412812 0.028882 -1.10642e-19)
(-0.0384289 0.0251902 2.50153e-19)
(-0.0348676 0.0218705 -2.95497e-19)
(-0.0306935 0.0191711 -2.83421e-19)
(-0.0260449 0.0173554 1.70376e-19)
(-0.0211169 0.016699 2.81665e-19)
(-0.0160571 0.0175352 -9.12743e-19)
(-0.0108644 0.0203054 1.07111e-19)
(-0.0066151 0.0249531 1.45907e-19)
(-0.00633716 0.0109554 3.45515e-19)
(-0.0165956 0.0266044 1.13864e-19)
(-0.0253783 0.0369925 5.92597e-19)
(-0.0324228 0.0433706 3.05373e-20)
(-0.0377514 0.0466755 -6.59033e-20)
(-0.0414923 0.0476327 -3.13949e-19)
(-0.0437763 0.0468233 2.66961e-19)
(-0.044729 0.0447083 4.7916e-19)
(-0.0444664 0.0416541 3.19173e-19)
(-0.0430913 0.0379582 2.30567e-19)
(-0.040693 0.0338726 1.98809e-19)
(-0.0373515 0.0296242 -3.56766e-19)
(-0.0331422 0.0254338 -1.11713e-19)
(-0.0281443 0.0215346 -8.23556e-20)
(-0.0224531 0.0181877 8.82247e-19)
(-0.0162083 0.0156895 -2.98877e-21)
(-0.00961664 0.0143767 -2.19957e-19)
(-0.00284668 0.0146919 -6.9346e-20)
(0.00407563 0.0172589 6.31063e-19)
(0.00987721 0.0221443 8.21824e-20)
(-0.00720546 0.0114792 -1.69234e-20)
(-0.0185551 0.0277678 -3.27088e-19)
(-0.0278425 0.0385246 -4.86794e-19)
(-0.034927 0.0450934 -1.35535e-19)
(-0.0399199 0.0484735 7.48856e-20)
(-0.0430191 0.0494321 1.61067e-20)
(-0.0444125 0.0485759 4.2747e-19)
(-0.044272 0.0463792 -5.30106e-19)
(-0.0427505 0.0432118 -2.01657e-19)
(-0.0399802 0.0393671 -4.06412e-19)
(-0.0360742 0.0350861 -3.4612e-19)
(-0.0311307 0.0305802 -3.06557e-19)
(-0.0252392 0.0260521 7.66567e-20)
(-0.0184876 0.0217186 -9.95388e-20)
(-0.0109756 0.0178329 4.26396e-19)
(-0.00284638 0.0147013 -2.33693e-19)
(0.00568301 0.0127022 -7.32642e-19)
(0.0144289 0.0123857 -1.47742e-19)
(0.0233531 0.0145982 3.61538e-19)
(0.0309445 0.0195966 -3.1585e-19)
(-0.00808751 0.0119039 -5.51129e-20)
(-0.0204866 0.0286666 4.00505e-19)
(-0.0301668 0.0396733 -5.10844e-19)
(-0.0371231 0.0463562 1.18009e-19)
(-0.0415627 0.0497763 -2.43281e-19)
(-0.0437574 0.050742 5.42073e-19)
(-0.0439557 0.0498856 -3.87401e-19)
(-0.0423781 0.0476947 4.43176e-19)
(-0.0392177 0.0445433 -4.20334e-19)
(-0.0346405 0.0407204 1.79275e-19)
(-0.0287897 0.0364555 -8.702e-20)
(-0.0217905 0.0319407 -2.18518e-19)
(-0.0137573 0.0273523 -2.69957e-19)
(-0.00479962 0.0228755 2.68928e-19)
(0.0049654 0.0187311 -2.25194e-19)
(0.0153808 0.0152013 -4.92299e-19)
(0.0262127 0.0126647 5.12528e-19)
(0.0372662 0.0117445 -6.5362e-19)
(0.048523 0.0135266 2.94139e-19)
(0.0582153 0.0185234 8.68372e-21)
(-0.00896571 0.0122165 -5.00922e-19)
(-0.022335 0.0292666 -5.41025e-19)
(-0.032254 0.0403881 6.22918e-20)
(-0.038865 0.0470967 -5.22004e-19)
(-0.0424771 0.0505136 -4.659e-20)
(-0.0434386 0.0514887 -3.83969e-19)
(-0.0420596 0.0506808 -8.81215e-20)
(-0.0386103 0.0485929 -2.57564e-19)
(-0.033325 0.0456061 2.14155e-21)
(-0.0264068 0.0420098 -1.12748e-19)
(-0.0180338 0.0380264 7.92069e-21)
(-0.00836777 0.0338326 -3.24613e-19)
(0.00243874 0.0295791 3.57587e-19)
(0.0142358 0.025413 -5.0742e-19)
(0.0268667 0.0215044 1.79682e-19)
(0.0401372 0.0180748 6.77415e-21)
(0.0537748 0.0154429 -2.86006e-19)
(0.0675623 0.0142265 7.09091e-19)
(0.0815505 0.0157089 -1.69211e-19)
(0.093758 0.0206844 -1.10531e-19)
(-0.00982121 0.0124062 5.62655e-19)
(-0.0240394 0.0295373 3.03853e-19)
(-0.0339961 0.0406223 2.82669e-19)
(-0.0399907 0.0472549 4.21817e-20)
(-0.0424383 0.0506153 3.82355e-19)
(-0.0417649 0.0515952 5.5114e-19)
(-0.0383417 0.0508805 4.51439e-19)
(-0.0324874 0.0489929 4.02705e-20)
(-0.0244766 0.0463257 3.3051e-19)
(-0.0145496 0.0431764 5.10737e-19)
(-0.00292308 0.0397705 -1.32546e-19)
(0.0101977 0.0362816 2.22316e-19)
(0.0246088 0.0328476 1.7954e-19)
(0.0400989 0.0295877 1.82582e-19)
(0.0564419 0.0266222 1.07926e-18)
(0.0733692 0.0240929 -4.04474e-19)
(0.0905253 0.0221991 -2.46522e-20)
(0.107624 0.0214315 4.68643e-19)
(0.124827 0.0231357 -2.65707e-19)
(0.140108 0.028329 1.32154e-19)
(-0.0106344 0.0124652 -4.55378e-19)
(-0.0255335 0.0294541 2.93591e-20)
(-0.0352736 0.0403371 -3.64808e-19)
(-0.0403195 0.0467804 -4.74755e-20)
(-0.0411962 0.0500215 2.67108e-19)
(-0.0384072 0.0509932 -7.949e-19)
(-0.0323829 0.0504097 -4.49256e-22)
(-0.0234876 0.0488131 3.69857e-19)
(-0.0120335 0.0466147 3.47615e-19)
(0.00170394 0.0441282 -1.52957e-19)
(0.0174691 0.0415955 5.04326e-20)
(0.0350093 0.0392055 1.17016e-19)
(0.0540594 0.0371078 -5.54113e-20)
(0.0743278 0.0354243 -6.20897e-19)
(0.095486 0.0342592 1.57211e-19)
(0.117142 0.0337008 4.32219e-19)
(0.138784 0.0338176 -6.15754e-19)
(0.159953 0.0348644 3.0027e-19)
(0.180905 0.0380599 8.05302e-20)
(0.199941 0.044465 4.10136e-19)
(-0.0113848 0.012389 -6.74557e-20)
(-0.0267444 0.0290004 -3.19376e-19)
(-0.0359525 0.0395062 1.46862e-19)
(-0.0396487 0.0456402 5.55322e-22)
(-0.0384711 0.0486945 -6.40626e-19)
(-0.0330003 0.0496418 9.99177e-20)
(-0.0237236 0.049223 -1.89652e-20)
(-0.0110478 0.0480016 1.29329e-19)
(0.00468063 0.0464094 -5.91944e-19)
(0.0231538 0.0447823 -4.14134e-20)
(0.0440795 0.0433892 -1.38945e-19)
(0.0671593 0.0424521 1.23738e-19)
(0.0920653 0.0421622 4.17274e-19)
(0.118418 0.0426911 -6.45288e-20)
(0.145764 0.0442001 2.49447e-20)
(0.173529 0.0468298 1.64172e-19)
(0.200932 0.0506521 -4.05005e-20)
(0.227108 0.0558201 3.30757e-19)
(0.252122 0.0635195 -1.92122e-19)
(0.275013 0.0744752 -3.03977e-19)
(-0.0120507 0.0121763 6.24417e-20)
(-0.0275903 0.0281688 1.5105e-20)
(-0.0358809 0.03812 1.28147e-19)
(-0.0377477 0.0438267 3.13862e-19)
(-0.0339463 0.0466321 1.7609e-19)
(-0.025135 0.0475455 1.83876e-20)
(-0.0118574 0.0473314 -2.10296e-19)
(0.00543843 0.046572 5.3899e-20)
(0.0263722 0.0457165 2.83404e-19)
(0.0506042 0.0451221 -4.80242e-19)
(0.0778087 0.0450842 3.62341e-19)
(0.107649 0.0458619 -2.72945e-19)
(0.139756 0.0477001 2.31563e-19)
(0.173701 0.0508518 -4.99323e-19)
(0.208968 0.0556033 5.49158e-19)
(0.244885 0.0622874 -5.87349e-19)
(0.280485 0.0712753 -1.52686e-19)
(0.314435 0.0832293 4.79704e-19)
(0.345656 0.100169 -1.61894e-19)
(0.371439 0.12196 7.3401e-20)
(-0.0126075 0.011828 -4.73588e-20)
(-0.0279772 0.0269609 4.46607e-19)
(-0.0348832 0.0361882 -1.923e-21)
(-0.0343513 0.0413645 -2.77149e-19)
(-0.0272612 0.0438788 -1.86454e-19)
(-0.0143522 0.0447725 3.4148e-19)
(0.00377233 0.0448281 -1.35259e-19)
(0.0266169 0.0446388 -1.70532e-20)
(0.0537589 0.0446627 2.81701e-19)
(0.0848159 0.0452647 -3.50021e-19)
(0.119418 0.0467484 3.83346e-20)
(0.157188 0.049383 -4.54827e-19)
(0.197727 0.0534293 2.39462e-19)
(0.240616 0.0591697 -6.85235e-19)
(0.285415 0.0669481 1.09182e-18)
(0.331683 0.0772231 -1.99834e-19)
(0.379012 0.0906935 2.09446e-19)
(0.427338 0.108862 -5.43816e-19)
(0.4772 0.13472 2.27296e-21)
(0.521157 0.163358 6.28041e-19)
(-0.0130255 0.0113459 -1.43655e-19)
(-0.0277946 0.0253863 1.24154e-19)
(-0.0327553 0.0337412 -4.56572e-19)
(-0.0291548 0.0383138 6.75159e-19)
(-0.018007 0.0405331 -4.87369e-19)
(-0.000140966 0.0414659 2.50961e-20)
(0.0237681 0.0419047 -5.25277e-19)
(0.0531595 0.0424432 3.75487e-19)
(0.0875423 0.0435335 -5.36917e-20)
(0.126457 0.0455263 -3.31245e-19)
(0.169446 0.0487013 -1.93203e-19)
(0.216042 0.053289 2.04132e-19)
(0.265757 0.0594908 1.35006e-19)
(0.318102 0.067496 -5.97766e-19)
(0.372614 0.0774987 2.1574e-19)
(0.428898 0.0897103 -3.18623e-19)
(0.486693 0.104383 3.84653e-20)
(0.546122 0.122024 -2.72352e-19)
(0.608126 0.143796 1.14495e-19)
(0.665492 0.165087 -4.12756e-19)
(-0.0132674 0.0107318 4.08869e-19)
(-0.026911 0.0234623 -2.47378e-19)
(-0.029261 0.0308296 2.03829e-19)
(-0.0218122 0.0347723 -2.57289e-19)
(-0.00572911 0.0367493 4.31459e-19)
(0.0180524 0.0378457 -7.66809e-21)
(0.0487612 0.0388535 -5.25089e-20)
(0.0857361 0.0403534 -3.89229e-20)
(0.12837 0.0427731 2.39443e-19)
(0.176066 0.0464249 4.06986e-19)
(0.228207 0.051532 -2.4044e-19)
(0.284147 0.0582469 2.3366e-19)
(0.343214 0.0666642 4.26879e-19)
(0.404732 0.0768296 -2.99361e-19)
(0.468053 0.0887435 -6.08989e-19)
(0.532603 0.102355 1.11452e-18)
(0.597923 0.117543 -1.98943e-19)
(0.663757 0.134165 -6.50609e-20)
(0.730413 0.152579 7.05828e-19)
(0.792459 0.171374 -1.47525e-19)
(-0.0132858 0.00998682 -6.66256e-19)
(-0.0251716 0.0212131 -4.43482e-19)
(-0.0241307 0.0275246 -1.70233e-19)
(-0.0119403 0.0308727 3.28275e-19)
(0.010061 0.0327341 -7.40751e-19)
(0.0408012 0.0342011 3.83373e-19)
(0.079372 0.0360515 4.85584e-20)
(0.124955 0.0388353 4.90048e-20)
(0.176755 0.0429325 -5.01771e-19)
(0.233953 0.0485882 -1.77179e-19)
(0.29568 0.0559365 -3.12215e-19)
(0.361017 0.065017 3.01478e-19)
(0.429012 0.075787 8.56513e-20)
(0.498712 0.0881304 1.67726e-20)
(0.569206 0.101863 3.94081e-19)
(0.639666 0.116729 -3.98798e-19)
(0.709377 0.13239 -1.67372e-20)
(0.777768 0.148442 9.47772e-21)
(0.844593 0.164774 5.3964e-20)
(0.906644 0.182584 3.14976e-19)
(-0.0130219 0.00911218 2.12251e-19)
(-0.0223968 0.0186709 5.46652e-19)
(-0.0170661 0.0239168 4.38677e-19)
(0.000870154 0.0267817 -1.51101e-19)
(0.0298631 0.0287404 5.2515e-19)
(0.0686591 0.0308772 -4.41974e-20)
(0.116149 0.0339361 -6.23059e-20)
(0.171275 0.0384108 3.70567e-20)
(0.232959 0.0446023 5.0699e-19)
(0.300056 0.0526525 2.97755e-19)
(0.371347 0.0625687 8.69067e-20)
(0.445553 0.0742434 5.311e-21)
(0.521379 0.0874725 -5.77179e-19)
(0.597564 0.101972 5.01422e-19)
(0.672939 0.117394 8.63103e-20)
(0.746467 0.133336 -1.41729e-19)
(0.817275 0.149347 -6.17848e-19)
(0.884676 0.164957 -5.30262e-20)
(0.948163 0.179732 2.45408e-19)
(1.00664 0.196615 -5.08196e-20)
(-0.0124048 0.00811045 -5.39334e-19)
(-0.018385 0.015878 2.25625e-19)
(-0.00774716 0.0201185 -1.10081e-18)
(0.0170366 0.0226969 4.50495e-19)
(0.0541566 0.0250597 -3.5917e-19)
(0.102109 0.0282597 2.64777e-19)
(0.159493 0.0329773 -4.1096e-19)
(0.224907 0.0396134 3.77373e-20)
(0.296871 0.0483476 -2.1122e-20)
(0.373809 0.0591734 1.1034e-19)
(0.45406 0.071929 1.5941e-19)
(0.535938 0.0863273 -3.01337e-19)
(0.617797 0.101986 1.59457e-19)
(0.698114 0.118461 1.46617e-19)
(0.775552 0.13527 6.34872e-19)
(0.849005 0.151923 -2.75377e-19)
(0.917622 0.167936 -1.84077e-19)
(0.980818 0.182878 3.10067e-19)
(1.03815 0.196187 1.66988e-19)
(1.08999 0.211664 -3.12021e-19)
(-0.0113527 0.00698795 4.72953e-19)
(-0.0129172 0.012891 4.56037e-19)
(0.00415505 0.0162657 1.31301e-19)
(0.0369617 0.0188478 5.53239e-19)
(0.0833616 0.0220169 2.7153e-19)
(0.141506 0.0267595 -4.89252e-19)
(0.209586 0.0336498 7.40702e-19)
(0.285722 0.0429453 -3.64425e-19)
(0.367917 0.0546493 3.63549e-19)
(0.454063 0.0685547 4.70278e-19)
(0.542016 0.0842886 -2.68691e-19)
(0.629687 0.10136 5.10178e-20)
(0.715158 0.119209 2.84765e-19)
(0.796769 0.137254 2.00802e-19)
(0.873188 0.15493 4.63336e-19)
(0.943442 0.171724 -1.84903e-19)
(1.00691 0.18719 -2.2388e-20)
(1.06333 0.200996 2.94219e-19)
(1.11257 0.212643 -6.30255e-20)
(1.15586 0.226088 4.19465e-22)
(-0.00977476 0.00575769 -2.44271e-19)
(-0.00576461 0.00978618 -8.97677e-19)
(0.0189628 0.0125229 2.1125e-19)
(0.061006 0.015495 -1.60755e-19)
(0.117798 0.0199632 -3.70743e-19)
(0.187022 0.0267974 -2.64276e-19)
(0.266316 0.0364063 -1.63206e-19)
(0.353189 0.0488381 3.96514e-19)
(0.445012 0.0638558 -2.35422e-19)
(0.5391 0.0809989 -2.40823e-19)
(0.632841 0.0996519 -3.04779e-19)
(0.723846 0.119116 -5.0336e-20)
(0.810081 0.13868 -3.39574e-20)
(0.889956 0.157676 -7.05537e-19)
(0.962369 0.175524 3.42677e-19)
(1.0267 0.191764 -4.50541e-19)
(1.08275 0.206059 1.42233e-19)
(1.13069 0.218221 -1.08263e-18)
(1.17089 0.227945 3.26115e-19)
(1.205 0.23888 4.14848e-19)
(-0.00757472 0.00444219 -6.1262e-20)
(0.00330119 0.00666412 4.38581e-19)
(0.0369732 0.00908683 2.80695e-20)
(0.0894589 0.0129315 6.75782e-20)
(0.157645 0.01927 -1.37365e-19)
(0.238594 0.0287875 -2.16116e-21)
(0.329238 0.0416495 -3.42635e-21)
(0.426342 0.057617 -8.2574e-20)
(0.526587 0.0761465 2.92951e-19)
(0.626727 0.0964832 1.13333e-19)
(0.723801 0.117761 5.14022e-19)
(0.815307 0.139103 -1.40305e-19)
(0.899333 0.159701 9.79547e-20)
(0.974608 0.178883 -1.28402e-20)
(1.04049 0.196137 2.7145e-19)
(1.09688 0.211129 1.66422e-19)
(1.14413 0.223694 4.0193e-19)
(1.18292 0.233811 -6.49729e-19)
(1.2141 0.241423 8.187e-19)
(1.23947 0.249656 -2.59726e-19)
(-0.00465431 0.003076 -5.72617e-19)
(0.014497 0.00365425 -1.78389e-19)
(0.0584381 0.00618902 1.39659e-19)
(0.122509 0.0114792 8.799e-20)
(0.202902 0.0203186 8.97978e-20)
(0.295891 0.0331175 9.11851e-20)
(0.397548 0.0497049 -2.27881e-19)
(0.50381 0.0694716 -9.42074e-20)
(0.610676 0.0915127 2.9261e-20)
(0.714467 0.114764 -2.78785e-19)
(0.812082 0.138139 -1.26052e-19)
(0.901175 0.160646 7.62372e-19)
(0.980232 0.181475 -1.96586e-19)
(1.04854 0.200036 -2.71383e-19)
(1.10609 0.215976 -1.29088e-19)
(1.15342 0.229149 8.92396e-20)
(1.19144 0.239588 1.09217e-19)
(1.2213 0.247452 -5.23786e-19)
(1.24422 0.252916 7.58763e-19)
(1.26202 0.258533 -6.58216e-19)
(-0.000917812 0.00170747 -6.51089e-20)
(0.0280151 0.000917047 1.86944e-20)
(0.0835428 0.00409542 -2.35656e-20)
(0.160214 0.0114834 3.45595e-19)
(0.253361 0.0234846 1.88257e-20)
(0.35829 0.0401249 1.26711e-19)
(0.470098 0.0607935 -2.62924e-19)
(0.583882 0.0844359 -9.55935e-21)
(0.695075 0.109758 3.64879e-19)
(0.799792 0.135412 5.08065e-20)
(0.895092 0.160164 -3.17782e-19)
(0.97909 0.183009 -2.78178e-20)
(1.05093 0.20324 -2.61203e-19)
(1.11063 0.220448 2.60037e-19)
(1.15891 0.234497 3.61569e-19)
(1.19693 0.245468 -3.98757e-20)
(1.22609 0.253597 -4.87279e-20)
(1.24787 0.259197 1.4843e-19)
(1.26374 0.262623 -4.77987e-19)
(1.27543 0.26591 4.20751e-19)
(0.0037234 0.000399486 6.50197e-20)
(0.04401 -0.00135615 -4.20432e-19)
(0.112385 0.0031019 1.126e-19)
(0.20248 0.0133007 -3.48343e-19)
(0.308583 0.029119 1.1968e-19)
(0.424885 0.0500729 -4.44291e-19)
(0.545453 0.075011 1.79044e-19)
(0.664636 0.102384 -5.68986e-20)
(0.777535 0.130524 -2.26543e-21)
(0.880382 0.157874 5.81948e-20)
(0.970733 0.183165 -2.12266e-19)
(1.04745 0.205502 -3.02903e-19)
(1.11052 0.224383 -6.21126e-20)
(1.16079 0.239656 -2.78781e-20)
(1.19967 0.251438 -7.07993e-20)
(1.22883 0.260035 -2.30759e-20)
(1.25005 0.265858 -6.91037e-20)
(1.26498 0.269338 -5.99597e-20)
(1.27516 0.270939 -1.78577e-19)
(1.28218 0.272274 2.8342e-19)
(0.00934603 -0.000770572 1.57103e-19)
(0.0625851 -0.00294621 -1.74359e-19)
(0.144957 0.00352548 3.74986e-19)
(0.249037 0.0172827 -1.61615e-19)
(0.3679 0.0375249 4.31813e-19)
(0.494517 0.0631274 5.97554e-21)
(0.621975 0.0923173 2.16549e-19)
(0.74409 0.123044 -5.77692e-20)
(0.855969 0.153336 2.4161e-19)
(0.954333 0.181549 1.74656e-20)
(1.03756 0.206514 5.74863e-19)
(1.10547 0.227567 -3.96859e-19)
(1.15899 0.244497 5.34889e-20)
(1.19974 0.257445 1.02021e-19)
(1.22971 0.266784 5.34257e-19)
(1.25097 0.273015 -1.91934e-19)
(1.26545 0.276676 -3.80829e-20)
(1.27485 0.278269 -2.01662e-19)
(1.28064 0.278311 -2.12162e-20)
(1.28425 0.27808 1.00938e-19)
(0.0160098 -0.001712 -7.56908e-20)
(0.0837802 -0.00361202 2.18191e-19)
(0.181127 0.0056915 -2.22785e-19)
(0.299435 0.0237558 8.82284e-20)
(0.430427 0.0489343 -1.04903e-19)
(0.565837 0.079341 3.85508e-19)
(0.697943 0.11254 -5.34823e-20)
(0.820364 0.146032 1.32168e-19)
(0.928621 0.177663 -7.76807e-20)
(1.02029 0.205858 -1.89875e-21)
(1.09483 0.229688 8.87773e-20)
(1.15311 0.24882 -6.86659e-20)
(1.19697 0.263381 1.78156e-19)
(1.22871 0.273807 -8.87733e-20)
(1.25071 0.280696 -3.90731e-19)
(1.26524 0.284694 3.88428e-19)
(1.27425 0.286418 -1.75005e-19)
(1.27936 0.286389 1.39695e-19)
(1.2819 0.285138 2.42235e-19)
(1.2831 0.283682 9.93769e-20)
(0.0237528 -0.00232279 1.88212e-19)
(0.10756 -0.0030989 -3.87693e-19)
(0.220632 0.00991784 7.42431e-20)
(0.353049 0.0330003 -5.37523e-20)
(0.495099 0.0634897 -2.16237e-19)
(0.637384 0.0986483 -1.69561e-19)
(0.771676 0.135394 -3.32661e-20)
(0.891824 0.170893 -3.01938e-19)
(0.994183 0.202979 -1.82446e-20)
(1.0775 0.230307 -5.60024e-20)
(1.14243 0.252312 -1.52006e-19)
(1.19092 0.269053 -3.37863e-20)
(1.22557 0.281008 -1.16264e-19)
(1.24917 0.288875 -1.93845e-19)
(1.26434 0.293427 1.98396e-19)
(1.27336 0.2954 2.72587e-20)
(1.27809 0.295435 5.42954e-20)
(1.27999 0.294041 -2.28294e-19)
(1.28019 0.291735 -5.79463e-21)
(1.27974 0.289327 -3.51618e-19)
(0.0325861 -0.00249259 2.06821e-19)
(0.133805 -0.00114902 1.3779e-19)
(0.263076 0.0164976 -2.21706e-19)
(0.409091 0.0452307 3.46178e-19)
(0.560729 0.0812316 -3.72137e-20)
(0.707687 0.120872 1.29039e-19)
(0.841653 0.160512 4.4618e-20)
(0.957181 0.197153 1.57945e-19)
(1.05183 0.228806 -1.23644e-19)
(1.12572 0.254511 4.11091e-20)
(1.18075 0.274154 -3.94942e-20)
(1.21979 0.288208 -1.73592e-20)
(1.24605 0.297472 3.29658e-20)
(1.26261 0.30286 -6.06754e-20)
(1.27214 0.305257 -1.85872e-20)
(1.2768 0.305436 -5.69014e-20)
(1.27829 0.304025 -9.248e-20)
(1.27784 0.301489 5.97411e-20)
(1.2764 0.298323 -8.17551e-20)
(1.27483 0.295166 3.53227e-19)
(0.0424907 -0.00210644 -1.03438e-19)
(0.16231 0.00248671 -2.92545e-19)
(0.307931 0.0256815 -3.88943e-20)
(0.466648 0.0605797 -1.04772e-20)
(0.626066 0.102096 -1.30709e-19)
(0.77535 0.145743 -2.14327e-19)
(0.906602 0.187478 7.00767e-20)
(1.01553 0.224354 -9.62569e-20)
(1.10121 0.254749 -1.0776e-19)
(1.16518 0.278206 5.99329e-20)
(1.2105 0.295108 -4.52746e-20)
(1.24082 0.306327 -9.14299e-20)
(1.25972 0.312935 -2.97707e-21)
(1.27038 0.315995 6.18753e-20)
(1.27538 0.316448 -6.28941e-20)
(1.27669 0.315059 8.73295e-20)
(1.27577 0.312409 2.35267e-20)
(1.27365 0.308913 5.90991e-20)
(1.2711 0.305035 1.14921e-19)
(1.26878 0.301267 -9.83813e-20)
(0.0534137 -0.00104925 9.88714e-20)
(0.19278 0.00803609 -8.89845e-21)
(0.354558 0.0376626 4.41698e-20)
(0.52472 0.0790891 -6.00359e-20)
(0.689875 0.12592 4.88007e-21)
(0.839134 0.17292 2.07768e-19)
(0.965543 0.215865 -1.36482e-19)
(1.06637 0.252088 5.76524e-20)
(1.14232 0.280501 5.07476e-20)
(1.19639 0.301231 -1.42709e-19)
(1.23259 0.31516 1.3392e-19)
(1.25513 0.323517 1.15975e-21)
(1.26777 0.327579 -9.40577e-20)
(1.27363 0.328497 1.13314e-19)
(1.27509 0.327215 -4.48537e-20)
(1.27388 0.324457 3.42792e-20)
(1.27123 0.320741 -3.83826e-20)
(1.26795 0.316419 -1.53421e-20)
(1.26465 0.311936 -1.33682e-19)
(1.26185 0.307646 4.08562e-20)
(0.0652672 0.000789245 -3.34343e-20)
(0.224836 0.0156933 8.94994e-20)
(0.402225 0.052563 1.39172e-20)
(0.582271 0.100706 5.84113e-20)
(0.750992 0.152454 2.77982e-20)
(0.898007 0.202021 1.30258e-20)
(1.01781 0.245258 7.38077e-20)
(1.10949 0.280005 -8.98951e-21)
(1.17549 0.305839 3.24352e-20)
(1.22004 0.323505 5.20703e-20)
(1.24797 0.334355 2.50619e-20)
(1.26376 0.339908 1.79541e-20)
(1.27122 0.341579 7.27425e-20)
(1.27327 0.340547 -7.0381e-20)
(1.27203 0.337721 1.50849e-20)
(1.26898 0.333759 -1.40368e-20)
(1.2651 0.329105 2.18194e-20)
(1.26105 0.324058 1.82462e-20)
(1.25726 0.319041 3.79622e-20)
(1.25416 0.314277 1.62093e-21)
(0.0779281 0.00350932 1.98166e-20)
(0.258028 0.0256073 1.80926e-20)
(0.450138 0.0704251 -2.50127e-20)
(0.638273 0.125286 1.56213e-20)
(0.808381 0.181383 8.79941e-21)
(0.951175 0.232641 -2.73737e-20)
(1.06302 0.275274 9.01552e-21)
(1.145 0.307821 1.61991e-21)
(1.20119 0.33061 1.55067e-20)
(1.23692 0.345004 -4.15057e-20)
(1.25753 0.352763 -1.09348e-22)
(1.26765 0.355626 1.14419e-20)
(1.27092 0.355078 -9.11608e-21)
(1.27002 0.352279 9.22111e-21)
(1.26677 0.34807 2.39514e-20)
(1.2624 0.343033 -1.35825e-20)
(1.25769 0.337537 3.80658e-21)
(1.25313 0.33183 1.48199e-20)
(1.24905 0.326323 -2.44038e-20)
(1.24577 0.321108 1.1718e-20)
(0.0912411 0.00719611 5.53648e-20)
(0.291843 0.0378727 -3.00623e-20)
(0.497475 0.0912076 3.53542e-20)
(0.691754 0.152601 -2.62851e-20)
(0.861165 0.212339 -1.17587e-20)
(0.998076 0.264378 3.55821e-21)
(1.10104 0.305566 -1.15127e-20)
(1.17317 0.335305 4.13521e-20)
(1.22003 0.354714 -3.43621e-20)
(1.2478 0.365731 8.05348e-21)
(1.26212 0.370459 -6.00303e-21)
(1.26756 0.370776 -3.8854e-20)
(1.26753 0.368182 3.76171e-20)
(1.2644 0.363776 1.42541e-20)
(1.2597 0.358316 -1.41785e-20)
(1.25442 0.3523 3.31704e-20)
(1.24917 0.346028 -5.2085e-22)
(1.24431 0.339705 -3.20149e-20)
(1.24008 0.333733 2.36695e-20)
(1.23672 0.32807 7.39399e-21)
(0.105021 0.011915 -1.94002e-20)
(0.325728 0.0525226 5.62505e-20)
(0.543415 0.114786 6.49057e-20)
(0.741833 0.182352 -3.05671e-20)
(0.908648 0.244925 5.31774e-20)
(1.03837 0.296837 8.39526e-20)
(1.13193 0.335828 -4.60813e-21)
(1.19441 0.362272 -1.43073e-20)
(1.23265 0.378079 7.07756e-20)
(1.2534 0.385703 3.44193e-20)
(1.26243 0.387503 -6.18135e-21)
(1.26412 0.385433 5.1048e-20)
(1.26156 0.380953 -5.44695e-20)
(1.25679 0.375076 8.47247e-20)
(1.25108 0.368469 -1.41052e-20)
(1.24521 0.361545 4.01394e-20)
(1.23964 0.35454 7.13517e-21)
(1.23463 0.347626 2.85347e-20)
(1.23036 0.3412 -2.71795e-20)
(1.227 0.335084 6.47058e-21)
(0.119055 0.0177073 -3.0176e-20)
(0.359106 0.0695236 7.18195e-20)
(0.587168 0.140954 5.32748e-20)
(0.787745 0.214181 -8.04089e-21)
(0.95031 0.278721 8.26398e-20)
(1.0719 0.329642 -6.15278e-20)
(1.1559 0.365787 -4.67436e-21)
(1.20921 0.388568 5.42124e-20)
(1.23965 0.400651 1.72164e-20)
(1.25438 0.404928 2.3946e-20)
(1.25907 0.403935 -3.5268e-20)
(1.25782 0.399634 9.15213e-20)
(1.25338 0.393412 1.69278e-20)
(1.24746 0.386178 -8.065e-20)
(1.24109 0.378502 1.17153e-19)
(1.23488 0.37072 -1.37845e-19)
(1.22916 0.363009 -6.28442e-20)
(1.22413 0.355521 1.0525e-20)
(1.21989 0.348643 6.08468e-20)
(1.21661 0.342062 -1.14109e-19)
(0.133117 0.024587 -6.8144e-20)
(0.391395 0.0887751 -1.60578e-19)
(0.628005 0.169436 -1.38661e-19)
(0.828858 0.247685 -1.88516e-19)
(0.985805 0.313305 -1.067e-19)
(1.09868 0.362439 -2.20881e-19)
(1.17327 0.395199 2.80642e-20)