/*--------------------------------*- C++ -*----------------------------------*\
  =========                 |
  \\      /  F ield         | OpenFOAM: The Open Source CFD Toolbox
   \\    /   O peration     | Website:  https://openfoam.org
    \\  /    A nd           | Version:  6.0
     \\/     M anipulation  |
\*---------------------------------------------------------------------------*/
FoamFile
{
    version     2.0;
    format      ascii;
    class       volVectorField;
    location    "50";
    object      U;
}
// * * * * * * * * * * * * * * * * * * * * * * * * * * * * * * * * * * * * * //

dimensions      [0 1 -1 0 0 0 0];

internalField   nonuniform List<vector> 
4000
(
(0.0911284 0.00719164 5.52809e-20)
(0.291546 0.0378565 -3.00154e-20)
(0.497039 0.0911818 3.52982e-20)
(0.691227 0.152577 -2.62432e-20)
(0.860599 0.212331 -1.17398e-20)
(0.997512 0.264397 3.55218e-21)
(1.1005 0.30562 -1.14942e-20)
(1.17268 0.335395 4.12859e-20)
(1.2196 0.354838 -3.43069e-20)
(1.24741 0.365886 8.04029e-21)
(1.26177 0.370638 -5.99338e-21)
(1.26725 0.370975 -3.87916e-20)
(1.26725 0.368395 3.75567e-20)
(1.26414 0.364001 1.42314e-20)
(1.25946 0.35855 -1.4156e-20)
(1.2542 0.352541 3.3118e-20)
(1.24895 0.346273 -5.19848e-22)
(1.24411 0.339954 -3.19654e-20)
(1.23989 0.333985 2.36335e-20)
(1.23655 0.328325 7.38283e-21)
(0.104903 0.0119062 -1.93706e-20)
(0.325426 0.0524964 5.61668e-20)
(0.54298 0.114748 6.48072e-20)
(0.741318 0.182318 -3.05196e-20)
(0.908105 0.244909 5.30957e-20)
(1.03784 0.296851 8.3822e-20)
(1.13143 0.335878 -4.60024e-21)
(1.19396 0.362358 -1.42841e-20)
(1.23224 0.378198 7.06645e-20)
(1.25304 0.38585 3.43648e-20)
(1.26211 0.387673 -6.17141e-21)
(1.26383 0.38562 5.09665e-20)
(1.26129 0.381153 -5.43822e-20)
(1.25654 0.375286 8.45888e-20)
(1.25085 0.368687 -1.40827e-20)
(1.24499 0.361769 4.0075e-20)
(1.23943 0.354768 7.12372e-21)
(1.23444 0.347858 2.84898e-20)
(1.23018 0.341435 -2.71369e-20)
(1.22683 0.335322 6.45957e-21)
(0.118935 0.017694 -3.01303e-20)
(0.358802 0.0694874 7.172e-20)
(0.586737 0.140906 5.31995e-20)
(0.787246 0.214138 -8.02907e-21)
(0.949793 0.278699 8.25179e-20)
(1.0714 0.329652 -6.14311e-20)
(1.15544 0.365833 -4.66663e-21)
(1.20879 0.38865 5.41306e-20)
(1.23928 0.400764 1.71916e-20)
(1.25405 0.405067 2.39087e-20)
(1.25877 0.404094 -3.52122e-20)
(1.25755 0.399809 9.13758e-20)
(1.25312 0.393598 1.69004e-20)
(1.24722 0.386374 -8.05204e-20)
(1.24087 0.378704 1.16963e-19)
(1.23467 0.370928 -1.37621e-19)
(1.22896 0.363222 -6.27416e-20)
(1.22394 0.355737 1.05071e-20)
(1.21972 0.348862 6.07489e-20)
(1.21644 0.342284 -1.13921e-19)
(0.132994 0.024569 -6.80498e-20)
(0.391091 0.0887291 -1.60353e-19)
(0.627583 0.169377 -1.38461e-19)
(0.828378 0.247633 -1.88246e-19)
(0.985315 0.313278 -1.06542e-19)
(1.09821 0.362445 -2.20555e-19)
(1.17284 0.395242 2.80223e-20)
(1.21766 0.414136 -1.16428e-19)
(1.24129 0.422486 -1.27304e-20)
(1.25099 0.423532 1.90805e-20)
(1.25224 0.419912 -4.17166e-20)
(1.24879 0.413546 5.17689e-20)
(1.24302 0.405717 9.18967e-20)
(1.23637 0.397226 -1.29283e-19)
(1.22963 0.388547 2.04883e-20)
(1.22328 0.379947 5.93426e-20)
(1.21756 0.371554 9.90075e-20)
(1.21263 0.363503 -8.54045e-20)
(1.20851 0.356175 -4.05818e-21)
(1.20536 0.349122 9.94545e-20)
(0.14684 0.0325161 -1.2838e-19)
(0.42173 0.110056 3.51597e-19)
(0.664866 0.199823 -6.20207e-20)
(0.864217 0.282371 8.19401e-20)
(1.01447 0.348224 -8.01356e-20)
(1.11839 0.394896 2.45669e-19)
(1.18399 0.423883 -3.88732e-20)
(1.22109 0.438695 2.31931e-20)
(1.23879 0.443307 -1.14662e-20)
(1.24434 0.441221 3.7659e-20)
(1.2429 0.435107 2.42616e-20)
(1.23784 0.4268 3.03114e-20)
(1.23119 0.417462 -8.63585e-20)
(1.2241 0.407779 1.25767e-19)
(1.21722 0.398138 -9.5405e-20)
(1.21087 0.388738 1.7781e-20)
(1.20526 0.379671 -6.07127e-20)
(1.20049 0.37106 1.27499e-20)
(1.19654 0.363276 1.42815e-20)
(1.19359 0.355741 -1.3437e-19)
(0.160229 0.0414897 9.36533e-21)
(0.450189 0.133241 -1.77067e-19)
(0.698032 0.231853 9.76674e-20)
(0.894404 0.317896 -3.40416e-19)
(1.03721 0.383124 1.64656e-19)
(1.13214 0.426691 -2.81754e-19)
(1.1893 0.45155 -2.19295e-19)
(1.21955 0.462206 -8.33928e-21)
(1.23226 0.46316 -7.39946e-20)
(1.2345 0.458087 -2.29126e-19)
(1.23106 0.449631 -2.83793e-20)
(1.22492 0.439512 -2.17728e-19)
(1.21776 0.428759 3.95612e-20)
(1.21052 0.417947 -3.10355e-20)
(1.20367 0.40738 1.81304e-20)
(1.19747 0.397202 -1.43316e-19)
(1.19207 0.387471 8.0424e-21)
(1.18754 0.378307 2.89012e-20)
(1.18383 0.370065 -6.5435e-20)
(1.18113 0.362045 5.72289e-20)
(0.172919 0.0514141 -7.28536e-20)
(0.475984 0.158002 3.23945e-19)
(0.726627 0.265037 2.2745e-21)
(0.918708 0.353746 -2.7994e-19)
(1.05357 0.417576 2.10857e-19)
(1.13976 0.457533 8.82767e-20)
(1.18918 0.478047 1.79983e-20)
(1.21347 0.484548 -1.47759e-19)
(1.22209 0.481961 2.39889e-19)
(1.2218 0.47406 -1.39415e-19)
(1.21698 0.463411 5.08974e-20)
(1.21019 0.451597 2.33957e-19)
(1.20286 0.439513 -2.09133e-19)
(1.19568 0.427626 2.28934e-19)
(1.18903 0.416165 -1.48278e-19)
(1.18309 0.405228 -2.91335e-20)
(1.17799 0.394844 3.48593e-20)
(1.17377 0.385135 4.3347e-20)
(1.17036 0.376435 5.93324e-20)
(1.16798 0.367934 3.58593e-20)
(0.184681 0.0621849 2.90813e-20)
(0.498694 0.184011 -2.91437e-19)
(0.750308 0.298916 5.17609e-20)
(0.937014 0.389457 6.7481e-19)
(1.06369 0.451196 -6.23308e-20)
(1.14157 0.487142 1.85884e-19)
(1.18404 0.503187 1.15634e-19)
(1.20328 0.505592 1.93855e-20)
(1.20865 0.499612 -1.32694e-19)
(1.20652 0.489049 2.17194e-19)
(1.20083 0.476352 -2.46179e-20)
(1.1938 0.462952 3.24975e-19)
(1.18656 0.449612 1.23858e-19)
(1.17965 0.436699 7.67652e-20)
(1.17334 0.424375 -1.59865e-19)
(1.16777 0.412697 3.36727e-20)
(1.16305 0.401676 1.22788e-19)
(1.15921 0.391431 3.0855e-20)
(1.15616 0.382278 -1.46932e-19)
(1.15416 0.373309 -3.63897e-20)
(0.195299 0.0736707 -1.62177e-19)
(0.517966 0.210903 5.22222e-19)
(0.768832 0.333017 -2.84136e-19)
(0.949313 0.424571 -2.60889e-19)
(1.06779 0.483613 -2.26596e-19)
(1.1379 0.515251 -1.90258e-19)
(1.17427 0.526785 -2.33248e-19)
(1.18934 0.525204 2.90904e-19)
(1.19223 0.516004 -2.05918e-19)
(1.18888 0.502947 -1.63549e-20)
(1.1828 0.48834 -1.98891e-21)
(1.17585 0.473457 -3.88501e-20)
(1.16894 0.45893 -9.86674e-20)
(1.16247 0.445039 -1.08574e-19)
(1.15663 0.431885 -5.79178e-21)
(1.15153 0.419489 -2.39446e-20)
(1.14728 0.407847 -5.75285e-20)
(1.14388 0.39708 -1.70766e-20)
(1.14125 0.387482 2.02443e-20)
(1.1397 0.378067 -1.19614e-19)
(0.204583 0.0857168 2.83692e-19)
(0.533524 0.238285 2.92982e-19)
(0.782063 0.366859 -1.81609e-19)
(0.955685 0.458645 1.11937e-19)
(1.06612 0.514478 1.92056e-19)
(1.12914 0.541607 -3.88196e-20)
(1.16026 0.54866 4.72517e-20)
(1.172 0.543247 5.18757e-20)
(1.17311 0.531011 8.59108e-20)
(1.16909 0.515632 -9.9753e-20)
(1.163 0.499248 4.89545e-20)
(1.15643 0.482978 -3.23119e-20)
(1.15006 0.467335 1.45789e-19)
(1.14419 0.452513 6.11958e-20)
(1.13895 0.438563 -1.42031e-19)
(1.13442 0.425476 7.65525e-20)
(1.1307 0.413234 3.82557e-20)
(1.12782 0.401964 -6.67217e-20)
(1.12567 0.391936 1.81773e-19)
(1.12464 0.382108 -1.32194e-19)
(0.212368 0.0981485 -2.08544e-19)
(0.545166 0.265745 -2.70194e-19)
(0.789956 0.399966 1.88191e-19)
(0.95629 0.491253 -1.73752e-19)
(1.059 0.543462 -1.65979e-20)
(1.11565 0.565971 -1.87042e-19)
(1.14236 0.568637 1.56114e-19)
(1.15155 0.559575 2.81091e-19)
(1.15153 0.544503 -3.90446e-19)
(1.14731 0.52697 2.01435e-20)
(1.14157 0.50894 1.46797e-20)
(1.13563 0.491378 -7.49517e-20)
(1.13 0.474685 5.34454e-20)
(1.12488 0.458982 -2.12321e-20)
(1.12035 0.444276 1.36484e-19)
(1.11648 0.430528 -1.46907e-19)
(1.11338 0.417713 -4.76102e-20)
(1.11107 0.405959 1.2765e-19)
(1.10948 0.395518 -1.81773e-19)
(1.10902 0.385322 1.14879e-19)
(0.21852 0.110776 4.32096e-19)
(0.55277 0.292865 3.80867e-19)
(0.792557 0.431871 -6.41914e-20)
(0.951354 0.521994 -7.99582e-21)
(1.04678 0.570257 -1.91858e-19)
(1.09781 0.58812 8.1809e-20)
(1.12093 0.586543 3.91521e-19)
(1.12829 0.574045 -3.42451e-19)
(1.1277 0.556342 2.11048e-19)
(1.1237 0.536824 -1.76713e-20)
(1.11862 0.517275 1.24872e-19)
(1.11353 0.498512 -3.35976e-20)
(1.10881 0.480837 7.27944e-20)
(1.10458 0.464306 8.9364e-20)
(1.10088 0.448885 -5.31225e-20)
(1.09777 0.434511 5.80888e-20)
(1.09536 0.421149 -7.51184e-20)
(1.0937 0.408933 1.94326e-19)
(1.09272 0.398098 -1.14325e-19)
(1.09292 0.387581 8.14198e-20)
(0.222938 0.123397 -2.08923e-19)
(0.556289 0.319227 -3.89645e-19)
(0.789988 0.462131 -2.68749e-19)
(0.941159 0.550492 -1.81149e-20)
(1.02981 0.59458 6.30118e-20)
(1.07599 0.607842 -3.4652e-20)
(1.09631 0.602215 -2.22626e-19)
(1.10248 0.586512 -9.46816e-20)
(1.10183 0.56639 -1.685e-19)
(1.09841 0.545055 -7.55135e-20)
(1.09425 0.52411 3.86305e-20)
(1.09021 0.504237 -1.82313e-19)
(1.08656 0.485647 -3.77872e-20)
(1.08337 0.468342 -3.48292e-20)
(1.08061 0.45225 -1.14615e-19)
(1.07836 0.437287 5.01861e-20)
(1.07672 0.423409 5.65266e-21)
(1.07577 0.410747 4.04189e-20)
(1.07548 0.399527 -1.72391e-20)
(1.0764 0.388739 -4.64074e-20)
(0.225557 0.135806 4.82738e-19)
(0.555746 0.344424 4.203e-19)
(0.782443 0.490327 5.14113e-19)
(0.92603 0.576403 -5.36028e-20)
(1.00848 0.616174 -1.78906e-19)
(1.05057 0.624948 5.36766e-19)
(1.0688 0.6155 -2.58415e-19)
(1.07439 0.59684 2.8092e-19)
(1.0741 0.574514 -4.91582e-20)
(1.07158 0.551527 1.64216e-19)
(1.06857 0.529307 1.91074e-20)
(1.06575 0.508412 6.70961e-20)
(1.06332 0.488974 -1.42361e-20)
(1.06129 0.470949 6.00181e-20)
(1.05961 0.454233 -3.64531e-20)
(1.05831 0.438719 9.15436e-21)
(1.05753 0.424353 1.92812e-20)
(1.05735 0.411257 2.3757e-20)
(1.05782 0.399656 1.97373e-21)
(1.05951 0.388649 1.06023e-21)
(0.226347 0.147793 -1.47344e-19)
(0.551235 0.368066 -4.09325e-19)
(0.770176 0.516071 -2.48186e-19)
(0.906332 0.599416 -4.29003e-19)
(0.983187 0.634808 4.52765e-19)
(1.02193 0.639262 -3.0653e-19)
(1.03873 0.626255 1.89565e-19)
(1.04424 0.6049 -6.9157e-20)
(1.0447 0.580586 -7.30766e-20)
(1.04335 0.556113 -4.99196e-20)
(1.04167 0.532738 2.67555e-20)
(1.04022 0.510905 2.23491e-20)
(1.03914 0.490683 6.36912e-21)
(1.0384 0.471989 -2.18782e-20)
(1.03792 0.454691 1.18053e-21)
(1.0377 0.438666 1.01064e-22)
(1.03785 0.423839 -1.67225e-20)
(1.03852 0.410317 2.72442e-20)
(1.03982 0.398342 9.35037e-21)
(1.04229 0.387193 2.62001e-20)
(0.22531 0.159155 6.38133e-19)
(0.542909 0.389786 2.96742e-19)
(0.753493 0.539012 2.77913e-19)
(0.88246 0.619255 -1.60793e-19)
(0.954345 0.65028 1.74987e-20)
(0.990427 0.650635 2.21367e-19)
(1.0064 0.634355 2.47385e-20)
(1.0123 0.610575 4.26177e-20)
(1.01382 0.584494 4.16472e-20)
(1.01384 0.5587 -8.12614e-21)
(1.01365 0.534288 4.67021e-21)
(1.01369 0.511601 -1.17921e-20)
(1.01408 0.490654 -1.44406e-20)
(1.01474 0.471332 1.66897e-20)
(1.01558 0.453486 4.98666e-21)
(1.01657 0.436976 4.66585e-21)
(1.01778 0.421708 -8.75921e-21)
(1.01938 0.407761 -2.02726e-21)
(1.02154 0.395417 4.75989e-20)
(1.02487 0.384221 -4.67699e-20)
(0.222486 0.169693 -4.48316e-19)
(0.530977 0.40925 -3.85209e-19)
(0.732746 0.558838 1.78082e-19)
(0.854832 0.635682 -2.12752e-19)
(0.922365 0.662416 -1.76767e-20)
(0.956431 0.658934 1.54104e-20)
(0.972108 0.639691 -2.87871e-20)
(0.978782 0.613766 -3.01473e-20)
(0.981633 0.586143 -3.13403e-20)
(0.983208 0.559195 -2.23261e-20)
(0.984609 0.533865 -3.07461e-20)
(0.986233 0.510407 4.19532e-20)
(0.988156 0.488789 -4.49075e-21)
(0.990319 0.468873 1.19573e-20)
(0.992617 0.450499 4.15832e-21)
(0.994967 0.433517 -6.91002e-20)
(0.997378 0.417812 -5.85727e-20)
(1.00001 0.403407 -6.27264e-20)
(1.00318 0.390612 -1.53558e-21)
(1.0076 0.379377 9.62953e-20)
(0.217945 0.179223 4.02384e-19)
(0.515695 0.426155 2.03982e-20)
(0.708323 0.575279 -4.29605e-20)
(0.823883 0.648495 4.86484e-20)
(0.887667 0.671076 1.24889e-19)
(0.920307 0.664055 -9.92324e-20)
(0.93616 0.642174 9.68499e-21)
(0.943937 0.614394 -2.84972e-20)
(0.948326 0.585457 -2.48504e-20)
(0.951581 0.557527 4.11393e-21)
(0.954658 0.531401 -5.56935e-20)
(0.957906 0.507254 -4.6065e-20)
(0.961407 0.485011 5.13717e-20)
(0.965131 0.464519 -1.82019e-20)
(0.968989 0.445614 -1.98239e-19)
(0.972861 0.428156 1.95468e-19)
(0.976667 0.412008 -1.15442e-19)
(0.980569 0.397064 -7.27849e-20)
(0.985129 0.383554 9.34808e-20)
(0.991121 0.372048 -1.14955e-19)
(0.211785 0.187576 -8.61143e-20)
(0.497361 0.44024 9.37483e-20)
(0.680639 0.588107 4.26734e-20)
(0.790064 0.65753 -6.24022e-20)
(0.850674 0.676145 1.72617e-20)
(0.882423 0.665914 -3.14286e-20)
(0.898858 0.641741 -1.55735e-20)
(0.908007 0.612402 2.07242e-20)
(0.914098 0.582389 8.85297e-22)
(0.919118 0.553657 -1.17547e-19)
(0.923903 0.526867 3.18671e-20)
(0.928768 0.502112 1.08466e-20)
(0.933816 0.479274 1.39826e-19)
(0.939071 0.45818 -3.53155e-19)
(0.944499 0.438668 3.28976e-19)
(0.949982 0.420625 1.74309e-19)
(0.955386 0.403911 -3.40474e-20)
(0.96095 0.388212 2.88222e-20)
(0.967525 0.373543 3.13473e-19)
(0.975394 0.361424 -1.30928e-19)
(0.204133 0.194599 -2.33105e-20)
(0.476309 0.451281 5.38426e-20)
(0.650134 0.597138 -4.46494e-20)
(0.753836 0.662662 5.7337e-20)
(0.811812 0.677541 -3.97835e-20)
(0.843147 0.664455 4.05228e-20)
(0.86051 0.638345 3.02751e-20)
(0.871252 0.607759 -8.09001e-20)
(0.879164 0.576924 8.08508e-20)
(0.885998 0.547593 5.58599e-20)
(0.892482 0.5203 2.73557e-20)
(0.8989 0.495055 4.91558e-21)
(0.90537 0.47168 1.10779e-19)
(0.911968 0.449951 -1.11171e-19)
(0.918729 0.429666 1.32917e-19)
(0.925586 0.410698 -2.78966e-19)
(0.932452 0.392857 3.11364e-19)
(0.939754 0.375533 -2.67295e-19)
(0.948441 0.358481 -1.8172e-19)
(0.957423 0.345079 3.09012e-19)
(0.195136 0.200165 1.10543e-20)
(0.452897 0.459097 -2.37365e-20)
(0.617265 0.602231 -1.56771e-20)
(0.715662 0.663798 -5.33652e-20)
(0.771508 0.675208 1.76352e-20)
(0.80285 0.659641 4.48809e-21)
(0.821434 0.631963 -1.77858e-19)
(0.833945 0.60045 1.18608e-19)
(0.843771 0.569065 1.17193e-19)
(0.852449 0.539375 -1.62804e-19)
(0.860612 0.511799 1.89459e-19)
(0.868506 0.486277 -7.27973e-20)
(0.876236 0.46258 1.41823e-19)
(0.88388 0.44042 -2.26911e-19)
(0.891484 0.419515 4.71904e-19)
(0.899013 0.399618 -1.07205e-19)
(0.906488 0.380332 -2.96603e-20)
(0.914566 0.360441 3.0956e-19)
(0.924023 0.338054 -1.50875e-19)
(0.930027 0.315609 6.57037e-20)
(0.18496 0.204164 -7.16175e-20)
(0.427505 0.463548 9.8574e-20)
(0.582495 0.603285 -3.39913e-20)
(0.67601 0.660883 5.53115e-20)
(0.730187 0.669116 -2.67127e-20)
(0.761904 0.651453 -1.7309e-19)
(0.781954 0.62258 2.66054e-19)
(0.796377 0.590465 1.79419e-20)
(0.808189 0.55881 -2.82802e-20)
(0.818743 0.529013 4.86313e-21)
(0.82859 0.501402 8.56698e-20)
(0.837944 0.475878 1.47436e-19)
(0.846885 0.452202 8.88968e-20)
(0.855449 0.430102 -2.10946e-19)
(0.863624 0.409332 -5.9916e-20)
(0.871347 0.389703 -1.13907e-20)
(0.878713 0.370957 3.90612e-20)
(0.8863 0.352425 4.98585e-21)
(0.894073 0.333408 4.50604e-19)
(0.897489 0.315982 -3.14787e-19)
(0.173785 0.206509 1.79037e-19)
(0.400523 0.464533 -3.23317e-20)
(0.546292 0.600238 -1.19361e-19)
(0.635343 0.65389 3.96954e-19)
(0.68827 0.65926 7.33175e-20)
(0.720677 0.639893 -2.33386e-19)
(0.742392 0.610196 2.17465e-19)
(0.758838 0.577801 -4.8383e-20)
(0.772692 0.546152 1.92251e-19)
(0.78515 0.516492 8.71541e-20)
(0.796704 0.489069 -4.2504e-19)
(0.807554 0.463752 -4.96872e-20)
(0.817784 0.440294 5.90827e-19)
(0.82743 0.418428 -7.23079e-19)
(0.836471 0.397919 6.68949e-19)
(0.844837 0.378574 2.31453e-19)
(0.852589 0.360123 -8.24489e-19)
(0.860117 0.342006 3.97755e-19)
(0.867256 0.323918 -8.22016e-20)
(0.87059 0.308187 9.56474e-20)
(0.1618 0.207136 -3.13982e-19)
(0.372348 0.46199 -3.22977e-19)
(0.509123 0.593068 2.20918e-19)
(0.594116 0.642828 -2.74977e-19)
(0.646167 0.64566 -7.47361e-19)
(0.679529 0.62498 -2.33556e-20)
(0.703069 0.594825 -2.2126e-19)
(0.721619 0.562467 1.21393e-20)
(0.737552 0.531099 -4.31438e-19)
(0.751928 0.501822 -4.39051e-19)
(0.765193 0.474819 -2.97566e-19)
(0.77754 0.449939 -1.22105e-20)
(0.789063 0.426937 -7.38695e-19)
(0.799809 0.405565 -4.97189e-21)
(0.809781 0.385616 3.60014e-19)
(0.818947 0.366931 -3.58356e-19)
(0.827378 0.349297 -2.75769e-19)
(0.835394 0.332292 2.65465e-19)
(0.842821 0.315734 -1.90657e-19)
(0.846861 0.301469 3.68061e-20)
(0.149204 0.206004 2.47884e-19)
(0.343382 0.455897 1.92685e-19)
(0.471449 0.581789 -6.48059e-21)
(0.552776 0.627734 -1.54183e-19)
(0.60428 0.628359 3.81336e-19)
(0.638816 0.606752 6.08838e-19)
(0.664297 0.576495 -6.27538e-20)
(0.685007 0.54448 1.22647e-20)
(0.70304 0.513654 1.19904e-19)
(0.719345 0.484988 2.70395e-19)
(0.734338 0.458613 3.91229e-19)
(0.748213 0.434362 -3.15802e-19)
(0.761079 0.411994 3.1316e-19)
(0.773 0.391274 -1.06733e-19)
(0.784001 0.372007 3.64416e-19)
(0.794078 0.354043 -1.41677e-19)
(0.803331 0.337196 -3.51218e-19)
(0.812083 0.321131 2.12066e-19)
(0.820189 0.305781 -3.01674e-19)
(0.825204 0.292701 -3.43503e-19)
(0.136196 0.203094 1.071e-19)
(0.314019 0.446267 1.96624e-19)
(0.433718 0.566452 -2.07242e-19)
(0.511754 0.608675 1.03134e-20)
(0.562997 0.607425 3.55892e-20)
(0.598876 0.585268 2.86098e-19)
(0.62638 0.555251 -4.2395e-19)
(0.649272 0.523871 4.03339e-19)
(0.669405 0.493835 -3.83105e-20)
(0.687633 0.465997 1.10542e-19)
(0.704351 0.440442 1.77624e-19)
(0.719766 0.416995 -3.38542e-19)
(0.734004 0.395419 1.62883e-19)
(0.747154 0.375494 1.54564e-19)
(0.759265 0.357037 5.69599e-20)
(0.770366 0.339907 -2.92339e-19)
(0.780583 0.323931 9.84885e-19)
(0.790232 0.308824 -5.50851e-19)
(0.799165 0.29455 1.00222e-18)
(0.805214 0.282399 -6.493e-20)
(0.122976 0.198408 7.66944e-20)
(0.284648 0.433151 4.6155e-19)
(0.396366 0.547141 1.63132e-19)
(0.471465 0.585749 3.42555e-19)
(0.522687 0.582951 8.87496e-20)
(0.560036 0.560607 -5.46003e-19)
(0.589605 0.531159 8.46314e-19)
(0.614678 0.50069 4.37973e-19)
(0.636889 0.471677 1.82853e-20)
(0.657016 0.444868 5.67836e-19)
(0.675444 0.42031 9.12639e-20)
(0.692392 0.39782 5.95803e-20)
(0.708009 0.37717 3.40024e-19)
(0.722407 0.358148 -1.26931e-19)
(0.735662 0.340582 -1.34499e-19)
(0.747832 0.324335 7.93132e-19)
(0.759066 0.309243 -6.63458e-19)
(0.769673 0.29506 2.57037e-20)
(0.779496 0.281766 8.39903e-19)
(0.786605 0.270421 -7.7943e-22)
(0.109744 0.191969 -9.87683e-19)
(0.255643 0.416632 -1.6853e-19)
(0.359809 0.523975 -2.26679e-19)
(0.432304 0.559083 -1.72722e-19)
(0.483705 0.555055 -4.37012e-19)
(0.522607 0.532872 1.49651e-19)
(0.554248 0.504302 -2.09157e-19)
(0.58147 0.475005 5.97981e-20)
(0.605716 0.447235 -3.02723e-19)
(0.627701 0.421641 -2.87382e-19)
(0.647805 0.398241 5.90279e-20)
(0.666262 0.376849 -4.64709e-19)
(0.683247 0.357244 3.70645e-19)
(0.698893 0.339225 -1.3392e-19)
(0.713299 0.322627 4.21032e-19)
(0.72655 0.307316 -9.08407e-19)
(0.738813 0.293137 -1.72338e-19)
(0.750382 0.27987 -3.26154e-19)
(0.761095 0.267504 -8.77169e-19)
(0.769254 0.256894 -1.41388e-19)
(0.0966906 0.183819 1.6135e-19)
(0.227365 0.396823 -1.95323e-20)
(0.324445 0.497103 -2.47667e-19)
(0.394645 0.52883 8.73955e-20)
(0.446382 0.52388 -1.76739e-19)
(0.486879 0.502186 -2.37854e-21)
(0.520567 0.474785 2.41136e-19)
(0.549882 0.446904 -3.59688e-19)
(0.576097 0.42058 1.40677e-19)
(0.599878 0.396376 -8.12991e-20)
(0.621604 0.374282 2.18662e-20)
(0.641529 0.354114 -4.03002e-19)
(0.659846 0.335662 -4.90848e-19)
(0.676713 0.318733 -1.85718e-20)
(0.692251 0.30317 5.47438e-19)
(0.706565 0.288843 2.57784e-20)
(0.719836 0.275605 6.93807e-19)
(0.73234 0.263263 -1.01119e-18)
(0.743921 0.251801 5.38484e-19)
(0.753103 0.241902 9.27945e-19)
(0.0840026 0.17402 -1.39839e-19)
(0.200156 0.37387 7.51305e-20)
(0.290646 0.466703 4.88669e-19)
(0.358839 0.495171 1.20556e-19)
(0.411032 0.48959 -1.62816e-19)
(0.453128 0.468695 1.28398e-19)
(0.488805 0.442735 5.05842e-19)
(0.520129 0.416496 -4.10299e-19)
(0.548227 0.391807 3.81793e-20)
(0.573724 0.369152 -1.4993e-19)
(0.597001 0.348502 5.42602e-19)
(0.618332 0.329676 3.87901e-19)
(0.63793 0.312475 -5.61944e-20)
(0.655972 0.296718 -5.8988e-19)
(0.672599 0.282255 3.10659e-20)
(0.687937 0.26896 -7.29741e-20)
(0.702173 0.256699 3.47283e-19)
(0.715565 0.245299 5.65624e-19)
(0.727974 0.234738 4.94672e-19)
(0.73814 0.22555 -8.26284e-19)
(0.0718561 0.162651 -8.7284e-20)
(0.174337 0.347946 3.72698e-19)
(0.258761 0.432982 -3.63718e-19)
(0.325213 0.458311 5.05371e-19)
(0.377942 0.452374 -2.75204e-19)
(0.421608 0.432565 1.97047e-19)
(0.459186 0.408297 5.01323e-19)
(0.492414 0.383909 -6.02839e-19)
(0.522288 0.36103 2.74761e-19)
(0.549402 0.340071 3.48214e-19)
(0.574143 0.320991 -4.73702e-19)
(0.596801 0.303615 -3.3927e-20)
(0.61761 0.287757 -3.80985e-19)
(0.636764 0.273248 6.10828e-19)
(0.654423 0.259946 -3.31765e-19)
(0.670727 0.247733 3.56493e-19)
(0.68587 0.236486 -6.47459e-20)
(0.700091 0.226053 2.20583e-19)
(0.713278 0.216403 5.02778e-20)
(0.724377 0.207943 -1.28992e-19)
(0.0604172 0.149807 -2.67102e-19)
(0.150206 0.31925 -6.15428e-19)
(0.229113 0.396174 1.62003e-19)
(0.294068 0.418479 -5.19714e-19)
(0.347381 0.412443 -4.92306e-19)
(0.392552 0.393984 -3.53995e-19)
(0.431919 0.371637 2.76048e-19)
(0.466921 0.349291 2.1245e-19)
(0.498447 0.32838 -1.55842e-21)
(0.527064 0.309253 -1.8554e-19)
(0.553165 0.291858 -3.34703e-19)
(0.577057 0.276032 3.02196e-19)
(0.598993 0.261601 -1.04027e-19)
(0.619182 0.24841 -5.15798e-19)
(0.6378 0.236329 3.36289e-19)
(0.655002 0.225247 -2.52649e-19)
(0.670982 0.215053 -1.03104e-19)
(0.685966 0.205614 -2.88653e-19)
(0.699871 0.196894 -2.61863e-19)
(0.711843 0.189191 6.77066e-20)
(0.0498394 0.135599 2.33369e-19)
(0.128038 0.288005 1.21065e-19)
(0.201996 0.356537 1.85183e-19)
(0.265676 0.375928 -6.31394e-19)
(0.31959 0.370026 6.76577e-19)
(0.366174 0.353157 3.29233e-21)
(0.407191 0.332939 5.56128e-21)
(0.443821 0.312807 -4.13187e-19)
(0.476857 0.294008 3.8606e-19)
(0.506846 0.276835 -2.68586e-19)
(0.53419 0.26123 8.13352e-20)
(0.559211 0.247043 -3.61087e-19)
(0.582176 0.234117 -1.7201e-19)
(0.603311 0.222311 -8.23312e-20)
(0.622805 0.211506 6.20113e-19)
(0.640825 0.201602 -3.04573e-19)
(0.657565 0.1925 -2.75114e-19)
(0.673238 0.184086 2.83476e-19)
(0.687797 0.176317 -2.32885e-19)
(0.700572 0.169405 1.81563e-19)
(0.0402629 0.120152 4.95045e-19)
(0.108081 0.254458 -2.98964e-19)
(0.177675 0.314349 4.48386e-20)
(0.240285 0.330929 5.24447e-19)
(0.294787 0.325371 2.08158e-19)
(0.342665 0.310306 2.58516e-19)
(0.385173 0.292402 2.57489e-19)
(0.423265 0.274638 5.46651e-19)
(0.457655 0.25808 -1.25433e-19)
(0.488873 0.242969 2.99573e-19)
(0.51733 0.229248 4.35847e-19)
(0.543362 0.216782 1.60736e-19)
(0.56725 0.20543 2.9143e-19)
(0.589232 0.195068 1.05883e-19)
(0.60951 0.185591 6.24608e-20)
(0.628262 0.176909 -4.52058e-20)
(0.645678 0.168937 3.63005e-19)
(0.661962 0.161577 2.24145e-19)
(0.677104 0.154782 -2.03651e-19)
(0.690604 0.148698 1.92175e-19)
(0.0318129 0.103605 -3.28556e-19)
(0.0905556 0.218873 3.71709e-20)
(0.156384 0.269909 -9.50258e-20)
(0.21811 0.283771 -2.88661e-19)
(0.273164 0.278743 -1.53211e-19)
(0.322194 0.265671 -2.78405e-19)
(0.366015 0.250242 1.29326e-19)
(0.405388 0.234979 -5.0127e-19)
(0.440962 0.220774 2.96168e-19)
(0.473255 0.207821 -4.10048e-19)
(0.502686 0.196067 -2.54947e-19)
(0.529602 0.185393 -3.37778e-19)
(0.554296 0.175677 7.74174e-20)
(0.577019 0.166814 -7.64428e-20)
(0.597981 0.158711 9.169e-20)
(0.61737 0.151291 4.94351e-20)
(0.635374 0.144482 9.82883e-20)
(0.652187 0.138204 -8.21725e-19)
(0.667839 0.132407 4.092e-19)
(0.681978 0.127187 -2.45361e-19)
(0.0245992 0.0861071 1.08481e-19)
(0.0756525 0.181534 2.19201e-19)
(0.138326 0.223535 -1.4312e-19)
(0.19934 0.234759 3.53475e-19)
(0.254888 0.23042 -5.69351e-20)
(0.304907 0.219501 4.09841e-19)
(0.349847 0.206686 7.92113e-20)
(0.390308 0.194038 -8.34081e-20)
(0.426885 0.182282 3.03531e-19)
(0.460089 0.171569 2.32423e-19)
(0.490344 0.161852 8.62888e-20)
(0.518008 0.153032 1.13603e-19)
(0.543386 0.145007 5.70527e-20)
(0.566735 0.137688 -2.42311e-19)
(0.588277 0.130999 -3.3852e-20)
(0.608204 0.124877 2.53606e-19)
(0.626704 0.119262 -1.73371e-19)
(0.643962 0.114089 -7.9309e-21)
(0.660045 0.109313 -3.63979e-19)
(0.674728 0.10499 7.33625e-19)
(0.0187143 0.0678173 2.90721e-19)
(0.0635332 0.142739 -3.49435e-19)
(0.123672 0.175558 1.63888e-19)
(0.184133 0.184211 -2.32191e-19)
(0.240096 0.180695 2.04797e-19)
(0.290928 0.17206 -3.5602e-19)
(0.336778 0.161972 -2.61002e-19)
(0.378122 0.152034 1.95756e-20)
(0.415513 0.142806 -3.56459e-19)
(0.449455 0.134401 -2.22731e-19)
(0.480378 0.12678 -3.86223e-19)
(0.508649 0.119864 -1.31085e-20)
(0.53458 0.113573 -1.50355e-19)
(0.558437 0.107838 3.80615e-19)
(0.580447 0.102598 2.62762e-19)
(0.60081 0.0978029 -8.81611e-20)
(0.61971 0.0934068 -7.97741e-20)
(0.637328 0.08936 -3.53709e-21)
(0.65376 0.0856233 9.83713e-21)
(0.668886 0.0822274 1.44814e-19)
(0.0142335 0.0489032 -7.27039e-20)
(0.0543278 0.102799 -2.48985e-19)
(0.112559 0.126321 -1.55365e-19)
(0.172613 0.132459 -9.72939e-20)
(0.228902 0.129868 -2.01826e-19)
(0.280353 0.123622 3.46241e-19)
(0.326896 0.116349 -3.69876e-20)
(0.36891 0.109195 -8.34683e-20)
(0.406917 0.102556 3.40872e-21)
(0.441418 0.0965115 2.45931e-19)
(0.472848 0.091032 -2.33878e-19)
(0.501578 0.0860605 2.29032e-19)
(0.527928 0.0815396 1.07687e-19)
(0.552169 0.0774185 -1.96482e-19)
(0.574535 0.073654 4.29803e-20)
(0.595227 0.0702099 1.26701e-19)
(0.614429 0.0670532 4.42664e-20)
(0.632318 0.064149 -3.055e-20)
(0.649015 0.061467 -2.67272e-19)
(0.664479 0.0590224 2.12924e-19)
(0.0112138 0.0295389 6.55625e-20)
(0.0481345 0.0620353 7.96547e-20)
(0.105091 0.0761786 2.24115e-20)
(0.164878 0.0798391 -1.69119e-20)
(0.221389 0.0782483 4.81204e-20)
(0.273259 0.0744656 7.37058e-20)
(0.320267 0.0700715 2.79568e-20)
(0.362731 0.0657536 3.41362e-20)
(0.401153 0.0617483 -7.28883e-20)
(0.436029 0.0581025 1.36567e-19)
(0.467798 0.0547979 -3.23151e-20)
(0.496837 0.0517998 -2.63452e-21)
(0.523468 0.0490737 3.28965e-20)
(0.547967 0.0465889 3.71173e-20)
(0.570571 0.0443193 -9.99778e-20)
(0.591484 0.0422431 6.56969e-20)
(0.610889 0.0403406 4.31644e-20)
(0.628959 0.0385909 3.68944e-20)
(0.645834 0.0369749 7.92835e-20)
(0.661527 0.035499 3.28692e-20)
(0.00969329 0.00990308 -1.34259e-20)
(0.0450189 0.0207744 2.79099e-20)
(0.101336 0.0254902 -3.90813e-20)
(0.16099 0.0266976 2.45701e-20)
(0.217613 0.0261518 1.44537e-20)
(0.269694 0.0248766 6.4905e-21)
(0.316936 0.0233996 1.53141e-20)
(0.359625 0.0219494 -4.39392e-20)
(0.398255 0.0206046 2.80393e-20)
(0.43332 0.0193803 9.79652e-21)
(0.465259 0.0182703 -6.00012e-22)
(0.494453 0.017263 6.05053e-20)
(0.521225 0.0163469 -1.83451e-20)
(0.545854 0.0155118 -1.7606e-20)
(0.568578 0.0147489 -1.69628e-20)
(0.589602 0.0140509 2.62731e-21)
(0.609108 0.0134112 -2.27463e-20)
(0.627269 0.012823 4.33055e-21)
(0.644234 0.0122797 8.56898e-22)
(0.660042 0.011783 -2.89192e-21)
(0.00969109 -0.00982288 8.52898e-21)
(0.045014 -0.0206513 -4.53998e-20)
(0.101328 -0.0253792 5.41575e-20)
(0.160981 -0.0266173 -4.07224e-20)
(0.217603 -0.0261034 -1.90395e-20)
(0.269683 -0.0248563 5.70143e-20)
(0.316925 -0.0234037 4.76272e-21)
(0.359614 -0.0219756 1.34172e-21)
(0.398243 -0.0206513 2.67592e-20)
(0.433307 -0.0194466 1.38611e-20)
(0.465247 -0.0183554 -1.09235e-20)
(0.49444 -0.0173661 -3.84496e-20)
(0.521213 -0.0164671 3.62214e-21)
(0.545841 -0.0156482 -3.38446e-21)
(0.568565 -0.0149006 3.59783e-20)
(0.589589 -0.0142169 -2.16743e-20)
(0.609096 -0.0135908 2.97837e-20)
(0.627257 -0.0130151 -4.46637e-20)
(0.644222 -0.0124836 5.22262e-23)
(0.66003 -0.0119978 -9.42371e-21)
(0.0112071 -0.0294566 -2.83342e-20)
(0.0481196 -0.0619085 1.42994e-19)
(0.105069 -0.0760641 9.64346e-20)
(0.164851 -0.0797559 6.38733e-20)
(0.221359 -0.0781977 7.98382e-20)
(0.273227 -0.0744437 -1.93275e-20)
(0.320233 -0.0700745 8.86336e-20)
(0.362695 -0.0657788 1.82087e-20)
(0.401116 -0.0617944 -7.86911e-21)
(0.435991 -0.0581685 -6.33891e-20)
(0.46776 -0.0548828 6.5881e-20)
(0.496799 -0.0519029 -8.95636e-20)
(0.52343 -0.049194 6.51638e-20)
(0.547929 -0.0467256 7.47563e-20)
(0.570533 -0.0444715 9.9056e-20)
(0.591447 -0.0424098 -6.50172e-20)
(0.610852 -0.0405208 1.84666e-20)
(0.628922 -0.0387837 6.89732e-20)
(0.645798 -0.0371796 -6.52289e-20)
(0.661492 -0.0357147 4.92307e-20)
(0.0142219 -0.0488168 -2.74005e-19)
(0.0543022 -0.102666 -1.37724e-19)
(0.112522 -0.1262 -1.53225e-19)
(0.172568 -0.13237 -1.20966e-20)
(0.228851 -0.129813 -8.27286e-20)
(0.280299 -0.123597 -1.01495e-19)
(0.326839 -0.11635 1.7954e-19)
(0.36885 -0.109218 9.1619e-20)
(0.406856 -0.102601 1.13103e-19)
(0.441356 -0.0965767 -1.22815e-19)
(0.472784 -0.0911167 9.11204e-20)
(0.501514 -0.0861636 1.11411e-19)
(0.527864 -0.0816603 3.93186e-20)
(0.552105 -0.0775558 -3.73687e-20)
(0.574472 -0.0738071 8.1183e-21)
(0.595164 -0.0703777 -1.60886e-20)
(0.614367 -0.0672348 -1.58503e-19)
(0.632256 -0.0643435 2.44851e-20)
(0.648954 -0.0616736 1.5429e-19)
(0.664421 -0.05924 -2.07333e-19)
(0.0186971 -0.0677246 -9.02684e-20)
(0.0634958 -0.142595 1.3364e-19)
(0.123619 -0.175426 3.09813e-20)
(0.184068 -0.184114 -5.78778e-20)
(0.240024 -0.180633 -1.63748e-19)
(0.29085 -0.17203 -3.51147e-19)
(0.336697 -0.161969 -3.34539e-19)
(0.378037 -0.152055 -2.41899e-20)
(0.415426 -0.142849 -1.94989e-19)
(0.449366 -0.134465 -2.91884e-19)
(0.480288 -0.126864 2.26641e-19)
(0.508559 -0.119967 -3.34306e-19)
(0.53449 -0.113694 6.6794e-20)
(0.558347 -0.107976 -2.121e-20)
(0.580358 -0.102752 -7.03876e-20)
(0.600722 -0.0979726 -8.91332e-20)
(0.619623 -0.0935905 1.44456e-19)
(0.637241 -0.0895569 1.15627e-19)
(0.653674 -0.0858325 1.9895e-19)
(0.668804 -0.0824479 -2.97755e-19)
(0.0245754 -0.0860062 4.89411e-20)
(0.0756017 -0.181375 4.75902e-19)
(0.138255 -0.223389 1.36386e-19)
(0.199255 -0.23465 3.29873e-19)
(0.254793 -0.23035 -1.23333e-19)
(0.304806 -0.219464 1.89983e-19)
(0.349741 -0.206678 -5.99079e-20)
(0.390197 -0.194056 3.85909e-19)
(0.426772 -0.182323 -1.98735e-19)
(0.459974 -0.171632 2.34346e-19)
(0.490228 -0.161936 2.03622e-19)
(0.517891 -0.153135 2.18131e-19)
(0.543269 -0.145129 -1.95279e-19)
(0.566618 -0.137828 1.67875e-19)
(0.588161 -0.131156 -2.33384e-19)
(0.608089 -0.125049 -6.42939e-20)
(0.626591 -0.119448 -1.54184e-19)
(0.643851 -0.114289 -6.55415e-20)
(0.659935 -0.109526 2.59945e-19)
(0.674621 -0.105214 -4.30541e-19)
(0.0317815 -0.103494 -1.97155e-19)
(0.0904893 -0.218697 -2.27983e-20)
(0.156292 -0.269746 -7.86273e-20)
(0.218002 -0.283648 -2.76397e-19)
(0.273045 -0.278662 4.69144e-20)
(0.322067 -0.265626 -4.33332e-19)
(0.365882 -0.250229 -1.82456e-19)
(0.405251 -0.234992 -1.41526e-20)
(0.440821 -0.220812 -4.5937e-19)
(0.473112 -0.207883 -1.42879e-19)