1.275 	2.15223e-18 	-2.76991e-20 	0.0274557
1.825 	2.15223e-18 	-1.39322e-20 	0.0342846
2.375 	2.15223e-18 	1.38775e-18 	0.013662
2.925 	2.15223e-18 	2.78958e-18 	0.00670221
3.475 	2.15223e-18 	4.53849e-18 	0.00360824
4.025 	2.15223e-18 	6.28755e-18 	0.00189613
4.575 	2.15223e-18 	6.30203e-18 	0.00101448
5.125 	2.15223e-18 	6.31666e-18 	0.00053076
5.675 	2.15223e-18 	6.33144e-18 	0.000274822
6.225 	2.15223e-18 	4.61166e-18 	0.000130852
