1.275 	2.15223e-18 	-2.76991e-20 	-0.326876
1.825 	2.15223e-18 	-1.39322e-20 	-0.388788
2.375 	2.15223e-18 	1.38775e-18 	-0.326912
2.925 	2.15223e-18 	2.78958e-18 	-0.213213
3.475 	2.15223e-18 	4.53849e-18 	-0.11346
4.025 	2.15223e-18 	6.28755e-18 	-0.0270901
4.575 	2.15223e-18 	6.30203e-18 	0.0104386
5.125 	2.15223e-18 	6.31666e-18 	0.0381332
5.675 	2.15223e-18 	6.33144e-18 	0.0388389
6.225 	2.15223e-18 	4.61166e-18 	0.0375974
