/*--------------------------------*- C++ -*----------------------------------*\
  =========                 |
  \\      /  F ield         | OpenFOAM: The Open Source CFD Toolbox
   \\    /   O peration     | Website:  https://openfoam.org
    \\  /    A nd           | Version:  6.0
     \\/     M anipulation  |
\*---------------------------------------------------------------------------*/
FoamFile
{
    version     2.0;
    format      ascii;
    class       surfaceScalarField;
    location    "14.4";
    object      phi;
}
// * * * * * * * * * * * * * * * * * * * * * * * * * * * * * * * * * * * * * //

dimensions      [0 3 -1 0 0 0 0];

internalField   nonuniform List<scalar> 
15760
(
-3.30815e-06
3.16683e-06
1.41318e-07
-1.1627e-05
7.97852e-06
3.40365e-07
-2.37417e-05
1.16371e-05
4.77513e-07
-3.86943e-05
1.43847e-05
5.67945e-07
-5.57378e-05
1.64197e-05
6.23733e-07
-7.4304e-05
1.79118e-05
6.54515e-07
-9.39775e-05
1.90057e-05
6.67832e-07
-0.000114473
1.98255e-05
6.69461e-07
-0.000135614
2.04776e-05
6.63723e-07
-0.000157321
2.10533e-05
6.53767e-07
-0.000179593
2.16301e-05
6.41824e-07
-0.000202495
2.22732e-05
6.29424e-07
-0.000226149
2.30359e-05
6.17576e-07
-0.000250716
2.396e-05
6.06901e-07
-0.000276389
2.50758e-05
5.97739e-07
-0.000303382
2.64023e-05
5.90216e-07
-0.000331914
2.79475e-05
5.84291e-07
-0.000362201
2.9708e-05
5.79772e-07
-0.000394451
3.16732e-05
5.76423e-07
3.38364e-05
5.74005e-07
-0.000428862
-3.27381e-06
6.44063e-06
-1.15092e-05
1.62139e-05
-2.34981e-05
2.3626e-05
-3.82839e-05
2.91705e-05
-5.51171e-05
3.32529e-05
-7.34247e-05
3.62194e-05
-9.27843e-05
3.83652e-05
-0.000112901
3.99426e-05
-0.000133591
4.11676e-05
-0.000154763
4.22253e-05
-0.000176406
4.32731e-05
-0.000198577
4.4444e-05
-0.000221388
4.5847e-05
-0.000244997
4.75686e-05
-0.000269593
4.96724e-05
-0.000295391
5.21996e-05
-0.000322612
5.51689e-05
-0.00035148
5.8576e-05
-0.000382208
6.24013e-05
6.66309e-05
-0.000415003
-3.20681e-06
9.64745e-06
-1.12785e-05
2.42855e-05
-2.30208e-05
3.53684e-05
-3.74797e-05
4.36293e-05
-5.39013e-05
4.96746e-05
-7.17035e-05
5.40216e-05
-9.04503e-05
5.7112e-05
-0.000109831
5.93231e-05
-0.000129641
6.09782e-05
-0.000149771
6.23547e-05
-0.000170188
6.36903e-05
-0.000190931
6.51867e-05
-0.000212096
6.7012e-05
-0.000233829
6.93014e-05
-0.000256314
7.21576e-05
-0.000279764
7.565e-05
-0.00030441
7.98144e-05
-0.000330485
8.46513e-05
-0.00035822
9.01362e-05
9.62484e-05
-0.000387838
-3.11256e-06
1.276e-05
-1.09518e-05
3.21247e-05
-2.23422e-05
4.67588e-05
-3.63335e-05
5.76206e-05
-5.21663e-05
6.55074e-05
-6.92457e-05
7.1101e-05
-8.71171e-05
7.49834e-05
-0.000105446
7.76518e-05
-0.000124001
7.95329e-05
-0.00014264
8.09943e-05
-0.000161303
8.2353e-05
-0.000179997
8.38811e-05
-0.000198795
8.58094e-05
-0.000217822
8.83286e-05
-0.000237252
9.15882e-05
-0.000257298
9.56959e-05
-0.000278198
0.000100715
-0.000300207
0.00010666
-0.000323582
0.00011351
0.000121241
-0.000348574
-2.99823e-06
1.57582e-05
-1.05512e-05
3.96777e-05
-2.15051e-05
5.77127e-05
-3.49143e-05
7.10298e-05
-5.00134e-05
8.06065e-05
-6.61926e-05
8.72802e-05
-8.29747e-05
9.17655e-05
-9.99959e-05
9.46729e-05
-0.00011699
9.65269e-05
-0.000133776
9.77809e-05
-0.000150253
9.88293e-05
-0.000166387
0.000100015
-0.000182215
0.000101637
-0.000197834
0.000103947
-0.000213399
0.000107154
-0.000229119
0.000111416
-0.000245244
0.00011684
-0.000262055
0.000123471
-0.000279849
0.000131304
0.000140318
-0.000298926
-2.87186e-06
1.86301e-05
-1.01016e-05
4.69074e-05
-2.05572e-05
6.81684e-05
-3.32986e-05
8.37712e-05
-4.75549e-05
9.48627e-05
-6.2701e-05
0.000102426
-7.82358e-05
0.0001073
-9.37628e-05
0.0001102
-0.000108975
0.00011174
-0.000123647
0.000112452
-0.000137624
0.000112806
-0.000150822
0.000113214
-0.000163227
0.000114043
-0.000174897
0.000115617
-0.000185958
0.000118215
-0.000196606
0.000122064
-0.000207102
0.000127335
-0.00021776
0.000134129
-0.000228935
0.000142479
0.000152382
-0.000240999
-2.74118e-06
2.13713e-05
-9.62641e-06
5.37926e-05
-1.95436e-05
7.80856e-05
-3.15587e-05
9.57862e-05
-4.48969e-05
0.000108201
-5.892e-05
0.000116449
-7.31037e-05
0.000121484
-8.70188e-05
0.000124115
-0.000100316
0.000125037
-0.000112717
0.000124853
-0.000124009
0.000124098
-0.000134045
0.000123249
-0.000142747
0.000122746
-0.000150116
0.000122986
-0.000156232
0.000124331
-0.000161269
0.000127101
-0.00016549
0.000131556
-0.000169248
0.000137887
-0.00017297
0.000146201
0.000156547
-0.000177135
-2.61247e-06
2.39837e-05
-9.14469e-06
6.03248e-05
-1.84999e-05
8.74409e-05
-2.97506e-05
0.000107037
-4.2121e-05
0.000120571
-5.49637e-05
0.000129292
-6.77357e-05
0.000134256
-7.99782e-05
0.000136358
-9.13011e-05
0.00013636
-0.000101373
0.000134925
-0.000109917
0.000132642
-0.000116713
0.000130046
-0.000121607
0.000127639
-0.00012452
0.000125899
-0.000125471
0.000125281
-0.000124585
0.000126215
-0.000122118
0.000129089
-0.000118455
0.000134224
-0.000114113
0.00014186
0.000152148
-0.000109715
-2.48968e-06
2.64734e-05
-8.66744e-06
6.65026e-05
-1.74456e-05
9.6219e-05
-2.7903e-05
0.000117494
-3.92668e-05
0.000131935
-5.08861e-05
0.000140911
-6.22064e-05
0.000145576
-7.27468e-05
0.000146898
-8.20826e-05
0.000145696
-8.98336e-05
0.000142676
-9.56592e-05
0.000138467
-9.92616e-05
0.000133648
-0.000100396
0.000128774
-9.889e-05
0.000124393
-9.46685e-05
0.00012106
-8.77857e-05
0.000119333
-7.84575e-05
0.00011976
-6.70902e-05
0.000122857
-5.42981e-05
0.000129068
0.00013874
-4.08898e-05
-2.37371e-06
2.88471e-05
-8.19573e-06
7.23246e-05
-1.63792e-05
0.000104403
-2.60088e-05
0.000127124
-3.63178e-05
0.000142244
-4.66588e-05
0.000151252
-5.64751e-05
0.000155393
-6.52745e-05
0.000155697
-7.26092e-05
0.00015303
-7.80607e-05
0.000148128
-8.12325e-05
0.000141639
-8.17515e-05
0.000134167
-7.9278e-05
0.0001263
-7.35285e-05
0.000118644
-6.431e-05
0.000111841
-5.1567e-05
0.00010659
-3.54379e-05
0.000103631
-1.63161e-05
0.000103735
5.09429e-06
0.000107657
0.000116081
2.77538e-05
-2.26231e-06
3.11094e-05
-7.71997e-06
7.77823e-05
-1.52772e-05
0.00011196
-2.40214e-05
0.000135868
-3.31943e-05
0.000151417
-4.21584e-05
0.000160216
-5.0364e-05
0.000163598
-5.73207e-05
0.000162654
-6.25728e-05
0.000158282
-6.56804e-05
0.000151235
-6.62081e-05
0.000142167
-6.37206e-05
0.00013168
-5.77905e-05
0.00012037
-4.80187e-05
0.000108872
-3.40745e-05
9.78972e-05
-1.57555e-05
8.82706e-05
6.92873e-06
8.09472e-05
3.36526e-05
7.70109e-05
6.36542e-05
7.76557e-05
8.4103e-05
9.56318e-05
-2.15047e-06
3.32599e-05
-7.22089e-06
8.28527e-05
-1.40946e-05
0.000118833
-2.18561e-05
0.00014363
-2.97546e-05
0.000159315
-3.71652e-05
0.000167627
-4.3553e-05
0.000169986
-4.8441e-05
0.000167542
-5.1382e-05
0.000161223
-5.19361e-05
0.000151789
-4.96534e-05
0.000139884
-4.40635e-05
0.00012609
-3.46747e-05
0.000110981
-2.09882e-05
9.51853e-05
-2.53392e-06
7.94429e-05
2.10627e-05
6.46739e-05
4.99742e-05
5.20358e-05
8.4017e-05
4.29681e-05
0.000122441
3.92322e-05
4.28633e-05
0.00016368
-2.03131e-06
3.52912e-05
-6.67227e-06
8.74936e-05
-1.27707e-05
0.000124932
-1.93984e-05
0.000150257
-2.58057e-05
0.000165723
-3.1378e-05
0.000173199
-3.55968e-05
0.000174205
-3.80049e-05
0.00016995
-3.81769e-05
0.000161395
-3.56934e-05
0.000149306
-3.01193e-05
0.00013431
-2.09863e-05
0.000116957
-7.78178e-06
9.77766e-05
1.00504e-05
7.73531e-05
3.30876e-05
5.64057e-05
6.18698e-05
3.58917e-05
9.67848e-05
1.71208e-05
0.000137872
1.88041e-06
0.000184505
-7.40024e-06
-7.54546e-06
0.000234914
-1.89737e-06
3.71886e-05
-6.04463e-06
9.16409e-05
-1.12362e-05
0.000130123
-1.65161e-05
0.000155537
-2.11228e-05
0.000170329
-2.44418e-05
0.000176518
-2.59634e-05
0.000175726
-2.52475e-05
0.000169234
-2.18938e-05
0.000158042
-1.55166e-05
0.000142929
-5.72123e-06
0.000124515
7.91755e-06
0.000103318
2.58757e-05
7.98185e-05
4.86947e-05
5.4534e-05
7.69827e-05
2.81177e-05
0.000111383
1.49186e-06
0.000152477
-2.39732e-05
0.000200581
-4.62239e-05
0.000255333
-6.21519e-05
-6.71298e-05
0.000314917
-1.74178e-06
3.89304e-05
-5.30917e-06
9.52083e-05
-9.42136e-06
0.000134236
-1.30735e-05
0.000159189
-1.54727e-05
0.000172729
-1.59846e-05
0.00017703
-1.40898e-05
0.000173832
-9.34919e-06
0.000164494
-1.37658e-06
0.000150069
1.01827e-05
0.000131369
2.56713e-05
0.000109026
4.54397e-05
8.35497e-05
6.98685e-05
5.53897e-05
9.93949e-05
2.50076e-05
0.000134538
-7.02503e-06
0.000175907
-3.98776e-05
0.000224164
-7.22305e-05
0.000279867
-0.000101927
0.000343042
-0.000125327
-0.000136192
0.000412104
-1.55916e-06
4.04895e-05
-4.44041e-06
9.80895e-05
-7.2617e-06
0.000137057
-8.94358e-06
0.000160871
-8.6346e-06
0.00017242
-5.65265e-06
0.000174048
5.61014e-07
0.000167618
1.04748e-05
0.00015458
2.44892e-05
0.000136055
4.29507e-05
0.000112908
6.61622e-05
8.58147e-05
9.43924e-05
5.53194e-05
0.00012789
2.18924e-05
0.000166905
-1.40078e-05
0.00021173
-5.185e-05
0.000262744
-9.08919e-05
0.000320452
-0.000129938
0.000385449
-0.000166923
0.000458142
-0.00019802
-0.000215562
0.000537513
-1.34562e-06
4.18351e-05
-3.4167e-06
0.000100161
-4.70015e-06
0.00013834
-4.01212e-06
0.000160183
-4.11133e-07
0.000168819
6.86747e-06
0.00016677
1.84597e-05
0.000156026
3.4904e-05
0.000138135
5.6658e-05
0.000114301
8.41031e-05
8.54628e-05
0.000117541
5.23767e-05
0.000157187
1.56734e-05
0.000203162
-2.4083e-05
0.000255497
-6.63425e-05
0.000314151
-0.000110504
0.000379071
-0.000155812
0.000450278
-0.000201145
0.000527975
-0.00024462
0.00061258
-0.000282625
-0.000306884
0.000703901
-1.09787e-06
4.2933e-05
-2.21771e-06
0.00010128
-1.68282e-06
0.000137805
1.82671e-06
0.000156674
9.37623e-06
0.000161269
2.185e-05
0.000154296
4.0002e-05
0.000137874
6.44857e-05
0.000113652
9.58648e-05
8.29216e-05
0.000134609
4.67191e-05
0.000181076
5.90968e-06
0.000235487
-3.8738e-05
0.000297894
-8.64898e-05
0.000368143
-0.000136592
0.000445852
-0.000188214
0.00053042
-0.000240379
0.000621092
-0.000291818
0.000717118
-0.000340645
0.000818046
-0.000383553
-0.000413467
0.000924629
-8.11408e-07
4.37444e-05
-8.19415e-07
0.000101288
1.85003e-06
0.000135136
8.68449e-06
0.000149839
2.0906e-05
0.000149048
3.95532e-05
0.000135649
6.55352e-05
0.000111892
9.96591e-05
7.95279e-05
0.000142637
3.99442e-05
0.000195073
-5.71709e-06
0.000257441
-5.64588e-05
0.000330046
-0.000111343
0.000412974
-0.000169417
0.000506026
-0.000229643
0.000608637
-0.000290825
0.00071978
-0.000351523
0.000837884
-0.000409921
0.000960771
-0.000463532
0.0010859
-0.000508686
-0.000541755
0.00121419
-4.78418e-07
4.42228e-05
8.11998e-07
9.99981e-05
5.97549e-06
0.000129972
1.66966e-05
0.000139118
3.43828e-05
0.000131361
6.02549e-05
0.000109777
9.54016e-05
7.67451e-05
0.000140804
3.41251e-05
0.000197339
-1.65909e-05
0.000265763
-7.41411e-05
0.00034669
-0.000137386
0.000440562
-0.000205215
0.000547619
-0.000276475
0.000667867
-0.000349891
0.000801028
-0.000423986
0.000946459
-0.000496955
0.00110295
-0.000566413
0.001268
-0.000628583
0.0014351
-0.00067578
-0.000690711
0.00158405
-8.66905e-08
4.43095e-05
2.72405e-06
9.71873e-05
1.07961e-05
0.0001219
2.60358e-05
0.000123879
5.00577e-05
0.000107339
8.42796e-05
7.55547e-05
0.000129973
3.10513e-05
0.000188282
-2.41839e-05
0.000260214
-8.85226e-05
0.000346621
-0.000160549
0.000448182
-0.000238946
0.00056539
-0.000322422
0.000698568
-0.000409653
0.000847932
-0.000499255
0.00101373
-0.000589785
0.00119653
-0.000679755
0.00139775
-0.000767631
0.00162093
-0.000851759
0.00187567
-0.000930525
-0.000998983
0.00218394
3.83894e-07
4.39256e-05
4.98436e-06
9.25868e-05
1.6448e-05
0.000110437
3.69212e-05
0.000103405
6.82364e-05
7.60242e-05
0.000112005
3.17858e-05
0.000169658
-2.66011e-05
0.000242442
-9.69681e-05
0.0003314
-0.000177481
0.000437335
-0.000266484
0.000560782
-0.000362393
0.000701996
-0.000463636
0.000860977
-0.000568634
0.00103753
-0.000675812
0.00123141
-0.000783657
0.00144246
-0.000890805
0.00167098
-0.000996157
0.00191822
-0.001099
0.00218675
-0.00119905
-0.00128839
0.00247615
9.56747e-07
4.29689e-05
7.67159e-06
8.5872e-05
2.30873e-05
9.5021e-05
4.95986e-05
7.68941e-05
8.92512e-05
3.63716e-05
0.000143823
-2.27861e-05
0.000214841
-9.76186e-05
0.000303551
-0.000185679
0.000410875
-0.000284804
0.000537349
-0.000392958
0.000683092
-0.000508135
0.000847789
-0.000628333
0.00103072
-0.000751563
0.00123081
-0.000875903
0.00144674
-0.000999587
0.00167703
-0.0011211
0.00192016
-0.00123929
0.0021746
-0.00135344
0.00243869
-0.00146314
-0.00156028
0.00271059
1.65932e-06
4.13096e-05
1.08731e-05
7.66582e-05
3.08804e-05
7.50137e-05
6.43171e-05
4.34574e-05
0.000113416
-1.27273e-05
0.000180061
-8.9431e-05
0.000265768
-0.000183326
0.000371625
-0.000291535
0.000498211
-0.000411391
0.000645536
-0.000540283
0.000813001
-0.0006756
0.000999409
-0.000814741
0.00120302
-0.000955174
0.00142165
-0.00109453
0.00165276
-0.0012307
0.00189361
-0.00136195
0.00214131
-0.00148698
0.00239282
-0.00160495
0.00264508
-0.0017154
-0.00181186
0.00289666
2.51941e-06
3.87902e-05
1.46738e-05
6.45039e-05
3.99805e-05
4.9707e-05
8.12886e-05
2.14936e-06
0.00014096
-7.23985e-05
0.00022088
-0.000169352
0.000322396
-0.000284842
0.000446215
-0.000415354
0.00059231
-0.000557486
0.000759865
-0.000707838
0.000947277
-0.000863012
0.00115222
-0.00101969
0.00137179
-0.00117474
0.00160263
-0.00132537
0.00184118
-0.00146925
0.00208376
-0.00160454
0.00232678
-0.00173
0.00256675
-0.00184492
0.00280044
-0.00194909
-0.00203817
0.00302674
3.5621e-06
3.52281e-05
1.91457e-05
4.89203e-05
5.05055e-05
1.83472e-05
0.000100646
-4.79913e-05
0.00017196
-0.000143712
0.000266178
-0.00026357
0.000384257
-0.000402921
0.00052625
-0.000557347
0.000691222
-0.000722458
0.000877244
-0.00089386
0.00108148
-0.00106725
0.00130035
-0.00123856
0.0015298
-0.00140419
0.00176553
-0.0015611
0.00200327
-0.00170699
0.00223899
-0.00184026
0.00246907
-0.00196008
0.00269035
-0.00206621
0.0029003
-0.00215904
-0.00223626
0.0030984
4.80718e-06
3.04209e-05
2.43388e-05
2.93887e-05
6.25175e-05
-1.98315e-05
0.000122409
-0.000107882
0.000206286
-0.000227589
0.000315512
-0.000372796
0.000450373
-0.000537782
0.000609959
-0.000716932
0.000792127
-0.000904626
0.000993603
-0.00109534
0.00121021
-0.00128385
0.00143718
-0.00146553
0.00166954
-0.00163654
0.00190241
-0.00179398
0.00213138
-0.00193595
0.00235265
-0.00206153
0.00256318
-0.00217061
0.00276076
-0.00226378
0.00294393
-0.00234221
-0.0024053
0.00311297
6.26745e-06
2.41534e-05
3.02742e-05
5.38199e-06
7.60082e-05
-6.55655e-05
0.000146455
-0.00017833
0.000243566
-0.0003247
0.00036806
-0.000497289
0.000519237
-0.000688959
0.000694905
-0.0008926
0.00089147
-0.00110119
0.00110421
-0.00130808
0.00132767
-0.00150732
0.00155617
-0.00169403
0.00178422
-0.00186459
0.00200695
-0.00201671
0.00222034
-0.00214935
0.0024214
-0.00226258
0.00260814
-0.00235735
0.00277955
-0.0024352
0.00293544
-0.0024981
-0.00254681
0.00307695
7.94787e-06
1.62056e-05
3.69406e-05
-2.36107e-05
9.08898e-05
-0.000119515
0.000172512
-0.000259952
0.000283173
-0.000435361
0.000422627
-0.000636743
0.000588857
-0.000855189
0.000778123
-0.00108187
0.000985255
-0.00130832
0.00120415
-0.00152697
0.00142836
-0.00173153
0.00165173
-0.0019174
0.00186884
-0.00208171
0.00207538
-0.00222325
0.00226827
-0.00234224
0.00244568
-0.00243999
0.00260691
-0.00251858
0.00275218
-0.00258046
0.00288239
-0.00262831
-0.00266383
0.00299941
9.84517e-06
6.36041e-06
4.42919e-05
-5.80574e-05
0.000106992
-0.000182214
0.000200148
-0.000353108
0.00032423
-0.000559443
0.000477684
-0.000790197
0.000656877
-0.00103438
0.000856359
-0.00128135
0.00106943
-0.00152139
0.00128887
-0.00174641
0.00150773
-0.00195039
0.00171995
-0.00212961
0.00192075
-0.00228251
0.00210688
-0.00240937
0.00227653
-0.00251189
0.00242921
-0.00259267
0.00256543
-0.00265479
0.00268644
-0.00270148
0.00279395
-0.00273583
-0.00276013
0.00289026
1.19477e-05
-5.5873e-06
5.22466e-05
-9.83563e-05
0.000124059
-0.000254026
0.000228782
-0.000457832
0.000365644
-0.000696305
0.000531452
-0.000956005
0.000720742
-0.00122367
0.000926352
-0.00148696
0.0011403
-0.00173534
0.00135473
-0.00196084
0.00156275
-0.00215842
0.00175899
-0.00232585
0.00193981
-0.00246333
0.00210332
-0.00257288
0.00224909
-0.00265767
0.00237786
-0.00272144
0.00249113
-0.00276806
0.00259086
-0.00280121
0.0026792
-0.00282416
-0.00283946
0.00275853
1.42352e-05
-1.98225e-05
6.06877e-05
-0.000144809
0.000141757
-0.000335095
0.000257702
-0.000573777
0.000406155
-0.000844758
0.000582013
-0.00113186
0.000777909
-0.00141957
0.00098516
-0.00169421
0.00119493
-0.00194511
0.00139933
-0.00216523
0.00159211
-0.0023512
0.00176909
-0.00250282
0.00192806
-0.00262231
0.00206856
-0.00271338
0.00219144
-0.00278054
0.00229839
-0.00282839
0.0023916
-0.00286127
0.00247338
-0.00288299
0.00254597
-0.00289675
-0.00290512
0.00261163
1.66783e-05
-3.65008e-05
6.94636e-05
-0.000197594
0.000159678
-0.00042531
0.000286089
-0.000700188
0.000444407
-0.00100308
0.000627459
-0.00131491
0.000826073
-0.00161818
0.00103043
-0.00189856
0.00123141
-0.0021461
0.00142169
-0.00235551
0.0015962
-0.00252571
0.00175222
-0.00265884
0.00188906
-0.00275915
0.00200756
-0.00283189
0.00210957
-0.00288255
0.00219745
-0.00291627
0.00227368
-0.0029375
0.00234064
-0.00294995
0.00240047
-0.00295658
-0.00295977
0.00245511
1.92385e-05
-5.57393e-05
7.83899e-05
-0.000256746
0.000177358
-0.000524278
0.00031306
-0.00083589
0.000479039
-0.00116906
0.000666033
-0.00150191
0.000863358
-0.00181551
0.00106058
-0.00209579
0.00124894
-0.00233446
0.00142219
-0.00252875
0.00157676
-0.00268028
0.00171151
-0.0027936
0.00182714
-0.00287477
0.00192554
-0.00293029
0.00200922
-0.00296623
0.00208085
-0.0029879
0.00214298
-0.00299963
0.00219782
-0.0030048
0.00224726
-0.00300601
-0.0030054
0.00229289
2.18682e-05
-7.76075e-05
8.72548e-05
-0.000322132
0.000194288
-0.000631311
0.000337718
-0.000979321
0.000508777
-0.00134011
0.000696276
-0.00168941
0.000888469
-0.0020077
0.00107492
-0.00228224
0.00124778
-0.00250732
0.00140227
-0.00268324
0.00153647
-0.00281448
0.00165071
-0.00290784
0.00174682
-0.00297088
0.00182742
-0.00301089
0.00189537
-0.00303418
0.00195337
-0.00304591
0.00200383
-0.00305008
0.00204869
-0.00304966
0.00208953
-0.00304685
-0.00304346
0.00212759
2.45114e-05
-0.000102119
9.58257e-05
-0.000393447
0.000209946
-0.000745431
0.000359206
-0.00112858
0.000532529
-0.00151344
0.000717125
-0.001874
0.00090075
-0.00219133
0.00107356
-0.00245505
0.00122908
-0.00266284
0.00136417
-0.00281834
0.00147851
-0.00292882
0.00157368
-0.00300301
0.00165234
-0.00304953
0.00171749
-0.00307604
0.00177209
-0.00308877
0.00181869
-0.00309251
0.00185941
-0.00309081
0.0018959
-0.00308616
0.00192942
-0.00308037
-0.00307494
0.0019609
2.71057e-05
-0.000129225
0.000103859
-0.0004702
0.000223823
-0.000865395
0.000376764
-0.00128152
0.000549455
-0.00168613
0.000727974
-0.00205252
0.000900178
-0.00236353
0.00105733
-0.00261221
0.00119458
-0.00280009
0.0013105
-0.00293425
0.00140614
-0.00302446
0.00148404
-0.00308091
0.00154737
-0.00311286
0.00159926
-0.00312794
0.00164254
-0.00313205
0.00167951
-0.00312949
0.00171197
-0.00312326
0.00174125
-0.00311544
0.00176832
-0.00310744
-0.0031005
0.00179389
2.95841e-05
-0.000158809
0.000111113
-0.000551729
0.000235451
-0.000989734
0.000389774
-0.00143584
0.000559017
-0.00185537
0.000728675
-0.00222218
0.000887273
-0.00252213
0.00102756
-0.00275249
0.00114642
-0.00291895
0.00124399
-0.00303182
0.00132244
-0.00310292
0.00138498
-0.00314344
0.00143496
-0.00316284
0.00147549
-0.00316846
0.0015091
-0.00316566
0.0015378
-0.00315818
0.00156305
-0.00314851
0.00158591
-0.0031383
0.00160713
-0.00312866
-0.00312057
0.0016272
3.18781e-05
-0.000190687
0.000117357
-0.000637207
0.000244433
-0.00111681
0.0003978
-0.00158921
0.000560989
-0.00201856
0.000719493
-0.00238069
0.000862978
-0.00266561
0.000985897
-0.00287541
0.00108684
-0.00301989
0.00116726
-0.00311224
0.00123018
-0.00316584
0.00127916
-0.00319242
0.00131756
-0.00320125
0.00134826
-0.00319916
0.00137348
-0.00319089
0.0013949
-0.0031796
0.00141369
-0.0031673
0.00143068
-0.00315529
0.00144642
-0.0031444
-0.0031354
0.00146125
3.39207e-05
-0.000224608
0.000122386
-0.000725673
0.000250458
-0.00124488
0.000400597
-0.00173935
0.000555443
-0.00217341
0.000701032
-0.00252627
0.000828519
-0.0027931
0.000934134
-0.00298103
0.00101801
-0.00310377
0.00108268
-0.00317691
0.00113171
-0.00321487
0.00116875
-0.00322946
0.00119703
-0.00322953
0.00121912
-0.00322124
0.00123691
-0.00320869
0.00125177
-0.00319445
0.0012646
-0.00318014
0.00127606
-0.00316674
0.00128655
-0.00315489
-0.00314515
0.0012963
3.56531e-05
-0.000260261
0.00012604
-0.000816059
0.000253334
-0.00137218
0.000398128
-0.00188414
0.00054272
-0.002318
0.000674155
-0.00265771
0.000785291
-0.00290423
0.000874084
-0.00306982
0.000941995
-0.00317168
0.000992334
-0.00322724
0.00102896
-0.00325149
0.00105547
-0.00325597
0.00107481
-0.00324888
0.00108922
-0.00323565
0.00110028
-0.00321974
0.00110905
-0.00320323
0.00111627
-0.00318736
0.00112241
-0.00317288
0.00112778
-0.00316026
-0.00314992
0.00113254
3.70138e-05
-0.000297275
0.000128176
-0.000907221
0.000252944
-0.00149694
0.000390493
-0.00202169
0.000523318
-0.00245082
0.000639832
-0.00277422
0.000734683
-0.00299909
0.000807408
-0.00314255
0.000860543
-0.00322482
0.000897914
-0.00326462
0.000923461
-0.00327704
0.000940583
-0.0032731
0.000951916
-0.00326021
0.000959344
-0.00324308
0.00096415
-0.00322455
0.00096718
-0.00320626
0.00096899
-0.00318917
0.000969947
-0.00317384
0.000970281
-0.00316059
-0.00314974
0.000970104
3.79603e-05
-0.000335235
0.00012872
-0.000997982
0.000249303
-0.00161753
0.000377976
-0.00215037
0.000497913
-0.00257076
0.000599147
-0.00287546
0.000678089
-0.00307803
0.000735661
-0.00320012
0.00077521
-0.00326436
0.000800851
-0.00329026
0.000816442
-0.00329263
0.000825103
-0.00328176
0.000829126
-0.00326423
0.000830075
-0.00324403
0.000828974
-0.00322344
0.000826478
-0.00320376
0.000823016
-0.00318571
0.000818867
-0.00316969
0.000814206
-0.00315593
-0.00314465
0.000809112
3.84576e-05
-0.000373692
0.000127638
-0.00108716
0.000242511
-0.0017324
0.000360961
-0.00226882
0.000467253
-0.00267705
0.000553173
-0.00296138
0.000616794
-0.00314165
0.000660192
-0.00324352
0.000687283
-0.00329146
0.000702279
-0.00330525
0.00070884
-0.00329919
0.000709763
-0.00328268
0.000707001
-0.00326147
0.000701831
-0.00323886
0.000695055
-0.00321667
0.000687176
-0.00319588
0.000678523
-0.00317705
0.000669312
-0.00316048
0.000659679
-0.0031463
-0.00313465
0.000649682
3.84831e-05
-0.000412176
0.000124941
-0.00117362
0.000232744
-0.0018402
0.000339913
-0.00237599
0.000432116
-0.00276925
0.000502939
-0.0030322
0.000551953
-0.00319066
0.000582156
-0.00327372
0.000597815
-0.00330711
0.00060309
-0.00331053
0.000601368
-0.00329747
0.000595109
-0.00327642
0.000585948
-0.00325231
0.00057491
-0.00322782
0.000562614
-0.00320437
0.000549444
-0.00318271
0.00053565
-0.00316326
0.000521402
-0.00314623
0.000506809
-0.00313171
-0.00311976
0.00049192
3.8026e-05
-0.000450202
0.000120678
-0.00125627
0.000220242
-0.00193977
0.00031534
-0.00247108
0.000393277
-0.00284719
0.000449397
-0.00308832
0.000484581
-0.00322585
0.000502521
-0.00329166
0.000507655
-0.00331225
0.000503978
-0.00330685
0.000494565
-0.00328806
0.000481542
-0.0032634
0.000466261
-0.00323703
0.000449529
-0.00321109
0.000431818
-0.00318666
0.000413415
-0.00316431
0.000394509
-0.00314435
0.000375239
-0.00312696
0.000355696
-0.00311216
-0.00309999
0.000335923
3.70871e-05
-0.000487289
0.000114937
-0.00133412
0.000205282
-0.00203011
0.000287767
-0.00255357
0.000351472
-0.0029109
0.000393403
-0.00313025
0.000415548
-0.00324799
0.000422086
-0.0032982
0.000417477
-0.00330764
0.000405478
-0.00329485
0.000388835
-0.00327141
0.00036936
-0.00324392
0.000348154
-0.00321582
0.000325848
-0.00318878
0.000302792
-0.00316361
0.000279193
-0.00314071
0.000255196
-0.00312035
0.000230914
-0.00310268
0.000206428
-0.00308768
-0.00307534
0.000181783
3.5678e-05
-0.000522967
0.000107828
-0.00140627
0.000188169
-0.00211045
0.000257717
-0.00262312
0.000307388
-0.00296057
0.000335717
-0.00315858
0.000345593
-0.00325787
0.000341503
-0.00329411
0.000327817
-0.00329395
0.000308002
-0.00327504
0.000284481
-0.00324789
0.00025878
-0.00321822
0.000231788
-0.00318883
0.000203988
-0.00316098
0.000175632
-0.00313525
0.000146865
-0.00311194
0.00011779
-0.00309128
8.8503e-05
-0.00307339
5.90834e-05
-0.00305826
-0.00304584
2.95799e-05
3.38197e-05
-0.000556786
9.94853e-05
-0.00147194
0.000169222
-0.00218019
0.000225691
-0.00267959
0.000261648
-0.00299653
0.000276997
-0.00317393
0.000275333
-0.0032562
0.000261302
-0.00328008
0.000239093
-0.00327174
0.000211868
-0.00324781
0.000181733
-0.00321776
0.000149967
-0.00318646
0.000117282
-0.00315614
8.40397e-05
-0.00312774
5.04138e-05
-0.00310162
1.64951e-05
-0.00307802
-1.76451e-05
-0.00305714
-5.19288e-05
-0.00303911
-8.62724e-05
-0.00302392
-0.0030115
-0.000120616
3.15411e-05
-0.000588327
9.00544e-05
-0.00153045
0.000148756
-0.00223889
0.000192159
-0.00272299
0.000214809
-0.00301918
0.000217809
-0.00317693
0.000205284
-0.00324368
0.00018191
-0.0032567
0.000151642
-0.00324148
0.000117321
-0.00321349
8.07695e-05
-0.00318121
4.30488e-05
-0.00314874
4.7258e-06
-0.00311782
-3.39301e-05
-0.00308908
-7.28088e-05
-0.00306275
-0.000111867
-0.00303896
-0.000151064
-0.00301794
-0.000190337
-0.00299984
-0.000229594
-0.00298466
-0.00297233
-0.000268757
2.88779e-05
-0.000617205
7.96898e-05
-0.00158126
0.00012708
-0.00228628
0.000157555
-0.00275346
0.000167365
-0.00302899
0.000158639
-0.0031682
0.000135874
-0.00322091
0.000103678
-0.00322451
6.57312e-05
-0.00320353
2.45638e-05
-0.00317232
-1.82642e-05
-0.00313838
-6.18719e-05
-0.00310513
-0.000105807
-0.00307389
-0.000149869
-0.00304502
-0.000193999
-0.00301862
-0.000238194
-0.00299477
-0.000282448
-0.00297369
-0.00032671
-0.00295557
-0.000370877
-0.00294049
-0.00292837
-0.000414845
2.58707e-05
-0.000643076
6.85491e-05
-0.00162394
0.00010449
-0.00232222
0.000122275
-0.00277125
0.000119749
-0.00302646
9.99012e-05
-0.00314836
6.74619e-05
-0.00318847
2.68963e-05
-0.00318394
-1.84125e-05
-0.00315822
-6.6234e-05
-0.0031245
-0.00011524
-0.00308937
-0.000164701
-0.00305567
-0.00021425
-0.00302434
-0.000263736
-0.00299554
-0.000313135
-0.00296922
-0.000362481
-0.00294542
-0.000411806
-0.00292436
-0.00046108
-0.0029063
-0.000510181
-0.00289139
-0.00287958
-0.00055897
2.25642e-05
-0.00066564
5.67891e-05
-0.00165817
8.12631e-05
-0.0023467
8.66768e-05
-0.00277666
7.23436e-05
-0.00301213
4.19526e-05
-0.00311797
3.55528e-07
-0.00314688
-4.81842e-05
-0.0031354
-0.00010059
-0.00310582
-0.000154913
-0.00307018
-0.000210031
-0.00303425
-0.000265339
-0.00300036
-0.000320533
-0.00296914
-0.000375487
-0.00294058
-0.000430199
-0.00291451
-0.000484735
-0.00289089
-0.000539171
-0.00286993
-0.000593507
-0.00285196
-0.000647612
-0.00283729
-0.0028259
-0.000701284
1.90055e-05
-0.000684646
4.45638e-05
-0.00168372
5.76591e-05
-0.00235979
5.10833e-05
-0.00277009
2.54819e-05
-0.00298653
-1.4897e-05
-0.00307759
-6.51779e-05
-0.0030966
-0.000121339
-0.00307924
-0.000180612
-0.00304654
-0.000241311
-0.00300948
-0.000302497
-0.00297307
-0.000363668
-0.00293919
-0.000424562
-0.00290825
-0.000485063
-0.00288008
-0.000545168
-0.0028544
-0.000604963
-0.00283109
-0.000664574
-0.00281032
-0.000724049
-0.00279249
-0.000783255
-0.00277808
-0.00276727
-0.000841894
1.52435e-05
-0.000699889
3.20214e-05
-0.0017005
3.39172e-05
-0.00236169
1.57829e-05
-0.00275195
-2.05408e-05
-0.0029502
-7.0375e-05
-0.00302775
-0.000128898
-0.00303807
-0.000192358
-0.00301578
-0.000258286
-0.00298061
-0.000325246
-0.00294252
-0.000392463
-0.00290585
-0.000459526
-0.00287213
-0.000526204
-0.00284157
-0.000592371
-0.00281391
-0.000658
-0.00278877
-0.000723173
-0.00276592
-0.000788053
-0.00274544
-0.000852757
-0.00272778
-0.000917164
-0.00271367
-0.00270359
-0.000980836
1.13275e-05
-0.000711217
1.93032e-05
-0.00170848
1.02566e-05
-0.00235264
-1.89662e-05
-0.00272273
-6.54637e-05
-0.0029037
-0.000124239
-0.00296898
-0.000190584
-0.00297173
-0.000261032
-0.00294533
-0.000333408
-0.00290824
-0.000406506
-0.00286942
-0.000479706
-0.00283265
-0.000552685
-0.00279915
-0.000625244
-0.00276901
-0.000697243
-0.00274191
-0.000768604
-0.00271741
-0.000839366
-0.00269516
-0.000909702
-0.0026751
-0.000979805
-0.00265768
-0.00104959
-0.00264389
-0.00263468
-0.0011185
7.3063e-06
-0.000718523
6.54151e-06
-0.00170771
-1.31239e-05
-0.00233297
-5.29347e-05
-0.00268292
-0.000109057
-0.00284758
-0.00017627
-0.00290176
-0.000250028
-0.00289797
-0.000327154
-0.00286821
-0.000405756
-0.00282964
-0.000484842
-0.00279034
-0.000563941
-0.00275355
-0.000642829
-0.00272026
-0.000721354
-0.00269049
-0.000799375
-0.00266389
-0.000876762
-0.00264002
-0.000953478
-0.00261844
-0.00102967
-0.00259891
-0.00110562
-0.00258173
-0.00118132
-0.00256819
-0.0025596
-0.0012564
3.22744e-06
-0.000721751
-6.14122e-06
-0.00169834
-3.60465e-05
-0.00230307
-8.59217e-05
-0.00263304
-0.000151118
-0.00278239
-0.000226273
-0.00282661
-0.000307034
-0.00281721
-0.000390515
-0.00278473
-0.000475088
-0.00274506
-0.000559964
-0.00270546
-0.000644822
-0.00266869
-0.000729549
-0.00263553
-0.000814077
-0.00260596
-0.000898306
-0.00257966
-0.000982089
-0.00255624
-0.00106531
-0.00253522
-0.00114808
-0.00251615
-0.00123078
-0.00249903
-0.00131363
-0.00248534
-0.00247601
-0.00139722
-8.64204e-07
-0.000720886
-1.86346e-05
-0.00168057
-5.83559e-05
-0.00226335
-0.000117755
-0.00257364
-0.000191476
-0.00270867
-0.000274079
-0.00274401
-0.000361423
-0.00272986
-0.000450905
-0.00269524
-0.00054114
-0.00265483
-0.00063153
-0.00261507
-0.000721903
-0.00257832
-0.00081228
-0.00254516
-0.000902733
-0.00251551
-0.000993296
-0.0024891
-0.00108392
-0.00246562
-0.00117448
-0.00244465
-0.001265
-0.00242563
-0.00135584
-0.0024082
-0.00144755
-0.00239363
-0.00238067
-0.00154288
-4.92734e-06
-0.000715959
-3.08417e-05
-0.00165466
-7.99208e-05
-0.00221427
-0.000148293
-0.00250527
-0.000229992
-0.00262697
-0.00031955
-0.00265445
-0.000413045
-0.00263637
-0.000508134
-0.00260016
-0.000603652
-0.00255931
-0.000699159
-0.00251956
-0.000794613
-0.00248287
-0.000890169
-0.0024496
-0.000986085
-0.00241959
-0.00108265
-0.00239253
-0.00118016
-0.00236812
-0.00127879
-0.00234601
-0.00137869
-0.00232573
-0.0014804
-0.00230648
-0.00158622
-0.00228781
-0.00228122
-0.00168567
-8.91298e-06
-0.000707046
-4.26604e-05
-0.00162091
-0.000100612
-0.00215632
-0.000177405
-0.00242848
-0.000266546
-0.00253783