# Probe 0 (1 0 0)
# Probe 1 (7 0 0)
#       Probe             0             1
#        Time
          0.1       -1.3844     -0.110399
