# Probe 0 (5.5 0.5 0)
# Probe 1 (5.5 -0.5 0)
#       Probe             0             1
#        Time
         0.01             (0.994662 -0.00300476 5.65162e-20)             (0.994662 0.00300338 6.06051e-20)
         0.02             (0.994651 -0.00276574 -1.45397e-22)             (0.994651 0.00276732 -1.81832e-22)
         0.03             (0.994507 -0.00265249 1.43561e-21)             (0.994507 0.00265382 1.5054e-21)
         0.04             (0.99439 -0.00254548 1.16007e-21)             (0.99439 0.00254684 1.2075e-21)
         0.05             (0.994289 -0.00244713 9.40912e-22)             (0.994289 0.00244851 9.78947e-22)
         0.06             (0.9942 -0.00235778 7.68359e-22)             (0.994201 0.00235917 7.98934e-22)
         0.07             (0.994123 -0.00227733 6.30637e-22)             (0.994123 0.00227874 6.55434e-22)
         0.08             (0.994053 -0.00220547 5.20078e-22)             (0.994054 0.00220688 5.4035e-22)
         0.09             (0.993991 -0.0021417 4.30885e-22)             (0.993991 0.00214313 4.47551e-22)
          0.1             (0.993933 -0.00208546 3.58553e-22)             (0.993933 0.0020869 3.72305e-22)
         0.11             (0.99388 -0.00203616 2.99613e-22)             (0.99388 0.00203762 3.10982e-22)
         0.12             (0.99383 -0.00199318 2.5135e-22)             (0.993831 0.00199465 2.60748e-22)
         0.13             (0.993784 -0.00195595 2.11665e-22)             (0.993784 0.00195743 2.19405e-22)
         0.14             (0.993739 -0.00192389 1.78881e-22)             (0.993739 0.00192539 1.85216e-22)
         0.15             (0.993697 -0.00189648 1.51679e-22)             (0.993697 0.00189799 1.56813e-22)
         0.16             (0.993656 -0.00187323 1.29023e-22)             (0.993656 0.00187476 1.33116e-22)
         0.17             (0.993616 -0.0018537 1.10079e-22)             (0.993616 0.00185525 1.13259e-22)
         0.18             (0.993578 -0.00183749 9.41745e-23)             (0.993578 0.00183905 9.65509e-23)
         0.19             (0.99354 -0.00182422 8.08044e-23)             (0.99354 0.0018258 8.24887e-23)
          0.2             (0.993503 -0.00181357 6.94472e-23)             (0.993504 0.00181517 7.04878e-23)
         0.21             (0.993467 -0.00180525 5.95654e-23)             (0.993468 0.00180688 6.02364e-23)
         0.22             (0.993432 -0.00179898 5.13341e-23)             (0.993432 0.00180065 5.14723e-23)
         0.23             (0.993397 -0.00179453 4.43041e-23)             (0.993397 0.00179621 4.38933e-23)
         0.24             (0.993362 -0.00179169 3.79749e-23)             (0.993362 0.00179341 3.7258e-23)
         0.25             (0.993327 -0.00179028 3.2774e-23)             (0.993328 0.00179202 3.16427e-23)
         0.26             (0.993293 -0.00179012 2.82574e-23)             (0.993294 0.0017919 2.67458e-23)
         0.27             (0.993259 -0.00179109 2.43113e-23)             (0.99326 0.00179289 2.24501e-23)
         0.28             (0.993226 -0.00179303 2.08452e-23)             (0.993226 0.00179486 1.86619e-23)
         0.29             (0.993192 -0.00179586 1.77839e-23)             (0.993192 0.00179771 1.53027e-23)
          0.3             (0.993158 -0.00179945 1.50654e-23)             (0.993159 0.00180134 1.23082e-23)
         0.31             (0.993125 -0.00180374 1.27615e-23)             (0.993125 0.00180564 9.66116e-24)
         0.32             (0.993091 -0.00180863 1.05781e-23)             (0.993092 0.00181055 7.24064e-24)
         0.33             (0.993058 -0.00181406 8.60595e-24)             (0.993058 0.001816 5.04536e-24)
         0.34             (0.993025 -0.00181997 6.85079e-24)             (0.993025 0.00182193 3.06339e-24)
         0.35             (0.992991 -0.00182631 5.21891e-24)             (0.992991 0.00182828 1.23391e-24)
         0.36             (0.992958 -0.00183302 3.72466e-24)             (0.992958 0.00183502 -4.45706e-25)
         0.37             (0.992924 -0.00184008 2.35534e-24)             (0.992925 0.00184209 -1.99059e-24)
         0.38             (0.992891 -0.0018474 3.95568e-25)             (0.992891 0.00184944 -4.16535e-24)
         0.39             (0.992858 -0.00185499 -7.42046e-25)             (0.992858 0.00185706 -5.44806e-24)
          0.4             (0.992824 -0.00186283 -1.83178e-24)             (0.992825 0.00186494 -6.678e-24)
         0.41             (0.992791 -0.00187089 -2.84519e-24)             (0.992791 0.00187304 -7.8299e-24)
         0.42             (0.992757 -0.00187916 -3.79679e-24)             (0.992757 0.00188134 -8.91536e-24)
         0.43             (0.992724 -0.00188761 -4.7049e-24)             (0.992724 0.00188983 -9.94707e-24)
         0.44             (0.99269 -0.00189622 -5.5312e-24)             (0.99269 0.00189849 -1.09016e-23)
         0.45             (0.992656 -0.00190498 -6.39414e-24)             (0.992656 0.00190728 -1.20058e-23)
         0.46             (0.992622 -0.00191386 -7.33454e-24)             (0.992622 0.00191622 -1.30314e-23)
         0.47             (0.992588 -0.00192289 -8.16741e-24)             (0.992588 0.00192528 -1.39028e-23)
         0.48             (0.992554 -0.00193203 -8.86077e-24)             (0.992554 0.00193447 -1.4645e-23)
         0.49             (0.99252 -0.00194129 -9.53295e-24)             (0.99252 0.00194377 -1.54125e-23)
          0.5             (0.992485 -0.00195066 -1.01741e-23)             (0.992486 0.00195318 -1.61456e-23)
         0.51             (0.992451 -0.00196012 -1.07868e-23)             (0.992451 0.00196269 -1.68487e-23)
         0.52             (0.992416 -0.00196967 -1.13776e-23)             (0.992417 0.00197229 -1.75383e-23)
         0.53             (0.992382 -0.00197932 -1.19385e-23)             (0.992382 0.00198198 -1.81879e-23)
         0.54             (0.992347 -0.00198904 -1.24825e-23)             (0.992347 0.00199175 -1.88162e-23)
         0.55             (0.992312 -0.00199885 -1.30065e-23)             (0.992312 0.0020016 -1.94186e-23)
         0.56             (0.992277 -0.00200874 -1.35127e-23)             (0.992277 0.00201153 -2.00036e-23)
         0.57             (0.992242 -0.0020187 -1.40014e-23)             (0.992242 0.00202154 -2.05695e-23)
         0.58             (0.992206 -0.00202873 -1.44745e-23)             (0.992207 0.00203162 -2.11184e-23)
         0.59             (0.992171 -0.00203884 -1.49329e-23)             (0.992171 0.00204177 -2.1652e-23)
          0.6             (0.992136 -0.00204901 -1.53778e-23)             (0.992136 0.00205199 -2.21708e-23)
         0.61             (0.9921 -0.00205925 -1.58103e-23)             (0.9921 0.00206228 -2.26761e-23)
         0.62             (0.992064 -0.00206956 -1.62311e-23)             (0.992064 0.00207264 -2.31694e-23)
         0.63             (0.992028 -0.00207993 -1.66412e-23)             (0.992028 0.00208306 -2.36508e-23)
         0.64             (0.991992 -0.00209037 -1.70413e-23)             (0.991992 0.00209354 -2.41217e-23)
         0.65             (0.991956 -0.00210087 -1.74322e-23)             (0.991956 0.00210409 -2.45826e-23)
         0.66             (0.991919 -0.00211143 -1.78143e-23)             (0.99192 0.0021147 -2.50344e-23)
         0.67             (0.991883 -0.00212206 -1.81885e-23)             (0.991883 0.00212538 -2.54776e-23)
         0.68             (0.991846 -0.00213275 -1.85553e-23)             (0.991846 0.00213611 -2.59129e-23)
         0.69             (0.991809 -0.0021435 -1.89211e-23)             (0.991809 0.00214691 -2.64078e-23)
          0.7             (0.991772 -0.00215432 -1.92757e-23)             (0.991772 0.00215777 -2.68307e-23)
         0.71             (0.991735 -0.00216519 -1.96244e-23)             (0.991735 0.00216868 -2.72472e-23)
         0.72             (0.991698 -0.00217613 -1.99669e-23)             (0.991698 0.00217966 -2.76582e-23)
         0.73             (0.99166 -0.00218713 -2.03052e-23)             (0.991661 0.00219071 -2.80619e-23)
         0.74             (0.991623 -0.0021982 -2.06382e-23)             (0.991623 0.00220181 -2.84614e-23)
         0.75             (0.991585 -0.00220932 -2.09666e-23)             (0.991585 0.00221298 -2.88562e-23)
         0.76             (0.991547 -0.00222051 -2.12907e-23)             (0.991547 0.00222421 -2.92466e-23)
         0.77             (0.991509 -0.00223176 -2.16108e-23)             (0.991509 0.0022355 -2.96328e-23)
         0.78             (0.991471 -0.00224307 -2.19277e-23)             (0.991471 0.00224686 -3.00141e-23)
         0.79             (0.991432 -0.00225445 -2.224e-23)             (0.991433 0.00225827 -3.03939e-23)
          0.8             (0.991394 -0.00226588 -2.25496e-23)             (0.991394 0.00226976 -3.07693e-23)
         0.81             (0.991355 -0.00227739 -2.28561e-23)             (0.991355 0.0022813 -3.11416e-23)
         0.82             (0.991316 -0.00228895 -2.31598e-23)             (0.991316 0.00229291 -3.15109e-23)
         0.83             (0.991277 -0.00230058 -2.34609e-23)             (0.991277 0.00230458 -3.18775e-23)
         0.84             (0.991238 -0.00231228 -2.37595e-23)             (0.991238 0.00231632 -3.22415e-23)
         0.85             (0.991198 -0.00232404 -2.40565e-23)             (0.991199 0.00232813 -3.26032e-23)
         0.86             (0.991159 -0.00233587 -2.43502e-23)             (0.991159 0.00234 -3.29628e-23)
         0.87             (0.991119 -0.00234776 -2.46424e-23)             (0.991119 0.00235194 -3.33208e-23)
         0.88             (0.991079 -0.00235972 -2.49331e-23)             (0.991079 0.00236394 -3.36766e-23)
         0.89             (0.991039 -0.00237175 -2.52226e-23)             (0.991039 0.00237602 -3.40335e-23)
          0.9             (0.990999 -0.00238384 -2.55109e-23)             (0.990999 0.00238816 -3.43836e-23)
         0.91             (0.990958 -0.00239601 -2.57969e-23)             (0.990959 0.00240037 -3.47364e-23)
         0.92             (0.990918 -0.00240824 -2.60827e-23)             (0.990918 0.00241264 -3.50875e-23)
         0.93             (0.990877 -0.00242054 -2.63694e-23)             (0.990877 0.00242499 -3.54391e-23)
         0.94             (0.990836 -0.00243292 -2.6783e-23)             (0.990836 0.00243741 -3.59116e-23)
         0.95             (0.990795 -0.00244536 -2.67945e-23)             (0.990795 0.0024499 -3.60037e-23)
         0.96             (0.990753 -0.00245788 -2.71831e-23)             (0.990754 0.00246247 -3.6451e-23)
         0.97             (0.990712 -0.00247047 -2.74787e-23)             (0.990712 0.0024751 -3.68128e-23)
         0.98             (0.99067 -0.00248313 -2.77307e-23)             (0.99067 0.00248781 -3.71333e-23)
         0.99             (0.990628 -0.00249586 -2.81541e-23)             (0.990628 0.00250059 -3.76098e-23)
            1             (0.990586 -0.00250867 -2.82583e-23)             (0.990586 0.00251345 -3.77954e-23)
         1.01             (0.990544 -0.00252156 -2.87228e-23)             (0.990544 0.00252638 -3.83074e-23)
         1.02             (0.990501 -0.00253452 -2.89078e-23)             (0.990501 0.00253939 -3.85676e-23)
         1.03             (0.990459 -0.00254755 -2.92015e-23)             (0.990459 0.00255247 -3.8927e-23)
         1.04             (0.990416 -0.00256066 -2.94848e-23)             (0.990416 0.00256563 -3.9275e-23)
         1.05             (0.990373 -0.00257385 -2.97734e-23)             (0.990373 0.00257887 -3.96289e-23)
         1.06             (0.990329 -0.00258712 -3.00643e-23)             (0.99033 0.00259219 -3.99853e-23)
         1.07             (0.990286 -0.00260047 -3.03569e-23)             (0.990286 0.00260559 -4.03429e-23)
         1.08             (0.990242 -0.00261389 -3.06526e-23)             (0.990242 0.00261907 -4.0704e-23)
         1.09             (0.990198 -0.00262739 -3.09514e-23)             (0.990199 0.00263263 -4.10683e-23)
          1.1             (0.990154 -0.00264098 -3.12538e-23)             (0.990155 0.00264627 -4.14363e-23)
         1.11             (0.99011 -0.00265464 -3.15599e-23)             (0.99011 0.00265999 -4.18084e-23)
         1.12             (0.990066 -0.00266839 -3.18703e-23)             (0.990066 0.00267379 -4.21853e-23)
         1.13             (0.990021 -0.00268222 -3.21853e-23)             (0.990021 0.00268768 -4.25673e-23)
         1.14             (0.989976 -0.00269613 -3.24639e-23)             (0.989976 0.00270164 -4.2891e-23)
         1.15             (0.989931 -0.00271013 -3.27918e-23)             (0.989931 0.00271569 -4.32874e-23)
         1.16             (0.989886 -0.00272421 -3.31212e-23)             (0.989886 0.00272982 -4.36875e-23)
         1.17             (0.98984 -0.00273838 -3.34584e-23)             (0.989841 0.00274403 -4.40957e-23)
         1.18             (0.989795 -0.00275263 -3.38026e-23)             (0.989795 0.00275834 -4.45113e-23)
         1.19             (0.989749 -0.00276696 -3.41542e-23)             (0.989749 0.00277272 -4.4935e-23)
          1.2             (0.989703 -0.00278139 -3.45135e-23)             (0.989703 0.00278719 -4.5367e-23)
         1.21             (0.989656 -0.0027959 -3.48805e-23)             (0.989657 0.00280175 -4.58078e-23)
         1.22             (0.98961 -0.00281049 -3.52562e-23)             (0.98961 0.0028164 -4.62585e-23)
         1.23             (0.989563 -0.00282517 -3.56408e-23)             (0.989564 0.00283113 -4.67183e-23)
         1.24             (0.989516 -0.00283995 -3.60346e-23)             (0.989517 0.00284596 -4.71885e-23)
         1.25             (0.989469 -0.0028548 -3.64062e-23)             (0.98947 0.00286086 -4.76466e-23)
         1.26             (0.989422 -0.00286975 -3.68217e-23)             (0.989422 0.00287586 -4.81404e-23)
         1.27             (0.989374 -0.00288479 -3.72454e-23)             (0.989375 0.00289095 -4.86433e-23)
         1.28             (0.989327 -0.00289992 -3.768e-23)             (0.989327 0.00290612 -4.9158e-23)
         1.29             (0.989279 -0.00291513 -3.8126e-23)             (0.989279 0.00292139 -4.9685e-23)
          1.3             (0.989231 -0.00293044 -3.87001e-23)             (0.989231 0.00293675 -5.02791e-23)
         1.31             (0.989182 -0.00294583 -3.9154e-23)             (0.989182 0.0029522 -5.08327e-23)
         1.32             (0.989134 -0.00296132 -3.96323e-23)             (0.989134 0.00296774 -5.1395e-23)
         1.33             (0.989085 -0.00297689 -4.01236e-23)             (0.989085 0.00298337 -5.19712e-23)
         1.34             (0.989036 -0.00299256 -4.06287e-23)             (0.989036 0.0029991 -5.25627e-23)
         1.35             (0.988987 -0.00300833 -4.1162e-23)             (0.988987 0.00301491 -5.31953e-23)
         1.36             (0.988937 -0.00302418 -4.16971e-23)             (0.988937 0.00303082 -5.38184e-23)
         1.37             (0.988888 -0.00304013 -4.22472e-23)             (0.988888 0.00304682 -5.44583e-23)
         1.38             (0.988838 -0.00305618 -4.28114e-23)             (0.988838 0.00306292 -5.51142e-23)
         1.39             (0.988788 -0.00307232 -4.33967e-23)             (0.988788 0.00307912 -5.58039e-23)
          1.4             (0.988737 -0.00308855 -4.39963e-23)             (0.988738 0.00309541 -5.64967e-23)
         1.41             (0.988687 -0.00310488 -4.46107e-23)             (0.988687 0.00311179 -5.72066e-23)
         1.42             (0.988636 -0.0031213 -4.52425e-23)             (0.988637 0.00312827 -5.7935e-23)
         1.43             (0.988585 -0.00313782 -4.58917e-23)             (0.988586 0.00314485 -5.86826e-23)
         1.44             (0.988534 -0.00315444 -4.65589e-23)             (0.988535 0.00316153 -5.94497e-23)
         1.45             (0.988483 -0.00317116 -4.72442e-23)             (0.988483 0.0031783 -6.02366e-23)
         1.46             (0.988431 -0.00318797 -4.79479e-23)             (0.988432 0.00319517 -6.10436e-23)
         1.47             (0.98838 -0.00320488 -4.86699e-23)             (0.98838 0.00321213 -6.18708e-23)
         1.48             (0.988328 -0.00322188 -4.93662e-23)             (0.988328 0.0032292 -6.27076e-23)
         1.49             (0.988276 -0.00323899 -5.01274e-23)             (0.988276 0.00324636 -6.35758e-23)
          1.5             (0.988223 -0.00325619 -5.09089e-23)             (0.988224 0.00326362 -6.44674e-23)
         1.51             (0.988171 -0.00327349 -5.17107e-23)             (0.988171 0.00328098 -6.53809e-23)
         1.52             (0.988118 -0.0032909 -5.25317e-23)             (0.988118 0.00329844 -6.63169e-23)
         1.53             (0.988065 -0.0033084 -5.33738e-23)             (0.988066 0.003316 -6.72755e-23)
         1.54             (0.988012 -0.00332601 -5.42366e-23)             (0.988012 0.00333366 -6.82574e-23)
         1.55             (0.987959 -0.00334371 -5.51206e-23)             (0.987959 0.00335142 -6.92624e-23)
         1.56             (0.987905 -0.00336152 -5.60265e-23)             (0.987906 0.00336928 -7.02911e-23)
         1.57             (0.987851 -0.00337943 -5.6954e-23)             (0.987852 0.00338724 -7.1344e-23)
         1.58             (0.987797 -0.00339744 -5.7904e-23)             (0.987798 0.00340531 -7.24211e-23)
         1.59             (0.987743 -0.00341555 -5.88764e-23)             (0.987744 0.00342348 -7.35227e-23)
          1.6             (0.987689 -0.00343377 -5.98715e-23)             (0.987689 0.00344175 -7.4649e-23)
         1.61             (0.987634 -0.00345209 -6.08895e-23)             (0.987635 0.00346012 -7.58001e-23)
         1.62             (0.98758 -0.00347051 -6.19304e-23)             (0.98758 0.0034786 -7.69761e-23)
         1.63             (0.987525 -0.00348904 -6.29943e-23)             (0.987525 0.00349718 -7.81771e-23)
         1.64             (0.98747 -0.00350767 -6.40813e-23)             (0.98747 0.00351587 -7.94031e-23)
         1.65             (0.987414 -0.00352641 -6.51913e-23)             (0.987415 0.00353466 -8.0654e-23)
         1.66             (0.987359 -0.00354525 -6.63244e-23)             (0.987359 0.00355355 -8.19301e-23)
         1.67             (0.987303 -0.0035642 -6.74803e-23)             (0.987304 0.00357255 -8.32313e-23)
         1.68             (0.987247 -0.00358326 -6.86592e-23)             (0.987248 0.00359166 -8.45575e-23)
         1.69             (0.987191 -0.00360242 -6.98612e-23)             (0.987192 0.00361088 -8.59085e-23)
          1.7             (0.987135 -0.00362169 -7.10859e-23)             (0.987136 0.0036302 -8.72845e-23)
         1.71             (0.987079 -0.00364107 -7.23334e-23)             (0.987079 0.00364963 -8.86853e-23)
         1.72             (0.987022 -0.00366056 -7.36034e-23)             (0.987023 0.00366917 -9.01108e-23)
         1.73             (0.986965 -0.00368016 -7.48961e-23)             (0.986966 0.00368882 -9.15608e-23)
         1.74             (0.986908 -0.00369986 -7.62111e-23)             (0.986909 0.00370858 -9.30352e-23)
         1.75             (0.986851 -0.00371968 -7.75483e-23)             (0.986852 0.00372844 -9.45339e-23)
         1.76             (0.986794 -0.00373961 -7.89076e-23)             (0.986794 0.00374842 -9.60568e-23)
         1.77             (0.986736 -0.00375965 -8.02888e-23)             (0.986737 0.00376851 -9.76035e-23)
         1.78             (0.986678 -0.00377981 -8.17294e-23)             (0.986679 0.00378872 -9.91815e-23)
         1.79             (0.986621 -0.00380007 -8.31582e-23)             (0.986621 0.00380904 -1.0078e-22)
          1.8             (0.986563 -0.00382046 -8.46038e-23)             (0.986563 0.00382947 -1.02397e-22)
         1.81             (0.986504 -0.00384095 -8.60706e-23)             (0.986505 0.00385002 -1.04037e-22)
         1.82             (0.986446 -0.00386156 -8.75582e-23)             (0.986447 0.00387068 -1.057e-22)
         1.83             (0.986387 -0.00388229 -8.90664e-23)             (0.986388 0.00389146 -1.07385e-22)
         1.84             (0.986329 -0.00390313 -9.05949e-23)             (0.986329 0.00391235 -1.09093e-22)
         1.85             (0.98627 -0.00392409 -9.21434e-23)             (0.986271 0.00393336 -1.10823e-22)
         1.86             (0.986211 -0.00394517 -9.37118e-23)             (0.986211 0.00395449 -1.12574e-22)
         1.87             (0.986151 -0.00396637 -9.52996e-23)             (0.986152 0.00397574 -1.14346e-22)
         1.88             (0.986092 -0.00398769 -9.69067e-23)             (0.986093 0.0039971 -1.1614e-22)
         1.89             (0.986032 -0.00400913 -9.85327e-23)             (0.986033 0.00401859 -1.17955e-22)
          1.9             (0.985972 -0.00403069 -1.00177e-22)             (0.985973 0.0040402 -1.1979e-22)
         1.91             (0.985912 -0.00405237 -1.01844e-22)             (0.985913 0.00406193 -1.21648e-22)
         1.92             (0.985852 -0.00407418 -1.03522e-22)             (0.985853 0.00408379 -1.2352e-22)
         1.93             (0.985792 -0.00409611 -1.0522e-22)             (0.985793 0.00410577 -1.25414e-22)
         1.94             (0.985732 -0.00411817 -1.06937e-22)             (0.985733 0.00412787 -1.27327e-22)
         1.95             (0.985671 -0.00414035 -1.0867e-22)             (0.985672 0.0041501 -1.29259e-22)
         1.96             (0.98561 -0.00416267 -1.1042e-22)             (0.985611 0.00417246 -1.3121e-22)
         1.97             (0.985549 -0.00418511 -1.12186e-22)             (0.98555 0.00419495 -1.33178e-22)
         1.98             (0.985488 -0.00420768 -1.13969e-22)             (0.985489 0.00421757 -1.35165e-22)
         1.99             (0.985427 -0.00423038 -1.15767e-22)             (0.985428 0.00424032 -1.37168e-22)
            2             (0.985365 -0.00425321 -1.17584e-22)             (0.985366 0.0042632 -1.3919e-22)
         2.01             (0.985304 -0.00427618 -1.19396e-22)             (0.985305 0.00428621 -1.412e-22)
         2.02             (0.985242 -0.00429929 -1.21247e-22)             (0.985243 0.00430935 -1.43259e-22)
         2.03             (0.98518 -0.00432253 -1.23104e-22)             (0.985181 0.00433263 -1.45329e-22)
         2.04             (0.985118 -0.00434591 -1.24976e-22)             (0.985119 0.00435605 -1.47414e-22)
         2.05             (0.985055 -0.00436942 -1.26832e-22)             (0.985057 0.00437961 -1.49491e-22)
         2.06             (0.984993 -0.00439307 -1.28734e-22)             (0.984994 0.0044033 -1.51608e-22)
         2.07             (0.98493 -0.00441686 -1.30646e-22)             (0.984932 0.00442714 -1.53737e-22)
         2.08             (0.984868 -0.0044408 -1.32571e-22)             (0.984869 0.00445112 -1.55881e-22)
         2.09             (0.984805 -0.00446488 -1.34508e-22)             (0.984806 0.00447524 -1.58038e-22)
          2.1             (0.984742 -0.0044891 -1.36453e-22)             (0.984743 0.00449951 -1.60211e-22)
         2.11             (0.984678 -0.00451347 -1.38418e-22)             (0.98468 0.00452392 -1.62398e-22)
         2.12             (0.984615 -0.00453799 -1.40391e-22)             (0.984616 0.00454848 -1.64595e-22)
         2.13             (0.984551 -0.00456266 -1.42376e-22)             (0.984553 0.0045732 -1.66805e-22)
         2.14             (0.984487 -0.00458748 -1.44375e-22)             (0.984489 0.00459806 -1.69029e-22)
         2.15             (0.984423 -0.00461245 -1.4624e-22)             (0.984425 0.00462307 -1.71132e-22)
         2.16             (0.984359 -0.00463757 -1.48535e-22)             (0.984361 0.00464824 -1.73638e-22)
         2.17             (0.984295 -0.00466286 -1.50413e-22)             (0.984297 0.00467356 -1.75755e-22)
         2.18             (0.984231 -0.0046883 -1.52391e-22)             (0.984232 0.00469904 -1.77969e-22)
         2.19             (0.984166 -0.00471389 -1.54448e-22)             (0.984168 0.00472468 -1.80254e-22)
          2.2             (0.984101 -0.00473965 -1.56565e-22)             (0.984103 0.00475048 -1.82602e-22)
         2.21             (0.984036 -0.00476557 -1.58677e-22)             (0.984038 0.00477644 -1.84947e-22)
         2.22             (0.983971 -0.00479165 -1.60765e-22)             (0.983973 0.00480256 -1.87267e-22)
         2.23             (0.983906 -0.00481789 -1.62852e-22)             (0.983908 0.00482885 -1.89591e-22)
         2.24             (0.983841 -0.00484431 -1.64817e-22)             (0.983842 0.0048553 -1.91796e-22)
         2.25             (0.983775 -0.00487089 -1.66972e-22)             (0.983777 0.00488193 -1.94192e-22)
         2.26             (0.983709 -0.00489764 -1.69129e-22)             (0.983711 0.00490872 -1.96582e-22)
         2.27             (0.983643 -0.00492457 -1.71103e-22)             (0.983645 0.00493568 -1.98803e-22)
         2.28             (0.983577 -0.00495167 -1.73332e-22)             (0.983579 0.00496282 -2.01269e-22)
         2.29             (0.983511 -0.00497894 -1.75395e-22)             (0.983513 0.00499014 -2.03572e-22)
          2.3             (0.983444 -0.00500639 -1.77627e-22)             (0.983446 0.00501763 -2.06048e-22)
         2.31             (0.983378 -0.00503402 -1.79619e-22)             (0.98338 0.0050453 -2.08286e-22)
         2.32             (0.983311 -0.00506184 -1.81917e-22)             (0.983313 0.00507315 -2.10825e-22)
         2.33             (0.983244 -0.00508983 -1.83911e-22)             (0.983246 0.00510119 -2.13066e-22)
         2.34             (0.983177 -0.00511801 -1.86227e-22)             (0.983179 0.00512941 -2.15624e-22)
         2.35             (0.983109 -0.00514638 -1.88223e-22)             (0.983111 0.00515781 -2.17873e-22)
         2.36             (0.983042 -0.00517493 -1.90483e-22)             (0.983044 0.00518641 -2.20376e-22)
         2.37             (0.982974 -0.00520368 -1.92638e-22)             (0.982976 0.00521519 -2.22781e-22)
         2.38             (0.982906 -0.00523262 -1.94821e-22)             (0.982908 0.00524417 -2.25212e-22)
         2.39             (0.982838 -0.00526175 -1.97001e-22)             (0.98284 0.00527335 -2.27642e-22)
          2.4             (0.98277 -0.00529108 -1.99187e-22)             (0.982772 0.00530272 -2.30078e-22)
         2.41             (0.982702 -0.00532061 -2.01376e-22)             (0.982704 0.00533229 -2.32519e-22)
         2.42             (0.982633 -0.00535034 -2.0357e-22)             (0.982635 0.00536206 -2.34964e-22)
         2.43             (0.982565 -0.00538028 -2.05767e-22)             (0.982567 0.00539203 -2.37414e-22)
         2.44             (0.982496 -0.00541041 -2.07968e-22)             (0.982498 0.00542221 -2.39868e-22)
         2.45             (0.982426 -0.00544076 -2.10173e-22)             (0.982429 0.00545259 -2.42326e-22)
         2.46             (0.982357 -0.00547132 -2.12381e-22)             (0.982359 0.00548319 -2.44789e-22)
         2.47             (0.982288 -0.00550208 -2.14595e-22)             (0.98229 0.005514 -2.47257e-22)
         2.48             (0.982218 -0.00553306 -2.16807e-22)             (0.98222 0.00554502 -2.49725e-22)
         2.49             (0.982148 -0.00556426 -2.19024e-22)             (0.98215 0.00557625 -2.52199e-22)
          2.5             (0.982078 -0.00559567 -2.21245e-22)             (0.98208 0.00560771 -2.54676e-22)
         2.51             (0.982008 -0.00562731 -2.23468e-22)             (0.98201 0.00563938 -2.57156e-22)
         2.52             (0.981937 -0.00565916 -2.25693e-22)             (0.98194 0.00567128 -2.59639e-22)
         2.53             (0.981867 -0.00569125 -2.27921e-22)             (0.981869 0.0057034 -2.62126e-22)
         2.54             (0.981796 -0.00572355 -2.30151e-22)             (0.981798 0.00573575 -2.64615e-22)
         2.55             (0.981725 -0.00575609 -2.32384e-22)             (0.981728 0.00576833 -2.67107e-22)
         2.56             (0.981654 -0.00578886 -2.34618e-22)             (0.981656 0.00580114 -2.69602e-22)
         2.57             (0.981582 -0.00582187 -2.36855e-22)             (0.981585 0.00583419 -2.72099e-22)
         2.58             (0.981511 -0.00585511 -2.39071e-22)             (0.981513 0.00586747 -2.74579e-22)
         2.59             (0.981439 -0.00588858 -2.41315e-22)             (0.981442 0.005901 -2.7708e-22)
          2.6             (0.981367 -0.0059223 -2.43568e-22)             (0.98137 0.00593476 -2.79595e-22)
         2.61             (0.981295 -0.00595626 -2.45803e-22)             (0.981298 0.00596877 -2.82093e-22)
         2.62             (0.981222 -0.00599047 -2.48049e-22)             (0.981225 0.00600302 -2.84602e-22)
         2.63             (0.98115 -0.00602493 -2.50305e-22)             (0.981153 0.00603753 -2.87123e-22)
         2.64             (0.981077 -0.00605963 -2.52545e-22)             (0.98108 0.00607228 -2.89627e-22)
         2.65             (0.981004 -0.00609459 -2.54806e-22)             (0.981007 0.00610729 -2.92152e-22)
         2.66             (0.980931 -0.0061298 -2.57044e-22)             (0.980934 0.00614255 -2.94656e-22)
         2.67             (0.980857 -0.00616528 -2.59321e-22)             (0.98086 0.00617807 -2.97194e-22)
         2.68             (0.980784 -0.00620101 -2.61552e-22)             (0.980787 0.00621385 -2.99695e-22)
         2.69             (0.98071 -0.00623701 -2.63817e-22)             (0.980713 0.0062499 -3.02225e-22)
          2.7             (0.980636 -0.00627327 -2.6607e-22)             (0.980639 0.00628621 -3.04747e-22)
         2.71             (0.980562 -0.0063098 -2.68327e-22)             (0.980565 0.00632279 -3.0727e-22)
         2.72             (0.980487 -0.00634659 -2.70585e-22)             (0.98049 0.00635964 -3.09795e-22)
         2.73             (0.980412 -0.00638367 -2.72843e-22)             (0.980416 0.00639676 -3.12322e-22)
         2.74             (0.980337 -0.00642101 -2.75103e-22)             (0.980341 0.00643416 -3.1485e-22)
         2.75             (0.980262 -0.00645864 -2.77363e-22)             (0.980266 0.00647184 -3.17379e-22)
         2.76             (0.980187 -0.00649654 -2.79626e-22)             (0.98019 0.00650979 -3.19909e-22)