/*--------------------------------*- C++ -*----------------------------------*\
  =========                 |
  \\      /  F ield         | OpenFOAM: The Open Source CFD Toolbox
   \\    /   O peration     | Website:  https://openfoam.org
    \\  /    A nd           | Version:  6.0
     \\/     M anipulation  |
\*---------------------------------------------------------------------------*/
FoamFile
{
    version     2.0;
    format      ascii;
    class       volVectorField;
    location    "3";
    object      U;
}
// * * * * * * * * * * * * * * * * * * * * * * * * * * * * * * * * * * * * * //

dimensions      [0 1 -1 0 0 0 0];

internalField   nonuniform List<vector> 
12500
(
(-0.00267589 0.00306945 -1.12413e-21)
(-0.0139249 0.00721756 1.61595e-20)
(-0.034008 0.00991863 -2.37626e-20)
(-0.0580755 0.0116111 1.10634e-20)
(-0.0837827 0.0125862 6.99493e-22)
(-0.109906 0.013052 -1.36509e-21)
(-0.135592 0.0131592 -2.08877e-20)
(-0.160289 0.0130141 1.15611e-20)
(-0.183667 0.0126905 7.74098e-21)
(-0.205532 0.0122384 7.94111e-21)
(-0.225782 0.0116921 -1.37212e-20)
(-0.244372 0.0110755 8.03831e-21)
(-0.261294 0.0104057 -3.84114e-21)
(-0.276567 0.00969601 6.5564e-21)
(-0.290229 0.00895736 -1.69099e-20)
(-0.30233 0.00819891 2.45908e-20)
(-0.312933 0.00742849 -4.65871e-21)
(-0.322105 0.00665258 -1.75614e-20)
(-0.329924 0.00587615 9.03834e-21)
(-0.336458 0.00510249 -8.63474e-21)
(-0.341759 0.00433318 7.71163e-21)
(-0.345905 0.00356751 1.01214e-20)
(-0.349153 0.00280067 9.88704e-22)
(-0.351742 0.00202558 -2.88584e-20)
(-0.352399 0.00125281 1.68069e-20)
(-0.00296456 0.00892523 2.05428e-20)
(-0.0144082 0.0209732 -5.52805e-20)
(-0.0343229 0.0288023 1.65168e-20)
(-0.058054 0.033687 1.12306e-20)
(-0.083347 0.0364729 -8.93999e-21)
(-0.10902 0.0377643 -5.19768e-20)
(-0.134245 0.0379998 1.54805e-20)
(-0.158482 0.0374904 -3.01023e-20)
(-0.181403 0.0364523 3.6271e-20)
(-0.202816 0.0350343 -4.87841e-20)
(-0.222616 0.0333389 2.65126e-20)
(-0.240754 0.031438 8.78338e-21)
(-0.257219 0.0293842 -2.20498e-20)
(-0.272026 0.0272185 -9.98285e-21)
(-0.285206 0.0249745 7.24318e-20)
(-0.296807 0.0226809 -6.46347e-20)
(-0.306883 0.0203624 1.54706e-20)
(-0.315502 0.0180396 2.6989e-20)
(-0.322735 0.0157289 -6.1294e-21)
(-0.328651 0.0134418 4.35497e-20)
(-0.333301 0.0111843 7.89364e-21)
(-0.336763 0.00895593 -3.12009e-21)
(-0.339298 0.00674333 -5.49648e-20)
(-0.341163 0.00452667 4.98005e-20)
(-0.341082 0.00233888 -1.05521e-19)
(-0.00352172 0.0144991 6.62263e-20)
(-0.0153413 0.0341514 2.30874e-20)
(-0.0349263 0.0469928 -3.06428e-20)
(-0.0579984 0.0550532 1.3433e-20)
(-0.0824777 0.0596856 1.25161e-20)
(-0.107265 0.0618624 4.83856e-20)
(-0.13158 0.0622934 -6.21127e-20)
(-0.154905 0.0614851 -1.03554e-20)
(-0.176922 0.0597918 -4.27515e-20)
(-0.19744 0.0574589 -3.62627e-20)
(-0.216349 0.0546561 4.69872e-20)
(-0.233596 0.0515029 -1.59484e-19)
(-0.249162 0.0480869 -5.45453e-21)
(-0.263052 0.0444762 -9.80481e-20)
(-0.275291 0.0407269 -1.19674e-20)
(-0.285915 0.0368872 1.38383e-20)
(-0.294974 0.0329996 -7.78422e-20)
(-0.302523 0.0291003 -4.89819e-20)
(-0.308631 0.0252195 -5.79494e-20)
(-0.313363 0.02138 9.07126e-20)
(-0.31677 0.0175966 3.28559e-20)
(-0.318928 0.0138729 -1.47855e-19)
(-0.320106 0.010191 -7.06812e-20)
(-0.320595 0.00652087 -7.83583e-20)
(-0.319121 0.00292209 2.32351e-19)
(-0.00431214 0.0196196 -1.48742e-21)
(-0.0166682 0.0463955 -5.3095e-20)
(-0.0357761 0.0640553 -2.67539e-20)
(-0.0578915 0.0752579 1.6287e-20)
(-0.0811836 0.0817894 1.02655e-19)
(-0.104674 0.0849449 -4.68463e-20)
(-0.127649 0.0856788 1.00891e-19)
(-0.14963 0.0846777 9.76826e-20)
(-0.170311 0.0824267 6.01223e-20)
(-0.189505 0.079264 -1.10636e-21)
(-0.207098 0.0754252 1.24193e-19)
(-0.22303 0.0710765 2.18668e-20)
(-0.237272 0.0663397 9.70641e-20)
(-0.249821 0.0613094 2.26497e-19)
(-0.26069 0.0560634 -2.64509e-19)
(-0.269903 0.0506696 4.01048e-19)
(-0.277499 0.0451883 8.8486e-20)
(-0.283525 0.0396737 -1.95053e-19)
(-0.288039 0.0341727 -2.76059e-20)
(-0.291103 0.028724 7.078e-20)
(-0.292766 0.0233572 -3.58729e-20)
(-0.293104 0.0180866 -2.16636e-20)
(-0.292392 0.0128964 -2.08335e-20)
(-0.290967 0.0077516 -8.30783e-20)
(-0.287574 0.0027447 3.18164e-19)
(-0.00528665 0.024138 3.53154e-20)
(-0.0183092 0.057387 -1.70057e-19)
(-0.0368125 0.0795915 2.08971e-19)
(-0.05771 0.0938777 -8.41196e-20)
(-0.0794808 0.102368 1.01964e-19)
(-0.101297 0.10662 8.47624e-20)
(-0.122537 0.107797 3.27691e-20)
(-0.142767 0.106746 2.25499e-21)
(-0.161704 0.10407 1.87334e-19)
(-0.179166 0.100196 1.31989e-19)
(-0.195039 0.0954237 -5.31621e-20)
(-0.209254 0.0899647 -3.56852e-20)
(-0.221776 0.0839741 1.47634e-19)
(-0.23259 0.077572 2.76801e-20)
(-0.241698 0.070857 7.77666e-20)
(-0.249114 0.0639158 1.87154e-19)
(-0.254864 0.0568269 -1.6147e-19)
(-0.258983 0.0496632 1.30737e-19)
(-0.261522 0.0424914 -2.85178e-19)
(-0.262536 0.035371 2.40212e-19)
(-0.262071 0.0283528 1.68396e-21)
(-0.260201 0.0214709 -1.92291e-19)
(-0.257204 0.0147207 7.6523e-20)
(-0.253474 0.00806992 1.73823e-19)
(-0.2478 0.00165268 -2.75134e-19)
(-0.00638552 0.027935 1.84295e-19)
(-0.0201674 0.0668591 -2.04152e-19)
(-0.0379636 0.0932546 -3.23284e-20)
(-0.0574287 0.11053 4.2864e-20)
(-0.0773945 0.121032 -9.21117e-20)
(-0.0972089 0.126512 -1.44998e-19)
(-0.116358 0.128296 -1.23133e-19)
(-0.134468 0.127364 -3.02998e-20)
(-0.151284 0.124426 -2.15783e-19)
(-0.166636 0.119992 1.75564e-19)
(-0.180411 0.11442 -2.7428e-19)
(-0.192537 0.107966 1.40543e-19)
(-0.202971 0.10082 -4.65899e-20)
(-0.211691 0.0931242 1.10599e-19)
(-0.21869 0.0849979 -2.80837e-19)
(-0.223971 0.0765447 1.3877e-19)
(-0.227551 0.0678606 1.12529e-20)
(-0.229456 0.059037 6.17572e-20)
(-0.229725 0.0501617 3.759e-19)
(-0.228408 0.0413184 8.47673e-20)
(-0.225549 0.0325854 -6.92091e-21)
(-0.221216 0.0240256 2.41428e-20)
(-0.215684 0.0156575 1.57214e-19)
(-0.209406 0.00746214 4.54886e-20)
(-0.20126 -0.000374631 1.55494e-19)
(-0.00754292 0.0309264 -1.14603e-19)
(-0.0221346 0.0746077 1.70117e-19)
(-0.0391496 0.104761 1.11122e-20)
(-0.0570225 0.124885 -2.13165e-19)
(-0.0749606 0.13743 4.54554e-19)
(-0.092504 0.144265 -1.48171e-19)
(-0.10926 0.146829 2.19468e-19)
(-0.124927 0.146205 2.03874e-19)
(-0.139288 0.143193 -1.69055e-19)
(-0.152188 0.138374 -2.51602e-19)
(-0.163522 0.132165 6.92331e-20)
(-0.173219 0.124865 -7.41475e-20)
(-0.181232 0.116693 -3.33821e-19)
(-0.187536 0.107818 4.11863e-19)
(-0.192116 0.0983761 -1.99716e-19)
(-0.194973 0.0884867 -1.39025e-19)
(-0.196113 0.078261 2.20118e-21)
(-0.195557 0.067807 1.16491e-19)
(-0.193336 0.057233 4.76958e-20)
(-0.189496 0.0466478 -1.87078e-19)
(-0.184076 0.0361606 2.16645e-19)
(-0.177139 0.025871 -3.72879e-19)
(-0.16895 0.0158333 2.29128e-19)
(-0.160014 0.00605534 -1.72469e-19)
(-0.149348 -0.00321516 5.27409e-20)
(-0.00869178 0.0330666 1.71615e-19)
(-0.024099 0.0805003 -1.3727e-19)
(-0.0402893 0.113903 -8.79729e-20)
(-0.0564706 0.136676 -1.57132e-19)
(-0.0722279 0.151259 -2.89118e-19)
(-0.0873001 0.159556 -2.15819e-19)
(-0.101427 0.163067 1.36861e-19)
(-0.114386 0.162945 -2.10202e-19)
(-0.126008 0.160058 2.69649e-19)
(-0.136162 0.15505 -4.44105e-19)
(-0.144756 0.148389 2.00336e-19)
(-0.151724 0.140416 4.29667e-19)
(-0.157023 0.131382 -6.10154e-19)
(-0.160627 0.121478 8.78502e-20)
(-0.162521 0.110858 1.17169e-19)
(-0.162704 0.0996542 1.13972e-19)
(-0.161181 0.0879909 -1.20772e-19)
(-0.157968 0.0759898 -2.85798e-20)
(-0.153094 0.0637759 -9.18904e-20)
(-0.1466 0.0514809 -7.57969e-20)
(-0.138526 0.039245 -4.22156e-19)
(-0.128926 0.027209 -2.88564e-20)
(-0.118047 0.015474 5.00576e-21)
(-0.106439 0.00408957 -1.89665e-19)
(-0.0933099 -0.00662598 2.06064e-19)
(-0.00976873 0.0343497 5.92842e-21)
(-0.0259531 0.0844805 5.63107e-20)
(-0.0413062 0.120556 5.97798e-20)
(-0.0557598 0.145715 3.37635e-20)
(-0.0692586 0.162275 2.96271e-19)
(-0.0817374 0.172103 2.82597e-19)
(-0.0930715 0.176705 -2.30977e-19)
(-0.103128 0.177267 -7.21828e-20)
(-0.111791 0.174705 -6.45664e-20)
(-0.118964 0.16971 3.36396e-19)
(-0.124573 0.162797 1.2435e-19)
(-0.128565 0.154346 -1.78849e-19)
(-0.130905 0.144637 -1.55917e-19)
(-0.131572 0.133885 3.77672e-19)
(-0.130556 0.12226 -9.33484e-20)
(-0.12786 0.109909 -1.1533e-19)
(-0.123492 0.0969633 -1.62852e-19)
(-0.117469 0.0835555 -1.28132e-19)
(-0.109819 0.0698226 -1.65268e-19)
(-0.100583 0.0559137 -1.08297e-19)
(-0.0898018 0.041996 4.50505e-19)
(-0.0775262 0.0282508 -2.2305e-19)
(-0.0639789 0.0148341 1.50308e-19)
(-0.0497352 0.00185103 -3.98555e-19)
(-0.0342448 -0.0103042 1.69837e-19)
(-0.0107186 0.0348081 -1.56992e-19)
(-0.0276014 0.0865698 -4.31724e-20)
(-0.0421344 0.124685 -3.34619e-19)
(-0.0548874 0.151896 -1.62547e-19)
(-0.066128 0.170307 -3.22387e-19)
(-0.0759742 0.18168 -3.4401e-20)
(-0.0844362 0.187475 1.76335e-19)
(-0.0914747 0.188875 -1.09293e-19)
(-0.0970346 0.18682 2.37987e-19)
(-0.101061 0.182035 -5.85225e-19)
(-0.103508 0.175071 -1.91477e-20)
(-0.10434 0.166343 1.06331e-19)
(-0.103537 0.156161 -1.36208e-19)
(-0.101088 0.144763 1.27495e-19)
(-0.0969944 0.132336 -9.70791e-20)
(-0.0912645 0.119037 -2.12431e-19)
(-0.0839146 0.105007 3.91425e-19)
(-0.0749674 0.0903832 2.45524e-19)
(-0.0644541 0.0753097 -5.06622e-20)
(-0.0524167 0.0599465 1.64363e-19)
(-0.0389004 0.04448 -3.24462e-19)
(-0.0239542 0.029127 4.67992e-19)
(-0.00777336 0.0141006 -6.39805e-19)
(0.00906051 -0.000425705 1.31194e-19)
(0.0268119 -0.0139818 -2.55142e-19)
(-0.0114985 0.0345087 8.77326e-21)
(-0.028967 0.0868644 -1.48743e-19)
(-0.0427238 0.126349 2.18232e-19)
(-0.0538622 0.155208 4.51491e-19)
(-0.0629213 0.175268 -8.08882e-21)
(-0.0701812 0.188128 5.19375e-20)
(-0.0757794 0.195159 -2.00045e-19)
(-0.0797713 0.197508 9.28119e-20)
(-0.0821695 0.19611 6.59152e-19)
(-0.0829673 0.191709 -1.501e-19)
(-0.0821532 0.184883 -1.8286e-19)
(-0.0797187 0.176075 6.93859e-19)
(-0.0756618 0.165624 2.32332e-19)
(-0.069989 0.153787 1.12704e-19)
(-0.0627142 0.140771 1.15901e-19)
(-0.0538578 0.126744 3.16099e-19)
(-0.0434457 0.111852 -1.23548e-19)
(-0.0315082 0.0962359 3.28696e-19)
(-0.0180813 0.0800421 4.48272e-19)
(-0.00320968 0.0634339 -3.83657e-19)
(0.0130575 0.0466081 5.72992e-19)
(0.0306695 0.0298078 2.05781e-19)
(0.0494591 0.0133012 -7.79842e-19)
(0.0688595 -0.00265893 1.12929e-18)
(0.0888166 -0.0175293 -9.42794e-19)
(-0.0120804 0.0335475 -4.10653e-19)
(-0.0299972 0.0855279 2.29072e-19)
(-0.0430444 0.125691 -1.55373e-19)
(-0.0527058 0.155736 -1.47712e-19)
(-0.0597301 0.177166 -1.62193e-19)
(-0.0645315 0.191377 -1.77357e-19)
(-0.0673622 0.199614 4.76731e-20)
(-0.0683699 0.202959 4.71601e-19)
(-0.067638 0.20232 -9.96346e-20)
(-0.0652141 0.19844 -2.67755e-19)
(-0.0611285 0.191913 -1.66331e-19)
(-0.0554048 0.183203 -6.88709e-20)
(-0.0480667 0.172672 2.08971e-19)
(-0.0391409 0.160598 -1.32797e-19)
(-0.0286579 0.147203 -4.435e-19)
(-0.0166518 0.132666 -4.97019e-19)
(-0.003159 0.11714 1.99315e-19)
(0.0117826 0.100768 -3.75851e-19)
(0.0281329 0.0836927 3.30935e-19)
(0.045846 0.0660751 -9.35314e-19)
(0.0648709 0.0481137 7.22943e-19)
(0.0851544 0.0300674 -9.5915e-19)
(0.106556 0.0122542 -1.77606e-20)
(0.128542 -0.00498339 -3.22417e-19)
(0.150721 -0.0210278 9.73975e-19)
(-0.0124527 0.0320425 6.31672e-19)
(-0.0306671 0.0827802 9.59361e-20)
(-0.0430886 0.122939 -6.37902e-20)
(-0.0514511 0.15366 -2.65961e-20)
(-0.0566459 0.176105 5.02939e-19)
(-0.0591887 0.191447 1.65849e-19)
(-0.0594297 0.200781 1.52172e-19)
(-0.0576022 0.205097 -1.22321e-19)
(-0.0538611 0.205256 4.79009e-19)
(-0.0483122 0.201984 -2.39074e-19)
(-0.0410329 0.195877 1.53254e-19)
(-0.0320847 0.187411 3.99933e-19)
(-0.0215211 0.176963 -2.30645e-19)
(-0.00939264 0.164831 2.52585e-19)
(0.00425178 0.151249 2.4099e-19)
(0.0193643 0.136408 8.34125e-20)
(0.0358991 0.120466 -2.11206e-19)
(0.0538128 0.103564 5.82278e-19)
(0.0730641 0.0858415 -5.52048e-20)
(0.0936104 0.0674521 -6.53881e-20)
(0.115403 0.048588 7.13777e-19)
(0.138387 0.0295136 -5.10406e-19)
(0.162446 0.0105893 8.61616e-19)
(0.187097 -0.00773962 -7.14562e-19)
(0.211598 -0.0247685 9.41512e-19)
(-0.012621 0.0301251 -3.07977e-19)
(-0.0309811 0.0788829 7.0393e-20)
(-0.0428719 0.118386 -7.44851e-20)
(-0.0501403 0.149244 -3.49692e-19)
(-0.053753 0.17229 2.05225e-20)
(-0.0542933 0.188465 2.02513e-19)
(-0.0521891 0.198703 -8.29344e-19)
(-0.04775 0.203887 6.25262e-19)
(-0.0411992 0.204814 -6.13806e-19)
(-0.0327022 0.202176 -3.93166e-19)
(-0.0223864 0.196558 3.55386e-19)
(-0.0103544 0.188437 -7.82787e-19)
(0.00330738 0.178201 6.65152e-19)
(0.0185233 0.166158 -2.12631e-19)
(0.0352261 0.152556 -6.2109e-19)
(0.0533555 0.13759 1.55689e-19)
(0.0728593 0.121425 -1.47086e-19)
(0.0936928 0.104199 5.8168e-20)
(0.115819 0.0860451 -2.0158e-19)
(0.139202 0.0671065 -6.78351e-19)
(0.163801 0.0475638 1.52229e-19)
(0.189563 0.0276774 -8.13019e-22)
(0.216387 0.00784182 -7.0823e-19)
(0.243856 -0.0113787 4.98446e-19)
(0.270869 -0.0291613 -4.37473e-19)
(-0.0126067 0.0279319 1.25372e-19)
(-0.0309714 0.0741227 2.38143e-19)
(-0.0424312 0.112374 3.3291e-19)
(-0.0488206 0.142828 1.72528e-19)
(-0.0511201 0.166015 -1.70011e-19)
(-0.0499477 0.182662 4.08151e-19)
(-0.0457874 0.193538 3.05158e-19)
(-0.0390126 0.19941 -1.10916e-19)
(-0.0299089 0.201001 4.04013e-19)
(-0.0186993 0.198957 -4.18343e-19)
(-0.00556095 0.193839 -1.25062e-19)
(0.00936208 0.186116 1.26953e-19)
(0.0259507 0.176177 2.54193e-19)
(0.0441049 0.164335 3.24873e-21)
(0.0637414 0.150844 1.65729e-19)
(0.0847912 0.135904 3.12331e-19)
(0.1072 0.119681 -5.35902e-19)
(0.130927 0.102311 6.71812e-19)
(0.155942 0.0839193 2.29509e-19)
(0.182222 0.0646359 8.33566e-20)
(0.209737 0.0446264 -8.33915e-19)
(0.238433 0.0241394 1.17611e-19)
(0.268215 0.00359477 1.84755e-19)
(0.298733 -0.016307 -4.45708e-20)
(0.328534 -0.0345733 2.13378e-19)
(-0.0124446 0.0255969 9.70386e-21)
(-0.0306944 0.0687935 -6.12942e-19)
(-0.0418204 0.105274 -1.48065e-20)
(-0.0475386 0.134802 -1.55763e-19)
(-0.048791 0.157655 -1.02751e-18)
(-0.0462013 0.174365 8.92381e-19)
(-0.0402886 0.185551 -6.38831e-19)
(-0.0314754 0.191867 -3.31543e-20)
(-0.0201006 0.193952 -3.07441e-19)
(-0.00643856 0.1924 5.36076e-19)
(0.00928764 0.187736 -5.82502e-19)
(0.0268961 0.180413 -2.76095e-19)
(0.0462383 0.170811 3.56697e-21)
(0.0671945 0.159243 -6.13159e-19)
(0.0896693 0.145961 8.42766e-19)
(0.11359 0.131169 -9.90338e-19)
(0.138906 0.115029 4.00718e-22)
(0.165581 0.0976751 1.53051e-19)
(0.193598 0.0792223 -3.92949e-19)
(0.222943 0.059789 3.85973e-19)
(0.253591 0.0395235 -5.46895e-19)
(0.28548 0.0186572 -3.64386e-19)
(0.318502 -0.00237533 6.80884e-19)
(0.352373 -0.0227211 -7.45033e-19)
(0.385297 -0.0411508 -1.24604e-20)
(-0.01218 0.0232433 -5.03145e-19)
(-0.0302247 0.0631788 5.9553e-19)
(-0.0411029 0.0974646 -1.84754e-19)
(-0.0463314 0.125588 3.5595e-19)
(-0.0467743 0.147637 3.85552e-19)
(-0.0430369 0.163983 -3.41561e-19)
(-0.0356539 0.175116 -2.27457e-19)
(-0.0250816 0.181581 -2.75103e-19)
(-0.0117004 0.183939 2.53181e-19)
(0.00417367 0.182722 -1.84855e-20)
(0.0222801 0.178417 3.75852e-19)
(0.0424063 0.17145 3.74239e-19)
(0.0643818 0.162187 -4.54946e-19)
(0.088073 0.150931 8.98822e-19)
(0.113379 0.13793 -6.04359e-19)
(0.140229 0.123384 -1.04849e-19)
(0.168575 0.107452 1.20246e-18)
(0.198391 0.0902632 -5.60155e-19)
(0.229661 0.0719249 3.63604e-19)
(0.262375 0.0525441 7.15319e-19)
(0.296499 0.0322533 -4.65575e-19)
(0.331941 0.0112632 4.9422e-20)
(0.368553 -0.00998896 -3.3526e-20)
(0.406102 -0.0304868 -1.9191e-19)
(0.442492 -0.0486884 3.67196e-19)
(-0.011864 0.0209782 1.15569e-19)
(-0.0296454 0.0575366 -3.75927e-19)
(-0.0403414 0.089306 2.07085e-19)
(-0.0452171 0.115614 -2.75208e-21)
(-0.0450324 0.136422 1.56713e-19)
(-0.0403574 0.151987 -2.705e-19)
(-0.0317259 0.162691 1.55483e-19)
(-0.0196123 0.168988 4.26841e-19)
(-0.00442426 0.171364 -1.44416e-20)
(0.0134934 0.170292 -2.21621e-19)
(0.0338542 0.166215 2.23234e-19)
(0.0564257 0.159528 -4.35572e-21)
(0.0810247 0.150575 -7.26138e-19)
(0.107512 0.139645 2.69199e-19)
(0.135785 0.126977 5.87605e-20)
(0.165776 0.112765 -1.0711e-19)
(0.19744 0.0971618 -1.99121e-19)
(0.230749 0.0802915 7.52739e-19)
(0.265677 0.062257 1.85312e-19)
(0.302192 0.0431571 -4.0189e-19)
(0.340228 0.0231116 -5.04159e-20)
(0.379635 0.00230966 5.61978e-19)
(0.42018 -0.0188219 -2.62987e-19)
(0.461668 -0.0391032 1.1392e-19)
(0.501785 -0.0565973 7.55955e-20)
(-0.0115483 0.018887 -2.30035e-19)
(-0.0290386 0.052085 2.36262e-19)
(-0.0395865 0.0811235 -1.33157e-19)
(-0.0441827 0.105285 -4.29412e-19)
(-0.0434714 0.124474 -3.96725e-19)
(-0.0379774 0.138875 -1.75118e-19)
(-0.0282199 0.148793 -1.46772e-19)
(-0.0146767 0.15461 -4.3507e-19)
(0.00223272 0.156744 -1.77972e-19)
(0.0221491 0.155614 1.64194e-19)
(0.044774 0.151619 -2.34067e-19)
(0.0698668 0.145121 -2.47066e-19)
(0.0972404 0.136437 -2.35337e-19)
(0.126755 0.125838 4.3597e-19)
(0.158309 0.113551 -9.16713e-19)
(0.191831 0.0997603 5.34054e-19)
(0.227266 0.084615 -9.15625e-19)
(0.264563 0.0682347 -1.42679e-19)
(0.303663 0.0507201 -5.15194e-19)
(0.344479 0.0321667 -1.21307e-19)
(0.386875 0.0126869 -1.48579e-19)
(0.430605 -0.00755043 -5.01062e-19)
(0.475314 -0.0281437 -5.51516e-20)
(0.520815 -0.0477637 3.08721e-19)
(0.564734 -0.0639891 -7.98288e-19)
(-0.0112801 0.0170305 1.97716e-19)
(-0.0284732 0.046993 2.66774e-19)
(-0.038864 0.0731896 9.32693e-19)
(-0.0431742 0.0949667 -1.64171e-19)
(-0.0419337 0.112235 3.92552e-19)
(-0.035619 0.12515 9.37389e-19)
(-0.0247247 0.133971 -2.56754e-19)
(-0.00971828 0.139025 3.48793e-19)
(0.00898311 0.140679 2.0366e-19)
(0.0310208 0.139302 3.72633e-19)
(0.0560968 0.135252 -7.43067e-20)
(0.0839722 0.128855 5.14488e-20)
(0.114461 0.120403 -1.36597e-19)
(0.147422 0.110147 7.27292e-19)
(0.182745 0.0982986 9.20553e-20)
(0.22034 0.0850331 6.89812e-19)
(0.260118 0.0704942 -1.79081e-19)
(0.301976 0.0548003 6.45819e-19)
(0.345779 0.0380529 9.31021e-20)
(0.391347 0.0203487 3.34802e-19)
(0.438432 0.00179804 -1.45048e-19)
(0.486664 -0.0174479 -2.81314e-20)
(0.535527 -0.0370279 8.09539e-19)
(0.584816 -0.0554982 4.99944e-19)
(0.632316 -0.0698482 -2.05685e-19)
(-0.0110967 0.0154425 -4.75573e-19)
(-0.0279953 0.0423741 -4.96394e-19)
(-0.0381643 0.0657115 -5.20375e-19)
(-0.0420881 0.0849608 1.92405e-19)
(-0.0401955 0.100097 -3.86314e-19)
(-0.0329169 0.111283 -5.76581e-20)
(-0.0207164 0.118762 -1.52728e-19)
(-0.004041 0.122829 -6.35622e-19)
(0.0167072 0.123809 -1.00091e-19)
(0.0411812 0.122033 1.64327e-19)
(0.0690919 0.11782 -5.19214e-19)
(0.100205 0.111464 7.25011e-19)
(0.134333 0.103231 -9.91961e-19)
(0.17132 0.0933508 2.41351e-19)
(0.211029 0.0820203 -6.16711e-19)
(0.253322 0.0694054 -5.07383e-19)
(0.29804 0.0556454 -3.03439e-20)
(0.344987 0.0408588 -7.92865e-20)
(0.393912 0.0251501 6.05508e-20)
(0.4445 0.00862026 -3.01797e-19)
(0.496358 -0.00861958 -2.09757e-19)
(0.548964 -0.0264326 2.59868e-19)
(0.601635 -0.0445133 -7.23433e-19)
(0.654114 -0.0613594 2.35159e-19)
(0.704609 -0.0732468 1.6532e-19)
(-0.0110204 0.0141302 -8.3703e-20)
(-0.0276189 0.0382837 -1.4281e-19)
(-0.0374351 0.0588252 5.62626e-19)
(-0.040769 0.0754956 2.09294e-19)
(-0.0379714 0.0883801 2.77665e-19)
(-0.0294337 0.0976857 -3.72581e-19)
(-0.0155883 0.103662 1.30972e-21)
(0.00314475 0.106589 -3.02953e-19)
(0.026385 0.106767 5.62642e-19)
(0.0538018 0.104495 1.84847e-19)
(0.0851148 0.100058 2.0978e-19)
(0.120087 0.0937243 -8.32071e-19)
(0.158514 0.085732 1.03617e-18)
(0.200201 0.076292 -3.10873e-19)
(0.244952 0.0655865 -2.25145e-19)
(0.292541 0.0537719 6.83287e-19)
(0.342698 0.0409833 3.10077e-19)
(0.395088 0.0273392 -7.86448e-19)
(0.449308 0.0129476 -3.33852e-19)
(0.504876 -0.00208679 1.00992e-18)
(0.561233 -0.0176518 -7.76769e-19)
(0.617709 -0.0336246 4.70437e-19)
(0.673467 -0.0497703 2.64642e-19)
(0.728175 -0.064602 -3.41326e-19)
(0.780715 -0.073532 -3.228e-19)
(-0.011056 0.0130758 -3.07401e-19)
(-0.0273208 0.0347219 4.96492e-19)
(-0.0365788 0.0525932 2.11848e-19)
(-0.0390136 0.0667172 -3.07406e-19)
(-0.0349279 0.0773237 -4.96142e-20)
(-0.0246864 0.0846886 -3.23611e-19)
(-0.00869305 0.0890892 -1.28847e-19)
(0.012658 0.0908082 1.4559e-19)
(0.0390067 0.0901291 -3.67724e-20)
(0.0700336 0.0873279 2.76325e-19)
(0.105455 0.0826655 -2.41454e-19)
(0.145012 0.0763822 6.72504e-19)
(0.188451 0.0686943 -8.40157e-19)
(0.235508 0.0597929 5.26188e-19)
(0.285881 0.0498454 6.61502e-19)
(0.339215 0.0389985 -9.63728e-19)
(0.395083 0.0273818 -2.96173e-19)
(0.452981 0.0151128 5.03417e-19)
(0.512322 0.00230092 -3.11736e-19)
(0.572444 -0.0109472 3.05775e-19)
(0.632625 -0.0245212 -7.42259e-19)
(0.692063 -0.0383158 1.24205e-19)
(0.749813 -0.0521809 4.90337e-19)
(0.805486 -0.064705 -7.9216e-19)
(0.85877 -0.0703032 2.12032e-19)
(-0.0111885 0.0122406 -2.83012e-19)
(-0.0270404 0.0316398 9.21529e-19)
(-0.0354562 0.0470092 1.77181e-19)
(-0.0365811 0.0586887 -4.81414e-19)
(-0.0307041 0.0670728 3.46323e-19)
(-0.0181798 0.0725245 1.76384e-19)
(0.000605392 0.0753638 2.81637e-19)
(0.0252746 0.0758866 -1.85705e-20)
(0.0554764 0.0743712 -2.98227e-20)
(0.0908844 0.0710773 -6.25556e-20)
(0.131186 0.0662448 -2.73268e-19)
(0.176068 0.0600911 -1.01536e-20)
(0.22519 0.0528106 6.44503e-19)
(0.278168 0.044575 -1.06738e-18)
(0.334556 0.0355361 7.62407e-19)
(0.393825 0.0258284 1.55562e-19)
(0.455363 0.0155741 2.7732e-19)
(0.518474 0.00488684 -1.46223e-19)
(0.582382 -0.00612435 1.29167e-18)
(0.646257 -0.0173513 -8.03381e-19)
(0.709228 -0.0286841 6.47823e-19)
(0.770383 -0.0400334 1.53829e-19)
(0.82871 -0.0513156 -4.81035e-19)
(0.883805 -0.0611617 4.0945e-19)
(0.935936 -0.063173 6.26496e-19)
(-0.0113848 0.0115702 -8.1619e-20)
(-0.0266825 0.0289495 -3.24896e-19)
(-0.0338946 0.0420083 -5.5743e-19)
(-0.0332082 0.051397 -3.18168e-19)
(-0.024936 0.0576823 -4.47752e-20)
(-0.00944409 0.0613237 -1.26451e-19)
(0.012881 0.0626929 -5.87188e-19)
(0.0416602 0.0621073 9.80867e-20)
(0.0765268 0.0598461 -6.64101e-19)
(0.117117 0.0561583 -5.18261e-20)
(0.163053 0.0512656 -6.42799e-19)
(0.21392 0.0453645 -2.30476e-19)
(0.269247 0.0386273 1.33221e-19)
(0.328487 0.0312049 -6.36528e-19)
(0.391003 0.0232299 5.37942e-21)
(0.45607 0.0148206 -5.56616e-19)
(0.522875 0.0060861 2.17063e-19)
(0.590532 -0.00286929 -7.87043e-19)
(0.658109 -0.0119409 -1.36466e-19)
(0.72465 -0.0210186 -1.64638e-20)
(0.789199 -0.0299849 -1.34287e-19)
(0.850794 -0.0387392 -1.36004e-19)
(0.908423 -0.0471466 -6.5506e-20)
(0.961598 -0.0537494 -2.72113e-19)
(1.00973 -0.0528899 -5.82806e-19)
(-0.0115964 0.0110017 1.50617e-19)
(-0.0261249 0.0265381 4.10389e-19)
(-0.0316998 0.0374813 4.95154e-19)
(-0.0286262 0.0447669 -3.97534e-19)
(-0.0172802 0.0491276 7.40175e-19)
(0.00193468 0.0511217 -4.03259e-19)
(0.0286054 0.0511762 2.19802e-19)
(0.0623209 0.0496333 3.43194e-19)
(0.102664 0.0467769 3.13372e-19)
(0.149192 0.0428479 1.52956e-19)
(0.201413 0.0380514 2.48451e-19)
(0.258764 0.0325622 1.44878e-19)
(0.320593 0.0265289 9.87763e-19)
(0.386148 0.0200774 -7.21781e-19)
(0.454579 0.0133155 8.29481e-19)
(0.524946 0.0063373 -3.46227e-19)
(0.596242 -0.000771042 7.53344e-19)
(0.667426 -0.00792626 -3.3879e-20)
(0.737454 -0.0150417 -1.57141e-19)
(0.805324 -0.02202 -2.56552e-20)
(0.870113 -0.0287456 5.94903e-19)
(0.931003 -0.0350747 -5.70037e-19)
(0.987355 -0.0406846 4.08892e-19)
(1.03894 -0.0443491 4.38098e-19)
(1.08118 -0.0459623 8.35674e-20)
(-0.0117638 0.0104706 1.03964e-19)
(-0.0252277 0.0242815 -5.86214e-19)
(-0.0286681 0.0332926 -2.13986e-19)
(-0.0225768 0.0386795 1.95983e-19)
(-0.00743211 0.0413242 -6.07141e-19)
(0.0162932 0.0418789 -1.19996e-19)
(0.0481252 0.0408237 8.35394e-20)
(0.0875817 0.0385257 3.30554e-19)
(0.134149 0.0352742 -8.41566e-19)
(0.187256 0.0313015 6.41847e-20)
(0.246243 0.0267951 -2.47934e-19)
(0.310351 0.0219059 -7.58083e-19)
(0.378703 0.016754 5.1904e-19)
(0.450314 0.0114343 2.24047e-20)
(0.524103 0.00602153 -1.60815e-20)
(0.598925 0.000576086 5.32301e-19)
(0.673604 -0.00485084 -9.42677e-19)
(0.746984 -0.0102117 7.4924e-19)
(0.817969 -0.0154573 -1.39764e-19)
(0.885575 -0.0205326 4.3147e-19)
(0.948966 -0.0253733 -7.13425e-19)
(1.00749 -0.0299038 4.02787e-19)
(1.06071 -0.0339738 -7.05169e-19)
(1.10862 -0.0370315 7.06414e-19)
(1.14817 -0.0393489 -2.33317e-19)
(-0.0118218 0.009918 6.96504e-19)
(-0.0238428 0.0220596 -1.17498e-19)
(-0.0245978 0.0293008 8.71623e-19)
(-0.0148221 0.0329968 4.05105e-19)
(0.00486444 0.0341543 3.22268e-20)
(0.033884 0.0335087 1.78315e-19)
(0.0716601 0.0315867 4.31189e-20)
(0.117592 0.0287764 7.31536e-19)
(0.171016 0.0253696 2.36264e-19)
(0.231177 0.0215871 -3.19416e-20)
(0.297198 0.017595 6.36451e-20)
(0.368075 0.0135146 2.47481e-19)
(0.442676 0.00943095 2.07761e-19)
(0.519766 0.00539964 4.47269e-19)
(0.598043 0.00145368 -5.11168e-19)
(0.676178 -0.00239001 1.5491e-19)
(0.752877 -0.00612406 4.82237e-20)
(0.826926 -0.00974484 2.3007e-19)
(0.897248 -0.0132475 6.18764e-19)
(0.962942 -0.0166223 -4.0893e-19)
(1.02331 -0.0198537 3.13598e-20)
(1.07789 -0.0229228 -5.53826e-19)
(1.12643 -0.0257844 5.14018e-19)
(1.169 -0.0281318 -4.75503e-19)
(1.20369 -0.0298789 5.9609e-20)
(-0.0117048 0.00929538 -5.80793e-19)
(-0.0218234 0.0197691 4.60249e-19)
(-0.0192973 0.0253765 -7.53184e-19)
(-0.00515133 0.0275852 6.54661e-20)
(0.0198157 0.0274955 5.34532e-19)
(0.0548804 0.0259105 -8.94527e-19)
(0.0993162 0.0233937 7.11982e-19)
(0.152349 0.0203463 -1.13439e-18)
(0.21311 0.0170565 2.27234e-19)
(0.280602 0.0137273 4.86963e-20)
(0.353684 0.0104956 3.86487e-19)
(0.431069 0.0074449 -1.28845e-18)
(0.511354 0.00461586 2.23231e-19)
(0.593059 0.00201538 2.37493e-19)
(0.674684 -0.000374373 -1.42741e-19)
(0.754771 -0.00258721 -8.86574e-19)
(0.831969 -0.00466474 4.19442e-19)
(0.905087 -0.00664915 7.79084e-19)
(0.973145 -0.0085776 -8.16791e-19)
(1.0354 -0.0104786 5.89059e-19)
(1.09136 -0.0123713 -7.493e-19)
(1.14077 -0.0142684 5.41837e-19)
(1.18363 -0.0161642 -1.40784e-19)
(1.22016 -0.0178492 8.05288e-19)
(1.24931 -0.0190481 -8.96841e-19)
(-0.0113509 0.00856836 8.32277e-20)
(-0.0190298 0.017333 6.82781e-20)
(-0.0125906 0.021419 1.67916e-19)
(0.00661882 0.0223369 6.00678e-19)
(0.037583 0.0212471 -1.86854e-20)
(0.0793891 0.0190014 1.3572e-19)
(0.131108 0.0161856 6.05408e-19)
(0.191733 0.0132035 2.45418e-19)
(0.260133 0.010329 -8.09707e-20)
(0.335017 0.00773687 6.94137e-19)
(0.414934 0.00552383 -7.93666e-19)
(0.498297 0.00372393 1.2224e-18)
(0.583429 0.00232213 -4.86636e-19)
(0.668635 0.00126672 8.85712e-19)
(0.752267 0.000481743 -3.0004e-19)
(0.832808 -0.000121332 1.09546e-19)
(0.908933 -0.000632865 1.32735e-19)
(0.979564 -0.00113623 -2.52435e-19)
(1.0439 -0.0017014 2.13163e-19)
(1.10142 -0.0023813 1.36655e-19)
(1.1519 -0.00321106 1.84385e-19)
(1.19534 -0.00421091 3.78363e-19)
(1.23199 -0.00537898 -3.88694e-20)
(1.26226 -0.00655394 -1.71316e-19)
(1.28576 -0.00738358 4.78255e-19)
(-0.0107038 0.00771767 -4.86227e-19)
(-0.0153338 0.0147056 5.30911e-20)
(-0.00431836 0.0173666 -9.63699e-19)
(0.0206457 0.0171872 -2.31533e-19)
(0.0582895 0.0153522 -4.35324e-19)
(0.107463 0.0127406 -9.40161e-20)
(0.166977 0.00994339 -4.70789e-19)
(0.235536 0.00735106 -2.82357e-19)
(0.311683 0.00520879 3.7632e-19)
(0.393789 0.00364822 -6.30372e-19)
(0.480065 0.0027108 -1.75752e-19)
(0.568618 0.00236709 6.66222e-21)
(0.657525 0.0025344 -1.1954e-18)
(0.744921 0.00309407 5.09221e-19)
(0.82909 0.00390806 -7.43636e-19)
(0.908541 0.00483439 -2.26634e-20)
(0.982072 0.00574018 1.44345e-19)
(1.04881 0.00651158 -2.37611e-19)
(1.10819 0.00706004 -2.07185e-19)
(1.16001 0.00732493 9.9114e-20)
(1.2043 0.00727284 1.08323e-19)
(1.24138 0.00689367 -7.07253e-19)
(1.2717 0.00620434 4.01732e-19)
(1.29588 0.00534407 1.90505e-19)
(1.31393 0.00464728 4.01077e-20)
(-0.00971427 0.00673847 4.97585e-19)
(-0.0106204 0.0118745 -5.50497e-19)
(0.00566076 0.0132027 7.76751e-19)
(0.037063 0.0121233 1.21124e-19)
(0.0820256 0.00981022 -3.74011e-20)
(0.13911 0.0071452 -2.66088e-19)
(0.206809 0.00470306 3.99878e-20)
(0.283473 0.00284145 4.07884e-19)
(0.367271 0.00175707 -5.65052e-19)
(0.456195 0.00151909 5.95664e-19)
(0.548111 0.00209586 -6.29136e-20)
(0.640836 0.00337937 2.82255e-20)
(0.732251 0.00520892 7.82326e-19)
(0.820398 0.00739421 1.04734e-18)
(0.903584 0.00973691 -4.11471e-19)
(0.98045 0.0120492 7.24686e-19)
(1.05001 0.0141683 3.62822e-19)
(1.11167 0.0159658 -2.24987e-19)
(1.16519 0.0173517 6.96983e-19)
(1.21067 0.018275 -3.35027e-20)
(1.24846 0.0187196 -6.57269e-19)
(1.27911 0.0186977 6.81141e-19)
(1.30331 0.018251 9.00373e-20)
(1.32182 0.0175095 -4.0638e-19)
(1.33494 0.0167495 1.29518e-19)
(-0.00833935 0.00563848 -6.92618e-19)
(-0.0047876 0.00885878 7.50641e-19)
(0.0174709 0.00895595 -4.79509e-19)
(0.0559813 0.00718743 -1.50902e-19)
(0.10885 0.00468072 -3.38908e-19)
(0.174296 0.00229337 6.0258e-19)
(0.250431 0.000558727 -3.52167e-19)
(0.335192 -0.000223388 -1.622e-19)
(0.42633 7.10323e-05 -4.6652e-19)
(0.521438 0.00142601 1.20747e-20)
(0.618046 0.00371771 -1.8367e-19)
(0.713732 0.00674613 8.92617e-20)
(0.80625 0.0102664 -9.43929e-19)
(0.893654 0.0140181 2.70005e-19)
(0.97438 0.0177516 -3.23965e-19)
(1.0473 0.0212476 -2.58898e-19)
(1.11174 0.0243314 7.91519e-20)
(1.16743 0.0268791 -3.73504e-19)
(1.2145 0.0288177 -1.54809e-19)
(1.25336 0.0301215 4.5561e-19)
(1.28465 0.0308034 1.85878e-19)
(1.30914 0.0309064 -7.95593e-19)
(1.32768 0.0305009 5.75266e-19)
(1.34112 0.0297146 -1.07938e-19)
(1.34992 0.0287491 -2.18225e-19)
(-0.00654132 0.00443543 -2.52591e-19)
(0.00225446 0.00570453 -1.4009e-19)
(0.0312183 0.00469621 -2.82926e-20)
(0.0774864 0.00247272 2.07449e-19)
(0.138788 7.92973e-05 2.27355e-19)
(0.212939 -0.00168098 1.99454e-19)
(0.297607 -0.00234616 2.4899e-19)
(0.390267 -0.00170385 3.82181e-19)
(0.488216 0.000269218 5.86521e-19)
(0.588654 0.00344784 5.82569e-19)
(0.688811 0.00759849 3.08155e-19)
(0.786098 0.0124204 -8.31268e-20)
(0.878252 0.017585 2.11983e-20)
(0.963446 0.0227717 -2.5904e-20)
(1.04036 0.0276954 2.45663e-19)
(1.10819 0.0321261 -6.18226e-20)
(1.16662 0.0358984 7.13203e-19)
(1.21579 0.0389127 -3.22942e-19)
(1.25615 0.0411299 2.9436e-21)
(1.28843 0.0425616 2.14976e-19)
(1.31349 0.0432579 -4.74766e-19)
(1.33228 0.0432954 7.73203e-19)
(1.34577 0.0427738 -6.22472e-19)
(1.35484 0.0418193 1.0909e-19)
(1.36001 0.0405643 -3.94147e-19)
(-0.00428641 0.00315463 5.41999e-19)
(0.0105836 0.00248033 3.78878e-19)
(0.0469898 0.000528103 -2.44614e-19)
(0.101635 -0.00188481 1.08757e-18)
(0.17182 -0.00383286 -9.47142e-19)
(0.254898 -0.00460155 2.01371e-19)
(0.348033 -0.00383484 -1.51684e-19)
(0.448192 -0.00144144 -6.72636e-19)