/*--------------------------------*- C++ -*----------------------------------*\
  =========                 |
  \\      /  F ield         | OpenFOAM: The Open Source CFD Toolbox
   \\    /   O peration     | Website:  https://openfoam.org
    \\  /    A nd           | Version:  6.0
     \\/     M anipulation  |
\*---------------------------------------------------------------------------*/
FoamFile
{
    version     2.0;
    format      ascii;
    class       volScalarField;
    location    "76";
    object      p;
}
// * * * * * * * * * * * * * * * * * * * * * * * * * * * * * * * * * * * * * //

dimensions      [0 2 -2 0 0 0 0];

internalField   nonuniform List<scalar> 
8000
(
-0.425619
-0.42799
-0.429295
-0.43014
-0.430896
-0.43163
-0.432362
-0.433085
-0.433772
-0.43439
-0.434905
-0.43529
-0.435527
-0.435606
-0.435533
-0.435316
-0.434976
-0.434589
-0.434263
-0.4336
-0.434987
-0.437378
-0.438773
-0.439786
-0.440789
-0.441842
-0.442951
-0.444094
-0.445227
-0.446301
-0.447266
-0.448079
-0.44871
-0.449139
-0.449361
-0.449378
-0.449212
-0.448978
-0.448801
-0.447925
-0.444788
-0.447114
-0.448562
-0.449732
-0.450981
-0.452359
-0.453857
-0.455434
-0.457029
-0.458571
-0.459995
-0.461239
-0.462256
-0.463014
-0.463497
-0.463696
-0.463633
-0.463458
-0.463311
-0.462137
-0.45494
-0.45711
-0.458567
-0.459874
-0.461359
-0.463061
-0.464952
-0.46697
-0.469035
-0.471054
-0.472942
-0.474616
-0.47601
-0.477076
-0.477781
-0.478105
-0.478068
-0.477844
-0.477591
-0.476039
-0.465331
-0.467252
-0.468669
-0.470083
-0.471786
-0.473798
-0.476073
-0.478529
-0.481062
-0.483559
-0.485909
-0.488009
-0.489768
-0.491118
-0.492007
-0.492401
-0.49231
-0.491924
-0.491421
-0.48942
-0.475822
-0.477403
-0.478727
-0.480213
-0.4821
-0.484395
-0.487032
-0.489906
-0.492892
-0.495852
-0.498653
-0.501166
-0.503275
-0.504885
-0.505923
-0.506334
-0.506116
-0.505456
-0.50456
-0.50205
-0.486252
-0.487416
-0.488592
-0.490103
-0.492129
-0.494662
-0.497618
-0.500872
-0.504275
-0.507669
-0.510894
-0.513796
-0.51623
-0.518074
-0.519225
-0.519607
-0.519197
-0.518165
-0.516742
-0.513676
-0.496453
-0.497137
-0.498113
-0.499593
-0.501698
-0.504405
-0.507616
-0.511188
-0.514951
-0.518725
-0.522326
-0.525575
-0.528298
-0.53034
-0.531571
-0.531883
-0.531229
-0.529742
-0.527674
-0.524011
-0.506258
-0.506424
-0.507149
-0.508536
-0.510644
-0.513444
-0.516825
-0.520628
-0.524667
-0.528743
-0.532649
-0.536179
-0.539135
-0.541329
-0.542596
-0.542801
-0.54186
-0.539854
-0.537042
-0.532745
-0.515516
-0.515152
-0.515584
-0.516811
-0.518837
-0.521631
-0.525076
-0.529002
-0.53321
-0.537482
-0.541594
-0.545318
-0.548427
-0.550705
-0.551955
-0.552006
-0.550739
-0.548169
-0.544533
-0.539556
-0.524108
-0.523228
-0.523334
-0.524334
-0.526187
-0.528866
-0.532254
-0.536177
-0.540425
-0.544768
-0.548965
-0.552769
-0.55593
-0.558205
-0.559363
-0.559202
-0.557565
-0.554392
-0.549866
-0.544151
-0.531953
-0.530599
-0.530359
-0.531068
-0.532657
-0.535107
-0.538312
-0.542095
-0.546244
-0.550519
-0.554666
-0.558421
-0.561513
-0.563675
-0.564647
-0.564197
-0.562129
-0.558313
-0.55284
-0.546303
-0.539018
-0.537255
-0.536662
-0.537026
-0.538264
-0.540378
-0.543274
-0.546784
-0.550694
-0.554759
-0.558716
-0.562285
-0.565178
-0.567104
-0.567779
-0.566941
-0.564364
-0.559852
-0.553376
-0.545905
-0.545322
-0.54323
-0.542288
-0.542265
-0.543081
-0.544764
-0.54724
-0.550353
-0.553895
-0.557619
-0.561252
-0.564501
-0.567062
-0.568623
-0.568878
-0.567539
-0.564354
-0.559077
-0.551548
-0.543003
-0.550935
-0.5486
-0.547325
-0.546887
-0.547227
-0.548403
-0.550368
-0.552984
-0.556049
-0.559316
-0.562505
-0.565311
-0.567414
-0.568482
-0.568189
-0.566224
-0.562318
-0.556196
-0.547574
-0.537815
-0.555975
-0.553477
-0.551891
-0.551025
-0.550854
-0.551473
-0.552863
-0.554905
-0.557408
-0.560126
-0.562771
-0.565025
-0.566551
-0.567001
-0.566029
-0.563313
-0.55857
-0.551525
-0.541805
-0.530726
-0.560598
-0.558005
-0.55613
-0.554834
-0.55414
-0.554176
-0.554954
-0.556374
-0.558256
-0.560352
-0.562368
-0.563972
-0.564808
-0.564515
-0.562736
-0.559144
-0.553462
-0.545441
-0.534681
-0.522269
-0.56499
-0.562346
-0.560201
-0.558484
-0.55727
-0.55672
-0.556873
-0.557647
-0.558869
-0.56029
-0.561603
-0.562461
-0.562495
-0.56133
-0.558608
-0.55401
-0.547288
-0.538257
-0.526548
-0.512937
-0.569356
-0.566674
-0.56427
-0.562147
-0.56043
-0.559308
-0.558842
-0.558963
-0.5595
-0.560197
-0.560735
-0.560753
-0.559867
-0.557697
-0.553891
-0.548148
-0.540254
-0.530079
-0.517306
-0.502707
-0.573901
-0.571161
-0.568501
-0.565988
-0.563791
-0.562121
-0.561052
-0.56052
-0.560349
-0.560273
-0.559961
-0.559036
-0.557113
-0.553817
-0.548814
-0.541834
-0.532688
-0.52121
-0.507038
-0.491756
-0.578819
-0.575971
-0.573042
-0.570154
-0.567502
-0.56531
-0.563653
-0.562463
-0.561555
-0.560649
-0.559399
-0.557426
-0.554351
-0.549826
-0.543561
-0.53535
-0.525071
-0.512653
-0.498143
-0.483704
-0.584277
-0.581246
-0.578025
-0.574768
-0.571679
-0.568982
-0.566744
-0.564882
-0.563193
-0.561382
-0.559096
-0.555963
-0.551627
-0.545786
-0.538218
-0.528794
-0.517487
-0.504369
-0.489668
-0.474596
-0.590411
-0.587099
-0.583552
-0.579922
-0.576405
-0.573208
-0.570379
-0.56781
-0.565276
-0.56247
-0.559039
-0.554633
-0.548939
-0.541721
-0.532833
-0.522232
-0.509972
-0.496195
-0.481117
-0.465433
-0.597316
-0.593616
-0.589696
-0.58568
-0.581726
-0.578017
-0.574566
-0.571233
-0.56777
-0.563863
-0.559173
-0.553388
-0.546261
-0.537632
-0.527442
-0.515733
-0.502628
-0.488313
-0.473018
-0.457245
-0.605046
-0.600849
-0.596504
-0.592077
-0.587665
-0.583409
-0.579281
-0.575103
-0.570607
-0.56548
-0.559416
-0.552163
-0.54355
-0.533508
-0.522067
-0.509339
-0.4955
-0.480763
-0.465359
-0.449657
-0.613625
-0.608826
-0.604003
-0.599129
-0.594219
-0.589363
-0.584478
-0.579351
-0.573698
-0.567225
-0.559679
-0.550883
-0.540761
-0.529334
-0.516712
-0.503066
-0.488607
-0.473558
-0.458144
-0.442662
-0.623047
-0.617553
-0.612197
-0.606835
-0.601373
-0.595839
-0.590094
-0.583888
-0.576938
-0.568991
-0.559864
-0.549476
-0.537846
-0.525084
-0.511366
-0.496903
-0.481919
-0.466631
-0.451243
-0.435982
-0.633285
-0.627015
-0.621079
-0.61518
-0.609097
-0.602784
-0.596046
-0.58861
-0.580213
-0.570664
-0.559875
-0.547867
-0.534756
-0.520728
-0.506004
-0.490817
-0.475385
-0.459904
-0.444551
-0.429489
-0.644288
-0.637182
-0.630622
-0.624133
-0.617342
-0.610124
-0.602237
-0.5934
-0.583398
-0.57213
-0.559616
-0.545985
-0.531441
-0.516225
-0.500587
-0.484757
-0.468935
-0.453284
-0.437949
-0.423027
-0.655989
-0.648002
-0.640783
-0.633642
-0.626035
-0.617761
-0.608542
-0.598119
-0.586357
-0.573268
-0.558993
-0.543761
-0.527847
-0.51153
-0.495063
-0.478661
-0.462491
-0.446681
-0.431339
-0.416503
-0.668295
-0.6594
-0.65149
-0.643625
-0.635075
-0.625565
-0.61481
-0.602612
-0.588947
-0.57396
-0.557914
-0.541126
-0.523921
-0.50659
-0.489376
-0.47246
-0.455975
-0.440009
-0.424632
-0.409833
-0.681083
-0.671271
-0.662643
-0.653968
-0.64432
-0.633371
-0.620866
-0.606708
-0.591019
-0.574087
-0.556288
-0.538008
-0.519599
-0.501344
-0.483456
-0.466079
-0.449305
-0.433185
-0.417749
-0.402953
-0.694199
-0.683478
-0.674101
-0.664514
-0.653589
-0.640979
-0.626508
-0.610226
-0.592422
-0.573531
-0.554025
-0.534336
-0.514815
-0.495722
-0.47723
-0.459439
-0.4424
-0.42613
-0.410619
-0.395805
-0.707451
-0.695845
-0.685686
-0.675062
-0.662662
-0.648161
-0.631519
-0.612976
-0.593005
-0.572176
-0.551035
-0.530031
-0.509497
-0.48965
-0.470618
-0.452457
-0.435178
-0.418765
-0.403171
-0.388332
-0.720611
-0.708157
-0.697174
-0.685371
-0.671279
-0.65466
-0.635668
-0.614767
-0.592618
-0.569907
-0.547224
-0.525011
-0.503562
-0.483046
-0.463537
-0.445048
-0.427555
-0.411013
-0.395337
-0.380479
-0.733409
-0.720158
-0.708302
-0.695158
-0.679154
-0.660204
-0.63872
-0.615411
-0.591116
-0.56661
-0.542498
-0.519191
-0.496928
-0.475822
-0.455898
-0.437127
-0.419452
-0.4028
-0.387051
-0.37219
-0.745544
-0.731556
-0.718767
-0.704109
-0.685975
-0.664515
-0.640442
-0.614726
-0.588359
-0.562174
-0.536761
-0.512478
-0.489503
-0.467891
-0.447615
-0.428609
-0.410787
-0.394051
-0.378248
-0.36341
-0.756682
-0.742026
-0.728235
-0.711885
-0.691422
-0.667312
-0.640611
-0.612539
-0.584214
-0.556489
-0.529913
-0.50478
-0.481198
-0.459162
-0.4386
-0.419411
-0.401484
-0.384695
-0.368864
-0.354084
-0.766466
-0.751216
-0.736347
-0.71813
-0.695172
-0.668327
-0.639016
-0.608689
-0.578553
-0.549448
-0.521859
-0.496004
-0.471921
-0.449547
-0.428769
-0.409452
-0.391467
-0.374665
-0.35884
-0.344159
-0.774521
-0.758755
-0.74273
-0.722488
-0.69691
-0.667305
-0.635461
-0.603027
-0.571256
-0.540946
-0.512502
-0.486058
-0.461584
-0.438962
-0.418041
-0.39866
-0.38067
-0.363899
-0.34812
-0.333585
-0.780469
-0.764265
-0.747009
-0.72461
-0.696342
-0.664014
-0.629771
-0.595417
-0.562214
-0.530888
-0.501752
-0.474856
-0.450103
-0.427328
-0.406342
-0.386965
-0.369029
-0.35234
-0.336654
-0.322319
-0.783929
-0.767369
-0.748815
-0.724164
-0.693197
-0.658249
-0.621793
-0.585741
-0.551326
-0.519183
-0.489524
-0.462318
-0.437403
-0.414572
-0.393607
-0.374307
-0.35649
-0.33994
-0.3244
-0.310321
-0.784539
-0.767702
-0.747801
-0.720849
-0.687235
-0.649832
-0.611395
-0.573897
-0.538506
-0.50575
-0.475743
-0.44837
-0.423416
-0.400633
-0.379779
-0.360635
-0.343008
-0.326659
-0.311324
-0.297562
-0.781958
-0.764923
-0.743646
-0.714397
-0.678257
-0.638619
-0.59847
-0.559798
-0.523678
-0.490522
-0.460343
-0.432952
-0.408084
-0.385458
-0.36481
-0.345908
-0.328547
-0.312465
-0.297399
-0.284021
-0.775877
-0.758724
-0.736072
-0.704586
-0.6661
-0.624497
-0.582937
-0.543379
-0.506784
-0.473443
-0.443271
-0.416015
-0.391363
-0.369007
-0.348665
-0.330095
-0.31308
-0.297338
-0.282612
-0.269684
-0.766029
-0.74884
-0.724845
-0.691238
-0.650643
-0.607387
-0.564741
-0.524595
-0.487781
-0.454471
-0.424489
-0.39752
-0.373218
-0.351249
-0.331319
-0.313175
-0.296592
-0.281267
-0.266955
-0.254549
-0.752195
-0.735053
-0.709783
-0.674227
-0.631812
-0.587244
-0.543851
-0.50342
-0.466646
-0.433582
-0.403971
-0.377446
-0.353629
-0.332169
-0.312759
-0.29514
-0.279077
-0.264251
-0.250433
-0.238621
-0.734209
-0.717203
-0.690763
-0.653479
-0.609571
-0.564058
-0.520264
-0.479851
-0.443371
-0.410767
-0.381708
-0.355783
-0.33259
-0.311761
-0.292983
-0.275991
-0.260542
-0.246301
-0.233059
-0.221913
-0.711965
-0.695187
-0.667716
-0.628971
-0.583931
-0.537851
-0.494005
-0.453908
-0.417971
-0.386034
-0.357705
-0.332536
-0.310104
-0.290032
-0.271999
-0.25574
-0.241001
-0.227435
-0.214857
-0.204451
-0.685418
-0.668965
-0.640635
-0.600734
-0.554942
-0.508679
-0.465123
-0.425631
-0.390478
-0.359411
-0.331984
-0.307724
-0.28619
-0.266999
-0.249827
-0.234408
-0.22048
-0.207685
-0.195864
-0.186272
-0.654586
-0.63856
-0.609573
-0.568846
-0.522697
-0.476632
-0.433698
-0.395087
-0.360944
-0.330939
-0.304582
-0.281376
-0.260874
-0.242687
-0.226493
-0.212023
-0.19901
-0.187089
-0.176126
-0.167433
-0.619549
-0.604057
-0.574639
-0.533438
-0.487327
-0.44183
-0.399833
-0.362362
-0.329444
-0.30068
-0.275548
-0.253536
-0.234192
-0.21713
-0.202026
-0.188614
-0.176623
-0.165684
-0.155691
-0.14799
-0.58045
-0.565602
-0.535997
-0.494684
-0.449001
-0.404426
-0.363661
-0.327569
-0.296072
-0.268713
-0.244947
-0.224257
-0.20619
-0.190363
-0.176458
-0.16421
-0.153348
-0.143505
-0.134602
-0.127977
-0.537491
-0.523399
-0.493864
-0.452802
-0.407923
-0.364601
-0.32534
-0.290844
-0.260941
-0.235133
-0.212858
-0.193601
-0.176916
-0.162425
-0.149818
-0.138835
-0.129208
-0.120582
-0.112887
-0.107382
-0.490929
-0.477705
-0.448502
-0.408049
-0.364332
-0.32257
-0.285056
-0.252347
-0.224191
-0.200057
-0.179378
-0.161645
-0.146423
-0.13335
-0.122126
-0.112501
-0.104215
-0.0969276
-0.090551
-0.0861962
-0.441074
-0.428827
-0.400218
-0.36072
-0.318499
-0.278573
-0.243022
-0.212266
-0.185984
-0.163623
-0.14462
-0.128477
-0.114778
-0.103179
-0.0933999
-0.0852061
-0.0783524
-0.0725207
-0.0675999
-0.0645666
-0.38828
-0.377116
-0.349359
-0.311141
-0.270722
-0.23288
-0.19948
-0.170815
-0.146509
-0.125996
-0.108722
-0.0942075
-0.082061
-0.0719666
-0.063672
-0.0569612
-0.0516093
-0.0473652
-0.0441925
-0.0429802
-0.33294
-0.32296
-0.296301
-0.25967
-0.221327
-0.185785
-0.154695
-0.128235
-0.105982
-0.0873626
-0.0718373
-0.0589515
-0.0483439
-0.0397397
-0.032927
-0.0277139
-0.0239259
-0.0215204
-0.0207178
-0.0219816
-0.275482
-0.266777
-0.241449
-0.206682
-0.170662
-0.137608
-0.108963
-0.0847983
-0.0646522
-0.0479478
-0.0341564
-0.0228444
-0.013681
-0.00643331
-0.0009326
0.00297707
0.00533114
0.00570728
0.00349837
-0.0002807
-0.216359
-0.20901
-0.185227
-0.152576
-0.119093
-0.0886881
-0.0626023
-0.0408103
-0.0228167
-0.0080398
0.00404371
0.0138614
0.021738
0.0279034
0.0325414
0.0358274
0.0376414
0.0369826
0.0330178
0.0288777
-0.156042
-0.150119
-0.128072
-0.0977568
-0.0669949
-0.0393756
-0.015946
0.00340431
0.0191976
0.0320171
0.0423823
0.050722
0.0573753
0.0626154
0.0667228
0.070015
0.0724386
0.0728173
0.0708479
0.0761047
-0.0950041
-0.0905674
-0.0704269
-0.0426363
-0.0147478
0.00997597
0.0306703
0.0475201
0.0610656
0.0718847
0.0804855
0.0872864
0.0926236
0.0967822
0.10006
0.102752
0.104822
0.105699
0.106419
0.114119
-0.0337322
-0.0308279
-0.0127361
0.012376
0.0372721
0.0590175
0.0769183
0.0912226
0.102481
0.111262
0.118057
0.123273
0.127238
0.130233
0.13254
0.134403
0.13578
0.136312
0.137042
0.143446
0.0272917
0.0286319
0.0445614
0.0668773
0.0886968
0.10741
0.122482
0.134212
0.143155
0.149862
0.154805
0.15837
0.16087
0.162571
0.163731
0.164567
0.165058
0.164926
0.165021
0.16969
0.0875931
0.0873525
0.101036
0.120476
0.139171
0.154829
0.167062
0.176213
0.182831
0.187448
0.190513
0.192388
0.193363
0.193681
0.193572
0.19322
0.19259
0.19144
0.19055
0.193628
0.146709
0.144886
0.156273
0.172794
0.188353
0.200967
0.210379
0.216967
0.221274
0.223807
0.224988
0.225155
0.224575
0.223469
0.222038
0.220436
0.218614
0.216355
0.214401
0.215958
0.204193
0.200803
0.209872
0.223471
0.235919
0.24553
0.252168
0.256238
0.25827
0.258747
0.258065
0.256535
0.2544
0.251859
0.249088
0.246214
0.243178
0.239796
0.236778
0.236906
0.259616
0.254689
0.261452
0.272164
0.281562
0.288243
0.292182
0.293802
0.293621
0.292096
0.289594
0.286403
0.282743
0.27879
0.274701
0.270577
0.266356
0.261884
0.257834
0.256609
0.312573
0.306154
0.310654
0.318549
0.324992
0.328848
0.330189
0.329454
0.327144
0.323691
0.319436
0.314642
0.309508
0.304192
0.298829
0.293502
0.288147
0.282641
0.277607
0.275103
0.362679
0.35483
0.357139
0.362324
0.36594
0.367103
0.365973
0.363
0.358667
0.35338
0.347457
0.341138
0.334603
0.32799
0.321417
0.31495
0.308531
0.302057
0.296093
0.292385
0.409578
0.400376
0.400595
0.403205
0.404153
0.402783
0.399331
0.394258
0.388026
0.381019
0.373532
0.365782
0.357932
0.350103
0.342397
0.334868
0.32746
0.320091
0.313259
0.308423
0.452939
0.442475
0.440731
0.440935
0.439399
0.435678
0.430077
0.423059
0.415071
0.406473
0.397538
0.388465
0.379399
0.370449
0.361697
0.353191
0.344877
0.336691
0.329056
0.323176
0.492464
0.480841
0.477285
0.475276
0.471466
0.4656
0.458039
0.449249
0.439662
0.429615
0.419362
0.409085
0.398914
0.388943
0.379243
0.36985
0.36072
0.351798
0.34343
0.336594
0.52788
0.515214
0.51002
0.506016
0.500165
0.492376
0.483061
0.472688
0.46167
0.450329
0.438899
0.427546
0.416388
0.405507
0.394961
0.38478
0.374925
0.365349
0.356325
0.348629
0.558951
0.545369
0.538727
0.532969
0.525326
0.515854
0.505006
0.493248
0.480981
0.46851
0.456051
0.44376
0.431741
0.420065
0.408783
0.397915
0.38743
0.377286
0.367687
0.359233
0.58547
0.571108
0.563229
0.555972
0.546806
0.535903
0.523754
0.510822
0.497496
0.484066
0.470737
0.45765
0.444901
0.432553
0.420646
0.409197
0.398181
0.387557
0.377468
0.368364
0.607267
0.59227
0.583376
0.574893
0.564481
0.552414
0.539205
0.525318
0.51113
0.49692
0.482882
0.469149
0.455806
0.442911
0.430497
0.418576
0.407127
0.396115
0.385624
0.375987
0.624206
0.608725
0.599049
0.589623
0.578258
0.565298
0.551279
0.536662
0.521816
0.50701
0.492431
0.478203
0.464407
0.451094
0.438291
0.42601
0.414231
0.402921
0.392122
0.382071
0.636187
0.620377
0.610162
0.600085
0.588063
0.574491
0.559916
0.544799
0.529503
0.514289
0.499339
0.484773
0.470666
0.457066
0.443997
0.431467
0.419462
0.407948
0.396936
0.386595
0.643146
0.627167
0.616659
0.606229
0.593853
0.579952
0.56508
0.549696
0.534159
0.518728
0.50358
0.488832
0.474559
0.460805
0.447592
0.434929
0.422801
0.411176
0.400049
0.389545
0.645057
0.629069
0.618517
0.608034
0.595608
0.581664
0.566755
0.551338
0.535771
0.520313
0.505141
0.49037
0.476076
0.462301
0.449068
0.436384
0.424239
0.412598
0.401453
0.390915
0.641931
0.626093
0.615747
0.605509
0.593337
0.579634
0.564946
0.549729
0.534344
0.51905
0.504026
0.489391
0.475219
0.461557
0.448427
0.435838
0.423777
0.412216
0.401151
0.390706
0.633814
0.618284
0.608388
0.598691
0.587073
0.573892
0.559682
0.544898
0.529902
0.514961
0.500257
0.485913
0.472007
0.458588
0.445684
0.433302
0.421431
0.410041
0.399153
0.388928
0.62079
0.605724
0.596516
0.587648
0.576877
0.564495
0.551014
0.536889
0.522488
0.508085
0.493869
0.47997
0.466471
0.453426
0.440866
0.428803
0.417222
0.406096
0.395481
0.385598
0.602981
0.588527
0.580236
0.572474
0.562836
0.551521
0.539013
0.525768
0.512162
0.498477
0.484914
0.471609
0.458654
0.446109
0.434012
0.422377
0.411187
0.400414
0.390162
0.380742
0.580543
0.566843
0.559685
0.553294
0.54506
0.53507
0.523772
0.51162
0.499001
0.48621
0.473459
0.460893
0.448616
0.436693
0.425172
0.414072
0.403369
0.393038
0.383236
0.374392
0.553667
0.540853
0.535031
0.530257
0.523687
0.515266
0.505404
0.494549
0.483102
0.471371
0.459582
0.447896
0.436423
0.425241
0.414405
0.403941
0.393821
0.384017
0.374749
0.366588
0.522576
0.510772
0.506469
0.503543
0.498875
0.492255
0.484039
0.474674
0.464573
0.45406
0.443379
0.432702
0.422155
0.411825
0.40178
0.39205
0.382605
0.373409
0.364754
0.357377
0.48753
0.476847
0.474226
0.473353
0.470808
0.466201
0.459829
0.452133
0.443539
0.434392
0.424952
0.415409
0.4059
0.396528
0.387371
0.378469
0.369785
0.361278
0.353307
0.346808
0.448814
0.439353
0.438555
0.439916
0.439691
0.43729
0.43294
0.427076
0.420139
0.412493
0.404417
0.396119
0.387754
0.379436
0.371258
0.36327
0.355431
0.347689
0.340471
0.334935
0.406748
0.398594
0.399736
0.403484
0.405748
0.405723
0.403555
0.39967
0.394522
0.388497
0.381895
0.374945
0.367816
0.360639
0.353523
0.346529
0.339613
0.332707
0.326305
0.321811
0.361678
0.354902
0.358071
0.364328
0.369226
0.37172
0.371873
0.370094
0.36685
0.36255
0.357518
0.352001
0.346189
0.340229
0.334246
0.328317
0.322395
0.316393
0.310863
0.307484
0.313974
0.308634
0.313892
0.322746
0.330387
0.33552
0.338106
0.338537
0.337293
0.334805
0.33142
0.327408
0.322977
0.318295
0.313503
0.308698
0.303832
0.298795
0.294186
0.291993
0.264033
0.260169
0.267546
0.279052
0.289514
0.297373
0.302481
0.305204
0.306033
0.305422
0.303742
0.301287
0.298284
0.294921
0.291361
0.28772
0.283957
0.279933
0.27629
0.27535
0.212272
0.209912
0.219406
0.23358
0.246906
0.257547
0.265236
0.270308
0.273262
0.274572
0.274634
0.273764
0.272213
0.270189
0.267877
0.265419
0.262782
0.259803
0.257152
0.257534
0.159128
0.158281
0.169863
0.186682
0.202879
0.216326
0.226627
0.234079
0.239183
0.242434
0.24425
0.24497
0.244867
0.24417
0.243087
0.241788
0.240256
0.238305
0.236647
0.238431
0.105054
0.105716
0.119321
0.138727
0.157762
0.174007
0.186922
0.196758
0.204014
0.209202
0.21276
0.21505
0.216362
0.216947
0.217041
0.216843
0.216346
0.215339
0.214597
0.217846
0.0505142
0.052667
0.0682017
0.0900967
0.111902
0.130902
0.146405
0.158604
0.167992
0.175092
0.18036
0.184174
0.186841
0.188623
0.189777
0.190529
0.190855
0.190472
0.19033
0.195158
-0.00401641
-0.000406643
0.016936
0.0411849
0.065655
0.0873365
0.105373
0.119892
0.131371
0.140338
0.147262
0.152532
0.156462
0.159317
0.161368
0.162884
0.163845
0.163782
0.163639
0.169648
-0.0580607
-0.0530404
-0.0340392
-0.00760655
0.0193881
0.0436468
0.0641392
0.080916
0.0944324
0.105216
0.113746
0.120418
0.125548
0.129391
0.132201
0.134264
0.135542
0.135026
0.132489
0.136374
-0.111142
-0.10477
-0.0842841
-0.0558715
-0.0265261
0.00017701
0.0230256
0.0419833
0.0574733
0.0700182
0.0800965
0.088103
0.0943401
0.0990234
0.102325
0.104404
0.105158
0.103694
0.0992986
0.0950069
-0.162798
-0.155143
-0.133366
-0.103207
-0.0717153
-0.042727
-0.0176417
0.0034074
0.0208047
0.0350631
0.046663
0.056003
0.0633898
0.0690411
0.0731156
0.0757575
0.0769979
0.0764495
0.0735988
0.0695561
-0.212578
-0.203715
-0.18086
-0.149215
-0.115813
-0.0847246
-0.0575408
-0.0345001
-0.0152628
0.000674018
0.0137975
0.0245222
0.0331798
0.0400242
0.0452513
0.049036
0.0515304
0.0527645
0.0525847
0.0507121
-0.26005
-0.250067
-0.226359
-0.193515
-0.158465
-0.125488
-0.0963654
-0.0714483
-0.0504489
-0.0328776
-0.0182398
-0.00610295
0.00389082
0.0120301
0.0185462
0.0236351
0.0274917
0.030335
0.0322575
0.0325928
-0.304816
-0.293805
-0.269482
-0.235744
-0.199338
-0.164712
-0.133834
-0.107177
-0.0845142
-0.0653765
-0.0492663
-0.0357378
-0.0244136
-0.0149814
-0.00718544
-0.000812961
0.00434873
0.00857752
0.0120361
0.0139915
-0.346516
-0.334574
-0.309876
-0.275568
-0.238121
-0.202113
-0.16969
-0.141455
-0.117253
-0.0966428
-0.0791321
-0.0642672
-0.0516577
-0.0409757
-0.0319489
-0.0243511
-0.0179561
-0.0124686
-0.00775182
-0.00466004
-0.384833
-0.37206
-0.347228
-0.312683
-0.274536
-0.237439
-0.203707
-0.17408
-0.148485
-0.126521
-0.107706
-0.0915854
-0.0777618
-0.0658974
-0.0557107
-0.0469679
-0.0394346
-0.0328043
-0.0269643
-0.0229117
-0.419504
-0.406
-0.381269
-0.346825
-0.308332
-0.270463
-0.235684
-0.204876
-0.178058
-0.154878
-0.134877
-0.117604
-0.10266
-0.0897035
-0.0784473
-0.0686552
-0.0600908
-0.052438
-0.0455804
-0.0405987
-0.450319
-0.436186
-0.411777
-0.377769
-0.339296
-0.300992
-0.265451
-0.233693
-0.205842
-0.181606
-0.160555
-0.142251
-0.126299
-0.112356
-0.100134
-0.0893954
-0.0799066
-0.0713483
-0.0635856
-0.0577166
-0.477133
-0.462468
-0.438584
-0.405333
-0.36725
-0.328863
-0.292863
-0.260408
-0.231731
-0.206614
-0.184666
-0.165467
-0.14863
-0.133817
-0.120741
-0.109164
-0.0988573
-0.0895061
-0.0809552
-0.0742803
-0.49986
-0.484761
-0.461582
-0.429389
-0.39206
-0.353948
-0.317806
-0.284921
-0.255643
-0.229834
-0.207151
-0.187202
-0.169613
-0.154054
-0.140239
-0.127934
-0.116918
-0.106882
-0.0976549
-0.0902682
-0.518484
-0.503045
-0.480721
-0.449856
-0.413629
-0.376152
-0.340195
-0.307159
-0.277514
-0.251212
-0.227966
-0.20742
-0.189217
-0.173037
-0.158602
-0.145682
-0.134062
-0.123446
-0.113644
-0.105632
-0.533054
-0.517365
-0.496015
-0.466709
-0.431908
-0.395415
-0.359972
-0.327072
-0.297304
-0.270715
-0.247085
-0.226096
-0.207419
-0.190747
-0.175811
-0.162385
-0.150264
-0.139165
-0.128884
-0.120326
-0.543682
-0.527833
-0.507542
-0.479979
-0.446893
-0.411716
-0.37711
-0.344636
-0.314992
-0.288326
-0.264492
-0.24322
-0.224209
-0.207173
-0.191852
-0.178028
-0.165505
-0.154018
-0.143346
-0.134317
-0.550542
-0.534623
-0.51544
-0.489754
-0.458624
-0.425068
-0.391612
-0.359848
-0.330577
-0.304047
-0.280191
-0.258793
-0.239589
-0.222313
-0.206721
-0.192605
-0.179777
-0.16799
-0.157014
-0.14759
-0.553868
-0.537966
-0.519909
-0.496178
-0.467194
-0.435525
-0.403507
-0.372732
-0.344079
-0.317896
-0.294199
-0.272832
-0.253571
-0.236178
-0.220427
-0.20612
-0.19308
-0.181078
-0.169881
-0.160138
-0.553938
-0.538145
-0.521203
-0.499449
-0.47274
-0.443176
-0.412859
-0.383333
-0.355536
-0.329907
-0.306546
-0.285363
-0.26618
-0.24879
-0.232987
-0.218586
-0.205423
-0.193289
-0.181949
-0.171964
-0.551077
-0.535484
-0.519622
-0.499815
-0.475446
-0.448151
-0.419757
-0.391718
-0.365004
-0.34013
-0.317278
-0.296428
-0.277452
-0.260179
-0.244426
-0.230026
-0.216825
-0.204637
-0.193229
-0.183074
-0.54564
-0.530342
-0.515509
-0.497569
-0.47554
-0.450617
-0.424322
-0.397979
-0.372555
-0.348625
-0.32645
-0.306077
-0.287433
-0.270386
-0.254782
-0.24047
-0.227313
-0.215144
-0.203739
-0.193485
-0.538004
-0.523095
-0.509231
-0.493041
-0.473291
-0.450776
-0.426701
-0.402226
-0.378277
-0.355469
-0.334128
-0.31437
-0.296177
-0.27946
-0.264097
-0.249957
-0.23692
-0.224838
-0.213503
-0.203219
-0.528555
-0.514133
-0.501172
-0.486587
-0.468999
-0.448864
-0.427073
-0.404591
-0.382274
-0.360746
-0.340387
-0.321372
-0.303743
-0.287455
-0.272419
-0.258531
-0.245684
-0.233755
-0.222551
-0.212303
-0.517683
-0.50384
-0.491722
-0.478579
-0.462993
-0.445146
-0.425639
-0.405227
-0.384662
-0.364551
-0.345305
-0.327156
-0.310196
-0.294429
-0.279803
-0.266238
-0.253649
-0.241933
-0.230918
-0.220768
-0.505762
-0.492586
-0.481259
-0.469392
-0.455613
-0.439911
-0.422628
-0.404307
-0.385573
-0.366987
-0.34897
-0.331795
-0.315603
-0.300444
-0.286302
-0.273129
-0.260859
-0.249411
-0.238637
-0.228646
-0.493147
-0.480719
-0.470138
-0.459388
-0.447208
-0.433462
-0.418285
-0.402021
-0.38515
-0.368163
-0.35147
-0.335365
-0.32003
-0.305557
-0.291971
-0.279251
-0.267357
-0.256229
-0.245744
-0.235966
-0.480161
-0.468551
-0.458687
-0.44891
-0.438116
-0.426109
-0.412873
-0.398576
-0.383552
-0.3682
-0.352896
-0.337939
-0.32354
-0.309826
-0.296859
-0.28465
-0.273183
-0.262421
-0.252269
-0.242754
-0.467094
-0.456358
-0.447189
-0.438263
-0.428654
-0.418157
-0.406661
-0.394191
-0.380946
-0.367223
-0.353343
-0.339591
-0.326192
-0.313301
-0.301011
-0.289365
-0.278372
-0.268018
-0.258234
-0.249027
-0.454193
-0.444372
-0.435888
-0.427714
-0.419109
-0.409896
-0.399916
-0.389095
-0.377514
-0.365368
-0.35291
-0.340393
-0.328041
-0.316024
-0.304462
-0.293425
-0.282948
-0.273039
-0.263656
-0.254794
-0.441664
-0.432782
-0.424978
-0.41748
-0.409726
-0.401588
-0.392895
-0.383517
-0.373444
-0.362779
-0.3517
-0.340418
-0.329137
-0.318032
-0.307239
-0.296851
-0.286926
-0.277493
-0.268537
-0.260048
-0.429666
-0.42173
-0.414605
-0.407732
-0.400706
-0.393456
-0.385831
-0.377677
-0.368926
-0.359606
-0.349825
-0.339741
-0.329528
-0.319354
-0.309358
-0.299651
-0.290308
-0.281379
-0.272871
-0.264773
-0.418319
-0.411321
-0.404872
-0.398589
-0.392197
-0.385681
-0.378925
-0.37178
-0.364148
-0.356005
-0.347401
-0.33844
-0.329262
-0.320013
-0.310828
-0.301823
-0.293086
-0.284682
-0.276639
-0.26894
-0.407698
-0.401618
-0.395844
-0.390126
-0.384301
-0.378397
-0.372339
-0.366002
-0.359283
-0.35213
-0.34455
-0.336604
-0.328392
-0.320033
-0.31165
-0.303355
-0.29524
-0.287381
-0.279818
-0.27252
-0.397847
-0.392654
-0.387546
-0.382379
-0.377072
-0.371688
-0.366189
-0.360483
-0.354482
-0.348126
-0.341398
-0.334326
-0.326977
-0.319444
-0.311828
-0.304232
-0.296746
-0.289444
-0.28238
-0.275485
-0.388776
-0.384435
-0.379979
-0.375348
-0.370524
-0.365591
-0.360543
-0.355324
-0.349867
-0.344121
-0.338064
-0.331705
-0.325088
-0.318282
-0.31137
-0.30444
-0.297575
-0.290841
-0.284302
-0.277834
-0.380478
-0.376947
-0.373122
-0.36901
-0.36464
-0.360107
-0.355429
-0.35058
-0.345521
-0.34022
-0.334659
-0.328844
-0.322806
-0.316599
-0.310294
-0.303968
-0.297695
-0.291535
-0.285558
-0.27958
-0.372933
-0.370168
-0.366944
-0.363326
-0.359382
-0.355207
-0.350836
-0.34627
-0.341496
-0.336499
-0.331277
-0.32584
-0.320218
-0.31446
-0.308634
-0.302813
-0.297075
-0.29148
-0.28611
-0.280774
-0.36612
-0.364074
-0.361412
-0.358254
-0.354702
-0.350847
-0.346735
-0.342386
-0.337808
-0.333006
-0.327992
-0.322785
-0.317419
-0.311948
-0.306441
-0.300985
-0.295675
-0.290596
-0.285859
-0.281402
-0.360028
-0.358649
-0.356502
-0.353762
-0.35056
-0.346985
-0.343089
-0.338906
-0.334459
-0.329771
-0.324862
-0.319763
-0.314511
-0.309162
-0.303794
-0.298513
-0.293452
-0.288759
-0.284619
-0.281418
-0.35466
-0.353891
-0.352204
-0.34983
-0.346932
-0.343594
-0.339873
-0.335813
-0.33145
-0.326816
-0.321941
-0.316857
-0.311601
-0.306226
-0.300808
-0.295464
-0.290369
-0.285763
-0.281994
-0.280367
-0.350036
-0.34981
-0.348523
-0.346462
-0.343818
-0.340672
-0.337087
-0.333114
-0.328798
-0.324178
-0.319288
-0.314158
-0.308817
-0.303299
-0.297656
-0.291986
-0.286462
-0.281375
-0.277344
-0.277453
-0.346191
-0.346434
-0.345485
-0.343682
-0.341243
-0.338249
-0.334763
-0.330846
-0.326548
-0.321916
-0.316983
-0.311775
-0.306306
-0.300579
-0.294594
-0.288374
-0.281995
-0.27559
-0.269819
-0.270013
-0.343168
-0.343795
-0.343121
-0.341527
-0.339252
-0.336375
-0.332961
-0.329077
-0.32478
-0.320119
-0.315131
-0.309837
-0.304234
-0.298285
-0.291915
-0.284993
-0.277317
-0.268361
-0.25666
-0.243428
-0.341004
-0.341927
-0.341471
-0.340044
-0.337901
-0.335116
-0.331759
-0.327897
-0.323593
-0.318902
-0.313865
-0.308504
-0.302811
-0.296742
-0.290198
-0.28302
-0.27499
-0.265644
-0.253791
-0.241462
-0.339728
-0.340856
-0.340563
-0.339271
-0.337239
-0.334537
-0.331233
-0.327398
-0.323097
-0.318389
-0.313322
-0.307925
-0.302203
-0.296125
-0.28962
-0.282578
-0.274876
-0.266179
-0.255652
-0.246006
-0.339344
-0.340592
-0.340415
-0.339234
-0.337304
-0.334687
-0.331448
-0.327657
-0.323382
-0.318686
-0.313622
-0.308228
-0.302523
-0.296502
-0.290126
-0.283348
-0.276119
-0.268187
-0.258979
-0.251604
-0.339835
-0.341127
-0.341028
-0.339943
-0.338111
-0.33559
-0.332437
-0.328722
-0.324512
-0.319871
-0.314857
-0.309518
-0.303889
-0.297985
-0.291806
-0.28536
-0.278668
-0.271563
-0.263688
-0.25819
-0.341158
-0.342432
-0.342383
-0.341383
-0.339654
-0.337244
-0.334206
-0.330605
-0.326507
-0.321977
-0.317077
-0.311863
-0.306383
-0.300674
-0.29477
-0.288724
-0.282617
-0.276353
-0.269706
-0.265644
-0.34325
-0.344467
-0.344446
-0.343525
-0.341904
-0.339623
-0.336729
-0.333283
-0.329348
-0.32499
-0.320273
-0.31526
-0.31001
-0.304578
-0.299023
-0.293431
-0.287917
-0.282426
-0.276783
-0.273715
-0.346038
-0.347177
-0.347175
-0.34633
-0.344823
-0.342687
-0.339964
-0.336709
-0.332985
-0.328855
-0.324386
-0.319645
-0.314698
-0.309612
-0.304461
-0.299347
-0.294398
-0.28957
-0.284688
-0.282262
-0.349443
-0.350507
-0.35052
-0.349753
-0.348366
-0.346388
-0.343856
-0.340824
-0.337349
-0.333495
-0.329327
-0.324913
-0.320323
-0.31563
-0.310911
-0.306274
-0.301842
-0.297562
-0.293238
-0.291221
-0.353394
-0.354401
-0.354438
-0.353751
-0.352489
-0.350679
-0.348356
-0.345568
-0.342372
-0.338827
-0.334996
-0.330947
-0.326748
-0.322471
-0.318192
-0.314011
-0.310042
-0.306211
-0.30231
-0.300572
-0.357828
-0.358812
-0.358887
-0.358286
-0.357155
-0.355521
-0.353417
-0.350891
-0.347993
-0.344779
-0.341309
-0.337646
-0.333853
-0.329998
-0.326149
-0.3224
-0.318844
-0.315395
-0.311839
-0.31032
-0.362698
-0.363703
-0.363835