/*--------------------------------*- C++ -*----------------------------------*\
  =========                 |
  \\      /  F ield         | OpenFOAM: The Open Source CFD Toolbox
   \\    /   O peration     | Website:  https://openfoam.org
    \\  /    A nd           | Version:  6.0
     \\/     M anipulation  |
\*---------------------------------------------------------------------------*/
FoamFile
{
    version     2.0;
    format      ascii;
    class       volScalarField;
    location    "70";
    object      p;
}
// * * * * * * * * * * * * * * * * * * * * * * * * * * * * * * * * * * * * * //

dimensions      [0 2 -2 0 0 0 0];

internalField   nonuniform List<scalar> 
4000
(
-0.667543
-0.65208
-0.636747
-0.617849
-0.594363
-0.567521
-0.538937
-0.510058
-0.481962
-0.455318
-0.43045
-0.407445
-0.386253
-0.36675
-0.348786
-0.332208
-0.316874
-0.302616
-0.289205
-0.276978
-0.672847
-0.657005
-0.640547
-0.619654
-0.593672
-0.564292
-0.533455
-0.502749
-0.473265
-0.445607
-0.42002
-0.396515
-0.374983
-0.355258
-0.337157
-0.320507
-0.305152
-0.290901
-0.277512
-0.265415
-0.675639
-0.659506
-0.641863
-0.618888
-0.590401
-0.55858
-0.525665
-0.493346
-0.462686
-0.434209
-0.408072
-0.384212
-0.362464
-0.342622
-0.324478
-0.30784
-0.292538
-0.278361
-0.265058
-0.253157
-0.675559
-0.659221
-0.640352
-0.615252
-0.584314
-0.550212
-0.515442
-0.481751
-0.450145
-0.421054
-0.394542
-0.370476
-0.348639
-0.328792
-0.310703
-0.294165
-0.278997
-0.264965
-0.251816
-0.24018
-0.672274
-0.655818
-0.635703
-0.608487
-0.575218
-0.539047
-0.502683
-0.467885
-0.435575
-0.40608
-0.379372
-0.355253
-0.333459
-0.313723
-0.295792
-0.279448
-0.264498
-0.250687
-0.237764
-0.226465
-0.665488
-0.648999
-0.627646
-0.59838
-0.562957
-0.524982
-0.487316
-0.451692
-0.418929
-0.389243
-0.362521
-0.338504
-0.31689
-0.297384
-0.279719
-0.263666
-0.249022
-0.235513
-0.222895
-0.212005
-0.654949
-0.638513
-0.615962
-0.584766
-0.547426
-0.507949
-0.469297
-0.433138
-0.400174
-0.370513
-0.34396
-0.320204
-0.298907
-0.279755
-0.262467
-0.246807
-0.232561
-0.219437
-0.207205
-0.196801
-0.640458
-0.624162
-0.600486
-0.567534
-0.528561
-0.487915
-0.448607
-0.412209
-0.379298
-0.349876
-0.323676
-0.300338
-0.2795
-0.260827
-0.24403
-0.228867
-0.215115
-0.202466
-0.190706
-0.180862
-0.62187
-0.605805
-0.581114
-0.54663
-0.506344
-0.464886
-0.425257
-0.388915
-0.356307
-0.327335
-0.301668
-0.278908
-0.258668
-0.240602
-0.224413
-0.209855
-0.196696
-0.184613
-0.173414
-0.164205
-0.599104
-0.583364
-0.557802
-0.522049
-0.480802
-0.438898
-0.399286
-0.363289
-0.331226
-0.302911
-0.277954
-0.255926
-0.236423
-0.219092
-0.203629
-0.189786
-0.177323
-0.165905
-0.155361
-0.146865
-0.572142
-0.556825
-0.530565
-0.493843
-0.452005
-0.410025
-0.37076
-0.335386
-0.304102
-0.276639
-0.252562
-0.231417
-0.21279
-0.196319
-0.181701
-0.168684
-0.157023
-0.146374
-0.136587
-0.128892
-0.541032
-0.526237
-0.499481
-0.462114
-0.420064
-0.378373
-0.339772
-0.305287
-0.275001
-0.248576
-0.225539
-0.205421
-0.1878
-0.172312
-0.158654
-0.146575
-0.135824
-0.126054
-0.117138
-0.110337
-0.505882
-0.491715
-0.464684
-0.427012
-0.38513
-0.344082
-0.306445
-0.273094
-0.244009
-0.218792
-0.196945
-0.177986
-0.161493
-0.147103
-0.134516
-0.123484
-0.113752
-0.104975
-0.0970511
-0.0912282
-0.466865
-0.453432
-0.426364
-0.388736
-0.347393
-0.307322
-0.270927
-0.238937
-0.211236
-0.18738
-0.166853
-0.149171
-0.133915
-0.120728
-0.109316
-0.0994331
-0.0908285
-0.0831665
-0.0763516
-0.0715554
-0.424211
-0.411618
-0.384762
-0.347524
-0.307077
-0.268295
-0.233397
-0.202969
-0.176813
-0.154451
-0.135355
-0.119047
-0.105117
-0.0932195
-0.0830705
-0.074433
-0.0670638
-0.0606402
-0.0550466
-0.0513125
-0.378206
-0.366557
-0.340163
-0.303656
-0.264441
-0.227235
-0.19406
-0.16537
-0.140898
-0.120137
-0.102562
-0.0877018
-0.0751625
-0.0646169
-0.0557978
-0.0484829
-0.0424431
-0.0373754
-0.0331419
-0.0306415
-0.329183
-0.318579
-0.292896
-0.257444
-0.219773
-0.1844
-0.153148
-0.126347
-0.103671
-0.0845975
-0.0686047
-0.0552399
-0.0441293
-0.0349721
-0.0275276
-0.0215909
-0.0169519
-0.0133709
-0.0107821
-0.00999914
-0.277517
-0.268054
-0.243324
-0.209233
-0.17339
-0.140078
-0.110922
-0.0861353
-0.0653439
-0.0480141
-0.0336351
-0.0217749
-0.0120887
-0.00431357
0.00175287
0.00629225
0.00946755
0.0113206
0.011668
0.0101061
-0.223618
-0.215387
-0.191838
-0.159391
-0.125632
-0.0945828
-0.0676693
-0.0450009
-0.0261602
-0.0106063
0.00216246
0.0125601
0.0209037
0.0274165
0.03226
0.0355812
0.0374124
0.0373524
0.0348397
0.0308915
-0.167929
-0.161007
-0.138853
-0.108307
-0.0768579
-0.0482456
-0.0237025
-0.00324131
0.0135921
0.027346
0.0385192
0.047521
0.0546637
0.0601682
0.0642102
0.066956
0.0682924
0.0672679
0.0630908
0.0587867
-0.110909
-0.105365
-0.0848005
-0.0563829
-0.0274387
-0.00141218
0.0206511
0.0388251
0.0535934
0.0655084
0.075067
0.0826808
0.0886763
0.0933166
0.0968696
0.0996392
0.101581
0.101584
0.0993579
0.104051
-0.0530243
-0.0489193
-0.0301158
-0.0040243
0.0222501
0.0455679
0.0650609
0.0808784
0.0935249
0.10355
0.111442
0.117602
0.122356
0.125978
0.128753
0.130965
0.132588
0.133083
0.133439
0.140481
0.00524353
0.00786374
0.0247593
0.0483611
0.0718345
0.0923485
0.109202
0.122608
0.133085
0.141176
0.147354
0.152009
0.15546
0.157979
0.159835
0.161265
0.162237
0.162413
0.162792
0.168596
0.063416
0.0645189
0.0793875
0.100372
0.120948
0.138592
0.152759
0.163716
0.171988
0.178103
0.182515
0.185597
0.187651
0.188936
0.189699
0.190151
0.190277
0.189818
0.189589
0.193735
0.12102
0.120587
0.133339
0.151615
0.169233
0.183974
0.195435
0.203929
0.209979
0.214095
0.216711
0.218175
0.218771
0.218733
0.218283
0.217598
0.216652
0.215217
0.214042
0.216659
0.177593
0.175621
0.186198
0.201713
0.21635
0.228185
0.236948
0.242988
0.246822
0.248939
0.249748
0.249574
0.248678
0.247273
0.245555
0.243672
0.241581
0.23908
0.236881
0.238036
0.232686
0.229188
0.237562
0.250301
0.26197
0.270931
0.277033
0.280654
0.282302
0.282443
0.28146
0.279654
0.277263
0.274478
0.271471
0.268366
0.265108
0.261526
0.258302
0.258081
0.285868
0.280871
0.287047
0.297033
0.305784
0.311934
0.31544
0.316704
0.31622
0.314432
0.311695
0.308289
0.304428
0.300284
0.296007
0.291697
0.287297
0.282666
0.278446
0.27692
0.336729
0.330277
0.334288
0.341583
0.347499
0.350931
0.351934
0.350927
0.348389
0.34474
0.340311
0.335358
0.330075
0.324615
0.319109
0.313639
0.308146
0.302517
0.297347
0.294587
0.384882
0.377033
0.378945
0.383641
0.386841
0.387678
0.386296
0.383127
0.378634
0.373213
0.367172
0.360746
0.354108
0.347395
0.34072
0.33415
0.327628
0.321064
0.314996
0.311073
0.429964
0.420792
0.420697
0.422923
0.423552
0.421945
0.41832
0.413119
0.406789
0.399704
0.392149
0.384338
0.376428
0.368539
0.360769
0.353171
0.345695
0.338266
0.331357
0.326345
0.471641
0.461233
0.459251
0.459163
0.457398
0.453519
0.447815
0.440731
0.4327
0.424074
0.415117
0.406025
0.396938
0.387963
0.379181
0.370638
0.362286
0.354066
0.34638
0.340359
0.509606
0.498063
0.494337
0.49212
0.488161
0.482207
0.474606
0.465805
0.456224
0.446194
0.43596
0.425701
0.415543
0.405579
0.39588
0.386479
0.377337
0.368404
0.360009
0.353065
0.543583
0.531018
0.525714
0.521576
0.515647
0.507833
0.498533
0.488198
0.47723
0.465945
0.454569
0.443267
0.432154
0.421308
0.41079
0.400626
0.390782
0.381216
0.372187
0.364413
0.573328
0.559866
0.553169
0.547341
0.539683
0.530241
0.519456
0.507779
0.495601
0.483219
0.470847
0.458635
0.446687
0.435073
0.42384
0.413012
0.40256
0.392445
0.382859
0.374354
0.598631
0.584404
0.576516
0.569247
0.560118
0.549295
0.53725
0.524437
0.511233
0.497922
0.484706
0.471724
0.45907
0.446804
0.434969
0.423579
0.412613
0.402035
0.391975
0.382847
0.619314
0.604464
0.595602
0.587156
0.576829
0.564881
0.551813
0.538076
0.524039
0.509974
0.496073
0.482466
0.469238
0.456444
0.444119
0.432274
0.420892
0.409938
0.399492
0.389852
0.635235
0.619912
0.610303
0.600956
0.589714
0.576909
0.563061
0.548621
0.533949
0.519311
0.504888
0.490804
0.47714
0.463944
0.451246
0.439055
0.427356
0.416116
0.405374
0.395342
0.646291
0.630647
0.620527
0.610564
0.598699
0.58531
0.570932
0.556014
0.540911
0.525883
0.511105
0.496698
0.482737
0.469268
0.456315
0.443888
0.431974
0.42054
0.409595
0.399292
0.652411
0.636604
0.626214
0.615927
0.603734
0.59004
0.575385
0.560218
0.54489
0.529658
0.514696
0.500119
0.486003
0.472391
0.459305
0.446753
0.434726
0.42319
0.412138
0.401688
0.653565
0.637752
0.627337
0.617019
0.604798
0.591079
0.576402
0.561215
0.54587
0.530622
0.515645
0.501055
0.486926
0.473301
0.460203
0.44764
0.435602
0.424056
0.412994
0.402523
0.649759
0.634098
0.623902
0.613846
0.601894
0.58843
0.573985
0.559009
0.543854
0.528778
0.513956
0.499508
0.485508
0.472002
0.459013
0.44655
0.434603
0.423141
0.412164
0.401799
0.641035
0.625683
0.615946
0.606442
0.595055
0.582121
0.568162
0.553623
0.538864
0.524145
0.509648
0.495495
0.481765
0.468507
0.455747
0.443496
0.431742
0.420455
0.409659
0.399523
0.627474
0.612584
0.603539
0.594871
0.584336
0.572206
0.558979
0.545102
0.53094
0.516761
0.502755
0.489049
0.475728
0.462845
0.450432
0.438503
0.427042
0.41602
0.405499
0.395714
0.609193
0.594911
0.586785
0.579224
0.569823
0.55876
0.546507
0.53351
0.520141
0.506681
0.493326
0.480215
0.467438
0.455056
0.443106
0.431606
0.420536
0.409868
0.399711
0.390395
0.586345
0.572812
0.565817
0.559624
0.551624
0.541882
0.530835
0.518928
0.506544
0.493974
0.481428
0.469054
0.456953
0.445192
0.433818
0.422851
0.412268
0.402042
0.392335
0.383598
0.559117
0.546465
0.540799
0.536218
0.529873
0.521694
0.512075
0.501459
0.490241
0.478726
0.467139
0.45564
0.444339
0.433316
0.422625
0.412292
0.402291
0.392589
0.383415
0.375364
0.527732
0.516082
0.511926
0.509181
0.504728
0.498339
0.490357
0.481222
0.47134
0.461037
0.45055
0.440055
0.429675
0.4195
0.409595
0.399994
0.390664
0.381569
0.373003
0.365738
0.492443
0.481907
0.479421
0.478715
0.476369
0.47198
0.465829
0.45835
0.449967
0.441019
0.431766
0.422396
0.413048
0.403824
0.394802
0.386024
0.377452
0.369042
0.361157
0.354768
0.453538
0.444214
0.443536
0.445045
0.445001
0.442799
0.438656
0.432996
0.426256
0.418797
0.410898
0.402765
0.394552
0.386375
0.378326
0.370457
0.362725
0.355074
0.347937
0.342509
0.411331
0.403304
0.404547
0.408421
0.410846
0.411
0.40902
0.405323
0.400357
0.394506
0.388069
0.381272
0.374286
0.367242
0.360247
0.353365
0.34655
0.33973
0.333402
0.329013
0.366166
0.359507
0.362758
0.369116
0.374148
0.376799
0.377119
0.375508
0.37243
0.36829
0.363408
0.358033
0.352353
0.346515
0.340644
0.33482
0.328992
0.323069
0.317606
0.314328
0.318414
0.313178
0.318496
0.327423
0.335171
0.340434
0.343164
0.343743
0.342646
0.340299
0.33705
0.333166
0.328855
0.324283
0.319594
0.314884
0.310104
0.305139
0.300591
0.298491
0.268467
0.264697
0.272109
0.283656
0.294194
0.302154
0.30738
0.310228
0.311183
0.310696
0.309135
0.306792
0.303895
0.300631
0.297162
0.293606
0.28992
0.285961
0.282369
0.281516
0.216743
0.214463
0.223967
0.238148
0.251516
0.262227
0.270006
0.275177
0.278235
0.279648
0.27981
0.279036
0.277576
0.275637
0.273405
0.271021
0.268452
0.265528
0.26292
0.263379
0.163675
0.162896
0.174458
0.19125
0.207451
0.220935
0.231295
0.238819
0.244002
0.247334
0.249231
0.250029
0.250001
0.249374
0.248358
0.247121
0.245647
0.243742
0.242116
0.243968
0.109715
0.110433
0.123989
0.143329
0.16233
0.178574
0.191515
0.201394
0.208703
0.213948
0.217566
0.219915
0.221285
0.221925
0.222071
0.221921
0.221471
0.2205
0.219781
0.223087
0.0553263
0.0575205
0.0729767
0.0947657
0.116494
0.135455
0.150949
0.16316
0.172574
0.179706
0.185011
0.188864
0.19157
0.19339
0.194582
0.195369
0.19573
0.195372
0.195242
0.200116
0.000979651
0.00461765
0.0218509
0.0459521
0.0703017
0.0919032
0.109894
0.124392
0.135867
0.14484
0.151777
0.157065
0.161015
0.16389
0.165961
0.167497
0.168479
0.16843
0.168287
0.174331
-0.0528495
-0.0478141
-0.0289532
-0.00271143
0.0241172
0.0482531
0.0686613
0.085383
0.0988644
0.109627
0.118145
0.124812
0.129942
0.133786
0.1366
0.138667
0.139953
0.139443
0.136899
0.14079
-0.105687
-0.099313
-0.0789986
-0.0508205
-0.0216882
0.0048475
0.0275717
0.0464383
0.0618616
0.0743567
0.0843977
0.0923759
0.098591
0.103257
0.106543
0.108607
0.109347
0.107874
0.10347
0.0991129
-0.157076
-0.14943
-0.127855
-0.0979741
-0.0667439
-0.0379692
-0.01305
0.007871
0.0251685
0.0393478
0.0508839
0.0601715
0.0675148
0.0731291
0.0771709
0.0797816
0.0809914
0.0804192
0.0775589
0.0734906
-0.206565
-0.197725
-0.175101
-0.143778
-0.110685
-0.0798582
-0.0528834
-0.030009
-0.0109054
0.00492203
0.0179547
0.0286027
0.037195
0.0439829
0.0491606
0.0529007
0.0553538
0.0565532
0.0563532
0.0544669
-0.253731
-0.243781
-0.220333
-0.187853
-0.153162
-0.120494
-0.0916242
-0.0669125
-0.0460816
-0.0286505
-0.0141312
-0.00209567
0.00781054
0.0158736
0.0223227
0.0273521
0.0311551
0.0339512
0.0358368
0.0361379
-0.298179
-0.287211
-0.263172
-0.22984
-0.193841
-0.159573
-0.128992
-0.102581
-0.0801224
-0.0611565
-0.0451929
-0.031791
-0.020577
-0.0112416
-0.00353099
0.00276547
0.00785867
0.0120268
0.0154351
0.0173367
-0.339553
-0.327665
-0.303273
-0.26941
-0.232418
-0.196816
-0.164735
-0.136786
-0.112824
-0.0924178
-0.0750824
-0.0603697
-0.0478937
-0.0373292
-0.0284066
-0.0209018
-0.0145907
-0.00917748
-0.00452145
-0.0014928
-0.377545
-0.364834
-0.340328
-0.306263
-0.268615
-0.231971
-0.198628
-0.169328
-0.144009
-0.122281
-0.10367
-0.087728
-0.0740613
-0.0623356
-0.0522721
-0.0436395
-0.0362057
-0.0296639
-0.0238963
-0.0199131
-0.411894
-0.398461
-0.37407
-0.340138
-0.302187
-0.264818
-0.230472
-0.200032
-0.173526
-0.150615
-0.130847
-0.113779
-0.0990162
-0.0862197
-0.0751063
-0.0654422
-0.0569935
-0.0494447
-0.0426737
-0.0377714
-0.442399
-0.428344
-0.404287
-0.370815
-0.332923
-0.295164
-0.2601
-0.228751
-0.201249
-0.177314
-0.156526
-0.138454
-0.122706
-0.108945
-0.0968863
-0.0862945
-0.0769386
-0.0685008
-0.0608409
-0.055065
-0.46892
-0.454341
-0.430816
-0.398121
-0.360653
-0.322851
-0.287371
-0.255364
-0.227074
-0.202291
-0.180634
-0.161693
-0.145085
-0.130477
-0.117584
-0.106173
-0.0960176
-0.086804
-0.0783729
-0.0718065
-0.49138
-0.476373
-0.453554
-0.42193
-0.385244
-0.347755
-0.312173
-0.279775
-0.250919
-0.225476
-0.203114
-0.18345
-0.166115
-0.150782
-0.137172
-0.125053
-0.114206
-0.104326
-0.095235
-0.0879724
-0.509768
-0.494427
-0.47246
-0.442168
-0.406606
-0.369784
-0.334424
-0.301912
-0.272724
-0.24682
-0.223925
-0.203689
-0.185764
-0.169834
-0.155625
-0.14291
-0.131477
-0.121034
-0.111387
-0.103515
-0.524139
-0.508555
-0.487554
-0.458818
-0.424694
-0.388883
-0.35407
-0.321729
-0.292451
-0.266291
-0.24304
-0.222388
-0.204013
-0.187613
-0.172924
-0.159723
-0.147808
-0.1369
-0.12679
-0.118388
-0.53461
-0.518874
-0.498918
-0.471915
-0.439509
-0.405033
-0.371086
-0.339203
-0.310081
-0.283874
-0.260447
-0.239537
-0.220852
-0.20411
-0.189057
-0.175478
-0.16318
-0.1519
-0.141417
-0.132561
-0.541362
-0.525562
-0.506699
-0.481553
-0.451098
-0.418254
-0.385478
-0.354334
-0.325614
-0.299572
-0.276149
-0.255139
-0.236283
-0.219324
-0.20402
-0.190168
-0.177584
-0.166022
-0.155252
-0.146017
-0.544629
-0.528856
-0.511099
-0.487882
-0.459557
-0.428601
-0.397279
-0.367147
-0.339072
-0.313404
-0.290165
-0.26921
-0.250321
-0.233266
-0.217824
-0.2038
-0.191021
-0.179263
-0.168289
-0.158752
-0.544695
-0.529039
-0.512377
-0.491103
-0.465028
-0.436169
-0.406555
-0.377689
-0.350493
-0.325404
-0.302526
-0.281779
-0.262989
-0.245958
-0.230483
-0.216385
-0.203502
-0.191629
-0.18053
-0.170765
-0.541884
-0.526438
-0.510836
-0.49147
-0.4677
-0.441091
-0.413398
-0.386031
-0.359937
-0.335624
-0.313279
-0.292887
-0.274326
-0.257432
-0.242028
-0.227949
-0.215046
-0.203136
-0.191986
-0.182068
-0.53655
-0.521409
-0.506816
-0.489276
-0.467804
-0.443537
-0.417931
-0.392264
-0.367473
-0.344124
-0.322477
-0.302583
-0.284375
-0.267728
-0.252491
-0.238519
-0.225678
-0.213803
-0.202673
-0.192673
-0.529068
-0.514328
-0.500685
-0.484852
-0.465611
-0.443713
-0.420306
-0.3965
-0.373193
-0.350981
-0.330186
-0.310927
-0.293191
-0.276893
-0.261917
-0.248136
-0.235432
-0.223661
-0.212618
-0.202604
0.0434652
0.0122105
-0.00966856
-0.0197512
-0.0289909
-0.0417005
-0.0559591
-0.0696596
-0.0824912
-0.0949124
-0.107184
-0.119268
-0.131048
-0.142468
-0.153519
-0.164213
-0.174559
-0.184564
-0.194242
-0.203615
-0.00640157
-0.0204239
-0.0313129
-0.0383211
-0.0442174
-0.0510651
-0.0587768
-0.06642
-0.0735096
-0.0801247
-0.0864767
-0.0926508
-0.0986215
-0.104347
-0.109812
-0.115026
-0.119999
-0.12474
-0.129254
-0.133545
-0.0107177
-0.0162769
-0.0197697
-0.0234439
-0.0276028
-0.0319211
-0.0362164
-0.0404304
-0.044533
-0.0485255
-0.0524362
-0.0562911
-0.060097
-0.0638494
-0.0675445
-0.0711842
-0.0747736
-0.078318
-0.0818217
-0.0852893
-0.00949741
-0.0126735
-0.014565
-0.017168
-0.0204816
-0.0238683
-0.0270352
-0.0300344
-0.0329707
-0.0358758
-0.0387351
-0.0415336
-0.0442681
-0.0469407
-0.049553
-0.052106
-0.0546002
-0.057037
-0.0594181
-0.0617458
-0.00755484
-0.0100023
-0.0112655
-0.012866
-0.0150062
-0.0172699
-0.0193849
-0.0213505
-0.0232542
-0.0251431
-0.027016
-0.0288601
-0.0306701
-0.0324489
-0.0342013
-0.0359309
-0.0376402
-0.0393312
-0.0410064
-0.0426683
-0.00541701
-0.00730658
-0.00817551
-0.00918299
-0.0105858
-0.0121333
-0.0136149
-0.0150014
-0.0163444
-0.0176819
-0.0190188
-0.0203467
-0.0216596
-0.0229571
-0.0242409
-0.0255125
-0.0267725
-0.0280211
-0.0292585
-0.0304852
-0.00281313
-0.00420419
-0.00481344
-0.00549914
-0.00647058
-0.0075645
-0.00862921
-0.00963412
-0.0106094
-0.0115811
-0.0125547
-0.0135255
-0.0144891
-0.0154445
-0.0163926
-0.0173342
-0.0182699
-0.0192
-0.0201248
-0.0210446
-0.000191819
-0.00119363
-0.00166456
-0.00219821
-0.00292944
-0.00374727
-0.00455032
-0.00531645
-0.00606375
-0.00680894
-0.00755598
-0.00830212
-0.00904451
-0.00978223
-0.0105156
-0.011245
-0.0119708
-0.0126929
-0.0134115
-0.0141266
0.00215751
0.00146461
0.00108252
0.000629303
4.47121e-05
-0.000590252
-0.00121296
-0.00181217
-0.00239972
-0.00298555
-0.00357176
-0.00415664
-0.00473848
-0.00531676
-0.00589164
-0.00646338
-0.00703212
-0.00759795
-0.00816095
-0.00872123
0.00406302
0.00360735
0.00329535
0.00289805
0.00241406
0.00190804
0.00141608
0.000940093
0.000471038
3.32975e-06
-0.00046363
-0.00092858
-0.0013906
-0.00184952
-0.00230549
-0.00275872
-0.0032093
-0.00365732
-0.00410289
-0.00454608
0.00551516
0.00523254
0.0049852
0.00464456
0.00424549
0.00384241
0.00345525
0.00307992
0.00270874
0.00233854
0.00196965
0.00160309
0.00123932
0.00087827
0.000519711
0.000163462
-0.0001906
-0.000542591
-0.000892637
-0.00124083
0.00658513
0.00642521
0.0062401
0.00596201
0.00564281
0.0053289
0.00503105
0.00474239
0.00445614
0.00417037
0.00388581
0.0036033
0.00332304
0.00304481
0.00276832
0.00249338
0.00221983
0.00194753
0.00167634
0.00140614
0.00739644
0.00733366
0.00721252
0.00700098
0.00675854
0.00652584
0.00630858
0.00609863
0.00588989
0.00568106
0.00547296
0.00526626
0.00506097
0.00485676
0.0046533
0.00445034
0.00424771
0.00404521
0.00384267
0.00363996
0.0080375
0.00806862
0.00801566
0.00787028
0.0076997
0.00754222
0.0074002
0.00726427
0.00712841
0.00699159
0.00685462
0.00671798
0.0065815
0.00644472
0.00630721
0.00616866
0.00602883
0.00588753
0.00574454
0.00559974
0.00856902
0.00872116
0.00876043
0.00869515
0.00860537
0.00853197
0.00847508
0.00842309
0.00836902
0.00831166
0.00825179
0.00818977
0.00812523
0.00805755
0.0079862
0.00791084
0.00783121
0.00774713
0.00765846
0.00756514
0.00889912
0.0091645
0.00933859
0.00941493
0.00945922
0.00950947
0.00956827
0.00962586
0.00967539
0.00971511
0.0097455
0.00976701
0.0097795
0.00978261
0.00977609
0.00975987
0.009734
0.00969863
0.00965396
0.00960028
0.0095696
0.00992201
0.0103351
0.0107113
0.0110261
0.0112934
0.011529
0.0117391
0.0119235
0.012081
0.0122117
0.012317
0.0123984
0.0124572
0.0124946
0.012512
0.0125105
0.0124914
0.0124558
0.012405
0.0125371
0.0131633
0.01382
0.0143723
0.0148142
0.0151765
0.0154808
0.0157353
0.0159424
0.0161041
0.0162234
0.016304
0.0163494
0.0163628
0.0163473
0.0163054
0.0162399
0.016153
0.0160472
0.0159243
0.0242131
0.0279804
0.0293752
0.0288788
0.027961
0.0273012
0.0268858
0.0265294
0.0261348
0.0256991
0.0252473
0.0247956
0.024347
0.0239001
0.0234539
0.0230091
0.022567
0.0221287
0.021695
0.0212666
0.036207
0.0483649
0.0521241
0.0496656
0.0460517
0.0434862
0.0418629
0.0405443
0.0392029
0.037821
0.0364718
0.0351977
0.0340006
0.0328676
0.031789
0.0307605
0.0297802
0.0288461
0.0279559
0.027107
0.122158
0.122593
0.123476
0.1248
0.126561
0.128771
0.131443
0.134593
0.138225
0.142333
0.146882
0.151799
0.15694
0.162034
0.166598
0.169737
0.169746
0.163279
0.143203
0.0938321
0.113022
0.113319
0.113865
0.114678
0.115719
0.117007
0.118469
0.120127
0.121846
0.12364
0.125247
0.126649
0.127335
0.127189
0.125192
0.12095
0.11233
0.0979662
0.0725158
0.0294483
0.102659
0.102783
0.102986
0.103275
0.103618
0.104
0.104349
0.104626
0.104705
0.104503
0.103808
0.102456
0.10009
0.0963905
0.0907721
0.0826413
0.0711328
0.0553647
0.0346164
0.0082322
0.0917076
0.0916764
0.09159
0.0914449
0.0912197
0.0908808
0.0903699
0.089615
0.0885213
0.08697
0.0848216
0.0818886
0.0779799
0.0728241
0.0662177
0.057859
0.0476872
0.0354501
0.0210529
0.0030254
0.0807994
0.0806605
0.0803732
0.0799304
0.0793197
0.0785046
0.0774434
0.0760651
0.0743067
0.0720666
0.0692701
0.0657862
0.0615506
0.0564232
0.0504038
0.043371
0.0353923
0.026191
0.0154834
0.00195836
0.0704323
0.0702353
0.069837
0.0692313
0.0684114
0.0673499
0.0660193
0.0643685
0.0623607
0.0599315
0.0570505
0.0536498
0.0497243
0.0452114
0.040142
0.0344294
0.0280793
0.0208291
0.0124183
0.00192175
0.0609236
0.060706
0.0602684
0.0596061
0.0587166
0.0575829
0.0561902
0.054508
0.0525187
0.0501874
0.0475057
0.0444401
0.0409977
0.0371411
0.0328866
0.0281664
0.0229766
0.0171543
0.0105606
0.00261743
0.0524213
0.0522075
0.0517782
0.0511301
0.0502626
0.049167
0.0478373
0.0462573
0.0444202
0.0423077
0.0399188
0.0372339
0.0342598
0.0309717
0.0273838
0.0234599
0.0192206
0.0145913
0.00952721
0.00368905
0.0449479
0.0447511
0.0443567
0.0437614
0.0429655
0.0419648
0.0407584
0.0393383
0.0377034
0.0358436
0.0337609
0.0314438
0.0289002
0.0261177
0.0231156
0.0198821
0.0164535
0.0128067
0.00896788
0.00481472
0.038447
0.0382729
0.0379244
0.037398
0.036694
0.0358102
0.0347485
0.0335054
0.0320833
0.0304775
0.0286929
0.0267244
0.0245828
0.0222636
0.0197891
0.0171578
0.0144115
0.0115567
0.00867349
0.00580289
0.0328212
0.0326709
0.0323704
0.0319161
0.0313078
0.0305444
0.0296291
0.0285615
0.0273464
0.0259832
0.0244798
0.0228358
0.0210643
0.0191651
0.01716
0.0150511
0.0128806
0.0106715
0.00853414
0.00660108
0.0279596
0.0278318
0.0275766
0.0271903
0.0266729
0.0260239
0.0252474
0.0243449
0.0233229
0.022183
0.020935
0.0195817
0.0181381
0.0166076
0.0150125
0.0133572
0.0116816
0.0100133
0.00846923
0.00721654
0.023756
0.0236471
0.0234308
0.0231034
0.0226654
0.0221173
0.0214646
0.0207104
0.0198623
0.0189229
0.0179018
0.016802
0.0156392
0.0144198
0.0131698
0.0118995
0.0106501
0.00944842
0.00840308
0.00768439
0.0201203
0.0200252
0.0198373
0.0195537
0.0191755
0.0187052
0.0181504
0.017517
0.0168153
0.0160497
0.0152297
0.0143565
0.0134412
0.0124872
0.0115197
0.0105572
0.0096534
0.00884943
0.00825239
0.00801229
0.0169885
0.0169002
0.0167268
0.0164657
0.0161193
0.0156914
0.0151926
0.0146325
0.0140272
0.0133874
0.0127296
0.012058
0.0113822
0.0106936
0.0100009
0.00930618
0.0086671
0.00815379
0.00792714
0.00817617
0.014328
0.0142387
0.0140642
0.0138017
0.013454
0.0130246
0.0125256
0.0119681
0.0113743
0.0107627
0.0101671
0.00960964
0.00912524
0.00871355
0.00837796
0.00806767
0.00778219
0.00753996
0.00757153
0.00820571
0.0121371
0.012041
0.011852
0.0115669
0.0111879
0.0107159
0.0101607
0.0095291
0.00884186
0.00811672
0.00739778
0.00672789
0.00619126
0.00585595
0.00581538
0.00606388
0.00655539
0.00709452
0.00768963
0.00874452
0.010439
0.0103345
0.0101236
0.00980423
0.00937553
0.00883704
0.00818958
0.00743438
0.00657549
0.00562042
0.00458757
0.00351326
0.00247274
0.00160067
0.00112186
0.00134192
0.0025725
0.00490603
0.00794697
0.0108506
0.00927284
0.00916123
0.00892881
0.00857615
0.00809812
0.00749415
0.00675369
0.00587373
0.00483556
0.00363322
0.00223675
0.000641647
-0.0011805
-0.00317746
-0.00524389
-0.00696232
-0.00755062
-0.00547819
0.00106499
0.0133286
0.00868034
0.0085619
0.00831651
0.0079429
0.00743577
0.00679036
0.00599404
0.00503448
0.00388687
0.00252506
0.000900588
-0.00104278
-0.00340218
-0.0062921
-0.00987437
-0.0142445
-0.0192151
-0.0233944
-0.0217937
0.00132065
0.134382
0.134894
0.136045
0.137741
0.140127
0.143103
0.14691
0.151406
0.156966
0.163384
0.171246
0.180243
0.19131
0.203966
0.219796
0.237977
0.261409
0.288533
0.324935
0.367275
0.134225
0.134735
0.135883
0.137574
0.139954
0.142921
0.146717
0.151199
0.156742
0.16314
0.170975
0.179938
0.190962
0.203562
0.219314
0.237391
0.260669
0.287573
0.323643
0.36545
0.134034
0.134543
0.135687
0.137374
0.139745
0.142703
0.146486
0.150951
0.156474
0.162844
0.170645
0.179565
0.190528
0.20305
0.218684
0.236605
0.259633
0.286178
0.321674
0.362542
0.133812
0.134319
0.135459
0.137139
0.139502
0.142448
0.146216
0.150662
0.156159
0.162498
0.170257
0.179122
0.190009
0.202431
0.217909
0.235622
0.258305
0.284354
0.319032
0.35856
0.133557
0.134063
0.135198
0.136871
0.139224
0.142157
0.145908
0.150332
0.155801
0.162102
0.169812
0.178612
0.189406
0.201706
0.21699
0.234445
0.25669
0.282109
0.315728
0.35352
0.133271
0.133775
0.134906
0.136571
0.138913
0.141831
0.145563
0.149962
0.155398
0.161658
0.169311
0.178036
0.188721
0.200877
0.215932
0.233079
0.254794
0.279453
0.311771
0.347445
0.132953
0.133456
0.134581
0.136238
0.138568
0.141471
0.145181
0.149552
0.154953
0.161164
0.168754
0.177394
0.187956
0.199947
0.214739
0.231528
0.252624
0.276399
0.307176
0.340359
0.132604
0.133106
0.134225
0.135874
0.13819
0.141076
0.144763
0.149104
0.154466
0.160624
0.168144
0.176688
0.187114
0.198918
0.213414
0.229798
0.25019
0.272962
0.301959
0.332295
0.132225
0.132725
0.133839
0.135478
0.137781
0.140648
0.14431
0.148619
0.153937
0.160038
0.167482
0.17592
0.186197
0.197794
0.211964
0.227896
0.247503
0.269157
0.296139
0.323291
0.131815
0.132315
0.133422
0.135052
0.13734
0.140188
0.143823
0.148096
0.153369
0.159408
0.166769
0.175092
0.185209
0.196576
0.210395
0.225828
0.244574
0.265002
0.289735
0.313389
0.131376
0.131875
0.132976
0.134597
0.136869
0.139696
0.143303
0.147539
0.152763
0.158735
0.166009
0.174206
0.184152
0.19527
0.208713
0.223601
0.241419
0.260515
0.282773
0.302636
0.130908
0.131407
0.132502
0.134112
0.136368
0.139173
0.14275
0.146947
0.152119
0.15802
0.165201
0.173265
0.18303
0.193878
0.206924
0.221223
0.238052
0.255715
0.275279
0.291085
0.130411
0.130911
0.132
0.1336
0.135838
0.138622
0.142167
0.146322
0.15144
0.157266
0.164349
0.17227
0.181846
0.192405
0.205037
0.218701
0.234492
0.25062
0.267284
0.278789
0.129887
0.130387
0.13147
0.13306
0.135281
0.138042
0.141554
0.145666
0.150727
0.156474
0.163455
0.171226
0.180604
0.190856
0.203059
0.216045
0.230756
0.245247
0.258825
0.265801
0.129335
0.129837
0.130915
0.132495
0.134698
0.137434
0.140912
0.14498
0.149981
0.155645
0.16252
0.170133
0.179306
0.189234
0.200995
0.213261
0.226866
0.239614
0.249945
0.252168
0.128757
0.129261
0.130334
0.131903
0.134088
0.136799
0.140242
0.144263
0.149201
0.15478
0.161543
0.16899
0.17795
0.187538
0.198846
0.210353
0.222835
0.233735
0.240701
0.237928
0.128152
0.12866
0.129729
0.131289
0.133454
0.13614
0.139546
0.143519
0.148392
0.153882
0.160529
0.167805
0.176545
0.185778
0.196624
0.207335
0.218685
0.227625
0.231159
0.22311
0.127523
0.128036
0.129103
0.130655
0.132804
0.135466
0.138838
0.142766
0.147578
0.152983
0.159519
0.166625
0.175149
0.184022
0.194407
0.204286
0.214502
0.221328
0.221349
0.207587
0.126869
0.127389
0.128456
0.130003
0.132138
0.134783
0.138125
0.142014
0.146773
0.152101
0.158534
0.165479
0.173794
0.182308
0.192235
0.201249
0.210321
0.214852
0.211252
0.190541
0.126186
0.126708
0.127765
0.129299
0.131404
0.134013
0.137297
0.141121
0.145779
0.15099
0.157246
0.163975
0.171971
0.180067
0.189396
0.197536
0.205396
0.207811
0.201115
0.172372
0.130873
0.131424
0.132566
0.134239
0.13654
0.139403
0.143011
0.147233
0.152377
0.158179
0.165144
0.172743
0.181771
0.191162
0.202017
0.212149
0.222369
0.228013
0.225343
0.202535
0.131333
0.131882
0.133031
0.134711
0.137034
0.139921
0.143572
0.147841
0.153062
0.158952
0.166058
0.17383
0.183122
0.192868
0.204238
0.215146
0.226446
0.234028
0.234212
0.218894
0.131762
0.132303
0.133448
0.135127
0.137455
0.140348
0.144011
0.148298
0.153547
0.159483
0.166655
0.174542
0.183987
0.194025
0.20577
0.217436
0.229746
0.239435
0.24298
0.234194
0.132164
0.132699
0.133843
0.135524
0.137858
0.140762
0.144444
0.148756
0.154042
0.160035
0.167281
0.175296
0.184904
0.195238
0.207365
0.219761
0.233081
0.244705
0.251518
0.248095
0.132538
0.133069
0.134214
0.135898
0.138242
0.14116
0.144862
0.149203
0.15453
0.160582
0.167909
0.176053
0.185829
0.196454
0.208965
0.222057
0.236384
0.249795
0.259802
0.26132
0.132884
0.133411
0.134558
0.136246
0.138599
0.141529
0.145252
0.14962
0.154985
0.161094
0.168497
0.176763
0.186699
0.1976
0.210486
0.224235
0.239562
0.254651
0.267788
0.273982
0.133201
0.133726
0.134874
0.136565
0.138927
0.141869
0.14561
0.150002
0.155403
0.161565
0.169038
0.177418
0.187508
0.198667
0.211917
0.226285
0.242595
0.259258
0.275414
0.28605
0.133489
0.134011
0.135161
0.136856
0.139226
0.142178
0.145935
0.150351
0.155784
0.161995
0.169534
0.178022
0.188256
0.199657
0.213258
0.228203
0.245468
0.263604
0.282625
0.297485
0.133747
0.134268
0.135419
0.137117
0.139494
0.142456
0.146228
0.150665
0.156128
0.162384
0.169985
0.178571
0.188942
0.200567
0.214503
0.229982
0.248164
0.267671
0.289377
0.308241
0.133974
0.134494
0.135648
0.137349
0.139732
0.142701
0.146488
0.150944
0.156433
0.162731
0.170388
0.179064
0.189563
0.201391
0.215647
0.231613
0.250663
0.271439
0.295632
0.318262
0.134171
0.13469
0.135845
0.137549
0.139937
0.142915
0.146712
0.151185
0.156699
0.163033
0.170741
0.179498
0.190115
0.202126
0.21668
0.233089
0.252947
0.274893
0.301359
0.327494
0.134337
0.134855
0.136011
0.137717
0.14011
0.143094
0.146902
0.151389
0.156924
0.16329
0.171043
0.179871
0.190596
0.202769
0.217597
0.234403
0.255002
0.278012
0.306531
0.335885
0.134471
0.134989
0.136146