/*--------------------------------*- C++ -*----------------------------------*\
  =========                 |
  \\      /  F ield         | OpenFOAM: The Open Source CFD Toolbox
   \\    /   O peration     | Website:  https://openfoam.org
    \\  /    A nd           | Version:  6.0
     \\/     M anipulation  |
\*---------------------------------------------------------------------------*/
FoamFile
{
    version     2.0;
    format      ascii;
    class       volVectorField;
    location    "70";
    object      U;
}
// * * * * * * * * * * * * * * * * * * * * * * * * * * * * * * * * * * * * * //

dimensions      [0 1 -1 0 0 0 0];

internalField   nonuniform List<vector> 
4000
(
(0.125585 0.00855701 8.3583e-20)
(0.383898 0.0430343 -4.58177e-20)
(0.633974 0.0995877 5.41606e-20)
(0.856491 0.16074 -4.03323e-20)
(1.038 0.216065 -1.80711e-20)
(1.17401 0.260356 5.55877e-21)
(1.2676 0.291986 -1.76863e-20)
(1.32624 0.311851 6.34482e-20)
(1.35869 0.322155 -5.28069e-20)
(1.37304 0.325415 1.24372e-20)
(1.37578 0.323893 -9.22938e-21)
(1.37164 0.319362 -5.99732e-20)
(1.36376 0.313086 5.81365e-20)
(1.35416 0.305904 2.20923e-20)
(1.34401 0.298342 -2.19306e-20)
(1.33401 0.290713 5.14253e-20)
(1.32456 0.283183 -7.98674e-22)
(1.31589 0.275879 -4.96392e-20)
(1.30811 0.269148 3.66273e-20)
(1.30133 0.262747 1.15743e-20)
(0.140822 0.0145991 -2.93664e-20)
(0.419552 0.0608289 8.46003e-20)
(0.679758 0.126916 9.81784e-20)
(0.903246 0.19394 -4.65296e-20)
(1.07899 0.251427 8.06833e-20)
(1.20556 0.295019 1.27749e-19)
(1.28877 0.324225 -7.2043e-21)
(1.33792 0.340942 -2.20489e-20)
(1.36267 0.348063 1.08164e-19)
(1.37131 0.348478 5.27823e-20)
(1.37014 0.344585 -9.58675e-21)
(1.36347 0.338149 7.87457e-20)
(1.35407 0.330362 -8.44079e-20)
(1.34361 0.321974 1.31532e-19)
(1.33305 0.313431 -2.18988e-20)
(1.3229 0.304986 6.28502e-20)
(1.31347 0.296759 1.13328e-20)
(1.30492 0.288868 4.47517e-20)
(1.2973 0.281664 -4.2529e-20)
(1.29072 0.274767 1.05057e-20)
(0.156017 0.0217946 -4.55965e-20)
(0.453869 0.0810235 1.05816e-19)
(0.722238 0.156755 7.89937e-20)
(0.944805 0.229057 -1.20488e-20)
(1.11355 0.287871 1.23932e-19)
(1.23029 0.330013 -9.38954e-20)
(1.30347 0.356274 -7.30965e-21)
(1.34393 0.369568 8.19543e-20)
(1.36196 0.373417 2.57994e-20)
(1.36586 0.371011 3.66219e-20)
(1.36159 0.364816 -5.42087e-20)
(1.35304 0.356552 1.41605e-19)
(1.34261 0.347314 2.65204e-20)
(1.33164 0.337758 -1.25551e-19)
(1.32088 0.328254 1.84039e-19)
(1.31074 0.318998 -2.17064e-19)
(1.30144 0.310072 -9.975e-20)
(1.29309 0.301589 1.67199e-20)
(1.2857 0.293901 9.65077e-20)
(1.27936 0.286485 -1.83493e-19)
(0.170924 0.0301286 -1.00262e-19)
(0.486289 0.103451 -2.37595e-19)
(0.7608 0.188763 -2.06902e-19)
(0.980739 0.265656 -2.80592e-19)
(1.14155 0.324968 -1.60058e-19)
(1.24838 0.36498 -3.31569e-19)
(1.31207 0.387872 4.22309e-20)
(1.34472 0.397552 -1.76822e-19)
(1.35702 0.398101 -1.96953e-20)
(1.35707 0.392927 2.92101e-20)
(1.35043 0.384514 -6.448e-20)
(1.34057 0.374497 8.11036e-20)
(1.32948 0.363864 1.44761e-19)
(1.31828 0.353174 -2.03101e-19)
(1.30753 0.342725 3.33034e-20)
(1.29753 0.332662 9.50873e-20)
(1.28846 0.323037 1.59307e-19)
(1.28038 0.313959 -1.37386e-19)
(1.27326 0.305776 -6.599e-21)
(1.26723 0.297823 1.62394e-19)
(0.185295 0.0395563 -1.8775e-19)
(0.51629 0.127882 5.18226e-19)
(0.794924 0.22255 -9.06062e-20)
(1.01074 0.303277 1.22032e-19)
(1.16298 0.362289 -1.18743e-19)
(1.26006 0.399578 3.67173e-19)
(1.31495 0.418771 -5.84557e-20)
(1.34074 0.424723 3.45374e-20)
(1.34825 0.421991 -1.82445e-20)
(1.34527 0.414131 5.76397e-20)
(1.33692 0.40359 3.74682e-20)
(1.32621 0.391893 4.82555e-20)
(1.31482 0.379917 -1.36101e-19)
(1.30361 0.368124 2.00643e-19)
(1.29303 0.356745 -1.52806e-19)
(1.2833 0.345879 2.98445e-20)
(1.27453 0.335554 -9.87757e-20)
(1.26679 0.325881 2.15862e-20)
(1.26 0.317197 2.457e-20)
(1.25432 0.308696 -2.25084e-19)
(0.198889 0.050003 1.22124e-20)
(0.543403 0.154035 -2.59349e-19)
(0.824191 0.257681 1.44725e-19)
(1.03463 0.341451 -5.02191e-19)
(1.17792 0.399417 2.44496e-19)
(1.26562 0.43348 -4.18595e-19)
(1.31252 0.448733 -3.28763e-19)
(1.33239 0.45091 -1.25789e-20)
(1.33599 0.444959 -1.1237e-19)
(1.33073 0.43451 -3.53977e-19)
(1.32122 0.421935 -4.52229e-20)
(1.31008 0.408633 -3.44728e-19)
(1.29867 0.395362 6.18131e-20)
(1.28767 0.382495 -5.06104e-20)
(1.2774 0.370202 2.99676e-20)
(1.26803 0.358542 -2.38342e-19)
(1.25966 0.347522 1.04166e-20)
(1.25232 0.337256 4.67566e-20)
(1.24591 0.328069 -1.13293e-19)
(1.24064 0.319017 9.83529e-20)
(0.211474 0.0613655 -1.0573e-19)
(0.567217 0.18158 4.71918e-19)
(0.848285 0.293695 4.92337e-21)
(1.05232 0.379703 -4.09069e-19)
(1.18654 0.435943 3.12011e-19)
(1.26538 0.466373 1.32021e-19)
(1.30515 0.477529 2.68371e-20)
(1.32003 0.475943 -2.25293e-19)
(1.32056 0.466865 3.66967e-19)
(1.31368 0.45394 -2.18628e-19)
(1.30351 0.439429 7.72343e-20)
(1.29229 0.424595 3.74409e-19)
(1.28111 0.410079 -3.40052e-19)
(1.27049 0.396169 3.7568e-19)
(1.26066 0.382979 -2.44375e-19)
(1.25175 0.370536 -4.76107e-20)
(1.24386 0.35883 5.85586e-20)
(1.23698 0.347981 7.61282e-20)
(1.23101 0.338292 1.06192e-19)
(1.2262 0.328696 6.33822e-20)
(0.222836 0.0735139 4.13452e-20)
(0.58739 0.210151 -4.21245e-19)
(0.866989 0.330112 7.51191e-20)
(1.06382 0.417564 9.86439e-19)
(1.18905 0.471476 -9.05766e-20)
(1.25968 0.497955 2.76402e-19)
(1.29321 0.504935 1.74059e-19)
(1.30399 0.499649 2.86843e-20)
(1.30221 0.487563 -2.06097e-19)
(1.2943 0.472285 3.38904e-19)
(1.28391 0.455938 -4.20816e-20)
(1.27292 0.439645 5.2784e-19)
(1.2622 0.423934 2.07007e-19)
(1.25212 0.409015 1.31906e-19)
(1.24285 0.394953 -2.7511e-19)
(1.23449 0.381744 5.85829e-20)
(1.22714 0.369366 2.17185e-19)
(1.22078 0.357946 5.8451e-20)
(1.21531 0.347762 -2.68153e-19)
(1.21103 0.33764 -6.782e-20)
(0.232784 0.0862945 -2.33628e-19)
(0.603655 0.239353 7.53402e-19)
(0.880182 0.366445 -4.10367e-19)
(1.06924 0.454572 -3.79278e-19)
(1.18572 0.50564 -3.32347e-19)
(1.24888 0.527942 -2.82515e-19)
(1.27705 0.530736 -3.52247e-19)
(1.28458 0.521854 4.45443e-19)
(1.28119 0.506901 -3.22547e-19)
(1.27277 0.489399 -2.68771e-20)
(1.26253 0.471319 -1.78153e-21)
(1.25204 0.453643 -6.32814e-20)
(1.24197 0.43679 -1.66678e-19)
(1.23258 0.420901 -1.89615e-19)
(1.22399 0.405996 -1.01859e-20)
(1.21628 0.392043 -4.28237e-20)
(1.20954 0.379013 -1.09034e-19)
(1.20377 0.36704 -3.52994e-20)
(1.19885 0.356373 3.54236e-20)
(1.19517 0.345753 -2.4085e-19)
(0.241153 0.0995337 4.04894e-19)
(0.615816 0.268772 4.22096e-19)
(0.887833 0.402206 -2.62613e-19)
(1.06874 0.490283 1.62306e-19)
(1.17686 0.538077 2.829e-19)
(1.23332 0.556063 -6.09385e-20)
(1.25702 0.554722 7.00196e-20)
(1.26207 0.542384 8.25362e-20)
(1.25769 0.52472 1.38141e-19)
(1.24923 0.50513 -1.64719e-19)
(1.23949 0.485423 8.01791e-20)
(1.22974 0.466441 -5.85844e-20)
(1.2205 0.448504 2.58959e-19)
(1.21194 0.431688 1.18847e-19)
(1.20413 0.415975 -2.64799e-19)
(1.19716 0.401308 1.49232e-19)
(1.19111 0.387652 7.38618e-20)
(1.18599 0.375147 -1.42528e-19)
(1.18168 0.364017 3.85117e-19)
(1.17865 0.35294 -2.87678e-19)
(0.247807 0.113041 -2.97317e-19)
(0.623755 0.297984 -3.87736e-19)
(0.889993 0.436918 2.751e-19)
(1.06255 0.524276 -2.53037e-19)
(1.16279 0.568454 -2.20172e-20)
(1.21337 0.582061 -2.87404e-19)
(1.23343 0.57669 2.36563e-19)
(1.23674 0.561066 4.53699e-19)
(1.23193 0.540862 -6.33152e-19)
(1.22383 0.519326 3.27137e-20)
(1.21487 0.498098 2.66537e-20)
(1.20608 0.47789 -1.34452e-19)
(1.19785 0.45893 8.96929e-20)
(1.19025 0.441238 -4.09801e-20)
(1.18335 0.424756 2.83206e-19)
(1.1772 0.40941 -3.05768e-19)
(1.17191 0.395158 -1.12197e-19)
(1.16749 0.382147 2.86249e-19)
(1.16386 0.370577 -4.44836e-19)
(1.16155 0.359095 2.81033e-19)
(0.252643 0.126615 6.19484e-19)
(0.627425 0.326563 5.5216e-19)
(0.886789 0.470121 -9.23426e-20)
(1.05094 0.556153 -1.20777e-20)
(1.14389 0.59646 -2.86559e-19)
(1.18938 0.605697 1.21743e-19)
(1.20661 0.596448 6.23049e-19)
(1.20883 0.577733 -5.51158e-19)
(1.20407 0.555168 3.61494e-19)
(1.1967 0.531831 -3.4021e-20)
(1.18878 0.509193 2.31205e-19)
(1.18115 0.48784 -5.20185e-20)
(1.17407 0.467922 1.437e-19)
(1.16758 0.449406 1.95628e-19)
(1.16169 0.432203 -1.02244e-19)
(1.15645 0.416217 1.38232e-19)
(1.152 0.401403 -2.08883e-19)
(1.14836 0.387911 5.29388e-19)
(1.14547 0.375922 -3.43524e-19)
(1.14395 0.364094 2.48535e-19)
(0.255591 0.140047 -3.04971e-19)
(0.626847 0.354093 -5.70435e-19)
(0.878411 0.501379 -3.94992e-19)
(1.03424 0.585544 -3.07855e-20)
(1.12052 0.621808 9.69199e-20)
(1.16172 0.626752 -5.25586e-20)
(1.17685 0.613816 -3.52329e-19)
(1.17857 0.592224 -1.59971e-19)
(1.17431 0.567487 -3.02247e-19)
(1.16797 0.542496 -1.62153e-19)
(1.16131 0.518558 7.98788e-20)
(1.15501 0.496146 -3.84036e-19)
(1.14924 0.475337 -9.9088e-20)
(1.14399 0.456054 -1.01889e-19)
(1.13922 0.438178 -3.17434e-19)
(1.13501 0.421594 1.41838e-19)
(1.13146 0.406251 -5.16896e-21)
(1.12866 0.392298 1.42037e-19)
(1.12659 0.379906 -5.97556e-20)
(1.12593 0.367787 -2.3603e-19)
(0.256616 0.153123 7.04602e-19)
(0.62211 0.380172 6.14045e-19)
(0.86511 0.530284 7.73959e-19)
(1.01281 0.612115 -8.01091e-20)
(1.09307 0.644242 -2.94056e-19)
(1.13075 0.645024 8.60029e-19)
(1.14445 0.628627 -4.43997e-19)
(1.1462 0.604389 5.03202e-19)
(1.14282 0.577675 -9.72145e-20)
(1.13776 0.551179 3.23924e-19)
(1.13256 0.526054 3.51339e-20)
(1.12775 0.502666 1.75068e-19)
(1.12342 0.481033 -4.07326e-20)
(1.11953 0.461041 1.88602e-19)
(1.11602 0.442543 -1.72471e-19)
(1.11293 0.425406 1.06131e-21)
(1.11038 0.409567 8.59603e-20)
(1.10847 0.395168 1.47851e-19)
(1.10729 0.382379 -3.01964e-20)
(1.10753 0.370031 9.56248e-20)
(0.255716 0.165633 -2.17493e-19)
(0.613361 0.404417 -6.1808e-19)
(0.847187 0.556463 -3.77603e-19)
(0.987032 0.635563 -6.68564e-19)
(1.06194 0.663531 7.32212e-19)
(1.09681 0.660336 -5.36416e-19)
(1.10971 0.640733 3.48321e-19)
(1.11194 0.614093 -1.1711e-19)
(1.10976 0.585601 -1.60169e-19)
(1.10622 0.557754 -1.15791e-19)
(1.10263 0.531551 5.93761e-20)
(1.09943 0.507271 9.50563e-20)
(1.09668 0.484879 9.15348e-20)
(1.09428 0.464231 -1.08923e-19)
(1.09215 0.445159 -9.80232e-20)
(1.09029 0.427512 3.13973e-19)
(1.08883 0.41121 -1.7339e-20)
(1.0879 0.396376 -1.52483e-19)
(1.08766 0.383202 -1.59814e-21)
(1.08881 0.370713 -5.03656e-20)
(0.252923 0.177374 9.78849e-19)
(0.600801 0.426477 4.63965e-19)
(0.824987 0.579581 4.3353e-19)
(0.957316 0.655624 -2.6299e-19)
(1.02752 0.679476 3.53611e-20)
(1.06027 0.672534 3.84535e-19)
(1.07291 0.650003 5.72749e-20)
(1.07603 0.621216 1.32399e-19)
(1.07531 0.591153 1.52409e-19)
(1.07347 0.562108 2.63759e-20)
(1.07162 0.534943 1.00943e-19)
(1.07014 0.509852 -6.7463e-21)
(1.06905 0.48676 -3.8154e-20)
(1.06825 0.465501 -1.76563e-19)
(1.06764 0.445891 3.69489e-20)
(1.06716 0.427766 3.72276e-21)
(1.0669 0.411024 -2.48364e-21)
(1.06702 0.395758 1.18249e-20)
(1.06778 0.38221 -4.17543e-20)
(1.06989 0.369689 6.06621e-20)
(0.248301 0.188151 -7.10987e-19)
(0.584682 0.44603 -6.17716e-19)
(0.798891 0.599342 3.04836e-19)
(0.924092 0.672069 -3.84538e-19)
(0.990231 0.691911 -2.60676e-20)
(1.02147 0.681488 6.97069e-20)
(1.03435 0.656329 -6.70143e-20)
(1.03869 0.62566 -4.83083e-20)
(1.03965 0.594237 -1.42527e-19)
(1.03964 0.564155 -8.68946e-20)
(1.03963 0.536144 6.1814e-21)
(1.03994 0.510324 -1.16553e-19)
(1.04058 0.486587 3.1744e-20)
(1.04148 0.464751 -4.12179e-20)
(1.04251 0.444625 1.5393e-20)
(1.04357 0.426037 4.4639e-20)
(1.04466 0.408862 1.94569e-20)
(1.04596 0.393132 1.40341e-20)
(1.04785 0.379129 3.70952e-21)
(1.05121 0.366599 -1.23631e-20)
(0.241945 0.197784 6.80093e-19)
(0.565294 0.462792 1.54056e-20)
(0.76931 0.615496 -5.88575e-20)
(0.887802 0.684712 7.24036e-20)
(0.950487 0.700698 2.96847e-19)
(0.980776 0.687094 -2.05918e-19)
(0.994304 0.659624 1.24046e-19)
(1.00015 0.627349 -1.51862e-19)
(1.00297 0.594786 7.11041e-20)
(1.0049 0.563832 -4.83199e-20)
(1.00677 0.535094 1.88716e-20)
(1.00889 0.508627 5.69335e-21)
(1.01129 0.484291 -1.51783e-20)
(1.01393 0.461894 -4.82987e-21)
(1.0167 0.441249 -1.94068e-20)
(1.01947 0.422194 8.63352e-21)
(1.02214 0.404582 -2.25889e-20)
(1.02488 0.388301 -2.03954e-20)
(1.02834 0.37356 9.5964e-21)
(1.03345 0.360791 -1.64352e-20)
(0.233972 0.206111 -1.41e-19)
(0.542964 0.476519 1.47752e-19)
(0.736679 0.627832 1.27609e-19)
(0.848901 0.6934 -1.95728e-19)
(0.908705 0.705734 1.06209e-19)
(0.938543 0.689277 -1.8382e-19)
(0.953082 0.659828 -1.1543e-20)
(0.96066 0.626235 -1.73977e-20)
(0.965468 0.592761 -2.10838e-20)
(0.969382 0.561113 -1.93215e-20)
(0.973153 0.531778 -1.85446e-20)
(0.977048 0.504744 -2.62194e-20)
(0.981152 0.479836 3.03637e-20)
(0.985485 0.456845 -1.18519e-19)
(0.990004 0.435591 1.10381e-19)
(0.99457 0.415948 6.65539e-20)
(0.999025 0.397759 -2.61264e-20)
(1.00363 0.380682 7.13397e-21)
(1.00935 0.364713 1.18527e-19)
(1.01655 0.351354 -4.74014e-20)
(0.224528 0.212989 -4.72299e-20)
(0.51805 0.487005 1.22661e-19)
(0.70145 0.636185 -1.55561e-19)
(0.807849 0.698021 2.11872e-19)
(0.865303 0.706944 1.67565e-20)
(0.895132 0.687985 -7.51277e-20)
(0.910987 0.656906 -1.04535e-20)
(0.920475 0.622296 -7.59831e-22)
(0.927355 0.58816 2.90208e-21)
(0.933284 0.556022 1.18906e-20)
(0.938918 0.526256 1.66457e-20)
(0.944507 0.498776 -4.25569e-21)
(0.950161 0.473353 5.47669e-20)
(0.955959 0.449729 -6.16168e-20)
(0.96194 0.427682 6.89078e-20)
(0.968017 0.407073 -1.38678e-19)
(0.974092 0.387691 1.63305e-19)
(0.98064 0.368856 -1.42634e-19)
(0.988697 0.350304 -8.63794e-20)
(0.997085 0.335635 1.6141e-19)
(0.213778 0.218297 8.99443e-20)
(0.49093 0.49409 2.71986e-20)
(0.664088 0.640431 4.54993e-20)
(0.765111 0.698498 2.63873e-20)
(0.820705 0.704282 -4.00226e-20)
(0.850911 0.68319 1.32843e-20)
(0.868332 0.650839 -4.87489e-20)
(0.879873 0.615526 3.17302e-20)
(0.88889 0.580999 4.51139e-20)
(0.89684 0.548614 -7.63984e-20)
(0.9043 0.518646 1.05127e-19)
(0.911486 0.490951 -3.70183e-20)
(0.918502 0.465248 8.76459e-20)
(0.925429 0.441217 -1.37204e-19)
(0.932318 0.418552 2.90682e-19)
(0.939124 0.39699 -6.09129e-20)
(0.945875 0.376092 -1.67938e-20)
(0.953298 0.354515 2.03806e-19)
(0.962215 0.33021 -9.76462e-20)
(0.967279 0.305932 5.2886e-20)
(0.2019 0.221937 2.48853e-20)
(0.461997 0.497653 -1.22363e-19)
(0.625064 0.640488 -2.27834e-20)
(0.721152 0.694786 -2.38853e-20)
(0.77533 0.697728 2.18614e-21)
(0.806245 0.674883 -8.99638e-20)
(0.825442 0.641623 1.309e-19)
(0.839147 0.605925 1.18646e-20)
(0.85035 0.571287 -1.60869e-20)
(0.860336 0.538911 5.98549e-21)
(0.869614 0.508999 5.83598e-20)
(0.878375 0.481377 1.03704e-19)
(0.886696 0.455763 5.96214e-20)
(0.894616 0.431861 -1.45707e-19)
(0.90212 0.409408 -4.69013e-20)
(0.909143 0.388208 -6.10603e-22)
(0.915804 0.367984 3.23746e-20)
(0.922753 0.348003 6.49658e-21)
(0.929926 0.327509 3.33511e-19)
(0.932336 0.30878 -2.31594e-19)
(0.189086 0.223831 1.47579e-20)
(0.431653 0.497609 4.07793e-20)
(0.584849 0.63631 -7.31997e-20)
(0.676432 0.686873 1.63565e-19)
(0.729594 0.687285 6.93086e-20)
(0.761501 0.663071 -1.48029e-19)
(0.782639 0.629267 1.50348e-19)
(0.798592 0.593502 -4.28196e-20)
(0.812015 0.559027 1.43881e-19)
(0.824051 0.526907 7.43601e-20)
(0.83516 0.497278 -3.094e-19)
(0.845526 0.469942 -3.32771e-20)
(0.855236 0.444614 4.47186e-19)
(0.864324 0.421007 -5.51192e-19)
(0.872769 0.398869 5.10448e-19)
(0.880497 0.377994 1.81229e-19)
(0.887584 0.358091 -6.35159e-19)
(0.894475 0.338543 3.12735e-19)
(0.900986 0.319032 -6.14494e-20)
(0.903376 0.302137 7.48373e-20)
(0.175534 0.223925 -1.53087e-19)
(0.400303 0.493914 -1.66132e-19)
(0.543911 0.62789 1.12531e-19)
(0.631405 0.674778 -1.65714e-19)
(0.683903 0.672984 -5.02337e-19)
(0.717037 0.647785 -2.89956e-20)
(0.740244 0.613794 -1.53965e-19)
(0.758501 0.578273 -1.54289e-21)
(0.774162 0.544236 -3.33809e-19)
(0.788248 0.512622 -3.40957e-19)
(0.801181 0.483515 -2.41021e-19)
(0.813145 0.456707 -1.12196e-20)
(0.824235 0.43192 -5.86706e-19)
(0.834503 0.408889 -1.19806e-20)
(0.843953 0.387394 2.89979e-19)
(0.852552 0.367268 -2.86769e-19)
(0.860387 0.348284 -2.26747e-19)
(0.867816 0.329972 2.19216e-19)
(0.874648 0.312135 -1.55686e-19)
(0.877824 0.2968 3.02551e-20)
(0.16145 0.222189 1.54387e-19)
(0.368354 0.486564 1.19143e-19)
(0.50271 0.615258 -1.17379e-20)
(0.58651 0.65855 -1.28889e-19)
(0.638654 0.654878 2.71536e-19)
(0.673203 0.62907 4.71096e-19)
(0.698571 0.59524 -5.19928e-20)
(0.719164 0.560264 2.46801e-21)
(0.73707 0.526924 8.59404e-20)
(0.753207 0.496048 2.14399e-19)
(0.767973 0.467675 3.17368e-19)
(0.781561 0.44159 -2.6286e-19)
(0.794082 0.417525 2.52662e-19)
(0.805605 0.395227 -9.25184e-20)
(0.816156 0.374491 3.00561e-19)
(0.825735 0.35516 -1.17745e-19)
(0.834458 0.337034 -2.98737e-19)
(0.842684 0.319746 1.76571e-19)
(0.850255 0.303224 -2.57453e-19)
(0.854494 0.289174 -2.91275e-19)
(0.147039 0.218613 9.21842e-20)
(0.336203 0.475587 1.55722e-19)
(0.461692 0.598478 -1.6181e-19)
(0.542175 0.638269 -5.67054e-23)
(0.59423 0.633043 2.80118e-20)
(0.630338 0.606995 2.43774e-19)
(0.65792 0.573661 -3.54542e-19)
(0.680855 0.539517 3.35414e-19)
(0.70099 0.507122 -3.60262e-20)
(0.719161 0.4772 9.11989e-20)
(0.735752 0.449757 1.52276e-19)
(0.750969 0.424574 -2.91043e-19)
(0.764947 0.401393 1.35585e-19)
(0.777778 0.379977 1.30574e-19)
(0.789518 0.360135 4.89336e-20)
(0.800196 0.341721 -2.50162e-19)
(0.809954 0.324547 8.42206e-19)
(0.819146 0.308301 -4.75579e-19)
(0.827607 0.292946 8.59416e-19)
(0.83296 0.279898 -5.56689e-20)
(0.132506 0.213208 7.42599e-20)
(0.304239 0.461047 3.88844e-19)
(0.421289 0.577649 1.44229e-19)
(0.498809 0.614042 2.85526e-19)
(0.550997 0.607583 7.89441e-20)
(0.588764 0.581648 -4.69753e-19)
(0.618582 0.549128 7.32686e-19)
(0.643837 0.516089 3.84708e-19)
(0.666168 0.48487 1.73079e-20)
(0.68634 0.456105 4.98663e-19)
(0.704732 0.429769 8.45983e-20)
(0.721568 0.405644 5.17515e-20)
(0.737005 0.383482 2.98189e-19)
(0.751161 0.363057 -1.13235e-19)
(0.764118 0.344188 -1.16103e-19)
(0.775937 0.326734 6.97814e-19)
(0.786785 0.310519 -5.80453e-19)
(0.797004 0.295273 2.17546e-20)
(0.806419 0.280979 7.37867e-19)
(0.812911 0.2688 -7.70193e-22)
(0.118051 0.206005 -8.5354e-19)
(0.272835 0.44304 -1.31142e-19)
(0.381913 0.552899 -1.89182e-19)
(0.456802 0.586006 -1.48096e-19)
(0.509302 0.578623 -3.83937e-19)
(0.548788 0.553138 1.31076e-19)
(0.580829 0.521735 -1.86962e-19)
(0.608359 0.490056 5.87256e-20)
(0.63283 0.460231 -2.70953e-19)
(0.654952 0.432809 -2.51463e-19)
(0.675105 0.407744 5.81791e-20)
(0.693531 0.384818 -4.1294e-19)
(0.710411 0.363795 3.34046e-19)
(0.725888 0.344461 -1.21236e-19)
(0.740067 0.326643 3.74031e-19)
(0.753037 0.310203 -8.0772e-19)
(0.764984 0.294974 -1.54159e-19)
(0.77623 0.280717 -2.90872e-19)
(0.786597 0.267422 -7.79275e-19)
(0.794213 0.256033 -1.26537e-19)
(0.103867 0.197056 1.36969e-19)
(0.242349 0.421693 -1.26904e-20)
(0.343956 0.524388 -2.22459e-19)
(0.416521 0.554323 7.91904e-20)
(0.469473 0.546314 -1.60277e-19)
(0.5107 0.521599 -1.65571e-21)
(0.54492 0.491595 2.16559e-19)
(0.574652 0.461516 -3.25291e-19)
(0.601187 0.433286 1.25214e-19)
(0.625189 0.40738 -7.32293e-20)
(0.647043 0.383734 2.1307e-20)
(0.667009 0.362136 -3.64656e-19)
(0.685293 0.342359 -4.42474e-19)
(0.70206 0.324203 -1.72289e-20)
(0.717437 0.307502 4.93233e-19)
(0.731537 0.292121 2.22288e-20)
(0.744556 0.277905 6.24187e-19)
(0.756799 0.264642 -9.1185e-19)
(0.768091 0.252319 4.83391e-19)
(0.7768 0.241692 8.37997e-19)
(0.0901418 0.186428 -1.27493e-19)
(0.213121 0.397161 6.8249e-20)
(0.307784 0.492306 4.46991e-19)
(0.378312 0.519182 1.11593e-19)
(0.431817 0.510829 -1.48911e-19)
(0.474771 0.487183 1.18521e-19)
(0.511094 0.458844 4.64734e-19)
(0.542934 0.430585 -3.78335e-19)
(0.571435 0.404138 3.50531e-20)
(0.597229 0.379906 -1.38227e-19)
(0.620706 0.357816 4.98936e-19)
(0.642146 0.337663 3.56905e-19)
(0.661775 0.319232 -5.1683e-20)
(0.67978 0.302335 -5.39529e-19)
(0.696309 0.286814 2.89461e-20)
(0.711494 0.272541 -6.69876e-20)
(0.725538 0.259371 3.17264e-19)
(0.738726 0.247118 5.15873e-19)
(0.750899 0.23576 4.50081e-19)
(0.760656 0.225892 -7.53898e-19)
(0.0770498 0.174208 -8.16645e-20)
(0.185466 0.369627 3.47664e-19)
(0.273741 0.456867 -3.37029e-19)
(0.342494 0.480798 4.73077e-19)
(0.39662 0.472366 -2.5501e-19)
(0.441251 0.450066 1.85602e-19)
(0.479575 0.423634 4.67095e-19)
(0.513404 0.3974 -5.63894e-19)
(0.543756 0.372906 2.57072e-19)
(0.571236 0.350497 3.2484e-19)
(0.59624 0.330088 -4.40169e-19)
(0.619069 0.311487 -2.98594e-20)
(0.639969 0.294493 -3.51681e-19)
(0.659144 0.27893 5.66182e-19)
(0.676761 0.264651 -3.06182e-19)
(0.692969 0.251534 3.28507e-19)
(0.707975 0.239447 -5.86822e-20)
(0.722043 0.228226 2.03892e-19)
(0.735041 0.217841 4.70438e-20)
(0.745792 0.208749 -1.18654e-19)
(0.0647562 0.160495 -2.5389e-19)
(0.159679 0.339298 -5.79383e-19)
(0.242142 0.418314 1.52233e-19)
(0.309363 0.439406 -4.88922e-19)
(0.364142 0.43114 -4.64213e-19)
(0.410371 0.410442 -3.34329e-19)
(0.450569 0.386139 2.60036e-19)
(0.486247 0.362116 1.99715e-19)
(0.518317 0.339734 -9.68555e-22)
(0.547359 0.319279 -1.7379e-19)
(0.57378 0.300667 -3.15163e-19)
(0.5979 0.283716 2.83677e-19)
(0.61998 0.268242 -9.74057e-20)
(0.640243 0.254084 -4.8115e-19)
(0.658871 0.241106 3.12833e-19)
(0.676027 0.229193 -2.34718e-19)
(0.69192 0.218227 -9.54272e-20)
(0.706795 0.208065 -2.67788e-19)
(0.720556 0.19867 -2.41393e-19)
(0.732236 0.190381 6.26768e-20)
(0.0534127 0.145406 2.21386e-19)
(0.136029 0.306405 1.13973e-19)
(0.213276 0.376911 1.75447e-19)
(0.279184 0.395266 -6.02383e-19)
(0.33462 0.38739 6.44216e-19)
(0.38234 0.368523 1.39695e-21)
(0.424262 0.346551 4.68397e-21)
(0.46163 0.324907 -3.9185e-19)
(0.495267 0.304776 3.65709e-19)
(0.525735 0.286398 -2.54998e-19)
(0.553451 0.269686 7.56526e-20)
(0.578748 0.254475 -3.40198e-19)
(0.601906 0.240598 -1.61967e-19)
(0.623162 0.22791 -7.72403e-20)
(0.642712 0.216287 5.81271e-19)
(0.660732 0.205625 -2.84879e-19)
(0.677429 0.195818 -2.57517e-19)
(0.693033 0.186745 2.63754e-19)
(0.707487 0.178361 -2.16707e-19)
(0.720022 0.170909 1.69185e-19)
(0.0431574 0.129072 4.76712e-19)
(0.114758 0.2712 -2.88257e-19)
(0.1874 0.332943 4.27763e-20)
(0.2522 0.348654 5.03454e-19)
(0.308269 0.341369 2.00749e-19)
(0.357347 0.32454 2.479e-19)
(0.400821 0.305077 2.46665e-19)
(0.439705 0.285962 5.22554e-19)
(0.474745 0.268208 -1.1933e-19)
(0.506488 0.252013 2.85691e-19)
(0.535362 0.237294 4.145e-19)
(0.561713 0.223903 1.52605e-19)
(0.585837 0.211693 2.75715e-19)
(0.607981 0.200534 9.99793e-20)
(0.628356 0.190317 5.82107e-20)
(0.647147 0.180948 -4.22692e-20)
(0.664559 0.172338 3.40916e-19)
(0.68081 0.164382 2.09948e-19)
(0.695882 0.157031 -1.9079e-19)
(0.709189 0.150454 1.80488e-19)
(0.0341135 0.111633 -3.17524e-19)
(0.0960817 0.233955 3.50817e-20)
(0.164743 0.286716 -9.16193e-20)
(0.22862 0.299867 -2.78951e-19)
(0.285275 0.293348 -1.46879e-19)
(0.335556 0.278737 -2.68034e-19)
(0.380394 0.261939 1.2537e-19)
(0.420605 0.245483 -4.8154e-19)
(0.45687 0.230216 2.84751e-19)
(0.489728 0.216297 -3.9273e-19)
(0.519613 0.203653 -2.43409e-19)
(0.546885 0.192153 -3.22093e-19)
(0.571852 0.18167 7.3827e-20)
(0.594773 0.172094 -7.2709e-20)
(0.615868 0.163328 8.65444e-20)
(0.635332 0.155293 4.66325e-20)
(0.653365 0.147912 9.26067e-20)
(0.670176 0.141099 -7.74986e-19)
(0.685788 0.134805 3.85684e-19)
(0.699775 0.129139 -2.31378e-19)
(0.026388 0.093242 1.05696e-19)
(0.0801858 0.194956 2.1323e-19)
(0.145502 0.23855 -1.39075e-19)
(0.208627 0.249214 3.43518e-19)
(0.265799 0.243613 -5.45809e-20)
(0.317111 0.231373 3.97324e-19)
(0.363108 0.217372 7.73192e-20)
(0.404443 0.203684 -8.04467e-20)
(0.441746 0.190998 2.93179e-19)
(0.475548 0.179437 2.23596e-19)
(0.506289 0.168936 8.30528e-20)
(0.534342 0.159387 1.08722e-19)
(0.560023 0.150685 5.44087e-20)
(0.583602 0.142736 -2.31574e-19)
(0.605307 0.135461 -3.20788e-20)
(0.625338 0.128795 2.41028e-19)
(0.643896 0.122673 -1.64688e-19)
(0.661179 0.117028 -7.9807e-21)
(0.677248 0.111811 -3.44329e-19)
(0.691818 0.10709 6.93966e-19)
(0.0200713 0.0740619 2.84803e-19)
(0.0672265 0.154507 -3.40844e-19)
(0.129842 0.188783 1.60232e-19)
(0.192374 0.197019 -2.25942e-19)
(0.249977 0.19246 1.99879e-19)
(0.302132 0.182716 -3.46386e-19)
(0.34907 0.171621 -2.53464e-19)
(0.391318 0.160793 1.91017e-20)
(0.429462 0.150764 -3.44954e-19)
(0.464028 0.141625 -2.15034e-19)
(0.495464 0.133325 -3.71675e-19)
(0.52415 0.125778 -1.23801e-20)
(0.55041 0.118899 -1.44344e-19)
(0.574522 0.112616 3.64797e-19)
(0.596722 0.106866 2.51063e-19)
(0.617214 0.101596 -8.44201e-20)
(0.636196 0.0967593 -7.6347e-20)
(0.65386 0.0923009 -3.57661e-21)
(0.6703 0.0881796 9.41474e-21)
(0.685347 0.0844342 1.37579e-19)
(0.0152362 0.0542622 -7.12015e-20)
(0.0573292 0.112922 -2.44241e-19)
(0.117895 0.137761 -1.52213e-19)
(0.179982 0.143616 -9.52125e-20)
(0.237917 0.140196 -1.97219e-19)
(0.290712 0.133045 3.37536e-19)
(0.338365 0.124939 -3.64938e-20)
(0.381305 0.117041 -8.11883e-20)
(0.420087 0.109729 3.16271e-21)
(0.455233 0.103065 2.38044e-19)
(0.487196 0.0970107 -2.26082e-19)
(0.516362 0.091503 2.20933e-19)
(0.543062 0.0864819 1.03471e-19)
(0.567579 0.0818942 -1.88771e-19)
(0.590154 0.0776949 4.12969e-20)
(0.610996 0.073846 1.21154e-19)
(0.6303 0.0703127 4.20092e-20)
(0.648253 0.0670571 -2.94343e-20)
(0.664976 0.0640464 -2.54481e-19)
(0.68039 0.0613008 2.02783e-19)
(0.0119374 0.0340188 6.45229e-20)
(0.0505877 0.0705245 7.81761e-20)
(0.109759 0.085842 2.19296e-20)
(0.171542 0.089349 -1.65578e-20)
(0.229699 0.0871348 4.72007e-20)
(0.282925 0.0826459 7.21216e-20)
(0.331058 0.0775893 2.7328e-20)
(0.374463 0.0726713 3.33846e-20)
(0.413673 0.0681178 -7.0832e-20)
(0.44921 0.0639649 1.32655e-19)
(0.481528 0.0601874 -3.13263e-20)
(0.511018 0.0567474 -2.49842e-21)
(0.538015 0.0536081 3.17116e-20)
(0.562806 0.0507372 3.57485e-20)
(0.585635 0.0481072 -9.60688e-20)
(0.606715 0.0456949 6.32552e-20)
(0.626236 0.0434794 4.13989e-20)
(0.644384 0.0414377 3.53538e-20)
(0.661299 0.0395482 7.57384e-20)
(0.676965 0.0378201 3.13352e-20)
(0.0102111 0.0135123 -1.32404e-20)
(0.0470639 0.0276444 2.75257e-20)
(0.1055 0.0333889 -3.84965e-20)
(0.167114 0.0345657 2.41925e-20)
(0.225376 0.0335964 1.4181e-20)
(0.278817 0.0318093 6.31683e-21)
(0.327191 0.0298363 1.49869e-20)
(0.370829 0.0279273 -4.29307e-20)
(0.410256 0.0261574 2.73596e-20)
(0.445991 0.0245364 9.56227e-21)
(0.478489 0.0230546 -5.43472e-22)
(0.508145 0.0216985 5.86439e-20)
(0.535294 0.0204552 -1.78017e-20)
(0.560226 0.0193135 -1.70312e-20)
(0.583186 0.0182636 -1.63697e-20)
(0.604388 0.0172976 2.5479e-21)
(0.624023 0.016408 -2.18353e-20)
(0.642272 0.0155864 4.19677e-21)
(0.659286 0.0148242 8.19535e-22)
(0.675086 0.014124 -2.76492e-21)
(0.0100744 -0.00707442 8.42279e-21)
(0.0467871 -0.0153838 -4.48423e-20)
(0.105147 -0.0192306 5.34357e-20)
(0.166726 -0.0203815 -4.01506e-20)
(0.224974 -0.0200961 -1.87178e-20)
(0.27841 -0.0191709 5.60607e-20)
(0.326783 -0.0180507 4.65993e-21)
(0.370422 -0.0169427 1.28072e-21)
(0.409852 -0.0159221 2.61315e-20)
(0.44559 -0.015005 1.34901e-20)
(0.478094 -0.0141859 -1.06699e-20)
(0.507755 -0.0134535 -3.73281e-20)
(0.534911 -0.0127968 3.56065e-21)
(0.559849 -0.012206 -3.24794e-21)
(0.582816 -0.0116726 3.47663e-20)
(0.604026 -0.0111898 -2.09152e-20)
(0.623668 -0.0107514 2.86509e-20)
(0.641923 -0.0103513 -4.29523e-20)
(0.658944 -0.0099849 5.0725e-23)
(0.674758 -0.00965379 -9.04348e-21)
(0.0115255 -0.0275578 -2.80234e-20)
(0.0497541 -0.058225 1.41463e-19)
(0.108699 -0.0716482 9.52931e-20)
(0.170375 -0.0751392 6.29759e-20)
(0.22849 -0.073619 7.85967e-20)
(0.281701 -0.0700001 -1.90606e-20)
(0.329832 -0.0658025 8.69977e-20)
(0.37324 -0.0616901 1.77506e-20)
(0.412459 -0.0578898 -7.81312e-21)
(0.448007 -0.0544439 -6.19386e-20)
(0.48034 -0.0513319 6.42105e-20)
(0.509847 -0.0485182 -8.71655e-20)
(0.536863 -0.0459678 6.33054e-20)
(0.561674 -0.0436498 7.2454e-20)
(0.584524 -0.0415381 9.57256e-20)
(0.605627 -0.0396108 -6.29514e-20)
(0.625171 -0.0378481 1.7751e-20)
(0.643338 -0.0362295 6.63126e-20)
(0.660271 -0.0347375 -6.26996e-20)
(0.675981 -0.0333788 4.7356e-20)
(0.0145435 -0.0477551 -2.71447e-19)
(0.055929 -0.100545 -1.36196e-19)
(0.116116 -0.123497 -1.51452e-19)
(0.178027 -0.129356 -1.19339e-20)
(0.235892 -0.12665 -8.16445e-20)
(0.288665 -0.120385 -9.9799e-20)
(0.336314 -0.11315 1.7674e-19)
(0.379261 -0.106067 8.98202e-20)
(0.418058 -0.0995158 1.10614e-19)
(0.453224 -0.0935655 -1.20016e-19)
(0.485211 -0.088182 8.892e-20)
(0.514406 -0.0833056 1.08464e-19)
(0.541137 -0.078878 3.82988e-20)
(0.565688 -0.0748474 -3.6295e-20)
(0.588299 -0.0711702 7.72029e-21)
(0.60918 -0.0678096 -1.56516e-20)
(0.628522 -0.0647323 -1.52884e-19)
(0.646507 -0.0619031 2.38165e-20)
(0.663261 -0.0592932 1.48432e-19)
(0.678747 -0.0569176 -1.9952e-19)
(0.0190889 -0.0674865 -8.94363e-20)
(0.0652437 -0.142016 1.3229e-19)
(0.127328 -0.174413 3.05252e-20)
(0.189615 -0.182683 -5.73382e-20)
(0.247123 -0.178869 -1.61691e-19)
(0.299248 -0.170035 -3.45906e-19)
(0.346183 -0.159829 -3.28976e-19)
(0.388443 -0.14983 -2.36611e-20)
(0.426609 -0.140573 -1.91023e-19)
(0.461204 -0.132158 -2.85515e-19)
(0.492675 -0.124538 2.21053e-19)
(0.521402 -0.117629 -3.2615e-19)
(0.547707 -0.11135 6.47648e-20)
(0.571867 -0.10563 -2.07972e-20)
(0.594118 -0.100408 -6.81164e-20)
(0.614665 -0.0956322 -8.60065e-20)
(0.6337 -0.0912558 1.39768e-19)
(0.65141 -0.0872289 1.11598e-19)
(0.667895 -0.0835131 1.91519e-19)
(0.683044 -0.0801389 -2.86886e-19)
(0.0251033 -0.0865769 4.85307e-20)
(0.0775978 -0.182313 4.71031e-19)
(0.142229 -0.224043 1.34765e-19)
(0.205043 -0.234778 3.25694e-19)
(0.262097 -0.229963 -1.21897e-19)
(0.313374 -0.218666 1.87046e-19)
(0.35937 -0.205579 -5.8925e-20)
(0.400724 -0.192739 3.78851e-19)
(0.438057 -0.18084 -1.94967e-19)
(0.471897 -0.170014 2.29407e-19)
(0.502686 -0.160204 1.98928e-19)
(0.530793 -0.151304 2.12643e-19)
(0.556533 -0.143211 -1.90051e-19)
(0.580175 -0.135834 1.63101e-19)
(0.601947 -0.129094 -2.26514e-19)
(0.62205 -0.122928 -6.21965e-20)
(0.640678 -0.117273 -1.48881e-19)
(0.658022 -0.112066 -6.30451e-20)
(0.674149 -0.107261 2.50562e-19)
(0.68885 -0.102913 -4.14987e-19)
(0.0325104 -0.104857 -1.95132e-19)
(0.0928597 -0.221125 -2.27403e-20)
(0.160679 -0.272038 -7.76986e-20)
(0.224181 -0.28531 -2.72977e-19)
(0.280698 -0.279627 4.62783e-20)
(0.330944 -0.266 -4.26933e-19)
(0.375786 -0.250147 -1.79338e-19)
(0.416023 -0.234561 -1.38949e-20)
(0.452328 -0.2201 -4.50177e-19)
(0.485236 -0.206933 -1.39499e-19)
(0.515181 -0.194993 -6.37868e-20)
(0.542522 -0.184154 -2.08111e-19)