1.22 	3.45254e-18 	-6.98323e-18 	-0.141302 	0.00204472 	-8.36823e-22
1.66 	3.45254e-18 	-6.96118e-18 	-0.266667 	-0.00204824 	-3.7881e-23
2.1 	3.45254e-18 	-6.93894e-18 	-0.31871 	0.00022777 	-2.44242e-21
2.54 	3.45254e-18 	-8.30431e-18 	-0.471845 	0.00908175 	-2.47491e-23
2.98 	3.45254e-18 	-8.28171e-18 	-0.46198 	0.0157035 	2.67773e-21
3.42 	3.45254e-18 	-6.87115e-18 	-0.436741 	0.0118148 	2.46862e-21
3.86 	3.45254e-18 	-6.84819e-18 	-0.277351 	0.00227106 	4.05358e-22
4.3 	3.45254e-18 	-6.82504e-18 	-0.199276 	-0.00720774 	1.15206e-21
4.74 	3.45254e-18 	-5.41391e-18 	-0.0589146 	-0.0146719 	-4.53878e-22
5.18 	3.45254e-18 	-2.61482e-18 	0.0344767 	-0.016708 	-8.94703e-23
5.62 	3.45254e-18 	-1.2033e-18 	0.145199 	-0.0154454 	3.398e-24
6.06 	3.45254e-18 	-1.17937e-18 	0.22776 	-0.0114886 	-1.1289e-22
6.5 	3.45254e-18 	-1.15524e-18 	0.310318 	-0.00695734 	1.10116e-22
