/*--------------------------------*- C++ -*----------------------------------*\
  =========                 |
  \\      /  F ield         | OpenFOAM: The Open Source CFD Toolbox
   \\    /   O peration     | Website:  https://openfoam.org
    \\  /    A nd           | Version:  6.0
     \\/     M anipulation  |
\*---------------------------------------------------------------------------*/
FoamFile
{
    version     2.0;
    format      ascii;
    class       volScalarField;
    location    "15";
    object      p;
}
// * * * * * * * * * * * * * * * * * * * * * * * * * * * * * * * * * * * * * //

dimensions      [0 2 -2 0 0 0 0];

internalField   nonuniform List<scalar> 
4000
(
-0.282911
-0.284065
-0.28481
-0.285346
-0.285796
-0.286181
-0.286518
-0.286824
-0.287111
-0.287384
-0.287653
-0.287922
-0.288197
-0.288485
-0.288792
-0.28913
-0.289503
-0.289872
-0.290219
-0.290977
-0.283057
-0.284201
-0.284938
-0.285467
-0.28591
-0.286288
-0.286618
-0.286917
-0.287194
-0.28746
-0.287719
-0.287978
-0.288243
-0.288521
-0.288817
-0.289144
-0.289507
-0.289867
-0.290204
-0.290957
-0.283351
-0.284475
-0.285198
-0.285714
-0.286143
-0.286506
-0.286821
-0.287104
-0.287365
-0.287613
-0.287853
-0.288093
-0.288337
-0.288594
-0.288869
-0.289175
-0.289519
-0.28986
-0.290177
-0.290921
-0.283791
-0.284885
-0.285586
-0.286082
-0.28649
-0.286831
-0.287123
-0.287382
-0.287617
-0.287837
-0.288049
-0.288258
-0.288471
-0.288694
-0.288936
-0.28921
-0.289524
-0.289836
-0.290122
-0.290853
-0.28437
-0.285429
-0.286101
-0.28657
-0.286949
-0.28726
-0.28752
-0.287745
-0.287945
-0.288127
-0.288298
-0.288464
-0.288632
-0.288809
-0.289004
-0.289232
-0.289503
-0.289776
-0.29002
-0.290731
-0.285084
-0.2861
-0.286738
-0.287173
-0.287516
-0.287788
-0.288007
-0.288188
-0.288341
-0.288473
-0.288591
-0.2887
-0.288809
-0.288924
-0.289057
-0.289223
-0.289436
-0.289655
-0.289845
-0.29053
-0.285927
-0.286896
-0.287494
-0.287889
-0.288187
-0.288412
-0.288579
-0.288705
-0.288799
-0.288869
-0.288919
-0.288957
-0.28899
-0.289026
-0.289077
-0.289164
-0.289301
-0.28945
-0.289573
-0.290224
-0.286894
-0.287813
-0.288366
-0.288713
-0.288959
-0.289127
-0.289233
-0.289293
-0.289317
-0.28931
-0.289279
-0.289229
-0.289168
-0.289105
-0.289055
-0.289039
-0.289079
-0.289138
-0.289177
-0.289786
-0.287983
-0.28885
-0.289353
-0.289646
-0.289831
-0.289932
-0.289968
-0.289952
-0.289894
-0.289799
-0.289671
-0.289517
-0.289344
-0.289161
-0.288985
-0.288843
-0.288758
-0.288702
-0.288637
-0.289193
-0.289196
-0.290007
-0.290454
-0.290685
-0.290802
-0.290828
-0.290784
-0.290683
-0.290533
-0.290338
-0.290103
-0.289829
-0.289525
-0.289201
-0.288875
-0.288575
-0.288335
-0.28813
-0.287932
-0.288423
-0.290534
-0.291287
-0.291671
-0.291833
-0.291873
-0.291817
-0.291685
-0.291491
-0.291241
-0.290939
-0.290586
-0.290181
-0.289732
-0.289246
-0.288741
-0.288252
-0.287818
-0.28742
-0.287047
-0.287448
-0.292005
-0.292693
-0.293008
-0.293092
-0.293046
-0.2929
-0.292674
-0.292381
-0.292028
-0.291615
-0.291138
-0.290596
-0.289989
-0.289324
-0.288618
-0.287904
-0.287228
-0.28658
-0.285968
-0.286238
-0.293617
-0.294232
-0.294468
-0.294465
-0.294326
-0.294081
-0.293755
-0.293361
-0.292902
-0.292376
-0.291777
-0.291096
-0.290328
-0.289474
-0.288544
-0.28757
-0.2866
-0.285628
-0.284683
-0.284747
-0.295381
-0.295913
-0.296059
-0.295958
-0.295713
-0.295363
-0.29493
-0.294431
-0.293866
-0.293232
-0.292514
-0.2917
-0.290775
-0.289729
-0.288561
-0.287296
-0.285977
-0.284592
-0.28318
-0.282913
-0.29731
-0.297746
-0.297788
-0.297575
-0.297213
-0.296745
-0.296199
-0.29559
-0.29492
-0.294179
-0.293351
-0.292413
-0.29134
-0.290108
-0.288699
-0.28712
-0.285399
-0.283501
-0.281446
-0.280653
-0.29942
-0.299743
-0.299665
-0.299322
-0.298827
-0.298228
-0.297557
-0.296831
-0.296052
-0.295207
-0.294274
-0.293222
-0.292014
-0.290607
-0.288963
-0.28706
-0.284897
-0.282394
-0.279498
-0.277903
-0.30173
-0.301921
-0.301702
-0.30121
-0.300561
-0.299812
-0.299
-0.298145
-0.297248
-0.296294
-0.295257
-0.294097
-0.292765
-0.2912
-0.289337
-0.287119
-0.284504
-0.281346
-0.27744
-0.274697
-0.304262
-0.304299
-0.303915
-0.303249
-0.302422
-0.301501
-0.300527
-0.299524
-0.298493
-0.297419
-0.296272
-0.295005
-0.293557
-0.291852
-0.289794
-0.287284
-0.284229
-0.280398
-0.275331
-0.270957
-0.307044
-0.306901
-0.306325
-0.305458
-0.304425
-0.303303
-0.302142
-0.300968
-0.299783
-0.298574
-0.297308
-0.295936
-0.294393
-0.292589
-0.290406
-0.287696
-0.284283
-0.279765
-0.273236
-0.266432
-0.310111
-0.309757
-0.308959
-0.307859
-0.30659
-0.305239
-0.303863
-0.302492
-0.301133
-0.299774
-0.298386
-0.296927
-0.295344
-0.293567
-0.291503
-0.289037
-0.285997
-0.28187
-0.275336
-0.267592
-0.313504
-0.312905
-0.31185
-0.310486
-0.308949
-0.307339
-0.305722
-0.304131
-0.302578
-0.301055
-0.299545
-0.298022
-0.296462
-0.294852
-0.293207
-0.291607
-0.29024
-0.289428
-0.290455
-0.29995
-0.317273
-0.316387
-0.31504
-0.313377
-0.311541
-0.309646
-0.307763
-0.305932
-0.30417
-0.302474
-0.300838
-0.299253
-0.297722
-0.296277
-0.294996
-0.294044
-0.293717
-0.294476
-0.297339
-0.306629
-0.321474
-0.320253
-0.318574
-0.31658
-0.314418
-0.312212
-0.310045
-0.30796
-0.305977
-0.304101
-0.302333
-0.300678
-0.29916
-0.297834
-0.296803
-0.296245
-0.296429
-0.297715
-0.300615
-0.307384
-0.326166
-0.324556
-0.322504
-0.320148
-0.317633
-0.315099
-0.312633
-0.310283
-0.308071
-0.306005
-0.304091
-0.302341
-0.300787
-0.299488
-0.298542
-0.298092
-0.298326
-0.299455
-0.301702
-0.306002
-0.331409
-0.32935
-0.326883
-0.324135
-0.321246
-0.318368
-0.315592
-0.312967
-0.310513
-0.308238
-0.306147
-0.304252
-0.30258
-0.30118
-0.300125
-0.299508
-0.299434
-0.299989
-0.30126
-0.303371
-0.337264
-0.334688
-0.331765
-0.328598
-0.325317
-0.322081
-0.318983
-0.316068
-0.31335
-0.310831
-0.30851
-0.306391
-0.304491
-0.30284
-0.301483
-0.30047
-0.299845
-0.299624
-0.299839
-0.300237
-0.343781
-0.34062
-0.3372
-0.333591
-0.3299
-0.326292
-0.322856
-0.319626
-0.316606
-0.313787
-0.311156
-0.308708
-0.306446
-0.304387
-0.302552
-0.300965
-0.299638
-0.298559
-0.297742
-0.296823
-0.351005
-0.347188
-0.343233
-0.339161
-0.335044
-0.331047
-0.327248
-0.323663
-0.32028
-0.317077
-0.31403
-0.311123
-0.308354
-0.305731
-0.303266
-0.300974
-0.298858
-0.296909
-0.295134
-0.293209
-0.358965
-0.354426
-0.349902
-0.345347
-0.340788
-0.336376
-0.332172
-0.32817
-0.324338
-0.320639
-0.317043
-0.313533
-0.310107
-0.306776
-0.303558
-0.300469
-0.297522
-0.294719
-0.292064
-0.289324
-0.367674
-0.362352
-0.357231
-0.352178
-0.347153
-0.342288
-0.337618
-0.333108
-0.32871
-0.324377
-0.320082
-0.315815
-0.311589
-0.307428
-0.303362
-0.299421
-0.295627
-0.291996
-0.288531
-0.285085
-0.377126
-0.370968
-0.365228
-0.35966
-0.354138
-0.348765
-0.343539
-0.338402
-0.333291
-0.328165
-0.32301
-0.317839
-0.312687
-0.307599
-0.302624
-0.297801
-0.293164
-0.288737
-0.284516
-0.280419
-0.387289
-0.380254
-0.37388
-0.367778
-0.361715
-0.355751
-0.349851
-0.343935
-0.337943
-0.331852
-0.325679
-0.319472
-0.313294
-0.307214
-0.301295
-0.295588
-0.290126
-0.284936
-0.280004
-0.275288
-0.398102
-0.390164
-0.383147
-0.376486
-0.369817
-0.363152
-0.356427
-0.349556
-0.342498
-0.335271
-0.327938
-0.320588
-0.313315
-0.30621
-0.299343
-0.292765
-0.28651
-0.280594
-0.274989
-0.269681
-0.409471
-0.400621
-0.392956
-0.385698
-0.378335
-0.370829
-0.363099
-0.355077
-0.346768
-0.338249
-0.329641
-0.321073
-0.312671
-0.304534
-0.296736
-0.289321
-0.28231
-0.27571
-0.269473
-0.263603
-0.421265
-0.411511
-0.403194
-0.395287
-0.387114
-0.378597
-0.369662
-0.360288
-0.350554
-0.340614
-0.330647
-0.320825
-0.311289
-0.302142
-0.293449
-0.28524
-0.277521
-0.270282
-0.263455
-0.257061
-0.433314
-0.422681
-0.413707
-0.40508
-0.395954
-0.38623
-0.375878
-0.364961
-0.353656
-0.3422
-0.330832
-0.319751
-0.309107
-0.298992
-0.289454
-0.280503
-0.272129
-0.264302
-0.256931
-0.25006
-0.445404
-0.433937
-0.424296
-0.414855
-0.404608
-0.393467
-0.381492
-0.368863
-0.355876
-0.342853
-0.330078
-0.317769
-0.306065
-0.29504
-0.284718
-0.275086
-0.266114
-0.257752
-0.249887
-0.242593
-0.457285
-0.445043
-0.434718
-0.424348
-0.412791
-0.400022
-0.386236
-0.371766
-0.357031
-0.342431
-0.328283
-0.314801
-0.302105
-0.290242
-0.279205
-0.268957
-0.259448
-0.250609
-0.242303
-0.234645
-0.468666
-0.455722
-0.444685
-0.433252
-0.420191
-0.405594
-0.389844
-0.373448
-0.356948
-0.340805
-0.325348
-0.310773
-0.297169
-0.284547
-0.27287
-0.262077
-0.252097
-0.242842
-0.234152
-0.226195
-0.479225
-0.465662
-0.453876
-0.441233
-0.426474
-0.409879
-0.392058
-0.373705
-0.35547
-0.337856
-0.321182
-0.305613
-0.291194
-0.277902
-0.265667
-0.254403
-0.244022
-0.234415
-0.225402
-0.217212
-0.479294
-0.46573
-0.453943
-0.4413
-0.42654
-0.409944
-0.392121
-0.373767
-0.355531
-0.337916
-0.321242
-0.305671
-0.291253
-0.27796
-0.265725
-0.254461
-0.24408
-0.234473
-0.22546
-0.21727
-0.468733
-0.455787
-0.444749
-0.433316
-0.420253
-0.405656
-0.389905
-0.373508
-0.357007
-0.340863
-0.325406
-0.310831
-0.297226
-0.284604
-0.272927
-0.262134
-0.252155
-0.2429
-0.23421
-0.226253
-0.457348
-0.445105
-0.434779
-0.424408
-0.412851
-0.400081
-0.386294
-0.371824
-0.357088
-0.342488
-0.32834
-0.314858
-0.302162
-0.290298
-0.279262
-0.269014
-0.259506
-0.250667
-0.242361
-0.234704
-0.445464
-0.433996
-0.424354
-0.414913
-0.404665
-0.393524
-0.381548
-0.368919
-0.355931
-0.342908
-0.330133
-0.317824
-0.306121
-0.295096
-0.284775
-0.275143
-0.266171
-0.25781
-0.249946
-0.242652
-0.43337
-0.422737
-0.413762
-0.405134
-0.396008
-0.386284
-0.375932
-0.365014
-0.353709
-0.342253
-0.330885
-0.319805
-0.309161
-0.299047
-0.28951
-0.28056
-0.272186
-0.26436
-0.25699
-0.25012
-0.421319
-0.411564
-0.403246
-0.395339
-0.387166
-0.378648
-0.369712
-0.360338
-0.350605
-0.340665
-0.330699
-0.320877
-0.311342
-0.302196
-0.293504
-0.285296
-0.277578
-0.27034
-0.263515
-0.257122
-0.409522
-0.400671
-0.393005
-0.385746
-0.378383
-0.370877
-0.363147
-0.355125
-0.346816
-0.338298
-0.32969
-0.321123
-0.312722
-0.304586
-0.29679
-0.289376
-0.282367
-0.275768
-0.269533
-0.263664
-0.39815
-0.390212
-0.383194
-0.376532
-0.369862
-0.363197
-0.356472
-0.349601
-0.342543
-0.335317
-0.327985
-0.320636
-0.313365
-0.30626
-0.299395
-0.292819
-0.286566
-0.280652
-0.275049
-0.269743
-0.387335
-0.380299
-0.373925
-0.367822
-0.361758
-0.355794
-0.349894
-0.343978
-0.337986
-0.331895
-0.325723
-0.319517
-0.313341
-0.307263
-0.301346
-0.295641
-0.290182
-0.284994
-0.280063
-0.27535
-0.377169
-0.371011
-0.36527
-0.359702
-0.354179
-0.348805
-0.343579
-0.338442
-0.333331
-0.328205
-0.323051
-0.317882
-0.312732
-0.307646
-0.302673
-0.297852
-0.293218
-0.288793
-0.284575
-0.280482
-0.367715
-0.362393
-0.357271
-0.352217
-0.347192
-0.342326
-0.337655
-0.333145
-0.328747
-0.324415
-0.32012
-0.315855
-0.311631
-0.307472
-0.303409
-0.299471
-0.29568
-0.292052
-0.28859
-0.285148
-0.359004
-0.354465
-0.349941
-0.345385
-0.340825
-0.336412
-0.332207
-0.328204
-0.324372
-0.320674
-0.317078
-0.31357
-0.310146
-0.306818
-0.303602
-0.300517
-0.297573
-0.294774
-0.292123
-0.289386
-0.351042
-0.347226
-0.34327
-0.339197
-0.335079
-0.331081
-0.32728
-0.323694
-0.320312
-0.317109
-0.314062
-0.311157
-0.30839
-0.30577
-0.303308
-0.30102
-0.298908
-0.296963
-0.295192
-0.293271
-0.343817
-0.340656
-0.337236
-0.333625
-0.329933
-0.326324
-0.322887
-0.319656
-0.316635
-0.313815
-0.311185
-0.308739
-0.306479
-0.304423
-0.302592
-0.301009
-0.299686
-0.298612
-0.297799
-0.296885
-0.337298
-0.334723
-0.3318
-0.328632
-0.325349
-0.322111
-0.319012
-0.316095
-0.313376
-0.310857
-0.308536
-0.306419
-0.304521
-0.302873
-0.301521
-0.300512
-0.299892
-0.299676
-0.299896
-0.300299
-0.331444
-0.329385
-0.326918
-0.324168
-0.321278
-0.318397
-0.315619
-0.312992
-0.310536
-0.308261
-0.306171
-0.304277
-0.302608
-0.301211
-0.30016
-0.299549
-0.299479
-0.30004
-0.301317
-0.303434
-0.3262
-0.324591
-0.322539
-0.320181
-0.317664
-0.315127
-0.312659
-0.310307
-0.308093
-0.306026
-0.304112
-0.302364
-0.300813
-0.299517
-0.298576
-0.298132
-0.298372
-0.299507
-0.30176
-0.306066
-0.32151
-0.32029
-0.318609
-0.316614
-0.314449
-0.312241
-0.31007
-0.307983
-0.305998
-0.304121
-0.302353
-0.3007
-0.299185
-0.297862
-0.296837
-0.296285
-0.296475
-0.297768
-0.300675
-0.30745
-0.317312
-0.316425
-0.315077
-0.313412
-0.311573
-0.309674
-0.307788
-0.305955
-0.30419
-0.302494
-0.300858
-0.299274
-0.297746
-0.296305
-0.29503
-0.294085
-0.293765
-0.294533
-0.297402
-0.306699
-0.313546
-0.312945
-0.311889
-0.310523
-0.308982
-0.307369
-0.305748
-0.304154
-0.302599
-0.301076
-0.299566
-0.298045
-0.296488
-0.294882
-0.293243
-0.291651
-0.290293
-0.289489
-0.290525
-0.300027
-0.310157
-0.309801
-0.309001
-0.307899
-0.306626
-0.305271
-0.303892
-0.302518
-0.301157
-0.299796
-0.298409
-0.296952
-0.295373
-0.2936
-0.291542
-0.289085
-0.286054
-0.281938
-0.275415
-0.267681
-0.307095
-0.306949
-0.30637
-0.3055
-0.304464
-0.303339
-0.302174
-0.300997
-0.29981
-0.2986
-0.297334
-0.295964
-0.294425
-0.292626
-0.29045
-0.287749
-0.284346
-0.27984
-0.273322
-0.266529
-0.304318
-0.304351
-0.303964
-0.303296
-0.302465
-0.30154
-0.300563
-0.299557
-0.298525
-0.29745
-0.296303
-0.295038
-0.293595
-0.291895
-0.289844
-0.287343
-0.284299
-0.280479
-0.275425
-0.271064
-0.301792
-0.301978
-0.301756
-0.301261
-0.300608
-0.299856
-0.299041
-0.298184
-0.297285
-0.296331
-0.295294
-0.294137
-0.292809
-0.29125
-0.289394
-0.287185
-0.284581
-0.281436
-0.277543
-0.274815
-0.299487
-0.299805
-0.299723
-0.299377
-0.298878
-0.298276
-0.297602
-0.296875
-0.296095
-0.29525
-0.294318
-0.293269
-0.292065
-0.290664
-0.289028
-0.287134
-0.284983
-0.282492
-0.27961
-0.278032
-0.297382
-0.297812
-0.29785
-0.297633
-0.297268
-0.296797
-0.296249
-0.295638
-0.294968
-0.294228
-0.293402
-0.292467
-0.291398
-0.290172
-0.288771
-0.287202
-0.285492
-0.283608
-0.281567
-0.280791
-0.295457
-0.295983
-0.296125
-0.29602
-0.295772
-0.295419
-0.294985
-0.294484
-0.29392
-0.293286
-0.29257
-0.29176
-0.29084
-0.2898
-0.28864
-0.287385
-0.286078
-0.284706
-0.283308
-0.283058
-0.293696
-0.294305
-0.294536
-0.29453
-0.294388
-0.294141
-0.293813
-0.293418
-0.292959
-0.292435
-0.291838
-0.291161
-0.290399
-0.289551
-0.288629
-0.287665
-0.286707
-0.285749
-0.284817
-0.284898
-0.292086
-0.292767
-0.293077
-0.293158
-0.29311
-0.292962
-0.292734
-0.292442
-0.292089
-0.291677
-0.291203
-0.290665
-0.290064
-0.289406
-0.288707
-0.288003
-0.287339
-0.286704
-0.286106
-0.286392
-0.290616
-0.291361
-0.291741
-0.2919
-0.291937
-0.29188
-0.291747
-0.291552
-0.291304
-0.291004
-0.290653
-0.290253
-0.289809
-0.28933
-0.288834
-0.288354
-0.287931
-0.287545
-0.287186
-0.287603
-0.289276
-0.290081
-0.290523
-0.290751
-0.290866
-0.290891
-0.290846
-0.290745
-0.290596
-0.290404
-0.290171
-0.289902
-0.289604
-0.289286
-0.288967
-0.288677
-0.288448
-0.288254
-0.288069
-0.288575
-0.288061
-0.288921
-0.28942
-0.289709
-0.289893
-0.289993
-0.290028
-0.290013
-0.289956
-0.289863
-0.289739
-0.289589
-0.289421
-0.289244
-0.289076
-0.288942
-0.288868
-0.288823
-0.28877
-0.289341
-0.286967
-0.28788
-0.288429
-0.288774
-0.289018
-0.289184
-0.28929
-0.289351
-0.289376
-0.289372
-0.289344
-0.289298
-0.289242
-0.289185
-0.289142
-0.289135
-0.289184
-0.289253
-0.289304
-0.289926
-0.285994
-0.286957
-0.287552
-0.287944
-0.288241
-0.288465
-0.288632
-0.288759
-0.288854
-0.288926
-0.288979
-0.289021
-0.289058
-0.2891
-0.289158
-0.289252
-0.289398
-0.289556
-0.289689
-0.290353
-0.285144
-0.286154
-0.28679
-0.287223
-0.287564
-0.287836
-0.288055
-0.288236
-0.28839
-0.288524
-0.288645
-0.288758
-0.28887
-0.288991
-0.289129
-0.289302
-0.289522
-0.28975
-0.28995
-0.290646
-0.284421
-0.285475
-0.286145
-0.286612
-0.28699
-0.287301
-0.287561
-0.287786
-0.287987
-0.288171
-0.288344
-0.288514
-0.288685
-0.288866
-0.289067
-0.2893
-0.289577
-0.289857
-0.290109
-0.29083
-0.283832
-0.284923
-0.285622
-0.286116
-0.286523
-0.286864
-0.287156
-0.287415
-0.287651
-0.287873
-0.288087
-0.288298
-0.288514
-0.288741
-0.288987
-0.289265
-0.289584
-0.289902
-0.290194
-0.290933
-0.283381
-0.284502
-0.285223
-0.285738
-0.286167
-0.28653
-0.286845
-0.287128
-0.28739
-0.287639
-0.287881
-0.288122
-0.288369
-0.288628
-0.288906
-0.289216
-0.289563
-0.289909
-0.290229
-0.29098
-0.283075
-0.284217
-0.284954
-0.285482
-0.285925
-0.286303
-0.286633
-0.286932
-0.28721
-0.287476
-0.287736
-0.287996
-0.288263
-0.288541
-0.28884
-0.289169
-0.289534
-0.289897
-0.290236
-0.290993
-0.282917
-0.284071
-0.284816
-0.285351
-0.285801
-0.286186
-0.286523
-0.286829
-0.287116
-0.28739
-0.287658
-0.287928
-0.288204
-0.288492
-0.2888
-0.289138
-0.289512
-0.289882
-0.29023
-0.290989
-0.310372
-0.372322
-0.342377
-0.242684
-0.136785
-0.0533146
-0.0092445
0.0270259
0.0329902
0.0358877
0.0321609
0.0287154
0.0244612
0.0200616
0.0158318
0.0122916
0.00912214
0.00660263
0.00380645
0.00168781
-0.310554
-0.372658
-0.342902
-0.243185
-0.137202
-0.0535808
-0.00945446
0.0268936
0.0329115
0.0358309
0.0321258
0.0286909
0.024444
0.0200481
0.0158202
0.0122827
0.0091154
0.00659792
0.00380331
0.00168493
-0.310921
-0.373355
-0.343945
-0.244128
-0.137974
-0.0540734
-0.00985699
0.0266253
0.032745
0.0357081
0.0320493
0.028639
0.0244089
0.0200216
0.0157981
0.0122662
0.00910305
0.00658926
0.00379745
0.00167926
-0.311423
-0.374343
-0.345446
-0.245472
-0.139087
-0.0547887
-0.0104455
0.0262204
0.0324899
0.0355182
0.0319307
0.0285591
0.0243557
0.0199822
0.0157655
0.0122421
0.00908515
0.00657669
0.00378899
0.00167085
-0.311989
-0.375528
-0.347321
-0.247164
-0.140527
-0.0557215
-0.0112107
0.0256787
0.0321455
0.0352591
0.0317687
0.0284509
0.0242843
0.0199296
0.0157223
0.0122103
0.00906178
0.00656026
0.0037781
0.00165979
-0.312537
-0.376798
-0.349475
-0.249142
-0.142271
-0.056865
-0.0121413
0.0250001
0.0317112
0.0349291
0.0315623
0.0283138
0.0241946
0.0198637
0.0156684
0.0121707
0.00903303
0.00654005
0.00376495
0.00164621
-0.312984
-0.378041
-0.351813
-0.251344
-0.144295
-0.0582111
-0.0132242
0.0241858
0.0311866
0.0345264
0.0313102
0.0281475
0.0240864
0.0197844
0.0156037
0.0121231
0.00899899
0.00651613
0.00374976
0.00163023
-0.313248
-0.379147
-0.354245
-0.253713
-0.146574
-0.0597504
-0.0144453
0.0232383
0.0305721
0.0340499
0.0310115
0.0279518
0.02396
0.0196916
0.0155281
0.0120673
0.00895978
0.00648858
0.00373275
0.00161202
-0.313263
-0.380019
-0.356692
-0.256201
-0.149078
-0.0614722
-0.0157893
0.0221618
0.0298689
0.0334991
0.0306657
0.0277266
0.0238154
0.0195855
0.0154416
0.0120033
0.00891549
0.00645749
0.00371414
0.00159177
-0.312977
-0.380578
-0.359093
-0.258771
-0.15178
-0.0633647
-0.0172405
0.0209625
0.0290792
0.0328745
0.0302727
0.0274723
0.0236529
0.0194661
0.0153441
0.011931
0.00886621
0.00642295
0.00369413
0.00156965
-0.312357
-0.380761
-0.361401
-0.261397
-0.154652
-0.0654152
-0.0187831
0.0196484
0.0282065
0.0321773
0.0298328
0.0271893
0.0234732
0.0193337
0.0152357
0.0118503
0.00881203
0.00638507
0.00367288
0.00154588
-0.311391
-0.380527
-0.363582
-0.264064
-0.157669
-0.067611
-0.0204015
0.0182292
0.0272552
0.0314103
0.029347
0.0268786
0.0232769
0.0191889
0.0151166
0.0117612
0.00875304
0.00634394
0.00365056
0.00152065
-0.310087
-0.379845
-0.365614
-0.266771
-0.160813
-0.0699419
-0.0220828
0.0167152
0.0262305
0.0305765
0.0288168
0.0265413
0.023065
0.0190321
0.014987
0.0116638
0.00868935
0.00629969
0.00362726
0.00149417
-0.308473
-0.3787
-0.367478
-0.269526
-0.164073
-0.0724006
-0.0238152
0.0151174
0.0251382
0.02968
0.0282438
0.0261788
0.0228385
0.0188641
0.0148475
0.0115583
0.00862106
0.00625243
0.0036031
0.00146665
-0.306583
-0.377073
-0.369134
-0.272319
-0.167418
-0.0749667
-0.0255765
0.0134537
0.0239872
0.0287254
0.0276299
0.0257923
0.0225983
0.0186857
0.0146982
0.0114448
0.0085482
0.00620224
0.00357809
0.00143826
-0.304463
-0.374952
-0.370509
-0.27509
-0.170765
-0.0775827
-0.0273251
0.0117529
0.0227905
0.0277196
0.0269775
0.0253829
0.0223453
0.0184971
0.0145393
0.0113233
0.0084707
0.00614909
0.00355218
0.00140918
-0.302176
-0.372385
-0.371663
-0.277858
-0.174114
-0.0802404
-0.0290758
0.0100155
0.021552
0.026672
0.0262938
0.0249553
0.0220823
0.0183007
0.0143726
0.0111948
0.00838919
0.00609351
0.00352552
0.00137953
-0.299719
-0.369443
-0.372982
-0.281126
-0.177983
-0.0832659
-0.0310678
0.00812582
0.0202334
0.0255835
0.0255902
0.0245198
0.0218179
0.0181042
0.0142043
0.0110644
0.00830671
0.00603767
0.00349919
0.00134955
-0.296544
-0.36561
-0.374196
-0.285411
-0.18296
-0.0870876
-0.033464
0.00600346
0.0188063
0.0244234
0.0248469
0.0240689
0.0215523
0.0179095
0.0140357
0.0109324
0.00822383
0.00598182
0.00347386
0.0013198
-0.291649
-0.359463
-0.371928
-0.287875
-0.18632
-0.0899811
-0.0348157
0.00441721
0.0175467
0.0231701
0.0239603
0.0235189
0.0212252
0.0176608
0.0138183
0.0107587
0.00811608
0.00590792
0.00344088
0.00129029
-0.25761
-0.314306
-0.337905
-0.282989
-0.187571
-0.0946717
-0.0330102
0.000912014
0.0124937
0.0159255
0.0180175
0.0196323
0.0188398
0.01576
0.0121281
0.0093761
0.00725683
0.00531258
0.0031656
0.00112267
-0.218563
-0.261599
-0.279532
-0.248687
-0.173387
-0.0927811
-0.0341306
-0.00582667
0.00293268
0.00467747
0.00753906
0.0118179
0.0138872
0.0122655
0.00909552
0.00687737
0.00564402
0.00437372
0.00264216
0.000725067
-0.190991
-0.216715
-0.224983
-0.203612
-0.150223
-0.0880617
-0.0397656
-0.014704
-0.00568339
-0.0031017
-1.27717e-05
0.00531052
0.00949523
0.0094862
0.00686271
0.00487701
0.00419212
0.00350002
0.00219564
0.000689354
-0.155674
-0.176913
-0.179328
-0.1634
-0.128274
-0.0846461
-0.0470216
-0.0233133
-0.0116457
-0.00706572
-0.00434646
0.000314876
0.0053829
0.00687666
0.00497885
0.00310643
0.00270527
0.00253934
0.00170063
0.000480116
-0.126376
-0.14367
-0.144783
-0.133603
-0.111484
-0.0818687
-0.0520368
-0.0289291
-0.0150611
-0.00926847
-0.00746566
-0.00426165
0.000904529
0.00376728
0.00288616
0.00126611
0.00106578
0.00140425
0.00108974
0.000287802
-0.102789
-0.11748
-0.11942
-0.112376
-0.098279
-0.0772796
-0.0527809
-0.0314398
-0.0176784
-0.0117578
-0.0103647
-0.00805938
-0.00303326
0.000900205
0.00116569
-2.93381e-05
-0.000109157
0.000555971
0.00069582
0.000243871
-0.0849231
-0.0974803
-0.100501
-0.0964586
-0.0867019
-0.0706913
-0.0508094
-0.0329122
-0.0208324
-0.0147632
-0.0126478
-0.0104802
-0.00591457
-0.00155705
-0.000353917
-0.00106948
-0.00110991
-0.000285013
0.000204669
8.18988e-05
-0.0714141
-0.0821668
-0.0857882
-0.0835223
-0.0760583
-0.0636405
-0.0484015
-0.0343326
-0.0238074
-0.0171592
-0.0139472
-0.011809
-0.00807643
-0.00386236
-0.00194808
-0.00207968
-0.00199879
-0.00106957
-0.00026783
-3.13374e-05
-0.0610438
-0.0702257
-0.0739081
-0.0725308
-0.066773
-0.057626
-0.0463662
-0.0351004
-0.0255768
-0.0186825
-0.014901
-0.0128515
-0.00986514
-0.00594923
-0.00347848
-0.00296838
-0.00268478
-0.00169952
-0.000676806
-0.000140443
-0.0529145
-0.0607103
-0.0641015
-0.0633728
-0.0593328
-0.0528053
-0.0441876
-0.0347894
-0.0263616
-0.0199175
-0.0159775
-0.013779
-0.0111702
-0.00758801
-0.00481299
-0.00375796
-0.00324068
-0.00222325
-0.00105624
-0.00025937
-0.0464075
-0.0529977
-0.0561003
-0.0560621
-0.0534156
-0.0485552
-0.0416917
-0.0339331
-0.026793
-0.0210136
-0.0169738
-0.0144614
-0.0120264
-0.00883428
-0.0059946
-0.00451514
-0.00372731
-0.00265543
-0.00138615
-0.00036974
-0.0411158
-0.0467528
-0.049697
-0.0501914
-0.0484343
-0.0447007
-0.0392872
-0.0330145
-0.0269856
-0.0217742
-0.0177314
-0.0149851
-0.0126407
-0.00979931
-0.00701511
-0.00521799
-0.00415017
-0.00299845
-0.00165844
-0.000470615
-0.0367688
-0.0417062
-0.0445266
-0.0453335
-0.0442051
-0.0414035
-0.0371863
-0.0320744
-0.026898
-0.0222052
-0.0183148
-0.0154531
-0.0131176
-0.0105209
-0.00784495
-0.00584211
-0.00452289
-0.00327337
-0.00187897
-0.00056002
-0.0331487
-0.0375833
-0.0402935
-0.0413226
-0.0407197
-0.0386681
-0.0353424
-0.0311068
-0.0266327
-0.0224347
-0.0187709
-0.0158631
-0.0134851
-0.0110422
-0.00849582
-0.00638312
-0.0048561
-0.00349695
-0.00205249
-0.000634968
-0.0300753
-0.0341869
-0.036846
-0.0380733
-0.0378896
-0.0363962
-0.0337315
-0.0301899
-0.0263064
-0.0225362
-0.0191003
-0.0161971
-0.0137717
-0.0114197
-0.00899489
-0.00683703
-0.00514895
-0.00367898
-0.00218521
-0.000694889
-0.0274406
-0.0314044
-0.0340812
-0.0354811
-0.0356145
-0.0345397
-0.032381
-0.0293856
-0.0259743
-0.0225479
-0.0193191
-0.0164593
-0.0140007
-0.0116946
-0.00936643
-0.00720175
-0.00539771
-0.00382639
-0.00228454
-0.000740762
-0.0251949
-0.0291684
-0.0319112
-0.0334622
-0.0338414
-0.0330846
-0.0313047
-0.0287186
-0.0256678
-0.0225098
-0.0194569
-0.0166576
-0.0141806
-0.0118923
-0.00963317
-0.00748104
-0.00559947
-0.0039432
-0.00235695
-0.000774197
-0.0233582
-0.0274462
-0.0302871
-0.0319779
-0.0325458
-0.0320169
-0.0305019
-0.0282049
-0.025416
-0.0224564
-0.0195388
-0.0167975
-0.0143134
-0.0120294
-0.00981561
-0.00768181
-0.00575196
-0.00403079
-0.00240736
-0.000797133
-0.0220036
-0.0262562
-0.0292055
-0.0310081
-0.031701
-0.0313156
-0.029968
-0.0278566
-0.0252391
-0.0224101
-0.0195828
-0.0168853
-0.0144005
-0.0121162
-0.00992926
-0.00781109
-0.0058538
-0.00408916
-0.00243911
-0.000811352
-0.0212566
-0.0256446
-0.0286625
-0.0305241
-0.0312787
-0.0309641
-0.0296998
-0.0276806
-0.0251485
-0.0223841
-0.0196019
-0.0169275
-0.0144435
-0.0121582
-0.00998385
-0.00787445
-0.00590474
-0.00411819
-0.00245428
-0.00081808
-0.172237
-0.182056
-0.191941
-0.201974
-0.212248
-0.222865
-0.233935
-0.245578
-0.257908
-0.271032
-0.285008
-0.29983
-0.315311
-0.331091
-0.346338
-0.360089
-0.370534
-0.376983
-0.377249
-0.37574
-0.112701
-0.116425
-0.119874
-0.123035
-0.125892
-0.128426
-0.130614
-0.132435
-0.133867
-0.134895
-0.135513
-0.135743
-0.135637
-0.135339
-0.135033
-0.135131
-0.135973
-0.138419
-0.142754
-0.151061
-0.0840139
-0.0882634
-0.0925445
-0.0968674
-0.101243
-0.105682
-0.110198
-0.114801
-0.119505
-0.124321
-0.129255
-0.13431
-0.139474
-0.144721
-0.149988
-0.155189
-0.160159
-0.164749
-0.168687
-0.171868
-0.0687768
-0.0716692
-0.0745255
-0.077347
-0.0801352
-0.0828909
-0.0856149
-0.0883079
-0.0909702
-0.0936023
-0.0962049
-0.0987799
-0.101332
-0.103869
-0.106407
-0.108973
-0.111617
-0.114408
-0.117506
-0.121148
-0.0566082
-0.0588953
-0.0611868
-0.0634853
-0.0657934
-0.0681134
-0.0704481
-0.0728
-0.0751716
-0.0775657
-0.0799845
-0.0824303
-0.0849047
-0.087408
-0.0899402
-0.0924956
-0.0950735
-0.0976555
-0.10027
-0.102899
-0.0488864
-0.0506551
-0.0524222
-0.0541887
-0.055955
-0.0577221
-0.0594907
-0.0612617
-0.0630361
-0.0648148
-0.066599
-0.0683897
-0.0701886
-0.0719968
-0.0738176
-0.0756519
-0.0775099
-0.0793914
-0.0813472
-0.0833921
-0.0426188
-0.0440131
-0.0454093
-0.0468077
-0.048209
-0.0496137
-0.0510225
-0.052436
-0.0538549
-0.0552796
-0.056711
-0.0581496
-0.0595961
-0.0610507
-0.0625148
-0.0639872
-0.0654729
-0.0669664
-0.0684993
-0.0700616
-0.0378702
-0.0389928
-0.0401164
-0.0412409
-0.0423667
-0.0434939
-0.0446228
-0.0457538
-0.046887
-0.0480228
-0.0491616
-0.0503037
-0.0514495
-0.0525991
-0.0537537
-0.0549125
-0.0560795
-0.0572506
-0.058451
-0.0596703
-0.0340013
-0.0349164
-0.0358319
-0.0367479
-0.0376646
-0.0385821
-0.0395007
-0.0404205
-0.0413416
-0.0422644
-0.043189
-0.0441155
-0.0450442
-0.0459752
-0.046909
-0.0478449
-0.0487857
-0.0497279
-0.0506897
-0.0516613
-0.0309142
-0.0316666
-0.032419
-0.0331716
-0.0339243
-0.0346774
-0.0354309
-0.0361849
-0.0369395
-0.0376948
-0.038451
-0.0392081
-0.0399663
-0.0407254
-0.041486
-0.0422474
-0.0430117
-0.0437761
-0.0445544
-0.0453386
-0.0283787
-0.0289974
-0.0296164
-0.0302358
-0.0308555
-0.0314756
-0.0320962
-0.0327172
-0.0333388
-0.033961
-0.0345837
-0.035207
-0.035831
-0.0364555
-0.0370807
-0.0377063
-0.0383336
-0.0389605
-0.0395972
-0.0402383
-0.0262402
-0.0267497
-0.0272601
-0.0277715
-0.0282838
-0.0287968
-0.0293107
-0.0298254
-0.0303408
-0.0308569
-0.0313736
-0.0318909
-0.0324086
-0.0329267
-0.0334452
-0.0339638
-0.0344832
-0.0350022
-0.035528
-0.0360573
-0.0243306
-0.0247519
-0.0251752
-0.0256004
-0.0260272
-0.0264557
-0.0268856
-0.0273169
-0.0277495
-0.0281831
-0.0286177
-0.029053
-0.029489
-0.0299254
-0.0303622
-0.0307991
-0.0312364
-0.0316733
-0.032115
-0.0325599
-0.0225094
-0.0228638
-0.0232214
-0.0235819
-0.0239451
-0.0243108
-0.0246787
-0.0250486
-0.0254202
-0.0257935
-0.026168
-0.0265435
-0.0269199
-0.0272969
-0.0276743
-0.0280517
-0.0284294
-0.0288067
-0.0291872
-0.0295706
-0.0206049
-0.0209161
-0.0212316
-0.021551
-0.0218738
-0.0221999
-0.0225287
-0.0228601
-0.0231937
-0.0235291
-0.0238659
-0.024204
-0.0245429
-0.0248824
-0.0252222
-0.025562
-0.0259018
-0.026241
-0.0265822
-0.026926
-0.0185252
-0.0188223
-0.019124
-0.0194298
-0.0197392
-0.0200518
-0.0203671
-0.0206847
-0.0210042
-0.0213252
-0.0216473
-0.0219701
-0.0222933
-0.0226166
-0.0229396
-0.023262
-0.0235837
-0.0239044
-0.0242255
-0.0245485
-0.0161122
-0.0164332
-0.0167577
-0.0170851
-0.0174149
-0.0177466
-0.0180797
-0.0184137
-0.0187482
-0.0190828
-0.0194171
-0.0197507
-0.0200834
-0.0204147
-0.0207445
-0.0210724
-0.0213983
-0.021722
-0.0220443
-0.0223667
-0.0135689
-0.0139453
-0.0143224
-0.0146996
-0.0150763
-0.0154522
-0.0158269
-0.0162
-0.016571
-0.0169398
-0.017306
-0.0176694
-0.0180297
-0.0183867
-0.0187403
-0.0190902
-0.0194365
-0.0197788
-0.0201178
-0.0204546
-0.0109892
-0.0114676
-0.0119395
-0.0124047
-0.0128632
-0.0133151
-0.0137602
-0.0141986
-0.0146302
-0.0150551
-0.0154733
-0.0158849
-0.0162898
-0.0166881
-0.0170798
-0.0174651
-0.0178438
-0.0182163
-0.0185827
-0.0189437
-0.00893091
-0.00951861
-0.0100909
-0.0106485
-0.0111921
-0.0117224
-0.0122399
-0.0127451
-0.0132384
-0.0137204
-0.0141914
-0.014652
-0.0151024
-0.015543
-0.0159743
-0.0163964
-0.0168096
-0.0172144
-0.017611
-0.0179999
-0.00642903
-0.00716024
-0.0078668
-0.00854997
-0.00921113
-0.00985137
-0.0104717
-0.0110731
-0.0116566
-0.012223
-0.0127731
-0.0133078
-0.0138277
-0.0143334
-0.0148257
-0.0153052
-0.0157723
-0.0162276
-0.0166718
-0.0171057
-0.0101353
-0.0106339
-0.0111264
-0.0116126
-0.0120924
-0.0125656
-0.013032
-0.0134916
-0.0139441
-0.0143897
-0.0148281
-0.0152595
-0.0156837
-0.0161008
-0.0165108
-0.0169138
-0.0173098
-0.0176988
-0.0180813
-0.0184583
-0.0138978
-0.0142171
-0.014543
-0.0148744
-0.0152103
-0.0155498
-0.0158922
-0.0162365
-0.0165822
-0.0169286
-0.0172751
-0.0176211
-0.0179663
-0.0183101
-0.0186521
-0.0189921
-0.0193297
-0.0196647
-0.0199975
-0.0203295