/*--------------------------------*- C++ -*----------------------------------*\
  =========                 |
  \\      /  F ield         | OpenFOAM: The Open Source CFD Toolbox
   \\    /   O peration     | Website:  https://openfoam.org
    \\  /    A nd           | Version:  6.0
     \\/     M anipulation  |
\*---------------------------------------------------------------------------*/
FoamFile
{
    version     2.0;
    format      ascii;
    class       surfaceScalarField;
    location    "15";
    object      phi;
}
// * * * * * * * * * * * * * * * * * * * * * * * * * * * * * * * * * * * * * //

dimensions      [0 3 -1 0 0 0 0];

internalField   nonuniform List<scalar> 
7840
(
-3.24517e-06
3.11155e-06
1.33625e-07
-1.14137e-05
7.83235e-06
3.36225e-07
-2.33122e-05
1.14086e-05
4.89883e-07
-3.79954e-05
1.40782e-05
6.04957e-07
-5.47232e-05
1.60379e-05
6.89929e-07
-7.2931e-05
1.74558e-05
7.51982e-07
-9.22037e-05
1.84756e-05
7.97092e-07
-0.000112254
1.92203e-05
8.30128e-07
-0.000132904
1.97952e-05
8.54966e-07
-0.000154069
2.02904e-05
8.74614e-07
-0.000175743
2.07829e-05
8.91336e-07
-0.000197987
2.13369e-05
9.06786e-07
-0.000220915
2.20053e-05
9.2212e-07
-0.000244682
2.28296e-05
9.38107e-07
-0.000269478
2.38402e-05
9.55191e-07
-0.000295507
2.50564e-05
9.73559e-07
-0.000322987
2.64867e-05
9.93184e-07
-0.00035213
2.81289e-05
1.01386e-06
-0.000383139
2.99738e-05
1.03528e-06
3.20147e-05
1.05714e-06
-0.000416211
-3.21467e-06
6.32622e-06
-1.13085e-05
1.59262e-05
-2.30937e-05
2.31938e-05
-3.76256e-05
2.86101e-05
-5.41614e-05
3.25737e-05
-7.21315e-05
3.54259e-05
-9.1114e-05
3.74582e-05
-0.000110814
3.89199e-05
-0.000131043
4.00245e-05
-0.000151707
4.09549e-05
-0.000172792
4.1867e-05
-0.000194347
4.28921e-05
-0.00021648
4.41385e-05
-0.000239342
4.56921e-05
-0.000263119
4.76167e-05
-0.000288017
4.99541e-05
-0.000314254
5.2724e-05
-0.000342049
5.59244e-05
-0.000371613
5.95379e-05
6.35509e-05
-0.00040315
-3.15451e-06
9.48073e-06
-1.11003e-05
2.3872e-05
-2.2661e-05
3.47545e-05
-3.68933e-05
4.28423e-05
-5.305e-05
4.87303e-05
-7.05521e-05
5.2928e-05
-8.89649e-05
5.5871e-05
-0.000107977
5.79319e-05
-0.000127382
5.94301e-05
-0.000147068
6.06399e-05
-0.000166997
6.17964e-05
-0.000187204
6.30991e-05
-0.00020778
6.47147e-05
-0.000228866
6.67777e-05
-0.00025064
6.93904e-05
-0.000273309
7.26231e-05
-0.000297098
7.65129e-05
-0.000322236
8.10631e-05
-0.000348951
8.62523e-05
9.20607e-05
-0.000377461
-3.06955e-06
1.25503e-05
-1.08042e-05
3.16066e-05
-2.20432e-05
4.59935e-05
-3.58454e-05
5.66446e-05
-5.14578e-05
6.43427e-05
-6.82887e-05
6.9759e-05
-8.58853e-05
7.34676e-05
-0.000103913
7.59596e-05
-0.00012214
7.76569e-05
-0.000140423
7.89227e-05
-0.000158697
8.00704e-05
-0.000176967
8.13696e-05
-0.000195301
8.30487e-05
-0.00021382
8.52968e-05
-0.000232693
8.82629e-05
-0.000252124
9.20551e-05
-0.000272349
9.67375e-05
-0.000293615
0.000102329
-0.000316173
0.000108811
0.000116159
-0.000340272
-2.96628e-06
1.55166e-05
-1.04401e-05
3.90805e-05
-2.12787e-05
5.6832e-05
-3.4544e-05
6.99099e-05
-4.94761e-05
7.92748e-05
-6.5469e-05
8.57518e-05
-8.20478e-05
9.00464e-05
-9.88499e-05
9.27617e-05
-0.000115609
9.44164e-05
-0.000132146
9.54589e-05
-0.000148354
9.62791e-05
-0.000164202
9.72169e-05
-0.00017972
9.85667e-05
-0.000195002
0.000100579
-0.0002102
0.000103461
-0.000225514
0.000107369
-0.000241189
0.000112412
-0.000257498
0.000118638
-0.000274732
0.000126044
0.000134611
-0.000293183
-2.85188e-06
1.83685e-05
-1.00301e-05
4.62588e-05
-2.041e-05
6.72119e-05
-3.30571e-05
8.2557e-05
-4.72054e-05
9.34231e-05
-6.22338e-05
0.00010078
-7.76443e-05
0.000105457
-9.30429e-05
0.00010816
-0.000108125
0.000109498
-0.000122664
0.000109998
-0.000136508
0.000110123
-0.000149572
0.000110281
-0.000161841
0.000110836
-0.000173369
0.000112107
-0.000184278
0.000114369
-0.000194758
0.00011785
-0.000205064
0.000122717
-0.000215499
0.000129073
-0.00022641
0.000136954
0.000146359
-0.000238157
-2.73318e-06
2.11016e-05
-9.59501e-06
5.31206e-05
-1.94767e-05
7.70936e-05
-3.14482e-05
9.45285e-05
-4.47389e-05
0.000106714
-5.87148e-05
0.000114756
-7.28556e-05
0.000119598
-8.67355e-05
0.00012204
-0.000100009
0.000122772
-0.0001124
0.00012239
-0.000123699
0.000121422
-0.00013376
0.000120342
-0.000142507
0.000119583
-0.000149937
0.000119537
-0.000156131
0.000120563
-0.000161255
0.000122974
-0.000165565
0.000127028
-0.000169403
0.000132912
-0.000173185
0.000140736
0.000150545
-0.000177371
-2.61561e-06
2.37172e-05
-9.15087e-06
5.96559e-05
-1.85089e-05
8.64516e-05
-2.97645e-05
0.000105784
-4.21457e-05
0.000119095
-5.50091e-05
0.00012762
-6.78164e-05
0.000132405
-8.01137e-05
0.000134338
-9.15156e-05
0.000134174
-0.000101695
0.00013257
-0.000110381
0.000130107
-0.000117357
0.000127318
-0.000122471
0.000124697
-0.000125648
0.000122714
-0.000126903
0.000121819
-0.000126361
0.000122432
-0.000124268
0.000124934
-0.000120997
0.000129641
-0.000117048
0.000136787
0.000146519
-0.000113021
-2.50236e-06
2.62196e-05
-8.70633e-06
6.58598e-05
-1.75213e-05
9.52666e-05
-2.80272e-05
0.00011629
-3.94541e-05
0.000130522
-5.11554e-05
0.000139321
-6.25816e-05
0.000143831
-7.32575e-05
0.000145013
-8.27647e-05
0.000143681
-9.07293e-05
0.000140534
-9.68176e-05
0.000136196
-0.000100739
0.000131239
-0.000102253
0.000126212
-0.000101194
0.000121655
-9.74892e-05
0.000118113
-9.11908e-05
0.000116134
-8.25087e-05
0.000116252
-7.1836e-05
0.000118968
-5.97654e-05
0.000124716
0.000133829
-4.70759e-05
-2.39375e-06
2.86134e-05
-8.26058e-06
7.17267e-05
-1.65088e-05
0.000103515
-2.6223e-05
0.000126004
-3.66389e-05
0.000140938
-4.71133e-05
0.000149795
-5.70947e-05
0.000153813
-6.60971e-05
0.000154016
-7.36798e-05
0.000151263
-7.94322e-05
0.000146287
-8.29666e-05
0.00013973
-8.39188e-05
0.000132191
-8.19584e-05
0.000124251
-7.68103e-05
0.000116507
-6.82881e-05
0.000109591
-5.63392e-05
0.000104185
-4.10986e-05
0.000101012
-2.29471e-05
0.000100816
-2.56372e-06
0.000104333
0.000112214
1.90515e-05
-2.2872e-06
3.09006e-05
-7.80285e-06
7.72423e-05
-1.54454e-05
0.000111157
-2.43016e-05
0.00013486
-3.36151e-05
0.000150251
-4.27521e-05
0.000158932
-5.11683e-05
0.000162229
-5.83796e-05
0.000161227
-6.39378e-05
0.000156822
-6.7412e-05
0.000149761
-6.83765e-05
0.000140695
-6.64072e-05
0.000130222
-6.10885e-05
0.000118932
-5.20339e-05
0.000107452
-3.89236e-05
9.64808e-05
-2.15633e-05
8.68244e-05
3.58227e-08
7.94124e-05
2.55578e-05
7.52945e-05
5.42678e-05
7.56229e-05
8.1567e-05
8.49145e-05
-2.1776e-06
3.30782e-05
-7.31355e-06
8.23783e-05
-1.42855e-05
0.000118129
-2.21771e-05
0.000142752
-3.0239e-05
0.000158313
-3.785e-05
0.000166543
-4.44799e-05
0.000168859
-4.96581e-05
0.000166405
-5.29447e-05
0.000160108
-5.39091e-05
0.000150725
-5.21118e-05
0.000138897
-4.70947e-05
0.000125205
-3.838e-05
0.000110218
-2.54845e-05
9.45567e-05
-7.95364e-06
7.895e-05
1.45731e-05
6.42977e-05
4.22598e-05
5.17257e-05
7.49273e-05
4.2627e-05
0.000111851
3.86991e-05
4.18903e-05
0.000151528
-2.05824e-06
3.51364e-05
-6.76691e-06
8.70869e-05
-1.29692e-05
0.000124332
-1.97364e-05
0.000149519
-2.632e-05
0.000164897
-3.21089e-05
0.000172332
-3.65889e-05
0.000173339
-3.93087e-05
0.000169125
-3.98501e-05
0.00016065
-3.78023e-05
0.000148677
-3.27408e-05
0.000133836
-2.42097e-05
0.000116674
-1.17112e-05
9.77194e-05
5.29346e-06
7.7552e-05
2.73625e-05
5.68809e-05
5.50167e-05
3.66435e-05
8.86281e-05
1.81143e-05
0.000128233
3.02227e-06
0.000173224
-6.29254e-06
-6.78941e-06
0.000221904
-1.92203e-06
3.70584e-05
-6.13467e-06
9.12996e-05
-1.14297e-05
0.000129627
-1.68509e-05
0.00015494
-2.16388e-05
0.000169685
-2.51817e-05
0.000175875
-2.69743e-05
0.000175131
-2.65817e-05
0.000168733
-2.36104e-05
0.000157678
-1.76827e-05
0.00014275
-8.41379e-06
0.000124567
4.6097e-06
0.00010365
2.18494e-05
8.04797e-05
4.38295e-05
5.55719e-05
7.11377e-05
2.95727e-05
0.000104394
3.38709e-06
0.000144159
-2.16509e-05
0.000190736
-4.35548e-05
0.000243775
-5.93313e-05
-6.4548e-05
0.000301534
-1.76269e-06
3.88211e-05
-5.38978e-06
9.49266e-05
-9.60033e-06
0.000133837
-1.33908e-05
0.000158731
-1.59703e-05
0.000172264
-1.67079e-05
0.000176613
-1.50884e-05
0.000173512
-1.06777e-05
0.000164322
-3.09611e-06
0.000150097
8.00361e-06
0.00013165
2.29552e-05
0.000109615
4.20984e-05
8.45069e-05
6.58013e-05
5.67768e-05
9.44854e-05
2.68877e-05
0.000128651
-4.59259e-06
0.000168885
-3.68469e-05
0.000215824
-6.85898e-05
0.000270004
-9.77356e-05
0.000331454
-0.000120781
-0.00013175
0.000398656
-1.57551e-06
4.03966e-05
-4.50891e-06
9.786e-05
-7.42106e-06
0.000136749
-9.23532e-06
0.000160545
-9.10339e-06
0.000172132
-6.34691e-06
0.000173856
-4.11662e-07
0.000167577
9.16541e-06
0.000154745
2.27784e-05
0.000136484
4.07667e-05
0.000113662
6.34251e-05
8.6957e-05
9.10132e-05
5.69188e-05
0.000123769
2.40212e-05
0.000161931
-1.12744e-05
0.000205776
-4.84374e-05
0.000255664
-8.67354e-05
0.000312076
-0.000125002
0.000375583
-0.000161242
0.00044658
-0.000191778
-0.000209267
0.000524097
-1.35731e-06
4.17539e-05
-3.47269e-06
9.99754e-05
-4.83912e-06
0.000138116
-4.2775e-06
0.000159984
-8.5071e-07
0.000168706
6.20122e-06
0.000166804
1.75091e-05
0.000156269
3.36055e-05
0.000138648
5.49414e-05
0.000115148
8.18912e-05
8.67118e-05
0.000114749
5.40988e-05
0.000153724
1.79447e-05
0.000198927
-2.11825e-05
0.000250382
-6.27292e-05
0.000308039
-0.000106094
0.00037183
-0.000150527
0.000441758
-0.00019493
0.000518001
-0.000237484
0.000600953
-0.000274731
-0.00029876
0.000690445
-1.10546e-06
4.28594e-05
-2.26293e-06
0.000101133
-1.80488e-06
0.000137658
1.58187e-06
0.000156597
8.95674e-06
0.000161331
2.11981e-05
0.000154563
3.9054e-05
0.000138413
6.31712e-05
0.000114531
9.41066e-05
8.42125e-05
0.000132323
4.84955e-05
0.000178172
8.24939e-06
0.000231871
-3.57536e-05
0.000293464
-8.27762e-05
0.000362797
-0.000132062
0.000439482
-0.00018278
0.000522913
-0.000233957
0.000612322
-0.000284339
0.00070693
-0.000332092
0.000806249
-0.000374051
-0.000403538
0.000911027
-8.16066e-07
4.36755e-05
-8.57481e-07
0.000101174
1.7378e-06
0.000135062
8.44859e-06
0.000149886
2.04894e-05
0.00014929
3.88918e-05
0.00013616
6.45578e-05
0.000112747
9.82877e-05
8.08014e-05
0.000140786
4.17137e-05
0.000192654
-3.37181e-06
0.000254359
-5.3456e-05
0.000326205
-0.0001076
0.000408278
-0.000164849
0.000500382
-0.000224166
0.000601957
-0.000284355
0.000711979
-0.00034398
0.000828869
-0.000401229
0.000950422
-0.000453645
0.00107403
-0.000497662
-0.000530079
0.00120057
-4.81715e-07
4.41572e-05
7.76067e-07
9.99165e-05
5.86325e-06
0.000129975
1.64537e-05
0.000139295
3.3946e-05
0.000131798
5.95525e-05
0.000110554
9.43544e-05
7.79449e-05
0.000139326
3.58295e-05
0.000195339
-1.42992e-05
0.000263147
-7.11795e-05
0.000343363
-0.000133672
0.000436435
-0.000200671
0.000542611
-0.000271025
0.000661911
-0.000343465
0.000794074
-0.000416518
0.000938478
-0.000488384
0.00109393
-0.000556677
0.00125791
-0.000617624
0.00142383
-0.000663582
-0.000677482
0.00157123
-9.04403e-08
4.42476e-05
2.68443e-06
9.71416e-05
1.06724e-05
0.000121987
2.57676e-05
0.0001242
4.95743e-05
0.000107991
8.35011e-05
7.6627e-05
0.000128812
3.26336e-05
0.000186646
-2.20039e-05
0.000258006
-8.56595e-05
0.000343748
-0.000156921
0.000444555
-0.00023448
0.000560934
-0.000317051
0.00069323
-0.000403321
0.000841688
-0.000491923
0.0010066
-0.000581426
0.00118857
-0.000670359
0.0013891
-0.000757202
0.00161179
-0.000840318
0.00186634
-0.00091813
-0.000985898
0.00217475
3.77838e-07
4.38698e-05
4.93504e-06
9.25844e-05
1.63011e-05
0.000110621
3.66089e-05
0.000103892
6.76798e-05
7.692e-05
0.000111116
3.31906e-05
0.000168341
-2.45913e-05
0.0002406
-9.42624e-05
0.000328935
-0.000173995
0.000434159
-0.000262144
0.000556819
-0.00035714
0.000697194
-0.000457427
0.000855317
-0.000561444
0.00103104
-0.000667642
0.00122414
-0.00077453
0.00143455
-0.00088077
0.00166264
-0.000985288
0.00190972
-0.0010874
0.00217842
-0.00118683
-0.00127573
0.00246826
9.46685e-07
4.29231e-05
7.60702e-06
8.59241e-05
2.29063e-05
9.5322e-05
4.9225e-05
7.75737e-05
8.85977e-05
3.75472e-05
0.000142794
-2.10056e-05
0.000213335
-9.51326e-05
0.00030147
-0.000182397
0.000408125
-0.00028065
0.000533854
-0.000387873
0.000678798
-0.000502084
0.000842677
-0.000621305
0.00102481
-0.000743575
0.00122417
-0.000867003
0.00143949
-0.000989849
0.00166934
-0.00111063
0.00191227
-0.00122821
0.00216677
-0.00134191
0.00243126
-0.00145132
-0.00154829
0.00270381
1.64385e-06
4.12792e-05
1.07886e-05
7.67793e-05
3.06562e-05
7.54544e-05
6.38685e-05
4.43614e-05
0.000112648
-1.12319e-05
0.000178871
-8.7229e-05
0.000264054
-0.000180316
0.000369291
-0.000287634
0.000495178
-0.000406537
0.000641747
-0.000534443
0.000808435
-0.000668772
0.000994087
-0.000806956
0.00119701
-0.000946497
0.00141506
-0.00108506
0.00164577
-0.00122056
0.00188643
-0.00135129
0.00213418
-0.00147596
0.00238602
-0.00159375
0.00263889
-0.00170419
-0.00180074
0.00289134
2.49751e-06
3.87817e-05
1.45661e-05
6.47107e-05
3.97068e-05
5.03137e-05
8.07558e-05
3.31246e-06
0.000140066
-7.05421e-05
0.000219521
-0.000166684
0.000320472
-0.000281267
0.000443641
-0.000410803
0.000589028
-0.000551923
0.000755851
-0.000701266
0.00094255
-0.000855471
0.00114685
-0.00101126
0.00136589
-0.00116554
0.00159637
-0.00131554
0.00183476
-0.00145895
0.00207743
-0.00159395
0.00232078
-0.0017193
0.00256131
-0.00183428
0.00279581
-0.00193868
-0.00202806
0.00302313
3.53314e-06
3.52486e-05
1.90127e-05
4.92311e-05
5.01788e-05
1.91476e-05
0.000100025
-4.65338e-05
0.000170939
-0.000141456
0.000264654
-0.000260399
0.00038214
-0.000398753
0.000523475
-0.000552138
0.000687761
-0.000716209
0.000873112
-0.000886617
0.00107674
-0.0010591
0.00129513
-0.00122965
0.00152426
-0.00139467
0.00175988
-0.00155115
0.00199773
-0.0016968
0.00223379
-0.00183002
0.00246444
-0.00194995
0.0026865
-0.00205635
0.00289739
-0.00214957
-0.00222723
0.00309656
4.77089e-06
3.04777e-05
2.41797e-05
2.98223e-05
6.21371e-05
-1.88097e-05
0.000121701
-0.000106097
0.000205144
-0.000224899
0.00031384
-0.000369095
0.000448099
-0.000533012
0.000607045
-0.000711085
0.000788584
-0.000897747
0.000989494
-0.00108753
0.00120565
-0.00127526
0.00143234
-0.00145633
0.0016646
-0.00162693
0.00189761
-0.00178416
0.00212694
-0.00192612
0.00234877
-0.00205185
0.00256006
-0.00216123
0.00275853
-0.00225482
0.0029427
-0.00233374
-0.00239733
0.00311279
6.22381e-06
2.42539e-05
3.00894e-05
5.95668e-06
7.55758e-05
-6.42962e-05
0.000145666
-0.000176188
0.000242318
-0.000321551
0.000366269
-0.000493047
0.000516857
-0.0006836
0.000691934
-0.000886162
0.000887963
-0.00109378
0.00110028
-0.00129984
0.00132347
-0.00149846
0.0015519
-0.00168476
0.00178009
-0.00185513
0.00200318
-0.00200725
0.00221713
-0.00214007
0.00241891
-0.00225363
0.0026065
-0.00234882
0.00277884
-0.00242716
0.00293569
-0.00249059
-0.0025398
0.00307816
7.89705e-06
1.63568e-05
3.67312e-05
-2.28775e-05
9.04096e-05
-0.000117975
0.000171652
-0.00025743
0.000281839
-0.000431738
0.000420758
-0.000631965
0.000586436
-0.000849278
0.000775191
-0.00107492
0.000981909
-0.00130049
0.00120054
-0.00151847
0.00142468
-0.0017226
0.00164819
-0.00190826
0.00186564
-0.00207259
0.00207271
-0.00221432
0.00226629
-0.00233365
0.0024445
-0.00243184
0.0026066
-0.00251092
0.00275275
-0.00257332
0.00288384
-0.00262167
-0.00265765
0.00300169
9.78749e-06
6.56934e-06
4.40598e-05
-5.71498e-05
0.000106469
-0.000180384
0.000199231
-0.000350191
0.000322839
-0.000555347
0.000475784
-0.00078491
0.000654488
-0.00102798
0.000853562
-0.00127399
0.00106636
-0.00151329
0.00128572
-0.00173782
0.0015047
-0.00194158
0.00171723
-0.0021208
0.00191853
-0.00227389
0.0021053
-0.0024011
0.00227571
-0.00250406
0.00242919
-0.00258532
0.00256622
-0.00264795
0.00268803
-0.00269513
0.00279629
-0.00272994
-0.00275464
0.00289329
1.18836e-05
-5.31427e-06
5.19945e-05
-9.72607e-05
0.000123502
-0.000251892
0.000227826
-0.000454515
0.000364229
-0.00069175
0.000529573
-0.000950255
0.000718459
-0.00121687
0.000923787
-0.00147932
0.00113762
-0.00172713
0.00135213
-0.00195234
0.00156043
-0.00214988
0.00175712
-0.00231749
0.00193854
-0.00245531
0.00210274
-0.0025653
0.00224926
-0.00265057
0.00237878
-0.00271484
0.00249278
-0.00276195
0.00259319
-0.00279555
0.00268215
-0.00281889
-0.00283453
0.00276204
1.41652e-05
-1.94795e-05
6.04189e-05
-0.000143514
0.000141176
-0.000332648
0.000256726
-0.000570065
0.000404751
-0.000839774
0.000580211
-0.00112571
0.000775805
-0.00141246
0.000982906
-0.00168642
0.00119272
-0.00193694
0.00139734
-0.00215696
0.00159052
-0.00234306
0.00176804
-0.00249501
0.00192765
-0.00261492
0.00206884
-0.00270649
0.00219241
-0.00277414
0.00230004
-0.00282247
0.00239387
-0.00285579
0.00247622
-0.00287789
0.00254931
-0.00289199
-0.00290064
0.00261543
1.66032e-05
-3.60827e-05
6.91819e-05
-0.000196093
0.000159084
-0.00042255
0.000285116
-0.000696098
0.000443052
-0.00099771
0.000625786
-0.00130845
0.000824209
-0.00161089
0.00102854
-0.00189075
0.0012297
-0.00213809
0.00142032
-0.00234758
0.00159531
-0.00251806
0.00175191
-0.00265161
0.00188938
-0.00275239
0.00200853
-0.00282563
0.00211116
-0.00287677
0.00219962
-0.00291092
0.00227637
-0.00293254
0.0023438
-0.00294532
0.00240404
-0.00295222
-0.00295565
0.00245904
1.91592e-05
-5.52419e-05
7.81002e-05
-0.000255034
0.000176762
-0.000521212
0.000312114
-0.000831451
0.000477769
-0.00116336
0.000664536
-0.00149521
0.000861783
-0.00180813
0.00105911
-0.00208808
0.00124774
-0.00232673
0.00142141
-0.00252124
0.00157651
-0.00267315
0.00171184
-0.00278694
0.00182807
-0.00286862
0.00192704
-0.00292461
0.00201126
-0.00296099
0.00208338
-0.00298305
0.00214594
-0.0029951
0.00220117
-0.00300055
0.00225094
-0.00300199
-0.00300158
0.00229686
2.17858e-05
-7.70278e-05
8.69624e-05
-0.000320211
0.000193703
-0.000627952
0.000336823
-0.00097457
0.000507626
-0.00133417
0.000694991
-0.00168258
0.000887212
-0.00200035
0.00107387
-0.00227473
0.00124708
-0.00249995
0.00140204
-0.0026762
0.00153677
-0.00280789
0.00165157
-0.00290173
0.00174822
-0.00296527
0.00182932
-0.00300571
0.00189772
-0.00302939
0.00195614
-0.00304146
0.00200695
-0.00304591
0.00205213
-0.00304572
0.00209324
-0.0030431
-0.00303988
0.00213154
2.44273e-05
-0.000101455
9.55363e-05
-0.00039132
0.000209386
-0.000741802
0.000358383
-0.00112357
0.000531524
-0.00150731
0.000716078
-0.00186713
0.000899826
-0.0021841
0.00107292
-0.00244782
0.00122883
-0.00265586
0.00136441
-0.00281178
0.00147927
-0.00292274
0.00157495
-0.00299742
0.00165408
-0.0030444
0.00171967
-0.00307131
0.00177465
-0.00308437
0.00182159
-0.0030884
0.00186261
-0.00308693
0.00189936
-0.00308248
0.00193311
-0.00307685
-0.00307158
0.0019648
2.70214e-05
-0.000128477
0.000103579
-0.000467877
0.000223301
-0.000861525
0.000376032
-0.0012763
0.000548617
-0.00167989
0.000727178
-0.00204569
0.000899582
-0.00235651
0.00105707
-0.00260531
0.00119475
-0.00279354
0.00131114
-0.00292816
0.00140726
-0.00301886
0.00148562
-0.00307578
0.00154935
-0.00310814
0.00160162
-0.00312357
0.00164523
-0.00312798
0.00168248
-0.00312566
0.00171519
-0.00311963
0.00174469
-0.00311198
0.00177197
-0.00310413
-0.00309733
0.00179772
2.95014e-05
-0.000157978
0.000110848
-0.000549223
0.000234979
-0.000985656
0.000389149
-0.00143047
0.000558357
-0.0018491
0.000728131
-0.00221547
0.000886987
-0.00251536
0.00102764
-0.00274597
0.00114693
-0.00291283
0.00124495
-0.00302618
0.00132384
-0.00309775
0.00138677
-0.00313871
0.00143712
-0.00315848
0.00147796
-0.00316441
0.00151185
-0.00316187
0.00154079
-0.00315459
0.00156625
-0.0031451
0.00158931
-0.00313504
0.00161071
-0.00312553
-0.00311756
0.00163095
3.17986e-05
-0.000189776
0.000117112
-0.000634537
0.000244019
-0.00111256
0.000397291
-0.00158374
0.000560512
-0.00201232
0.000719192
-0.00237415
0.000862974
-0.00265914
0.000986273
-0.00286927
0.00108763
-0.00301419
0.00116847
-0.00310701
0.00123178
-0.00316107
0.00128111
-0.00318804
0.00131982
-0.00319719
0.00135079
-0.00319537
0.00137625
-0.00318733
0.00139788
-0.00317622
0.00141686
-0.00316408
0.00143402
-0.0031522
0.00144992
-0.00314144
-0.00313255
0.00146491
3.38457e-05
0.000122167
0.00025011
0.000400208
0.000555145
0.000700955
0.000828764
0.000934759
0.00101903
0.00108408
0.00113345
0.00117081
0.00119936
0.00122168
0.00123968
0.00125472
0.00126772
0.00127934
0.00128998
0.00129988
3.38487e-05
0.000189774
0.000122178
0.000634555
0.000250132
0.00111261
0.000400244
0.00158383
0.000555193
0.00201245
0.000701012
0.0023743
0.000828828
0.00265931
0.000934828
0.00286945
0.00101911
0.00301437
0.00108415
0.0031072
0.00113353
0.00316126
0.00117088
0.00318822
0.00119943
0.00319738
0.00122175
0.00319556
0.00123975
0.00318751
0.00125479
0.0031764
0.00126779
0.00316426
0.00127941
0.00315238
0.00129004
0.00314162
0.00313273
0.00129994
3.18014e-05
0.000157973
0.000117123
0.000549233
0.000244041
0.000985695
0.000397327
0.00143054
0.000560562
0.00184921
0.000719253
0.00221561
0.000863044
0.00251552
0.000986349
0.00274614
0.00108771
0.00291301
0.00116855
0.00302636
0.00123187
0.00309794
0.00128119
0.0031389
0.00131991
0.00315867
0.00135087
0.00316459
0.00137633
0.00316205
0.00139796
0.00315478
0.00141694
0.00314528
0.0014341
0.00313522
0.00145
0.00312572
0.00311775
0.00146499
2.95039e-05
0.000128469
0.000110858
0.000467879
0.000235001
0.000861552
0.000389185
0.00127636
0.000558408
0.00167999
0.000728195
0.00204582
0.000887061
0.00235666
0.00102772
0.00260548
0.00114702
0.00279371
0.00124504
0.00292834
0.00132393
0.00301904
0.00138687
0.00307596
0.00143721
0.00310832
0.00147805
0.00312376
0.00151194
0.00312816
0.00154088
0.00312584
0.00156634
0.00311982
0.0015894
0.00311216
0.0016108
0.00310432
0.00309751
0.00163104
2.70237e-05
0.000101445
0.000103588
0.000391315
0.000223322
0.000741819
0.000376067
0.00112361
0.000548667
0.00150739
0.000727244
0.00186724
0.00089966
0.00218424
0.00105716
0.00244798
0.00119484
0.00265603
0.00131124
0.00281195
0.00140736
0.00292292
0.00148572
0.0029976
0.00154946
0.00304458
0.00160173
0.00307149
0.00164533
0.00308455
0.00168259
0.00308858
0.00171529
0.00308711
0.00174479
0.00308266
0.00177207
0.00307704
0.00307176
0.00179782
2.44293e-05
7.70162e-05
9.55446e-05
0.0003202
0.000209405
0.000627958
0.000358416
0.000974603
0.000531574
0.00133423
0.000716144
0.00168267
0.000899907
0.00200048
0.00107301
0.00227487
0.00122894
0.00250011
0.00136452
0.00267637
0.00147938
0.00280806
0.00157506
0.00290191
0.0016542
0.00296545
0.00171979
0.00300589
0.00177477
0.00302957
0.00182171
0.00304164
0.00186273
0.00304609
0.00189948
0.00304591
0.00193323
0.00304329
0.00304007
0.00196493
2.17874e-05
5.52288e-05
8.69697e-05
0.000255017
0.00019372
0.000521207
0.000336854
0.000831469
0.000507674
0.00116341
0.000695056
0.00149529
0.000887294
0.00180824
0.00107396
0.00208821
0.00124719
0.00232688
0.00140216
0.0025214
0.0015369
0.00267332
0.0016517
0.00278711
0.00174835
0.00286879
0.00182946
0.00292479
0.00189786
0.00296117
0.00195628
0.00298323
0.00200709
0.00299528
0.00205227
0.00300073
0.00209338
0.00300218
0.00300176
0.00213169
1.91605e-05
3.60683e-05
7.81064e-05
0.000196071
0.000176777
0.000422537
0.000312143
0.000696104
0.000477814
0.000997741
0.000664598
0.00130851
0.000861864
0.00161097
0.0010592
0.00189087
0.00124786
0.00213822
0.00142153
0.00234772
0.00157664
0.00251822
0.00171198
0.00265177
0.00182821
0.00275256
0.0019272
0.00282581
0.00201142
0.00287695
0.00208354
0.0029111
0.0021461
0.00293272
0.00220133
0.0029455
0.0022511
0.00295241
0.00295583
0.00229703
1.66042e-05
1.94641e-05
6.91869e-05
0.000143489
0.000159096
0.000332627
0.000285141
0.000570059
0.000443092
0.00083979
0.000625844
0.00112576
0.000824288
0.00141253
0.00102864
0.00168651
0.00122982
0.00193705
0.00142045
0.00215709
0.00159545
0.00234321
0.00175207
0.00249516
0.00188954
0.00261508
0.0020087
0.00270665
0.00211134
0.00277431
0.00219979
0.00282264
0.00227655
0.00285596
0.00234399
0.00287807
0.00240422
0.00289217
0.00290083
0.00245923
1.41658e-05
5.29828e-06
6.04225e-05
9.72321e-05
0.000141186
0.000251864
0.000256747
0.000454498
0.000404786
0.000691751
0.000580264
0.000950278
0.000775879
0.00121692
0.000983
0.00147939
0.00119283
0.00172722
0.00139747
0.00195245
0.00159067
0.00215001
0.00176821
0.00231763
0.00192783
0.00245546
0.00206903
0.00256546
0.0021926
0.00265074
0.00230023
0.00271501
0.00239407
0.00276212
0.00247642
0.00279572
0.00254952
0.00281907
0.00283471
0.00261563
1.18837e-05
-6.58545e-06
5.19965e-05
5.71193e-05
0.000123509
0.000180351
0.000227842
0.000350166
0.000364258
0.000555335
0.000529619
0.000784916
0.000718525
0.00102801
0.000923875
0.00127404
0.00113773
0.00151337
0.00135226
0.00173792
0.00156058
0.00194169
0.00175729
0.00212092
0.00193873
0.00227403
0.00210294
0.00240124
0.00224947
0.00250421
0.00237899
0.00258549
0.002493
0.00264812
0.00259342
0.0026953
0.00268238
0.00273011
0.00275482
0.00276228
9.78709e-06
-1.63725e-05
4.406e-05
2.28464e-05
0.000106473
0.000117939
0.000199241
0.000257397
0.000322861
0.000431715
0.000475822
0.000631956
0.000654545
0.000849286
0.000853642
0.00107494
0.00106647
0.00130054
0.00128585
0.00151854
0.00150485
0.00172268
0.0017174
0.00190837
0.00191872
0.0020727
0.00210551
0.00221445
0.00227593
0.00233379
0.00242942
0.00243199
0.00256647
0.00251107
0.00268829
0.00257348
0.00279656
0.00262184
0.00265782
0.00289355
7.896e-06
-2.42685e-05
3.67293e-05
-5.98694e-06
9.04089e-05
6.4259e-05
0.000171656
0.00017615
0.000281853
0.000321518
0.000420785
0.000493024
0.000586482
0.000683589
0.000775259
0.000886168
0.000982002
0.0010938
0.00120066
0.00129988
0.00142483
0.00149852
0.00164836
0.00168484
0.00186584
0.00185522
0.00207293
0.00200736
0.00226653
0.00214019
0.00244476
0.00225376
0.00260687
0.00234897
0.00275303
0.00242731
0.00288413
0.00249075
0.00253996
0.00300199
6.222e-06
-3.04905e-05
3.00851e-05
-2.98501e-05
7.55708e-05
1.87733e-05
0.000145664
0.000106057
0.000242322
0.000224859
0.000366286
0.00036906
0.00051689
0.000532985
0.000691989
0.000711069
0.000888043
0.000897745
0.00110038
0.00108754
0.00132361
0.00127529
0.00155206
0.00145638
0.00178029
0.001627
0.0020034
0.00178425
0.00221738
0.00192622
0.00241918
0.00205196
0.00260679
0.00216136
0.00277915
0.00225495
0.00293601
0.00233388
0.00239748
0.00307849
4.76826e-06
-3.52588e-05
2.4173e-05
-4.92549e-05
6.21276e-05
-1.91812e-05
0.000121691
4.64933e-05
0.000205139
0.000141411
0.000313845
0.000260354
0.000448119
0.000398711
0.000607086
0.000552102
0.000788649
0.000716182
0.000989587
0.000886603
0.00120577
0.0010591
0.00143249
0.00122966
0.00166479
0.0013947
0.00189783
0.0015512
0.00212719
0.00169686
0.00234905
0.0018301
0.00256036
0.00195005
0.00275886
0.00205646
0.00294304
0.0021497
0.00222737
0.00311315
3.52972e-06
-3.87885e-05
1.90038e-05
-6.4729e-05
5.01655e-05
-5.03429e-05
0.00010001
-3.35156e-06
0.000170926
7.04949e-05
0.00026465
0.000166631
0.000382149
0.000281212
0.000523502
0.000410749
0.000687811
0.000551873
0.000873191
0.000701223
0.00107685
0.000855439
0.00129528
0.00101124
0.00152444
0.00116553
0.00176009
0.00131555
0.00199798
0.00145898
0.00223408
0.001594
0.00246475
0.00171937
0.00268684
0.00183437
0.00289776
0.00193878
0.00202817
0.00309695
2.49346e-06
-4.1282e-05
1.45556e-05
-7.67912e-05
3.96909e-05
-7.54781e-05
8.07373e-05
-4.4398e-05
0.000140049
1.11831e-05
0.000219511
8.71698e-05
0.000320473
0.000180249
0.000443659
0.000287563
0.000589068
0.000406465
0.000755917
0.000534374
0.000942647
0.000668709
0.00114698
0.000806903
0.00136606
0.000946457
0.00159658
0.00108503
0.00183501
0.00122055
0.00207771
0.0013513
0.00232109
0.00147599
0.00256166
0.0015938
0.00279619
0.00170426
0.00180083
0.00302354
1.63949e-06
-4.29215e-05
1.07777e-05
-8.59294e-05
3.06399e-05
-9.53403e-05
6.38499e-05
-7.76079e-05
0.000112631
-3.75977e-05
0.00017886
2.09402e-05
0.000264055
9.50547e-05
0.000369307
0.00018231
0.000495215
0.000280558
0.00064181
0.000387779
0.000808528
0.000501991
0.000994213
0.000621218
0.00119717
0.000743498
0.00141527
0.000866939
0.00164601
0.000989802
0.00188672
0.0011106
0.0021345
0.0012282
0.00238638
0.00134192
0.00263928
0.00145135
0.00154835
0.00289176
9.42524e-07
-4.3864e-05
7.59726e-06
-9.25841e-05
2.28927e-05
-0.000110636
4.92111e-05
-0.000103926
8.85875e-05
-7.69741e-05
0.000142792
-3.3264e-05
0.000213345
2.45012e-05
0.000301497
9.41586e-05
0.000408173
0.000173882
0.000533927
0.000262024
0.0006789
0.000357018
0.000842811
0.000457307
0.00102498
0.000561331
0.00122438
0.00066754
0.00143974
0.000774443
0.00166963
0.000880702
0.00191259
0.000985242
0.00216714
0.00108738
0.00243165
0.00118684
0.00127575
0.00270425
3.74492e-07
-4.42385e-05
4.9284e-06
-9.7138e-05
1.6294e-05
-0.000122001
3.66055e-05
-0.000124238
6.76844e-05
-0.000108053
0.000111133
-7.67124e-05
0.000168374
-3.27398e-05
0.000240652
2.18804e-05
0.000329011
8.55225e-05
0.000434261
0.000156775
0.000556951
0.000234328
0.00069736
0.000316898
0.000855519
0.000403172
0.00103128
0.000491783
0.00122442
0.0005813
0.00143487
0.000670251
0.00166299
0.000757118
0.00191011
0.000840262
0.00217884
0.000918105
0.000985891
0.0024687
-9.22852e-08
-4.41462e-05
2.68302e-06
-9.99133e-05
1.06759e-05
-0.000129994
2.57811e-05
-0.000139343
4.96025e-05
-0.000131874
8.35483e-05
-0.000110658
0.000128882
-7.80736e-05
0.000186741
-3.59786e-05
0.00025813
1.41338e-05
0.000343902
7.1002e-05
0.000444743
0.000133487
0.000561159
0.000200483
0.000693493
0.000270838
0.00084199
0.000343285
0.00100694
0.000416351
0.00118895
0.000488236
0.00138952
0.000556555
0.00161224
0.000617536
0.00186682
0.00066353
0.000677454
0.00217526
-4.81388e-07
-4.36648e-05
7.81945e-07
-0.000101177
5.88119e-06
-0.000135094
1.649e-05
-0.000149952
3.40062e-05
-0.000149391
5.96411e-05
-0.000136293
9.4475e-05
-0.000112907
0.000139482
-8.09853e-05
0.000195532
-4.19162e-05
0.000263378
3.15527e-06
0.000343636
5.32298e-05
0.00043675
0.000107368
0.000542971
0.000164618
0.000662316
0.00022394
0.000794527
0.00028414
0.00093898
0.000343783
0.00109448
0.000401059
0.00125851
0.000453507
0.00142448
0.000497558
0.000529986
0.00157195
-8.12993e-07
-4.28518e-05
-8.42596e-07
-0.000101147
1.77334e-06
-0.00013771
8.51264e-06
-0.000156691
2.05884e-05
-0.000161466
3.90309e-05
-0.000154736
6.47407e-05
-0.000138617
9.85172e-05
-0.000114762
0.000141065
-8.44637e-05
0.000192982
-4.87624e-05
0.00025474
-8.52744e-06
0.000326639
3.5469e-05
0.000408767
8.24897e-05
0.000500928
0.000131779
0.000602562
0.000182506
0.000712645
0.0002337
0.000829599
0.000284105
0.00095122