/*--------------------------------*- C++ -*----------------------------------*\
  =========                 |
  \\      /  F ield         | OpenFOAM: The Open Source CFD Toolbox
   \\    /   O peration     | Website:  https://openfoam.org
    \\  /    A nd           | Version:  6.0
     \\/     M anipulation  |
\*---------------------------------------------------------------------------*/
FoamFile
{
    version     2.0;
    format      ascii;
    class       volVectorField;
    location    "62";
    object      U;
}
// * * * * * * * * * * * * * * * * * * * * * * * * * * * * * * * * * * * * * //

dimensions      [0 1 -1 0 0 0 0];

internalField   nonuniform List<vector> 
4000
(
(-0.000261152 -0.00653248 -3.85852e-21)
(-0.00186663 -0.0156037 2.0604e-20)
(-0.0050568 -0.0217925 -2.50457e-20)
(-0.00901103 -0.0258485 1.90625e-20)
(-0.0132782 -0.0283618 9.27512e-21)
(-0.0175905 -0.0297969 -2.78294e-20)
(-0.0217554 -0.0305104 -2.46147e-21)
(-0.0256478 -0.030769 -8.78647e-22)
(-0.0291995 -0.0307676 -1.4405e-20)
(-0.0323852 -0.0306449 -7.80001e-21)
(-0.0352121 -0.0304967 5.82575e-21)
(-0.0377116 -0.030388 2.21555e-20)
(-0.0399334 -0.0303619 -1.67682e-21)
(-0.0419387 -0.0304469 2.34755e-21)
(-0.0437967 -0.0306621 -2.22535e-20)
(-0.0455863 -0.0310202 1.36978e-20)
(-0.0473887 -0.0315297 -1.96277e-20)
(-0.0492165 -0.0321934 2.96616e-20)
(-0.0509849 -0.0330132 -3.21406e-23)
(-0.0531959 -0.0340027 6.36416e-21)
(-9.21344e-05 -0.00557765 1.27725e-20)
(-0.00154421 -0.0132274 -6.51203e-20)
(-0.00474437 -0.0184478 -4.49379e-20)
(-0.00879071 -0.0218998 -3.0531e-20)
(-0.0131881 -0.0240984 -3.92098e-20)
(-0.0176433 -0.0254434 8.73556e-21)
(-0.0219466 -0.0262337 -4.5232e-20)
(-0.0259622 -0.0266859 -1.01434e-20)
(-0.0296155 -0.0269511 3.24905e-21)
(-0.0328775 -0.0271302 3.38711e-20)
(-0.0357536 -0.0272863 -3.68253e-20)
(-0.0382749 -0.0274563 5.11704e-20)
(-0.0404913 -0.0276595 -3.82617e-20)
(-0.042465 -0.027905 -4.53286e-20)
(-0.0442663 -0.0281969 -6.2423e-20)
(-0.0459752 -0.0285382 3.98905e-20)
(-0.0476736 -0.0289317 -1.27752e-20)
(-0.0493781 -0.0293778 -4.68025e-20)
(-0.0510126 -0.0298759 4.42971e-20)
(-0.0530517 -0.0304602 -3.2651e-20)
(-8.37649e-06 -0.00455301 1.24154e-19)
(-0.00143858 -0.0107048 6.43289e-20)
(-0.00474689 -0.014925 7.22948e-20)
(-0.00895179 -0.0177684 5.99109e-21)
(-0.0135177 -0.0196642 3.9928e-20)
(-0.0181296 -0.0209411 5.00221e-20)
(-0.022564 -0.0218363 -9.03352e-20)
(-0.0266766 -0.0225138 -4.79161e-20)
(-0.0303881 -0.0230798 -6.21344e-20)
(-0.0336668 -0.0235965 6.66374e-20)
(-0.0365172 -0.024094 -5.07767e-20)
(-0.0389706 -0.0245803 -6.50254e-20)
(-0.0410779 -0.0250507 -2.34854e-20)
(-0.0429033 -0.0254941 2.24702e-20)
(-0.0445197 -0.025899 -6.21668e-21)
(-0.0460103 -0.0262575 9.1242e-21)
(-0.0474603 -0.0265668 1.04062e-19)
(-0.0488932 -0.0268248 -1.45565e-20)
(-0.0502422 -0.0270291 -1.05456e-19)
(-0.0519623 -0.0272345 1.38391e-19)
(-1.80524e-05 -0.00345867 4.2863e-20)
(-0.00156552 -0.00804027 -6.10763e-20)
(-0.00508139 -0.0112345 -1.53019e-20)
(-0.00950933 -0.0134709 2.83307e-20)
(-0.0142788 -0.0150822 8.07871e-20)
(-0.0190581 -0.0163194 1.77024e-19)
(-0.0236137 -0.0173545 1.72806e-19)
(-0.0277959 -0.0182972 1.41779e-20)
(-0.0315222 -0.019208 1.05801e-19)
(-0.0347597 -0.02011 1.61764e-19)
(-0.0375125 -0.0209999 -1.29299e-19)
(-0.0398125 -0.0218565 1.91162e-19)
(-0.041712 -0.0226497 -4.2752e-20)
(-0.0432779 -0.0233471 1.10283e-20)
(-0.0445872 -0.0239194 4.49175e-20)
(-0.045728 -0.0243461 5.94492e-20)
(-0.0467917 -0.024617 -9.35358e-20)
(-0.0478112 -0.0247259 -7.77436e-20)
(-0.0487309 -0.0246685 -1.37618e-19)
(-0.049995 -0.0245205 1.99493e-19)
(-0.000129408 -0.00229658 -2.24438e-20)
(-0.00193976 -0.00524198 -2.29439e-19)
(-0.0057616 -0.00739062 -6.78081e-20)
(-0.0104726 -0.00902718 -1.6526e-19)
(-0.0154751 -0.0103766 6.22997e-20)
(-0.0204268 -0.0116064 -9.8445e-20)
(-0.0250894 -0.0128208 3.35144e-20)
(-0.0293107 -0.0140737 -2.08093e-19)
(-0.0330075 -0.0153799 1.0949e-19)
(-0.0361468 -0.016724 -1.30769e-19)
(-0.0387327 -0.0180689 -1.16222e-19)
(-0.0407977 -0.0193638 -1.29593e-19)
(-0.0423959 -0.0205521 1.17662e-19)
(-0.0435969 -0.0215776 -1.05046e-19)
(-0.0444827 -0.0223908 1.46534e-19)
(-0.045148 -0.0229547 4.21753e-20)
(-0.0456933 -0.0232483 1.04057e-19)
(-0.0461633 -0.0232584 4.57345e-20)
(-0.0465167 -0.0229767 -1.80112e-19)
(-0.0471971 -0.0224994 2.91966e-19)
(-0.000350233 -0.00107108 9.81914e-20)
(-0.00257357 -0.00232308 7.84197e-21)
(-0.00679586 -0.00341315 4.04849e-20)
(-0.0118422 -0.00446102 1.41482e-19)
(-0.017098 -0.00557347 -2.19252e-20)
(-0.0222188 -0.00682948 2.2942e-19)
(-0.0269664 -0.00826299 1.01446e-19)
(-0.0311909 -0.00987224 8.48093e-21)
(-0.0348105 -0.0116271 2.60856e-19)
(-0.0377932 -0.0134745 8.52267e-20)
(-0.0401439 -0.0153445 4.02737e-20)
(-0.0418953 -0.0171568 1.28269e-19)
(-0.0431025 -0.0188267 1.17256e-19)
(-0.0438381 -0.0202717 2.13462e-19)
(-0.0441891 -0.021418 -1.90727e-19)
(-0.0442581 -0.0222076 2.6828e-19)
(-0.044157 -0.0226028 2.62546e-21)
(-0.0439456 -0.0225781 -3.417e-19)
(-0.0436008 -0.0221166 4.41272e-19)
(-0.043578 -0.0213344 1.81412e-19)
(-0.000687165 0.000210261 -5.79135e-20)
(-0.00347508 0.000696852 -1.04673e-19)
(-0.00818462 0.00067133 -2.18311e-19)
(-0.0136068 0.000198063 -6.45326e-21)
(-0.0191235 -0.000702 3.69428e-20)
(-0.0243967 -0.00201499 -2.78648e-19)
(-0.0291961 -0.00370358 -2.06548e-19)
(-0.0333778 -0.0057112 -2.96322e-20)
(-0.0368649 -0.00796462 -2.60821e-19)
(-0.039628 -0.0103754 -1.80189e-19)
(-0.0416724 -0.0128427 -5.24961e-20)
(-0.0430311 -0.0152569 -1.68643e-19)
(-0.0437593 -0.0175049 -2.84716e-21)
(-0.0439314 -0.0194754 -2.22951e-19)
(-0.043639 -0.0210655 9.35721e-20)
(-0.0429934 -0.0221896 -1.06787e-19)
(-0.0421199 -0.0227856 8.08672e-20)
(-0.0410964 -0.0228071 -1.03748e-19)
(-0.0399233 -0.0222211 -2.93797e-19)
(-0.0390841 -0.0211603 -8.90144e-20)
(-0.0011448 0.00153597 -2.09667e-20)
(-0.00464626 0.00379047 -2.28018e-20)
(-0.00991764 0.00482775 1.82703e-19)
(-0.0157399 0.00491346 -2.96806e-19)
(-0.0215068 0.00420428 4.36006e-20)
(-0.026898 0.00281003 -1.71064e-19)
(-0.0316983 0.000839291 8.11153e-20)
(-0.0357758 -0.00159854 3.63289e-19)
(-0.0390615 -0.00439029 -2.34679e-20)
(-0.0415303 -0.00741557 -2.7021e-19)
(-0.0431889 -0.0105456 4.94969e-20)
(-0.0440698 -0.0136442 9.59692e-21)
(-0.0442271 -0.0165701 -5.46021e-20)
(-0.0437353 -0.0191811 6.30629e-21)
(-0.0426895 -0.0213408 4.82043e-19)
(-0.0412094 -0.0229283 -6.92501e-20)
(-0.0394351 -0.0238468 -1.32805e-19)
(-0.0374657 -0.0240166 -2.3665e-19)
(-0.0353314 -0.0233758 2.41901e-19)
(-0.0335644 -0.0220681 1.03803e-19)
(-0.00172466 0.00288995 1.07017e-19)
(-0.00608081 0.00692132 -1.3966e-19)
(-0.0119713 0.00901091 1.9758e-19)
(-0.0181964 0.00963938 1.98744e-19)
(-0.0241794 0.00910513 1.83339e-19)
(-0.0296296 0.00761564 3.71714e-19)
(-0.0343556 0.00534972 2.40094e-19)
(-0.0382435 0.0024666 -5.15337e-19)
(-0.0412364 -0.000884787 2.63161e-19)
(-0.0433158 -0.00455701 2.05983e-19)
(-0.0444911 -0.0083984 -2.72397e-21)
(-0.0447936 -0.01225 2.29427e-19)
(-0.0442754 -0.0159451 1.78099e-19)
(-0.043009 -0.0193109 -9.74159e-20)
(-0.0410907 -0.0221738 3.26071e-19)
(-0.0386478 -0.0243696 -4.04164e-19)
(-0.0358354 -0.0257546 1.6067e-19)
(-0.0327765 -0.0261989 2.05983e-19)
(-0.029538 -0.0255928 -4.81338e-20)
(-0.0267274 -0.0240792 4.1005e-19)
(-0.00242413 0.00425111 2.13837e-19)
(-0.00776211 0.010043 1.0998e-20)
(-0.0143064 0.0131642 -7.69167e-20)
(-0.0209099 0.0143189 -8.1445e-20)
(-0.0270453 0.0139508 -3.76107e-19)
(-0.0324639 0.0123655 5.30875e-20)
(-0.0370077 0.00980998 1.50682e-19)
(-0.0405869 0.00648971 -7.22059e-20)
(-0.0431615 0.00258429 5.95174e-20)
(-0.0447233 -0.00173779 -1.61109e-20)
(-0.0452857 -0.00630854 -7.76998e-20)
(-0.04488 -0.0109529 7.34091e-20)
(-0.043555 -0.0154842 -3.18414e-19)
(-0.0413799 -0.019702 3.04929e-19)
(-0.0384495 -0.0233948 -2.62726e-19)
(-0.0348963 -0.0263492 8.1478e-20)
(-0.03089 -0.0283614 1.82804e-19)
(-0.0265785 -0.0292308 -3.8957e-20)
(-0.0220721 -0.0287722 -1.26479e-19)
(-0.0180883 -0.0271083 -8.52633e-20)
(-0.0032355 0.00559337 -2.65804e-19)
(-0.00966152 0.0130991 -1.76445e-20)
(-0.0168661 0.0172186 5.59855e-20)
(-0.0237915 0.0188822 1.44144e-19)
(-0.0299798 0.0186792 -2.03587e-19)
(-0.0352373 0.0170123 -1.77581e-19)
(-0.039448 0.0141945 4.14102e-19)
(-0.0425539 0.0104735 -2.28835e-19)
(-0.0445371 0.00605444 -1.47382e-19)
(-0.0454035 0.00112016 -2.10881e-19)
(-0.0451739 -0.00415278 1.39344e-19)
(-0.0438815 -0.009582 -4.40851e-21)
(-0.0415728 -0.0149696 -2.59594e-19)
(-0.0383124 -0.0200954 -4.22002e-19)
(-0.0341919 -0.0247143 3.21135e-19)
(-0.0293459 -0.028562 -2.57944e-19)
(-0.0239572 -0.0313643 3.65338e-19)
(-0.0181975 -0.0328268 -1.02891e-19)
(-0.0122248 -0.0326523 2.10926e-19)
(-0.00691073 -0.0309126 -7.21549e-19)
(-0.00414525 0.00688632 -5.36989e-19)
(-0.0117375 0.0160242 3.52507e-19)
(-0.019576 0.0210933 4.8049e-20)
(-0.0267297 0.0232454 9.25109e-21)
(-0.03283 0.0232126 -2.1769e-19)
(-0.0377498 0.0214929 3.20104e-19)
(-0.0414246 0.0184625 3.49541e-20)
(-0.0438346 0.014408 -6.55892e-20)
(-0.0449897 0.00955546 -2.09949e-19)
(-0.0449148 0.00409628 2.26898e-19)
(-0.0436428 -0.0017925 5.73572e-19)
(-0.0412128 -0.0079312 -1.26867e-19)
(-0.0376719 -0.0141227 2.84954e-19)
(-0.0330819 -0.0201397 -3.35207e-19)
(-0.0275304 -0.0257148 -3.19585e-19)
(-0.0211525 -0.0305398 1.92558e-19)
(-0.0141414 -0.0342671 3.14511e-19)
(-0.00668904 -0.0364883 -1.01676e-18)
(0.00100054 -0.0367498 1.20949e-19)
(0.00784799 -0.0350296 1.62026e-19)
(-0.00513394 0.00809664 3.97388e-19)
(-0.0139355 0.0187457 1.30477e-19)
(-0.0223445 0.0246971 6.82253e-19)
(-0.0295919 0.0273108 3.51135e-20)
(-0.0354167 0.027456 -7.59228e-20)
(-0.0397692 0.0257233 -3.61468e-19)
(-0.042644 0.0225495 3.07476e-19)
(-0.0440656 0.018258 5.50915e-19)
(-0.0440769 0.0130929 3.66558e-19)
(-0.0427276 0.00724992 2.641e-19)
(-0.0400685 0.000900353 2.27023e-19)
(-0.0361504 -0.00578822 -4.07632e-19)
(-0.0310278 -0.0126326 -1.27048e-19)
(-0.0247648 -0.019415 -9.31116e-20)
(-0.0174484 -0.0258654 9.96604e-19)
(-0.00921472 -0.0316497 -4.86441e-21)
(-0.000266099 -0.0363585 -2.45491e-19)
(0.00919143 -0.0394609 -7.4527e-20)
(0.0189193 -0.0403013 7.00737e-19)
(0.0275718 -0.0387099 9.33807e-20)
(-0.0061766 0.00919009 -1.96961e-20)
(-0.0161893 0.0211878 -3.76313e-19)
(-0.0250647 0.0279314 -5.60237e-19)
(-0.0322274 0.0309688 -1.55972e-19)
(-0.0375393 0.0312974 8.60615e-20)
(-0.0410365 0.0295965 1.86015e-20)
(-0.0427787 0.0263619 4.91506e-19)
(-0.0428396 0.0219527 -6.0961e-19)
(-0.0413001 0.0166308 -2.31784e-19)
(-0.0382393 0.0105953 -4.66298e-19)
(-0.0337326 0.00400926 -3.96316e-19)
(-0.0278512 -0.00297779 -3.49924e-19)
(-0.0206663 -0.0102074 8.7447e-20)
(-0.0122548 -0.0174889 -1.13004e-19)
(-0.00271223 -0.0245742 4.81442e-19)
(0.00781772 -0.0311343 -2.6484e-19)
(0.0191204 -0.03673 -8.20029e-19)
(0.0309818 -0.0407235 -1.6182e-19)
(0.0431557 -0.0422245 4.00564e-19)
(0.0539778 -0.0408598 -3.47428e-19)
(-0.00724391 0.0101341 -6.34336e-20)
(-0.0184229 0.0232758 4.59887e-19)
(-0.0276175 0.0306953 -5.86991e-19)
(-0.034471 0.034102 1.35702e-19)
(-0.0389798 0.0346106 -2.79757e-19)
(-0.0412721 0.032984 6.23128e-19)
(-0.0414766 0.0297751 -4.45273e-19)
(-0.0397194 0.0253794 5.09153e-19)
(-0.036122 0.0200792 -4.82651e-19)
(-0.0307981 0.0140799 2.05436e-19)
(-0.0238536 0.00753886 -9.99316e-20)
(-0.0153898 0.0005883 -2.49781e-19)
(-0.0055072 -0.0066422 -3.0741e-19)
(0.00568886 -0.014001 3.05621e-19)
(0.0180772 -0.0212855 -2.54959e-19)
(0.0314911 -0.0282099 -5.53399e-19)
(0.0456909 -0.0343579 5.74387e-19)
(0.0604542 -0.039037 -7.28036e-19)
(0.0755712 -0.0411258 3.24761e-19)
(0.0890403 -0.040013 5.36694e-21)
(-0.00830379 0.0109004 -5.74282e-19)
(-0.0205533 0.0249412 -6.2086e-19)
(-0.0298744 0.0328917 7.15595e-20)
(-0.0361459 0.036593 -5.9964e-19)
(-0.0395072 0.0372628 -5.35336e-20)
(-0.0401817 0.0357425 -4.41335e-19)
(-0.0383691 0.0326399 -1.01255e-19)
(-0.0342493 0.0283882 -2.95845e-19)
(-0.027986 0.0232941 2.49869e-21)
(-0.0197301 0.0175761 -1.29367e-19)
(-0.0096242 0.0113941 8.76007e-21)
(0.00219137 0.00487148 -3.7129e-19)
(0.0155723 -0.00188466 4.07418e-19)
(0.0303651 -0.00876133 -5.77543e-19)
(0.0463985 -0.0156126 2.03108e-19)
(0.0634558 -0.0222278 6.72929e-21)
(0.0812439 -0.0282749 -3.21036e-19)
(0.0995123 -0.0330992 7.89978e-19)
(0.118143 -0.0354142 -1.88997e-19)
(0.134854 -0.0343941 -1.20447e-19)
(-0.00932338 0.0114674 6.44916e-19)
(-0.0224932 0.0261269 3.48555e-19)
(-0.0316992 0.034435 3.24496e-19)
(-0.0370654 0.0383327 4.85004e-20)
(-0.038878 0.0391264 4.39166e-19)
(-0.0374572 0.0377284 6.33269e-19)
(-0.0330742 0.0347987 5.18767e-19)
(-0.0259622 0.0308093 4.62093e-20)
(-0.0163278 0.0260956 3.79512e-19)
(-0.00436081 0.0208977 5.86044e-19)
(0.00975526 0.0153896 -1.51872e-19)
(0.0258324 0.00970098 2.54643e-19)
(0.0436689 0.00393382 2.05708e-19)
(0.063042 -0.00182079 2.08826e-19)
(0.0837011 -0.00746324 1.22389e-18)
(0.105343 -0.0128642 -4.58122e-19)
(0.127576 -0.0178222 -2.76601e-20)
(0.150066 -0.0218333 5.22542e-19)
(0.172823 -0.0235843 -2.94587e-19)
(0.193477 -0.0221308 1.44953e-19)
(-0.0102706 0.011822 -5.21798e-19)
(-0.0241528 0.0267916 3.35647e-20)
(-0.0329488 0.0352581 -4.18584e-19)
(-0.0370306 0.0392322 -5.46398e-20)
(-0.036833 0.0400937 3.06728e-19)
(-0.0327725 0.0388175 -9.13237e-19)
(-0.0251916 0.0361114 -5.55993e-22)
(-0.0143762 0.0324852 4.24998e-19)
(-0.000575808 0.0283066 3.99273e-19)
(0.0159789 0.0238442 -1.75753e-19)
(0.0350595 0.0192981 5.77158e-20)
(0.0564229 0.0148217 1.34063e-19)
(0.0797976 0.0105363 -6.37151e-20)
(0.104871 0.0065427 -7.072e-19)
(0.131282 0.00293191 1.79267e-19)
(0.158595 -0.000211368 4.87273e-19)
(0.186256 -0.00280616 -6.92152e-19)
(0.213745 -0.00457241 3.36972e-19)
(0.241176 -0.00430466 8.94778e-20)
(0.26648 -0.00107214 4.47281e-19)
(-0.0111154 0.0119596 -7.72834e-20)
(-0.0254401 0.0269125 -3.66124e-19)
(-0.033471 0.0353188 1.68558e-19)
(-0.0358265 0.039233 8.22257e-22)
(-0.0330897 0.0400932 -7.35522e-19)
(-0.0257735 0.0389278 1.1471e-19)
(-0.0142909 0.0364856 -2.18353e-20)
(0.00101853 0.0333112 1.48624e-19)
(0.0198603 0.0298042 -6.80094e-19)
(0.0419599 0.0262648 -4.73152e-20)
(0.0670389 0.0229268 -1.59015e-19)
(0.0947935 0.0199809 1.42084e-19)
(0.124874 0.0175914 4.76718e-19)
(0.156867 0.0159082 -7.3912e-20)
(0.190274 0.0150766 2.83227e-20)
(0.224479 0.0152315 1.85398e-19)
(0.258664 0.0164615 -4.59406e-20)
(0.291927 0.0189689 3.6736e-19)
(0.324212 0.0240246 -2.16747e-19)
(0.354115 0.0324253 -3.35296e-19)
(-0.0118291 0.0118837 7.15317e-20)
(-0.0262597 0.0264858 1.73606e-20)
(-0.0331004 0.0346046 1.46879e-19)
(-0.0332143 0.038317 3.60027e-19)
(-0.0273327 0.0391056 2.02179e-19)
(-0.0160651 0.0380418 2.11736e-20)
(0.000102428 0.0359076 -2.41652e-19)
(0.0207725 0.0332756 6.19282e-20)
(0.0455989 0.030572 3.25616e-19)
(0.0742547 0.0281239 -5.51554e-19)
(0.106404 0.0261951 4.1573e-19)
(0.141677 0.0250121 -3.12799e-19)
(0.179652 0.0247864 2.64434e-19)
(0.219839 0.0257354 -5.6888e-19)
(0.261652 0.0281051 6.23035e-19)
(0.304369 0.0321832 -6.64948e-19)
(0.347 0.0382938 -1.7131e-19)
(0.388235 0.0470518 5.33292e-19)
(0.427039 0.060548 -1.81923e-19)
(0.460249 0.0793185 7.65412e-20)
(-0.0123838 0.011604 -5.42074e-20)
(-0.0265087 0.025526 5.11574e-19)
(-0.0316526 0.0331345 -2.02924e-21)
(-0.0289237 0.0365127 -3.17784e-19)
(-0.0192031 0.0371748 -2.14045e-19)
(-0.00320116 0.0362247 3.9204e-19)
(0.018516 0.0344675 -1.55335e-19)
(0.0454807 0.0324938 -1.95784e-20)
(0.0772775 0.0307446 3.23668e-19)
(0.113504 0.0295594 -4.02134e-19)
(0.153742 0.0292114 4.37433e-20)
(0.197537 0.0299346 -5.21064e-19)
(0.244389 0.0319482 2.7332e-19)
(0.293753 0.035483 -7.8004e-19)
(0.345057 0.0408149 1.23715e-18)
(0.397718 0.0483088 -2.27081e-19)
(0.451183 0.0585216 2.3192e-19)
(0.505198 0.0727173 -6.03899e-19)
(0.560154 0.0938039 6.31347e-21)
(0.608106 0.118286 6.69009e-19)
(-0.0127492 0.0111337 -1.64306e-19)
(-0.0260726 0.0240626 1.41989e-19)
(-0.0289185 0.0309588 -5.22919e-19)
(-0.0226466 0.033898 7.73706e-19)
(-0.00829409 0.0344143 -5.58865e-19)
(0.0133184 0.0336336 2.88549e-20)
(0.0415279 0.0323726 -6.03241e-19)
(0.0757703 0.0312266 4.31332e-19)
(0.115525 0.030635 -6.16555e-20)
(0.160268 0.0309267 -3.80153e-19)
(0.209444 0.0323523 -2.21163e-19)
(0.262449 0.0351076 2.34232e-19)
(0.318636 0.0393522 1.53916e-19)
(0.377327 0.0452249 -6.78763e-19)
(0.437855 0.0528588 2.45802e-19)
(0.499608 0.0623903 -3.58609e-19)
(0.562099 0.0739755 4.29004e-20)
(0.625172 0.0879663 -3.00005e-19)
(0.689481 0.105407 1.18992e-19)
(0.748212 0.122827 -4.43846e-19)
(-0.0128897 0.010487 4.67669e-19)
(-0.0248198 0.0221371 -2.83246e-19)
(-0.0246594 0.0281565 2.33464e-19)
(-0.0140349 0.0305991 -2.94914e-19)
(0.00584758 0.0310071 4.94456e-19)
(0.0340377 0.0305175 -8.63976e-21)
(0.0697446 0.0299454 -6.02536e-20)
(0.112264 0.0298745 -4.46384e-20)
(0.16091 0.0307217 2.74977e-19)
(0.214966 0.0327786 4.67069e-19)
(0.273656 0.0362403 -2.75609e-19)
(0.336141 0.0412247 2.67431e-19)
(0.401527 0.0477869 4.86303e-19)
(0.468903 0.0559298 -3.41093e-19)
(0.537383 0.0656097 -6.86227e-19)
(0.606156 0.0767343 1.25026e-18)
(0.674537 0.0891482 -2.23724e-19)
(0.74205 0.102666 -7.1776e-20)
(0.808756 0.117526 7.59407e-19)
(0.870016 0.133005 -1.64324e-19)
(-0.0127611 0.00967802 -7.61436e-19)
(-0.0225976 0.0198008 -5.06827e-19)
(-0.0186062 0.0248325 -1.94631e-19)
(-0.0027049 0.0267868 3.7562e-19)
(0.0237076 0.0271997 -8.48311e-19)
(0.0595172 0.0272068 4.39607e-19)
(0.103755 0.0276046 5.57416e-20)
(0.155509 0.028944 5.64588e-20)
(0.213845 0.0315923 -5.75648e-19)
(0.277758 0.0357717 -2.0298e-19)
(0.346155 0.041585 -3.57067e-19)
(0.417867 0.0490353 3.44394e-19)
(0.491676 0.0580412 9.65665e-20)
(0.566375 0.0684501 1.80147e-20)
(0.640815 0.0800476 4.41133e-19)
(0.713966 0.092561 -4.48544e-19)
(0.784954 0.105655 -1.81563e-20)
(0.853096 0.118944 1.29636e-20)
(0.918038 0.132252 6.22367e-20)
(0.977362 0.146975 3.35037e-19)
(-0.0123082 0.00871959 2.42433e-19)
(-0.0192305 0.0171129 6.2429e-19)
(-0.0104619 0.021115 5.00995e-19)
(0.0117509 0.022671 -1.72774e-19)
(0.0457788 0.0232928 6.01324e-19)
(0.0902901 0.0240965 -5.07232e-20)
(0.144064 0.025837 -7.1357e-20)
(0.205884 0.0290026 4.26639e-20)
(0.274462 0.0338748 5.81329e-19)
(0.348396 0.0405652 3.4134e-19)
(0.42618 0.049043 9.9747e-20)
(0.506242 0.0591598 6.5795e-21)
(0.587007 0.0706734 -6.54719e-19)
(0.666973 0.0832701 5.68866e-19)
(0.744781 0.0965861 9.62435e-20)
(0.819272 0.110223 -1.59808e-19)
(0.88952 0.123761 -6.82178e-19)
(0.954854 0.136783 -5.54642e-20)
(1.01483 0.14888 2.65706e-19)
(1.06894 0.162768 -5.30032e-20)
(-0.0114635 0.00762453 -6.14927e-19)
(-0.0145209 0.0141418 2.57256e-19)
(8.99832e-05 0.0171538 -1.25619e-18)
(0.0297444 0.0184963 5.14746e-19)
(0.0725258 0.0196302 -4.10592e-19)
(0.126806 0.0216265 3.02641e-19)
(0.191007 0.0251651 -4.70388e-19)
(0.26349 0.0306294 4.33524e-20)
(0.342489 0.0381671 -2.42181e-20)
(0.4261 0.0477296 1.26246e-19)
(0.512332 0.0591079 1.81521e-19)
(0.599187 0.0719697 -3.42938e-19)
(0.684767 0.0858986 1.81862e-19)
(0.767365 0.100431 1.65868e-19)
(0.845549 0.115089 7.09086e-19)
(0.918207 0.129411 -3.09505e-19)
(0.984566 0.142967 -2.01831e-19)
(1.04418 0.155398 3.37872e-19)
(1.09683 0.166253 1.75923e-19)
(1.14321 0.178791 -3.37581e-19)
(-0.0101475 0.00640757 5.38387e-19)
(-0.00825406 0.0109677 5.18937e-19)
(0.0133726 0.0131215 1.49858e-19)
(0.0516665 0.0145377 6.3103e-19)
(0.104343 0.0165882 3.10094e-19)
(0.169367 0.0202608 -5.59255e-19)
(0.244673 0.0261124 8.46768e-19)
(0.328061 0.0343651 -4.16559e-19)
(0.417166 0.044973 4.15413e-19)
(0.509504 0.0576726 5.3636e-19)
(0.602581 0.0720358 -3.06376e-19)
(0.694031 0.0875277 5.83215e-20)
(0.781748 0.103565 3.22231e-19)
(0.863999 0.119566 2.25849e-19)
(0.939483 0.134997 5.16143e-19)
(1.00736 0.149398 -2.08412e-19)
(1.0672 0.162401 -2.71719e-20)
(1.11898 0.173758 3.18514e-19)
(1.1629 0.183129 -6.93514e-20)
(1.20035 0.193761 -1.95299e-22)
(-0.00827093 0.00508832 -2.77887e-19)
(-0.0002057 0.00768717 -1.02094e-18)
(0.0296989 0.00921561 2.40466e-19)
(0.0778577 0.0110985 -1.83098e-19)
(0.141509 0.014565 -4.2276e-19)
(0.218071 0.020466 -3.02018e-19)
(0.304838 0.0291697 -1.86342e-19)
(0.398907 0.040666 4.52524e-19)
(0.497221 0.0546487 -2.68582e-19)
(0.596697 0.0705883 -2.75216e-19)
(0.694405 0.0878126 -3.46261e-19)
(0.787756 0.10559 -5.71083e-20)
(0.87465 0.123207 -3.96817e-20)
(0.953561 0.140026 -7.91874e-19)
(1.02356 0.155527 3.80447e-19)
(1.08426 0.16933 -5.00808e-19)
(1.13578 0.181192 1.54101e-19)
(1.17858 0.191012 -1.17529e-18)
(1.21335 0.19865 3.54913e-19)
(1.24182 0.207013 4.42171e-19)
(-0.00573793 0.00369451 -6.98038e-20)
(0.00984749 0.00441828 4.97658e-19)
(0.0493522 0.00566117 3.19454e-20)
(0.108577 0.00850708 7.67828e-20)
(0.184144 0.0139702 -1.56066e-19)
(0.272763 0.0226898 -2.71077e-21)
(0.37092 0.0347628 -3.90308e-21)
(0.474898 0.0498653 -9.39087e-20)
(0.580914 0.0673666 3.33681e-19)
(0.685355 0.0864375 1.28592e-19)
(0.785025 0.106166 5.82154e-19)
(0.87735 0.125666 -1.5842e-19)
(0.960503 0.14416 1.09902e-19)
(1.03342 0.161039 -1.35979e-20)
(1.09575 0.175882 3.02654e-19)
(1.14773 0.188453 1.83468e-19)
(1.19004 0.198685 4.37799e-19)
(1.22368 0.206641 -7.04829e-19)
(1.24974 0.212398 8.81441e-19)
(1.27007 0.218396 -2.78699e-19)
(-0.00245044 0.00226487 -6.48208e-19)
(0.0221152 0.0013048 -2.02469e-19)
(0.0725637 0.00271282 1.58128e-19)
(0.143969 0.00711332 9.97076e-20)
(0.232176 0.015211 1.02416e-19)
(0.332998 0.027338 1.03441e-19)
(0.441975 0.0432221 -2.59423e-19)
(0.554513 0.0621439 -1.06643e-19)
(0.666164 0.0831003 3.34123e-20)
(0.772963 0.104961 -3.16011e-19)
(0.871714 0.126619 -1.42147e-19)
(0.960158 0.147111 8.58169e-19)
(1.03702 0.165693 -2.21653e-19)
(1.10192 0.181875 -3.02708e-19)
(1.15521 0.19541 -1.41734e-19)
(1.1978 0.206259 9.9165e-20)
(1.23092 0.214545 1.1845e-19)
(1.25596 0.220493 -5.67109e-19)
(1.27435 0.224364 8.15573e-19)
(1.28788 0.228134 -7.05091e-19)
(0.00168672 0.000851346 -7.31379e-20)
(0.0367797 -0.00148096 2.09114e-20)
(0.0994913 0.000654055 -2.68431e-20)
(0.18404 0.00728098 3.91259e-19)
(0.285306 0.0186766 2.16899e-20)
(0.398037 0.0347509 1.43517e-19)
(0.516726 0.0547585 -2.98458e-19)
(0.635933 0.0775161 -1.07378e-20)
(0.750723 0.101635 4.13282e-19)
(0.857065 0.125726 5.71871e-20)
(0.95209 0.148575 -3.58185e-19)
(1.03417 0.169246 -3.14447e-20)
(1.10281 0.187138 -2.91084e-19)
(1.15845 0.201962 2.90758e-19)
(1.20219 0.213697 3.99912e-19)
(1.23553 0.222519 -4.392e-20)
(1.26013 0.228735 -5.27732e-20)
(1.27766 0.232701 1.6068e-19)
(1.28968 0.234808 -5.12538e-19)
(1.29787 0.23663 4.52168e-19)
(0.0067606 -0.000479727 7.36799e-20)
(0.0539815 -0.00373805 -4.74577e-19)
(0.130198 -0.000207013 1.26978e-19)
(0.228629 0.00937611 -3.94076e-19)
(0.343005 0.024719 1.35577e-19)
(0.466862 0.0451806 -5.02785e-19)
(0.593633 0.0694464 2.02658e-19)
(0.717187 0.0958335 -6.45826e-20)
(0.832391 0.122601 -2.66186e-21)
(0.935508 0.148193 6.54704e-20)
(1.02435 0.171406 -2.38116e-19)
(1.09817 0.191458 -3.38473e-19)
(1.1574 0.20798 -6.87132e-20)
(1.20334 0.220943 -3.08301e-20)
(1.23774 0.230575 -7.80182e-20)
(1.26256 0.237254 -2.52056e-20)
(1.27974 0.241435 -7.54335e-20)
(1.29105 0.243566 -6.51692e-20)
(1.29805 0.24411 -1.91847e-19)
(1.30227 0.244321 3.0257e-19)
(0.0128447 -0.00164766 1.76763e-19)
(0.0738057 -0.00523962 -1.96271e-19)
(0.164633 0.000453726 4.2236e-19)
(0.277399 0.0137512 -1.82396e-19)
(0.40451 0.0336312 4.87324e-19)
(0.53822 0.0587722 7.18963e-21)
(0.671003 0.0872209 2.44272e-19)
(0.796313 0.116807 -6.55659e-20)
(0.909204 0.145527 2.71826e-19)
(1.00662 0.171791 1.91781e-20)
(1.08736 0.194544 6.42783e-19)
(1.15172 0.213267 -4.42758e-19)
(1.20111 0.227892 6.00448e-20)
(1.23757 0.238676 1.13721e-19)
(1.26337 0.24608 5.87393e-19)
(1.28076 0.25065 -2.10717e-19)
(1.29179 0.252941 -4.15003e-20)
(1.29818 0.253447 -2.17256e-19)
(1.30138 0.25266 -2.20539e-20)
(1.30275 0.251586 1.08054e-19)
(0.0199937 -0.00255853 -8.45918e-20)
(0.096269 -0.00573889 2.44637e-19)
(0.20262 0.00296385 -2.50767e-19)
(0.329829 0.0207262 9.88307e-20)
(0.468858 0.0456279 -1.18423e-19)
(0.610701 0.0755535 4.33974e-19)
(0.74711 0.107888 -6.05973e-20)
(0.871516 0.140047 1.48031e-19)
(0.979591 0.169903 -8.74159e-20)
(1.06932 0.195988 -2.38273e-21)
(1.14068 0.217531 9.8679e-20)
(1.19508 0.234356 -7.62022e-20)
(1.23482 0.246731 1.97176e-19)
(1.26251 0.255188 -9.84186e-20)
(1.28077 0.26038 -4.28479e-19)
(1.29196 0.262974 4.2478e-19)
(1.29808 0.263577 -1.90065e-19)
(1.30073 0.262686 1.51485e-19)
(1.30117 0.260794 2.607e-19)
(1.30055 0.25871 1.06555e-19)
(0.0282385 -0.00310745 2.10595e-19)
(0.12131 -0.00497776 -4.33939e-19)
(0.243846 0.00763876 8.29095e-20)
(0.385228 0.0305686 -6.02491e-20)
(0.534922 0.0608291 -2.43073e-19)
(0.682823 0.0954346 -1.90444e-19)
(0.820322 0.131147 -3.7525e-20)
(0.941295 0.165105 -3.38367e-19)
(1.04245 0.19523 -2.05188e-20)
(1.12308 0.220337 -6.26055e-20)
(1.18444 0.240042 -1.69322e-19)
(1.22898 0.254564 -3.77364e-20)
(1.2597 0.264498 -1.28815e-19)
(1.27964 0.270613 -2.13384e-19)
(1.29155 0.273708 2.17427e-19)
(1.29776 0.274512 2.91567e-20)
(1.30009 0.27364 5.80155e-20)
(1.29997 0.271567 -2.47516e-19)
(1.29845 0.268764 -6.70158e-21)
(1.29649 0.265887 -3.77356e-19)
(0.0375816 -0.00318175 2.30442e-19)
(0.14878 -0.00269761 1.53746e-19)
(0.287866 0.0147646 -2.4809e-19)
(0.442754 0.0434755 3.87219e-19)
(0.601478 0.0792515 -4.18661e-20)
(0.753127 0.118219 1.44377e-19)
(0.889208 0.156628 4.99331e-20)
(1.00452 0.191523 1.7629e-19)
(1.09716 0.221068 -1.38029e-19)
(1.16789 0.244496 4.57291e-20)
(1.21918 0.261885 -4.38334e-20)
(1.2544 0.273853 -1.89588e-20)
(1.27706 0.281288 3.63672e-20)
(1.29039 0.285145 -6.65581e-20)
(1.29713 0.286306 -2.01645e-20)
(1.29944 0.28552 -6.18538e-20)
(1.29894 0.283375 -1.00172e-19)
(1.29682 0.2803 6.48451e-20)
(1.29395 0.276743 -8.77276e-20)
(1.2911 0.273227 3.79186e-19)
(0.0479935 -0.0026651 -1.14911e-19)
(0.178444 0.00134841 -3.25731e-19)
(0.33411 0.0245808 -4.32962e-20)
(0.501454 0.0595594 -1.1929e-20)
(0.667268 0.100808 -1.45789e-19)
(0.820268 0.143623 -2.39116e-19)
(0.952607 0.183919 7.8034e-20)
(1.06045 0.218868 -1.07184e-19)
(1.14354 0.247052 -1.1963e-19)
(1.20409 0.268233 6.64071e-20)
(1.24573 0.282974 -5.00514e-20)
(1.27248 0.292269 -1.00664e-19)
(1.28816 0.297247 -2.96342e-21)
(1.29602 0.298982 6.80956e-20)
(1.29866 0.298393 -6.86431e-20)
(1.298 0.296206 9.53752e-20)
(1.29543 0.292959 2.58493e-20)
(1.29191 0.289025 6.41733e-20)
(1.28814 0.28483 1.23786e-19)
(1.28471 0.280777 -1.05732e-19)
(0.0594104 -0.00144224 1.09665e-19)
(0.209976 0.00738255 -9.54142e-21)
(0.381899 0.0372656 4.93251e-20)
(0.560302 0.0788404 -6.67892e-20)
(0.731072 0.125318 5.63812e-21)
(0.883081 0.171301 2.31281e-19)
(1.00966 0.212605 -1.51726e-19)
(1.10872 0.246753 6.40626e-20)
(1.18172 0.272902 5.6348e-20)
(1.23231 0.291403 -1.57835e-19)
(1.265 0.303298 1.47876e-19)
(1.28429 0.309905 1.33028e-21)
(1.29411 0.312529 -1.03244e-19)
(1.29757 0.312307 1.24244e-19)
(1.29704 0.310144 -4.8981e-20)
(1.29418 0.30672 3.73572e-20)
(1.29013 0.302505 -4.18962e-20)
(1.28565 0.297819 -1.68422e-20)
(1.28129 0.293069 -1.4424e-19)
(1.27751 0.288538 4.40632e-20)
(0.0717324 0.000596118 -3.68596e-20)
(0.242972 0.0155908 9.91232e-20)
(0.430476 0.0529244 1.54955e-20)
(0.618259 0.101245 6.47743e-20)
(0.791768 0.152519 3.08903e-20)
(0.940622 0.20087 1.44871e-20)
(1.05983 0.242283 8.18045e-20)
(1.14925 0.274848 -9.92591e-21)
(1.21211 0.29841 3.58705e-20)
(1.25326 0.31393 5.74519e-20)
(1.27794 0.322891 2.75744e-20)
(1.29085 0.326867 1.97177e-20)
(1.29585 0.327275 7.97603e-20)
(1.29586 0.32526 -7.71311e-20)
(1.29293 0.321683 1.64911e-20)
(1.28847 0.317154 -1.52726e-20)
(1.2834 0.312074 2.37788e-20)
(1.27829 0.30671 1.98466e-20)
(1.27357 0.301456 4.10506e-20)
(1.26957 0.296476 1.69415e-21)
(0.0848259 0.00354815 2.18684e-20)
(0.276958 0.0261121 1.99516e-20)
(0.47903 0.0715819 -2.76234e-20)
(0.674308 0.126612 1.72556e-20)
(0.848372 0.182084 9.72304e-21)
(0.992186 0.23193 -3.02745e-20)
(1.10282 0.272582 9.95023e-21)
(1.18223 0.302882 1.82228e-21)
(1.23525 0.323431 1.70755e-20)
(1.26776 0.335786 -4.57147e-20)
(1.28541 0.341806 -1.10098e-22)
(1.29299 0.343256 1.25452e-20)
(1.29415 0.341598 -9.99744e-21)
(1.2915 0.337945 1.01112e-20)
(1.28682 0.333086 2.6168e-20)
(1.28124 0.327554 -1.48082e-20)
(1.27548 0.321681 4.17279e-21)
(1.26999 0.315687 1.609e-20)
(1.26506 0.30996 -2.64201e-20)
(1.26096 0.304539 1.27065e-20)
(0.0870726 -0.00361045 6.20952e-20)
(0.284062 -0.0265403 -3.41615e-20)
(0.490748 -0.0726089 4.03676e-20)
(0.689746 -0.128116 -3.00787e-20)
(0.866255 -0.183752 -1.36067e-20)
(1.01122 -0.233411 4.17546e-21)
(1.12195 -0.273594 -1.34519e-20)
(1.20075 -0.303255 4.86267e-20)
(1.2528 -0.323111 -4.0641e-20)
(1.28423 -0.334801 9.25927e-21)
(1.30086 -0.340234 -7.16762e-21)
(1.30753 -0.341191 -4.69084e-20)
(1.30792 -0.339131 4.56476e-20)
(1.30464 -0.335152 1.76588e-20)
(1.29943 -0.330027 -1.69928e-20)
(1.2934 -0.324273 4.07676e-20)
(1.28725 -0.318206 -5.13418e-22)
(1.28142 -0.312039 -3.96105e-20)
(1.27618 -0.306158 2.90226e-20)
(1.27179 -0.300586 9.62654e-21)
(0.0737204 -0.000587438 -2.22151e-20)
(0.249524 -0.0157945 6.05465e-20)
(0.441596 -0.0536229 7.08578e-20)
(0.633278 -0.102394 -3.42561e-20)
(0.809557 -0.153873 5.92764e-20)
(0.959914 -0.202112 9.61068e-20)
(1.07951 -0.243124 -5.3659e-21)
(1.16851 -0.275092 -1.71569e-20)
(1.23046 -0.297967 8.52541e-20)
(1.27052 -0.312799 4.20846e-20)
(1.29409 -0.321131 -7.84565e-21)
(1.30599 -0.324565 6.39166e-20)
(1.31014 -0.324523 -6.83748e-20)
(1.30942 -0.322142 1.0948e-19)
(1.3059 -0.318265 -1.78508e-20)
(1.30095 -0.313488 5.42659e-20)
(1.29545 -0.308198 1.05562e-20)
(1.28998 -0.302647 3.8592e-20)
(1.28493 -0.297228 -3.62431e-20)
(1.28063 -0.29209 1.0049e-20)
(0.0611335 0.00150324 -3.31093e-20)
(0.21593 -0.00740012 7.26745e-20)
(0.392319 -0.0376726 5.42997e-20)
(0.574754 -0.0796576 -8.67837e-21)
(0.748602 -0.12637 9.08588e-20)
(0.902495 -0.172313 -7.12916e-20)
(1.02981 -0.213294 -7.44721e-21)
(1.1287 -0.246902 6.45648e-20)
(1.20093 -0.272385 2.16874e-20)
(1.25044 -0.290186 2.98676e-20)
(1.28197 -0.301415 -4.38786e-20)
(1.30017 -0.307429 1.22552e-19)
(1.30901 -0.309549 2.3654e-20)
(1.31165 -0.30891 -1.07565e-19)
(1.31044 -0.306405 1.65214e-19)
(1.30702 -0.302699 -1.95152e-19)
(1.30249 -0.298248 -9.24305e-20)