/*--------------------------------*- C++ -*----------------------------------*\
  =========                 |
  \\      /  F ield         | OpenFOAM: The Open Source CFD Toolbox
   \\    /   O peration     | Website:  https://openfoam.org
    \\  /    A nd           | Version:  6.0
     \\/     M anipulation  |
\*---------------------------------------------------------------------------*/
FoamFile
{
    version     2.0;
    format      ascii;
    class       volScalarField;
    location    "24";
    object      p;
}
// * * * * * * * * * * * * * * * * * * * * * * * * * * * * * * * * * * * * * //

dimensions      [0 2 -2 0 0 0 0];

internalField   nonuniform List<scalar> 
12500
(
-0.25746
-0.258248
-0.258792
-0.259205
-0.259559
-0.25986
-0.260119
-0.260344
-0.260545
-0.260725
-0.260889
-0.261041
-0.261185
-0.261321
-0.261455
-0.261587
-0.26172
-0.261857
-0.262
-0.262153
-0.262321
-0.262506
-0.262659
-0.26275
-0.263292
-0.257531
-0.258318
-0.258861
-0.259272
-0.259624
-0.259923
-0.260179
-0.260402
-0.260599
-0.260776
-0.260937
-0.261086
-0.261225
-0.261358
-0.261487
-0.261615
-0.261744
-0.261877
-0.262017
-0.262165
-0.26233
-0.262512
-0.262662
-0.262749
-0.26329
-0.257671
-0.258456
-0.258996
-0.259404
-0.259752
-0.260046
-0.260296
-0.260513
-0.260703
-0.260873
-0.261027
-0.261168
-0.2613
-0.261424
-0.261545
-0.261665
-0.261785
-0.26191
-0.262041
-0.262181
-0.262339
-0.262514
-0.262657
-0.262737
-0.263275
-0.25788
-0.258662
-0.259198
-0.259601
-0.259941
-0.260228
-0.260469
-0.260677
-0.260857
-0.261016
-0.261159
-0.261288
-0.261407
-0.261519
-0.261627
-0.261733
-0.26184
-0.261952
-0.26207
-0.262197
-0.262343
-0.262508
-0.262641
-0.26271
-0.263243
-0.258158
-0.258936
-0.259467
-0.259862
-0.260194
-0.26047
-0.260699
-0.260894
-0.26106
-0.261204
-0.261331
-0.261444
-0.261546
-0.261641
-0.261731
-0.261818
-0.261907
-0.262
-0.262099
-0.26221
-0.262339
-0.262489
-0.262609
-0.262662
-0.263188
-0.258507
-0.25928
-0.259803
-0.260189
-0.260509
-0.260771
-0.260986
-0.261163
-0.261312
-0.261437
-0.261544
-0.261636
-0.261716
-0.261787
-0.261854
-0.261917
-0.261981
-0.26205
-0.262125
-0.262212
-0.26232
-0.26245
-0.262552
-0.262585
-0.263103
-0.258926
-0.259694
-0.260208
-0.260583
-0.260888
-0.261133
-0.261329
-0.261486
-0.261612
-0.261714
-0.261796
-0.261861
-0.261914
-0.261957
-0.261993
-0.262026
-0.26206
-0.262097
-0.262141
-0.262199
-0.262278
-0.262384
-0.262462
-0.26247
-0.262977
-0.259418
-0.260178
-0.260683
-0.261044
-0.261332
-0.261557
-0.26173
-0.261862
-0.261962
-0.262035
-0.262087
-0.262121
-0.26214
-0.262148
-0.262148
-0.262144
-0.262139
-0.262137
-0.262143
-0.262163
-0.262207
-0.262281
-0.26233
-0.262307
-0.262801
-0.259984
-0.260736
-0.261228
-0.261573
-0.261841
-0.262042
-0.262189
-0.262292
-0.262361
-0.262402
-0.262418
-0.262415
-0.262395
-0.262361
-0.262318
-0.262268
-0.262216
-0.262167
-0.262125
-0.262099
-0.262099
-0.262133
-0.262145
-0.262084
-0.262564
-0.260627
-0.26137
-0.261847
-0.262172
-0.262416
-0.262591
-0.262707
-0.262778
-0.262811
-0.262814
-0.26279
-0.262744
-0.262678
-0.262596
-0.262501
-0.262398
-0.26229
-0.262184
-0.262085
-0.262001
-0.261947
-0.261931
-0.261897
-0.261791
-0.262253
-0.26135
-0.262081
-0.262541
-0.262844
-0.263061
-0.263205
-0.263287
-0.263321
-0.263314
-0.263274
-0.263205
-0.26311
-0.262993
-0.262856
-0.262702
-0.262536
-0.262363
-0.262189
-0.26202
-0.261868
-0.261746
-0.261668
-0.261577
-0.261415
-0.261854
-0.262156
-0.262873
-0.263313
-0.26359
-0.263777
-0.263885
-0.26393
-0.263922
-0.263872
-0.263785
-0.263667
-0.263518
-0.263344
-0.263145
-0.262925
-0.262688
-0.262439
-0.262185
-0.261934
-0.261697
-0.261494
-0.261338
-0.261174
-0.260943
-0.261355
-0.263051
-0.26375
-0.264166
-0.264414
-0.264565
-0.264635
-0.264637
-0.264585
-0.264488
-0.264351
-0.264178
-0.263972
-0.263736
-0.263469
-0.263176
-0.262859
-0.262524
-0.262179
-0.261831
-0.261494
-0.26119
-0.260938
-0.260682
-0.260364
-0.260739
-0.264039
-0.264715
-0.265103
-0.265317
-0.265429
-0.265456
-0.265412
-0.265312
-0.265164
-0.264973
-0.264744
-0.264478
-0.264175
-0.263837
-0.263465
-0.263061
-0.262631
-0.262181
-0.261721
-0.261266
-0.26084
-0.260468
-0.260095
-0.259664
-0.259989
-0.265126
-0.265773
-0.266128
-0.266302
-0.266371
-0.26635
-0.266257
-0.266104
-0.265902
-0.265656
-0.265368
-0.265039
-0.264669
-0.264256
-0.263801
-0.263305
-0.262771
-0.262205
-0.261618
-0.261024
-0.260453
-0.259931
-0.259409
-0.25883
-0.259084
-0.266316
-0.266928
-0.267243
-0.267373
-0.267392
-0.267319
-0.267171
-0.266964
-0.266705
-0.266401
-0.266053
-0.265661
-0.265222
-0.264734
-0.264195
-0.263603
-0.262959
-0.262268
-0.261539
-0.260787
-0.260042
-0.259338
-0.258625
-0.257852
-0.258001
-0.267616
-0.268184
-0.268453
-0.268532
-0.268495
-0.268364
-0.268158
-0.267891
-0.267573
-0.267209
-0.266801
-0.266345
-0.265838
-0.265276
-0.264653
-0.263964
-0.263208
-0.262386
-0.261503
-0.260573
-0.259627
-0.258702
-0.257748
-0.256717
-0.256712
-0.269032
-0.269547
-0.269762
-0.269782
-0.269682
-0.269487
-0.269215
-0.268884
-0.268504
-0.268078
-0.267608
-0.267089
-0.266517
-0.265883
-0.265178
-0.264395
-0.263528
-0.262571
-0.261526
-0.260402
-0.259227
-0.258041
-0.256787
-0.255415
-0.255182
-0.270569
-0.271021
-0.271173
-0.271126
-0.270955
-0.270687
-0.270344
-0.269943
-0.269495
-0.269004
-0.268471
-0.267889
-0.267252
-0.266548
-0.265767
-0.264895
-0.263919
-0.26283
-0.261621
-0.260291
-0.258865
-0.257375
-0.255758
-0.253944
-0.253377
-0.272233
-0.272613
-0.272691
-0.272567
-0.272316
-0.271966
-0.271542
-0.271064
-0.270542
-0.269981
-0.269381
-0.268735
-0.268033
-0.267263
-0.266409
-0.265453
-0.264377
-0.263162
-0.26179
-0.260252
-0.258557
-0.256731
-0.254683
-0.252309
-0.251262
-0.274033
-0.274329
-0.274323
-0.274111
-0.273767
-0.273324
-0.272809
-0.272244
-0.27164
-0.271002
-0.270329
-0.269614
-0.268847
-0.268011
-0.267088
-0.266055
-0.264887
-0.263557
-0.262035
-0.260296
-0.258331
-0.256146
-0.253616
-0.250556
-0.248839
-0.275976
-0.276176
-0.276075
-0.275762
-0.275313
-0.274764
-0.274147
-0.273483
-0.272785
-0.272061
-0.271307
-0.270518
-0.269681
-0.268778
-0.267788
-0.266686
-0.265439
-0.264012
-0.262364
-0.26045
-0.258238
-0.255709
-0.252688
-0.248855
-0.246234
-0.278072
-0.278165
-0.277955
-0.277529
-0.27696
-0.276291
-0.275557
-0.27478
-0.273977
-0.273154
-0.27231
-0.271438
-0.270526
-0.269555
-0.268503
-0.267341
-0.266034
-0.26454
-0.262806
-0.260769
-0.258365
-0.255542
-0.25206
-0.24736
-0.243439
-0.280336
-0.280308
-0.279975
-0.27942
-0.278716
-0.277912
-0.277045
-0.276142
-0.275219
-0.274285
-0.273339
-0.272376
-0.271383
-0.270344
-0.269238
-0.268035
-0.266704
-0.265201
-0.263465
-0.261415
-0.258949
-0.255939
-0.251977
-0.246038
-0.239947
-0.282782
-0.282619
-0.282149
-0.281449
-0.280594
-0.279638
-0.278622
-0.277577
-0.276521
-0.275463
-0.274405
-0.273343
-0.272267
-0.271164
-0.270018
-0.268811
-0.267522
-0.266124
-0.264585
-0.262853
-0.260858
-0.258452
-0.255065
-0.249246
-0.242364
-0.285431
-0.285117
-0.284493
-0.283631
-0.282608
-0.281484
-0.280304
-0.279102
-0.277899
-0.276706
-0.275527
-0.27436
-0.273199
-0.272039
-0.270873
-0.269699
-0.26852
-0.267355
-0.266244
-0.265266
-0.264583
-0.264459
-0.265286
-0.268749
-0.281304
-0.288306
-0.287822
-0.287026
-0.285985
-0.284777
-0.283468
-0.28211
-0.280738
-0.279376
-0.278038
-0.27673
-0.275455
-0.27421
-0.272998
-0.271823
-0.270699
-0.269653
-0.268738
-0.268042
-0.26771
-0.267985
-0.269229
-0.27194
-0.277534
-0.29071
-0.291432
-0.290758
-0.28977
-0.288534
-0.287123
-0.285615
-0.284064
-0.282511
-0.280981
-0.279491
-0.27805
-0.276663
-0.275336
-0.274075
-0.272896
-0.271825
-0.270908
-0.270218
-0.269863
-0.270007
-0.270889
-0.272829
-0.276203
-0.281774
-0.292694
-0.29484
-0.29395
-0.292751
-0.2913
-0.289672
-0.287949
-0.286195
-0.284451
-0.282746
-0.281099
-0.279522
-0.278023
-0.276612
-0.275301
-0.274114
-0.273084
-0.272267
-0.27174
-0.271612
-0.272032
-0.273191
-0.275324
-0.278657
-0.283522
-0.292039
-0.298558
-0.297426
-0.295994
-0.294311
-0.292449
-0.290501
-0.288533
-0.286591
-0.284706
-0.282898
-0.281182
-0.279568
-0.278069
-0.2767
-0.275488
-0.274469
-0.273698
-0.273246
-0.273205
-0.273691
-0.274836
-0.276781
-0.279631
-0.28346
-0.289643
-0.302618
-0.301213
-0.299526
-0.297593
-0.295484
-0.293299
-0.291109
-0.288964
-0.286894
-0.284922
-0.283062
-0.281327
-0.279728
-0.278284
-0.277017
-0.275963
-0.275167
-0.274687
-0.274592
-0.274959
-0.275863
-0.277372
-0.279511
-0.282225
-0.286349
-0.307051
-0.305339
-0.303374
-0.301174
-0.298805
-0.296373
-0.293956
-0.291601
-0.289342
-0.2872
-0.285189
-0.28332
-0.281603
-0.280052
-0.278688
-0.277538
-0.276636
-0.276023
-0.275743
-0.275837
-0.27634
-0.27727
-0.278608
-0.280241
-0.282642
-0.311885
-0.309831
-0.307563
-0.305082
-0.30244
-0.299754
-0.297101
-0.294532
-0.292078
-0.289757
-0.287581
-0.285557
-0.283692
-0.281994
-0.280478
-0.279162
-0.278067
-0.277218
-0.276638
-0.276344
-0.276343
-0.276625
-0.277153
-0.277802
-0.27882
-0.317144
-0.314711
-0.312119
-0.30934
-0.306416
-0.303467
-0.300573
-0.297783
-0.295123
-0.292609
-0.290246
-0.288037
-0.285982
-0.284085
-0.282353
-0.280793
-0.279418
-0.27824
-0.277266
-0.276501
-0.275935
-0.275549
-0.275305
-0.275086
-0.275019
-0.322851
-0.320001
-0.317062
-0.313972
-0.310755
-0.307536
-0.304394
-0.301372
-0.298491
-0.295761
-0.29318
-0.290744
-0.288449
-0.286289
-0.284267
-0.282384
-0.280645
-0.279054
-0.277614
-0.27632
-0.275161
-0.274118
-0.273159
-0.272184
-0.27127
-0.329018
-0.325716
-0.322409
-0.318997
-0.315478
-0.311981
-0.30858
-0.305311
-0.302187
-0.299209
-0.296368
-0.293653
-0.291052
-0.288559
-0.286169
-0.283883
-0.281702
-0.279629
-0.277665
-0.275808
-0.274048
-0.272372
-0.270759
-0.269127
-0.267538
-0.335656
-0.331866
-0.328173
-0.324428
-0.3206
-0.316814
-0.31314
-0.309602
-0.306203
-0.302934
-0.299779
-0.296719
-0.293742
-0.290836
-0.288
-0.285234
-0.282543
-0.279931
-0.277405
-0.274964
-0.272608
-0.270329
-0.268119
-0.265907
-0.263762
-0.342763
-0.338454
-0.33436
-0.330273
-0.326126
-0.32204
-0.318073
-0.314236
-0.310519
-0.306905
-0.303368
-0.299889
-0.296454
-0.293056
-0.289696
-0.286381
-0.283121
-0.279929
-0.276814
-0.273784
-0.270844
-0.267995
-0.265232
-0.2625
-0.259874
-0.350332
-0.345476
-0.340968
-0.336533
-0.332057
-0.327653
-0.323365
-0.319188
-0.315099
-0.311071
-0.307076
-0.303095
-0.299119
-0.295148
-0.291192
-0.287268
-0.283395
-0.279592
-0.275876
-0.27226
-0.268754
-0.265364
-0.262089
-0.25888
-0.25582
-0.358341
-0.352915
-0.347985
-0.343196
-0.33838
-0.333636
-0.32899
-0.32442
-0.319891
-0.31537
-0.31083
-0.306259
-0.301658
-0.297039
-0.292425
-0.287844
-0.283325
-0.278895
-0.274575
-0.270385
-0.266334
-0.26243
-0.258675
-0.255023
-0.25156
-0.366759
-0.360748
-0.355391
-0.350242
-0.34507
-0.339955
-0.334903
-0.329874
-0.324826
-0.319722
-0.314546
-0.309296
-0.303989
-0.298656
-0.293333
-0.288061
-0.282877
-0.277814
-0.272899
-0.268149
-0.263576
-0.259186
-0.25498
-0.250912
-0.247068
-0.375542
-0.368935
-0.36315
-0.357634
-0.352087
-0.346561
-0.341043
-0.335478
-0.329819
-0.324037
-0.318129
-0.312115
-0.306032
-0.299929
-0.29386
-0.287875
-0.282019
-0.27633
-0.270832
-0.265544
-0.260474
-0.255626
-0.250994
-0.246533
-0.242329
-0.384629
-0.377425
-0.371214
-0.365324
-0.359373
-0.353387
-0.347331
-0.34114
-0.334771
-0.328211
-0.321481
-0.314625
-0.307705
-0.300792
-0.293952
-0.287247
-0.280725
-0.274422
-0.268363
-0.262561
-0.25702
-0.251739
-0.246708
-0.241877
-0.237333
-0.393945
-0.38615
-0.379518
-0.373243
-0.366853
-0.360345
-0.353668
-0.346753
-0.33957
-0.332135
-0.324497
-0.316733
-0.308932
-0.301182
-0.293563
-0.286142
-0.278967
-0.272073
-0.265478
-0.259189
-0.253205
-0.247519
-0.242114
-0.236934
-0.232073
-0.403399
-0.395027
-0.387981
-0.381306
-0.374434
-0.367333
-0.35994
-0.352196
-0.344097
-0.335694
-0.327076
-0.318353
-0.30964
-0.301042
-0.292649
-0.284526
-0.276722
-0.269262
-0.26216
-0.255414
-0.249015
-0.242951
-0.237199
-0.231694
-0.226541
-0.412883
-0.403958
-0.396505
-0.38941
-0.382002
-0.374226
-0.366017
-0.357338
-0.348224
-0.338772
-0.329115
-0.319398
-0.30976
-0.300319
-0.291167
-0.282368
-0.273963
-0.26597
-0.258392
-0.251219
-0.244437
-0.238024
-0.231951
-0.226144
-0.220726
-0.422274
-0.412826
-0.404975
-0.397433
-0.389428
-0.380887
-0.371757
-0.36204
-0.351822
-0.341255
-0.330518
-0.319791
-0.30923
-0.298963
-0.289079
-0.279636
-0.270665
-0.262173
-0.254154
-0.246588
-0.239451
-0.232719
-0.226353
-0.220272
-0.214617
-0.431432
-0.421499
-0.413258
-0.405236
-0.396566
-0.387164
-0.37701
-0.366159
-0.354762
-0.343031
-0.331193
-0.319455
-0.307991
-0.296926
-0.286347
-0.276299
-0.266801
-0.257848
-0.249423
-0.241497
-0.23404
-0.227019
-0.220389
-0.214059
-0.208199
-0.440204
-0.42983
-0.421205
-0.412665
-0.403254
-0.392896
-0.38162
-0.369552
-0.356919
-0.343995
-0.331053
-0.318323
-0.305987
-0.294166
-0.282934
-0.272325
-0.262342
-0.252969
-0.244176
-0.235926
-0.228181
-0.220903
-0.214039
-0.207488
-0.201454
-0.448425
-0.43766
-0.428656
-0.419554
-0.409323
-0.397915
-0.38543
-0.372078
-0.358172
-0.344048
-0.330019
-0.316332
-0.303167
-0.290638
-0.278805
-0.267682
-0.257261
-0.247509
-0.238388
-0.229851
-0.221852
-0.21435
-0.207283
-0.200539
-0.194365
-0.455918
-0.444819
-0.435438
-0.425726
-0.414597
-0.402052
-0.388284
-0.373603
-0.358408
-0.343099
-0.328017
-0.313421
-0.299484
-0.286305
-0.273923
-0.26234
-0.251527
-0.241442
-0.232034
-0.223247
-0.215032
-0.207339
-0.2001
-0.193195
-0.186913
-0.462501
-0.451127
-0.441368
-0.430997
-0.418895
-0.405139
-0.390032
-0.373999
-0.357525
-0.341064
-0.324982
-0.309538
-0.294893
-0.281126
-0.268257
-0.256267
-0.245114
-0.234741
-0.225088
-0.216092
-0.207696
-0.199849
-0.19247
-0.185435
-0.17908
-0.467987
-0.456398
-0.446262
-0.435182
-0.422039
-0.407013
-0.390535
-0.373149
-0.355427
-0.337868
-0.320853
-0.304634
-0.289353
-0.275066
-0.261772
-0.249433
-0.237992
-0.22738
-0.217527
-0.208363
-0.199826
-0.19186
-0.184376
-0.177242
-0.170849
-0.472188
-0.460448
-0.449932
-0.438097
-0.423858
-0.407519
-0.389661
-0.370948
-0.35203
-0.333446
-0.315578
-0.298666
-0.282826
-0.268092
-0.254439
-0.241812
-0.230138
-0.219336
-0.209329
-0.200039
-0.191401
-0.183354
-0.1758
-0.168601
-0.162205
-0.47492
-0.463093
-0.452195
-0.439565
-0.424186
-0.406517
-0.387293
-0.367301
-0.347262
-0.327739
-0.309111
-0.291594
-0.275279
-0.260174
-0.246232
-0.233378
-0.221526
-0.210587
-0.200473
-0.191103
-0.182405
-0.174316
-0.166729
-0.159499
-0.153135
-0.476005
-0.464154
-0.452873
-0.439416
-0.422873
-0.403877
-0.383328
-0.36213
-0.341061
-0.3207
-0.301412
-0.283385
-0.266684
-0.251286
-0.237125
-0.224109
-0.212139
-0.201115
-0.190945
-0.181539
-0.172825
-0.164734
-0.15715
-0.149926
-0.14363
-0.475275
-0.463461
-0.451801
-0.437494
-0.419782
-0.399488
-0.37768
-0.355366
-0.333376
-0.312289
-0.292448
-0.274013
-0.257015
-0.241406
-0.227099
-0.213987
-0.201958
-0.190906
-0.180729
-0.171336
-0.162649
-0.154599
-0.147056
-0.139874
-0.133684
-0.472573
-0.460859
-0.448825
-0.433662
-0.414796
-0.393256
-0.370275
-0.346958
-0.324168
-0.302475
-0.282196
-0.263455
-0.246253
-0.230517
-0.216139
-0.202998
-0.190972
-0.179947
-0.169817
-0.160486
-0.151873
-0.143905
-0.136444
-0.129341
-0.123293
-0.467763
-0.456207
-0.44381
-0.427798
-0.407815
-0.385106
-0.36106
-0.336867
-0.313408
-0.291237
-0.270638
-0.251697
-0.234386
-0.218607
-0.204233
-0.191132
-0.179173
-0.168233
-0.158204
-0.148984
-0.140492
-0.132651
-0.125312
-0.118329
-0.112459
-0.460723
-0.449384
-0.436641
-0.419803
-0.398761
-0.37498
-0.349996
-0.325067
-0.30108
-0.278564
-0.257763
-0.238731
-0.221406
-0.205668
-0.191377
-0.178385
-0.166556
-0.155761
-0.145887
-0.136831
-0.128508
-0.120839
-0.113665
-0.106842
-0.101188
-0.451354
-0.440287
-0.427224
-0.409599
-0.387578
-0.362843
-0.337063
-0.311547
-0.287178
-0.264451
-0.243571
-0.224554
-0.207311
-0.191701
-0.177568
-0.164757
-0.153122
-0.142533
-0.132871
-0.124031
-0.115928
-0.108477
-0.101512
-0.0948907
-0.0894893
-0.439582
-0.42884
-0.415491
-0.397134
-0.374233
-0.348678
-0.322256
-0.29631
-0.271709
-0.248907
-0.228068
-0.209173
-0.192106
-0.176709
-0.162812
-0.150251
-0.138878
-0.128555
-0.119162
-0.110592
-0.102759
-0.0955755
-0.0888651
-0.0824889
-0.0773776
-0.425355
-0.41499
-0.401395
-0.382378
-0.358712
-0.332486
-0.305585
-0.279372
-0.254688
-0.231947
-0.211269
-0.192601
-0.175804
-0.160703
-0.147118
-0.134879
-0.123832
-0.113837
-0.104771
-0.0965263
-0.0890157
-0.0821489
-0.0757406
-0.0696553
-0.0648717
-0.408647
-0.398709
-0.384917
-0.365327
-0.341027
-0.31429
-0.287079
-0.260762
-0.236146
-0.213597
-0.193196
-0.174858
-0.158422
-0.143699
-0.130502
-0.118654
-0.107998
-0.0983923
-0.0897121
-0.0818485
-0.0747139
-0.0682152
-0.062159
-0.0564123
-0.051994
-0.389459
-0.379996
-0.366065
-0.346001
-0.32121
-0.294128
-0.266779
-0.240522
-0.21612
-0.193892
-0.17388
-0.155971
-0.139983
-0.125719
-0.112982
-0.101593
-0.0913924
-0.0822373
-0.0740015
-0.0665758
-0.0598723
-0.0537951
-0.0481438
-0.0427865
-0.0387713
-0.367817
-0.358875
-0.344869
-0.324442
-0.299312
-0.272059
-0.244745
-0.218707
-0.194661
-0.172878
-0.153362
-0.135975
-0.12052
-0.106789
-0.0945826
-0.0837182
-0.0740349
-0.06539
-0.057657
-0.0507265
-0.0445106
-0.0389112
-0.0337217
-0.0288086
-0.025237
-0.343774
-0.335396
-0.321386
-0.300716
-0.275407
-0.248157
-0.221048
-0.195384
-0.171829
-0.150609
-0.13169
-0.114913
-0.100069
-0.0869428
-0.0753314
-0.0650527
-0.0559459
-0.047869
-0.0406959
-0.034318
-0.0286477
-0.0235855
-0.0189197
-0.0145133
-0.0114332
-0.317406
-0.309634
-0.295698
-0.274912
-0.249585
-0.222512
-0.195774
-0.170633
-0.147698
-0.127149
-0.108922
-0.0928363
-0.0786745
-0.0662166
-0.0552599
-0.0456231
-0.037147
-0.0296918
-0.0231334
-0.0173646
-0.0122988
-0.007836
-0.00376287
6.31562e-05
0.00259475
-0.288815
-0.28169
-0.267907
-0.247137
-0.221957
-0.195231
-0.169024
-0.144545
-0.12235
-0.102574
-0.0851231
-0.0698026
-0.0563866
-0.0446541
-0.0344036
-0.0254571
-0.017659
-0.0108733
-0.00497954
0.000126415
0.00452925
0.00832741
0.0117304
0.0148899
0.0168183
-0.258125
-0.251683
-0.238138
-0.217519
-0.192648
-0.166433
-0.140908
-0.117225
-0.09588
-0.0769684
-0.0603712
-0.0458801
-0.0332649
-0.0223052
-0.0128028
-0.00458482
0.00249846
0.00857708
0.0137653
0.0181618
0.0218472
0.0249139
0.0275618
0.0299624
0.0312479
-0.22548
-0.219757
-0.206535
-0.186202
-0.161798
-0.136254
-0.111553
-0.0887857
-0.0683927
-0.0504288
-0.034753
-0.021147
-0.00937808
0.00077179
0.00949548
0.0169592
0.0233047
0.0286536
0.0331106
0.0367653
0.0396902
0.0419669
0.043778
0.0453233
0.0458987
-0.191045
-0.186072
-0.173259
-0.153345
-0.129563
-0.104838
-0.0810947
-0.0593548
-0.0400045
-0.0230622
-0.00836699
0.00430735
0.0151941
0.0245076
0.0324342
0.0391319
0.0447325
0.0493461
0.0530639
0.0559608
0.0580976
0.0595407
0.0604348
0.0609674
0.0605939
-0.155001
-0.150807
-0.138487
-0.119123
-0.0961081
-0.0723418
-0.0496786
-0.0290678
-0.0108425
0.00501308
0.0186768
0.0303813
0.0403593
0.0488209
0.0559456
0.0618821
0.0667509
0.0706464
0.0736388
0.0757789
0.0771099
0.0776694
0.0774877
0.0766076
0.0747651
-0.117543
-0.114154
-0.10241
-0.08372
-0.0616103
-0.0389326
-0.0174604
0.0019295
0.0189566
0.0336677
0.046256
0.0569591
0.0660095
0.0736139
0.0799464
0.0851489
0.0893322
0.092575
0.0949219
0.0963924
0.0970019
0.0967089
0.0952481
0.0923213
0.0885098
-0.0788808
-0.0763174
-0.0652275
-0.047331
-0.0262545
-0.0047837
0.0153968
0.0334839
0.0492473
0.0627625
0.0742358
0.0839095
0.0920162
0.0987609
0.104317
0.108826
0.1124
0.115117
0.117018
0.118125
0.118466
0.11791
0.115753
0.111309
0.106617
-0.0392339
-0.0375136
-0.0271516
-0.0101581
0.00976813
0.0299256
0.0487248
0.0654363
0.0798778
0.0921505
0.102472
0.111088
0.118231
0.124106
0.128886
0.13272
0.135728
0.138007
0.139633
0.140701
0.141358
0.141561
0.140442
0.137484
0.139683
0.00117795
0.00203977
0.0116043
0.0275928
0.0462629
0.0650124
0.0823517
0.0976243
0.110693
0.121682
0.130817
0.138346
0.144501
0.149483
0.153467
0.156601
0.159012
0.160804
0.162073
0.162941
0.163568
0.163937
0.163563
0.162862
0.167291
0.0421216
0.0421141
0.0508186
0.065711
0.0830319
0.100292
0.116104
0.129885
0.141537
0.151206
0.159124
0.165538
0.170677
0.174741
0.177902
0.180306
0.182082
0.183339
0.184179
0.184725
0.185116
0.185331
0.185023
0.184678
0.188606
0.0833625
0.0824793
0.0902687
0.103985
0.119877
0.135579
0.149811
0.162055
0.172257
0.180576
0.18725
0.192523
0.196621
0.199737
0.202039
0.203672
0.204758
0.205408
0.20572
0.205811
0.205804
0.205684
0.205159
0.204621
0.207614
0.124665
0.122904
0.129731
0.142204
0.156601
0.170692
0.1833
0.193977
0.202702
0.209649
0.215059
0.219171
0.222204
0.224347
0.225761
0.226583
0.226931
0.226909
0.226609
0.226134
0.225591
0.224952
0.223951
0.222954
0.22505
0.165795
0.163159
0.168985
0.180158
0.193011
0.205449
0.216406
0.225495
0.232727
0.23829
0.242422
0.245359
0.247312
0.248462
0.248963
0.248944
0.248517
0.247776
0.246805
0.245697
0.244539
0.243293
0.241712
0.240161
0.24139
0.20652
0.203014
0.207811
0.217644
0.228915
0.239676
0.248966
0.256458
0.262193
0.266368
0.269218
0.270975
0.27184
0.271986
0.271558
0.270679
0.269451
0.267961
0.266283
0.2645
0.262684
0.260786
0.258586
0.256453
0.25685
0.24661
0.242247
0.245995
0.254458
0.264127
0.273202
0.280822
0.286721
0.290966
0.293758
0.295333
0.295912
0.295691
0.294831
0.293471
0.291724
0.289684
0.287429
0.285029
0.282552
0.280061
0.277502
0.274678
0.271962
0.271563
0.285844
0.280639
0.283327
0.290407
0.298468
0.30586
0.311823
0.316145
0.318916
0.320342
0.320656
0.320072
0.318774
0.316917
0.314629
0.312017
0.309166
0.306147
0.303021
0.299851
0.296687
0.293474
0.290039
0.286754
0.28559
0.324004
0.317977
0.319606
0.325302
0.331764
0.337492
0.341823
0.344595
0.345919
0.346007
0.345085
0.343358
0.341003
0.338166
0.334966
0.331501
0.327851
0.324078
0.320238
0.316385
0.312561
0.308713
0.304689
0.300853
0.298955
0.360881
0.354056
0.354636
0.358961
0.363848
0.367944
0.37068
0.371942
0.371859
0.370644
0.368519
0.365681
0.362298
0.358506
0.354417
0.350121
0.345691
0.341183
0.336648
0.332132
0.327671
0.323212
0.318627
0.314262
0.311659
0.396273
0.38868
0.38823
0.39121
0.39456
0.39707
0.398262
0.398064
0.396621
0.394149
0.390864
0.386954
0.382578
0.377864
0.372917
0.367819
0.362637
0.357421
0.352216
0.347063
0.341992
0.336952
0.331836
0.326966
0.32369
0.42999
0.421662
0.420211
0.421885
0.423749
0.424733
0.424441
0.422843
0.420099
0.416425
0.412029
0.407093
0.401768
0.396173
0.390405
0.38454
0.378639
0.372747
0.366904
0.361145
0.355495
0.349907
0.344291
0.338942
0.335023
0.46185
0.452825
0.450412
0.45083
0.451271
0.450799
0.449096
0.446169
0.442191
0.437376
0.431927
0.42602
0.419794
0.413364
0.406818
0.400228
0.393646
0.387115
0.380669
0.374339
0.368144
0.362044
0.355961
0.350161
0.345633
0.491682
0.482002
0.478674
0.477899
0.476993
0.475147
0.472115
0.467938
0.4628
0.456914
0.450478
0.443658
0.436588
0.429374
0.422099
0.414828
0.407609
0.40048
0.39347
0.386607
0.379905
0.373328
0.366812
0.36059
0.35549
0.519329
0.509039
0.50485
0.502956
0.50079
0.497661
0.493392
0.488053
0.481837
0.474957
0.467603
0.459936
0.452082
0.444142
0.43619
0.428288
0.420479
0.412796
0.405265
0.397908
0.390738
0.383723
0.37681
0.370197
0.364563
0.544642
0.533793
0.528807
0.525876
0.522546
0.518236
0.51283
0.506424
0.499219
0.491426
0.483232
0.474788
0.466216
0.457609
0.449038
0.440558
0.432209
0.424019
0.416011
0.408205
0.400608
0.393193
0.38592
0.378948
0.372823
0.56749
0.556133
0.55042
0.546544
0.542157
0.536776
0.53034
0.522968
0.514869
0.506252
0.497298
0.488153
0.478932
0.469724
0.460594
0.451592
0.442755
0.434108
0.425672
0.41746
0.409478
0.401706
0.394109
0.386813
0.380242
0.587751
0.575943
0.56958
0.564858
0.559527
0.553193
0.545841
0.537612
0.528719
0.51937
0.509741
0.499974
0.490178
0.480436
0.47081
0.461346
0.452077
0.443026
0.434209
0.425638
0.417318
0.409229
0.401347
0.393763
0.386794
0.605319
0.593119
0.586187
0.580728
0.574575
0.567411
0.559263
0.550289
0.540707
0.530723
0.52051
0.510203
0.499908
0.489703
0.479647
0.469782
0.460139
0.450737
0.441591
0.43271
0.424096
0.415734
0.407605
0.399772
0.392456
0.620102
0.607572
0.600158
0.594074
0.587227
0.579363
0.570544
0.560943
0.550781
0.540262
0.529556
0.518795
0.50808
0.497485
0.487067
0.476866
0.466908
0.457212
0.447789
0.438647
0.429786
0.421196
0.41286
0.404815
0.397207
0.632023
0.619226
0.611422
0.604832
0.597423
0.588994
0.579632
0.569525
0.558895
0.547945
0.536841
0.525714
0.51466
0.503752
0.493042
0.482569
0.472357
0.462424
0.452778
0.443426
0.434366
0.425592
0.41709
0.408875
0.401029
0.64102
0.628021
0.619921
0.612948
0.605114
0.596257
0.586487
0.575997
0.565013
0.553737
0.542334
0.53093
0.519621
0.508476
0.497546
0.486868
0.476465
0.466352
0.456539
0.447027
0.437818
0.428905
0.420278
0.411934
0.403908
0.647046
0.633912
0.625613
0.618383
0.610264
0.60112
0.591075
0.580329
0.569108
0.557615
0.546011
0.534422
0.522941
0.511637
0.50056
0.489744
0.479213
0.468981
0.459055
0.449438
0.440128
0.431123
0.422411
0.413981
0.405835
0.650069
0.636867
0.628468
0.621109
0.612846
0.603559
0.593376
0.582502
0.571162
0.559559
0.547855
0.536173
0.524606
0.513223
0.502072
0.491187
0.480592
0.470299
0.460317
0.450647
0.441287
0.432235
0.423481
0.415008
0.406801
0.650073
0.636871
0.628473
0.621113
0.612851
0.603563
0.59338
0.582505
0.571166
0.559563
0.547858
0.536176
0.524609
0.513226
0.502075
0.49119
0.480595
0.470302
0.46032
0.450649
0.44129
0.432237
0.423484
0.41501
0.406803
0.64706
0.633925
0.625626
0.618396
0.610276
0.601132
0.591086
0.58034
0.569119
0.557625
0.546021
0.534431
0.52295
0.511646
0.500569
0.489753
0.479222
0.468989
0.459063
0.449446
0.440136
0.43113
0.422419
0.413989
0.405842
0.641043
0.628044
0.619943
0.61297
0.605135
0.596277
0.586506
0.576015
0.565031
0.553755
0.542351
0.530947
0.519636
0.508491
0.497561
0.486882
0.476479
0.466366
0.456552
0.447041
0.437831
0.428918
0.42029
0.411946
0.40392
0.632056
0.619258
0.611453
0.604862
0.597452
0.589022
0.579659
0.569551
0.55892
0.547969
0.536865
0.525737
0.514682
0.503773
0.493063
0.482589
0.472377
0.462443
0.452797
0.443444
0.434384
0.42561
0.417107
0.408892
0.401045
0.620144
0.607613
0.600198
0.594113
0.587264
0.579399
0.570578
0.560976
0.550813
0.540293
0.529586
0.518824
0.508108
0.497513
0.487094
0.476892
0.466933
0.457237
0.447814
0.438671
0.429809
0.421219
0.412882
0.404837
0.397228
0.605369
0.593169
0.586235
0.580774
0.57462
0.567455
0.559305
0.55033
0.540746
0.530761
0.520546
0.510238
0.499942
0.489736
0.479679
0.469814
0.46017
0.450768
0.441621
0.432739
0.424124
0.415762
0.407633
0.399798
0.392482
0.58781
0.576001
0.569636
0.564913
0.559581
0.553245
0.54589
0.53766
0.528765
0.519414
0.509785
0.500016
0.490219
0.480476
0.470848
0.461383
0.452114
0.443062
0.434244
0.425672
0.417351
0.409262
0.401379
0.393795
0.386825
0.567557
0.5562
0.550485
0.546607
0.542217
0.536835
0.530396
0.523023
0.514922
0.506303
0.497347
0.488201
0.478979
0.469769
0.460638
0.451635
0.442797
0.434149
0.425712
0.417499
0.409517
0.401744
0.394146
0.38685
0.380278
0.544718
0.533867
0.52888
0.525946
0.522614
0.518302
0.512893
0.506485
0.499278
0.491483
0.483287
0.474842
0.466269
0.45766
0.449088
0.440607
0.432256
0.424065
0.416057
0.408249
0.400651
0.393236
0.385962
0.378989
0.372863
0.519413
0.509122
0.504931
0.503034
0.500865
0.497734
0.493462
0.488121
0.481903
0.47502
0.467665
0.459996
0.452141
0.444198
0.436245
0.428342
0.420531
0.412847
0.405315
0.397957
0.390786
0.38377
0.376856
0.370242
0.364607
0.491774
0.482092
0.478762
0.477985
0.477076
0.475226
0.472192
0.468013
0.462872
0.456984
0.450545
0.443723
0.436651
0.429436
0.42216
0.414887
0.407667
0.400536
0.393525
0.386661
0.379957
0.373379
0.366863
0.36064
0.355538
0.461949
0.452922
0.450507
0.450923
0.45136
0.450885
0.449179
0.44625
0.442269
0.437451
0.432001
0.426091
0.419863
0.413431
0.406884
0.400292
0.393709
0.387176
0.380729
0.374398
0.368202
0.3621
0.356016
0.350215
0.345686
0.430096
0.421766
0.420314
0.421984
0.423845
0.424825
0.42453
0.42293
0.420183
0.416506
0.412107
0.40717
0.401842
0.396245
0.390475
0.384609
0.378706
0.372813
0.366968
0.361208
0.355556
0.349968
0.34435
0.339
0.33508
0.396386
0.388791
0.388339
0.391316
0.394662
0.397169
0.398357
0.398156
0.396711
0.394236
0.390948
0.387035
0.382657
0.377942
0.372992
0.367893
0.362709
0.357491
0.352285
0.34713
0.342058
0.337017
0.3319
0.327028
0.32375
0.361
0.354173
0.35475
0.359072
0.363956
0.368048
0.370781
0.37204
0.371953
0.370736
0.368608
0.365768
0.362382
0.358588
0.354497
0.350199
0.345767
0.341258
0.336721
0.332203
0.327741
0.32328
0.318694
0.314328
0.311724
0.324129
0.3181
0.319726
0.325419
0.331878
0.337602
0.341929
0.344698
0.346019
0.346104
0.345179
0.343449
0.341092
0.338253
0.335051
0.331584
0.327931
0.324157
0.320315
0.31646
0.312635
0.308785
0.30476
0.300923
0.299023
0.285975
0.280767
0.283453
0.29053
0.298587
0.305975
0.311935
0.316253
0.31902
0.320444
0.320755
0.320168
0.318867
0.317008
0.314718
0.312103
0.30925
0.30623
0.303102
0.29993
0.296764
0.29355
0.290114
0.286827
0.285662
0.246746
0.242381
0.246126
0.254586
0.264251
0.273322
0.280938
0.286834
0.291075
0.293864
0.295436
0.296013
0.295788
0.294926
0.293564
0.291814
0.289772
0.287516
0.285113
0.282635
0.280142
0.277582
0.274756
0.272039
0.271638
0.20666
0.203153
0.207947
0.217776
0.229043
0.239801
0.249086
0.256575
0.262307
0.266478
0.269326
0.271079
0.271942
0.272085
0.271655
0.270774
0.269544
0.268051
0.266372
0.264586
0.262768
0.260869
0.258667
0.256533
0.256929
0.16594
0.163301
0.169125
0.180295
0.193144
0.205579
0.216531
0.225616
0.232845
0.238404
0.242533
0.245468
0.247418
0.248565
0.249063
0.249042
0.248613
0.247869
0.246897
0.245787
0.244627
0.243379
0.241797
0.240244
0.241471
0.124814
0.123051
0.129876
0.142345
0.156739
0.170825
0.183429
0.194103
0.202824
0.209768
0.215174
0.219283
0.222314
0.224454
0.225865
0.226684
0.227031
0.227006
0.226704
0.226227
0.225682
0.225041
0.224038
0.22304
0.225135
0.0835147
0.0826298
0.0904167
0.10413
0.120018
0.135716
0.149944
0.162184
0.172382
0.180698
0.187368
0.192639
0.196733
0.199847
0.202147
0.203777
0.204861
0.205508
0.205818
0.205907
0.205898
0.205776
0.205249
0.204709
0.207701
0.0422772
0.0422679
0.0509701
0.0658593
0.0831765
0.100432
0.116241
0.130017
0.141666
0.151331
0.159246
0.165657
0.170793
0.174854
0.178012