/*--------------------------------*- C++ -*----------------------------------*\
  =========                 |
  \\      /  F ield         | OpenFOAM: The Open Source CFD Toolbox
   \\    /   O peration     | Website:  https://openfoam.org
    \\  /    A nd           | Version:  6.0
     \\/     M anipulation  |
\*---------------------------------------------------------------------------*/
FoamFile
{
    version     2.0;
    format      ascii;
    class       volVectorField;
    location    "30";
    object      U;
}
// * * * * * * * * * * * * * * * * * * * * * * * * * * * * * * * * * * * * * //

dimensions      [0 1 -1 0 0 0 0];

internalField   nonuniform List<vector> 
12500
(
(-0.000259433 0.000115542 -5.48871e-22)
(-0.00153035 0.00031475 7.56632e-21)
(-0.00399484 0.000470308 -1.09575e-20)
(-0.00714936 0.000587422 5.02412e-21)
(-0.0107179 0.000670094 3.00945e-22)
(-0.0145277 0.000722205 -6.17953e-22)
(-0.0184409 0.000748139 -9.10758e-21)
(-0.022355 0.000752461 4.99395e-21)
(-0.0261989 0.000739748 3.29719e-21)
(-0.0299259 0.000714514 3.34433e-21)
(-0.0335089 0.000681153 -5.65233e-21)
(-0.0369363 0.000643885 3.28363e-21)
(-0.0402083 0.000606698 -1.54404e-21)
(-0.0433349 0.0005733 2.61442e-21)
(-0.0463327 0.000547063 -6.659e-21)
(-0.0492238 0.000530975 9.60915e-21)
(-0.0520335 0.000527596 -1.82995e-21)
(-0.0547892 0.000539025 -6.77652e-21)
(-0.0575189 0.000566877 3.46579e-21)
(-0.0602505 0.00061227 -3.3028e-21)
(-0.0630149 0.000675775 2.9518e-21)
(-0.0658421 0.000757449 3.89601e-21)
(-0.0687209 0.000857492 3.94569e-22)
(-0.0715835 0.000976742 -1.11213e-20)
(-0.074714 0.00111075 5.8649e-21)
(-0.000293741 0.000751054 1.00117e-20)
(-0.00162116 0.00196316 -2.58297e-20)
(-0.00413069 0.00289337 7.60731e-21)
(-0.00731911 0.00358813 5.0762e-21)
(-0.010911 0.00408491 -4.04148e-21)
(-0.0147343 0.00441658 -2.29303e-20)
(-0.0186519 0.00461385 6.80874e-21)
(-0.0225622 0.00470477 -1.28385e-20)
(-0.0263944 0.00471463 1.53392e-20)
(-0.0301027 0.00466618 -2.0449e-20)
(-0.0336603 0.00457978 1.09017e-20)
(-0.037056 0.00447361 3.5172e-21)
(-0.0402906 0.00436375 -8.84929e-21)
(-0.0433742 0.00426428 -3.90419e-21)
(-0.046324 0.00418739 2.85366e-20)
(-0.0491625 0.00414335 -2.52091e-20)
(-0.0519154 0.00414059 6.02131e-21)
(-0.0546107 0.00418567 1.03999e-20)
(-0.057277 0.00428334 -2.37139e-21)
(-0.0599429 0.00443656 1.67094e-20)
(-0.0626398 0.00464644 3.03437e-21)
(-0.0653988 0.00491234 -1.08674e-21)
(-0.068209 0.00523394 -2.10041e-20)
(-0.0710023 0.00561268 1.93011e-20)
(-0.074064 0.00603386 -3.67928e-20)
(-0.000368247 0.00138449 3.21046e-20)
(-0.00181624 0.00360502 1.06636e-20)
(-0.00441942 0.00530509 -1.39607e-20)
(-0.00767658 0.00657248 5.98851e-21)
(-0.0113143 0.0074782 5.60137e-21)
(-0.0151626 0.00808415 2.12286e-20)
(-0.0190864 0.0084473 -2.69282e-20)
(-0.0229856 0.00861912 -4.37092e-21)
(-0.0267913 0.00864552 -1.79809e-20)
(-0.0304586 0.00856741 -1.49912e-20)
(-0.033962 0.00842108 1.93329e-20)
(-0.0372911 0.00823861 -6.46139e-20)
(-0.0404476 0.0080482 -2.01347e-21)
(-0.0434424 0.00787444 -3.86636e-20)
(-0.0462934 0.00773844 -4.54336e-21)
(-0.0490238 0.00765796 5.47755e-21)
(-0.0516604 0.00764751 -2.98831e-20)
(-0.0542323 0.00771839 -1.86679e-20)
(-0.0567692 0.00787877 -2.20724e-20)
(-0.0593011 0.00813372 3.45404e-20)
(-0.0618609 0.00848508 1.26067e-20)
(-0.0644811 0.00893174 -5.59754e-20)
(-0.0671522 0.00947297 -2.69234e-20)
(-0.069805 0.010111 -3.00533e-20)
(-0.0727279 0.0108208 8.10175e-20)
(-0.000482882 0.0020137 -1.00572e-21)
(-0.00211533 0.00523415 -2.46571e-20)
(-0.00486051 0.00769544 -1.18174e-20)
(-0.00822093 0.0095268 7.32146e-21)
(-0.0119268 0.0108328 4.55582e-20)
(-0.0158114 0.0117043 -2.0528e-20)
(-0.0197428 0.0122245 4.37121e-20)
(-0.023624 0.012468 4.15769e-20)
(-0.0273882 0.0125013 2.52784e-20)
(-0.0309927 0.0123831 -3.8092e-22)
(-0.0344136 0.0121657 5.08262e-20)
(-0.0376419 0.0118949 8.78616e-21)
(-0.0406805 0.0116111 3.86791e-20)
(-0.0435412 0.0113495 8.87891e-20)
(-0.0462433 0.0111403 -1.02871e-19)
(-0.048811 0.0110092 1.5447e-19)
(-0.0512727 0.0109771 3.35523e-20)
(-0.0536588 0.0110606 -7.39468e-20)
(-0.0560009 0.0112716 -1.04768e-20)
(-0.0583309 0.0116179 2.68234e-20)
(-0.0606841 0.0121024 -1.34214e-20)
(-0.0630955 0.0127239 -8.01569e-21)
(-0.0655572 0.0134815 -7.80825e-21)
(-0.0679992 0.0143788 -3.14235e-20)
(-0.0707141 0.0153797 1.1011e-19)
(-0.000637506 0.00263666 1.67171e-20)
(-0.00251786 0.00684459 -7.76358e-20)
(-0.0054529 0.0100547 9.40876e-20)
(-0.00895058 0.0124378 -3.74267e-20)
(-0.0127462 0.0141321 4.47613e-20)
(-0.0166779 0.0152573 3.64853e-20)
(-0.0206183 0.0159225 1.38382e-20)
(-0.0244743 0.0162254 6.71825e-22)
(-0.0281824 0.0162525 7.77405e-20)
(-0.0317027 0.0160804 5.3746e-20)
(-0.0350135 0.0157768 -2.15301e-20)
(-0.0381076 0.0154013 -1.38443e-20)
(-0.0409894 0.0150065 5.83434e-20)
(-0.0436721 0.0146383 1.09782e-20)
(-0.0461764 0.0143364 2.97443e-20)
(-0.048528 0.0141347 7.11515e-20)
(-0.0507569 0.0140612 -6.14055e-20)
(-0.0528957 0.0141382 4.95195e-20)
(-0.0549783 0.0143825 -1.06616e-19)
(-0.0570393 0.0148049 8.94986e-20)
(-0.0591168 0.0154103 5.74367e-22)
(-0.0612495 0.0161979 -7.1201e-20)
(-0.0634323 0.0171671 2.8644e-20)
(-0.0655939 0.0183232 6.49684e-20)
(-0.0680331 0.0196192 -9.55948e-20)
(-0.000831905 0.0032515 8.64519e-20)
(-0.00302296 0.00843063 -9.1777e-20)
(-0.00619489 0.0123735 -1.47658e-20)
(-0.00986286 0.0152928 1.86015e-20)
(-0.013769 0.0173602 -4.016e-20)
(-0.0177578 0.0187244 -6.25809e-20)
(-0.0217079 0.01952 -5.19956e-20)
(-0.0255311 0.0198673 -1.25271e-20)
(-0.0291685 0.0198725 -8.93735e-20)
(-0.0325835 0.0196295 7.11177e-20)
(-0.0357573 0.0192212 -1.10392e-19)
(-0.0386848 0.0187208 5.576e-20)
(-0.0413722 0.018193 -1.8496e-20)
(-0.0438344 0.0176945 4.28045e-20)
(-0.0460934 0.0172749 -1.07551e-19)
(-0.0481769 0.0169768 5.20737e-20)
(-0.0501166 0.016836 3.87419e-21)
(-0.0519478 0.0168815 2.30725e-20)
(-0.053707 0.0171355 1.39235e-19)
(-0.0554322 0.0176135 3.08072e-20)
(-0.0571656 0.0183231 -2.81685e-21)
(-0.0589504 0.0192644 8.78442e-21)
(-0.060785 0.0204382 5.78589e-20)
(-0.0625974 0.0218524 1.64688e-20)
(-0.0646947 0.0234486 5.40167e-20)
(-0.00106579 0.00385644 -5.38679e-20)
(-0.00362935 0.00998675 7.64689e-20)
(-0.0070839 0.0146429 4.78918e-21)
(-0.0109537 0.0180795 -9.3284e-20)
(-0.0149896 0.0205022 1.96048e-19)
(-0.0190442 0.0220882 -6.33616e-20)
(-0.0230035 0.0229974 9.24429e-20)
(-0.0267858 0.023372 8.45464e-20)
(-0.0303374 0.0233375 -6.99273e-20)
(-0.0336262 0.0230044 -1.01726e-19)
(-0.0366364 0.0224704 2.78315e-20)
(-0.0393657 0.0218219 -2.93322e-20)
(-0.0418223 0.0211353 -1.29675e-19)
(-0.0440228 0.0204785 1.57444e-19)
(-0.0459908 0.0199111 -7.54655e-20)
(-0.0477557 0.0194849 -5.20074e-20)
(-0.0493515 0.0192445 4.75552e-22)
(-0.0508159 0.0192267 4.24322e-20)
(-0.0521889 0.0194606 1.74835e-20)
(-0.0535125 0.0199672 -6.84628e-20)
(-0.0548336 0.0207584 7.80944e-20)
(-0.0562013 0.0218368 -1.35624e-19)
(-0.0576188 0.0232054 8.27754e-20)
(-0.0590139 0.0248761 -6.33417e-20)
(-0.060705 0.0267785 1.66071e-20)
(-0.00133878 0.00444976 7.83568e-20)
(-0.00433524 0.0115075 -6.02608e-20)
(-0.00811624 0.0168538 -3.83334e-20)
(-0.0122174 0.020786 -6.7657e-20)
(-0.0164 0.0235438 -1.23667e-19)
(-0.020527 0.0253326 -9.13536e-20)
(-0.0244932 0.0263371 5.69152e-20)
(-0.0282248 0.0267209 -8.61802e-20)
(-0.0316746 0.0266277 1.09352e-19)
(-0.0348155 0.0261841 -1.77918e-19)
(-0.0376357 0.0255018 7.90038e-20)
(-0.0401358 0.0246797 1.668e-19)
(-0.0423261 0.0238059 -2.34277e-19)
(-0.0442251 0.0229591 3.34376e-20)
(-0.0458578 0.0222091 4.34841e-20)
(-0.0472553 0.0216178 4.2027e-20)
(-0.0484538 0.0212393 -4.51561e-20)
(-0.0494937 0.0211194 -1.11034e-20)
(-0.0504187 0.0212957 -3.31131e-20)
(-0.0512753 0.0217968 -2.76078e-20)
(-0.0521162 0.0226404 -1.51394e-19)
(-0.0529976 0.0238335 -1.02099e-20)
(-0.053929 0.025383 1.64717e-21)
(-0.0548393 0.0273068 -6.83581e-20)
(-0.0560613 0.0295223 7.0299e-20)
(-0.00165036 0.0050297 2.26335e-21)
(-0.00513819 0.0129873 2.46512e-20)
(-0.00928677 0.0189973 2.56589e-20)
(-0.0136455 0.0234008 1.48917e-20)
(-0.0179889 0.0264714 1.25855e-19)
(-0.0221916 0.0284427 1.18174e-19)
(-0.0261596 0.0295235 -9.60368e-20)
(-0.0298283 0.0298979 -2.92171e-20)
(-0.0331582 0.0297272 -2.59418e-20)
(-0.0361281 0.0291527 1.33816e-19)
(-0.0387309 0.0282992 4.80152e-20)
(-0.0409704 0.0272775 -6.98974e-20)
(-0.0428593 0.0261867 -5.91302e-20)
(-0.0444175 0.0251158 1.42438e-19)
(-0.0456718 0.0241451 -3.51143e-20)
(-0.0466546 0.0233468 -4.25466e-20)
(-0.0474039 0.0227856 -5.93474e-20)
(-0.0479628 0.0225177 -4.6176e-20)
(-0.0483788 0.0225911 -5.89086e-20)
(-0.0487034 0.0230439 -3.84985e-20)
(-0.0489961 0.0239027 1.59929e-19)
(-0.0493214 0.025181 -7.87209e-20)
(-0.0496971 0.0268922 5.2986e-20)
(-0.0500547 0.0290627 -1.40829e-19)
(-0.0507463 0.0315982 5.6774e-20)
(-0.00199981 0.00559431 -7.03551e-20)
(-0.00603484 0.0144202 -1.83255e-20)
(-0.0105885 0.0210642 -1.43131e-19)
(-0.0152271 0.0259119 -6.85688e-20)
(-0.0197406 0.0292716 -1.35333e-19)
(-0.0240183 0.0314044 -1.41095e-20)
(-0.0279787 0.0325427 7.24982e-20)
(-0.0315684 0.0328902 -4.41487e-20)
(-0.0347568 0.0326242 9.51235e-20)
(-0.0375298 0.0319 -2.31072e-19)
(-0.0398854 0.0308542 -6.68773e-21)
(-0.0418313 0.0296081 4.09302e-20)
(-0.0433825 0.0282709 -5.1911e-20)
(-0.0445607 0.0269415 4.72102e-20)
(-0.0453937 0.0257101 -3.60897e-20)
(-0.0459149 0.0246597 -7.72907e-20)
(-0.0461638 0.0238661 1.40932e-19)
(-0.0461859 0.0233975 8.73639e-20)
(-0.0460324 0.0233143 -1.81128e-20)
(-0.04576 0.0236671 5.75968e-20)
(-0.0454358 0.024494 -1.1362e-19)
(-0.0451342 0.0258187 1.63669e-19)
(-0.0448831 0.0276649 -2.23475e-19)
(-0.0446191 0.0300714 4.60012e-20)
(-0.0447196 0.0329328 -8.71375e-20)
(-0.00238609 0.00614133 3.81841e-21)
(-0.00702069 0.0157995 -6.25844e-20)
(-0.0120122 0.0230441 9.27075e-20)
(-0.0169475 0.028307 1.90056e-19)
(-0.021635 0.0319308 -3.12388e-21)
(-0.0259807 0.0342042 2.15145e-20)
(-0.0299184 0.0353823 -8.1272e-20)
(-0.0334073 0.0356872 3.80495e-20)
(-0.0364273 0.0353112 2.62177e-19)
(-0.0389724 0.0344218 -5.94783e-20)
(-0.0410468 0.033166 -7.02141e-20)
(-0.0426623 0.0316744 2.65307e-19)
(-0.0438368 0.0300647 8.65996e-20)
(-0.0445934 0.0284444 4.12051e-20)
(-0.0449607 0.0269133 4.21674e-20)
(-0.0449728 0.0255646 1.1487e-19)
(-0.0446699 0.0244858 -4.41223e-20)
(-0.0440993 0.0237584 1.1661e-19)
(-0.0433154 0.0234571 1.57734e-19)
(-0.0423802 0.0236481 -1.34487e-19)
(-0.0413689 0.0243853 1.99746e-19)
(-0.0403675 0.0257067 7.12155e-20)
(-0.0394159 0.0276515 -2.70228e-19)
(-0.0384593 0.0302764 3.90673e-19)
(-0.037908 0.033467 -3.16191e-19)
(-0.00280776 0.00666802 -1.79095e-19)
(-0.00808977 0.0171174 9.76282e-20)
(-0.013546 0.024926 -6.55001e-20)
(-0.0187878 0.0305725 -6.22084e-20)
(-0.0236457 0.0344347 -6.71292e-20)
(-0.028045 0.0368283 -7.28196e-20)
(-0.031937 0.0380305 1.99837e-20)
(-0.0352954 0.0382803 1.89799e-19)
(-0.0381123 0.0377839 -4.06556e-20)
(-0.0403911 0.0367191 -1.05838e-19)
(-0.0421431 0.0352418 -6.46159e-20)
(-0.043385 0.0334898 -2.64292e-20)
(-0.0441378 0.0315877 7.81453e-20)
(-0.0444263 0.0296501 -4.99097e-20)
(-0.0442796 0.0277848 -1.6281e-19)
(-0.0437318 0.0260944 -1.79582e-19)
(-0.0428233 0.0246778 7.15877e-20)
(-0.0416021 0.0236306 -1.33188e-19)
(-0.0401251 0.0230439 1.15599e-19)
(-0.0384593 0.0230025 -3.26415e-19)
(-0.0366882 0.0235803 2.50687e-19)
(-0.0349106 0.024836 -3.31402e-19)
(-0.033181 0.0268304 -6.16671e-21)
(-0.0314568 0.0296466 -1.11455e-19)
(-0.0301919 0.0331648 3.2713e-19)
(-0.0032628 0.00717106 2.74804e-19)
(-0.00923438 0.0183652 4.02809e-20)
(-0.0151746 0.026697 -2.64618e-20)
(-0.0207247 0.0326935 -1.11652e-20)
(-0.0257403 0.0367676 2.07694e-19)
(-0.0301692 0.0392621 6.75424e-20)
(-0.0339822 0.040475 6.12326e-20)
(-0.03717 0.0406617 -4.92187e-20)
(-0.0397382 0.0400401 1.89771e-19)
(-0.0417014 0.0387972 -9.32861e-20)
(-0.043079 0.0370953 6.01954e-20)
(-0.0438936 0.0350777 1.53059e-19)
(-0.0441699 0.0328737 -8.67757e-20)
(-0.0439347 0.0306026 9.39441e-20)
(-0.0432176 0.028378 8.86985e-20)
(-0.0420523 0.0263105 3.03484e-20)
(-0.0404785 0.0245092 -7.47209e-20)
(-0.0385442 0.0230834 2.0665e-19)
(-0.0363074 0.0221416 -1.92208e-20)
(-0.0338392 0.0217906 -2.21126e-20)
(-0.0312312 0.0221289 2.47203e-19)
(-0.0285961 0.0232422 -1.75759e-19)
(-0.0260053 0.0252226 2.95993e-19)
(-0.0234328 0.0281902 -2.45325e-19)
(-0.0213893 0.0320263 3.15399e-19)
(-0.00374849 0.00764648 -1.32736e-19)
(-0.0104447 0.0195324 2.94287e-20)
(-0.0168796 0.0283425 -3.06613e-20)
(-0.0227295 0.0346528 -1.45136e-19)
(-0.0278792 0.0389119 8.41867e-21)
(-0.0323016 0.0414891 8.26054e-20)
(-0.0359897 0.0427027 -3.35953e-19)
(-0.0389531 0.0428229 2.50734e-19)
(-0.041213 0.0420784 -2.44052e-19)
(-0.0427964 0.0406635 -1.53885e-19)
(-0.0437323 0.0387452 1.37982e-19)
(-0.0440504 0.0364699 -2.98509e-19)
(-0.0437802 0.0339688 2.51378e-19)
(-0.0429512 0.0313636 -7.9925e-20)
(-0.0415937 0.0287708 -2.28176e-19)
(-0.039741 0.0263057 5.63478e-20)
(-0.0374316 0.0240857 -5.28948e-20)
(-0.0347124 0.022232 1.99106e-20)
(-0.0316412 0.0208707 -7.12514e-20)
(-0.0282918 0.0201317 -2.36267e-19)
(-0.0247632 0.0201429 5.29254e-20)
(-0.0211822 0.0210245 -8.08918e-23)
(-0.017639 0.0229108 -2.43255e-19)
(-0.0141288 0.0259739 1.70875e-19)
(-0.0112365 0.0301065 -1.47638e-19)
(-0.00426127 0.00808961 5.37291e-20)
(-0.0117086 0.0206072 9.89439e-20)
(-0.0186384 0.0298458 1.38439e-19)
(-0.0247681 0.0364312 7.12008e-20)
(-0.0300154 0.0408474 -6.98103e-20)
(-0.0343811 0.0434901 1.66524e-19)
(-0.037883 0.0446972 1.23214e-19)
(-0.0405514 0.0447532 -4.48426e-20)
(-0.0424251 0.0438959 1.60128e-19)
(-0.0435449 0.0423256 -1.64689e-19)
(-0.0439513 0.0402122 -4.82848e-20)
(-0.0436825 0.0377029 4.90022e-20)
(-0.0427739 0.0349285 9.70666e-20)
(-0.041259 0.0320098 1.16106e-21)
(-0.0391699 0.0290627 6.13918e-20)
(-0.03654 0.0262038 1.13273e-19)
(-0.0334068 0.0235542 -1.92817e-19)
(-0.0298149 0.021244 2.39621e-19)
(-0.0258213 0.0194143 8.08042e-20)
(-0.0215004 0.018218 2.84642e-20)
(-0.016957 0.0178151 -2.90383e-19)
(-0.0123318 0.0183672 4.11046e-20)
(-0.00773468 0.0200636 6.36995e-20)
(-0.003186 0.0231479 -1.52599e-20)
(0.000633775 0.0275399 7.2541e-20)
(-0.0047967 0.00849525 4.22026e-21)
(-0.0130116 0.0215763 -2.54883e-19)
(-0.0204246 0.0311885 -6.34392e-21)
(-0.0268008 0.0380067 -6.42591e-20)
(-0.0320943 0.0425507 -4.22259e-19)
(-0.0363367 0.0452423 3.64542e-19)
(-0.0395726 0.0464388 -2.59355e-19)
(-0.0418553 0.0464377 -1.3042e-20)
(-0.0432423 0.0454856 -1.22478e-19)
(-0.0437905 0.0437874 2.11732e-19)
(-0.0435531 0.0415147 -2.27853e-19)
(-0.0425785 0.0388136 -1.06655e-19)
(-0.04091 0.0358122 2.25938e-21)
(-0.0385867 0.0326273 -2.30616e-19)
(-0.0356443 0.0293706 3.14583e-19)
(-0.0321179 0.0261549 -3.64335e-19)
(-0.0280445 0.0231004 7.27467e-22)
(-0.0234675 0.02034 5.58046e-20)
(-0.0184416 0.0180246 -1.39545e-19)
(-0.0130406 0.0163265 1.35297e-19)
(-0.00737313 0.0154372 -1.91941e-19)
(-0.00159177 0.0155642 -1.26744e-19)
(0.00417413 0.0169646 2.36103e-19)
(0.00987721 0.0199777 -2.57507e-19)
(0.0147161 0.0245725 -4.94385e-21)
(-0.00534938 0.00885775 -2.15757e-19)
(-0.0143366 0.0224257 2.47517e-19)
(-0.022208 0.0323503 -7.63672e-20)
(-0.0287823 0.0393552 1.47006e-19)
(-0.0340539 0.0439955 1.58503e-19)
(-0.0380875 0.0467193 -1.39596e-19)
(-0.0409566 0.0479026 -9.25483e-20)
(-0.0427389 0.0478561 -1.10773e-19)
(-0.0435127 0.0468343 1.01397e-19)
(-0.0433517 0.0450463 -6.75633e-21)
(-0.0423237 0.0426645 1.47748e-19)
(-0.0404889 0.039833 1.45592e-19)
(-0.0379007 0.0366756 -1.73855e-19)
(-0.0346061 0.0333026 3.41342e-19)
(-0.0306472 0.0298179 -2.26282e-19)
(-0.0260631 0.0263261 -3.87985e-20)
(-0.0208932 0.0229399 4.40522e-19)
(-0.0151811 0.0197874 -2.03946e-19)
(-0.0089803 0.0170208 1.29878e-19)
(-0.00236307 0.0148237 2.53598e-19)
(0.00456048 0.0134129 -1.6452e-19)
(0.0116281 0.0130411 1.73423e-20)
(0.018694 0.0140425 -1.12925e-20)
(0.025686 0.0168794 -6.73522e-20)
(0.0316543 0.0215996 1.26853e-19)
(-0.00591304 0.00917133 4.93087e-20)
(-0.015664 0.0231404 -1.56918e-19)
(-0.0239543 0.03331 8.57609e-20)
(-0.0306619 0.0404507 -1.04999e-21)
(-0.0358248 0.0451528 6.45401e-20)
(-0.0395433 0.0478907 -1.11042e-19)
(-0.041921 0.0490591 6.35192e-20)
(-0.0430616 0.0489814 1.72935e-19)
(-0.0430649 0.0479206 -5.24753e-21)
(-0.0420229 0.0460897 -8.82983e-20)
(-0.040019 0.0436621 8.876e-20)
(-0.0371272 0.0407799 -2.05703e-21)
(-0.0334128 0.0375619 -2.80943e-19)
(-0.0289336 0.0341109 1.04165e-19)
(-0.0237414 0.0305209 2.30172e-20)
(-0.0178835 0.0268842 -4.04727e-20)
(-0.0114058 0.0232998 -7.2131e-20)
(-0.00435624 0.0198827 2.76512e-19)
(0.00320973 0.016775 6.73968e-20)
(0.0112199 0.0141578 -1.44392e-19)
(0.0195636 0.0122601 -1.73306e-20)
(0.0280718 0.0113693 1.98659e-19)
(0.036588 0.0118976 -9.27665e-20)
(0.045025 0.0144559 3.98192e-20)
(0.0522585 0.0192071 2.68805e-20)
(-0.00648063 0.00943035 -9.87628e-20)
(-0.0169721 0.0237058 9.81568e-20)
(-0.0256256 0.0340459 -5.53268e-20)
(-0.0323836 0.041266 -1.77585e-19)
(-0.0373309 0.0459916 -1.63458e-19)
(-0.0406046 0.048723 -7.23613e-20)
(-0.0423403 0.0498737 -5.98936e-20)
(-0.0426682 0.0497804 -1.77151e-19)
(-0.0417101 0.0487144 -7.15344e-20)
(-0.0395771 0.0468936 6.51803e-20)
(-0.0363689 0.0444934 -9.30682e-20)
(-0.0321744 0.041655 -9.82585e-20)
(-0.027073 0.0384932 -9.21587e-20)
(-0.0211362 0.0351042 1.67285e-19)
(-0.0144292 0.0315716 -3.51313e-19)
(-0.00701272 0.0279739 2.0051e-19)
(0.00105478 0.0243924 -3.42887e-19)
(0.00971397 0.0209212 -5.28205e-20)
(0.0189008 0.01768 -1.88163e-19)
(0.0285378 0.0148303 -4.39239e-20)
(0.0385113 0.0125911 -5.35763e-20)
(0.048647 0.0112608 -1.78864e-19)
(0.0587851 0.0113143 -1.95691e-20)
(0.0688448 0.0135263 1.09398e-19)
(0.0775129 0.0182119 -2.84538e-19)
(-0.00704449 0.00962965 8.4726e-20)
(-0.018237 0.024108 1.10822e-19)
(-0.0271803 0.0345368 3.88144e-19)
(-0.0338862 0.0417744 -6.81464e-20)
(-0.0384886 0.0464805 1.62141e-19)
(-0.0411632 0.0491814 3.86185e-19)
(-0.0420781 0.0503096 -1.05227e-19)
(-0.0413902 0.050215 1.42391e-19)
(-0.0392436 0.0491782 8.30447e-20)
(-0.0357683 0.0474235 1.50445e-19)
(-0.0310805 0.0451295 -3.01328e-20)
(-0.0252849 0.0424386 2.03479e-20)
(-0.0184762 0.0394649 -5.26223e-20)
(-0.010742 0.0363002 2.84682e-19)
(-0.00216493 0.0330208 3.64297e-20)
(0.00717533 0.0296933 2.63818e-19)
(0.0171999 0.0263812 -6.74304e-20)
(0.0278287 0.023154 2.41074e-19)
(0.0389777 0.0200995 3.37917e-20)
(0.0505531 0.0173424 1.22415e-19)
(0.0624298 0.0150636 -5.28037e-20)
(0.0744238 0.0135339 -9.35429e-21)
(0.0863786 0.0132501 2.90704e-19)
(0.0982564 0.0151414 1.78696e-19)
(0.108568 0.0196989 -7.45313e-20)
(-0.00759646 0.00976485 -2.05389e-19)
(-0.019433 0.0243344 -2.08203e-19)
(-0.0285733 0.0347635 -2.17596e-19)
(-0.0351031 0.0419508 7.97174e-20)
(-0.0392074 0.0465895 -1.60082e-19)
(-0.0411015 0.0492322 -2.38463e-20)
(-0.0409865 0.0503299 -6.28579e-20)
(-0.039046 0.0502461 -2.60611e-19)
(-0.0354457 0.0492714 -4.06638e-20)
(-0.0303339 0.0476377 6.68036e-20)
(-0.0238431 0.0455293 -2.09496e-19)
(-0.0160931 0.0430928 2.90298e-19)
(-0.0071949 0.0404449 -3.94007e-19)
(0.00274619 0.0376784 9.48076e-20)
(0.0136271 0.0348678 -2.4101e-19)
(0.0253439 0.0320737 -1.95445e-19)
(0.0377897 0.0293477 -1.11052e-20)
(0.0508518 0.0267386 -2.94869e-20)
(0.0644114 0.0243014 2.32898e-20)
(0.0783406 0.0221131 -1.11331e-19)
(0.0924837 0.0202911 -7.70222e-20)
(0.106632 0.0190304 9.46205e-20)
(0.120628 0.0187779 -2.61637e-19)
(0.134528 0.0205603 8.5036e-20)
(0.146736 0.0250275 6.04451e-20)
(-0.00812809 0.00983254 -3.64501e-20)
(-0.0205323 0.0243747 -6.04972e-20)
(-0.0297559 0.0347095 2.34919e-19)
(-0.0359618 0.0417737 8.73628e-20)
(-0.0393886 0.0462932 1.15598e-19)
(-0.040292 0.0488462 -1.54365e-19)
(-0.0389061 0.0499023 2.5682e-22)
(-0.0354406 0.0498386 -1.24827e-19)
(-0.0300824 0.0489562 2.3068e-19)
(-0.0229966 0.0474955 7.52619e-20)
(-0.0143309 0.0456487 8.43717e-20)
(-0.00421991 0.0435697 -3.35523e-19)
(0.00720987 0.0413819 4.13627e-19)
(0.019835 0.0391851 -1.24227e-19)
(0.0335303 0.0370596 -8.88486e-20)
(0.0481643 0.0350702 2.65922e-19)
(0.0635956 0.0332683 1.18584e-19)
(0.079669 0.0316951 -3.0009e-19)
(0.0962146 0.030385 -1.25199e-19)
(0.113047 0.0293738 3.77773e-19)
(0.129952 0.0287066 -2.88554e-19)
(0.14666 0.0284596 1.73473e-19)
(0.162986 0.0289308 9.69368e-20)
(0.179125 0.031117 -1.24666e-19)
(0.193538 0.0357385 -1.20242e-19)
(-0.00863061 0.00983039 -1.34103e-19)
(-0.0215053 0.0242211 2.08334e-19)
(-0.0306748 0.0343624 8.87191e-20)
(-0.0363831 0.0412269 -1.2811e-19)
(-0.0389242 0.0455726 -2.05038e-20)
(-0.0385954 0.0480028 -1.34295e-19)
(-0.0356636 0.0490047 -5.34979e-20)
(-0.0303643 0.0489687 6.00091e-20)
(-0.022904 0.0482063 -1.49909e-20)
(-0.013464 0.0469674 1.13204e-19)
(-0.00220599 0.0454529 -9.82947e-20)
(0.0107221 0.0438262 2.71915e-19)
(0.025179 0.0422216 -3.36952e-19)
(0.0410241 0.0407506 2.10095e-19)
(0.0581107 0.0395075 2.60941e-19)
(0.0762794 0.0385724 -3.77073e-19)
(0.0953519 0.038013 -1.14732e-19)
(0.115125 0.037885 1.93286e-19)
(0.135364 0.0382305 -1.19311e-19)
(0.155803 0.0390774 1.15165e-19)
(0.176129 0.0404273 -2.79129e-19)
(0.195958 0.0422356 4.64811e-20)
(0.214994 0.0445657 1.81904e-19)
(0.233584 0.0482195 -2.92644e-19)
(0.250553 0.0538015 7.91643e-20)
(-0.00909484 0.00975707 -1.24075e-19)
(-0.0223197 0.0238684 3.88789e-19)
(-0.0312715 0.0337143 7.46236e-20)
(-0.0362793 0.0403015 -2.01598e-19)
(-0.0376953 0.0444189 1.44366e-19)
(-0.0358588 0.0466938 7.3265e-20)
(-0.03107 0.0476304 1.17005e-19)
(-0.0235897 0.0476309 -7.66241e-21)
(-0.0136437 0.0470171 -1.2153e-20)
(-0.00142871 0.0460474 -2.54609e-20)
(0.0128806 0.0449318 -1.11273e-19)
(0.0291233 0.0438437 -3.7605e-21)
(0.0471447 0.0429293 2.59927e-19)
(0.0667886 0.0423151 -4.26179e-19)
(0.0878892 0.0421143 3.03194e-19)
(0.110263 0.0424316 6.13454e-20)
(0.1337 0.0433666 1.08459e-19)
(0.157953 0.045016 -5.58921e-20)
(0.182725 0.0474737 4.95931e-19)
(0.207654 0.0508276 -3.0724e-19)
(0.232286 0.0551346 2.45717e-19)
(0.256019 0.0603535 5.78868e-20)
(0.278257 0.0664357 -1.80079e-19)
(0.299294 0.0740537 1.52589e-19)
(0.318703 0.0832603 2.36626e-19)
(-0.00951093 0.0096121 -3.6097e-20)
(-0.0229401 0.0233145 -1.3711e-19)
(-0.031481 0.0327631 -2.34269e-19)
(-0.0355532 0.038997 -1.33485e-19)
(-0.0355696 0.042835 -1.86668e-20)
(-0.0319132 0.0449274 -5.26819e-20)
(-0.0249181 0.0457933 -2.43993e-19)
(-0.0148708 0.0458458 4.04037e-20)
(-0.0020166 0.0454147 -2.73971e-19)
(0.0134318 0.0447657 -2.12433e-20)
(0.0312856 0.0441161 -2.62592e-19)
(0.0513701 0.0436475 -9.35045e-20)
(0.0735168 0.0435157 5.36451e-20)
(0.0975544 0.0438598 -2.55331e-19)
(0.123302 0.0448104 2.31504e-21)
(0.150561 0.0464965 -2.19877e-19)
(0.179107 0.0490537 8.48795e-20)
(0.20868 0.0526335 -3.07024e-19)
(0.238967 0.0574148 -5.26349e-20)
(0.269582 0.0636174 -7.3653e-21)
(0.300009 0.0714981 -5.1977e-20)
(0.329493 0.0813178 -5.33538e-20)
(0.357056 0.0935064 -2.67855e-20)
(0.382113 0.109303 -1.07148e-19)
(0.403338 0.127308 -2.29939e-19)
(-0.00986798 0.00939561 6.58185e-20)
(-0.0233267 0.0225595 1.73849e-19)
(-0.0312305 0.0315121 2.08901e-19)
(-0.0340958 0.0373227 -1.66907e-19)
(-0.0324 0.0408383 3.09535e-19)
(-0.0265719 0.0427309 -1.68019e-19)
(-0.0169811 0.0435326 9.12021e-20)
(-0.00394117 0.0436649 1.42117e-19)
(0.0122806 0.0434634 1.29277e-19)
(0.0314526 0.0431984 6.28381e-20)
(0.0533678 0.0430907 1.01535e-19)
(0.0778332 0.0433251 5.90214e-20)
(0.104661 0.0440608 3.98793e-19)
(0.133661 0.0454409 -2.8977e-19)
(0.164636 0.0476006 3.30808e-19)
(0.197377 0.0506768 -1.37478e-19)
(0.231659 0.0548179 2.96737e-19)
(0.267249 0.0601985 -1.40941e-20)
(0.303903 0.0670411 -6.14526e-20)
(0.341378 0.0756469 -1.13778e-20)
(0.379439 0.0864366 2.33814e-19)
(0.417915 0.100056 -2.2963e-19)
(0.457021 0.117803 1.60742e-19)
(0.497465 0.14147 1.79388e-19)
(0.535978 0.164869 3.74419e-20)
(-0.0101533 0.00910787 4.55531e-20)
(-0.0234345 0.0216061 -2.48818e-19)
(-0.0304378 0.0299704 -9.03005e-20)
(-0.0317853 0.0352977 8.23972e-20)
(-0.0280233 0.0384613 -2.53851e-19)
(-0.0196298 0.0401527 -5.00795e-20)
(-0.00701255 0.0409147 3.4697e-20)
(0.00948376 0.0411745 1.36991e-19)
(0.0295652 0.0412705 -3.46782e-19)
(0.0529744 0.0414733 2.63507e-20)
(0.0794774 0.0420022 -1.01326e-19)
(0.108852 0.0430381 -3.07787e-19)
(0.140879 0.0447343 2.09669e-19)
(0.175335 0.0472241 8.95957e-21)
(0.21199 0.0506291 -6.26885e-21)
(0.250607 0.0550658 2.11228e-19)
(0.290944 0.0606534 -3.73557e-19)
(0.332768 0.0675222 2.95823e-19)
(0.375865 0.0758242 -5.46721e-20)
(0.420071 0.0857439 1.73004e-19)
(0.465298 0.0975035 -2.84764e-19)
(0.511603 0.111393 1.63822e-19)
(0.559464 0.127976 -2.94737e-19)
(0.609798 0.147753 3.05833e-19)
(0.657771 0.16444 -9.4946e-20)
(-0.0103519 0.00874907 3.06695e-19)
(-0.0232117 0.0204586 -5.00317e-20)
(-0.0290104 0.0281528 3.68066e-19)
(-0.0284862 0.0329517 1.7027e-19)
(-0.0222603 0.035752 1.36203e-20)
(-0.0108643 0.0372626 7.42667e-20)
(0.00525036 0.0380341 1.79065e-20)
(0.0257018 0.0384961 3.02271e-19)
(0.0501605 0.0389856 9.72997e-20)
(0.0783319 0.0397687 -1.30435e-20)
(0.109941 0.041057 2.61421e-20)
(0.144718 0.0430197 1.00566e-19)
(0.182391 0.0457931 8.38881e-20)
(0.222681 0.049488 1.79398e-19)
(0.265298 0.0541951 -2.04388e-19)
(0.309942 0.0599901 6.1722e-20)
(0.356317 0.0669369 1.87081e-20)
(0.404136 0.0750909 9.13837e-20)
(0.45314 0.0844999 2.47918e-19)
(0.503122 0.0952008 -1.61582e-19)
(0.553944 0.107207 1.39571e-20)
(0.605568 0.120498 -2.30041e-19)
(0.658175 0.13513 2.18365e-19)
(0.712208 0.151311 -2.12809e-19)
(0.762797 0.165012 1.97464e-20)
(-0.0104457 0.00831933 -2.55882e-19)
(-0.022599 0.0191233 1.9553e-19)
(-0.0268446 0.0260795 -3.18128e-19)
(-0.0240492 0.0303243 2.74392e-20)
(-0.0149168 0.0327739 2.23617e-19)
(-3.91733e-05 0.0341514 -3.7234e-19)
(0.0200811 0.0350118 2.95174e-19)
(0.0450142 0.0357828 -4.68078e-19)
(0.0743817 0.0367955 9.32495e-20)
(0.107834 0.0383055 1.99107e-20)
(0.145035 0.0405091 1.57027e-19)
(0.185643 0.0435547 -5.21666e-19)
(0.229306 0.0475512 9.00659e-20)
(0.275658 0.0525744 9.53587e-20)
(0.324315 0.0586712 -5.71723e-20)
(0.374884 0.0658626 -3.54579e-19)
(0.426971 0.074146 1.66932e-19)
(0.480194 0.0834954 3.12619e-19)
(0.534199 0.0938592 -3.30187e-19)
(0.588672 0.105155 2.39739e-19)
(0.643357 0.117255 -3.1167e-19)
(0.698054 0.129972 2.2675e-19)
(0.752657 0.14314 -6.35909e-20)
(0.807232 0.15695 3.63801e-19)
(0.857654 0.169297 -4.17999e-19)
(-0.0104133 0.00781866 3.66597e-20)
(-0.0215291 0.0176087 2.88823e-20)
(-0.0238258 0.0237767 7.07491e-20)
(-0.0183133 0.0274653 2.52205e-19)
(-0.00578754 0.0296052 -7.87367e-21)
(0.01309 0.0309292 5.63162e-20)
(0.0377538 0.0319923 2.50426e-19)
(0.0677113 0.0332153 1.00991e-19)
(0.102516 0.0349169 -3.32413e-20)
(0.141739 0.0373348 2.82971e-19)
(0.184956 0.040641 -3.22057e-19)
(0.231723 0.0449528 4.93995e-19)
(0.281576 0.0503406 -1.95951e-19)
(0.334028 0.0568331 3.55555e-19)
(0.388572 0.0644223 -1.20041e-19)
(0.444689 0.0730663 4.3783e-20)
(0.501864 0.0826915 5.30583e-20)
(0.559595 0.0931941 -1.0271e-19)
(0.617415 0.104439 8.59447e-20)
(0.674899 0.116257 5.53218e-20)
(0.731676 0.128441 7.65851e-20)
(0.787422 0.14073 1.63258e-19)
(0.841863 0.152871 -1.34251e-20)
(0.894882 0.165035 -7.48379e-20)
(0.94342 0.176594 2.28957e-19)
(-0.0102294 0.00724722 -2.14341e-19)
(-0.0199265 0.0159257 2.26489e-20)
(-0.0198295 0.0212765 -4.0697e-19)
(-0.0111076 0.0244348 -9.71623e-20)
(0.00533924 0.0263378 -1.81736e-19)
(0.028767 0.0277235 -3.89786e-20)
(0.0585308 0.0291402 -1.94423e-19)
(0.0940542 0.0309949 -1.16093e-19)
(0.134796 0.0335857 1.53675e-19)
(0.180221 0.0371229 -2.56405e-19)
(0.22978 0.0417432 -7.11951e-20)
(0.282893 0.0475205 2.7899e-21)
(0.338952 0.0544739 -4.80918e-19)
(0.397316 0.0625736 2.04436e-19)
(0.457331 0.0717469 -2.98498e-19)
(0.518334 0.0818831 -9.3335e-21)
(0.579679 0.0928376 5.90382e-20)
(0.640749 0.104437 -9.56738e-20)
(0.700977 0.11648 -8.39592e-20)
(0.759854 0.128742 4.22244e-20)
(0.816943 0.140975 4.7445e-20)
(0.871868 0.152905 -3.07135e-19)
(0.924306 0.164262 1.75325e-19)
(0.974085 0.175181 8.9512e-20)
(1.01921 0.186076 2.56593e-20)
(-0.00986512 0.00660581 2.19403e-19)
(-0.0177081 0.0140888 -2.34029e-19)
(-0.014723 0.0186179 3.27986e-19)
(-0.00225569 0.0213028 5.09156e-20)
(0.0186747 0.0230774 -1.5623e-20)
(0.0472245 0.0246771 -1.10071e-19)
(0.0826472 0.0266356 1.65501e-20)
(0.124255 0.0293367 1.67117e-19)
(0.171379 0.0330472 -2.30442e-19)
(0.223341 0.0379372 2.41887e-19)
(0.27943 0.0440944 -2.55242e-20)
(0.338896 0.0515351 1.12499e-20)
(0.400951 0.0602133 3.1438e-19)
(0.464783 0.0700291 4.21367e-19)
(0.529573 0.0808371 -1.64834e-19)
(0.594517 0.0924542 2.9323e-19)
(0.65885 0.104669 1.49369e-19)
(0.721867 0.117247 -9.11628e-20)
(0.782943 0.129941 2.90174e-19)
(0.841541 0.142498 -1.05571e-20)
(0.897226 0.154658 -2.80205e-19)
(0.94965 0.166165 2.96898e-19)
(0.998543 0.176774 4.35852e-20)
(1.04378 0.186591 -1.85691e-19)
(1.08428 0.196701 5.82237e-20)
(-0.00928778 0.00589651 -3.05477e-19)
(-0.0147845 0.0121172 3.19082e-19)
(-0.00836833 0.0158482 -2.02426e-19)
(0.00841926 0.0181508 -6.32081e-20)
(0.0344216 0.0199427 -1.41199e-19)
(0.0686725 0.0219465 2.49546e-19)
(0.110295 0.0246709 -1.4479e-19)
(0.158454 0.0284636 -6.62939e-20)
(0.212317 0.0335458 -1.89711e-19)
(0.271019 0.0400317 4.91235e-21)
(0.333649 0.0479434 -7.41542e-20)
(0.399253 0.0572236 3.61022e-20)
(0.466845 0.0677472 -3.79928e-19)
(0.535427 0.0793336 1.08231e-19)
(0.604024 0.091759 -1.30785e-19)
(0.67171 0.104769 -1.05615e-19)
(0.737639 0.118092 3.25978e-20)
(0.801069 0.13145 -1.54641e-19)
(0.861378 0.144568 -6.69901e-20)
(0.918075 0.157186 1.92056e-19)
(0.970799 0.169062 8.21409e-20)
(1.01931 0.179979 -3.48665e-19)
(1.06347 0.189743 2.57561e-19)
(1.10329 0.198453 -4.88747e-20)
(1.13836 0.207549 -1.01857e-19)
(-0.00846177 0.00512344 -1.11498e-19)
(-0.0110616 0.0100361 -5.96191e-20)
(-0.000625615 0.0130241 -1.19433e-20)
(0.0210889 0.0150721 8.69962e-20)
(0.0527652 0.0170651 9.46132e-20)
(0.0932853 0.0197003 8.23562e-20)
(0.141606 0.0234463 1.02324e-19)
(0.196704 0.0285985 1.56113e-19)
(0.257536 0.0353146 2.38434e-19)
(0.323011 0.0436337 2.35771e-19)
(0.391983 0.0534936 1.24421e-19)
(0.463269 0.0647464 -3.33885e-20)
(0.535673 0.0771749 8.3738e-21)
(0.608025 0.0905104 -1.14791e-20)
(0.67922 0.10445 9.84949e-20)