/*--------------------------------*- C++ -*----------------------------------*\
  =========                 |
  \\      /  F ield         | OpenFOAM: The Open Source CFD Toolbox
   \\    /   O peration     | Website:  https://openfoam.org
    \\  /    A nd           | Version:  6.0
     \\/     M anipulation  |
\*---------------------------------------------------------------------------*/
FoamFile
{
    version     2.0;
    format      ascii;
    class       volVectorField;
    location    "24.8";
    object      U;
}
// * * * * * * * * * * * * * * * * * * * * * * * * * * * * * * * * * * * * * //

dimensions      [0 1 -1 0 0 0 0];

internalField   nonuniform List<vector> 
8000
(
(-0.000475851 0.000564501 -3.44481e-21)
(-0.00260083 0.00138986 1.84135e-20)
(-0.00652666 0.00195673 -2.23954e-20)
(-0.0113453 0.00232519 1.70535e-20)
(-0.0165829 0.0025416 8.30443e-21)
(-0.0219712 0.00264347 -2.49377e-20)
(-0.0273184 0.00266232 -2.20412e-21)
(-0.0325001 0.00262427 -7.8212e-22)
(-0.0374471 0.00255086 -1.29447e-20)
(-0.0421306 0.00245982 -7.01302e-21)
(-0.0465508 0.00236567 5.23004e-21)
(-0.0507294 0.0022802 1.98827e-20)
(-0.0547024 0.00221284 -1.48895e-21)
(-0.0585149 0.00217086 2.13032e-21)
(-0.062218 0.00215959 -2.00263e-20)
(-0.0658707 0.00218239 1.23394e-20)
(-0.0695326 0.00224086 -1.76789e-20)
(-0.0731989 0.00233613 2.67529e-20)
(-0.0767858 0.00246973 -2.9948e-23)
(-0.0807503 0.00263249 5.77669e-21)
(-0.000561433 0.00165012 1.14402e-20)
(-0.00281011 0.00409281 -5.84649e-20)
(-0.00681603 0.00579839 -4.03801e-20)
(-0.0116798 0.0069351 -2.74219e-20)
(-0.0169334 0.00763273 -3.52772e-20)
(-0.0223133 0.00799703 7.7626e-21)
(-0.0276312 0.00811768 -4.0723e-20)
(-0.0327655 0.00806981 -9.14656e-21)
(-0.0376492 0.007916 2.89005e-21)
(-0.0422548 0.00770823 3.0436e-20)
(-0.0465839 0.00748951 -3.32015e-20)
(-0.050659 0.0072951 4.61843e-20)
(-0.0545172 0.00715337 -3.45852e-20)
(-0.0582047 0.00708642 -4.10129e-20)
(-0.0617739 0.00711051 -5.65174e-20)
(-0.0652851 0.00723606 3.60946e-20)
(-0.0688 0.00746812 -1.16735e-20)
(-0.0723152 0.00781034 -4.25012e-20)
(-0.0757463 0.00826738 4.01862e-20)
(-0.0795532 0.00881145 -2.98431e-20)
(-0.000730905 0.00272252 1.11838e-19)
(-0.00322453 0.00676185 5.79162e-20)
(-0.00738842 0.00958956 6.51335e-20)
(-0.0123403 0.0114804 5.41977e-21)
(-0.0176244 0.0126468 3.59993e-20)
(-0.0229859 0.0132616 4.4929e-20)
(-0.028244 0.0134721 -8.16516e-20)
(-0.0332826 0.0134017 -4.32383e-20)
(-0.0380387 0.0131534 -5.63129e-20)
(-0.0424881 0.0128133 6.01118e-20)
(-0.0466345 0.0124528 -4.59136e-20)
(-0.0505023 0.0121309 -5.90744e-20)
(-0.0541306 0.0118954 -2.15118e-20)
(-0.0575678 0.0117838 2.04347e-20)
(-0.0608684 0.0118245 -5.68025e-21)
(-0.064096 0.0120356 8.19179e-21)
(-0.0673159 0.0124267 9.481e-20)
(-0.0705281 0.0130047 -1.33217e-20)
(-0.0736472 0.0137783 -9.63781e-20)
(-0.0771386 0.014701 1.2703e-19)
(-0.000982895 0.00377317 3.8911e-20)
(-0.00384083 0.00937473 -5.49636e-20)
(-0.00823951 0.0132969 -1.37867e-20)
(-0.0133221 0.0159186 2.57767e-20)
(-0.0186507 0.017533 7.31915e-20)
(-0.0239843 0.0183791 1.60245e-19)
(-0.0291529 0.0186601 1.56581e-19)
(-0.034049 0.0185466 1.30091e-20)
(-0.0386157 0.0181812 9.60192e-20)
(-0.0428331 0.0176834 1.4697e-19)
(-0.0467084 0.0171529 -1.17434e-19)
(-0.0502688 0.0166728 1.73799e-19)
(-0.0535559 0.0163109 -3.93556e-20)
(-0.0566209 0.0161218 9.92769e-21)
(-0.0595221 0.0161469 4.10977e-20)
(-0.0623276 0.0164142 5.46139e-20)
(-0.0651083 0.0169391 -8.59518e-20)
(-0.0678694 0.0177334 -7.1732e-20)
(-0.0705248 0.0188118 -1.26933e-19)
(-0.073549 0.0201087 1.84762e-19)
(-0.00131542 0.00479434 -2.03299e-20)
(-0.00465407 0.0119107 -2.08098e-19)
(-0.00936233 0.016889 -6.15525e-20)
(-0.0146167 0.0202096 -1.49996e-19)
(-0.0200031 0.0222442 5.66988e-20)
(-0.0252991 0.0232958 -8.94217e-20)
(-0.0303495 0.0236217 3.07536e-20)
(-0.035058 0.0234379 -1.89395e-19)
(-0.039376 0.0229255 9.9917e-20)
(-0.0432894 0.0222361 -1.19152e-19)
(-0.0468097 0.0214975 -1.05964e-19)
(-0.0499672 0.0208169 -1.18649e-19)
(-0.0528068 0.0202835 1.07698e-19)
(-0.0553833 0.0199701 -9.66994e-20)
(-0.0577595 0.0199336 1.34648e-19)
(-0.0600092 0.0202143 3.89142e-20)
(-0.0622113 0.020836 9.63232e-20)
(-0.0643783 0.0218179 4.22606e-20)
(-0.0664246 0.0231835 -1.67374e-19)
(-0.0688384 0.0248484 2.72506e-19)
(-0.00172596 0.00577927 8.9615e-20)
(-0.00565748 0.0143511 6.89504e-21)
(-0.0107468 0.0203373 3.69178e-20)
(-0.0162112 0.0243167 1.28819e-19)
(-0.0216667 0.0267372 -1.97206e-20)
(-0.0269142 0.0279634 2.0919e-19)
(-0.0318174 0.0283041 9.28488e-20)
(-0.0362944 0.0280185 7.80577e-21)
(-0.0403068 0.0273236 2.38751e-19)
(-0.0438477 0.0264023 7.82311e-20)
(-0.0469335 0.0254091 3.7113e-20)
(-0.0495983 0.0244758 1.17785e-19)
(-0.0518903 0.0237134 1.07964e-19)
(-0.053868 0.0232152 1.97101e-19)
(-0.0555995 0.0230565 -1.76172e-19)
(-0.0571656 0.023293 2.4903e-19)
(-0.058655 0.0239611 3.26543e-21)
(-0.0600907 0.0250911 -3.18272e-19)
(-0.0613893 0.0267197 4.12581e-19)
(-0.0630589 0.0287445 1.71089e-19)
(-0.0022115 0.00672205 -5.28118e-20)
(-0.00684228 0.0166785 -9.5864e-20)
(-0.0123788 0.0236152 -1.99496e-19)
(-0.0180867 0.0282064 -5.91352e-21)
(-0.0236183 0.0309737 3.40432e-20)
(-0.0288033 0.0323402 -2.54749e-19)
(-0.0335284 0.0326634 -1.88996e-19)
(-0.0377292 0.0322423 -2.70352e-20)
(-0.0413798 0.0313275 -2.39064e-19)
(-0.044482 0.0301303 -1.65522e-19)
(-0.0470577 0.028831 -4.82393e-20)
(-0.0491449 0.0275849 -1.5533e-19)
(-0.0507946 0.0265259 -2.53181e-21)
(-0.0520695 0.0257695 -2.06284e-19)
(-0.0530425 0.0254126 8.67721e-20)
(-0.0538027 0.0255314 -9.8999e-20)
(-0.0544508 0.0261794 7.58382e-20)
(-0.0550226 0.0274047 -9.65281e-20)
(-0.0554409 0.0292635 -2.75774e-19)
(-0.0562422 0.0316377 -8.38138e-20)
(-0.00276849 0.00761737 -1.94357e-20)
(-0.00819729 0.0188771 -2.11086e-20)
(-0.0142394 0.0266983 1.67262e-19)
(-0.0202166 0.0318483 -2.7219e-19)
(-0.0258243 0.0349198 3.99308e-20)
(-0.0309262 0.0363913 -1.57235e-19)
(-0.0354368 0.036665 7.43032e-20)
(-0.0393126 0.0360764 3.3398e-19)
(-0.0425429 0.0349058 -2.14234e-20)
(-0.0451394 0.0333899 -2.49158e-19)
(-0.0471304 0.031732 4.52681e-20)
(-0.0485574 0.0301096 8.7779e-21)
(-0.0494744 0.0286794 -5.11641e-20)
(-0.0499468 0.0275807 5.16827e-21)
(-0.0500524 0.0269355 4.49467e-19)
(-0.0498887 0.0268457 -6.39918e-20)
(-0.04957 0.0273895 -1.24854e-19)
(-0.0491485 0.0286408 -2.2399e-19)
(-0.0485575 0.0306854 2.28488e-19)
(-0.0483742 0.0333944 9.85965e-20)
(-0.00339269 0.0084601 9.81449e-20)
(-0.00970835 0.0209314 -1.28406e-19)
(-0.0163035 0.029563 1.81543e-19)
(-0.0225645 0.0352141 1.82761e-19)
(-0.0282368 0.0385453 1.68478e-19)
(-0.0332242 0.0400874 3.41646e-19)
(-0.0374736 0.0402835 2.20934e-19)
(-0.0409665 0.0395011 -4.74761e-19)
(-0.0437099 0.0380457 2.42808e-19)
(-0.0457276 0.0361751 1.90539e-19)
(-0.0470549 0.0341121 -2.70903e-21)
(-0.0477371 0.0320533 2.13305e-19)
(-0.0478302 0.0301767 1.66305e-19)
(-0.0474013 0.0286457 -9.04569e-20)
(-0.0465319 0.0276109 3.05696e-19)
(-0.0453274 0.0272055 -3.78946e-19)
(-0.0439168 0.0275412 1.51689e-19)
(-0.0423715 0.0287293 1.95057e-19)
(-0.0406416 0.0309 -4.54455e-20)
(-0.0393615 0.033922 3.92194e-19)
(-0.00407894 0.00924482 1.97214e-19)
(-0.0113576 0.0228254 1.02304e-20)
(-0.0185386 0.0321858 -7.07867e-20)
(-0.0250822 0.0382757 -7.47743e-20)
(-0.0307913 0.0418219 -3.46289e-19)
(-0.0356158 0.0434038 4.90378e-20)
(-0.0395405 0.0435013 1.38942e-19)
(-0.0425757 0.042509 -6.68327e-20)
(-0.0447499 0.0407527 5.51311e-20)
(-0.0461008 0.0385062 -1.46132e-20)
(-0.0466725 0.0360061 -7.20146e-20)
(-0.0465144 0.0334639 6.83814e-20)
(-0.0456838 0.0310751 -2.97296e-19)
(-0.0442482 0.029026 2.85015e-19)
(-0.0422909 0.0274966 -2.46888e-19)
(-0.039924 0.026657 7.62567e-20)
(-0.0372911 0.026662 1.73557e-19)
(-0.0344852 0.0276754 -3.60983e-20)
(-0.0314794 0.0298924 -1.20058e-19)
(-0.0289886 0.0331946 -8.17104e-20)
(-0.00482083 0.00996531 -2.45663e-19)
(-0.0131229 0.0245415 -1.61735e-20)
(-0.0209036 0.0345413 5.17393e-20)
(-0.0277078 0.0410043 1.33039e-19)
(-0.0334034 0.0447213 -1.87819e-19)
(-0.0379927 0.0463173 -1.63904e-19)
(-0.0415036 0.0463052 3.82578e-19)
(-0.04398 0.045102 -2.11402e-19)
(-0.0454753 0.0430483 -1.36374e-19)
(-0.0460447 0.0404278 -1.9569e-19)
(-0.0457428 0.0374848 1.29551e-19)
(-0.0446247 0.0344387 -3.49016e-21)
(-0.0427489 0.0314965 -2.41942e-19)
(-0.0401824 0.0288628 -3.95825e-19)
(-0.0370085 0.026745 3.01567e-19)
(-0.0333432 0.0253525 -2.44378e-19)
(-0.0293438 0.0248921 3.46472e-19)
(-0.0251255 0.0255978 -9.70692e-20)
(-0.0206905 0.0277579 2.0402e-19)
(-0.0168644 0.0312909 -6.93148e-19)
(-0.00561038 0.0106143 -4.97541e-19)
(-0.0149765 0.02606 3.26257e-19)
(-0.0233477 0.0366016 4.43708e-20)
(-0.0303642 0.0433679 8.58409e-21)
(-0.0359667 0.0472123 -2.01197e-19)
(-0.0402161 0.0488031 2.95872e-19)
(-0.0431886 0.0486826 3.22952e-20)
(-0.0449666 0.0472861 -6.06719e-20)
(-0.0456324 0.0449639 -1.94762e-19)
(-0.0452621 0.0420037 2.10528e-19)
(-0.0439248 0.0386502 5.33795e-19)
(-0.0416834 0.035123 -1.1792e-19)
(-0.0385998 0.0316314 2.66506e-19)
(-0.0347407 0.0283892 -3.14833e-19)
(-0.0301876 0.0256244 -3.01922e-19)
(-0.0250586 0.0235828 1.81518e-19)
(-0.0195221 0.0225277 2.99947e-19)
(-0.0137139 0.0227806 -9.71959e-19)
(-0.00766781 0.0247581 1.14118e-19)
(-0.00235875 0.0284513 1.55263e-19)
(-0.00643778 0.0111834 3.68429e-19)
(-0.0168855 0.0273587 1.21214e-19)
(-0.0258099 0.0383352 6.31443e-19)
(-0.0329581 0.0453302 3.25003e-20)
(-0.0383513 0.0492586 -7.02299e-20)
(-0.0421148 0.0508307 -3.34448e-19)
(-0.0443777 0.0506156 2.84413e-19)
(-0.0452651 0.0490638 5.10303e-19)
(-0.0448927 0.0465317 3.39996e-19)
(-0.043362 0.0433058 2.45483e-19)
(-0.0407605 0.0396251 2.11646e-19)
(-0.0371642 0.0357001 -3.80043e-19)
(-0.0326422 0.0317322 -1.19055e-19)
(-0.0272638 0.0279313 -8.7705e-20)
(-0.0211104 0.0245324 9.39818e-19)
(-0.0143007 0.021806 -3.18264e-21)
(-0.00701173 0.0200668 -2.34276e-19)
(0.000604078 0.0197343 -7.38501e-20)
(0.00848574 0.0213923 6.72248e-19)
(0.015465 0.0251535 8.79857e-20)
(-0.00729128 0.0116634 -1.81571e-20)
(-0.0188105 0.0284133 -3.48575e-19)
(-0.028218 0.0397069 -5.18611e-19)
(-0.0353794 0.0468495 -1.44322e-19)
(-0.0404033 0.0508169 7.96951e-20)
(-0.043484 0.0523607 1.71586e-20)
(-0.0448077 0.0520759 4.55124e-19)
(-0.0445457 0.0504266 -5.64458e-19)
(-0.0428505 0.0477733 -2.14711e-19)
(-0.0398537 0.0443992 -4.32729e-19)
(-0.035667 0.0405327 -3.68588e-19)
(-0.0303854 0.0363692 -3.26403e-19)
(-0.0240928 0.0320911 8.16132e-20)
(-0.0168686 0.0278897 -1.05986e-19)
(-0.00879993 0.0239873 4.54186e-19)
(-9.50278e-06 0.0206563 -2.48899e-19)
(0.0093168 0.018242 -7.80534e-19)
(0.0190156 0.0172549 -1.5749e-19)
(0.0290148 0.0184792 3.85289e-19)
(0.0379115 0.0222065 -3.36024e-19)
(-0.00815725 0.0120448 -5.87838e-20)
(-0.0207062 0.029198 4.26373e-19)
(-0.0304892 0.0406792 -5.43808e-19)
(-0.0375013 0.0478798 1.25689e-19)
(-0.0419446 0.051837 -2.5893e-19)
(-0.0440859 0.0533439 5.76778e-19)
(-0.0441712 0.0530212 -4.12234e-19)
(-0.04242 0.0513475 4.71638e-19)
(-0.0390246 0.0486882 -4.47199e-19)
(-0.0341499 0.0453236 1.90818e-19)
(-0.0279374 0.041472 -9.26002e-20)
(-0.0205095 0.0373111 -2.32529e-19)
(-0.0119755 0.0329983 -2.87347e-19)
(-0.00243766 0.0286934 2.86345e-19)
(0.00799785 0.0245847 -2.3984e-19)
(0.0191925 0.0209148 -5.24553e-19)
(0.0309431 0.0180185 5.46143e-19)
(0.0430774 0.016461 -6.96873e-19)
(0.0555448 0.0172337 3.13466e-19)
(0.0666886 0.0208561 8.39403e-21)
(-0.00902047 0.0123183 -5.33079e-19)
(-0.0225214 0.0296874 -5.75636e-19)
(-0.0325297 0.0412137 6.63293e-20)
(-0.0391798 0.0483731 -5.55186e-19)
(-0.0427726 0.0522643 -4.94312e-20)
(-0.0436499 0.0537229 -4.08398e-19)
(-0.0421182 0.0533966 -9.36952e-20)
(-0.0384456 0.0517802 -2.73836e-19)
(-0.0328646 0.0492476 2.42467e-21)
(-0.0255761 0.0460807 -1.19821e-19)
(-0.0167559 0.0424931 8.51207e-21)
(-0.00656195 0.0386496 -3.45297e-19)
(0.0048583 0.034685 3.80629e-19)
(0.0173616 0.0307242 -5.40077e-19)
(0.0308005 0.026907 1.91408e-19)
(0.0449962 0.0234151 7.3106e-21)
(0.0597041 0.0205176 -3.04987e-19)
(0.0747288 0.0187576 7.56424e-19)
(0.090088 0.0192856 -1.80746e-19)
(0.103911 0.022852 -1.17518e-19)
(-0.00986438 0.0124763 5.9845e-19)
(-0.0241987 0.0298583 3.23161e-19)
(-0.0342335 0.0412744 3.00619e-19)
(-0.0402525 0.0482833 4.488e-20)
(-0.0426595 0.0520455 4.06529e-19)
(-0.0418722 0.0534395 5.85971e-19)
(-0.0382571 0.0531416 4.79794e-19)
(-0.0321294 0.0516657 4.29305e-20)
(-0.0237604 0.0493991 3.51369e-19)
(-0.0133871 0.0466329 5.42929e-19)
(-0.00122217 0.0435857 -1.40843e-19)
(0.0125341 0.040422 2.3638e-19)
(0.0276834 0.0372678 1.90862e-19)
(0.0440215 0.0342249 1.94185e-19)
(0.0613303 0.0313895 1.1493e-18)
(0.0793537 0.0288695 -4.30807e-19)
(0.0977593 0.0268182 -2.63556e-20)
(0.116279 0.0256461 5.00419e-19)
(0.135032 0.0265318 -2.83904e-19)
(0.152094 0.0303753 1.40617e-19)
(-0.0106712 0.0125127 -4.84008e-19)
(-0.0256742 0.0296913 3.10386e-20)
(-0.0354815 0.0408315 -3.87525e-19)
(-0.0405359 0.0475729 -5.04446e-20)
(-0.0413484 0.0511373 2.83688e-19)
(-0.0384129 0.0524463 -8.44493e-19)
(-0.0321537 0.0522056 -6.04427e-22)
(-0.0229302 0.0509505 3.93002e-19)
(-0.0110502 0.0490866 3.6925e-19)
(0.00321556 0.0469221 -1.62572e-19)
(0.0196166 0.044693 5.3607e-20)
(0.0379064 0.042581 1.24339e-19)
(0.057826 0.0407266 -5.88643e-20)
(0.0790913 0.0392392 -6.60611e-19)
(0.101381 0.0382057 1.67241e-19)
(0.124313 0.0376907 4.60791e-19)
(0.147394 0.0377304 -6.56825e-19)
(0.170177 0.0385135 3.20468e-19)
(0.192859 0.0410823 8.61898e-20)
(0.213802 0.0463051 4.37649e-19)
(-0.0114215 0.0124235 -7.15022e-20)
(-0.0268754 0.0291726 -3.39204e-19)
(-0.0361377 0.0398653 1.56075e-19)
(-0.0398213 0.0462197 7.00883e-22)
(-0.0385489 0.0495175 -6.80316e-19)
(-0.0328907 0.0507227 1.06161e-19)
(-0.023327 0.0505693 -2.01565e-20)
(-0.0102584 0.0496146 1.37333e-19)
(0.00597366 0.0482846 -6.28622e-19)
(0.0250665 0.0469103 -4.40621e-20)
(0.0467335 0.0457545 -1.47687e-19)
(0.0706815 0.0450323 1.31376e-19)
(0.0965891 0.0449265 4.43606e-19)
(0.124083 0.045598 -6.85728e-20)
(0.152716 0.0471943 2.65818e-20)
(0.181921 0.0498396 1.74887e-19)
(0.210933 0.053588 -4.31442e-20)
(0.238894 0.0585528 3.53934e-19)
(0.265795 0.0657768 -2.04688e-19)
(0.290627 0.0757855 -3.2526e-19)
(-0.0120936 0.0122067 6.63008e-20)
(-0.0277193 0.028295 1.61519e-20)
(-0.0360453 0.0383696 1.36034e-19)
(-0.0378691 0.0442239 3.33184e-19)
(-0.0339305 0.0471966 1.86959e-19)
(-0.0248772 0.0482917 1.95064e-20)
(-0.0112452 0.0482682 -2.23191e-19)
(0.00652361 0.0477028 5.72191e-20)
(0.028054 0.0470397 3.00885e-19)
(0.0530104 0.04663 -5.09862e-19)
(0.0810704 0.0467627 3.84742e-19)
(0.111901 0.047689 -2.89911e-19)
(0.145133 0.0496436 2.46099e-19)
(0.180341 0.0528666 -5.30953e-19)
(0.217009 0.0576279 5.84493e-19)
(0.254472 0.0642411 -6.25364e-19)
(0.291772 0.0730562 -1.62881e-19)
(0.327589 0.0846985 5.12576e-19)
(0.360788 0.101104 -1.72617e-19)
(0.388428 0.122124 7.8062e-20)
(-0.0126618 0.0118612 -5.01962e-20)
(-0.0281083 0.0270579 4.73666e-19)
(-0.035022 0.0363543 -1.9949e-21)
(-0.0344032 0.0416138 -2.9403e-19)
(-0.0271168 0.0442275 -1.97748e-19)
(-0.0138923 0.0452349 3.6226e-19)
(0.00467431 0.0454148 -1.43484e-19)
(0.0280927 0.0453562 -1.80768e-20)
(0.0559436 0.0455121 2.98972e-19)
(0.0878455 0.0462415 -3.71418e-19)
(0.123427 0.0478404 4.0729e-20)
(0.162306 0.0505688 -4.82919e-19)
(0.204078 0.0546754 2.54408e-19)
(0.248311 0.0604265 -7.28263e-19)
(0.294553 0.0681453 1.16111e-18)
(0.342345 0.0782633 -2.12599e-19)
(0.391259 0.0914413 2.23138e-19)
(0.44119 0.109122 -5.79027e-19)
(0.492644 0.13432 2.62878e-21)
(0.537775 0.162553 6.65267e-19)
(-0.0130942 0.011386 -1.52106e-19)
(-0.0279267 0.0254669 1.31432e-19)
(-0.0328554 0.0338469 -4.83898e-19)
(-0.0291071 0.0384496 7.15689e-19)
(-0.0176836 0.0407118 -5.16679e-19)
(0.000594044 0.0417024 2.66548e-20)
(0.0250565 0.0422123 -5.57051e-19)
(0.0551458 0.042832 3.98262e-19)
(0.0903701 0.0440092 -5.69041e-20)
(0.130265 0.0460885 -3.51435e-19)
(0.174365 0.0493416 -2.05104e-19)
(0.222185 0.0539895 2.16697e-19)
(0.27322 0.060221 1.43414e-19)
(0.326957 0.0682097 -6.35117e-19)
(0.3829 0.0781312 2.29155e-19)
(0.440618 0.0901745 -3.38789e-19)
(0.499808 0.104564 4.10947e-20)
(0.560531 0.121762 -2.89379e-19)
(0.623676 0.142944 1.20503e-19)
(0.681959 0.163905 -4.37062e-19)
(-0.0133504 0.01078 4.33012e-19)
(-0.0270368 0.023534 -2.62208e-19)
(-0.0293002 0.030893 2.1606e-19)
(-0.0216236 0.0348248 -2.72763e-19)
(-0.00516336 0.0368019 4.57245e-19)
(0.0191498 0.0379145 -8.01937e-21)
(0.050547 0.0389552 -5.56513e-20)
(0.0883649 0.0405029 -4.12578e-20)
(0.131989 0.042981 2.53952e-19)
(0.180809 0.0466955 4.318e-19)
(0.234187 0.0518615 -2.55081e-19)
(0.291452 0.0586211 2.48021e-19)
(0.351897 0.0670566 4.53316e-19)
(0.41481 0.0771994 -3.17848e-19)
(0.479499 0.0890347 -6.46926e-19)
(0.545347 0.102496 1.18411e-18)
(0.611843 0.117448 -2.11312e-19)
(0.67868 0.133729 -6.89675e-20)
(0.746109 0.151678 7.47591e-19)
(0.808808 0.170245 -1.5686e-19)
(-0.0133799 0.0100417 -7.05092e-19)
(-0.0252768 0.0212781 -4.6939e-19)
(-0.0240786 0.0275573 -1.80189e-19)
(-0.0115603 0.0308661 3.47598e-19)
(0.0109416 0.0326984 -7.84648e-19)
(0.0423556 0.0341548 4.0628e-19)
(0.0817694 0.0360154 5.1482e-20)
(0.128355 0.0388289 5.20362e-20)
(0.1813 0.0429708 -5.32025e-19)
(0.239759 0.0486793 -1.87883e-19)
(0.302831 0.0560793 -3.31236e-19)
(0.369555 0.0651987 3.19953e-19)
(0.438935 0.0759822 9.0974e-20)
(0.509971 0.0883001 1.79165e-20)
(0.581704 0.101955 4.18485e-19)
(0.653258 0.116681 -4.23515e-19)
(0.723878 0.132132 -1.77277e-20)
(0.792956 0.1479 1.02718e-20)
(0.860202 0.163843 5.75903e-20)
(0.922583 0.181437 3.32744e-19)
(-0.0131207 0.00916997 2.24527e-19)
(-0.0224613 0.0187265 5.78306e-19)
(-0.0168852 0.0239244 4.64094e-19)
(0.00149822 0.0267325 -1.59945e-19)
(0.0311351 0.028646 5.5619e-19)
(0.0707645 0.0307593 -4.68545e-20)
(0.119264 0.0338195 -6.60001e-20)
(0.175556 0.0383188 3.92848e-20)
(0.23853 0.0445526 5.37459e-19)
(0.307001 0.0526542 3.1578e-19)
(0.379702 0.0626195 9.21995e-20)
(0.4553 0.0743278 5.62231e-21)
(0.532447 0.0875612 -6.12595e-19)
(0.609831 0.102023 5.32268e-19)
(0.686236 0.117353 9.15911e-20)
(0.760587 0.133142 -1.50481e-19)
(0.831985 0.148938 -6.55479e-19)
(0.899727 0.164275 -5.60592e-20)
(0.963286 0.17869 2.59983e-19)
(1.02175 0.195319 -5.34995e-20)
(-0.0124993 0.00816619 -5.69954e-19)
(-0.0183836 0.0159185 2.38467e-19)
(-0.00739492 0.0201011 -1.16409e-18)
(0.0179729 0.0226152 4.76671e-19)
(0.0558955 0.0249283 -3.80116e-19)
(0.104852 0.0281038 2.80223e-19)
(0.163415 0.0328253 -4.35231e-19)
(0.230146 0.0394906 3.99572e-20)
(0.303519 0.0482713 -2.24208e-20)
(0.381899 0.0591495 1.17032e-19)
(0.463564 0.0719492 1.69099e-19)
(0.546765 0.0863679 -3.19628e-19)
(0.629801 0.10201 1.69206e-19)
(0.7111 0.118416 1.556e-19)
(0.78929 0.1351 6.73688e-19)
(0.863245 0.151565 -2.92266e-19)
(0.932109 0.167331 -1.95162e-19)
(0.995307 0.181978 3.2865e-19)
(1.05241 0.19493 1.76584e-19)
(1.1039 0.210091 -3.3049e-19)
(-0.0114319 0.00703633 4.99392e-19)
(-0.0128208 0.0129091 4.8155e-19)
(0.00472433 0.0162206 1.3886e-19)
(0.0382664 0.018739 5.84909e-19)
(0.0856379 0.0218635 2.87264e-19)
(0.144958 0.026591 -5.17798e-19)
(0.214376 0.0334965 7.84163e-19)
(0.291956 0.0428315 -3.8588e-19)
(0.375634 0.0545878 3.85174e-19)
(0.46323 0.0685432 4.9845e-19)
(0.552527 0.0843075 -2.84861e-19)
(0.641374 0.101373 5.40896e-20)
(0.727799 0.119167 3.02045e-19)
(0.810111 0.137097 2.13016e-19)
(0.886963 0.154596 4.9151e-19)
(0.957386 0.17115 -1.96222e-19)
(1.02078 0.186325 -2.38272e-20)
(1.0769 0.199802 3.11833e-19)
(1.12567 0.211082 -6.6847e-20)
(1.16842 0.224158 4.1209e-22)
(-0.00982664 0.00579388 -2.57827e-19)
(-0.00554198 0.009775 -9.47649e-19)
(0.0197959 0.0124471 2.23123e-19)
(0.0627371 0.015363 -1.69843e-19)
(0.120673 0.0198001 -3.91963e-19)
(0.191237 0.0266362 -2.79732e-19)
(0.272005 0.0362771 -1.728e-19)
(0.360407 0.0487605 4.19715e-19)
(0.453731 0.0638332 -2.49256e-19)
(0.549205 0.0810156 -2.55186e-19)
(0.644145 0.0996729 -3.22986e-19)
(0.736105 0.119091 -5.33213e-20)
(0.823016 0.138546 -3.59733e-20)
(0.903278 0.157367 -7.48282e-19)
(0.975801 0.174978 3.63455e-19)
(1.03999 0.190924 -4.77855e-19)
(1.0957 0.204885 1.50788e-19)
(1.14314 0.216688 -1.14771e-18)
(1.18274 0.22604 3.45765e-19)
(1.21619 0.23658 4.3919e-19)
(-0.00758638 0.00446249 -6.47212e-20)
(0.00368227 0.00661887 4.62504e-19)
(0.0381161 0.00897908 2.96378e-20)
(0.0916693 0.0127812 7.13274e-20)
(0.161169 0.0191092 -1.45006e-19)
(0.243605 0.0286512 -2.35857e-21)
(0.335823 0.0415643 -3.70096e-21)
(0.434489 0.057593 -8.74298e-20)
(0.536183 0.0761725 3.10095e-19)
(0.637575 0.0965256 1.19944e-19)
(0.735635 0.117768 5.4462e-19)
(0.827823 0.139008 -1.48564e-19)
(0.912219 0.159435 1.03828e-19)
(0.987572 0.178377 -1.36167e-20)
(1.05327 0.195335 2.87877e-19)
(1.10928 0.209989 1.76489e-19)
(1.15601 0.22219 4.26214e-19)
(1.19419 0.231936 -6.88931e-19)
(1.22472 0.239185 8.68077e-19)
(1.24945 0.247028 -2.75245e-19)
(-0.00461283 0.00307824 -6.03137e-19)
(0.0150685 0.00357339 -1.88181e-19)
(0.0599343 0.00605195 1.47146e-19)
(0.125244 0.0113192 9.27525e-20)
(0.207109 0.0201741 9.49359e-20)
(0.301703 0.033023 9.62929e-20)
(0.404987 0.0496792 -2.40898e-19)
(0.512783 0.06951 -9.96467e-20)
(0.620981 0.0915847 3.08973e-20)
(0.725824 0.114816 -2.95162e-19)
(0.824162 0.138102 -1.336e-19)
(0.913642 0.160444 8.07639e-19)
(0.992772 0.181036 -2.08298e-19)
(1.06089 0.199301 -2.8764e-19)
(1.11804 0.214898 -1.36874e-19)
(1.16482 0.227705 9.46014e-20)
(1.20223 0.237771 1.15848e-19)
(1.23145 0.245272 -5.55516e-19)
(1.25375 0.250396 8.04885e-19)
(1.27096 0.255654 -6.98068e-19)
(-0.000810417 0.00169112 -6.83557e-20)
(0.0288076 0.000802947 1.9596e-20)
(0.0854316 0.00393656 -2.49039e-20)
(0.16351 0.011327 3.64259e-19)
(0.258266 0.0233736 2.00025e-20)
(0.364882 0.0400895 1.3372e-19)
(0.478318 0.0608391 -2.77721e-19)
(0.593543 0.0845381 -1.01303e-20)
(0.705888 0.109864 3.8583e-19)
(0.81141 0.135449 5.38114e-20)
(0.907151 0.16005 -3.36339e-19)
(0.991249 0.182666 -2.95265e-20)
(1.0629 0.202601 -2.76797e-19)
(1.12221 0.219467 2.75471e-19)
(1.16994 0.233148 3.83268e-19)
(1.20734 0.243746 -4.22739e-20)
(1.23587 0.251512 -5.16876e-20)
(1.25705 0.256775 1.57519e-19)
(1.27236 0.259894 -5.0727e-19)
(1.28356 0.262867 4.46597e-19)
(0.0039091 0.000365747 6.85278e-20)
(0.045052 -0.00149701 -4.42414e-19)
(0.1147 0.00293395 1.18428e-19)
(0.206359 0.0131658 -3.67068e-19)
(0.314182 0.0290614 1.26187e-19)
(0.432206 0.050113 -4.68617e-19)
(0.554345 0.0751353 1.88992e-19)
(0.674818 0.102544 -6.01374e-20)
(0.788643 0.130645 -2.42691e-21)
(0.892025 0.157869 6.15985e-20)
(0.982539 0.182945 -2.24486e-19)
(1.05911 0.204995 -3.20661e-19)
(1.12179 0.223535 -6.58461e-20)
(1.17153 0.238439 -2.95625e-20)
(1.20979 0.249846 -7.50517e-20)
(1.23833 0.258082 -2.44805e-20)
(1.25896 0.263568 -7.33041e-20)
(1.27336 0.266746 -6.36079e-20)
(1.28307 0.268081 -1.89578e-19)
(1.2897 0.269151 3.01033e-19)
(0.00962181 -0.000818901 1.65058e-19)
(0.0639018 -0.00310344 -1.83279e-19)
(0.147722 0.00336584 3.94363e-19)
(0.253508 0.017191 -1.70148e-19)
(0.374167 0.0375415 4.54719e-19)
(0.502491 0.063257 6.41827e-21)
(0.631406 0.0925225 2.28322e-19)
(0.754612 0.123252 -6.10878e-20)
(0.867165 0.153451 2.55202e-19)
(0.965796 0.181475 1.84967e-20)
(1.04894 0.206167 6.08e-19)
(1.1165 0.226886 -4.19809e-19)
(1.1695 0.243448 5.65262e-20)
(1.20965 0.25602 1.07955e-19)
(1.23901 0.264996 5.66381e-19)
(1.25968 0.27089 -2.03522e-19)
(1.27363 0.27425 -4.03975e-20)
(1.28259 0.27558 -2.1427e-19)
(1.288 0.275395 -2.26538e-20)
(1.29132 0.274944 1.07307e-19)
(0.0163866 -0.00177063 -7.93273e-20)
(0.0853921 -0.00377179 2.28995e-19)
(0.184358 0.0055613 -2.34255e-19)
(0.30449 0.0237312 9.26027e-20)
(0.437312 0.0490456 -1.10531e-19)
(0.574364 0.0795706 4.05884e-19)
(0.707765 0.112823 -5.64684e-20)
(0.831048 0.146272 1.39329e-19)
(0.939721 0.177752 -8.19876e-20)
(1.03142 0.205698 -2.11208e-21)
(1.10567 0.229206 9.37879e-20)
(1.16347 0.247973 -7.26724e-20)
(1.20675 0.262156 1.88566e-19)
(1.23787 0.272215 -9.39888e-20)
(1.25929 0.278765 -4.14359e-19)
(1.27329 0.28246 4.12101e-19)
(1.28186 0.283921 -1.85844e-19)
(1.2866 0.283667 1.48415e-19)
(1.28885 0.282225 2.57588e-19)
(1.28982 0.280587 1.0583e-19)
(0.0242403 -0.00238609 1.97349e-19)
(0.109482 -0.00324456 -4.06637e-19)
(0.224333 0.00984065 7.78274e-20)
(0.358663 0.0330671 -5.64254e-20)
(0.502535 0.0637133 -2.27429e-19)
(0.646349 0.0989835 -1.78478e-19)
(0.781738 0.135748 -3.50605e-20)
(0.902506 0.17115 -3.18219e-19)
(1.00504 0.203025 -1.93558e-20)
(1.08817 0.230052 -5.9133e-20)
(1.15268 0.2517 -1.60591e-19)
(1.2006 0.268062 -3.56733e-20)
(1.23465 0.279643 -1.22984e-19)
(1.25767 0.287165 -2.05387e-19)
(1.27232 0.291408 2.10424e-19)
(1.28089 0.293114 2.90651e-20)
(1.28526 0.292924 5.7923e-20)
(1.28686 0.291338 -2.42682e-19)
(1.28682 0.28887 -6.04622e-21)
(1.28619 0.286311 -3.74729e-19)
(0.0331926 -0.00255377 2.16528e-19)
(0.136048 -0.00126186 1.44373e-19)
(0.267239 0.016498 -2.32632e-19)
(0.415222 0.0454117 3.63274e-19)
(0.56863 0.0815814 -3.91275e-20)
(0.716964 0.121314 1.35646e-19)
(0.851811 0.160927 4.69552e-20)
(0.967722 0.197412 1.66382e-19)
(1.06234 0.2288 -1.30277e-19)
(1.13589 0.254163 4.34234e-20)
(1.19039 0.273428 -4.16966e-20)
(1.22885 0.287102 -1.83713e-20)
(1.25453 0.29601 3.48976e-20)
(1.27055 0.30108 -6.43289e-20)
(1.27962 0.303202 -1.97831e-20)
(1.28391 0.303149 -6.05238e-20)
(1.28509 0.301543 -9.84269e-20)
(1.28441 0.298844 6.35408e-20)
(1.28279 0.295539 -8.72505e-20)
(1.28106 0.292253 3.76998e-19)
(0.0432222 -0.00215773 -1.08186e-19)
(0.164875 0.00242666 -3.0632e-19)
(0.312537 0.025784 -4.07668e-20)
(0.47324 0.0608951 -1.10575e-20)
(0.634337 0.102581 -1.37134e-19)
(0.784817 0.146289 -2.25109e-19)
(0.916725 0.187945 7.36881e-20)
(1.02582 0.224608 -1.01251e-19)
(1.11129 0.25469 -1.13481e-19)
(1.17481 0.277777 6.32202e-20)
(1.21957 0.294293 -4.77866e-20)
(1.2493 0.305143 -9.67142e-20)
(1.26767 0.311418 -3.28016e-21)
(1.27785 0.314191 6.55064e-20)
(1.28246 0.314401 -6.68496e-20)
(1.28346 0.312811 9.27762e-20)
(1.2823 0.309994 2.49481e-20)
(1.27999 0.306355 6.29186e-20)
(1.27728 0.302355 1.22699e-19)
(1.27484 0.298474 -1.05122e-19)
(0.0542742 -0.00108217 1.03364e-19)
(0.195661 0.00804923 -9.19166e-21)
(0.359575 0.0378899 4.63169e-20)
(0.531706 0.0795552 -6.28958e-20)
(0.698414 0.126545 5.14655e-21)
(0.848673 0.173565 2.18151e-19)
(0.975525 0.216375 -1.43327e-19)
(1.07633 0.252332 6.06946e-20)
(1.15195 0.280394 5.35133e-20)
(1.2055 0.300737 -1.50487e-19)
(1.24113 0.314285 1.41424e-19)
(1.26311 0.322291 1.24698e-21)
(1.27526 0.326048 -9.96865e-20)
(1.28071 0.326709 1.2017e-19)
(1.28184 0.325214 -4.76941e-20)
(1.28038 0.32228 3.64792e-20)
(1.27753 0.318416 -4.08024e-20)
(1.27409 0.31397 -1.63064e-20)
(1.27066 0.309377 -1.42921e-19)
(1.26775 0.304984 4.37576e-20)
(0.0662577 0.000783619 -3.48887e-20)
(0.228021 0.0157995 9.355e-20)
(0.407611 0.0529352 1.45725e-20)
(0.589575 0.101335 6.11517e-20)
(0.759699 0.153221 2.91615e-20)
(0.907515 0.202759 1.36679e-20)
(1.02756 0.245806 7.7509e-20)
(1.11907 0.280241 -9.4149e-21)
(1.18464 0.305696 3.41718e-20)
(1.22865 0.32297 5.49154e-20)
(1.25602 0.33345 2.65001e-20)
(1.27131 0.338676 1.90241e-20)
(1.27834 0.340069 7.71527e-20)
(1.28003 0.338808 -7.46808e-20)
(1.27852 0.335794 1.60321e-20)
(1.27526 0.331675 -1.50036e-20)
(1.27121 0.32689 2.32332e-20)
(1.26702 0.321729 1.94643e-20)
(1.26312 0.316612 4.06494e-20)
(1.25991 0.311751 1.72084e-21)
(0.0790473 0.00354003 2.06807e-20)
(0.261496 0.0258254 1.88892e-20)
(0.455844 0.0709591 -2.61395e-20)
(0.645814 0.126085 1.63319e-20)
(0.81716 0.182289 9.22259e-21)
(0.960562 0.233467 -2.86883e-20)
(1.07248 0.275856 9.46666e-21)
(1.15418 0.308053 1.70345e-21)
(1.20988 0.330448 1.63255e-20)
(1.24507 0.344452 -4.37645e-20)
(1.26515 0.351859 -1.33637e-22)
(1.27482 0.354418 1.2126e-20)
(1.27771 0.35362 -9.66226e-21)
(1.27651 0.350615 9.77678e-21)
(1.27303 0.346238 2.55051e-20)
(1.26848 0.34106 -1.45072e-20)
(1.26363 0.335444 4.04079e-21)
(1.25894 0.329631 1.58924e-20)
(1.25477 0.32403 -2.62038e-20)
(1.25139 0.318722 1.25769e-20)
(0.0924845 0.00727201 5.76987e-20)
(0.295568 0.0382192 -3.13646e-20)
(0.503445 0.0919161 3.69208e-20)
(0.699452 0.153573 -2.74672e-20)
(0.869931 0.21338 -1.23146e-20)
(1.00727 0.265285 3.72176e-21)
(1.11017 0.306182 -1.20841e-20)
(1.18193 0.335543 4.34571e-20)
(1.22829 0.35455 -3.61784e-20)
(1.25552 0.365187 8.48753e-21)
(1.26936 0.369582 -6.32584e-21)
(1.2744 0.36962 -4.11784e-20)
(1.27405 0.366798 3.99347e-20)
(1.27066 0.362207 1.51965e-20)
(1.26576 0.356595 -1.51198e-20)
(1.26033 0.35045 3.5479e-20)
(1.25495 0.344065 -5.25119e-22)
(1.24998 0.337641 -3.44041e-20)
(1.24565 0.331578 2.54847e-20)
(1.2422 0.325824 8.0236e-21)
(0.106381 0.0120444 -2.02172e-20)
(0.329678 0.0530114 5.86384e-20)
(0.549587 0.115677 6.77297e-20)
(0.749612 0.183497 -3.19404e-20)
(0.917326 0.246095 5.55792e-20)
(1.04732 0.297821 8.79224e-20)
(1.1407 0.336481 -4.83571e-21)
(1.20277 0.362527 -1.50766e-20)
(1.24049 0.377931 7.45109e-20)
(1.26075 0.385189 3.63166e-20)
(1.26934 0.386678 -6.57995e-21)
(1.27068 0.384351 5.41004e-20)
(1.26784 0.379663 -5.79781e-20)
(1.26285 0.373617 9.02613e-20)
(1.25697 0.366869 -1.50553e-20)
(1.25096 0.359824 4.30825e-20)
(1.24527 0.352711 7.74916e-21)
(1.24016 0.3457 3.0809e-20)
(1.2358 0.339185 -2.93315e-20)
(1.23235 0.332978 7.04128e-21)
(0.120523 0.0178977 -3.14629e-20)
(0.363243 0.0701657 7.47529e-20)
(0.593482 0.142033 5.55126e-20)
(0.795533 0.215495 -8.40459e-21)
(0.958836 0.280014 8.64161e-20)
(1.08057 0.330701 -6.44815e-20)
(1.16431 0.366481 -5.03089e-21)
(1.21716 0.388852 5.69392e-20)
(1.24711 0.400538 1.8093e-20)
(1.26138 0.404465 2.52804e-20)
(1.26568 0.40318 -3.73138e-20)
(1.26413 0.398643 9.72127e-20)
(1.25944 0.392229 1.81237e-20)
(1.25333 0.384839 -8.60441e-20)
(1.24681 0.37703 1.25586e-19)
(1.24047 0.369132 -1.4812e-19)
(1.23464 0.361317 -6.79237e-20)
(1.22953 0.353733 1.12705e-20)
(1.2252 0.346767 6.59484e-20)
(1.22182 0.340096 -1.24183e-19)
(0.13468 0.0248446 -7.09058e-20)
(0.395681 0.0895779 -1.67213e-19)
(0.6344 0.170703 -1.44519e-19)
(0.836589 0.249162 -1.96757e-19)
(0.994127 0.314714 -1.11577e-19)
(1.10703 0.36357 -2.31317e-19)
(1.1813 0.395941 2.93884e-20)
(1.22563 0.414384 -1.2273e-19)