1.22 	3.45254e-18 	-6.98323e-18 	-0.127338 	0.00598783 	-7.96158e-22
1.66 	3.45254e-18 	-6.96118e-18 	-0.252779 	0.0114893 	-4.01405e-23
2.1 	3.45254e-18 	-6.93894e-18 	-0.272401 	0.0233799 	-2.25888e-21
2.54 	3.45254e-18 	-8.30431e-18 	-0.391223 	0.0241474 	8.32563e-24
2.98 	3.45254e-18 	-8.28171e-18 	-0.436172 	-0.00105541 	2.66091e-21
3.42 	3.45254e-18 	-6.87115e-18 	-0.449514 	-0.0354053 	2.67477e-21
3.86 	3.45254e-18 	-6.84819e-18 	-0.331658 	-0.0470724 	4.79316e-22
4.3 	3.45254e-18 	-6.82504e-18 	-0.272219 	-0.0361117 	1.55801e-21
4.74 	3.45254e-18 	-5.41391e-18 	-0.14385 	-0.0181691 	-7.10761e-22
5.18 	3.45254e-18 	-2.61482e-18 	-0.0598279 	0.00254014 	-2.35649e-22
5.62 	3.45254e-18 	-1.2033e-18 	0.0489709 	0.0176244 	6.32163e-23
6.06 	3.45254e-18 	-1.17937e-18 	0.128782 	0.0244871 	3.14779e-23
6.5 	3.45254e-18 	-1.15524e-18 	0.214322 	0.025512 	5.22508e-23
