/*--------------------------------*- C++ -*----------------------------------*\
  =========                 |
  \\      /  F ield         | OpenFOAM: The Open Source CFD Toolbox
   \\    /   O peration     | Website:  https://openfoam.org
    \\  /    A nd           | Version:  6.0
     \\/     M anipulation  |
\*---------------------------------------------------------------------------*/
FoamFile
{
    version     2.0;
    format      ascii;
    class       volVectorField;
    location    "24";
    object      U;
}
// * * * * * * * * * * * * * * * * * * * * * * * * * * * * * * * * * * * * * //

dimensions      [0 1 -1 0 0 0 0];

internalField   nonuniform List<vector> 
8000
(
(-0.000480389 0.000519489 -3.46257e-21)
(-0.00262635 0.00127893 1.85083e-20)
(-0.00659073 0.00179819 -2.25109e-20)
(-0.0114561 0.00213349 1.71416e-20)
(-0.0167444 0.00232788 8.34737e-21)
(-0.0221851 0.00241611 -2.50666e-20)
(-0.0275853 0.00242738 -2.21555e-21)
(-0.0328198 0.00238599 -7.86242e-22)
(-0.0378191 0.00231203 -1.30116e-20)
(-0.0425543 0.00222211 -7.04936e-21)
(-0.0470256 0.00212992 5.25711e-21)
(-0.0512548 0.00204665 1.9986e-20)
(-0.0552782 0.00198129 -1.49668e-21)
(-0.0591413 0.00194084 2.14135e-21)
(-0.0628952 0.00193045 -2.01305e-20)
(-0.066599 0.00195342 1.24036e-20)
(-0.0703119 0.00201136 -1.77711e-20)
(-0.0740328 0.00210542 2.68923e-20)
(-0.0776857 0.00223707 -3.01061e-23)
(-0.0817011 0.00239779 5.80712e-21)
(-0.000564961 0.00161722 1.14989e-20)
(-0.00283316 0.00401013 -5.87644e-20)
(-0.00687665 0.00567872 -4.05874e-20)
(-0.0117864 0.00678926 -2.7563e-20)
(-0.0170902 0.00746949 -3.54587e-20)
(-0.022522 0.00782319 7.8029e-21)
(-0.0278923 0.00793834 -4.09327e-20)
(-0.0330788 0.00788865 -9.19377e-21)
(-0.0380138 0.00773555 2.90498e-21)
(-0.0426698 0.00753011 3.05934e-20)
(-0.0470485 0.00731468 -3.33729e-20)
(-0.0511725 0.007124 4.64227e-20)
(-0.055079 0.0069861 -3.47637e-20)
(-0.0588146 0.00692284 -4.12247e-20)
(-0.0624317 0.00695031 -5.68094e-20)
(-0.0659908 0.00707886 3.62811e-20)
(-0.0695531 0.00731355 -1.17336e-20)
(-0.0731188 0.00765782 -4.27219e-20)
(-0.0766117 0.00811595 4.03949e-20)
(-0.0804649 0.00866168 -3.0002e-20)
(-0.000734192 0.00270162 1.12408e-19)
(-0.00324647 0.00670721 5.8213e-20)
(-0.00744661 0.00950842 6.54673e-20)
(-0.012443 0.01138 5.44753e-21)
(-0.0177755 0.0125334 3.61839e-20)
(-0.0231871 0.0131406 4.51605e-20)
(-0.0284954 0.0133474 -8.20702e-20)
(-0.0335837 0.0132764 -4.34606e-20)
(-0.0383884 0.0130298 -5.66019e-20)
(-0.042885 0.0126929 6.04215e-20)
(-0.0470772 0.0123366 -4.61499e-20)
(-0.0509897 0.0120195 -5.93776e-20)
(-0.0546616 0.0117891 -2.16214e-20)
(-0.0581414 0.011683 2.05396e-20)
(-0.0614841 0.011729 -5.7095e-21)
(-0.064753 0.0119455 8.2343e-21)
(-0.0680132 0.0123418 9.52978e-20)
(-0.0712681 0.0129246 -1.33884e-20)
(-0.0744406 0.0137019 -9.68733e-20)
(-0.0779697 0.0146294 1.27689e-19)
(-0.000986661 0.00376375 3.91087e-20)
(-0.00386294 0.00934699 -5.52445e-20)
(-0.00829628 0.0132528 -1.38577e-20)
(-0.0134211 0.0158619 2.59078e-20)
(-0.0187953 0.0174676 7.35655e-20)
(-0.0241758 0.0183087 1.61065e-19)
(-0.0293912 0.0185875 1.57383e-19)
(-0.034333 0.0184743 1.30753e-20)
(-0.0389437 0.0181111 9.65112e-20)
(-0.0432033 0.0176169 1.47723e-19)
(-0.0471189 0.017091 -1.18037e-19)
(-0.0507175 0.0166162 1.74689e-19)
(-0.054041 0.0162602 -3.95558e-20)
(-0.0571408 0.0160774 9.9788e-21)
(-0.0600753 0.0161091 4.13078e-20)
(-0.0629125 0.0163834 5.48923e-20)
(-0.0657231 0.0169155 -8.63895e-20)
(-0.0685157 0.0177167 -7.2097e-20)
(-0.0712125 0.0188005 -1.27581e-19)
(-0.0742623 0.0201046 1.85709e-19)
(-0.00132029 0.00479553 -2.0433e-20)
(-0.00467751 0.011908 -2.09158e-19)
(-0.00941864 0.0168795 -6.18666e-20)
(-0.0147123 0.0201937 -1.50762e-19)
(-0.0201407 0.0222236 5.69877e-20)
(-0.0254794 0.0232724 -8.98787e-20)
(-0.0305718 0.0235974 3.091e-20)
(-0.0353207 0.0234145 -1.90363e-19)
(-0.0396769 0.0229043 1.00427e-19)
(-0.0436259 0.0222182 -1.19761e-19)
(-0.047179 0.0214839 -1.06506e-19)
(-0.0503666 0.0208083 -1.19254e-19)
(-0.0532335 0.0202805 1.08248e-19)
(-0.0558347 0.0199734 -9.71911e-20)
(-0.058233 0.0199439 1.35334e-19)
(-0.0605023 0.0202321 3.91117e-20)
(-0.0627211 0.0208619 9.68112e-20)
(-0.0649054 0.021852 4.2477e-20)
(-0.0669783 0.023224 -1.6822e-19)
(-0.0694024 0.0248977 2.7386e-19)
(-0.00173245 0.00578992 9.00701e-20)
(-0.00568319 0.0143708 6.93018e-21)
(-0.0108034 0.020359 3.71057e-20)
(-0.0163038 0.0243378 1.29476e-19)
(-0.021797 0.0267571 -1.98217e-20)
(-0.0270821 0.0279825 2.10257e-19)
(-0.0320217 0.0283233 9.33218e-20)
(-0.0365327 0.0280386 7.84549e-21)
(-0.0405762 0.0273455 2.39968e-19)
(-0.044145 0.0264265 7.86297e-20)
(-0.047255 0.0254365 3.73017e-20)
(-0.0499403 0.0245069 1.18385e-19)
(-0.0522488 0.023749 1.08513e-19)
(-0.0542394 0.0232559 1.98102e-19)
(-0.05598 0.023103 -1.77066e-19)
(-0.0575515 0.0233464 2.50288e-19)
(-0.0590423 0.0240223 3.27926e-21)
(-0.0604788 0.0251605 -3.19879e-19)
(-0.0617866 0.0267954 4.1466e-19)
(-0.063449 0.0288296 1.71917e-19)
(-0.00221996 0.00674081 -5.30797e-20)
(-0.00687096 0.0167177 -9.63513e-20)
(-0.0124364 0.0236642 -2.00511e-19)
(-0.0181766 0.0282599 -5.94375e-21)
(-0.0237411 0.0310292 3.42162e-20)
(-0.0289581 0.0323966 -2.56046e-19)
(-0.0337131 0.0327203 -1.89959e-19)
(-0.0379409 0.0322998 -2.71731e-20)
(-0.0416149 0.0313857 -2.40282e-19)
(-0.0447363 0.0301894 -1.66365e-19)
(-0.0473267 0.0288912 -4.8485e-20)
(-0.0494237 0.0276464 -1.5612e-19)
(-0.0510784 0.0265893 -2.54513e-21)
(-0.0523531 0.0258354 -2.0733e-19)
(-0.053321 0.025482 8.72109e-20)
(-0.0540711 0.0256053 -9.94999e-20)
(-0.0547035 0.0262594 7.62187e-20)
(-0.0552578 0.0274915 -9.70122e-20)
(-0.0556663 0.0293553 -2.77161e-19)
(-0.0564415 0.0317383 -8.42339e-20)
(-0.00277913 0.00764276 -1.95349e-20)
(-0.00822937 0.0189325 -2.1216e-20)
(-0.0142984 0.0267701 1.68113e-19)
(-0.020304 0.0319292 -2.73575e-19)
(-0.0259394 0.0350054 4.0134e-20)
(-0.0310673 0.036479 -1.58035e-19)
(-0.035601 0.0367535 7.46816e-20)
(-0.0394963 0.0361647 3.3568e-19)
(-0.0427417 0.0349932 -2.15326e-20)
(-0.0453483 0.0334759 -2.50425e-19)
(-0.047344 0.0318162 4.54989e-20)
(-0.0487699 0.0301918 8.82293e-21)
(-0.0496796 0.0287596 -5.14216e-20)
(-0.0501383 0.0276592 5.19702e-21)
(-0.0502239 0.0270133 4.51734e-19)
(-0.0500336 0.026924 -6.43168e-20)
(-0.0496814 0.0274703 -1.25479e-19)
(-0.0492231 0.0287252 -2.2511e-19)
(-0.0486023 0.0307721 2.29633e-19)
(-0.0483733 0.0334879 9.90734e-20)
(-0.00340556 0.00849062 9.86438e-20)
(-0.00974395 0.0209995 -1.29059e-19)
(-0.0163639 0.0296531 1.82467e-19)
(-0.0226494 0.0353169 1.83691e-19)
(-0.0283442 0.0386551 1.69335e-19)
(-0.0333513 0.0402004 3.43384e-19)
(-0.0376168 0.0403971 2.22058e-19)
(-0.0411214 0.0396134 -4.77177e-19)
(-0.0438715 0.0381551 2.44043e-19)
(-0.0458901 0.0362803 1.91507e-19)
(-0.047212 0.0342118 -2.72267e-21)
(-0.047882 0.0321465 2.14386e-19)
(-0.0479555 0.0302627 1.67145e-19)
(-0.0474993 0.0287244 -9.09153e-20)
(-0.0465948 0.0276827 3.07233e-19)
(-0.0453471 0.0272717 -3.8085e-19)
(-0.0438849 0.0276041 1.52446e-19)
(-0.0422833 0.0287908 1.9603e-19)
(-0.0405033 0.0309591 -4.56701e-20)
(-0.0391583 0.0339847 3.9406e-19)
(-0.00409395 0.00927895 1.98218e-19)
(-0.0113966 0.0229027 1.02823e-20)
(-0.0186004 0.0322894 -7.11469e-20)
(-0.0251644 0.0383951 -7.51547e-20)
(-0.0308907 0.0419501 -3.4805e-19)
(-0.0357286 0.0435358 4.9287e-20)
(-0.0396623 0.0436336 1.39648e-19)
(-0.0427015 0.0426387 -6.71724e-20)
(-0.0448738 0.0408772 5.54113e-20)
(-0.0462165 0.0386232 -1.46878e-20)
(-0.0467728 0.0361134 -7.23804e-20)
(-0.0465916 0.0335594 6.87286e-20)
(-0.0457293 0.0311571 -2.98799e-19)
(-0.0442531 0.0290934 2.86455e-19)
(-0.0422461 0.0275493 -2.48129e-19)
(-0.0398198 0.0266958 7.66411e-20)
(-0.0371175 0.0266893 1.74422e-19)
(-0.0342359 0.027694 -3.62791e-20)
(-0.0311603 0.0299019 -1.20658e-19)
(-0.0285863 0.0332025 -8.2102e-20)
(-0.00483777 0.0100017 -2.46915e-19)
(-0.0131648 0.0246247 -1.6255e-20)
(-0.0209663 0.034654 5.20026e-20)
(-0.0277869 0.0411351 1.33715e-19)
(-0.0334943 0.0448621 -1.88774e-19)
(-0.0380908 0.0464624 -1.64737e-19)
(-0.0416035 0.0464501 3.84523e-19)
(-0.0440761 0.0452428 -2.12476e-19)
(-0.0455612 0.0431816 -1.37068e-19)
(-0.0461132 0.0405501 -1.96684e-19)
(-0.0457861 0.0375928 1.30209e-19)
(-0.0446341 0.0345291 -3.50929e-21)
(-0.0427151 0.0315665 -2.43169e-19)
(-0.0400952 0.0289099 -3.97823e-19)
(-0.0368573 0.0267678 3.03088e-19)
(-0.033117 0.0253511 -2.456e-19)
(-0.0290311 0.0248688 3.48203e-19)
(-0.0247186 0.0255558 -9.75523e-20)
(-0.0201948 0.0276978 2.0502e-19)
(-0.0162692 0.0312222 -6.96485e-19)
(-0.00562894 0.0106516 -5.00078e-19)
(-0.0150208 0.0261461 3.27919e-19)
(-0.0234106 0.0367192 4.45967e-20)
(-0.0304394 0.043505 8.62768e-21)
(-0.0360484 0.0473603 -2.02219e-19)
(-0.0402986 0.0489555 2.97375e-19)
(-0.0432659 0.0488342 3.24596e-20)
(-0.0450322 0.0474322 -6.09803e-20)
(-0.0456792 0.0451002 -1.95753e-19)
(-0.0452825 0.0421258 2.11598e-19)
(-0.04391 0.0387536 5.36507e-19)
(-0.0416242 0.0352031 -1.18519e-19)
(-0.0384859 0.0316838 2.67858e-19)
(-0.0345609 0.0284099 -3.16424e-19)
(-0.0299302 0.0256105 -3.03442e-19)
(-0.0247113 0.0235329 1.82431e-19)
(-0.0190719 0.0224434 3.01441e-19)
(-0.0131517 0.0226652 -9.76806e-19)
(-0.00699907 0.024613 1.1469e-19)
(-0.00157621 0.0282887 1.5603e-19)
(-0.00645755 0.0112205 3.70309e-19)
(-0.0169312 0.027445 1.2183e-19)
(-0.0258719 0.0384537 6.34651e-19)
(-0.0330284 0.0454689 3.26649e-20)
(-0.0384228 0.0494086 -7.05868e-20)
(-0.0421806 0.0509851 -3.36147e-19)
(-0.0444309 0.0507685 2.85858e-19)
(-0.0452985 0.0492101 5.12897e-19)
(-0.0448985 0.0466661 3.41725e-19)
(-0.0433318 0.0434232 2.46732e-19)
(-0.0406852 0.0397198 2.12724e-19)
(-0.0370335 0.0357664 -3.81975e-19)
(-0.032445 0.0317641 -1.19657e-19)
(-0.0269881 0.0279231 -8.815e-20)
(-0.0207435 0.0244792 9.44565e-19)
(-0.0138292 0.0217047 -3.20312e-21)
(-0.00642144 0.0199175 -2.35448e-19)
(0.0013234 0.0195397 -7.42196e-20)
(0.00932856 0.0211544 6.75619e-19)
(0.0164337 0.024887 8.84843e-20)
(-0.00731181 0.0116993 -1.82507e-20)
(-0.0188568 0.0284973 -3.50348e-19)
(-0.028278 0.039823 -5.21245e-19)
(-0.0354435 0.0469857 -1.45054e-19)
(-0.040463 0.0509642 8.00988e-20)
(-0.0435313 0.052512 1.72452e-20)
(-0.0448348 0.052225 4.57435e-19)
(-0.0445444 0.0505679 -5.67326e-19)
(-0.0428122 0.0479012 -2.15802e-19)
(-0.0397692 0.0445077 -4.34931e-19)
(-0.0355262 0.0406156 -3.70464e-19)
(-0.0301773 0.0364196 -3.28065e-19)
(-0.0238056 0.0321018 8.20291e-20)
(-0.0164894 0.0278533 -1.06527e-19)
(-0.00831523 0.0238969 4.56489e-19)
(0.000594999 0.0205066 -2.50162e-19)
(0.010056 0.0180309 -7.84461e-19)
(0.0199007 0.0169841 -1.58279e-19)
(0.0300401 0.0181504 3.8722e-19)
(0.039073 0.0218364 -3.37645e-19)
(-0.00817809 0.0120787 -5.90837e-20)
(-0.0207519 0.0292777 4.28537e-19)
(-0.0305459 0.0407897 -5.46565e-19)
(-0.0375576 0.0480096 1.26327e-19)
(-0.0419906 0.0519772 -2.60243e-19)
(-0.0441125 0.0534874 5.79701e-19)
(-0.0441693 0.0531617 -4.14325e-19)
(-0.0423805 0.0514792 4.74034e-19)
(-0.0389376 0.0488052 -4.49472e-19)
(-0.0340054 0.0454196 1.9179e-19)
(-0.0277242 0.0415403 -9.30714e-20)
(-0.0202157 0.0373442 -2.33716e-19)
(-0.0115883 0.032988 -2.88816e-19)
(-0.00194332 0.0286313 2.87805e-19)
(0.00861366 0.0244621 -2.41063e-19)
(0.0199447 0.0207243 -5.27213e-19)
(0.0318471 0.0177558 5.48903e-19)
(0.0441448 0.0161256 -7.00389e-19)
(0.0567695 0.0168263 3.15032e-19)
(0.0680591 0.0203947 8.3349e-21)
(-0.00904116 0.0123497 -5.35787e-19)
(-0.0225655 0.0297611 -5.78551e-19)
(-0.0325815 0.0413159 6.66661e-20)
(-0.0392264 0.0484931 -5.57991e-19)
(-0.0428027 0.0523935 -4.96797e-20)
(-0.043653 0.0538542 -4.10465e-19)
(-0.0420838 0.0535239 -9.41698e-20)
(-0.0383633 0.0518977 -2.75226e-19)
(-0.0327234 0.0493493 2.43656e-21)
(-0.0253645 0.0461604 -1.20431e-19)
(-0.0164616 0.0425437 8.55607e-21)
(-0.00617181 0.0386635 -3.47063e-19)
(0.00535821 0.0346537 3.82574e-19)
(0.017986 0.0306385 -5.42845e-19)
(0.0315644 0.0267574 1.92384e-19)
(0.0459151 0.0231927 7.34504e-21)
(0.0607935 0.0202161 -3.06542e-19)
(0.0760008 0.0183744 7.6025e-19)
(0.0915358 0.0188199 -1.81665e-19)
(0.105515 0.0223215 -1.18051e-19)
(-0.00988449 0.0125047 6.01482e-19)
(-0.0242402 0.0299247 3.24795e-19)
(-0.0342789 0.0413663 3.02137e-19)
(-0.0402873 0.0483907 4.51065e-20)
(-0.0426709 0.0521602 4.08579e-19)
(-0.0418483 0.0535548 5.88931e-19)
(-0.038186 0.0532515 4.8222e-19)
(-0.031999 0.0517645 4.31507e-20)
(-0.0235585 0.049481 3.53155e-19)
(-0.0131005 0.0466918 5.45695e-19)
(-0.000837126 0.0436147 -1.41564e-19)
(0.013032 0.0404137 2.37588e-19)
(0.0283093 0.0372136 1.91839e-19)
(0.0447912 0.0341158 1.95178e-19)
(0.0622596 0.0312156 1.1552e-18)
(0.0804584 0.0286212 -4.33019e-19)
(0.0990551 0.0264882 -2.64915e-20)
(0.117777 0.0252306 5.02958e-19)
(0.136728 0.0260289 -2.85334e-19)
(0.153957 0.0298018 1.41271e-19)
(-0.0106903 0.0125379 -4.86452e-19)
(-0.0257118 0.0297495 3.11898e-20)
(-0.0355187 0.0409115 -3.89469e-19)
(-0.0405566 0.0476654 -5.06986e-20)
(-0.0413382 0.0512346 2.85113e-19)
(-0.0383582 0.0525422 -8.48748e-19)
(-0.032041 0.0522944 -6.13465e-22)
(-0.0227459 0.0510267 3.9499e-19)
(-0.0107802 0.0491446 3.71125e-19)
(0.00358576 0.0469561 -1.63396e-19)
(0.0201022 0.0446963 5.38822e-20)
(0.0385231 0.0425464 1.24976e-19)
(0.0585901 0.040646 -5.91642e-20)
(0.0800191 0.0391036 -6.64011e-19)
(0.102489 0.0380054 1.68102e-19)
(0.125617 0.0374163 4.63154e-19)
(0.14891 0.0373742 -6.60181e-19)
(0.171916 0.0380718 3.22101e-19)
(0.194816 0.0405544 8.66245e-20)
(0.21594 0.0457081 4.39672e-19)
(-0.0114394 0.0124454 -7.1856e-20)
(-0.0269082 0.0292221 -3.40904e-19)
(-0.0361648 0.0399323 1.56861e-19)
(-0.0398252 0.0462957 7.09244e-22)
(-0.0385136 0.0495953 -6.83729e-19)
(-0.0328007 0.0507967 1.06694e-19)
(-0.023167 0.050634 -2.02597e-20)
(-0.0100133 0.0496649 1.38028e-19)
(0.00631954 0.0483154 -6.31809e-19)
(0.0255292 0.0469159 -4.42914e-20)
(0.0473292 0.0457285 -1.48446e-19)
(0.0714269 0.0449678 1.32046e-19)
(0.0975006 0.0448154 4.45886e-19)
(0.125177 0.0454314 -6.89252e-20)
(0.154008 0.0469624 2.67194e-20)
(0.183428 0.0495322 1.75782e-19)
(0.212668 0.0531963 -4.33688e-20)
(0.24087 0.058072 3.55714e-19)
(0.26801 0.0652075 -2.05741e-19)
(0.293041 0.0751495 -3.26846e-19)
(-0.01211 0.0122253 6.66332e-20)
(-0.0277462 0.0283355 1.62373e-20)
(-0.0360605 0.0384229 1.36713e-19)
(-0.0378533 0.0442822 3.34848e-19)
(-0.0338658 0.0472536 1.87896e-19)
(-0.0247465 0.048342 1.9605e-20)
(-0.0110315 0.0483071 -2.24313e-19)
(0.0068372 0.0477255 5.75053e-20)
(0.0284844 0.0470414 3.0241e-19)
(0.0535747 0.0466054 -5.12452e-19)
(0.0817854 0.0467058 3.86703e-19)
(0.112783 0.0475928 -2.91394e-19)
(0.146197 0.0495001 2.47362e-19)
(0.181602 0.0526664 -5.3368e-19)
(0.21848 0.05736 5.87494e-19)
(0.256166 0.0638928 -6.2857e-19)
(0.293701 0.0726137 -1.63708e-19)
(0.329764 0.0841477 5.15125e-19)
(0.363217 0.100435 -1.73498e-19)
(0.391077 0.121361 7.83203e-20)
(-0.0126763 0.0118766 -5.0444e-20)
(-0.0281281 0.0270894 4.76014e-19)
(-0.0350229 0.0363937 -2.0023e-21)
(-0.0343641 0.0416541 -2.95492e-19)
(-0.0270179 0.0442631 -1.98732e-19)
(-0.0137146 0.0452611 3.64066e-19)
(0.00494941 0.0454275 -1.442e-19)
(0.0284836 0.0453511 -1.81667e-20)
(0.0564682 0.045485 3.00484e-19)
(0.088521 0.0461874 -3.73295e-19)
(0.12427 0.0477538 4.09389e-20)
(0.163331 0.0504431 -4.85381e-19)
(0.205296 0.0545025 2.55708e-19)
(0.249732 0.0601967 -7.31978e-19)
(0.296183 0.0678465 1.167e-18)
(0.344187 0.0778803 -2.13692e-19)
(0.393309 0.0909544 2.24202e-19)
(0.44344 0.108505 -5.81804e-19)
(0.49508 0.133547 2.73187e-21)
(0.540352 0.161659 6.67738e-19)
(-0.0131065 0.0113984 -1.52849e-19)
(-0.027938 0.0254895 1.32071e-19)
(-0.0328394 0.0338725 -4.8628e-19)
(-0.0290406 0.0384721 7.1922e-19)
(-0.0175449 0.0407264 -5.19234e-19)
(0.000825915 0.0417052 2.67896e-20)
(0.0254017 0.0421998 -5.59832e-19)
(0.0556236 0.0428008 4.00255e-19)
(0.0909989 0.0439555 -5.71863e-20)
(0.131061 0.0460082 -3.53211e-19)
(0.175343 0.0492297 -2.06149e-19)
(0.223356 0.05384 2.17802e-19)
(0.274591 0.0600264 1.44144e-19)
(0.328529 0.0679611 -6.38326e-19)
(0.384669 0.0778177 2.3032e-19)
(0.442575 0.0897827 -3.40473e-19)
(0.501936 0.104077 4.13019e-20)
(0.562802 0.12116 -2.90699e-19)
(0.626056 0.142205 1.20865e-19)
(0.684416 0.163055 -4.38777e-19)
(-0.0133602 0.0107894 4.3513e-19)
(-0.0270379 0.023548 -2.63501e-19)
(-0.0292641 0.0309054 2.17126e-19)
(-0.0215249 0.0348303 -2.7411e-19)
(-0.00497821 0.0367967 4.59497e-19)
(0.019444 0.0378956 -8.0538e-21)
(0.0509716 0.0389199 -5.59286e-20)
(0.0889399 0.0404487 -4.14646e-20)
(0.132732 0.0429048 2.55227e-19)
(0.181734 0.0465939 4.33982e-19)
(0.235306 0.0517302 -2.56368e-19)
(0.292769 0.0584547 2.4928e-19)
(0.353413 0.0668484 4.5561e-19)
(0.416517 0.0769415 -3.19453e-19)
(0.481384 0.0887176 -6.50117e-19)
(0.547388 0.102109 1.18988e-18)
(0.614012 0.116979 -2.12349e-19)
(0.680939 0.133165 -6.92764e-20)
(0.748414 0.151004 7.50558e-19)
(0.811137 0.169476 -1.57617e-19)
(-0.0133867 0.0100482 -7.08512e-19)
(-0.0252659 0.0212838 -4.71666e-19)
(-0.0240189 0.0275571 -1.81063e-19)
(-0.011424 0.0308558 3.49292e-19)
(0.0111802 0.0326752 -7.88492e-19)
(0.0427207 0.0341166 4.08286e-19)
(0.0822831 0.0359606 5.17382e-20)
(0.129037 0.0387557 5.23018e-20)
(0.182165 0.042877 -5.34685e-19)
(0.240819 0.0485621 -1.88823e-19)
(0.30409 0.0559347 -3.32902e-19)
(0.371012 0.0650218 3.21566e-19)
(0.44058 0.0757665 9.14243e-20)
(0.511788 0.0880383 1.80009e-20)
(0.583667 0.101638 4.20498e-19)
(0.655338 0.1163 -4.25584e-19)
(0.726037 0.131679 -1.78008e-20)
(0.795152 0.147365 1.0373e-20)
(0.862388 0.163215 5.79171e-20)
(0.924738 0.180723 3.33952e-19)
(-0.0131238 0.00917373 2.2561e-19)
(-0.0224361 0.0187244 5.81093e-19)
(-0.0167978 0.0239124 4.66329e-19)
(0.00167798 0.0267078 -1.60721e-19)
(0.0314346 0.028607 5.58912e-19)
(0.0712089 0.0307051 -4.70857e-20)
(0.119875 0.0337492 -6.6325e-20)
(0.176351 0.0382315 3.94799e-20)
(0.239521 0.0444466 5.40138e-19)
(0.308194 0.0525269 3.17365e-19)
(0.381093 0.062467 9.26662e-20)
(0.456878 0.0741449 5.65496e-21)
(0.534193 0.0873413 -6.15637e-19)
(0.611718 0.101758 5.34917e-19)
(0.68823 0.117036 9.20216e-20)
(0.76265 0.132764 -1.5122e-19)
(0.834075 0.14849 -6.58445e-19)
(0.9018 0.163753 -5.625e-20)
(0.9653 0.178087 2.6105e-19)
(1.02368 0.194632 -5.36643e-20)
(-0.0124979 0.00816718 -5.72664e-19)
(-0.0183415 0.0159087 2.39602e-19)
(-0.00727538 0.0200783 -1.16966e-18)
(0.0182021 0.022578 4.78973e-19)
(0.0562633 0.0248762 -3.81957e-19)
(0.105383 0.028037 2.81583e-19)
(0.16413 0.0327439 -4.37366e-19)
(0.231059 0.039394 4.01524e-20)
(0.304636 0.0481581 -2.25348e-20)
(0.383217 0.0590167 1.17618e-19)
(0.46507 0.0717924 1.6994e-19)
(0.548438 0.0861811 -3.21214e-19)
(0.631611 0.101785 1.70056e-19)
(0.71301 0.118147 1.56365e-19)
(0.791261 0.134776 6.7687e-19)
(0.865234 0.15118 -2.93679e-19)
(0.934073 0.166878 -1.96014e-19)
(0.997207 0.181453 3.30045e-19)
(1.05421 0.194331 1.77207e-19)
(1.10558 0.209409 -3.31841e-19)
(-0.0114251 0.00703456 5.01739e-19)
(-0.012759 0.0128922 4.8381e-19)
(0.00488058 0.0161883 1.39525e-19)
(0.0385512 0.0186913 5.87702e-19)
(0.0860805 0.0218014 2.88651e-19)
(0.145583 0.0265154 -5.2031e-19)
(0.215199 0.0334082 7.87989e-19)
(0.292986 0.0427302 -3.87768e-19)
(0.376868 0.0544716 3.87073e-19)
(0.464656 0.0684082 5.00912e-19)
(0.554122 0.0841481 -2.86272e-19)
(0.643104 0.101182 5.43597e-20)
(0.729627 0.118936 3.03521e-19)
(0.811994 0.136817 2.14041e-19)
(0.888857 0.154259 4.938e-19)
(0.959248 0.17075 -1.97179e-19)
(1.02257 0.185856 -2.39789e-20)
(1.0786 0.199262 3.13121e-19)
(1.12724 0.210474 -6.71451e-20)
(1.16985 0.223469 4.00673e-22)
(-0.00981315 0.00578938 -2.59032e-19)
(-0.00545741 0.0097514 -9.5208e-19)
(0.0199935 0.0124065 2.24174e-19)
(0.0630828 0.0153071 -1.70646e-19)
(0.121196 0.019731 -3.93835e-19)
(0.191958 0.0265558 -2.81093e-19)
(0.272936 0.0361863 -1.73644e-19)
(0.361547 0.0486585 4.21757e-19)
(0.455068 0.063717 -2.50471e-19)
(0.550716 0.0808798 -2.56448e-19)
(0.645795 0.0995103 -3.24564e-19)
(0.737852 0.118893 -5.35802e-20)
(0.824815 0.138303 -3.61637e-20)
(0.905084 0.15707 -7.51847e-19)
(0.977573 0.17462 3.65124e-19)
(1.04169 0.190501 -4.8006e-19)
(1.0973 0.204393 1.51415e-19)
(1.14462 0.216127 -1.15252e-18)
(1.18409 0.225416 3.47232e-19)
(1.2174 0.235881 4.40859e-19)
(-0.00756507 0.00445535 -6.50276e-20)
(0.00379275 0.00658933 4.64632e-19)
(0.0383595 0.00893181 2.97768e-20)
(0.0920808 0.0127196 7.16598e-20)
(0.161775 0.0190365 -1.45684e-19)
(0.244423 0.0285697 -2.37516e-21)
(0.336856 0.0414746 -3.72355e-21)
(0.435727 0.0574931 -8.78545e-20)
(0.537603 0.0760578 3.116e-19)
(0.63914 0.0963888 1.2052e-19)
(0.737301 0.1176 5.47255e-19)
(0.829544 0.138799 -1.49272e-19)
(0.913947 0.159175 1.04319e-19)
(0.989264 0.178059 -1.36693e-20)
(1.05489 0.194953 2.89217e-19)
(1.1108 0.20954 1.77278e-19)
(1.15741 0.221674 4.28032e-19)
(1.19547 0.231356 -6.91818e-19)
(1.22587 0.238548 8.716e-19)
(1.25046 0.246323 -2.7634e-19)
(-0.00458241 0.00306864 -6.05862e-19)
(0.0152079 0.00353885 -1.8905e-19)
(0.0602274 0.00599993 1.47812e-19)
(0.125725 0.0112548 9.31762e-20)
(0.2078 0.0201013 9.53897e-20)
(0.302615 0.0329441 9.67445e-20)
(0.406114 0.0495937 -2.42047e-19)
(0.514101 0.0694142 -1.00121e-19)
(0.622456 0.0914716 3.1044e-20)
(0.727409 0.114676 -2.96582e-19)
(0.825809 0.137925 -1.34241e-19)
(0.9153 0.160221 8.11473e-19)
(0.994396 0.180756 -2.09294e-19)
(1.06244 0.198959 -2.88973e-19)
(1.11949 0.214491 -1.37476e-19)
(1.16617 0.227231 9.50351e-20)
(1.20345 0.237235 1.16335e-19)
(1.23255 0.244678 -5.57833e-19)
(1.25473 0.249752 8.08152e-19)
(1.27183 0.254953 -7.00855e-19)
(-0.000769593 0.00167936 -6.86475e-20)
(0.0289789 0.000764651 1.96772e-20)
(0.0857776 0.00388204 -2.50222e-20)
(0.164062 0.0112629 3.65919e-19)
(0.259042 0.0233042 2.01055e-20)
(0.365881 0.0400164 1.3434e-19)
(0.479523 0.0607601 -2.79028e-19)
(0.594919 0.0844471 -1.01786e-20)
(0.70739 0.109752 3.87658e-19)
(0.812985 0.135304 5.40664e-20)
(0.908744 0.159862 -3.37927e-19)
(0.992815 0.182425 -2.96712e-20)
(1.0644 0.202299 -2.78073e-19)
(1.12361 0.219101 2.76752e-19)
(1.17124 0.232718 3.84995e-19)
(1.20852 0.243253 -4.24617e-20)
(1.23693 0.250963 -5.19039e-20)
(1.258 0.256176 1.58182e-19)
(1.27321 0.259253 -5.09321e-19)
(1.28432 0.262179 4.48427e-19)
(0.00396157 0.000352255 6.88406e-20)
(0.0452577 -0.00153753 -4.44378e-19)
(0.115101 0.00287951 1.1895e-19)
(0.206983 0.0131052 -3.68734e-19)
(0.315038 0.0289988 1.26765e-19)
(0.433283 0.0500484 -4.70772e-19)
(0.555611 0.0750642 1.8987e-19)
(0.676229 0.102458 -6.04225e-20)
(0.790144 0.130532 -2.44111e-21)
(0.893559 0.157716 6.1888e-20)
(0.984055 0.182743 -2.25522e-19)
(1.06056 0.204734 -3.22138e-19)
(1.12316 0.223212 -6.61435e-20)
(1.17279 0.238052 -2.96962e-20)
(1.21094 0.249398 -7.53857e-20)
(1.23937 0.257578 -2.45869e-20)
(1.25989 0.263015 -7.36213e-20)
(1.27419 0.266151 -6.38786e-20)
(1.28382 0.267452 -1.90355e-19)
(1.29038 0.268485 3.02246e-19)
(0.00968709 -0.000833545 1.65772e-19)
(0.0641438 -0.00314433 -1.84077e-19)
(0.14818 0.00331432 3.96094e-19)
(0.254202 0.0171373 -1.70908e-19)
(0.375095 0.0374888 4.56757e-19)
(0.503631 0.063203 6.45804e-21)
(0.632714 0.0924596 2.29359e-19)
(0.756033 0.123168 -6.1379e-20)
(0.868638 0.153334 2.56376e-19)
(0.967267 0.181312 1.85779e-20)
(1.05036 0.205949 6.1078e-19)
(1.11784 0.226607 -4.21718e-19)
(1.17074 0.243106 5.67863e-20)
(1.21078 0.255618 1.08447e-19)
(1.24003 0.264538 5.68884e-19)
(1.2606 0.270383 -2.0442e-19)
(1.27446 0.273702 -4.05712e-20)
(1.28334 0.274997 -2.15169e-19)
(1.28869 0.274785 -2.27417e-20)
(1.29194 0.274305 1.07749e-19)
(0.0164657 -0.00178571 -7.96539e-20)
(0.0856719 -0.00381095 2.29963e-19)
(0.184872 0.00551571 -2.3528e-19)
(0.30525 0.0236876 9.29941e-20)
(0.438305 0.0490053 -1.11031e-19)
(0.575552 0.0795283 4.07689e-19)
(0.709094 0.112768 -5.67322e-20)
(0.832456 0.14619 1.39948e-19)
(0.941147 0.17763 -8.2362e-20)
(1.03281 0.205524 -2.1301e-21)
(1.10699 0.228973 9.42036e-20)
(1.1647 0.247678 -7.29987e-20)
(1.20787 0.261801 1.89406e-19)
(1.23888 0.271804 -9.44109e-20)
(1.26021 0.278304 -4.16181e-19)
(1.27412 0.281958 4.13904e-19)
(1.28261 0.283384 -1.86645e-19)
(1.28729 0.283103 1.49054e-19)
(1.28948 0.281638 2.58677e-19)
(1.29041 0.279979 1.06279e-19)
(0.024334 -0.00240076 1.98169e-19)
(0.109801 -0.00327969 -4.08335e-19)
(0.224902 0.00980408 7.81482e-20)
(0.359482 0.0330366 -5.66645e-20)
(0.50358 0.0636875 -2.28425e-19)
(0.647568 0.0989536 -1.79265e-19)
(0.783069 0.1357 -3.52193e-20)
(0.903882 0.171069 -3.19632e-19)
(1.0064 0.202897 -1.94488e-20)
(1.08948 0.229867 -5.93987e-20)
(1.15389 0.251455 -1.61308e-19)
(1.20172 0.267756 -3.58332e-20)
(1.23567 0.279281 -1.23531e-19)
(1.25859 0.286752 -2.06294e-19)
(1.27315 0.290953 2.1135e-19)
(1.28165 0.292624 2.91894e-20)
(1.28595 0.292404 5.81712e-20)
(1.2875 0.290797 -2.43734e-19)
(1.28743 0.288311 -6.07314e-21)
(1.28675 0.285736 -3.76343e-19)
(0.0333014 -0.00256708 2.17399e-19)
(0.136404 -0.00129054 1.44962e-19)
(0.267859 0.0164735 -2.33609e-19)
(0.416094 0.0453969 3.64799e-19)
(0.569713 0.0815714 -3.92986e-20)
(0.718198 0.121297 1.36228e-19)
(0.853125 0.160885 4.71595e-20)
(0.96905 0.197331 1.67108e-19)
(1.06363 0.228666 -1.30846e-19)
(1.1371 0.25397 4.36162e-20)
(1.19152 0.273174 -4.18792e-20)
(1.22987 0.28679 -1.84495e-20)
(1.25545 0.295647 3.50516e-20)
(1.27139 0.300673 -6.4612e-20)
(1.28039 0.302758 -1.98704e-20)
(1.28461 0.302676 -6.07912e-20)
(1.28575 0.301046 -9.88588e-20)
(1.28502 0.29833 6.38196e-20)
(1.28336 0.29501 -8.76325e-20)
(1.28161 0.291711 3.78654e-19)
(0.0433465 -0.00216867 -1.08611e-19)
(0.165268 0.00240688 -3.07552e-19)
(0.313204 0.0257742 -4.09331e-20)
(0.474155 0.060898 -1.11097e-20)
(0.635446 0.102588 -1.37704e-19)
(0.786049 0.146283 -2.26057e-19)
(0.918009 0.187908 7.40006e-20)
(1.02709 0.224525 -1.01682e-19)
(1.1125 0.254551 -1.13965e-19)
(1.17594 0.277577 6.34931e-20)
(1.22061 0.294034 -4.79927e-20)
(1.25024 0.304831 -9.71354e-20)
(1.26852 0.311059 -3.29611e-21)
(1.27863 0.313794 6.57936e-20)
(1.28318 0.313973 -6.71473e-20)
(1.28413 0.312358 9.31877e-20)
(1.28292 0.309522 2.50589e-20)
(1.28058 0.305868 6.31985e-20)
(1.27784 0.301857 1.23247e-19)
(1.27537 0.297965 -1.05593e-19)
(0.0544137 -0.00108967 1.03767e-19)
(0.196089 0.00804072 -9.21751e-21)
(0.360283 0.0378973 4.65088e-20)
(0.532654 0.0795773 -6.31502e-20)
(0.699536 0.126569 5.17181e-21)
(0.84989 0.173571 2.19059e-19)
(0.976765 0.216343 -1.43922e-19)
(1.07753 0.252248 6.09535e-20)
(1.15308 0.280251 5.37451e-20)
(1.20654 0.300535 -1.5113e-19)
(1.24208 0.314026 1.42034e-19)
(1.26398 0.321983 1.25401e-21)
(1.27605 0.325699 -1.00125e-19)
(1.28144 0.326327 1.20701e-19)
(1.28252 0.324805 -4.79081e-20)
(1.28102 0.32185 3.6643e-20)
(1.27812 0.317971 -4.09844e-20)
(1.27466 0.313511 -1.63806e-20)
(1.2712 0.308909 -1.43574e-19)
(1.26826 0.304507 4.39613e-20)
(0.0664122 0.000780626 -3.50182e-20)
(0.228481 0.0158045 9.39114e-20)
(0.408353 0.0529619 1.46311e-20)
(0.590544 0.101377 6.13941e-20)
(0.76082 0.153261 2.92809e-20)
(0.908705 0.202775 1.37242e-20)
(1.02875 0.245778 7.78275e-20)
(1.12021 0.280158 -9.45184e-21)
(1.1857 0.305553 3.43164e-20)
(1.22962 0.322769 5.51486e-20)
(1.2569 0.333196 2.66148e-20)
(1.27212 0.338376 1.91078e-20)
(1.27908 0.339734 7.74941e-20)
(1.28072 0.338444 -7.50125e-20)
(1.27916 0.335406 1.61039e-20)
(1.27586 0.331271 -1.50741e-20)
(1.27179 0.326472 2.33383e-20)
(1.26757 0.3213 1.95536e-20)
(1.26365 0.316173 4.08398e-20)
(1.26042 0.311305 1.72718e-21)
(0.0792158 0.00354257 2.07579e-20)
(0.261983 0.0258457 1.89599e-20)
(0.456613 0.0710064 -2.62392e-20)
(0.646795 0.126147 1.63946e-20)
(0.81827 0.182345 9.25919e-21)
(0.961717 0.233492 -2.88024e-20)
(1.07362 0.275833 9.50491e-21)
(1.15525 0.307972 1.71094e-21)
(1.21088 0.330307 1.6393e-20)
(1.24597 0.344254 -4.39489e-20)
(1.26598 0.351612 -1.3494e-22)
(1.27557 0.354132 1.21792e-20)
(1.27842 0.353301 -9.70481e-21)
(1.27717 0.350271 9.8199e-21)
(1.27365 0.345874 2.56217e-20)
(1.26907 0.340681 -1.45752e-20)
(1.26419 0.335053 4.05883e-21)
(1.25948 0.32923 1.59691e-20)
(1.25528 0.323621 -2.63308e-20)
(1.25189 0.318305 1.26379e-20)
(0.0926661 0.00728102 5.7905e-20)
(0.296079 0.0382564 -3.14797e-20)
(0.504232 0.091985 3.70588e-20)
(0.700436 0.153656 -2.75709e-20)
(0.87102 0.213451 -1.23625e-20)
(1.00838 0.265319 3.7363e-21)
(1.11125 0.306164 -1.21323e-20)
(1.18294 0.335465 4.36322e-20)
(1.22922 0.354412 -3.63272e-20)
(1.25637 0.364997 8.52298e-21)
(1.27014 0.369346 -6.35212e-21)
(1.27512 0.369349 -4.13596e-20)
(1.27472 0.366498 4.01133e-20)
(1.27129 0.361885 1.52673e-20)
(1.26636 0.356255 -1.51901e-20)
(1.2609 0.350097 3.56485e-20)
(1.25549 0.343701 -5.26368e-22)
(1.2505 0.337268 -3.45747e-20)
(1.24616 0.331197 2.56126e-20)
(1.24269 0.325435 8.06672e-21)
(0.106574 0.0120607 -2.02897e-20)
(0.330208 0.0530668 5.88479e-20)
(0.550386 0.115768 6.79767e-20)
(0.750588 0.1836 -3.20598e-20)
(0.918385 0.24618 5.57868e-20)
(1.04838 0.297865 8.826e-20)
(1.14172 0.336469 -4.85534e-21)
(1.20372 0.362454 -1.51394e-20)
(1.24136 0.377801 7.48151e-20)
(1.26154 0.385009 3.64689e-20)
(1.27007 0.386456 -6.61024e-21)
(1.27136 0.384097 5.43384e-20)
(1.26848 0.379383 -5.82445e-20)
(1.26345 0.373318 9.06802e-20)
(1.25754 0.366554 -1.51262e-20)
(1.25151 0.359497 4.3297e-20)
(1.2458 0.352373 7.7919e-21)
(1.24068 0.345353 3.09696e-20)
(1.23629 0.33883 -2.94834e-20)
(1.23283 0.332616 7.08156e-21)
(0.120727 0.017922 -3.15762e-20)
(0.363788 0.0702399 7.50076e-20)
(0.594284 0.142146 5.57063e-20)
(0.796493 0.215617 -8.43553e-21)
(0.95986 0.280113 8.67362e-20)
(1.08158 0.330753 -6.4732e-20)
(1.16527 0.366475 -5.05668e-21)
(1.21806 0.388785 5.7163e-20)
(1.24793 0.400416 1.81638e-20)
(1.26213 0.404297 2.53866e-20)
(1.26638 0.402974 -3.74748e-20)
(1.26478 0.398408 9.76512e-20)
(1.26005 0.391971 1.82123e-20)
(1.25392 0.384563 -8.64498e-20)
(1.24737 0.376739 1.26208e-19)
(1.24101 0.36883 -1.4887e-19)
(1.23516 0.361005 -6.82858e-20)
(1.23003 0.353412 1.13267e-20)
(1.22568 0.346438 6.63066e-20)
(1.22229 0.339759 -1.24886e-19)
(0.134892 0.0248774 -7.1146e-20)
(0.396234 0.0896712 -1.6779e-19)
(0.635198 0.170837 -1.45029e-19)
(0.837526 0.249301 -1.97462e-19)
(0.995112 0.314825 -1.11991e-19)
(1.10799 0.363631 -2.3219e-19)
(1.18221 0.395942 2.94996e-20)
(1.22647 0.414326 -1.23225e-19)