/*--------------------------------*- C++ -*----------------------------------*\
  =========                 |
  \\      /  F ield         | OpenFOAM: The Open Source CFD Toolbox
   \\    /   O peration     | Website:  https://openfoam.org
    \\  /    A nd           | Version:  6.0
     \\/     M anipulation  |
\*---------------------------------------------------------------------------*/
FoamFile
{
    version     2.0;
    format      ascii;
    class       volScalarField;
    location    "2";
    object      p;
}
// * * * * * * * * * * * * * * * * * * * * * * * * * * * * * * * * * * * * * //

dimensions      [0 2 -2 0 0 0 0];

internalField   nonuniform List<scalar> 
8000
(
-0.330819
-0.340721
-0.346698
-0.351828
-0.357477
-0.363493
-0.369477
-0.374942
-0.379376
-0.382305
-0.383339
-0.382206
-0.378775
-0.373071
-0.365267
-0.355653
-0.344681
-0.333101
-0.321401
-0.307583
-0.334028
-0.343548
-0.349373
-0.354454
-0.360102
-0.366164
-0.372238
-0.377836
-0.382441
-0.385572
-0.386827
-0.385916
-0.382684
-0.377134
-0.369413
-0.359791
-0.348709
-0.336905
-0.324911
-0.310914
-0.340185
-0.348966
-0.35449
-0.359469
-0.365109
-0.37125
-0.377491
-0.383338
-0.388269
-0.391786
-0.393466
-0.392988
-0.390155
-0.384921
-0.377384
-0.367777
-0.356508
-0.344289
-0.33173
-0.317382
-0.348842
-0.356566
-0.36165
-0.366467
-0.372075
-0.378309
-0.384766
-0.390949
-0.396323
-0.400377
-0.402658
-0.402802
-0.400559
-0.395813
-0.388593
-0.379071
-0.3676
-0.354843
-0.341502
-0.326647
-0.359389
-0.365801
-0.370316
-0.374899
-0.380429
-0.386736
-0.393418
-0.399973
-0.405857
-0.410542
-0.413545
-0.414457
-0.412965
-0.408874
-0.402128
-0.392814
-0.38121
-0.367892
-0.35364
-0.338158
-0.371125
-0.376043
-0.379875
-0.384139
-0.389515
-0.395833
-0.402694
-0.409594
-0.415984
-0.421318
-0.425088
-0.426841
-0.426203
-0.422901
-0.416782
-0.40784
-0.396249
-0.382467
-0.367302
-0.351131
-0.38333
-0.386658
-0.389712
-0.393557
-0.39867
-0.404888
-0.411822
-0.41897
-0.42578
-0.431697
-0.436187
-0.438765
-0.439002
-0.436554
-0.431179
-0.42277
-0.411389
-0.397345
-0.381398
-0.364555
-0.395335
-0.397071
-0.399276
-0.402589
-0.407302
-0.413264
-0.420106
-0.427336
-0.434405
-0.440752
-0.445831
-0.449126
-0.450169
-0.448556
-0.443971
-0.436215
-0.425237
-0.411189
-0.3947
-0.377277
-0.406582
-0.406812
-0.408128
-0.410797
-0.41495
-0.420467
-0.427007
-0.4341
-0.441208
-0.447773
-0.453239
-0.457073
-0.458776
-0.457903
-0.454075
-0.447016
-0.436581
-0.422772
-0.406023
-0.388163
-0.416663
-0.415554
-0.415976
-0.417897
-0.42133
-0.426197
-0.432204
-0.438914
-0.445811
-0.452346
-0.457965
-0.462122
-0.464298
-0.464013
-0.460844
-0.454453
-0.444616
-0.431215
-0.414458
-0.396302
-0.425337
-0.423118
-0.422682
-0.423777
-0.426345
-0.430368
-0.435616
-0.441699
-0.448136
-0.454398
-0.459935
-0.464197
-0.466649
-0.466782
-0.464137
-0.458323
-0.449056
-0.436131
-0.419537
-0.401182
-0.432527
-0.429469
-0.428244
-0.42847
-0.430067
-0.433089
-0.437387
-0.442634
-0.448396
-0.454172
-0.459424
-0.463599
-0.466146
-0.466531
-0.464258
-0.458894
-0.450106
-0.437628
-0.421274
-0.402753
-0.438309
-0.434693
-0.432778
-0.432134
-0.432703
-0.434626
-0.437842
-0.442104
-0.447034
-0.452166
-0.456977
-0.460912
-0.463402
-0.463885
-0.461832
-0.456767
-0.448318
-0.436191
-0.42008
-0.401383
-0.442878
-0.43897
-0.436481
-0.435006
-0.434549
-0.435343
-0.437423
-0.440626
-0.444639
-0.449033
-0.453302
-0.456883
-0.459188
-0.459626
-0.457629
-0.452692
-0.444414
-0.432498
-0.416595
-0.397716
-0.446524
-0.442548
-0.439603
-0.43737
-0.435945
-0.43565
-0.436618
-0.43877
-0.441853
-0.445478
-0.449148
-0.452291
-0.454294
-0.454533
-0.452414
-0.447409
-0.439112
-0.427251
-0.411516
-0.392496
-0.449599
-0.445716
-0.442423
-0.439529
-0.437238
-0.435958
-0.435906
-0.437081
-0.439284
-0.442155
-0.445198
-0.447828
-0.449402
-0.44927
-0.446821
-0.441532
-0.433017
-0.421062
-0.405468
-0.386418
-0.452484
-0.448785
-0.44523
-0.441784
-0.438761
-0.43664
-0.435711
-0.43603
-0.43744
-0.439593
-0.441987
-0.444013
-0.445005
-0.444297
-0.441284
-0.435478
-0.426559
-0.414403
-0.398963
-0.380066
-0.455561
-0.452062
-0.448306
-0.444416
-0.440808
-0.438014
-0.436372
-0.435976
-0.436686
-0.438152
-0.439852
-0.441153
-0.441372
-0.439846
-0.436004
-0.429431
-0.419912
-0.407466
-0.392198
-0.373717
-0.45918
-0.455831
-0.451908
-0.447673
-0.443622
-0.44032
-0.438126
-0.437143
-0.437225
-0.438003
-0.438928
-0.439346
-0.43857
-0.43596
-0.431006
-0.42338
-0.412986
-0.399985
-0.384609
-0.366747
-0.463634
-0.460334
-0.456251
-0.45175
-0.447381
-0.443712
-0.441096
-0.439617
-0.439103
-0.439147
-0.439177
-0.438527
-0.436527
-0.43259
-0.426282
-0.417362
-0.405801
-0.391759
-0.375414
-0.357905
-0.46914
-0.465753
-0.461491
-0.456782
-0.452187
-0.448254
-0.4453
-0.443367
-0.442233
-0.441455
-0.440438
-0.438527
-0.435102
-0.429661
-0.421871
-0.411597
-0.398878
-0.383863
-0.366751
-0.348869
-0.475831
-0.472205
-0.467727
-0.462837
-0.45807
-0.453928
-0.450669
-0.448267
-0.446443
-0.444714
-0.442482
-0.439133
-0.434128
-0.427078
-0.417782
-0.406227
-0.39256
-0.377042
-0.360042
-0.342294
-0.483763
-0.479747
-0.475001
-0.469931
-0.465007
-0.460666
-0.45708
-0.454144
-0.451514
-0.448681
-0.445068
-0.44013
-0.433442
-0.424751
-0.413992
-0.401266
-0.386805
-0.370917
-0.353959
-0.336492
-0.492929
-0.488388
-0.483315
-0.478041
-0.472942
-0.468367
-0.464387
-0.460806
-0.457223
-0.45312
-0.44797
-0.44133
-0.432912
-0.422607
-0.410478
-0.396727
-0.381641
-0.36555
-0.348806
-0.331871
-0.503283
-0.498101
-0.492642
-0.487127
-0.481807
-0.476925
-0.472441
-0.468067
-0.463357
-0.457814
-0.450993
-0.442579
-0.432431
-0.420581
-0.407203
-0.392566
-0.376987
-0.360783
-0.344281
-0.327841
-0.514755
-0.508844
-0.502944
-0.49714
-0.491529
-0.486235
-0.4811
-0.475752
-0.469726
-0.462579
-0.453977
-0.443754
-0.431916
-0.41862
-0.404123
-0.388732
-0.372765
-0.356512
-0.340264
-0.324288
-0.527262
-0.520559
-0.514174
-0.508026
-0.502034
-0.49619
-0.490221
-0.483693
-0.476155
-0.467252
-0.456791
-0.444759
-0.431301
-0.416672
-0.401182
-0.385149
-0.368869
-0.352591
-0.336561
-0.320956
-0.540716
-0.533179
-0.526275
-0.519721
-0.513236
-0.506674
-0.499659
-0.491727
-0.482481
-0.471693
-0.459325
-0.445516
-0.430528
-0.414684
-0.398318
-0.381735
-0.365193
-0.348894
-0.33304
-0.317723
-0.555015
-0.546625
-0.539174
-0.532144
-0.525031
-0.517551
-0.509254
-0.499685
-0.488551
-0.475775
-0.461487
-0.445959
-0.429543
-0.4126
-0.39546
-0.378399
-0.361626
-0.345298
-0.329567
-0.314455
-0.570043
-0.560795
-0.552773
-0.545184
-0.537282
-0.528658
-0.518826
-0.507394
-0.494214
-0.479384
-0.463192
-0.446024
-0.428288
-0.410355
-0.392531
-0.375047
-0.358064
-0.341691
-0.326037
-0.311062
-0.585658
-0.575562
-0.566946
-0.558698
-0.549819
-0.539803
-0.528179
-0.514676
-0.499325
-0.482411
-0.464362
-0.445647
-0.426701
-0.407878
-0.389445
-0.371583
-0.354403
-0.337969
-0.32235
-0.307458
-0.601688
-0.590767
-0.581528
-0.5725
-0.562433
-0.550764
-0.537101
-0.521348
-0.503744
-0.484751
-0.464917
-0.44476
-0.424711
-0.40509
-0.386114
-0.36791
-0.350542
-0.334036
-0.318417
-0.303571
-0.617928
-0.606216
-0.596318
-0.586366
-0.57488
-0.561297
-0.545371
-0.527228
-0.50733
-0.486301
-0.464774
-0.443286
-0.42224
-0.401906
-0.382444
-0.36393
-0.346385
-0.329797
-0.314156
-0.299331
-0.634137
-0.621678
-0.611073
-0.600036
-0.586889
-0.57114
-0.552761
-0.532136
-0.509948
-0.486958
-0.463849
-0.441145
-0.419203
-0.398234
-0.378341
-0.359548
-0.341837
-0.325167
-0.309488
-0.294675
-0.650042
-0.636887
-0.625517
-0.613214
-0.598162
-0.580022
-0.559044
-0.535897
-0.511467
-0.486619
-0.46205
-0.438248
-0.41551
-0.393982
-0.373708
-0.354669
-0.33681
-0.320062
-0.304342
-0.289539
-0.665338
-0.651545
-0.639338
-0.625579
-0.60839
-0.587669
-0.564
-0.538341
-0.511757
-0.485177
-0.459283
-0.434505
-0.411068
-0.389054
-0.368453
-0.349202
-0.331217
-0.314404
-0.298647
-0.283867
-0.679693
-0.665324
-0.652201
-0.636793
-0.617256
-0.593812
-0.567417
-0.539309
-0.510695
-0.48253
-0.455452
-0.42982
-0.405782
-0.383356
-0.362481
-0.343058
-0.324977
-0.308118
-0.292338
-0.277601
-0.692758
-0.677877
-0.663751
-0.646509
-0.624449
-0.598196
-0.569098
-0.53865
-0.50816
-0.478573
-0.450461
-0.424098
-0.399558
-0.376797
-0.355707
-0.336157
-0.318014
-0.301138
-0.285355
-0.27069
-0.70417
-0.688843
-0.673625
-0.654381
-0.629668
-0.600581
-0.568861
-0.536226
-0.50404
-0.473208
-0.444215
-0.417249
-0.392307
-0.36929
-0.348048
-0.328423
-0.31026
-0.293399
-0.277644
-0.263087
-0.713563
-0.697855
-0.681459
-0.660073
-0.632632
-0.600747
-0.566542
-0.531908
-0.498229
-0.466337
-0.436623
-0.409182
-0.383944
-0.360754
-0.33943
-0.319785
-0.301652
-0.284847
-0.269156
-0.25475
-0.720577
-0.704552
-0.686902
-0.66327
-0.633085
-0.598501
-0.561995
-0.525585
-0.490631
-0.457874
-0.4276
-0.399819
-0.374391
-0.351118
-0.329784
-0.310185
-0.292136
-0.275434
-0.25985
-0.245642
-0.724861
-0.708584
-0.689619
-0.663683
-0.6308
-0.593676
-0.555096
-0.517157
-0.481161
-0.447739
-0.417072
-0.389085
-0.36358
-0.340318
-0.319055
-0.299571
-0.281666
-0.26512
-0.249693
-0.235735
-0.726091
-0.709625
-0.689305
-0.661058
-0.625584
-0.586133
-0.545743
-0.506543
-0.469745
-0.435862
-0.404972
-0.376919
-0.351454
-0.328301
-0.307195
-0.2879
-0.270207
-0.253875
-0.238659
-0.225009
-0.723968
-0.707378
-0.685692
-0.65518
-0.617283
-0.575762
-0.533857
-0.493677
-0.456325
-0.422189
-0.391246
-0.363271
-0.337966
-0.315026
-0.294168
-0.275143
-0.257733
-0.241677
-0.226734
-0.213452
-0.718235
-0.701587
-0.678553
-0.645875
-0.605777
-0.562486
-0.519381
-0.478513
-0.440856
-0.406677
-0.375855
-0.348103
-0.323082
-0.300463
-0.279948
-0.261279
-0.244228
-0.228518
-0.213912
-0.201062
-0.708675
-0.692038
-0.667708
-0.633017
-0.590987
-0.546257
-0.502281
-0.461021
-0.423312
-0.389297
-0.358771
-0.331389
-0.30678
-0.284595
-0.264523
-0.246299
-0.229688
-0.214395
-0.200198
-0.187845
-0.695118
-0.678567
-0.653026
-0.616524
-0.572873
-0.527056
-0.482549
-0.441194
-0.403682
-0.370039
-0.339983
-0.31312
-0.289053
-0.267416
-0.24789
-0.230205
-0.214118
-0.19932
-0.185605
-0.173817
-0.677448
-0.66106
-0.634431
-0.596362
-0.551433
-0.504897
-0.460201
-0.419045
-0.381974
-0.348908
-0.319493
-0.293298
-0.269904
-0.248933
-0.230058
-0.213009
-0.197534
-0.183311
-0.170157
-0.159002
-0.655602
-0.639463
-0.611897
-0.572543
-0.526701
-0.479823
-0.435277
-0.394606
-0.358214
-0.325923
-0.297319
-0.271941
-0.24935
-0.229163
-0.211048
-0.194734
-0.179961
-0.166399
-0.153887
-0.143434
-0.629572
-0.613772
-0.585452
-0.545125
-0.498751
-0.451905
-0.407839
-0.36793
-0.332447
-0.301122
-0.273494
-0.249076
-0.22742
-0.208134
-0.190888
-0.175409
-0.161434
-0.148621
-0.136838
-0.127156
-0.599408
-0.584044
-0.555176
-0.51421
-0.46769
-0.421244
-0.377976
-0.339092
-0.304733
-0.274558
-0.248064
-0.224746
-0.20415
-0.185883
-0.169615
-0.155074
-0.141993
-0.130025
-0.119063
-0.110227
-0.565215
-0.550388
-0.521198
-0.47994
-0.433659
-0.387969
-0.345798
-0.308185
-0.275155
-0.246299
-0.221088
-0.199003
-0.179589
-0.162453
-0.14727
-0.13377
-0.121682
-0.11066
-0.10062
-0.0927121
-0.52715
-0.512965
-0.483696
-0.442498
-0.396831
-0.352234
-0.311441
-0.275326
-0.24381
-0.216431
-0.192638
-0.171909
-0.153789
-0.137892
-0.123898
-0.111539
-0.100544
-0.0905738
-0.0815669
-0.0746653
-0.485423
-0.471989
-0.44289
-0.402103
-0.35741
-0.314221
-0.275063
-0.240651
-0.210815
-0.185052
-0.162798
-0.143533
-0.126809
-0.112248
-0.099538
-0.0884173
-0.0786179
-0.0698111
-0.0619492
-0.0561112
-0.440294
-0.427717
-0.399042
-0.359009
-0.315629
-0.274138
-0.236845
-0.204318
-0.176307
-0.152279
-0.131665
-0.113955
-0.0987099
-0.0855663
-0.0742233
-0.0644284
-0.0559229
-0.048394
-0.0417855
-0.0370536
-0.392064
-0.380451
-0.352452
-0.313501
-0.271749
-0.232215
-0.196991
-0.166505
-0.140442
-0.118247
-0.0993554
-0.0832674
-0.0695632
-0.0578964
-0.0479833
-0.039585
-0.0324573
-0.0263122
-0.0210787
-0.0175735
-0.341077
-0.330529
-0.303451
-0.26589
-0.226055
-0.18871
-0.15573
-0.127417
-0.103401
-0.0831133
-0.0659998
-0.051579
-0.0394535
-0.0293018
-0.0208641
-0.0139174
-0.00823784
-0.00359565
3.42398e-05
0.0019687
-0.287708
-0.278323
-0.252399
-0.216516
-0.178854
-0.1439
-0.113313
-0.0872795
-0.0653831
-0.0470523
-0.0317449
-0.0190027
-0.00845783
0.000175468
0.00712172
0.0125812
0.0167324
0.0196417
0.0211637
0.020996
-0.232365
-0.22423
-0.19968
-0.165735
-0.130473
-0.0980831
-0.0700129
-0.0463437
-0.0266207
-0.0102701
0.00323666
0.0143367
0.0233687
0.0305794
0.0361534
0.0402558
0.0429465
0.0439208
0.0427433
0.0402341
-0.175477
-0.168672
-0.145696
-0.113921
-0.0812569
-0.0515772
-0.0261263
-0.00488999
0.0126186
0.0269754
0.0387007
0.048222
0.0558679
0.0618774
0.0664418
0.069738
0.0716926
0.0715096
0.0685447
0.0652809
-0.11749
-0.112083
-0.0908598
-0.0614584
-0.0315583
-0.00470948
0.0180378
0.036783
0.0520378
0.0643773
0.0743148
0.0822741
0.0885915
0.0935368
0.097378
0.10041
0.102604
0.102965
0.101253
0.105734
-0.0588553
-0.0549043
-0.0355913
-0.00873476
0.0182654
0.0421882
0.0621667
0.0783741
0.0913391
0.10163
0.109746
0.116099
0.121019
0.124782
0.127669
0.129953
0.131613
0.132144
0.132448
0.138821
-3.42308e-05
0.00241537
0.0196871
0.0438604
0.0678573
0.0887862
0.105951
0.119589
0.130238
0.138455
0.144724
0.149439
0.152923
0.155444
0.157269
0.158625
0.159479
0.159511
0.159659
0.16481
0.0585125
0.0594297
0.0745567
0.0959431
0.116867
0.134762
0.149092
0.160145
0.168462
0.174586
0.178976
0.18201
0.183991
0.185175
0.185803
0.186079
0.185983
0.185269
0.184728
0.188284
0.11633
0.115698
0.128606
0.147138
0.164953
0.179804
0.191301
0.199775
0.205765
0.209792
0.212294
0.213624
0.214063
0.213845
0.213187
0.212261
0.211035
0.209296
0.207784
0.209859
0.172972
0.17079
0.181434
0.197079
0.211785
0.223613
0.232305
0.238229
0.241915
0.243863
0.244484
0.244107
0.242991
0.241349
0.239372
0.237203
0.234799
0.231972
0.229428
0.230082
0.228007
0.224288
0.232654
0.245418
0.257048
0.265902
0.271845
0.275271
0.2767
0.276607
0.275377
0.273314
0.270656
0.267592
0.264291
0.260873
0.257285
0.253367
0.249798
0.249108
0.281016
0.27579
0.281894
0.291817
0.30044
0.306401
0.309675
0.310679
0.309919
0.307844
0.304815
0.301111
0.296946
0.292493
0.287898
0.28326
0.27852
0.273551
0.268991
0.267023
0.331602
0.324914
0.328801
0.335959
0.341675
0.344852
0.345563
0.344244
0.341383
0.337407
0.332649
0.327367
0.321754
0.315964
0.310124
0.304315
0.298479
0.292513
0.287008
0.283829
0.379389
0.371297
0.373042
0.377543
0.380483
0.381011
0.379291
0.375768
0.370916
0.365136
0.358738
0.351959
0.344972
0.337914
0.330894
0.323979
0.317115
0.310218
0.30382
0.299498
0.424022
0.414602
0.414306
0.416289
0.416612
0.414653
0.410653
0.405065
0.398348
0.390879
0.382947
0.374765
0.366493
0.358248
0.350127
0.342182
0.334364
0.326607
0.319375
0.313982
0.465172
0.454514
0.452304
0.451936
0.449829
0.445566
0.439458
0.431963
0.423523
0.414495
0.405145
0.39567
0.38621
0.376872
0.367737
0.358847
0.350156
0.341613
0.333612
0.327225
0.50254
0.490744
0.486771
0.484246
0.479918
0.473557
0.46553
0.456301
0.446295
0.435849
0.425211
0.414561
0.404025
0.393695
0.38364
0.373894
0.364418
0.355167
0.346463
0.339169
0.535852
0.523032
0.517468
0.513005
0.506687
0.498449
0.488709
0.477932
0.46653
0.45482
0.443034
0.431336
0.41984
0.408627
0.397755
0.387249
0.377076
0.367198
0.357867
0.349758
0.564867
0.551148
0.544183
0.538019
0.529961
0.520085
0.508852
0.496726
0.484107
0.471296
0.45851
0.445901
0.43357
0.421589
0.410005
0.398839
0.388064
0.377643
0.367761
0.358938
0.589374
0.574891
0.566733
0.559124
0.549592
0.53833
0.525834
0.512569
0.498922
0.485181
0.471551
0.458172
0.445137
0.432508
0.420324
0.408602
0.397319
0.386441
0.376094
0.366662
0.609196
0.594092
0.584963
0.57618
0.565451
0.553067
0.53955
0.525363
0.510885
0.496392
0.482079
0.468078
0.454473
0.44132
0.428653
0.416482
0.40479
0.393544
0.382817
0.372891
0.62419
0.608614
0.598747
0.589072
0.577438
0.564204
0.549913
0.535029
0.519922
0.504861
0.490032
0.47556
0.461525
0.447977
0.434943
0.422433
0.410433
0.398908
0.387894
0.377592
0.634248
0.618355
0.60799
0.597717
0.585474
0.57167
0.55686
0.541508
0.52598
0.510537
0.495362
0.480574
0.466251
0.452437
0.439158
0.426421
0.414214
0.402503
0.391294
0.38074
0.639298
0.623245
0.61263
0.602056
0.589507
0.575416
0.560346
0.54476
0.529019
0.513385
0.498036
0.48309
0.468622
0.454675
0.441273
0.428422
0.416111
0.404306
0.393001
0.382319
0.639303
0.62325
0.612635
0.60206
0.589511
0.57542
0.56035
0.544763
0.529022
0.513388
0.498039
0.483093
0.468624
0.454677
0.441275
0.428424
0.416113
0.404308
0.393003
0.382321
0.634264
0.61837
0.608004
0.59773
0.585486
0.571681
0.556871
0.541519
0.525989
0.510546
0.49537
0.480582
0.466258
0.452444
0.439165
0.426428
0.41422
0.402509
0.391301
0.380746
0.624216
0.608639
0.59877
0.589095
0.577459
0.564224
0.549932
0.535047
0.519938
0.504876
0.490046
0.475574
0.461538
0.447989
0.434955
0.422445
0.410444
0.398919
0.387904
0.377602
0.609232
0.594127
0.584996
0.576211
0.565481
0.553095
0.539575
0.525387
0.510907
0.496414
0.482099
0.468097
0.454491
0.441338
0.428669
0.416498
0.404805
0.393558
0.382831
0.372905
0.58942
0.574937
0.566776
0.559165
0.549629
0.538365
0.525867
0.5126
0.498951
0.485209
0.471577
0.458196
0.44516
0.43253
0.420345
0.408623
0.397339
0.38646
0.376112
0.36668
0.564923
0.551204
0.544236
0.538069
0.530007
0.520128
0.508892
0.496764
0.484143
0.47133
0.458542
0.445931
0.433599
0.421616
0.410031
0.398864
0.388087
0.377666
0.367783
0.358959
0.535919
0.523098
0.51753
0.513063
0.506741
0.498499
0.488756
0.477976
0.466572
0.454859
0.443071
0.431371
0.419874
0.40866
0.397785
0.387278
0.377104
0.367225
0.357893
0.349783
0.502617
0.490819
0.486842
0.484314
0.479981
0.473615
0.465584
0.456352
0.446343
0.435895
0.425255
0.414602
0.404064
0.393732
0.383676
0.373928
0.36445
0.355198
0.346493
0.339198
0.46526
0.454599
0.452385
0.452012
0.4499
0.445633
0.43952
0.432021
0.423578
0.414547
0.405194
0.395716
0.386255
0.376915
0.367777
0.358885
0.350193
0.341648
0.333646
0.327258
0.424119
0.414698
0.414397
0.416374
0.416691
0.414727
0.410722
0.40513
0.398409
0.390937
0.383001
0.374817
0.366542
0.358295
0.350172
0.342225
0.334405
0.326646
0.319413
0.314018
0.379496
0.371403
0.373143
0.377637
0.38057
0.381093
0.379367
0.375839
0.370983
0.365199
0.358799
0.352016
0.345027
0.337965
0.330944
0.324027
0.31716
0.310261
0.303862
0.299538
0.33172
0.325029
0.328911
0.336061
0.34177
0.344941
0.345647
0.344322
0.341457
0.337476
0.332715
0.32743
0.321814
0.316021
0.310178
0.304367
0.298529
0.292561
0.287054
0.283873
0.281144
0.275915
0.282013
0.291928
0.300544
0.306498
0.309765
0.310764
0.309999
0.307919
0.304886
0.301179
0.297011
0.292555
0.287957
0.283316
0.278574
0.273603
0.269041
0.26707
0.228144
0.224422
0.232782
0.245538
0.25716
0.266007
0.271942
0.275362
0.276786
0.276688
0.275454
0.273388
0.270725
0.267658
0.264355
0.260934
0.257343
0.253423
0.249852
0.24916
0.17312
0.170934
0.181571
0.197208
0.211905
0.223724
0.232409
0.238327
0.242008
0.243951
0.244567
0.244186
0.243066
0.24142
0.23944
0.237268
0.234862
0.232032
0.229486
0.230137
0.116487
0.115852
0.128752
0.147275
0.165081
0.179923
0.191412
0.199879
0.205864
0.209885
0.212382
0.213708
0.214143
0.213922
0.21326
0.21233
0.211102
0.209361
0.207845
0.209918
0.058679
0.0595928
0.074712
0.0960885
0.117003
0.134888
0.14921
0.160256
0.168567
0.174685
0.17907
0.182099
0.184076
0.185256
0.185881
0.186153
0.186055
0.185337
0.184794
0.188347
0.000141567
0.00258752
0.0198511
0.044014
0.0680005
0.0889197
0.106076
0.119706
0.130349
0.13856
0.144823
0.149534
0.153013
0.15553
0.157351
0.158703
0.159555
0.159584
0.159729
0.164877
-0.0586705
-0.0547233
-0.0354187
-0.00857307
0.018416
0.0423287
0.0622981
0.0784976
0.0914555
0.10174
0.109851
0.116199
0.121114
0.124873
0.127755
0.130037
0.131693
0.132221
0.132523
0.138892
-0.117297
-0.111893
-0.0906789
-0.0612888
-0.0314003
-0.00456217
0.0181756
0.0369124
0.0521598
0.0644928
0.0744244
0.0823785
0.0886911
0.0936321
0.0974695
0.100497
0.102688
0.103047
0.101333
0.105811
-0.175274
-0.168474
-0.145507
-0.113744
-0.0810918
-0.0514232
-0.0259824
-0.00475481
0.0127461
0.027096
0.0388153
0.0483311
0.0559722
0.0619772
0.0665378
0.0698304
0.0717819
0.0715964
0.06863
0.0653652
-0.232155
-0.224024
-0.199483
-0.165551
-0.130301
-0.0979228
-0.069863
-0.046203
-0.026488
-0.0101445
0.00335595
0.0144503
0.0234774
0.0306836
0.0362536
0.0403524
0.04304
0.0440118
0.0428326
0.0403223
-0.28749
-0.278109
-0.252195
-0.216324
-0.178675
-0.143733
-0.113157
-0.0871334
-0.0652454
-0.046922
-0.0316212
-0.0188849
-0.00834515
0.000283494
0.00722561
0.0126814
0.0168293
0.0197357
0.0212554
0.021086
-0.340851
-0.330308
-0.303239
-0.265692
-0.22587
-0.188538
-0.155569
-0.127266
-0.103258
-0.0829786
-0.0658719
-0.0514572
-0.0393372
-0.0291903
-0.0207569
-0.0138142
-0.00813821
-0.00349922
0.000128009
0.00206025
-0.391831
-0.380223
-0.352234
-0.313296
-0.271558
-0.232037
-0.196825
-0.166349
-0.140295
-0.118108
-0.0992237
-0.083142
-0.0694435
-0.0577818
-0.0478733
-0.0394791
-0.0323552
-0.0262135
-0.020983
-0.0174803
-0.440055
-0.427483
-0.398818
-0.358798
-0.315433
-0.273954
-0.236673
-0.204157
-0.176156
-0.152136
-0.13153
-0.113826
-0.0985872
-0.0854489
-0.0741107
-0.0643202
-0.0558186
-0.0482935
-0.0416881
-0.0369589
-0.485178
-0.471749
-0.442659
-0.401886
-0.357208
-0.314033
-0.274887
-0.240487
-0.21066
-0.184905
-0.162659
-0.143401
-0.126683
-0.112128
-0.0994232
-0.088307
-0.0785118
-0.0697089
-0.0618503
-0.0560153
-0.526899
-0.51272
-0.48346
-0.442276
-0.396623
-0.352041
-0.311261
-0.275158
-0.243652
-0.216281
-0.192496
-0.171775
-0.153661
-0.13777
-0.123781
-0.111427
-0.100437
-0.0904701
-0.0814669
-0.0745684
-0.56496
-0.550138
-0.520958
-0.479713
-0.433447
-0.387771
-0.345614
-0.308013
-0.274993
-0.246147
-0.220944
-0.198867
-0.179459
-0.162329
-0.147152
-0.133657
-0.121573
-0.110555
-0.100519
-0.0926144
-0.59915
-0.58379
-0.554931
-0.513979
-0.467474
-0.421043
-0.377788
-0.338916
-0.304569
-0.274403
-0.247918
-0.224608
-0.204019
-0.185757
-0.169495
-0.15496
-0.141883
-0.12992
-0.118961
-0.110129
-0.62931
-0.613515
-0.585204
-0.54489
-0.498531
-0.4517
-0.407648
-0.367752
-0.33228
-0.300965
-0.273346
-0.248936
-0.227287
-0.208007
-0.190767
-0.175294
-0.161323
-0.148515
-0.136736
-0.127057
-0.655338
-0.639203
-0.611646
-0.572305
-0.526478
-0.479615
-0.435083
-0.394425
-0.358045
-0.325764
-0.29717
-0.271799
-0.249216
-0.229035
-0.210926
-0.194617
-0.17985
-0.166292
-0.153784
-0.143335
-0.677183
-0.660799
-0.634178
-0.596121
-0.551206
-0.504686
-0.460005
-0.418862
-0.381803
-0.348747
-0.319342
-0.293156
-0.269769
-0.248805
-0.229936
-0.212893
-0.197423
-0.183204
-0.170054
-0.158904
-0.694852
-0.678305
-0.652772
-0.616281
-0.572645
-0.526843
-0.482351
-0.44101
-0.403509
-0.369878
-0.339831
-0.312977
-0.288918
-0.267288
-0.247767
-0.230089
-0.214007
-0.199213
-0.185502
-0.173719
-0.708409
-0.691777
-0.667453
-0.632773
-0.590757
-0.546042
-0.502081
-0.460835
-0.423138
-0.389135
-0.358619
-0.331246
-0.306645
-0.284467
-0.264401
-0.246183
-0.229577
-0.214289
-0.200095
-0.187747
-0.717971
-0.701327
-0.678299
-0.645631
-0.605546
-0.56227
-0.519179
-0.478325
-0.440681
-0.406514
-0.375702
-0.347959
-0.322947
-0.300335
-0.279826
-0.261163
-0.244118
-0.228412
-0.213811
-0.200965
-0.723706
-0.70712
-0.685439
-0.654936
-0.617051
-0.575545
-0.533655
-0.493489
-0.456149
-0.422026
-0.391094
-0.363128
-0.337831
-0.314899
-0.294047
-0.275028
-0.257623
-0.241572
-0.226633
-0.213356
-0.725831
-0.709369
-0.689054
-0.660815
-0.625353
-0.585915
-0.54554
-0.506354
-0.469569
-0.435699
-0.404819
-0.376776
-0.35132
-0.328174
-0.307075
-0.287786
-0.270099
-0.253771
-0.23856
-0.224914
-0.724606
-0.708332
-0.689371
-0.663442
-0.630569
-0.593458
-0.554893
-0.516968
-0.480985
-0.447575
-0.41692
-0.388942
-0.363447
-0.340192
-0.318936
-0.299458
-0.281559
-0.265018
-0.249595
-0.235642
-0.720326
-0.704304
-0.686658
-0.663032
-0.632856
-0.598285
-0.561791
-0.525396
-0.490456
-0.457711
-0.427449
-0.399677
-0.374258
-0.350993
-0.329667
-0.310074
-0.29203
-0.275334
-0.259754
-0.24555
-0.713317
-0.697612
-0.68122
-0.659838
-0.632406
-0.600532
-0.566339
-0.531719
-0.498054
-0.466175
-0.436472
-0.409042
-0.383812
-0.360631
-0.339313
-0.319676
-0.301548
-0.284749
-0.269062
-0.25466
-0.703929
-0.688605
-0.673391
-0.65415
-0.629445
-0.600367
-0.56866
-0.536037
-0.503865
-0.473046
-0.444065
-0.417109
-0.392177
-0.369168
-0.347934
-0.328315
-0.310159
-0.293303
-0.277552
-0.263
-0.692524
-0.677646
-0.663523
-0.646284
-0.62423
-0.597985
-0.568899
-0.538463
-0.507986
-0.478412
-0.450312
-0.42396
-0.39943
-0.376677
-0.355595
-0.336052
-0.317915
-0.301044
-0.285266
-0.270606
-0.679465
-0.6651
-0.651979
-0.636574
-0.617041
-0.593605
-0.56722
-0.539123
-0.510522
-0.48237
-0.455305
-0.429683
-0.405655
-0.383238
-0.362371
-0.342955
-0.32488
-0.308027
-0.292251
-0.277519
-0.665117
-0.651328
-0.639123
-0.625366
-0.60818
-0.587465
-0.563805
-0.538157
-0.511586
-0.485018
-0.459136
-0.434369
-0.410943
-0.388938
-0.368345
-0.349101
-0.331123
-0.314315
-0.298563
-0.283788
-0.649829
-0.636678
-0.625309
-0.613008
-0.597959
-0.579823
-0.558852
-0.535715
-0.511297
-0.486461
-0.461904
-0.438114
-0.415387
-0.393868
-0.373603
-0.354571
-0.336718
-0.319976
-0.304261
-0.289464
-0.633932
-0.621477
-0.610874
-0.599838
-0.586692
-0.570947
-0.552573
-0.531957
-0.50978
-0.486802
-0.463704
-0.441012
-0.419081
-0.398122
-0.378237
-0.359452
-0.341748
-0.325084
-0.309411
-0.294603
-0.61773
-0.606022
-0.596126
-0.586176
-0.574691
-0.56111
-0.545188
-0.527052
-0.507163
-0.486146
-0.464631
-0.443154
-0.422119
-0.401795
-0.382342
-0.363837
-0.346298
-0.329717
-0.314081
-0.299262
-0.601498
-0.590581
-0.581344
-0.572317
-0.562251
-0.550583
-0.536923
-0.521176
-0.503579
-0.484597
-0.464774
-0.444629
-0.424591
-0.404981
-0.386014
-0.367818
-0.350458
-0.333958
-0.318345
-0.303505
-0.585475
-0.575383
-0.56677
-0.558523
-0.549644
-0.539629
-0.528006
-0.514507
-0.499164
-0.482258
-0.46422
-0.445517
-0.426582
-0.40777
-0.389346
-0.371493
-0.354321
-0.337894
-0.322281
-0.307395
-0.569868
-0.560623
-0.552604
-0.545017
-0.537115
-0.528491
-0.518659
-0.50723
-0.494055
-0.479233
-0.463051
-0.445894
-0.428169
-0.410247
-0.392433
-0.374958
-0.357984
-0.341618
-0.32597
-0.311002
-0.554847
-0.546459
-0.539011
-0.531983
-0.524871
-0.517391
-0.509093
-0.499526
-0.488395
-0.475626
-0.461346
-0.445829
-0.429423
-0.412491
-0.395362
-0.37831
-0.361547
-0.345226
-0.329502
-0.314397
-0.540553
-0.53302
-0.526119
-0.519567
-0.513083
-0.50652
-0.499505
-0.491573
-0.48233
-0.471546
-0.459185
-0.445385
-0.430407
-0.414574
-0.398219
-0.381646
-0.365113
-0.348822
-0.332975
-0.317665
-0.527105
-0.520405
-0.514023
-0.507877
-0.501887
-0.496043
-0.490074
-0.483545
-0.476008
-0.467108
-0.456652
-0.444627
-0.431178
-0.41656
-0.40108
-0.385058
-0.368787
-0.352518
-0.336496
-0.320899
-0.514603
-0.508694
-0.502798
-0.496996
-0.491388
-0.486094
-0.480958
-0.47561
-0.469584
-0.462438
-0.453839
-0.443621
-0.431791
-0.418504
-0.404017
-0.388637
-0.37268
-0.356437
-0.340197
-0.324229
-0.503135
-0.497955
-0.492499
-0.486988
-0.481671
-0.47679
-0.472306
-0.467932
-0.463221
-0.457677
-0.450857
-0.442445
-0.432303
-0.420461
-0.407092
-0.392466
-0.376897
-0.360704
-0.344211
-0.327779
-0.492784
-0.488244
-0.483174
-0.477905
-0.47281
-0.468237
-0.464258
-0.460677
-0.457092
-0.452987
-0.447835
-0.441196
-0.43278
-0.422481
-0.41036
-0.396618
-0.381543
-0.365463
-0.348729
-0.331805
-0.483619
-0.479605
-0.474863
-0.469797
-0.464878
-0.460541
-0.456957
-0.454021
-0.451389
-0.448552
-0.444935
-0.439995
-0.433306
-0.424618
-0.413865
-0.401147
-0.386697
-0.370819
-0.353873
-0.336418
-0.475687
-0.472062
-0.467588
-0.462704
-0.457943
-0.453807
-0.45055
-0.448149
-0.446322
-0.444589
-0.442351
-0.438996
-0.433987
-0.426937
-0.417644
-0.406095
-0.392437
-0.376929
-0.359941
-0.342207
-0.468994
-0.465608
-0.461351
-0.456648
-0.45206
-0.448134
-0.445184
-0.443252
-0.442116
-0.441333
-0.440308
-0.438388
-0.434956
-0.42951
-0.421719
-0.411448
-0.398735
-0.38373
-0.366629
-0.348761
-0.463484
-0.460186
-0.456107
-0.451614
-0.447254
-0.443592
-0.440981
-0.439504
-0.438987
-0.439025
-0.439046
-0.438384
-0.436373
-0.432429
-0.426115
-0.417194
-0.405637
-0.391599
-0.375259
-0.357753
-0.459024
-0.455677
-0.45176
-0.447533
-0.443491
-0.440197
-0.438008
-0.437028
-0.437108
-0.437878
-0.438792
-0.439197
-0.438407
-0.435785
-0.430822
-0.423192
-0.412797
-0.399799
-0.384427
-0.366572
-0.455397
-0.451901
-0.448152
-0.44427
-0.440671
-0.437885
-0.436249
-0.435855
-0.436563
-0.43802
-0.439708
-0.440994
-0.441196
-0.439655
-0.435801
-0.429221
-0.419699
-0.407255
-0.391994
-0.373525
-0.45231
-0.448616
-0.445068
-0.44163
-0.438616
-0.436503
-0.435579
-0.4359
-0.437306
-0.439449
-0.441829
-0.443838
-0.444812
-0.444086
-0.441058
-0.435243
-0.42632
-0.414167
-0.398736
-0.379857
-0.449414
-0.445538
-0.442252
-0.439367
-0.437084
-0.43581
-0.435763
-0.436937
-0.439135
-0.441994
-0.445022
-0.447633
-0.449187
-0.449035
-0.446569
-0.441268
-0.432749
-0.420798
-0.405215
-0.386188
-0.446328
-0.44236
-0.439423
-0.437198
-0.43578
-0.43549
-0.43646
-0.438608
-0.441684
-0.445296
-0.448948
-0.452071
-0.454052
-0.45427
-0.452132
-0.447115
-0.438812
-0.426954
-0.411232
-0.39224
-0.44267
-0.438772
-0.436291
-0.434824
-0.434372
-0.435169
-0.437248
-0.440446
-0.444447
-0.448826
-0.453074
-0.456633
-0.458915
-0.45933
-0.457314
-0.452363
-0.444079
-0.432167
-0.41628
-0.397431
-0.438091
-0.434487
-0.43258
-0.431942
-0.432514
-0.434437
-0.43765
-0.441902
-0.446818
-0.451931
-0.45672
-0.46063
-0.463095
-0.463555
-0.461481
-0.456403
-0.447948
-0.435826
-0.419732
-0.401067
-0.432301
-0.429255
-0.428038
-0.428269
-0.429867
-0.432887
-0.437178
-0.442412
-0.448156
-0.453911
-0.459138
-0.463287
-0.465807
-0.466168
-0.463874
-0.458497
-0.449703
-0.437231
-0.420896
-0.402407
-0.425105
-0.422899
-0.422471
-0.423569
-0.426137
-0.430155
-0.435392
-0.441459
-0.447876
-0.454114
-0.459624
-0.463858
-0.466282
-0.46639
-0.463724
-0.457897
-0.448626
-0.435707
-0.419134
-0.400811
-0.416429
-0.415333
-0.415763
-0.417686
-0.421117
-0.425976
-0.43197
-0.438661
-0.445536
-0.452045
-0.457635
-0.461763
-0.463911
-0.463601
-0.460412
-0.454009
-0.444168
-0.430775
-0.414041
-0.395916
-0.40635
-0.406594