/*--------------------------------*- C++ -*----------------------------------*\
  =========                 |
  \\      /  F ield         | OpenFOAM: The Open Source CFD Toolbox
   \\    /   O peration     | Website:  https://openfoam.org
    \\  /    A nd           | Version:  6.0
     \\/     M anipulation  |
\*---------------------------------------------------------------------------*/
FoamFile
{
    version     2.0;
    format      ascii;
    class       volVectorField;
    location    "2";
    object      U;
}
// * * * * * * * * * * * * * * * * * * * * * * * * * * * * * * * * * * * * * //

dimensions      [0 1 -1 0 0 0 0];

internalField   nonuniform List<vector> 
12500
(
(-0.00402844 0.0045439 -1.07251e-21)
(-0.0203568 0.0103558 1.5499e-20)
(-0.0487571 0.0138409 -2.28956e-20)
(-0.0819 0.0157509 1.07095e-20)
(-0.116341 0.0165803 6.92694e-22)
(-0.150372 0.0166646 -1.31146e-21)
(-0.182839 0.0162276 -2.04617e-20)
(-0.213002 0.0154093 1.13432e-20)
(-0.240394 0.0142929 7.62829e-21)
(-0.264699 0.0129262 7.82891e-21)
(-0.285689 0.0113378 -1.35249e-20)
(-0.303195 0.00954803 7.90745e-21)
(-0.317091 0.00757717 -3.75369e-21)
(-0.327297 0.00545 6.38824e-21)
(-0.33378 0.0031988 -1.62331e-20)
(-0.336568 0.000864949 2.32189e-20)
(-0.33575 -0.00150077 -4.47408e-21)
(-0.331494 -0.00383903 -1.61682e-20)
(-0.324042 -0.00608424 8.20392e-21)
(-0.313714 -0.00816835 -7.55062e-21)
(-0.300875 -0.0100262 6.61825e-21)
(-0.285964 -0.0116033 8.30393e-21)
(-0.269697 -0.0128652 5.70003e-22)
(-0.252945 -0.0138 -2.29388e-20)
(-0.234548 -0.0143977 1.27965e-20)
(-0.00444332 0.0131595 1.97024e-20)
(-0.0210085 0.030015 -5.31423e-20)
(-0.0491155 0.0401433 1.59294e-20)
(-0.0817394 0.0457086 1.09049e-20)
(-0.115569 0.0481333 -8.64687e-21)
(-0.148953 0.0483862 -5.08359e-20)
(-0.180769 0.047115 1.51313e-20)
(-0.210294 0.0447285 -2.97452e-20)
(-0.237068 0.0414712 3.58055e-20)
(-0.260783 0.0374851 -4.82095e-20)
(-0.281219 0.0328549 2.61525e-20)
(-0.298211 0.0276415 8.67375e-21)
(-0.311642 0.0219033 -2.15436e-20)
(-0.321435 0.0157107 -9.4436e-21)
(-0.327562 0.00915534 6.98095e-20)
(-0.330045 0.00235416 -6.13711e-20)
(-0.328972 -0.00454833 1.48969e-20)
(-0.324496 -0.0113823 2.51946e-20)
(-0.316849 -0.0179583 -4.98348e-21)
(-0.306333 -0.0240772 3.81963e-20)
(-0.293299 -0.0295456 6.03915e-21)
(-0.278174 -0.0341973 -3.87055e-21)
(-0.261664 -0.0379218 -4.57077e-20)
(-0.244649 -0.0406752 3.87814e-20)
(-0.226033 -0.0424187 -8.0697e-20)
(-0.00524192 0.0213419 6.38192e-20)
(-0.0222645 0.0488288 2.23634e-20)
(-0.0497988 0.0654719 -2.98412e-20)
(-0.0814072 0.0747076 1.32161e-20)
(-0.114036 0.07881 1.21706e-20)
(-0.146145 0.0793408 4.7549e-20)
(-0.176675 0.0773534 -6.12711e-20)
(-0.204934 0.0735194 -1.03784e-20)
(-0.23048 0.0682456 -4.253e-20)
(-0.253019 0.0617705 -3.6046e-20)
(-0.272343 0.054238 4.63974e-20)
(-0.288301 0.0457496 -1.57921e-19)
(-0.300786 0.0364003 -5.4338e-21)
(-0.309733 0.0263012 -9.58916e-20)
(-0.315118 0.0155952 -1.1141e-20)
(-0.316963 0.00446488 1.34622e-20)
(-0.315345 -0.00686311 -7.33627e-20)
(-0.3104 -0.0181197 -4.51932e-20)
(-0.302334 -0.029 -5.20935e-20)
(-0.29142 -0.0391775 8.06575e-20)
(-0.277981 -0.048326 2.67406e-20)
(-0.262421 -0.0561543 -1.26512e-19)
(-0.245423 -0.0624539 -5.73176e-20)
(-0.227885 -0.0671225 -6.09648e-20)
(-0.208833 -0.0700721 1.78136e-19)
(-0.00637195 0.0288291 -1.02612e-21)
(-0.0240486 0.0662759 -5.12974e-20)
(-0.0507594 0.0892152 -2.66206e-20)
(-0.0808975 0.102136 1.60346e-20)
(-0.111776 0.108041 1.00752e-19)
(-0.142019 0.109022 -4.60426e-20)
(-0.170657 0.106506 9.96984e-20)
(-0.197046 0.101417 9.71746e-20)
(-0.220771 0.0943239 5.98728e-20)
(-0.241555 0.0855671 -9.57744e-22)
(-0.259208 0.0753529 1.23901e-19)
(-0.273598 0.0638255 2.19588e-20)
(-0.284636 0.0511138 9.64444e-20)
(-0.29227 0.0373634 2.23207e-19)
(-0.296486 0.0227574 -2.58689e-19)
(-0.297306 0.00752917 3.88294e-19)
(-0.294797 -0.00803039 8.23168e-20)
(-0.289075 -0.0235711 -1.8471e-19)
(-0.280313 -0.0386885 -2.37942e-20)
(-0.268748 -0.0529372 6.4309e-20)
(-0.254664 -0.0658557 -3.10781e-20)
(-0.23843 -0.0770103 -1.74467e-20)
(-0.220693 -0.0860609 -1.60601e-20)
(-0.20237 -0.0928038 -6.56229e-20)
(-0.182671 -0.0970636 2.47557e-19)
(-0.00776055 0.0353961 3.46614e-20)
(-0.0262535 0.0818933 -1.66537e-19)
(-0.0519304 0.110814 2.05534e-19)
(-0.0802042 0.127418 -8.28836e-20)
(-0.108845 0.135279 1.01081e-19)
(-0.136685 0.13693 8.48464e-20)
(-0.162871 0.13413 3.30263e-20)
(-0.186823 0.128038 2.93004e-21)
(-0.208159 0.119386 1.89046e-19)
(-0.226628 0.108617 1.33914e-19)
(-0.242061 0.0960081 -5.29889e-20)
(-0.254346 0.081748 -3.54425e-20)
(-0.263416 0.0659987 1.49708e-19)
(-0.269237 0.0489343 2.79638e-20)
(-0.271807 0.0307661 7.8454e-20)
(-0.271156 0.0117611 1.83932e-19)
(-0.267344 -0.00774694 -1.55742e-19)
(-0.260469 -0.0273508 1.22543e-19)
(-0.250673 -0.0465694 -2.67308e-19)
(-0.23815 -0.0648554 2.1923e-19)
(-0.223144 -0.081617 5.62883e-22)
(-0.205977 -0.0962631 -1.67221e-19)
(-0.187247 -0.108283 6.58027e-20)
(-0.167887 -0.117315 1.42231e-19)
(-0.147349 -0.123036 -2.14263e-19)
(-0.00931987 0.0408663 1.822e-19)
(-0.0287484 0.0952968 -2.02474e-19)
(-0.0532309 0.129783 -3.14175e-20)
(-0.0793241 0.150034 4.31564e-20)
(-0.105319 0.160011 -9.18317e-20)
(-0.130291 0.162582 -1.44759e-19)
(-0.153528 0.159782 -1.24169e-19)
(-0.174528 0.152986 -3.07715e-20)
(-0.192954 0.143078 -2.1776e-19)
(-0.208582 0.130615 1.79573e-19)
(-0.221267 0.115945 -2.78402e-19)
(-0.230921 0.0993086 1.43671e-19)
(-0.2375 0.0809018 -4.5704e-20)
(-0.240991 0.060922 1.11082e-19)
(-0.24141 0.0395996 -2.80874e-19)
(-0.238798 0.0172189 1.39425e-19)
(-0.233215 -0.0058655 1.19163e-20)
(-0.224749 -0.0292161 6.08103e-20)
(-0.213518 -0.0523044 3.56228e-19)
(-0.199679 -0.0745082 7.69829e-20)
(-0.183435 -0.0951223 -8.57835e-21)
(-0.165058 -0.113395 2.11874e-20)
(-0.145085 -0.128612 1.35418e-19)
(-0.124452 -0.140184 3.85463e-20)
(-0.102913 -0.147563 1.21559e-19)
(-0.0109539 0.0451198 -1.1314e-19)
(-0.0313878 0.106197 1.68713e-19)
(-0.0545713 0.145726 1.13168e-20)
(-0.0782572 0.169534 -2.13173e-19)
(-0.101293 0.181769 4.5755e-19)
(-0.12302 0.185517 -1.4919e-19)
(-0.142891 0.183025 2.22674e-19)
(-0.160496 0.175849 2.07579e-19)
(-0.175551 0.165021 -1.71896e-19)
(-0.187866 0.151207 -2.57447e-19)
(-0.197322 0.13484 7.11022e-20)
(-0.203855 0.116213 -7.66668e-20)
(-0.207445 0.0955593 -3.41714e-19)
(-0.208102 0.0731002 4.21993e-19)
(-0.205864 0.0490781 -2.03205e-19)
(-0.200786 0.0237828 -1.39034e-19)
(-0.19294 -0.0024289 4.65789e-21)
(-0.18241 -0.029115 1.1693e-19)
(-0.169301 -0.0557313 4.43699e-20)
(-0.153747 -0.0816161 -1.76856e-19)
(-0.135915 -0.105982 2.01005e-19)
(-0.116033 -0.127934 -3.33902e-19)
(-0.094571 -0.146534 2.04167e-19)
(-0.072451 -0.160902 -1.42266e-19)
(-0.0497808 -0.170169 4.96904e-20)
(-0.012566 0.0480979 1.73057e-19)
(-0.0340215 0.114413 -1.38642e-19)
(-0.0558597 0.158356 -8.88413e-20)
(-0.0770093 0.185555 -1.59339e-19)
(-0.0968776 0.200148 -2.93162e-19)
(-0.115088 0.205314 -2.19404e-19)
(-0.131273 0.203436 1.40533e-19)
(-0.145128 0.196214 -2.16718e-19)
(-0.156432 0.184813 2.78444e-19)
(-0.165035 0.170008 -4.6008e-19)
(-0.170848 0.152316 2.08151e-19)
(-0.173833 0.132092 4.4605e-19)
(-0.173993 0.109612 -6.3331e-19)
(-0.171362 0.0851205 9.13886e-20)
(-0.166 0.0588722 1.20475e-19)
(-0.157981 0.0311555 1.14077e-19)
(-0.147393 0.00231691 -1.2267e-19)
(-0.134328 -0.0272172 -2.92731e-20)
(-0.118892 -0.0569161 -9.39255e-20)
(-0.101204 -0.0861164 -7.26187e-20)
(-0.0814137 -0.113993 -3.95298e-19)
(-0.0597174 -0.139542 -2.48704e-20)
(-0.0365159 -0.161614 4.14204e-21)
(-0.0127048 -0.178994 -1.62802e-19)
(0.0112103 -0.190385 1.69993e-19)
(-0.014066 0.0498039 6.71325e-21)
(-0.0365056 0.119876 5.70459e-20)
(-0.0570082 0.167506 6.11246e-20)
(-0.0755926 0.19784 3.3546e-20)
(-0.0922002 0.214822 3.02255e-19)
(-0.106737 0.221603 2.90481e-19)
(-0.119022 0.220623 -2.37323e-19)
(-0.128874 0.21368 -7.55327e-20)
(-0.136144 0.202049 -6.72744e-20)
(-0.140729 0.186609 3.50831e-19)
(-0.142576 0.16796 1.30971e-19)
(-0.141672 0.146526 -1.86736e-19)
(-0.138045 0.122628 -1.63384e-19)
(-0.131752 0.0965415 3.94751e-19)
(-0.122876 0.0685324 -9.83054e-20)
(-0.11151 0.0388882 -1.20984e-19)
(-0.0977612 0.0079399 -1.6691e-19)
(-0.0817372 -0.0239134 -1.30788e-19)
(-0.0635514 -0.0561755 -1.6502e-19)
(-0.0433269 -0.0882145 -1.03063e-19)
(-0.0212068 -0.119214 4.29218e-19)
(0.00262609 -0.148117 -2.11057e-19)
(0.0278256 -0.173603 1.39639e-19)
(0.0535377 -0.194111 -3.50218e-19)
(0.0788226 -0.207827 1.47565e-19)
(-0.015377 0.0502992 -1.60465e-19)
(-0.0387118 0.122633 -4.47822e-20)
(-0.057939 0.173133 -3.43035e-19)
(-0.0740253 0.206244 -1.67722e-19)
(-0.0873929 0.225559 -3.32258e-19)
(-0.0982163 0.234085 -3.59012e-20)
(-0.106508 0.23424 1.82911e-19)
(-0.112216 0.227871 -1.14566e-19)
(-0.115276 0.216334 2.49359e-19)
(-0.115642 0.200598 -6.15488e-19)
(-0.113301 0.181346 -2.08954e-20)
(-0.10827 0.159069 1.12239e-19)
(-0.100603 0.13414 -1.43872e-19)
(-0.0903792 0.106866 1.33895e-19)
(-0.0776997 0.0775322 -1.03659e-19)
(-0.0626797 0.0464274 -2.23538e-19)
(-0.0454421 0.0138684 4.06151e-19)
(-0.0261132 -0.0197757 2.50175e-19)
(-0.00482066 -0.0540529 -5.50162e-20)
(0.0183014 -0.0883849 1.61305e-19)
(0.0431009 -0.122003 -3.18351e-19)
(0.0693904 -0.15386 4.42645e-19)
(0.0968582 -0.182527 -5.98212e-19)
(0.124701 -0.206129 1.19832e-19)
(0.151521 -0.222289 -2.13635e-19)
(-0.0164405 0.0496964 9.20786e-21)
(-0.0405366 0.122837 -1.55008e-19)
(-0.0585897 0.175326 2.24994e-19)
(-0.072331 0.210753 4.66698e-19)
(-0.0825874 0.232238 -8.93804e-21)
(-0.0897765 0.242551 5.39274e-20)
(-0.0940989 0.244011 -2.09789e-19)
(-0.095638 0.23846 9.61956e-20)
(-0.0944255 0.227305 6.95408e-19)
(-0.090482 0.211584 -1.58234e-19)
(-0.0838396 0.192055 -1.94875e-19)
(-0.0745524 0.169275 7.38474e-19)
(-0.0626994 0.143667 2.48343e-19)
(-0.0483819 0.115578 1.19686e-19)
(-0.0317189 0.0853137 1.23783e-19)
(-0.0128418 0.0531699 3.34929e-19)
(0.00811114 0.0194544 -1.27678e-19)
(0.0309981 -0.0154887 3.4443e-19)
(0.0556756 -0.0512508 4.6016e-19)
(0.0819936 -0.087315 -3.84995e-19)
(0.109782 -0.122985 5.65062e-19)
(0.138833 -0.157273 1.93119e-19)
(0.168844 -0.188721 -7.31551e-19)
(0.199068 -0.215209 1.04072e-18)
(0.227647 -0.233796 -8.29188e-19)
(-0.0172197 0.0481486 -4.27521e-19)
(-0.0419079 0.120737 2.36758e-19)
(-0.0589179 0.174296 -1.61137e-19)
(-0.0705372 0.211479 -1.52545e-19)
(-0.0779055 0.234861 -1.6931e-19)
(-0.0816467 0.246896 -1.85464e-19)
(-0.0821368 0.249741 4.88415e-20)
(-0.0795964 0.245185 4.96425e-19)
(-0.0741595 0.234646 -1.03587e-19)
(-0.0659215 0.21921 -2.83299e-19)
(-0.054969 0.199695 -1.77364e-19)
(-0.0413958 0.176716 -7.32819e-20)
(-0.0253094 0.150748 2.25318e-19)
(-0.00683195 0.122175 -1.42348e-19)
(0.0139019 0.0913272 -4.73713e-19)
(0.0367485 0.0585129 -5.28074e-19)
(0.0615582 0.0240377 2.11908e-19)
(0.0881771 -0.0117711 -3.92472e-19)
(0.116447 -0.0485395 3.40626e-19)
(0.146201 -0.0858058 -9.57221e-19)
(0.177244 -0.122953 7.23818e-19)
(0.209335 -0.159083 -9.40161e-19)
(0.242158 -0.192784 -8.28818e-21)
(0.275023 -0.221773 -2.88421e-19)
(0.305638 -0.242608 8.68869e-19)
(-0.0177015 0.0458373 6.59099e-19)
(-0.0427893 0.116659 1.00417e-19)
(-0.0589037 0.170363 -6.70292e-20)
(-0.0686732 0.208663 -2.7533e-20)
(-0.07345 0.233556 5.26369e-19)
(-0.0740198 0.247135 1.74976e-19)
(-0.070913 0.251345 1.61468e-19)
(-0.0644827 0.247875 -1.2914e-19)
(-0.0549682 0.238118 5.09289e-19)
(-0.0425462 0.223182 -2.54894e-19)
(-0.0273636 0.203925 1.62855e-19)
(-0.00955772 0.181012 4.29581e-19)
(0.0107336 0.154961 -2.47652e-19)
(0.033368 0.126192 2.72404e-19)
(0.0581978 0.0950619 2.59857e-19)
(0.0850704 0.0618933 8.94303e-20)
(0.113829 0.0269967 -2.22302e-19)
(0.144309 -0.00930807 6.16978e-19)
(0.17634 -0.0466679 -5.6443e-20)
(0.209732 -0.0846625 -5.99072e-20)
(0.244264 -0.122744 7.25477e-19)
(0.279648 -0.160115 -5.00988e-19)
(0.315529 -0.195457 8.36681e-19)
(0.351278 -0.226422 -6.66746e-19)
(0.384233 -0.249151 8.60645e-19)
(-0.0178961 0.0429593 -3.23467e-19)
(-0.0431816 0.110981 7.43432e-20)
(-0.0585512 0.163936 -7.8727e-20)
(-0.0667676 0.202659 -3.66153e-19)
(-0.0692961 0.228581 2.14255e-20)
(-0.0670344 0.243414 2.13676e-19)
(-0.0606407 0.248859 -8.75433e-19)
(-0.0505891 0.246468 6.62728e-19)
(-0.037222 0.237578 -6.52129e-19)
(-0.0207992 0.223288 -4.19874e-19)
(-0.00153115 0.204479 3.80985e-19)
(0.0203992 0.181847 -8.42938e-19)
(0.0448234 0.155946 7.17417e-19)
(0.0715798 0.127227 -2.2931e-19)
(0.10051 0.0960717 -6.69413e-19)
(0.131454 0.0628185 1.67035e-19)
(0.164249 0.027788 -1.57429e-19)
(0.198722 -0.00869738 5.92165e-20)
(0.23468 -0.046292 -2.14057e-19)
(0.27191 -0.0845982 -7.01347e-19)
(0.310148 -0.123118 1.58684e-19)
(0.349051 -0.161144 2.2746e-21)
(0.388202 -0.197481 -6.83677e-19)
(0.427029 -0.229789 4.82769e-19)
(0.462606 -0.253901 -3.98324e-19)
(-0.0178345 0.0397136 1.32178e-19)
(-0.0431207 0.10411 2.51267e-19)
(-0.0578862 0.15549 3.50043e-19)
(-0.064845 0.193919 1.8195e-19)
(-0.0654826 0.22031 -1.79154e-19)
(-0.0607598 0.236006 4.30768e-19)
(-0.0514312 0.24245 3.2366e-19)
(-0.038074 0.241032 -1.1662e-19)
(-0.0211259 0.233003 4.31071e-19)
(-0.000926694 0.21943 -4.46885e-19)
(0.022251 0.201192 -1.3428e-19)
(0.0481796 0.179002 1.36362e-19)
(0.0766609 0.153437 2.74512e-19)
(0.107516 0.12497 3.41459e-21)
(0.140575 0.0940052 1.79303e-19)
(0.175673 0.060898 3.36157e-19)
(0.212634 0.0259832 -5.74715e-19)
(0.251268 -0.0104061 7.16492e-19)
(0.291355 -0.0479184 2.39768e-19)
(0.332636 -0.08616 8.04116e-20)
(0.374792 -0.124659 -8.58078e-19)
(0.417406 -0.16278 1.2418e-19)
(0.459975 -0.199455 1.84904e-19)
(0.501976 -0.232411 -3.74621e-20)
(0.540368 -0.257266 1.94994e-19)
(-0.0175646 0.0362895 1.0714e-20)
(-0.0426721 0.0964568 -6.46988e-19)
(-0.0569522 0.145531 -1.48995e-20)
(-0.0629203 0.18296 -1.64149e-19)
(-0.0620044 0.209218 -1.08373e-18)
(-0.0551823 0.225309 9.42538e-19)
(-0.0432719 0.232422 -6.75684e-19)
(-0.0269316 0.231775 -3.51801e-20)
(-0.00668019 0.224514 -3.2781e-19)
(0.0170715 0.211648 5.73426e-19)
(0.0439944 0.194036 -6.25091e-19)
(0.0738201 0.172388 -2.97484e-19)
(0.106323 0.147292 3.67348e-21)
(0.141308 0.119237 -6.63631e-19)
(0.178593 0.0886429 9.12024e-19)
(0.217996 0.0558829 -1.06965e-18)
(0.259324 0.0213094 1.47229e-21)
(0.30235 -0.014726 1.65228e-19)
(0.346804 -0.0518546 -4.14943e-19)
(0.39236 -0.089671 3.99904e-19)
(0.438618 -0.127708 -5.68769e-19)
(0.485067 -0.16538 -3.66419e-19)
(0.531096 -0.201738 6.71388e-19)
(0.576213 -0.234615 -7.20808e-19)
(0.617454 -0.259484 -1.06199e-20)
(-0.0171465 0.0328572 -5.33135e-19)
(-0.0419223 0.0884095 6.29688e-19)
(-0.0558016 0.134569 -1.94955e-19)
(-0.0609919 0.17034 3.75724e-19)
(-0.058804 0.195852 4.069e-19)
(-0.0501943 0.211822 -3.60738e-19)
(-0.0360112 0.219206 -2.41326e-19)
(-0.0169694 0.21905 -2.92649e-19)
(0.00635019 0.212382 2.69331e-19)
(0.0334793 0.200138 -2.01002e-20)
(0.064042 0.183137 4.02943e-19)
(0.0977353 0.162074 4.02576e-19)
(0.134309 0.137534 -4.91709e-19)
(0.173547 0.110013 9.72165e-19)
(0.215248 0.0799414 -6.54016e-19)
(0.259201 0.0477117 -1.12542e-19)
(0.305168 0.013697 1.29462e-18)
(0.352863 -0.0217267 -6.0284e-19)
(0.401934 -0.0581643 3.84108e-19)
(0.451955 -0.0951879 7.467e-19)
(0.502417 -0.13232 -4.84329e-19)
(0.552696 -0.169003 5.29552e-20)
(0.602059 -0.2044 -3.07859e-20)
(0.650025 -0.236475 -1.8182e-19)
(0.693914 -0.260595 3.44846e-19)
(-0.016646 0.0295593 1.22946e-19)
(-0.0409673 0.0803149 -3.98527e-19)
(-0.054485 0.123088 2.1973e-19)
(-0.0590326 0.156619 -2.80232e-21)
(-0.0557648 0.1808 1.65683e-19)
(-0.0455872 0.196121 -2.86087e-19)
(-0.0293498 0.20334 1.64412e-19)
(-0.0077969 0.20334 4.52599e-19)
(0.0184494 0.19703 -1.61524e-20)
(0.0488802 0.185263 -2.37173e-19)
(0.0830842 0.168805 2.39154e-19)
(0.120729 0.14832 -4.09679e-21)
(0.161539 0.124382 -7.83444e-19)
(0.205267 0.0974866 2.9038e-19)
(0.251674 0.0680741 6.34871e-20)
(0.300495 0.0365531 -1.15311e-19)
(0.351415 0.0033212 -2.12823e-19)
(0.404051 -0.0312168 8.07786e-19)
(0.457931 -0.0666353 1.948e-19)
(0.512496 -0.102478 -4.24272e-19)
(0.567102 -0.138252 -5.03784e-20)
(0.621 -0.173416 5.69239e-19)
(0.673337 -0.207232 -2.67654e-19)
(0.723624 -0.237823 1.08797e-19)
(0.769677 -0.260455 7.17053e-20)
(-0.0161277 0.0265058 -2.4477e-19)
(-0.0398997 0.0724607 2.50579e-19)
(-0.0530381 0.111518 -1.4121e-19)
(-0.0569795 0.142329 -4.54958e-19)
(-0.052705 0.164655 -4.1974e-19)
(-0.0410499 0.178826 -1.8547e-19)
(-0.0228418 0.18544 -1.55567e-19)
(0.00116943 0.185241 -4.61557e-19)
(0.0303421 0.179021 -1.89669e-19)
(0.0641427 0.167547 1.75498e-19)
(0.102134 0.151524 -2.50283e-19)
(0.143955 0.131579 -2.64612e-19)
(0.189293 0.108266 -2.53271e-19)
(0.237855 0.0820751 4.71139e-19)
(0.289332 0.0534542 -9.90432e-19)
(0.343365 0.0228291 5.76305e-19)
(0.399522 -0.00937768 -9.86453e-19)
(0.457278 -0.0427319 -1.5242e-19)
(0.516007 -0.0767776 -5.4646e-19)
(0.574988 -0.111034 -1.2545e-19)
(0.633428 -0.144994 -1.55021e-19)
(0.690458 -0.178132 -5.09244e-19)
(0.745126 -0.209804 -4.94014e-20)
(0.796931 -0.238313 2.98531e-19)
(0.844368 -0.258809 -7.42338e-19)
(-0.0156482 0.0237713 2.10915e-19)
(-0.038795 0.0650652 2.84147e-19)
(-0.0514685 0.100216 9.89912e-19)
(-0.0547253 0.127944 -1.74213e-19)
(-0.0493748 0.14798 4.15866e-19)
(-0.0361738 0.160559 9.9205e-19)
(-0.01591 0.166164 -2.71753e-19)
(0.0106809 0.165421 3.69571e-19)
(0.0429551 0.15902 2.15973e-19)
(0.0803655 0.147645 3.96673e-19)
(0.122451 0.131938 -7.94657e-20)
(0.168814 0.112485 5.50149e-20)
(0.219084 0.0898151 -1.48166e-19)
(0.272888 0.0644108 7.83405e-19)
(0.329804 0.0367262 9.9247e-20)
(0.389336 0.00720303 7.44111e-19)
(0.450887 -0.0237133 -1.92006e-19)
(0.513749 -0.055563 6.91136e-19)
(0.577113 -0.0878671 9.67807e-20)
(0.640087 -0.120129 3.49868e-19)
(0.701736 -0.151842 -1.4749e-19)
(0.761098 -0.182502 -2.0297e-20)
(0.817166 -0.211558 8.11787e-19)
(0.869439 -0.237517 4.81134e-19)
(0.917219 -0.255384 -1.95192e-19)
(-0.0152502 0.0213935 -5.07101e-19)
(-0.0376996 0.0582711 -5.28056e-19)
(-0.0497448 0.0894512 -5.52387e-19)
(-0.0521129 0.113859 2.0442e-19)
(-0.0454613 0.131278 -4.09179e-19)
(-0.0304695 0.141909 -6.09608e-20)
(-0.00787656 0.146163 -1.61672e-19)
(0.0216078 0.144578 -6.73885e-19)
(0.0573464 0.137756 -1.06922e-19)
(0.0987806 0.126306 1.74905e-19)
(0.145416 0.11081 -5.54993e-19)
(0.196794 0.0918127 7.76217e-19)
(0.252455 0.0698182 -1.06554e-18)
(0.311897 0.0453011 2.59808e-19)
(0.374541 0.0187186 -6.64487e-19)
(0.439699 -0.00947483 -5.46341e-19)
(0.506568 -0.0388171 -3.21228e-20)
(0.574233 -0.0688323 -8.32764e-20)
(0.641692 -0.0990323 6.60131e-20)
(0.707897 -0.128922 -3.15461e-19)
(0.771802 -0.158012 -2.15992e-19)
(0.832402 -0.185833 2.61959e-19)
(0.888698 -0.21193 -7.21254e-19)
(0.940221 -0.235033 2.31207e-19)
(0.987131 -0.249977 1.48745e-19)
(-0.014957 0.0193756 -8.93067e-20)
(-0.0366218 0.0521459 -1.52236e-19)
(-0.0477896 0.0794005 5.98576e-19)
(-0.0489362 0.100372 2.22198e-19)
(-0.0405995 0.114964 2.94328e-19)
(-0.0233934 0.123397 -3.94881e-19)
(0.00199003 0.126047 1.27808e-21)
(0.0348683 0.123391 -3.21405e-19)
(0.0746074 0.115964 5.97093e-19)
(0.120624 0.104309 1.97044e-19)
(0.172366 0.088956 2.25199e-19)
(0.229277 0.0704113 -8.90028e-19)
(0.290759 0.0491559 1.11249e-18)
(0.356132 0.025654 -3.33716e-19)
(0.424604 0.000363246 -2.41952e-19)
(0.495258 -0.0262564 7.34767e-19)
(0.567059 -0.0537365 3.31332e-19)
(0.63888 -0.0816004 -8.38722e-19)
(0.709545 -0.109369 -3.49205e-19)
(0.777888 -0.13657 1.05731e-18)
(0.842813 -0.16275 -7.99677e-19)
(0.903339 -0.187497 4.8107e-19)
(0.958552 -0.210455 2.60573e-19)
(1.00806 -0.230582 -3.35445e-19)
(1.05285 -0.242524 -3.0047e-19)
(-0.0147692 0.0176898 -3.28736e-19)
(-0.0355272 0.0466874 5.30386e-19)
(-0.0454797 0.0701479 2.25494e-19)
(-0.0449476 0.0876771 -3.27046e-19)
(-0.0343933 0.0993501 -5.29228e-20)
(-0.0143862 0.105447 -3.43575e-19)
(0.0144159 0.10634 -1.36829e-19)
(0.0513443 0.102474 1.54394e-19)
(0.0957492 0.0943311 -3.85903e-20)
(0.146993 0.0824048 2.94811e-19)
(0.204425 0.0671811 -2.58017e-19)
(0.267343 0.0491322 7.19413e-19)
(0.334954 0.0287172 -9.01609e-19)
(0.406348 0.00638836 5.65152e-19)
(0.480482 -0.0174028 7.11083e-19)
(0.556182 -0.0422007 -1.03478e-18)
(0.632183 -0.0675454 -3.15475e-19)
(0.707167 -0.0929776 5.35831e-19)
(0.779832 -0.118048 -3.28649e-19)
(0.848959 -0.142329 3.16406e-19)
(0.913476 -0.165427 -7.63554e-19)
(0.972498 -0.187003 1.29947e-19)
(1.02528 -0.206815 4.87186e-19)
(1.07161 -0.224014 -7.73833e-19)
(1.1131 -0.233072 2.07965e-19)
(-0.0146649 0.0162834 -3.03405e-19)
(-0.0343395 0.0418342 9.85943e-19)
(-0.0426515 0.0616936 1.88879e-19)
(-0.039873 0.0758701 -5.12992e-19)
(-0.0264422 0.0846394 3.68332e-19)
(-0.00291504 0.0883697 1.86727e-19)
(0.030059 0.0874585 2.98908e-19)
(0.0717967 0.0823357 -1.98136e-20)
(0.121596 0.0734516 -3.1189e-20)
(0.178721 0.0612611 -6.61195e-20)
(0.242368 0.0462146 -2.91994e-19)
(0.31163 0.0287554 -1.1803e-20)
(0.385469 0.00932106 6.90974e-19)
(0.462704 -0.0116528 -1.14627e-18)
(0.542015 -0.0337294 8.18765e-19)
(0.62198 -0.0564708 1.6757e-19)
(0.701125 -0.0794421 2.97647e-19)
(0.777998 -0.102219 -1.52184e-19)
(0.851238 -0.124402 1.3565e-18)
(0.919647 -0.145625 -8.35671e-19)
(0.982253 -0.165569 6.64522e-19)
(1.03833 -0.18399 1.52773e-19)
(1.08737 -0.200754 -4.78045e-19)
(1.12943 -0.2151 4.02673e-19)
(1.16638 -0.221688 5.93304e-19)
(-0.0146009 0.0150872 -8.82567e-20)
(-0.0329462 0.0374808 -3.48293e-19)
(-0.0391122 0.0539682 -5.96615e-19)
(-0.0334294 0.064955 -3.40229e-19)
(-0.0163695 0.0709282 -4.79197e-20)
(0.0114856 0.0723619 -1.35202e-19)
(0.0494553 0.0696962 -6.24417e-19)
(0.0967979 0.0633641 1.03599e-19)
(0.152708 0.0537973 -7.07512e-19)
(0.216293 0.0414236 -5.55442e-20)
(0.286535 0.026665 -6.87127e-19)
(0.362269 0.00993843 -2.473e-19)
(0.44217 -0.00834266 1.42857e-19)
(0.524759 -0.0277661 -6.82841e-19)
(0.608449 -0.0479214 5.77426e-21)
(0.691597 -0.0684032 -5.94759e-19)
(0.772584 -0.088818 2.30522e-19)
(0.849896 -0.108794 -8.30917e-19)
(0.922199 -0.12799 -1.41011e-19)
(0.988405 -0.146112 -1.4536e-20)
(1.04771 -0.162919 -1.36872e-19)
(1.09958 -0.178251 -1.38312e-19)
(1.14376 -0.192012 -6.81308e-20)
(1.18057 -0.203449 -2.68427e-19)
(1.21108 -0.208943 -5.57669e-19)
(-0.0145178 0.0140238 1.61284e-19)
(-0.031208 0.0334947 4.39913e-19)
(-0.0346532 0.0468531 5.29932e-19)
(-0.0253442 0.0548651 -4.25884e-19)
(-0.00384611 0.0582229 7.89821e-19)
(0.0291842 0.0575139 -4.30695e-19)
(0.0729835 0.0532312 2.34047e-19)
(0.126694 0.0458219 3.65066e-19)
(0.189345 0.0357099 3.34413e-19)
(0.25982 0.0233038 1.63191e-19)
(0.336831 0.00900086 2.65933e-19)
(0.418908 -0.00680907 1.54955e-19)
(0.504411 -0.023742 1.05978e-18)
(0.591573 -0.0414194 -7.73963e-19)
(0.678568 -0.0594708 8.88402e-19)
(0.763594 -0.0775389 -3.68487e-19)
(0.844968 -0.0952868 7.98614e-19)
(0.921208 -0.112407 -3.78178e-20)
(0.991107 -0.128629 -1.65105e-19)
(1.05377 -0.143726 -2.38016e-20)
(1.10865 -0.157523 6.03117e-19)
(1.1555 -0.169896 -5.64855e-19)
(1.19441 -0.18069 4.06449e-19)
(1.22574 -0.189513 4.21597e-19)
(1.24723 -0.197773 7.58425e-20)
(-0.0143452 0.0130171 1.11364e-19)
(-0.0289702 0.0297351 -6.31253e-19)
(-0.0290643 0.0402029 -2.29567e-19)
(-0.0153696 0.045487 2.08791e-19)
(0.0113935 0.046465 -6.49901e-19)
(0.0504371 0.0438351 -1.2907e-19)
(0.100853 0.0381463 8.92612e-20)
(0.161602 0.0298663 3.52649e-19)
(0.231475 0.0194165 -8.99767e-19)
(0.309072 0.00718933 6.87024e-20)
(0.392781 -0.00644262 -2.65566e-19)
(0.480797 -0.0211215 -8.13467e-19)
(0.571165 -0.0365019 5.57153e-19)
(0.66186 -0.0522517 2.41472e-20)
(0.750877 -0.0680549 -1.73328e-20)
(0.83634 -0.0836168 5.66137e-19)
(0.916597 -0.0986699 -9.96509e-19)
(0.990299 -0.11298 7.85816e-19)
(1.05645 -0.126351 -1.48964e-19)
(1.11444 -0.138628 4.35089e-19)
(1.16402 -0.149698 -7.22927e-19)
(1.20526 -0.159484 3.9758e-19)
(1.23854 -0.167888 -6.86377e-19)
(1.26446 -0.174797 6.7337e-19)
(1.28185 -0.181389 -2.29997e-19)
(-0.0140084 0.0119993 7.5288e-19)
(-0.0260733 0.0260696 -1.27648e-19)
(-0.0221446 0.0338695 9.38475e-19)
(-0.00329213 0.0366893 4.34762e-19)
(0.0295466 0.0355616 3.36693e-20)
(0.0753906 0.0312855 1.91124e-19)
(0.133118 0.0244626 4.55724e-20)
(0.201433 0.0155805 7.84055e-19)
(0.278824 0.00505862 2.53038e-19)
(0.363543 -0.00672867 -3.44426e-20)
(0.453621 -0.0194392 6.80213e-20)
(0.546907 -0.0327562 2.66057e-19)
(0.64116 -0.0463852 2.23016e-19)
(0.734151 -0.0600541 4.78355e-19)
(0.823781 -0.073515 -5.47486e-19)
(0.908197 -0.086547 1.64012e-19)
(0.985883 -0.0989593 5.30683e-20)
(1.05572 -0.110594 2.40852e-19)
(1.117 -0.121326 6.34365e-19)
(1.16942 -0.131067 -4.23695e-19)
(1.21308 -0.13976 2.71584e-20)
(1.24834 -0.147376 -5.4707e-19)
(1.27583 -0.153881 4.98287e-19)
(1.29632 -0.15927 -4.51552e-19)
(1.30912 -0.16456 6.4141e-20)
(-0.013434 0.0109171 -6.28615e-19)
(-0.0223633 0.0223889 4.96917e-19)
(-0.0137105 0.0277229 -8.12103e-19)
(0.0110642 0.0283489 7.08574e-20)
(0.050746 0.0254172 5.74427e-19)
(0.104094 0.0198108 -9.61188e-19)
(0.169701 0.0121746 7.64416e-19)
(0.24594 0.0030098 -1.2186e-18)
(0.330929 -0.00727229 2.4443e-19)
(0.422532 -0.0183233 5.23325e-20)
(0.518398 -0.0298423 4.15832e-19)
(0.616053 -0.0415665 -1.38577e-18)
(0.713016 -0.0532666 2.40406e-19)
(0.806937 -0.0647437 2.5441e-19)
(0.895726 -0.0758282 -1.51899e-19)
(0.977659 -0.086379 -9.35834e-19)
(1.05145 -0.0962821 4.44467e-19)
(1.1163 -0.10545 8.08883e-19)
(1.17183 -0.113821 -8.37985e-19)
(1.21811 -0.121357 5.98201e-19)
(1.25553 -0.12804 -7.46712e-19)
(1.28474 -0.13387 5.35831e-19)
(1.30659 -0.138834 -1.33935e-19)
(1.32195 -0.142961 7.63459e-19)
(1.33055 -0.14717 -8.4339e-19)
(-0.0125541 0.0097347 9.09035e-20)
(-0.017698 0.0186161 7.44514e-20)
(-0.0036003 0.0216681 1.83082e-19)
(0.027839 0.0203741 6.49373e-19)
(0.0750685 0.0159608 -1.97402e-20)
(0.13652 0.00937299 1.46675e-19)
(0.210425 0.00128342 6.52623e-19)
(0.294755 -0.00780573 2.64766e-19)
(0.387203 -0.017504 -8.70516e-20)
(0.485212 -0.0275031 7.48651e-19)
(0.586059 -0.0375587 -8.5522e-19)
(0.686985 -0.0474778 1.31611e-18)
(0.78535 -0.0571099 -5.22719e-19)
(0.878781 -0.0663398 9.47133e-19)
(0.965307 -0.0750812 -3.20567e-19)
(1.04344 -0.083271 1.16275e-19)
(1.11223 -0.0908655 1.40146e-19)
(1.17121 -0.0978362 -2.59228e-19)
(1.22042 -0.104168 2.20484e-19)
(1.26026 -0.109855 1.39506e-19)
(1.2914 -0.114903 1.84433e-19)
(1.31475 -0.119322 3.69409e-19)
(1.33131 -0.123104 -4.17549e-20)
(1.34203 -0.126296 -1.65424e-19)
(1.34689 -0.129724 4.45354e-19)
(-0.0113092 0.0084344 -5.29917e-19)
(-0.0119508 0.0147116 5.74061e-20)
(0.00832432 0.0156552 -1.04624e-18)
(0.047138 0.0127203 -2.51427e-19)
(0.102545 0.00716633 -4.71031e-19)
(0.172579 -2.66851e-05 -1.02033e-19)
(0.255037 -0.0081796 -5.09116e-19)
(0.347427 -0.0168085 -3.04924e-19)
(0.446973 -0.0255629 4.07299e-19)
(0.550689 -0.034194 -6.8174e-19)
(0.655511 -0.0425329 -1.89935e-19)
(0.758464 -0.0504722 6.26246e-21)
(0.856848 -0.0579518 -1.28332e-18)
(0.948383 -0.0649447 5.44588e-19)
(1.03133 -0.0714453 -7.90078e-19)
(1.10454 -0.0774608 -2.30068e-20)
(1.16744 -0.0830032 1.48343e-19)
(1.21998 -0.088086 -2.48407e-19)
(1.26257 -0.0927214 -2.13912e-19)
(1.29594 -0.09692 9.80588e-20)
(1.32102 -0.100691 1.0541e-19)
(1.33889 -0.104043 -6.90791e-19)
(1.35065 -0.106954 3.90508e-19)
(1.35729 -0.109483 1.78606e-19)
(1.35895 -0.112375 3.10735e-20)
(-0.00964787 0.00701503 5.43519e-19)
(-0.00501313 0.0106733 -6.00859e-19)
(0.022178 0.00968392 8.45485e-19)
(0.0690362 0.00539779 1.30323e-19)
(0.133164 -0.000937085 -4.04431e-20)
(0.21213 -0.00833653 -2.90173e-19)
(0.303227 -0.0161421 4.32074e-20)
(0.403444 -0.0239139 4.42732e-19)
(0.509513 -0.0313665 -6.12833e-19)
(0.618037 -0.0383338 6.45026e-19)
(0.725667 -0.0447418 -6.75989e-20)
(0.829311 -0.0505824 3.18935e-20)
(0.926321 -0.0558912 8.41501e-19)
(1.01464 -0.0607271 1.11625e-18)
(1.09285 -0.065156 -4.38964e-19)
(1.16023 -0.0692389 7.59666e-19)
(1.21663 -0.0730256 3.72392e-19)
(1.26243 -0.076551 -2.34266e-19)
(1.29838 -0.0798362 7.06433e-19)
(1.32549 -0.0828903 -3.93912e-20)
(1.3449 -0.0857145 -6.52481e-19)
(1.35779 -0.0883014 6.66519e-19)
(1.36533 -0.0906156 8.26728e-20)
(1.36849 -0.0927168 -3.86954e-19)
(1.36748 -0.0952705 1.24718e-19)
(-0.00752744 0.00548951 -7.58464e-19)
(0.00320639 0.00653308 8.20055e-19)
(0.0380515 0.00380143 -5.23717e-19)
(0.0935776 -0.00152827 -1.6575e-19)
(0.166878 -0.00826438 -3.6912e-19)
(0.254987 -0.0154537 6.55737e-19)
(0.354631 -0.0224915 -3.83894e-19)
(0.462241 -0.0290132 -1.76582e-19)
(0.57406 -0.0348276 -5.07554e-19)
(0.68632 -0.0398761 1.33377e-20)
(0.795478 -0.0441965 -1.99087e-19)
(0.898439 -0.0478882 9.53986e-20)
(0.992739 -0.0510807 -1.0124e-18)
(1.07665 -0.0539084 2.89682e-19)
(1.14919 -0.0564913 -3.42472e-19)
(1.21009 -0.0589243 -2.70021e-19)
(1.25965 -0.0612727 8.20778e-20)
(1.29866 -0.0635733 -3.81781e-19)
(1.32816 -0.0658385 -1.52507e-19)
(1.3494 -0.0680625 4.58749e-19)
(1.36365 -0.0702279 1.81614e-19)
(1.37216 -0.0723071 -7.79129e-19)
(1.37608 -0.074246 5.55933e-19)
(1.37634 -0.0761031 -1.03247e-19)
(1.37319 -0.0784629 -2.06782e-19)
(-0.00491209 0.00388178 -2.77858e-19)
(0.0127816 0.00235213 -1.53788e-19)
(0.0560105 -0.00190303 -3.15679e-20)
(0.120773 -0.00794398 2.25961e-19)
(0.203596 -0.0146814 2.48466e-19)
(0.300912 -0.0212326 2.1859e-19)
(0.408831 -0.0270846 2.7173e-19)
(0.52321 -0.0319843 4.17287e-19)
(0.639824 -0.0358653 6.39207e-19)
(0.754615 -0.0387988 6.33689e-19)
(0.863959 -0.0409466 3.33528e-19)
(0.96489 -0.0425152 -9.00023e-20)
(1.05526 -0.0437181 2.37187e-20)
(1.13376 -0.0447465 -2.4368e-20)
(1.19992 -0.0457526 2.62571e-19)
(1.25394 -0.0468416 -6.16308e-20)
(1.29658 -0.048073 7.38526e-19)
(1.32896 -0.049467 -3.35866e-19)
(1.35239 -0.0510138 1.00423e-21)
(1.36827 -0.0526829 2.12414e-19)
(1.37795 -0.0544331 -4.72092e-19)
(1.38268 -0.0562138 7.5473e-19)
(1.38358 -0.0579534 -6.03612e-19)
(1.38149 -0.0597072 1.02829e-19)
(1.37665 -0.0619769 -3.76227e-19)
(-0.00177197 0.00222394 5.96672e-19)
(0.0237695 -0.00178571 4.1619e-19)
(0.0760939 -0.00730659 -2.69108e-19)
(0.150597 -0.0136968 1.19334e-18)
(0.243178 -0.020017 -1.03913e-18)
(0.349613 -0.0254989 2.22032e-19)
(0.465356 -0.0297636 -1.6642e-19)
(0.585697 -0.0327073 -7.35671e-19)
(0.706005 -0.0344176 -7.6599e-20)
(0.822036 -0.035113 -5.94181e-19)
(0.930217 -0.0350822 1.35511e-20)
(1.02785 -0.03463 -6.12548e-19)