/*--------------------------------*- C++ -*----------------------------------*\
  =========                 |
  \\      /  F ield         | OpenFOAM: The Open Source CFD Toolbox
   \\    /   O peration     | Website:  https://openfoam.org
    \\  /    A nd           | Version:  6.0
     \\/     M anipulation  |
\*---------------------------------------------------------------------------*/
FoamFile
{
    version     2.0;
    format      ascii;
    class       volScalarField;
    location    "98";
    object      p;
}
// * * * * * * * * * * * * * * * * * * * * * * * * * * * * * * * * * * * * * //

dimensions      [0 2 -2 0 0 0 0];

internalField   nonuniform List<scalar> 
8000
(
-0.425219
-0.427259
-0.428253
-0.428785
-0.429252
-0.42975
-0.43031
-0.430924
-0.431561
-0.432182
-0.432748
-0.433228
-0.433601
-0.433855
-0.433991
-0.43401
-0.433931
-0.433846
-0.433851
-0.43333
-0.415037
-0.417112
-0.418063
-0.418471
-0.418729
-0.418937
-0.41913
-0.419312
-0.419465
-0.419564
-0.419584
-0.419508
-0.419327
-0.41904
-0.41866
-0.418201
-0.417687
-0.417178
-0.41677
-0.416212
-0.405261
-0.407325
-0.408217
-0.408502
-0.408565
-0.4085
-0.408348
-0.40812
-0.40781
-0.407405
-0.406892
-0.406267
-0.405532
-0.404697
-0.403783
-0.402818
-0.401833
-0.400856
-0.399974
-0.399323
-0.395932
-0.397952
-0.398776
-0.398945
-0.398826
-0.398508
-0.398033
-0.397419
-0.396667
-0.395775
-0.394743
-0.393577
-0.392289
-0.390899
-0.389437
-0.387944
-0.386456
-0.384971
-0.383557
-0.382747
-0.387073
-0.389034
-0.389787
-0.389849
-0.389564
-0.389013
-0.388237
-0.387257
-0.386083
-0.384723
-0.383185
-0.381485
-0.379646
-0.377696
-0.375673
-0.373631
-0.371614
-0.36959
-0.367598
-0.366556
-0.378702
-0.380602
-0.381289
-0.381253
-0.380817
-0.380052
-0.378994
-0.377668
-0.376091
-0.374276
-0.372243
-0.370017
-0.367628
-0.365115
-0.362524
-0.359917
-0.35735
-0.354765
-0.352164
-0.350819
-0.37083
-0.372683
-0.373313
-0.37319
-0.372616
-0.371651
-0.370329
-0.368675
-0.366709
-0.364454
-0.361937
-0.35919
-0.356254
-0.353175
-0.350007
-0.346825
-0.343693
-0.340534
-0.337307
-0.335603
-0.363476
-0.365303
-0.365889
-0.365688
-0.364987
-0.363835
-0.362263
-0.360295
-0.357955
-0.355272
-0.352279
-0.349018
-0.345537
-0.34189
-0.33814
-0.334373
-0.330665
-0.326926
-0.323071
-0.320966
-0.356664
-0.358494
-0.359048
-0.358778
-0.357958
-0.35663
-0.354818
-0.352549
-0.349848
-0.346749
-0.343292
-0.339523
-0.335499
-0.331282
-0.326944
-0.322582
-0.318288
-0.313964
-0.309488
-0.306957
-0.350429
-0.352292
-0.352828
-0.352494
-0.351561
-0.350064
-0.348023
-0.345465
-0.342418
-0.338917
-0.335008
-0.330742
-0.326181
-0.321393
-0.31646
-0.31149
-0.306592
-0.301671
-0.296577
-0.293608
-0.344821
-0.346742
-0.34727
-0.346876
-0.345834
-0.344174
-0.341915
-0.339083
-0.335708
-0.331827
-0.327486
-0.32274
-0.317653
-0.312298
-0.306762
-0.301166
-0.295635
-0.290085
-0.284358
-0.280936
-0.339903
-0.341896
-0.342419
-0.341967
-0.34082
-0.339006
-0.336543
-0.333458
-0.32978
-0.325548
-0.320807
-0.315611
-0.310022
-0.304113
-0.297972
-0.291726
-0.285518
-0.279276
-0.272855
-0.268935
-0.335745
-0.33781
-0.338326
-0.337815
-0.336568
-0.334611
-0.331964
-0.328654
-0.32471
-0.32017
-0.315076
-0.309476
-0.303428
-0.296995
-0.290259
-0.283345
-0.276401
-0.269365
-0.262119
-0.257584
-0.33242
-0.334538
-0.335039
-0.334467
-0.333125
-0.331042
-0.328238
-0.32474
-0.320577
-0.315785
-0.310401
-0.304465
-0.298023
-0.291122
-0.283823
-0.276236
-0.268497
-0.260538
-0.252252
-0.24687
-0.33
-0.332131
-0.332597
-0.331961
-0.330533
-0.328343
-0.325413
-0.321771
-0.317447
-0.31247
-0.306871
-0.300683
-0.293931
-0.286641
-0.278843
-0.270607
-0.262036
-0.25302
-0.24342
-0.23682
-0.328537
-0.330623
-0.331028
-0.330321
-0.328814
-0.326538
-0.323517
-0.319778
-0.315349
-0.310256
-0.304523
-0.298169
-0.291201
-0.283617
-0.275405
-0.266581
-0.257186
-0.247036
-0.235861
-0.227563
-0.328063
-0.330029
-0.330339
-0.329549
-0.327966
-0.325622
-0.32254
-0.318746
-0.314264
-0.309116
-0.303317
-0.296874
-0.289775
-0.281988
-0.273459
-0.264137
-0.25399
-0.24274
-0.229874
-0.219378
-0.328582
-0.330341
-0.330512
-0.329621
-0.327958
-0.325555
-0.322431
-0.318611
-0.314113
-0.308953
-0.303138
-0.296662
-0.289496
-0.281581
-0.272823
-0.263105
-0.252314
-0.240083
-0.225573
-0.212405
-0.330066
-0.331527
-0.331508
-0.330486
-0.328728
-0.326261
-0.323101
-0.319267
-0.314772
-0.309623
-0.303822
-0.297353
-0.290177
-0.282221
-0.273359
-0.26342
-0.252191
-0.239162
-0.223047
-0.206712
-0.332461
-0.333533
-0.333266
-0.332076
-0.330192
-0.327641
-0.324433
-0.320579
-0.316086
-0.310957
-0.305189
-0.298769
-0.291665
-0.283822
-0.275146
-0.265502
-0.254687
-0.242121
-0.226196
-0.208735
-0.335695
-0.336296
-0.335719
-0.33431
-0.332259
-0.329588
-0.326302
-0.322406
-0.317901
-0.312785
-0.30706
-0.300722
-0.293769
-0.2862
-0.278028
-0.269306
-0.260164
-0.250813
-0.242172
-0.240297
-0.339692
-0.339749
-0.338799
-0.337113
-0.334841
-0.332003
-0.3286
-0.324629
-0.320084
-0.314965
-0.309275
-0.303028
-0.296247
-0.288982
-0.281318
-0.273409
-0.265516
-0.258051
-0.251873
-0.250601
-0.344384
-0.343836
-0.342451
-0.340426
-0.337874
-0.334816
-0.331249
-0.327163
-0.322548
-0.317399
-0.311727
-0.305554
-0.29893
-0.291932
-0.284688
-0.277382
-0.270283
-0.263747
-0.25826
-0.255487
-0.34972
-0.348516
-0.346638
-0.344216
-0.341326
-0.337995
-0.334217
-0.329975
-0.32525
-0.320037
-0.314344
-0.308203
-0.301672
-0.294845
-0.287854
-0.280874
-0.274121
-0.267831
-0.262262
-0.258027
-0.355674
-0.353774
-0.351351
-0.348479
-0.3452
-0.341547
-0.337513
-0.33307
-0.328191
-0.322862
-0.317088
-0.3109
-0.304362
-0.297566
-0.290638
-0.283724
-0.276986
-0.270571
-0.264625
-0.259229
-0.362247
-0.359613
-0.356605
-0.353239
-0.349527
-0.345511
-0.341177
-0.336484
-0.331392
-0.325874
-0.319931
-0.313589
-0.306911
-0.299987
-0.292933
-0.285874
-0.278934
-0.272217
-0.26582
-0.259634
-0.369461
-0.366059
-0.362431
-0.358538
-0.354362
-0.349945
-0.345263
-0.34026
-0.334876
-0.329072
-0.32284
-0.316208
-0.309239
-0.302025
-0.294676
-0.28731
-0.280034
-0.272935
-0.266091
-0.259363
-0.377347
-0.373142
-0.36887
-0.36443
-0.359762
-0.354906
-0.349822
-0.344428
-0.338648
-0.332431
-0.325767
-0.318689
-0.31127
-0.303611
-0.295827
-0.288036
-0.280342
-0.27283
-0.265567
-0.258455
-0.38594
-0.380896
-0.375962
-0.370962
-0.365778
-0.360437
-0.354876
-0.348989
-0.34268
-0.335897
-0.328637
-0.320951
-0.31293
-0.304691
-0.296362
-0.288065
-0.279905
-0.271968
-0.26431
-0.256878
-0.395259
-0.389344
-0.383738
-0.378166
-0.372436
-0.36655
-0.360416
-0.353902
-0.346905
-0.339382
-0.331356
-0.322904
-0.314145
-0.30522
-0.296267
-0.287413
-0.278761
-0.270393
-0.262353
-0.254622
-0.405303
-0.398487
-0.392203
-0.386048
-0.379731
-0.373218
-0.366384
-0.359081
-0.351216
-0.342772
-0.333812
-0.324454
-0.314851
-0.305162
-0.295536
-0.286097
-0.276943
-0.268143
-0.259727
-0.251691
-0.41604
-0.408301
-0.401337
-0.39458
-0.387616
-0.380365
-0.372676
-0.364399
-0.355472
-0.345929
-0.335886
-0.32551
-0.314985
-0.304487
-0.294164
-0.284133
-0.274477
-0.26525
-0.256463
-0.248113
-0.427399
-0.418728
-0.411084
-0.403694
-0.395998
-0.387869
-0.379141
-0.369689
-0.359508
-0.348703
-0.337457
-0.325984
-0.314494
-0.303168
-0.292147
-0.281532
-0.271385
-0.261741
-0.252587
-0.243922
-0.439271
-0.429673
-0.421348
-0.413278
-0.404738
-0.395559
-0.385587
-0.374754
-0.363141
-0.350942
-0.338408
-0.325794
-0.313326
-0.301179
-0.289477
-0.278297
-0.267678
-0.257632
-0.248122
-0.23915
-0.451502
-0.440997
-0.431988
-0.423171
-0.413646
-0.403221
-0.39179
-0.37938
-0.366184
-0.352494
-0.338625
-0.324861
-0.311429
-0.298487
-0.286135
-0.274419
-0.263354
-0.25293
-0.243081
-0.23382
-0.463896
-0.452522
-0.44282
-0.433164
-0.422485
-0.410602
-0.3975
-0.383341
-0.368449
-0.353213
-0.338
-0.323108
-0.30875
-0.295057
-0.282094
-0.26988
-0.258402
-0.247627
-0.237463
-0.227943
-0.476212
-0.464024
-0.45361
-0.443002
-0.430981
-0.417421
-0.402455
-0.386412
-0.369755
-0.352961
-0.336432
-0.320461
-0.305233
-0.290843
-0.27732
-0.264651
-0.252799
-0.241707
-0.231258
-0.221517
-0.488171
-0.475236
-0.464084
-0.452389
-0.438824
-0.423381
-0.406391
-0.388373
-0.36993
-0.351608
-0.333823
-0.316844
-0.300816
-0.285794
-0.271768
-0.258695
-0.246513
-0.235145
-0.224448
-0.214529
-0.499457
-0.485854
-0.473926
-0.460994
-0.445684
-0.428178
-0.409047
-0.389017
-0.368816
-0.349035
-0.330079
-0.31218
-0.295436
-0.279854
-0.26539
-0.251968
-0.239507
-0.227908
-0.217005
-0.20696
-0.509724
-0.495542
-0.482789
-0.468462
-0.451223
-0.431511
-0.410178
-0.388154
-0.366267
-0.345128
-0.32511
-0.306394
-0.289025
-0.272965
-0.258131
-0.244423
-0.23174
-0.219961
-0.2089
-0.198782
-0.518608
-0.503938
-0.490305
-0.474428
-0.455104
-0.433096
-0.409558
-0.385609
-0.36215
-0.339782
-0.318829
-0.299412
-0.281518
-0.265066
-0.249939
-0.236012
-0.223168
-0.211265
-0.200099
-0.189968
-0.525726
-0.510666
-0.496093
-0.478527
-0.457004
-0.432668
-0.406983
-0.381229
-0.356346
-0.332902
-0.311155
-0.29116
-0.27285
-0.256099
-0.240761
-0.22669
-0.213752
-0.201786
-0.190573
-0.180491
-0.5307
-0.515345
-0.499776
-0.480408
-0.456623
-0.429993
-0.402275
-0.37488
-0.348753
-0.324402
-0.302014
-0.281573
-0.26296
-0.246011
-0.23055
-0.216414
-0.203455
-0.19149
-0.180293
-0.170325
-0.533158
-0.517604
-0.500991
-0.479744
-0.453696
-0.424867
-0.395285
-0.36645
-0.339279
-0.314206
-0.291338
-0.270591
-0.251796
-0.234753
-0.219263
-0.205147
-0.192244
-0.180351
-0.169237
-0.159452
-0.53275
-0.51709
-0.499402
-0.476245
-0.447994
-0.417123
-0.385891
-0.355847
-0.327851
-0.302253
-0.279072
-0.258164
-0.239312
-0.222286
-0.206866
-0.192859
-0.180094
-0.168348
-0.15739
-0.147857
-0.529158
-0.513484
-0.494711
-0.469664
-0.439333
-0.40663
-0.374002
-0.343002
-0.314414
-0.288491
-0.265172
-0.244251
-0.225472
-0.208578
-0.193332
-0.17953
-0.166989
-0.155468
-0.144742
-0.135535
-0.522102
-0.506504
-0.486664
-0.459802
-0.427573
-0.393296
-0.359554
-0.327868
-0.298929
-0.272887
-0.249605
-0.228824
-0.210253
-0.19361
-0.178646
-0.165146
-0.152919
-0.141707
-0.131293
-0.122485
-0.511353
-0.495921
-0.475064
-0.446514
-0.412622
-0.377068
-0.342515
-0.310423
-0.281375
-0.255422
-0.232356
-0.211869
-0.193641
-0.177372
-0.1628
-0.149706
-0.137887
-0.127069
-0.117051
-0.108715
-0.496737
-0.481561
-0.45977
-0.429711
-0.394436
-0.357927
-0.322881
-0.290667
-0.261752
-0.236095
-0.213421
-0.193383
-0.175635
-0.159864
-0.145799
-0.133215
-0.1219
-0.111569
-0.102033
-0.0942442
-0.478141
-0.463313
-0.440702
-0.40936
-0.373017
-0.335896
-0.300678
-0.268623
-0.24008
-0.214921
-0.192814
-0.173377
-0.156247
-0.141099
-0.127657
-0.11569
-0.104981
-0.0952316
-0.0862703
-0.0791036
-0.455515
-0.441128
-0.417846
-0.385482
-0.348412
-0.31103
-0.275961
-0.244339
-0.216401
-0.191935
-0.170563
-0.151877
-0.135499
-0.121098
-0.108393
-0.0971531
-0.0871536
-0.0780876
-0.069801
-0.0633412
-0.428873
-0.415025
-0.391246
-0.358155
-0.320713
-0.283423
-0.248815
-0.21789
-0.190774
-0.167187
-0.146711
-0.128918
-0.113423
-0.0998895
-0.0880365
-0.0776318
-0.068447
-0.0601707
-0.0526678
-0.0470064
-0.398298
-0.385087
-0.361009
-0.327505
-0.290054
-0.253201
-0.219352
-0.189371
-0.163284
-0.140748
-0.121317
-0.104551
-0.0900594
-0.0775079
-0.0666162
-0.0571529
-0.0488874
-0.0415114
-0.0349068
-0.0301235
-0.363933
-0.351458
-0.3273
-0.29371
-0.256609
-0.220524
-0.187714
-0.158907
-0.134034
-0.112706
-0.0944547
-0.0788345
-0.065457
-0.0539916
-0.044163
-0.0357423
-0.0285013
-0.0221408
-0.0165454
-0.0126819
-0.325982
-0.314344
-0.290335
-0.25699
-0.220589
-0.185584
-0.154072
-0.126644
-0.103153
-0.0831706
-0.0662145
-0.0518416
-0.0396704
-0.0293797
-0.0207032
-0.0134195
-0.00730827
-0.00208185
0.00239981
0.00531183
-0.284709
-0.274006
-0.250381
-0.217608
-0.18224
-0.148604
-0.118622
-0.0927584
-0.0707945
-0.0522724
-0.0367064
-0.0236604
-0.0127654
-0.0037158
0.00373887
0.00980668
0.0146944
0.0186725
0.0219078
0.0236985
-0.240423
-0.230751
-0.207747
-0.175864
-0.141839
-0.109836
-0.0815912
-0.0574508
-0.0371353
-0.0201666
-0.00606146
0.00560324
0.0151776
0.022944
0.0291288
0.0339236
0.0375174
0.0401227
0.0418402
0.04204
-0.193483
-0.184932
-0.162781
-0.132089
-0.0996945
-0.0695587
-0.0432324
-0.02095
-0.00238031
0.0129678
0.0255707
0.0358339
0.0440817
0.0505626
0.0554681
0.0589689
0.0612114
0.0622235
0.0618672
0.0598983
-0.144282
-0.136937
-0.115861
-0.0866412
-0.056136
-0.0280762
-0.00382553
0.0164856
0.0332328
0.0469173
0.0580089
0.0668974
0.0738825
0.0791768
0.0829351
0.0852972
0.08629
0.0855319
0.0825342
0.0784187
-0.0932476
-0.087185
-0.0673915
-0.0398997
-0.0115151
0.0142865
0.0363256
0.0545675
0.0694264
0.0814131
0.0909959
0.0985608
0.104403
0.108733
0.111717
0.11351
0.114005
0.112323
0.107778
0.103385
-0.0408289
-0.036114
-0.0177932
0.00774155
0.0338043
0.0571911
0.0769014
0.0929865
0.105892
0.116135
0.124184
0.130426
0.135169
0.138662
0.141155
0.142924
0.14393
0.143179
0.140463
0.144087
0.0125166
0.0158263
0.032504
0.055882
0.0794524
0.100294
0.117578
0.131431
0.142321
0.150766
0.157225
0.162078
0.165632
0.168146
0.169885
0.171111
0.171805
0.171506
0.171154
0.176866
0.066315
0.0681746
0.0830635
0.104118
0.125059
0.143254
0.158036
0.169596
0.17842
0.185018
0.189838
0.193249
0.195552
0.197003
0.197854
0.198322
0.198387
0.197772
0.197422
0.201973
0.120092
0.12047
0.133451
0.15205
0.170259
0.185736
0.197964
0.20719
0.213908
0.218616
0.221746
0.223649
0.224613
0.224879
0.22468
0.22421
0.223461
0.222229
0.221285
0.224274
0.173376
0.172254
0.183237
0.199287
0.214698
0.227416
0.237065
0.243939
0.248531
0.251327
0.252735
0.253088
0.252652
0.251651
0.250289
0.248732
0.24696
0.244798
0.242949
0.244487
0.225704
0.22308
0.232005
0.245448
0.258032
0.267984
0.275058
0.279585
0.282055
0.282935
0.282612
0.281394
0.279529
0.277217
0.274642
0.271939
0.269077
0.265899
0.263069
0.26322
0.276627
0.272513
0.279349
0.290167
0.299932
0.307144
0.311675
0.313887
0.314263
0.313248
0.311207
0.308425
0.305126
0.301494
0.297686
0.293817
0.289843
0.285635
0.281823
0.280666
0.325709
0.320132
0.324883
0.333093
0.340083
0.344614
0.346663
0.346617
0.344951
0.342087
0.338364
0.334048
0.329342
0.324408
0.319386
0.314368
0.309307
0.304098
0.299332
0.296934
0.372535
0.365538
0.368235
0.373895
0.378189
0.380127
0.379783
0.377563
0.373929
0.369281
0.363936
0.358138
0.352071
0.345879
0.339682
0.333557
0.327455
0.321295
0.315618
0.312049
0.416712
0.408352
0.409058
0.412257
0.413968
0.413432
0.410809
0.406521
0.401015
0.39467
0.387782
0.380574
0.373211
0.365821
0.358509
0.351335
0.344254
0.337203
0.330666
0.325994
0.457869
0.448219
0.447024
0.447886
0.447158
0.444294
0.439531
0.433301
0.426038
0.418102
0.409767
0.401235
0.392657
0.384145
0.375789
0.367637
0.359649
0.351775
0.344433
0.338733
0.495662
0.484809
0.48183
0.480509
0.477513
0.472492
0.465749
0.457725
0.44884
0.439433
0.42976
0.420006
0.410306
0.40076
0.391443
0.382393
0.373574
0.364949
0.356866
0.350217
0.529775
0.51782
0.513199
0.509877
0.504811
0.497825
0.489283
0.479628
0.469269
0.458527
0.447639
0.436777
0.42606
0.415576
0.405388
0.395528
0.385963
0.376661
0.367905
0.360394
0.559921
0.546976
0.540879
0.535762
0.528847
0.52011
0.509965
0.498859
0.487189
0.475259
0.463291
0.451443
0.439823
0.428506
0.417547
0.406968
0.396744
0.386846
0.37749
0.36921
0.585846
0.572034
0.564644
0.557963
0.549439
0.539182
0.527646
0.515283
0.502475
0.489516
0.476612
0.46391
0.451507
0.43947
0.427843
0.416644
0.405853
0.395442
0.385563
0.376616
0.607324
0.592779
0.5843
0.576303
0.566429
0.554898
0.542197
0.528779
0.515019
0.501197
0.48751
0.474092
0.461034
0.448394
0.43621
0.424494
0.413229
0.402389
0.392072
0.382566
0.624168
0.609032
0.59968
0.590632
0.579682
0.567134
0.553504
0.539245
0.524726
0.510216
0.495904
0.481916
0.468336
0.455217
0.442588
0.43046
0.41882
0.40764
0.396972
0.38702
0.636222
0.620645
0.610649
0.600828
0.589085
0.57579
0.561476
0.546598
0.531519
0.516502
0.501729
0.487321
0.473357
0.459884
0.446928
0.434499
0.422583
0.411152
0.400225
0.389947
0.643367
0.627503
0.617102
0.606797
0.594556
0.580788
0.566042
0.550772
0.535339
0.52
0.504935
0.490261
0.476053
0.462356
0.449193
0.436573
0.424483
0.412894
0.401802
0.391322
0.64552
0.629527
0.618967
0.608472
0.596033
0.582075
0.567153
0.551723
0.536143
0.520672
0.505486
0.490701
0.476393
0.462604
0.449356
0.436658
0.424498
0.412843
0.401683
0.391127
0.642635
0.626673
0.616203
0.605817
0.593484
0.579621
0.564781
0.549424
0.533909
0.518495
0.503361
0.488625
0.47436
0.460612
0.447403
0.434741
0.422614
0.410989
0.399859
0.389355
0.634704
0.618933
0.608801
0.598825
0.586902
0.573419
0.558922
0.543871
0.528632
0.513467
0.498559
0.484029
0.469953
0.456379
0.443332
0.430821
0.418831
0.407328
0.396327
0.386003
0.621753
0.606333
0.596786
0.587517
0.576307
0.563487
0.549591
0.53508
0.520327
0.505601
0.491091
0.476924
0.463181
0.449914
0.437152
0.424905
0.413157
0.401872
0.391096
0.381079
0.603848
0.588935
0.580214
0.571944
0.561744
0.549867
0.536827
0.523086
0.509026
0.494927
0.480986
0.467338
0.454071
0.441242
0.428886
0.417017
0.405614
0.394638
0.384183
0.374597
0.581091
0.566834
0.559173
0.552186
0.543286
0.532626
0.520689
0.507944
0.494781
0.481492
0.468288
0.455311
0.442659
0.430397
0.418567
0.407187
0.39623
0.385657
0.375615
0.366579
0.553618
0.540162
0.533784
0.52835
0.52103
0.51185
0.50126
0.489728
0.477659
0.46536
0.453054
0.440898
0.428998
0.417428
0.40624
0.395458
0.385047
0.374966
0.365427
0.357056
0.521602
0.509083
0.504195
0.500571
0.495098
0.487651
0.47864
0.468532
0.457746
0.446609
0.435359
0.424165
0.413148
0.402392
0.39196
0.38188
0.372114
0.362614
0.353662
0.346065
0.48525
0.473793
0.470587
0.469013
0.465635
0.460162
0.452949
0.444464
0.435143
0.425331
0.415285
0.405191
0.395183
0.385357
0.375788
0.366513
0.357487
0.348653
0.340368
0.333647
0.444801
0.434522
0.433171
0.433862
0.432813
0.429535
0.424326
0.417651
0.409964
0.401631
0.39293
0.384065
0.375184
0.366398
0.357795
0.349422
0.341227
0.333143
0.325601
0.31985
0.400527
0.391529
0.392182
0.395333
0.39682
0.395942
0.392927
0.388235
0.382338
0.375627
0.3684
0.360882
0.353237
0.345594
0.338053
0.330674
0.323399
0.316145
0.309417
0.304725
0.352729
0.345103
0.347886
0.353663
0.357871
0.359575
0.358924
0.356371
0.352406
0.347444
0.341809
0.335745
0.329437
0.323028
0.316638
0.310338
0.304066
0.297719
0.291871
0.288319
0.30174
0.295561
0.300573
0.309111
0.316198
0.320643
0.322505
0.322229
0.32032
0.31722
0.313279
0.308763
0.303878
0.298785
0.293622
0.288477
0.283286
0.277918
0.27301
0.270676
0.247918
0.243246
0.250558
0.261963
0.272055
0.279372
0.283874
0.285989
0.286242
0.285099
0.282936
0.280046
0.276655
0.272945
0.269073
0.265147
0.261103
0.256783
0.25287
0.251826
0.191648
0.188528
0.198181
0.212521
0.225712
0.236005
0.243247
0.247848
0.250346
0.251234
0.250915
0.249709
0.247863
0.245581
0.243045
0.240385
0.237541
0.234323
0.231452
0.231774
0.133338
0.131799
0.143804
0.16111
0.177461
0.190801
0.200858
0.208012
0.212815
0.215786
0.217355
0.217867
0.217596
0.216766
0.215586
0.214213
0.212597
0.210515
0.208719
0.210483
0.073419
0.0734746
0.0878077
0.108076
0.127609
0.144038
0.156954
0.166705
0.173849
0.17893
0.182406
0.184646
0.185947
0.186559
0.186716
0.186606
0.186196
0.185236
0.184515
0.187812
0.0123397
0.0139872
0.0305948
0.053781
0.076483
0.0960087
0.111801
0.124164
0.133662
0.140857
0.146232
0.150182
0.153025
0.155035
0.156474
0.157566
0.15829
0.15836
0.158634
0.163537
-0.0494345
-0.0462132
-0.0274171
-0.00139587
0.0244251
0.0470232
0.0656808
0.0806489
0.0924894
0.101782
0.10903
0.114648
0.118971
0.122288
0.124886
0.127015
0.128635
0.129376
0.130292
0.136946
-0.111426
-0.106664
-0.0857962
-0.0570606
-0.0282071
-0.00259219
0.0188934
0.0364368
0.0505898
0.0619425
0.0710142
0.0782324
0.083941
0.0884318
0.0920088
0.0949748
0.0972938
0.0983847
0.0992923
0.107262
-0.17315
-0.166896
-0.144101
-0.112808
-0.0810436
-0.0524966
-0.0282432
-0.00817096
0.00825388
0.0216273
0.0324803
0.0412512
0.0482873
0.0538684
0.0582821
0.0618542
0.0645334
0.0651268
0.0633213
0.0688189
-0.234118
-0.226432
-0.201884
-0.168226
-0.133706
-0.102339
-0.0753983
-0.0528577
-0.03421
-0.0188604
-0.0062736
0.00398772
0.0122564
0.0187685
0.0237138
0.0272746
0.0293342
0.0288781
0.0250485
0.0210075
-0.293851
-0.284805
-0.2587
-0.222901
-0.185811
-0.151763
-0.122234
-0.0972959
-0.0764746
-0.0591799
-0.0448712
-0.0331048
-0.0235419
-0.0159438
-0.010137
-0.00596008
-0.00337304
-0.0028047
-0.00488751
-0.00861075
-0.351875
-0.341553
-0.314108
-0.276422
-0.236982
-0.200416
-0.168415
-0.141158
-0.11821
-0.0989841
-0.082928
-0.069577
-0.0585617
-0.0496008
-0.0424775
-0.036995
-0.0329726
-0.0303658
-0.0294119
-0.0306075
-0.407733
-0.396228
-0.367679
-0.328391
-0.28685
-0.247957
-0.21362
-0.184136
-0.159117
-0.137982
-0.120163
-0.105173
-0.0926085
-0.0821482
-0.0735341
-0.066545
-0.0609495
-0.0564901
-0.0531382
-0.0518182
-0.460995
-0.448407
-0.419007
-0.378426
-0.335062
-0.294063
-0.257553
-0.225957
-0.198944
-0.175946
-0.156386
-0.139755
-0.125629
-0.113654
-0.103546
-0.0950641
-0.0879569
-0.0818986
-0.0767813
-0.0736097
-0.511261
-0.497699
-0.467709
-0.426168
-0.381292
-0.338436
-0.299942
-0.266376
-0.237473
-0.212688
-0.191441
-0.17321
-0.157551
-0.144094
-0.132532
-0.122611
-0.114062
-0.10654
-0.0999575
-0.095451
-0.558174
-0.543748
-0.513435
-0.471286
-0.425237
-0.380805
-0.340546
-0.305177
-0.274514
-0.248043
-0.22519
-0.205427
-0.188296
-0.173413
-0.160462
-0.149176
-0.139279
-0.13041
-0.122503
-0.11684
-0.601419
-0.586243
-0.555876
-0.513482
-0.466623
-0.420925
-0.37915
-0.342172
-0.309902
-0.281872
-0.257519
-0.236315
-0.217797
-0.201572
-0.187316
-0.174759
-0.163622
-0.153531
-0.144409
-0.13762
-0.640734
-0.624922
-0.594761
-0.552494
-0.505208
-0.458582
-0.415565
-0.377197
-0.343499
-0.314056
-0.28833
-0.265799
-0.246
-0.228535
-0.213077
-0.199351
-0.187082
-0.175891
-0.165673
-0.157801
-0.675914
-0.659576
-0.629872
-0.5881
-0.540785
-0.49359
-0.44963
-0.410116
-0.375188
-0.344499
-0.317545
-0.293817
-0.272856
-0.254266
-0.237714
-0.222929
-0.209636
-0.197461
-0.18627
-0.1774
-0.706813
-0.690055
-0.661039
-0.620122
-0.573182
-0.525793
-0.481212
-0.440815
-0.404873
-0.37312
-0.345097
-0.320314
-0.298321
-0.278727
-0.261199
-0.245464
-0.231256
-0.218208
-0.206158
-0.196387
-0.733346
-0.716272
-0.688149
-0.648427
-0.602263
-0.55507
-0.510203
-0.469203
-0.43248
-0.39986
-0.370936
-0.345247
-0.32236
-0.301887
-0.2835
-0.266929
-0.251912
-0.238096
-0.225291
-0.214705
-0.755492
-0.738198
-0.711147
-0.672931
-0.627933
-0.581327
-0.536524
-0.495215
-0.457955
-0.424672
-0.395024
-0.368586
-0.344943
-0.323719
-0.304593
-0.287294
-0.271573
-0.257086
-0.243623
-0.2323
-0.773294
-0.755873
-0.730036
-0.693601
-0.650139
-0.604507
-0.560122
-0.518808
-0.481264
-0.447531
-0.417341
-0.390312
-0.366054
-0.344208
-0.324458
-0.30654
-0.290213
-0.27515
-0.261117
-0.249132
-0.786859
-0.769396
-0.74488
-0.710455
-0.668867
-0.624584
-0.580971
-0.539961
-0.502392
-0.468427
-0.437879
-0.410419
-0.385688
-0.363345
-0.343087
-0.324655
-0.307818
-0.292266
-0.277749
-0.265177
-0.79635
-0.778929
-0.755803
-0.723567
-0.684148
-0.641566
-0.599073
-0.558675
-0.521345
-0.487367
-0.456647
-0.428915
-0.403851
-0.381137
-0.360482
-0.341638
-0.324382
-0.308427
-0.293508
-0.280424
-0.801988
-0.784689
-0.762986
-0.733059
-0.696057
-0.655496
-0.614455
-0.574974
-0.538145
-0.504376
-0.47367
-0.445825
-0.420564
-0.397599
-0.376656
-0.357497
-0.339912
-0.323633
-0.30839
-0.294867
-0.804043
-0.786943
-0.766662
-0.739109
-0.704712
-0.66645
-0.627171
-0.588904
-0.552835
-0.519494
-0.488985
-0.461183
-0.43586
-0.41276
-0.391633
-0.372254
-0.354423
-0.337895
-0.322401
-0.308511
-0.802826
-0.786004
-0.767115
-0.74194
-0.710273
-0.674541
-0.637303
-0.600528
-0.565473
-0.532776
-0.502646
-0.475039
-0.449783
-0.426662
-0.40545
-0.385938
-0.36794
-0.351234
-0.335557
-0.321367
-0.798684
-0.782218
-0.764667
-0.74182
-0.712943
-0.679912
-0.644955
-0.60993
-0.576131
-0.54429
-0.514717
-0.487453
-0.462391
-0.439356
-0.418152
-0.398591
-0.380501
-0.363682
-0.347883
-0.33346
-0.791987
-0.775955
-0.759671
-0.739055
-0.712959
-0.682739
-0.650256
-0.617213
-0.584896
-0.554115
-0.525273
-0.498498
-0.47375
-0.450903
-0.429797
-0.410264
-0.392151
-0.375279
-0.359416
-0.344818
-0.783121
-0.767602
-0.752504
-0.733982
-0.710596
-0.68323
-0.653362
-0.622494
-0.591868
-0.56234
-0.534398
-0.508253
-0.483936
-0.461375
-0.440449
-0.421017
-0.402943
-0.386074
-0.370197
-0.355482
-0.772476
-0.757547
-0.74355
-0.726956
-0.706153
-0.681616
-0.654446
-0.625908
-0.597155
-0.569062
-0.542181
-0.516803
-0.493031
-0.47085
-0.450182
-0.430917
-0.412941
-0.396123
-0.380276
-0.365497
-0.760434
-0.74617
-0.733192
-0.718343
-0.699949
-0.678156
-0.653704
-0.627602
-0.600877
-0.574382
-0.548716
-0.524238
-0.501122
-0.479412
-0.459076
-0.440039
-0.422211
-0.405487
-0.389711
-0.374911
-0.747363
-0.733834
-0.721801
-0.708508
-0.692316
-0.673122
-0.651349
-0.627738
-0.603158
-0.578407
-0.5541
-0.530652
-0.508298
-0.487146
-0.467212
-0.44846
-0.430827
-0.414235
-0.398559
-0.38378
-0.733608
-0.720876
-0.709724
-0.697802
-0.683583
-0.666799
-0.647607
-0.626489
-0.604132
-0.581244
-0.558428
-0.536133
-0.51465
-0.494142
-0.474677
-0.456262
-0.438865
-0.422436
-0.406884
-0.392156
-0.719482
-0.7076
-0.697274
-0.686553
-0.674071
-0.659475
-0.642715
-0.624038
-0.603937
-0.583003
-0.561795
-0.540771
-0.520263
-0.500485
-0.481556
-0.463528
-0.446404
-0.430163
-0.414751
-0.400097
-0.705263
-0.694272
-0.684728
-0.675054
-0.66408
-0.651431
-0.636912
-0.620574
-0.602718
-0.583795
-0.564292
-0.544648
-0.525219
-0.506259
-0.487935
-0.470342
-0.453524
-0.43749
-0.422225
-0.407658
-0.691189
-0.681116
-0.672319
-0.663561
-0.653882
-0.642931
-0.630435
-0.61629
-0.600622
-0.583731
-0.566006
-0.547843
-0.529594
-0.511541
-0.493892
-0.476785
-0.460303
-0.444492
-0.429373
-0.414893
-0.67746
-0.668316
-0.660238
-0.652285
-0.643708
-0.634218
-0.623511
-0.61138
-0.597801
-0.582926
-0.567026
-0.550428
-0.533457
-0.516404
-0.499505
-0.482936
-0.466822
-0.451243
-0.436262
-0.421857
-0.664235
-0.656018
-0.648631
-0.641392
-0.633752
-0.6255
-0.616349
-0.606031
-0.594408
-0.581495
-0.567437
-0.55247
-0.536869
-0.52091
-0.504841
-0.48887
-0.473157
-0.45782
-0.442962
-0.428604
-0.651642
-0.64433
-0.637605
-0.631005
-0.624161
-0.616953
-0.609134
-0.60042
-0.590594
-0.579555
-0.567326
-0.554036
-0.539886
-0.525115
-0.509965
-0.494658
-0.479386
-0.464303
-0.449546
-0.435196
-0.639776
-0.633333
-0.627236
-0.62121
-0.615046
-0.608713
-0.602024
-0.594708
-0.586507
-0.577228
-0.566783
-0.555189
-0.542559
-0.529068
-0.51493
-0.500367
-0.485587
-0.470775
-0.456101
-0.441709
-0.628713
-0.623083
-0.617573
-0.612062
-0.606483
-0.600884
-0.595149
-0.58904
-0.582286
-0.574634
-0.565901
-0.555999
-0.544937
-0.532812
-0.519786
-0.506056
-0.491835
-0.477325
-0.462723
-0.448234
-0.618508
-0.613616
-0.608643
-0.603596
-0.598522
-0.593545
-0.588614
-0.583542
-0.578064
-0.571896
-0.564782
-0.556538
-0.547072
-0.536388
-0.524573
-0.511782
-0.498205
-0.484052
-0.469534
-0.454921
-0.6092
-0.604956
-0.600464
-0.595831
-0.591199
-0.586752
-0.582507
-0.578325
-0.573967
-0.569137
-0.563531
-0.556888
-0.54902
-0.539832
-0.529326
-0.517586
-0.504763
-0.491049
-0.476654
-0.461909
-0.600816
-0.597114
-0.593041
-0.588777
-0.584537
-0.580555
-0.576902
-0.573491
-0.570115
-0.566481
-0.562262
-0.557139
-0.550842
-0.543184
-0.534069
-0.5235
-0.511562
-0.498409
-0.48424
-0.469488
-0.593359
-0.59008
-0.586366
-0.582435
-0.578553
-0.574991
-0.571865
-0.569132
-0.566619
-0.564051
-0.561093
-0.557389
-0.552609
-0.546482
-0.53882
-0.529531
-0.518619
-0.506172
-0.492355
-0.477748
-0.586803
-0.583828
-0.580414
-0.576791
-0.57325
-0.570086
-0.567448
-0.565328
-0.563584
-0.561966
-0.560141
-0.557742
-0.554395
-0.549767
-0.543588
-0.535674
-0.525933
-0.51437
-0.501118
-0.48716
-0.581088
-0.578298
-0.575136
-0.571809
-0.568609
-0.565843
-0.56368
-0.562135
-0.561094
-0.560326
-0.559518
-0.558298
-0.556279
-0.553081
-0.548373
-0.541889
-0.533439
-0.522876
-0.510114
-0.497045
-0.57611
-0.573402
-0.570454
-0.567423
-0.564581
-0.562234
-0.560555
-0.559574
-0.559192
-0.559201
-0.559303
-0.559141
-0.558325
-0.556459
-0.553173
-0.548149
-0.541141
-0.531947
-0.52018
-0.507125
-0.571725
-0.569017
-0.566258
-0.563535
-0.561079
-0.559186
-0.55802
-0.557612
-0.557872
-0.558603
-0.559529
-0.56031
-0.560567
-0.559908
-0.557951
-0.554358
-0.548866
-0.541316
-0.531369
-0.519246
-0.567751
-0.564992
-0.562412
-0.560015
-0.557981
-0.556582
-0.555967
-0.556155
-0.557053
-0.558474
-0.560156
-0.561777
-0.562977
-0.563377
-0.562596
-0.560282
-0.556138
-0.549938
-0.541253
-0.530291
-0.563984
-0.561156
-0.558759
-0.55671
-0.555131
-0.554265
-0.554236
-0.555043
-0.556584
-0.558672
-0.561056
-0.563429
-0.565451
-0.56676
-0.566985
-0.565767
-0.562785
-0.557746
-0.550153
-0.5406
-0.560206
-0.557328
-0.555128
-0.553448
-0.55235
-0.552045
-0.552625
-0.554063
-0.556244
-0.558976
-0.562012
-0.565061
-0.5678
-0.569885
-0.570964
-0.570687
-0.568736
-0.564793
-0.558361
-0.55038
-0.556206
-0.553327
-0.551349
-0.550052
-0.549449
-0.549712
-0.550901
-0.552962
-0.555762
-0.559101
-0.562734
-0.566382
-0.569739
-0.572482
-0.574279
-0.574803
-0.573754
-0.570817
-0.565572
-0.559134
-0.551786
-0.548981
-0.547256
-0.546348
-0.546233
-0.547048
-0.548818
-0.551464
-0.554832
-0.558718
-0.562877
-0.567039
-0.570913
-0.574196
-0.57658
-0.577764
-0.577472
-0.575418
-0.571306
-0.566246
-0.546781
-0.54414
-0.542695
-0.542171
-0.542517
-0.543839
-0.546132
-0.549291
-0.553148
-0.557492
-0.562081
-0.566652
-0.57093
-0.574631
-0.577471
-0.579174
-0.579493
-0.578189
-0.575109
-0.571199
-0.541059
-0.538677
-0.537538
-0.537376
-0.538136
-0.539895
-0.542621
-0.546191
-0.550427
-0.555113
-0.560011
-0.564868
-0.569423
-0.573411
-0.576571
-0.578656
-0.579448
-0.578768
-0.576598
-0.573605
-0.534533
-0.532502
-0.531681
-0.531848
-0.532955
-0.535058
-0.538105
-0.541961
-0.546441
-0.551331
-0.556398
-0.561401
-0.566095
-0.570234
-0.573581
-0.575917
-0.577057
-0.576888
-0.575509
-0.573227
-0.527165
-0.525559
-0.52506
-0.525508
-0.526882
-0.529222
-0.532464
-0.536467
-0.541045
-0.545988
-0.551075
-0.556078
-0.560769
-0.564923
-0.56833
-0.5708
-0.572181
-0.572429
-0.571727
-0.569987
-0.518962
-0.517836
-0.517648