/*--------------------------------*- C++ -*----------------------------------*\
  =========                 |
  \\      /  F ield         | OpenFOAM: The Open Source CFD Toolbox
   \\    /   O peration     | Website:  https://openfoam.org
    \\  /    A nd           | Version:  6.0
     \\/     M anipulation  |
\*---------------------------------------------------------------------------*/
FoamFile
{
    version     2.0;
    format      ascii;
    class       volVectorField;
    location    "64";
    object      U;
}
// * * * * * * * * * * * * * * * * * * * * * * * * * * * * * * * * * * * * * //

dimensions      [0 1 -1 0 0 0 0];

internalField   nonuniform List<vector> 
8000
(
(-0.000606358 0.00668771 -4.26156e-21)
(-0.00287442 0.0138716 2.28077e-20)
(-0.00683609 0.0167862 -2.772e-20)
(-0.0115561 0.0168291 2.11048e-20)
(-0.0165402 0.0150122 1.02658e-20)
(-0.0215056 0.0120383 -3.08688e-20)
(-0.0262498 0.00837526 -2.71728e-21)
(-0.0306406 0.00431813 -9.44394e-22)
(-0.0346045 4.02559e-05 -1.60235e-20)
(-0.0381115 -0.00436593 -8.67006e-21)
(-0.0411652 -0.00885814 6.46629e-21)
(-0.0437949 -0.0134222 2.44705e-20)
(-0.0460503 -0.0180569 -1.82408e-21)
(-0.0479954 -0.0227646 2.64536e-21)
(-0.0497053 -0.0275455 -2.4669e-20)
(-0.0512655 -0.0323943 1.52063e-20)
(-0.0527655 -0.0372994 -2.1736e-20)
(-0.0542524 -0.0422405 3.2943e-20)
(-0.0557109 -0.0471888 -3.86991e-23)
(-0.0574897 -0.0521193 7.08351e-21)
(-0.000947546 0.00779267 1.42263e-20)
(-0.00365595 0.0166021 -7.29256e-20)
(-0.00792298 0.0206203 -5.03545e-20)
(-0.0128579 0.0213532 -3.41128e-20)
(-0.0180033 0.0199002 -4.39492e-20)
(-0.023103 0.0170368 9.50791e-21)
(-0.0279714 0.0132934 -5.07026e-20)
(-0.0324862 0.00901842 -1.1373e-20)
(-0.0365784 0.00443074 3.56904e-21)
(-0.0402198 -0.000337661 3.76822e-20)
(-0.0434135 -0.00520975 -4.12468e-20)
(-0.0461875 -0.0101405 5.74103e-20)
(-0.0485897 -0.0151014 -4.30311e-20)
(-0.0506828 -0.0200711 -5.10103e-20)
(-0.052541 -0.0250299 -7.01967e-20)
(-0.0542498 -0.0299572 4.48634e-20)
(-0.0558995 -0.034831 -1.46106e-20)
(-0.0575383 -0.0396252 -5.27744e-20)
(-0.0591535 -0.0443072 4.98209e-20)
(-0.0611001 -0.0488656 -3.70468e-20)
(-0.00137766 0.00890892 1.40258e-19)
(-0.00465337 0.0193682 7.24658e-20)
(-0.00930476 0.0245174 8.15266e-20)
(-0.0144956 0.0259715 6.81397e-21)
(-0.0198119 0.0249151 4.50583e-20)
(-0.0250296 0.0221946 5.57912e-20)
(-0.0299836 0.0184015 -1.02434e-19)
(-0.0345642 0.0139364 -5.39768e-20)
(-0.0387092 0.00906295 -7.06777e-20)
(-0.0423928 0.00395211 7.48532e-20)
(-0.0456183 -0.00128457 -5.73254e-20)
(-0.0484129 -0.00657111 -7.41675e-20)
(-0.0508231 -0.0118513 -2.7335e-20)
(-0.052911 -0.017079 2.56503e-20)
(-0.0547512 -0.0222132 -7.06061e-21)
(-0.0564314 -0.0272167 1.01231e-20)
(-0.0580457 -0.0320554 1.18511e-19)
(-0.0596458 -0.0366954 -1.68927e-20)
(-0.0612224 -0.0410981 -1.20597e-19)
(-0.0631481 -0.0452655 1.58623e-19)
(-0.00189608 0.0100246 4.92779e-20)
(-0.0058602 0.02214 -6.87622e-20)
(-0.0109631 0.0284365 -1.72175e-20)
(-0.0164364 0.0306351 3.27719e-20)
(-0.0219182 0.0300024 9.22919e-20)
(-0.0272218 0.0274526 2.01569e-19)
(-0.0322075 0.0236362 1.97087e-19)
(-0.0367808 0.0190039 1.66503e-20)
(-0.0408883 0.0138625 1.20905e-19)
(-0.044508 0.00842083 1.85183e-19)
(-0.047644 0.00282433 -1.47546e-19)
(-0.0503224 -0.00282016 2.18793e-19)
(-0.0525888 -0.00842791 -5.01987e-20)
(-0.0545048 -0.0139266 1.23802e-20)
(-0.0561464 -0.0192517 5.18103e-20)
(-0.057605 -0.0243459 6.9041e-20)
(-0.0589811 -0.02916 -1.08981e-19)
(-0.0603329 -0.0336483 -9.11569e-20)
(-0.0616543 -0.0377622 -1.60706e-19)
(-0.0633491 -0.0415153 2.33777e-19)
(-0.00250011 0.0111234 -2.56925e-20)
(-0.00726522 0.0248792 -2.63222e-19)
(-0.0128731 0.0323249 -7.78738e-20)
(-0.01864 0.0352826 -1.89675e-19)
(-0.0242653 0.0350954 7.20376e-20)
(-0.0296064 0.0327414 -1.13073e-19)
(-0.034553 0.028926 3.95072e-20)
(-0.0390299 0.0241473 -2.39866e-19)
(-0.0429944 0.0187528 1.27036e-19)
(-0.0464293 0.0129872 -1.50915e-19)
(-0.0493401 0.00702839 -1.34129e-19)
(-0.0517518 0.0010137 -1.50912e-19)
(-0.0537087 -0.0049431 1.36683e-19)
(-0.0552715 -0.0107416 -1.23548e-19)
(-0.0565179 -0.0162906 1.71391e-19)
(-0.057544 -0.0215083 4.95841e-20)
(-0.0584596 -0.026325 1.23039e-19)
(-0.059331 -0.0306771 5.35617e-20)
(-0.0601557 -0.0344985 -2.1413e-19)
(-0.0613849 -0.0378125 3.48154e-19)
(-0.00318433 0.0121851 1.14333e-19)
(-0.00885101 0.0275382 8.33343e-21)
(-0.015002 0.0361191 4.70497e-20)
(-0.0210567 0.0398413 1.63736e-19)
(-0.0267863 0.0401172 -2.45359e-20)
(-0.0320985 0.0379825 2.6627e-19)
(-0.0369179 0.034193 1.18814e-19)
(-0.0411919 0.0292897 1.01135e-20)
(-0.0448907 0.0236576 3.04954e-19)
(-0.0480038 0.0175741 1.00175e-19)
(-0.0505379 0.0112475 4.77986e-20)
(-0.052517 0.00484397 1.50676e-19)
(-0.053983 -0.00149346 1.38386e-19)
(-0.0549954 -0.00763471 2.53012e-19)
(-0.0556322 -0.013458 -2.26206e-19)
(-0.0559953 -0.0188518 3.20485e-19)
(-0.0562054 -0.0237183 5.00637e-21)
(-0.0563392 -0.0279666 -4.09841e-19)
(-0.0563973 -0.0315016 5.32601e-19)
(-0.0568988 -0.0343529 2.21291e-19)
(-0.00393998 0.0131864 -6.72964e-20)
(-0.010593 0.030063 -1.22914e-19)
(-0.0173079 0.0397468 -2.55009e-19)
(-0.023627 0.0442292 -7.58847e-21)
(-0.0294035 0.0449813 4.40719e-20)
(-0.0346018 0.0430892 -3.25665e-19)
(-0.0391866 0.0393528 -2.41809e-19)
(-0.0431317 0.0343511 -3.4462e-20)
(-0.0464232 0.0285014 -3.0624e-19)
(-0.0490583 0.0221101 -2.12488e-19)
(-0.0510458 0.015412 -6.19184e-20)
(-0.0524083 0.00860017 -1.99798e-19)
(-0.0531843 0.00184519 -3.26819e-21)
(-0.0534302 -0.00469216 -2.66242e-19)
(-0.0532236 -0.0108562 1.11729e-19)
(-0.0526712 -0.0164989 -1.27562e-19)
(-0.051906 -0.0214852 9.84963e-20)
(-0.051017 -0.0256841 -1.24938e-19)
(-0.050008 -0.0289544 -3.58378e-19)
(-0.0494896 -0.0313255 -1.08929e-19)
(-0.00475478 0.0141021 -2.53561e-20)
(-0.0124592 0.0323946 -2.75214e-20)
(-0.0197402 0.0431291 2.14411e-19)
(-0.0262817 0.0483559 -3.49871e-19)
(-0.0320284 0.0495926 5.11986e-20)
(-0.0370078 0.0479666 -2.0289e-19)
(-0.0412296 0.0443145 9.52533e-20)
(-0.0446981 0.039247 4.30587e-19)
(-0.047418 0.0332085 -2.74606e-20)
(-0.0493963 0.0265287 -3.22299e-19)
(-0.0506449 0.0194645 5.76227e-20)
(-0.0511847 0.0122308 1.13689e-20)
(-0.0510497 0.0050232 -6.71946e-20)
(-0.0502915 -0.00196776 5.88456e-21)
(-0.0489849 -0.00855032 5.85593e-19)
(-0.0472401 -0.0145337 -8.2502e-20)
(-0.0452032 -0.0197348 -1.63722e-19)
(-0.0429767 -0.0239656 -2.94768e-19)
(-0.0405676 -0.027015 2.99989e-19)
(-0.0387068 -0.0288996 1.29566e-19)
(-0.00561292 0.0149066 1.2609e-19)
(-0.01441 0.0344725 -1.65614e-19)
(-0.0222392 0.0461831 2.34022e-19)
(-0.0289418 0.0521252 2.36044e-19)
(-0.0345625 0.0538485 2.17372e-19)
(-0.0391966 0.0525113 4.40909e-19)
(-0.0429038 0.0489791 2.85624e-19)
(-0.0457228 0.0438874 -6.14894e-19)
(-0.0476803 0.0377009 3.15139e-19)
(-0.0487955 0.0307668 2.48101e-19)
(-0.0490846 0.0233573 -4.17874e-21)
(-0.0485675 0.0157035 2.79197e-19)
(-0.0472732 0.00802038 2.18243e-19)
(-0.0452466 0.000524467 -1.17925e-19)
(-0.0425572 -0.0065568 4.01742e-19)
(-0.0393164 -0.0129855 -4.9771e-19)
(-0.0356828 -0.0185198 2.00292e-19)
(-0.0317733 -0.0228942 2.57435e-19)
(-0.0275985 -0.025795 -5.92385e-20)
(-0.0240435 -0.0272053 5.20276e-19)
(-0.00649555 0.0155755 2.55484e-19)
(-0.0163998 0.036237 1.35284e-20)
(-0.024738 0.0488253 -9.14557e-20)
(-0.031521 0.0554376 -9.62744e-20)
(-0.0368986 0.0576403 -4.48367e-19)
(-0.0410381 0.056612 6.3934e-20)
(-0.0440534 0.0532386 1.80359e-19)
(-0.0460214 0.0481729 -8.74993e-20)
(-0.0469941 0.0418937 7.22604e-20)
(-0.0470058 0.0347587 -1.839e-20)
(-0.0460798 0.0270482 -9.41285e-20)
(-0.044236 0.0190016 9.04508e-20)
(-0.041499 0.0108452 -3.91122e-19)
(-0.0379061 0.00281411 3.76041e-19)
(-0.0335192 -0.00483337 -3.26494e-19)
(-0.0284479 -0.0118121 1.00364e-19)
(-0.0228621 -0.0178131 2.31246e-19)
(-0.0168935 -0.0224716 -4.6832e-20)
(-0.0105557 -0.0253298 -1.58952e-19)
(-0.0049274 -0.0263029 -1.09031e-19)
(-0.00738171 0.0160873 -3.19545e-19)
(-0.018378 0.0376336 -2.09476e-20)
(-0.0271646 0.0509753 6.7362e-20)
(-0.033927 0.0581934 1.73124e-19)
(-0.038923 0.0608552 -2.44136e-19)
(-0.0423944 0.0601494 -2.13393e-19)
(-0.0445121 0.0569735 4.99055e-19)
(-0.0453946 0.0519913 -2.75823e-19)
(-0.0451232 0.0456891 -1.78456e-19)
(-0.0437504 0.0384286 -2.57182e-19)
(-0.0413098 0.030491 1.70619e-19)
(-0.0378245 0.0221149 -3.45937e-21)
(-0.0333163 0.0135275 -3.19425e-19)
(-0.0278159 0.00497141 -5.25197e-19)
(-0.0213765 -0.0032748 4.00672e-19)
(-0.0141037 -0.0108855 -3.2668e-19)
(-0.00617681 -0.0174829 4.62842e-19)
(0.00225792 -0.0225843 -1.29049e-19)
(0.0111861 -0.0255385 2.74493e-19)
(0.0192909 -0.0261408 -9.29549e-19)
(-0.00824964 0.016426 -6.5042e-19)
(-0.0202921 0.0386162 4.26056e-19)
(-0.0294441 0.05256 5.7682e-20)
(-0.0360643 0.0602964 1.1297e-20)
(-0.0405176 0.0633794 -2.62786e-19)
(-0.043121 0.0629977 3.86632e-19)
(-0.0441044 0.0600535 4.20409e-20)
(-0.0436308 0.055215 -7.93299e-20)
(-0.0418133 0.0489711 -2.56897e-19)
(-0.0387271 0.041682 2.77465e-19)
(-0.0344198 0.0336234 7.06596e-19)
(-0.0289221 0.0250248 -1.55571e-19)
(-0.0222574 0.0161031 3.55142e-19)
(-0.0144529 0.00709388 -4.20392e-19)
(-0.0055549 -0.00172023 -4.05151e-19)
(0.00433569 -0.00998906 2.4247e-19)
(0.0150309 -0.0172757 4.02882e-19)
(0.0263702 -0.0229708 -1.30863e-18)
(0.0383442 -0.0261787 1.52468e-19)
(0.0493525 -0.026504 2.08381e-19)
(-0.00907844 0.016582 4.8232e-19)
(-0.02209 0.0391507 1.59745e-19)
(-0.0315014 0.0535178 8.26131e-19)
(-0.0378356 0.0616589 4.2721e-20)
(-0.041561 0.0651023 -9.19521e-20)
(-0.0430683 0.065029 -4.38758e-19)
(-0.0426467 0.062339 3.72753e-19)
(-0.0405055 0.0577007 6.72138e-19)
(-0.0367927 0.0516019 4.4869e-19)
(-0.0316092 0.0443981 3.26142e-19)
(-0.0250217 0.0363552 2.82779e-19)
(-0.017074 0.0276873 -5.05278e-19)
(-0.00779787 0.0185915 -1.58392e-19)
(0.00277638 0.00928159 -1.1836e-19)
(0.0146036 2.38261e-05 1.26276e-18)
(0.0275844 -0.00883212 -2.89726e-21)
(0.0415205 -0.0168156 -3.16791e-19)
(0.0562353 -0.0232011 -1.00966e-19)
(0.0717366 -0.0268069 9.09476e-19)
(0.086103 -0.0269586 1.17539e-19)
(-0.0098498 0.0165536 -2.31974e-20)
(-0.0237228 0.0392178 -4.56358e-19)
(-0.0332631 0.0538032 -6.79009e-19)
(-0.0391431 0.0622068 -1.89234e-19)
(-0.0419277 0.0659232 1.04754e-19)
(-0.0420786 0.0661193 2.21969e-20)
(-0.0399436 0.0636885 5.99336e-19)
(-0.0357788 0.059296 -7.43198e-19)
(-0.0297685 0.0534265 -2.83171e-19)
(-0.0220428 0.0464301 -5.73022e-19)
(-0.0126921 0.0385622 -4.89558e-19)
(-0.00178027 0.0300196 -4.36144e-19)
(0.0106438 0.0209739 1.09247e-19)
(0.0245359 0.0116062 -1.42856e-19)
(0.0398412 0.00214619 6.13186e-19)
(0.0564532 -0.00708742 -3.34467e-19)
(0.0741558 -0.0156311 -1.05724e-18)
(0.0927499 -0.0226817 -2.14533e-19)
(0.11228 -0.026755 5.23778e-19)
(0.130495 -0.0268043 -4.53167e-19)
(-0.0105495 0.0163476 -7.68461e-20)
(-0.0251464 0.0388146 5.60219e-19)
(-0.0346576 0.0533901 -7.13946e-19)
(-0.0398856 0.0618861 1.64733e-19)
(-0.0414837 0.0657597 -3.40383e-19)
(-0.0399803 0.0661601 7.59284e-19)
(-0.0357799 0.0639707 -5.43546e-19)
(-0.0291845 0.0598518 6.23114e-19)
(-0.0204156 0.0542852 -5.92285e-19)
(-0.00963478 0.047617 2.53708e-19)
(0.00303892 0.0400949 -1.22674e-19)
(0.017514 0.0319014 -3.11092e-19)
(0.0337136 0.023184 -3.86465e-19)
(0.0515653 0.0140872 3.85286e-19)
(0.0709876 0.00479149 -3.23868e-19)
(0.0918497 -0.00444316 -7.11206e-19)
(0.113903 -0.0132097 7.41088e-19)
(0.136908 -0.0206964 -9.47749e-19)
(0.160973 -0.0251434 4.26571e-19)
(0.183568 -0.0250491 1.27855e-20)
(-0.0111682 0.0159786 -7.02384e-19)
(-0.026322 0.0379553 -7.5705e-19)
(-0.0356131 0.0522747 8.70929e-20)
(-0.0399539 0.0606687 -7.30084e-19)
(-0.0400778 0.0645574 -6.5457e-20)
(-0.0365753 0.0650715 -5.37874e-19)
(-0.0299044 0.0630828 -1.23732e-19)
(-0.0204112 0.0592458 -3.62649e-19)
(-0.0083545 0.0540404 2.56575e-21)
(0.00607063 0.0478122 -1.59578e-19)
(0.0227119 0.0408069 1.18678e-20)
(0.041442 0.0332004 -4.62119e-19)
(0.0621433 0.0251242 5.11589e-19)
(0.084697 0.0166931 -7.27501e-19)
(0.108971 0.00803812 2.59087e-19)
(0.134786 -0.000653942 1.04859e-20)
(0.161832 -0.00907559 -4.14361e-19)
(0.189798 -0.0164959 1.02922e-18)
(0.218874 -0.0209609 -2.45973e-19)
(0.246417 -0.0204561 -1.5865e-19)
(-0.0117013 0.0154674 7.88772e-19)
(-0.0272139 0.0366687 4.2516e-19)
(-0.0360524 0.0504765 3.95348e-19)
(-0.0392223 0.0585573 5.88594e-20)
(-0.0375293 0.0623004 5.34541e-19)
(-0.0316219 0.0628188 7.71721e-19)
(-0.0220079 0.0609725 6.33301e-19)
(-0.00907561 0.0574102 5.70367e-20)
(0.00687929 0.0526117 4.6616e-19)
(0.025626 0.046926 7.22173e-19)
(0.0469734 0.0406039 -1.88235e-19)
(0.0707485 0.0338246 3.15791e-19)
(0.0967777 0.0267176 2.55067e-19)
(0.124874 0.0193834 2.60439e-19)
(0.154826 0.0119179 1.55297e-18)
(0.18637 0.00444096 -5.82755e-19)
(0.219102 -0.00285979 -3.55523e-20)
(0.252581 -0.00942336 6.7988e-19)
(0.287062 -0.0132303 -3.85889e-19)
(0.320116 -0.0116879 1.89323e-19)
(-0.0121475 0.014838 -6.38067e-19)
(-0.0277852 0.0349951 4.07827e-20)
(-0.0358855 0.0480372 -5.09604e-19)
(-0.0375365 0.0555892 -6.63696e-20)
(-0.0336118 0.0590195 3.73449e-19)
(-0.024814 0.059427 -1.11282e-18)
(-0.0116982 0.0576604 -1.59381e-21)
(0.00530692 0.0543631 5.19488e-19)
(0.025868 0.0500162 4.89866e-19)
(0.0497141 0.0449755 -2.15345e-19)
(0.0766071 0.0395031 7.17938e-20)
(0.106315 0.0337919 1.66011e-19)
(0.138588 0.0279846 -7.84088e-20)
(0.173145 0.0221887 -8.88458e-19)
(0.209657 0.0164927 2.24834e-19)
(0.247729 0.0109799 6.23009e-19)
(0.286813 0.00573515 -8.8932e-19)
(0.326267 0.00109781 4.33304e-19)
(0.36634 -0.000967965 1.16504e-19)
(0.405297 0.0028677 5.85116e-19)
(-0.0125058 0.0141144 -9.3925e-20)
(-0.0279915 0.0329814 -4.46088e-19)
(-0.0349998 0.0450177 2.05285e-19)
(-0.0347017 0.0518365 1.17279e-21)
(-0.0280376 0.0547982 -8.94967e-19)
(-0.0157634 0.0549922 1.39514e-19)
(0.00152017 0.0532579 -2.68216e-20)
(0.0233432 0.0502333 1.81666e-19)
(0.0493298 0.0464009 -8.32876e-19)
(0.0791604 0.0421245 -5.95443e-20)
(0.112536 0.0376805 -1.97724e-19)
(0.149146 0.0332819 1.74486e-19)
(0.188643 0.0290965 5.94049e-19)
(0.230622 0.0252615 -9.17707e-20)
(0.274599 0.0218957 3.62589e-20)
(0.319989 0.0191043 2.34301e-19)
(0.366012 0.0169509 -5.8831e-20)
(0.4117 0.0156393 4.77421e-19)
(0.457063 0.0171586 -2.7628e-19)
(0.501329 0.0257921 -4.31733e-19)
(-0.0127714 0.0133167 8.73248e-20)
(-0.0277725 0.0306746 2.14714e-20)
(-0.0332502 0.041493 1.78786e-19)
(-0.0304709 0.0474038 4.37837e-19)
(-0.0204468 0.049773 2.45954e-19)
(-0.00398921 0.0496869 2.58098e-20)
(0.0182526 0.0479764 -2.94293e-19)
(0.0457603 0.0452737 7.52154e-20)
(0.0781032 0.04206 3.98519e-19)
(0.114894 0.0387032 -6.7612e-19)
(0.155748 0.0354888 5.11225e-19)
(0.200253 0.0326443 -3.86156e-19)
(0.24794 0.0303599 3.28521e-19)
(0.298267 0.0288066 -7.10095e-19)
(0.350602 0.0281559 7.83256e-19)
(0.404199 0.0285916 -8.38149e-19)
(0.458088 0.0302919 -2.18468e-19)
(0.510988 0.0336429 6.84134e-19)
(0.562129 0.0410571 -2.31322e-19)
(0.6093 0.0571046 1.02842e-19)
(-0.012931 0.0124584 -6.59037e-20)
(-0.027044 0.0281172 6.21864e-19)
(-0.0304504 0.0375462 -2.55534e-21)
(-0.0245386 0.0424224 -3.86097e-19)
(-0.0104043 0.0441294 -2.59758e-19)
(0.0110777 0.0437557 4.76114e-19)
(0.039198 0.0421247 -1.88608e-19)
(0.073371 0.0398596 -2.37268e-20)
(0.113083 0.0374332 3.95429e-19)
(0.157842 0.0352057 -4.9092e-19)
(0.207133 0.0334541 5.43365e-20)
(0.260394 0.0323958 -6.41103e-19)
(0.316994 0.0322091 3.38338e-19)
(0.376237 0.0330544 -9.68484e-19)
(0.437375 0.0350999 1.54363e-18)
(0.499627 0.0385523 -2.84421e-19)
(0.562217 0.0437182 2.92933e-19)
(0.624551 0.0513952 -7.59513e-19)
(0.686718 0.0641609 8.39022e-21)
(0.740039 0.0806007 8.18801e-19)
(-0.0129586 0.0115442 -1.9924e-19)
(-0.0256907 0.0253429 1.71749e-19)
(-0.0263682 0.0332637 -6.34051e-19)
(-0.0165412 0.037044 9.38091e-19)
(0.00259131 0.0380931 -6.77551e-19)
(0.0300725 0.0375056 3.51841e-20)
(0.065107 0.0360959 -7.3248e-19)
(0.107005 0.0344714 5.24242e-19)
(0.155119 0.0330844 -7.45371e-20)
(0.208785 0.032268 -4.6402e-19)
(0.267286 0.0322628 -2.71705e-19)
(0.329829 0.0332373 2.87698e-19)
(0.395541 0.0353047 1.90213e-19)
(0.463496 0.0385385 -8.39569e-19)
(0.532744 0.0429868 3.03427e-19)
(0.602367 0.0486836 -4.46239e-19)
(0.671542 0.0556597 5.55673e-20)
(0.739686 0.0640595 -3.7159e-19)
(0.806991 0.0747325 1.40517e-19)
(0.867302 0.0859454 -5.41671e-19)
(-0.0128114 0.0105698 5.67223e-19)
(-0.0235625 0.022376 -3.43872e-19)
(-0.0207262 0.0287314 2.83237e-19)
(-0.00606565 0.0314335 -3.57617e-19)
(0.0190855 0.0319192 5.98956e-19)
(0.0536554 0.0312889 -1.01308e-20)
(0.096717 0.0303427 -7.3116e-20)
(0.147414 0.0296603 -5.42571e-20)
(0.204883 0.0296547 3.34496e-19)
(0.268201 0.0306056 5.70098e-19)
(0.336347 0.0326841 -3.36177e-19)
(0.408202 0.0359708 3.27943e-19)
(0.482569 0.0404724 5.98477e-19)
(0.558214 0.0461355 -4.18915e-19)
(0.633928 0.0528594 -8.46193e-19)
(0.708583 0.0605029 1.54402e-18)
(0.781197 0.0688833 -2.7534e-19)
(0.851 0.077797 -8.6953e-20)
(0.917728 0.0873638 9.2296e-19)
(0.977814 0.0979068 -2.04425e-19)
(-0.0124293 0.00952488 -9.21749e-19)
(-0.0204747 0.0192338 -6.13195e-19)
(-0.013208 0.0240346 -2.35297e-19)
(0.00733297 0.0257652 4.54298e-19)
(0.0396349 0.025882 -1.02655e-18)
(0.0824572 0.0254855 5.32475e-19)
(0.134669 0.0253486 6.76223e-20)
(0.195155 0.0260035 6.89249e-20)
(0.262732 0.0277959 -6.99408e-19)
(0.336101 0.0309176 -2.46811e-19)
(0.413835 0.0354306 -4.35562e-19)
(0.494404 0.0412888 4.21254e-19)
(0.576234 0.0483586 1.18714e-19)
(0.657771 0.0564392 2.35587e-20)
(0.737566 0.065281 5.4147e-19)
(0.814342 0.0745996 -5.51035e-19)
(0.887045 0.0840832 -2.19561e-20)
(0.954883 0.0934108 1.73755e-20)
(1.01741 0.102362 7.77863e-20)
(1.07322 0.11273 3.99629e-19)
(-0.0117351 0.00839597 2.93213e-19)
(-0.0162123 0.0159327 7.54451e-19)
(-0.0034706 0.0192624 6.05097e-19)
(0.0241077 0.0202222 -2.08823e-19)
(0.0647663 0.0202689 7.27429e-19)
(0.117017 0.0204872 -6.14456e-20)
(0.179422 0.0216003 -8.64012e-20)
(0.250485 0.0240613 5.16734e-20)
(0.328576 0.0281089 7.05775e-19)
(0.411904 0.0338026 4.15387e-19)
(0.498545 0.0410517 1.21736e-19)
(0.58652 0.0496464 8.06483e-21)
(0.673884 0.0592898 -7.99801e-19)
(0.758836 0.0696301 6.96032e-19)
(0.839804 0.0802903 1.17185e-19)
(0.915516 0.0908922 -1.95581e-19)
(0.985031 0.101073 -8.29254e-19)
(1.04776 0.110516 -6.62699e-20)
(1.10338 0.118869 3.19882e-19)
(1.15213 0.128715 -6.25375e-20)
(-0.0106374 0.00717178 -7.41515e-19)
(-0.0105379 0.0124962 3.10138e-19)
(0.00884008 0.014515 -1.51572e-18)
(0.044692 0.015001 6.21661e-19)
(0.0949337 0.0153785 -4.96029e-19)
(0.157719 0.0166885 3.6569e-19)
(0.231172 0.0195672 -5.69244e-19)
(0.31327 0.0243425 5.23592e-20)
(0.401801 0.0310944 -2.95501e-20)
(0.494384 0.039698 1.53654e-19)
(0.588562 0.0498664 2.20954e-19)
(0.681932 0.0611985 -4.17164e-19)
(0.772281 0.0732282 2.22052e-19)
(0.857714 0.0854713 2.0233e-19)
(0.936736 0.0974653 8.61943e-19)
(1.00829 0.108798 -3.77055e-19)
(1.07178 0.119128 -2.42982e-19)
(1.12699 0.12821 4.06744e-19)
(1.17401 0.135731 2.07909e-19)
(1.21399 0.144459 -4.05896e-19)
(-0.00903467 0.00584822 6.47942e-19)
(-0.00320288 0.0089653 6.2433e-19)
(0.0240702 0.00991426 1.80865e-19)
(0.069471 0.0103197 7.60893e-19)
(0.130477 0.0115244 3.74412e-19)
(0.204744 0.014481 -6.75735e-19)
(0.289795 0.0196852 1.02403e-18)
(0.382933 0.0272774 -5.04014e-19)
(0.481246 0.037117 5.03407e-19)
(0.581719 0.0488416 6.50596e-19)
(0.681397 0.0619344 -3.71975e-19)
(0.777577 0.0757948 7.08738e-20)
(0.867969 0.089808 3.9122e-19)
(0.950817 0.103402 2.7391e-19)
(1.02494 0.116091 6.24435e-19)
(1.08973 0.127499 -2.53494e-19)
(1.14509 0.137369 -3.40423e-20)
(1.19134 0.145571 3.80894e-19)
(1.22905 0.151937 -8.37668e-20)
(1.25986 0.159051 -5.24396e-22)
(-0.00682019 0.00443295 -3.34153e-19)
(0.00604091 0.00540753 -1.22758e-18)
(0.0425387 0.0056142 2.89404e-19)
(0.0987524 0.00642621 -2.20482e-19)
(0.171583 0.00903756 -5.0977e-19)
(0.25802 0.014249 -3.65072e-19)
(0.354813 0.0223423 -2.25413e-19)
(0.458448 0.0331954 5.4709e-19)
(0.565255 0.0463811 -3.24837e-19)
(0.671618 0.0612567 -3.33751e-19)
(0.774224 0.0770635 -4.19287e-19)
(0.870288 0.0930246 -6.89774e-20)
(0.957711 0.108427 -4.84403e-20)
(1.03514 0.122683 -9.57994e-19)
(1.10194 0.135358 4.58858e-19)
(1.15812 0.146181 -6.03892e-19)
(1.20418 0.155036 1.83708e-19)
(1.24099 0.161933 -1.40479e-18)
(1.2696 0.166893 4.24561e-19)
(1.29184 0.172129 5.23441e-19)
(-0.00388695 0.00294872 -8.40958e-20)
(0.0174281 0.0019242 5.9693e-19)
(0.0645168 0.00180919 3.84253e-20)
(0.13274 0.00360417 9.22697e-20)
(0.218257 0.00826682 -1.87606e-19)
(0.317201 0.0163605 -3.47342e-21)
(0.425383 0.0278621 -4.9041e-21)
(0.538382 0.0423051 -1.13486e-19)
(0.651788 0.058918 4.0325e-19)
(0.76153 0.0767587 1.55109e-19)
(0.864179 0.09485 7.03646e-19)
(0.957167 0.112297 -1.90791e-19)
(1.03888 0.12837 1.32476e-19)
(1.1086 0.14255 -1.60063e-20)
(1.16643 0.154532 3.65072e-19)
(1.21304 0.164207 2.20142e-19)
(1.24956 0.171628 5.22465e-19)
(1.27732 0.176956 -8.40179e-19)
(1.29771 0.180383 1.04712e-18)
(1.3126 0.183721 -3.30878e-19)
(-0.000132149 0.00143525 -7.75407e-19)
(0.0311673 -0.00134547 -2.43009e-19)
(0.0902085 -0.00126259 1.89259e-19)
(0.171506 0.00217232 1.19477e-19)
(0.270292 0.00957062 1.23522e-19)
(0.38165 0.021151 1.24381e-19)
(0.500323 0.0364833 -3.1275e-19)
(0.620973 0.0546779 -1.28427e-19)
(0.738585 0.0745863 4.02695e-20)
(0.848889 0.0949858 -3.81367e-19)
(0.948668 0.114744 -1.716e-19)
(1.03589 0.132941 1.03396e-18)
(1.1097 0.148929 -2.67453e-19)
(1.17019 0.162342 -3.63725e-19)
(1.21825 0.173067 -1.69253e-19)
(1.25521 0.181191 1.18998e-19)
(1.28269 0.186937 1.40763e-19)
(1.30235 0.190601 -6.74589e-19)
(1.31579 0.192507 9.66805e-19)
(1.3248 0.194102 -8.35649e-19)
(0.00453855 -5.03312e-05 -8.67661e-20)
(0.047428 -0.00422408 2.47027e-20)
(0.11973 -0.00332162 -3.23561e-20)
(0.214971 0.00247609 4.68647e-19)
(0.327254 0.013301 2.64562e-20)
(0.450446 0.0289022 1.7226e-19)
(0.578166 0.0483382 -3.59017e-19)
(0.704259 0.0702406 -1.29159e-20)
(0.823365 0.0930904 4.97414e-19)
(0.931364 0.115449 6.88261e-20)
(1.02561 0.136133 -4.30803e-19)
(1.10492 0.154306 -3.81639e-20)
(1.16935 0.169502 -3.49247e-19)
(1.2199 0.181579 3.49068e-19)
(1.25817 0.19065 4.78426e-19)
(1.28606 0.196995 -5.23767e-20)
(1.30551 0.200991 -6.27997e-20)
(1.31835 0.203034 1.90676e-19)
(1.32622 0.203529 -6.06549e-19)
(1.33076 0.203632 5.36325e-19)
(0.0102069 -0.00143413 8.82824e-20)
(0.0663287 -0.00649945 -5.66242e-19)
(0.153092 -0.00405548 1.51316e-19)
(0.262881 0.00487171 -4.71723e-19)
(0.388479 0.0197805 1.62529e-19)
(0.522422 0.0398163 -6.02751e-19)
(0.65725 0.063438 2.43228e-19)
(0.786231 0.088782 -7.77726e-20)
(0.904022 0.114017 -3.31942e-21)
(1.00706 0.137598 7.86614e-20)
(1.0936 0.158417 -2.85192e-19)
(1.16352 0.175839 -4.05407e-19)
(1.21787 0.189655 -8.21563e-20)
(1.25849 0.199987 -3.69097e-20)
(1.28759 0.207174 -9.308e-20)
(1.30741 0.211671 -2.997e-20)
(1.32009 0.213969 -8.97986e-20)
(1.32744 0.214522 -7.74732e-20)
(1.33104 0.213774 -2.27092e-19)
(1.33232 0.212657 3.57577e-19)
(0.0169379 -0.00262717 2.10069e-19)
(0.0879242 -0.00793121 -2.33502e-19)
(0.190184 -0.00313251 5.03062e-19)
(0.314803 0.00970484 -2.17812e-19)
(0.453088 0.0292763 5.82138e-19)
(0.596216 0.0539957 9.09511e-21)
(0.735833 0.0816692 2.92171e-19)
(0.864989 0.109976 -7.90096e-20)
(0.978796 0.136883 3.25419e-19)
(1.07463 0.160884 2.27256e-20)
(1.15192 0.181078 7.68544e-19)
(1.21168 0.197126 -5.28894e-19)
(1.25593 0.209126 7.1787e-20)
(1.2872 0.217467 1.35816e-19)
(1.30812 0.222693 6.99422e-19)
(1.32112 0.225391 -2.50757e-19)
(1.32831 0.22612 -4.93111e-20)
(1.33142 0.225356 -2.5728e-19)
(1.33186 0.223549 -2.58584e-20)
(1.33086 0.221461 1.27889e-19)
(0.0247752 -0.00352771 -9.98042e-20)
(0.112196 -0.00825989 2.89768e-19)
(0.230762 -0.000218951 -2.98517e-19)
(0.370125 0.0172867 1.17036e-19)
(0.520017 0.0419768 -1.41598e-19)
(0.670355 0.071431 5.17515e-19)
(0.812215 0.102804 -7.28101e-20)
(0.938884 0.133418 1.76233e-19)
(1.04638 0.161194 -1.04556e-19)
(1.13333 0.184817 -3.25246e-21)
(1.20048 0.203715 1.17309e-19)
(1.24996 0.217906 -9.08351e-20)
(1.28463 0.227808 2.34655e-19)
(1.30751 0.234057 -1.17391e-19)
(1.32143 0.237355 -5.09423e-19)
(1.32885 0.238374 5.04761e-19)
(1.33175 0.2377 -2.25541e-19)
(1.3317 0.235796 1.79699e-19)
(1.32987 0.233101 3.08694e-19)
(1.3273 0.230245 1.26335e-19)
(0.033737 -0.00402426 2.4881e-19)
(0.139041 -0.00721788 -5.13037e-19)
(0.274449 0.00500221 9.78229e-20)
(0.428071 0.0278716 -7.13854e-20)
(0.588073 0.0579749 -2.89244e-19)
(0.74335 0.0920019 -2.26693e-19)
(0.884852 0.126525 -4.48618e-20)
(1.00661 0.158666 -4.0282e-19)
(1.10594 0.18648 -2.47139e-20)
(1.18294 0.208995 -7.46132e-20)
(1.23968 0.226049 -2.01563e-19)
(1.27929 0.238047 -4.49349e-20)
(1.30525 0.24571 -1.53192e-19)
(1.32086 0.249872 -2.53604e-19)
(1.329 0.251345 2.58283e-19)
(1.33201 0.25084 3.45073e-20)
(1.33167 0.248932 6.86909e-20)
(1.3293 0.246048 -2.93605e-19)
(1.32589 0.242609 -8.00997e-21)
(1.32229 0.239136 -4.47769e-19)
(0.0438116 -0.00399924 2.70961e-19)
(0.168272 -0.00454163 1.81162e-19)
(0.320733 0.0128124 -2.93469e-19)
(0.487733 0.0416379 4.57983e-19)
(0.655996 0.0772598 -4.98312e-20)
(0.813782 0.115489 1.71136e-19)
(0.952447 0.152455 5.92798e-20)
(1.06725 0.18528 2.09176e-19)
(1.15711 0.212337 -1.63843e-19)
(1.22368 0.233115 5.43659e-20)
(1.27025 0.247916 -5.19961e-20)
(1.30075 0.25752 -2.23371e-20)
(1.31906 0.262909 4.3195e-20)
(1.32858 0.265063 -7.89761e-20)
(1.33209 0.264851 -2.39496e-20)
(1.3317 0.26298 -7.34212e-20)
(1.32896 0.259989 -1.1889e-19)
(1.32495 0.256258 7.69607e-20)
(1.32047 0.252187 -1.04076e-19)
(1.3162 0.248197 4.5058e-19)
(0.0549547 -0.00333325 -1.34666e-19)
(0.199609 1.56146e-05 -3.82954e-19)
(0.368988 0.0234401 -5.0968e-20)
(0.548109 0.0586753 -1.4381e-20)
(0.722531 0.0997195 -1.72038e-19)
(0.880385 0.141594 -2.82572e-19)
(1.014 0.180189 9.22227e-20)
(1.12027 0.212849 -1.26721e-19)
(1.19991 0.23843 -1.4137e-19)
(1.25606 0.256968 7.85722e-20)
(1.29308 0.269237 -5.9183e-20)
(1.31545 0.276359 -1.1915e-19)
(1.32725 0.279517 -3.55449e-21)
(1.33182 0.279781 8.07206e-20)
(1.3317 0.27803 -8.14846e-20)
(1.32876 0.274939 1.13225e-19)
(1.32428 0.270991 3.06877e-20)
(1.31914 0.266513 7.62214e-20)
(1.31396 0.261891 1.47117e-19)
(1.30926 0.257445 -1.25834e-19)
(0.0670868 -0.00190985 1.28311e-19)
(0.23269 0.00667108 -1.0707e-20)
(0.418488 0.0370469 5.82232e-20)
(0.608151 0.078979 -7.85316e-20)
(0.78649 0.12515 6.86319e-21)
(0.942099 0.169966 2.72768e-19)
(1.06881 0.209323 -1.78802e-19)
(1.16548 0.241011 7.57172e-20)
(1.23463 0.264502 6.6726e-20)
(1.28079 0.280421 -1.86416e-19)
(1.30911 0.289994 1.74871e-19)
(1.32444 0.294629 1.67242e-21)
(1.33085 0.295648 -1.22348e-19)
(1.33147 0.294156 1.47314e-19)
(1.32858 0.291006 -5.81615e-20)
(1.32376 0.286817 4.43806e-20)
(1.31806 0.282009 -4.97505e-20)
(1.31216 0.276855 -2.00293e-20)
(1.30654 0.271735 -1.71786e-19)
(1.30159 0.266862 5.2646e-20)
(0.0800933 0.000379354 -4.28325e-20)
(0.267072 0.0156006 1.15837e-19)
(0.468439 0.0537167 1.82201e-20)
(0.666815 0.10245 7.59175e-20)
(0.846807 0.153273 3.63458e-20)
(0.998096 0.200218 1.70603e-20)
(1.11648 0.239469 9.61943e-20)
(1.20295 0.269454 -1.15964e-20)
(1.26177 0.290358 4.23023e-20)
(1.29863 0.303398 6.77537e-20)
(1.31927 0.310205 3.25894e-20)
(1.32864 0.312404 2.3354e-20)
(1.33068 0.311399 9.45349e-20)
(1.32823 0.308284 -9.14309e-20)
(1.32328 0.303856 1.95774e-20)
(1.31712 0.298667 -1.82266e-20)
(1.31058 0.293067 2.82688e-20)
(1.3042 0.287287 2.36342e-20)
(1.29832 0.281699 4.90197e-20)
(1.29324 0.276406 1.97651e-21)
(0.0938257 0.00362956 2.54325e-20)
(0.302253 0.0269285 2.32061e-20)
(0.518013 0.0734497 -3.22053e-20)
(0.723106 0.128901 2.01316e-20)
(0.902573 0.183748 1.13793e-20)
(1.04778 0.231957 -3.54539e-20)
(1.15686 0.270268 1.16634e-20)
(1.23294 0.297918 2.16839e-21)
(1.28192 0.315853 2.00567e-20)
(1.31038 0.325855 -5.38257e-20)
(1.32437 0.329895 -1.56053e-22)
(1.32883 0.329749 1.48382e-20)
(1.3274 0.326844 -1.1827e-20)
(1.32263 0.322226 1.19749e-20)
(1.31617 0.31662 3.11253e-20)
(1.30909 0.310502 -1.76689e-20)
(1.30201 0.304158 4.94877e-21)
(1.29535 0.297779 1.9275e-20)
(1.28935 0.291739 -3.1675e-20)
(1.28423 0.286017 1.52544e-20)
(0.108105 0.00791789 7.02092e-20)
(0.337681 0.0407191 -3.83472e-20)
(0.566373 0.0961609 4.52568e-20)
(0.776113 0.158068 -3.36956e-20)
(0.953054 0.216195 -1.51158e-20)
(1.0908 0.264785 4.61043e-21)
(1.18998 0.301392 -1.48203e-20)
(1.25587 0.326183 5.32351e-20)
(1.29571 0.340876 -4.43232e-20)
(1.31674 0.347766 1.04248e-20)
(1.32514 0.349088 -7.74908e-21)
(1.32563 0.346706 -5.04009e-20)
(1.32153 0.34202 4.88655e-20)
(1.31504 0.336004 1.85765e-20)
(1.30753 0.329299 -1.84609e-20)
(1.29983 0.322304 4.32887e-20)
(1.29244 0.315244 -6.63225e-22)
(1.28565 0.308282 -4.1846e-20)
(1.27963 0.301793 3.09205e-20)
(1.27455 0.295627 9.73459e-21)
(0.122726 0.0132992 -2.46363e-20)
(0.372777 0.0569723 7.12022e-20)
(0.612712 0.121683 8.24788e-20)
(0.825037 0.18962 -3.9019e-20)
(0.997699 0.250208 6.77766e-20)
(1.12695 0.298319 1.07335e-19)
(1.21605 0.332545 -5.98973e-21)
(1.27221 0.354062 -1.84935e-20)
(1.30377 0.365336 9.09861e-20)
(1.31839 0.369104 4.43834e-20)
(1.32217 0.367794 -8.05416e-21)
(1.31953 0.363292 6.61783e-20)
(1.31342 0.356936 -7.09293e-20)
(1.30572 0.349609 1.10464e-19)
(1.29751 0.341863 -1.84061e-20)
(1.28946 0.334025 5.27271e-20)
(1.28193 0.326267 9.48439e-21)
(1.27513 0.31873 3.75892e-20)
(1.26917 0.311789 -3.57512e-20)
(1.26419 0.305158 8.70753e-21)
(0.137461 0.0198021 -3.82979e-20)
(0.406949 0.07562 8.98234e-20)
(0.656273 0.149773 6.69099e-20)
(0.869209 0.223176 -1.01812e-20)
(1.03612 0.285366 1.04705e-19)
(1.15622 0.332189 -7.88242e-20)
(1.23535 0.363458 -6.16611e-21)
(1.28245 0.38139 6.91691e-20)
(1.30668 0.38915 2.18551e-20)
(1.31588 0.389838 3.0832e-20)
(1.31595 0.385999 -4.55911e-20)
(1.31091 0.379492 1.18921e-19)
(1.30337 0.371565 2.22216e-20)
(1.29485 0.362999 -1.0536e-19)
(1.28623 0.354257 1.54092e-19)
(1.27802 0.345599 -1.81711e-19)
(1.27049 0.337152 -8.33766e-20)
(1.26378 0.329042 1.39306e-20)
(1.25795 0.321642 8.07536e-20)
(1.25312 0.314528 -1.52713e-19)
(0.152069 0.0274267 -8.5147e-20)
(0.439619 0.0965268 -2.01344e-19)
(0.696374 0.180117 -1.74764e-19)
(0.908095 0.258314 -2.37548e-19)
(1.0681 0.321242 -1.35207e-19)
(1.17872 0.366042 -2.80259e-19)