/*--------------------------------*- C++ -*----------------------------------*\
  =========                 |
  \\      /  F ield         | OpenFOAM: The Open Source CFD Toolbox
   \\    /   O peration     | Website:  https://openfoam.org
    \\  /    A nd           | Version:  6.0
     \\/     M anipulation  |
\*---------------------------------------------------------------------------*/
FoamFile
{
    version     2.0;
    format      ascii;
    class       volVectorField;
    location    "84";
    object      U;
}
// * * * * * * * * * * * * * * * * * * * * * * * * * * * * * * * * * * * * * //

dimensions      [0 1 -1 0 0 0 0];

internalField   nonuniform List<vector> 
4000
(
(0.123842 0.00885703 8.5257e-20)
(0.387119 0.0449478 -4.66691e-20)
(0.64639 0.104309 5.51494e-20)
(0.878697 0.168286 -4.10698e-20)
(1.06827 0.225728 -1.83861e-20)
(1.20974 0.2712 5.62184e-21)
(1.30635 0.303166 -1.79722e-20)
(1.36618 0.322766 6.44825e-20)
(1.39871 0.33246 -5.35967e-20)
(1.41259 0.334965 1.25638e-20)
(1.41468 0.332669 -9.36645e-21)
(1.4099 0.327404 -6.07485e-20)
(1.40148 0.320451 5.8871e-20)
(1.39144 0.312645 2.23757e-20)
(1.38095 0.304497 -2.21695e-20)
(1.37068 0.296307 5.20333e-20)
(1.36099 0.288227 -8.01982e-22)
(1.35208 0.280379 -5.02337e-20)
(1.34405 0.273103 3.70604e-20)
(1.33694 0.26615 1.17385e-20)
(0.139873 0.0148814 -2.98878e-20)
(0.424621 0.0629659 8.66851e-20)
(0.694379 0.132109 1.00517e-19)
(0.927376 0.202063 -4.7536e-20)
(1.11052 0.261628 8.25654e-20)
(1.24181 0.30629 1.30499e-19)
(1.32741 0.335722 -7.2544e-21)
(1.37733 0.352104 -2.23499e-20)
(1.40193 0.358595 1.10242e-19)
(1.41002 0.358274 5.37307e-20)
(1.40818 0.353646 -9.72121e-21)
(1.40091 0.346524 8.00347e-20)
(1.391 0.338106 -8.55955e-20)
(1.38014 0.329132 1.33622e-19)
(1.36924 0.320036 -2.22018e-20)
(1.35881 0.311057 6.38609e-20)
(1.34913 0.302306 1.15421e-20)
(1.34033 0.293894 4.54279e-20)
(1.33243 0.286169 -4.31525e-20)
(1.32551 0.278743 1.07145e-20)
(0.155858 0.0221166 -4.66203e-20)
(0.460691 0.0835057 1.09154e-19)
(0.738845 0.162545 8.15152e-20)
(0.970561 0.237856 -1.241e-20)
(1.14605 0.298687 1.27457e-19)
(1.26683 0.341783 -9.57543e-20)
(1.34186 0.368168 -7.40391e-21)
(1.38275 0.38107 8.40885e-20)
(1.40046 0.384279 2.67457e-20)
(1.40375 0.381157 3.73928e-20)
(1.39883 0.374267 -5.5155e-20)
(1.3897 0.365356 1.44657e-19)
(1.37878 0.355525 2.70285e-20)
(1.36742 0.345415 -1.27766e-19)
(1.35634 0.335383 1.87566e-19)
(1.34591 0.325615 -2.21049e-19)
(1.33634 0.316186 -1.0161e-19)
(1.32772 0.307202 1.70898e-20)
(1.32003 0.299011 9.82268e-20)
(1.31334 0.291083 -1.86902e-19)
(0.171541 0.0305467 -1.03306e-19)
(0.494747 0.106388 -2.44946e-19)
(0.779166 0.195257 -2.12887e-19)
(1.00784 0.275212 -2.89501e-19)
(1.17475 0.336464 -1.64637e-19)
(1.28502 0.377315 -3.41064e-19)
(1.35011 0.400237 4.33568e-20)
(1.38294 0.409476 -1.81428e-19)
(1.3948 0.409377 -1.99099e-20)
(1.39421 0.403508 2.98822e-20)
(1.38693 0.39443 -6.58534e-20)
(1.3765 0.383798 8.33517e-20)
(1.36496 0.372598 1.48098e-19)
(1.35337 0.361376 -2.07659e-19)
(1.34228 0.350417 3.42552e-20)
(1.33199 0.339858 9.71763e-20)
(1.32264 0.329744 1.62777e-19)
(1.31427 0.320181 -1.40386e-19)
(1.30684 0.311513 -6.73873e-21)
(1.30044 0.303063 1.65851e-19)
(0.186665 0.0401245 -1.9429e-19)
(0.526253 0.131373 5.35938e-19)
(0.814817 0.229837 -9.41649e-20)
(1.03892 0.313661 1.26117e-19)
(1.19666 0.374527 -1.23096e-19)
(1.29664 0.41254 3.79077e-19)
(1.35257 0.431678 -6.02341e-20)
(1.37832 0.437148 3.56805e-20)
(1.3853 0.433764 -1.88085e-20)
(1.38167 0.425226 5.95028e-20)
(1.37269 0.414043 3.85688e-20)
(1.36144 0.401757 4.99319e-20)
(1.34959 0.389233 -1.3967e-19)
(1.338 0.376922 2.06052e-19)
(1.32708 0.365046 -1.56848e-19)
(1.31704 0.353696 3.08006e-20)
(1.30798 0.342894 -1.01385e-19)
(1.29994 0.33275 2.21822e-20)
(1.29283 0.323595 2.52948e-20)
(1.28678 0.314609 -2.30904e-19)
(0.200977 0.0507719 1.31057e-20)
(0.554724 0.158165 -2.69556e-19)
(0.845383 0.265836 1.49638e-19)
(1.06364 0.35272 -5.2117e-19)
(1.21187 0.412447 2.5293e-19)
(1.302 0.447125 -4.34176e-19)
(1.34964 0.462245 -3.40771e-19)
(1.36931 0.463905 -1.32062e-20)
(1.37233 0.457298 -1.16706e-19)
(1.36641 0.446185 -3.65886e-19)
(1.35629 0.432986 -4.69167e-20)
(1.34462 0.41911 -3.55736e-19)
(1.33276 0.405303 6.37257e-20)
(1.32137 0.391928 -5.22806e-20)
(1.31075 0.379144 3.09851e-20)
(1.30107 0.367007 -2.45751e-19)
(1.2924 0.355518 1.05417e-20)
(1.28475 0.344793 4.80901e-20)
(1.27801 0.335146 -1.16949e-19)
(1.27236 0.325621 1.01356e-19)
(0.214238 0.0623816 -1.09647e-19)
(0.579746 0.186423 4.91473e-19)
(0.870554 0.302778 4.35407e-21)
(1.08194 0.391903 -4.27072e-19)
(1.22059 0.449809 3.24161e-19)
(1.30146 0.480749 1.37172e-19)
(1.34171 0.491703 2.71196e-20)
(1.35628 0.489569 -2.34765e-19)
(1.35619 0.479831 3.80742e-19)
(1.34864 0.466251 -2.27521e-19)
(1.33787 0.451127 7.95724e-20)
(1.32613 0.435728 3.87998e-19)
(1.31451 0.420682 -3.52782e-19)
(1.3035 0.406267 3.88743e-19)
(1.29331 0.392591 -2.53216e-19)
(1.28408 0.379674 -4.92553e-20)
(1.27587 0.367505 6.03819e-20)
(1.26868 0.356205 7.88322e-20)
(1.26238 0.346065 1.10199e-19)
(1.25721 0.336004 6.55443e-20)
(0.226228 0.0748188 4.39035e-20)
(0.600972 0.215767 -4.40982e-19)
(0.890124 0.34017 7.82274e-20)
(1.09386 0.430728 1.03154e-18)
(1.22304 0.486212 -9.46732e-20)
(1.29535 0.513106 2.89825e-19)
(1.32916 0.519821 1.81425e-19)
(1.33954 0.513958 2.90275e-20)
(1.33712 0.501208 -2.1486e-19)
(1.32855 0.485278 3.53155e-19)
(1.31757 0.468324 -4.36637e-20)
(1.30606 0.451469 5.50448e-19)
(1.29489 0.435228 2.15429e-19)
(1.28441 0.419804 1.3719e-19)
(1.27478 0.405254 -2.86766e-19)
(1.2661 0.391572 6.13977e-20)
(1.25843 0.378735 2.26121e-19)
(1.25176 0.36687 6.10543e-20)
(1.24596 0.356242 -2.7937e-19)
(1.24132 0.345661 -7.06459e-20)
(0.236749 0.087925 -2.44492e-19)
(0.618134 0.245788 7.90349e-19)
(0.903985 0.377511 -4.30958e-19)
(1.0995 0.468727 -3.99131e-19)
(1.21951 0.521273 -3.48378e-19)
(1.28405 0.543902 -2.96324e-19)
(1.31235 0.546374 -3.69458e-19)
(1.31941 0.53689 4.66676e-19)
(1.31536 0.521265 -3.38439e-19)
(1.30629 0.503112 -2.78883e-20)
(1.29547 0.484426 -1.18435e-21)
(1.28447 0.466184 -6.63203e-20)
(1.27395 0.448798 -1.74861e-19)
(1.26415 0.432398 -1.98956e-19)
(1.25519 0.417002 -1.06454e-20)
(1.24715 0.402574 -4.47962e-20)
(1.2401 0.389087 -1.14572e-19)
(1.23402 0.376672 -3.73222e-20)
(1.22878 0.365567 3.66754e-20)
(1.22475 0.354493 -2.53066e-19)
(0.245633 0.101521 4.282e-19)
(0.631041 0.276063 4.447e-19)
(0.912119 0.414303 -2.77535e-19)
(1.09906 0.505447 1.70321e-19)
(1.21033 0.55463 2.99448e-19)
(1.26793 0.57286 -6.50918e-20)
(1.29163 0.571146 7.3429e-20)
(1.29617 0.558182 8.71297e-20)
(1.29112 0.539838 1.45853e-19)
(1.28202 0.519593 -1.73599e-19)
(1.27169 0.499275 8.44969e-20)
(1.26143 0.479721 -6.26258e-20)
(1.25174 0.461242 2.72852e-19)
(1.24277 0.443908 1.25686e-19)
(1.2346 0.427696 -2.79782e-19)
(1.22729 0.41255 1.58011e-19)
(1.22093 0.398435 7.76995e-20)
(1.2155 0.385492 -1.51501e-19)
(1.21088 0.373927 4.07656e-19)
(1.20752 0.362399 -3.0511e-19)
(0.252742 0.115411 -3.1502e-19)
(0.639578 0.306155 -4.11846e-19)
(0.91459 0.450058 2.91578e-19)
(1.09277 0.540457 -2.68528e-19)
(1.19585 0.585941 -2.16788e-20)
(1.24735 0.599717 -3.05952e-19)
(1.26731 0.593926 2.49931e-19)
(1.27007 0.577654 4.82564e-19)
(1.26459 0.556759 -6.72252e-19)
(1.25585 0.53456 3.42093e-20)
(1.24631 0.512714 2.76694e-20)
(1.23701 0.491923 -1.42941e-19)
(1.22832 0.47241 9.46375e-20)
(1.22031 0.454188 -4.34188e-20)
(1.21304 0.437199 3.02666e-19)
(1.20656 0.421367 -3.26412e-19)
(1.20097 0.406653 -1.20585e-19)
(1.19626 0.393203 3.05551e-19)
(1.19233 0.3812 -4.7739e-19)
(1.18971 0.36927 3.01126e-19)
(0.257971 0.129389 6.58631e-19)
(0.643704 0.335629 5.88189e-19)
(0.911538 0.484308 -9.78797e-20)
(1.08094 0.573353 -1.31407e-20)
(1.17643 0.614888 -3.04579e-19)
(1.22267 0.624227 1.28686e-19)
(1.23971 0.614516 6.65949e-19)
(1.24136 0.595131 -5.88942e-19)
(1.23594 0.571863 3.87472e-19)
(1.22793 0.547853 -3.74644e-20)
(1.21944 0.524584 2.48193e-19)
(1.21129 0.502637 -5.40591e-20)
(1.20375 0.482152 1.54231e-19)
(1.19685 0.463093 2.11204e-19)
(1.19058 0.44537 -1.0869e-19)
(1.18502 0.428888 1.49429e-19)
(1.18027 0.413605 -2.27476e-19)
(1.17635 0.399672 5.74577e-19)
(1.17319 0.38725 -3.74402e-19)
(1.17139 0.374972 2.70539e-19)
(0.261251 0.143238 -3.28416e-19)
(0.643451 0.364061 -6.12939e-19)
(0.903168 0.516608 -4.23269e-19)
(1.0639 0.60376 -3.38772e-20)
(1.15246 0.641181 1.03885e-19)
(1.19426 0.646164 -5.82544e-20)
(1.20914 0.632728 -3.7912e-19)
(1.21027 0.610445 -1.73098e-19)
(1.20536 0.584992 -3.2659e-19)
(1.19839 0.559315 -1.78452e-19)
(1.19116 0.534733 8.74636e-20)
(1.18434 0.511711 -4.17455e-19)
(1.17811 0.490319 -1.08792e-19)
(1.17243 0.470478 -1.12366e-19)
(1.1673 0.452069 -3.48117e-19)
(1.16275 0.434976 1.56212e-19)
(1.15892 0.419155 -6.96299e-21)
(1.15585 0.404754 1.56537e-19)
(1.15353 0.391924 -6.61487e-20)
(1.15263 0.379352 -2.63129e-19)
(0.262547 0.156744 7.59659e-19)
(0.638912 0.391038 6.5965e-19)
(0.889743 0.546545 8.38822e-19)
(1.04202 0.631337 -8.6395e-20)
(1.12432 0.664554 -3.20877e-19)
(1.16248 0.665322 9.31845e-19)
(1.17589 0.64839 -4.84302e-19)
(1.17705 0.62344 5.50406e-19)
(1.17302 0.595995 -1.07034e-19)
(1.16735 0.568801 3.5459e-19)
(1.16157 0.543016 3.81501e-20)
(1.15624 0.519002 1.94471e-19)
(1.15145 0.49677 -4.5597e-20)
(1.14713 0.476204 2.10278e-19)
(1.14324 0.457156 -1.95177e-19)
(1.13982 0.439496 -7.39878e-24)
(1.13698 0.423166 9.67078e-20)
(1.13483 0.408309 1.67086e-19)
(1.13343 0.395072 -3.51867e-20)
(1.13346 0.382265 1.10175e-19)
(0.261859 0.169689 -2.36058e-19)
(0.630246 0.416174 -6.74132e-19)
(0.871577 0.573739 -4.1133e-19)
(1.01569 0.655776 -7.29094e-19)
(1.09244 0.684775 8.01998e-19)
(1.1277 0.681516 -5.93376e-19)
(1.14027 0.661346 3.85563e-19)
(1.14191 0.633974 -1.27806e-19)
(1.13909 0.604737 -1.79343e-19)
(1.13494 0.576177 -1.28839e-19)
(1.13078 0.549301 6.61354e-20)
(1.12706 0.524379 1.09623e-19)
(1.12383 0.501371 1.07846e-19)
(1.121 0.480132 -1.24641e-19)
(1.11848 0.460494 -1.15356e-19)
(1.11629 0.442307 3.68589e-19)
(1.11455 0.425499 -1.73507e-20)
(1.11338 0.410194 -1.82632e-19)
(1.11294 0.396565 -3.36662e-21)
(1.1139 0.383614 -6.28202e-20)
(0.259221 0.181867 1.07761e-18)
(0.617661 0.43911 5.12018e-19)
(0.849026 0.597849 4.76091e-19)
(0.985345 0.676808 -2.91222e-19)
(1.05721 0.701639 4.19425e-20)
(1.09026 0.694587 4.25986e-19)
(1.10255 0.67146 6.56298e-20)
(1.10508 0.641922 1.54434e-19)
(1.10374 0.611099 1.7808e-19)
(1.10129 0.581329 3.47908e-20)
(1.09889 0.553476 1.22105e-19)
(1.09688 0.527728 -5.58738e-21)
(1.09531 0.504006 -4.29806e-20)
(1.09407 0.48214 -2.13733e-19)
(1.09306 0.461947 4.343e-20)
(1.09224 0.443265 3.73507e-21)
(1.09169 0.426001 -1.09344e-21)
(1.09158 0.410253 1.39016e-20)
(1.09215 0.396246 -5.77163e-20)
(1.09412 0.383271 7.90235e-20)
(0.2547 0.193079 -7.91555e-19)
(0.601418 0.459519 -6.87742e-19)
(0.822481 0.618577 3.43766e-19)
(0.951409 0.6942 -4.36162e-19)
(1.01906 0.714972 -2.83016e-20)
(1.05052 0.704399 8.48761e-20)
(1.06303 0.678618 -7.69246e-20)
(1.0668 0.647181 -5.14294e-20)
(1.06715 0.614985 -1.69212e-19)
(1.06656 0.584164 -1.01266e-19)
(1.06599 0.555452 1.53354e-20)
(1.06577 0.528963 -1.51592e-19)
(1.06593 0.504582 3.98004e-20)
(1.06637 0.482125 -5.1133e-20)
(1.06699 0.461401 1.8098e-20)
(1.0677 0.44224 6.74231e-20)
(1.0685 0.424526 3.45919e-20)
(1.06956 0.408298 2.85384e-20)
(1.07129 0.393827 4.41704e-21)
(1.07457 0.380847 -3.29751e-20)
(0.248391 0.203142 7.71457e-19)
(0.581815 0.477112 1.16196e-20)
(0.792362 0.635665 -6.24163e-20)
(0.914338 0.707761 7.81037e-20)
(0.978391 0.724635 3.48952e-19)
(1.00885 0.710845 -2.3582e-19)
(1.02201 0.682728 1.56869e-19)
(1.02729 0.64967 -1.85264e-19)
(1.02952 0.61632 9.63726e-20)
(1.03087 0.584616 -6.07006e-20)
(1.03221 0.555166 3.80744e-20)
(1.0338 0.528019 1.81836e-20)
(1.03571 0.503028 -2.98875e-20)
(1.03789 0.479998 -1.05656e-21)
(1.04024 0.45874 1.94549e-20)
(1.04263 0.439095 -3.07423e-20)
(1.04497 0.420922 -2.76579e-21)
(1.04746 0.404114 -9.41788e-21)
(1.05079 0.388863 -6.99223e-21)
(1.05592 0.375606 3.24425e-21)
(0.240419 0.21189 -1.58605e-19)
(0.559187 0.491642 1.6445e-19)
(0.759114 0.6489 1.58046e-19)
(0.874592 0.717335 -2.42145e-19)
(0.935642 0.730519 1.36674e-19)
(0.96561 0.713844 -2.31257e-19)
(0.979777 0.683727 -9.19643e-21)
(0.986811 0.649336 -2.83344e-20)
(0.991045 0.615064 -2.62206e-20)
(0.994404 0.582655 8.14105e-21)
(0.997644 0.5526 -3.19822e-20)
(1.00103 0.524878 -3.51047e-20)
(1.00464 0.499308 3.90106e-21)
(1.0085 0.475676 -6.27166e-20)
(1.01257 0.453797 5.94094e-20)
(1.01671 0.433545 4.23175e-20)
(1.02079 0.41477 -2.38003e-20)
(1.0251 0.39712 2.68704e-21)
(1.03067 0.380551 7.76014e-20)
(1.0379 0.366595 -2.97449e-20)
(0.230929 0.219178 -5.58447e-20)
(0.5339 0.502899 1.48058e-19)
(0.723196 0.658114 -1.95403e-19)
(0.832639 0.722806 2.67046e-19)
(0.891233 0.732544 3.66429e-20)
(0.921158 0.713339 -1.14496e-19)
(0.936645 0.681572 -2.3033e-20)
(0.94561 0.646151 2.4459e-20)
(0.951941 0.611207 -1.96426e-20)
(0.957335 0.578302 2.15e-22)
(0.962455 0.547809 1.39167e-20)
(0.967547 0.51964 -6.14968e-21)
(0.972714 0.493556 4.02011e-20)
(0.978034 0.469293 -4.87765e-20)
(0.983542 0.446626 5.33152e-20)
(0.989157 0.425412 -1.053e-19)
(0.994785 0.405438 1.29587e-19)
(1.00094 0.386009 -1.14353e-19)
(1.00873 0.3668 -6.59972e-20)
(1.01697 0.351429 1.29744e-19)
(0.22009 0.224882 1.22028e-19)
(0.506337 0.510719 4.8859e-20)
(0.685081 0.663179 6.96135e-20)
(0.78895 0.724091 5.74687e-20)
(0.845589 0.730661 -6.06072e-20)
(0.875866 0.709298 1.66735e-20)
(0.892931 0.676242 -4.32008e-21)
(0.903973 0.640106 2.66046e-21)
(0.912467 0.604763 2.29144e-20)
(0.919907 0.571604 -5.00751e-20)
(0.926876 0.540906 7.9969e-20)
(0.933587 0.512521 -2.68603e-20)
(0.940136 0.486164 7.26243e-20)
(0.946598 0.461511 -1.13277e-19)
(0.95302 0.438252 2.43862e-19)
(0.959352 0.416124 -4.92143e-20)
(0.965623 0.394692 -1.38165e-20)
(0.972581 0.372605 1.78343e-19)
(0.981068 0.347792 -8.47591e-20)
(0.985717 0.322992 4.97991e-20)
(0.208085 0.228903 6.77919e-20)
(0.476899 0.514978 -2.1631e-19)
(0.645246 0.664009 -1.65172e-20)
(0.743995 0.721144 -5.42463e-20)
(0.799134 0.724845 1.37139e-20)
(0.830104 0.701706 -5.83853e-20)
(0.84896 0.667728 8.07591e-20)
(0.862194 0.631197 9.89572e-21)
(0.872902 0.595734 -1.22239e-20)
(0.882407 0.562578 5.23275e-21)
(0.891221 0.53193 4.87737e-20)
(0.899532 0.503616 8.95418e-20)
(0.907416 0.477349 5.1222e-20)
(0.914904 0.452827 -1.26864e-19)
(0.921977 0.429788 -4.28883e-20)
(0.928566 0.408035 1.72504e-21)
(0.934793 0.387293 3.03235e-20)
(0.941312 0.366827 6.65777e-21)
(0.948068 0.345874 3.03623e-19)
(0.95008 0.326689 -2.10318e-19)
(0.195105 0.231158 -6.06118e-20)
(0.445992 0.515589 7.18459e-20)
(0.604168 0.660556 -5.17317e-20)
(0.698238 0.713949 6.1872e-20)
(0.752288 0.715098 6.72723e-20)
(0.78424 0.69057 -1.12948e-19)
(0.805057 0.656034 1.21812e-19)
(0.820568 0.619427 -4.04817e-20)
(0.833529 0.584121 1.26109e-19)
(0.845112 0.551215 6.97897e-20)
(0.855785 0.520847 -2.7039e-19)
(0.865729 0.492816 -2.83408e-20)
(0.875027 0.466833 4.01932e-19)
(0.883713 0.442606 -4.98259e-19)
(0.89176 0.419879 4.62784e-19)
(0.899093 0.398447 1.66637e-19)
(0.905787 0.378013 -5.81384e-19)
(0.912285 0.357959 2.88309e-19)
(0.918411 0.337958 -5.60755e-20)
(0.920433 0.320586 6.9402e-20)
(0.181355 0.231594 -7.41738e-20)
(0.41403 0.512505 -9.01561e-20)
(0.562321 0.65281 6.20331e-20)
(0.652137 0.702522 -1.14033e-19)
(0.705461 0.701444 -3.92483e-19)
(0.738635 0.675915 -3.1395e-20)
(0.761545 0.641181 -1.26818e-19)
(0.779393 0.60481 -5.63616e-21)
(0.794626 0.569936 -2.95801e-19)
(0.808291 0.537532 -3.04625e-19)
(0.820818 0.507684 -2.20236e-19)
(0.832387 0.48018 -1.10879e-20)
(0.843093 0.454738 -5.36334e-19)
(0.852985 0.431089 -1.40476e-20)
(0.862065 0.409011 2.67699e-19)
(0.870299 0.388335 -2.6434e-19)
(0.877773 0.368831 -2.1141e-19)
(0.884846 0.350027 2.05027e-19)
(0.891332 0.331716 -1.45033e-19)
(0.894173 0.315915 2.85904e-20)
(0.16704 0.230177 1.06439e-19)
(0.381422 0.505718 8.20277e-20)
(0.52017 0.640798 -1.39146e-20)
(0.606139 0.686908 -1.15785e-19)
(0.659053 0.683935 2.19418e-19)
(0.693643 0.657783 4.07739e-19)
(0.718741 0.623201 -4.70515e-20)
(0.73896 0.58737 -1.26324e-21)
(0.756473 0.553188 7.29788e-20)
(0.772223 0.521517 1.93092e-19)
(0.786615 0.492401 2.90168e-19)
(0.79984 0.465618 -2.42991e-19)
(0.812006 0.440897 2.32069e-19)
(0.823182 0.41798 -8.69003e-20)
(0.833392 0.396659 2.79436e-19)
(0.842634 0.376775 -1.09643e-19)
(0.851024 0.358124 -2.81012e-19)
(0.858924 0.340337 1.65457e-19)
(0.86618 0.323336 -2.42742e-19)
(0.870113 0.308824 -2.74649e-19)
(0.152371 0.226895 8.24877e-20)
(0.348571 0.495255 1.32696e-19)
(0.478166 0.624581 -1.372e-19)
(0.560673 0.667186 -5.26019e-21)
(0.61345 0.662644 2.34655e-20)
(0.649605 0.636241 2.22009e-19)
(0.676947 0.602148 -3.21812e-19)
(0.699545 0.567144 3.05321e-19)
(0.719324 0.533905 -3.41296e-20)
(0.737142 0.503186 8.36701e-20)
(0.753392 0.474997 1.42317e-19)
(0.768277 0.449116 -2.721e-19)
(0.78193 0.425279 1.2554e-19)
(0.794444 0.403245 1.21883e-19)
(0.805871 0.382821 4.60535e-20)
(0.81624 0.363855 -2.3563e-19)
(0.825695 0.346158 7.93248e-19)
(0.834588 0.329414 -4.49533e-19)
(0.84276 0.313581 8.11869e-19)
(0.847829 0.30007 -5.22955e-20)
(0.137554 0.221758 7.12037e-20)
(0.31587 0.481177 3.44824e-19)
(0.436747 0.604254 1.31769e-19)
(0.516153 0.643458 2.53386e-19)
(0.569021 0.637672 7.29341e-20)
(0.606846 0.611374 -4.30655e-19)
(0.636457 0.578091 6.76231e-19)
(0.661414 0.544189 3.59758e-19)
(0.683426 0.512125 1.72565e-20)
(0.703282 0.482562 4.68024e-19)
(0.721366 0.45548 8.11854e-20)
(0.737901 0.430658 4.84375e-20)
(0.753043 0.40784 2.81179e-19)
(0.766911 0.386797 -1.07535e-19)
(0.779583 0.367346 -1.09493e-19)
(0.79112 0.349341 6.61577e-19)
(0.801691 0.332603 -5.50006e-19)
(0.811638 0.316858 2.01641e-20)
(0.820789 0.302086 7.00864e-19)
(0.827017 0.289448 -7.0411e-22)
(0.122792 0.214796 -7.67855e-19)
(0.283698 0.463577 -1.10264e-19)
(0.396328 0.579945 -1.67335e-19)
(0.472973 0.61586 -1.3353e-19)
(0.526118 0.609142 -3.53838e-19)
(0.565677 0.583289 1.20234e-19)
(0.597545 0.551121 -1.75926e-19)
(0.624816 0.51858 5.70362e-20)
(0.649008 0.48791 -2.55022e-19)
(0.670851 0.45969 -2.35142e-19)
(0.69073 0.43388 5.72398e-20)
(0.708888 0.410259 -3.90376e-19)
(0.725503 0.388582 3.17701e-19)
(0.74072 0.368633 -1.15737e-19)
(0.754642 0.350235 3.55325e-19)
(0.767358 0.333245 -7.67607e-19)
(0.779053 0.317495 -1.46781e-19)
(0.790052 0.302741 -2.77061e-19)
(0.800177 0.28897 -7.42276e-19)
(0.807547 0.277125 -1.20891e-19)
(0.108281 0.206057 1.21679e-19)
(0.252417 0.44258 -8.92585e-21)
(0.357306 0.551811 -2.05605e-19)
(0.431505 0.584552 7.38504e-20)
(0.485072 0.577203 -1.50365e-19)
(0.52639 0.552118 -1.65027e-21)
(0.560472 0.521351 2.03374e-19)
(0.589988 0.490411 -3.06964e-19)
(0.616284 0.461339 1.17525e-19)
(0.640044 0.434638 -6.94719e-20)
(0.661659 0.41025 2.0944e-20)
(0.68139 0.387958 -3.4671e-19)
(0.69944 0.367531 -4.21008e-19)
(0.715975 0.348763 -1.66428e-20)
(0.731123 0.331485 4.70153e-19)
(0.744994 0.315558 2.09651e-20)
(0.757787 0.300823 5.95793e-19)
(0.769807 0.287066 -8.71139e-19)
(0.780878 0.27427 4.61375e-19)
(0.78936 0.26319 8.01223e-19)
(0.0942098 0.195607 -1.18666e-19)
(0.222371 0.418338 6.3129e-20)
(0.320053 0.520039 4.1788e-19)
(0.392099 0.54972 1.05774e-19)
(0.446194 0.542026 -1.39705e-19)
(0.489258 0.518013 1.12317e-19)
(0.525483 0.488913 4.4106e-19)
(0.557148 0.459799 -3.59509e-19)
(0.585452 0.432513 3.35061e-20)
(0.611042 0.407493 -1.32104e-19)
(0.634315 0.384665 4.76719e-19)
(0.655552 0.363823 3.41753e-19)
(0.674979 0.344746 -4.92724e-20)
(0.692781 0.327242 -5.16267e-19)
(0.709108 0.311149 2.76363e-20)
(0.72409 0.296334 -6.44024e-20)
(0.737932 0.282649 3.03864e-19)
(0.75092 0.269905 4.94201e-19)
(0.762893 0.258078 4.31116e-19)
(0.772441 0.247763 -7.22336e-19)
(0.0807576 0.183531 -7.71845e-20)
(0.193881 0.391032 3.28502e-19)
(0.284917 0.484841 -3.17375e-19)
(0.355078 0.511578 4.49573e-19)
(0.409773 0.503808 -2.41609e-19)
(0.454537 0.481146 1.77272e-19)
(0.492803 0.453961 4.45822e-19)
(0.5265 0.426879 -5.39971e-19)
(0.556696 0.401555 2.46567e-19)
(0.58401 0.378362 3.11813e-19)
(0.608847 0.357223 -4.22092e-19)
(0.631506 0.337939 -2.8174e-20)
(0.652234 0.320305 -3.37313e-19)
(0.671236 0.304141 5.43758e-19)
(0.688677 0.289296 -2.93932e-19)
(0.704708 0.275643 3.15272e-19)
(0.719536 0.263046 -5.61255e-20)
(0.733427 0.251339 1.95945e-19)
(0.746246 0.240492 4.5346e-20)
(0.756807 0.230958 -1.13894e-19)
(0.0680916 0.169928 -2.42433e-19)
(0.167246 0.360867 -5.50557e-19)
(0.252218 0.446458 1.44282e-19)
(0.320742 0.470359 -4.66087e-19)
(0.376073 0.462762 -4.4426e-19)
(0.422461 0.441712 -3.2094e-19)
(0.462642 0.416667 2.49436e-19)
(0.498231 0.391807 1.91763e-19)
(0.530186 0.368602 -7.72924e-22)
(0.559102 0.347374 -1.66903e-19)
(0.585392 0.328039 -3.03689e-19)
(0.609375 0.310415 2.7336e-19)
(0.631314 0.29431 -9.36518e-20)
(0.651432 0.279558 -4.63002e-19)
(0.669911 0.266021 3.01016e-19)
(0.686915 0.253579 -2.25744e-19)
(0.702653 0.24211 -9.1725e-20)
(0.717374 0.23147 -2.57576e-19)
(0.730976 0.221618 -2.31861e-19)
(0.742485 0.212894 6.02478e-20)
(0.0563666 0.154913 2.11079e-19)
(0.142739 0.328071 1.08207e-19)
(0.222249 0.405152 1.677e-19)
(0.289363 0.426321 -5.78658e-19)
(0.345337 0.419125 6.18961e-19)
(0.393242 0.399922 4.65894e-22)
(0.435188 0.377222 4.16747e-21)
(0.472513 0.354754 -3.77657e-19)
(0.506077 0.333813 3.52733e-19)
(0.536458 0.314672 -2.46218e-19)
(0.564077 0.297249 7.25898e-20)
(0.589271 0.281374 -3.28196e-19)
(0.612318 0.266877 -1.56366e-19)
(0.633458 0.253605 -7.45522e-20)
(0.652886 0.241431 5.60413e-19)
(0.670779 0.230249 -2.74517e-19)
(0.687344 0.219948 -2.48229e-19)
(0.702816 0.210404 2.53873e-19)
(0.717131 0.20157 -2.08583e-19)
(0.729515 0.193691 1.62846e-19)
(0.0457238 0.138613 4.59168e-19)
(0.120609 0.292896 -2.78002e-19)
(0.195274 0.361206 4.08328e-20)
(0.261185 0.37974 4.85243e-19)
(0.317781 0.373152 1.94466e-19)
(0.367074 0.356004 2.39691e-19)
(0.410614 0.335832 2.38556e-19)
(0.449499 0.315909 5.05489e-19)
(0.484508 0.297361 -1.1522e-19)
(0.516204 0.280417 2.76444e-19)
(0.545016 0.265 4.00956e-19)
(0.571297 0.250958 1.4762e-19)
(0.59534 0.238139 2.66462e-19)
(0.617396 0.226408 9.6599e-20)
(0.637675 0.215651 5.6036e-20)
(0.656364 0.205772 -4.07335e-20)
(0.673668 0.196677 3.28874e-19)
(0.689808 0.188259 2.02351e-19)
(0.704761 0.180468 -1.83932e-19)
(0.717936 0.173471 1.73998e-19)
(0.0362895 0.12117 -3.0658e-19)
(0.101075 0.25561 3.3294e-20)
(0.171527 0.314926 -8.84898e-20)
(0.236425 0.330909 -2.70115e-19)
(0.293598 0.32511 -1.41805e-19)
(0.344124 0.310205 -2.59708e-19)
(0.38907 0.292719 1.22003e-19)
(0.429326 0.275475 -4.66845e-19)
(0.465603 0.259432 2.76378e-19)
(0.498451 0.244782 -3.80672e-19)
(0.528311 0.231455 -2.35786e-19)
(0.555546 0.219319 -3.12003e-19)
(0.580462 0.208241 7.15256e-20)
(0.603322 0.198105 -7.03874e-20)
(0.624348 0.188812 8.35975e-20)
(0.643732 0.180278 4.50157e-20)
(0.66168 0.172424 8.93462e-20)
(0.678402 0.16516 -7.48247e-19)
(0.693915 0.158435 3.7223e-19)
(0.707791 0.152359 -2.23309e-19)
(0.0281742 0.102735 1.02674e-19)
(0.0843296 0.2165 2.06978e-19)
(0.151209 0.26663 -1.35114e-19)
(0.21527 0.28014 3.33623e-19)
(0.272954 0.275286 -5.28094e-20)
(0.32454 0.26278 3.86246e-19)
(0.370688 0.248119 7.55175e-20)
(0.412113 0.233667 -7.81829e-20)
(0.449469 0.220225 2.85096e-19)
(0.4833 0.207952 2.17195e-19)
(0.514051 0.196787 8.07122e-20)
(0.542098 0.186619 1.05445e-19)
(0.567758 0.177337 5.27137e-20)
(0.591303 0.168844 -2.24501e-19)
(0.612963 0.161056 -3.10097e-20)
(0.63294 0.153904 2.33228e-19)
(0.651434 0.147322 -1.59335e-19)
(0.668648 0.141237 -7.8458e-21)
(0.684638 0.135601 -3.32522e-19)
(0.699115 0.130479 6.69865e-19)
(0.0214716 0.083468 2.77819e-19)
(0.0705338 0.175867 -3.31529e-19)
(0.134492 0.216653 1.56152e-19)
(0.197878 0.227754 -2.19852e-19)
(0.255988 0.223976 1.94918e-19)
(0.308447 0.214 -3.37504e-19)
(0.355578 0.202276 -2.46875e-19)
(0.397959 0.19071 1.86961e-20)
(0.436198 0.179951 -3.3577e-19)
(0.470831 0.170123 -2.09165e-19)
(0.502311 0.16118 -3.61156e-19)
(0.531022 0.153032 -1.19511e-20)
(0.557291 0.145592 -1.40125e-19)
(0.581396 0.138781 3.53969e-19)
(0.603575 0.132534 2.43313e-19)
(0.624035 0.126794 -8.1886e-20)
(0.642975 0.121509 -7.40003e-20)
(0.660589 0.116625 -3.49953e-21)
(0.67697 0.112096 9.14032e-21)
(0.691944 0.107961 1.32911e-19)
(0.0162583 0.0635392 -6.94113e-20)
(0.0598191 0.134023 -2.38606e-19)
(0.121515 0.165343 -1.48637e-19)
(0.184376 0.174086 -9.29686e-20)
(0.242813 0.171485 -1.92578e-19)
(0.295943 0.164144 3.29318e-19)
(0.343831 0.155445 -3.58131e-20)
(0.386946 0.146841 -7.91789e-20)
(0.425863 0.138825 3.01383e-21)
(0.461113 0.131497 2.31797e-19)
(0.493153 0.124823 -2.20049e-19)
(0.522376 0.118737 2.14868e-19)
(0.549112 0.113174 1.00486e-19)
(0.573647 0.108078 -1.8327e-19)
(0.596226 0.103399 4.00862e-20)
(0.617059 0.0990952 1.17374e-19)
(0.636341 0.09513 4.05734e-20)
(0.654263 0.0914623 -2.85893e-20)
(0.670945 0.0880576 -2.45997e-19)
(0.686304 0.0849347 1.95955e-19)
(0.0125927 0.0431237 6.32006e-20)
(0.0522854 0.0912918 7.64305e-20)
(0.11238 0.113056 2.13878e-20)
(0.174861 0.119478 -1.62042e-20)
(0.233516 0.11813 4.61633e-20)
(0.287105 0.113497 7.04984e-20)
(0.335514 0.107888 2.67027e-20)
(0.379135 0.102299 3.26448e-20)
(0.41852 0.0970735 -6.90899e-20)
(0.454196 0.0922844 1.29365e-19)
(0.486625 0.087913 -3.05212e-20)
(0.516201 0.0839186 -2.41384e-21)
(0.543261 0.0802603 3.08247e-20)
(0.568095 0.0769014 3.47345e-20)
(0.590951 0.0738106 -9.31961e-20)
(0.612042 0.0709617 6.14247e-20)
(0.631561 0.0683309 4.01433e-20)
(0.649697 0.0658925 3.42568e-20)
(0.666589 0.0636233 7.32504e-20)
(0.682218 0.061531 3.02673e-20)
(0.0105149 0.0224013 -1.29976e-20)
(0.0480009 0.0480028 2.70298e-20)
(0.107161 0.0601544 -3.77791e-20)
(0.169398 0.0642786 2.37389e-20)
(0.228153 0.0642297 1.38935e-20)
(0.281984 0.0623516 6.15833e-21)
(0.330673 0.0598716 1.46655e-20)
(0.374569 0.0573311 -4.19769e-20)
(0.414209 0.054924 2.67359e-20)
(0.450117 0.0526982 9.34697e-21)
(0.482758 0.0506511 -5.11216e-22)
(0.512527 0.0487671 5.71137e-20)
(0.539765 0.0470292 -1.73496e-20)
(0.564764 0.0454221 -1.65728e-20)
(0.587772 0.0439325 -1.59003e-20)
(0.609006 0.0425492 2.47778e-21)
(0.628657 0.0412621 -2.11482e-20)
(0.646911 0.0400605 4.0761e-21)
(0.663919 0.038934 7.92326e-22)
(0.679698 0.0378837 -2.67418e-21)
(0.0100461 0.00155485 8.28271e-21)
(0.0470016 0.00449002 -4.41118e-20)
(0.105895 0.00700677 5.25313e-20)
(0.168023 0.00884135 -3.94556e-20)
(0.226757 0.0101085 -1.83642e-20)
(0.280609 0.0110024 5.50104e-20)
(0.329334 0.0116668 4.55969e-21)
(0.37327 0.012187 1.23587e-21)
(0.412948 0.0126087 2.55405e-20)
(0.448894 0.0129553 1.3159e-20)
(0.481569 0.0132405 -1.043e-20)
(0.511371 0.0134739 -3.63672e-20)
(0.538639 0.0136627 3.49674e-21)
(0.563667 0.0138128 -3.13778e-21)
(0.586702 0.013929 3.37693e-20)
(0.607962 0.0140155 -2.02958e-20)
(0.627638 0.0140757 2.7752e-20)
(0.645915 0.0141136 -4.15876e-20)
(0.662945 0.0141322 4.91526e-23)
(0.678753 0.0141281 -8.7365e-21)
(0.0111886 -0.0192319 -2.76062e-20)
(0.0492909 -0.0389113 1.3946e-19)
(0.108585 -0.0460184 9.38664e-20)
(0.170738 -0.0464801 6.19195e-20)
(0.229329 -0.0439088 7.72092e-20)
(0.28298 -0.0402544 -1.87332e-20)
(0.331498 -0.0364558 8.52885e-20)
(0.375239 -0.0328831 1.73253e-20)
(0.414741 -0.0296399 -7.71679e-21)
(0.450528 -0.026727 -6.05578e-20)
(0.48306 -0.0241146 6.26639e-20)
(0.512733 -0.0217685 -8.49803e-20)
(0.539885 -0.0196571 6.1639e-20)
(0.564806 -0.0177534 7.04375e-20)
(0.587743 -0.0160344 9.28903e-20)
(0.608913 -0.0144809 -6.1162e-20)
(0.628507 -0.0130758 1.71412e-20)
(0.64671 -0.0118003 6.41175e-20)
(0.663667 -0.0106385 -6.06276e-20)
(0.679384 -0.00959915 4.57589e-20)
(0.013926 -0.039776 -2.68109e-19)
(0.0548403 -0.0818669 -1.34309e-19)
(0.1152 -0.0985534 -1.49288e-19)
(0.177514 -0.101333 -1.17496e-20)
(0.235846 -0.0974978 -8.03678e-20)
(0.289077 -0.0911237 -9.79352e-20)
(0.337146 -0.0842256 1.73623e-19)
(0.38046 -0.0776297 8.79746e-20)
(0.419571 -0.0715895 1.0813e-19)
(0.455005 -0.0661315 -1.17309e-19)
(0.487219 -0.0612106 8.68165e-20)
(0.516602 -0.0567679 1.05669e-19)
(0.543491 -0.0527482 3.72737e-20)
(0.56817 -0.0491033 -3.53e-20)
(0.590885 -0.0457926 7.40485e-21)
(0.611849 -0.0427818 -1.52679e-20)
(0.631255 -0.0400401 -1.48026e-19)
(0.649289 -0.0375338 2.31575e-20)
(0.66608 -0.0352354 1.43416e-19)
(0.681584 -0.0331625 -1.92697e-19)
(0.018223 -0.0598969 -8.85277e-20)
(0.0635886 -0.124046 1.30516e-19)
(0.125677 -0.150234 2.99754e-20)
(0.188294 -0.155367 -5.67533e-20)
(0.246253 -0.150338 -1.59333e-19)
(0.298853 -0.141313 -3.40048e-19)
(0.346236 -0.131375 -3.22924e-19)
(0.388894 -0.121806 -2.31119e-20)
(0.427404 -0.113011 -1.86929e-19)
(0.462294 -0.105044 -2.79053e-19)
(0.494015 -0.0978462 2.15622e-19)
(0.522952 -0.0913347 -3.1815e-19)
(0.549433 -0.0854308 6.27811e-20)
(0.573738 -0.080066 -2.0382e-20)
(0.596108 -0.0751823 -6.60331e-20)
(0.616751 -0.0707308 -8.316e-20)
(0.635864 -0.0666665 1.35363e-19)
(0.653635 -0.062941 1.07836e-19)
(0.670167 -0.0595171 1.848e-19)
(0.685342 -0.0564282 -2.76823e-19)
(0.0240257 -0.0794185 4.80459e-20)
(0.0754431 -0.165126 4.65755e-19)
(0.139918 -0.200703 1.32977e-19)
(0.202986 -0.208239 3.2103e-19)
(0.260472 -0.202113 -1.20355e-19)
(0.312236 -0.190535 1.8381e-19)
(0.358704 -0.177642 -5.78651e-20)
(0.400484 -0.165169 3.71291e-19)
(0.438188 -0.153679 -1.9092e-19)
(0.472348 -0.143254 2.2427e-19)
(0.503407 -0.133824 1.94158e-19)
(0.531743 -0.125283 2.07077e-19)
(0.557675 -0.117529 -1.84877e-19)
(0.581477 -0.110474 1.58305e-19)
(0.603381 -0.104043 -2.19785e-19)
(0.623592 -0.0981741 -6.01838e-20)
(0.642308 -0.0928071 -1.43797e-19)
(0.659722 -0.0878784 -6.07878e-20)
(0.675905 -0.0833443 2.41603e-19)
(0.690639 -0.0792635 -3.99959e-19)
(0.0312624 -0.0981706 -1.93386e-19)
(0.0902799 -0.204791 -2.24668e-20)
(0.157792 -0.249613 -7.68496e-20)
(0.22147 -0.259614 -2.69455e-19)
(0.278394 -0.252516 4.544e-20)
(0.329132 -0.238511 -4.20071e-19)
(0.374466 -0.222769 -1.76008e-19)
(0.415153 -0.207484 -1.36185e-20)
(0.451853 -0.193375 -4.40323e-19)
(0.485101 -0.180558 -1.35934e-19)
(0.515336 -0.168953 -6.20548e-20)
(0.542922 -0.158431 -2.02612e-19)
(0.568169 -0.14887 -1.7965e-19)