/*--------------------------------*- C++ -*----------------------------------*\
  =========                 |
  \\      /  F ield         | OpenFOAM: The Open Source CFD Toolbox
   \\    /   O peration     | Website:  https://openfoam.org
    \\  /    A nd           | Version:  6.0
     \\/     M anipulation  |
\*---------------------------------------------------------------------------*/
FoamFile
{
    version     2.0;
    format      ascii;
    class       volScalarField;
    location    "86";
    object      p;
}
// * * * * * * * * * * * * * * * * * * * * * * * * * * * * * * * * * * * * * //

dimensions      [0 2 -2 0 0 0 0];

internalField   nonuniform List<scalar> 
12500
(
-0.452206
-0.452292
-0.452167
-0.451855
-0.451478
-0.451151
-0.450965
-0.450978
-0.45122
-0.451698
-0.45241
-0.453347
-0.454496
-0.455848
-0.457391
-0.459115
-0.46101
-0.463061
-0.465255
-0.467573
-0.469997
-0.472505
-0.475041
-0.477534
-0.480275
-0.44876
-0.449379
-0.449568
-0.449463
-0.449248
-0.449046
-0.44895
-0.449017
-0.449274
-0.449727
-0.450369
-0.45119
-0.452178
-0.453323
-0.454616
-0.456049
-0.457613
-0.459297
-0.46109
-0.462978
-0.464946
-0.466977
-0.469003
-0.470944
-0.473249
-0.445268
-0.446438
-0.446949
-0.447053
-0.447002
-0.446924
-0.446913
-0.447026
-0.447286
-0.447696
-0.448247
-0.448929
-0.449728
-0.450634
-0.451642
-0.452743
-0.453932
-0.455204
-0.45655
-0.457959
-0.459424
-0.460931
-0.462398
-0.463743
-0.465579
-0.441852
-0.443578
-0.44441
-0.444725
-0.444839
-0.444883
-0.444954
-0.445105
-0.445358
-0.445712
-0.446155
-0.446674
-0.447257
-0.447893
-0.448577
-0.449305
-0.450075
-0.450885
-0.451731
-0.452608
-0.453518
-0.454448
-0.455306
-0.456006
-0.457341
-0.438645
-0.440915
-0.442064
-0.442587
-0.442864
-0.443031
-0.443181
-0.443366
-0.443605
-0.443891
-0.444211
-0.444548
-0.444889
-0.445223
-0.445545
-0.445856
-0.446158
-0.446452
-0.446741
-0.447029
-0.447323
-0.44762
-0.447812
-0.447816
-0.448609
-0.435784
-0.438571
-0.440023
-0.44075
-0.44119
-0.441479
-0.441708
-0.441926
-0.442146
-0.442357
-0.442543
-0.442681
-0.442756
-0.442758
-0.442682
-0.44253
-0.44231
-0.44203
-0.441699
-0.44133
-0.440944
-0.44054
-0.440001
-0.439251
-0.439459
-0.433408
-0.436667
-0.438401
-0.439325
-0.439926
-0.440338
-0.440647
-0.440899
-0.441101
-0.441235
-0.441279
-0.441206
-0.440998
-0.44064
-0.440129
-0.43947
-0.438673
-0.437755
-0.436734
-0.435634
-0.434489
-0.433309
-0.431963
-0.430391
-0.429961
-0.431643
-0.435314
-0.437303
-0.438413
-0.439172
-0.439709
-0.440104
-0.440395
-0.440582
-0.440643
-0.440544
-0.440256
-0.43975
-0.439012
-0.438035
-0.436824
-0.435395
-0.433773
-0.431985
-0.430069
-0.428077
-0.42603
-0.42379
-0.421314
-0.420183
-0.430601
-0.434609
-0.436817
-0.438101
-0.439014
-0.439679
-0.440166
-0.440506
-0.440689
-0.440685
-0.440452
-0.439949
-0.439143
-0.43801
-0.436541
-0.434741
-0.432628
-0.430234
-0.427598
-0.424775
-0.421836
-0.418818
-0.415577
-0.412097
-0.410189
-0.430369
-0.434624
-0.437013
-0.438455
-0.439517
-0.440313
-0.440901
-0.441302
-0.441497
-0.441444
-0.441091
-0.440386
-0.439285
-0.437755
-0.43578
-0.433362
-0.430519
-0.42729
-0.423725
-0.419897
-0.415901
-0.411793
-0.407427
-0.402822
-0.400044
-0.431005
-0.435409
-0.437932
-0.439512
-0.440718
-0.441647
-0.442345
-0.442822
-0.443048
-0.442967
-0.442516
-0.441631
-0.440252
-0.438336
-0.435855
-0.432803
-0.429198
-0.425081
-0.420512
-0.415583
-0.410414
-0.405085
-0.399452
-0.393578
-0.389816
-0.432531
-0.436978
-0.439584
-0.441282
-0.442622
-0.443684
-0.444501
-0.445069
-0.445346
-0.445263
-0.444742
-0.443705
-0.442076
-0.439797
-0.436825
-0.433143
-0.428762
-0.423722
-0.418089
-0.411971
-0.405515
-0.39883
-0.391777
-0.384469
-0.379591
-0.434931
-0.439314
-0.441951
-0.443739
-0.445199
-0.446392
-0.447334
-0.448005
-0.448351
-0.448291
-0.44773
-0.446575
-0.444732
-0.442125
-0.438694
-0.434405
-0.429257
-0.423283
-0.41655
-0.409177
-0.401338
-0.393167
-0.384539
-0.375623
-0.369476
-0.438153
-0.442367
-0.44498
-0.446829
-0.44839
-0.449705
-0.450769
-0.451552
-0.451981
-0.451963
-0.45139
-0.450149
-0.448132
-0.445239
-0.441393
-0.436539
-0.430657
-0.423768
-0.415934
-0.407274
-0.397984
-0.388227
-0.377887
-0.367192
-0.359612
-0.442112
-0.446061
-0.448595
-0.450469
-0.452106
-0.453524
-0.454703
-0.455593
-0.456111
-0.456147
-0.45558
-0.454281
-0.452123
-0.448989
-0.444777
-0.439411
-0.432852
-0.425098
-0.416198
-0.406266
-0.395507
-0.384106
-0.37196
-0.359343
-0.350169
-0.446697
-0.450295
-0.452694
-0.454555
-0.456235
-0.457731
-0.459004
-0.459988
-0.460585
-0.460674
-0.460119
-0.458777
-0.456503
-0.453162
-0.448631
-0.442814
-0.435644
-0.4271
-0.417208
-0.406067
-0.393879
-0.380844
-0.366864
-0.352243
-0.341332
-0.451776
-0.454953
-0.457166
-0.45897
-0.460654
-0.462192
-0.463527
-0.464578
-0.465233
-0.465358
-0.464804
-0.463416
-0.461034
-0.457506
-0.452693
-0.446475
-0.438766
-0.429518
-0.418734
-0.406491
-0.392975
-0.37839
-0.362638
-0.346016
-0.333264
-0.457211
-0.459912
-0.461893
-0.463595
-0.465236
-0.466772
-0.468127
-0.469204
-0.469879
-0.470007
-0.469427
-0.467973
-0.465473
-0.46176
-0.456681
-0.4501
-0.44191
-0.432044
-0.42048
-0.40727
-0.392576
-0.376594
-0.35922
-0.340702
-0.326067
-0.462862
-0.465054
-0.466762
-0.468314
-0.469862
-0.471343
-0.472666
-0.473719
-0.474365
-0.474449
-0.473801
-0.472244
-0.469597
-0.465683
-0.460336
-0.453409
-0.444781
-0.434368
-0.422131
-0.408096
-0.392397
-0.375219
-0.356449
-0.336237
-0.319746
-0.468602
-0.470269
-0.47167
-0.473027
-0.474428
-0.475796
-0.477028
-0.477998
-0.478558
-0.478542
-0.477774
-0.476067
-0.473232
-0.469086
-0.463455
-0.456183
-0.447141
-0.436236
-0.423416
-0.408688
-0.39216
-0.374002
-0.3541
-0.332467
-0.314218
-0.474322
-0.475465
-0.476532
-0.477651
-0.478852
-0.480049
-0.481127
-0.481951
-0.482362
-0.482187
-0.481241
-0.479331
-0.476263
-0.471848
-0.465909
-0.458286
-0.448847
-0.437493
-0.424167
-0.408866
-0.391676
-0.37275
-0.351987
-0.329248
-0.309389
-0.479937
-0.480572
-0.481287
-0.482128
-0.483078
-0.484046
-0.48491
-0.485524
-0.485724
-0.485329
-0.484149
-0.481985
-0.47864
-0.473923
-0.467656
-0.459678
-0.44986
-0.438102
-0.424347
-0.408588
-0.390893
-0.371407
-0.350053
-0.326536
-0.305226
-0.485389
-0.485545
-0.485897
-0.486426
-0.487079
-0.487764
-0.488355
-0.488701
-0.488632
-0.487961
-0.486494
-0.484031
-0.480373
-0.475329
-0.468724
-0.460402
-0.450238
-0.438139
-0.424049
-0.407956
-0.38991
-0.370037
-0.348281
-0.32418
-0.301468
-0.490654
-0.490364
-0.490347
-0.490537
-0.490853
-0.491207
-0.491474
-0.491499
-0.491108
-0.490113
-0.488316
-0.485517
-0.481518
-0.476135
-0.469199
-0.460565
-0.450122
-0.437788
-0.423519
-0.407296
-0.389142
-0.369117
-0.347058
-0.322221
-0.297841
-0.495733
-0.495032
-0.494648
-0.494477
-0.494424
-0.494408
-0.494306
-0.493965
-0.493209
-0.491848
-0.489685
-0.486521
-0.482164
-0.476439
-0.469191
-0.460298
-0.449673
-0.437268
-0.423075
-0.407118
-0.38945
-0.370108
-0.348783
-0.324446
-0.29978
-0.500654
-0.499577
-0.498828
-0.498281
-0.497834
-0.497416
-0.496912
-0.496168
-0.495011
-0.493251
-0.490691
-0.487139
-0.482411
-0.476345
-0.468807
-0.459703
-0.448985
-0.436655
-0.422774
-0.407468
-0.390941
-0.373466
-0.355329
-0.33753
-0.324882
-0.505466
-0.504041
-0.502931
-0.501999
-0.501141
-0.500299
-0.499365
-0.498191
-0.496604
-0.494416
-0.491436
-0.487475
-0.482361
-0.47595
-0.468132
-0.458843
-0.448073
-0.435873
-0.422357
-0.407712
-0.392208
-0.376194
-0.360102
-0.34496
-0.333946
-0.510235
-0.508481
-0.507014
-0.505691
-0.504411
-0.50313
-0.501749
-0.500123
-0.498083
-0.495444
-0.492019
-0.487627
-0.48211
-0.475341
-0.467237
-0.457762
-0.446943
-0.434864
-0.421678
-0.407599
-0.392908
-0.377944
-0.363085
-0.348983
-0.337518
-0.515036
-0.51296
-0.511139
-0.509423
-0.507717
-0.505988
-0.504147
-0.502053
-0.49954
-0.496427
-0.492532
-0.487684
-0.481739
-0.474589
-0.466175
-0.45649
-0.445588
-0.433578
-0.420628
-0.406955
-0.392817
-0.378498
-0.36428
-0.35055
-0.338532
-0.519946
-0.517547
-0.51537
-0.513262
-0.511127
-0.508946
-0.506636
-0.504061
-0.501057
-0.497446
-0.493052
-0.487717
-0.48131
-0.473745
-0.464985
-0.455049
-0.444011
-0.431998
-0.419181
-0.405765
-0.391978
-0.37805
-0.364184
-0.350622
-0.338197
-0.525041
-0.522306
-0.519769
-0.517269
-0.514706
-0.51207
-0.509285
-0.506215
-0.502699
-0.498563
-0.493638
-0.487777
-0.480867
-0.472843
-0.463692
-0.453454
-0.442222
-0.430131
-0.417354
-0.404079
-0.390506
-0.376823
-0.363186
-0.349764
-0.337148
-0.530389
-0.527295
-0.524393
-0.5215
-0.518509
-0.515418
-0.512148
-0.508568
-0.504516
-0.499822
-0.494326
-0.487894
-0.480435
-0.471903
-0.46231
-0.451718
-0.440234
-0.428002
-0.415189
-0.401974
-0.388531
-0.375019
-0.361566
-0.348302
-0.33566
-0.536048
-0.532566
-0.529287
-0.526001
-0.522582
-0.51903
-0.515266
-0.511155
-0.506536
-0.501245
-0.495131
-0.488079
-0.480017
-0.470927
-0.460842
-0.449847
-0.438061
-0.425636
-0.412736
-0.399526
-0.386163
-0.372787
-0.359504
-0.346427
-0.333875
-0.54206
-0.538155
-0.534489
-0.530807
-0.526957
-0.522936
-0.518662
-0.513993
-0.50877
-0.502835
-0.496051
-0.488323
-0.479605
-0.469904
-0.459282
-0.44784
-0.435715
-0.42306
-0.410035
-0.396796
-0.383486
-0.370226
-0.357109
-0.344234
-0.331839
-0.548452
-0.544091
-0.540023
-0.53594
-0.531652
-0.52715
-0.522342
-0.517082
-0.511209
-0.504575
-0.497063
-0.488601
-0.479173
-0.468815
-0.457615
-0.445694
-0.4332
-0.420289
-0.407117
-0.39383
-0.380555
-0.367398
-0.35444
-0.34177
-0.32956
-0.555236
-0.550384
-0.545901
-0.54141
-0.536674
-0.531672
-0.526299
-0.520403
-0.513826
-0.506434
-0.498131
-0.488876
-0.478686
-0.46763
-0.45582
-0.443396
-0.430515
-0.417333
-0.404002
-0.390653
-0.3774
-0.364334
-0.351523
-0.339048
-0.327025
-0.562408
-0.557033
-0.552124
-0.547215
-0.542017
-0.536487
-0.530509
-0.523924
-0.51658
-0.508362
-0.499203
-0.489099
-0.478102
-0.466313
-0.45387
-0.440929
-0.427652
-0.414194
-0.400695
-0.387276
-0.374035
-0.361047
-0.348368
-0.336067
-0.324218
-0.569947
-0.564025
-0.558677
-0.55334
-0.547658
-0.541566
-0.534933
-0.527596
-0.519414
-0.510299
-0.50022
-0.489213
-0.47737
-0.464823
-0.451734
-0.43827
-0.424596
-0.410861
-0.397194
-0.383699
-0.37046
-0.357536
-0.344971
-0.33282
-0.321121
-0.577817
-0.571329
-0.565534
-0.559757
-0.553563
-0.546865
-0.539516
-0.531354
-0.522258
-0.512173
-0.501112
-0.489155
-0.476435
-0.463116
-0.449377
-0.435394
-0.421329
-0.407322
-0.393486
-0.379913
-0.366666
-0.353792
-0.341321
-0.329295
-0.317723
-0.585968
-0.578902
-0.572654
-0.56642
-0.559682
-0.552324
-0.544189
-0.535122
-0.52503
-0.513902
-0.501802
-0.488858
-0.475241
-0.461145
-0.446761
-0.432269
-0.417824
-0.403553
-0.389554
-0.375898
-0.362636
-0.349799
-0.337403
-0.325478
-0.314011
-0.594335
-0.586687
-0.579982
-0.573273
-0.565949
-0.557868
-0.548866
-0.538807
-0.527638
-0.515399
-0.502211
-0.488251
-0.473729
-0.458861
-0.443846
-0.428863
-0.414053
-0.399529
-0.385371
-0.371633
-0.35835
-0.345537
-0.333202
-0.321357
-0.309977
-0.602835
-0.594611
-0.587447
-0.58024
-0.572281
-0.563404
-0.553449
-0.542308
-0.529981
-0.516569
-0.502255
-0.487264
-0.47184
-0.456214
-0.440591
-0.425137
-0.409982
-0.395218
-0.380909
-0.367091
-0.353782
-0.340985
-0.328697
-0.316914
-0.305608
-0.611374
-0.602586
-0.594962
-0.58723
-0.57858
-0.568826
-0.557825
-0.545512
-0.531952
-0.517317
-0.501851
-0.485827
-0.469515
-0.453156
-0.43695
-0.421052
-0.405573
-0.390587
-0.376136
-0.36224
-0.348903
-0.336116
-0.323866
-0.312133
-0.300893
-0.619839
-0.610509
-0.602425
-0.594135
-0.584729
-0.574012
-0.56187
-0.548299
-0.533441
-0.517545
-0.500916
-0.483869
-0.466693
-0.449634
-0.43288
-0.416568
-0.400789
-0.385597
-0.371015
-0.357047
-0.343683
-0.330905
-0.318687
-0.306995
-0.295819
-0.628103
-0.618259
-0.609716
-0.600832
-0.590599
-0.578827
-0.56545
-0.550543
-0.534335
-0.517155
-0.499368
-0.481322
-0.463319
-0.445597
-0.428333
-0.41164
-0.395589
-0.38021
-0.365511
-0.351479
-0.338092
-0.325322
-0.313135
-0.30148
-0.290369
-0.636028
-0.625704
-0.616702
-0.607179
-0.596044
-0.583126
-0.568428
-0.552118
-0.534524
-0.516055
-0.497128
-0.478119
-0.459333
-0.440996
-0.423262
-0.406225
-0.389929
-0.374386
-0.359585
-0.3455
-0.332097
-0.31934
-0.307185
-0.295568
-0.284528
-0.643459
-0.632697
-0.623233
-0.613026
-0.600911
-0.586757
-0.570659
-0.552897
-0.533898
-0.514152
-0.494121
-0.474197
-0.45468
-0.435778
-0.417621
-0.400276
-0.383767
-0.368083
-0.353199
-0.339074
-0.325665
-0.312929
-0.300812
-0.289236
-0.278276
-0.650233
-0.639078
-0.62915
-0.618209
-0.605034
-0.589563
-0.572003
-0.552754
-0.532353
-0.51136
-0.490274
-0.469494
-0.449305
-0.429894
-0.411362
-0.39375
-0.37706
-0.361262
-0.346315
-0.332167
-0.318766
-0.306061
-0.293992
-0.282464
-0.271597
-0.656178
-0.64468
-0.634284
-0.622555
-0.608247
-0.591387
-0.572316
-0.55157
-0.529788
-0.507596
-0.485518
-0.463949
-0.443155
-0.423294
-0.404438
-0.386603
-0.369767
-0.353884
-0.338897
-0.324746
-0.311368
-0.29871
-0.286699
-0.27523
-0.264472
-0.661114
-0.649327
-0.638456
-0.625889
-0.61038
-0.592074
-0.571466
-0.549232
-0.526112
-0.502785
-0.479789
-0.457508
-0.43618
-0.415931
-0.396805
-0.378791
-0.361847
-0.345909
-0.33091
-0.316778
-0.303444
-0.290849
-0.278912
-0.267515
-0.256885
-0.66486
-0.65284
-0.641489
-0.628033
-0.611265
-0.591474
-0.569325
-0.545634
-0.521238
-0.496855
-0.473028
-0.450117
-0.42833
-0.40776
-0.38842
-0.370275
-0.353262
-0.337305
-0.322322
-0.308234
-0.294967
-0.282456
-0.270609
-0.259302
-0.248819
-0.667233
-0.655036
-0.643199
-0.628812
-0.610739
-0.589445
-0.565773
-0.540682
-0.515089
-0.489744
-0.46518
-0.441728
-0.419562
-0.398739
-0.379244
-0.361018
-0.343979
-0.328038
-0.313103
-0.299087
-0.285912
-0.273508
-0.261774
-0.250575
-0.240262
-0.668053
-0.655738
-0.64341
-0.628056
-0.608651
-0.585857
-0.560704
-0.534289
-0.507598
-0.481395
-0.456196
-0.432297
-0.409834
-0.38883
-0.36924
-0.350984
-0.333965
-0.318079
-0.303228
-0.289316
-0.276261
-0.263989
-0.252389
-0.24132
-0.231203
-0.667149
-0.654773
-0.641953
-0.625605
-0.604859
-0.58059
-0.554024
-0.526381
-0.498704
-0.471759
-0.446033
-0.421785
-0.39911
-0.377998
-0.358377
-0.340146
-0.323193
-0.307405
-0.292674
-0.278899
-0.265996
-0.253884
-0.242443
-0.231528
-0.221633
-0.664356
-0.651977
-0.638667
-0.621312
-0.599235
-0.573543
-0.545652
-0.516896
-0.488357
-0.460793
-0.434655
-0.410159
-0.387359
-0.366214
-0.346626
-0.328477
-0.31164
-0.295994
-0.281423
-0.267823
-0.255103
-0.243182
-0.231928
-0.221194
-0.211548
-0.659523
-0.647198
-0.633405
-0.615045
-0.591668
-0.564628
-0.535522
-0.505783
-0.476519
-0.448465
-0.422032
-0.39739
-0.374555
-0.353453
-0.333966
-0.315957
-0.299289
-0.283831
-0.269462
-0.256074
-0.243574
-0.231877
-0.220838
-0.210313
-0.200945
-0.652515
-0.6403
-0.626037
-0.606688
-0.582066
-0.553773
-0.523581
-0.493003
-0.463158
-0.434749
-0.40814
-0.383457
-0.360678
-0.339698
-0.32038
-0.302571
-0.286125
-0.270904
-0.256783
-0.243648
-0.231405
-0.219965
-0.209174
-0.198888
-0.189828
-0.643213
-0.631162
-0.616451
-0.596145
-0.570353
-0.540925
-0.509791
-0.47853
-0.448254
-0.419628
-0.392965
-0.368347
-0.345714
-0.324936
-0.305856
-0.28831
-0.272142
-0.257209
-0.243381
-0.230542
-0.218595
-0.207449
-0.196939
-0.186924
-0.178202
-0.631519
-0.619686
-0.604554
-0.583343
-0.556477
-0.526049
-0.494133
-0.462351
-0.431799
-0.403094
-0.3765
-0.352052
-0.329656
-0.30916
-0.290389
-0.273169
-0.257336
-0.242744
-0.229257
-0.216757
-0.205149
-0.194335
-0.18414
-0.174431
-0.166077
-0.617355
-0.605793
-0.590279
-0.568229
-0.540402
-0.509127
-0.476597
-0.444464
-0.413793
-0.38515
-0.358745
-0.334571
-0.312505
-0.292371
-0.27398
-0.25715
-0.241711
-0.227512
-0.214416
-0.202303
-0.191075
-0.180633
-0.170791
-0.161422
-0.153469
-0.600668
-0.589428
-0.573578
-0.550773
-0.522116
-0.490158
-0.457192
-0.42488
-0.394248
-0.365804
-0.339708
-0.315913
-0.294266
-0.274574
-0.256635
-0.24026
-0.225275
-0.211524
-0.19887
-0.18719
-0.176387
-0.166358
-0.156908
-0.147917
-0.140395
-0.581429
-0.57056
-0.55443
-0.530966
-0.501626
-0.469161
-0.435941
-0.403624
-0.373185
-0.345076
-0.319407
-0.296091
-0.274953
-0.255781
-0.238366
-0.222511
-0.208039
-0.194793
-0.182631
-0.171434
-0.161102
-0.15153
-0.142512
-0.133937
-0.12688
-0.559631
-0.549184
-0.532836
-0.508826
-0.47896
-0.446169
-0.412881
-0.38073
-0.350637
-0.322996
-0.297866
-0.275129
-0.254586
-0.236013
-0.219191
-0.203921
-0.190021
-0.177335
-0.16572
-0.155055
-0.145241
-0.13617
-0.127629
-0.119511
-0.11295
-0.535293
-0.525317
-0.508824
-0.48439
-0.454165
-0.421235
-0.388062
-0.356246
-0.326648
-0.2996
-0.275119
-0.253056
-0.233191
-0.215291
-0.199132
-0.184509
-0.171243
-0.159172
-0.148157
-0.138074
-0.128828
-0.120305
-0.112285
-0.10467
-0.0986372
-0.508462
-0.499002
-0.482443
-0.457717
-0.427306
-0.394425
-0.361549
-0.330232
-0.301269
-0.274936
-0.251208
-0.229908
-0.210802
-0.193647
-0.178216
-0.164303
-0.151727
-0.140327
-0.129965
-0.120517
-0.111888
-0.103962
-0.0965136
-0.0894468
-0.0839751
-0.479204
-0.470307
-0.453766
-0.428888
-0.398468
-0.365823
-0.333421
-0.302758
-0.274564
-0.249061
-0.226182
-0.20573
-0.187457
-0.171115
-0.156474
-0.143329
-0.131499
-0.120826
-0.111169
-0.102408
-0.0944483
-0.0871727
-0.080348
-0.0738811
-0.0690053
-0.447612
-0.439324
-0.422889
-0.398003
-0.367752
-0.335526
-0.303767
-0.273907
-0.246608
-0.222039
-0.2001
-0.180573
-0.163202
-0.147735
-0.133942
-0.121619
-0.110588
-0.100691
-0.0917919
-0.0837715
-0.0765345
-0.0699642
-0.0638227
-0.0580151
-0.0537784
-0.413802
-0.406164
-0.38993
-0.365183
-0.335275
-0.303645
-0.27269
-0.243773
-0.217485
-0.193947
-0.173029
-0.154497
-0.138088
-0.123551
-0.110656
-0.0992038
-0.0890186
-0.0799473
-0.071855
-0.0646262
-0.0581671
-0.052361
-0.0469695
-0.0418931
-0.0383488
-0.377909
-0.370962
-0.355023
-0.330562
-0.301171
-0.270306
-0.240307
-0.212459
-0.187288
-0.164869
-0.145044
-0.127568
-0.112174
-0.0986129
-0.0866592
-0.0761176
-0.0668182
-0.0586131
-0.0513721
-0.0449838
-0.039357
-0.0343776
-0.0298124
-0.0255528
-0.0227517
-0.34009
-0.333873
-0.318323
-0.294295
-0.265586
-0.235646
-0.206743
-0.180082
-0.156124
-0.1349
-0.116231
-0.0998625
-0.0855272
-0.0729781
-0.0619969
-0.0523948
-0.0440098
-0.0367012
-0.0303462
-0.0248398
-0.0200957
-0.0160069
-0.0123524
-0.00900115
-0.0069758
-0.300518
-0.295066
-0.280001
-0.256548
-0.228679
-0.199814
-0.172136
-0.146768
-0.124107
-0.104145
-0.0866862
-0.0714671
-0.0582226
-0.046711
-0.0367216
-0.0280746
-0.0206173
-0.0142195
-0.00876872
-0.00417039
-0.000347015
0.00279558
0.00545919
0.00780814
0.0090008
-0.259383
-0.25473
-0.240242
-0.217501
-0.190622
-0.16297
-0.136634
-0.112652
-0.0913627
-0.0727219
-0.0565162
-0.042479
-0.0303478
-0.0198875
-0.0108963
-0.00320466
0.00332835
0.00881987
0.0133668
0.0170481
0.0199287
0.0220855
0.0236784
0.0248647
0.0249817
-0.216891
-0.213065
-0.199243
-0.177345
-0.151594
-0.125281
-0.100393
-0.077882
-0.0580281
-0.0407564
-0.0258394
-0.0130078
-0.00200274
0.00740412
0.0154053
0.022159
0.0277927
0.0324059
0.0360719
0.0388442
0.0407692
0.0418906
0.0422426
0.0418361
0.0403144
-0.173256
-0.170282
-0.157212
-0.136279
-0.111785
-0.0869251
-0.0635783
-0.0426106
-0.0242481
-0.00838657
0.00521329
0.0168226
0.0266969
0.0350589
0.0420938
0.0479511
0.0527465
0.0565612
0.0594398
0.0614017
0.0624642
0.0625813
0.0614621
0.0587675
0.0550613
-0.128705
-0.126605
-0.114365
-0.0945103
-0.071389
-0.0480838
-0.0263598
-0.00699899
0.00982433
0.0242406
0.0364992
0.0468725
0.0556139
0.0629428
0.0690419
0.0740596
0.0781113
0.081276
0.0835934
0.085085
0.0857787
0.0855234
0.0835427
0.079109
0.0744413
-0.083473
-0.0822633
-0.0709249
-0.0522513
-0.0306054
-0.00894369
0.011087
0.0287871
0.0440305
0.0569712
0.0678665
0.0769892
0.0845907
0.0908883
0.0960654
0.100275
0.103642
0.106265
0.108223
0.109613
0.110591
0.111092
0.110146
0.107221
0.109919
-0.0377907
-0.0374854
-0.0271156
-0.0097154
0.0103645
0.0303068
0.0485851
0.0645797
0.0782096
0.0896487
0.0991604
0.107016
0.113465
0.11872
0.122964
0.12635
0.129008
0.131046
0.132562
0.133685
0.134583
0.135222
0.135064
0.134587
0.139666
0.00809917
0.00749073
0.0168341
0.0328808
0.0513182
0.0694788
0.0859575
0.100212
0.112202
0.122118
0.130229
0.136802
0.142083
0.14628
0.149572
0.152112
0.154031
0.155441
0.156446
0.157176
0.157775
0.158205
0.158085
0.15797
0.162497
0.053955
0.0524284
0.0606961
0.0753219
0.0920547
0.108385
0.123029
0.135518
0.145849
0.154229
0.160925
0.166202
0.170298
0.173417
0.175731
0.17739
0.178521
0.179233
0.179631
0.179835
0.179972
0.180014
0.179643
0.179302
0.182784
0.0995363
0.0970918
0.104244
0.117395
0.132376
0.146841
0.159628
0.170338
0.179002
0.185837
0.19111
0.195082
0.197981
0.200005
0.201319
0.202064
0.202362
0.202316
0.202022
0.201587
0.201118
0.200578
0.19968
0.198834
0.201324
0.144606
0.141248
0.147255
0.15889
0.172087
0.184668
0.195589
0.204516
0.211512
0.216804
0.220655
0.223319
0.225015
0.225933
0.226229
0.226037
0.22547
0.224623
0.223581
0.22244
0.221288
0.220075
0.218539
0.217084
0.218617
0.188929
0.184668
0.189509
0.199602
0.210998
0.22169
0.230748
0.237902
0.243242
0.247
0.249437
0.250799
0.251295
0.251105
0.250376
0.249234
0.247782
0.246107
0.244285
0.242398
0.24052
0.238592
0.236377
0.234284
0.234902
0.232279
0.227128
0.230793
0.239333
0.248926
0.257738
0.264951
0.270352
0.274057
0.276302
0.277344
0.277417
0.276724
0.275433
0.273684
0.27159
0.269249
0.266737
0.264122
0.261477
0.258859
0.256207
0.253313
0.250584
0.250327
0.274433
0.268411
0.270901
0.27789
0.285694
0.29265
0.298047
0.301729
0.303831
0.304593
0.304266
0.303076
0.301215
0.29884
0.296083
0.293048
0.289825
0.286481
0.283077
0.279677
0.276326
0.272963
0.269406
0.266056
0.264963
0.315177
0.308308
0.309634
0.315087
0.321131
0.32627
0.329895
0.331902
0.332444
0.331763
0.330104
0.327683
0.324682
0.32125
0.317508
0.313553
0.309465
0.305307
0.30113
0.296991
0.292927
0.288876
0.284682
0.280734
0.278843
0.354305
0.346618
0.346801
0.350748
0.355075
0.358449
0.360357
0.360744
0.359779
0.357705
0.35476
0.35115
0.347048
0.342593
0.337897
0.333051
0.328127
0.323179
0.318255
0.313402
0.308652
0.303944
0.299146
0.294626
0.291971
0.391621
0.383149
0.382219
0.384705
0.387371
0.389044
0.389304
0.388137
0.385728
0.382319
0.378141
0.373392
0.368234
0.362799
0.357189
0.351489
0.345762
0.340058
0.334418
0.328884
0.32348
0.318151
0.312783
0.30772
0.304339
0.426939
0.417718
0.415717
0.416796
0.417873
0.417922
0.416612
0.413967
0.410186
0.40551
0.400161
0.39433
0.38817
0.381802
0.375325
0.368812
0.362323
0.355902
0.349584
0.343406
0.337386
0.331473
0.325572
0.319996
0.315927
0.460082
0.450154
0.447132
0.446872
0.446441
0.444956
0.442165
0.438128
0.433056
0.427187
0.420737
0.413887
0.406783
0.399539
0.392245
0.384968
0.377763
0.370668
0.363714
0.356932
0.350336
0.343879
0.337484
0.331427
0.326709
0.490887
0.480297
0.476312
0.474793
0.472949
0.470028
0.465855
0.460521
0.454245
0.447265
0.439789
0.431991
0.424008
0.415948
0.407893
0.399906
0.392034
0.384313
0.376768
0.369426
0.362296
0.355339
0.348488
0.341984
0.33666
0.519199
0.507997
0.503117
0.500428
0.497275
0.493029
0.487581
0.481051
0.473668
0.465664
0.457244
0.448573
0.439782
0.43097
0.422215
0.413574
0.40509
0.396793
0.388706
0.38085
0.373232
0.365816
0.35855
0.351635
0.345749
0.544879
0.533119
0.527417
0.523658
0.51931
0.513857
0.507249
0.499634
0.491244
0.482311
0.473033
0.46357
0.454044
0.444551
0.435161
0.425926
0.416886
0.408067
0.399489
0.391167
0.383107
0.375278
0.367637
0.360348
0.353949
0.567798
0.555536
0.549095
0.544373
0.538954
0.532421
0.524776
0.51619
0.506901
0.497138
0.487095
0.476924
0.466742
0.456639
0.446682
0.436917
0.427381
0.418096
0.409079
0.400343
0.391889
0.383693
0.375719
0.368094
0.361234
0.587843
0.575139
0.568045
0.562477
0.556118
0.548638
0.540085
0.53065
0.520574
0.510085
0.499371
0.488581
0.477825
0.467189
0.456735
0.446507
0.436536
0.426844
0.417444
0.408344
0.399546
0.39103
0.382765
0.374846
0.367578
0.604912
0.591828
0.584176
0.577885
0.570722
0.562435
0.55311
0.542951
0.532205
0.521098
0.509813
0.498494
0.48725
0.476159
0.465282
0.454658
0.444318
0.434278
0.424551
0.415142
0.406051
0.397262
0.388751
0.380579
0.37296
0.61892
0.605521
0.597408
0.590521
0.5827
0.573751
0.563791
0.553039
0.541744
0.530129
0.518376
0.506624
0.494978
0.483514
0.472288
0.46134
0.450695
0.44037
0.430374
0.42071
0.411379
0.402365
0.393651
0.385271
0.377361
0.629793
0.616146
0.607674
0.600326
0.591995
0.582533
0.572082
0.56087
0.549149
0.537141
0.525024
0.512936
0.500977
0.489222
0.477726
0.466525
0.455643
0.445095
0.434889
0.425028
0.415508
0.40632
0.397448
0.388904
0.380764
0.637474
0.623647
0.614922
0.60725
0.598561
0.588739
0.577944
0.566409
0.554388
0.542102
0.529728
0.517401
0.505221
0.493261
0.481573
0.470192
0.459141
0.448435
0.43808
0.428076
0.418423
0.40911
0.400125
0.391462
0.383156
0.64192
0.627984
0.619112
0.611257
0.602365
0.592339
0.581348
0.569628
0.557434
0.544989
0.532467
0.520001
0.507693
0.495612
0.483811
0.472324
0.461174
0.450375
0.439931
0.429844
0.42011
0.410723
0.40167
0.392937
0.384529
0.643104
0.629128
0.620219
0.612323
0.603385
0.593313
0.582275
0.57051
0.558273
0.545787
0.533225
0.520723
0.508378
0.496264
0.48443
0.472913
0.461733
0.450905
0.440434
0.430321
0.420562
0.411152
0.402077
0.393319
0.384876
0.641014
0.627069
0.618233
0.610438
0.601613
0.591651
0.580718
0.569048
0.556898
0.544489
0.531998
0.519559
0.507273
0.495211
0.483426
0.471952
0.460814
0.450023
0.439586
0.429505
0.419776
0.410393
0.401343
0.392608
0.384194
0.635651
0.621809
0.613154
0.605604
0.597049
0.587356
0.576677
0.565244
0.553309
0.541097
0.528786
0.516513
0.504378
0.492455
0.480799
0.469445
0.458417
0.447729
0.437388
0.427397
0.417752
0.408447
0.399468
0.390804
0.382486
0.627035
0.613364
0.605001
0.597836
0.589708
0.580441
0.570167
0.559108
0.547518
0.535622
0.5236
0.511592
0.499701
0.488005
0.476557
0.465397
0.454549
0.44403
0.433847
0.424003
0.414498
0.405322
0.396458
0.387912
0.379755
0.615198
0.601769
0.593802
0.587163
0.579616
0.57093
0.561208
0.550662
0.539544
0.528081
0.516456
0.504813
0.49326
0.481874
0.470715
0.459823
0.449224
0.438938
0.428973
0.419334
0.410023
0.401025
0.392324
0.383942
0.37601
0.600189
0.587068
0.579603
0.573625
0.566811
0.558857
0.549833
0.539936
0.529416
0.518501
0.50738
0.4962
0.485074
0.474084
0.463292
0.45274
0.442459
0.432469
0.422783
0.413406
0.404341
0.395573
0.387078
0.378906
0.371262
0.58207
0.569325
0.562461
0.557277
0.551341
0.544269
0.536085
0.52697
0.517169
0.506916
0.496403
0.485783
0.475174
0.464662
0.454312
0.444173
0.434277
0.424647
0.415297
0.406239
0.397474
0.388984
0.38074
0.372822
0.365526
0.560921
0.548614
0.542447
0.538183
0.533269
0.527222
0.520015
0.511811
0.50285
0.493369
0.483566
0.4736
0.463593
0.45364
0.443809
0.434152
0.424706
0.415497
0.406542
0.397856
0.389442
0.381279
0.37333
0.36571
0.358821
0.536832
0.525025
0.519647
0.516423
0.512666
0.507781
0.501685
0.494517
0.486512
0.477909
0.468914
0.459692
0.450373
0.441057
0.431817
0.422711
0.413778
0.40505
0.396546
0.388286
0.380275
0.372485
0.364875
0.357593
0.351167
0.509911
0.498663
0.494158
0.492087
0.489614
0.486024
0.481166
0.475153
0.468215
0.460593
0.452501
0.444111
0.435561
0.426956
0.418378
0.409888
0.401531
0.393341
0.385343
0.37756
0.37
0.362632
0.355402
0.348499
0.342589
0.480278
0.469642
0.466089
0.465276
0.464209
0.462037
0.458538
0.453794
0.448028
0.441486
0.434387
0.426913
0.419208
0.411388
0.403538
0.395726
0.388003
0.380408
0.372968
0.365712
0.358652
0.351751
0.344943
0.338457
0.333112
0.448066
0.438095
0.435564
0.436104
0.436553
0.435915
0.433888
0.430521
0.426027
0.420656
0.414636
0.408156
0.401372
0.394403
0.387345
0.380272
0.37324
0.366292
0.359461
0.35278
0.346266
0.339876
0.333531
0.327498
0.322765
0.413421
0.404162
0.402717
0.404695
0.406762
0.407763
0.407313
0.405422
0.402295
0.398182
0.39332
0.387909
0.382112
0.37606
0.369854
0.363575
0.357286
0.351035
0.344861
0.338801
0.332878
0.327041
0.321199
0.315655
0.311577
0.376502
0.367998
0.367694
0.371185
0.374958
0.377695
0.378918
0.378595
0.376919
0.374144
0.370515
0.366241
0.361495
0.356418
0.351119
0.345686
0.34019
0.334683
0.32921
0.323814
0.318523
0.313283
0.307982
0.302959
0.299578
0.337479
0.329771
0.330652
0.335718
0.341276
0.345834
0.348814
0.350142
0.349996
0.348631
0.346301
0.343226
0.339589
0.33554
0.331198
0.326659
0.321999
0.317279
0.312548
0.307856
0.303238
0.298633
0.293913
0.289443
0.286796
0.296535
0.289657
0.291759
0.298451
0.305858
0.312309
0.317122
0.320174
0.321626
0.321736
0.320764
0.318943
0.316466
0.313492
0.31015
0.306546
0.302762
0.298866
0.294914
0.290963
0.287053
0.283123
0.279019
0.275131
0.273256
0.253863
0.247845
0.251193
0.259547
0.268854
0.277259
0.283969
0.288807
0.291917
0.293556
0.293995
0.293474
0.2922
0.290341
0.288037
0.285402
0.282527
0.279487
0.276344
0.273164
0.269996
0.266774
0.263322
0.260045
0.258976
0.209665
0.204533
0.209143
0.219182
0.230426
0.240831
0.249487
0.256163
0.26098
0.264196
0.266086
0.266905
0.266868
0.266157
0.26492
0.263281
0.26134
0.259179
0.25687
0.254485
0.252085
0.249602
0.246833
0.244194
0.243966
0.164155
0.159929
0.165805
0.177537
0.19074
0.203177
0.213818
0.222371
0.228935
0.233762
0.237138
0.239326
0.240553
0.241012
0.240862
0.240236
0.239244
0.237977
0.236515
0.234941
0.233326
0.231606
0.229546
0.227566
0.228216
0.117552
0.114249
0.121385
0.134805
0.149972
0.164458
0.17711
0.187567
0.195904
0.20237
0.207254
0.21083
0.213338
0.214981
0.215927
0.216321
0.216283
0.215912
0.215298
0.214535
0.213709
0.212762
0.211429
0.210124
0.211691
0.0700868
0.0677178
0.076097
0.0911832
0.108305
0.124843
0.139515
0.151893
0.16202
0.170139
0.176545
0.18152
0.185315
0.188144
0.190186
0.191595
0.192501
0.193013
0.193231
0.193262
0.19321
0.193026
0.192417
0.191788
0.194312
0.021995
0.0205667
0.0301609
0.046878
0.0659283
0.0845051
0.101195
0.115496
0.127419
0.137196
0.145127
0.151502
0.156582
0.16059
0.163716
0.166121
0.167946
0.169309
0.17032
0.1711
0.171773
0.172304
0.172375
0.172392
0.17592
-0.0264816
-0.0269674
-0.0161964
0.00210113
0.0230382
0.0436257
0.0623167
0.0785318
0.0922444
0.103676
0.113126
0.120894
0.127247
0.132418
0.136605
0.139977
0.142682
0.144846
0.146587
0.148042
0.149356
0.150506
0.15114
0.151698
0.156264
-0.0750966
-0.0746427
-0.0627433
-0.0429303
-0.0201642
0.00239067
0.0230526
0.0411607
0.0566477
0.0697204
0.0806771