/*--------------------------------*- C++ -*----------------------------------*\
  =========                 |
  \\      /  F ield         | OpenFOAM: The Open Source CFD Toolbox
   \\    /   O peration     | Website:  https://openfoam.org
    \\  /    A nd           | Version:  6.0
     \\/     M anipulation  |
\*---------------------------------------------------------------------------*/
FoamFile
{
    version     2.0;
    format      ascii;
    class       surfaceScalarField;
    location    "86";
    object      phi;
}
// * * * * * * * * * * * * * * * * * * * * * * * * * * * * * * * * * * * * * //

dimensions      [0 3 -1 0 0 0 0];

internalField   nonuniform List<scalar> 
24700
(
-2.924e-08
-8.54074e-05
8.54366e-05
-1.01446e-06
-0.00022861
0.000229595
-3.49955e-06
-0.000348216
0.000350701
-7.68632e-06
-0.000446639
0.000450826
-1.34674e-05
-0.000526466
0.000532247
-2.04824e-05
-0.000590544
0.000597559
-2.81959e-05
-0.00064172
0.000649433
-3.59802e-05
-0.000682592
0.000690377
-4.31918e-05
-0.000715355
0.000722566
-4.92329e-05
-0.000741715
0.000747756
-5.35972e-05
-0.000762893
0.000767257
-5.58975e-05
-0.000779675
0.000781975
-5.5878e-05
-0.000792505
0.000792486
-5.34139e-05
-0.000801584
0.00079912
-4.85008e-05
-0.000806964
0.00080205
-4.12358e-05
-0.000808629
0.000801364
-3.17951e-05
-0.000806558
0.000797117
-2.04076e-05
-0.000800761
0.000789373
-7.3277e-06
-0.000791301
0.000778221
7.19009e-06
-0.000778297
0.000763779
2.29163e-05
-0.000761909
0.000746183
3.96689e-05
-0.000742326
0.000725573
5.73333e-05
-0.000719735
0.00070207
7.5879e-05
-0.000694253
0.000675707
-0.000665887
0.000646375
9.53911e-05
-1.06164e-06
-8.43457e-05
-4.52796e-06
-0.000225144
-1.05054e-05
-0.000342239
-1.88607e-05
-0.000438284
-2.92269e-05
-0.000516099
-4.10464e-05
-0.000578725
-5.36375e-05
-0.000629129
-6.62676e-05
-0.000669962
-7.82197e-05
-0.000703403
-8.88457e-05
-0.000731089
-9.7606e-05
-0.000754133
-0.000104092
-0.000773189
-0.000108038
-0.00078856
-0.000109316
-0.000800305
-0.000107931
-0.000808349
-0.000103997
-0.000812563
-9.77172e-05
-0.000812837
-8.93569e-05
-0.000809121
-7.92135e-05
-0.000801445
-6.75876e-05
-0.000789923
-5.47549e-05
-0.000774742
-4.094e-05
-0.000756141
-2.62945e-05
-0.00073438
-1.08798e-05
-0.000709667
-0.00068213
5.36246e-06
-2.14946e-06
-8.21962e-05
-8.1835e-06
-0.00021911
-1.77258e-05
-0.000332696
-3.02882e-05
-0.000425721
-4.52414e-05
-0.000501146
-6.18389e-05
-0.000562128
-7.92667e-05
-0.000611701
-9.6702e-05
-0.000652527
-0.000113366
-0.000686739
-0.000128569
-0.000715887
-0.000141739
-0.000740963
-0.000152443
-0.000762484
-0.000160396
-0.000780607
-0.000165457
-0.000795245
-0.000167622
-0.000806183
-0.00016701
-0.000813175
-0.000163839
-0.000816008
-0.0001584
-0.000814561
-0.000151025
-0.000808819
-0.00014206
-0.000798887
-0.000131831
-0.000784971
-0.00012061
-0.000767361
-0.000108598
-0.000746392
-9.58993e-05
-0.000722366
-0.000695531
-8.24976e-05
-3.26267e-06
-7.89336e-05
-1.18831e-05
-0.000210489
-2.49736e-05
-0.000319606
-4.16833e-05
-0.000409011
-6.11272e-05
-0.000481702
-8.23844e-05
-0.00054087
-0.000104527
-0.000589558
-0.00012666
-0.000630394
-0.000147955
-0.000665443
-0.00016769
-0.000696152
-0.000185263
-0.00072339
-0.000200212
-0.000747535
-0.000212222
-0.000768597
-0.000221124
-0.000786342
-0.000226892
-0.000800415
-0.000229629
-0.000810438
-0.000229549
-0.000816088
-0.000226956
-0.000817154
-0.00022221
-0.000813565
-0.000215697
-0.0008054
-0.000207794
-0.000792875
-0.00019883
-0.000776325
-0.000189064
-0.000756158
-0.00017866
-0.000732769
-0.00070653
-0.000167662
-4.36633e-06
-7.45672e-05
-1.55161e-05
-0.00019934
-3.20411e-05
-0.000303081
-5.27329e-05
-0.00038832
-7.64659e-05
-0.000457969
-0.000102166
-0.000515171
-0.000128812
-0.000562912
-0.000155455
-0.000603751
-0.000181236
-0.000639662
-0.000205406
-0.000671982
-0.000227337
-0.000701459
-0.000246535
-0.000728337
-0.000262647
-0.000752486
-0.000275458
-0.00077353
-0.000284901
-0.000790973
-0.000291042
-0.000804297
-0.000294074
-0.000813057
-0.000294293
-0.000816934
-0.000292076
-0.000815782
-0.000287842
-0.000809634
-0.000282017
-0.0007987
-0.000274998
-0.000783345
-0.000267114
-0.000764042
-0.000258604
-0.000741279
-0.000715546
-0.000249588
-5.42184e-06
-6.91454e-05
-1.89629e-05
-0.000185799
-3.87064e-05
-0.000283337
-6.3105e-05
-0.000363921
-9.08156e-05
-0.000430258
-0.000120635
-0.000485352
-0.000151473
-0.000532074
-0.000182348
-0.000572876
-0.000212385
-0.000609624
-0.00024082
-0.000643547
-0.000267006
-0.000675274
-0.000290412
-0.00070493
-0.000310638
-0.00073226
-0.000327414
-0.000756755
-0.000340609
-0.000777778
-0.000350232
-0.000794674
-0.000356429
-0.000806859
-0.000359471
-0.000813893
-0.00035973
-0.000815523
-0.00035765
-0.000811714
-0.000353706
-0.000802643
-0.000348364
-0.000788687
-0.000342039
-0.000770367
-0.000335062
-0.000748256
-0.000722961
-0.000327648
-6.38852e-06
-6.27569e-05
-2.20994e-05
-0.000170088
-4.47416e-05
-0.000260695
-7.24604e-05
-0.000336202
-0.000103724
-0.000398995
-0.000137228
-0.000451848
-0.000171838
-0.000497464
-0.00020656
-0.000538155
-0.00024052
-0.000575664
-0.000272955
-0.000611113
-0.0003032
-0.000645028
-0.000330696
-0.000677434
-0.00035499
-0.000707966
-0.000375744
-0.000736001
-0.000392747
-0.000760774
-0.000405931
-0.00078149
-0.00041537
-0.000797421
-0.000421281
-0.000807981
-0.000424014
-0.000812791
-0.00042402
-0.000811708
-0.000421817
-0.000804846
-0.000417942
-0.000792562
-0.000412906
-0.000775403
-0.000407151
-0.000754011
-0.000729102
-0.00040101
-7.22584e-06
-5.5531e-05
-2.48035e-05
-0.00015251
-4.9924e-05
-0.000235575
-8.04677e-05
-0.000305659
-0.000114749
-0.000364713
-0.000151389
-0.000415208
-0.000189233
-0.00045962
-0.000227297
-0.000500091
-0.000264725
-0.000538236
-0.000300766
-0.000575072
-0.000334755
-0.000611039
-0.000366108
-0.000646081
-0.00039432
-0.000679753
-0.000418983
-0.000711339
-0.000439795
-0.000739962
-0.000456588
-0.000764698
-0.00046934
-0.000784669
-0.00047819
-0.000799131
-0.000483435
-0.000807546
-0.000485511
-0.000809632
-0.000484965
-0.000805392
-0.000482404
-0.000795122
-0.000478443
-0.000779365
-0.00047365
-0.000758803
-0.000734254
-0.000468498
-7.89595e-06
-4.76351e-05
-2.6962e-05
-0.000133444
-5.40479e-05
-0.000208489
-8.68203e-05
-0.000272886
-0.000123477
-0.000328057
-0.000162592
-0.000376093
-0.000203012
-0.000419199
-0.000243781
-0.000459322
-0.000284079
-0.000497938
-0.000323184
-0.000535966
-0.000360445
-0.000573778
-0.000395265
-0.000611262
-0.000427099
-0.000647919
-0.000455469
-0.000682968
-0.000479981
-0.00071545
-0.000500353
-0.000744326
-0.000516446
-0.000768575
-0.000528291
-0.000787287
-0.000536099
-0.000799738
-0.000540264
-0.000805467
-0.000541337
-0.000804319
-0.000539982
-0.000796477
-0.000536919
-0.000782428
-0.000532858
-0.000762864
-0.00073868
-0.000528431
-8.36649e-06
-3.92686e-05
-2.84787e-05
-0.000113332
-5.69379e-05
-0.00018003
-9.12555e-05
-0.000238569
-0.000129549
-0.000289763
-0.000170374
-0.000335269
-0.000212595
-0.000376978
-0.000255298
-0.000416619
-0.000297715
-0.000455521
-0.000339171
-0.000494511
-0.000379043
-0.000533905
-0.000416743
-0.000573562
-0.000451703
-0.000612959
-0.000483389
-0.000651283
-0.000511319
-0.00068752
-0.000535097
-0.000720548
-0.000554452
-0.00074922
-0.00056928
-0.000772459
-0.000579673
-0.000789345
-0.000585942
-0.000799198
-0.000588606
-0.000801655
-0.000588363
-0.00079672
-0.000586028
-0.000784763
-0.000582459
-0.000766433
-0.00074267
-0.00057847
-8.61331e-06
-3.06553e-05
-2.92814e-05
-9.26636e-05
-5.84618e-05
-0.000150849
-9.35729e-05
-0.000203458
-0.00013269
-0.000250646
-0.000174368
-0.000293591
-0.000217506
-0.000333839
-0.000261244
-0.000372881
-0.000304875
-0.00041189
-0.000347784
-0.000451601
-0.000389401
-0.000492289
-0.000429163
-0.0005338
-0.000466506
-0.000575615
-0.000500866
-0.000616923
-0.000531691
-0.000656695
-0.000558482
-0.000693756
-0.000580834
-0.000726868
-0.000598487
-0.000754805
-0.000611384
-0.000776448
-0.000619707
-0.000790876
-0.000623896
-0.000797466
-0.000624639
-0.000795976
-0.000622822
-0.00078658
-0.000619443
-0.000769813
-0.000746602
-0.000615511
-8.62282e-06
-2.20325e-05
-2.9329e-05
-7.19574e-05
-5.85426e-05
-0.000121636
-9.3652e-05
-0.000168348
-0.000132724
-0.000211574
-0.000174333
-0.000251982
-0.000217419
-0.000290753
-0.00026118
-0.00032912
-0.000304979
-0.000368091
-0.000348272
-0.000408308
-0.000390552
-0.000450009
-0.000431312
-0.00049304
-0.000470018
-0.000536909
-0.000506107
-0.000580834
-0.000538994
-0.000623808
-0.0005681
-0.00066465
-0.000592901
-0.000702068
-0.000612981
-0.000734725
-0.000628105
-0.000761324
-0.000638281
-0.0007807
-0.000643814
-0.000791933
-0.000645323
-0.000794468
-0.000643711
-0.000788192
-0.000640093
-0.00077343
-0.000751017
-0.000635678
-8.39375e-06
-1.36387e-05
-2.8616e-05
-5.17351e-05
-5.71668e-05
-9.3085e-05
-9.14657e-05
-0.000134049
-0.000129603
-0.000173436
-0.000170184
-0.000211401
-0.000212194
-0.000248743
-0.000254888
-0.000286426
-0.000297697
-0.000325282
-0.000340153
-0.000365853
-0.000381826
-0.000408336
-0.00042228
-0.000452586
-0.000461044
-0.000498145
-0.000497591
-0.000544287
-0.000531345
-0.000590055
-0.000561691
-0.000634304
-0.000588019
-0.00067574
-0.000609774
-0.000712969
-0.000626539
-0.000744559
-0.000638115
-0.000769124
-0.000644605
-0.000785442
-0.000646484
-0.00079259
-0.000644599
-0.000790077
-0.000640128
-0.000777901
-0.00075668
-0.000634465
-7.93785e-06
-5.70087e-06
-2.71747e-05
-3.24982e-05
-5.43889e-05
-6.58708e-05
-8.70876e-05
-0.000101351
-0.000123413
-0.000137111
-0.000162009
-0.000172805
-0.000201904
-0.000208848
-0.000242405
-0.000245926
-0.000283004
-0.000284683
-0.000323303
-0.000325553
-0.000362954
-0.000368685
-0.000401604
-0.000413935
-0.000438866
-0.000460884
-0.000474287
-0.000508866
-0.000507341
-0.000557
-0.000537434
-0.000604211
-0.000563921
-0.000649253
-0.000586154
-0.000690736
-0.000603552
-0.00072716
-0.000615699
-0.000756978
-0.00062245
-0.000778691
-0.000624046
-0.000790993
-0.000621186
-0.000792937
-0.00061502
-0.000784068
-0.000764618
-0.000607082
-7.27944e-06
1.57856e-06
-2.50748e-05
-1.47029e-05
-5.03308e-05
-4.06148e-05
-8.0692e-05
-7.09894e-05
-0.000114375
-0.000103428
-0.000150071
-0.000137109
-0.000186845
-0.000172073
-0.000224044
-0.000208726
-0.000261209
-0.000247519
-0.000298002
-0.00028876
-0.000334147
-0.00033254
-0.000369378
-0.000378704
-0.000403402
-0.000426861
-0.000435864
-0.000476404
-0.000466331
-0.000526532
-0.000494279
-0.000576262
-0.000519097
-0.000624436
-0.000540108
-0.000669725
-0.000556626
-0.000710642
-0.00056804
-0.000745564
-0.000573941
-0.000772791
-0.000574269
-0.000790664
-0.000569459
-0.000797748
-0.000560513
-0.000793014
-0.000776106
-0.000549025
-6.45383e-06
8.03239e-06
-2.24184e-05
1.26159e-06
-4.51746e-05
-1.78586e-05
-7.25447e-05
-4.36192e-05
-0.00010284
-7.31331e-05
-0.000134802
-0.000105147
-0.000167527
-0.000139348
-0.000200389
-0.000175865
-0.000232959
-0.000214948
-0.000264944
-0.000256775
-0.000296125
-0.00030136
-0.000326309
-0.00034852
-0.000355296
-0.000397874
-0.00038284
-0.00044886
-0.000408624
-0.000500748
-0.000432239
-0.000552647
-0.000453169
-0.000603506
-0.000470789
-0.000652106
-0.00048439
-0.00069704
-0.000493242
-0.000736712
-0.000496698
-0.000769334
-0.000494373
-0.000792989
-0.000486341
-0.00080578
-0.000473315
-0.00080604
-0.000792605
-0.000456816
-5.50459e-06
1.3537e-05
-1.93335e-05
1.50905e-05
-3.91506e-05
1.9585e-06
-6.29862e-05
-1.97836e-05
-8.92613e-05
-4.68581e-05
-0.000116771
-7.76372e-05
-0.000144639
-0.00011148
-0.00017225
-0.000148254
-0.000199191
-0.000188007
-0.00022519
-0.000230776
-0.000250066
-0.000276485
-0.00027368
-0.000324905
-0.000295909
-0.000375645
-0.000316606
-0.000428164
-0.000335575
-0.000481779
-0.000352547
-0.000535676
-0.000367145
-0.000588908
-0.000378872
-0.000640379
-0.000387095
-0.000688818
-0.000391068
-0.000732739
-0.000390004
-0.000770399
-0.000383226
-0.000799766
-0.000370407
-0.0008186
-0.000351838
-0.000824609
-0.000815645
-0.000328798
-4.48004e-06
1.8017e-05
-1.59641e-05
2.65746e-05
-3.25206e-05
1.85151e-05
-5.24065e-05
1.02246e-07
-7.41637e-05
-2.51008e-05
-9.66453e-05
-5.51556e-05
-0.000118994
-8.91316e-05
-0.0001406
-0.000126648
-0.000161048
-0.000167559
-0.000180069
-0.000211755
-0.000197494
-0.000259059
-0.000213219
-0.00030918
-0.00022717
-0.000361694
-0.00023928
-0.000416054
-0.000249461
-0.000471598
-0.000257579
-0.000527559
-0.00026342
-0.000583066
-0.000266662
-0.000637137
-0.000266833
-0.000688646
-0.000263297
-0.000736276
-0.000255262
-0.000778434
-0.00024188
-0.000813148
-0.000222462
-0.000838018
-0.000196808
-0.000850263
-0.000846692
-0.00016576
-3.42935e-06
2.14464e-05
-1.24585e-05
3.56037e-05
-2.55575e-05
3.1614e-05
-4.12156e-05
1.57603e-05
-5.81027e-05
-8.21373e-06
-7.51316e-05
-3.81267e-05
-9.14641e-05
-7.2799e-05
-0.000106486
-0.000111626
-0.000119771
-0.000154274
-0.000131036
-0.00020049
-0.000140107
-0.000249988
-0.000146888
-0.000302399
-0.000151334
-0.000357248
-0.000153428
-0.00041396
-0.000153164
-0.000471861
-0.000150525
-0.000530198
-0.000145453
-0.000588138
-0.000137816
-0.000644774
-0.00012736
-0.000699102
-0.000113657
-0.000749979
-9.60631e-05
-0.000796027
-7.37357e-05
-0.000835476
-4.57674e-05
-0.000865986
-1.14968e-05
-0.000884534
-0.00088701
2.88207e-05
-2.39863e-06
2.3845e-05
-8.95859e-06
4.21637e-05
-1.85247e-05
4.11801e-05
-2.98126e-05
2.70482e-05
-4.16207e-05
3.59446e-06
-5.29241e-05
-2.68233e-05
-6.29033e-05
-6.28198e-05
-7.09376e-05
-0.000103592
-7.65797e-05
-0.000148632
-7.9525e-05
-0.000197545
-7.95811e-05
-0.000249932
-7.66432e-05
-0.000305337
-7.06731e-05
-0.000363218
-6.16837e-05
-0.000422949
-4.97248e-05
-0.00048382
-3.48681e-05
-0.000545054
-1.71874e-05
-0.000605819
3.27109e-06
-0.000665232
2.65325e-05
-0.000722364
5.27562e-05
-0.000776203
8.23145e-05
-0.000825586
0.000115857
-0.000869018
0.00015429
-0.000904419
0.000198581
-0.000928825
-0.000937535
0.000249107
-1.4275e-06
2.52725e-05
-5.58887e-06
4.6325e-05
-1.16567e-05
4.7248e-05
-1.85553e-05
3.39468e-05
-2.52067e-05
1.02459e-05
-3.0648e-05
-2.13821e-05
-3.40793e-05
-5.93885e-05
-3.48728e-05
-0.000102798
-3.25595e-05
-0.000150946
-2.68073e-05
-0.000203297
-1.73993e-05
-0.00025934
-4.21378e-06
-0.000318522
1.27908e-05
-0.000380223
3.35867e-05
-0.000443745
5.8086e-05
-0.000508319
8.61493e-05
-0.000573118
0.000117598
-0.000637267
0.000152234
-0.000699868
0.000189871
-0.000760001
0.000230392
-0.000816724
0.000273834
-0.000869028
0.000320502
-0.000915686
0.00037106
-0.000954978
0.000426519
-0.000984283
-0.000998776
0.00048776
-5.46419e-07
2.58189e-05
-2.44796e-06
4.82266e-05
-5.14261e-06
4.99427e-05
-7.73487e-06
3.6539e-05
-9.25958e-06
1.17706e-05
-8.81285e-06
-2.18288e-05
-5.61525e-06
-6.25861e-05
9.66816e-07
-0.00010938
1.14229e-05
-0.000161402
2.6111e-05
-0.000217985
4.52722e-05
-0.000278501
6.90447e-05
-0.000342295
9.74733e-05
-0.000408652
0.000130517
-0.000476789
0.000168055
-0.000545857
0.00020989
-0.000614952
0.000255753
-0.000683131
0.000305319
-0.000749434
0.000358224
-0.000812906
0.000414103
-0.000872602
0.000472656
-0.000927582
0.000533774
-0.000976803
0.000597679
-0.00101888
0.000665078
-0.00105168
-0.00107082
0.000737118
2.2511e-07
2.55938e-05
3.97506e-07
4.80542e-05
8.86509e-07
4.94537e-05
2.44351e-06
3.4982e-05
5.93797e-06
8.27614e-06
1.22207e-05
-2.81116e-05
2.20514e-05
-7.24168e-05
3.60667e-05
-0.000123395
5.47719e-05
-0.000180107
7.8545e-05
-0.000241758
0.000107643
-0.000307599
0.000142211
-0.000376863
0.000182287
-0.000448728
0.000227806
-0.000522308
0.000278604
-0.000596655
0.00033442
-0.000670768
0.000394902
-0.000743613
0.000459614
-0.000814146
0.000528042
-0.000881334
0.000599615
-0.000944175
0.000673745
-0.00100171
0.000749917
-0.00105298
0.000827838
-0.0010968
0.000907616
-0.00113146
-0.0011537
0.000990497
8.79218e-07
2.47146e-05
2.91597e-06
4.60174e-05
6.36381e-06
4.60058e-05
1.18717e-05
2.94741e-05
2.02349e-05
-8.70952e-08
3.22605e-05
-4.01372e-05
4.86898e-05
-8.88461e-05
7.01588e-05
-0.000144864
9.71804e-05
-0.000207129
0.00013014
-0.000274718
0.000169295
-0.000346755
0.000214777
-0.000422345
0.000266593
-0.000500544
0.000324632
-0.000580346
0.000388663
-0.000660687
0.000458352
-0.000740456
0.000533261
-0.000818522
0.000612861
-0.000893746
0.000696539
-0.000965012
0.000783596
-0.00103123
0.000873246
-0.00109136
0.000964633
-0.00114436
0.0010569
-0.00118907
0.00114937
-0.00122393
-0.00124779
0.00124346
1.41942e-06
2.32952e-05
5.11095e-06
4.23259e-05
1.12879e-05
3.98288e-05
2.05408e-05
2.02213e-05
3.3615e-05
-1.31614e-05
5.12852e-05
-5.78073e-05
7.42758e-05
-0.000111837
0.000103216
-0.000173804
0.000138613
-0.000242526
0.00018084
-0.000316944
0.000230126
-0.000396041
0.000286557
-0.000478776
0.000350073
-0.00056406
0.000420473
-0.000650746
0.000497429
-0.000737642
0.000580498
-0.000823526
0.000669152
-0.000907176
0.000762803
-0.000987397
0.000860833
-0.00106304
0.00096262
-0.00113302
0.00106754
-0.00119628
0.0011749
-0.00125173
0.00128362
-0.00129778
0.00139105
-0.00133136
-0.00134738
0.00149064
1.85911e-06
2.14361e-05
7.01775e-06
3.71672e-05
1.5718e-05
3.11285e-05
2.85344e-05
7.40495e-06
4.61877e-05
-3.08147e-05
6.94309e-05
-8.10505e-05
9.89718e-05
-0.000141378
0.000135422
-0.000210254
0.000179262
-0.000286366
0.000230821
-0.000368504
0.000290264
-0.000455484
0.00035758
-0.000546092
0.000432585
-0.000639065
0.000514933
-0.000733094
0.000604133
-0.000826842
0.000699581
-0.000918974
0.000800604
-0.0010082
0.000906518
-0.00109331
0.0010167
-0.00117323
0.00113071
-0.00124703
0.00124842
-0.00131399
0.00137025
-0.00137355
0.00149776
-0.00142529
0.00163542
-0.00146902
-0.00150529
0.00179333
2.22072e-06
1.92153e-05
8.69926e-06
3.06887e-05
1.97646e-05
2.00632e-05
3.60135e-05
-8.84395e-06
5.81648e-05
-5.2966e-05
8.69587e-05
-0.000109844
0.000123081
-0.0001775
0.000167109
-0.000254282
0.000219467
-0.000338724
0.000280399
-0.000429436
0.000349947
-0.000525032
0.000427945
-0.000624089
0.000514017
-0.000725138
0.000607599
-0.000826676
0.000707962
-0.000927205
0.000814263
-0.00102527
0.000925596
-0.00111953
0.00104106
-0.00120877
0.00115982
-0.001292
0.00128123
-0.00136844
0.00140486
-0.00143761
0.00153064
-0.00149934
0.0016591
-0.00155375
0.00179142
-0.00160133
-0.00164108
0.00192721
2.53156e-06
1.66838e-05
1.02362e-05
2.2984e-05
2.35737e-05
6.72572e-06
4.3194e-05
-2.84642e-05
6.9831e-05
-7.9603e-05
0.000104215
-0.000144229
0.000147
-0.000220285
0.000198699
-0.000305981
0.000259639
-0.000399664
0.000329925
-0.000499722
0.000409413
-0.000604521
0.00049771
-0.000712386
0.000594175
-0.000821603
0.000697955
-0.000930456
0.000808025
-0.00103728
0.000923248
-0.0011405
0.00104244
-0.00123872
0.00116444
-0.00133077
0.00128818
-0.00141573
0.00141273
-0.00149299
0.00153736
-0.00156224
0.00166152
-0.00162351
0.00178487
-0.0016771
0.00190694
-0.00172341
-0.00176091
0.00202677
2.82208e-06
1.38617e-05
1.17197e-05
1.40864e-05
2.73112e-05
-8.86571e-06
5.032e-05
-5.14731e-05
8.15044e-05
-0.000110787
0.000121579
-0.000184304
0.000171143
-0.000269848
0.000230608
-0.000365446
0.000300152
-0.000469208
0.000379672
-0.000579242
0.00046877
-0.000693618
0.000566748
-0.000810364
0.00067264
-0.000927495
0.000785251
-0.00104307
0.000903223
-0.00115525
0.00102511
-0.00126239
0.00114947
-0.00136308
0.0012749
-0.0014562
0.00140015
-0.00154098
0.00152413
-0.00161697
0.00164593
-0.00168405
0.00176484
-0.00174241
0.00188023
-0.00179249
0.00199154
-0.00183472
-0.00186789
0.00209852
3.12258e-06
1.07391e-05
1.32414e-05
3.9675e-06
3.11437e-05
-2.6768e-05
5.76349e-05
-7.79642e-05
9.3495e-05
-0.000146648
0.000139407
-0.000230215
0.000195878
-0.00032632
0.000263173
-0.000432741
0.000341251
-0.000547286
0.000429734
-0.000667724
0.000527891
-0.000791776
0.000634662
-0.000917135
0.000748701
-0.00104153
0.000868448
-0.00116281
0.000992217
-0.00127902
0.00111829
-0.00138846
0.00124501
-0.00148979
0.00137085
-0.00158204
0.00149448
-0.00166461
0.0016148
-0.00173729
0.00173093
-0.00180018
0.00184222
-0.0018537
0.00194817
-0.00189843
0.00204844
-0.00193499
-0.00196264
0.00214319
3.46052e-06
7.2786e-06
1.48848e-05
-7.45673e-06
3.5222e-05
-4.71052e-05
6.53539e-05
-0.000108096
0.000106067
-0.000187361
0.000157981
-0.00028213
0.000221468
-0.000389807
0.000296578
-0.000507851
0.000382983
-0.000633691
0.000479953
-0.000764694
0.000586363
-0.000898185
0.000700738
-0.00103151
0.000821336
-0.00116213
0.000946242
-0.00128772
0.00107348
-0.00140626
0.00120115
-0.00151612
0.00132747
-0.00161612
0.00145091
-0.00170548
0.00157021
-0.00178391
0.0016844
-0.00185148
0.0017928
-0.00190858
0.00189497
-0.00195587
0.00199071
-0.00199418
0.00208002
-0.0020243
-0.00204603
0.00216341
3.85835e-06
3.42025e-06
1.67178e-05
-2.03162e-05
3.96666e-05
-7.0054e-05
7.36424e-05
-0.000142072
0.000119409
-0.000233127
0.000177477
-0.000340198
0.000248024
-0.000460353
0.000330813
-0.00059064
0.000425154
-0.000728033
0.000529899
-0.000869439
0.000643476
-0.00101176
0.00076398
-0.00115202
0.000889281
-0.00128743
0.00101716
-0.0014156
0.00114545
-0.00153455
0.00127214
-0.00164281
0.00139548
-0.00173946
0.00151407
-0.00182407
0.00162683
-0.00189668
0.00173305
-0.0019577
0.00183235
-0.00200787
0.0019246
-0.00204813
0.00200993
-0.00207951
0.00208866
-0.00210302
-0.00211891
0.00216154
4.33217e-06
-9.11922e-07
1.87886e-05
-3.47726e-05
4.45588e-05
-9.58243e-05
8.26012e-05
-0.000180114
0.000133611
-0.000284137
0.000197936
-0.000404523
0.000275482
-0.000537899
0.000365654
-0.000680812
0.000467328
-0.000829707
0.000578881
-0.000980992
0.000698276
-0.00113116
0.000823184
-0.00127692
0.000951143
-0.00141539
0.00107972
-0.00154417
0.00120665
-0.00166148
0.00132997
-0.00176613
0.00144808
-0.00185758
0.00155981
-0.0019358
0.0016644
-0.00200126
0.00176145
-0.00205476
0.00185093
-0.00209735
0.00193305
-0.00213024
0.00200823
-0.00215469
0.00207707
-0.00217186
-0.00218232
0.00214048
4.89125e-06
-5.80317e-06
2.11233e-05
-5.10047e-05
4.99364e-05
-0.000124637
9.22606e-05
-0.000222438
0.000148665
-0.000340542
0.000219261
-0.000475118
0.00030361
-0.000622248
0.000400681
-0.000777882
0.000508856
-0.000937882
0.00062601
-0.00109815
0.000749643
-0.00125479
0.000877055
-0.00140433
0.00100554
-0.00154387
0.00113256
-0.00167119
0.0012559
-0.00178481
0.00137375
-0.00188399
0.00148481
-0.00196863
0.00158822
-0.00203921
0.00168358
-0.00209662
0.00177087
-0.00214205
0.00185038
-0.00217686
0.00192263
-0.00220249
0.00198829
-0.00222035
0.00204816
-0.00223172
-0.00223739
0.00210323
5.53833e-06
-1.13415e-05
2.37268e-05
-6.91931e-05
5.57947e-05
-0.000156705
0.000102582
-0.000269226
0.000164462
-0.000402422
0.00024123
-0.000551886
0.000332024
-0.000713042
0.00043531
-0.000881168
0.000548936
-0.00105151
0.000670273
-0.00121948
0.000796402
-0.00138092
0.000924337
-0.00153227
0.00105124
-0.00167078
0.00117461
-0.00179457
0.00129241
-0.00190261
0.00140313
-0.00199471
0.00150579
-0.0020713
0.00159996
-0.00213337
0.00168559
-0.00218226
0.00176304
-0.00221949
0.00183289
-0.00224671
0.00189589
-0.0022655
0.00195291
-0.00227737
0.00200484
-0.00228365
-0.00228525
0.0020527
6.27062e-06
-1.76121e-05
2.65849e-05
-8.95074e-05
6.2091e-05
-0.000192211
0.000113467
-0.000320602
0.00018081
-0.000469765
0.000263515
-0.000634591
0.000360224
-0.000809751
0.000468845
-0.000989789
0.000586681
-0.00116934
0.00071063
-0.00134343
0.000837431
-0.00150772
0.000963929
-0.00165877
0.00108729
-0.00179414
0.00120519
-0.00191246
0.00131588
-0.0020133
0.00141822
-0.00209705
0.00151167
-0.00216475
0.00159617
-0.00221787
0.00167207
-0.00225816
0.00174002
-0.00228744
0.00180083
-0.00230752
0.00185544
-0.00232011
0.0019048
-0.00232673
0.00194985
-0.0023287
-0.00232696
0.00199156
7.08097e-06
-2.46931e-05
2.96682e-05
-0.000112095
6.87519e-05
-0.000231295
0.000124768
-0.000376618
0.000197448
-0.000542445
0.000285711
-0.000722854
0.00038763
-0.00091167
0.000500533
-0.00110269
0.000621191
-0.00129
0.000746094
-0.00146833
0.000871753
-0.00163338
0.000994974
-0.00178199
0.00111307
-0.00191225
0.00122401
-0.0020234
0.00132644
-0.00211572
0.00141964
-0.00219026
0.00150351
-0.00224862
0.00157838
-0.00229274
0.00164491
-0.00232469
0.00170398
-0.00234651
0.0017566
-0.00236013
0.00180376
-0.00236728
0.00184646
-0.00236943
0.00188562
-0.00236786
-0.00236346
0.00192213
7.95919e-06
-3.26523e-05
3.29362e-05
-0.000137072
7.56809e-05
-0.00027404
0.000136299
-0.000437236
0.000214073
-0.00062022
0.000307362
-0.000816143
0.000413632
-0.00101794
0.000529621
-0.00121868
0.00065162
-0.001412
0.000775812
-0.00159253
0.000898608
-0.00175617
0.00101692
-0.0019003
0.00112834
-0.00202366
0.00123121
-0.00212628
0.00132465
-0.00220915
0.00140839
-0.002274
0.00148272
-0.00232295
0.00154832
-0.00235834
0.00160609
-0.00238247
0.0016571
-0.00239752
0.00170242
-0.00240545
0.00174309
-0.00240795
0.00178007
-0.00240641
0.00181422
-0.00240201
-0.00239556
0.00184632
8.89307e-06
-4.15454e-05
3.63402e-05
-0.000164519
8.27646e-05
-0.000320464
0.000147853
-0.000502324
0.000230351
-0.000702718
0.000327997
-0.000913789
0.000437621
-0.00112756
0.000555401
-0.00133646
0.000677232
-0.00153383
0.000799111
-0.00171441
0.000917491
-0.00187455
0.00102952
-0.00201233
0.00113318
-0.00212732
0.00122728
-0.00222038
0.00131139
-0.00229326
0.0013857
-0.0023483
0.00145084
-0.0023881
0.00150777
-0.00241526
0.00155757
-0.00243227
0.00160138
-0.00244134
0.00164031
-0.00244439
0.00167538
-0.00244301
0.00170747
-0.0024385
0.00173735
-0.00243189
-0.00242389
0.00176568
9.8691e-06
-5.14145e-05
3.98263e-05
-0.000194476
8.98798e-05
-0.000370518
0.000159206
-0.00057165
0.000245939
-0.00078945
0.000347146
-0.001015
0.000459024
-0.00123944
0.000577255
-0.00145469
0.000697441
-0.00165402
0.000815535
-0.0018325
0.000928171
-0.00198719
0.00103286
-0.00211702
0.00112803
-0.0022225
0.001213
-0.00230535
0.00128779
-0.00236806
0.00135298
-0.00241349
0.0014095
-0.00244461
0.00145848
-0.00246424
0.00150113
-0.00247491
0.00153861
-0.00247882
0.001572
-0.00247777
0.00160224
-0.00247325
0.00163013
-0.00246639
0.00165634
-0.00245809
-0.00244897
0.00168141
1.0873e-05
-6.22874e-05
4.33373e-05
-0.00022694
9.6897e-05
-0.000424077
0.000170133
-0.000644887
0.000260498
-0.000879815
0.000364368
-0.00111887
0.000477338
-0.00135241
0.000594679
-0.00157203
0.000711834
-0.00177117
0.000824852
-0.00194552
0.000930675
-0.00209301
0.00102726
-0.0022136
0.00111355
-0.00230879
0.00118934
-0.00238114
0.00125508
-0.00243379
0.00131166
-0.00247007
0.00136025
-0.0024932
0.00140208
-0.00250608
0.0014384
-0.00251123
0.00147035
-0.00251077
0.00149893
-0.00250636
0.00152499
-0.00249931
0.00154924
-0.00249064
0.00157223
-0.00248108
-0.00247114
0.00159441
1.18898e-05
-7.41772e-05
4.6814e-05
-0.000261865
0.000103685
-0.000480948
0.000180409
-0.000721611
0.000273708
-0.000973114
0.000379267
-0.00122442
0.000492142
-0.00146529
0.000607305
-0.0016872
0.00072018
-0.00188405
0.000827046
-0.00205239
0.000925261
-0.00219123
0.00101329
-0.00230163
0.00109058
-0.00238608
0.00115739
-0.00244795
0.00121453
-0.00249093
0.00126315
-0.00251869
0.00130453
-0.00253458
0.00133999
-0.00254154
0.00137074
-0.00254198
0.00139786
-0.00253788
0.00142225
-0.00253075
0.00144467
-0.00252173
0.00146571
-0.00251168
0.00148583
-0.0025012
-0.00249069
0.00150538
1.2904e-05
-8.70812e-05
5.01963e-05
-0.000299157
0.000110114
-0.000540866
0.000189819
-0.000801316
0.000285276
-0.00106857
0.000391507
-0.00133066
0.000503116
-0.0015769
0.000614908
-0.00179899
0.000722426
-0.00199157
0.0008223
-0.00215226
0.000912375
-0.0022813
0.000991645
-0.0023809
0.00106006
-0.0024545
0.00111828
-0.00250617
0.0011674
-0.00254005
0.00120873
-0.00256003
0.00124366
-0.00256951
0.00127346
-0.00257134
0.00129931
-0.00256783
0.00132218
-0.00256075
0.00134289
-0.00255145
0.00136207
-0.00254091
0.00138022
-0.00252983
0.00139771
-0.0025187
-0.0025078
0.00141481
1.38998e-05
-0.000100981
5.34242e-05
-0.000338681
0.000116057
-0.000603498
0.000198166
-0.000883425
0.000294949
-0.00116535
0.000400822
-0.00143653
0.000510049
-0.00168612
0.000617406
-0.00190634
0.000718682
-0.00209284
0.000810954
-0.00224453
0.000892601
-0.00236295
0.000963143
-0.00245144
0.00102298
-0.00251434
0.00107311
-0.0025563
0.00111483
-0.00258178
0.00114958
-0.00259477
0.00117873
-0.00259865
0.00120353
-0.00259614
0.00122504
-0.00258935
0.00124416
-0.00257987
0.00126156
-0.00256886
0.00127781
-0.00255716
0.0012933
-0.00254532
0.00130833
-0.00253372
-0.00252257
0.0013231
1.48611e-05
-0.000115842
5.64388e-05
-0.000380259
0.000121397
-0.000668457
0.000205271
-0.000967299
0.000302516
-0.0012626
0.000407022
-0.00154103
0.000512838
-0.00179194
0.000614845
-0.00200835
0.000709195
-0.00218719
0.000793476
-0.00232881
0.000866615
-0.00243609
0.00092863
-0.00251345
0.000980312
-0.00256602
0.00102292
-0.0025989
0.00105789
-0.00261675
0.0010867
-0.00262359
0.0011107
-0.00262265
0.00113104
-0.00261648
0.00114869
-0.002607
0.00116442
-0.0025956
0.00117883
-0.00258327
0.00119236
-0.00257069
0.00120534
-0.0025583
0.00121801
-0.00254639
-0.00253508
0.00123052
1.57716e-05
-0.000131614
5.91837e-05
-0.000423671
0.000126025
-0.000735298
0.000210985
-0.00105226
0.00030782
-0.00135943
0.000409996
-0.00164321
0.000511482
-0.00189343
0.000607389
-0.00210426
0.000694323
-0.00227413
0.000770419
-0.00240491
0.000835142
-0.00250081
0.000888958
-0.00256727
0.00093298
-0.00261004
0.000968651
-0.00263457
0.0009975
-0.0026456
0.00102097
-0.00264706
0.00104035
-0.00264202
0.00105669
-0.00263282
0.00107085
-0.00262116
0.00108349
-0.00260824
0.00109511
-0.00259489
0.00110608
-0.00258165
0.00111666
-0.00256888
0.00112703
-0.00255676
-0.00254536
0.0011373
1.66157e-05
-0.000148229
6.16062e-05
-0.000468662
0.000129846
-0.000803538
0.000215187
-0.0011376
0.000310755
-0.001455
0.000409711
-0.00174217
0.000506072
-0.00198979
0.000595295
-0.00219348
0.0006745
-0.00235333
0.000742385
-0.00247279
0.000798916
-0.00255734
0.000844946
-0.0026133
0.000881839
-0.00264694
0.000911157
-0.00266389
0.000934448
-0.00266889
0.000953107
-0.00266572
0.000968316
-0.00265723
0.000981029
-0.00264554
0.000991987
-0.00263212
0.00100175
-0.002618
0.00101073
-0.00260387
0.00101924
-0.00259016
0.00102747
-0.00257711
0.00103557
-0.00256486
-0.00255341
0.00104362
1.7378e-05
-0.000165607
6.36587e-05
-0.000514942
0.000132782
-0.000872661
0.00021779
-0.00122261
0.000311269
-0.00154848
0.000406201
-0.0018371