/*--------------------------------*- C++ -*----------------------------------*\
  =========                 |
  \\      /  F ield         | OpenFOAM: The Open Source CFD Toolbox
   \\    /   O peration     | Website:  https://openfoam.org
    \\  /    A nd           | Version:  6.0
     \\/     M anipulation  |
\*---------------------------------------------------------------------------*/
FoamFile
{
    version     2.0;
    format      ascii;
    class       volScalarField;
    location    "5";
    object      p;
}
// * * * * * * * * * * * * * * * * * * * * * * * * * * * * * * * * * * * * * //

dimensions      [0 2 -2 0 0 0 0];

internalField   nonuniform List<scalar> 
8000
(
-0.343581
-0.34755
-0.349967
-0.351797
-0.353601
-0.355487
-0.357503
-0.359663
-0.361953
-0.36434
-0.366786
-0.369249
-0.371688
-0.374066
-0.376348
-0.378505
-0.3805
-0.382281
-0.383863
-0.385544
-0.34446
-0.348296
-0.350647
-0.352442
-0.354224
-0.356095
-0.358103
-0.360261
-0.362552
-0.364945
-0.367401
-0.369876
-0.372331
-0.374727
-0.377028
-0.379204
-0.38122
-0.383022
-0.384619
-0.386314
-0.346176
-0.349751
-0.351973
-0.353699
-0.355434
-0.357275
-0.359265
-0.361416
-0.363709
-0.366111
-0.368582
-0.371079
-0.373561
-0.375987
-0.378322
-0.380534
-0.382589
-0.384428
-0.386054
-0.387776
-0.348626
-0.35183
-0.353864
-0.355488
-0.357151
-0.358943
-0.360901
-0.363034
-0.365322
-0.367729
-0.370214
-0.372734
-0.375246
-0.377708
-0.380084
-0.382341
-0.384444
-0.386332
-0.387996
-0.389757
-0.351672
-0.354415
-0.356211
-0.357698
-0.359262
-0.360981
-0.362888
-0.364986
-0.367253
-0.369652
-0.372141
-0.374675
-0.37721
-0.379703
-0.382116
-0.384416
-0.386568
-0.388507
-0.390214
-0.392023
-0.35515
-0.357368
-0.358886
-0.360205
-0.361639
-0.363257
-0.365085
-0.367122
-0.369345
-0.371713
-0.374184
-0.376712
-0.379251
-0.381758
-0.384193
-0.386524
-0.388714
-0.390698
-0.392445
-0.394311
-0.358887
-0.360547
-0.361755
-0.362876
-0.36415
-0.365633
-0.367349
-0.369292
-0.371435
-0.373739
-0.376159
-0.378649
-0.381163
-0.383656
-0.386088
-0.388426
-0.390635
-0.392648
-0.394426
-0.396355
-0.362714
-0.363812
-0.364695
-0.365592
-0.366672
-0.367985
-0.369548
-0.371354
-0.373375
-0.375572
-0.3779
-0.380311
-0.38276
-0.385202
-0.387596
-0.389909
-0.392109
-0.394128
-0.395921
-0.397917
-0.366481
-0.367044
-0.367596
-0.368248
-0.369104
-0.370207
-0.371574
-0.373196
-0.375046
-0.377086
-0.379273
-0.381558
-0.383896
-0.386242
-0.388556
-0.390806
-0.392962
-0.394958
-0.396743
-0.39881
-0.370068
-0.370148
-0.370378
-0.370769
-0.371372
-0.372227
-0.373352
-0.37474
-0.376368
-0.3782
-0.380192
-0.3823
-0.384478
-0.386681
-0.38887
-0.391014
-0.393087
-0.395023
-0.396774
-0.398907
-0.373388
-0.373058
-0.372987
-0.373109
-0.373433
-0.374005
-0.374845
-0.375952
-0.377308
-0.378879
-0.380628
-0.38251
-0.384479
-0.386493
-0.388512
-0.390506
-0.392451
-0.394286
-0.395959
-0.398146
-0.376397
-0.375743
-0.3754
-0.37525
-0.375279
-0.375537
-0.376055
-0.376839
-0.377878
-0.379145
-0.380606
-0.382219
-0.38394
-0.385723
-0.387529
-0.389328
-0.391098
-0.392776
-0.39431
-0.396509
-0.37909
-0.378204
-0.377623
-0.377204
-0.376926
-0.376849
-0.377016
-0.377445
-0.378134
-0.379064
-0.380205
-0.381518
-0.382958
-0.384479
-0.386037
-0.387598
-0.389139
-0.39059
-0.391882
-0.393998
-0.3815
-0.38047
-0.379686
-0.379006
-0.378416
-0.377992
-0.377792
-0.377846
-0.378165
-0.378739
-0.379542
-0.380538
-0.38168
-0.382918
-0.384199
-0.38548
-0.38673
-0.387862
-0.388763
-0.390612
-0.383696
-0.382599
-0.381644
-0.380712
-0.379812
-0.379038
-0.378464
-0.378138
-0.378082
-0.378296
-0.378759
-0.379434
-0.380274
-0.381218
-0.382201
-0.383162
-0.384051
-0.384747
-0.385054
-0.386343
-0.385778
-0.38467
-0.383567
-0.382393
-0.38119
-0.380071
-0.37913
-0.378431
-0.378009
-0.377871
-0.378003
-0.378367
-0.378909
-0.379556
-0.380224
-0.380823
-0.381271
-0.381402
-0.380882
-0.381214
-0.387866
-0.386779
-0.385541
-0.384133
-0.382636
-0.381185
-0.379892
-0.378838
-0.378068
-0.377599
-0.377418
-0.377485
-0.377736
-0.378083
-0.378415
-0.378607
-0.378531
-0.377971
-0.376422
-0.375354
-0.390098
-0.389033
-0.38766
-0.386022
-0.384242
-0.382475
-0.380853
-0.379468
-0.378377
-0.377601
-0.377128
-0.376911
-0.376876
-0.376913
-0.376882
-0.37661
-0.375915
-0.374523
-0.371758
-0.368838
-0.392612
-0.391544
-0.390023
-0.388155
-0.386101
-0.384038
-0.382111
-0.380423
-0.379037
-0.377978
-0.37723
-0.376742
-0.376423
-0.376147
-0.375742
-0.374988
-0.373623
-0.371262
-0.366975
-0.361635
-0.395545
-0.394419
-0.392726
-0.390622
-0.388301
-0.385959
-0.38375
-0.381784
-0.380129
-0.378805
-0.377795
-0.377041
-0.376445
-0.375877
-0.375161
-0.37408
-0.372359
-0.369512
-0.364311
-0.357379
-0.399015
-0.397758
-0.395855
-0.393502
-0.390917
-0.388308
-0.385836
-0.383612
-0.381702
-0.380123
-0.37885
-0.37782
-0.376938
-0.376082
-0.375112
-0.373894
-0.372315
-0.370286
-0.367973
-0.36913
-0.403124
-0.401643
-0.399485
-0.396864
-0.39401
-0.391139
-0.388413
-0.385941
-0.38378
-0.381939
-0.380384
-0.379046
-0.377829
-0.37662
-0.375308
-0.3738
-0.372053
-0.370097
-0.368161
-0.368316
-0.407945
-0.406142
-0.403675
-0.400759
-0.397624
-0.394487
-0.391509
-0.388786
-0.386363
-0.384236
-0.38236
-0.380657
-0.37903
-0.377373
-0.375592
-0.373618
-0.371426
-0.369047
-0.366606
-0.364912
-0.413529
-0.411304
-0.408471
-0.405228
-0.401791
-0.398377
-0.395134
-0.392143
-0.389431
-0.386977
-0.384719
-0.382572
-0.380435
-0.378211
-0.375818
-0.373199
-0.370334
-0.367231
-0.363964
-0.360732
-0.419911
-0.417164
-0.413907
-0.410302
-0.406537
-0.402825
-0.399295
-0.396005
-0.392958
-0.39011
-0.387386
-0.384692
-0.381928
-0.379009
-0.375868
-0.372466
-0.368791
-0.36485
-0.360702
-0.356276
-0.427107
-0.423749
-0.420011
-0.416008
-0.411887
-0.407847
-0.403993
-0.400355
-0.396903
-0.393574
-0.390275
-0.386911
-0.383393
-0.379654
-0.375653
-0.371374
-0.366827
-0.362036
-0.357065
-0.351786
-0.435127
-0.431075
-0.426808
-0.422372
-0.417862
-0.413457
-0.409229
-0.405169
-0.401219
-0.39729
-0.393285
-0.389116
-0.384715
-0.380044
-0.375096
-0.369887
-0.364454
-0.358845
-0.353124
-0.347191
-0.443973
-0.439156
-0.434316
-0.429416
-0.424483
-0.419663
-0.414989
-0.410411
-0.405837
-0.401167
-0.396306
-0.39119
-0.385784
-0.38009
-0.374138
-0.367978
-0.361673
-0.355289
-0.34889
-0.342422
-0.453635
-0.447994
-0.442549
-0.437157
-0.431758
-0.426458
-0.421243
-0.416017
-0.410667
-0.40509
-0.399217
-0.393016
-0.386501
-0.379716
-0.372732
-0.365625
-0.358476
-0.35136
-0.344336
-0.337381
-0.464093
-0.45758
-0.451505
-0.445593
-0.439678
-0.433811
-0.427927
-0.421895
-0.41559
-0.408931
-0.401887
-0.394481
-0.386777
-0.378863
-0.370842
-0.362809
-0.354852
-0.347045
-0.339433
-0.33201
-0.475303
-0.467886
-0.461163
-0.454702
-0.448203
-0.441655
-0.434945
-0.427918
-0.420464
-0.412545
-0.404189
-0.39548
-0.386536
-0.377482
-0.368442
-0.359518
-0.350794
-0.342332
-0.334161
-0.326276
-0.4872
-0.478857
-0.471477
-0.464428
-0.457255
-0.449882
-0.442157
-0.433927
-0.425125
-0.41578
-0.405994
-0.395918
-0.385713
-0.375534
-0.365509
-0.355738
-0.34629
-0.337211
-0.328507
-0.320169
-0.499681
-0.490409
-0.482364
-0.474675
-0.466713
-0.45834
-0.449387
-0.439736
-0.429396
-0.418483
-0.407185
-0.395709
-0.384254
-0.372984
-0.362023
-0.351455
-0.34133
-0.331671
-0.322461
-0.313685
-0.51261
-0.502422
-0.493702
-0.485303
-0.476409
-0.466831
-0.456421
-0.445137
-0.433091
-0.420506
-0.407648
-0.394776
-0.382105
-0.369796
-0.357957
-0.346648
-0.335893
-0.325695
-0.316008
-0.306821
-0.525808
-0.514731
-0.505325
-0.496126
-0.486127
-0.47512
-0.463024
-0.449912
-0.436028
-0.421705
-0.407282
-0.393045
-0.379214
-0.365932
-0.353279
-0.341287
-0.329955
-0.319261
-0.309132
-0.299568
-0.539056
-0.527135
-0.517023
-0.506908
-0.495608
-0.48294
-0.468939
-0.453838
-0.438028
-0.421948
-0.405987
-0.390447
-0.375529
-0.361348
-0.34795
-0.335337
-0.323481
-0.312338
-0.301805
-0.291908
-0.552092
-0.539385
-0.528538
-0.517371
-0.504558
-0.489999
-0.473905
-0.456699
-0.438924
-0.421108
-0.403673
-0.386911
-0.370992
-0.355993
-0.341924
-0.328754
-0.316432
-0.304889
-0.293997
-0.283817
-0.564617
-0.551194
-0.539573
-0.527198
-0.512656
-0.495997
-0.477663
-0.458287
-0.438558
-0.419069
-0.40025
-0.382364
-0.36554
-0.34981
-0.335147
-0.321488
-0.30876
-0.296872
-0.285669
-0.275262
-0.576299
-0.562241
-0.549794
-0.536044
-0.519565
-0.500632
-0.479963
-0.45841
-0.436785
-0.415721
-0.395631
-0.376734
-0.359108
-0.34274
-0.327563
-0.313487
-0.300418
-0.288242
-0.27678
-0.266206
-0.586782
-0.572173
-0.55884
-0.543547
-0.524945
-0.503613
-0.480573
-0.45689
-0.433472
-0.410961
-0.389732
-0.369947
-0.351629
-0.334719
-0.319113
-0.304696
-0.291354
-0.278951
-0.267289
-0.256611
-0.595688
-0.58062
-0.566333
-0.549337
-0.528465
-0.504666
-0.479282
-0.453568
-0.428497
-0.404693
-0.382471
-0.361931
-0.343037
-0.325686
-0.309741
-0.295062
-0.281519
-0.268955
-0.257154
-0.246439
-0.602635
-0.587197
-0.57189
-0.553052
-0.529812
-0.50354
-0.4759
-0.448305
-0.421755
-0.396828
-0.373772
-0.352616
-0.333268
-0.315582
-0.299391
-0.284534
-0.270867
-0.258211
-0.246337
-0.235654
-0.607241
-0.591524
-0.575137
-0.554349
-0.528701
-0.500017
-0.470266
-0.440978
-0.413149
-0.387289
-0.363566
-0.341938
-0.322262
-0.304351
-0.288012
-0.273067
-0.259356
-0.246682
-0.234804
-0.224225
-0.60914
-0.593234
-0.575716
-0.552916
-0.52488
-0.493911
-0.462243
-0.431488
-0.402599
-0.376005
-0.351789
-0.329841
-0.309967
-0.291946
-0.275562
-0.260621
-0.246952
-0.234335
-0.222527
-0.212126
-0.607989
-0.591981
-0.573304
-0.548476
-0.51814
-0.48507
-0.451726
-0.419753
-0.390039
-0.362919
-0.33839
-0.316276
-0.296339
-0.278327
-0.262005
-0.247165
-0.233626
-0.221148
-0.209488
-0.19934
-0.603481
-0.587457
-0.567617
-0.540799
-0.508313
-0.473379
-0.438633
-0.405714
-0.375421
-0.347988
-0.323327
-0.301205
-0.281343
-0.263463
-0.247313
-0.232677
-0.21936
-0.207104
-0.195673
-0.185857
-0.59535
-0.579395
-0.558418
-0.529707
-0.495278
-0.45876
-0.422915
-0.389333
-0.358711
-0.331179
-0.306572
-0.284602
-0.264956
-0.247334
-0.231471
-0.217141
-0.204142
-0.192196
-0.18108
-0.171672
-0.583381
-0.567582
-0.545526
-0.515071
-0.478958
-0.441174
-0.404546
-0.370593
-0.339895
-0.31248
-0.288111
-0.266453
-0.247165
-0.22993
-0.21447
-0.200555
-0.187971
-0.176428
-0.165713
-0.156792
-0.567417
-0.551862
-0.528821
-0.49682
-0.459324
-0.420613
-0.383534
-0.349502
-0.318977
-0.291892
-0.267943
-0.246758
-0.227971
-0.211251
-0.196313
-0.182922
-0.170856
-0.159809
-0.149588
-0.141231
-0.547359
-0.532139
-0.50824
-0.474938
-0.436391
-0.397111
-0.359911
-0.326088
-0.295981
-0.269432
-0.246083
-0.225528
-0.207383
-0.191309
-0.177013
-0.164258
-0.152814
-0.142363
-0.13273
-0.125018
-0.523176
-0.508382
-0.483785
-0.449461
-0.41022
-0.370731
-0.333739
-0.300404
-0.270949
-0.245136
-0.222559
-0.202788
-0.185424
-0.170122
-0.156589
-0.144582
-0.133867
-0.124117
-0.115177
-0.108195
-0.494896
-0.480627
-0.455517
-0.42048
-0.380911
-0.341575
-0.305107
-0.272527
-0.243947
-0.219057
-0.197416
-0.178573
-0.162124
-0.147719
-0.135064
-0.123918
-0.114042
-0.105103
-0.0969671
-0.0908112
-0.462615
-0.44897
-0.423557
-0.388132
-0.348608
-0.309775
-0.274131
-0.242556
-0.215057
-0.191265
-0.17071
-0.152931
-0.137521
-0.124129
-0.112466
-0.102291
-0.0933614
-0.0853479
-0.0781356
-0.0728897
-0.42649
-0.41357
-0.388079
-0.352605
-0.313492
-0.275495
-0.240958
-0.210616
-0.184385
-0.161848
-0.142515
-0.125921
-0.11166
-0.0993886
-0.0888214
-0.0797207
-0.0718463
-0.0648778
-0.0587056
-0.0544189
-0.386737
-0.374644
-0.349313
-0.314127
-0.275778
-0.238932
-0.205758
-0.176857
-0.15206
-0.130915
-0.112919
-0.0976103
-0.084592
-0.0735304
-0.0641492
-0.0562191
-0.0495077
-0.0437065
-0.0386848
-0.0353945
-0.343626
-0.33246
-0.307531
-0.272967
-0.235717
-0.200311
-0.168733
-0.141453
-0.118234
-0.0985949
-0.0820299
-0.0680858
-0.0563793
-0.0465932
-0.0384678
-0.0317875
-0.0263335
-0.0218157
-0.0180806
-0.0159534
-0.297478
-0.287337
-0.263051
-0.22943
-0.193592
-0.159886
-0.130109
-0.104608
-0.0830853
-0.0650426
-0.0499772
-0.0374503
-0.0270986
-0.0186293
-0.0118075
-0.00643452
-0.00231006
0.000796622
0.00297258
0.00347366
-0.248655
-0.239632
-0.216226
-0.183851
-0.14971
-0.117939
-0.0901402
-0.0665496
-0.0468185
-0.0304362
-0.0169085
-0.00581575
0.00317823
0.0103308
0.0158403
0.0198832
0.0226158
0.024082
0.0241318
0.0224103
-0.197558
-0.189738
-0.167437
-0.13659
-0.104405
-0.0747738
-0.0491082
-0.0275381
-0.00967169
0.00501101
0.0169961
0.0266869
0.0343934
0.0403357
0.0446732
0.0475496
0.0489984
0.048645
0.0459774
0.041994
-0.144616
-0.138077
-0.117091
-0.0880291
-0.0580292
-0.0307179
-0.00731817
0.0121364
0.0280755
0.0410277
0.0514771
0.0598225
0.0663693
0.071335
0.074892
0.0772017
0.0781612
0.0768759
0.07261
0.0682721
-0.0902798
-0.0850891
-0.0656101
-0.0385626
-0.0109475
0.01389
0.0349092
0.0521632
0.0661124
0.0772906
0.0861805
0.0931831
0.0986172
0.102739
0.105809
0.108116
0.109626
0.109296
0.106867
0.111002
-0.0350093
-0.0312255
-0.013425
0.0114088
0.0364703
0.058706
0.0772493
0.092229
0.104128
0.113479
0.120755
0.126349
0.130577
0.133708
0.136017
0.137778
0.138969
0.139093
0.139094
0.145435
0.0207224
0.0230534
0.0390283
0.0614822
0.0838544
0.103388
0.119382
0.132029
0.141827
0.149302
0.154916
0.159048
0.16201
0.164066
0.165478
0.166473
0.167028
0.16683
0.166841
0.171995
0.0764417
0.0772874
0.0913169
0.11126
0.130841
0.147603
0.160996
0.17127
0.178928
0.184485
0.188383
0.190987
0.192591
0.193446
0.193794
0.193837
0.193565
0.192743
0.192157
0.195718
0.13168
0.131022
0.143015
0.160352
0.177078
0.191029
0.201797
0.209679
0.215178
0.218793
0.220945
0.221976
0.222161
0.22173
0.220897
0.219836
0.218523
0.216752
0.215247
0.217334
0.185977
0.183811
0.193706
0.20838
0.222223
0.233356
0.241504
0.247
0.250344
0.252014
0.252408
0.251845
0.250578
0.248818
0.246752
0.244526
0.242102
0.239297
0.236797
0.237473
0.238886
0.235223
0.24299
0.254983
0.265949
0.274291
0.279851
0.282993
0.284209
0.283955
0.282604
0.280452
0.277731
0.274628
0.271309
0.267895
0.264339
0.260484
0.256988
0.256333
0.289977
0.284843
0.290484
0.299813
0.307947
0.313556
0.316589
0.317435
0.316574
0.31444
0.311381
0.30767
0.303517
0.299091
0.294537
0.289954
0.285288
0.280414
0.27595
0.274032
0.338839
0.332277
0.335821
0.342542
0.347923
0.350887
0.351482
0.350113
0.34725
0.343301
0.338593
0.333375
0.327837
0.32213
0.31638
0.310668
0.304941
0.299097
0.293709
0.290595
0.385083
0.37715
0.378658
0.382859
0.385599
0.386036
0.384306
0.380829
0.376059
0.370382
0.364102
0.357447
0.350589
0.343662
0.336774
0.329992
0.323266
0.316513
0.31025
0.306009
0.428346
0.419112
0.418674
0.420477
0.420718
0.418773
0.414856
0.409396
0.402833
0.395533
0.387776
0.379771
0.371673
0.3636
0.355647
0.347865
0.34021
0.332617
0.325535
0.32024
0.468289
0.457841
0.455571
0.455129
0.45304
0.448881
0.442936
0.435639
0.427417
0.418613
0.409487
0.400233
0.390989
0.381857
0.372919
0.364218
0.355712
0.347349
0.339511
0.33324
0.504603
0.493039
0.489077
0.486568
0.482345
0.476165
0.468369
0.459398
0.449663
0.439489
0.429118
0.418726
0.408438
0.398344
0.388513
0.378978
0.369704
0.360648
0.35212
0.344956
0.537008
0.52444
0.518947
0.514575
0.508435
0.500444
0.490993
0.480525
0.469438
0.45804
0.446557
0.435149
0.42393
0.412978
0.40235
0.392074
0.382118
0.372448
0.363303
0.355337
0.565256
0.551805
0.544963
0.538954
0.531135
0.52156
0.510662
0.498888
0.486621
0.474156
0.461702
0.449409
0.437378
0.425679
0.414358
0.403437
0.392892
0.382688
0.373003
0.364335
0.589131
0.574929
0.566936
0.559533
0.55029
0.539373
0.527252
0.514372
0.501108
0.487739
0.474466
0.461424
0.448708
0.436377
0.424471
0.413008
0.401965
0.391313
0.38117
0.371904
0.608452
0.593638
0.584707
0.576171
0.565771
0.553767
0.540654
0.526879
0.512808
0.498708
0.484771
0.471124
0.457853
0.445012
0.432633
0.420731
0.409287
0.398273
0.387758
0.378006
0.623071
0.607793
0.598148
0.588751
0.577474
0.564645
0.550782
0.53633
0.521647
0.506995
0.492555
0.47845
0.46476
0.451532
0.438796
0.426562
0.414817
0.403529
0.392731
0.38261
0.632878
0.617288
0.607162
0.597186
0.585319
0.571937
0.557571
0.542664
0.52757
0.512547
0.497771
0.483359
0.469387
0.455901
0.442925
0.430469
0.418521
0.40705
0.396061
0.385692
0.637798
0.622052
0.611683
0.601417
0.589254
0.575594
0.560975
0.54584
0.530541
0.515331
0.500386
0.485819
0.471707
0.458091
0.444995
0.432427
0.420377
0.408815
0.39773
0.387236
0.637796
0.622049
0.611681
0.601414
0.589251
0.575592
0.560972
0.545837
0.530539
0.515329
0.500384
0.485818
0.471705
0.458089
0.444993
0.432425
0.420376
0.408813
0.397728
0.387234
0.632869
0.61728
0.607154
0.597178
0.585312
0.57193
0.557564
0.542657
0.527564
0.512541
0.497765
0.483353
0.469381
0.455895
0.44292
0.430464
0.418516
0.407045
0.396056
0.385687
0.623057
0.60778
0.598135
0.588739
0.577462
0.564634
0.550771
0.536319
0.521636
0.506984
0.492545
0.478441
0.46475
0.451523
0.438787
0.426554
0.414808
0.403521
0.392722
0.382602
0.608432
0.593619
0.584689
0.576154
0.565754
0.55375
0.540638
0.526864
0.512793
0.498694
0.484757
0.471111
0.45784
0.444999
0.432621
0.420718
0.409275
0.398261
0.387746
0.377995
0.589106
0.574905
0.566912
0.559511
0.550268
0.539352
0.527232
0.514353
0.501089
0.487721
0.474448
0.461407
0.448691
0.43636
0.424455
0.412992
0.401949
0.391298
0.381155
0.371889
0.565226
0.551775
0.544934
0.538926
0.531108
0.521534
0.510637
0.498864
0.486598
0.474133
0.46168
0.449388
0.437357
0.425658
0.414338
0.403418
0.392873
0.382669
0.372985
0.364317
0.536972
0.524404
0.518913
0.514542
0.508404
0.500413
0.490963
0.480496
0.46941
0.458013
0.446531
0.435124
0.423905
0.412953
0.402326
0.392051
0.382096
0.372426
0.363282
0.355317
0.504561
0.492998
0.489037
0.48653
0.482308
0.476129
0.468335
0.459365
0.449631
0.439458
0.429088
0.418697
0.40841
0.398316
0.388486
0.378951
0.369678
0.360622
0.352096
0.344932
0.468241
0.457794
0.455526
0.455085
0.452997
0.448841
0.442897
0.435602
0.42738
0.418577
0.409453
0.4002
0.390956
0.381826
0.372889
0.364188
0.355682
0.347321
0.339483
0.333212
0.428292
0.419059
0.418623
0.420428
0.420671
0.418727
0.414812
0.409354
0.402793
0.395493
0.387737
0.379733
0.371637
0.363565
0.355612
0.347832
0.340177
0.332585
0.325504
0.32021
0.385023
0.37709
0.378601
0.382804
0.385547
0.385986
0.384258
0.380782
0.376013
0.370338
0.364059
0.357406
0.350549
0.343622
0.336736
0.329955
0.323229
0.316478
0.310215
0.305976
0.338772
0.332211
0.335758
0.342481
0.347865
0.350831
0.351428
0.350061
0.3472
0.343253
0.338546
0.333329
0.327793
0.322087
0.316338
0.310627
0.304901
0.299058
0.29367
0.290558
0.289904
0.284772
0.290414
0.299747
0.307884
0.313495
0.316531
0.317378
0.31652
0.314387
0.31133
0.30762
0.303469
0.299044
0.294492
0.289909
0.285245
0.280372
0.275909
0.273992
0.238807
0.235145
0.242915
0.254911
0.26588
0.274225
0.279788
0.282932
0.28415
0.283898
0.282549
0.280398
0.277678
0.274577
0.27126
0.267847
0.264291
0.260438
0.256943
0.25629
0.185891
0.183726
0.193624
0.208302
0.222148
0.233284
0.241435
0.246933
0.25028
0.251952
0.252348
0.251786
0.250522
0.248763
0.246698
0.244474
0.242051
0.239247
0.236748
0.237426
0.131587
0.13093
0.142926
0.160267
0.176997
0.190951
0.201723
0.209607
0.215109
0.218726
0.22088
0.221913
0.2221
0.221671
0.22084
0.21978
0.218468
0.216699
0.215195
0.217284
0.0763417
0.0771884
0.0912213
0.111168
0.130754
0.14752
0.160916
0.171193
0.178854
0.184413
0.188314
0.190919
0.192525
0.193383
0.193732
0.193777
0.193507
0.192686
0.192101
0.195665
0.020615
0.0229472
0.0389258
0.0613843
0.0837612
0.103299
0.119296
0.131947
0.141748
0.149226
0.154841
0.158976
0.16194
0.163999
0.165412
0.166409
0.166965
0.16677
0.166782
0.171938
-0.0351242
-0.0313391
-0.0135347
0.0113041
0.0363706
0.0586109
0.0771582
0.0921415
0.104044
0.113397
0.120676
0.126272
0.130503
0.133636
0.135947
0.13771
0.138903
0.139028
0.139031
0.145374
-0.0904025
-0.0852104
-0.0657272
-0.0386742
-0.0110537
0.0137887
0.0348124
0.0520702
0.0660228
0.0772041
0.0860968
0.093102
0.0985384
0.102663
0.105734
0.108044
0.109556
0.109227
0.106799
0.110936
-0.144746
-0.138206
-0.117215
-0.0881478
-0.0581421
-0.0308254
-0.00742096
0.0120377
0.0279806
0.0409361
0.0513885
0.0597366
0.066286
0.071254
0.0748131
0.0771248
0.0780862
0.0768023
0.0725376
0.0682004
-0.197696
-0.189875
-0.167569
-0.136716
-0.104525
-0.0748877
-0.049217
-0.0276424
-0.009772
0.00491426
0.0169026
0.0265963
0.0343055
0.0402503
0.0445899
0.0474684
0.0489191
0.0485673
0.0459009
0.0419182
-0.248802
-0.239777
-0.216366
-0.183984
-0.149836
-0.118059
-0.0902551
-0.0666596
-0.0469242
-0.030538
-0.017007
-0.00591106
0.00308579
0.010241
0.0157529
0.019798
0.0225326
0.0240006
0.024052
0.0223315
-0.297633
-0.28749
-0.263199
-0.229571
-0.193725
-0.160013
-0.13023
-0.104724
-0.0831965
-0.0651497
-0.0500805
-0.0375502
-0.0271955
-0.0187233
-0.0118989
-0.00652357
-0.00239692
0.000711826
0.00288964
0.00339204
-0.343789
-0.332622
-0.307687
-0.273116
-0.235858
-0.200445
-0.16886
-0.141575
-0.118351
-0.098707
-0.0821381
-0.0681903
-0.0564806
-0.0466914
-0.0385632
-0.0318802
-0.0264238
-0.0219038
-0.0181666
-0.0160378
-0.386908
-0.374814
-0.349477
-0.314283
-0.275926
-0.239072
-0.205892
-0.176984
-0.152182
-0.131032
-0.113032
-0.0977193
-0.0846975
-0.0736326
-0.0642484
-0.0563155
-0.0496015
-0.0437978
-0.0387739
-0.0354818
-0.42667
-0.413748
-0.388252
-0.352769
-0.313647
-0.275642
-0.241098
-0.21075
-0.184512
-0.161971
-0.142633
-0.126034
-0.111769
-0.0994948
-0.0889243
-0.0798206
-0.0719434
-0.0649722
-0.0587975
-0.0545089
-0.462803
-0.449157
-0.423737
-0.388304
-0.348771
-0.309929
-0.274278
-0.242695
-0.215189
-0.191393
-0.170833
-0.153049
-0.137634
-0.124239
-0.112573
-0.102394
-0.0934617
-0.0854453
-0.0782303
-0.0729823
-0.495092
-0.480822
-0.455706
-0.420659
-0.381081
-0.341736
-0.305259
-0.272672
-0.244085
-0.21919
-0.197543
-0.178695
-0.162242
-0.147832
-0.135174
-0.124025
-0.114145
-0.105203
-0.0970646
-0.0909062
-0.52338
-0.508585
-0.483982
-0.449649
-0.410397
-0.370899
-0.333898
-0.300555
-0.271093
-0.245274
-0.222691
-0.202914
-0.185546
-0.17024
-0.156702
-0.144692
-0.133974
-0.12422
-0.115277
-0.108293
-0.547571
-0.532349
-0.508444
-0.475133
-0.436575
-0.397285
-0.360076
-0.326244
-0.29613
-0.269574
-0.246219
-0.225659
-0.207509
-0.19143
-0.17713
-0.164371
-0.152923
-0.142469
-0.132833
-0.125117
-0.567636
-0.552079
-0.529033
-0.497022
-0.459515
-0.420794
-0.383705
-0.349664
-0.319131
-0.292039
-0.268084
-0.246893
-0.2281
-0.211375
-0.196433
-0.183038
-0.170968
-0.159918
-0.149692
-0.141333
-0.583607
-0.567807
-0.545745
-0.51528
-0.479156
-0.441361
-0.404723
-0.370761
-0.340054
-0.312632
-0.288256
-0.266592
-0.247298
-0.230058
-0.214593
-0.200674
-0.188086
-0.176538
-0.16582
-0.156897
-0.595582
-0.579626
-0.558643
-0.529923
-0.495483
-0.458954
-0.423097
-0.389506
-0.358875
-0.331336
-0.306721
-0.284745
-0.265092
-0.247465
-0.231597
-0.217263
-0.204259
-0.19231
-0.181189
-0.171778
-0.603719
-0.587694
-0.567848
-0.541022
-0.508525
-0.473578
-0.438822
-0.405892
-0.37559
-0.348148
-0.32348
-0.301351
-0.281483
-0.263598
-0.247442
-0.232801
-0.219479
-0.207219
-0.195784
-0.185964
-0.608233
-0.592223
-0.573542
-0.548704
-0.518357
-0.485275
-0.45192
-0.419936
-0.390213
-0.363084
-0.338547
-0.316426
-0.296482
-0.278465
-0.262137
-0.247292
-0.233748
-0.221265
-0.209601
-0.19945
-0.609388
-0.593481
-0.575959
-0.553149
-0.525103
-0.494122
-0.462443
-0.431676
-0.402777
-0.376174
-0.35195
-0.329995
-0.310114
-0.292087
-0.275697
-0.26075
-0.247076
-0.234454
-0.222642
-0.212237
-0.607493
-0.591775
-0.575383
-0.554588
-0.528928
-0.500233
-0.47047
-0.441171
-0.413331
-0.387462
-0.36373
-0.342095
-0.322412
-0.304494
-0.288149
-0.273198
-0.259482
-0.246803
-0.234921
-0.224337
-0.60289
-0.587451
-0.57214
-0.553294
-0.530044
-0.50376
-0.476109
-0.448502
-0.421941
-0.397005
-0.37394
-0.352776
-0.333421
-0.315728
-0.29953
-0.284667
-0.270995
-0.258334
-0.246455
-0.235768
-0.595946
-0.580876
-0.566585
-0.549582
-0.528701
-0.50489
-0.479495
-0.45377
-0.428688
-0.404873
-0.382642
-0.362094
-0.343193
-0.325834
-0.309883
-0.295197
-0.281648
-0.26908
-0.257274
-0.246554
-0.58704
-0.572431
-0.559094
-0.543795
-0.525184
-0.503841
-0.48079
-0.457095
-0.433666
-0.411145
-0.389906
-0.370113
-0.351787
-0.33487
-0.319257
-0.304833
-0.291485
-0.279077
-0.26741
-0.256727
-0.576559
-0.562499
-0.550049
-0.536294
-0.519806
-0.500863
-0.480183
-0.458619
-0.436983
-0.415909
-0.395809
-0.376903
-0.359269
-0.342893
-0.327709
-0.313626
-0.300551
-0.288369
-0.276902
-0.266323
-0.564876
-0.551452
-0.539828
-0.527448
-0.512899
-0.49623
-0.477885
-0.458499
-0.438759
-0.41926
-0.400431
-0.382536
-0.365703
-0.349965
-0.335295
-0.321629
-0.308895
-0.297001
-0.285791
-0.275379
-0.55235
-0.539641
-0.528792
-0.51762
-0.504801
-0.490234
-0.47413
-0.456913
-0.439128
-0.421302
-0.403857
-0.387085
-0.371158
-0.35615
-0.342074
-0.328896
-0.316568
-0.305019
-0.29412
-0.283935
-0.539313
-0.527389
-0.517275
-0.507156
-0.495851
-0.483175
-0.469165
-0.454054
-0.438235
-0.422144
-0.406174
-0.390624
-0.375698
-0.361508
-0.348102
-0.335481
-0.323619
-0.312469
-0.301929
-0.292027
-0.526063
-0.514984
-0.505575
-0.496372
-0.486369
-0.475356
-0.463251
-0.45013
-0.436236
-0.421904
-0.40747
-0.393225
-0.379385
-0.366094
-0.353433
-0.341433
-0.330094
-0.319393
-0.309257
-0.299686
-0.512862
-0.502671
-0.493949
-0.485547
-0.476649
-0.467066
-0.456649
-0.445356
-0.433301
-0.420707
-0.40784
-0.394958
-0.382278
-0.36996
-0.358113
-0.346795
-0.336033
-0.325828
-0.316134
-0.30694
-0.49993
-0.490656
-0.482608
-0.474916
-0.466951
-0.458573
-0.449614
-0.439956
-0.429607
-0.418686
-0.407379
-0.395894
-0.384429
-0.37315
-0.362181
-0.351605
-0.341472
-0.331805
-0.322587
-0.313804
-0.487445
-0.4791
-0.471718
-0.464666
-0.45749
-0.450114
-0.442383
-0.434147
-0.425338
-0.415985
-0.406191
-0.396105
-0.385892
-0.375704
-0.36567
-0.35589
-0.346434
-0.337346
-0.328635
-0.320289
-0.475545
-0.468125
-0.4614
-0.454937
-0.448435
-0.441884
-0.435169
-0.428137
-0.420678
-0.412751
-0.404387
-0.39567
-0.386717
-0.377655
-0.368605
-0.359673
-0.35094
-0.342469
-0.33429
-0.326397
-0.46433
-0.457815
-0.451738
-0.445824
-0.439907
-0.434037
-0.42815
-0.422113
-0.415804
-0.409139
-0.402088
-0.394674
-0.386961
-0.379039
-0.371009
-0.362967
-0.355001
-0.347184
-0.339563
-0.332132
-0.453869
-0.448226
-0.442778
-0.437384
-0.431983
-0.426681
-0.421463
-0.416234
-0.41088
-0.405299
-0.399419
-0.393212
-0.386689
-0.379896
-0.372902
-0.365786
-0.358628
-0.351502
-0.344468
-0.337504
-0.444203
-0.439384
-0.434542
-0.42964
-0.424704
-0.419883
-0.415207
-0.410626
-0.40605
-0.401376
-0.396511
-0.391388
-0.385976
-0.380274
-0.374313
-0.368144
-0.361829
-0.355435
-0.349026
-0.342547
-0.435354
-0.431299
-0.42703
-0.422591
-0.41808
-0.413673
-0.409444
-0.405383
-0.401431
-0.397499
-0.393491
-0.389317
-0.38491
-0.380232
-0.375276
-0.370058
-0.364615
-0.358995
-0.353263
-0.347319
-0.427331
-0.42397
-0.42023
-0.416224
-0.412102
-0.40806
-0.404206
-0.400567
-0.397115
-0.393783
-0.390482
-0.387115
-0.383592
-0.379848
-0.375838
-0.37155
-0.366993
-0.362192
-0.357208
-0.351917
-0.420131
-0.417382
-0.414122
-0.410515
-0.406749
-0.403036
-0.399505
-0.396215
-0.393168
-0.39032
-0.387595
-0.384898
-0.382132
-0.379208
-0.37606
-0.37265
-0.368964
-0.365012
-0.360851
-0.356411
-0.413747
-0.411519
-0.408683
-0.405439
-0.402
-0.398585
-0.395342
-0.392352
-0.389641
-0.387187
-0.384929
-0.382781
-0.380642
-0.378415
-0.376016
-0.373389
-0.370514
-0.3674
-0.364119
-0.360872
-0.40816
-0.406355
-0.403885
-0.400967
-0.39783
-0.394694
-0.391715
-0.388993
-0.386572
-0.384446
-0.382572
-0.38087
-0.379241
-0.377582
-0.375797
-0.373816
-0.371615
-0.369225
-0.36677
-0.365058
-0.403337
-0.401853
-0.399693
-0.39707
-0.394215
-0.391344
-0.388619
-0.386148
-0.383989
-0.38215
-0.380597
-0.379261
-0.378044
-0.376835
-0.375519
-0.374007
-0.372252
-0.370285
-0.368335
-0.368471
-0.399226
-0.397965
-0.39606
-0.393706
-0.39112
-0.388511
-0.38604
-0.383818
-0.381911
-0.380335
-0.379065
-0.378038
-0.377158
-0.376302
-0.375331
-0.374108
-0.372523
-0.370485
-0.368159
-0.369295
-0.395753
-0.394624
-0.392929
-0.390823
-0.388502
-0.38616
-0.383953
-0.38199
-0.380337
-0.379018
-0.378012
-0.377261
-0.376669
-0.376101
-0.375386
-0.374303
-0.372578
-0.369724
-0.364515
-0.357574
-0.392818
-0.391746
-0.390224
-0.388354
-0.3863
-0.384238
-0.382312
-0.380627
-0.379246
-0.378191
-0.377448
-0.376964
-0.376649
-0.376376
-0.375972
-0.375217
-0.37385
-0.371484
-0.36719
-0.36184
-0.3903
-0.389232
-0.387858
-0.386219
-0.384438
-0.382673
-0.381053
-0.379672
-0.378585
-0.377814
-0.377346
-0.377135
-0.377104
-0.377145
-0.377116
-0.376844
-0.376147
-0.374751
-0.37198
-0.36905
-0.388066
-0.386975
-0.385735
-0.384326
-0.382829
-0.38138
-0.38009
-0.37904
-0.378275
-0.377812
-0.377637
-0.377709
-0.377965
-0.378317
-0.378652
-0.378845
-0.378768
-0.378204
-0.376649
-0.375571
-0.385973
-0.384862
-0.383757
-0.382583
-0.38138
-0.380264
-0.379326
-0.378631
-0.378214
-0.378083
-0.378221
-0.378591
-0.379138
-0.37979
-0.380461
-0.381062
-0.38151
-0.381637
-0.381112
-0.381435
-0.383887
-0.382787
-0.38183
-0.380898
-0.379999
-0.379227
-0.378657
-0.378336
-0.378285
-0.378505
-0.378974
-0.379656
-0.380501
-0.38145
-0.382437
-0.3834
-0.384288
-0.384983
-0.385284
-0.386566
-0.381685
-0.380652
-0.379867
-0.379187
-0.378598
-0.378177
-0.37798
-0.378039
-0.378364
-0.378944
-0.379754
-0.380756
-0.381903
-0.383146
-0.384431
-0.385714
-0.386965
-0.388094
-0.388992
-0.390835
-0.379268
-0.378379
-0.377797
-0.377378
-0.377102
-0.377028
-0.377199
-0.377633
-0.378328
-0.379264
-0.380412
-0.381731
-0.383176
-0.384702
-0.386263
-0.387826
-0.389367
-0.390817
-0.392107
-0.394217
-0.376568
-0.375911
-0.375567
-0.375418
-0.375448
-0.375709
-0.376231
-0.377021
-0.378065
-0.379339
-0.380806
-0.382425
-0.384151
-0.385938
-0.387748
-0.389548
-0.391319
-0.392996
-0.394527
-0.396722
-0.373551
-0.373217
-0.373146
-0.373268
-0.373595
-0.374169
-0.375014
-0.376126
-0.377487
-0.379065
-0.380819
-0.382707
-0.384681
-0.386699
-0.388721
-0.390716
-0.392662
-0.394495
-0.396167
-0.39835
-0.37022
-0.370297
-0.370527
-0.37092
-0.371524
-0.372382
-0.373511
-0.374905
-0.376538
-0.378375
-0.380374
-0.382487
-0.384669
-0.386876
-0.389067
-0.391213
-0.393286
-0.395221
-0.39697
-0.3991
-0.366623
-0.367183
-0.367735
-0.368388