/*--------------------------------*- C++ -*----------------------------------*\
  =========                 |
  \\      /  F ield         | OpenFOAM: The Open Source CFD Toolbox
   \\    /   O peration     | Website:  https://openfoam.org
    \\  /    A nd           | Version:  6.0
     \\/     M anipulation  |
\*---------------------------------------------------------------------------*/
FoamFile
{
    version     2.0;
    format      ascii;
    class       volVectorField;
    location    "5";
    object      U;
}
// * * * * * * * * * * * * * * * * * * * * * * * * * * * * * * * * * * * * * //

dimensions      [0 1 -1 0 0 0 0];

internalField   nonuniform List<vector> 
2000
(
(-0.00824234 0.00747562 6.68005e-20)
(-0.0318094 0.0140961 6.44613e-20)
(-0.0651806 0.0163932 -5.7676e-20)
(-0.0979096 0.0165165 -1.12427e-19)
(-0.12671 0.0154842 -7.60993e-20)
(-0.1509 0.0138316 9.8035e-20)
(-0.170435 0.0118575 5.67015e-20)
(-0.186294 0.00973861 -2.15854e-20)
(-0.199305 0.00763149 -5.46631e-20)
(-0.20483 0.00576838 2.98251e-20)
(-0.00947169 0.0214454 -1.65279e-19)
(-0.0325277 0.0407813 1.8577e-19)
(-0.0633433 0.0476983 1.8364e-20)
(-0.0928754 0.0482197 -9.67147e-20)
(-0.118204 0.0452581 4.44444e-19)
(-0.138684 0.0403751 -1.90092e-19)
(-0.15421 0.0344592 -2.02817e-19)
(-0.165667 0.0280482 2.39457e-19)
(-0.174048 0.0216282 -2.33365e-19)
(-0.174987 0.0159554 8.69076e-20)
(-0.0116524 0.0326924 2.743e-20)
(-0.0338902 0.0631829 7.39203e-21)
(-0.0601086 0.0747094 5.21122e-19)
(-0.0837586 0.0760248 1.76123e-19)
(-0.102642 0.0715385 3.54255e-20)
(-0.116256 0.0636951 2.71571e-19)
(-0.124443 0.0539273 -5.03795e-19)
(-0.127912 0.0431315 9.61984e-21)
(-0.127919 0.0321411 -2.87683e-19)
(-0.120853 0.0223771 2.38151e-19)
(-0.0143347 0.0401029 -5.13388e-20)
(-0.0357702 0.0792353 2.38953e-19)
(-0.0562295 0.0950725 -6.56477e-19)
(-0.0722015 0.0976082 -8.26292e-20)
(-0.0825097 0.0921867 -4.49012e-19)
(-0.0869645 0.0818954 4.53737e-19)
(-0.0854689 0.068593 -4.70076e-19)
(-0.0785152 0.0534771 3.2105e-19)
(-0.067556 0.0376885 1.31698e-19)
(-0.0505003 0.0234125 -1.14711e-19)
(-0.0170727 0.0434122 -5.59576e-19)
(-0.0380342 0.0879286 2.09043e-21)
(-0.0525529 0.107192 7.99682e-19)
(-0.0600824 0.111075 2.36829e-19)
(-0.0606358 0.105275 -7.08289e-19)
(-0.0545115 0.0932225 4.25074e-19)
(-0.041827 0.0770131 4.84778e-19)
(-0.0228802 0.0580199 -4.21336e-19)
(0.000979592 0.0375937 2.97884e-19)
(0.0295888 0.0186167 5.40228e-20)
(-0.0196016 0.043191 7.75224e-20)
(-0.040578 0.0894619 1.1708e-20)
(-0.0497093 0.110515 -1.00084e-18)
(-0.048851 0.11526 -5.42518e-19)
(-0.0391871 0.109293 6.27903e-19)
(-0.0215744 0.0961016 -7.1394e-19)
(0.00356808 0.0778064 8.13684e-19)
(0.0360512 0.0557941 -6.20921e-20)
(0.0750615 0.0315565 -2.18794e-19)
(0.118249 0.00856602 -4.85481e-19)
(-0.021927 0.0405915 -1.55281e-19)
(-0.0432817 0.0851125 -2.31774e-19)
(-0.047683 0.10569 -2.73999e-19)
(-0.0386066 0.110127 5.64673e-19)
(-0.0181827 0.103682 1.02707e-18)
(0.0122811 0.0896961 -2.00484e-19)
(0.0521269 0.0701565 -5.09738e-19)
(0.101099 0.0463239 1.4974e-19)
(0.158935 0.0198039 -9.64784e-19)
(0.223092 -0.00484212 7.79789e-19)
(-0.0242567 0.036927 9.41409e-19)
(-0.0458044 0.076792 -4.09888e-19)
(-0.0452801 0.0944483 7.9096e-19)
(-0.0270645 0.0970334 -1.23792e-18)
(0.00614673 0.0894612 -5.80515e-19)
(0.052822 0.0748449 -7.87786e-19)
(0.112117 0.0550048 2.15796e-19)
(0.183304 0.031026 -6.41781e-19)
(0.26528 0.00431633 1.36196e-18)
(0.360015 -0.0172518 2.89428e-19)
(-0.026768 0.0332258 4.7903e-20)
(-0.0472275 0.0664085 6.69079e-19)
(-0.0396506 0.0791314 1.26317e-18)
(-0.00890177 0.0785816 3.85473e-19)
(0.0420809 0.0694813 1.08702e-18)
(0.111492 0.0547644 6.06931e-20)
(0.197704 0.0361484 -1.78494e-20)
(0.298536 0.0146628 4.12104e-19)
(0.40912 -0.0093179 3.66473e-19)
(0.54046 -0.0217432 -8.52364e-19)
(-0.0293127 0.0299273 -5.19038e-19)
(-0.0457368 0.05529 -7.29342e-19)
(-0.0262274 0.0620488 -1.03258e-18)
(0.0237996 0.0580583 1.19135e-20)
(0.100947 0.048068 -4.9717e-19)
(0.202115 0.0349352 7.60356e-19)
(0.322957 0.0202272 -2.07403e-18)
(0.457953 0.00497007 9.17872e-19)
(0.596666 -0.0110614 3.68641e-19)
(0.752912 -0.0137829 8.63258e-19)
(-0.0312368 0.0268524 2.62722e-19)
(-0.0386118 0.0439399 -8.1047e-19)
(0.000624682 0.0449893 6.91308e-19)
(0.079697 0.0387687 -2.61877e-19)
(0.193293 0.0301613 2.72966e-19)
(0.334452 0.0218464 5.88301e-19)
(0.493233 0.01479 -7.61684e-19)
(0.659108 0.00949431 1.06421e-19)
(0.81774 0.00714147 -3.47959e-19)
(0.963602 -0.00214553 4.51257e-19)
(-0.0314126 0.023456 3.51711e-19)
(-0.0225311 0.0322719 -7.15954e-19)
(0.0465765 0.0292496 9.42359e-19)
(0.165828 0.0237989 -5.7009e-19)
(0.324598 0.0205713 -1.99347e-19)
(0.508055 0.0212565 1.13468e-19)
(0.698385 0.0251154 6.27363e-20)
(0.880681 0.0316616 7.64656e-19)
(1.03535 0.0370097 2.20633e-19)
(1.17904 0.0413074 6.17992e-19)
(-0.0284087 0.0192241 -3.06544e-19)
(0.00608359 0.0202486 9.1019e-19)
(0.11654 0.0162935 -7.40359e-19)
(0.28581 0.0164346 -8.46993e-19)
(0.492431 0.0236501 1.13181e-18)
(0.710116 0.0368788 -8.35726e-19)
(0.914437 0.0526606 2.12008e-19)
(1.08916 0.0684993 -1.17324e-18)
(1.22219 0.0792257 8.47343e-19)
(1.3306 0.089953 2.47779e-20)
(-0.0206485 0.0140057 -3.93402e-19)
(0.0508012 0.00861417 -3.25853e-19)
(0.213946 0.00862623 -6.72262e-19)
(0.43813 0.020482 7.71372e-19)
(0.685013 0.0424535 -3.77327e-20)
(0.917666 0.0688451 4.6928e-19)
(1.1115 0.0936128 8.12326e-19)
(1.25663 0.11343 -2.40578e-19)
(1.35299 0.125003 -7.56958e-19)
(1.41476 0.134122 1.16438e-18)
(-0.00650934 0.00816465 -2.03743e-19)
(0.114767 -0.000624707 -2.05275e-19)
(0.339373 0.0100954 3.64466e-19)
(0.61426 0.0394298 -6.42487e-19)
(0.882509 0.077205 1.04277e-19)
(1.10494 0.113171 9.10813e-20)
(1.26659 0.140943 2.65602e-20)
(1.37017 0.158916 -1.46088e-20)
(1.42644 0.166493 -9.48926e-20)
(1.45297 0.170919 -9.70355e-19)
(0.0155737 0.00258539 8.38668e-19)
(0.199881 -0.00416025 -4.94856e-19)
(0.488556 0.0249819 6.46724e-21)
(0.798695 0.0745402 -6.94113e-19)
(1.06307 0.124554 -2.35801e-19)
(1.25365 0.163605 2.16063e-19)
(1.37236 0.188374 1.49431e-19)
(1.43481 0.200595 -5.24599e-19)
(1.4592 0.202685 3.9921e-19)
(1.46131 0.20245 -4.07521e-19)
(0.0469142 -0.00136877 3.68266e-19)
(0.305603 0.00215847 -2.87129e-19)
(0.651376 0.0561382 1.10241e-18)
(0.973222 0.123772 1.08821e-19)
(1.21106 0.179202 2.34112e-19)
(1.3586 0.214934 9.77219e-19)
(1.43504 0.232881 -1.47806e-19)
(1.46449 0.238086 1.16351e-19)
(1.46672 0.234868 4.17265e-20)
(1.45578 0.230896 -4.90314e-20)
(0.0882675 -0.00190637 2.6717e-19)
(0.427822 0.0223279 5.31441e-19)
(0.813823 0.103552 -5.41235e-19)
(1.12334 0.182919 -1.72024e-19)
(1.32091 0.236552 -1.98058e-19)
(1.4245 0.264577 2.94188e-19)
(1.46571 0.27417 -1.42234e-19)
(1.47158 0.272515 3.69229e-19)
(1.4602 0.264913 1.17016e-19)
(1.44178 0.257807 -1.51885e-19)
(0.139446 0.00306173 -2.90805e-19)
(0.558648 0.0588444 2.23624e-19)
(0.962402 0.164597 -4.42145e-19)
(1.24165 0.247679 1.78033e-19)
(1.39465 0.293825 -1.73603e-19)
(1.45951 0.311829 -2.01422e-19)
(1.47418 0.312843 -1.50563e-19)
(1.46461 0.305003 1.61828e-19)
(1.44536 0.29373 -2.92985e-19)
(1.4237 0.283743 1.41509e-19)
(0.198976 0.0156197 -1.07477e-19)
(0.687889 0.11174 -1.77462e-19)
(1.08764 0.235436 7.96153e-20)
(1.32689 0.314692 5.92833e-21)
(1.43749 0.349572 5.70869e-20)
(1.47129 0.356673 7.16463e-20)
(1.46753 0.349529 6.15467e-20)
(1.44863 0.336245 -7.948e-20)
(1.42532 0.321826 6.53862e-20)
(1.40234 0.308865 -8.06591e-20)
(0.263951 0.0373948 -6.87765e-20)
(0.805647 0.178675 -2.37417e-20)
(1.18472 0.312134 7.55532e-20)
(1.38115 0.381491 -3.36683e-20)
(1.4551 0.402958 7.64216e-20)
(1.46583 0.399177 -9.31014e-20)
(1.45026 0.384534 2.11901e-20)
(1.42634 0.366426 2.08578e-20)
(1.4013 0.349045 -8.38445e-21)
(1.37837 0.332892 2.51477e-20)
(0.330232 0.0691073 -8.22094e-20)
(0.904359 0.255831 -2.84625e-19)
(1.25228 0.39105 -1.76465e-20)
(1.40793 0.446166 4.58148e-21)
(1.45245 0.453339 -2.70339e-19)
(1.44731 0.439209 3.36989e-20)
(1.42505 0.41777 -2.72198e-20)
(1.39904 0.395302 -6.3314e-20)
(1.37379 0.37499 1.30394e-19)
(1.35181 0.355434 -1.86849e-19)
(0.393009 0.110291 -4.62087e-20)
(0.979379 0.33883 6.07751e-19)
(1.29118 0.468888 6.50793e-20)
(1.41096 0.507095 -4.35519e-19)
(1.43346 0.500016 -4.24468e-20)
(1.41855 0.476336 -3.435e-19)
(1.39342 0.448774 2.38855e-19)
(1.36737 0.422293 -8.51374e-20)
(1.34299 0.399004 1.49336e-19)
(1.32264 0.375985 -9.14049e-20)
(0.447572 0.159275 -2.60562e-19)
(1.0286 0.423291 2.19886e-19)
(1.30349 0.542701 -1.27535e-19)
(1.39377 0.562782 8.59692e-19)
(1.40116 0.542147 3.7226e-19)
(1.38141 0.509849 -8.20584e-20)
(1.35626 0.476794 2.71284e-19)
(1.33167 0.4466 -1.70821e-19)
(1.30906 0.42034 -4.96829e-20)
(1.29101 0.394006 2.59073e-19)
(0.490012 0.213395 -4.69735e-19)
(1.05183 0.50507 5.21537e-19)
(1.2919 0.609863 -8.49161e-19)
(1.3595 0.611787 1.18855e-19)
(1.35788 0.578745 2.09642e-19)
(1.33723 0.538833 -2.97834e-19)
(1.31423 0.500905 -3.55495e-19)
(1.29231 0.467303 1.61175e-19)
(1.27228 0.438193 -1.95779e-19)
(1.25706 0.408946 2.1188e-19)
(0.51764 0.269328 -1.18134e-19)
(1.05017 0.580359 -5.2066e-19)
(1.25937 0.668025 2.56548e-19)
(1.31096 0.652686 3.84412e-19)
(1.30554 0.608706 -2.08414e-19)
(1.28713 0.56227 -1.45733e-19)
(1.26802 0.520131 -1.19154e-19)
(1.24987 0.483462 -5.42862e-20)
(1.2333 0.451728 -3.63385e-21)
(1.22161 0.42016 1.36646e-19)
(0.529127 0.323477 1.42406e-19)
(1.02569 0.645735 -5.66156e-19)
(1.20893 0.715089 7.43597e-19)
(1.25064 0.684043 -4.00418e-19)
(1.24576 0.630788 1.21428e-19)
(1.23211 0.579009 -1.51658e-19)
(1.21842 0.533447 1.5311e-19)
(1.20526 0.49416 7.51699e-20)
(1.19333 0.460115 9.79195e-20)
(1.18603 0.42696 -1.33296e-19)
(0.524438 0.372345 -4.2471e-19)
(0.981083 0.698266 6.15333e-19)
(1.14359 0.749261 -2.73111e-20)
(1.18072 0.704475 -1.38913e-19)
(1.17979 0.643594 -1.5514e-19)
(1.17284 0.58757 3.02511e-20)
(1.166 0.539371 -8.58253e-20)
(1.15942 0.498011 1.77905e-20)
(1.15388 0.462188 -2.92198e-20)
(1.15201 0.428581 7.52317e-21)
(0.504672 0.412841 5.22014e-19)
(0.919577 0.735636 -1.71253e-19)
(1.06637 0.769216 -1.05487e-19)
(1.10324 0.712952 2.56539e-19)
(1.10865 0.64594 -1.41251e-19)
(1.10955 0.586321 8.43264e-21)
(1.11055 0.535608 -6.95315e-20)
(1.11215 0.492099 -3.70799e-20)
(1.1148 0.455011 -5.19055e-20)
(1.11862 0.423191 1.63479e-20)
(0.471841 0.44248 -3.62056e-19)
(0.844792 0.756185 1.61592e-19)
(0.980395 0.774183 -8.28275e-20)
(1.02032 0.70916 -4.35603e-20)
(1.03345 0.637748 4.53304e-21)
(1.04241 0.575062 1.78714e-19)
(1.05123 0.521075 -5.53652e-20)
(1.06137 0.473282 4.95129e-20)
(1.07223 0.432383 8.03543e-20)
(1.07921 0.403547 2.33253e-19)
(0.428598 0.459428 1.67288e-20)
(0.760632 0.758804 -3.83233e-20)
(0.888974 0.763708 3.4679e-19)
(0.934419 0.69317 -6.83347e-20)
(0.956059 0.619999 4.07425e-19)
(0.972759 0.556362 2.51711e-19)
(0.988348 0.500562 -5.60964e-19)
(1.00533 0.448156 8.40066e-19)
(1.02191 0.396747 -1.75054e-19)
(1.02275 0.353958 2.99718e-19)
(0.377957 0.462503 -6.05754e-20)
(0.671085 0.742883 -1.54533e-19)
(0.795466 0.737403 1.63547e-19)
(0.848349 0.664508 -2.83077e-19)
(0.879308 0.592292 -9.18702e-19)
(0.904045 0.530865 -3.658e-19)
(0.925895 0.478482 -3.00537e-19)
(0.946589 0.432326 1.51933e-19)
(0.961955 0.392593 1.17475e-18)
(0.959843 0.363562 -2.09722e-19)
(0.323062 0.45119 1.16534e-19)
(0.580026 0.708445 -4.09162e-19)
(0.703014 0.695357 9.53141e-20)
(0.764596 0.622826 -6.5425e-19)
(0.805614 0.552912 1.36625e-18)
(0.839422 0.493457 -1.55716e-19)
(0.868873 0.442119 6.92474e-19)
(0.895052 0.396178 -9.32867e-19)
(0.91423 0.356705 2.89483e-19)
(0.917762 0.330339 3.89027e-20)
(0.267048 0.425609 7.02998e-20)
(0.491184 0.656131 4.57364e-19)
(0.614581 0.638357 -1.45047e-18)
(0.685132 0.569408 6.5928e-19)
(0.735559 0.504735 2.9362e-21)
(0.777348 0.450599 -2.0911e-19)
(0.813343 0.404719 2.53034e-19)
(0.844732 0.364477 -2.37712e-19)
(0.868669 0.329721 -7.79691e-19)
(0.878909 0.30426 -1.88614e-19)
(0.212898 0.386407 3.08149e-19)
(0.408104 0.586957 3.20335e-19)
(0.533282 0.566958 1.26539e-18)
(0.612984 0.503797 -6.74221e-19)
(0.672663 0.445455 1.31944e-18)
(0.722172 0.396703 -2.71255e-19)
(0.764362 0.35548 -2.69006e-19)
(0.800814 0.319831 3.03093e-19)
(0.829685 0.289737 1.91623e-19)
(0.846304 0.267704 6.01591e-19)
(0.163282 0.334781 -3.57425e-19)
(0.333755 0.50267 9.22439e-20)
(0.461267 0.482914 2.76065e-20)
(0.549344 0.428082 7.00741e-19)
(0.61727 0.378203 -1.65608e-18)
(0.673692 0.336818 2.72702e-19)
(0.721494 0.301991 5.55372e-19)
(0.762523 0.271932 -6.4639e-19)
(0.795876 0.246329 2.19042e-19)
(0.818452 0.226887 -8.82079e-19)
(0.120601 0.272346 7.84217e-20)
(0.270948 0.405291 3.62234e-19)
(0.400996 0.387706 1.37158e-19)
(0.496368 0.342941 1.70184e-19)
(0.571288 0.302595 3.04385e-19)
(0.633532 0.269243 8.47235e-19)
(0.686087 0.241339 -9.88534e-19)
(0.731048 0.217457 -5.27044e-19)
(0.768318 0.197133 8.56021e-20)
(0.796063 0.181335 5.77223e-19)
(0.0868018 0.201095 -4.76367e-19)
(0.221839 0.297338 -4.6967e-20)
(0.354162 0.283594 -3.7986e-19)
(0.455355 0.250522 5.01648e-20)
(0.535774 0.220928 -2.88645e-19)
(0.602564 0.196527 -3.11979e-19)
(0.658801 0.176156 -4.38908e-19)
(0.706815 0.158767 1.12965e-18)
(0.747222 0.143934 1.84976e-19)
(0.779162 0.132209 -2.47542e-19)
(0.0634055 0.123326 2.57122e-19)
(0.188134 0.181583 2.91362e-19)
(0.322149 0.172849 1.07018e-19)
(0.427384 0.152548 -5.47817e-19)
(0.511591 0.134467 -2.39725e-19)
(0.581509 0.119589 -4.95422e-20)
(0.640276 0.1072 9.10331e-20)
(0.690392 0.0966506 7.00537e-20)
(0.732996 0.0876381 -5.12117e-19)
(0.767881 0.0804366 2.56895e-19)
(0.0514465 0.0415574 -1.35749e-19)
(0.170992 0.061062 -1.30541e-19)
(0.305909 0.0580696 9.8359e-20)
(0.413215 0.0512273 8.18598e-20)
(0.49935 0.0451462 7.93448e-20)
(0.570858 0.0401473 1.13515e-19)
(0.630911 0.0359888 -6.84278e-21)
(0.682103 0.0324528 -1.35753e-19)
(0.725845 0.0294303 1.22639e-19)
(0.762253 0.0270041 -1.60587e-19)
(0.0514466 -0.0415592 -1.37333e-19)
(0.170992 -0.0610647 -1.25193e-19)
(0.30591 -0.0580724 1.08418e-19)
(0.413215 -0.0512299 1.98188e-19)
(0.49935 -0.0451486 1.2322e-19)
(0.570858 -0.0401495 -1.54463e-19)
(0.630911 -0.0359908 -7.84622e-20)
(0.682103 -0.0324547 3.4046e-20)
(0.725845 -0.0294321 7.16623e-20)
(0.762253 -0.0270058 -3.70147e-20)
(0.0634057 -0.123327 3.26301e-19)
(0.188134 -0.181585 -3.47794e-19)
(0.32215 -0.172852 -2.77941e-20)
(0.427385 -0.152551 1.71162e-19)
(0.511591 -0.134469 -7.27259e-19)
(0.581509 -0.119591 2.93853e-19)
(0.640276 -0.107202 2.86068e-19)
(0.690393 -0.0966525 -3.242e-19)
(0.732996 -0.0876399 2.9643e-19)
(0.767882 -0.0804382 -1.14969e-19)
(0.0868022 -0.201097 -5.46299e-20)
(0.221839 -0.29734 -1.56152e-21)
(0.354162 -0.283597 -8.81819e-19)
(0.455356 -0.250524 -2.59209e-19)
(0.535774 -0.220931 -2.06922e-20)
(0.602564 -0.19653 -3.82286e-19)
(0.658801 -0.176158 6.79805e-19)
(0.706816 -0.158769 -2.51703e-20)
(0.747222 -0.143936 3.58775e-19)
(0.779162 -0.132211 -2.7088e-19)
(0.120601 -0.272348 9.11886e-20)
(0.270949 -0.405294 -3.60663e-19)
(0.400997 -0.387709 1.05714e-18)
(0.496369 -0.342943 1.42962e-19)
(0.571289 -0.302597 6.5129e-19)
(0.633533 -0.269246 -5.99167e-19)
(0.686088 -0.241341 6.00981e-19)
(0.731049 -0.217458 -4.18797e-19)
(0.768318 -0.197134 -1.78787e-19)
(0.796063 -0.181336 1.28309e-19)
(0.163283 -0.334783 7.79149e-19)
(0.333756 -0.502672 1.81879e-20)
(0.461268 -0.482916 -1.08536e-18)
(0.549345 -0.428084 -2.96181e-19)
(0.61727 -0.378205 9.42757e-19)
(0.673693 -0.33682 -5.23051e-19)
(0.721495 -0.301993 -5.71922e-19)
(0.762523 -0.271934 4.97625e-19)
(0.795877 -0.246331 -3.23772e-19)
(0.818452 -0.226889 -6.14402e-20)
(0.212898 -0.386409 -1.19212e-19)
(0.408106 -0.586959 -7.43364e-21)
(0.533283 -0.56696 1.13389e-18)
(0.612985 -0.503799 6.26869e-19)
(0.672664 -0.445457 -7.00074e-19)
(0.722173 -0.396705 8.13771e-19)
(0.764363 -0.355482 -8.27512e-19)
(0.800814 -0.319833 8.40337e-20)
(0.829686 -0.289739 2.316e-19)
(0.846304 -0.267706 4.58344e-19)
(0.267049 -0.425611 1.00838e-19)
(0.491186 -0.656133 1.4103e-19)
(0.614582 -0.638359 1.60506e-19)
(0.685133 -0.56941 -5.5498e-19)
(0.73556 -0.504737 -9.47742e-19)
(0.777349 -0.450601 1.9389e-19)
(0.813344 -0.404721 5.37202e-19)
(0.844733 -0.364478 -1.47435e-19)
(0.86867 -0.329723 8.39912e-19)
(0.87891 -0.304262 -7.15998e-19)
(0.323063 -0.451192 -5.39223e-19)
(0.580027 -0.708448 1.26399e-19)
(0.703016 -0.695359 -5.61879e-19)
(0.764597 -0.622828 8.87009e-19)
(0.805616 -0.552914 4.36106e-19)
(0.839423 -0.493459 5.82194e-19)
(0.868875 -0.442121 -1.24055e-19)
(0.895053 -0.39618 4.89228e-19)
(0.914231 -0.356707 -1.00065e-18)
(0.917763 -0.33034 -2.27265e-19)
(0.377958 -0.462505 1.14481e-19)
(0.671087 -0.742886 -2.43657e-19)
(0.795468 -0.737406 -4.48979e-19)
(0.84835 -0.66451 -2.46219e-19)
(0.87931 -0.592294 -6.34818e-19)
(0.904046 -0.530867 -6.9369e-20)
(0.925896 -0.478484 5.67212e-20)
(0.94659 -0.432327 -2.13608e-19)
(0.961956 -0.392594 -2.42148e-19)
(0.959844 -0.363563 5.46052e-19)
(0.428599 -0.459429 2.27942e-20)
(0.760634 -0.758806 7.1552e-20)
(0.888976 -0.76371 3.43799e-19)
(0.934421 -0.693172 4.86092e-20)
(0.956061 -0.620001 2.54245e-19)
(0.972761 -0.556363 -3.1575e-19)
(0.98835 -0.500563 9.46487e-19)
(1.00534 -0.448157 -4.00095e-19)
(1.02192 -0.396748 -1.96601e-19)
(1.02275 -0.353959 -5.11316e-19)
(0.471843 -0.442481 5.48684e-22)
(0.844794 -0.756187 -1.41484e-19)
(0.980397 -0.774185 4.92048e-20)
(1.02032 -0.709161 2.7255e-20)
(1.03345 -0.63775 -4.04672e-20)
(1.04241 -0.575064 -1.33924e-19)
(1.05124 -0.521076 1.67935e-19)
(1.06138 -0.473283 -7.06275e-20)
(1.07223 -0.432384 7.77451e-20)
(1.07921 -0.403548 -1.36273e-19)
(0.504674 -0.412842 1.72688e-19)
(0.919579 -0.735638 -3.58034e-19)
(1.06637 -0.769218 2.73673e-19)
(1.10324 -0.712953 -3.49438e-20)
(1.10865 -0.645942 -6.28094e-20)
(1.10955 -0.586322 2.54431e-20)
(1.11055 -0.535609 -2.47564e-21)
(1.11215 -0.4921 -8.73053e-20)
(1.1148 -0.455012 -5.69302e-20)
(1.11862 -0.423192 -8.87892e-20)
(0.524439 -0.372346 -2.35372e-19)
(0.981085 -0.698268 6.24054e-19)
(1.14359 -0.749263 -3.30417e-19)
(1.18072 -0.704476 -1.84778e-19)
(1.17979 -0.643595 2.15605e-19)
(1.17284 -0.587572 -7.92887e-20)
(1.166 -0.539372 2.75033e-20)
(1.15943 -0.498012 -2.94584e-20)
(1.15388 -0.462189 7.58039e-21)
(1.15201 -0.428582 4.51715e-21)
(0.529129 -0.323478 -3.90978e-19)
(1.02569 -0.645737 -2.45162e-19)
(1.20893 -0.71509 -4.1046e-19)
(1.25064 -0.684044 4.52735e-19)
(1.24576 -0.630789 -1.91137e-20)
(1.23211 -0.57901 1.42417e-19)
(1.21842 -0.533448 1.88992e-19)
(1.20526 -0.49416 -6.06508e-20)
(1.19333 -0.460115 -9.89591e-20)
(1.18603 -0.42696 1.4884e-19)
(0.517642 -0.269328 -2.2637e-19)
(1.05017 -0.580361 -2.32658e-19)
(1.25937 -0.668026 2.87756e-19)
(1.31096 -0.652687 -4.17009e-19)
(1.30555 -0.608707 7.67209e-20)
(1.28714 -0.56227 3.74275e-20)
(1.26802 -0.520131 4.96329e-20)
(1.24987 -0.483462 -2.92383e-20)
(1.23331 -0.451729 -4.43615e-20)
(1.22161 -0.420161 -2.52175e-19)
(0.490014 -0.213395 9.21624e-19)
(1.05183 -0.505072 -5.4032e-19)
(1.2919 -0.609864 1.18853e-20)
(1.3595 -0.611788 -5.59143e-19)
(1.35788 -0.578745 -1.38702e-19)
(1.33723 -0.538834 1.20265e-19)
(1.31423 -0.500905 7.84665e-20)
(1.29231 -0.467303 -2.58304e-19)
(1.27228 -0.438193 1.40475e-19)
(1.25706 -0.408946 -1.76115e-19)
(0.447574 -0.159276 4.16873e-19)
(1.02861 -0.423292 -3.06082e-19)
(1.30349 -0.542702 1.0565e-18)
(1.39377 -0.562782 6.40299e-20)
(1.40116 -0.542147 1.92669e-19)
(1.38141 -0.509849 6.45661e-19)
(1.35626 -0.476794 -1.22696e-19)
(1.33167 -0.4466 4.06256e-20)
(1.30906 -0.420339 -4.30241e-21)
(1.29101 -0.394006 -2.48399e-20)
(0.393011 -0.110291 2.95174e-19)
(0.979383 -0.338831 5.77465e-19)
(1.29118 -0.468888 -5.14228e-19)
(1.41097 -0.507095 -1.26241e-19)
(1.43347 -0.500016 -1.30772e-19)
(1.41855 -0.476336 2.44241e-19)
(1.39342 -0.448774 -1.09449e-19)
(1.36737 -0.422293 2.54492e-19)
(1.34299 -0.399004 6.56481e-20)
(1.32265 -0.375984 -8.97989e-20)
(0.330234 -0.0691075 -3.18594e-19)
(0.904363 -0.255832 2.30158e-19)
(1.25228 -0.39105 -4.46963e-19)
(1.40793 -0.446166 1.68221e-19)
(1.45245 -0.453339 -1.548e-19)
(1.44731 -0.439208 -1.69783e-19)
(1.42505 -0.41777 -1.23417e-19)
(1.39905 -0.395301 1.32053e-19)
(1.37379 -0.374989 -2.27851e-19)
(1.35181 -0.355434 1.13629e-19)
(0.263953 -0.0373949 -1.12571e-19)
(0.805651 -0.178675 -1.82586e-19)
(1.18472 -0.312135 8.11024e-20)
(1.38115 -0.381491 6.91598e-21)
(1.45511 -0.402957 5.33854e-20)
(1.46583 -0.399176 6.89648e-20)
(1.45026 -0.384533 5.50024e-20)
(1.42635 -0.366424 -7.24533e-20)
(1.4013 -0.349044 5.80686e-20)
(1.37838 -0.332891 -7.22911e-20)
(0.198977 -0.0156197 -6.49118e-20)
(0.687893 -0.11174 -2.09576e-20)
(1.08765 -0.235436 7.6234e-20)
(1.32689 -0.314691 -3.3627e-20)
(1.43749 -0.349571 8.21052e-20)
(1.4713 -0.356672 -9.8283e-20)
(1.46753 -0.349528 2.45517e-20)
(1.44864 -0.336244 1.99573e-20)
(1.42533 -0.321824 -6.95366e-21)
(1.40234 -0.308864 2.47454e-20)
(0.139448 -0.00306166 -7.01331e-20)
(0.558652 -0.0588444 -2.68683e-19)
(0.962408 -0.164597 -2.09979e-20)
(1.24166 -0.247678 7.35904e-21)
(1.39465 -0.293824 -3.07675e-19)
(1.45951 -0.311828 3.13082e-20)
(1.47419 -0.312842 -3.1486e-20)
(1.46462 -0.305001 -7.9261e-20)
(1.44536 -0.293728 1.67716e-19)
(1.4237 -0.283741 -2.40014e-19)
(0.0882684 0.00190646 -3.67662e-20)
(0.427826 -0.0223277 5.65529e-19)
(0.813829 -0.103552 7.75831e-20)
(1.12334 -0.182919 -4.61242e-19)
(1.32092 -0.23655 -5.59499e-20)
(1.42451 -0.264576 -4.58658e-19)
(1.46572 -0.274168 3.36989e-19)
(1.47158 -0.272513 -1.27546e-19)
(1.4602 -0.26491 2.35696e-19)
(1.44178 -0.257804 -1.58637e-19)
(0.0469149 0.00136886 -2.29558e-19)
(0.305607 -0.00215816 2.20326e-19)
(0.651381 -0.0561378 -1.47987e-19)
(0.973229 -0.123771 9.99092e-19)
(1.21106 -0.179201 5.00309e-19)
(1.3586 -0.214932 -1.20961e-19)
(1.43504 -0.232879 4.57931e-19)
(1.46449 -0.238083 -2.80657e-19)
(1.46673 -0.234865 -7.96141e-20)
(1.45578 -0.230893 4.85403e-19)
(0.0155741 -0.00258533 -4.24616e-19)
(0.199883 0.00416062 5.1967e-19)
(0.488561 -0.0249814 -9.6527e-19)
(0.798701 -0.0745393 1.57418e-19)
(1.06308 -0.124553 3.81503e-19)
(1.25366 -0.163603 -4.57145e-19)
(1.37237 -0.188372 -7.6387e-19)
(1.43481 -0.200592 3.93703e-19)
(1.4592 -0.202682 -4.7035e-19)
(1.46131 -0.202447 5.83685e-19)
(-0.00650909 -0.00816464 -1.03478e-19)
(0.114768 0.000625033 -5.3354e-19)
(0.339378 -0.0100948 2.47799e-19)
(0.614266 -0.039429 6.06955e-19)
(0.882517 -0.0772036 -3.11231e-19)
(1.10495 -0.113169 -2.95589e-19)
(1.2666 -0.14094 -4.81838e-19)
(1.37017 -0.158912 -1.9535e-19)
(1.42645 -0.16649 -3.16866e-20)
(1.45298 -0.170915 5.74962e-19)
(-0.0206485 -0.0140058 1.73707e-19)
(0.0508025 -0.00861402 -7.21234e-19)
(0.21395 -0.00862581 1.19462e-18)
(0.438136 -0.0204812 -6.2888e-19)
(0.685021 -0.0424523 4.03334e-19)
(0.917675 -0.0688433 -4.78423e-19)
(1.11151 -0.0936102 5.13676e-19)
(1.25664 -0.113427 4.28006e-19)
(1.353 -0.124999 8.32906e-19)
(1.41477 -0.134117 -1.06256e-18)
(-0.0284088 -0.0192243 -5.36559e-19)
(0.00608433 -0.0202488 9.23632e-19)
(0.116542 -0.0162935 1.73292e-20)
(0.285816 -0.0164342 -3.0099e-19)
(0.492439 -0.0236491 -1.46227e-19)
(0.710125 -0.0368772 1.19762e-19)
(0.914447 -0.0526581 -8.42746e-19)
(1.08917 -0.068496 5.9856e-19)
(1.2222 -0.0792216 -7.53812e-19)
(1.33061 -0.0899479 -2.4118e-19)
(-0.0314128 -0.0234564 9.45108e-19)
(-0.0225309 -0.0322726 -2.44384e-19)
(0.0465783 -0.0292502 -4.55253e-19)
(0.165832 -0.0237991 1.18074e-18)
(0.324605 -0.0205708 -1.12413e-18)
(0.508064 -0.0212551 6.13025e-19)
(0.698395 -0.0251131 6.34499e-19)
(0.880693 -0.0316582 1.63984e-19)
(1.03537 -0.0370053 1.64749e-19)
(1.17905 -0.0413017 -1.56673e-19)
(-0.0312371 -0.026853 -9.23267e-19)
(-0.0386119 -0.0439412 7.44022e-19)
(0.000625826 -0.0449907 -6.28034e-19)
(0.0797002 -0.0387697 7.69088e-19)
(0.193298 -0.0301615 -2.18021e-19)
(0.334461 -0.0218455 -7.62324e-19)
(0.493243 -0.0147879 2.10905e-19)
(0.65912 -0.00949088 -3.20761e-19)
(0.817753 -0.00713668 -3.56628e-19)
(0.963615 0.00215249 -8.13148e-19)
(-0.0293133 -0.0299283 -1.20885e-18)
(-0.0457373 -0.055292 7.99267e-19)
(-0.0262268 -0.062051 -1.50776e-18)
(0.0238019 -0.0580601 2.6003e-19)
(0.100952 -0.0480689 -9.82834e-19)
(0.202122 -0.0349348 -5.86808e-19)
(0.322967 -0.0202254 1.37617e-18)
(0.457965 -0.00496673 -1.86595e-18)
(0.59668 0.0110664 3.56513e-19)
(0.752928 0.0137899 -4.85718e-19)
(-0.0267687 -0.0332272 6.0351e-19)
(-0.0472284 -0.0664113 2.28352e-19)
(-0.0396506 -0.0791345 -7.6646e-20)
(-0.00890028 -0.0785841 5.58123e-19)
(0.0420843 -0.0694827 1.61271e-18)
(0.111497 -0.0547643 5.55394e-19)
(0.197711 -0.0361466 5.6808e-19)
(0.298546 -0.0146593 -1.90447e-19)
(0.409132 0.00932335 -1.86717e-18)
(0.540475 0.0217503 3.44949e-19)
(-0.0242576 -0.0369289 -1.83169e-19)
(-0.0458056 -0.0767955 4.82564e-19)
(-0.0452806 -0.0944519 -1.21374e-19)
(-0.0270638 -0.0970362 8.09298e-19)
(0.00614878 -0.0894625 -1.79339e-18)
(0.0528256 -0.0748443 1.60722e-19)
(0.112122 -0.0550023 -8.36079e-19)
(0.183311 -0.0310214 1.2411e-18)
(0.265289 -0.00430967 -3.47302e-19)
(0.360027 0.01726 -3.85996e-20)
(-0.021928 -0.0405937 -1.22327e-19)
(-0.0432831 -0.0851164 -5.78799e-19)
(-0.047684 -0.105694 1.40878e-18)
(-0.0386068 -0.11013 -6.98541e-19)
(-0.018182 -0.103683 3.87656e-20)
(0.0122828 -0.0896944 2.09069e-19)
(0.0521296 -0.0701525 -2.09912e-19)
(0.101103 -0.0463174 2.4907e-19)
(0.15894 -0.0197953 8.82577e-19)
(0.223099 0.00485218 1.7984e-19)
(-0.0196026 -0.0431936 -2.89502e-19)
(-0.0405795 -0.0894661 -2.66792e-19)
(-0.0497105 -0.110519 -1.11124e-18)
(-0.0488519 -0.115262 5.71636e-19)
(-0.0391874 -0.109292 -1.14287e-18)
(-0.0215743 -0.0960984 2.46881e-19)
(0.00356853 -0.0778003 2.74738e-19)
(0.036052 -0.0557855 -3.0324e-19)
(0.0750629 -0.0315457 -1.972e-19)
(0.118251 -0.00855397 -6.37877e-19)
(-0.0170736 -0.043415 2.34559e-19)
(-0.0380357 -0.0879328 -4.56863e-20)
(-0.0525543 -0.107196 -2.50666e-21)
(-0.0600836 -0.111076 -5.27877e-19)
(-0.0606369 -0.105273 1.27503e-18)
(-0.0545125 -0.0932174 -1.91651e-19)
(-0.041828 -0.0770051 -4.82152e-19)
(-0.0228813 -0.0580092 5.76146e-19)
(0.000978522 -0.037581 -2.04314e-19)
(0.0295879 -0.0186031 8.2907e-19)
(-0.0143354 -0.0401057 -4.44479e-20)
(-0.0357715 -0.0792394 -2.13047e-19)
(-0.0562309 -0.0950752 -7.92622e-20)
(-0.0722028 -0.0976082 -9.60326e-20)
(-0.0825111 -0.0921834 -1.97781e-19)
(-0.0869661 -0.0818888 -6.14028e-19)
(-0.0854708 -0.0685833 7.50736e-19)
(-0.0785173 -0.0534648 4.37892e-19)
(-0.0675583 -0.0376744 -7.39629e-20)
(-0.0505029 -0.0233976 -5.07649e-19)
(-0.011653 -0.0326952 2.53481e-19)
(-0.0338912 -0.0631867 3.55646e-20)
(-0.0601097 -0.0747115 2.27981e-19)
(-0.0837598 -0.0760239 -2.74064e-20)
(-0.102644 -0.0715341 1.89953e-19)
(-0.116257 -0.0636872 2.09555e-19)
(-0.124445 -0.0539162 3.1204e-19)
(-0.127914 -0.0431179 -8.67497e-19)
(-0.127921 -0.032126 -1.60381e-19)
(-0.120856 -0.0223612 2.11757e-19)
(-0.00947205 -0.0214481 -1.28447e-19)
(-0.0325284 -0.0407848 -1.48815e-19)
(-0.0633441 -0.0477 -6.77967e-20)
(-0.0928763 -0.0482182 3.11795e-19)
(-0.118205 -0.0452529 1.45634e-19)
(-0.138685 -0.0403662 2.87415e-20)
(-0.154211 -0.0344473 -6.12674e-20)
(-0.165668 -0.0280338 -4.66655e-20)
(-0.17405 -0.0216124 4.01465e-19)
(-0.174989 -0.0159389 -2.02732e-19)
(-0.00824247 -0.00747825 6.55559e-20)
(-0.0318096 -0.0140995 6.62498e-20)
(-0.0651809 -0.0163946 -5.30753e-20)
(-0.0979099 -0.0165146 -4.61122e-20)
(-0.126711 -0.0154785 -4.58197e-20)
(-0.150901 -0.0138223 -7.17959e-20)
(-0.170435 -0.0118451 1.45237e-21)
(-0.186295 -0.00972388 9.52502e-20)
(-0.199306 -0.00761529 -9.50615e-20)
(-0.204831 -0.00575159 1.28486e-19)
(-0.114666 -0.00796174 4.8491e-21)
(0.00742081 -0.0158832 7.16187e-22)
(0.419662 -0.0142597 -4.09888e-22)
(0.66897 -0.00919293 1.71977e-22)
(0.839796 -0.00512806 3.16304e-23)
(0.925758 -0.00253521 -6.19884e-23)
(0.965341 -0.00120051 -8.77178e-23)
(0.984567 -0.000549789 2.92861e-23)
(0.992698 -0.000262208 -2.34126e-24)
(0.997844 -0.00010213 2.19211e-23)
(-0.0309866 -0.0248101 9.21584e-21)
(0.0585902 -0.0459131 2.62712e-21)
(0.443594 -0.041859 1.42371e-21)
(0.680785 -0.0271793 -4.04974e-21)
(0.844982 -0.0151948 -3.29125e-22)
(0.927869 -0.00752088 2.97766e-22)
(0.966123 -0.00356798 -3.39689e-22)
(0.984835 -0.00163769 -8.94727e-23)
(0.992789 -0.00078274 -1.87e-22)
(0.997868 -0.000305742 -1.89294e-23)
(0.114506 -0.0443578 7.54609e-21)
(0.153774 -0.0716485 -8.03685e-21)
(0.489462 -0.0669181 -5.27395e-22)
(0.703576 -0.0440251 3.95041e-21)
(0.855056 -0.0247086 -3.21651e-22)
(0.931991 -0.012256 2.53178e-22)
(0.967659 -0.00583141 1.25255e-22)
(0.985363 -0.00268648 -3.28556e-23)
(0.992968 -0.00128927 1.29794e-22)
(0.997916 -0.000505464 -2.5645e-23)
(0.288285 -0.0677485 -1.53832e-20)
(0.27908 -0.0923403 -1.5718e-20)
(0.552929 -0.0883172 -2.20176e-21)
(0.735564 -0.059108 -2.3297e-21)
(0.869377 -0.033356 5.36708e-21)
(0.937911 -0.0165935 -1.66928e-21)
(0.969884 -0.00792791 9.9995e-23)
(0.986134 -0.00367193 -1.4575e-22)
(0.993233 -0.0017729 1.51563e-22)
(0.997986 -0.000698774 1.09937e-23)
(0.46051 -0.0944205 3.69873e-20)
(0.417945 -0.108457 1.17242e-20)
(0.627697 -0.105526 1.50212e-21)
(0.774119 -0.0719832 6.28896e-21)
(0.886971 -0.0409051 -4.35941e-21)
(0.945296 -0.0204188 -1.25928e-21)
(0.972696 -0.00980565 -1.0138e-21)
(0.987121 -0.00457315 -2.4046e-22)
(0.993576 -0.00222566 -3.61327e-22)
(0.998079 -0.000883321 -4.78244e-23)
(0.615724 -0.122032 -1.3109e-20)
(0.55715 -0.120286 1.86156e-20)
(0.707121 -0.118268 1.8833e-21)
(0.816207 -0.082355 -8.24915e-21)
(0.906639 -0.0472204 2.09061e-21)
(0.953718 -0.0236627 1.62611e-21)
(0.975957 -0.0114301 1.07947e-21)
(0.988283 -0.00537507 2.91893e-22)
(0.993988 -0.00264134 1.54238e-22)
(0.998192 -0.00105714 7.02782e-23)
(0.752615 -0.148819 -1.6039e-20)
(0.68951 -0.127856 -2.52564e-20)
(0.785861 -0.126736 1.07955e-21)
(0.858993 -0.0902246 2.62709e-21)
(0.92715 -0.0522877 -2.27641e-21)
(0.962709 -0.0263022 7.15495e-22)
(0.979506 -0.0127836 -9.91388e-22)
(0.98957 -0.00606873 -3.35361e-22)
(0.994453 -0.00301585 5.68744e-23)
(0.998322 -0.00121883 2.41637e-23)
(0.876909 -0.17708 4.17977e-20)
(0.812311 -0.134998 5.52381e-21)
(0.860392 -0.133506 -4.39025e-22)
(0.900266 -0.0964598 4.57228e-21)
(0.947433 -0.0562489 -3.57554e-21)
(0.971821 -0.0283236 2.96253e-21)
(0.983175 -0.0138436 1.47518e-21)
(0.990923 -0.00664158 4.99171e-22)
(0.994953 -0.0033431 4.10116e-22)