/*--------------------------------*- C++ -*----------------------------------*\
  =========                 |
  \\      /  F ield         | OpenFOAM: The Open Source CFD Toolbox
   \\    /   O peration     | Website:  https://openfoam.org
    \\  /    A nd           | Version:  6.0
     \\/     M anipulation  |
\*---------------------------------------------------------------------------*/
FoamFile
{
    version     2.0;
    format      ascii;
    class       volScalarField;
    location    "92";
    object      p;
}
// * * * * * * * * * * * * * * * * * * * * * * * * * * * * * * * * * * * * * //

dimensions      [0 2 -2 0 0 0 0];

internalField   nonuniform List<scalar> 
12500
(
-0.49152
-0.492378
-0.492839
-0.493146
-0.493552
-0.494188
-0.495119
-0.496361
-0.497895
-0.499675
-0.501649
-0.503761
-0.505955
-0.508179
-0.510387
-0.512539
-0.514601
-0.516546
-0.518353
-0.520006
-0.521473
-0.522754
-0.524081
-0.525636
-0.525127
-0.501802
-0.502352
-0.502675
-0.502953
-0.503408
-0.504165
-0.505289
-0.50679
-0.50864
-0.51079
-0.513179
-0.515743
-0.518418
-0.521144
-0.523867
-0.526537
-0.52911
-0.53155
-0.533831
-0.535926
-0.5378
-0.539447
-0.541103
-0.542972
-0.542703
-0.511867
-0.512082
-0.512248
-0.512484
-0.512973
-0.513839
-0.515143
-0.516887
-0.519039
-0.521542
-0.524327
-0.527324
-0.53046
-0.533667
-0.53688
-0.54004
-0.543095
-0.545998
-0.548714
-0.55121
-0.553444
-0.555406
-0.557333
-0.559452
-0.559406
-0.52163
-0.521487
-0.521478
-0.521654
-0.52216
-0.523116
-0.524578
-0.526542
-0.528971
-0.531801
-0.534957
-0.538359
-0.541927
-0.545583
-0.549254
-0.552871
-0.55637
-0.559697
-0.562805
-0.565653
-0.568194
-0.570413
-0.57254
-0.574829
-0.574972
-0.53101
-0.530491
-0.530291
-0.530389
-0.530889
-0.531908
-0.533498
-0.535651
-0.538323
-0.541444
-0.544933
-0.548701
-0.552661
-0.556727
-0.560815
-0.564846
-0.568747
-0.57245
-0.5759
-0.579048
-0.581839
-0.58425
-0.5865
-0.588867
-0.589151
-0.539927
-0.539026
-0.53862
-0.538619
-0.539087
-0.540136
-0.541817
-0.544117
-0.546987
-0.550354
-0.554127
-0.558213
-0.562516
-0.566941
-0.571395
-0.575789
-0.580038
-0.584066
-0.587803
-0.591192
-0.594171
-0.596708
-0.599002
-0.601352
-0.601719
-0.548314
-0.547034
-0.546412
-0.54629
-0.546695
-0.547737
-0.549464
-0.551861
-0.554875
-0.558429
-0.562428
-0.566772
-0.571357
-0.57608
-0.580839
-0.585535
-0.590073
-0.594364
-0.598329
-0.601899
-0.605003
-0.6076
-0.609862
-0.612099
-0.612487
-0.556115
-0.554469
-0.553625
-0.553363
-0.553672
-0.554664
-0.556385
-0.55882
-0.561916
-0.565591
-0.569747
-0.574278
-0.579074
-0.584024
-0.589017
-0.593946
-0.598704
-0.603194
-0.607322
-0.611009
-0.614176
-0.616769
-0.618927
-0.620964
-0.62131
-0.563288
-0.561302
-0.560235
-0.559813
-0.559994
-0.56089
-0.56255
-0.56496
-0.568067
-0.571788
-0.576024
-0.580663
-0.585591
-0.590688
-0.595837
-0.600921
-0.605825
-0.610441
-0.614664
-0.618402
-0.621568
-0.624095
-0.626085
-0.62784
-0.628083
-0.56981
-0.567519
-0.566235
-0.565638
-0.565659
-0.566413
-0.567953
-0.57027
-0.573313
-0.577002
-0.581234
-0.585897
-0.59087
-0.59603
-0.60125
-0.606408
-0.611379
-0.616044
-0.620289
-0.624011
-0.627111
-0.62951
-0.631271
-0.63267
-0.632747
-0.575674
-0.573126
-0.571636
-0.570851
-0.570684
-0.571252
-0.572615
-0.574771
-0.577675
-0.581249
-0.585393
-0.589993
-0.594924
-0.600058
-0.605264
-0.610411
-0.615366
-0.620002
-0.624195
-0.627829
-0.630796
-0.633004
-0.634474
-0.635443
-0.635284
-0.580895
-0.578144
-0.576467
-0.575488
-0.575106
-0.575448
-0.576581
-0.578512
-0.581203
-0.584585
-0.588558
-0.593009
-0.597812
-0.602835
-0.607942
-0.612994
-0.617854
-0.622382
-0.626447
-0.629919
-0.632682
-0.634631
-0.635743
-0.636203
-0.635724
-0.585506
-0.582612
-0.580771
-0.579595
-0.578982
-0.579063
-0.579919
-0.581567
-0.58398
-0.587096
-0.590822
-0.595046
-0.599641
-0.604474
-0.609402
-0.614282
-0.618968
-0.623313
-0.627173
-0.630409
-0.632891
-0.634504
-0.635184
-0.635042
-0.634137
-0.589557
-0.586585
-0.584606
-0.583238
-0.582381
-0.582177
-0.582717
-0.584034
-0.586114
-0.588903
-0.592315
-0.596243
-0.600561
-0.605132
-0.609811
-0.614447
-0.618887
-0.622976
-0.626557
-0.62948
-0.631601
-0.632793
-0.632952
-0.632104
-0.630639
-0.593118
-0.590129
-0.588042
-0.58649
-0.585385
-0.584879
-0.585077
-0.586028
-0.587731
-0.590144
-0.593191
-0.596767
-0.60075
-0.605
-0.609369
-0.613699
-0.617829
-0.621592
-0.624822
-0.627352
-0.629026
-0.629703
-0.629244
-0.627571
-0.625382
-0.59627
-0.593324
-0.591158
-0.589434
-0.588083
-0.587268
-0.58711
-0.587672
-0.58897
-0.590975
-0.593618
-0.596803
-0.600406
-0.604289
-0.608297
-0.612267
-0.616027
-0.6194
-0.622205
-0.624262
-0.625399
-0.625461
-0.624278
-0.621658
-0.618565
-0.599109
-0.596257
-0.59404
-0.592158
-0.590569
-0.589448
-0.588931
-0.589097
-0.589977
-0.591556
-0.593774
-0.596539
-0.599733
-0.603212
-0.606819
-0.610381
-0.613716
-0.616634
-0.618941
-0.620441
-0.620947
-0.620291
-0.618278
-0.614604
-0.610424
-0.601743
-0.599024
-0.596778
-0.594754
-0.59294
-0.591523
-0.590655
-0.59043
-0.590894
-0.592043
-0.593828
-0.596162
-0.598925
-0.601975
-0.605144
-0.608254
-0.611108
-0.613506
-0.615237
-0.616094
-0.615874
-0.614401
-0.611464
-0.606656
-0.601235
-0.604284
-0.601724
-0.599466
-0.597314
-0.59529
-0.593596
-0.592393
-0.591793
-0.591855
-0.592584
-0.59394
-0.595838
-0.59816
-0.600756
-0.603456
-0.606067
-0.608383
-0.610188
-0.611263
-0.611386
-0.610347
-0.607967
-0.604034
-0.598061
-0.591299
-0.60685
-0.604459
-0.602197
-0.599929
-0.597714
-0.595763
-0.594251
-0.593301
-0.592982
-0.593309
-0.594246
-0.595711
-0.597582
-0.599705
-0.601898
-0.603959
-0.605671
-0.606807
-0.607138
-0.606438
-0.604495
-0.601133
-0.59616
-0.589045
-0.58092
-0.60956
-0.607328
-0.605063
-0.602689
-0.6003
-0.598116
-0.596323
-0.595052
-0.594381
-0.594329
-0.594861
-0.595895
-0.597304
-0.598927
-0.600571
-0.602024
-0.603058
-0.603439
-0.602935
-0.601324
-0.598401
-0.594009
-0.587988
-0.579808
-0.570386
-0.612525
-0.610427
-0.608152
-0.605677
-0.60313
-0.600738
-0.598693
-0.597132
-0.596136
-0.595726
-0.595866
-0.596468
-0.597398
-0.598485
-0.599528
-0.600303
-0.600577
-0.600111
-0.598681
-0.596075
-0.592114
-0.586668
-0.579635
-0.570524
-0.559961
-0.61585
-0.613844
-0.611541
-0.608968
-0.606274
-0.603696
-0.601427
-0.599605
-0.59831
-0.597559
-0.597312
-0.597472
-0.597895
-0.598402
-0.598779
-0.598798
-0.59822
-0.596812
-0.594359
-0.590675
-0.585611
-0.57909
-0.571083
-0.561158
-0.549697
-0.619625
-0.617656
-0.615302
-0.612624
-0.609794
-0.607048
-0.604577
-0.602516
-0.600939
-0.599856
-0.599216
-0.598912
-0.598791
-0.59866
-0.598299
-0.597476
-0.595954
-0.593511
-0.589946
-0.585096
-0.578845
-0.571153
-0.562032
-0.5511
-0.538951
-0.623924
-0.621926
-0.619489
-0.616699
-0.613734
-0.61083
-0.608172
-0.605887
-0.604035
-0.602617
-0.601567
-0.600766
-0.600048
-0.599213
-0.598037
-0.596288
-0.593741
-0.590188
-0.585453
-0.579396
-0.571921
-0.562979
-0.552476
-0.539996
-0.527324
-0.628801
-0.626702
-0.624147
-0.621229
-0.618126
-0.615067
-0.612228
-0.60972
-0.60759
-0.605819
-0.604329
-0.602984
-0.60161
-0.599999
-0.597929
-0.595178
-0.591541
-0.586836
-0.580922
-0.573696
-0.5651
-0.555103
-0.543644
-0.530815
-0.518439
-0.634294
-0.632018
-0.629305
-0.626238
-0.622986
-0.619768
-0.616743
-0.614003
-0.611576
-0.609424
-0.607449
-0.605504
-0.603403
-0.600941
-0.597903
-0.594086
-0.589314
-0.583442
-0.576371
-0.568047
-0.558462
-0.547642
-0.535639
-0.522679
-0.509795
-0.640418
-0.637893
-0.63498
-0.63174
-0.628322
-0.624929
-0.621703
-0.618711
-0.615957
-0.613381
-0.610866
-0.608253
-0.605352
-0.601963
-0.59789
-0.592958
-0.587025
-0.579993
-0.571809
-0.562467
-0.552004
-0.54049
-0.528019
-0.514797
-0.50153
-0.647179
-0.644335
-0.64118
-0.637739
-0.634131
-0.630543
-0.62709
-0.623814
-0.62069
-0.617635
-0.614514
-0.611159
-0.607382
-0.602995
-0.59783
-0.591747
-0.584648
-0.576482
-0.567246
-0.556976
-0.545748
-0.533663
-0.520836
-0.507464
-0.49407
-0.65457
-0.651343
-0.647905
-0.644234
-0.640408
-0.636595
-0.632882
-0.629279
-0.625731
-0.62213
-0.618328
-0.614151
-0.60942
-0.603971
-0.597667
-0.590414
-0.582161
-0.572906
-0.562688
-0.551583
-0.539693
-0.52714
-0.514045
-0.500597
-0.487185
-0.662574
-0.65891
-0.655152
-0.65122
-0.647147
-0.643074
-0.639058
-0.635074
-0.631036
-0.626813
-0.622246
-0.617163
-0.611403
-0.604832
-0.597358
-0.588931
-0.579552
-0.569262
-0.55814
-0.546291
-0.533836
-0.520904
-0.507617
-0.494156
-0.480809
-0.671174
-0.667025
-0.662914
-0.658692
-0.654337
-0.649966
-0.645596
-0.641166
-0.636561
-0.631629
-0.626206
-0.620131
-0.61327
-0.60553
-0.596865
-0.587275
-0.576809
-0.565549
-0.553603
-0.541097
-0.528159
-0.514919
-0.501492
-0.48805
-0.474793
-0.680347
-0.675673
-0.671179
-0.666639
-0.66197
-0.657254
-0.652471
-0.647521
-0.64226
-0.636523
-0.630148
-0.622996
-0.61497
-0.606022
-0.596159
-0.58543
-0.573927
-0.561764
-0.549072
-0.535986
-0.522636
-0.509143
-0.495612
-0.4822
-0.469038
-0.690066
-0.684836
-0.679936
-0.675052
-0.670032
-0.66492
-0.659655
-0.654099
-0.648083
-0.641436
-0.63401
-0.625699
-0.616451
-0.60627
-0.595215
-0.583382
-0.570898
-0.557902
-0.544538
-0.53094
-0.517235
-0.503529
-0.489914
-0.47653
-0.463447
-0.700301
-0.694489
-0.689165
-0.683913
-0.678503
-0.672937
-0.667111
-0.660851
-0.653971
-0.646304
-0.63773
-0.628184
-0.617667
-0.606241
-0.594012
-0.581119
-0.567714
-0.553954
-0.539984
-0.525935
-0.51192
-0.49803
-0.48434
-0.470974
-0.457949
-0.711015
-0.704604
-0.69884
-0.693197
-0.687354
-0.681268
-0.67479
-0.667718
-0.659856
-0.651059
-0.641241
-0.630393
-0.618576
-0.605904
-0.592531
-0.578628
-0.564365
-0.549906
-0.53539
-0.52094
-0.50665
-0.492596
-0.478835
-0.465473
-0.452482
-0.722162
-0.715139
-0.708926
-0.702867
-0.696544
-0.689861
-0.682631
-0.674628
-0.665664
-0.655623
-0.644475
-0.632271
-0.619134
-0.60523
-0.590752
-0.575894
-0.560836
-0.545738
-0.530732
-0.515922
-0.501386
-0.487181
-0.473348
-0.459975
-0.446997
-0.733686
-0.726046
-0.719376
-0.712875
-0.706015
-0.698651
-0.690557
-0.681497
-0.671306
-0.659917
-0.647363
-0.633764
-0.619301
-0.604191
-0.588654
-0.572899
-0.557107
-0.541427
-0.525978
-0.510843
-0.496085
-0.481739
-0.467832
-0.454434
-0.441451
-0.745516
-0.73726
-0.730127
-0.723154
-0.715695
-0.707552
-0.698473
-0.688227
-0.676689
-0.663855
-0.649833
-0.634814
-0.619037
-0.602756
-0.586213
-0.56962
-0.553152
-0.536944
-0.521093
-0.505665
-0.490701
-0.476223
-0.462241
-0.448806
-0.435805
-0.757568
-0.748703
-0.741102
-0.733623
-0.725493
-0.716465
-0.706272
-0.69471
-0.68171
-0.667348
-0.651813
-0.635367
-0.618299
-0.600893
-0.583401
-0.566031
-0.548944
-0.532254
-0.516038
-0.500344
-0.485192
-0.470588
-0.45653
-0.44305
-0.430025
-0.76974
-0.760281
-0.752208
-0.744181
-0.735299
-0.725271
-0.713834
-0.700827
-0.686262
-0.670306
-0.653232
-0.635368
-0.617046
-0.598568
-0.580188
-0.5621
-0.544446
-0.527319
-0.510773
-0.494836
-0.479511
-0.464789
-0.450657
-0.437126
-0.424076
-0.781916
-0.771882
-0.763332
-0.754712
-0.744987
-0.733837
-0.721023
-0.706454
-0.690237
-0.672638
-0.654018
-0.634761
-0.615233
-0.595743
-0.576537
-0.55779
-0.53962
-0.522097
-0.505253
-0.489095
-0.473613
-0.458782
-0.44458
-0.430997
-0.417923
-0.793962
-0.783381
-0.774347
-0.765078
-0.754413
-0.742017
-0.727699
-0.711461
-0.693522
-0.674255
-0.654099
-0.633491
-0.612814
-0.592378
-0.572408
-0.55306
-0.534423
-0.516543
-0.499431
-0.483076
-0.467451
-0.452522
-0.438256
-0.424624
-0.411533
-0.805729
-0.794633
-0.785108
-0.77513
-0.763421
-0.749654
-0.733714
-0.715717
-0.696008
-0.675067
-0.653406
-0.6315
-0.609742
-0.588427
-0.56776
-0.547866
-0.52881
-0.510611
-0.493261
-0.47673
-0.46098
-0.445966
-0.431645
-0.417968
-0.404872
-0.817055
-0.805482
-0.795454
-0.784701
-0.771842
-0.756584
-0.738916
-0.719091
-0.697587
-0.674988
-0.65187
-0.628733
-0.605966
-0.583845
-0.562546
-0.542163
-0.522733
-0.504253
-0.486694
-0.470012
-0.454155
-0.439071
-0.424706
-0.410994
-0.397906
-0.827763
-0.815757
-0.805212
-0.793614
-0.779498
-0.762638
-0.743154
-0.721454
-0.698155
-0.673937
-0.649425
-0.625133
-0.601437
-0.578584
-0.556717
-0.535901
-0.516145
-0.497421
-0.479684
-0.462875
-0.446932
-0.431795
-0.417401
-0.403665
-0.390603
-0.837669
-0.825275
-0.814199
-0.801682
-0.786207
-0.767646
-0.746279
-0.722684
-0.697613
-0.671832
-0.646006
-0.620645
-0.596103
-0.572594
-0.550227
-0.529033
-0.508996
-0.490067
-0.472184
-0.455275
-0.439269
-0.424099
-0.409693
-0.395946
-0.382931
-0.84658
-0.833848
-0.822222
-0.808712
-0.791784
-0.771441
-0.748149
-0.722663
-0.695867
-0.6686
-0.641549
-0.615213
-0.589913
-0.565826
-0.543025
-0.521511
-0.50124
-0.482146
-0.46415
-0.44717
-0.431125
-0.415945
-0.401545
-0.387807
-0.37486
-0.854298
-0.841278
-0.829084
-0.81451
-0.796046
-0.77386
-0.748626
-0.721281
-0.692829
-0.66417
-0.635996
-0.608784
-0.582816
-0.558231
-0.535064
-0.513286
-0.492831
-0.473613
-0.455539
-0.438519
-0.422465
-0.407299
-0.392926
-0.379216
-0.366362
-0.860623
-0.847369
-0.834586
-0.818884
-0.798815
-0.774749
-0.747585
-0.718437
-0.688421
-0.658476
-0.62929
-0.601306
-0.574765
-0.549762
-0.526298
-0.504315
-0.483725
-0.464426
-0.446313
-0.429286
-0.413251
-0.398127
-0.383806
-0.370146
-0.357413
-0.865359
-0.851923
-0.838534
-0.821645
-0.799921
-0.773966
-0.744908
-0.714039
-0.682568
-0.651458
-0.621379
-0.592731
-0.565712
-0.540374
-0.516684
-0.494556
-0.473882
-0.454547
-0.436435
-0.419437
-0.403454
-0.3884
-0.374157
-0.360571
-0.347988
-0.868309
-0.854745
-0.840734
-0.822613
-0.799207
-0.771376
-0.740492
-0.708007
-0.675206
-0.643062
-0.612214
-0.583015
-0.555615
-0.530026
-0.50618
-0.483969
-0.463266
-0.443943
-0.425873
-0.408942
-0.393046
-0.378094
-0.363956
-0.350472
-0.338068
-0.869291
-0.855651
-0.841007
-0.82162
-0.796527
-0.766865
-0.734246
-0.70027
-0.66628
-0.633242
-0.601753
-0.572118
-0.544436
-0.51868
-0.494752
-0.472521
-0.451844
-0.432582
-0.414599
-0.397775
-0.382003
-0.367186
-0.353184
-0.339831
-0.327637
-0.868129
-0.854467
-0.839182
-0.818515
-0.791752
-0.760331
-0.726093
-0.690769
-0.655742
-0.621955
-0.589959
-0.560003
-0.53214
-0.506303
-0.482368
-0.460182
-0.439589
-0.420439
-0.40259
-0.385915
-0.370305
-0.35566
-0.341826
-0.328633
-0.316684
-0.864665
-0.85103
-0.835107
-0.81316
-0.784773
-0.751688
-0.715968
-0.679456
-0.643553
-0.60917
-0.576801
-0.546642
-0.518699
-0.492869
-0.469002
-0.446928
-0.426478
-0.407493
-0.389826
-0.373346
-0.357938
-0.343502
-0.329869
-0.31687
-0.305199
-0.858754
-0.845199
-0.828645
-0.805439
-0.775496
-0.740868
-0.703824
-0.666296
-0.629686
-0.59486
-0.562256
-0.532012
-0.50409
-0.478355
-0.454633
-0.432738
-0.412493
-0.393729
-0.376295
-0.360054
-0.344893
-0.330704
-0.317307
-0.304536
-0.293178
-0.850273
-0.836846
-0.819681
-0.795256
-0.76385
-0.727822
-0.689627
-0.651264
-0.61412
-0.57901
-0.546307
-0.516096
-0.488296
-0.462745
-0.439246
-0.417601
-0.397622
-0.379136
-0.361987
-0.346034
-0.331163
-0.317262
-0.304139
-0.291632
-0.280622
-0.839117
-0.825869
-0.80812
-0.782535
-0.749782
-0.712516
-0.673357
-0.634348
-0.596848
-0.561609
-0.528944
-0.498883
-0.471309
-0.44603
-0.422833
-0.401508
-0.38186
-0.36371
-0.346898
-0.331283
-0.316748
-0.303177
-0.290367
-0.278161
-0.267535
-0.825206
-0.812185
-0.793892
-0.767226
-0.733261
-0.694936
-0.655009
-0.615548
-0.577869
-0.542659
-0.510166
-0.480373
-0.453125
-0.428207
-0.405391
-0.384458
-0.365205
-0.347451
-0.331031
-0.315804
-0.301652
-0.288456
-0.275999
-0.264133
-0.253927
-0.808483
-0.795738
-0.77695
-0.749298
-0.714276
-0.675084
-0.634594
-0.594877
-0.557195
-0.522168
-0.48998
-0.460569
-0.433747
-0.409279
-0.386924
-0.366453
-0.347662
-0.330363
-0.314392
-0.299606
-0.285885
-0.273108
-0.261046
-0.249561
-0.239811
-0.788914
-0.776494
-0.757271
-0.728748
-0.692837
-0.65298
-0.612134
-0.572357
-0.534848
-0.500154
-0.468402
-0.439485
-0.413187
-0.389256
-0.36744
-0.347504
-0.329239
-0.312458
-0.296992
-0.282699
-0.26946
-0.257148
-0.245525
-0.234463
-0.225205
-0.766492
-0.754446
-0.734858
-0.705591
-0.668974
-0.62866
-0.587669
-0.548025
-0.510858
-0.476643
-0.445453
-0.417139
-0.391462
-0.368154
-0.346954
-0.327625
-0.309953
-0.293749
-0.278847
-0.265101
-0.252394
-0.240596
-0.229457
-0.218863
-0.210133
-0.741236
-0.729611
-0.709738
-0.679868
-0.642736
-0.602178
-0.561249
-0.521927
-0.485266
-0.451673
-0.421165
-0.39356
-0.368596
-0.345994
-0.325487
-0.306834
-0.28982
-0.274256
-0.259974
-0.24683
-0.234708
-0.223474
-0.212868
-0.202787
-0.194623
-0.713187
-0.702032
-0.681961
-0.651639
-0.614189
-0.573601
-0.532939
-0.494122
-0.458126
-0.425288
-0.395577
-0.368781
-0.344619
-0.322804
-0.303063
-0.285155
-0.268863
-0.253999
-0.240396
-0.22791
-0.216427
-0.205808
-0.195784
-0.186266
-0.178703
-0.682414
-0.671775
-0.651602
-0.620987
-0.583421
-0.543013
-0.502816
-0.464679
-0.429497
-0.397542
-0.368737
-0.342843
-0.319568
-0.298616
-0.279712
-0.262614
-0.247106
-0.233003
-0.220136
-0.208365
-0.197574
-0.187625
-0.178239
-0.169334
-0.16241
-0.649007
-0.638933
-0.618757
-0.588014
-0.550533
-0.510512
-0.470972
-0.43368
-0.399452
-0.368497
-0.340699
-0.315797
-0.293486
-0.273467
-0.255465
-0.23924
-0.224577
-0.211291
-0.199218
-0.188218
-0.178177
-0.168954
-0.160263
-0.15203
-0.145782
-0.613081
-0.603619
-0.583545
-0.552841
-0.515645
-0.476211
-0.437508
-0.401217
-0.368073
-0.338227
-0.311528
-0.287696
-0.26642
-0.247399
-0.23036
-0.215064
-0.201301
-0.188888
-0.177664
-0.167491
-0.158258
-0.149821
-0.141891
-0.134395
-0.128872
-0.574774
-0.565967
-0.546103
-0.515605
-0.478889
-0.440234
-0.402538
-0.367391
-0.33545
-0.306812
-0.281295
-0.258605
-0.238427
-0.220459
-0.204435
-0.190118
-0.177304
-0.165814
-0.155492
-0.146202
-0.137835
-0.130249
-0.123152
-0.116472
-0.111736
-0.53424
-0.526132
-0.506587
-0.476463
-0.440414
-0.402718
-0.366187
-0.332317
-0.301687
-0.274344
-0.250082
-0.228595
-0.209567
-0.1927
-0.177732
-0.164435
-0.152611
-0.142087
-0.132711
-0.124356
-0.116914
-0.110245
-0.104065
-0.0982967
-0.0944049
-0.491656
-0.484289
-0.46517
-0.435581
-0.400381
-0.363813
-0.328593
-0.296119
-0.266895
-0.240925
-0.217979
-0.197746
-0.17991
-0.164179
-0.150299
-0.13805
-0.127242
-0.117713
-0.10932
-0.101941
-0.0954755
-0.0897914
-0.0846194
-0.0798616
-0.0768456
-0.447214
-0.440625
-0.42204
-0.393144
-0.358963
-0.32368
-0.289903
-0.25893
-0.231197
-0.206666
-0.185089
-0.16615
-0.149536
-0.134964
-0.122188
-0.111
-0.101221
-0.0926985
-0.0853029
-0.0789245
-0.0734734
-0.0688304
-0.0647491
-0.0610985
-0.0590113
-0.401121
-0.395346
-0.377397
-0.349345
-0.316341
-0.282487
-0.250272
-0.220896
-0.194726
-0.17169
-0.151523
-0.133908
-0.118537
-0.105134
-0.0934656
-0.0833342
-0.0745753
-0.0670519
-0.0606507
-0.0552802
-0.0508642
-0.0473022
-0.0443941
-0.0420196
-0.0411265
-0.353596
-0.348667
-0.331454
-0.304388
-0.272708
-0.240414
-0.209867
-0.18217
-0.157626
-0.136131
-0.117407
-0.101137
-0.0870167
-0.0747812
-0.0642066
-0.0551087
-0.0473387
-0.0407794
-0.0353443
-0.0309711
-0.0276032
-0.0251756
-0.0236277
-0.0230076
-0.0239505
-0.30487
-0.300815
-0.284432
-0.258483
-0.228263
-0.197644
-0.16886
-0.142914
-0.120051
-0.100135
-0.0828797
-0.067967
-0.0550986
-0.0440162
-0.0345047
-0.0263897
-0.0195356
-0.0138459
-0.00926645
-0.00577205
-0.00333635
-0.00199152
-0.00204586
-0.00395676
-0.00736478
-0.255182
-0.252026
-0.236559
-0.211849
-0.183209
-0.154371
-0.12743
-0.103297
-0.0821592
-0.0638559
-0.0480911
-0.0345468
-0.0229288
-0.0129831
-0.00449764
0.00270044
0.00874678
0.013736
0.0177177
0.0207225
0.0227961
0.0237909
0.0228361
0.0190175
0.0145672
-0.204779
-0.202539
-0.188069
-0.164707
-0.137755
-0.110786
-0.0857598
-0.0634913
-0.0441187
-0.0274561
-0.0132018
-0.00103848
0.00932421
0.0181375
0.0256134
0.0319292
0.0372319
0.0416374
0.0452372
0.0481508
0.0505696
0.0524245
0.052574
0.0503383
0.0545304
-0.153901
-0.152595
-0.139193
-0.117279
-0.0921082
-0.0670864
-0.0440324
-0.0236724
-0.00609675
0.00890039
0.0216254
0.0323926
0.0414879
0.0491583
0.0556134
0.0610312
0.0655622
0.0693321
0.0724549
0.0750822
0.0774136
0.0794055
0.0804018
0.08091
0.0877834
-0.102801
-0.102441
-0.0901708
-0.0697887
-0.0464787
-0.0234664
-0.00243107
0.0159866
0.0317402
0.0450521
0.0562309
0.0655867
0.0733993
0.0799102
0.0853254
0.089821
0.0935481
0.0966365
0.099208
0.101413
0.103418
0.105177
0.106216
0.107125
0.113351
-0.0517284
-0.0523193
-0.0412358
-0.0224579
-0.00107263
0.0198815
0.0388639
0.0553156
0.0692298
0.0808425
0.0904618
0.0983918
0.104905
0.110234
0.11458
0.118114
0.120981
0.12331
0.125221
0.126852
0.128355
0.129691
0.130463
0.131138
0.136198
-0.000929543
-0.00247382
0.00737928
0.0244954
0.043907
0.0627689
0.0796769
0.0941496
0.106216
0.116122
0.124175
0.130669
0.135869
0.139999
0.14325
0.145785
0.147744
0.149245
0.1504
0.151333
0.152172
0.152868
0.153063
0.153189
0.157159
0.0493519
0.0468574
0.0554462
0.0708572
0.088262
0.105012
0.119838
0.13233
0.14255
0.150751
0.157236
0.162293
0.166172
0.169089
0.171226
0.172736
0.173748
0.174374
0.174712
0.174873
0.174963
0.174922
0.174419
0.173886
0.176807
0.0988777
0.0954408
0.102742
0.11642
0.1318
0.146434
0.159182
0.169703
0.178088
0.184596
0.189523
0.193146
0.195706
0.197408
0.198421
0.198889
0.198933
0.198652
0.198135
0.19748
0.196774
0.195948
0.194702
0.193478
0.195403
0.147416
0.14305
0.149051
0.160981
0.174336
0.186864
0.197552
0.206126
0.212698
0.217533
0.220919
0.223124
0.224376
0.224867
0.224759
0.224184
0.223251
0.222053
0.220667
0.21918
0.217663
0.216042
0.214053
0.21214
0.213111
0.194742
0.189464
0.194163
0.204347
0.21569
0.226137
0.234798
0.241457
0.246251
0.249444
0.251317
0.252127
0.252091
0.25139
0.250173
0.248563
0.246662
0.244549
0.242297
0.239981
0.237659
0.235257
0.232541
0.229957
0.230016
0.24064
0.234473
0.237879
0.246332
0.255691
0.264098
0.270776
0.275567
0.278626
0.280218
0.280616
0.280065
0.27877
0.276902
0.2746
0.271976
0.269123
0.266113
0.263011
0.259882
0.256775
0.253616
0.250203
0.246969
0.246157
0.284903
0.277873
0.280007
0.286758
0.294178
0.300597
0.30535
0.308329
0.309707
0.309749
0.308719
0.306849
0.304335
0.301335
0.297979
0.29437
0.290593
0.286713
0.282786
0.27887
0.275006
0.271124
0.267047
0.263191
0.261544
0.327333
0.319474
0.320364
0.325456
0.330994
0.335492
0.338389
0.339625
0.339387
0.337939
0.335535
0.332397
0.32871
0.324621
0.320251
0.315695
0.311029
0.306312
0.301593
0.296924
0.292338
0.287768
0.283064
0.278616
0.276171
0.367744
0.359091
0.358777
0.362267
0.365995
0.368651
0.369772
0.369342
0.367562
0.364691
0.360977
0.35663
0.351823
0.346696
0.341358
0.335899
0.330385
0.324871
0.319399
0.314014
0.308745
0.303528
0.298235
0.293225
0.290021
0.405961
0.396554
0.395086
0.397041
0.399043
0.399947
0.399383
0.397375
0.394134
0.389918
0.384964
0.379472
0.373606
0.367496
0.361244
0.35493
0.348616
0.342349
0.336167
0.330109
0.324197
0.318374
0.312532
0.306993
0.30307
0.441818
0.431704
0.42914
0.429639
0.430009
0.429263
0.427114
0.423624
0.419014
0.413535
0.407417
0.400852
0.393994
0.386963
0.379853
0.372739
0.365675
0.358703
0.351858
0.345171
0.338661
0.332276
0.325925
0.319892
0.315291
0.475164
0.464392
0.460798
0.459932
0.458777
0.456491
0.452867
0.447999
0.442114
0.435463
0.428265
0.420704
0.412924
0.405037
0.397132
0.389275
0.381517
0.373893
0.366434
0.359166
0.352103
0.345201
0.338382
0.33189
0.326657
0.50586
0.494482
0.489933
0.487802
0.485236
0.481531
0.47655
0.470414
0.463359
0.45563
0.44744
0.438964
0.430338
0.421667
0.413032
0.404494
0.396098
0.387877
0.379856
0.372056
0.364488
0.357114
0.349869
0.342956
0.33714
0.533779
0.521852
0.516429
0.513141
0.50929
0.504293
0.498078
0.490792
0.482675
0.473969
0.464881
0.455575
0.446182
0.436801
0.427505
0.418351
0.409379
0.400617
0.392087
0.383807
0.375784
0.367985
0.360356
0.353061
0.346712
0.558809
0.546393
0.540182
0.535854
0.53085
0.524696
0.517378
0.509064
0.499999
0.490421
0.48053
0.470486
0.460409
0.450394
0.440509
0.430805
0.42132
0.412077
0.403095
0.394387
0.385958
0.377782
0.369814
0.362176
0.355349
0.58085
0.568006
0.561102
0.555858
0.549839
0.54267
0.534384
0.525169
0.515274
0.504933
0.494341
0.483649
0.472975
0.462405
0.452005
0.441822
0.431887
0.422224
0.412847
0.403765
0.394983
0.386478
0.378214
0.370277
0.363028
0.599817
0.586611
0.579111
0.57308
0.56619
0.558152
0.549039
0.539054
0.528451
0.517459
0.506268
0.495025
0.483841
0.472799
0.46196
0.451368
0.441051
0.43103
0.421316
0.411917
0.402834
0.39405
0.385534
0.377341
0.36973
0.615641
0.602139
0.594145
0.58746
0.57985
0.571093
0.561296
0.550678
0.53949
0.527962
0.516278
0.50458
0.492977
0.481547
0.470347
0.459418
0.448787
0.438471
0.428481
0.41882
0.40949
0.400476
0.391753
0.38335
0.375438
0.628264
0.614535
0.606153
0.598952
0.590775
0.581452
0.571119
0.560003
0.548358
0.53641
0.524341
0.512288
0.500357
0.488623
0.477141
0.46595
0.455073
0.444528
0.434321
0.424456
0.414932
0.405739
0.396855
0.388287
0.380138
0.637647
0.623761
0.615098
0.607522
0.598932
0.589201
0.578481
0.567006
0.555032
0.542783
0.530436
0.518129
0.505963
0.494011
0.482327
0.470947
0.459895
0.449185
0.438823
0.428812
0.419149
0.409827
0.400828
0.392142
0.38382
0.643763
0.62979
0.620956
0.613147
0.604303
0.59432
0.583363
0.57167
0.559496
0.547064
0.534551
0.52209
0.509782
0.4977
0.485894
0.474401
0.463243
0.452433
0.441978
0.431879
0.422132
0.412732
0.403664
0.394906
0.386479
0.646602
0.632614
0.623717
0.61582
0.606879
0.596803
0.58576
0.573989
0.561745
0.54925
0.536679
0.524166
0.511811
0.499684
0.487837
0.476306
0.465112
0.454269
0.443782
0.433652
0.423877
0.41445
0.405358
0.396577
0.388109
0.646169
0.632237
0.623387
0.615543
0.606664
0.596653
0.585674
0.573966
0.561781
0.549342
0.536824
0.52436
0.512049
0.499965
0.488158
0.476664
0.465504
0.454693
0.444236
0.434134
0.424384
0.414982
0.405912
0.397155
0.388713
0.642484
0.628678
0.619984
0.612336
0.603674
0.593884
0.58312
0.571613
0.559616
0.547351
0.534994
0.522679
0.510507
0.498552
0.486864
0.475481
0.464425
0.453711
0.443345
0.433329
0.42366
0.414331
0.40533
0.396643
0.388294
0.635582
0.621972
0.613541
0.606226
0.597937
0.588523
0.57812
0.566952
0.55527
0.543296
0.531208
0.519142
0.507201
0.495458
0.48397
0.472771
0.461888
0.451335
0.441121
0.431247
0.421713
0.412509
0.40362
0.395051
0.386859
0.625514
0.612167
0.604102
0.597259
0.589492
0.580605
0.570709
0.560015
0.548773
0.537205
0.525492
0.513772
0.502151
0.490706
0.479494
0.468553
0.457911
0.447583
0.43758
0.427905
0.418558
0.409528
0.400797
0.392391
0.384419
0.612343
0.599327
0.591729
0.585488
0.578391
0.570179
0.56093
0.550843
0.540163
0.529113
0.517878
0.5066
0.495388
0.484323
0.473463
0.462851
0.452515
0.442475
0.432741
0.423321
0.414214
0.405406
0.396877
0.388679
0.380988
0.596151
0.583529
0.576494
0.570981
0.564695
0.557301
0.548836
0.539484
0.529485
0.519063
0.508407
0.497664
0.486947
0.476341
0.465908
0.455694
0.44573
0.436038
0.426631
0.417519
0.408703
0.400166
0.391882
0.383934
0.376585
0.57703
0.564865
0.558485
0.55382
0.548479
0.542039
0.534491
0.525998
0.516793
0.507105
0.497126
0.487008
0.47687
0.4668
0.456866
0.447117
0.437588
0.428303
0.419278
0.410527
0.402053
0.393833
0.385837
0.37818
0.371229
0.55509
0.54344
0.537799
0.534095
0.529828
0.524473
0.517967
0.510451
0.502151
0.493298
0.48409
0.474683
0.465203
0.455745
0.446379
0.43716
0.428126
0.419304
0.410716
0.402377
0.394293
0.386436
0.378769
0.371444
0.364943
0.530451
0.519372
0.514549
0.511911
0.508836
0.504688
0.499345
0.492917
0.485628
0.477707
0.469357
0.460745
0.452
0.443223
0.434492
0.425864
0.417384
0.409081
0.400981
0.393103
0.385455
0.378006
0.370709
0.363753
0.357755
0.503248
0.492792
0.488859
0.487381
0.485609
0.482783
0.478713
0.473481
0.4673
0.460402
0.452996
0.445256
0.437318
0.42929
0.421256
0.413278
0.405406
0.397675
0.390111
0.382741
0.375576
0.368578
0.361691
0.35514
0.349691
0.473629
0.463845
0.460865
0.460633
0.460263
0.458864
0.456171
0.452232
0.447251
0.441461
0.435078
0.428282
0.421219
0.414003
0.406724
0.399452
0.39224
0.385128
0.378149
0.371332
0.364692
0.358187
0.351747
0.345637
0.340782
0.441752
0.432685
0.430713
0.431801
0.432922
0.433045
0.431823
0.429268
0.425572
0.420968
0.41568
0.409896
0.403769
0.397423
0.390954
0.384438
0.377934
0.371488
0.365136
0.358913
0.35284
0.346869
0.340914
0.335276
0.331056
0.407791
0.39948
0.398563
0.401033
0.403723
0.40545
0.405783
0.404693
0.402357
0.399012
0.394884
0.390173
0.385039
0.379615
0.374004
0.36829
0.362538
0.356799
0.351114
0.345525
0.340056
0.334657
0.329225
0.324089
0.320543
0.371925
0.364407
0.364581
0.368485
0.372806
0.376211
0.378172
0.378618
0.377711
0.375686
0.372777
0.369192
0.365101
0.360645
0.355936
0.351064
0.346102
0.341107
0.336125
0.331204
0.326376
0.321584
0.316709
0.312105
0.30927
0.334348
0.327654
0.328946
0.334321
0.340325
0.345465
0.349116
0.35116
0.351739
0.351089
0.34945
0.347037
0.344032
0.340583
0.336812
0.332817
0.328677
0.324455
0.320206
0.315984
0.311827
0.307677
0.30339
0.299345
0.297256
0.295262
0.289418
0.291847
0.298716
0.306439
0.313359
0.318751
0.322442
0.324556
0.325325
0.324997
0.323795
0.32191
0.3195
0.316696
0.313603
0.31031
0.306887
0.303393
0.299893
0.296432
0.292952
0.289285
0.285822
0.284514
0.254878
0.249907
0.253477
0.261851
0.271315
0.280047
0.287216
0.292593
0.296279
0.298504
0.299519
0.299556
0.298817
0.297469
0.295652
0.29348
0.29105
0.288439
0.285715
0.282951
0.280204
0.277416
0.274392
0.271533
0.27104
0.213415
0.209334
0.214043
0.223917
0.235128
0.245689
0.254658
0.261747
0.267033
0.270738
0.273119
0.274416
0.27484
0.274568
0.273748
0.272505
0.270942
0.269147
0.267195
0.265169
0.26314
0.261054
0.258689
0.256446
0.256806
0.171099
0.167921
0.173754
0.18511
0.198059
0.210451
0.22123
0.230046
0.236947
0.242148
0.245908
0.248475
0.25007
0.250878
0.251056
0.250738
0.250036
0.249045
0.247851
0.246548
0.245223
0.24383
0.24212
0.240495
0.241746
0.128162
0.125895
0.132828
0.145633
0.160296
0.174506
0.187091
0.197636
0.206157
0.212858
0.218001
0.221841
0.224604
0.226486
0.227652
0.228244
0.228381
0.228167
0.227697
0.227076
0.226412
0.225668
0.224574
0.223535
0.225719
0.0848408
0.083488
0.0914881
0.105695
0.122031
0.13803
0.152405
0.16467
0.174804
0.183001
0.189522
0.194626
0.198548
0.201491
0.203626
0.205101
0.206043
0.206561
0.206759
0.206755
0.206675
0.206491
0.205902
0.205349
0.2085
0.0413756
0.0409364
0.0499592
0.0655073
0.0834615
0.101208
0.117342
0.131304
0.143036
0.152716
0.160601
0.166957
0.172021