/*--------------------------------*- C++ -*----------------------------------*\
  =========                 |
  \\      /  F ield         | OpenFOAM: The Open Source CFD Toolbox
   \\    /   O peration     | Website:  https://openfoam.org
    \\  /    A nd           | Version:  6.0
     \\/     M anipulation  |
\*---------------------------------------------------------------------------*/
FoamFile
{
    version     2.0;
    format      ascii;
    class       volVectorField;
    location    "92";
    object      U;
}
// * * * * * * * * * * * * * * * * * * * * * * * * * * * * * * * * * * * * * //

dimensions      [0 1 -1 0 0 0 0];

internalField   nonuniform List<vector> 
12500
(
(-0.0010703 0.0528579 -1.41588e-21)
(-0.0037393 0.127423 2.20303e-20)
(-0.00801371 0.177629 -3.22215e-20)
(-0.0134901 0.208721 1.48615e-20)
(-0.0198188 0.225182 8.3823e-22)
(-0.0266919 0.230759 -1.75333e-21)
(-0.0338061 0.228463 -2.74266e-20)
(-0.0408895 0.220621 1.50994e-20)
(-0.0477102 0.208952 1.01543e-20)
(-0.0540732 0.194677 1.02742e-20)
(-0.0598158 0.178613 -1.76117e-20)
(-0.0648029 0.161275 1.02554e-20)
(-0.0689249 0.142957 -4.87956e-21)
(-0.0720963 0.123807 8.34507e-21)
(-0.0742568 0.103878 -2.13772e-20)
(-0.0753728 0.0831793 3.07661e-20)
(-0.0754403 0.0617037 -5.68977e-21)
(-0.0744888 0.039457 -2.21589e-20)
(-0.0725857 0.0164731 1.15671e-20)
(-0.069836 -0.00717317 -1.10866e-20)
(-0.0663589 -0.0313595 9.82417e-21)
(-0.0622991 -0.0559145 1.27735e-20)
(-0.0580861 -0.0806259 1.44298e-21)
(-0.0545712 -0.105265 -3.71435e-20)
(-0.0503744 -0.129576 2.07365e-20)
(-0.0026066 0.0533502 2.89696e-20)
(-0.00709176 0.129196 -7.68119e-20)
(-0.0120197 0.18075 2.24694e-20)
(-0.0174277 0.213086 1.5229e-20)
(-0.0232304 0.230578 -1.21541e-20)
(-0.0292882 0.236923 -6.98119e-20)
(-0.035416 0.235119 2.07168e-20)
(-0.0414196 0.227495 -3.98478e-20)
(-0.0471154 0.215791 4.77606e-20)
(-0.0523372 0.201246 -6.39109e-20)
(-0.0569381 0.184699 3.4204e-20)
(-0.060792 0.166686 1.15717e-20)
(-0.063794 0.147522 -2.83276e-20)
(-0.0658618 0.12738 -1.24959e-20)
(-0.0669378 0.10634 9.25308e-20)
(-0.0669908 0.0844433 -8.26154e-20)
(-0.0660186 0.0617234 1.99559e-20)
(-0.064051 0.038231 3.44695e-20)
(-0.0611542 0.0140526 -7.42252e-21)
(-0.0574292 -0.0106784 5.53519e-20)
(-0.0529882 -0.0357768 1.06228e-20)
(-0.0479639 -0.0610072 -4.13394e-21)
(-0.0427785 -0.0861058 -7.13409e-20)
(-0.038308 -0.110809 6.54611e-20)
(-0.0331327 -0.134769 -1.32859e-19)
(-0.00413948 0.053463 9.44842e-20)
(-0.0104423 0.130127 3.19105e-20)
(-0.0159928 0.182792 -4.29471e-20)
(-0.0212698 0.216284 1.87825e-20)
(-0.026452 0.234818 1.69284e-20)
(-0.03157 0.241998 6.55665e-20)
(-0.03656 0.240778 -8.41367e-20)
(-0.04131 0.233479 -1.44307e-20)
(-0.0456892 0.221845 -5.73586e-20)
(-0.0495641 0.207132 -4.82037e-20)
(-0.0528081 0.190201 6.15738e-20)
(-0.0553077 0.171608 -2.09626e-19)
(-0.0569665 0.151694 -7.4439e-21)
(-0.0577084 0.130656 -1.28335e-19)
(-0.0574807 0.108605 -1.56313e-20)
(-0.0562559 0.0856141 1.77105e-20)
(-0.0540338 0.0617517 -1.02057e-19)
(-0.0508436 0.0371102 -6.43629e-20)
(-0.0467478 0.0118219 -7.59638e-20)
(-0.0418398 -0.0139291 1.18649e-19)
(-0.0362214 -0.0399015 4.33936e-20)
(-0.0300092 -0.0658024 -1.96941e-19)
(-0.0236087 -0.0913177 -9.49687e-20)
(-0.0179154 -0.116147 -1.07433e-19)
(-0.0115244 -0.139837 2.9996e-19)
(-0.00563722 0.0531775 -2.06289e-21)
(-0.0137259 0.130156 -7.49018e-20)
(-0.0198577 0.183661 -3.74847e-20)
(-0.0249417 0.218197 2.3902e-20)
(-0.0294148 0.237762 1.4203e-19)
(-0.0334757 0.245829 -6.3567e-20)
(-0.0371837 0.245283 1.37716e-19)
(-0.0405126 0.238413 1.32715e-19)
(-0.0433885 0.22696 8.08646e-20)
(-0.0457153 0.212192 -1.02602e-21)
(-0.0473907 0.194987 1.65695e-19)
(-0.0483177 0.175926 2.9207e-20)
(-0.0484116 0.155377 1.28691e-19)
(-0.0476055 0.133561 3.00224e-19)
(-0.0458533 0.11062 -3.50523e-19)
(-0.0431325 0.0866557 5.31664e-19)
(-0.0394449 0.0617687 1.17507e-19)
(-0.0348185 0.0360854 -2.60202e-19)
(-0.0293097 0.00977556 -3.68324e-20)
(-0.0230024 -0.0169353 9.37226e-20)
(-0.0159856 -0.0437592 -4.9068e-20)
(-0.00835744 -0.0703503 -3.08993e-20)
(-0.000499416 -0.0963441 -2.95361e-20)
(0.00667937 -0.121395 -1.1592e-19)
(0.0145094 -0.144928 4.19332e-19)
(-0.00706782 0.0524838 5.08402e-20)
(-0.0168766 0.129245 -2.41728e-19)
(-0.023541 0.183286 2.95594e-19)
(-0.0283759 0.218721 -1.17266e-19)
(-0.0320631 0.239282 1.42673e-19)
(-0.0349637 0.248272 1.17987e-19)
(-0.03726 0.248477 4.51612e-20)
(-0.0390137 0.242138 3.83176e-21)
(-0.0402119 0.23098 2.56141e-19)
(-0.0407999 0.216275 1.79924e-19)
(-0.0407041 0.198919 -7.10984e-20)
(-0.0398478 0.179516 -4.72405e-20)
(-0.0381613 0.158461 1.9969e-19)
(-0.0355889 0.136003 3.73597e-20)
(-0.0320935 0.11231 1.05307e-19)
(-0.0276581 0.0875101 2.52052e-19)
(-0.0222873 0.0617313 -2.16053e-19)
(-0.0160072 0.0351256 1.74719e-19)
(-0.00886796 0.00789038 -3.84905e-19)
(-0.000942596 -0.0197181 3.25486e-19)
(0.0076931 -0.0473747 2.79823e-21)
(0.0169589 -0.0746868 -2.64551e-19)
(0.0265032 -0.101237 1.03941e-19)
(0.0354094 -0.126622 2.40891e-19)
(0.0448707 -0.150128 -3.67887e-19)
(-0.0084002 0.0513839 2.66262e-19)
(-0.0198309 0.127377 -2.92423e-19)
(-0.0269745 0.18162 -4.5624e-20)
(-0.0315138 0.217776 6.04408e-20)
(-0.0343551 0.239268 -1.28917e-19)
(-0.0360123 0.249194 -2.01232e-19)
(-0.0367874 0.250214 -1.69698e-19)
(-0.0368317 0.244498 -4.11037e-20)
(-0.0361962 0.233746 -2.94661e-19)
(-0.0348718 0.219226 2.41106e-19)
(-0.0328179 0.201848 -3.72745e-19)
(-0.0299813 0.182239 1.91459e-19)
(-0.0263106 0.16082 -6.17691e-20)
(-0.0217637 0.137868 1.49264e-19)
(-0.0163139 0.113574 -3.78987e-19)
(-0.00995121 0.0880913 1.88815e-19)
(-0.00268326 0.0615671 1.60135e-20)
(0.0054649 0.0341717 8.33225e-20)
(0.0144493 0.00611988 5.1145e-19)
(0.024207 -0.0223127 1.17569e-19)
(0.034674 -0.0507743 -7.95124e-21)
(0.0457854 -0.0788325 3.33588e-20)
(0.0572227 -0.106014 2.17711e-19)
(0.0680693 -0.131846 6.39516e-20)
(0.0793178 -0.155456 2.11822e-19)
(-0.00960561 0.049892 -1.65645e-19)
(-0.0225293 0.124563 2.43505e-19)
(-0.0300956 0.178647 1.57782e-20)
(-0.0343052 0.215313 -3.00341e-19)
(-0.0362611 0.237637 6.39087e-19)
(-0.0366164 0.248484 -2.06748e-19)
(-0.0357875 0.250359 3.05733e-19)
(-0.0340144 0.245346 2.81334e-19)
(-0.0314148 0.235102 -2.33299e-19)
(-0.0280288 0.220887 -3.44865e-19)
(-0.0238523 0.203618 9.51399e-20)
(-0.0188597 0.183944 -1.01428e-19)
(-0.0130204 0.16231 -4.54414e-19)
(-0.00630831 0.139018 5.60898e-19)
(0.00129156 0.114285 -2.71899e-19)
(0.00978102 0.0882808 -1.88943e-19)
(0.0191483 0.0611691 3.62117e-21)
(0.0293686 0.0331302 1.59806e-19)
(0.0404027 0.00438639 6.55854e-20)
(0.0521964 -0.0247781 -2.56457e-19)
(0.0646943 -0.0539966 3.00201e-19)
(0.077843 -0.0828052 -5.16978e-19)
(0.0913573 -0.110675 3.18877e-19)
(0.104329 -0.137047 -2.42828e-19)
(0.117491 -0.160876 6.92523e-20)
(-0.0106594 0.0480354 2.47385e-19)
(-0.0249197 0.120839 -1.9643e-19)
(-0.0328512 0.174384 -1.2459e-19)
(-0.0367108 0.211316 -2.21885e-19)
(-0.0377651 0.234338 -4.0693e-19)
(-0.0367888 0.246054 -3.02e-19)
(-0.0343043 0.248798 1.91219e-19)
(-0.0306382 0.244546 -2.91688e-19)
(-0.0259759 0.2349 3.72768e-19)
(-0.0204102 0.2211 -6.12216e-19)
(-0.0139768 0.204067 2.75229e-19)
(-0.00668101 0.184468 5.88141e-19)
(0.00148431 0.162767 -8.34672e-19)
(0.0105271 0.139294 1.20421e-19)
(0.0204492 0.114285 1.6017e-19)
(0.0312434 0.0879266 1.55745e-19)
(0.0428929 0.0603924 -1.64401e-19)
(0.0553717 0.0318671 -3.81885e-20)
(0.0686441 0.00257224 -1.26053e-19)
(0.0826623 -0.02721 -1.04139e-19)
(0.0973765 -0.0571093 -5.85052e-19)
(0.11274 -0.0866409 -4.06253e-20)
(0.128497 -0.115222 7.33825e-21)
(0.143761 -0.142198 -2.66536e-19)
(0.158949 -0.166336 2.82557e-19)
(-0.0115424 0.0458537 7.60266e-21)
(-0.0269606 0.116272 7.95048e-20)
(-0.0351999 0.168888 8.45174e-20)
(-0.0387038 0.205809 4.79237e-20)
(-0.0388646 0.229354 4.17616e-19)
(-0.0365577 0.241853 3.95979e-19)
(-0.0324005 0.245443 -3.22894e-19)
(-0.0268023 0.241983 -1.00636e-19)
(-0.0200162 0.233003 -8.93447e-20)
(-0.0121893 0.219713 4.64175e-19)
(-0.00340078 0.203033 1.70874e-19)
(0.0063104 0.183639 -2.45868e-19)
(0.0169254 0.162017 -2.13805e-19)
(0.0284325 0.138516 5.17328e-19)
(0.040819 0.113391 -1.27775e-19)
(0.054068 0.0868445 -1.58088e-19)
(0.0681569 0.0590546 -2.2325e-19)
(0.0830582 0.030206 -1.75943e-19)
(0.098738 0.000513232 -2.27952e-19)
(0.115153 -0.0297522 -1.50159e-19)
(0.132256 -0.0602273 6.24987e-19)
(0.150002 -0.0904185 -3.10179e-19)
(0.168162 -0.119695 2.09503e-19)
(0.185877 -0.147297 -5.6017e-19)
(0.20321 -0.171793 2.31811e-19)
(-0.0122426 0.0433978 -2.24895e-19)
(-0.0286233 0.110954 -6.09078e-20)
(-0.0371139 0.162248 -4.74904e-19)
(-0.0402703 0.198856 -2.29243e-19)
(-0.0395688 0.222713 -4.53182e-19)
(-0.0359629 0.235864 -4.75371e-20)
(-0.0301518 0.240242 2.46197e-19)
(-0.0226209 0.237568 -1.52283e-19)
(-0.0136896 0.229294 3.29661e-19)
(-0.00356085 0.216589 -8.08863e-19)
(0.00764102 0.20036 -2.57912e-20)
(0.0198409 0.181289 1.46359e-19)
(0.0329919 0.159877 -1.87143e-19)
(0.0470611 0.136491 1.74775e-19)
(0.062021 0.111403 -1.33372e-19)
(0.0778443 0.0848249 -2.91643e-19)
(0.0945032 0.0569407 5.37835e-19)
(0.111968 0.0279309 3.38152e-19)
(0.130206 -0.00200139 -6.92715e-20)
(0.149177 -0.0326014 2.27767e-19)
(0.168834 -0.0635227 -4.49601e-19)
(0.189128 -0.0942752 6.516e-19)
(0.209852 -0.12419 -8.92059e-19)
(0.230189 -0.152394 1.83451e-19)
(0.249807 -0.177253 -3.52265e-19)
(-0.0127557 0.0407276 1.21942e-20)
(-0.0298938 0.105005 -2.11044e-19)
(-0.038581 0.154593 3.09184e-19)
(-0.041409 0.190566 6.37369e-19)
(-0.0398968 0.214487 -1.14115e-20)
(-0.0350513 0.228117 7.29599e-20)
(-0.0276385 0.23318 -2.78779e-19)
(-0.0182118 0.231251 1.29793e-19)
(-0.00715394 0.223688 9.14255e-19)
(0.0052771 0.211612 -2.08203e-19)
(0.0189104 0.195909 -2.5198e-19)
(0.0336333 0.177258 9.5579e-19)
(0.0493697 0.15617 3.19311e-19)
(0.066065 0.133025 1.5466e-19)
(0.0836764 0.108109 1.5934e-19)
(0.102167 0.0816437 4.3423e-19)
(0.121504 0.0538143 -1.69913e-19)
(0.141656 0.0247966 4.52495e-19)
(0.162592 -0.00521952 6.18233e-19)
(0.184273 -0.0359996 -5.30271e-19)
(0.206653 -0.0672207 7.93886e-19)
(0.229671 -0.0984072 2.86764e-19)
(0.253134 -0.128864 -1.08661e-18)
(0.276279 -0.157602 1.57609e-18)
(0.298363 -0.182774 -1.2931e-18)
(-0.0130859 0.0379101 -5.83854e-19)
(-0.0307744 0.0985596 3.25211e-19)
(-0.0396047 0.14608 -2.19957e-19)
(-0.0421309 0.181086 -2.08922e-19)
(-0.039874 0.204793 -2.28069e-19)
(-0.0338702 0.21869 -2.48045e-19)
(-0.0249358 0.224292 6.75155e-20)
(-0.0136828 0.223021 6.56784e-19)
(-0.000551795 0.216138 -1.39287e-19)
(0.0141459 0.204702 -3.71501e-19)
(0.0301935 0.189568 -2.30144e-19)
(0.0474406 0.171407 -9.4925e-20)
(0.0657818 0.150734 2.8819e-19)
(0.0851413 0.127936 -1.8284e-19)
(0.105462 0.103307 -6.09723e-19)
(0.126698 0.0770778 -6.83454e-19)
(0.148813 0.0494345 2.7421e-19)
(0.171774 0.0205475 -5.17552e-19)
(0.195551 -0.00940637 4.56918e-19)
(0.220107 -0.0402137 -1.29152e-18)
(0.245392 -0.0715784 1.00051e-18)
(0.271329 -0.103048 -1.33007e-18)
(0.297729 -0.133916 -2.56626e-20)
(0.323894 -0.163074 -4.505e-19)
(0.348662 -0.188454 1.33473e-18)
(-0.0132459 0.0350156 8.96348e-19)
(-0.0312835 0.0917706 1.35399e-19)
(-0.040204 0.136893 -8.99919e-20)
(-0.042457 0.170597 -3.74792e-20)
(-0.039528 0.19379 7.06413e-19)
(-0.0324599 0.207707 2.3147e-19)
(-0.0221026 0.21366 2.11869e-19)
(-0.00911527 0.212922 -1.70734e-19)
(0.00601016 0.206645 6.6571e-19)
(0.0229133 0.195821 -3.30911e-19)
(0.0413339 0.181267 2.12602e-19)
(0.0610856 0.163637 5.53136e-19)
(0.0820352 0.14344 -3.17853e-19)
(0.104087 0.121066 3.48585e-19)
(0.127171 0.0968171 3.32467e-19)
(0.151235 0.070925 1.1481e-19)
(0.176239 0.0435784 -2.90844e-19)
(0.202151 0.0149431 8.02705e-19)
(0.228937 -0.0148154 -7.60439e-20)
(0.256561 -0.0455021 -9.07737e-20)
(0.284963 -0.0768479 9.87049e-19)
(0.314045 -0.10843 -7.07262e-19)
(0.343607 -0.139542 1.19458e-18)
(0.373023 -0.168958 -9.92589e-19)
(0.400726 -0.194379 1.28587e-18)
(-0.013256 0.0321148 -4.35435e-19)
(-0.0314546 0.0847952 9.87566e-20)
(-0.0404115 0.127232 -1.05013e-19)
(-0.0424146 0.159311 -4.92065e-19)
(-0.0388827 0.181677 2.92359e-20)
(-0.0308448 0.19534 2.83588e-19)
(-0.019168 0.201423 -1.15914e-18)
(-0.00454673 0.20105 8.72069e-19)
(0.0124847 0.195265 -8.54648e-19)
(0.031523 0.184988 -5.45378e-19)
(0.0522691 0.170989 4.93146e-19)
(0.0745045 0.153895 -1.08332e-18)
(0.0980716 0.134206 9.20283e-19)
(0.122857 0.112308 -2.93698e-19)
(0.148782 0.0885036 -8.56982e-19)
(0.175787 0.0630271 2.14456e-19)
(0.20383 0.0360677 -2.02331e-19)
(0.232875 0.00778852 8.00993e-20)
(0.262886 -0.0216521 -2.77874e-19)
(0.293816 -0.0520735 -9.37758e-19)
(0.325589 -0.0832293 2.10314e-19)
(0.358074 -0.11473 -1.18405e-21)
(0.39104 -0.145879 -9.80684e-19)
(0.423938 -0.17534 6.89712e-19)
(0.45484 -0.200563 -5.97258e-19)
(-0.0131436 0.0292754 1.76938e-19)
(-0.0313335 0.0777899 3.35318e-19)
(-0.0402694 0.117303 4.68892e-19)
(-0.0420331 0.147458 2.42473e-19)
(-0.037952 0.168685 -2.38491e-19)
(-0.0290239 0.181803 5.71977e-19)
(-0.0161185 0.187766 4.26003e-19)
(4.75677e-05 0.187557 -1.55121e-19)
(0.0189078 0.182116 5.62701e-19)
(0.0400246 0.172283 -5.82292e-19)
(0.063067 0.158778 -1.73211e-19)
(0.0877901 0.142195 1.76132e-19)
(0.114017 0.123015 3.53675e-19)
(0.14162 0.101617 4.16132e-21)
(0.170512 0.0782995 2.30319e-19)
(0.20063 0.0532967 4.3224e-19)
(0.231925 0.026799 -7.41637e-19)
(0.264353 -0.0010301 9.30126e-19)
(0.297865 -0.0300347 3.1875e-19)
(0.332393 -0.0600412 1.15755e-19)
(0.367829 -0.09082 -1.15538e-18)
(0.403993 -0.122012 1.63078e-19)
(0.440601 -0.152945 2.55985e-19)
(0.477181 -0.182177 -6.14382e-20)
(0.511515 -0.20689 2.91839e-19)
(-0.0129408 0.0265588 1.32973e-20)
(-0.030975 0.0709024 -8.63051e-19)
(-0.0398251 0.107312 -2.10658e-20)
(-0.0413371 0.135273 -2.19342e-19)
(-0.0367309 0.155062 -1.44315e-18)
(-0.0269604 0.167342 1.25179e-18)
(-0.012884 0.17292 -8.95283e-19)
(0.00477213 0.172653 -4.57127e-20)
(0.025421 0.167378 -4.29469e-19)
(0.0486007 0.157858 7.48526e-19)
(0.0739576 0.144755 -8.12673e-19)
(0.101228 0.128629 -3.84886e-19)
(0.130219 0.109934 6.47918e-21)
(0.160796 0.0890362 -8.53995e-19)
(0.192862 0.0662284 1.17353e-18)
(0.226345 0.041744 -1.37799e-18)
(0.261185 0.015775 3.99807e-22)
(0.297319 -0.0115113 2.13426e-19)
(0.334669 -0.0399551 -5.46159e-19)
(0.373126 -0.0693822 5.35379e-19)
(0.412533 -0.0995708 -7.59379e-19)
(0.452638 -0.130188 -5.05064e-19)
(0.493078 -0.160598 9.4222e-19)
(0.533448 -0.189264 -1.02923e-18)
(0.571364 -0.213077 -1.608e-20)
(-0.012682 0.0240167 -7.07683e-19)
(-0.030437 0.0642639 8.38015e-19)
(-0.0391234 0.0974492 -2.59971e-19)
(-0.0403389 0.12299 5.00555e-19)
(-0.0351876 0.141068 5.41505e-19)
(-0.0245712 0.152227 -4.79374e-19)
(-0.00932564 0.157153 -3.19414e-19)
(0.00982588 0.156594 -3.85218e-19)
(0.0322882 0.151292 3.54463e-19)
(0.0575868 0.141932 -2.47752e-20)
(0.0853546 0.12912 5.25591e-19)
(0.115316 0.113374 5.23091e-19)
(0.147271 0.0951204 -6.34921e-19)
(0.181073 0.0747102 1.25581e-18)
(0.216614 0.0524264 -8.43275e-19)
(0.253806 0.0285015 -1.47894e-19)
(0.292564 0.00313152 1.67842e-18)
(0.332787 -0.0235083 -7.81319e-19)
(0.374347 -0.0512483 5.0664e-19)
(0.417069 -0.0799058 9.95803e-19)
(0.460719 -0.109258 -6.47938e-19)
(0.504953 -0.138992 6.89498e-20)
(0.549303 -0.168517 -4.60333e-20)
(0.593417 -0.196227 -2.6393e-19)
(0.634912 -0.218686 5.00052e-19)
(-0.0124018 0.0216891 1.6242e-19)
(-0.0297746 0.0579824 -5.29093e-19)
(-0.0381996 0.0878828 2.91421e-19)
(-0.0390296 0.110828 -3.79569e-21)
(-0.033254 0.126957 2.20493e-19)
(-0.0217183 0.136736 -3.80573e-19)
(-0.00522694 0.140759 2.18687e-19)
(0.0155113 0.139679 5.99528e-19)
(0.039905 0.134152 -1.96088e-20)
(0.0674782 0.124792 -3.11441e-19)
(0.0978599 0.11215 3.14758e-19)
(0.130769 0.0966994 -5.90327e-21)
(0.165995 0.0788385 -1.01949e-18)
(0.203381 0.058899 3.78616e-19)
(0.242797 0.0371557 8.3445e-20)
(0.284122 0.0138405 -1.5163e-19)
(0.327224 -0.0108443 -2.78054e-19)
(0.371939 -0.0367118 1.05525e-18)
(0.41806 -0.0635774 2.60052e-19)
(0.465318 -0.0912435 -5.61633e-19)
(0.513375 -0.119479 -6.95373e-20)
(0.561776 -0.147987 7.8123e-19)
(0.60993 -0.176228 -3.65869e-19)
(0.657515 -0.20256 1.5702e-19)
(0.702365 -0.223173 1.02807e-19)
(-0.0121309 0.0196019 -3.23491e-19)
(-0.0290333 0.0521373 3.32391e-19)
(-0.0370705 0.0787498 -1.87538e-19)
(-0.0373712 0.098976 -6.04662e-19)
(-0.0308189 0.112967 -5.58383e-19)
(-0.0182029 0.121147 -2.4731e-19)
(-0.000290139 0.124042 -2.06337e-19)
(0.0222346 0.122231 -6.1315e-19)
(0.0487941 0.116295 -2.50066e-19)
(0.0789199 0.106785 2.29951e-19)
(0.112243 0.0941967 -3.29264e-19)
(0.148477 0.078962 -3.49166e-19)
(0.187399 0.061451 -3.32036e-19)
(0.228826 0.0419771 6.14033e-19)
(0.272589 0.0208069 -1.29219e-18)
(0.318511 -0.00182688 7.51168e-19)
(0.366382 -0.0257136 -1.28942e-18)
(0.415945 -0.0506523 -2.0087e-19)
(0.466879 -0.0764408 -7.22976e-19)
(0.518794 -0.102864 -1.69797e-19)
(0.571228 -0.12968 -2.07947e-19)
(0.623603 -0.156601 -6.97895e-19)
(0.675201 -0.183151 -7.5243e-20)
(0.725707 -0.207694 4.25987e-19)
(0.773409 -0.225982 -1.08422e-18)
(-0.0118933 0.0177653 2.78037e-19)
(-0.0282418 0.0467758 3.7549e-19)
(-0.0357274 0.070149 1.31396e-18)
(-0.0352904 0.0875908 -2.315e-19)
(-0.0277236 0.0993087 5.53389e-19)
(-0.013765 0.105717 1.3218e-18)
(0.00585909 0.107302 -3.62048e-19)
(0.0304944 0.104584 4.92116e-19)
(0.0595847 0.0980848 2.88158e-19)
(0.0926732 0.0882967 5.26497e-19)
(0.129392 0.075667 -1.06066e-19)
(0.169445 0.0605903 7.21268e-20)
(0.212581 0.0434091 -1.93218e-19)
(0.258571 0.0244205 1.02996e-18)
(0.307178 0.00388437 1.30687e-19)
(0.358136 -0.0179647 9.76373e-19)
(0.411122 -0.040907 -2.53072e-19)
(0.465752 -0.0647278 9.1109e-19)
(0.521562 -0.0892084 1.30348e-19)
(0.578021 -0.114119 4.69754e-19)
(0.634527 -0.139207 -2.02606e-19)
(0.690388 -0.164196 -3.68239e-20)
(0.744774 -0.188679 1.12592e-18)
(0.797355 -0.211078 6.89631e-19)
(0.847104 -0.226639 -2.80584e-19)
(-0.0117033 0.0161738 -6.69746e-19)
(-0.027407 0.0419109 -6.99916e-19)
(-0.0341306 0.062138 -7.34013e-19)
(-0.0326745 0.0767848 2.71297e-19)
(-0.0237628 0.086152 -5.45165e-19)
(-0.00808991 0.0906746 -8.13992e-20)
(0.0136573 0.090819 -2.15873e-19)
(0.0408567 0.0870663 -8.99717e-19)
(0.0729738 0.0798896 -1.41944e-19)
(0.109561 0.069734 2.33401e-19)
(0.150242 0.0570045 -7.38478e-19)
(0.194694 0.0420624 1.03015e-18)
(0.242613 0.0252263 -1.41079e-18)
(0.293693 0.00677889 3.4328e-19)
(0.347594 -0.0130252 -8.77326e-19)
(0.403918 -0.0339497 -7.20521e-19)
(0.462199 -0.0557678 -4.26026e-20)
(0.521891 -0.0782544 -1.11667e-19)
(0.582371 -0.10118 8.63661e-20)
(0.642953 -0.124307 -4.24035e-19)
(0.702906 -0.147383 -2.93708e-19)
(0.761443 -0.170145 3.62119e-19)
(0.817661 -0.192258 -1.00553e-18)
(0.871208 -0.212264 3.25972e-19)
(0.921909 -0.224831 2.22549e-19)
(-0.0115631 0.0148067 -1.1813e-19)
(-0.0265094 0.0375224 -2.01972e-19)
(-0.0322064 0.0547315 7.93896e-19)
(-0.0293728 0.0666243 2.95734e-19)
(-0.0186902 0.0736228 3.92785e-19)
(-0.000821703 0.0762053 -5.2734e-19)
(0.0235792 0.0748384 1.21053e-21)
(0.0539175 0.069979 -4.30417e-19)
(0.0896734 0.0620643 7.99426e-19)
(0.130395 0.0515014 2.63097e-19)
(0.175679 0.0386607 2.98916e-19)
(0.225145 0.0238754 -1.18692e-18)
(0.278404 0.00744393 1.47804e-18)
(0.335032 -0.0103635 -4.44434e-19)
(0.394543 -0.0292977 -3.21698e-19)
(0.456375 -0.0491229 9.73332e-19)
(0.519881 -0.0696102 4.39889e-19)
(0.584336 -0.0905318 -1.11524e-18)
(0.648953 -0.111658 -4.69958e-19)
(0.712902 -0.132757 1.42209e-18)
(0.775349 -0.153586 -1.08842e-18)
(0.835452 -0.17391 6.57953e-19)
(0.892296 -0.193475 3.66958e-19)
(0.945525 -0.210984 -4.73219e-19)
(0.995869 -0.220481 -4.39158e-19)
(-0.0114614 0.0136303 -4.34335e-19)
(-0.025502 0.0335604 7.01009e-19)
(-0.0298482 0.0479036 2.99262e-19)
(-0.025201 0.0571289 -4.34388e-19)
(-0.0122303 0.0617971 -7.00407e-20)
(0.00841635 0.0624467 -4.58627e-19)
(0.0361061 0.0595603 -1.83334e-19)
(0.0702579 0.0535835 2.06852e-19)
(0.110349 0.0449294 -5.15991e-20)
(0.155898 0.0339763 3.95159e-19)
(0.206444 0.0210673 -3.45409e-19)
(0.26151 0.00651252 9.61073e-19)
(0.320579 -0.00940666 -1.20149e-18)
(0.383064 -0.0264319 7.52471e-19)
(0.448295 -0.0443217 9.44807e-19)
(0.51551 -0.0628458 -1.37452e-18)
(0.583867 -0.0817806 -4.20662e-19)
(0.652456 -0.100907 7.1418e-19)
(0.720337 -0.120009 -4.40478e-19)
(0.78657 -0.138874 4.29078e-19)
(0.85026 -0.157294 -1.03936e-18)
(0.910569 -0.175074 1.74683e-19)
(0.966646 -0.192061 6.80768e-19)
(1.01821 -0.207118 -1.09675e-18)
(1.06674 -0.213703 2.93276e-19)
(-0.0113733 0.0126004 -4.00572e-19)
(-0.0243108 0.0299504 1.30333e-18)
(-0.0269199 0.0415934 2.50744e-19)
(-0.0199505 0.0482752 -6.81736e-19)
(-0.00409325 0.0507024 4.90643e-19)
(0.0199982 0.0494849 2.49963e-19)
(0.0516918 0.0451322 4.00865e-19)
(0.0903973 0.0380901 -2.62623e-20)
(0.13556 0.0287568 -4.17505e-20)
(0.186634 0.0174903 -8.85127e-20)
(0.243056 0.00461233 -3.90915e-19)
(0.304208 -0.00958587 -1.49449e-20)
(0.369396 -0.024839 9.23457e-19)
(0.43783 -0.040902 -1.52787e-18)
(0.508623 -0.0575455 1.09107e-18)
(0.580796 -0.0745519 2.22589e-19)
(0.653306 -0.0917129 3.95718e-19)
(0.725081 -0.10883 -2.05218e-19)
(0.795055 -0.125713 1.82188e-18)
(0.862224 -0.142187 -1.12834e-18)
(0.925681 -0.15809 9.05161e-19)
(0.984642 -0.173297 2.12976e-19)
(1.0384 -0.18775 -6.66958e-19)
(1.08688 -0.200387 5.66541e-19)
(1.1318 -0.204614 8.56988e-19)
(-0.0112619 0.0116672 -1.15934e-19)
(-0.0228389 0.0266017 -4.59616e-19)
(-0.0232634 0.0357135 -7.88937e-19)
(-0.0133985 0.0400043 -4.51125e-19)
(0.00600862 0.0403234 -6.34386e-20)
(0.0342721 0.0373576 -1.79891e-19)
(0.0707319 0.0316505 -8.36316e-19)
(0.114755 0.0236554 1.38873e-19)
(0.165715 0.0137636 -9.49625e-19)
(0.222955 0.00231878 -7.43895e-20)
(0.285759 -0.0103743 -9.21077e-19)
(0.353317 -0.024042 -3.30624e-19)
(0.424715 -0.0384363 1.90909e-19)
(0.498926 -0.0533299 -9.11603e-19)
(0.574826 -0.0685126 8.03258e-21)
(0.651222 -0.0837887 -7.93113e-19)
(0.726895 -0.0989757 3.08127e-19)
(0.800645 -0.113905 -1.11255e-18)
(0.871342 -0.128425 -1.907e-19)
(0.937973 -0.142398 -2.09815e-20)
(0.999679 -0.155714 -1.86468e-19)
(1.05576 -0.168314 -1.88192e-19)
(1.10566 -0.180153 -9.02251e-20)
(1.14954 -0.190169 -3.72389e-19)
(1.18804 -0.193827 -7.95518e-19)
(-0.0110804 0.0107792 2.13127e-19)
(-0.0209715 0.0234166 5.811e-19)
(-0.0187059 0.0301609 7.01579e-19)
(-0.00531992 0.0322327 -5.63836e-19)
(0.0183462 0.0306128 1.0509e-18)
(0.0515414 0.0260641 -5.73522e-19)
(0.0935409 0.0191673 3.12697e-19)
(0.143626 0.0103879 4.89633e-19)
(0.201046 0.000115017 4.48353e-19)
(0.264981 -0.0113189 2.19043e-19)
(0.334507 -0.0236249 3.56139e-19)
(0.408576 -0.0365484 2.07823e-19)
(0.486015 -0.0498636 1.41556e-18)
(0.565542 -0.0633686 -1.03265e-18)
(0.645799 -0.076882 1.18464e-18)
(0.725405 -0.0902412 -4.91633e-19)
(0.803009 -0.103301 1.06709e-18)
(0.87735 -0.115932 -4.90654e-20)
(0.947309 -0.128023 -2.21485e-19)
(1.01195 -0.139477 -3.33003e-20)
(1.07056 -0.150218 8.22641e-19)
(1.12262 -0.16019 -7.78917e-19)
(1.16788 -0.169246 5.61143e-19)
(1.20635 -0.176857 5.9453e-19)
(1.23403 -0.185101 1.10967e-19)
(-0.0107757 0.0098883 1.47224e-19)
(-0.0185827 0.0202996 -8.3044e-19)
(-0.0130688 0.0248292 -3.03188e-19)
(0.00450357 0.024867 2.78207e-19)
(0.0331623 0.0215061 -8.62074e-19)
(0.072053 0.0155801 -1.71167e-19)
(0.12034 0.00770575 1.19119e-19)
(0.177166 -0.00163818 4.72686e-19)
(0.241601 -0.012064 -1.20339e-18)
(0.312601 -0.0232505 9.20691e-20)
(0.388983 -0.0349271 -3.55264e-19)
(0.469418 -0.0468645 -1.08629e-18)
(0.552452 -0.0588672 7.42928e-19)
(0.636549 -0.0707693 3.26518e-20)
(0.720145 -0.0824304 -2.35225e-20)
(0.801715 -0.0937329 7.55512e-19)
(0.879849 -0.104579 -1.33098e-18)
(0.953304 -0.114888 1.05289e-18)
(1.02106 -0.124596 -1.97919e-19)
(1.08236 -0.133649 5.92817e-19)
(1.13668 -0.142004 -9.82986e-19)
(1.1838 -0.14962 5.48622e-19)
(1.22373 -0.156393 -9.52233e-19)
(1.25675 -0.162101 9.46059e-19)
(1.28055 -0.168248 -3.19554e-19)
(-0.0102911 0.00895319 9.86717e-19)
(-0.0155414 0.0171669 -1.66373e-19)
(-0.00617443 0.0196216 1.23512e-18)
(0.0162758 0.0178184 5.74763e-19)
(0.0506655 0.0129383 4.61624e-20)
(0.0959925 0.00587579 2.53608e-19)
(0.151258 -0.00272178 6.11088e-20)
(0.215404 -0.0123653 1.04465e-18)
(0.28726 -0.0226716 3.37989e-19)
(0.365499 -0.0333353 -4.58387e-20)
(0.448633 -0.044112 9.13516e-20)
(0.535024 -0.0548069 3.54645e-19)
(0.622935 -0.0652671 2.96997e-19)
(0.710598 -0.0753753 6.36543e-19)
(0.79629 -0.0850444 -7.28359e-19)
(0.878421 -0.0942125 2.18338e-19)
(0.955601 -0.102837 7.02596e-20)
(1.0267 -0.110891 3.22481e-19)
(1.09088 -0.118357 8.56193e-19)
(1.14762 -0.125225 -5.69449e-19)
(1.19669 -0.131488 4.04554e-20)
(1.23812 -0.13714 -7.50553e-19)
(1.27221 -0.142138 6.91037e-19)
(1.29942 -0.14638 -6.30625e-19)
(1.3183 -0.15109 8.5549e-20)
(-0.00957027 0.00794267 -8.22581e-19)
(-0.0117174 0.0139533 6.51924e-19)
(0.00214796 0.0144616 -1.06719e-18)
(0.0301819 0.0110174 9.26755e-20)
(0.0710275 0.00486102 7.59524e-19)
(0.123485 -0.00306596 -1.2724e-18)
(0.186331 -0.0120948 1.01492e-18)
(0.258245 -0.0217339 -1.61908e-18)
(0.337749 -0.0316122 3.24372e-19)
(0.423183 -0.0414504 6.97423e-20)
(0.512715 -0.051042 5.52127e-19)
(0.60439 -0.0602405 -1.84069e-18)
(0.696207 -0.0689497 3.19437e-19)
(0.786216 -0.0771141 3.37961e-19)
(0.872611 -0.0847106 -2.01791e-19)
(0.953821 -0.0917392 -1.24605e-18)
(1.02858 -0.0982154 5.91095e-19)
(1.09595 -0.104163 1.08313e-18)
(1.15537 -0.109606 -1.12705e-18)
(1.2066 -0.11457 8.08274e-19)
(1.24972 -0.11907 -1.01667e-18)
(1.28504 -0.12312 7.32657e-19)
(1.31312 -0.126694 -1.86075e-19)
(1.33459 -0.129739 1.06477e-18)
(1.34867 -0.133309 -1.18016e-18)
(-0.00855894 0.00683708 1.17544e-19)
(-0.00698526 0.0106179 9.64557e-20)
(0.0120582 0.00930239 2.369e-19)
(0.0463857 0.00442566 8.5091e-19)
(0.0943835 -0.00274324 -2.68489e-20)
(0.154598 -0.0112335 1.92213e-19)
(0.225518 -0.0203685 8.61688e-19)
(0.30549 -0.0296666 3.49916e-19)
(0.39267 -0.038783 -1.15786e-19)
(0.485019 -0.047479 9.90646e-19)
(0.580343 -0.0556026 -1.13193e-18)
(0.676385 -0.0630722 1.74182e-18)
(0.770926 -0.0698625 -6.92295e-19)
(0.861906 -0.0759911 1.25377e-18)
(0.947532 -0.0815047 -4.24686e-19)
(1.02636 -0.0864667 1.54074e-19)
(1.09732 -0.0909459 1.85947e-19)
(1.1598 -0.0950076 -3.47502e-19)
(1.21352 -0.0987078 2.94702e-19)
(1.25858 -0.102089 1.87894e-19)
(1.29538 -0.105181 2.50233e-19)
(1.32449 -0.107998 5.06415e-19)
(1.34667 -0.110518 -5.47202e-20)
(1.36272 -0.112719 -2.28061e-19)
(1.37234 -0.115517 6.24203e-19)
(-0.00720669 0.00562851 -6.86738e-19)
(-0.00122797 0.00714631 7.51284e-20)
(0.0237023 0.00413179 -1.36243e-18)
(0.0650279 -0.00195554 -3.27451e-19)
(0.120831 -0.00985103 -6.17316e-19)
(0.189345 -0.0185755 -1.33048e-19)
(0.2687 -0.0274631 -6.69251e-19)
(0.356844 -0.0360605 -4.02398e-19)
(0.451512 -0.0440678 5.357e-19)
(0.550257 -0.0513078 -8.97843e-19)
(0.65053 -0.057702 -2.50362e-19)
(0.749807 -0.0632507 9.07333e-21)
(0.845728 -0.0680122 -1.6925e-18)
(0.936223 -0.0720835 7.18969e-19)
(1.01962 -0.075581 -1.04424e-18)
(1.09469 -0.078625 -3.06969e-20)
(1.16069 -0.0813263 1.9832e-19)
(1.21734 -0.0837775 -3.29371e-19)
(1.26472 -0.0860488 -2.85354e-19)
(1.30328 -0.0881867 1.33153e-19)
(1.33368 -0.0902158 1.44159e-19)
(1.35675 -0.0921417 -9.44476e-19)
(1.37341 -0.0939301 5.35336e-19)
(1.38455 -0.0955754 2.49045e-19)
(1.39017 -0.0978967 4.70677e-20)
(-0.00546742 0.00432015 7.01618e-19)
(0.00566182 0.00355058 -7.75963e-19)
(0.0372105 -0.00102513 1.09678e-18)
(0.0862241 -0.00808177 1.72369e-19)
(0.150431 -0.0163932 -5.29135e-20)
(0.227684 -0.0249968 -3.76716e-19)
(0.315686 -0.0332612 5.66923e-20)
(0.411922 -0.0407855 5.79457e-19)
(0.513667 -0.0473397 -8.03084e-19)
(0.618056 -0.052831 8.46682e-19)
(0.722218 -0.0572755 -8.95725e-20)
(0.823434 -0.0607702 4.23509e-20)
(0.919299 -0.0634647 1.10397e-18)
(1.00785 -0.0655346 1.46954e-18)
(1.08764 -0.0671584 -5.7799e-19)
(1.15777 -0.0684995 1.0052e-18)
(1.21788 -0.0696935 4.96216e-19)
(1.26807 -0.0708421 -3.10429e-19)
(1.30879 -0.072012 9.46903e-19)
(1.34079 -0.0732378 -4.97944e-20)
(1.365 -0.0745272 -8.83434e-19)
(1.38241 -0.0758663 9.08149e-19)
(1.39406 -0.077203 1.16397e-19)
(1.4009 -0.0785411 -5.34295e-19)
(1.40311 -0.0806129 1.71441e-19)
(-0.0032993 0.00292492 -9.74618e-19)
(0.0137804 -0.000132039 1.05755e-18)
(0.0526946 -0.00610734 -6.75575e-19)
(0.110061 -0.0138659 -2.12044e-19)
(0.1832 -0.0222559 -4.79271e-19)
(0.269514 -0.0303605 8.53363e-19)
(0.366208 -0.0376122 -4.9868e-19)
(0.470253 -0.0436924 -2.29856e-19)
(0.57844 -0.0484693 -6.60296e-19)
(0.687508 -0.0519601 1.76373e-20)
(0.794323 -0.0542942 -2.60249e-19)
(0.896072 -0.0556749 1.24691e-19)
(0.990423 -0.0563432 -1.32588e-18)
(1.07564 -0.0565446 3.79426e-19)
(1.15062 -0.0565041 -4.50877e-19)
(1.21486 -0.0564084 -3.56442e-19)
(1.26844 -0.0563974 1.08117e-19)
(1.31183 -0.0565621 -5.09328e-19)
(1.34585 -0.0569493 -2.06718e-19)
(1.37151 -0.0575684 6.14947e-19)
(1.38992 -0.0584011 2.46668e-19)
(1.40221 -0.0594081 -1.0584e-18)
(1.40948 -0.0605169 7.60108e-19)
(1.41266 -0.0617357 -1.42199e-19)
(1.41204 -0.0637166 -2.85539e-19)
(-0.000664463 0.00146383 -3.5381e-19)
(0.023212 -0.00384225 -1.96452e-19)
(0.0702454 -0.0110213 -3.92434e-20)
(0.136594 -0.0191824 2.93096e-19)
(0.219106 -0.0272863 3.20929e-19)
(0.314667 -0.0344961 2.81216e-19)
(0.41992 -0.0403427 3.52231e-19)
(0.531282 -0.0446243 5.4025e-19)
(0.645065 -0.0473384 8.29436e-19)
(0.757661 -0.0486359 8.21999e-19)
(0.865769 -0.0487726 4.33899e-19)
(0.966603 -0.0480605 -1.17764e-19)
(1.05804 -0.0468226 2.95174e-20)
(1.13868 -0.0453575 -3.30278e-20)
(1.20787 -0.0439144 3.4251e-19)
(1.26555 -0.0426802 -8.22789e-20)
(1.31223 -0.0417771 9.75651e-19)
(1.34878 -0.0412677 -4.43768e-19)
(1.37629 -0.0411649 2.70728e-21)
(1.39602 -0.0414441 2.86376e-19)
(1.40918 -0.0420561 -6.35336e-19)
(1.41699 -0.0429346 1.02522e-18)
(1.42053 -0.0439876 -8.22844e-19)
(1.42068 -0.0452256 1.42083e-19)
(1.41781 -0.0472198 -5.17007e-19)
(0.00247133 -3.54285e-05 7.58567e-19)
(0.0340279 -0.00750212 5.31163e-19)
(0.0899292 -0.0156461 -3.42857e-19)
(0.165836 -0.0238744 1.52832e-18)
(0.258064 -0.0313018 -1.33244e-18)
(0.362908 -0.0372106 2.82064e-19)
(0.476395 -0.0412701 -2.13487e-19)
(0.594377 -0.0434321 -9.48624e-19)
(0.712718 -0.0438537 -9.84459e-20)
(0.82755 -0.0428382 -7.69639e-19)