/*--------------------------------*- C++ -*----------------------------------*\
  =========                 |
  \\      /  F ield         | OpenFOAM: The Open Source CFD Toolbox
   \\    /   O peration     | Website:  https://openfoam.org
    \\  /    A nd           | Version:  6.0
     \\/     M anipulation  |
\*---------------------------------------------------------------------------*/
FoamFile
{
    version     2.0;
    format      ascii;
    class       volScalarField;
    location    "52";
    object      p;
}
// * * * * * * * * * * * * * * * * * * * * * * * * * * * * * * * * * * * * * //

dimensions      [0 2 -2 0 0 0 0];

internalField   nonuniform List<scalar> 
12500
(
-0.344173
-0.345114
-0.345727
-0.346157
-0.346495
-0.346753
-0.346944
-0.347082
-0.347176
-0.347231
-0.347252
-0.347244
-0.34721
-0.347155
-0.347083
-0.347001
-0.346914
-0.346828
-0.346751
-0.34669
-0.346656
-0.346654
-0.346647
-0.346613
-0.346992
-0.344311
-0.345344
-0.346013
-0.346485
-0.346857
-0.347145
-0.347362
-0.347521
-0.347633
-0.347702
-0.347732
-0.347727
-0.34769
-0.347624
-0.347534
-0.347424
-0.347299
-0.347165
-0.347027
-0.346891
-0.346767
-0.346659
-0.346531
-0.346364
-0.346559
-0.344564
-0.345687
-0.346412
-0.346921
-0.347326
-0.347641
-0.347881
-0.34806
-0.348186
-0.348266
-0.348302
-0.348298
-0.348255
-0.348176
-0.348064
-0.347922
-0.347755
-0.347567
-0.347363
-0.347147
-0.346927
-0.346707
-0.346452
-0.346146
-0.346153
-0.344951
-0.346158
-0.346934
-0.347479
-0.347913
-0.348253
-0.348514
-0.34871
-0.34885
-0.348939
-0.34898
-0.348974
-0.348923
-0.348829
-0.348693
-0.348517
-0.348305
-0.34806
-0.347786
-0.347485
-0.347166
-0.34683
-0.346445
-0.345996
-0.345812
-0.345487
-0.346771
-0.347594
-0.34817
-0.34863
-0.348992
-0.349271
-0.349483
-0.349636
-0.349734
-0.349778
-0.349771
-0.349712
-0.349602
-0.34944
-0.34923
-0.348971
-0.348668
-0.348321
-0.347934
-0.347512
-0.347057
-0.346539
-0.345945
-0.345573
-0.346188
-0.347539
-0.348401
-0.349004
-0.349487
-0.349868
-0.350165
-0.350391
-0.350556
-0.350662
-0.350711
-0.350703
-0.350637
-0.350511
-0.350325
-0.350079
-0.349774
-0.34941
-0.34899
-0.348514
-0.347989
-0.347414
-0.346762
-0.346022
-0.345466
-0.347068
-0.348472
-0.349365
-0.34999
-0.350491
-0.350889
-0.351201
-0.351442
-0.351619
-0.351735
-0.35179
-0.351782
-0.35171
-0.35157
-0.351362
-0.351082
-0.35073
-0.350307
-0.349812
-0.349247
-0.348617
-0.347921
-0.347134
-0.346248
-0.345516
-0.348139
-0.349579
-0.350493
-0.351134
-0.351649
-0.352061
-0.352387
-0.352641
-0.352831
-0.352958
-0.353021
-0.353017
-0.352942
-0.352791
-0.352562
-0.35225
-0.351853
-0.351371
-0.350802
-0.350147
-0.34941
-0.348592
-0.34767
-0.346638
-0.345736
-0.349408
-0.350865
-0.35179
-0.352439
-0.352963
-0.353386
-0.353724
-0.353992
-0.354196
-0.354336
-0.35441
-0.354412
-0.354338
-0.35418
-0.353933
-0.353592
-0.353152
-0.352612
-0.351968
-0.351222
-0.350378
-0.349436
-0.348374
-0.347195
-0.346133
-0.350881
-0.352334
-0.353256
-0.353905
-0.354433
-0.354863
-0.355212
-0.355493
-0.355712
-0.355867
-0.355954
-0.355967
-0.355897
-0.355736
-0.355476
-0.35511
-0.35463
-0.354032
-0.353314
-0.352475
-0.35152
-0.35045
-0.349245
-0.347912
-0.3467
-0.352556
-0.353983
-0.354889
-0.355529
-0.356054
-0.356487
-0.356844
-0.357137
-0.357372
-0.357544
-0.357648
-0.357675
-0.357614
-0.357455
-0.357186
-0.356797
-0.35628
-0.355627
-0.354834
-0.3539
-0.352829
-0.351624
-0.350267
-0.348773
-0.347416
-0.35443
-0.355806
-0.356681
-0.357303
-0.357818
-0.358248
-0.35861
-0.358914
-0.359164
-0.359354
-0.359477
-0.359521
-0.359474
-0.35932
-0.359047
-0.358641
-0.358089
-0.357381
-0.356512
-0.355479
-0.354286
-0.352937
-0.351414
-0.349742
-0.348246
-0.356492
-0.357793
-0.358623
-0.359216
-0.359712
-0.360133
-0.360495
-0.360807
-0.36107
-0.361278
-0.36142
-0.361484
-0.361452
-0.361309
-0.361035
-0.360614
-0.36003
-0.359269
-0.358321
-0.357183
-0.355859
-0.354353
-0.352647
-0.350775
-0.349138
-0.358729
-0.359932
-0.360701
-0.361254
-0.361721
-0.362125
-0.36248
-0.362793
-0.363066
-0.363289
-0.36345
-0.363532
-0.363518
-0.363385
-0.363113
-0.362679
-0.362064
-0.361249
-0.36022
-0.358971
-0.357504
-0.355825
-0.353911
-0.351806
-0.35002
-0.361123
-0.362207
-0.3629
-0.363399
-0.363826
-0.364202
-0.364541
-0.364849
-0.365123
-0.365355
-0.36553
-0.365628
-0.365627
-0.365504
-0.365232
-0.364785
-0.364137
-0.363266
-0.362151
-0.360782
-0.359159
-0.357286
-0.355134
-0.352753
-0.350798
-0.363653
-0.364599
-0.3652
-0.365633
-0.366007
-0.366343
-0.366653
-0.366943
-0.36721
-0.367441
-0.36762
-0.367726
-0.367732
-0.367612
-0.367335
-0.366869
-0.366184
-0.36525
-0.364041
-0.362539
-0.360742
-0.358652
-0.356226
-0.353516
-0.351358
-0.366299
-0.367089
-0.367585
-0.367938
-0.368244
-0.368524
-0.36879
-0.369048
-0.369291
-0.369508
-0.369677
-0.369777
-0.369778
-0.369649
-0.369356
-0.368861
-0.368127
-0.367119
-0.365802
-0.364152
-0.36216
-0.359822
-0.357081
-0.353975
-0.351562
-0.369037
-0.36966
-0.370038
-0.370295
-0.370516
-0.370723
-0.370927
-0.371133
-0.371335
-0.371517
-0.371659
-0.371734
-0.371711
-0.371555
-0.371227
-0.370685
-0.369885
-0.368785
-0.367341
-0.36552
-0.363305
-0.360684
-0.357581
-0.354003
-0.351256
-0.37185
-0.372298
-0.372544
-0.37269
-0.372808
-0.372921
-0.373042
-0.373175
-0.373311
-0.373436
-0.373526
-0.373553
-0.373482
-0.373275
-0.372889
-0.372275
-0.371384
-0.370166
-0.368568
-0.366546
-0.364073
-0.361128
-0.357607
-0.353467
-0.350278
-0.374723
-0.374989
-0.375093
-0.375112
-0.375107
-0.375105
-0.375119
-0.375153
-0.375199
-0.375239
-0.37525
-0.375201
-0.375054
-0.374767
-0.374292
-0.373577
-0.372565
-0.371197
-0.369413
-0.367154
-0.36438
-0.361062
-0.357062
-0.352258
-0.348479
-0.377646
-0.37773
-0.37768
-0.377555
-0.377408
-0.377268
-0.37715
-0.377058
-0.376985
-0.376913
-0.376815
-0.37666
-0.376406
-0.376008
-0.375414
-0.374565
-0.373399
-0.371849
-0.369844
-0.367311
-0.364195
-0.36045
-0.355911
-0.350341
-0.345782
-0.380619
-0.38052
-0.380307
-0.380023
-0.379712
-0.37941
-0.379134
-0.37889
-0.37867
-0.378455
-0.37822
-0.377928
-0.377537
-0.376998
-0.376254
-0.375243
-0.373895
-0.372135
-0.369881
-0.367047
-0.363557
-0.359349
-0.35423
-0.347821
-0.342254
-0.38365
-0.383368
-0.382983
-0.382522
-0.382028
-0.381541
-0.381082
-0.380659
-0.380265
-0.379881
-0.379479
-0.379024
-0.378469
-0.377762
-0.376845
-0.375649
-0.374102
-0.372118
-0.369607
-0.366464
-0.362586
-0.357887
-0.352138
-0.344771
-0.337854
-0.386754
-0.38629
-0.385722
-0.385069
-0.384373
-0.383679
-0.383014
-0.382388
-0.381795
-0.381217
-0.380625
-0.379981
-0.37924
-0.378348
-0.377242
-0.375856
-0.374112
-0.371926
-0.369197
-0.365807
-0.361617
-0.356473
-0.350018
-0.341336
-0.332389
-0.389957
-0.389308
-0.388547
-0.387687
-0.38677
-0.385851
-0.384959
-0.384109
-0.383295
-0.382502
-0.3817
-0.38085
-0.379907
-0.378816
-0.377518
-0.375949
-0.374042
-0.371721
-0.368908
-0.365506
-0.361404
-0.356439
-0.350114
-0.341147
-0.331196
-0.393292
-0.392453
-0.391487
-0.390405
-0.389252
-0.388089
-0.386953
-0.385861
-0.384811
-0.383786
-0.382758
-0.381687
-0.380529
-0.379231
-0.377739
-0.375999
-0.373958
-0.371572
-0.368807
-0.365656
-0.362156
-0.358406
-0.354534
-0.351376
-0.354013
-0.3968
-0.395759
-0.394576
-0.393258
-0.391853
-0.390432
-0.389039
-0.387691
-0.386391
-0.385121
-0.383854
-0.38255
-0.381165
-0.379651
-0.377959
-0.376043
-0.373869
-0.371414
-0.368683
-0.365714
-0.362605
-0.359528
-0.356726
-0.354959
-0.357757
-0.400526
-0.399267
-0.397851
-0.396283
-0.394614
-0.392923
-0.391261
-0.389648
-0.388087
-0.386562
-0.385044
-0.383495
-0.381871
-0.380127
-0.378218
-0.376108
-0.373775
-0.371213
-0.368445
-0.36553
-0.362574
-0.359738
-0.357218
-0.355409
-0.356497
-0.404516
-0.403016
-0.401351
-0.39952
-0.397575
-0.395605
-0.393665
-0.391779
-0.389949
-0.388159
-0.386379
-0.384571
-0.38269
-0.380693
-0.37854
-0.376201
-0.373661
-0.370922
-0.368013
-0.36499
-0.36194
-0.358979
-0.356225
-0.353834
-0.353195
-0.408818
-0.407049
-0.405116
-0.403009
-0.400777
-0.39852
-0.396296
-0.394129
-0.392022
-0.389956
-0.3879
-0.385813
-0.383651
-0.381371
-0.378935
-0.376316
-0.373504
-0.370503
-0.367339
-0.364058
-0.360721
-0.357402
-0.354158
-0.35102
-0.348858
-0.413475
-0.411405
-0.409183
-0.406786
-0.404259
-0.401708
-0.399193
-0.396739
-0.394345
-0.391989
-0.389637
-0.387246
-0.384769
-0.382163
-0.379393
-0.376434
-0.373277
-0.369927
-0.366406
-0.362748
-0.358996
-0.355193
-0.351368
-0.347501
-0.344137
-0.418527
-0.416118
-0.413586
-0.410887
-0.408056
-0.405204
-0.402392
-0.399641
-0.396946
-0.394281
-0.391607
-0.388876
-0.386042
-0.383059
-0.379896
-0.376529
-0.372953
-0.369173
-0.36521
-0.361092
-0.35685
-0.352515
-0.348104
-0.343585
-0.339303
-0.424007
-0.421221
-0.418357
-0.415343
-0.412198
-0.409038
-0.405919
-0.402859
-0.399845
-0.396845
-0.393812
-0.390698
-0.387453
-0.384034
-0.380412
-0.376569
-0.372503
-0.368225
-0.363756
-0.359124
-0.35436
-0.34949
-0.344531
-0.339456
-0.334495
-0.429941
-0.426737
-0.423519
-0.420177
-0.416711
-0.413232
-0.409796
-0.406409
-0.403049
-0.399677
-0.396242
-0.39269
-0.388972
-0.385051
-0.380902
-0.376515
-0.371897
-0.367066
-0.362048
-0.356876
-0.351583
-0.346197
-0.340742
-0.335197
-0.329732
-0.436345
-0.432684
-0.429091
-0.425411
-0.421611
-0.417803
-0.414032
-0.410293
-0.406553
-0.402764
-0.39887
-0.394817
-0.390558
-0.386064
-0.381321
-0.376329
-0.371107
-0.365682
-0.360089
-0.354368
-0.348555
-0.342684
-0.336782
-0.330838
-0.324987
-0.443228
-0.439072
-0.435086
-0.431054
-0.426911
-0.422759
-0.41863
-0.414505
-0.41034
-0.406078
-0.401659
-0.397031
-0.392159
-0.387021
-0.381619
-0.375969
-0.370102
-0.364057
-0.357879
-0.351611
-0.345296
-0.338972
-0.332665
-0.326375
-0.320211
-0.450586
-0.445902
-0.441505
-0.437112
-0.432612
-0.428095
-0.423578
-0.419025
-0.414378
-0.409574
-0.404554
-0.399275
-0.393713
-0.387864
-0.381747
-0.375395
-0.368855
-0.362176
-0.355412
-0.348611
-0.341817
-0.335067
-0.328391
-0.321789
-0.315354
-0.458406
-0.453165
-0.448344
-0.44358
-0.438708
-0.4338
-0.428855
-0.423818
-0.41862
-0.413196
-0.407493
-0.40148
-0.395154
-0.388532
-0.381652
-0.374568
-0.367338
-0.360024
-0.352682
-0.345365
-0.338115
-0.330968
-0.323949
-0.317058
-0.310373
-0.466663
-0.460842
-0.455587
-0.450442
-0.445178
-0.439846
-0.434423
-0.428835
-0.423006
-0.416874
-0.410399
-0.403572
-0.396413
-0.388964
-0.381286
-0.37345
-0.365527
-0.357584
-0.349681
-0.341869
-0.334187
-0.326666
-0.319325
-0.312162
-0.305239
-0.475318
-0.468901
-0.463206
-0.457669
-0.451989
-0.446191
-0.440227
-0.434009
-0.427459
-0.420525
-0.41319
-0.405472
-0.397418
-0.389101
-0.380602
-0.372007
-0.363395
-0.354839
-0.346396
-0.338113
-0.330023
-0.322149
-0.314504
-0.307081
-0.299928
-0.48432
-0.477298
-0.47116
-0.465219
-0.459093
-0.452776
-0.446198
-0.439261
-0.431891
-0.424058
-0.415776
-0.407096
-0.3981
-0.388885
-0.379554
-0.370204
-0.36092
-0.351772
-0.342815
-0.334085
-0.32561
-0.317404
-0.309472
-0.301799
-0.294425
-0.493604
-0.485976
-0.479394
-0.473035
-0.466425
-0.459526
-0.452248
-0.444491
-0.436199
-0.427372
-0.418063
-0.408363
-0.398388
-0.388261
-0.378101
-0.368011
-0.358077
-0.348364
-0.338919
-0.32977
-0.320933
-0.312415
-0.304213
-0.296301
-0.288716
-0.503086
-0.494861
-0.487837
-0.481041
-0.4739
-0.466345
-0.458273
-0.44959
-0.440272
-0.430361
-0.419957
-0.409193
-0.398218
-0.387178
-0.376202
-0.365396
-0.35484
-0.344593
-0.334689
-0.325147
-0.315973
-0.307164
-0.298708
-0.290569
-0.282787
-0.51267
-0.503862
-0.4964
-0.489145
-0.481418
-0.473123
-0.464152
-0.454435
-0.443991
-0.432916
-0.421362
-0.409506
-0.397526
-0.385585
-0.373817
-0.362326
-0.351183
-0.340434
-0.330102
-0.320196
-0.310709
-0.30163
-0.292938
-0.284586
-0.276625
-0.522241
-0.512874
-0.504978
-0.497234
-0.488858
-0.479729
-0.469752
-0.458895
-0.447235
-0.43493
-0.422188
-0.409227
-0.396252
-0.383434
-0.370908
-0.358769
-0.347075
-0.33586
-0.325134
-0.314891
-0.305116
-0.295789
-0.286882
-0.278332
-0.270211
-0.531669
-0.521774
-0.513448
-0.505181
-0.496084
-0.486022
-0.474931
-0.462833
-0.449878
-0.436295
-0.422345
-0.408286
-0.394339
-0.38068
-0.367436
-0.35469
-0.342487
-0.330843
-0.319754
-0.309205
-0.299168
-0.289617
-0.280515
-0.271786
-0.263527
-0.540809
-0.530425
-0.521672
-0.51284
-0.502942
-0.491847
-0.479536
-0.46611
-0.451799
-0.436907
-0.42175
-0.406614
-0.391731
-0.377276
-0.363362
-0.350056
-0.337385
-0.32535
-0.313934
-0.303108
-0.292838
-0.283088
-0.273812
-0.264925
-0.256552
-0.549502
-0.538673
-0.529495
-0.520052
-0.509269
-0.49704
-0.483414
-0.468586
-0.452879
-0.43667
-0.420323
-0.404147
-0.388378
-0.373179
-0.358647
-0.344829
-0.331735
-0.319349
-0.307642
-0.296572
-0.286096
-0.276174
-0.266749
-0.257724
-0.249263
-0.557578
-0.546353
-0.536749
-0.526643
-0.514892
-0.501433
-0.486411
-0.470127
-0.453004
-0.43549
-0.417989
-0.400825
-0.384228
-0.368344
-0.35325
-0.338972
-0.325502
-0.312808
-0.300845
-0.289564
-0.278913
-0.268846
-0.259298
-0.250159
-0.241639
-0.564856
-0.55329
-0.543257
-0.532434
-0.519632
-0.504858
-0.488374
-0.470603
-0.452067
-0.433281
-0.414681
-0.396592
-0.379233
-0.362729
-0.347133
-0.33245
-0.318651
-0.305691
-0.293512
-0.282055
-0.271262
-0.26108
-0.251435
-0.242207
-0.233657
-0.57115
-0.5593
-0.548834
-0.537239
-0.523308
-0.507148
-0.489158
-0.469892
-0.449971
-0.429966
-0.410334
-0.391395
-0.373348
-0.356292
-0.340257
-0.325225
-0.311149
-0.297967
-0.285612
-0.274016
-0.263113
-0.252847
-0.243134
-0.233844
-0.225294
-0.576269
-0.564194
-0.55329
-0.540869
-0.525742
-0.508143
-0.488626
-0.467882
-0.446625
-0.425472
-0.404889
-0.385184
-0.366529
-0.348995
-0.332587
-0.317264
-0.302962
-0.289605
-0.277116
-0.265418
-0.254442
-0.244125
-0.234374
-0.22505
-0.216532
-0.580023
-0.567785
-0.556436
-0.54314
-0.526762
-0.507692
-0.486653
-0.464473
-0.44195
-0.419737
-0.398297
-0.377915
-0.358736
-0.340801
-0.324088
-0.308534
-0.294059
-0.280576
-0.267997
-0.256238
-0.245225
-0.234891
-0.225133
-0.215805
-0.207351
-0.582225
-0.569884
-0.558085
-0.543873
-0.526206
-0.505656
-0.483125
-0.459575
-0.435876
-0.412703
-0.390508
-0.369548
-0.349934
-0.331677
-0.314728
-0.299005
-0.284414
-0.270854
-0.25823
-0.246452
-0.235441
-0.225127
-0.215395
-0.206094
-0.197738
-0.582694
-0.570312
-0.55806
-0.542899
-0.523925
-0.501911
-0.477944
-0.453111
-0.428343
-0.404325
-0.381485
-0.360048
-0.340091
-0.321592
-0.304479
-0.288652
-0.274001
-0.260417
-0.247796
-0.236042
-0.225074
-0.214817
-0.205145
-0.195905
-0.18768
-0.58126
-0.568898
-0.556193
-0.540065
-0.519785
-0.496347
-0.471024
-0.445017
-0.419303
-0.394561
-0.371193
-0.349386
-0.329178
-0.310522
-0.293319
-0.277453
-0.262801
-0.249246
-0.236677
-0.224994
-0.21411
-0.203949
-0.194372
-0.185227
-0.177169
-0.577768
-0.565483
-0.552331
-0.535231
-0.513669
-0.488873
-0.462297
-0.435242
-0.408715
-0.383381
-0.359606
-0.337536
-0.317175
-0.298445
-0.281227
-0.265389
-0.250798
-0.237328
-0.224861
-0.213295
-0.20254
-0.192515
-0.183072
-0.174056
-0.1662
-0.572076
-0.559927
-0.546339
-0.528278
-0.505481
-0.479417
-0.451711
-0.423749
-0.396553
-0.370764
-0.346705
-0.324483
-0.304065
-0.285347
-0.268191
-0.252449
-0.23798
-0.224651
-0.21234
-0.200939
-0.190358
-0.180511
-0.17124
-0.162392
-0.154772
-0.564063
-0.552106
-0.5381
-0.519106
-0.495144
-0.467924
-0.439229
-0.410513
-0.382799
-0.356694
-0.332478
-0.310215
-0.289838
-0.271218
-0.2542
-0.238625
-0.224342
-0.211212
-0.19911
-0.187925
-0.177564
-0.167939
-0.158879
-0.150237
-0.14289
-0.553629
-0.541918
-0.527521
-0.507641
-0.482604
-0.454359
-0.42483
-0.395523
-0.367447
-0.341169
-0.316922
-0.294728
-0.27449
-0.256055
-0.239253
-0.223914
-0.209881
-0.197011
-0.185173
-0.174254
-0.164161
-0.154802
-0.145996
-0.137599
-0.13056
-0.540696
-0.529285
-0.514533
-0.493829
-0.467826
-0.438704
-0.40851
-0.37878
-0.350502
-0.324193
-0.30004
-0.278026
-0.258023
-0.23986
-0.223351
-0.20832
-0.194602
-0.18205
-0.170532
-0.159933
-0.150157
-0.141111
-0.132601
-0.124491
-0.117797
-0.525213
-0.514152
-0.499088
-0.477641
-0.450801
-0.420964
-0.39028
-0.360301
-0.331978
-0.30578
-0.281845
-0.260119
-0.240447
-0.222641
-0.206503
-0.19185
-0.178513
-0.166341
-0.155199
-0.144972
-0.135565
-0.126879
-0.118711
-0.11093
-0.104617
-0.50715
-0.49649
-0.481169
-0.459072
-0.431538
-0.40116
-0.370167
-0.340112
-0.311902
-0.285954
-0.262358
-0.241025
-0.221778
-0.204412
-0.188722
-0.174517
-0.161625
-0.149894
-0.139187
-0.129388
-0.1204
-0.112122
-0.104344
-0.0969381
-0.0910427
-0.486507
-0.476297
-0.460779
-0.438142
-0.410069
-0.37933
-0.348213
-0.318254
-0.290312
-0.264747
-0.241607
-0.220769
-0.202038
-0.185194
-0.170026
-0.156338
-0.143956
-0.132727
-0.122513
-0.113196
-0.104681
-0.0968632
-0.089523
-0.0825398
-0.0770982
-0.463308
-0.453595
-0.43795
-0.414894
-0.386446
-0.35553
-0.324473
-0.294779
-0.267254
-0.242202
-0.219629
-0.199385
-0.181255
-0.165012
-0.150438
-0.137334
-0.125526
-0.114859
-0.105195
-0.0964164
-0.0884289
-0.081124
-0.0742749
-0.0677647
-0.0628132
-0.437603
-0.428433
-0.412738
-0.389391
-0.36074
-0.329834
-0.299017
-0.269753
-0.242787
-0.218371
-0.196471
-0.176912
-0.159466
-0.143897
-0.129984
-0.117529
-0.106356
-0.0963092
-0.0872532
-0.0790701
-0.0716659
-0.0649298
-0.0586285
-0.0526461
-0.0482238
-0.409467
-0.400884
-0.385221
-0.361722
-0.333041
-0.302331
-0.271931
-0.243253
-0.21698
-0.193314
-0.172186
-0.153398
-0.136711
-0.121885
-0.108697
-0.0969501
-0.0864685
-0.0770995
-0.0687075
-0.0611764
-0.0544128
-0.0483045
-0.0426133
-0.0372214
-0.0333755
-0.378999
-0.371046
-0.355503
-0.331993
-0.303459
-0.273126
-0.24331
-0.215366
-0.189913
-0.167104
-0.146837
-0.128897
-0.113038
-0.0990167
-0.0866112
-0.0756256
-0.0658883
-0.0572489
-0.0495744
-0.0427508
-0.0366862
-0.0312678
-0.0262562
-0.0215299
-0.0183175
-0.346321
-0.339039
-0.323706
-0.300331
-0.272116
-0.242335
-0.213265
-0.186193
-0.161677
-0.139821
-0.120496
-0.103475
-0.0885032
-0.0753393
-0.0637641
-0.0535858
-0.0446375
-0.0367733
-0.0298646
-0.0238011
-0.0184932
-0.01383
-0.00957696
-0.00560482
-0.00308036
-0.311577
-0.305004
-0.289973
-0.266878
-0.239153
-0.210092
-0.181918
-0.155846
-0.132372
-0.111556
-0.0932463
-0.0772026
-0.0631692
-0.050906
-0.0401991
-0.0308627
-0.0227369
-0.0156826
-0.00957831
-0.00431968
0.000178202
0.00401951
0.00742753
0.0105512
0.0123519
-0.274931
-0.269102
-0.254467
-0.231795
-0.204724
-0.176541
-0.149402
-0.124448
-0.10211
-0.0824126
-0.0651798
-0.050164
-0.0371092
-0.0257789
-0.015966
-0.00749278
-0.000208107
0.00601734
0.0112951
0.0157193
0.0193664
0.0223283
0.0248095
0.026989
0.0280053
-0.236563
-0.231512
-0.217363
-0.195254
-0.168993
-0.141836
-0.115862
-0.0921302
-0.0710152
-0.0525031
-0.0364004
-0.0224535
-0.0104073
-3.09574e-05
0.00887497
0.0164785
0.02292
0.0283161
0.0327634
0.0363407
0.039112
0.0411535
0.0426284
0.0437045
0.0436912
-0.19667
-0.192425
-0.178854
-0.157442
-0.132137
-0.106145
-0.0814509
-0.0590373
-0.0392201
-0.021952
-0.00702402
0.0058221
0.0168391
0.0262522
0.0342525
0.0409977
0.0466152
0.0512049
0.0548404
0.0575752
0.0594555
0.0605267
0.0608293
0.0603768
0.0587761
-0.15546
-0.152049
-0.139141
-0.118554
-0.0943432
-0.0696393
-0.0463318
-0.0253209
-0.00686775
0.00910542
0.0228213
0.0345416
0.044517
0.0529681
0.0600796
0.0660013
0.0708497
0.0747073
0.07762
0.0796079
0.0806896
0.0808259
0.0797345
0.0770611
0.0733278
-0.113156
-0.110601
-0.0984366
-0.0787952
-0.0558032
-0.0325012
-0.0106738
0.00885984
0.0258905
0.0405241
0.052995
0.0635677
0.0724916
0.0799851
0.086231
0.0913785
0.0955445
0.0988104
0.101218
0.10279
0.103561
0.10339
0.10151
0.0971516
0.092466
-0.069989
-0.0683061
-0.0569617
-0.0383749
-0.0167155
0.00508419
0.0253492
0.0433403
0.0588976
0.0721519
0.0833472
0.0927498
0.100608
0.107139
0.112526
0.116923
0.120458
0.123231
0.125321
0.12683
0.127917
0.128526
0.12768
0.124813
0.127652
-0.026187
-0.0253924
-0.014938
0.00249389
0.0227194
0.0429289
0.0615605
0.0779534
0.0919935
0.103833
0.113725
0.121934
0.128706
0.134256
0.138767
0.142394
0.145269
0.1475
0.149188
0.150462
0.151495
0.152255
0.15219
0.151759
0.156952
0.0180087
0.0179042
0.0274061
0.0435945
0.0622985
0.0808436
0.097783
0.112532
0.125019
0.135415
0.143976
0.150968
0.156633
0.161181
0.164792
0.167621
0.1698
0.171443
0.172656
0.173571
0.174333
0.174908
0.174904
0.174853
0.179484
0.0623567
0.0613471
0.0698423
0.0847109
0.10182
0.11864
0.133841
0.14691
0.157816
0.166744
0.173955
0.17971
0.184244
0.187764
0.190444
0.192435
0.193864
0.194846
0.195484
0.1959
0.196227
0.196435
0.196198
0.195943
0.199547
0.106616
0.1047
0.112143
0.125629
0.141084
0.156134
0.169562
0.180928
0.190233
0.197678
0.203523
0.208024
0.21141
0.21388
0.2156
0.216715
0.217348
0.217603
0.217579
0.217384
0.217129
0.216777
0.216032
0.215291
0.217922
0.150549
0.147728
0.154084
0.166136
0.179895
0.193142
0.204777
0.214426
0.222123
0.228078
0.23255
0.235788
0.238014
0.239416
0.240156
0.240367
0.240166
0.239649
0.238904
0.238028
0.237113
0.23611
0.234746
0.233416
0.23511
0.193918
0.190202
0.195443
0.206026
0.21806
0.229488
0.239323
0.247255
0.253346
0.257813
0.260913
0.262887
0.263949
0.264277
0.264023
0.263314
0.262255
0.260936
0.259435
0.257836
0.256215
0.254517
0.252493
0.250545
0.251345
0.236494
0.231893
0.236004
0.245096
0.255392
0.265
0.273043
0.279268
0.283765
0.286758
0.288497
0.289216
0.289119
0.288375
0.287126
0.285491
0.283566
0.281432
0.279159
0.276821
0.274481
0.272077
0.26939
0.266824
0.266768
0.278051
0.272584
0.275558
0.283152
0.291713
0.299513
0.305783
0.310326
0.313254
0.314794
0.315192
0.314674
0.313433
0.311629
0.309395
0.30684
0.304052
0.301106
0.298062
0.294985
0.291928
0.288828
0.285494
0.282324
0.281448
0.318373
0.31206
0.313902
0.320004
0.326848
0.332868
0.337399
0.340295
0.341688
0.341809
0.340897
0.339169
0.336808
0.333965
0.330763
0.327304
0.323669
0.319922
0.31612
0.312319
0.308562
0.304787
0.30083
0.297077
0.295416
0.35725
0.350117
0.350842
0.355472
0.360631
0.364914
0.367751
0.369047
0.368951
0.367694
0.365511
0.362609
0.359161
0.355309
0.351167
0.34683
0.34237
0.337846
0.333307
0.328804
0.324372
0.319951
0.3154
0.311087
0.308674
0.394482
0.38656
0.386191
0.389384
0.392904
0.395504
0.396706
0.39646
0.39493
0.392349
0.388942
0.38491
0.380415
0.375591
0.370545
0.365361
0.360107
0.354835
0.34959
0.344414
0.339336
0.334301
0.329189
0.324343
0.321213
0.429877
0.421201
0.419774
0.421575
0.423517
0.424502
0.424139
0.422419
0.41952
0.415673
0.4111
0.405989
0.400496
0.394745
0.388835
0.382844
0.376833
0.370849
0.364931
0.359116
0.353427
0.347814
0.342175
0.336824
0.333011
0.463257
0.453867
0.451424
0.451893
0.452329
0.451777
0.44993
0.446814
0.442619
0.437577
0.4319
0.425769
0.419331
0.412704
0.405977
0.399223
0.392498
0.385842
0.37929
0.372873
0.366612
0.360458
0.354328
0.348501
0.344043
0.494452
0.484391
0.480985
0.480192
0.479207
0.47721
0.473968
0.469543
0.464134
0.457971
0.45126
0.444175
0.436853
0.429405
0.421914
0.414447
0.407053
0.399769
0.392626
0.385649
0.378854
0.372199
0.365615
0.359344
0.354281
0.523305
0.512622
0.508313
0.506339
0.504029
0.500687
0.49615
0.49051
0.483976
0.476775
0.469106
0.461136
0.452996
0.444788
0.43659
0.428463
0.420451
0.412588
0.404898
0.397404
0.390118
0.383004
0.376003
0.369321
0.363694
0.549673
0.538417
0.533275
0.53021
0.52668
0.522103
0.51638
0.509627
0.502064
0.493912
0.485368
0.476589
0.4677
0.458797
0.449953
0.441223
0.432647
0.424254
0.416065
0.408101
0.400368
0.392836
0.385457
0.3784
0.372255
0.573422
0.56165
0.555749
0.551693
0.547058
0.541364
0.534569
0.526814
0.518321
0.509313
0.49998
0.490472
0.480909
0.47138
0.461954
0.45268
0.443596
0.434727
0.426091
0.417703
0.409569
0.401663
0.393946
0.38655
0.379935
0.594435
0.582205
0.575627
0.570689
0.56507
0.558386
0.550641
0.541997
0.532682
0.522916
0.512884
0.502731
0.492571
0.482489
0.472548
0.462794
0.453261
0.443971
0.434939
0.426178
0.417689
0.409454
0.401439
0.393742
0.38671
0.612608
0.59998
0.592813
0.587107
0.580636
0.573092
0.564525
0.555111
0.545085
0.534664
0.524028
0.513318
0.502642
0.492081
0.481695
0.471526
0.461605
0.451951
0.442578
0.433494
0.4247
0.416181
0.40791
0.399952
0.392556
0.627851
0.614888
0.607224
0.600872
0.593683
0.585419
0.576161
0.566102
0.55548
0.544509
0.533367
0.522189
0.511081
0.500119
0.489359
0.478843
0.468597
0.458639
0.448979
0.439625
0.430575
0.421818
0.413333
0.405156
0.397454
0.640087
0.626856
0.618791
0.611919
0.604154
0.59531
0.585498
0.574923
0.563822
0.552411
0.540862
0.52931
0.517854
0.506571
0.495512
0.484717
0.47421
0.464008
0.454119
0.444547
0.435293
0.426346
0.417689
0.409335
0.401386
0.649258
0.635824
0.627459
0.620198
0.612001
0.602724
0.592498
0.581536
0.570077
0.558336
0.546484
0.534651
0.522936
0.511412
0.500129
0.489125
0.478423
0.468038
0.457977
0.448243
0.438836
0.429746
0.420961
0.412474
0.404338
0.655316
0.641749
0.633187
0.625668
0.617188
0.607626
0.597128
0.585912
0.574218
0.562261
0.550208
0.538191
0.526305
0.514622
0.503192
0.492051
0.48122
0.470714
0.46054
0.450699
0.44119
0.432006
0.423136
0.414561
0.406301
0.658233
0.644602
0.635945
0.628306
0.619692
0.609996
0.599369
0.588033
0.576228
0.564168
0.552021
0.539915
0.527948
0.51619
0.504689
0.493482
0.482589
0.472026
0.461797
0.451904
0.442346
0.433118
0.424206
0.415589
0.407268
0.657993
0.644368
0.635722
0.628098
0.619501
0.609822
0.599211
0.58789
0.576098
0.56405
0.551913
0.539817
0.527859
0.516108
0.504615
0.493413
0.482526
0.471968
0.461744
0.451855
0.442301
0.433076
0.424167
0.415553
0.407236
0.654598
0.641048
0.632518
0.625046
0.616616
0.607106
0.596656
0.585483
0.573829
0.561907
0.549886
0.537898
0.526038
0.514378
0.502968
0.491845
0.481032
0.470541
0.460381
0.450552
0.441054
0.431881
0.42302
0.414454
0.406204
0.648064
0.634659
0.626349
0.619163
0.611051
0.601859
0.591713
0.580823
0.569431
0.557749
0.545949
0.534164
0.522492
0.511005
0.499758
0.488785
0.478111
0.467751
0.457713
0.448
0.438612
0.429539
0.420769
0.412296
0.404176
0.638423
0.625231
0.617243
0.610477
0.60283
0.594105
0.584404
0.573931
0.562922
0.551593
0.540118
0.528631
0.517236
0.506005
0.494995
0.484243
0.473776
0.463609
0.453752
0.44421
0.434982
0.426059
0.417423
0.409088
0.401161
0.625723
0.61281
0.605244
0.599028
0.591991
0.583878
0.574762
0.564834
0.55433
0.543464
0.532416
0.521323
0.510291
0.499397
0.4887
0.478239
0.468043
0.458131
0.448512
0.439195
0.430179
0.421453
0.412994
0.404842
0.397168
0.610026
0.597458
0.59041
0.584869
0.578582
0.571223
0.562828
0.553574
0.54369
0.533397
0.522876
0.512269
0.501686
0.491208
0.480897
0.470796
0.460936
0.451338
0.442014
0.432975
0.424223
0.41574
0.407502
0.399574
0.392212
0.591409
0.57925
0.572811
0.568066
0.562664
0.556196
0.548654
0.540196
0.531049
0.521434
0.511537
0.501505
0.491454
0.48147
0.471617
0.461943
0.452481
0.443256
0.434283
0.425574
0.417134
0.408942
0.400965
0.393303
0.386311
0.569965
0.558275
0.552532
0.548697
0.544309
0.538863
0.532301
0.524759
0.516459
0.507624
0.498445
0.489076
0.479637
0.470221
0.460895
0.451713
0.442711
0.433916
0.425347
0.417019
0.40894
0.401084
0.39341
0.386054
0.379484
0.5458
0.534636
0.529671
0.526853
0.523601
0.519302
0.513841
0.507329
0.499981
0.492023
0.483653
0.47503
0.466282
0.457505
0.448774
0.440145
0.431661
0.423351
0.415239
0.407342
0.399671
0.392194
0.384864
0.377851
0.371756
0.519035
0.508451
0.504338
0.502636
0.500633
0.497598
0.493352
0.487978
0.481684
0.474697
0.467221
0.459424
0.451439
0.44337
0.435297
0.427283
0.419373
0.411601
0.403994
0.396576
0.389358
0.382305
0.375358
0.368725
0.363152
0.489802
0.47985
0.476656
0.47616
0.47551
0.473849
0.470924
0.466789
0.461643
0.455715
0.449215
0.442318
0.435166
0.427869
0.420516
0.413172
0.405889
0.398706
0.391653
0.384758
0.378037
0.37145
0.364924
0.358706
0.353701
0.458248
0.448976
0.446761
0.447549
0.448347
0.448158
0.446654
0.443853
0.439942
0.435154
0.429705
0.423778
0.417524
0.411061
0.404482
0.397862
0.391257
0.384709
0.378255
0.371927
0.365745
0.359663
0.353596
0.347826
0.34343
0.424533
0.415983
0.414798
0.41694
0.419268
0.420642
0.420647
0.419264
0.41667
0.413097
0.408768
0.403876
0.39858
0.393005
0.387253
0.381405
0.375523
0.369655
0.363841
0.358121
0.352518
0.346981
0.34141
0.336118
0.332371
0.388826
0.381038
0.380925
0.384478
0.388408
0.391421
0.393015
0.393128
0.391923
0.389632
0.386486
0.382687
0.378401
0.373765
0.368887
0.363855
0.358738
0.353589
0.348454
0.343379
0.338391
0.333438
0.328397
0.323613
0.320552
0.351311
0.344318
0.34531
0.350319
0.35591
0.360628
0.36388
0.365555
0.365802
0.364853
0.362945
0.360289
0.357062
0.353408
0.349444
0.345266
0.34095
0.336556
0.332135
0.327737
0.3234
0.319064
0.314588
0.31034
0.307999
0.312179
0.306012
0.308132
0.314629
0.321924
0.328402
0.333367
0.336662
0.338415
0.338858
0.338235
0.336766
0.334636
0.332001
0.328986
0.325695
0.32221
0.318599
0.314919
0.311228
0.307571
0.303886
0.300006
0.296321
0.294732
0.271633
0.266317
0.269579
0.277581
0.286611
0.294888
0.301611
0.306571
0.309874
0.311752
0.312452
0.312203
0.311204
0.309616
0.307576
0.305195
0.302565
0.299759
0.296842
0.29388
0.290926
0.287919
0.284666
0.281566
0.280764
0.229883
0.225441
0.229845
0.239358
0.250139
0.26024
0.268753
0.275411
0.280299
0.283641
0.285693
0.286692
0.286845
0.286326
0.285278
0.283823
0.282061
0.280073
0.277931
0.275711
0.273477
0.271168
0.268566
0.266071
0.266089
0.187151
0.183596
0.189137
0.200151
0.212682
0.224619
0.23494
0.243318
0.249812
0.254642
0.258064
0.260328
0.261647
0.262206
0.262159
0.261635
0.260743
0.259574
0.258207
0.256729
0.255218
0.253618
0.25168
0.249805
0.250679
0.143661
0.141007
0.147666
0.160156
0.174423
0.188191
0.200324
0.210433
0.218545
0.224872
0.229675
0.233209
0.2357
0.237339
0.23829
0.238691
0.238659
0.238295
0.237688
0.236935
0.236131
0.235228
0.233952
0.232696
0.234465
0.0996468
0.0978997
0.105649
0.119577
0.135549
0.151129
0.165066
0.176902
0.186632
0.194457
0.200641
0.205444
0.2091
0.21181
0.213746
0.215054
0.215859
0.216269
0.216384
0.216313
0.21617
0.21592
0.215263
0.214597
0.217303
0.0553455
0.0545078
0.0633095
0.0786224
0.0962534
0.113612
0.12933
0.142878
0.154215
0.16353
0.171086
0.177147
0.181956
0.185719
0.188617
0.190802
0.192405
0.193542
0.194319
0.194861
0.1953
0.19561
0.195463
0.195284
0.198962
0.0109979
0.0110674
0.0208743
0.0375064
0.0567347
0.075823
0.0932858
0.108519
0.121443
0.13223
0.141141
0.148443
0.154384
0.159178
0.163008
0.166031
0.168384
0.170182
0.171534