/*--------------------------------*- C++ -*----------------------------------*\
  =========                 |
  \\      /  F ield         | OpenFOAM: The Open Source CFD Toolbox
   \\    /   O peration     | Website:  https://openfoam.org
    \\  /    A nd           | Version:  6.0
     \\/     M anipulation  |
\*---------------------------------------------------------------------------*/
FoamFile
{
    version     2.0;
    format      ascii;
    class       volVectorField;
    location    "71";
    object      U;
}
// * * * * * * * * * * * * * * * * * * * * * * * * * * * * * * * * * * * * * //

dimensions      [0 1 -1 0 0 0 0];

internalField   nonuniform List<vector> 
4000
(
(0.123977 0.00867273 8.43959e-20)
(0.383282 0.0438693 -4.62333e-20)
(0.636683 0.101796 5.46504e-20)
(0.863272 0.164481 -4.0704e-20)
(1.04851 0.221149 -1.82445e-20)
(1.18736 0.266431 5.59075e-21)
(1.28284 0.298675 -1.78618e-20)
(1.34257 0.318842 6.41138e-20)
(1.37556 0.329225 -5.33639e-20)
(1.39012 0.332425 1.2546e-20)
(1.3929 0.330765 -9.32891e-21)
(1.38872 0.326058 -6.06919e-20)
(1.38079 0.319589 5.88599e-20)
(1.37113 0.312203 2.24012e-20)
(1.36095 0.304431 -2.22274e-20)
(1.35092 0.296584 5.21918e-20)
(1.34145 0.288826 -7.90154e-22)
(1.33275 0.281286 -5.04765e-20)
(1.32494 0.274313 3.72782e-20)
(1.31812 0.267667 1.1817e-20)
(0.139579 0.0146809 -2.96185e-20)
(0.419849 0.0617178 8.56185e-20)
(0.683658 0.129305 9.93348e-20)
(0.911212 0.197938 -4.70428e-20)
(1.09047 0.256772 8.16514e-20)
(1.21958 0.30131 1.2926e-19)
(1.30439 0.331069 -7.24121e-21)
(1.35439 0.348031 -2.22729e-20)
(1.37952 0.35519 1.09521e-19)
(1.38826 0.355523 5.34507e-20)
(1.38706 0.351483 -9.71842e-21)
(1.38032 0.344871 7.97951e-20)
(1.37085 0.336894 -8.55744e-20)
(1.36033 0.328309 1.33467e-19)
(1.3497 0.319562 -2.22205e-20)
(1.33951 0.310906 6.39228e-20)
(1.33003 0.302459 1.1576e-20)
(1.32144 0.29434 4.55995e-20)
(1.31377 0.286904 -4.33275e-20)
(1.30712 0.279773 1.07259e-20)
(0.155149 0.0218701 -4.60943e-20)
(0.455065 0.082029 1.07451e-19)
(0.727261 0.159393 8.02354e-20)
(0.95384 0.233368 -1.22355e-20)
(1.12586 0.29352 1.25784e-19)
(1.24486 0.336555 -9.49472e-20)
(1.31936 0.363306 -7.42963e-21)
(1.36047 0.376792 8.31891e-20)
(1.37874 0.380645 2.63163e-20)
(1.38266 0.378137 3.71441e-20)
(1.37831 0.37179 -5.49319e-20)
(1.36967 0.36335 1.43867e-19)
(1.35914 0.353926 2.69763e-20)
(1.34808 0.344177 -1.27526e-19)
(1.33726 0.334475 1.87255e-19)
(1.32705 0.325013 -2.20952e-19)
(1.31768 0.315875 -1.01711e-19)
(1.30927 0.307171 1.70085e-20)
(1.30181 0.29926 9.84851e-20)
(1.29539 0.291617 -1.87412e-19)
(0.170439 0.0302263 -1.01755e-19)
(0.488358 0.104633 -2.41197e-19)
(0.766866 0.191712 -2.09841e-19)
(0.990722 0.270328 -2.85096e-19)
(1.15457 0.330956 -1.62459e-19)
(1.26338 0.371803 -3.36707e-19)
(1.32815 0.395123 4.28443e-20)
(1.36129 0.404946 -1.7959e-19)
(1.37371 0.405467 -1.98837e-20)
(1.37371 0.400176 2.96506e-20)
(1.36696 0.391604 -6.54792e-20)
(1.35697 0.38141 8.26811e-20)
(1.34578 0.370592 1.4741e-19)
(1.33448 0.359713 -2.06728e-19)
(1.32363 0.349068 3.40656e-20)
(1.31355 0.338804 9.70094e-20)
(1.3044 0.32897 1.62646e-19)
(1.29623 0.319677 -1.40266e-19)
(1.28903 0.31128 -6.76349e-21)
(1.2829 0.303107 1.66088e-19)
(0.185193 0.0397046 -1.90975e-19)
(0.519194 0.129296 5.26966e-19)
(0.801945 0.225864 -9.23486e-20)
(1.02155 0.308355 1.24129e-19)
(1.17658 0.368651 -1.21027e-19)
(1.27539 0.406713 3.73562e-19)
(1.33116 0.426273 -5.94509e-20)
(1.35728 0.432322 3.51418e-20)
(1.36481 0.429534 -1.86451e-20)
(1.36174 0.421542 5.87627e-20)
(1.35324 0.410835 3.81754e-20)
(1.34239 0.398961 4.93673e-20)
(1.33087 0.3868 -1.38722e-19)
(1.31955 0.374818 2.04752e-19)
(1.30886 0.363245 -1.55966e-19)
(1.29903 0.35218 3.06159e-20)
(1.29017 0.34165 -1.00958e-19)
(1.28232 0.331768 2.21602e-20)
(1.27543 0.322876 2.52758e-20)
(1.26964 0.314161 -2.30725e-19)
(0.199166 0.05023 1.26661e-20)
(0.547094 0.155734 -2.64414e-19)
(0.832074 0.26141 1.47175e-19)
(1.04615 0.346971 -5.11862e-19)
(1.19199 0.406181 2.48878e-19)
(1.28118 0.440954 -4.26878e-19)
(1.32878 0.456515 -3.35405e-19)
(1.34886 0.458747 -1.29163e-20)
(1.35242 0.452714 -1.14837e-19)
(1.34701 0.442119 -3.61307e-19)
(1.33734 0.429372 -4.63048e-20)
(1.32604 0.415889 -3.52129e-19)
(1.31449 0.402431 6.3071e-20)
(1.30335 0.389375 -5.17999e-20)
(1.29296 0.376887 3.07014e-20)
(1.28347 0.365029 -2.44195e-19)
(1.27499 0.353806 1.04068e-20)
(1.26754 0.343335 4.77861e-20)
(1.26102 0.333945 -1.16482e-19)
(1.25563 0.324684 1.01011e-19)
(0.21212 0.0616981 -1.07666e-19)
(0.571638 0.18361 4.81654e-19)
(0.856932 0.297881 4.66941e-21)
(1.06444 0.385697 -4.18214e-19)
(1.20098 0.443136 3.18388e-19)
(1.2811 0.474211 1.34833e-19)
(1.3214 0.48562 2.70198e-20)
(1.33639 0.484049 -2.3067e-19)
(1.33682 0.474865 3.75007e-19)
(1.32976 0.46178 -2.23972e-19)
(1.31941 0.447089 7.86765e-20)
(1.30801 0.432069 3.83249e-19)
(1.29668 0.417363 -3.48483e-19)
(1.28591 0.40326 3.84873e-19)
(1.27595 0.389875 -2.50495e-19)
(1.26691 0.377234 -4.87677e-20)
(1.25889 0.365325 6.00487e-20)
(1.25188 0.354275 7.83337e-20)
(1.24579 0.344387 1.09425e-19)
(1.24086 0.334586 6.52138e-20)
(0.223837 0.0739774 4.26437e-20)
(0.592481 0.212554 -4.31128e-19)
(0.876303 0.33479 7.66303e-20)
(1.07644 0.424057 1.00951e-18)
(1.20376 0.479119 -9.26452e-20)
(1.27548 0.506182 2.83555e-19)
(1.30941 0.513361 1.78119e-19)
(1.32021 0.508053 2.89345e-20)
(1.31829 0.495837 -2.11208e-19)
(1.31017 0.480385 3.47299e-19)
(1.29958 0.463849 -4.32089e-20)
(1.28839 0.447364 5.41912e-19)
(1.2775 0.431458 2.1261e-19)
(1.26726 0.416342 1.35616e-19)
(1.25785 0.402082 -2.83077e-19)
(1.24935 0.388672 6.03837e-20)
(1.24187 0.376092 2.23706e-19)
(1.23538 0.364473 6.04586e-20)
(1.22977 0.354092 -2.7671e-19)
(1.22537 0.343767 -7.00442e-20)
(0.23412 0.0869125 -2.39065e-19)
(0.609348 0.242164 7.71985e-19)
(0.890067 0.371643 -4.20724e-19)
(1.08225 0.461586 -3.89396e-19)
(1.20062 0.513752 -3.40665e-19)
(1.26469 0.536577 -2.8984e-19)
(1.29315 0.539519 -3.61618e-19)
(1.30063 0.53058 4.57268e-19)
(1.29705 0.515476 -3.3158e-19)
(1.28841 0.497785 -2.75418e-20)
(1.27795 0.479507 -1.51225e-21)
(1.26726 0.461629 -6.5094e-20)
(1.25701 0.444575 -1.71734e-19)
(1.24745 0.428484 -1.95599e-19)
(1.2387 0.413376 -1.04963e-20)
(1.23084 0.39922 -4.41763e-20)
(1.22397 0.385987 -1.12865e-19)
(1.21806 0.373815 -3.67119e-20)
(1.213 0.362954 3.64556e-20)
(1.20918 0.352133 -2.49921e-19)
(0.242803 0.100327 4.16694e-19)
(0.622043 0.272021 4.33505e-19)
(0.898195 0.407947 -2.70187e-19)
(1.08205 0.497836 1.66377e-19)
(1.19187 0.546675 2.91492e-19)
(1.24909 0.565123 -6.31947e-20)
(1.27298 0.563883 7.18431e-20)
(1.27793 0.551455 8.51157e-20)
(1.27333 0.533618 1.42501e-19)
(1.26463 0.513826 -1.69908e-19)
(1.25465 0.493909 8.26907e-20)
(1.24469 0.474716 -6.09169e-20)
(1.23526 0.456569 2.67654e-19)
(1.22652 0.439545 1.23308e-19)
(1.21855 0.423623 -2.74352e-19)
(1.21142 0.408749 1.54924e-19)
(1.20523 0.394888 7.65308e-20)
(1.19996 0.382184 -1.48548e-19)
(1.19551 0.37086 4.00964e-19)
(1.19235 0.359582 -2.99781e-19)
(0.249745 0.114029 -3.06297e-19)
(0.630445 0.301694 -3.99959e-19)
(0.900742 0.44322 2.8356e-19)
(1.07607 0.53238 -2.60966e-19)
(1.17785 0.577551 -2.18292e-20)
(1.22905 0.591562 -2.97301e-19)
(1.24922 0.586246 2.43746e-19)
(1.25238 0.570502 4.6962e-19)
(1.24732 0.550104 -6.54908e-19)
(1.23896 0.528349 3.36231e-20)
(1.22975 0.5069 2.73881e-20)
(1.22075 0.48647 -1.39476e-19)
(1.21231 0.467291 9.26191e-20)
(1.20453 0.449381 -4.25302e-20)
(1.19745 0.432685 2.9535e-19)
(1.19114 0.417126 -3.1879e-19)
(1.18571 0.402667 -1.17578e-19)
(1.18114 0.389455 2.99069e-19)
(1.17737 0.377691 -4.66484e-19)
(1.17493 0.366008 2.94534e-19)
(0.254842 0.127814 6.39384e-19)
(0.634508 0.330755 5.7049e-19)
(0.897836 0.476996 -9.51502e-20)
(1.06459 0.564816 -1.26268e-20)
(1.15891 0.606064 -2.95994e-19)
(1.20492 0.615652 1.25417e-19)
(1.22218 0.606416 6.46181e-19)
(1.22421 0.58755 -5.7167e-19)
(1.21919 0.564771 3.75906e-19)
(1.21155 0.541199 -3.58737e-20)
(1.20337 0.518326 2.40925e-19)
(1.19551 0.49674 -5.33012e-20)
(1.18822 0.476592 1.49919e-19)
(1.18154 0.45785 2.04961e-19)
(1.17547 0.440423 -1.06255e-19)
(1.17007 0.424218 1.4513e-19)
(1.16547 0.409192 -2.2049e-19)
(1.16168 0.395496 5.58056e-19)
(1.15866 0.383313 -3.63247e-19)
(1.15701 0.37128 2.62753e-19)
(0.258022 0.14147 -3.16965e-19)
(0.634254 0.358779 -5.92126e-19)
(0.889675 0.508835 -4.09497e-19)
(1.04794 0.594773 -3.2434e-20)
(1.13545 0.631927 1.00589e-19)
(1.17708 0.63717 -5.54266e-20)
(1.19218 0.624207 -3.66539e-19)
(1.19368 0.602436 -1.67038e-19)
(1.18914 0.577464 -3.15676e-19)
(1.18251 0.552222 -1.71183e-19)
(1.17559 0.528035 8.40947e-20)
(1.16905 0.505376 -4.03151e-19)
(1.16306 0.484326 -1.04771e-19)
(1.15761 0.464807 -1.08072e-19)
(1.15266 0.446699 -3.35775e-19)
(1.14828 0.429888 1.50303e-19)
(1.14459 0.414326 -6.23735e-21)
(1.14164 0.400166 1.5104e-19)
(1.13944 0.387576 -6.35997e-20)
(1.13866 0.375249 -2.52938e-19)
(0.259249 0.154781 7.32782e-19)
(0.629774 0.38536 6.37335e-19)
(0.876514 0.538323 8.07327e-19)
(1.0265 0.621911 -8.33513e-20)
(1.10786 0.654879 -3.08183e-19)
(1.14587 0.655912 8.9788e-19)
(1.1595 0.63945 -4.65483e-19)
(1.161 0.615006 5.28522e-19)
(1.15733 0.588037 -1.02545e-19)
(1.15198 0.561275 3.4076e-19)
(1.14651 0.535884 3.67967e-20)
(1.14144 0.512237 1.85972e-19)
(1.1369 0.490351 -4.34543e-20)
(1.1328 0.470111 2.01053e-19)
(1.12911 0.451371 -1.85605e-19)
(1.12585 0.433999 3.61307e-22)
(1.12314 0.417934 9.22577e-20)
(1.1211 0.403321 1.59352e-19)
(1.11979 0.390328 -3.32e-20)
(1.11993 0.377767 1.04393e-19)
(0.258521 0.167535 -2.27015e-19)
(0.621216 0.410113 -6.46847e-19)
(0.858658 0.565086 -3.94929e-19)
(1.00064 0.645925 -6.99918e-19)
(1.07652 0.674687 7.68591e-19)
(1.11166 0.671698 -5.66324e-19)
(1.12445 0.651995 3.68047e-19)
(1.12642 0.625123 -1.22798e-19)
(1.12393 0.596356 -1.7046e-19)
(1.12009 0.568226 -1.22939e-19)
(1.11623 0.541745 6.30439e-20)
(1.11277 0.517192 1.0304e-19)
(1.10979 0.494533 1.00571e-19)
(1.10718 0.473626 -1.17776e-19)
(1.10486 0.454301 -1.07899e-19)
(1.10283 0.436409 3.45136e-19)
(1.10122 0.419872 -1.73644e-20)
(1.10015 0.404817 -1.69949e-19)
(1.09979 0.391433 -2.65007e-21)
(1.10084 0.378727 -5.77191e-20)
(0.25587 0.179525 1.0296e-18)
(0.608787 0.432681 4.88634e-19)
(0.836457 0.588784 4.55442e-19)
(0.970782 0.666548 -2.77595e-19)
(1.04186 0.691151 3.87176e-20)
(1.07481 0.684371 4.06243e-19)
(1.08731 0.661707 6.16708e-20)
(1.09015 0.632663 1.44064e-19)
(1.08912 0.602306 1.66099e-19)
(1.08698 0.572963 3.08211e-20)
(1.08485 0.545504 1.12314e-19)
(1.0831 0.520128 -6.1368e-21)
(1.08178 0.496757 -4.07941e-20)
(1.08076 0.475226 -1.97116e-19)
(1.07995 0.455352 4.04917e-20)
(1.0793 0.436971 3.70271e-21)
(1.07889 0.419985 -1.75453e-21)
(1.07888 0.404491 1.30858e-20)
(1.07952 0.390727 -5.07534e-20)
(1.08155 0.37799 7.123e-20)
(0.25136 0.190555 -7.52419e-19)
(0.592738 0.452739 -6.53686e-19)
(0.810297 0.609118 3.2489e-19)
(0.937362 0.683549 -4.1122e-19)
(1.00429 0.7041 -2.72199e-20)
(1.03567 0.693799 7.7633e-20)
(1.04838 0.668475 -7.22217e-20)
(1.05243 0.637527 -5.005e-20)
(1.05308 0.605791 -1.56678e-19)
(1.05277 0.575395 -9.46105e-20)
(1.05247 0.547077 1.09685e-20)
(1.05251 0.520959 -1.35305e-19)
(1.05291 0.496931 3.60587e-20)
(1.05358 0.474811 -4.67287e-20)
(1.05441 0.45441 1.68256e-20)
(1.05529 0.435555 5.70196e-20)
(1.05624 0.418126 2.77247e-20)
(1.0574 0.402159 2.20073e-20)
(1.05919 0.387932 4.15899e-21)
(1.06249 0.375183 -2.36863e-20)
(0.245086 0.200443 7.27095e-19)
(0.573364 0.470001 1.34729e-20)
(0.780593 0.625835 -6.07024e-20)
(0.900825 0.696738 7.5381e-20)
(0.964211 0.713395 3.23839e-19)
(0.994599 0.699876 -2.21511e-19)
(1.00794 0.672212 1.41105e-19)
(1.01349 0.639635 -1.69328e-19)
(1.016 0.606741 8.43024e-20)
(1.01762 0.575458 -5.48893e-20)
(1.01921 0.5464 2.88572e-20)
(1.02105 0.519622 1.22189e-20)
(1.0232 0.494984 -2.29828e-20)
(1.02561 0.472293 -2.92088e-21)
(1.02818 0.45136 1.10257e-21)
(1.03077 0.432027 -1.23036e-20)
(1.03327 0.414148 -1.21435e-20)
(1.03588 0.397614 -1.46235e-20)
(1.03925 0.382629 6.73136e-22)
(1.04434 0.369621 -5.8887e-21)
(0.237168 0.209023 -1.50059e-19)
(0.550998 0.484218 1.56344e-19)
(0.747785 0.638721 1.43239e-19)
(0.861629 0.705962 -2.19578e-19)
(0.92206 0.71893 1.21866e-19)
(0.951959 0.702524 -2.08335e-19)
(0.966296 0.672853 -1.03882e-20)
(0.973577 0.638937 -2.30486e-20)
(0.978071 0.605115 -2.38073e-20)
(0.981683 0.573124 -5.2493e-21)
(0.985169 0.543457 -2.55278e-20)
(0.988794 0.516101 -3.09343e-20)
(0.992644 0.49088 1.66682e-20)
(0.996737 0.467584 -8.97791e-20)
(1.00104 0.44603 8.40775e-20)
(1.0054 0.426095 5.40472e-20)
(1.00968 0.407623 -2.50606e-20)
(1.01414 0.390269 4.78133e-21)
(1.01977 0.374014 9.72747e-20)
(1.02696 0.360372 -3.82121e-20)
(0.227751 0.216152 -5.16566e-20)
(0.525998 0.495183 1.3568e-19)
(0.712328 0.64761 -1.75994e-19)
(0.820239 0.711105 2.40183e-19)
(0.878254 0.720628 2.69191e-20)
(0.908112 0.701688 -9.53054e-20)
(0.923754 0.670361 -1.6905e-20)
(0.932947 0.635408 1.21174e-20)
(0.939517 0.600908 -8.65474e-21)
(0.945147 0.568415 5.90437e-21)
(0.950499 0.538305 1.52886e-20)
(0.95582 0.510495 -5.27021e-21)
(0.961219 0.484752 4.7426e-20)
(0.966773 0.460816 -5.52035e-20)
(0.972518 0.438463 6.1053e-20)
(0.978372 0.417555 -1.21785e-19)
(0.984237 0.397877 1.46296e-19)
(0.990601 0.378743 -1.28401e-19)
(0.998537 0.359866 -7.59869e-20)
(1.00686 0.344868 1.45329e-19)
(0.217001 0.221707 1.06378e-19)
(0.498746 0.502734 3.82373e-20)
(0.674692 0.652375 5.78022e-20)
(0.777123 0.712088 4.2213e-20)
(0.833218 0.718441 -5.05571e-20)
(0.863428 0.697338 1.5031e-20)
(0.880631 0.664715 -2.62439e-20)
(0.891879 0.62904 1.69921e-20)
(0.900592 0.594135 3.389e-20)
(0.90825 0.561382 -6.31585e-20)
(0.915434 0.53106 9.25869e-20)
(0.922359 0.503027 -3.19195e-20)
(0.929124 0.477001 8.02499e-20)
(0.935808 0.452659 -1.25389e-19)
(0.942459 0.429693 2.6764e-19)
(0.94903 0.40784 -5.50752e-20)
(0.955547 0.386664 -1.53076e-20)
(0.962755 0.364809 1.9151e-19)
(0.971497 0.340206 -9.13947e-20)
(0.976386 0.315625 5.15539e-20)
(0.2051 0.225588 4.6749e-20)
(0.469639 0.506746 -1.70227e-19)
(0.635351 0.652933 -1.96408e-20)
(0.73275 0.708865 -3.93397e-20)
(0.787376 0.712346 8.04313e-21)
(0.818274 0.689462 -7.41342e-20)
(0.83725 0.655909 1.05739e-19)
(0.850667 0.619831 1.08978e-20)
(0.861574 0.5848 -1.41645e-20)
(0.871277 0.552044 5.62912e-21)
(0.880287 0.521768 5.36751e-20)
(0.888796 0.4938 9.68645e-20)
(0.896877 0.467856 5.55468e-20)
(0.904565 0.443638 -1.36636e-19)
(0.911843 0.420883 -4.5072e-20)
(0.918642 0.399396 6.40266e-22)
(0.925081 0.3789 3.15026e-20)
(0.931817 0.358656 6.63599e-21)
(0.938799 0.337899 3.19735e-19)
(0.941009 0.318919 -2.21715e-19)
(0.192238 0.227716 -2.3572e-20)
(0.439081 0.507134 5.66122e-20)
(0.59478 0.649235 -6.2445e-20)
(0.687581 0.701421 1.12299e-19)
(0.741143 0.702347 6.84518e-20)
(0.773017 0.678068 -1.30594e-19)
(0.793935 0.643949 1.36268e-19)
(0.809608 0.607787 -4.17874e-20)
(0.822745 0.572906 1.35341e-19)
(0.834507 0.540394 7.23509e-20)
(0.845357 0.510391 -2.90671e-19)
(0.855481 0.4827 -3.08756e-20)
(0.864959 0.457035 4.26001e-19)
(0.873827 0.433106 -5.26609e-19)
(0.882059 0.410658 4.88422e-19)
(0.889579 0.389489 1.74674e-19)
(0.896462 0.369301 -6.10764e-19)
(0.903156 0.349475 3.01852e-19)
(0.909484 0.329682 -5.89866e-20)
(0.911679 0.312523 7.24283e-20)
(0.178616 0.228036 -1.13171e-19)
(0.407482 0.503853 -1.2786e-19)
(0.553449 0.641273 8.71275e-20)
(0.642072 0.689774 -1.39839e-19)
(0.69493 0.68847 -4.47806e-19)
(0.728019 0.663181 -3.03269e-20)
(0.751009 0.628856 -1.40614e-19)
(0.768995 0.592923 -3.65112e-21)
(0.784382 0.558467 -3.15661e-19)
(0.798205 0.52645 -3.23758e-19)
(0.81089 0.496961 -2.31459e-19)
(0.822621 0.46979 -1.1228e-20)
(0.833489 0.44466 -5.637e-19)
(0.843546 0.421302 -1.31953e-20)
(0.852792 0.399495 2.80056e-19)
(0.861194 0.379074 -2.76744e-19)
(0.868837 0.359807 -2.20167e-19)
(0.876083 0.341223 2.13218e-19)
(0.882748 0.323113 -1.51116e-19)
(0.885741 0.307521 2.95871e-20)
(0.164442 0.226516 1.30256e-19)
(0.375249 0.496895 1.00526e-19)
(0.511822 0.629076 -1.28789e-20)
(0.596668 0.673972 -1.22579e-19)
(0.649134 0.670766 2.4573e-19)
(0.68363 0.644848 4.40272e-19)
(0.708787 0.610665 -4.96568e-20)
(0.72912 0.575263 5.3521e-22)
(0.746765 0.541492 7.9598e-20)
(0.762651 0.510201 2.04379e-19)
(0.777183 0.481437 3.04877e-19)
(0.790549 0.454982 -2.53942e-19)
(0.802859 0.430566 2.43336e-19)
(0.814182 0.407935 -9.01397e-20)
(0.824541 0.386882 2.91354e-19)
(0.833933 0.36725 -1.14227e-19)
(0.842474 0.348835 -2.91464e-19)
(0.85053 0.331268 1.71922e-19)
(0.857946 0.31447 -2.51552e-19)
(0.862013 0.300166 -2.84592e-19)
(0.149922 0.223145 8.74285e-20)
(0.342784 0.486288 1.44357e-19)
(0.470348 0.612706 -1.49683e-19)
(0.551798 0.654093 -2.73705e-21)
(0.604141 0.649313 2.57536e-20)
(0.64019 0.623134 2.33494e-19)
(0.66757 0.58943 -3.39108e-19)
(0.690258 0.554846 3.21329e-19)
(0.710146 0.522008 -3.5199e-20)
(0.72808 0.491663 8.77519e-20)
(0.744448 0.46382 1.47942e-19)
(0.759456 0.43826 -2.82808e-19)
(0.773235 0.414722 1.31095e-19)
(0.785878 0.392968 1.26811e-19)
(0.797436 0.372806 4.77464e-20)
(0.807939 0.354086 -2.44246e-19)
(0.817528 0.336622 8.22283e-19)
(0.826561 0.320094 -4.65309e-19)
(0.834877 0.304463 8.40667e-19)
(0.840068 0.291158 -5.42456e-20)
(0.135263 0.217934 7.28882e-20)
(0.310478 0.472095 3.67389e-19)
(0.429461 0.59226 1.38275e-19)
(0.507872 0.630243 2.69943e-19)
(0.560319 0.62421 7.61308e-20)
(0.598025 0.598125 -4.51452e-19)
(0.62765 0.565221 7.06623e-19)
(0.652674 0.53173 3.73627e-19)
(0.674772 0.500058 1.74197e-20)
(0.694721 0.470859 4.85377e-19)
(0.712905 0.444116 8.3337e-20)
(0.729544 0.419607 5.03034e-20)
(0.744794 0.397082 2.91113e-19)
(0.758773 0.376314 -1.11e-19)
(0.771561 0.35712 -1.13424e-19)
(0.783216 0.339357 6.83705e-19)
(0.793906 0.322847 -5.68635e-19)
(0.803978 0.307316 2.09899e-20)
(0.813258 0.292745 7.24066e-19)
(0.819596 0.280309 -7.30042e-22)
(0.120664 0.210913 -8.1186e-19)
(0.278707 0.454411 -1.20814e-19)
(0.389576 0.567866 -1.78554e-19)
(0.465283 0.602556 -1.41089e-19)
(0.518016 0.595583 -3.69864e-19)
(0.557441 0.569932 1.25949e-19)
(0.589301 0.53813 -1.82137e-19)
(0.616615 0.505988 5.81365e-20)
(0.640869 0.4757 -2.64015e-19)
(0.662785 0.447837 -2.44237e-19)
(0.682743 0.422357 5.813e-20)
(0.700986 0.399041 -4.03596e-19)
(0.717692 0.37765 3.27625e-19)
(0.733004 0.357968 -1.1921e-19)
(0.747026 0.339821 3.66842e-19)
(0.759844 0.323068 -7.92376e-19)
(0.771644 0.307541 -1.51407e-19)
(0.782754 0.292998 -2.85845e-19)
(0.792996 0.279424 -7.66043e-19)
(0.800465 0.267778 -1.24681e-19)
(0.106323 0.202132 1.29462e-19)
(0.24783 0.433362 -1.07866e-20)
(0.351087 0.539683 -2.14516e-19)
(0.424401 0.571195 7.67246e-20)
(0.477563 0.563581 -1.55805e-19)
(0.518731 0.538685 -1.68203e-21)
(0.552783 0.508271 2.1071e-19)
(0.582316 0.477717 -3.1734e-19)
(0.608651 0.449016 1.21816e-19)
(0.632463 0.422661 -7.16962e-20)
(0.654137 0.398594 2.12999e-20)
(0.673934 0.3766 -3.57478e-19)
(0.692058 0.35645 -4.34101e-19)
(0.708672 0.337942 -1.70777e-20)
(0.723904 0.320908 4.8461e-19)
(0.737863 0.305211 2.17153e-20)
(0.750748 0.290694 6.14145e-19)
(0.762866 0.277143 -8.97796e-19)
(0.774042 0.26454 4.75684e-19)
(0.782612 0.253655 8.25806e-19)
(0.092426 0.191658 -1.23353e-19)
(0.218191 0.4091 6.57923e-20)
(0.314364 0.507898 4.33545e-19)
(0.385573 0.536347 1.09049e-19)
(0.439268 0.528376 -1.44718e-19)
(0.482167 0.504536 1.15826e-19)
(0.518337 0.475775 4.54682e-19)
(0.549995 0.447033 -3.70374e-19)
(0.578314 0.420107 3.44608e-20)
(0.603935 0.39542 -1.35852e-19)
(0.627247 0.372903 4.90377e-19)
(0.648533 0.352349 3.51379e-19)
(0.668016 0.333541 -5.06912e-20)
(0.685882 0.316288 -5.31193e-19)
(0.702278 0.300431 2.83636e-20)
(0.717334 0.28584 -6.6276e-20)
(0.731255 0.272366 3.12716e-19)
(0.744328 0.259822 5.08822e-19)
(0.756395 0.248184 4.44109e-19)
(0.766022 0.238057 -7.43884e-19)
(0.0791505 0.179577 -7.96208e-20)
(0.190106 0.381809 3.39027e-19)
(0.279751 0.472727 -3.28096e-19)
(0.349121 0.498226 4.62837e-19)
(0.403418 0.490165 -2.49143e-19)
(0.448 0.467659 1.821e-19)
(0.486187 0.440796 4.58338e-19)
(0.519852 0.414071 -5.54421e-19)
(0.550042 0.389092 2.53051e-19)
(0.577365 0.366222 3.20044e-19)
(0.602221 0.345382 -4.33481e-19)
(0.624911 0.326375 -2.91583e-20)
(0.645679 0.309 -3.46674e-19)
(0.664729 0.293078 5.58564e-19)
(0.682225 0.278461 -3.02142e-19)
(0.698317 0.265023 3.24138e-19)
(0.713211 0.25263 -5.78251e-20)
(0.727175 0.241117 2.01522e-19)
(0.740076 0.230453 4.66432e-20)
(0.750707 0.2211 -1.17235e-19)
(0.0666625 0.165988 -2.4889e-19)
(0.163873 0.351695 -5.66673e-19)
(0.247568 0.43441 1.48663e-19)
(0.315342 0.457067 -4.7915e-19)
(0.370277 0.449162 -4.55998e-19)
(0.416464 0.428249 -3.29052e-19)
(0.456542 0.403507 2.55854e-19)
(0.492075 0.378987 1.96674e-19)
(0.524001 0.356113 -8.70839e-22)
(0.552905 0.335194 -1.71221e-19)
(0.579195 0.316145 -3.11256e-19)
(0.603191 0.298786 2.80319e-19)
(0.625154 0.282928 -9.60369e-20)
(0.645305 0.268409 -4.75244e-19)
(0.663825 0.255089 3.09203e-19)
(0.680877 0.242854 -2.31875e-19)
(0.69667 0.231581 -9.42912e-20)
(0.711453 0.221127 -2.64836e-19)
(0.725125 0.211452 -2.38599e-19)
(0.736695 0.202902 6.19671e-20)
(0.0551153 0.151007 2.16838e-19)
(0.139764 0.318988 1.11402e-19)
(0.218104 0.393211 1.72165e-19)
(0.284506 0.413128 -5.92767e-19)
(0.340082 0.405606 6.34092e-19)
(0.387769 0.386517 8.66841e-22)
(0.429588 0.364099 4.4049e-21)
(0.466832 0.341953 -3.86698e-19)
(0.500344 0.321327 3.61194e-19)
(0.530692 0.302479 -2.52031e-19)
(0.558294 0.285327 7.45295e-20)
(0.583483 0.269705 -3.36398e-19)
(0.606539 0.255443 -1.60364e-19)
(0.627696 0.242391 -7.65707e-20)
(0.647152 0.230425 5.7515e-19)
(0.66508 0.219439 -2.81801e-19)
(0.681689 0.209325 -2.54983e-19)
(0.697212 0.199959 2.6099e-19)
(0.711588 0.191295 -2.14527e-19)
(0.724023 0.183581 1.67529e-19)
(0.0446484 0.134763 4.69548e-19)
(0.118022 0.283939 -2.84168e-19)
(0.19162 0.349414 4.19175e-20)
(0.256854 0.366686 4.9632e-19)
(0.313051 0.359749 1.98545e-19)
(0.362105 0.342692 2.44977e-19)
(0.405494 0.322779 2.4384e-19)
(0.444275 0.303157 5.16832e-19)
(0.47921 0.284905 -1.17898e-19)
(0.510852 0.268237 2.82776e-19)
(0.539629 0.253076 4.10388e-19)
(0.565889 0.239272 1.51181e-19)
(0.589925 0.226675 2.7308e-19)
(0.611985 0.215151 9.90849e-20)
(0.632279 0.20459 5.75708e-20)
(0.650991 0.194897 -4.17787e-20)
(0.668326 0.185979 3.37852e-19)
(0.684507 0.17773 2.08115e-19)
(0.699511 0.170099 -1.89047e-19)
(0.71273 0.16326 1.78978e-19)
(0.0353862 0.117399 -3.13173e-19)
(0.0988652 0.246819 3.42586e-20)
(0.168346 0.303324 -9.04226e-20)
(0.232599 0.318036 -2.75758e-19)
(0.28937 0.311862 -1.44987e-19)
(0.339639 0.297018 -2.65215e-19)
(0.38441 0.279767 1.24419e-19)
(0.424539 0.262801 -4.76909e-19)
(0.46072 0.247034 2.82341e-19)
(0.493495 0.232642 -3.89138e-19)
(0.523301 0.219554 -2.41202e-19)
(0.550499 0.207639 -3.1936e-19)
(0.575393 0.196768 7.32406e-20)
(0.598244 0.186826 -7.20648e-20)
(0.619271 0.177716 8.58249e-20)
(0.638668 0.169357 4.63069e-20)
(0.656638 0.161668 9.19496e-20)
(0.67339 0.154563 -7.68831e-19)
(0.688943 0.147989 3.82699e-19)
(0.702856 0.142061 -2.29545e-19)
(0.0274373 0.0990645 1.04624e-19)
(0.0824819 0.207916 2.11024e-19)
(0.148482 0.255263 -1.37748e-19)
(0.211927 0.267487 3.40147e-19)
(0.269204 0.262229 -5.39776e-20)
(0.320515 0.249754 3.93887e-19)
(0.366465 0.235298 7.6923e-20)
(0.407739 0.2211 -7.98286e-20)
(0.444978 0.207912 2.9104e-19)
(0.478717 0.195877 2.2195e-19)
(0.509397 0.184932 8.25177e-20)
(0.537391 0.174968 1.07878e-19)
(0.563015 0.165877 5.39786e-20)
(0.586538 0.157563 -2.30016e-19)
(0.608189 0.149945 -3.18553e-20)
(0.628167 0.142953 2.39332e-19)
(0.646673 0.136525 -1.63523e-19)
(0.663908 0.130588 -7.98092e-21)
(0.679929 0.125092 -3.41953e-19)
(0.694437 0.120109 6.89165e-19)
(0.0208935 0.0799232 2.82632e-19)
(0.0690303 0.167531 -3.3772e-19)
(0.132194 0.205565 1.58968e-19)
(0.194992 0.215363 -2.24042e-19)
(0.25269 0.211147 1.98493e-19)
(0.304855 0.201168 -3.43936e-19)
(0.351766 0.189618 -2.51696e-19)
(0.393974 0.17828 1.90776e-20)
(0.432075 0.167749 -3.42713e-19)
(0.466598 0.158137 -2.13645e-19)
(0.497991 0.149394 -3.69251e-19)
(0.526635 0.141431 -1.23619e-20)
(0.552853 0.134164 -1.43553e-19)
(0.576924 0.127517 3.62546e-19)
(0.599083 0.121423 2.49515e-19)
(0.619535 0.11583 -8.39083e-20)
(0.638477 0.110687 -7.59263e-20)
(0.656104 0.105938 -3.60122e-21)
(0.672507 0.10154 9.35322e-21)
(0.687505 0.0975325 1.36743e-19)
(0.0158291 0.0601441 -7.06134e-20)
(0.0586383 0.125977 -2.42671e-19)
(0.119618 0.154578 -1.51229e-19)
(0.181916 0.161998 -9.4615e-20)
(0.239938 0.158922 -1.96068e-19)
(0.292755 0.151538 3.35485e-19)
(0.340401 0.14298 -3.64002e-20)
(0.383322 0.134573 -8.07176e-20)
(0.422082 0.126761 3.07567e-21)
(0.457204 0.119624 2.36719e-19)
(0.489142 0.113128 -2.24885e-19)
(0.518282 0.107207 2.19743e-19)
(0.544957 0.101799 1.02864e-19)
(0.569447 0.0968478 -1.87782e-19)
(0.591995 0.0923065 4.10916e-20)
(0.61281 0.088135 1.20503e-19)
(0.632086 0.0842967 4.17557e-20)
(0.650013 0.0807518 -2.9307e-20)
(0.666709 0.0774659 -2.53104e-19)
(0.682087 0.0744591 2.01679e-19)
(0.0123001 0.039903 6.42136e-20)
(0.0514018 0.0835796 7.77298e-20)
(0.110854 0.102659 2.17663e-20)
(0.172794 0.107734 -1.64961e-20)
(0.231029 0.105868 4.69475e-20)
(0.284289 0.101151 7.17533e-20)
(0.332436 0.0956447 2.71789e-20)
(0.375843 0.090221 3.32413e-20)
(0.415052 0.08517 -7.05473e-20)
(0.450584 0.0805468 1.32076e-19)
(0.482895 0.0763296 -3.11985e-20)
(0.512376 0.0724786 -2.47634e-21)
(0.539363 0.0689544 3.15618e-20)
(0.564142 0.0657221 3.55811e-20)
(0.586957 0.0627519 -9.56556e-20)
(0.608022 0.0600188 6.29895e-20)
(0.627529 0.0575001 4.12028e-20)
(0.645662 0.0551708 3.51919e-20)
(0.66256 0.0530079 7.53883e-20)
(0.678204 0.0510197 3.11803e-20)
(0.0103441 0.0193802 -1.32e-20)
(0.047385 0.0406672 2.74532e-20)
(0.10597 0.0501715 -3.83906e-20)
(0.167688 0.0529201 2.41283e-20)
(0.226019 0.0523056 1.41415e-20)
(0.279506 0.0502963 6.278e-21)
(0.327913 0.0478788 1.49439e-20)
(0.371576 0.0454685 -4.27974e-20)
(0.411022 0.0432048 2.72633e-20)
(0.446771 0.0411171 9.52804e-21)
(0.47928 0.0391988 -5.37732e-22)
(0.508944 0.0374346 5.84471e-20)
(0.536098 0.0358092 -1.77414e-20)
(0.561032 0.0343086 -1.69701e-20)
(0.583992 0.0329211 -1.63161e-20)
(0.605192 0.0316364 2.54275e-21)
(0.624824 0.0304457 -2.17548e-20)
(0.643068 0.0293386 4.18912e-21)
(0.660077 0.0283048 8.16183e-22)
(0.675868 0.0273462 -2.75225e-21)
(0.00997996 -0.00124133 8.41029e-21)
(0.0466196 -0.00242565 -4.47929e-20)
(0.104998 -0.00251797 5.33701e-20)
(0.166627 -0.00209132 -4.01005e-20)
(0.224935 -0.00144274 -1.86894e-20)
(0.278429 -0.000731523 5.59904e-20)
(0.326855 -4.89798e-05 4.64994e-21)
(0.37054 0.000563594 1.27154e-21)
(0.41001 0.00109545 2.60911e-20)
(0.445782 0.00155033 1.34649e-20)
(0.478313 0.00193707 -1.06508e-20)
(0.507999 0.00226516 -3.72343e-20)
(0.535174 0.00254321 3.55227e-21)
(0.560129 0.0027785 -3.24129e-21)
(0.58311 0.0029771 3.46755e-20)
(0.60433 0.00314406 -2.08597e-20)
(0.623981 0.00328386 2.8566e-20)
(0.642242 0.00340082 -4.28283e-20)
(0.659267 0.00349778 5.0729e-23)
(0.675086 0.00357242 -9.01591e-21)
(0.0112072 -0.0217781 -2.80238e-20)
(0.0491048 -0.0453638 1.41596e-19)
(0.107937 -0.0550405 9.53711e-20)
(0.169611 -0.0569472 6.29748e-20)
(0.227776 -0.055053 7.86084e-20)
(0.281058 -0.0516378 -1.90092e-20)
(0.329261 -0.0478691 8.69698e-20)
(0.372736 -0.0442449 1.77302e-20)
(0.412014 -0.040927 -7.81031e-21)
(0.447615 -0.0379377 -6.18459e-20)
(0.479993 -0.035253 6.41277e-20)
(0.509541 -0.032839 -8.7048e-20)
(0.536592 -0.0306629 6.32158e-20)
(0.561433 -0.0286967 7.23349e-20)
(0.58431 -0.0269163 9.55354e-20)
(0.605435 -0.0253015 -6.28379e-20)
(0.625 -0.0238345 1.77177e-20)
(0.643184 -0.0224964 6.61525e-20)
(0.660132 -0.0212715 -6.25416e-20)
(0.675859 -0.0201669 4.72447e-20)
(0.0140067 -0.0420473 -2.72141e-19)
(0.054807 -0.0878133 -1.36454e-19)
(0.114752 -0.107029 -1.51731e-19)
(0.176608 -0.111295 -1.19647e-20)
(0.234514 -0.108202 -8.17647e-20)
(0.287367 -0.102129 -9.97262e-20)
(0.335107 -0.0953127 1.76978e-19)
(0.378142 -0.0887092 8.98107e-20)
(0.417018 -0.0826324 1.10653e-19)
(0.452255 -0.0771321 -1.19922e-19)
(0.484305 -0.0721698 8.88654e-20)
(0.513556 -0.0676876 1.0843e-19)
(0.540337 -0.0636293 3.83304e-20)
(0.564932 -0.0599459 -3.62708e-20)
(0.587582 -0.0565958 7.6898e-21)
(0.608498 -0.0535441 -1.5628e-20)
(0.627871 -0.0507592 -1.52616e-19)
(0.645884 -0.0482076 2.3814e-20)
(0.662662 -0.0458621 1.48142e-19)
(0.678179 -0.0437378 -1.99113e-19)
(0.0183401 -0.061869 -8.99572e-20)
(0.0636605 -0.129444 1.32518e-19)
(0.125375 -0.15812 3.05287e-20)
(0.187553 -0.164787 -5.77263e-20)
(0.245091 -0.160571 -1.6223e-19)
(0.297306 -0.151914 -3.46632e-19)
(0.344351 -0.142114 -3.29566e-19)
(0.386718 -0.132584 -2.3749e-20)
(0.424983 -0.123793 -1.91222e-19)
(0.459667 -0.11582 -2.85753e-19)
(0.491218 -0.108614 2.21045e-19)
(0.520016 -0.102093 -3.26237e-19)
(0.546385 -0.0961782 6.48025e-20)
(0.570602 -0.0908003 -2.08042e-20)
(0.592905 -0.0859005 -6.80581e-20)
(0.613499 -0.0814294 -8.59169e-20)
(0.632577 -0.0773416 1.39701e-19)
(0.650324 -0.073589 1.1152e-19)
(0.666843 -0.0701348 1.91274e-19)
(0.682034 -0.0670087 -2.86511e-19)
(0.0241508 -0.0810677 4.87766e-20)
(0.0755677 -0.169935 4.73556e-19)
(0.139701 -0.207958 1.35395e-19)
(0.202352 -0.217081 3.27043e-19)
(0.259423 -0.211845 -1.22616e-19)
(0.310801 -0.200708 1.87615e-19)
(0.356924 -0.188013 -5.92956e-20)
(0.398404 -0.17563 3.79778e-19)
(0.435854 -0.164187 -1.95526e-19)
(0.469802 -0.153795 2.29799e-19)
(0.500686 -0.144391 1.99157e-19)
(0.528879 -0.135871 2.12906e-19)
(0.554697 -0.128136 -1.90173e-19)
(0.578409 -0.121094 1.6325e-19)
(0.600245 -0.114672 -2.26599e-19)
(0.620407 -0.108806 -6.21857e-20)
(0.639088 -0.103436 -1.48838e-19)
(0.656479 -0.0984993 -6.29537e-20)
(0.672649 -0.0939526 2.50429e-19)
(0.687404 -0.0898493 -4.14647e-19)
(0.0313641 -0.0994743 -1.96814e-19)
(0.0903991 -0.208971 -2.26284e-20)
(0.157595 -0.256196 -7.83133e-20)
(0.220878 -0.267843 -2.74652e-19)
(0.2774 -0.261719 4.62072e-20)
(0.327754 -0.248233 -4.29102e-19)
(0.372738 -0.232755 -1.80296e-19)
(0.41312 -0.217614 -1.40123e-20)
(0.449561 -0.203597 -4.51729e-19)
(0.482593 -0.190854 -1.39865e-19)
(0.51265 -0.179311 -6.39873e-20)
(0.540091 -0.168845 -2.08542e-19)