/*--------------------------------*- C++ -*----------------------------------*\
  =========                 |
  \\      /  F ield         | OpenFOAM: The Open Source CFD Toolbox
   \\    /   O peration     | Website:  https://openfoam.org
    \\  /    A nd           | Version:  6.0
     \\/     M anipulation  |
\*---------------------------------------------------------------------------*/
FoamFile
{
    version     2.0;
    format      ascii;
    class       volVectorField;
    location    "46";
    object      U;
}
// * * * * * * * * * * * * * * * * * * * * * * * * * * * * * * * * * * * * * //

dimensions      [0 1 -1 0 0 0 0];

internalField   nonuniform List<vector> 
12500
(
(-0.000218202 -0.00184992 -5.4928e-22)
(-0.00139557 -0.00464375 7.53716e-21)
(-0.00373817 -0.00675935 -1.09124e-20)
(-0.00675872 -0.00834306 5.00314e-21)
(-0.0101882 -0.00951448 3.00689e-22)
(-0.013857 -0.0103721 -6.17135e-22)
(-0.0176292 -0.0109957 -9.06938e-21)
(-0.0214033 -0.0114489 4.9735e-21)
(-0.0251085 -0.0117819 3.28163e-21)
(-0.028698 -0.0120335 3.33015e-21)
(-0.0321445 -0.0122329 -5.62728e-21)
(-0.0354357 -0.0124013 3.26968e-21)
(-0.0385714 -0.0125537 -1.5373e-21)
(-0.0415609 -0.0126997 2.60244e-21)
(-0.0444205 -0.0128449 -6.62958e-21)
(-0.0471716 -0.0129919 9.57146e-21)
(-0.0498393 -0.0131408 -1.82518e-21)
(-0.0524506 -0.01329 -6.74667e-21)
(-0.0550332 -0.0134369 3.4478e-21)
(-0.0576151 -0.0135778 -3.28583e-21)
(-0.0602274 -0.0137087 2.93851e-21)
(-0.0629008 -0.0138254 3.88281e-21)
(-0.0656207 -0.0139229 3.91248e-22)
(-0.0683102 -0.0139946 -1.10758e-20)
(-0.0712817 -0.0140389 5.8388e-21)
(-0.000195386 -0.00123062 9.95543e-21)
(-0.00135743 -0.00303575 -2.56985e-20)
(-0.00371482 -0.00439509 7.57401e-21)
(-0.00676565 -0.00541538 5.05095e-21)
(-0.0102328 -0.00618396 -4.02237e-21)
(-0.0139414 -0.00677121 -2.2812e-20)
(-0.0177524 -0.00723115 6.7755e-21)
(-0.0215617 -0.00760451 -1.2769e-20)
(-0.025297 -0.00792114 1.52594e-20)
(-0.0289106 -0.00820188 -2.03448e-20)
(-0.0323747 -0.00846019 1.08498e-20)
(-0.0356767 -0.00870359 3.49378e-21)
(-0.0388165 -0.00893497 -8.80525e-21)
(-0.0418035 -0.00915373 -3.88829e-21)
(-0.0446543 -0.00935675 2.83949e-20)
(-0.0473906 -0.00953927 -2.50803e-20)
(-0.0500381 -0.00969562 5.98723e-21)
(-0.0526243 -0.00981976 1.0346e-20)
(-0.0551777 -0.00990575 -2.36827e-21)
(-0.0577265 -0.00994812 1.66346e-20)
(-0.0603028 -0.00994227 3.01327e-21)
(-0.0629381 -0.00988466 -1.0719e-21)
(-0.0656176 -0.00977065 -2.08928e-20)
(-0.0682634 -0.0095926 1.92035e-20)
(-0.0711921 -0.00936022 -3.65791e-20)
(-0.000212803 -0.000599122 3.18897e-20)
(-0.0014238 -0.00140083 1.06041e-20)
(-0.00384503 -0.00199673 -1.38645e-20)
(-0.00696153 -0.00245162 5.94154e-21)
(-0.0104894 -0.00281889 5.57349e-21)
(-0.0142502 -0.0031397 2.11008e-20)
(-0.0181024 -0.00344161 -2.67583e-20)
(-0.0219408 -0.00374186 -4.33104e-21)
(-0.0256923 -0.00404965 -1.78617e-20)
(-0.0293091 -0.00436766 -1.48943e-20)
(-0.0327634 -0.00469348 1.92256e-20)
(-0.0360429 -0.00502077 -6.42145e-20)
(-0.0391479 -0.00534038 -1.98936e-21)
(-0.0420885 -0.0056413 -3.84123e-20)
(-0.0448818 -0.00591158 -4.51063e-21)
(-0.0475504 -0.00613903 5.4513e-21)
(-0.050121 -0.00631197 -2.96753e-20)
(-0.0526221 -0.00641968 -1.85345e-20)
(-0.0550833 -0.00645286 -2.19228e-20)
(-0.0575344 -0.00640397 3.43159e-20)
(-0.0600088 -0.00626771 1.25275e-20)
(-0.0625395 -0.00604106 -5.55516e-20)
(-0.0651125 -0.00571966 -2.67184e-20)
(-0.0676481 -0.00529471 -2.97959e-20)
(-0.070469 -0.00478761 8.03995e-20)
(-0.000271572 4.25173e-05 -1.02089e-21)
(-0.00159701 0.000255081 -2.44993e-20)
(-0.0041315 0.00042604 -1.17094e-20)
(-0.00734893 0.000534999 7.24547e-21)
(-0.0109603 0.000564084 4.52395e-20)
(-0.0147849 0.000502473 -2.04031e-20)
(-0.0186804 0.000349724 4.34124e-20)
(-0.0225412 0.000112512 4.12787e-20)
(-0.0262947 -0.000197442 2.51061e-20)
(-0.0298936 -0.000564583 -3.86103e-22)
(-0.0333107 -0.000970543 5.04723e-20)
(-0.0365347 -0.00139507 8.71865e-21)
(-0.0395666 -0.00181687 3.84009e-20)
(-0.0424173 -0.00221442 8.81194e-20)
(-0.045105 -0.00256668 -1.02087e-19)
(-0.0476537 -0.00285381 1.53263e-19)
(-0.0500912 -0.00305775 3.32785e-20)
(-0.0524478 -0.00316275 -7.33202e-20)
(-0.0547548 -0.00315575 -1.03949e-20)
(-0.057044 -0.00302674 2.66217e-20)
(-0.0593509 -0.00276938 -1.32849e-20)
(-0.0617114 -0.00238097 -7.90407e-21)
(-0.0641125 -0.00185716 -7.70872e-21)
(-0.0664726 -0.00118763 -3.10799e-20)
(-0.0691219 -0.000406049 1.09038e-19)
(-0.00037272 0.000692153 1.65659e-20)
(-0.00187909 0.00192574 -7.70031e-20)
(-0.00457635 0.0028632 9.33019e-20)
(-0.00792947 0.00353096 -3.71365e-20)
(-0.0116462 0.00394825 4.43799e-20)
(-0.0155455 0.00413555 3.61553e-20)
(-0.0194853 0.00412018 1.37136e-20)
(-0.0233614 0.00393302 6.31476e-22)
(-0.0271022 0.00360682 7.70651e-20)
(-0.0306621 0.0031754 5.32575e-20)
(-0.0340149 0.00267304 -2.13717e-20)
(-0.0371507 0.00213391 -1.37327e-20)
(-0.0400716 0.00159151 5.78111e-20)
(-0.0427898 0.00107805 1.08843e-20)
(-0.0453249 0.000623891 2.94431e-20)
(-0.0477022 0.000256971 7.0472e-20)
(-0.0499514 2.18916e-06 -6.08658e-20)
(-0.0521048 -0.00011908 4.90961e-20)
(-0.054196 -8.93909e-05 -1.05573e-19)
(-0.0562597 0.000104365 8.86011e-20)
(-0.0583343 0.000470121 5.54747e-22)
(-0.060459 0.00101072 -7.03958e-20)
(-0.0626234 0.00173093 2.83756e-20)
(-0.0647436 0.00264316 6.42429e-20)
(-0.0671589 0.00370087 -9.45464e-20)
(-0.000517161 0.00134754 8.5587e-20)
(-0.00227158 0.00360463 -9.08712e-20)
(-0.00518083 0.00530441 -1.46611e-20)
(-0.00870351 0.00652253 1.84054e-20)
(-0.0125464 0.00731688 -3.97958e-20)
(-0.0165299 0.00774018 -6.20407e-20)
(-0.0205141 0.00784795 -5.15262e-20)
(-0.0243972 0.00769547 -1.24182e-20)
(-0.0281102 0.00733647 -8.86016e-20)
(-0.0316094 0.00682293 7.04005e-20)
(-0.0348709 0.00620488 -1.09384e-19)
(-0.0378862 0.00553032 5.52097e-20)
(-0.0406591 0.00484492 -1.8369e-20)
(-0.0432031 0.00419176 4.23987e-20)
(-0.0455393 0.00361083 -1.06505e-19)
(-0.0476949 0.00313864 5.14906e-20)
(-0.0497014 0.0028076 3.79648e-21)
(-0.0515937 0.00264548 2.28353e-20)
(-0.0534083 0.00267502 1.37709e-19)
(-0.0551832 0.00291334 3.03921e-20)
(-0.0569607 0.00337084 -2.83849e-21)
(-0.0587846 0.00405125 8.66856e-21)
(-0.0606475 0.00496039 5.71507e-20)
(-0.0624642 0.00611366 1.622e-20)
(-0.0645845 0.00745107 5.3293e-20)
(-0.00070566 0.00200629 -5.33361e-20)
(-0.00277551 0.0052849 7.57173e-20)
(-0.00594508 0.00773892 4.73053e-21)
(-0.00966971 0.00949573 -9.2373e-20)
(-0.0136577 0.0106533 1.94035e-19)
(-0.0177331 0.0112975 -6.27467e-20)
(-0.02176 0.0115123 9.1492e-20)
(-0.0256405 0.0113775 8.37087e-20)
(-0.0293093 0.0109674 -6.92415e-20)
(-0.0327258 0.0103521 -1.00705e-19)
(-0.0358686 0.00959681 2.75416e-20)
(-0.0387314 0.00876328 -2.90179e-20)
(-0.0413196 0.00790922 -1.28313e-19)
(-0.0436485 0.00708861 1.55697e-19)
(-0.0457407 0.00635142 -7.46128e-20)
(-0.0476251 0.00574325 -5.14231e-20)
(-0.0493355 0.0053048 4.2556e-22)
(-0.0509096 0.0050713 4.18698e-20)
(-0.0523873 0.00507192 1.72676e-20)
(-0.0538103 0.00532906 -6.76307e-20)
(-0.0552259 0.00585686 7.69911e-20)
(-0.0566836 0.00666104 -1.33814e-19)
(-0.0581804 0.00774956 8.16016e-20)
(-0.0596298 0.00914206 -6.2442e-20)
(-0.0613953 0.0107645 1.63815e-20)
(-0.000938781 0.00266585 7.74065e-20)
(-0.0033911 0.00695921 -5.95469e-20)
(-0.0068678 0.0101555 -3.79057e-20)
(-0.0108245 0.0124362 -6.68854e-20)
(-0.014974 0.013941 -1.22293e-19)
(-0.0191464 0.0147893 -9.03635e-20)
(-0.0232117 0.0150939 5.62516e-20)
(-0.0270779 0.0149587 -8.51955e-20)
(-0.0306845 0.0144787 1.08119e-19)
(-0.0339948 0.013741 -1.75892e-19)
(-0.0369908 0.0128259 7.80912e-20)
(-0.0396687 0.0118082 1.64867e-19)
(-0.0420358 0.0107575 -2.3151e-19)
(-0.0441091 0.00973861 3.30286e-20)
(-0.0459128 0.00881166 4.29281e-20)
(-0.0474776 0.00803192 4.15054e-20)
(-0.0488394 0.00744927 -4.46432e-20)
(-0.0500388 0.00710756 -1.10253e-20)
(-0.0511192 0.00704391 -3.26493e-20)
(-0.0521272 0.00728767 -2.72586e-20)
(-0.0531157 0.00785847 -1.49176e-19)
(-0.0541411 0.00876564 -1.00246e-20)
(-0.0552062 0.0100209 1.5941e-21)
(-0.0562244 0.01165 -6.72919e-20)
(-0.0575758 0.0135644 6.91721e-20)
(-0.00121681 0.00332336 2.21486e-21)
(-0.00411759 0.00861958 2.43718e-20)
(-0.00794579 0.0125421 2.53379e-20)
(-0.0121615 0.0153291 1.47485e-20)
(-0.0164854 0.017163 1.24356e-19)
(-0.0207561 0.0181977 1.16743e-19)
(-0.0248523 0.0185745 -9.49017e-20)
(-0.0286891 0.0184213 -2.88257e-20)
(-0.0322125 0.0178527 -2.56254e-20)
(-0.035391 0.0169725 1.32201e-19)
(-0.0382103 0.0158752 4.73936e-20)
(-0.0406697 0.0146481 -6.90583e-20)
(-0.0427787 0.0133719 -5.8367e-20)
(-0.0445559 0.012122 1.40612e-19)
(-0.0460268 0.0109689 -3.46605e-20)
(-0.0472238 0.00997785 -4.19621e-20)
(-0.0481849 0.00920889 -5.85307e-20)
(-0.0489532 0.0087158 -4.55085e-20)
(-0.0495762 0.00854541 -5.80059e-20)
(-0.0501054 0.00873618 -3.78942e-20)
(-0.0506003 0.00931552 1.57408e-19)
(-0.0511258 0.0102987 -7.74225e-20)
(-0.051692 0.0117036 5.20956e-20)
(-0.0522138 0.0135646 -1.38284e-19)
(-0.053092 0.0157789 5.58253e-20)
(-0.00153968 0.00397558 -6.94104e-20)
(-0.00495299 0.0102571 -1.80624e-20)
(-0.00917356 0.0148857 -1.41253e-19)
(-0.0136709 0.0181586 -6.76515e-20)
(-0.0181772 0.0203022 -1.33598e-19)
(-0.0225429 0.021505 -1.39363e-20)
(-0.0266574 0.021937 7.15775e-20)
(-0.0304453 0.0217492 -4.35471e-20)
(-0.0338604 0.0210753 9.39004e-20)
(-0.0368775 0.0200346 -2.28057e-19)
(-0.0394871 0.0187348 -6.58064e-21)
(-0.0416919 0.0172744 4.03873e-20)
(-0.0435038 0.0157448 -5.12192e-20)
(-0.0449428 0.0142314 4.65523e-20)
(-0.046036 0.0128145 -3.55651e-20)
(-0.0468166 0.0115698 -7.61339e-20)
(-0.0473243 0.010568 1.38794e-19)
(-0.0476049 0.00987445 8.59815e-20)
(-0.0477095 0.00954755 -1.78365e-20)
(-0.0476947 0.00963745 5.65946e-20)
(-0.0476278 0.0101824 -1.11654e-19)
(-0.0475834 0.0112067 1.60725e-19)
(-0.0475807 0.012738 -2.19407e-19)
(-0.0475383 0.0148229 4.51859e-20)
(-0.0478832 0.0173449 -8.54784e-20)
(-0.00190679 0.00461872 3.76167e-21)
(-0.00589369 0.0118619 -6.16157e-20)
(-0.0105428 0.017172 9.14332e-20)
(-0.0153388 0.0209077 1.87444e-19)
(-0.0200295 0.0233404 -3.04825e-21)
(-0.0244802 0.0246934 2.12175e-20)
(-0.028594 0.025165 -8.01499e-20)
(-0.0323071 0.0249286 3.75601e-20)
(-0.0355826 0.0241358 2.58557e-19)
(-0.0384032 0.0229203 -5.86637e-20)
(-0.0407648 0.0214016 -6.92092e-20)
(-0.0426742 0.0196883 2.61543e-19)
(-0.044146 0.017881 8.52973e-20)
(-0.0452018 0.0160741 4.05762e-20)
(-0.0458695 0.0143571 4.14897e-20)
(-0.0461831 0.0128158 1.13095e-19)
(-0.0461834 0.0115324 -4.34268e-20)
(-0.0459179 0.0105846 1.14645e-19)
(-0.0454412 0.0100446 1.55025e-19)
(-0.0448152 0.0099771 -1.32165e-19)
(-0.0441153 0.0104349 1.96149e-19)
(-0.0434271 0.0114558 6.97772e-20)
(-0.0427815 0.0130816 -2.64917e-19)
(-0.0421029 0.015377 3.82737e-19)
(-0.0418523 0.0182132 -3.09843e-19)
(-0.00231692 0.00524838 -1.76299e-19)
(-0.00693416 0.0134223 9.62337e-20)
(-0.0120419 0.0193849 -6.45473e-20)
(-0.0171465 0.0235578 -6.13474e-20)
(-0.0220158 0.0262583 -6.61438e-20)
(-0.0265337 0.0277444 -7.17984e-20)
(-0.0306194 0.0282421 1.97131e-20)
(-0.0342231 0.0279467 1.87108e-19)
(-0.0373195 0.0270262 -4.0115e-20)
(-0.0398999 0.0256272 -1.04335e-19)
(-0.0419673 0.0238796 -6.36625e-20)
(-0.0435331 0.0219005 -2.60561e-20)
(-0.044615 0.0197979 7.6885e-20)
(-0.0452363 0.0176735 -4.9163e-20)
(-0.0454255 0.0156251 -1.60278e-19)
(-0.045217 0.0137478 -1.76676e-19)
(-0.0446517 0.0121346 7.04024e-20)
(-0.0437785 0.0108767 -1.30935e-19)
(-0.0426542 0.0100618 1.13459e-19)
(-0.041346 0.00977251 -3.20476e-19)
(-0.0399373 0.0100802 2.45928e-19)
(-0.0385265 0.0110416 -3.24898e-19)
(-0.037158 0.0127192 -5.95474e-21)
(-0.0357654 0.0152035 -1.09021e-19)
(-0.0348532 0.0183566 3.20282e-19)
(-0.00276806 0.00585942 2.70459e-19)
(-0.00806661 0.0149256 3.96474e-20)
(-0.0136555 0.0215066 -2.60297e-20)
(-0.0190699 0.0260884 -1.10142e-20)
(-0.0241026 0.0290345 2.04588e-19)
(-0.0286596 0.0306377 6.65263e-20)
(-0.0326793 0.0311513 6.02916e-20)
(-0.0361282 0.0307908 -4.84775e-20)
(-0.0389943 0.0297399 1.86898e-19)
(-0.0412795 0.0281565 -9.19055e-20)
(-0.0429949 0.026179 5.93113e-20)
(-0.0441575 0.0239309 1.50664e-19)
(-0.0447888 0.0215258 -8.54385e-20)
(-0.0449141 0.0190706 9.24053e-20)
(-0.0445627 0.0166692 8.72189e-20)
(-0.0437687 0.0144244 2.98514e-20)
(-0.0425728 0.0124392 -7.34019e-20)
(-0.0410236 0.010818 2.02976e-19)
(-0.0391798 0.00966532 -1.88729e-20)
(-0.0371125 0.00908404 -2.16384e-20)
(-0.0349132 0.00916907 2.42345e-19)
(-0.0326937 0.0100023 -1.72119e-19)
(-0.0305142 0.0116757 2.89698e-19)
(-0.0283214 0.0143161 -2.39855e-19)
(-0.0266754 0.0177825 3.08474e-19)
(-0.00325723 0.00644595 -1.30527e-19)
(-0.00928068 0.0163571 2.89418e-20)
(-0.0153641 0.023517 -3.01294e-20)
(-0.0210793 0.0284765 -1.42909e-19)
(-0.0262491 0.0316454 8.27583e-21)
(-0.0308049 0.0333512 8.13041e-20)
(-0.0347075 0.0338734 -3.30795e-19)
(-0.0379422 0.0334474 2.46855e-19)
(-0.0405121 0.0322707 -2.4029e-19)
(-0.0424317 0.0305112 -1.51522e-19)
(-0.0437213 0.0283139 1.35795e-19)
(-0.044405 0.0258068 -2.93707e-19)
(-0.0445091 0.0231064 2.47267e-19)
(-0.0440615 0.0203226 -7.86457e-20)
(-0.0430925 0.0175625 -2.24334e-19)
(-0.0416361 0.0149339 5.53872e-20)
(-0.039732 0.0125477 -5.20127e-20)
(-0.0374281 0.0105199 1.95179e-20)
(-0.034783 0.00897157 -6.9991e-20)
(-0.0318707 0.00802789 -2.31615e-19)
(-0.02879 0.00781143 5.19169e-20)
(-0.0256666 0.00843629 -1.20129e-22)
(-0.0225778 0.0100345 -2.37726e-19)
(-0.0194872 0.0127839 1.66969e-19)
(-0.0170267 0.0165494 -1.44273e-19)
(-0.00378039 0.00700136 5.28052e-20)
(-0.0105632 0.0177006 9.72705e-20)
(-0.0171438 0.0253938 1.3619e-19)
(-0.0231389 0.0306965 7.00294e-20)
(-0.0284061 0.0340644 -6.86992e-20)
(-0.0329063 0.0358594 1.63869e-19)
(-0.0366251 0.0363867 1.21272e-19)
(-0.0395689 0.0359001 -4.41627e-20)
(-0.0417585 0.0346103 1.57576e-19)
(-0.0432221 0.0326935 -1.62061e-19)
(-0.0439912 0.0302998 -4.75223e-20)
(-0.0440984 0.0275596 4.82188e-20)
(-0.0435759 0.02459 9.54124e-20)
(-0.0424558 0.0215008 1.15845e-21)
(-0.0407704 0.018399 6.02819e-20)
(-0.0385538 0.0153939 1.11222e-19)
(-0.0358449 0.0126005 -1.89259e-19)
(-0.0326901 0.0101429 2.35077e-19)
(-0.0291471 0.00815696 7.91068e-20)
(-0.0252907 0.00678962 2.7747e-20)
(-0.0212254 0.00619384 -2.84247e-19)
(-0.0170904 0.00652268 4.02407e-20)
(-0.0129812 0.00796034 6.23011e-20)
(-0.00888101 0.0107545 -1.486e-20)
(-0.00551319 0.014791 7.09084e-20)
(-0.00433236 0.00751847 4.13235e-21)
(-0.0118979 0.0189386 -2.50564e-19)
(-0.0189661 0.027113 -6.27765e-21)
(-0.0252067 0.0327203 -6.31901e-20)
(-0.030517 0.036262 -4.15364e-19)
(-0.0348902 0.0381335 3.58612e-19)
(-0.0383401 0.038665 -2.55146e-19)
(-0.0408963 0.0381282 -1.28615e-20)
(-0.0425987 0.036746 -1.20478e-19)
(-0.0434914 0.0347019 2.08236e-19)
(-0.0436186 0.0321497 -2.2406e-19)
(-0.0430231 0.0292204 -1.04848e-19)
(-0.041745 0.0260298 2.19282e-21)
(-0.0398219 0.0226845 -2.26515e-19)
(-0.0372899 0.0192881 3.08925e-19)
(-0.0341851 0.0159467 -3.57594e-19)
(-0.0305461 0.0127744 7.59678e-22)
(-0.0264183 0.00989825 5.47353e-20)
(-0.0218576 0.00746335 -1.36695e-19)
(-0.0169382 0.00563528 1.32419e-19)
(-0.0117682 0.00459687 -1.87861e-19)
(-0.00649849 0.00454443 -1.23859e-19)
(-0.00124216 0.00572656 2.30515e-19)
(0.00399704 0.00848443 -2.51238e-19)
(0.00838104 0.0127452 -4.77237e-21)
(-0.00490682 0.00798976 -2.11963e-19)
(-0.0132659 0.0200526 2.43272e-19)
(-0.0207983 0.0286488 -7.50824e-20)
(-0.0272347 0.0345177 1.44556e-19)
(-0.0325168 0.0382054 1.55899e-19)
(-0.0366733 0.0401405 -1.3731e-19)
(-0.0397482 0.0406774 -9.09958e-20)
(-0.0417963 0.0401054 -1.08951e-19)
(-0.0428784 0.0386586 9.97271e-20)
(-0.0430559 0.0365277 -6.66607e-21)
(-0.0423874 0.0338692 1.45268e-19)
(-0.0409276 0.0308141 1.43112e-19)
(-0.0387264 0.0274749 -1.70816e-19)
(-0.0358296 0.0239531 3.35265e-19)
(-0.0322794 0.0203452 -2.22169e-19)
(-0.0281163 0.01675 -3.7985e-20)
(-0.0233815 0.0132743 4.32016e-19)
(-0.0181208 0.010041 -2e-19)
(-0.0123891 0.0071963 1.2717e-19)
(-0.0062592 0.00491631 2.48136e-19)
(0.000159299 0.00340796 -1.60946e-19)
(0.00670654 0.00290999 1.69985e-20)
(0.0132548 0.00374451 -1.10132e-20)
(0.0197828 0.00637258 -6.55897e-20)
(0.0253128 0.0107909 1.23742e-19)
(-0.00549637 0.00840767 4.84127e-20)
(-0.0146452 0.0210238 -1.542e-19)
(-0.0226032 0.0299745 8.4262e-20)
(-0.0291692 0.0360567 -1.03746e-21)
(-0.0343334 0.0398593 6.34506e-20)
(-0.0381626 0.0418436 -1.09176e-19)
(-0.0407329 0.042388 6.24585e-20)
(-0.042126 0.0417985 1.70051e-19)
(-0.0424248 0.0403208 -5.16002e-21)
(-0.0417089 0.0381524 -8.67943e-20)
(-0.0400529 0.035453 8.72166e-20)
(-0.0375249 0.0323529 -2.04511e-21)
(-0.034187 0.0289615 -2.75954e-19)
(-0.0300957 0.0253739 1.02307e-19)
(-0.0253027 0.0216777 2.25944e-20)
(-0.0198568 0.0179601 -3.96553e-20)
(-0.0138059 0.0143154 -7.06533e-20)
(-0.00720015 0.0108537 2.70973e-19)
(-9.67219e-05 0.00771117 6.59132e-20)
(0.00743175 0.00506178 -1.41323e-19)
(0.0152752 0.00312335 -1.69286e-20)
(0.0232677 0.00216698 1.93999e-19)
(0.0312724 0.0025891 -9.06099e-20)
(0.039261 0.00499575 3.87864e-20)
(0.0460935 0.00948772 2.61671e-20)
(-0.00609269 0.00876496 -9.69868e-20)
(-0.0160114 0.0218338 9.64394e-20)
(-0.0243397 0.0310635 -5.43707e-20)
(-0.030951 0.0373044 -1.74531e-19)
(-0.0358875 0.0411867 -1.60682e-19)
(-0.0392562 0.0432034 -7.11234e-20)
(-0.0411669 0.0437563 -5.88936e-20)
(-0.0417289 0.0431682 -1.74159e-19)
(-0.041048 0.0416966 -7.03273e-20)
(-0.0392232 0.0395462 6.40796e-20)
(-0.0363453 0.0368807 -9.14779e-20)
(-0.0324975 0.0338313 -9.6549e-20)
(-0.0277558 0.030505 -9.05185e-20)
(-0.0221903 0.0269912 1.64187e-19)
(-0.0158661 0.0233686 -3.44811e-19)
(-0.00884539 0.0197114 1.96624e-19)
(-0.00118852 0.0160973 -3.36143e-19)
(0.00704298 0.0126161 -5.17223e-20)
(0.0157833 0.00938263 -1.84167e-19)
(0.0249547 0.00655135 -4.29106e-20)
(0.0344445 0.00432977 -5.23767e-20)
(0.0440819 0.00299825 -1.74636e-19)
(0.0537286 0.00301224 -1.89884e-20)
(0.0633705 0.00513787 1.0658e-19)
(0.0716942 0.00961609 -2.77259e-19)
(-0.00668675 0.0090551 8.31777e-20)
(-0.0173378 0.0224655 1.08837e-19)
(-0.025963 0.0318904 3.81405e-19)
(-0.0325156 0.0382288 -6.69654e-20)
(-0.0370928 0.0421505 1.59362e-19)
(-0.0398434 0.0441791 3.79633e-19)
(-0.0409118 0.0447393 -1.03442e-19)
(-0.0404355 0.0441706 1.39984e-19)
(-0.0385433 0.0427425 8.16327e-20)
(-0.0353535 0.0406683 1.47877e-19)
(-0.0309737 0.0381172 -2.96031e-20)
(-0.0255026 0.0352233 2.00086e-20)
(-0.0190318 0.0320937 -5.16172e-20)
(-0.0116473 0.0288153 2.79532e-19)
(-0.00343146 0.0254602 3.57969e-20)
(0.00553484 0.0220919 2.58734e-19)
(0.015171 0.0187711 -6.60563e-20)
(0.0253948 0.0155645 2.36112e-19)
(0.0361209 0.0125559 3.30122e-20)
(0.0472554 0.00986353 1.19665e-19)
(0.0586745 0.00765741 -5.15353e-20)
(0.0701987 0.00618938 -8.98825e-21)
(0.081694 0.00593397 2.83561e-19)
(0.0931963 0.00780798 1.73977e-19)
(0.103236 0.0122167 -7.26637e-20)
(-0.00726901 0.00927261 -2.01701e-19)
(-0.0185958 0.0229037 -2.04562e-19)
(-0.0274247 0.032432 -2.13841e-19)
(-0.0337934 0.0388002 7.83305e-20)
(-0.0378562 0.0427156 -1.57347e-19)
(-0.0398048 0.0447314 -2.34447e-20)
(-0.039819 0.0452943 -6.17909e-20)
(-0.0380643 0.0447604 -2.5618e-19)
(-0.0346922 0.0434118 -3.99613e-20)
(-0.0298395 0.0414714 6.56512e-20)
(-0.0236306 0.0391157 -2.05825e-19)
(-0.0161798 0.0364847 2.85179e-19)
(-0.00759429 0.0336894 -3.86919e-19)
(0.0020221 0.0308187 9.30456e-20)
(0.0125666 0.0279439 -2.36489e-19)
(0.0239346 0.0251236 -1.91628e-19)
(0.0360175 0.0224078 -1.08516e-20)
(0.0487013 0.0198431 -2.88213e-20)
(0.0618662 0.0174819 2.28434e-20)
(0.0753845 0.0153962 -1.08821e-19)
(0.0891029 0.0136935 -7.52162e-20)
(0.102817 0.0125497 9.22987e-20)
(0.116394 0.0123881 -2.55081e-19)
(0.129968 0.0142198 8.28415e-20)
(0.141984 0.0185995 5.89533e-20)
(-0.00782968 0.00941331 -3.58076e-20)
(-0.019755 0.0231359 -5.94585e-20)
(-0.028673 0.0326687 2.30826e-19)
(-0.0347092 0.0389931 8.58642e-20)
(-0.0380769 0.0428516 1.13627e-19)
(-0.0390117 0.0448258 -1.51735e-19)
(-0.0377287 0.0453836 2.49139e-22)
(-0.0344212 0.044897 -1.22703e-19)
(-0.0292626 0.0436608 2.2675e-19)
(-0.0224075 0.0419085 7.39599e-20)
(-0.0139958 0.039826 8.28605e-20)
(-0.0041565 0.0375615 -3.29613e-19)
(0.00698721 0.0352345 4.06159e-19)
(0.0193137 0.0329413 -1.21983e-19)
(0.0326983 0.0307601 -8.71577e-20)
(0.0470092 0.0287544 2.60741e-19)
(0.0621039 0.0269747 1.1613e-19)
(0.0778264 0.0254612 -2.93836e-19)
(0.0940063 0.0242468 -1.22371e-19)
(0.11046 0.0233637 3.69294e-19)
(0.126974 0.0228484 -2.81767e-19)
(0.143288 0.0227598 1.69328e-19)
(0.159238 0.0233712 9.44143e-20)
(0.175102 0.0256633 -1.21409e-19)
(0.189402 0.0302571 -1.1709e-19)
(-0.00835874 0.00947442 -1.3174e-19)
(-0.0207833 0.0231531 2.04656e-19)
(-0.0296519 0.0325856 8.71791e-20)
(-0.0351813 0.0387881 -1.25899e-19)
(-0.0376454 0.0425357 -2.01503e-20)
(-0.0373243 0.044437 -1.32013e-19)
(-0.0344684 0.0449796 -5.25936e-20)
(-0.0292984 0.0445507 5.89878e-20)
(-0.0220085 0.0434574 -1.47437e-20)
(-0.0127702 0.041944 1.11251e-19)
(-0.00173782 0.0402067 -9.65728e-20)
(0.0109458 0.0384046 2.67124e-19)
(0.0251427 0.0366683 -3.3086e-19)
(0.0407142 0.0351071 2.06287e-19)
(0.0575142 0.0338136 2.55984e-19)
(0.0753833 0.0328671 -3.69708e-19)
(0.094143 0.0323351 -1.12353e-19)
(0.113589 0.0322727 1.89243e-19)
(0.133489 0.0327217 -1.16718e-19)
(0.153578 0.0337073 1.12493e-19)
(0.173548 0.0352245 -2.72552e-19)
(0.193019 0.0372131 4.54302e-20)
(0.21172 0.0397126 1.77235e-19)
(0.230077 0.0435103 -2.84827e-19)
(0.247004 0.049117 7.69576e-20)
(-0.00884597 0.00945454 -1.2192e-19)
(-0.0216463 0.0229495 3.82025e-19)
(-0.030301 0.0321736 7.33495e-20)
(-0.0351206 0.0381736 -1.98156e-19)
(-0.0364419 0.0417553 1.41908e-19)
(-0.03459 0.0435524 7.20171e-20)
(-0.0298509 0.0440704 1.15031e-19)
(-0.022472 0.0437103 -7.54408e-21)
(-0.012668 0.0427904 -1.19506e-20)
(-0.000626822 0.0415653 -2.50246e-20)
(0.0134835 0.0402412 -1.09325e-19)
(0.029507 0.0389881 -3.64562e-21)
(0.047292 0.0379493 2.55281e-19)
(0.0666839 0.0372496 -4.18254e-19)
(0.087518 0.0370009 2.97523e-19)
(0.109611 0.0373073 6.01906e-20)
(0.132754 0.0382683 1.0633e-19)
(0.156699 0.0399806 -5.46085e-20)
(0.181151 0.042538 4.85052e-19)
(0.205751 0.0460267 -3.00281e-19)
(0.230051 0.0504986 2.39904e-19)
(0.253454 0.0558992 5.63991e-20)
(0.275386 0.062158 -1.7544e-19)
(0.296216 0.0699367 1.48552e-19)
(0.315631 0.0792068 2.30255e-19)
(-0.00928072 0.00935346 -3.54915e-20)
(-0.0223072 0.0225229 -1.3473e-19)
(-0.0305537 0.0314297 -2.30244e-19)
(-0.034429 0.0371476 -1.31222e-19)
(-0.0343344 0.0405109 -1.83533e-20)
(-0.0306414 0.0421764 -5.18e-20)
(-0.0236717 0.0426655 -2.39891e-19)
(-0.0137001 0.0423908 3.97194e-20)
(-0.000962295 0.0416799 -2.69326e-19)
(0.0143371 0.0407959 -2.08723e-20)
(0.0320152 0.0399529 -2.58051e-19)
(0.0519016 0.0393299 -9.18419e-20)
(0.0738305 0.0390806 5.26608e-20)
(0.0976325 0.0393426 -2.50633e-19)
(0.123128 0.0402453 2.28956e-21)
(0.150119 0.0419172 -2.15556e-19)
(0.178382 0.0444939 8.31307e-20)
(0.207657 0.0481268 -3.0055e-19)
(0.237636 0.0529949 -5.14233e-20)
(0.267934 0.0593167 -7.16208e-21)
(0.298042 0.0673458 -5.07507e-20)
(0.32721 0.0773333 -5.21062e-20)
(0.354474 0.0896932 -2.62494e-20)
(0.379313 0.105652 -1.04471e-19)
(0.400542 0.12373 -2.23715e-19)
(-0.00965162 0.00917194 6.46558e-20)
(-0.0227252 0.0218745 1.7087e-19)
(-0.0303368 0.0303576 2.05358e-19)
(-0.0329977 0.0357187 -1.64095e-19)
(-0.031177 0.0388181 3.04323e-19)
(-0.025294 0.0403336 -1.65208e-19)
(-0.0157078 0.0407999 8.96738e-20)
(-0.00272205 0.0406387 1.39725e-19)
(0.0134047 0.0401844 1.27095e-19)
(0.0324476 0.039705 6.17646e-20)
(0.0542048 0.0394192 9.97933e-20)
(0.0784872 0.0395097 5.80083e-20)
(0.10511 0.0401341 3.91626e-19)
(0.133884 0.0414339 -2.84444e-19)
(0.164613 0.0435437 3.24557e-19)
(0.197089 0.0465995 -1.34775e-19)
(0.231092 0.0507496 2.90686e-19)
(0.266388 0.0561684 -1.39042e-20)
(0.302737 0.0630778 -6.01462e-20)
(0.339901 0.0717786 -1.10931e-20)
(0.377651 0.0826891 2.28302e-19)
(0.415825 0.096451 -2.2404e-19)
(0.454651 0.114351 1.56764e-19)
(0.49485 0.138134 1.748e-19)
(0.533277 0.161506 3.64517e-20)
(-0.00994587 0.00891114 4.47556e-20)
(-0.0228552 0.0210083 -2.44614e-19)
(-0.0295682 0.0289674 -8.87763e-20)
(-0.0307058 0.0339063 8.10011e-20)
(-0.0268083 0.0367084 -2.49599e-19)
(-0.0183459 0.0380702 -4.9255e-20)
(-0.00571745 0.038537 3.41168e-20)
(0.0107409 0.0385363 1.34689e-19)
(0.0307425 0.0384056 -3.40966e-19)
(0.054036 0.0384142 2.58966e-20)
(0.0803918 0.0387797 -9.96096e-20)
(0.109591 0.0396815 -3.02393e-19)
(0.141417 0.0412713 2.05945e-19)
(0.175648 0.0436815 8.79066e-21)
(0.212056 0.0470326 -6.13694e-21)
(0.250405 0.0514406 2.07048e-19)
(0.290457 0.0570239 -3.65992e-19)
(0.331981 0.0639124 2.89599e-19)
(0.374769 0.0722572 -5.35818e-20)
(0.41866 0.0822416 1.68955e-19)
(0.463573 0.0940855 -2.78181e-19)
(0.509574 0.108076 1.59833e-19)
(0.557152 0.124769 -2.87525e-19)
(0.607226 0.144626 2.9829e-19)
(0.655024 0.161287 -9.26373e-20)
(-0.0101486 0.0085724 3.01531e-19)
(-0.0226457 0.0199307 -4.92137e-20)
(-0.0281563 0.0272758 3.61907e-19)
(-0.0274193 0.0317411 1.67425e-19)
(-0.0210516 0.0342303 1.33869e-20)
(-0.00957804 0.0354554 7.30342e-20)
(0.00655755 0.0359692 1.76054e-20)
(0.0269804 0.0362017 2.97233e-19)
(0.0513673 0.0364892 9.56672e-20)
(0.0794285 0.037097 -1.2811e-20)
(0.110893 0.0382353 2.57284e-20)
(0.145494 0.0400722 9.88733e-20)
(0.182963 0.0427429 8.24038e-20)
(0.223021 0.0463573 1.76033e-19)
(0.265381 0.0510053 -2.00593e-19)
(0.309747 0.0567619 6.04918e-20)
(0.355825 0.0636905 1.83802e-20)
(0.403333 0.0718457 8.94784e-20)
(0.452017 0.0812742 2.42411e-19)
(0.501675 0.0920118 -1.58072e-19)
(0.552177 0.10407 1.35362e-20)
(0.603489 0.117425 -2.24583e-19)
(0.655805 0.132131 2.13056e-19)
(0.709562 0.14837 -2.07647e-19)
(0.759926 0.162042 1.92814e-20)
(-0.0102423 0.00815711 -2.516e-19)
(-0.0220388 0.0186506 1.92258e-19)
(-0.0259991 0.0253058 -3.12826e-19)
(-0.0229915 0.0292652 2.69839e-20)
(-0.0137157 0.0314485 2.19909e-19)
(0.00124215 0.0325805 -3.66172e-19)
(0.021386 0.0332173 2.90276e-19)
(0.0462923 0.0337869 -4.60288e-19)
(0.0755877 0.0346199 9.16949e-20)
(0.108928 0.0359713 1.9563e-20)
(0.145978 0.0380364 1.54277e-19)
(0.186401 0.0409628 -5.12552e-19)
(0.229848 0.0448588 8.85022e-20)
(0.275954 0.0497995 9.36137e-20)
(0.32434 0.055831 -5.60833e-20)
(0.374616 0.0629743 -3.47519e-19)
(0.426392 0.0712261 1.63657e-19)
(0.479293 0.0805598 3.06022e-19)
(0.532967 0.0909231 -3.22996e-19)
(0.58711 0.102232 2.34384e-19)
(0.641472 0.114358 -3.04459e-19)
(0.695857 0.127111 2.21426e-19)
(0.750168 0.140326 -6.20484e-20)
(0.804471 0.154178 3.54942e-19)
(0.854649 0.166491 -4.07919e-19)
(-0.0102063 0.00766664 3.60625e-20)
(-0.0209685 0.0171789 2.84018e-20)
(-0.0229842 0.0230864 6.959e-20)
(-0.0172635 0.0265312 2.48044e-19)
(-0.00459832 0.0284437 -7.74057e-21)
(0.0143555 0.0295573 5.53907e-20)
(0.0390382 0.0304268 2.46286e-19)
(0.0689626 0.031473 9.93094e-20)
(0.103686 0.0330141 -3.2678e-20)
(0.142786 0.0352875 2.78171e-19)
(0.185839 0.0384646 -3.1648e-19)
(0.232405 0.0426622 4.85334e-19)
(0.282025 0.0479503 -1.92439e-19)
(0.334214 0.0543574 3.48967e-19)
(0.388469 0.0618754 -1.17801e-19)
(0.444278 0.0704622 4.2936e-20)
(0.501129 0.0800444 5.20125e-20)
(0.558529 0.0905176 -1.00496e-19)
(0.616015 0.101746 8.41283e-20)
(0.673171 0.113561 5.4104e-20)
(0.72963 0.125752 7.48282e-20)
(0.785076 0.138059 1.59372e-19)
(0.83924 0.150228 -1.3151e-20)
(0.892005 0.162424 -7.30307e-20)
(0.940307 0.173952 2.23353e-19)
(-0.0100164 0.00710245 -2.10841e-19)
(-0.0193614 0.0155295 2.22777e-20)
(-0.0189894 0.0206532 -4.00298e-19)
(-0.0100674 0.0236026 -9.55729e-20)
(0.00650951 0.0253115 -1.78749e-19)
(0.0300031 0.0265164 -3.83415e-20)
(0.0597737 0.0277649 -1.91215e-19)
(0.0952501 0.0294635 -1.14158e-19)
(0.135896 0.03191 1.51088e-19)
(0.181179 0.0353141 -2.52071e-19)
(0.230554 0.0398124 -6.99802e-20)
(0.283446 0.0454789 2.70319e-21)
(0.33925 0.0523326 -4.72212e-19)
(0.397333 0.0603442 2.00657e-19)
(0.457043 0.0694411 -2.92796e-19)
(0.517725 0.0795131 -9.12175e-21)
(0.57874 0.090416 5.77745e-20)
(0.639477 0.101976 -9.37313e-20)
(0.699377 0.113993 -8.21839e-20)
(0.757938 0.126241 4.12366e-20)
(0.814728 0.138472 4.63061e-20)
(0.869377 0.15041 -2.99816e-19)
(0.921564 0.161785 1.71122e-19)
(0.971122 0.172732 8.72741e-20)
(1.01604 0.183602 2.49591e-20)
(-0.00964447 0.00646653 2.1585e-19)
(-0.0171364 0.0137195 -2.30237e-19)
(-0.0138844 0.0180488 3.2264e-19)
(-0.00122911 0.0205535 5.00701e-20)
(0.0198167 0.0221614 -1.53674e-20)
(0.0484154 0.0236048 -1.08264e-19)
(0.0838262 0.025416 1.62829e-20)
(0.125366 0.0279779 1.64329e-19)
(0.172372 0.0315567 -2.26574e-19)
(0.224169 0.0363225 2.37765e-19)
(0.28005 0.0423631 -2.50739e-20)
(0.339271 0.0496953 1.1121e-20)
(0.401052 0.0582738 3.08714e-19)
(0.464585 0.0679994 4.13431e-19)
(0.529058 0.0787275 -1.61742e-19)
(0.593676 0.0902762 2.87343e-19)
(0.657681 0.102434 1.46165e-19)
(0.720375 0.114969 -8.92939e-20)
(0.781139 0.127632 2.83747e-19)
(0.839445 0.14017 -1.04445e-20)
(0.89486 0.152324 -2.73705e-19)
(0.947042 0.163837 2.89802e-19)
(0.995721 0.174463 4.24423e-20)
(1.04078 0.184308 -1.81049e-19)
(1.08111 0.194403 5.67868e-20)
(-0.00905907 0.00576195 -3.00569e-19)
(-0.014206 0.0117703 3.13922e-19)
(-0.00753344 0.0153237 -1.9915e-19)
(0.00942607 0.0174692 -6.21917e-20)
(0.0355241 0.0191163 -1.38893e-19)
(0.0698015 0.0209836 2.45452e-19)
(0.111387 0.0235772 -1.42394e-19)
(0.159453 0.0272437 -6.51786e-20)
(0.21317 0.0322039 -1.86489e-19)
(0.27168 0.0385723 4.8488e-21)
(0.334078 0.0463716 -7.28741e-20)
(0.399416 0.0555452 3.54233e-20)
(0.466714 0.0659694 -3.72959e-19)
(0.534986 0.077465 1.06248e-19)
(0.603262 0.0898096 -1.28238e-19)
(0.670626 0.10275 -1.03458e-19)
(0.736238 0.116016 3.19202e-20)
(0.799365 0.12933 -1.51292e-19)
(0.859391 0.142418 -6.53959e-20)
(0.915829 0.155019 1.87715e-19)
(0.968321 0.166891 8.01455e-20)
(1.01663 0.177816 -3.40253e-19)
(1.06062 0.187598 2.51166e-19)
(1.10029 0.19634 -4.76631e-20)
(1.13523 0.205434 -9.91903e-20)
(-0.00822543 0.00499363 -1.09731e-19)
(-0.010478 0.00970935 -5.86643e-20)
(0.000201278 0.0125377 -1.17561e-20)
(0.0220681 0.0144469 8.55798e-20)
(0.0538161 0.0163124 9.307e-20)
(0.0943357 0.0188262 8.1005e-20)
(0.142591 0.0224539 1.00631e-19)
(0.197565 0.0274897 1.53511e-19)