/*--------------------------------*- C++ -*----------------------------------*\
  =========                 |
  \\      /  F ield         | OpenFOAM: The Open Source CFD Toolbox
   \\    /   O peration     | Website:  https://openfoam.org
    \\  /    A nd           | Version:  6.0
     \\/     M anipulation  |
\*---------------------------------------------------------------------------*/
FoamFile
{
    version     2.0;
    format      ascii;
    class       volScalarField;
    location    "34";
    object      p;
}
// * * * * * * * * * * * * * * * * * * * * * * * * * * * * * * * * * * * * * //

dimensions      [0 2 -2 0 0 0 0];

internalField   nonuniform List<scalar> 
8000
(
-0.249635
-0.25056
-0.251168
-0.251611
-0.251979
-0.252288
-0.25255
-0.252777
-0.252978
-0.253158
-0.253324
-0.25348
-0.25363
-0.253778
-0.253928
-0.25409
-0.254265
-0.2544
-0.254467
-0.25503
-0.249763
-0.250685
-0.251291
-0.25173
-0.252094
-0.252397
-0.252654
-0.252875
-0.25307
-0.253245
-0.253405
-0.253555
-0.253699
-0.253841
-0.253985
-0.254143
-0.254314
-0.254445
-0.254508
-0.255071
-0.249994
-0.250912
-0.251512
-0.251943
-0.252298
-0.252591
-0.252835
-0.253044
-0.253227
-0.253388
-0.253535
-0.253671
-0.253801
-0.253929
-0.25406
-0.254205
-0.254365
-0.254486
-0.254538
-0.255095
-0.250329
-0.251241
-0.251832
-0.252251
-0.252591
-0.252868
-0.253095
-0.253284
-0.253446
-0.253587
-0.253711
-0.253825
-0.253932
-0.254037
-0.254146
-0.254269
-0.25441
-0.254514
-0.254546
-0.255094
-0.250769
-0.251673
-0.252253
-0.252655
-0.252975
-0.253229
-0.253431
-0.253594
-0.253727
-0.253838
-0.253931
-0.254013
-0.254088
-0.25416
-0.254236
-0.254328
-0.25444
-0.254517
-0.25452
-0.255054
-0.251315
-0.25221
-0.252774
-0.253156
-0.25345
-0.253675
-0.253844
-0.253972
-0.254068
-0.25414
-0.254193
-0.254232
-0.254262
-0.25429
-0.254322
-0.25437
-0.254442
-0.254482
-0.254446
-0.254959
-0.251972
-0.252855
-0.2534
-0.253755
-0.254017
-0.254205
-0.254334
-0.254419
-0.25447
-0.254492
-0.254493
-0.254478
-0.254452
-0.254422
-0.254395
-0.254386
-0.254404
-0.254393
-0.254306
-0.254791
-0.252742
-0.25361
-0.254131
-0.254455
-0.254678
-0.254822
-0.254904
-0.254937
-0.254932
-0.254896
-0.254834
-0.254752
-0.254656
-0.254552
-0.25445
-0.254366
-0.254313
-0.254234
-0.254079
-0.254529
-0.253633
-0.254481
-0.254973
-0.255258
-0.255436
-0.255529
-0.255554
-0.255527
-0.255458
-0.255353
-0.255217
-0.255055
-0.254873
-0.254679
-0.254483
-0.254305
-0.254159
-0.253991
-0.253748
-0.254151
-0.25465
-0.255473
-0.255928
-0.256168
-0.256293
-0.256328
-0.25629
-0.256195
-0.256053
-0.255869
-0.255648
-0.255394
-0.255112
-0.254809
-0.254498
-0.254201
-0.253936
-0.253651
-0.253293
-0.253634
-0.255802
-0.256592
-0.257003
-0.25719
-0.257254
-0.257222
-0.257113
-0.256943
-0.256721
-0.256451
-0.256136
-0.255779
-0.255382
-0.254954
-0.254505
-0.25406
-0.253645
-0.253207
-0.252695
-0.25295
-0.257098
-0.257844
-0.258203
-0.258327
-0.258322
-0.258215
-0.258029
-0.257778
-0.25747
-0.257109
-0.256693
-0.256223
-0.2557
-0.255129
-0.254519
-0.253898
-0.253293
-0.252656
-0.251938
-0.252071
-0.258548
-0.259238
-0.259533
-0.259584
-0.259499
-0.25931
-0.259039
-0.258702
-0.258304
-0.257848
-0.257328
-0.256741
-0.256084
-0.255356
-0.254565
-0.253735
-0.2529
-0.252007
-0.251008
-0.250964
-0.260163
-0.260782
-0.260999
-0.260965
-0.260789
-0.260508
-0.260144
-0.259715
-0.259224
-0.258671
-0.258046
-0.257341
-0.256547
-0.255655
-0.254667
-0.253602
-0.25249
-0.251274
-0.2499
-0.249589
-0.261954
-0.262484
-0.262608
-0.262474
-0.262194
-0.261807
-0.261342
-0.260813
-0.260226
-0.259574
-0.258845
-0.258025
-0.257096
-0.25604
-0.254846
-0.253523
-0.252095
-0.250484
-0.248613
-0.247901
-0.263932
-0.264355
-0.264366
-0.264115
-0.263713
-0.263207
-0.262626
-0.261989
-0.261297
-0.260544
-0.259713
-0.258782
-0.257723
-0.256509
-0.255111
-0.253522
-0.251748
-0.249678
-0.247174
-0.245876
-0.266112
-0.266405
-0.266284
-0.265894
-0.26535
-0.264704
-0.263992
-0.263231
-0.262425
-0.261563
-0.260627
-0.259587
-0.258409
-0.257049
-0.255464
-0.25362
-0.2515
-0.248949
-0.245704
-0.243572
-0.26851
-0.268651
-0.268374
-0.26782
-0.267109
-0.2663
-0.265434
-0.26453
-0.263593
-0.262613
-0.261565
-0.260419
-0.25913
-0.257645
-0.2559
-0.253832
-0.251389
-0.248362
-0.244271
-0.240909
-0.271148
-0.271112
-0.270651
-0.269906
-0.269
-0.268001
-0.266955
-0.265885
-0.264798
-0.263684
-0.26252
-0.261273
-0.259898
-0.258334
-0.256499
-0.254294
-0.251599
-0.248063
-0.242798
-0.237416
-0.274054
-0.273813
-0.273138
-0.272172
-0.271039
-0.26982
-0.268567
-0.267307
-0.26605
-0.26479
-0.263511
-0.262189
-0.260793
-0.259285
-0.257615
-0.255719
-0.253484
-0.250449
-0.245371
-0.239406
-0.277265
-0.276786
-0.275865
-0.274644
-0.273254
-0.271785
-0.270297
-0.268823
-0.267378
-0.265965
-0.264577
-0.263211
-0.261873
-0.260588
-0.259423
-0.258531
-0.25819
-0.258853
-0.262153
-0.275127
-0.280825
-0.280069
-0.278868
-0.277359
-0.27568
-0.273932
-0.272186
-0.270479
-0.268833
-0.267258
-0.265763
-0.264364
-0.263099
-0.26204
-0.261321
-0.261181
-0.262005
-0.264367
-0.269509
-0.282185
-0.284785
-0.28371
-0.282189
-0.28036
-0.278362
-0.276313
-0.274288
-0.272334
-0.270479
-0.26874
-0.26714
-0.265711
-0.264513
-0.263645
-0.263265
-0.263614
-0.265038
-0.26798
-0.273064
-0.282944
-0.289202
-0.287757
-0.285877
-0.283697
-0.281355
-0.278984
-0.276667
-0.274458
-0.272388
-0.270484
-0.268774
-0.267303
-0.266137
-0.265381
-0.265181
-0.265735
-0.267288
-0.270108
-0.274463
-0.281564
-0.294137
-0.292264
-0.289985
-0.287423
-0.284716
-0.282007
-0.279389
-0.276917
-0.274627
-0.272548
-0.270711
-0.269159
-0.267958
-0.267194
-0.266981
-0.267454
-0.268751
-0.270988
-0.274258
-0.27882
-0.299649
-0.297285
-0.294565
-0.291595
-0.288503
-0.285444
-0.282515
-0.279773
-0.27725
-0.274973
-0.272968
-0.271273
-0.269935
-0.269018
-0.268596
-0.26874
-0.26951
-0.270925
-0.273003
-0.275502
-0.305791
-0.302868
-0.299668
-0.296266
-0.292772
-0.289352
-0.286102
-0.283073
-0.280291
-0.277773
-0.275536
-0.273603
-0.272005
-0.270777
-0.269959
-0.269578
-0.269644
-0.270132
-0.271031
-0.271915
-0.31261
-0.30906
-0.305341
-0.301485
-0.297576
-0.293781
-0.290192
-0.286846
-0.283758
-0.280932
-0.278371
-0.276082
-0.27408
-0.272382
-0.271002
-0.269947
-0.269205
-0.268742
-0.268539
-0.268183
-0.32014
-0.315896
-0.311623
-0.307296
-0.302956
-0.298768
-0.294808
-0.291097
-0.287632
-0.284402
-0.281396
-0.278613
-0.276056
-0.273733
-0.271653
-0.269816
-0.26821
-0.266812
-0.265601
-0.264257
-0.3284
-0.323399
-0.318543
-0.313728
-0.30894
-0.304328
-0.299949
-0.2958
-0.291858
-0.288099
-0.284506
-0.281076
-0.277814
-0.274732
-0.271841
-0.26915
-0.266657
-0.264353
-0.262221
-0.260046
-0.33739
-0.331575
-0.326114
-0.320796
-0.315535
-0.310454
-0.305583
-0.300893
-0.296344
-0.291907
-0.28757
-0.28334
-0.279234
-0.275279
-0.271499
-0.267913
-0.264531
-0.261359
-0.258376
-0.255457
-0.347084
-0.340413
-0.334329
-0.328493
-0.322722
-0.317105
-0.31164
-0.306275
-0.300962
-0.295681
-0.29044
-0.285266
-0.280202
-0.27529
-0.270572
-0.266076
-0.261823
-0.257821
-0.254046
-0.250433
-0.357433
-0.349875
-0.343158
-0.336783
-0.330449
-0.324202
-0.31801
-0.311806
-0.305554
-0.299258
-0.292961
-0.286722
-0.280611
-0.274692
-0.269017
-0.263621
-0.258523
-0.253734
-0.249218
-0.244948
-0.368353
-0.359894
-0.352539
-0.345595
-0.338623
-0.331623
-0.32454
-0.317313
-0.309936
-0.302463
-0.294978
-0.287583
-0.280373
-0.273427
-0.266801
-0.260531
-0.25463
-0.249099
-0.243889
-0.239001
-0.379726
-0.370368
-0.362373
-0.354817
-0.347106
-0.339198
-0.331036
-0.32259
-0.313912
-0.305117
-0.296347
-0.287738
-0.279409
-0.271444
-0.263898
-0.256794
-0.250137
-0.243915
-0.23806
-0.232596
-0.391394
-0.381158
-0.372521
-0.364292
-0.355714
-0.346718
-0.337273
-0.327415
-0.317278
-0.307052
-0.296932
-0.28709
-0.277653
-0.268702
-0.260279
-0.252394
-0.245036
-0.238177
-0.231728
-0.225738
-0.40316
-0.392086
-0.3828
-0.373817
-0.364218
-0.353934
-0.343002
-0.331556
-0.319833
-0.308104
-0.296614
-0.285551
-0.275043
-0.265158
-0.255917
-0.247311
-0.239311
-0.231872
-0.224883
-0.218426
-0.414787
-0.402929
-0.392983
-0.383142
-0.372346
-0.360568
-0.347957
-0.334779
-0.321387
-0.308127
-0.29528
-0.283042
-0.271523
-0.260769
-0.250777
-0.241516
-0.232938
-0.224981
-0.217509
-0.210645
-0.425998
-0.413427
-0.402799
-0.391977
-0.379798
-0.366326
-0.351872
-0.33686
-0.321761
-0.306985
-0.292832
-0.279486
-0.267033
-0.255488
-0.244821
-0.234976
-0.225888
-0.217475
-0.209581
-0.202377
-0.436483
-0.423281
-0.411941
-0.400001
-0.386249
-0.370906
-0.354486
-0.337589
-0.320794
-0.304557
-0.289178
-0.274814
-0.261517
-0.249267
-0.238006
-0.227652
-0.218125
-0.209323
-0.201069
-0.193595
-0.445906
-0.432162
-0.42007
-0.406867
-0.391366
-0.374011
-0.355554
-0.336774
-0.31834
-0.300732
-0.284232
-0.268956
-0.254916
-0.242055
-0.230285
-0.219502
-0.209611
-0.200488
-0.191942
-0.184267
-0.453906
-0.439717
-0.426826
-0.412217
-0.394818
-0.375357
-0.35485
-0.334241
-0.314268
-0.295412
-0.277914
-0.261846
-0.247173
-0.233801
-0.221612
-0.210485
-0.200306
-0.190936
-0.182165
-0.174363
-0.460116
-0.445581
-0.431841
-0.415697
-0.396291
-0.374688
-0.352174
-0.32984
-0.308467
-0.288507
-0.270154
-0.253423
-0.238233
-0.224455
-0.211943
-0.200558
-0.190175
-0.180631
-0.171707
-0.163853
-0.464168
-0.449387
-0.434749
-0.416967
-0.395493
-0.371771
-0.347352
-0.323444
-0.300837
-0.279941
-0.260885
-0.243629
-0.228045
-0.213971
-0.201236
-0.189686
-0.179182
-0.169543
-0.160541
-0.15271
-0.465706
-0.450776
-0.435203
-0.415712
-0.392167
-0.366412
-0.34024
-0.314945
-0.291299
-0.269647
-0.250052
-0.232415
-0.216566
-0.202309
-0.189456
-0.177837
-0.1673
-0.157646
-0.148646
-0.140915
-0.464394
-0.449413
-0.43288
-0.411654
-0.386093
-0.358449
-0.330726
-0.304262
-0.279787
-0.257572
-0.237607
-0.21974
-0.203757
-0.189438
-0.176574
-0.164984
-0.154507
-0.144924
-0.136005
-0.128452
-0.459931
-0.444992
-0.427497
-0.404558
-0.377098
-0.347762
-0.318724
-0.291334
-0.266254
-0.243676
-0.223517
-0.205571
-0.189591
-0.175332
-0.16257
-0.151112
-0.140789
-0.131364
-0.122611
-0.115316
-0.452057
-0.437254
-0.418819
-0.39424
-0.365052
-0.334266
-0.304181
-0.276123
-0.250672
-0.227933
-0.207757
-0.189889
-0.174051
-0.159977
-0.14743
-0.136212
-0.12614
-0.116964
-0.108465
-0.101506
-0.440562
-0.425986
-0.406664
-0.380569
-0.349875
-0.317919
-0.287074
-0.258615
-0.23303
-0.210335
-0.190319
-0.172685
-0.157128
-0.143367
-0.131154
-0.120283
-0.110564
-0.101731
-0.0935775
-0.0870318
-0.425292
-0.411034
-0.390908
-0.36347
-0.331535
-0.298713
-0.267409
-0.238821
-0.213336
-0.190888
-0.171208
-0.153963
-0.138828
-0.125508
-0.113747
-0.103334
-0.0940725
-0.0856818
-0.077969
-0.0719177
-0.406155
-0.392306
-0.37149
-0.342923
-0.310044
-0.27668
-0.245223
-0.216775
-0.19162
-0.169616
-0.150443
-0.13374
-0.119164
-0.106412
-0.095222
-0.0853809
-0.076684
-0.0688405
-0.0616708
-0.0562016
-0.383121
-0.369775
-0.348412
-0.318966
-0.285464
-0.251888
-0.220581
-0.192533
-0.16793
-0.146558
-0.128056
-0.112042
-0.0981593
-0.0860995
-0.0755992
-0.0664424
-0.0584194
-0.0512326
-0.0447178
-0.0399257
-0.356228
-0.343478
-0.321736
-0.291688
-0.257898
-0.224442
-0.193578
-0.166181
-0.142337
-0.121775
-0.104098
-0.0889085
-0.0758457
-0.0645972
-0.0549003
-0.0465384
-0.0392986
-0.0328831
-0.0271416
-0.0231137
-0.325575
-0.313515
-0.291584
-0.261231
-0.227493
-0.19448
-0.164339
-0.137824
-0.114933
-0.0953417
-0.0786301
-0.0643907
-0.0522621
-0.0419343
-0.0331475
-0.0256869
-0.0193403
-0.0138158
-0.00896579
-0.00575827
-0.291326
-0.280051
-0.258136
-0.227785
-0.194434
-0.162173
-0.133017
-0.107597
-0.0858334
-0.0673566
-0.0517322
-0.0385502
-0.0274536
-0.0181401
-0.0103576
-0.0038973
0.00144651
0.00595621
0.00980014
0.0121411
-0.253702
-0.243305
-0.221622
-0.191581
-0.158944
-0.127725
-0.0997934
-0.0756618
-0.0551772
-0.037939
-0.0235035
-0.0114649
-0.00147649
0.00675088
0.0134549
0.018832
0.0230761
0.026453
0.0291531
0.0304627
-0.212979
-0.20355
-0.182319
-0.152894
-0.121279
-0.091371
-0.06488
-0.0422049
-0.0231306
-0.00723228
0.00593556
0.0167688
0.025598
0.0326911
0.0382634
0.0424957
0.0455655
0.0476844
0.0489803
0.0488227
-0.16948
-0.161105
-0.140546
-0.112032
-0.0817267
-0.0533739
-0.0285153
-0.00744244
0.0101137
0.0245956
0.0364455
0.0460449
0.0537012
0.0596506
0.0640747
0.0671331
0.0689635
0.0696066
0.0689652
0.0667789
-0.12357
-0.116331
-0.0966566
-0.0693312
-0.0406024
-0.0140235
0.00903367
0.0283792
0.0443297
0.0573418
0.0678549
0.0762377
0.0827756
0.0876711
0.0910692
0.093098
0.0937833
0.0927769
0.0896295
0.0853445
-0.0756494
-0.0696181
-0.0510327
-0.0251544
0.00175821
0.0263684
0.0474751
0.064983
0.0792507
0.0907485
0.0999172
0.107124
0.112653
0.116704
0.119435
0.120991
0.121277
0.11946
0.114848
0.110188
-0.0261441
-0.0213852
-0.00407674
0.0201199
0.0450036
0.0674746
0.0864997
0.10207
0.114579
0.124507
0.132296
0.138319
0.142873
0.146196
0.14853
0.150145
0.151019
0.150188
0.14739
0.150782
0.0245073
0.0279371
0.0437968
0.0661036
0.0887743
0.108961
0.125793
0.139337
0.150014
0.158307
0.164654
0.16942
0.172902
0.175351
0.177025
0.178181
0.17881
0.178449
0.177976
0.1835
0.0758475
0.0779028
0.0921639
0.112403
0.132709
0.150493
0.165041
0.176486
0.185268
0.191868
0.196714
0.200163
0.202505
0.203992
0.204868
0.205351
0.205426
0.204806
0.204382
0.208816
0.127415
0.128063
0.1406
0.158627
0.176449
0.191743
0.203939
0.21323
0.220066
0.22492
0.228205
0.230262
0.231371
0.231767
0.231679
0.2313
0.230628
0.229442
0.228479
0.231442
0.17875
0.177972
0.188685
0.204391
0.219644
0.23239
0.242196
0.2493
0.254159
0.257233
0.258917
0.259532
0.25934
0.258558
0.25739
0.255999
0.254372
0.252314
0.250503
0.252093
0.229399
0.227187
0.236007
0.249318
0.261956
0.272129
0.279531
0.28444
0.287314
0.288595
0.288657
0.287803
0.286272
0.284263
0.281956
0.279491
0.276836
0.27382
0.271086
0.271358
0.278918
0.275281
0.282167
0.293046
0.303057
0.310665
0.315679
0.318412
0.319315
0.318813
0.317259
0.314931
0.312051
0.308797
0.305329
0.301761
0.298054
0.294061
0.290399
0.289427
0.326878
0.32184
0.326779
0.335226
0.342636
0.347719
0.35039
0.35099
0.349962
0.34771
0.344566
0.340787
0.336574
0.332088
0.327469
0.322811
0.31807
0.313125
0.30856
0.306403
0.372869
0.366466
0.369477
0.37553
0.380396
0.383025
0.383426
0.381961
0.379063
0.375118
0.370432
0.365245
0.359738
0.354055
0.348318
0.342605
0.336871
0.331019
0.325588
0.322308
0.416499
0.408784
0.409915
0.413643
0.416059
0.416334
0.414563
0.411124
0.40644
0.400875
0.394717
0.388183
0.381439
0.374612
0.367809
0.361093
0.354421
0.347717
0.341465
0.337124
0.457403
0.448442
0.447767
0.449274
0.449362
0.44741
0.443589
0.43829
0.431923
0.424832
0.417286
0.409484
0.401574
0.393672
0.385866
0.378212
0.370667
0.363172
0.356151
0.350815
0.495238
0.485112
0.482733
0.482151
0.480064
0.476036
0.470309
0.463281
0.455351
0.446845
0.43801
0.429031
0.420042
0.411142
0.40241
0.393889
0.385543
0.377324
0.369591
0.363332
0.529692
0.518495
0.514536
0.512027
0.50794
0.502012
0.494542
0.485935
0.476578
0.466779
0.456769
0.446716
0.436742
0.426935
0.41736
0.408053
0.398982
0.390109
0.381726
0.374621
0.560481
0.548318
0.542927
0.538676
0.53279
0.525156
0.516123
0.506102
0.495467
0.484511
0.473449
0.462437
0.451583
0.440964
0.430637
0.420629
0.410914
0.401461
0.392495
0.384631
0.587353
0.574341
0.567685
0.561899
0.554433
0.545305
0.534905
0.523648
0.511896
0.499929
0.487949
0.476098
0.464476
0.45315
0.442167
0.43155
0.421277
0.411319
0.401843
0.393312
0.610089
0.596354
0.588616
0.581523
0.572714
0.562318
0.55076
0.538455
0.525758
0.512935
0.500178
0.487618
0.475346
0.463422
0.451885
0.440753
0.430009
0.419627
0.409717
0.400619
0.628504
0.61418
0.60556
0.597401
0.587501
0.576076
0.563578
0.550425
0.536961
0.523445
0.510058
0.496923
0.484126
0.471717
0.459732
0.448184
0.437061
0.426336
0.416073
0.406513
0.642449
0.627678
0.618385
0.609416
0.598688
0.586481
0.573272
0.559475
0.545431
0.53139
0.517526
0.503957
0.49076
0.477986
0.465661
0.453799
0.442389
0.431405
0.420874
0.410962
0.651811
0.636739
0.626992
0.617478
0.606192
0.593462
0.579774
0.565545
0.551112
0.536718
0.522533
0.508672
0.495209
0.482189
0.469637
0.457563
0.445961
0.434803
0.424092
0.413944
0.656515
0.641291
0.631316
0.621527
0.609961
0.596967
0.583039
0.568594
0.553964
0.539393
0.525048
0.511041
0.497443
0.484299
0.471633
0.459454
0.447755
0.43651
0.425708
0.415441
0.656522
0.641298
0.631323
0.621534
0.609968
0.596973
0.583045
0.5686
0.55397
0.539399
0.525053
0.511046
0.497448
0.484304
0.471638
0.459459
0.44776
0.436515
0.425713
0.415445
0.651833
0.63676
0.627013
0.617498
0.606211
0.59348
0.579792
0.565563
0.551129
0.536734
0.52255
0.508688
0.495225
0.482204
0.469652
0.457578
0.445976
0.434818
0.424106
0.413958
0.642485
0.627713
0.61842
0.609449
0.59872
0.586512
0.573302
0.559504
0.54546
0.531418
0.517553
0.503983
0.490787
0.478012
0.465687
0.453824
0.442413
0.431429
0.420898
0.410986
0.628555
0.61423
0.605609
0.597448
0.587546
0.576119
0.56362
0.550466
0.537001
0.523484
0.510096
0.496961
0.484162
0.471753
0.459767
0.448219
0.437095
0.42637
0.416107
0.406545
0.610154
0.596419
0.588679
0.581583
0.572773
0.562374
0.550814
0.538508
0.52581
0.512986
0.500227
0.487666
0.475393
0.463468
0.45193
0.440797
0.430053
0.419671
0.40976
0.400661
0.587433
0.574421
0.567762
0.561974
0.554505
0.545374
0.534972
0.523713
0.511959
0.499991
0.488009
0.476157
0.464534
0.453207
0.442223
0.431604
0.421331
0.411373
0.401896
0.393363
0.560577
0.548413
0.543019
0.538764
0.532875
0.525238
0.516202
0.506179
0.495542
0.484584
0.473521
0.462507
0.451651
0.441031
0.430703
0.420694
0.410979
0.401524
0.392558
0.384692
0.529803
0.518606
0.514643
0.51213
0.508039
0.502107
0.494634
0.486025
0.476665
0.466864
0.456852
0.446798
0.436822
0.427013
0.417437
0.408128
0.399056
0.390182
0.381798
0.374692
0.495366
0.485239
0.482856
0.482269
0.480177
0.476145
0.470414
0.463383
0.455451
0.446941
0.438105
0.429124
0.420133
0.411231
0.402498
0.393975
0.385627
0.377407
0.369673
0.363411
0.457547
0.448585
0.447906
0.449407
0.44949
0.447533
0.443708
0.438405
0.432034
0.424941
0.417392
0.409588
0.401676
0.393771
0.385964
0.378308
0.370761
0.363265
0.356243
0.350905
0.416661
0.408944
0.41007
0.413792
0.416202
0.416471
0.414695
0.411252
0.406565
0.400997
0.394835
0.388299
0.381552
0.374723
0.367918
0.3612
0.354526
0.347821
0.341567
0.337223
0.373048
0.366643
0.369649
0.375694
0.380554
0.383177
0.383573
0.382103
0.379201
0.375251
0.370562
0.365372
0.359863
0.354177
0.348438
0.342723
0.336986
0.331133
0.3257
0.322417
0.327076
0.322035
0.326968
0.335408
0.34281
0.347886
0.350551
0.351146
0.350113
0.347857
0.344709
0.340927
0.336711
0.332222
0.3276
0.32294
0.318196
0.31325
0.308682
0.306522
0.279135
0.275496
0.282374
0.293244
0.303247
0.310848
0.315855
0.318582
0.31948
0.318974
0.317415
0.315083
0.3122
0.308943
0.305471
0.301901
0.298191
0.294196
0.290532
0.289556
0.229635
0.227421
0.236233
0.249534
0.262162
0.272328
0.279721
0.284625
0.287493
0.288769
0.288826
0.287968
0.286433
0.284421
0.282111
0.279642
0.276984
0.273966
0.271229
0.271498
0.179006
0.178225
0.18893
0.204625
0.219868
0.232605
0.242402
0.249499
0.254353
0.257421
0.259099
0.259711
0.259514
0.258729
0.257556
0.256162
0.254532
0.252471
0.250658
0.252243
0.127692
0.128337
0.140865
0.158881
0.176691
0.191974
0.204162
0.213445
0.220274
0.225122
0.228401
0.230454
0.231558
0.23195
0.231858
0.231475
0.230799
0.229611
0.228645
0.231604
0.0761452
0.0781975
0.0924489
0.112676
0.132969
0.150742
0.16528
0.176717
0.185491
0.192085
0.196925
0.200368
0.202706
0.204188
0.205059
0.205539
0.205611
0.204987
0.20456
0.208988
0.0248267
0.0282532
0.0441025
0.0663958
0.089053
0.109228
0.126049
0.139583
0.150252
0.158538
0.164879
0.169639
0.173116
0.175561
0.17723
0.178382
0.179008
0.178644
0.178167
0.183685
-0.0258026
-0.0210471
-0.00374975
0.0204322
0.0453014
0.0677593
0.0867729
0.102333
0.114833
0.124753
0.132536
0.138553
0.143101
0.146419
0.148749
0.15036
0.151229
0.150395
0.147596
0.150983
-0.0752854
-0.0692576
-0.050684
-0.0248214
0.00207553
0.0266715
0.0477658
0.0652629
0.0795211
0.0910106
0.100172
0.107373
0.112895
0.116941
0.119668
0.12122
0.121502
0.119682
0.115069
0.110408
-0.123184
-0.115948
-0.096286
-0.0689772
-0.0402652
-0.0137016
0.00934213
0.028676
0.0446163
0.0576196
0.0681248
0.0765006
0.0830323
0.0879224
0.0913157
0.0933403
0.0940219
0.0930127
0.0898635
0.085578
-0.16907
-0.160699
-0.140153
-0.111656
-0.0813695
-0.0530331
-0.0281889
-0.00712856
0.0104166
0.024889
0.0367305
0.0463223
0.053972
0.0599155
0.0643345
0.0673883
0.0692147
0.0698542
0.06921
0.0670223
-0.212546
-0.203121
-0.181904
-0.152498
-0.120901
-0.091011
-0.0645355
-0.0418738
-0.0228113
-0.00692326
0.0062355
0.0170607
0.0258828
0.0329695
0.038536
0.0427632
0.0458284
0.0479432
0.0492354
0.0490755
-0.253246
-0.242853
-0.221184
-0.191163
-0.158546
-0.127346
-0.0994308
-0.0753135
-0.0548416
-0.0376144
-0.0231887
-0.0111588
-0.00117808
0.00704234
0.0137401
0.0191116
0.0233506
0.0267228
0.0294185
0.0307251
-0.290847
-0.279577
-0.257676
-0.227345
-0.194016
-0.161774
-0.132636
-0.107232
-0.0854814
-0.0670165
-0.0514026
-0.0382299
-0.0271417
-0.0178357
-0.01006
-0.00360587
0.00173231
0.00623673
0.0100758
0.0124132
-0.325074
-0.313019
-0.291102
-0.26077
-0.227055
-0.194062
-0.16394
-0.137441
-0.114565
-0.0949863
-0.0782859
-0.0640565
-0.0519368
-0.0416172
-0.0328377
-0.0253839
-0.0190434
-0.0135247
-0.00868002
-0.00547657
-0.355705
-0.342959
-0.321232
-0.291206
-0.25744
-0.224006
-0.193161
-0.165781
-0.141953
-0.121404
-0.103739
-0.0885606
-0.0755074
-0.0642676
-0.0545786
-0.0462239
-0.0389908
-0.0325815
-0.0268459
-0.0228225
-0.382578
-0.369236
-0.347887
-0.318463
-0.284986
-0.251433
-0.220146
-0.192117
-0.16753
-0.146173
-0.127684
-0.11168
-0.0978081
-0.0857576
-0.0752658
-0.0661167
-0.0581009
-0.0509208
-0.0444123
-0.0396252
-0.405591
-0.391747
-0.370945
-0.3424
-0.309546
-0.276206
-0.244771
-0.216342
-0.191204
-0.169215
-0.150056
-0.133365
-0.1188
-0.106058
-0.0948771
-0.0850442
-0.076355
-0.0685185
-0.0613556
-0.0558918
-0.42471
-0.410456
-0.390344
-0.362928
-0.331018
-0.298221
-0.26694
-0.238373
-0.212906
-0.190474
-0.170808
-0.153576
-0.138452
-0.125142
-0.11339
-0.102986
-0.0937331
-0.0853499
-0.0776442
-0.0715988
-0.439962
-0.42539
-0.406082
-0.380009
-0.349341
-0.317409
-0.286588
-0.258151
-0.232584
-0.209907
-0.189905
-0.172285
-0.15674
-0.14299
-0.130787
-0.119925
-0.110215
-0.101389
-0.0932433
-0.0867039
-0.451441
-0.436642
-0.418221
-0.393663
-0.3645
-0.33374
-0.303679
-0.275643
-0.250212
-0.227491
-0.20733
-0.189476
-0.17365
-0.159588
-0.147052
-0.135843
-0.125781
-0.116612
-0.108122
-0.101169
-0.459301
-0.444367
-0.426884
-0.403965
-0.37653
-0.34722
-0.318207
-0.29084
-0.26578
-0.24322
-0.223077
-0.205146
-0.189179
-0.174932
-0.162181
-0.150734
-0.14042
-0.131003
-0.122259
-0.11497
-0.463752
-0.448775
-0.432254
-0.411047
-0.385511
-0.357893
-0.330194
-0.303754
-0.279299
-0.257103
-0.237156
-0.219303
-0.203334
-0.189028
-0.176175
-0.164596
-0.154128
-0.144554
-0.135643
-0.128098
-0.465053
-0.450128
-0.434566
-0.415092
-0.391571
-0.365841
-0.339695
-0.314424
-0.290798
-0.269166
-0.249588
-0.231967
-0.216132
-0.201889
-0.189047
-0.177439
-0.166912
-0.157268
-0.148276
-0.140553
-0.463507
-0.44873
-0.434103
-0.416337
-0.394886
-0.371188
-0.346794
-0.322909
-0.300325
-0.279448
-0.26041
-0.243171
-0.227601
-0.21354
-0.200818
-0.189279
-0.178785
-0.169156
-0.160163
-0.152341
-0.459449
-0.444918
-0.431187
-0.415059
-0.395674
-0.374094
-0.351604
-0.329294
-0.307943
-0.288004
-0.269668
-0.252954
-0.237779
-0.224014
-0.211515
-0.200142
-0.189769
-0.180235
-0.171321
-0.163476
-0.453234
-0.439051
-0.426167
-0.411572
-0.394193
-0.374754
-0.35427
-0.333684
-0.313733
-0.294897
-0.277418
-0.261367
-0.246709
-0.233351
-0.221175
-0.21006
-0.199893
-0.190532
-0.181771
-0.173979
-0.445232
-0.431494
-0.419409
-0.406218
-0.390734
-0.373399
-0.354965
-0.336207
-0.317795
-0.300208
-0.283726
-0.268467
-0.254443
-0.241597
-0.229839
-0.219069
-0.209189
-0.200077
-0.191541
-0.183876
-0.43581
-0.422613
-0.41128
-0.39935
-0.385613
-0.370288
-0.35389
-0.337014
-0.32024
-0.304023
-0.288663
-0.274316
-0.261035
-0.2488
-0.237552
-0.227211
-0.217695
-0.208904
-0.200661
-0.193196
-0.425326
-0.412761
-0.40214
-0.391327
-0.37916
-0.365705
-0.351269
-0.336278
-0.321199
-0.306443
-0.292309
-0.27898
-0.266543
-0.255013
-0.24436
-0.234527
-0.225451
-0.21705
-0.209166
-0.201972
-0.414118
-0.402267
-0.392326
-0.382493
-0.371708
-0.359945
-0.34735
-0.334191
-0.320818
-0.307576
-0.294748
-0.282527
-0.271024
-0.260285
-0.250308
-0.24106
-0.232494
-0.224548
-0.217088
-0.210234
-0.402497
-0.391429
-0.382148
-0.373171
-0.363582
-0.35331
-0.342392
-0.330963
-0.319258
-0.307547
-0.296074
-0.285029
-0.274537
-0.264667
-0.25544
-0.246847
-0.23886
-0.231433
-0.224456
-0.218009
-0.390737
-0.380507
-0.371875
-0.363652
-0.355082
-0.346096
-0.336663
-0.32682
-0.316699
-0.306489
-0.296386
-0.286561
-0.277139
-0.268204
-0.259795
-0.251924
-0.244578
-0.237732
-0.231295
-0.225316
-0.379076
-0.369724
-0.361734
-0.354183
-0.346478
-0.338579
-0.330427
-0.321994
-0.31333
-0.30455
-0.295795
-0.287202
-0.278888
-0.270939
-0.263406
-0.256316
-0.249673
-0.243464
-0.237621
-0.232168
-0.367711
-0.359258
-0.351907
-0.344968
-0.338001
-0.331008
-0.323933
-0.316717
-0.309352
-0.301892
-0.294421
-0.28704
-0.279845
-0.272914
-0.266303
-0.260046
-0.254159
-0.248642
-0.243444
-0.238568
-0.356799
-0.349247
-0.342535
-0.336165
-0.329835
-0.323594
-0.317408
-0.311212
-0.304969
-0.298685
-0.2924
-0.286174
-0.280077
-0.274173
-0.268511
-0.263129
-0.258046
-0.25327
-0.248767
-0.24451
-0.346459
-0.339794
-0.333714
-0.327883
-0.322116
-0.316503
-0.311044
-0.305684
-0.300379
-0.295108
-0.289876
-0.284714
-0.279662
-0.274764
-0.270059
-0.265578
-0.261338
-0.257351
-0.25359
-0.249989
-0.336773
-0.330965
-0.325508
-0.320194
-0.314937
-0.309859
-0.304993
-0.300307
-0.295764
-0.291334
-0.287005
-0.282784
-0.27869
-0.274746
-0.270979
-0.267407
-0.26404
-0.260883
-0.257914
-0.255009
-0.327793
-0.322797
-0.317945
-0.313134
-0.30835
-0.303741
-0.299366
-0.29522
-0.291282
-0.287528
-0.283941
-0.280518
-0.277265
-0.274193
-0.271315
-0.268637
-0.266158
-0.26387
-0.261753
-0.259594
-0.319541
-0.315302
-0.311034
-0.306711
-0.302375
-0.298189
-0.294232
-0.290524
-0.287061
-0.283833
-0.280831
-0.278053
-0.275503
-0.273189
-0.27112
-0.269296
-0.267705
-0.266322
-0.265128
-0.263801
-0.312019
-0.308474
-0.304759
-0.300908
-0.297003
-0.293211
-0.289624
-0.28628
-0.283192
-0.280367
-0.277807
-0.275522
-0.273524
-0.271832
-0.270462
-0.269419
-0.268692
-0.268245
-0.268062
-0.267725
-0.305206
-0.302289
-0.299093
-0.295695
-0.292206
-0.288789
-0.285541
-0.282513
-0.27973
-0.277212
-0.274975
-0.273043
-0.271446
-0.270223
-0.269412
-0.269043
-0.269123
-0.269628
-0.270549
-0.271456
-0.29907
-0.296711
-0.293996
-0.291031
-0.287943
-0.284887
-0.281961
-0.279219
-0.276695
-0.274416
-0.272409
-0.270712
-0.269374
-0.26846
-0.268043
-0.268197
-0.268981
-0.270414
-0.272515
-0.275042
-0.293563
-0.291695
-0.289421
-0.286865
-0.284162
-0.281456
-0.27884
-0.276368
-0.274077
-0.271994
-0.270153
-0.268599
-0.267395
-0.266632
-0.266422
-0.266902
-0.268212
-0.270469
-0.273764
-0.278359
-0.288632
-0.287192
-0.285318
-0.283143
-0.280806
-0.278438
-0.276123
-0.273913
-0.271841
-0.269933
-0.268218
-0.266742
-0.265572
-0.264814
-0.264615
-0.265175
-0.266741
-0.269579
-0.273961
-0.281101
-0.284217
-0.283148
-0.281633
-0.27981
-0.277817
-0.27577
-0.273747
-0.271792
-0.269933
-0.26819
-0.266584
-0.265149
-0.263945
-0.263073
-0.262692
-0.263045
-0.264481
-0.267441
-0.272554
-0.282479
-0.280258
-0.279511
-0.278315
-0.276812
-0.275137
-0.273393
-0.271647
-0.269938
-0.268288
-0.266708
-0.265206
-0.2638
-0.262527
-0.261462
-0.260742
-0.260604
-0.261438
-0.263819
-0.268994
-0.281722
-0.2767
-0.276229
-0.275315
-0.2741
-0.272714
-0.271247
-0.269759
-0.268283
-0.266834
-0.265414
-0.264018
-0.262644
-0.261297
-0.260005
-0.258837
-0.257945
-0.257613
-0.258295
-0.261632
-0.274666
-0.273491
-0.27326
-0.272592
-0.271631
-0.270502
-0.269285
-0.26803
-0.266768
-0.265505
-0.264238
-0.26295
-0.261618
-0.260213
-0.258697
-0.257021
-0.255123
-0.252893
-0.24987
-0.24482
-0.238886
-0.270587
-0.270563
-0.270109
-0.269369
-0.268465
-0.267468
-0.26642
-0.265347
-0.264254
-0.263131
-0.261957
-0.260699
-0.259314
-0.25774
-0.255898
-0.253689
-0.250996
-0.247467
-0.242223
-0.236856
-0.267954
-0.268107
-0.267837
-0.267288
-0.266579
-0.265771
-0.264902
-0.263994
-0.26305
-0.26206
-0.261002
-0.259844
-0.258543
-0.257047
-0.255292
-0.253217
-0.25077
-0.247743
-0.24366
-0.240294
-0.265563
-0.265869
-0.265755
-0.265368
-0.264826
-0.26418
-0.263465
-0.262698
-0.261884
-0.261012
-0.260064
-0.259012
-0.25782
-0.256447
-0.254849
-0.252994
-0.250863
-0.248302
-0.245053
-0.242898
-0.263392
-0.263828
-0.263846
-0.263598
-0.263198
-0.26269
-0.262106
-0.261462
-0.260761
-0.259997
-0.259153
-0.258207
-0.257134
-0.255904
-0.25449
-0.252885
-0.251093
-0.249005
-0.246485
-0.24515
-0.261426
-0.26197
-0.2621
-0.261969
-0.26169
-0.261301
-0.260831
-0.260295
-0.259697
-0.259033
-0.258291
-0.257455
-0.256508
-0.255434
-0.254221
-0.252877
-0.251425
-0.249788
-0.247891
-0.247134
-0.259652
-0.260283
-0.260506
-0.260475
-0.2603
-0.260015
-0.259646
-0.259208
-0.258707
-0.25814
-0.2575
-0.256779
-0.255965
-0.255052
-0.254041
-0.252951
-0.251811
-0.250563
-0.249156
-0.248793
-0.258056
-0.258759
-0.259059
-0.259113
-0.259027
-0.258835
-0.258557
-0.258211
-0.257802
-0.257331
-0.256795
-0.25619
-0.255512
-0.254761
-0.253944
-0.253086
-0.252218
-0.251289
-0.250253
-0.250153
-0.256629
-0.257387
-0.257751
-0.257877
-0.257871
-0.25776
-0.257567
-0.257307
-0.256987
-0.256611
-0.256178
-0.255688
-0.255143
-0.254547
-0.25391
-0.253257
-0.252618
-0.251942
-0.251183
-0.251259
-0.25536
-0.25616
-0.256577
-0.256765
-0.256828
-0.256791
-0.256675
-0.256496
-0.256261
-0.255976
-0.255643
-0.255265
-0.254846
-0.254392
-0.253914
-0.253437
-0.252985
-0.252508
-0.251953
-0.252152
-0.254238
-0.255071
-0.255531
-0.255772
-0.255895
-0.255925
-0.255879
-0.255775
-0.25562
-0.255421
-0.255182
-0.254907
-0.254602
-0.254274
-0.253934
-0.253604
-0.253303
-0.252978
-0.252578
-0.252863
-0.253255
-0.254112
-0.254607
-0.254893
-0.255069
-0.255157
-0.255176