1.22 	3.45254e-18 	-6.98323e-18 	-0.365796 	0.00944079 	-6.48765e-22
1.66 	3.45254e-18 	-6.96118e-18 	-0.601029 	0.000365401 	-5.48712e-23
2.1 	3.45254e-18 	-6.93894e-18 	-0.395436 	-0.00577887 	-1.32868e-21
2.54 	3.45254e-18 	-8.30431e-18 	-0.274536 	-0.00685886 	-3.41122e-24
2.98 	3.45254e-18 	-8.28171e-18 	0.00484235 	-0.00761643 	1.25923e-22
3.42 	3.45254e-18 	-6.87115e-18 	0.184822 	-0.00639679 	-2.09341e-22
3.86 	3.45254e-18 	-6.84819e-18 	0.37867 	-0.00553571 	-6.73413e-23
4.3 	3.45254e-18 	-6.82504e-18 	0.510407 	-0.0041636 	-3.49018e-22
4.74 	3.45254e-18 	-5.41391e-18 	0.614244 	-0.00320969 	2.06939e-22
5.18 	3.45254e-18 	-2.61482e-18 	0.689865 	-0.00253907 	1.11864e-22
5.62 	3.45254e-18 	-1.2033e-18 	0.752099 	-0.00209929 	-4.76624e-23
6.06 	3.45254e-18 	-1.17937e-18 	0.803458 	-0.00174107 	-1.24919e-22
6.5 	3.45254e-18 	-1.15524e-18 	0.846742 	-0.00142991 	6.01341e-23
