1.275 	2.15223e-18 	-2.76991e-20 	-0.436461
1.825 	2.15223e-18 	-1.39322e-20 	-0.366551
2.375 	2.15223e-18 	1.38775e-18 	-0.245668
2.925 	2.15223e-18 	2.78958e-18 	-0.233348
3.475 	2.15223e-18 	4.53849e-18 	-0.123706
4.025 	2.15223e-18 	6.28755e-18 	-0.0426641
4.575 	2.15223e-18 	6.30203e-18 	-0.0930452
5.125 	2.15223e-18 	6.31666e-18 	-0.14879
5.675 	2.15223e-18 	6.33144e-18 	-0.0967506
6.225 	2.15223e-18 	4.61166e-18 	-0.0613982
