1.275 	2.15223e-18 	-2.76991e-20 	-0.136342 	0.0118469 	-2.52743e-22
1.825 	2.15223e-18 	-1.39322e-20 	-0.264997 	0.0192741 	3.43437e-21
2.375 	2.15223e-18 	-2.66896e-23 	-0.316397 	0.00249422 	-1.60268e-21
