/*--------------------------------*- C++ -*----------------------------------*\
  =========                 |
  \\      /  F ield         | OpenFOAM: The Open Source CFD Toolbox
   \\    /   O peration     | Website:  https://openfoam.org
    \\  /    A nd           | Version:  6.0
     \\/     M anipulation  |
\*---------------------------------------------------------------------------*/
FoamFile
{
    version     2.0;
    format      ascii;
    class       surfaceScalarField;
    location    "93";
    object      phi;
}
// * * * * * * * * * * * * * * * * * * * * * * * * * * * * * * * * * * * * * //

dimensions      [0 3 -1 0 0 0 0];

internalField   nonuniform List<scalar> 
15760
(
-5.69961e-07
-0.000127323
0.000127893
-4.04549e-06
-0.000320752
0.000324228
-1.10851e-05
-0.000465591
0.000472631
-2.1509e-05
-0.000570829
0.000581253
-3.4582e-05
-0.000644784
0.000657857
-4.92735e-05
-0.000695021
0.000709712
-6.44777e-05
-0.0007279
0.000743105
-7.9174e-05
-0.000748379
0.000763076
-9.25281e-05
-0.000760057
0.000773411
-0.000103942
-0.000765364
0.000776778
-0.000113063
-0.000765824
0.000774945
-0.000119768
-0.000762317
0.000769023
-0.000124127
-0.000755314
0.000759672
-0.000126351
-0.000745052
0.000747277
-0.000126749
-0.000731661
0.000732059
-0.000125664
-0.000715234
0.000714149
-0.00012343
-0.000695864
0.000693631
-0.000120331
-0.000673635
0.000670536
-0.000116565
-0.000648527
0.00064476
-0.000620413
0.000616051
-0.000112203
-2.35843e-06
-0.000124965
-9.88606e-06
-0.000313224
-2.23296e-05
-0.000453148
-3.88569e-05
-0.000554301
-5.8279e-05
-0.000625362
-7.92639e-05
-0.000674036
-0.000100518
-0.000706647
-0.000120911
-0.000727986
-0.000139558
-0.00074141
-0.000155849
-0.000749073
-0.000169455
-0.000752218
-0.000180306
-0.000751467
-0.00018855
-0.000747069
-0.000194506
-0.000739096
-0.000198601
-0.000727566
-0.000201308
-0.000712527
-0.000203083
-0.000694089
-0.000204311
-0.000672407
-0.000205264
-0.000647574
-0.000619626
-0.00020605
-4.24392e-06
-0.000120721
-1.59421e-05
-0.000301526
-3.38544e-05
-0.000435235
-5.64799e-05
-0.000531676
-8.21865e-05
-0.000599655
-0.000109362
-0.000646861
-0.000136539
-0.00067947
-0.000162485
-0.000702039
-0.000186254
-0.000717641
-0.000207205
-0.000728122
-0.000225
-0.000734423
-0.000239585
-0.000736881
-0.000251156
-0.000735498
-0.000260109
-0.000730143
-0.000266977
-0.000720698
-0.000272361
-0.000707143
-0.000276852
-0.000689598
-0.000280962
-0.000668297
-0.000285067
-0.000643469
-0.000615342
-0.000289351
-6.17586e-06
-0.000114545
-2.20567e-05
-0.000285645
-4.53765e-05
-0.000411915
-7.3973e-05
-0.000503079
-0.000105799
-0.000567829
-0.000138991
-0.000613669
-0.000171933
-0.000646528
-0.000203295
-0.000670677
-0.00023206
-0.000688876
-0.000257529
-0.000702654
-0.000279317
-0.000712635
-0.000297342
-0.000718856
-0.0003118
-0.00072104
-0.000323123
-0.00071882
-0.000331924
-0.000711897
-0.000338921
-0.000700146
-0.000344855
-0.000683665
-0.000350396
-0.000662756
-0.000356066
-0.000637799
-0.000609242
-0.000362166
-8.09014e-06
-0.000106455
-2.80374e-05
-0.000265698
-5.65522e-05
-0.000383401
-9.08449e-05
-0.000468787
-0.000128497
-0.000530177
-0.000167435
-0.000574731
-0.000205919
-0.000608044
-0.000242535
-0.000634061
-0.000276189
-0.000655222
-0.000306097
-0.000672745
-0.000331788
-0.000686944
-0.000353096
-0.000697548
-0.000370157
-0.000703979
-0.000383385
-0.000705592
-0.00039343
-0.000701852
-0.000401108
-0.000692468
-0.000407311
-0.000677462
-0.000412901
-0.000657166
-0.0004186
-0.000632099
-0.000602954
-0.000424888
-9.90941e-06
-9.65455e-05
-3.36566e-05
-0.000241951
-6.69775e-05
-0.00035008
-0.000106515
-0.000429249
-0.000149537
-0.000487155
-0.000193806
-0.000530461
-0.000237498
-0.000564353
-0.000279131
-0.000592427
-0.000317535
-0.000616818
-0.000351825
-0.000638456
-0.000381401
-0.000657368
-0.000405962
-0.000672987
-0.000425515
-0.000684426
-0.000440385
-0.000690722
-0.000451195
-0.000691042
-0.000458819
-0.000684844
-0.000464291
-0.00067199
-0.000468691
-0.000652766
-0.000473
-0.00062779
-0.000597998
-0.000477956
-1.15455e-05
-8.5e-05
-3.86584e-05
-0.000214838
-7.61981e-05
-0.00031254
-0.000120323
-0.000385125
-0.000168055
-0.000439423
-0.000217051
-0.000481465
-0.000265438
-0.000515966
-0.0003117
-0.000546166
-0.000354601
-0.000573917
-0.000393151
-0.000599906
-0.000426598
-0.000623921
-0.000454454
-0.000645131
-0.000476531
-0.000662349
-0.000492981
-0.000674272
-0.000504319
-0.000679704
-0.000511406
-0.000677758
-0.000515383
-0.000668013
-0.000517555
-0.000650593
-0.000519222
-0.000626124
-0.000595743
-0.000521477
-1.29044e-05
-7.20957e-05
-4.27723e-05
-0.00018497
-8.37319e-05
-0.00027158
-0.000131559
-0.000337298
-0.000183104
-0.000387877
-0.000235973
-0.000428596
-0.000288293
-0.000463646
-0.000338548
-0.000495911
-0.000385467
-0.000526998
-0.000427969
-0.000557404
-0.000465148
-0.000586742
-0.000496302
-0.000613978
-0.00052099
-0.000637661
-0.000539109
-0.000656153
-0.000550962
-0.000667851
-0.000557297
-0.000671422
-0.00055929
-0.00066602
-0.000558446
-0.000651437
-0.000556423
-0.000628147
-0.000597385
-0.00055478
-1.38943e-05
-5.82013e-05
-4.57344e-05
-0.00015313
-8.91044e-05
-0.00022821
-0.000139511
-0.000286891
-0.000193709
-0.00033368
-0.000249304
-0.000373
-0.00030447
-0.00040848
-0.000357734
-0.000442648
-0.000407833
-0.000476898
-0.000453636
-0.0005116
-0.000494111
-0.000546267
-0.000528346
-0.000579743
-0.000555621
-0.000610386
-0.000575511
-0.000636263
-0.000588003
-0.000655359
-0.000593605
-0.00066582
-0.000593403
-0.000666222
-0.000589026
-0.000655814
-0.000582494
-0.000634678
-0.00060394
-0.00057594
-1.44361e-05
-4.37653e-05
-4.73155e-05
-0.000120251
-9.18963e-05
-0.000183629
-0.000143536
-0.000235252
-0.000198958
-0.000278258
-0.000255817
-0.000316142
-0.000312366
-0.000351931
-0.000367218
-0.000387795
-0.000419175
-0.000424942
-0.000467113
-0.000463662
-0.000509937
-0.000503444
-0.000546578
-0.000543101
-0.00057606
-0.000580904
-0.000597608
-0.000614716
-0.000610811
-0.000642157
-0.0006158
-0.000660831
-0.000613407
-0.000668615
-0.000605236
-0.000663986
-0.000593604
-0.00064631
-0.000616255
-0.000581289
-1.44739e-05
-2.92914e-05
-4.73509e-05
-8.73737e-05
-9.17975e-05
-0.000139183
-0.000143137
-0.000183912
-0.000198121
-0.000223274
-0.000254474
-0.000259789
-0.000310557
-0.000295848
-0.0003651
-0.000333252
-0.000417017
-0.000373025
-0.000465267
-0.000415412
-0.000508781
-0.000459929
-0.000546433
-0.00050545
-0.00057707
-0.000550266
-0.000599618
-0.000592168
-0.000613242
-0.000628533
-0.000617588
-0.000656484
-0.000613046
-0.000673158
-0.000600972
-0.000676059
-0.000583812
-0.00066347
-0.000635079
-0.000564988
-1.39862e-05
-1.53052e-05
-4.57701e-05
-5.55898e-05
-8.86594e-05
-9.62936e-05
-0.000138051
-0.00013452
-0.000190761
-0.000170564
-0.000244599
-0.00020595
-0.000298032
-0.000242415
-0.000349921
-0.000281363
-0.000399323
-0.000323623
-0.000445347
-0.000369388
-0.000487048
-0.000418228
-0.00052337
-0.000469128
-0.000553135
-0.000520502
-0.000575093
-0.000570209
-0.000588066
-0.00061556
-0.000591184
-0.000653366
-0.000584238
-0.000680104
-0.000568071
-0.000692226
-0.000544956
-0.000686585
-0.00066122
-0.000518815
-1.29924e-05
-2.31277e-06
-4.26168e-05
-2.59654e-05
-8.25347e-05
-5.63756e-05
-0.000128307
-8.87478e-05
-0.000176843
-0.000122028
-0.000226028
-0.000156765
-0.000274416
-0.000194028
-0.000320982
-0.000234797
-0.000364932
-0.000279672
-0.000405558
-0.000328762
-0.000442119
-0.000381668
-0.000473757
-0.000437489
-0.000499443
-0.000494816
-0.000517961
-0.000551691
-0.000527976
-0.000605545
-0.000528215
-0.000653128
-0.000517823
-0.000690495
-0.000496887
-0.000713162
-0.000467097
-0.000716375
-0.00069581
-0.000432508
-1.15548e-05
9.24203e-06
-3.80553e-05
5.35102e-07
-7.36921e-05
-2.07388e-05
-0.000114264
-4.81763e-05
-0.000156787
-7.95048e-05
-0.000199203
-0.000114349
-0.000240117
-0.000153114
-0.000278579
-0.000196335
-0.000313915
-0.000244337
-0.000345588
-0.000297089
-0.000373091
-0.000354164
-0.000395851
-0.00041473
-0.000413139
-0.000477528
-0.000424002
-0.000540828
-0.000427226
-0.000602321
-0.000421401
-0.000658953
-0.000405177
-0.000706719
-0.000377786
-0.000740553
-0.000339914
-0.000754247
-0.000740598
-0.000295125
-9.77318e-06
1.90152e-05
-3.23589e-05
2.31208e-05
-6.25996e-05
9.50185e-06
-9.65847e-05
-1.41912e-05
-0.000131447
-4.46422e-05
-0.000165162
-8.06338e-05
-0.000196343
-0.000121933
-0.000224062
-0.000168616
-0.000247707
-0.000220692
-0.000266866
-0.00027793
-0.000281235
-0.000339795
-0.000290534
-0.000405431
-0.000294411
-0.000473651
-0.000292343
-0.000542895
-0.000283522
-0.000611142
-0.000266772
-0.000675703
-0.000240608
-0.000732883
-0.000203595
-0.000777566
-0.000155171
-0.000802671
-0.000798126
-9.76434e-05
-7.77365e-06
2.67889e-05
-2.58802e-05
4.12274e-05
-4.98748e-05
3.34965e-05
-7.61698e-05
1.21037e-05
-0.00010202
-1.87923e-05
-0.000125416
-5.72377e-05
-0.000144944
-0.000102405
-0.000159647
-0.000153913
-0.000168913
-0.000211426
-0.000172384
-0.000274459
-0.000169887
-0.000342292
-0.000161373
-0.000413946
-0.000146843
-0.000488181
-0.000126253
-0.000563485
-9.93722e-05
-0.000638023
-6.56005e-05
-0.000709475
-2.38151e-05
-0.000774668
2.75879e-05
-0.000828969
9.02281e-05
-0.000865311
-0.000871571
0.000163674
-5.69231e-06
3.24812e-05
-1.9007e-05
5.45421e-05
-3.62074e-05
5.06968e-05
-5.40375e-05
2.99338e-05
-6.98763e-05
-2.95356e-06
-8.17222e-05
-4.53918e-05
-8.81117e-05
-9.60157e-05
-8.80237e-05
-0.000154001
-8.07959e-05
-0.000218654
-6.60613e-05
-0.000289194
-4.37009e-05
-0.000364652
-1.38066e-05
-0.00044384
2.33611e-05
-0.000525349
6.74368e-05
-0.000607561
0.000118065
-0.000688651
0.000175101
-0.00076651
0.000238888
-0.000838455
0.000310519
-0.0009006
0.00039191
-0.000946702
-0.000964331
0.000484669
-3.65735e-06
3.61385e-05
-1.21119e-05
6.29967e-05
-2.22685e-05
6.08534e-05
-3.11869e-05
3.88522e-05
-3.63688e-05
2.22837e-06
-3.58186e-05
-4.5942e-05
-2.80165e-05
-0.000103818
-1.18629e-05
-0.000170155
1.33762e-05
-0.000243893
4.81112e-05
-0.000323929
9.24565e-05
-0.000408997
0.000146248
-0.000497631
0.000209059
-0.00058816
0.000280232
-0.000678733
0.000358932
-0.000767352
0.000444301
-0.000851879
0.000535734
-0.000929889
0.0006333
-0.000998166
0.000738189
-0.00105159
-0.00107979
0.000853649
-1.77248e-06
3.7911e-05
-5.50426e-06
6.67285e-05
-8.62234e-06
6.39715e-05
-8.46201e-06
3.86918e-05
-2.63803e-06
-3.5956e-06
1.0837e-05
-5.9417e-05
3.35322e-05
-0.000126513
6.66173e-05
-0.00020324
0.00011089
-0.000288165
0.000166797
-0.000379836
0.000234451
-0.000476651
0.000313638
-0.000576818
0.000403825
-0.000678347
0.00050417
-0.000779079
0.000613539
-0.000876721
0.000730544
-0.000968884
0.000853702
-0.00105305
0.000981757
-0.00112622
0.00111435
-0.00118419
-0.0012208
0.00125537
-1.04495e-07
3.80155e-05
6.08143e-07
6.60159e-05
4.34455e-06
6.02351e-05
1.3556e-05
2.94804e-05
3.05338e-05
-2.05734e-05
5.72529e-05
-8.61361e-05
9.53118e-05
-0.000164572
0.000145916
-0.000253844
0.000209879
-0.000352128
0.000287625
-0.000457582
0.000379201
-0.000568228
0.000484294
-0.000681911
0.000602264
-0.000796317
0.000732192
-0.000909007
0.00087294
-0.00101747
0.0010232
-0.00111914
0.00118149
-0.00121133
0.00134581
-0.00129055
0.00151202
-0.0013504
-0.00137794
0.00166915
1.32272e-06
3.66928e-05
6.14009e-06
6.11985e-05
1.64654e-05
4.99098e-05
3.46128e-05
1.13329e-05
6.28059e-05
-4.87665e-05
0.000102998
-0.000126328
0.000156779
-0.000218353
0.000225321
-0.000322386
0.000309352
-0.000436159
0.000409137
-0.000557368
0.000524495
-0.000683585
0.000654826
-0.000812243
0.000799202
-0.000940692
0.00095649
-0.00106629
0.00112556
-0.00118654
0.0013056
-0.00129918
0.00149658
-0.00140231
0.00170035
-0.00149432
0.00192423
-0.00157428
-0.00164086
0.00218716
2.52987e-06
3.41629e-05
1.11339e-05
5.25944e-05
2.78011e-05
3.32427e-05
5.47893e-05
-1.56553e-05
9.42793e-05
-8.82566e-05
0.000148183
-0.000180232
0.000218014
-0.000288184
0.000304798
-0.000409171
0.000409015
-0.000540375
0.000530561
-0.000678914
0.000668767
-0.000821791
0.000822451
-0.000965927
0.000990034
-0.00110828
0.0011697
-0.00124596
0.0013596
-0.00137645
0.00155811
-0.00149769
0.00176407
-0.00160827
0.00197732
-0.00170757
0.002199
-0.00179596
-0.00187118
0.00242931
3.57332e-06
3.05896e-05
1.57399e-05
4.04279e-05
3.86089e-05
1.03737e-05
7.44527e-05
-5.14992e-05
0.000125422
-0.000139226
0.000193339
-0.000248149
0.000279539
-0.000374383
0.000384735
-0.000514367
0.000508937
-0.000664577
0.000651415
-0.000821392
0.000810734
-0.00098111
0.000984853
-0.00114005
0.00117129
-0.00129471
0.00136734
-0.001442
0.00157025
-0.00157936
0.00177748
-0.00170492
0.00198681
-0.0018176
0.00219636
-0.00191712
0.00240434
-0.00200394
-0.00207593
0.0026091
4.53535e-06
2.60543e-05
2.01852e-05
2.47781e-05
4.92821e-05
-1.87233e-05
9.4158e-05
-9.63751e-05
0.000156915
-0.000201983
0.000239204
-0.000330438
0.000342018
-0.000477198
0.000465541
-0.00063789
0.000609048
-0.000808083
0.000770906
-0.00098325
0.000948666
-0.00115887
0.00113924
-0.00133062
0.00133917
-0.00149464
0.00154485
-0.00164769
0.00175283
-0.00178734
0.00195998
-0.00191207
0.00216358
-0.00202121
0.00236137
-0.00211491
0.00255138
-0.00219394
-0.0022575
0.00273294
5.50902e-06
2.05452e-05
2.47303e-05
5.55681e-06
6.02675e-05
-5.42605e-05
0.000114516
-0.000150623
0.000189467
-0.000276934
0.000286455
-0.000427426
0.000405922
-0.000596665
0.000547249
-0.000779216
0.000708695
-0.00096953
0.00088748
-0.00116203
0.00107998
-0.00135137
0.00128203
-0.00153267
0.00148927
-0.00170189
0.00169751
-0.00185592
0.00190295
-0.00199278
0.00210242
-0.00211153
0.00229341
-0.0022122
0.00247407
-0.00229558
0.00264316
-0.00236302
-0.00241504
0.00280071
6.58328e-06
1.3962e-05
2.96231e-05
-1.7483e-05
7.19787e-05
-9.66161e-05
0.000136057
-0.000214701
0.000223615
-0.000364492
0.000335469
-0.000539281
0.000471239
-0.000732435
0.000629213
-0.00093719
0.000806381
-0.0011467
0.00099865
-0.0013543
0.00120121
-0.00155392
0.00140896
-0.00174042
0.00161697
-0.0019099
0.00182085
-0.0020598
0.00201698
-0.00218891
0.00220268
-0.00229722
0.00237615
-0.00238567
0.00253648
-0.00245591
0.00268344
-0.00250998
-0.0025495
0.00281789
7.83036e-06
6.13161e-06
3.50603e-05
-4.4713e-05
8.47215e-05
-0.000146277
0.000159116
-0.000289096
0.000259578
-0.000464954
0.000386143
-0.000665845
0.000537309
-0.000883601
0.000709997
-0.00110988
0.000899755
-0.00133646
0.00110116
-0.00155571
0.00130839
-0.00176115
0.00151574
-0.00194777
0.00171815
-0.00211232
0.00191155
-0.0022532
0.00209299
-0.00237035
0.00226067
-0.0024649
0.00241385
-0.00253885
0.00255264
-0.0025947
0.00267783
-0.00263517
-0.00266262
0.00279095
9.29792e-06
-3.16631e-06
4.11613e-05
-7.65764e-05
9.86459e-05
-0.000203762
0.000183765
-0.000374215
0.000297176
-0.000578365
0.000437828
-0.000806498
0.000602805
-0.00104858
0.00078746
-0.00129453
0.000985859
-0.00153485
0.00119143
-0.00176128
0.00139765
-0.00196737
0.00159873
-0.00214885
0.00178999
-0.00230358
0.00196813
-0.00243135
0.00213125
-0.00253347
0.00227867
-0.00261233
0.00241076
-0.00267093
0.00252859
-0.00271253
0.00263375
-0.00274033
-0.00275713
0.00272826
1.10065e-05
-1.41729e-05
4.79592e-05
-0.000113529
0.000113729
-0.000269532
0.000209793
-0.000470278
0.000335825
-0.000704398
0.000489375
-0.000960048
0.000665868
-0.00122507
0.000859013
-0.00148768
0.00106154
-0.00173738
0.00126605
-0.00196579
0.00146586
-0.00216719
0.00165558
-0.00233857
0.00183141
-0.0024794
0.00199118
-0.00259111
0.0021342
-0.00267649
0.00226095
-0.00273908
0.00237275
-0.00278273
0.00247143
-0.00281121
0.00255906
-0.00282797
-0.00283595
0.00263789
1.29518e-05
-2.71247e-05
5.54053e-05
-0.000155983
0.000129786
-0.000343912
0.00023673
-0.000577223
0.000374601
-0.000842269
0.000539258
-0.0011247
0.000724328
-0.00141014
0.000921965
-0.00168532
0.00112387
-0.00193929
0.00132235
-0.00216427
0.00151107
-0.00235591
0.00168555
-0.00251304
0.00184318
-0.00263704
0.00198313
-0.00273106
0.0021059
-0.00279925
0.00221295
-0.00284614
0.00230634
-0.00287612
0.00238833
-0.00289321
0.00246121
-0.00290084
-0.00290193
0.00252718
1.51094e-05
-4.22341e-05
6.33829e-05
-0.000204256
0.000146496
-0.000427025
0.00026391
-0.000694637
0.000412343
-0.000990702
0.000585753
-0.00129811
0.000775976
-0.00160036
0.000973872
-0.00188321
0.0011706
-0.00213601
0.00135869
-0.00235236
0.00153271
-0.00252993
0.00168942
-0.00266975
0.00182763
-0.00277524
0.00194774
-0.00285117
0.00205131
-0.00290282
0.00214054
-0.00293537
0.00221789
-0.00295347
0.0022858
-0.00296111
0.00234651
-0.00296155
-0.00295746
0.00240204
1.74404e-05
-5.96745e-05
7.17246e-05
-0.00025854
0.000163443
-0.000518743
0.000290529
-0.000821723
0.000447771
-0.00114794
0.000627125
-0.00147747
0.00081881
-0.00179205
0.00101281
-0.00207721
0.0012003
-0.00232351
0.0013746
-0.00252666
0.00153152
-0.00268685
0.00166929
-0.00280753
0.00178808
-0.00289403
0.0018894
-0.00295249
0.00197558
-0.002989
0.00204924
-0.00300903
0.00211299
-0.00301723
0.00216923
-0.00301734
0.00221998
-0.00301231
-0.00300446
0.00226698
1.98964e-05
-7.95709e-05
8.02281e-05
-0.000318872
0.000180148
-0.000618663
0.000315723
-0.000957298
0.000479606
-0.00131183
0.000661798
-0.00165966
0.000851235
-0.00198149
0.00103756
-0.00226354
0.00121253
-0.00249847
0.00137066
-0.00268479
0.00150928
-0.00282547
0.00162807
-0.00292632
0.00172839
-0.00299435
0.0018126
-0.0030367
0.0018835
-0.00305989
0.00194387
-0.0030694
0.00199626
-0.00306962
0.00204284
-0.00306393
0.00208538
-0.00305484
-0.00304436
0.00212528
2.24222e-05
-0.000101993
8.86691e-05
-0.000385119
0.000196102
-0.000726095
0.000338628
-0.00109982
0.000506671
-0.00147987
0.000688484
-0.00184147
0.000872186
-0.00216519
0.00104766
-0.00243902
0.0012077
-0.00265852
0.00134835
-0.00282543
0.00146847
-0.0029456
0.00156906
-0.00302691
0.00165244
-0.00307772
0.00172149
-0.00310576
0.00177922
-0.00311762
0.00182837
-0.00311855
0.00187127
-0.00311252
0.00190979
-0.00310245
0.0019454
-0.00309045
-0.00307815
0.0019792
2.49581e-05
-0.000126951
9.68123e-05
-0.000456973
0.000210796
-0.000840079
0.000358439
-0.00124747
0.000527978
-0.00164941
0.000706274
-0.00201977
0.000881175
-0.00234009
0.00104333
-0.00260117
0.00118695
-0.00280214
0.0013097
-0.00294818
0.00141189
-0.00304779
0.00149561
-0.00311063
0.00156381
-0.00314592
0.00161968
-0.00316163
0.00166617
-0.00316412
0.00170583
-0.00315821
0.0017407
-0.00314739
0.00177235
-0.0031341
0.00180194
-0.00312004
-0.00310651
0.00183029
2.74413e-05
-0.000154393
0.00010442
-0.000533952
0.000223747
-0.000959406
0.000374455
-0.00139817
0.000542787
-0.00181774
0.000714676
-0.00219166
0.000878257
-0.00250367
0.00102538
-0.00274829
0.0011519
-0.00292866
0.00125704
-0.00305332
0.00134239
-0.00313313
0.00141081
-0.00317905
0.00146565
-0.00320076
0.00151012
-0.00320609
0.001547
-0.003201
0.00157856
-0.00318976
0.0016065
-0.00317533
0.0016321
-0.0031597
0.00165626
-0.0031442
-0.00312984
0.0016796
2.9807e-05
-0.0001842
0.000111262
-0.000615406
0.00023452
-0.00108266
0.000386121
-0.00154978
0.000550637
-0.00198226
0.000713606
-0.00235463
0.00086396
-0.00265402
0.000995067
-0.0028794
0.00110446
-0.00303805
0.00119279
-0.00314166
0.00126265
-0.00320299
0.00131741
-0.00323382
0.00136056
-0.00324391
0.00139517
-0.0032407
0.00142375
-0.00322959
0.00144824
-0.00321425
0.00147004
-0.00319713
0.00149015
-0.00317981
0.00150926
-0.00316331
-0.0031484
0.00152782
3.19906e-05
-0.00021619
0.000117123
-0.000700539
0.000242749
-0.00120829
0.000393048
-0.00170007
0.000551352
-0.00214056
0.000703342
-0.00250662
0.000839166
-0.00278985
0.000953873
-0.00299411
0.0010466
-0.00313078
0.00111924
-0.00321429
0.00117505
-0.0032588
0.00121772
-0.00327649
0.00125064
-0.00327683
0.00127665
-0.00326671
0.00129794
-0.00325087
0.00131611
-0.00323242
0.00133229
-0.00321332
0.00134727
-0.00319479
0.00136155
-0.0031776
-0.00316231
0.00137546
3.39296e-05
-0.00025012
0.000121815
-0.000788424
0.000248157
-0.00133463
0.000395029
-0.00184695
0.000545019
-0.00229055
0.000684454
-0.00264605
0.000804993
-0.00291039
0.000903407
-0.00309252
0.000980284
-0.00320766
0.00103846
-0.00327246
0.00108166
-0.00330201
0.00111361
-0.00330844
0.00113752
-0.00330074
0.00115592
-0.00328511
0.00117065
-0.00326561
0.00118303
-0.0032448
0.00119395
-0.00322423
0.00120399
-0.00320484
0.00121356
-0.00318716
-0.00317162
0.00122287
3.55662e-05
-0.000285686
0.000125183
-0.000878042
0.000250561
-0.00146001
0.000392029
-0.00198841
0.000531951
-0.00243047
0.000657723
-0.00277182
0.000762689
-0.00301535
0.000845272
-0.0031751
0.00090729
-0.00326968
0.000952268
-0.00331744
0.000984161
-0.0033339
0.00100659
-0.00333086
0.00102247
-0.00331662
0.00103399
-0.00329663
0.0010427
-0.00327432
0.00104964
-0.00325173
0.00105549
-0.00323009
0.00106072
-0.00321007
0.00106562
-0.00319205
-0.00317633
0.00107033
3.68538e-05
-0.00032254
0.000127119
-0.000968306
0.000249887
-0.00158278
0.000384183
-0.00212271
0.000512651
-0.00255894
0.000624077
-0.00288325
0.000713552
-0.00310483
0.000781003
-0.00324255
0.000829234
-0.00331791
0.00086222
-0.00335043
0.000883951
-0.00335563
0.000897822
-0.00334473
0.000906434
-0.00332523
0.000911637
-0.00330183
0.000914684
-0.00327736
0.000916396
-0.00325345
0.00091731
-0.003231
0.000917773
-0.00321053
0.000917996
-0.00319228
-0.00317643
0.000918095
3.77423e-05
-0.000360282
0.000127532
-0.0010581
0.000246121
-0.00170137
0.000371718
-0.00224831
0.000487696
-0.00267492
0.000584454
-0.00298001
0.00065879
-0.00317916
0.000711941
-0.00329571
0.000747455
-0.00335342
0.000769544
-0.00337251
0.000782085
-0.00336817
0.000788185
-0.00335083
0.000790102
-0.00332715
0.000789374
-0.00330111
0.000787002
-0.00327499
0.000783625
-0.00325007
0.000779657
-0.00322703
0.000775361
-0.00320623
0.000770899
-0.00318782
-0.00317189
0.000766352
3.82034e-05
-0.000398486
0.000126398
-0.00114629
0.000239366
-0.00181433
0.000355
-0.00236394
0.000457784
-0.0027777
0.000539843
-0.00306207
0.00059958
-0.0032389
0.000639321
-0.00333545
0.000663129
-0.00337723
0.000675278
-0.00338466
0.000679433
-0.00337233
0.00067837
-0.00334977
0.000674017
-0.0033228
0.000667628
-0.00329472
0.000659991
-0.00326736
0.0006516
-0.00324168
0.000642771
-0.0032182
0.000633708
-0.00319717
0.000624533
-0.00317864
-0.00316266
0.000615309
3.82153e-05
-0.000436701
0.000123727
-0.0012318
0.000229784
-0.00192039
0.000334453
-0.00246861
0.000423624
-0.00286688
0.00049118
-0.00312962
0.000536971
-0.00328469
0.000564189
-0.00336266
0.000577212
-0.00339025
0.000580237
-0.00338769
0.000576651
-0.00336874
0.000568892
-0.00334201
0.000558574
-0.00331248
0.000546707
-0.00328285
0.0005339
-0.00325455
0.000520532
-0.00322831
0.000506842
-0.00320451
0.000492993
-0.00318332
0.000479079
-0.00316473
-0.00314873
0.000465151
3.77674e-05
-0.000474468
0.000119563
-0.0013136
0.000217592
-0.00201842
0.000310543
-0.00256156
0.000385923
-0.00294226
0.000439334
-0.00318303
0.000471886
-0.00331724
0.000487428
-0.00337821
0.00049048
-0.00339331
0.000485063
-0.00338227
0.000474247
-0.00335793
0.000460139
-0.0033279
0.000444073
-0.00329641
0.000426846
-0.00326562
0.000408926
-0.00323663
0.000390593
-0.00320998
0.000372035
-0.00318595
0.000353378
-0.00316466
0.000334702
-0.00314605
-0.00313008
0.000316048
3.68593e-05
-0.000511328
0.000113982
-0.00139072
0.000203044
-0.00210748
0.00028375
-0.00264227
0.000345356
-0.00300386
0.000385088
-0.00322277
0.000405125
-0.00333728
0.000409773
-0.00338285
0.000403558
-0.00338709
0.000390255
-0.00336897
0.000372605
-0.00334028
0.000352403
-0.0033077
0.000330738
-0.00327475
0.000308229
-0.00324311
0.000285225
-0.00321362
0.000261932
-0.00318668
0.000238492
-0.00316251
0.000215009
-0.00314118
0.000191552
-0.0031226
-0.00310669
0.00016816
3.55005e-05
-0.000546828
0.000107087
-0.00146231
0.000186418
-0.00218681
0.000254552
-0.0027104
0.000302553
-0.00305186
0.000329141
-0.00324936
0.000337367
-0.00334551
0.000331827
-0.00337731
0.000316944
-0.00337221
0.000296203
-0.00334823
0.00027202
-0.00331609
0.000245909
-0.00328159
0.000218745
-0.00324758
0.000191001
-0.00321537
0.000162927
-0.00318555
0.000134671
-0.00315843
0.000106338
-0.00313418
7.80131e-05
-0.00311286
4.97631e-05
-0.00309435
-0.00307855
2.16271e-05
3.37091e-05
-0.000580537
9.89958e-05
-0.00152759
0.000168004
-0.00225582
0.00022341
-0.00276581
0.000258088
-0.00308654
0.000272102
-0.00326337
0.000269186
-0.00334259
0.000254083
-0.00336221
0.000231033
-0.00334916
0.00020321
-0.00332041
0.00017272
-0.0032856
0.000140828
-0.0032497
0.000108229
-0.00321498
7.52757e-05
-0.00318242
4.21404e-05
-0.00315242
8.91749e-06
-0.00312521
-2.43187e-05
-0.00310094
-5.74955e-05
-0.00307968
-9.05456e-05
-0.0030613
-0.00304567
-0.000123424
3.15104e-05
-0.000612048
8.98423e-05
-0.00158592
0.000148092
-0.00231407
0.000190758
-0.00280847
0.000212478
-0.00310826
0.000214495
-0.00326539
0.000201061
-0.00332916
0.000176942
-0.00333809
0.00014614
-0.00331836
0.000111515
-0.00328578
7.48835e-05
-0.00324897
3.72947e-05
-0.00321211
-7.02677e-07
-0.00317699
-3.88524e-05
-0.00314427
-7.70486e-05
-0.00311422
-0.000115242
-0.00308701
-0.000153387
-0.0030628
-0.000191422
-0.00304164
-0.000229273
-0.00302344
-0.00300806
-0.000266884
2.8936e-05
-0.000640984
7.97666e-05
-0.00163676
0.000126968
-0.00236127
0.000156998
-0.0028385
0.000166182
-0.00311744
0.000156774
-0.00325598
0.000133392
-0.00330578
0.000100732
-0.00330543
6.25217e-05
-0.00328014
2.13091e-05
-0.00324457
-2.1347e-05
-0.00320632
-6.45812e-05
-0.00316888
-0.000107962
-0.0031336
-0.00015131
-0.00310092
-0.000194571
-0.00307096
-0.00023774
-0.00304384
-0.000280798
-0.00301974
-0.000323693
-0.00299875
-0.000366342
-0.0029808
-0.00296573
-0.000408671
2.6022e-05
-0.000667005
6.89124e-05
-0.00167965
0.000104903
-0.00239726
0.000122498
-0.0028561
0.000119603
-0.00311455
9.93264e-05
-0.0032357
6.65175e-05
-0.00327297
2.57276e-05
-0.00326464
-1.96104e-05
-0.00323481
-6.72449e-05
-0.00319693
-0.000115848
-0.00315771
-0.000164705
-0.00312002
-0.000213476
-0.00308483
-0.000262037
-0.00305236
-0.000310378
-0.00302262
-0.000358531
-0.00299569
-0.000406511
-0.00297176
-0.000454275
-0.00295098
-0.000501726
-0.00293335
-0.00291869
-0.000548764
2.28084e-05
-0.000689814
5.74241e-05
-0.00171426
8.21552e-05
-0.002422
8.75921e-05
-0.00286153
7.31001e-05
-0.00310006
4.24872e-05
-0.00320509
7.24064e-07
-0.0032312
-4.78383e-05
-0.00321608
-0.000100071
-0.00318257
-0.000154001
-0.003143
-0.000208503
-0.00310321
-0.000262986
-0.00306554
-0.000317176
-0.00303064
-0.000370986
-0.00299855
-0.000424437
-0.00296917
-0.000477598
-0.00294253
-0.00053052
-0.00291884
-0.000583181
-0.00289832
-0.000635463
-0.00288106
-0.00286693
-0.000687229
1.9338e-05
-0.000709152
4.54436e-05
-0.00174037
5.89672e-05
-0.00243552
5.25832e-05
-0.00285515
2.6987e-05
-0.00307446
-1.34519e-05
-0.00316465
-6.37369e-05
-0.00318092
-0.000119757
-0.00316006
-0.000178687
-0.00312364
-0.000238814
-0.00308288
-0.000299189
-0.00304284
-0.000359323
-0.0030054
-0.000418985
-0.00297098
-0.000478104
-0.00293943
-0.000536721
-0.00291055
-0.000594936
-0.00288431
-0.000652846
-0.00286093
-0.000710459
-0.00284071
-0.000767643
-0.00282388
-0.00281037
-0.000824202
1.56552e-05
-0.000724807
3.31091e-05
-0.00175782
3.55641e-05
-0.00243797
1.77446e-05
-0.00283733
-1.84557e-05
-0.00303826
-6.82323e-05
-0.00311487
-0.00012664
-0.00312251
-0.000189833
-0.00309687
-0.000255287
-0.00305819
-0.000321528
-0.00301663
-0.000387766
-0.0029766
-0.000453593
-0.00293958
-0.000518804
-0.00290577
-0.000583328
-0.00287491
-0.000647199
-0.00284668
-0.000710544
-0.00282097
-0.00077351
-0.00279796
-0.000836155
-0.00277806
-0.000898345
-0.00276169
-0.00274894
-0.000959779
1.18055e-05
-0.000736613
2.05534e-05
-0.00176657
1.21543e-05
-0.00242958
-1.66763e-05
-0.0028085
-6.29777e-05
-0.00299196
-0.000121621
-0.00305623
-0.000187774
-0.00305636
-0.000257874
-0.00302677
-0.000329686
-0.00298638
-0.000401962
-0.00294436
-0.000474054
-0.00290451
-0.000545626
-0.002868
-0.00061649
-0.00283491
-0.000686555
-0.00280484
-0.000755827
-0.00277741
-0.000824425
-0.00275237
-0.000892546
-0.00272984
-0.000960319
-0.00271029
-0.00102762
-0.00269439
-0.00268256
-0.00109399
7.83481e-06
-0.000744447
7.90296e-06
-0.00176664
-1.10702e-05
-0.0024106
-5.04565e-05
-0.00276911
-0.000106354
-0.00293606
-0.000173406
-0.00298918
-0.00024694
-0.00298282
-0.000323685
-0.00295002
-0.000401683
-0.00290838
-0.000479898
-0.00286614
-0.000557817
-0.00282659
-0.00063518
-0.00279064
-0.000711817
-0.00275827
-0.000787609
-0.00272905
-0.000862506
-0.00270251
-0.000936582
-0.0026783
-0.00101005
-0.00265638
-0.00108312
-0.00263722
-0.00115569
-0.00262182
-0.00261104
-0.00122721
3.78826e-06
-0.000748236
-4.7235e-06
-0.00175813
-3.39345e-05
-0.00238139
-8.33959e-05
-0.00271965
-0.000148382
-0.00287108
-0.000223391
-0.00291417
-0.000303944
-0.00290227
-0.000387061
-0.0028669
-0.000471052
-0.00282439
-0.000555075
-0.00278212
-0.000638756
-0.0027429
-0.000721919
-0.00270748
-0.000804434
-0.00267575
-0.00088617
-0.00264731
-0.000967011
-0.00262167
-0.00104695
-0.00259836
-0.00112616
-0.00257716
-0.00120498
-0.00255841
-0.00128337
-0.00254342
-0.0025334
-0.00136101
-2.90356e-07
-0.000747945
-1.72161e-05
-0.0017412
-5.62813e-05
-0.00234233
-0.000115317
-0.00266062
-0.000188882
-0.00279751
-0.000271397
-0.00283165
-0.000358599
-0.00281507
-0.000447796
-0.00277771
-0.000537545
-0.00273464
-0.000627193
-0.00269247
-0.000716505
-0.00265359
-0.000805409
-0.00261858
-0.000893857
-0.0025873
-0.000981749
-0.00255942
-0.00106894
-0.00253448
-0.00115532
-0.00251198
-0.00124104
-0.00249145
-0.00132652
-0.00247293
-0.00141198
-0.00245795
-0.00244725
-0.00149814
-4.35971e-06
-0.000743586
-2.94757e-05
-0.00171608
-7.79727e-05
-0.00229383
-0.000146067
-0.00259252
-0.0002277
-0.00271588
-0.000317266
-0.00274209
-0.000410731
-0.00272161
-0.000505676
-0.00268276
-0.000600891
-0.00263943
-0.000695897
-0.00259747
-0.000790599
-0.00255889
-0.000885059
-0.00252412
-0.000979372
-0.00249299
-0.00107357
-0.00246522
-0.00116759
-0.00244046
-0.00126132
-0.00241825
-0.00135478
-0.00239799
-0.00144837
-0.00237934
-0.00154271
-0.00236361
-0.00234937
-0.00164059
-8.38192e-06
-0.000735204
-4.14151e-05
-0.00168305
-9.88922e-05
-0.00223635
-0.000175521
-0.00251589
-0.00026471
-0.00262669
-0.000360868
-0.00264593
-0.00046019
-0.00262228
-0.000560511
-0.00258244
-0.000660821
-0.00253912
-0.000760788
-0.0024975