/*--------------------------------*- C++ -*----------------------------------*\
  =========                 |
  \\      /  F ield         | OpenFOAM: The Open Source CFD Toolbox
   \\    /   O peration     | Website:  https://openfoam.org
    \\  /    A nd           | Version:  6.0
     \\/     M anipulation  |
\*---------------------------------------------------------------------------*/
FoamFile
{
    version     2.0;
    format      ascii;
    class       volScalarField;
    location    "21";
    object      p;
}
// * * * * * * * * * * * * * * * * * * * * * * * * * * * * * * * * * * * * * //

dimensions      [0 2 -2 0 0 0 0];

internalField   nonuniform List<scalar> 
8000
(
-0.267948
-0.268995
-0.269676
-0.270167
-0.270575
-0.270918
-0.271212
-0.271469
-0.2717
-0.271912
-0.272108
-0.272295
-0.272477
-0.272658
-0.272843
-0.27304
-0.273252
-0.273454
-0.273632
-0.274086
-0.268068
-0.269109
-0.269785
-0.27027
-0.270672
-0.271009
-0.271295
-0.271546
-0.271769
-0.271972
-0.272161
-0.272339
-0.272512
-0.272684
-0.27286
-0.273048
-0.273252
-0.273445
-0.273615
-0.274064
-0.268315
-0.269345
-0.27001
-0.270484
-0.270875
-0.271199
-0.271472
-0.271708
-0.271916
-0.272104
-0.272276
-0.272437
-0.272592
-0.272746
-0.272904
-0.273075
-0.273262
-0.27344
-0.273593
-0.274032
-0.268689
-0.269702
-0.270352
-0.27081
-0.271183
-0.271487
-0.27174
-0.271954
-0.27214
-0.272303
-0.27245
-0.272585
-0.272713
-0.27284
-0.27297
-0.273113
-0.273275
-0.273428
-0.273556
-0.273981
-0.269187
-0.270178
-0.270809
-0.271246
-0.271594
-0.271873
-0.272097
-0.272282
-0.272436
-0.272566
-0.272678
-0.272777
-0.272867
-0.272955
-0.273047
-0.273152
-0.273278
-0.273397
-0.27349
-0.273896
-0.269809
-0.270774
-0.27138
-0.27179
-0.272108
-0.272353
-0.272541
-0.272687
-0.272801
-0.272888
-0.272955
-0.273006
-0.273047
-0.273084
-0.273124
-0.273178
-0.273255
-0.273329
-0.273376
-0.273758
-0.270552
-0.271489
-0.272065
-0.272442
-0.272722
-0.272926
-0.27307
-0.273169
-0.273232
-0.273266
-0.273277
-0.273268
-0.273246
-0.273218
-0.273191
-0.27318
-0.273194
-0.273207
-0.273197
-0.273548
-0.271419
-0.272322
-0.272864
-0.273202
-0.273437
-0.273592
-0.273683
-0.273726
-0.273729
-0.2737
-0.273642
-0.27356
-0.273461
-0.273352
-0.273241
-0.273146
-0.273079
-0.273015
-0.272931
-0.273245
-0.272409
-0.273276
-0.273777
-0.274069
-0.274253
-0.274351
-0.274381
-0.274359
-0.274293
-0.274189
-0.274051
-0.273884
-0.273692
-0.273484
-0.273271
-0.273071
-0.2729
-0.272737
-0.27256
-0.272826
-0.273526
-0.274351
-0.274807
-0.275045
-0.275169
-0.275203
-0.275164
-0.275069
-0.274925
-0.274738
-0.27451
-0.274244
-0.273946
-0.273622
-0.273284
-0.272955
-0.272654
-0.272362
-0.272065
-0.27227
-0.274776
-0.275552
-0.275954
-0.276132
-0.276189
-0.27615
-0.276035
-0.27586
-0.275632
-0.275354
-0.275027
-0.274653
-0.274234
-0.273777
-0.273293
-0.272806
-0.272343
-0.271885
-0.271428
-0.271551
-0.276165
-0.276884
-0.277224
-0.277333
-0.277313
-0.277194
-0.276996
-0.276735
-0.276418
-0.276044
-0.275614
-0.275124
-0.274575
-0.273969
-0.273317
-0.272644
-0.271979
-0.271307
-0.270635
-0.270638
-0.2777
-0.278353
-0.27862
-0.278649
-0.278543
-0.278336
-0.278049
-0.277697
-0.277287
-0.276816
-0.27628
-0.275671
-0.274986
-0.274221
-0.273382
-0.272493
-0.271583
-0.270638
-0.269673
-0.269496
-0.279392
-0.279965
-0.280148
-0.280085
-0.279882
-0.279576
-0.279192
-0.278745
-0.278239
-0.27767
-0.277029
-0.276304
-0.275483
-0.274554
-0.273515
-0.272383
-0.271185
-0.269894
-0.268529
-0.268076
-0.281252
-0.281729
-0.281813
-0.281644
-0.28133
-0.280914
-0.280423
-0.279873
-0.279268
-0.278602
-0.277859
-0.277022
-0.276069
-0.274978
-0.273735
-0.27234
-0.27081
-0.269097
-0.267198
-0.26632
-0.283291
-0.283657
-0.283623
-0.283331
-0.282889
-0.282348
-0.281737
-0.281075
-0.280365
-0.279597
-0.278754
-0.27781
-0.276733
-0.275489
-0.274043
-0.272377
-0.270486
-0.268282
-0.265696
-0.264186
-0.285526
-0.285761
-0.28559
-0.285153
-0.284563
-0.283876
-0.283128
-0.282339
-0.281512
-0.280637
-0.279691
-0.278642
-0.27745
-0.276064
-0.274431
-0.272505
-0.27025
-0.267523
-0.264127
-0.261717
-0.287976
-0.288058
-0.287727
-0.287121
-0.286358
-0.285502
-0.284595
-0.283659
-0.282699
-0.281703
-0.280646
-0.279493
-0.278192
-0.276682
-0.274886
-0.272724
-0.270123
-0.266869
-0.262539
-0.258816
-0.290666
-0.290572
-0.290053
-0.28925
-0.288286
-0.287233
-0.286141
-0.285034
-0.283921
-0.282789
-0.281615
-0.28036
-0.278972
-0.27738
-0.275488
-0.273177
-0.270301
-0.266492
-0.260905
-0.255078
-0.293629
-0.293329
-0.292594
-0.291564
-0.290367
-0.289089
-0.287783
-0.286482
-0.285194
-0.283913
-0.28262
-0.281285
-0.27987
-0.278325
-0.276585
-0.274567
-0.272132
-0.268805
-0.263352
-0.256849
-0.296905
-0.296366
-0.295381
-0.294091
-0.292631
-0.291097
-0.289552
-0.288033
-0.286553
-0.285113
-0.283705
-0.282317
-0.280946
-0.279602
-0.278332
-0.277261
-0.27663
-0.276839
-0.27937
-0.291096
-0.300541
-0.299724
-0.298453
-0.296871
-0.295117
-0.293301
-0.291493
-0.289736
-0.28805
-0.286443
-0.284919
-0.283486
-0.282169
-0.281025
-0.280167
-0.2798
-0.280275
-0.282116
-0.286457
-0.297872
-0.304592
-0.303451
-0.301856
-0.29995
-0.297873
-0.295751
-0.293662
-0.291654
-0.289753
-0.287976
-0.286335
-0.284856
-0.283583
-0.282598
-0.282039
-0.282117
-0.283145
-0.285527
-0.289832
-0.298534
-0.309117
-0.307599
-0.305641
-0.303378
-0.300955
-0.298507
-0.296123
-0.293856
-0.291735
-0.289781
-0.288017
-0.286473
-0.285203
-0.284294
-0.28387
-0.284105
-0.285218
-0.287449
-0.291041
-0.297073
-0.314177
-0.312223
-0.30986
-0.307211
-0.304419
-0.301631
-0.298943
-0.296408
-0.294059
-0.291917
-0.290004
-0.288353
-0.287012
-0.286053
-0.285571
-0.285681
-0.286504
-0.288141
-0.290678
-0.294299
-0.319831
-0.317376
-0.314565
-0.311505
-0.308325
-0.305185
-0.302182
-0.299369
-0.296775
-0.294417
-0.292311
-0.290482
-0.288965
-0.287808
-0.287072
-0.286816
-0.287091
-0.287911
-0.289298
-0.290991
-0.326133
-0.323108
-0.31981
-0.316313
-0.312729
-0.309224
-0.305894
-0.302784
-0.299913
-0.29729
-0.29492
-0.292814
-0.290992
-0.289479
-0.288305
-0.287495
-0.287055
-0.286964
-0.28722
-0.287414
-0.333127
-0.329462
-0.325638
-0.321683
-0.31768
-0.313795
-0.310117
-0.306675
-0.303477
-0.300515
-0.297781
-0.295276
-0.293003
-0.290975
-0.289203
-0.287696
-0.286445
-0.285425
-0.284628
-0.283671
-0.340845
-0.336472
-0.332088
-0.327658
-0.323219
-0.318933
-0.314871
-0.311044
-0.307439
-0.304035
-0.300813
-0.297764
-0.294889
-0.292196
-0.289694
-0.287389
-0.285277
-0.283345
-0.281582
-0.279702
-0.349303
-0.344161
-0.339187
-0.334264
-0.329371
-0.32465
-0.32015
-0.315857
-0.311738
-0.307761
-0.303903
-0.300159
-0.296534
-0.293044
-0.289707
-0.28654
-0.283548
-0.280733
-0.278085
-0.275418
-0.358498
-0.352532
-0.346945
-0.341516
-0.336139
-0.330933
-0.325916
-0.321046
-0.316276
-0.311572
-0.306919
-0.302326
-0.297817
-0.293425
-0.289182
-0.285116
-0.281245
-0.277583
-0.274116
-0.270736
-0.368402
-0.361569
-0.355355
-0.3494
-0.343501
-0.337736
-0.332092
-0.326504
-0.32092
-0.315319
-0.309711
-0.30413
-0.298628
-0.293257
-0.288066
-0.283092
-0.278361
-0.273889
-0.269656
-0.265606
-0.37896
-0.371232
-0.36438
-0.357877
-0.351397
-0.344974
-0.338561
-0.332085
-0.325507
-0.318837
-0.312124
-0.30544
-0.298865
-0.292472
-0.28632
-0.280451
-0.27489
-0.26965
-0.264697
-0.26001
-0.390084
-0.381448
-0.373953
-0.36687
-0.359729
-0.352515
-0.345163
-0.337609
-0.329851
-0.321951
-0.314009
-0.306137
-0.298443
-0.291015
-0.283914
-0.27718
-0.270829
-0.264865
-0.259238
-0.25395
-0.401649
-0.392112
-0.383971
-0.37626
-0.368351
-0.360185
-0.351699
-0.342867
-0.333752
-0.324485
-0.315221
-0.306113
-0.297288
-0.288838
-0.280822
-0.273265
-0.266172
-0.259534
-0.25328
-0.247433
-0.413494
-0.403077
-0.394288
-0.385884
-0.37707
-0.367765
-0.357938
-0.347635
-0.337009
-0.32627
-0.31563
-0.305273
-0.295334
-0.285901
-0.277016
-0.268689
-0.26091
-0.25365
-0.246818
-0.240462
-0.425413
-0.414159
-0.404713
-0.395528
-0.38565
-0.375
-0.363625
-0.35168
-0.339423
-0.327148
-0.315118
-0.303532
-0.292523
-0.28216
-0.272467
-0.263432
-0.255025
-0.2472
-0.239844
-0.233035
-0.437162
-0.425128
-0.415011
-0.404938
-0.393813
-0.38161
-0.368497
-0.354768
-0.340804
-0.326975
-0.313576
-0.300811
-0.288795
-0.277572
-0.26714
-0.257462
-0.248491
-0.240162
-0.232337
-0.225137
-0.44846
-0.435716
-0.424904
-0.413815
-0.401253
-0.387296
-0.372285
-0.356679
-0.340979
-0.325617
-0.310907
-0.297037
-0.284093
-0.27209
-0.260993
-0.250745
-0.241278
-0.232507
-0.224273
-0.216748
-0.458989
-0.445619
-0.434079
-0.421831
-0.407641
-0.391755
-0.374729
-0.357202
-0.339786
-0.322955
-0.307019
-0.292137
-0.278359
-0.265663
-0.253984
-0.24324
-0.233348
-0.224201
-0.215621
-0.207839
-0.468408
-0.454503
-0.442191
-0.428636
-0.412641
-0.39469
-0.375586
-0.35615
-0.337083
-0.31888
-0.301828
-0.286043
-0.271534
-0.258239
-0.246064
-0.234905
-0.224661
-0.215207
-0.206347
-0.198379
-0.476352
-0.462007
-0.448875
-0.433869
-0.415924
-0.39582
-0.374633
-0.353351
-0.332741
-0.313294
-0.295254
-0.278689
-0.263559
-0.249766
-0.237187
-0.225697
-0.215179
-0.205489
-0.196417
-0.188336
-0.48245
-0.467765
-0.45376
-0.437174
-0.417173
-0.394889
-0.371672
-0.348659
-0.32665
-0.306109
-0.287226
-0.270012
-0.25438
-0.240195
-0.227307
-0.215573
-0.204863
-0.195013
-0.185801
-0.17768
-0.486332
-0.471407
-0.45648
-0.438212
-0.416101
-0.39167
-0.366535
-0.341946
-0.318714
-0.297249
-0.277678
-0.259955
-0.243945
-0.229478
-0.216382
-0.204497
-0.19368
-0.183748
-0.17447
-0.166386
-0.487642
-0.472573
-0.456685
-0.436669
-0.412453
-0.38597
-0.359079
-0.333111
-0.308852
-0.286648
-0.266556
-0.248469
-0.232209
-0.217577
-0.204378
-0.192437
-0.181602
-0.171669
-0.162404
-0.154434
-0.486044
-0.470927
-0.454057
-0.432271
-0.406015
-0.377633
-0.349194
-0.322071
-0.297001
-0.274254
-0.253812
-0.235512
-0.219137
-0.204459
-0.191265
-0.179369
-0.168607
-0.158757
-0.149587
-0.14181
-0.48124
-0.466169
-0.448314
-0.424788
-0.396616
-0.366541
-0.3368
-0.30877
-0.283117
-0.260028
-0.239412
-0.221054
-0.2047
-0.190099
-0.177023
-0.165275
-0.154682
-0.145003
-0.136013
-0.128507
-0.472971
-0.458038
-0.439225
-0.414039
-0.384132
-0.352616
-0.321846
-0.293171
-0.267172
-0.243946
-0.223335
-0.205075
-0.188882
-0.174484
-0.16164
-0.150147
-0.139821
-0.130405
-0.121683
-0.114527
-0.461033
-0.446329
-0.426613
-0.399899
-0.368489
-0.335817
-0.304311
-0.275263
-0.249156
-0.226
-0.205572
-0.187568
-0.171677
-0.15761
-0.145117
-0.133987
-0.12403
-0.114971
-0.106608
-0.0998798
-0.445275
-0.430892
-0.410361
-0.382299
-0.349657
-0.316142
-0.284206
-0.255058
-0.22908
-0.206197
-0.186129
-0.168537
-0.153088
-0.139481
-0.127458
-0.116804
-0.107319
-0.098718
-0.0908093
-0.0845905
-0.425612
-0.411642
-0.390414
-0.361225
-0.327657
-0.293627
-0.261569
-0.232592
-0.206975
-0.184563
-0.165027
-0.148
-0.133131
-0.120112
-0.108679
-0.0986136
-0.0897093
-0.0816705
-0.0743197
-0.0686981
-0.40202
-0.388555
-0.366779
-0.33672
-0.302552
-0.268343
-0.236469
-0.207926
-0.182891
-0.161139
-0.142301
-0.125985
-0.111831
-0.0995242
-0.0887989
-0.0794358
-0.0712218
-0.0638553
-0.0571746
-0.0522455
-0.374542
-0.361676
-0.339524
-0.30888
-0.274452
-0.240398
-0.209004
-0.181145
-0.156901
-0.135987
-0.117999
-0.102532
-0.0892193
-0.0777445
-0.0678415
-0.0592911
-0.051877
-0.0452976
-0.0394059
-0.0352563
-0.343284
-0.331113
-0.308779
-0.27785
-0.243507
-0.209933
-0.1793
-0.152359
-0.129099
-0.109184
-0.0921869
-0.0776935
-0.0653368
-0.054803
-0.0458293
-0.038198
-0.031694
-0.0260218
-0.0210372
-0.0177223
-0.308415
-0.297034
-0.274728
-0.243827
-0.209907
-0.177124
-0.147514
-0.121703
-0.0996008
-0.0808291
-0.0649449
-0.0515322
-0.0402293
-0.03073
-0.0227795
-0.0161666
-0.0106824
-0.00604141
-0.00207835
0.000356888
-0.270164
-0.259666
-0.237607
-0.207046
-0.173877
-0.142178
-0.11383
-0.0893412
-0.0685493
-0.0510439
-0.0363737
-0.0241274
-0.0139539
-0.00556065
0.00129251
0.00680437
0.0111716
0.0146631
0.0174664
0.0188551
-0.22881
-0.219288
-0.197699
-0.167786
-0.135679
-0.105331
-0.0784614
-0.0554632
-0.0361118
-0.0199732
-0.00659503
0.00442369
0.0134174
0.0206569
0.0263599
0.0307092
0.0338848
0.0361009
0.0374812
0.0373808
-0.184684
-0.176223
-0.155327
-0.126359
-0.0956032
-0.0668503
-0.04165
-0.0202871
-0.00248296
0.0122133
0.0242502
0.0340138
0.041815
0.0478925
0.0524297
0.0555882
0.0575079
0.0582289
0.057647
0.0554913
-0.138154
-0.130837
-0.11085
-0.0831056
-0.0539668
-0.0270276
-0.00366484
0.0159389
0.0321092
0.045311
0.055989
0.0645163
0.0711814
0.0761886
0.0796847
0.0817996
0.0825597
0.0816115
0.0784964
0.0742258
-0.0896249
-0.083526
-0.0646511
-0.038391
-0.011109
0.0138227
0.0351999
0.0529352
0.0673959
0.0790596
0.0883726
0.0957062
0.101346
0.105496
0.108314
0.109948
0.110302
0.108531
0.103939
0.099305
-0.0395276
-0.0347109
-0.0171384
0.00740322
0.0326164
0.0553711
0.074633
0.090401
0.103077
0.113148
0.121062
0.127194
0.131845
0.135255
0.137668
0.139357
0.140298
0.139516
0.136751
0.140234
0.0116964
0.0151739
0.0312716
0.0538866
0.0768478
0.0972817
0.114318
0.128031
0.13885
0.147265
0.153717
0.158575
0.16214
0.164664
0.166406
0.167628
0.168318
0.168007
0.167585
0.173214
0.0635866
0.0656795
0.0801522
0.100664
0.121222
0.139219
0.153939
0.165526
0.174427
0.181127
0.18606
0.189585
0.191996
0.193544
0.194478
0.195017
0.195145
0.19457
0.194194
0.198719
0.115679
0.116355
0.129077
0.147341
0.165379
0.180852
0.193192
0.202599
0.20953
0.214464
0.217818
0.219935
0.221098
0.221544
0.221502
0.221169
0.22054
0.219393
0.218473
0.221511
0.167513
0.166751
0.177625
0.193533
0.208968
0.221861
0.231782
0.238977
0.24391
0.247045
0.24878
0.24944
0.249288
0.248543
0.247409
0.246053
0.244459
0.242432
0.240655
0.242306
0.218631
0.216426
0.225381
0.238862
0.251649
0.261939
0.269429
0.274407
0.277334
0.278657
0.278754
0.277929
0.276424
0.27444
0.272157
0.269715
0.267084
0.264089
0.261379
0.261702
0.26859
0.26495
0.271947
0.282965
0.293094
0.300791
0.305869
0.308648
0.309585
0.309107
0.307572
0.30526
0.302393
0.299151
0.295696
0.292141
0.288447
0.284467
0.280821
0.279888
0.316959
0.311908
0.316935
0.325493
0.332991
0.338137
0.34085
0.341475
0.340462
0.338219
0.335078
0.331301
0.32709
0.322605
0.317988
0.313334
0.308597
0.303656
0.299099
0.29697
0.363327
0.356902
0.35998
0.366116
0.371045
0.373712
0.374133
0.372674
0.369775
0.365822
0.361127
0.35593
0.350412
0.34472
0.338976
0.333257
0.327518
0.321663
0.316232
0.312971
0.407302
0.399557
0.400735
0.404521
0.406975
0.407266
0.405495
0.402045
0.397344
0.391759
0.385578
0.379023
0.372258
0.365412
0.358592
0.351862
0.345178
0.338463
0.332205
0.327874
0.448518
0.43952
0.438874
0.440415
0.44052
0.438564
0.434725
0.429399
0.423001
0.415877
0.408297
0.400463
0.392523
0.384592
0.376762
0.369086
0.361522
0.354009
0.346976
0.341642
0.486633
0.476463
0.474096
0.473529
0.471437
0.467388
0.461627
0.454559
0.446584
0.438033
0.429155
0.420134
0.411106
0.40217
0.393406
0.384857
0.376485
0.368243
0.360492
0.354228
0.521334
0.510087
0.506125
0.503612
0.499504
0.493538
0.48602
0.47736
0.467948
0.458094
0.448031
0.437929
0.427908
0.418057
0.408444
0.399102
0.39
0.381099
0.372693
0.365577
0.552338
0.540119
0.534712
0.530442
0.524518
0.516832
0.50774
0.497655
0.486955
0.475935
0.464813
0.453743
0.442835
0.432168
0.421796
0.411748
0.401998
0.392512
0.383519
0.375639
0.579393
0.56632
0.559636
0.553818
0.546301
0.537109
0.526639
0.515309
0.503484
0.491446
0.479398
0.467484
0.455803
0.444422
0.43339
0.422728
0.412415
0.402422
0.392914
0.384362
0.602279
0.588478
0.580704
0.573567
0.564697
0.554227
0.54259
0.530205
0.517427
0.504527
0.491696
0.479068
0.466732
0.45475
0.443159
0.431979
0.421192
0.410771
0.400827
0.391703
0.620811
0.606419
0.597755
0.589543
0.579573
0.568067
0.555483
0.542243
0.528694
0.515096
0.50163
0.488423
0.475558
0.463088
0.451046
0.439447
0.428278
0.417512
0.407212
0.397623
0.634842
0.62
0.610657
0.601629
0.590824
0.578531
0.565231
0.551343
0.537209
0.523082
0.509137
0.495492
0.482226
0.469387
0.457004
0.445088
0.43363
0.422603
0.412033
0.402091
0.644257
0.629112
0.619313
0.609735
0.598369
0.585548
0.571766
0.557443
0.542917
0.528435
0.514167
0.500229
0.486694
0.473607
0.460995
0.448867
0.437215
0.426013
0.415262
0.405081
0.648982
0.633685
0.623656
0.613801
0.602153
0.589067
0.575043
0.560502
0.545779
0.531119
0.516689
0.502603
0.488933
0.475723
0.462996
0.450761
0.439012
0.427722
0.41688
0.40658
0.648978
0.633681
0.623652
0.613798
0.60215
0.589064
0.57504
0.560499
0.545776
0.531116
0.516687
0.502601
0.488931
0.47572
0.462993
0.450759
0.43901
0.42772
0.416877
0.406577
0.644246
0.629101
0.619303
0.609725
0.598359
0.585538
0.571756
0.557434
0.542909
0.528427
0.514159
0.500221
0.486686
0.4736
0.460987
0.44886
0.437208
0.426006
0.415255
0.405074
0.634824
0.619982
0.61064
0.601612
0.590808
0.578516
0.565216
0.551328
0.537195
0.523068
0.509123
0.495479
0.482213
0.469374
0.456991
0.445076
0.433618
0.42259
0.412021
0.402079
0.620786
0.606394
0.59773
0.58952
0.579551
0.568045
0.555462
0.542222
0.528674
0.515076
0.501611
0.488405
0.47554
0.46307
0.451029
0.43943
0.428261
0.417495
0.407195
0.397607
0.602246
0.588446
0.580672
0.573536
0.564667
0.554199
0.542562
0.530178
0.517401
0.504502
0.491672
0.479044
0.466709
0.454726
0.443136
0.431957
0.42117
0.410749
0.400805
0.391682
0.579352
0.566279
0.559597
0.55378
0.546265
0.537074
0.526605
0.515276
0.503452
0.491415
0.479368
0.467454
0.455774
0.444394
0.433362
0.422701
0.412388
0.402395
0.392888
0.384336
0.55229
0.540071
0.534666
0.530397
0.524475
0.516791
0.5077
0.497616
0.486917
0.475898
0.464777
0.453708
0.442801
0.432134
0.421763
0.411716
0.401966
0.39248
0.383488
0.375608
0.521278
0.510031
0.506071
0.50356
0.499454
0.49349
0.485973
0.477315
0.467904
0.458051
0.447989
0.437888
0.427868
0.418018
0.408405
0.399064
0.389963
0.381062
0.372657
0.365542
0.486569
0.4764
0.474034
0.47347
0.47138
0.467333
0.461574
0.454507
0.446535
0.437985
0.429108
0.420088
0.411061
0.402126
0.393363
0.384814
0.376443
0.368201
0.360451
0.354188
0.448446
0.439448
0.438804
0.440349
0.440456
0.438502
0.434665
0.429342
0.422945
0.415822
0.408244
0.40041
0.392472
0.384542
0.376713
0.369038
0.361474
0.353963
0.346931
0.341598
0.407221
0.399477
0.400658
0.404447
0.406904
0.407197
0.405429
0.401981
0.397282
0.391698
0.385519
0.378965
0.372201
0.365357
0.358538
0.351809
0.345126
0.338411
0.332154
0.327825
0.363238
0.356814
0.359895
0.366034
0.370966
0.373637
0.37406
0.372604
0.369706
0.365755
0.361062
0.355866
0.35035
0.344659
0.338916
0.333199
0.327461
0.321606
0.316176
0.312916
0.316861
0.311811
0.316842
0.325403
0.332905
0.338054
0.34077
0.341398
0.340387
0.338146
0.335007
0.331232
0.327022
0.322539
0.317923
0.31327
0.308534
0.303594
0.299038
0.296911
0.268484
0.264845
0.271845
0.282867
0.293
0.300701
0.305782
0.308564
0.309503
0.309028
0.307494
0.305184
0.302319
0.299079
0.295625
0.292072
0.288379
0.2844
0.280755
0.279823
0.218516
0.216312
0.225271
0.238756
0.251547
0.261841
0.269335
0.274316
0.277245
0.278571
0.27867
0.277847
0.276344
0.274362
0.27208
0.26964
0.26701
0.264016
0.261308
0.261632
0.167388
0.166628
0.177505
0.193418
0.208858
0.221756
0.23168
0.238879
0.243815
0.246952
0.24869
0.249352
0.249202
0.248459
0.247327
0.245973
0.24438
0.242354
0.240578
0.242232
0.115545
0.116222
0.128949
0.147218
0.165261
0.180738
0.193083
0.202493
0.209428
0.214365
0.217721
0.219841
0.221005
0.221453
0.221414
0.221082
0.220455
0.21931
0.218391
0.221431
0.0634428
0.0655372
0.0800144
0.100532
0.121095
0.139097
0.153823
0.165414
0.174318
0.181021
0.185956
0.189484
0.191897
0.193448
0.194384
0.194924
0.195054
0.19448
0.194106
0.198634
0.0115428
0.0150219
0.0311244
0.0537456
0.0767129
0.0971522
0.114193
0.127911
0.138734
0.147152
0.153606
0.158468
0.162035
0.164561
0.166305
0.167529
0.16822
0.167912
0.167491
0.173123
-0.039691
-0.0348726
-0.0172951
0.00725304
0.0324727
0.0552334
0.0745005
0.090273
0.102953
0.113028
0.120945
0.12708
0.131733
0.135146
0.13756
0.139252
0.140195
0.139414
0.13665
0.140135
-0.0897983
-0.0836977
-0.0648175
-0.0385505
-0.0112615
0.0136765
0.0350593
0.0527995
0.0672645
0.078932
0.0882484
0.095585
0.101228
0.105379
0.1082
0.109836
0.110191
0.108421
0.10383
0.0991967
-0.138337
-0.131019
-0.111026
-0.0832744
-0.0541282
-0.0271822
-0.00381351
0.0157954
0.0319703
0.0451761
0.0558577
0.0643882
0.0710561
0.0760658
0.0795641
0.0816809
0.0824426
0.0814958
0.0783816
0.0741112
-0.184877
-0.176415
-0.155513
-0.126537
-0.0957735
-0.0670135
-0.0418069
-0.0204384
-0.00262938
0.0120712
0.0241118
0.0338788
0.041683
0.0477632
0.0523028
0.0554633
0.0573848
0.0581075
0.0575269
0.0553718
-0.229014
-0.219489
-0.197895
-0.167974
-0.135859
-0.105503
-0.0786264
-0.0556224
-0.0362658
-0.0201226
-0.00674038
0.00428193
0.0132788
0.0205213
0.0262268
0.0305783
0.0337561
0.0359741
0.037356
0.0372567
-0.270377
-0.259878
-0.237813
-0.207243
-0.174066
-0.142358
-0.114003
-0.0895081
-0.0687108
-0.0512005
-0.036526
-0.0242759
-0.0140989
-0.0057026
0.00115334
0.0066677
0.0110372
0.0145309
0.0173362
0.0187262
-0.308639
-0.297255
-0.274944
-0.244033
-0.210104
-0.177313
-0.147695
-0.121878
-0.0997696
-0.0809928
-0.0651041
-0.0516873
-0.0403807
-0.0308782
-0.0229246
-0.016309
-0.0108223
-0.00617896
-0.00221371
0.00022311
-0.343517
-0.331344
-0.309004
-0.278066
-0.243714
-0.210131
-0.179489
-0.152541
-0.129275
-0.109355
-0.0923529
-0.0778552
-0.0654946
-0.0549573
-0.0459803
-0.0383461
-0.0318394
-0.0261646
-0.0211776
-0.0178609
-0.374784
-0.361917
-0.339758
-0.309105
-0.274668
-0.240604
-0.209201
-0.181335
-0.157085
-0.136165
-0.118172
-0.1027
-0.0893833
-0.0779048
-0.0679984
-0.0594447
-0.0520278
-0.0454456
-0.0395513
-0.0353997
-0.402272
-0.388804
-0.367022
-0.336954
-0.302776
-0.268557
-0.236675
-0.208124
-0.183082
-0.161324
-0.14248
-0.126159
-0.112001
-0.0996905
-0.0889615
-0.079595
-0.071378
-0.0640086
-0.057325
-0.0523937
-0.425872
-0.411899
-0.390666
-0.361468
-0.327889
-0.293849
-0.261782
-0.232797
-0.207172
-0.184754
-0.165213
-0.148181
-0.133307
-0.120284
-0.108847
-0.0987784
-0.0898709
-0.0818289
-0.0744752
-0.0688512
-0.445543
-0.431158
-0.410621
-0.38255
-0.349897
-0.316372
-0.284427
-0.25527
-0.229285
-0.206395
-0.186322
-0.168724
-0.15327
-0.139659
-0.127632
-0.116974
-0.107486
-0.0988816
-0.0909698
-0.0847485
-0.461308
-0.446603
-0.42688
-0.400158
-0.368736
-0.336055
-0.304539
-0.275482
-0.249367
-0.226204
-0.205771
-0.187761
-0.171865
-0.157794
-0.145296
-0.134163
-0.124202
-0.11514
-0.106773
-0.100043
-0.473253
-0.458319
-0.439499
-0.414305
-0.384387
-0.352861
-0.322081
-0.293397
-0.26739
-0.244157
-0.22354
-0.205275
-0.189076
-0.174674
-0.161826
-0.150329
-0.139999
-0.130579
-0.121854
-0.114695
-0.481528
-0.466455
-0.448594
-0.42506
-0.396878
-0.366793
-0.337042
-0.309002
-0.283342
-0.260245
-0.239623
-0.221259
-0.2049
-0.190294
-0.177213
-0.165461
-0.154865
-0.145182
-0.136189
-0.12868
-0.486338
-0.471219
-0.454343
-0.43255
-0.406283
-0.377891
-0.349442
-0.32231
-0.297232
-0.274477
-0.254029
-0.235723
-0.219342
-0.204659
-0.191461
-0.179561
-0.168795
-0.158941
-0.149768
-0.141987
-0.487939
-0.472868
-0.456976
-0.436953
-0.412727
-0.386234
-0.359333
-0.333356
-0.309088
-0.286877
-0.266778
-0.248685
-0.23242
-0.217783
-0.204579
-0.192634
-0.181795
-0.171858
-0.16259
-0.154617
-0.486634
-0.471706
-0.456775
-0.4385
-0.416381
-0.391939
-0.366794
-0.342197
-0.318956
-0.297484
-0.277906
-0.260177
-0.244161
-0.22969
-0.216589
-0.2047
-0.193879
-0.183943
-0.174661
-0.166574
-0.482754
-0.468067
-0.454058
-0.437466
-0.417457
-0.395163
-0.371937
-0.348914
-0.326898
-0.306349
-0.287459
-0.270239
-0.254602
-0.240411
-0.227519
-0.215781
-0.205067
-0.195213
-0.185997
-0.177873
-0.476657
-0.462311
-0.449175
-0.434163
-0.416211
-0.396099
-0.374902
-0.353612
-0.332994
-0.313539
-0.295492
-0.278922
-0.263786
-0.249988
-0.237404
-0.22591
-0.215388
-0.205695
-0.196619
-0.188534
-0.468714
-0.454807
-0.442492
-0.428932
-0.412931
-0.394972
-0.375859
-0.356415
-0.33734
-0.31913
-0.302071
-0.286281
-0.271766
-0.258466
-0.246287
-0.235124
-0.224875
-0.215417
-0.206553
-0.198582
-0.459296
-0.445924
-0.434381
-0.422129
-0.407932
-0.39204
-0.375006
-0.357471
-0.340047
-0.32321
-0.307267
-0.29238
-0.278596
-0.265895
-0.254212
-0.243464
-0.233567
-0.224416
-0.215833
-0.208047
-0.448766
-0.43602
-0.425206
-0.414113
-0.401546
-0.387583
-0.372564
-0.356951
-0.341244
-0.325876
-0.31116
-0.297284
-0.284335
-0.272327
-0.261226
-0.250974
-0.241503
-0.232728
-0.224491
-0.216962
-0.437467
-0.42543
-0.415311
-0.405235
-0.394106
-0.381898
-0.368778
-0.355043
-0.341073
-0.327237
-0.313833
-0.301063
-0.289041
-0.277814
-0.267377
-0.257696
-0.248722
-0.240389
-0.23256
-0.225357
-0.425716
-0.414459
-0.405011
-0.395824
-0.385942
-0.375288
-0.363908
-0.351957
-0.339694
-0.327414
-0.315378
-0.303788
-0.292774
-0.282407
-0.27271
-0.263671
-0.255261
-0.247432
-0.240073
-0.233261
-0.413795
-0.403376
-0.394584
-0.386178
-0.377361
-0.368052
-0.358221
-0.347914
-0.337283
-0.326538
-0.315894
-0.305533
-0.29559
-0.286152
-0.277264
-0.268934
-0.261152
-0.253888
-0.247054
-0.240694
-0.401948
-0.392407
-0.384265
-0.376552
-0.36864
-0.360471
-0.351982
-0.343146
-0.334027
-0.324756
-0.315488
-0.306376
-0.297548
-0.289095
-0.281075
-0.273515
-0.26642
-0.259778
-0.253521
-0.247671
-0.390379
-0.381741
-0.374244
-0.367159
-0.360016
-0.3528
-0.345445
-0.337888
-0.330127
-0.322224
-0.314278
-0.306404
-0.298707
-0.291276
-0.284172
-0.277435
-0.271082
-0.265115
-0.259486
-0.254195
-0.379252
-0.371522
-0.364668
-0.358163
-0.351682
-0.345256
-0.338842
-0.332364
-0.325783
-0.319111
-0.312396
-0.30571
-0.299133
-0.292738
-0.286584
-0.280713
-0.27515
-0.269907
-0.264952
-0.260263
-0.368691
-0.361856
-0.35564
-0.349683
-0.343782
-0.338016
-0.332371
-0.326781
-0.321196
-0.315594
-0.309984
-0.304403
-0.298899
-0.293527
-0.288335
-0.28336
-0.278627
-0.274154
-0.269919
-0.265867
-0.358784
-0.352815
-0.347227
-0.341796
-0.336418
-0.33121
-0.326192
-0.321322
-0.316552
-0.311847
-0.307194
-0.302601
-0.298092
-0.293699
-0.289456
-0.285389
-0.281518
-0.277855
-0.274387
-0.271005
-0.349586
-0.344441
-0.339465
-0.334541
-0.329646
-0.324924
-0.320424
-0.316131
-0.312012
-0.308036
-0.304179
-0.300436
-0.296812
-0.293323
-0.289987
-0.28682
-0.283828
-0.281013
-0.278365
-0.275697
-0.341125
-0.33675
-0.332364
-0.327932
-0.323492
-0.319204
-0.315142
-0.311316
-0.307712
-0.304309
-0.301089
-0.298043
-0.29517
-0.292479
-0.289979
-0.287676
-0.285565
-0.283633
-0.28187
-0.27999
-0.333404
-0.329737
-0.325911
-0.321955
-0.31795
-0.314064
-0.310385
-0.306945
-0.303748
-0.300788
-0.298058
-0.295556
-0.293287
-0.291262
-0.289494
-0.287989
-0.286741
-0.285722
-0.284925
-0.283968
-0.326409
-0.323381
-0.320081
-0.316582
-0.312996
-0.30949
-0.30616
-0.303051
-0.300183
-0.297563
-0.295198
-0.293096
-0.291279
-0.289771
-0.288602
-0.287795
-0.287359
-0.28727
-0.287527
-0.287721
-0.320106
-0.317648
-0.314835
-0.311772
-0.30859
-0.305449
-0.302447
-0.299636
-0.297044
-0.29469
-0.292589
-0.290766
-0.289254
-0.288104
-0.287374
-0.287124
-0.287403
-0.288226
-0.289615
-0.291309
-0.314451
-0.312494
-0.310128
-0.307477
-0.304683
-0.301895
-0.299207
-0.296674
-0.294328
-0.29219
-0.290283
-0.288639
-0.287305
-0.286354
-0.285879
-0.285996
-0.286825
-0.288467
-0.291006
-0.294628
-0.309391
-0.307869
-0.305908
-0.303643
-0.301218
-0.29877
-0.296387
-0.294121
-0.292004
-0.290056
-0.288298
-0.286761
-0.2855
-0.284599
-0.284185
-0.284428
-0.285549
-0.287785
-0.291381
-0.297413
-0.304865
-0.30372
-0.302123
-0.300214
-0.298136
-0.296013
-0.293926
-0.291921
-0.290024
-0.288253
-0.286619
-0.285148
-0.283885
-0.28291
-0.28236
-0.282448
-0.283485
-0.285875
-0.290186
-0.298888
-0.300814
-0.299992
-0.298719
-0.297135
-0.29538
-0.293563
-0.291758
-0.290004
-0.288323
-0.286723
-0.285207
-0.283783
-0.282476
-0.281343
-0.280496
-0.28014
-0.280626
-0.282476
-0.286823
-0.298239
-0.297177
-0.296633
-0.295645
-0.294354
-0.292893
-0.29136
-0.289818
-0.288302
-0.286828
-0.285396
-0.283996
-0.282619
-0.281258
-0.279925
-0.278668
-0.277609
-0.27699
-0.277211
-0.279751
-0.291479
-0.2939
-0.293595
-0.292856
-0.291825
-0.290629
-0.289352
-0.288049
-0.286753
-0.285472
-0.284199
-0.282915
-0.281591
-0.280187
-0.278655
-0.276928
-0.274923
-0.272502
-0.269191
-0.263751
-0.257262
-0.290934
-0.290834
-0.290313
-0.28951
-0.288546
-0.287495
-0.286407
-0.285306
-0.2842
-0.283077
-0.281913
-0.280669
-0.279293
-0.277713
-0.275835
-0.273538
-0.270676
-0.266882
-0.261307
-0.255495
-0.28824
-0.288317
-0.287983
-0.287377
-0.286615
-0.285762
-0.284859
-0.28393
-0.282978
-0.281991
-0.280946
-0.279803
-0.278515
-0.277019
-0.275236
-0.273088
-0.270501
-0.267261
-0.262942
-0.259233
-0.285784
-0.286014
-0.285841
-0.285404
-0.284816
-0.284132
-0.28339
-0.282608
-0.28179
-0.280924
-0.279989
-0.278953
-0.277773
-0.2764
-0.274781
-0.272868
-0.270628
-0.267914
-0.264528
-0.262132
-0.283541
-0.283902
-0.283867
-0.283575
-0.283136
-0.282598
-0.281994
-0.281339
-0.280638
-0.279881
-0.279049
-0.278117
-0.277053
-0.275822
-0.27439
-0.272738
-0.270861
-0.268669
-0.266092
-0.264596
-0.281492
-0.281966
-0.282048
-0.28188
-0.281569
-0.281157
-0.280673
-0.280131
-0.279535
-0.278879
-0.278147
-0.277323
-0.276382
-0.275305
-0.274075
-0.272693
-0.271177
-0.269476
-0.267586
-0.266722
-0.279621
-0.280191
-0.280373
-0.280311
-0.280112
-0.27981
-0.279432
-0.278993
-0.278496
-0.277938
-0.277308
-0.276595
-0.275786
-0.27487
-0.273845
-0.272726
-0.27154
-0.270262
-0.268906
-0.268467
-0.277916
-0.278566
-0.278834
-0.278864
-0.278762
-0.278559
-0.278278
-0.277934
-0.277532
-0.277072
-0.276546
-0.27595
-0.275277
-0.274524
-0.273698
-0.272821
-0.271925
-0.270991
-0.270035
-0.269872
-0.276366
-0.277084
-0.277425
-0.277535
-0.277518
-0.277404
-0.277213
-0.276959
-0.27665
-0.276286
-0.275866
-0.275388
-0.27485
-0.274256
-0.273616
-0.272955
-0.272303
-0.271643
-0.27098
-0.270997
-0.274962
-0.275737
-0.27614
-0.27632
-0.27638
-0.276346
-0.276237
-0.276069
-0.275849
-0.27558
-0.275263
-0.274899
-0.274491
-0.274045
-0.273573
-0.273098
-0.272646
-0.2722
-0.271752
-0.271889
-0.273695
-0.27452
-0.274977
-0.275218
-0.275345
-0.275383
-0.27535
-0.275261
-0.275125
-0.274946
-0.274727
-0.274471
-0.274183
-0.27387
-0.273543
-0.273224
-0.272935
-0.272654
-0.272365
-0.272584
-0.272561
-0.273428
-0.273931
-0.274225
-0.274412
-0.274514
-0.274549
-0.274533