/*--------------------------------*- C++ -*----------------------------------*\
  =========                 |
  \\      /  F ield         | OpenFOAM: The Open Source CFD Toolbox
   \\    /   O peration     | Website:  https://openfoam.org
    \\  /    A nd           | Version:  6.0
     \\/     M anipulation  |
\*---------------------------------------------------------------------------*/
FoamFile
{
    version     2.0;
    format      ascii;
    class       surfaceScalarField;
    location    "21";
    object      phi;
}
// * * * * * * * * * * * * * * * * * * * * * * * * * * * * * * * * * * * * * //

dimensions      [0 3 -1 0 0 0 0];

internalField   nonuniform List<scalar> 
7840
(
3.50997e-05
-0.000251801
0.000124518
-0.00079253
0.000251114
-0.00133639
0.000396013
-0.00184005
0.000541738
-0.00226982
0.000675239
-0.00260906
0.00078908
-0.00285759
0.00088087
-0.0030265
0.000951774
-0.00313208
0.00100491
-0.0031912
0.00104403
-0.00321855
0.00107271
-0.0032256
0.00109395
-0.0032206
0.00111002
-0.00320909
0.00112255
-0.00319459
0.00113265
-0.00317927
0.0011411
-0.00316446
0.0011484
-0.00315093
0.00115487
-0.00313919
-0.00312972
0.00116068
3.65167e-05
-0.000288317
0.000126907
-0.00088292
0.000251299
-0.00146078
0.000389324
-0.00197807
0.000523592
-0.00240409
0.000642341
-0.00272781
0.000739897
-0.00295515
0.000815472
-0.00310207
0.000871352
-0.00318796
0.000911223
-0.00323107
0.00093897
-0.00324629
0.000958004
-0.00324464
0.000971002
-0.0032336
0.000979901
-0.00321799
0.000986033
-0.00320072
0.000990282
-0.00318352
0.000993233
-0.00316741
0.000995272
-0.00315297
0.000996641
-0.00314056
-0.00313054
0.00099746
3.75273e-05
-0.000325845
0.000127718
-0.000973111
0.000248231
-0.00158129
0.000377697
-0.00210754
0.00049931
-0.0025257
0.000602867
-0.00283137
0.000684452
-0.00303673
0.000744695
-0.00316232
0.000786745
-0.00323001
0.00081462
-0.00325894
0.000832159
-0.00326383
0.000842513
-0.00325499
0.00084802
-0.00323911
0.000850298
-0.00322026
0.000850411
-0.00320083
0.000849047
-0.00318216
0.000846654
-0.00316502
0.000843528
-0.00314984
0.000839852
-0.00313688
-0.00312639
0.000835707
3.80947e-05
-0.000363939
0.000126908
-0.00106192
0.000241991
-0.00169638
0.000361499
-0.00222705
0.000469628
-0.00263383
0.000557895
-0.00291963
0.000624055
-0.00310289
0.000669933
-0.00320819
0.000699293
-0.00325937
0.000716289
-0.00327594
0.000724588
-0.00327213
0.000727027
-0.00325743
0.000725609
-0.00323769
0.000721656
-0.00321631
0.000716008
-0.00319518
0.000709192
-0.00317534
0.000701551
-0.00315738
0.000693314
-0.00314161
0.000684622
-0.00312819
-0.0031173
0.000675534
3.81937e-05
-0.000402133
0.00012448
-0.00114821
0.000232743
-0.00180464
0.00034118
-0.00233548
0.000435322
-0.00272797
0.000508467
-0.00299278
0.000559892
-0.00315432
0.000592384
-0.00324069
0.000610101
-0.00327709
0.000617174
-0.00328301
0.000617016
-0.00327197
0.000612131
-0.00325254
0.000604204
-0.00322976
0.000594297
-0.0032064
0.000583061
-0.00318395
0.000570898
-0.00316318
0.000558068
-0.00314455
0.000544752
-0.00312829
0.000531063
-0.0031145
-0.00310329
0.000517046
3.78118e-05
-0.000439945
0.000120477
-0.00123088
0.000220716
-0.00190488
0.000317242
-0.00243201
0.00039717
-0.0028079
0.000455552
-0.00305116
0.000493007
-0.00319177
0.000513054
-0.00326073
0.000520058
-0.00328409
0.000518009
-0.00328096
0.000510019
-0.00326398
0.000498258
-0.00324078
0.000484122
-0.00321563
0.000468453
-0.00319074
0.000451747
-0.00316724
0.000434303
-0.00314574
0.000416323
-0.00312657
0.000397947
-0.00310992
0.000379273
-0.00309583
-0.00308435
0.000360339
3.69477e-05
-0.000476893
0.00011498
-0.00130891
0.000206183
-0.00199608
0.00029021
-0.00251603
0.000355919
-0.00287361
0.00040003
-0.00309527
0.000424302
-0.00321604
0.000432779
-0.00326921
0.000429876
-0.00328119
0.000419363
-0.00327045
0.000404027
-0.00324865
0.000385723
-0.00322248
0.000365594
-0.0031955
0.000344295
-0.00316944
0.000322197
-0.00314514
0.000299519
-0.00312306
0.000276411
-0.00310346
0.000252989
-0.00308649
0.00022934
-0.00307218
-0.00306052
0.000205503
3.56113e-05
-0.000512504
0.000108098
-0.00138139
0.000189445
-0.00207743
0.00026061
-0.0025872
0.000312267
-0.00292527
0.000342681
-0.00312568
0.000354542
-0.0032279
0.00035224
-0.00326691
0.000340119
-0.00326907
0.000321673
-0.00325201
0.000299364
-0.00322634
0.000274762
-0.00319788
0.000248789
-0.00316952
0.000221951
-0.0031426
0.000194513
-0.00311771
0.000166631
-0.00309518
0.000138413
-0.00307524
0.000109956
-0.00305804
8.13419e-05
-0.00304356
-0.00303179
5.26171e-05
3.38224e-05
-0.000546326
9.99588e-05
-0.00144753
0.000170818
-0.00214829
0.000228948
-0.00264533
0.000266851
-0.00296317
0.000284182
-0.00314302
0.000284372
-0.00322809
0.000271993
-0.00325453
0.00025123
-0.00324831
0.000225274
-0.00322605
0.000196276
-0.00319734
0.00016555
-0.00316715
0.000133836
-0.00313781
0.000101516
-0.00311028
6.87739e-05
-0.00308496
3.57087e-05
-0.00306211
2.3951e-06
-0.00304193
-3.10872e-05
-0.00302456
-6.46543e-05
-0.00301
-0.0029982
-9.82477e-05
3.16087e-05
-0.000577935
9.07088e-05
-0.00150663
0.000150621
-0.0022082
0.000195703
-0.00269041
0.000220243
-0.00298771
0.000225122
-0.00314789
0.000214327
-0.0032173
0.000192486
-0.00323269
0.000163561
-0.00321938
0.00013043
-0.00319292
9.49516e-05
-0.00316186
5.82217e-05
-0.00313042
2.08301e-05
-0.00310042
-1.69383e-05
-0.00307251
-5.49639e-05
-0.00304694
-9.31973e-05
-0.00302388
-0.000131596
-0.00300353
-0.000170095
-0.00298606
-0.000208603
-0.00297149
-0.00295976
-0.000247042
2.90051e-05
-0.00060694
8.05014e-05
-0.00155813
0.000129166
-0.00225686
0.000161316
-0.00272256
0.000172951
-0.00299935
0.000166001
-0.00314094
0.000144854
-0.00319615
0.000114087
-0.00320192
7.73977e-05
-0.00318269
3.73515e-05
-0.00315287
-4.45497e-06
-0.00312005
-4.71131e-05
-0.00308776
-9.01509e-05
-0.00305738
-0.000133356
-0.0030293
-0.000176661
-0.00300363
-0.000220059
-0.00298048
-0.00026354
-0.00296005
-0.000307055
-0.00294254
-0.000350498
-0.00292805
-0.00291649
-0.000393769
2.60518e-05
-0.000632992
6.94945e-05
-0.00160157
0.000106751
-0.00229412
0.000126192
-0.002742
0.000125421
-0.00299858
0.000107251
-0.00312277
7.63276e-05
-0.00316523
3.71004e-05
-0.00316269
-7.02465e-06
-0.00313857
-5.37817e-05
-0.00310612
-0.00010181
-0.00307203
-0.000150356
-0.00303922
-0.000199038
-0.0030087
-0.000247695
-0.00298065
-0.000296294
-0.00295503
-0.000344868
-0.00293191
-0.000393446
-0.00291147
-0.000441995
-0.00289399
-0.000490397
-0.00287964
-0.00286837
-0.000538513
2.2793e-05
-0.000655785
5.7846e-05
-0.00163662
8.36598e-05
-0.00231994
9.06973e-05
-0.00274904
7.80448e-05
-0.00298592
4.92394e-05
-0.00309397
9.06698e-06
-0.00312506
-3.82133e-05
-0.00311541
-8.94978e-05
-0.00308728
-0.000142805
-0.00305281
-0.000196983
-0.00301785
-0.000251406
-0.0029848
-0.000305758
-0.00295435
-0.000359908
-0.0029265
-0.000413845
-0.0029011
-0.000467632
-0.00287812
-0.000521342
-0.00285776
-0.000574976
-0.00284036
-0.000628403
-0.00282622
-0.00281535
-0.000681423
1.9276e-05
-0.000675061
4.57112e-05
-0.00166306
6.01549e-05
-0.00233438
5.51626e-05
-0.00274405
3.11677e-05
-0.00296193
-7.71206e-06
-0.00305509
-5.66504e-05
-0.00307612
-0.000111621
-0.00306044
-0.000169827
-0.00302908
-0.000229551
-0.00299308
-0.000289828
-0.00295757
-0.000350141
-0.00292448
-0.000410218
-0.00289427
-0.000469936
-0.00286678
-0.000529287
-0.00284175
-0.000588355
-0.00281905
-0.000647261
-0.00279885
-0.000706053
-0.00278157
-0.000764601
-0.00276767
-0.00275734
-0.000822608
1.55496e-05
-0.000690611
3.32402e-05
-0.00168075
3.64807e-05
-0.00233762
1.98834e-05
-0.00272745
-1.49069e-05
-0.00292714
-6.33223e-05
-0.00300667
-0.000120577
-0.00301886
-0.000182906
-0.00299811
-0.000247815
-0.00296417
-0.000313836
-0.00292706
-0.000380172
-0.00289123
-0.0004464
-0.00285825
-0.000512281
-0.00282839
-0.000577685
-0.00280138
-0.000642581
-0.00277685
-0.000707046
-0.00275458
-0.000771241
-0.00273466
-0.000835281
-0.00271753
-0.000899048
-0.0027039
-0.00269428
-0.000962109
1.16634e-05
-0.000702274
2.05759e-05
-0.00168966
1.28605e-05
-0.0023299
-1.48756e-05
-0.00269971
-5.99108e-05
-0.0028821
-0.000117341
-0.00294924
-0.000182484
-0.00295372
-0.000251856
-0.00292874
-0.000323254
-0.00289277
-0.000395445
-0.00285487
-0.00046779
-0.00281889
-0.000539955
-0.00278609
-0.000611736
-0.00275661
-0.000682988
-0.00273012
-0.000753633
-0.00270621
-0.000823705
-0.00268451
-0.000893374
-0.00266499
-0.000962831
-0.00264807
-0.00103199
-0.00263474
-0.00262597
-0.0011003
7.6665e-06
-0.00070994
7.8527e-06
-0.00168985
-1.05028e-05
-0.00231155
-4.88798e-05
-0.00266134
-0.000103608
-0.00282738
-0.000169545
-0.00288331
-0.00024216
-0.00288111
-0.000318259
-0.00285264
-0.000395921
-0.00281511
-0.000474129
-0.00277666
-0.000552398
-0.00274062
-0.000630491
-0.002708
-0.000708254
-0.00267884
-0.000785543
-0.00265284
-0.000862227
-0.00262952
-0.000938267
-0.00260847
-0.0010138
-0.00258945
-0.00108912
-0.00257275
-0.00116421
-0.00255966
-0.00255148
-0.0012387
3.60683e-06
-0.000713547
-4.80528e-06
-0.00168144
-3.34279e-05
-0.00228293
-8.19231e-05
-0.00261284
-0.000145791
-0.00276351
-0.000219734
-0.00280936
-0.000299407
-0.00280143
-0.000381904
-0.00277014
-0.000465571
-0.00273144
-0.000549598
-0.00269264
-0.000633649
-0.00265657
-0.0007176
-0.00262405
-0.000801382
-0.00259506
-0.000884891
-0.00256933
-0.00096798
-0.00254643
-0.00105054
-0.00252592
-0.00113265
-0.00250733
-0.00121472
-0.00249069
-0.00129695
-0.00247742
-0.0024685
-0.00137993
-4.70314e-07
-0.000713077
-1.72858e-05
-0.00166462
-5.57562e-05
-0.00224446
-0.000113829
-0.00255477
-0.000186284
-0.00269105
-0.000267734
-0.00272791
-0.000354041
-0.00271513
-0.000442579
-0.0026816
-0.000531942
-0.00264208
-0.000621511
-0.00260307
-0.0007111
-0.00256698
-0.000800721
-0.00253442
-0.000890443
-0.00250534
-0.000980297
-0.00247947
-0.00107023
-0.0024565
-0.00116013
-0.00243602
-0.00125
-0.00241747
-0.00134019
-0.0024005
-0.00143127
-0.00238635
-0.00237381
-0.00152595
-4.52318e-06
-0.000708554
-2.94902e-05
-0.00163965
-7.73533e-05
-0.00219659
-0.000144453
-0.00248767
-0.000224945
-0.00261056
-0.000313405
-0.00263945
-0.000405909
-0.00262262
-0.000500094
-0.00258742
-0.000594772
-0.0025474
-0.000689486
-0.00250835
-0.000784181
-0.00247229
-0.000879006
-0.0024396
-0.000974211
-0.00241014
-0.00107009
-0.0023836
-0.00116691
-0.00235968
-0.00126488
-0.00233805
-0.00136411
-0.00231823
-0.00146518
-0.00229943
-0.00157032
-0.00228121
-0.00227493
-0.0016692
-8.50243e-06
-0.000700051
-4.13151e-05
-0.00160684
-9.80875e-05
-0.00213982
-0.000173661
-0.0024121
-0.00026165
-0.00252257
-0.000356632
-0.00254447
-0.000454896
-0.00252436
-0.000554313
-0.002488
-0.000653875
-0.00244784
-0.000753238
-0.00240899
-0.000852412
-0.00237311
-0.000951597
-0.00234042
-0.00105111
-0.00231062
-0.00115142
-0.00228329
-0.00125314
-0.00225796
-0.00135709
-0.00223409
-0.00146415
-0.00221117
-0.00157472
-0.00218887
-0.00168974
-0.00216618
-0.00213609
-0.00182858
-1.23973e-05
-0.000687654
-5.27287e-05
-0.00156651
-0.00011792
-0.00207463
-0.00020142
-0.0023286
-0.000296382
-0.00242761
-0.000397414
-0.00244344
-0.000501011
-0.00242076
-0.000605256
-0.00238376
-0.000709287
-0.00234381
-0.000812833
-0.00230544
-0.000915912
-0.00227003
-0.00101866
-0.00223767
-0.00112127
-0.00220801
-0.00122395
-0.00218061
-0.00132694
-0.00215497
-0.00143044
-0.00213059
-0.00153453
-0.00210708
-0.00163942
-0.00208398
-0.00174581
-0.00205979
-0.00203104
-0.00185086
-1.61691e-05
-0.000671485
-6.36581e-05
-0.00151902
-0.000136766
-0.00200152
-0.000227659
-0.0022377
-0.000329091
-0.00232618
-0.000435724
-0.00233681
-0.000544254
-0.00231223
-0.000652954
-0.00227506
-0.00076109
-0.00223567
-0.000868456
-0.00219808
-0.000975089
-0.0021634
-0.00108111
-0.00213164
-0.00118668
-0.00210245
-0.00129191
-0.00207538
-0.00139689
-0.00204998
-0.00150164
-0.00202584
-0.00160613
-0.00200259
-0.00171032
-0.00197979
-0.00181349
-0.00195661
-0.00193222
-0.00191231
-1.97961e-05
-0.000651689
-7.40626e-05
-0.00146475
-0.000154588
-0.001921
-0.000252353
-0.00213994
-0.000359777
-0.00221875
-0.000471591
-0.00222499
-0.000584681
-0.00219914
-0.000697491
-0.00216225
-0.000809392
-0.00212377
-0.000920224
-0.00208725
-0.00103003
-0.0020536
-0.0011389
-0.00202277
-0.00124693
-0.00199441
-0.0013542
-0.00196812
-0.00146069
-0.00194349
-0.00156633
-0.00192019
-0.00167099
-0.00189793
-0.00177438
-0.0018764
-0.00187585
-0.00185515
-0.00183375
-0.00197432
-2.32609e-05
-0.000628428
-8.39129e-05
-0.0014041
-0.000171359
-0.00183355
-0.000275499
-0.0020358
-0.000388464
-0.00210579
-0.000505067
-0.00210839
-0.000622379
-0.00208183
-0.000738998
-0.00204563
-0.000854391
-0.00200838
-0.000968444
-0.00197319
-0.0010812
-0.00194084
-0.00119276
-0.00191122
-0.00130317
-0.001884
-0.00141248
-0.00185881
-0.00152066
-0.00183531
-0.00162764
-0.00181321
-0.00173328
-0.00179229
-0.00183733
-0.00177235
-0.00193939
-0.00175308
-0.00173426
-0.00203888
-2.65495e-05
-0.000601879
-9.31882e-05
-0.00133746
-0.00018707
-0.00173967
-0.000297105
-0.00192576
-0.000415184
-0.00198771
-0.000536213
-0.00198736
-0.000657434
-0.00196061
-0.000777589
-0.00192547
-0.000896233
-0.00188973
-0.00101329
-0.00185613
-0.00112883
-0.0018253
-0.00124293
-0.00179712
-0.00135566
-0.00177127
-0.00146705
-0.00174742
-0.00157709
-0.00172528
-0.00168571
-0.00170459
-0.00179281
-0.00168519
-0.00189825
-0.00166691
-0.00200182
-0.00164951
-0.00163283
-0.00210325
-2.96514e-05
-0.000572227
-0.000101875
-0.00126524
-0.000201718
-0.00163983
-0.000317189
-0.00181029
-0.000439979
-0.00186492
-0.000565092
-0.00186225
-0.000689935
-0.00183576
-0.00081338
-0.00180203
-0.000935063
-0.00176805
-0.00105495
-0.00173625
-0.00117313
-0.00170713
-0.00128968
-0.00168056
-0.0014047
-0.00165625
-0.00151822
-0.0016339
-0.00163024
-0.00161325
-0.00174076
-0.00159408
-0.00184971
-0.00157624
-0.00195704
-0.00155959
-0.00206264
-0.0015439
-0.00152909
-0.00216638
-3.25581e-05
-0.000539669
-0.000109965
-0.00118783
-0.000215303
-0.00153449
-0.00033577
-0.00168982
-0.000462888
-0.0017378
-0.000591764
-0.00173337
-0.000719959
-0.00170757
-0.000846464
-0.00167552
-0.000970991
-0.00164352
-0.00109355
-0.00161369
-0.00121424
-0.00158644
-0.00133317
-0.00156163
-0.00145044
-0.00153899
-0.0015661
-0.00151824
-0.00168021
-0.00149914
-0.00179276
-0.00148152
-0.00190376
-0.00146524
-0.0020132
-0.00145014
-0.00212107
-0.00143604
-0.00142287
-0.00222728
-3.52631e-05
-0.000504406
-0.000117451
-0.00110564
-0.000227832
-0.00142411
-0.000352869
-0.00156479
-0.00048395
-0.00160672
-0.000616282
-0.00160104
-0.000747569
-0.00157628
-0.000876915
-0.00154617
-0.0010041
-0.00151634
-0.00112916
-0.00148862
-0.00125224
-0.00146336
-0.00137346
-0.00144041
-0.00149292
-0.00141952
-0.00161073
-0.00140043
-0.00172693
-0.00138294
-0.00184158
-0.00136687
-0.00195471
-0.0013521
-0.00206636
-0.0013385
-0.00217654
-0.00132586
-0.00131417
-0.00228524
-3.77611e-05
-0.000466645
-0.00012433
-0.00101908
-0.000239309
-0.00130913
-0.000368506
-0.00143559
-0.000503196
-0.00147203
-0.000638687
-0.00146555
-0.000772815
-0.00144215
-0.000904786
-0.0014142
-0.00103444
-0.00138669
-0.00116186
-0.00136121
-0.00128718
-0.00133803
-0.00141058
-0.00131702
-0.00153216
-0.00129794
-0.00165204
-0.00128055
-0.00177031
-0.00126467
-0.00188704
-0.00125015
-0.00200229
-0.00123685
-0.00211613
-0.00122466
-0.00222859
-0.00121339
-0.00120306
-0.0023397
-4.00475e-05
-0.000426597
-0.000130599
-0.000928524
-0.00024974
-0.00118999
-0.000382696
-0.00130263
-0.000520652
-0.00133407
-0.000659012
-0.00132719
-0.000795734
-0.00130543
-0.000930113
-0.00127982
-0.00106204
-0.00125476
-0.00119164
-0.00123161
-0.00131908
-0.0012106
-0.00144452
-0.00119158
-0.00156811
-0.00117434
-0.00168998
-0.00115868
-0.00181024
-0.00114442
-0.00192897
-0.00113141
-0.00204626
-0.00111956
-0.0021622
-0.00110872
-0.00227685
-0.00109875
-0.00108967
-0.00239024
-4.21181e-05
-0.000384479
-0.000136254
-0.000834389
-0.000259129
-0.00106711
-0.000395453
-0.00116631
-0.000536338
-0.00119319
-0.000677281
-0.00118625
-0.000816348
-0.00116636
-0.000952917
-0.00114326
-0.00108693
-0.00112074
-0.00121853
-0.00110001
-0.00134791
-0.00108122
-0.00147525
-0.00106424
-0.00160072
-0.00104888
-0.00172445
-0.00103495
-0.00184657
-0.00102229
-0.00196719
-0.00101079
-0.00208641
-0.00100034
-0.00220432
-0.000990814
-0.002321
-0.000982069
-0.000974168
-0.0024365
-4.39693e-05
-0.00034051
-0.000141292
-0.000737065
-0.000267477
-0.000940926
-0.000406784
-0.001027
-0.000550268
-0.0010497
-0.000693509
-0.00104301
-0.000834673
-0.0010252
-0.000973206
-0.00100472
-0.0011091
-0.000984856
-0.00124251
-0.000966595
-0.00137365
-0.000950073
-0.00150273
-0.000935164
-0.00162991
-0.000921696
-0.00175535
-0.000909506
-0.00187919
-0.000898457
-0.00200155
-0.000888437
-0.00212253
-0.000879354
-0.00224225
-0.000871096
-0.00236078
-0.000863534
-0.000856743
-0.00247821
-4.55977e-05
-0.000294912
-0.000145711
-0.000636952
-0.000274786
-0.000811851
-0.000416696
-0.000885095
-0.000562451
-0.000903948
-0.000707707
-0.000897753
-0.000850715
-0.000882192
-0.000990983
-0.000864453
-0.00112853
-0.000847305
-0.00126356
-0.00083157
-0.00139628
-0.000817352
-0.00152691
-0.000804538
-0.00165563
-0.000792977
-0.0017826
-0.000782529
-0.00190798
-0.000773076
-0.0020319
-0.00076452
-0.00215447
-0.00075678
-0.00227581
-0.000749757
-0.00239601
-0.000743341
-0.000737608
-0.00251514
-4.7e-05
-0.000247912
-0.000149507
-0.000534444
-0.000281056
-0.000680302
-0.000425192
-0.000740959
-0.000572892
-0.000756247
-0.000719878
-0.000750768
-0.000864475
-0.000737595
-0.00100624
-0.000722684
-0.00114524
-0.000708312
-0.00128166
-0.000695145
-0.00141575
-0.000683259
-0.00154773
-0.000672557
-0.0016778
-0.000662913
-0.00180612
-0.000654208
-0.00193285
-0.000646343
-0.00205814
-0.000639237
-0.0021821
-0.000632818
-0.00230485
-0.000627004
-0.00242649
-0.000621702
-0.000616986
-0.00254711
-4.81734e-05
-0.000199739
-0.000152677
-0.000429941
-0.000286285
-0.000546694
-0.000432273
-0.000594971
-0.000581594
-0.000606926
-0.000730025
-0.000602337
-0.000875952
-0.000591667
-0.00101898
-0.000579657
-0.00115918
-0.000568108
-0.00129679
-0.000557539
-0.00143204
-0.000548007
-0.00156517
-0.000539432
-0.00169637
-0.00053171
-0.00182583
-0.000524748
-0.00195371
-0.000518465
-0.00208015
-0.000512795
-0.00220529
-0.000507681
-0.00232924
-0.000503054
-0.0024521
-0.000498842
-0.00049511
-0.00257397
-4.91155e-05
-0.000150623
-0.000155217
-0.000323839
-0.000290471
-0.000411441
-0.00043794
-0.000447502
-0.000588557
-0.000456309
-0.000738146
-0.000452749
-0.000885142
-0.00044467
-0.00102918
-0.000435617
-0.00117036
-0.000426925
-0.00130892
-0.00041898
-0.00144511
-0.000411818
-0.00157917
-0.000405379
-0.00171129
-0.000399585
-0.00184167
-0.000394365
-0.00197048
-0.000389658
-0.00209786
-0.000385415
-0.00222395
-0.000381592
-0.00234887
-0.000378136
-0.00247272
-0.000374995
-0.000372219
-0.00259561
-4.98239e-05
-0.0001008
-0.000157125
-0.000216538
-0.000293613
-0.000274953
-0.000442191
-0.000298924
-0.000593781
-0.000304719
-0.000744239
-0.00030229
-0.00089204
-0.00029687
-0.00103684
-0.000290813
-0.00117876
-0.000285006
-0.00131804
-0.0002797
-0.00145494
-0.00027492
-0.0015897
-0.000270625
-0.00172252
-0.000266762
-0.0018536
-0.000263283
-0.00198311
-0.000260148
-0.0021112
-0.000257324
-0.00223801
-0.000254781
-0.00236366
-0.000252485
-0.00248826
-0.0002504
-0.000248562
-0.00261192
-5.02971e-05
-5.05024e-05
-0.000158398
-0.000108437
-0.000295708
-0.000137643
-0.000445026
-0.000149606
-0.000597264
-0.000152481
-0.000748303
-0.000151251
-0.000896641
-0.000148532
-0.00104196
-0.000145498
-0.00118437
-0.000142592
-0.00132413
-0.000139938
-0.0014615
-0.000137548
-0.00159673
-0.0001354
-0.00173002
-0.000133469
-0.00186157
-0.000131731
-0.00199156
-0.000130165
-0.00212012
-0.000128756
-0.00224742
-0.000127487
-0.00237356
-0.000126342
-0.00249866
-0.000125302
-0.000124388
-0.00262283
-5.0534e-05
3.15482e-08
-0.000159035
6.43318e-08
-0.000296756
7.83809e-08
-0.000446444
8.22217e-08
-0.000599006
8.13173e-08
-0.000750336
7.86094e-08
-0.000898943
7.54222e-08
-0.00104451
7.22453e-08
-0.00118718
6.92196e-08
-0.00132718
6.63693e-08
-0.00146479
6.36891e-08
-0.00160025
6.11692e-08
-0.00173378
5.88004e-08
-0.00186557
5.65744e-08
-0.00199579
5.44836e-08
-0.0021246
5.25214e-08
-0.00225213
5.0681e-08
-0.00237852
4.89523e-08
-0.00250387
4.73201e-08
4.57839e-08
-0.00262831
-5.0534e-05
5.05656e-05
-0.000159035
0.000108566
-0.000296757
0.0001378
-0.000446445
0.00014977
-0.000599007
0.000152644
-0.000750337
0.000151408
-0.000898944
0.000148683
-0.00104452
0.000145643
-0.00118718
0.000142731
-0.00132718
0.000140071
-0.00146479
0.000137675
-0.00160025
0.000135522
-0.00173378
0.000133587
-0.00186557
0.000131844
-0.00199579
0.000130274
-0.0021246
0.000128861
-0.00225213
0.000127588
-0.00237853
0.00012644
-0.00250388
0.000125397
0.00012448
-0.00262831
-5.02974e-05
0.000100863
-0.000158399
0.000216667
-0.000295709
0.00027511
-0.000445028
0.000299089
-0.000597267
0.000304882
-0.000748306
0.000302448
-0.000896645
0.000297021
-0.00104196
0.000290958
-0.00118437
0.000285145
-0.00132414
0.000279833
-0.00146151
0.000275048
-0.00159673
0.000270748
-0.00173003
0.00026688
-0.00186158
0.000263396
-0.00199156
0.000260257
-0.00212013
0.000257429
-0.00224743
0.000254883
-0.00237357
0.000252583
-0.00249867
0.000250495
0.000248653
-0.00262284
-4.98243e-05
0.000150687
-0.000157126
0.000323969
-0.000293615
0.000411599
-0.000442194
0.000447668
-0.000593785
0.000456473
-0.000744244
0.000452907
-0.000892045
0.000444823
-0.00103685
0.000435762
-0.00117877
0.000427065
-0.00131805
0.000419113
-0.00145495
0.000411946
-0.0015897
0.000405502
-0.00172253
0.000399704
-0.00185361
0.000394479
-0.00198312
0.000389768
-0.00211121
0.00038552
-0.00223802
0.000381694
-0.00236367
0.000378235
-0.00248827
0.00037509
0.000372311
-0.00261193
-4.9116e-05
0.000199803
-0.000155219
0.000430072
-0.000290474
0.000546854
-0.000437944
0.000595138
-0.000588562
0.000607091
-0.000738152
0.000602497
-0.00088515
0.00059182
-0.00102919
0.000579804
-0.00117037
0.000568248
-0.00130893
0.000557674
-0.00144512
0.000548136
-0.00157918
0.000539556
-0.0017113
0.000531829
-0.00184169
0.000524863
-0.00197049
0.000518575
-0.00209787
0.000512901
-0.00222396
0.000507784
-0.00234888
0.000503153
-0.00247273
0.000498938
0.000495202
-0.00259562
-4.81742e-05
0.000247977
-0.000152679
0.000534577
-0.000286289
0.000680463
-0.000432278
0.000741128
-0.000581601
0.000756414
-0.000730033
0.000750929
-0.000875962
0.000737749
-0.00101899
0.000722832
-0.0011592
0.000708454
-0.0012968
0.000695281
-0.00143206
0.000683389
-0.00156518
0.000672682
-0.00169639
0.000663033
-0.00182585
0.000654324
-0.00195373
0.000646454
-0.00208017
0.000639343
-0.00220531
0.000632921
-0.00232926
0.000627103
-0.00245212
0.000621798
0.000617079
-0.00257399
-4.70009e-05
0.000294978
-0.00014951
0.000637086
-0.000281061
0.000812014
-0.000425198
0.000885266
-0.000572901
0.000904116
-0.000719888
0.000897916
-0.000864487
0.000882348
-0.00100626
0.000864602
-0.00114525
0.000847447
-0.00128168
0.000831707
-0.00141577
0.000817483
-0.00154775
0.000804664
-0.00167782
0.000793098
-0.00180614
0.000782645
-0.00193287
0.000773187
-0.00205816
0.000764628
-0.00218212
0.000756884
-0.00230487
0.000749857
-0.00242651
0.000743438
0.000737701
-0.00254714
-4.55987e-05
0.000340577
-0.000145715
0.000737202
-0.000274792
0.000941091
-0.000416703
0.00102718
-0.000562461
0.00104987
-0.000707718
0.00104317
-0.000850728
0.00102536
-0.000990999
0.00100487
-0.00112855
0.000985
-0.00126358
0.000966733
-0.0013963
0.000950205
-0.00152693
0.000935291
-0.00165565
0.000921818
-0.00178263
0.000909623
-0.00190801
0.00089857
-0.00203193
0.000888546
-0.0021545
0.000879458
-0.00227584
0.000871196
-0.00239603
0.000863632
0.000856837
-0.00251517
-4.39705e-05
0.000384548
-0.000141296
0.000834527
-0.000267484
0.00106728
-0.000406793
0.00116649
-0.00055028
0.00119336
-0.000693523
0.00118642
-0.000834689
0.00116652
-0.000973224
0.00114341
-0.00110911
0.00112089
-0.00124253
0.00110015
-0.00137368
0.00108135
-0.00150275
0.00106437
-0.00162994
0.001049
-0.00175538
0.00103507
-0.00187922
0.00102241
-0.00200157
0.0010109
-0.00212256
0.00100045
-0.00224228
0.000990916
-0.00236082
0.000982167
0.000974262
-0.00247824
-4.21194e-05
0.000426667
-0.000136258
0.000928666
-0.000259136
0.00119016
-0.000395463
0.00130281
-0.000536352
0.00133425
-0.000677296
0.00132736
-0.000816366
0.00130559
-0.000952937
0.00127998
-0.00108695
0.00125491
-0.00121855
0.00123175
-0.00134793
0.00121073
-0.00147528
0.00119171
-0.00160075
0.00117447
-0.00172448
0.0011588
-0.0018466
0.00114453
-0.00196722
0.00113152
-0.00208644
0.00111967
-0.00220435
0.00110883
-0.00232103
0.00109885
0.00108977
-0.00243654
-4.00489e-05
0.000466716
-0.000130603
0.00101922
-0.000249748
0.0013093
-0.000382708
0.00143577
-0.000520667
0.00147221
-0.000659029
0.00146572
-0.000795754
0.00144232
-0.000930136
0.00141436
-0.00106207
0.00138684
-0.00119167
0.00136135
-0.00131911
0.00133817
-0.00144455
0.00131715
-0.00156814
0.00129806
-0.00169002
0.00128067
-0.00181027
0.00126479
-0.00192901
0.00125026
-0.0020463
0.00123696
-0.00216224
0.00122477
-0.00227689
0.00121349
0.00120316
-0.00239028
-3.77627e-05
0.000504479
-0.000124335
0.00110579
-0.000239318
0.00142429
-0.000368519
0.00156497
-0.000503213
0.0016069
-0.000638706
0.00160122
-0.000772838
0.00157645
-0.000904812
0.00154633
-0.00103447
0.00151649
-0.00116189
0.00148877
-0.00128722
0.0014635
-0.00141061
0.00144055
-0.0015322
0.00141965
-0.00165208
0.00140056
-0.00177035
0.00138306
-0.00188708
0.00136699
-0.00200234
0.00135221
-0.00211617
0.0013386
-0.00222864
0.00132596
0.00131427
-0.00233975
-3.52649e-05
0.000539743
-0.000117456
0.00118798
-0.000227841
0.00153467
-0.000352883
0.00169002
-0.000483968
0.00173799
-0.000616304
0.00173355
-0.000747594
0.00170774
-0.000876943
0.00167568
-0.00100413
0.00164368
-0.0011292
0.00161384
-0.00125228
0.00158658
-0.00137349
0.00156177
-0.00149296
0.00153912
-0.00161077
0.00151836
-0.00172698
0.00149927
-0.00184163
0.00148164
-0.00195476
0.00146535
-0.00206641
0.00145025
-0.00217659
0.00143614
0.00142297
-0.00228529
-3.25599e-05
0.000572303
-0.00010997
0.00126539
-0.000215314
0.00164001
-0.000335785
0.00181049
-0.000462908
0.00186511
-0.000591788
0.00186243
-0.000719986
0.00183594
-0.000846495
0.00180219
-0.000971025
0.00176821
-0.00109358
0.0017364
-0.00121427
0.00170727
-0.00133321
0.0016807
-0.00145048
0.00165639
-0.00156615
0.00163403
-0.00168026
0.00161337
-0.00179281
0.00159419
-0.00190381
0.00157635
-0.00201326
0.0015597
-0.00212112
0.00154401
0.00152919
-0.00222734
-2.96533e-05
0.000601957
-0.000101881
0.00133762
-0.000201729
0.00173986
-0.000317205
0.00192596
-0.00044
0.00198791
-0.000565118
0.00198755
-0.000689965
0.00196078
-0.000813414
0.00192564
-0.0009351
0.0018899
-0.00105499
0.00185629
-0.00117317
0.00182545
-0.00128973
0.00179726
-0.00140475
0.00177141
-0.00151827
0.00174755
-0.0016303
0.0017254
-0.00174081
0.00170471
-0.00184977
0.00168531
-0.0019571
0.00166702
-0.00206271
0.00164962
0.00163293
-0.00216645
-2.65516e-05
0.000628508
-9.31949e-05
0.00140427
-0.000187083
0.00183375
-0.000297123
0.002036
-0.000415207
0.00210599
-0.00053624
0.00210858
-0.000657466
0.00208201
-0.000777625
0.0020458
-0.000896273
0.00200854
-0.00101334
0.00197335
-0.00112888
0.00194099
-0.00124298
0.00191136
-0.00135571
0.00188414
-0.00146711
0.00185895
-0.00157714
0.00183544
-0.00168577
0.00181333
-0.00179287
0.00179241
-0.00189831
0.00177246
-0.00200189
0.00175319
0.00173436
-0.00210332
-2.3263e-05
0.000651771
-8.39198e-05
0.00146492
-0.000171372
0.0019212
-0.000275518
0.00214015
-0.000388488
0.00221896
-0.000505097
0.00222519
-0.000622413
0.00219933
-0.000739037
0.00216242
-0.000854434
0.00212394
-0.000968491
0.00208741
-0.00108125
0.00205375
-0.00119281
0.00202292
-0.00130323
0.00199456
-0.00141254
0.00196826
-0.00152072
0.00194363
-0.00162771
0.00192032
-0.00173335
0.00189805
-0.0018374
0.00187652
-0.00193947
0.00185526
0.00183385
-0.00203896
-1.97983e-05
0.00067157
-7.40699e-05
0.00151919
-0.000154601
0.00200173
-0.000252373
0.00223792
-0.000359804
0.00232639
-0.000471623
0.00233701
-0.000584718
0.00231242
-0.000697533
0.00227524
-0.000809438
0.00223585
-0.000920274
0.00219825
-0.00103008
0.00216356
-0.00113896
0.00213179
-0.001247
0.0021026
-0.00135426
0.00207552
-0.00146076
0.00205012
-0.0015664
0.00202597
-0.00167106
0.00200271
-0.00177446
0.00197991
-0.00187593
0.00195673
0.00193233
-0.00197441
-1.61713e-05
0.000687741
-6.36656e-05
0.00156669
-0.000136781
0.00207485
-0.00022768
0.00232882
-0.000329119
0.00242783
-0.000435757
0.00244365
-0.000544293
0.00242096
-0.000652998
0.00238394
-0.000761139
0.00234399
-0.000868509
0.00230562
-0.000975146
0.0022702
-0.00108118
0.00223782
-0.00118674
0.00220816
-0.00129198
0.00218076
-0.00139696
0.00215511
-0.00150172
0.00213072
-0.00160622
0.00210721
-0.0017104
0.0020841
-0.00181358
0.0020599
0.00203115
-0.00191241
-1.23995e-05
0.000700141
-5.27365e-05
0.00160702
-0.000117934
0.00214005
-0.000201442
0.00241233
-0.000296412
0.0025228
-0.000397449
0.00254469
-0.000501052
0.00252456
-0.000605303
0.0024882
-0.000709339
0.00244802
-0.00081289
0.00240917
-0.000915973
0.00237328
-0.00101873
0.00234058
-0.00112134
0.00231077
-0.00122402
0.00228344
-0.00132702
0.0022581
-0.00143053
0.00223423
-0.00153462
0.0022113
-0.00163951
0.00218899
-0.00174591
0.0021663
0.00213621
-0.00185096
-8.50467e-06
0.000708645
-4.1323e-05
0.00163984
-9.81029e-05
0.00219683
-0.000173684
0.00248791
-0.000261681
0.0026108
-0.000356669
0.00263968
-0.000454939
0.00262283
-0.000554362
0.00258762
-0.000653929
0.00254759
-0.000753297
0.00250854
-0.000852477
0.00247246
-0.000951666
0.00243977
-0.00105119
0.0024103
-0.0011515
0.00238375
-0.00125322
0.00235983
-0.00135718
0.00233819
-0.00146425
0.00231837
-0.00157482
0.00229956
-0.00168985
0.00228133
0.00227505
-0.00182869
-4.52537e-06
0.000713171
-2.94982e-05
0.00166482
-7.7369e-05
0.0022447
-0.000144477
0.00255502
-0.000224977
0.0026913
-0.000313444
0.00272814
-0.000405955
0.00271534
-0.000500146
0.00268181
-0.000594829
0.00264227
-0.000689549
0.00260326
-0.000784249
0.00256716
-0.000879079
0.0025346
-0.000974289
0.00250551
-0.00107017
0.00247963
-0.001167
0.00245665