/*--------------------------------*- C++ -*----------------------------------*\
  =========                 |
  \\      /  F ield         | OpenFOAM: The Open Source CFD Toolbox
   \\    /   O peration     | Website:  https://openfoam.org
    \\  /    A nd           | Version:  6.0
     \\/     M anipulation  |
\*---------------------------------------------------------------------------*/
FoamFile
{
    version     2.0;
    format      ascii;
    class       volScalarField;
    location    "45";
    object      p;
}
// * * * * * * * * * * * * * * * * * * * * * * * * * * * * * * * * * * * * * //

dimensions      [0 2 -2 0 0 0 0];

internalField   nonuniform List<scalar> 
8000
(
-0.242962
-0.243846
-0.24443
-0.244855
-0.245208
-0.245503
-0.245752
-0.245966
-0.246154
-0.246322
-0.246475
-0.246618
-0.246755
-0.24689
-0.247028
-0.247177
-0.24734
-0.247466
-0.24753
-0.248052
-0.243045
-0.243923
-0.244501
-0.24492
-0.245266
-0.245553
-0.245793
-0.245998
-0.246176
-0.246334
-0.246477
-0.24661
-0.246736
-0.246861
-0.246988
-0.247128
-0.247281
-0.247399
-0.247454
-0.247968
-0.243223
-0.244095
-0.244665
-0.245074
-0.245409
-0.245683
-0.245908
-0.246097
-0.246259
-0.2464
-0.246525
-0.246639
-0.246747
-0.246854
-0.246963
-0.247085
-0.247222
-0.247325
-0.247364
-0.247866
-0.243497
-0.244362
-0.244922
-0.245318
-0.245637
-0.245891
-0.246096
-0.246263
-0.246401
-0.246516
-0.246616
-0.246703
-0.246785
-0.246864
-0.246946
-0.247042
-0.247156
-0.247237
-0.247253
-0.247739
-0.243867
-0.244725
-0.245274
-0.245653
-0.24595
-0.24618
-0.246357
-0.246494
-0.2466
-0.246683
-0.246747
-0.246799
-0.246844
-0.246886
-0.246932
-0.246993
-0.247073
-0.247124
-0.247109
-0.247574
-0.244337
-0.245188
-0.245722
-0.24608
-0.24635
-0.246549
-0.246692
-0.246791
-0.246858
-0.246898
-0.246918
-0.246924
-0.246921
-0.246915
-0.246913
-0.246927
-0.246964
-0.246974
-0.246918
-0.247358
-0.24491
-0.245753
-0.24627
-0.246602
-0.24684
-0.247001
-0.247102
-0.247156
-0.247173
-0.247161
-0.247127
-0.247075
-0.247012
-0.246945
-0.246881
-0.246835
-0.246815
-0.246772
-0.246663
-0.247073
-0.245591
-0.246425
-0.246921
-0.247222
-0.247421
-0.247538
-0.247589
-0.247589
-0.247549
-0.247475
-0.247375
-0.247253
-0.247117
-0.246974
-0.246833
-0.24671
-0.246617
-0.246505
-0.246329
-0.2467
-0.246389
-0.24721
-0.24768
-0.247944
-0.248098
-0.248164
-0.248158
-0.248096
-0.247989
-0.247844
-0.247667
-0.247463
-0.247239
-0.247003
-0.246766
-0.246547
-0.24636
-0.246158
-0.245895
-0.246219
-0.247312
-0.248115
-0.248553
-0.248774
-0.248876
-0.248882
-0.248813
-0.248682
-0.2485
-0.248275
-0.24801
-0.247711
-0.247384
-0.247038
-0.246684
-0.246345
-0.246039
-0.245721
-0.245344
-0.245607
-0.24837
-0.249148
-0.249546
-0.249716
-0.249759
-0.2497
-0.249559
-0.249352
-0.249089
-0.248776
-0.248415
-0.24801
-0.247567
-0.247092
-0.246599
-0.246112
-0.245655
-0.245185
-0.244658
-0.244838
-0.249575
-0.250317
-0.250667
-0.250778
-0.250752
-0.25062
-0.250402
-0.250113
-0.249764
-0.249357
-0.248894
-0.248375
-0.247803
-0.247184
-0.246529
-0.245864
-0.245218
-0.24455
-0.243821
-0.243884
-0.250938
-0.251633
-0.251923
-0.251964
-0.251861
-0.251647
-0.251345
-0.250971
-0.250532
-0.250029
-0.24946
-0.248822
-0.248114
-0.247336
-0.246498
-0.245624
-0.244746
-0.243823
-0.242819
-0.24271
-0.252473
-0.253103
-0.253321
-0.253279
-0.253089
-0.252785
-0.252392
-0.251926
-0.251394
-0.250794
-0.25012
-0.249364
-0.248516
-0.247572
-0.246534
-0.245422
-0.244267
-0.24302
-0.241645
-0.241276
-0.254191
-0.254739
-0.254868
-0.25473
-0.254438
-0.254032
-0.25354
-0.252977
-0.252349
-0.251652
-0.250874
-0.250002
-0.249018
-0.247907
-0.24666
-0.245288
-0.243813
-0.242168
-0.240297
-0.239536
-0.256105
-0.256551
-0.256572
-0.25632
-0.25591
-0.255388
-0.254784
-0.254116
-0.253387
-0.25259
-0.251711
-0.250727
-0.249614
-0.248343
-0.24689
-0.245247
-0.243421
-0.241313
-0.238806
-0.237463
-0.25823
-0.258551
-0.258443
-0.258056
-0.257508
-0.256851
-0.256119
-0.255332
-0.254491
-0.25359
-0.252608
-0.251518
-0.250285
-0.248868
-0.247225
-0.245324
-0.243148
-0.24055
-0.237294
-0.235122
-0.260582
-0.260753
-0.260492
-0.259946
-0.259236
-0.25842
-0.257539
-0.256614
-0.255648
-0.254631
-0.253541
-0.252347
-0.251006
-0.249466
-0.247662
-0.245535
-0.243034
-0.239954
-0.23584
-0.23244
-0.263181
-0.263177
-0.262735
-0.262002
-0.261101
-0.2601
-0.259045
-0.257959
-0.256847
-0.255702
-0.2545
-0.25321
-0.251786
-0.250168
-0.248276
-0.246013
-0.243259
-0.239666
-0.234369
-0.22895
-0.266055
-0.265846
-0.265193
-0.264242
-0.263119
-0.261903
-0.260646
-0.259374
-0.258099
-0.256813
-0.255501
-0.254141
-0.2527
-0.251144
-0.249422
-0.247472
-0.245182
-0.242091
-0.23698
-0.230997
-0.269237
-0.268789
-0.267893
-0.266691
-0.265314
-0.263853
-0.262366
-0.260886
-0.259428
-0.257993
-0.256578
-0.255179
-0.253804
-0.252479
-0.251275
-0.250349
-0.249987
-0.250654
-0.254031
-0.267192
-0.27277
-0.272046
-0.270869
-0.269383
-0.267721
-0.265986
-0.264244
-0.262536
-0.260881
-0.25929
-0.257773
-0.256347
-0.255051
-0.253962
-0.253218
-0.253062
-0.25389
-0.25629
-0.261539
-0.274445
-0.276702
-0.275658
-0.274164
-0.272359
-0.270383
-0.268349
-0.266333
-0.264381
-0.262521
-0.260771
-0.259154
-0.257705
-0.256486
-0.255598
-0.255206
-0.255557
-0.257007
-0.260009
-0.265205
-0.275307
-0.281089
-0.279674
-0.277823
-0.275669
-0.273351
-0.270998
-0.268694
-0.26649
-0.264419
-0.262509
-0.260789
-0.259305
-0.258128
-0.257366
-0.257171
-0.257745
-0.259345
-0.262243
-0.266719
-0.27403
-0.285989
-0.284148
-0.281899
-0.279365
-0.276683
-0.273995
-0.271392
-0.268929
-0.266643
-0.264562
-0.262722
-0.261168
-0.259968
-0.259213
-0.259022
-0.259533
-0.260894
-0.263225
-0.266619
-0.271369
-0.29146
-0.28913
-0.286442
-0.283502
-0.280437
-0.277401
-0.27449
-0.27176
-0.269245
-0.266974
-0.264975
-0.263288
-0.261966
-0.261074
-0.26069
-0.260891
-0.261739
-0.263256
-0.26546
-0.268122
-0.297557
-0.294671
-0.291505
-0.288134
-0.284669
-0.281273
-0.278044
-0.275031
-0.272263
-0.269759
-0.26754
-0.265629
-0.264061
-0.262875
-0.262112
-0.261803
-0.261959
-0.262554
-0.263577
-0.264602
-0.304326
-0.300816
-0.297133
-0.293309
-0.28943
-0.285662
-0.282097
-0.278773
-0.275707
-0.272906
-0.270374
-0.268123
-0.266168
-0.264528
-0.26322
-0.26225
-0.261607
-0.261254
-0.261173
-0.260941
-0.311802
-0.307601
-0.303366
-0.299072
-0.294764
-0.290605
-0.286674
-0.282993
-0.27956
-0.276366
-0.273406
-0.270676
-0.268183
-0.265936
-0.263942
-0.262202
-0.260701
-0.259415
-0.258323
-0.257095
-0.320004
-0.31505
-0.310233
-0.305453
-0.300699
-0.29612
-0.291776
-0.287666
-0.283768
-0.280061
-0.27653
-0.27317
-0.269989
-0.266997
-0.264206
-0.261621
-0.259239
-0.25705
-0.255034
-0.252971
-0.328933
-0.32317
-0.317749
-0.312468
-0.307244
-0.302201
-0.297374
-0.292733
-0.288243
-0.283874
-0.279617
-0.275475
-0.271466
-0.267615
-0.263944
-0.260472
-0.257206
-0.25415
-0.251282
-0.248473
-0.338567
-0.33195
-0.325908
-0.320111
-0.314381
-0.30881
-0.303399
-0.298097
-0.292859
-0.287665
-0.28252
-0.277451
-0.272498
-0.267702
-0.263101
-0.258725
-0.254589
-0.250705
-0.247044
-0.243541
-0.348855
-0.341354
-0.334681
-0.328348
-0.32206
-0.315869
-0.309744
-0.30362
-0.29746
-0.291269
-0.285085
-0.278966
-0.272978
-0.267184
-0.261633
-0.256359
-0.251382
-0.24671
-0.242307
-0.238147
-0.359717
-0.351316
-0.344007
-0.337109
-0.330191
-0.323258
-0.316258
-0.309128
-0.301864
-0.294512
-0.287156
-0.279893
-0.272816
-0.266001
-0.259504
-0.253358
-0.247577
-0.242164
-0.237067
-0.232287
-0.371036
-0.361737
-0.35379
-0.346285
-0.338638
-0.330812
-0.32275
-0.314421
-0.305873
-0.297217
-0.288588
-0.280122
-0.271932
-0.264103
-0.256687
-0.249709
-0.243172
-0.237067
-0.231324
-0.225967
-0.382656
-0.372481
-0.363893
-0.355722
-0.34722
-0.338322
-0.328996
-0.319275
-0.309285
-0.299211
-0.289245
-0.279553
-0.27026
-0.261447
-0.253156
-0.245396
-0.238157
-0.231413
-0.225075
-0.219191
-0.394383
-0.383369
-0.374136
-0.365218
-0.355709
-0.345542
-0.334749
-0.323458
-0.311898
-0.300333
-0.289004
-0.278097
-0.267736
-0.25799
-0.24888
-0.240399
-0.232517
-0.225191
-0.218311
-0.211957
-0.405982
-0.394183
-0.384293
-0.374527
-0.363838
-0.352196
-0.339743
-0.326737
-0.313521
-0.300435
-0.287755
-0.275674
-0.264304
-0.253689
-0.243828
-0.234689
-0.226228
-0.218381
-0.211016
-0.204253
-0.417178
-0.404664
-0.394097
-0.383363
-0.371307
-0.357991
-0.343713
-0.328888
-0.313975
-0.299379
-0.285397
-0.27221
-0.259904
-0.248497
-0.237959
-0.228235
-0.219261
-0.210956
-0.203166
-0.19606
-0.427663
-0.414516
-0.403242
-0.391403
-0.377792
-0.362624
-0.346397
-0.329699
-0.313098
-0.297044
-0.281837
-0.267631
-0.254481
-0.242367
-0.231231
-0.220996
-0.211581
-0.202884
-0.194732
-0.187352
-0.437102
-0.423412
-0.411391
-0.398303
-0.382963
-0.365799
-0.34755
-0.328976
-0.310741
-0.293319
-0.276989
-0.26187
-0.247974
-0.235247
-0.2236
-0.212933
-0.20315
-0.19413
-0.185682
-0.178099
-0.445138
-0.430999
-0.418187
-0.403708
-0.386487
-0.367233
-0.346943
-0.326547
-0.306775
-0.288104
-0.270775
-0.254861
-0.240328
-0.227086
-0.215018
-0.204002
-0.193929
-0.184659
-0.175983
-0.168269
-0.451402
-0.436916
-0.423262
-0.407263
-0.38805
-0.366666
-0.344377
-0.322259
-0.301086
-0.281309
-0.263121
-0.24654
-0.231487
-0.217835
-0.20544
-0.194164
-0.183882
-0.174435
-0.165603
-0.157833
-0.455529
-0.440793
-0.426251
-0.408627
-0.38736
-0.363867
-0.339676
-0.315984
-0.293575
-0.272858
-0.253963
-0.236852
-0.221401
-0.207449
-0.194827
-0.183382
-0.172975
-0.163429
-0.154515
-0.146764
-0.457161
-0.442276
-0.426806
-0.407485
-0.384158
-0.358638
-0.332696
-0.307615
-0.284161
-0.262683
-0.243243
-0.225747
-0.210025
-0.195886
-0.183142
-0.171622
-0.16118
-0.151615
-0.142698
-0.135043
-0.455964
-0.441025
-0.424603
-0.403559
-0.378223
-0.350817
-0.323321
-0.297067
-0.272778
-0.25073
-0.230915
-0.213182
-0.197322
-0.183116
-0.170355
-0.158862
-0.148474
-0.138975
-0.130136
-0.122655
-0.451635
-0.436737
-0.419359
-0.39661
-0.36938
-0.340281
-0.311466
-0.284279
-0.259379
-0.236961
-0.216944
-0.199127
-0.183264
-0.169112
-0.156448
-0.145082
-0.134843
-0.125498
-0.116822
-0.109593
-0.443912
-0.429148
-0.410837
-0.386454
-0.357498
-0.326945
-0.297077
-0.269213
-0.243934
-0.221348
-0.201307
-0.18356
-0.167833
-0.15386
-0.141406
-0.130274
-0.120283
-0.111182
-0.102755
-0.0958574
-0.432584
-0.418046
-0.398852
-0.372957
-0.342494
-0.310765
-0.280128
-0.251855
-0.226432
-0.203881
-0.183993
-0.166473
-0.151021
-0.137355
-0.125229
-0.114438
-0.104795
-0.0960327
-0.0879466
-0.0814579
-0.417497
-0.403275
-0.38328
-0.356043
-0.324334
-0.291731
-0.260626
-0.232213
-0.206881
-0.184568
-0.165007
-0.14787
-0.132832
-0.1196
-0.10792
-0.0975829
-0.0883915
-0.0800672
-0.0724168
-0.0664177
-0.398554
-0.384741
-0.364057
-0.335689
-0.30303
-0.269874
-0.238605
-0.210321
-0.185309
-0.16343
-0.144368
-0.127765
-0.11328
-0.100609
-0.0894949
-0.0797232
-0.071091
-0.0633088
-0.0561966
-0.0507746
-0.375725
-0.362414
-0.341182
-0.311931
-0.27864
-0.245262
-0.21413
-0.186235
-0.161764
-0.140508
-0.122109
-0.106186
-0.0923866
-0.0804022
-0.069971
-0.0608777
-0.0529139
-0.0457833
-0.0393209
-0.0345708
-0.349044
-0.336328
-0.314716
-0.284857
-0.251267
-0.217996
-0.187295
-0.160038
-0.136317
-0.11586
-0.0982775
-0.0831719
-0.0701847
-0.0590049
-0.0493706
-0.0410663
-0.03388
-0.0275154
-0.021821
-0.01783
-0.31861
-0.306582
-0.284778
-0.254605
-0.221056
-0.188214
-0.158224
-0.131837
-0.109057
-0.0895624
-0.0729361
-0.0587726
-0.0467122
-0.0364462
-0.0277157
-0.0203067
-0.0140079
-0.00852875
-0.00372059
-0.000545217
-0.284583
-0.273338
-0.251545
-0.221365
-0.188189
-0.156087
-0.127067
-0.101765
-0.0801011
-0.0617115
-0.0461637
-0.0330497
-0.0220141
-0.0127555
-0.00502285
0.00139193
0.00669371
0.0111636
0.014971
0.0172843
-0.247183
-0.236812
-0.215246
-0.185366
-0.15289
-0.121816
-0.0940082
-0.0699815
-0.0495868
-0.0324264
-0.0180591
-0.00608081
0.00385389
0.012033
0.0186935
0.0240312
0.0282392
0.0315819
0.0342508
0.0355378
-0.206683
-0.197278
-0.176156
-0.146881
-0.115413
-0.085636
-0.0592558
-0.0366741
-0.0176796
-0.00184994
0.0112579
0.0220384
0.0308207
0.0378721
0.0434071
0.047606
0.0506453
0.0527361
0.0540072
0.0538339
-0.163404
-0.15505
-0.134593
-0.106216
-0.0760446
-0.0478085
-0.0230482
-0.00205765
0.0154286
0.0298505
0.0416482
0.0512018
0.0588178
0.0647317
0.0691245
0.0721552
0.0739609
0.0745823
0.0739244
0.071731
-0.11771
-0.110489
-0.0909082
-0.0637073
-0.0350982
-0.00862253
0.0143486
0.0336224
0.0495123
0.0624727
0.0729409
0.0812845
0.087788
0.0926535
0.0960255
0.0980314
0.098697
0.0976759
0.0945213
0.0902349
-0.0699989
-0.0639826
-0.0454823
-0.0197159
0.00709084
0.031611
0.0526432
0.0700896
0.0843057
0.0957594
0.10489
0.112064
0.117563
0.121589
0.124297
0.125834
0.126103
0.124275
0.119661
0.114996
-0.0206961
-0.015949
0.00128329
0.0253807
0.050172
0.0725655
0.0915274
0.107046
0.119512
0.129403
0.137161
0.143156
0.147685
0.150987
0.1533
0.154897
0.155753
0.154911
0.152108
0.155472
0.0297613
0.0331826
0.0489751
0.0711951
0.0937865
0.113908
0.130687
0.144188
0.15483
0.163094
0.169415
0.174159
0.177621
0.180053
0.181709
0.182849
0.183464
0.183091
0.182604
0.188096
0.0809168
0.0829672
0.0971699
0.117335
0.137573
0.155304
0.169808
0.18122
0.189974
0.196551
0.201378
0.20481
0.207137
0.20861
0.209472
0.209942
0.210005
0.209375
0.208938
0.213344
0.13231
0.132957
0.145444
0.163408
0.181174
0.196425
0.208588
0.217854
0.22467
0.229507
0.232778
0.234823
0.235921
0.236307
0.236209
0.23582
0.235138
0.233944
0.232971
0.235911
0.183482
0.182705
0.193378
0.209031
0.22424
0.236953
0.246734
0.25382
0.258666
0.26173
0.263405
0.264013
0.263815
0.263027
0.261852
0.260454
0.258821
0.256757
0.254938
0.25651
0.233979
0.231772
0.240559
0.253828
0.266432
0.276581
0.283967
0.288866
0.291732
0.293008
0.293067
0.29221
0.290677
0.288665
0.286356
0.283887
0.281229
0.278209
0.27547
0.275729
0.283358
0.279729
0.286589
0.297436
0.307423
0.315016
0.320021
0.32275
0.323652
0.32315
0.321597
0.319271
0.316392
0.31314
0.309672
0.306104
0.302396
0.298403
0.294739
0.293756
0.33119
0.326162
0.331083
0.339507
0.346901
0.351977
0.354646
0.355248
0.354224
0.351977
0.348838
0.345065
0.340857
0.336376
0.33176
0.327105
0.322366
0.317424
0.312858
0.310695
0.377064
0.370674
0.373674
0.379712
0.384571
0.387199
0.387604
0.386147
0.383258
0.379321
0.374645
0.369467
0.363969
0.358293
0.352563
0.346856
0.341126
0.335278
0.329849
0.326565
0.420591
0.412891
0.414016
0.417736
0.420152
0.420432
0.418671
0.415245
0.410574
0.405022
0.398877
0.392355
0.385623
0.378806
0.372012
0.365304
0.358639
0.351942
0.345694
0.341352
0.461402
0.452459
0.451784
0.453289
0.453383
0.451442
0.447636
0.442353
0.436003
0.428929
0.421399
0.413612
0.405717
0.397826
0.390033
0.382388
0.374852
0.367365
0.360351
0.355016
0.499158
0.489051
0.486676
0.486098
0.484022
0.48001
0.474302
0.467294
0.459384
0.450897
0.442082
0.43312
0.424147
0.415263
0.406544
0.398035
0.389699
0.38149
0.373765
0.367509
0.533544
0.522367
0.518416
0.515916
0.511845
0.505937
0.498489
0.489905
0.480571
0.470794
0.460805
0.450772
0.440816
0.431025
0.421465
0.412172
0.403113
0.394251
0.385877
0.378778
0.564276
0.552135
0.546755
0.542517
0.53665
0.529039
0.520031
0.510036
0.499426
0.488494
0.477455
0.466464
0.45563
0.445029
0.434718
0.424725
0.415024
0.405583
0.396628
0.38877
0.591103
0.578113
0.57147
0.565701
0.558257
0.549154
0.538782
0.527552
0.515827
0.503886
0.49193
0.480102
0.468501
0.457194
0.446229
0.435627
0.425369
0.415424
0.405959
0.397436
0.613804
0.600092
0.59237
0.585295
0.576511
0.566142
0.554612
0.542337
0.529668
0.516872
0.504139
0.491603
0.479353
0.467449
0.455931
0.444815
0.434087
0.423719
0.413821
0.404731
0.632196
0.617895
0.609291
0.601153
0.591278
0.579881
0.567413
0.55429
0.540855
0.527367
0.514005
0.500895
0.48812
0.475732
0.463766
0.452235
0.441128
0.430417
0.420167
0.410616
0.646127
0.631379
0.622104
0.613156
0.602453
0.590276
0.577097
0.56333
0.549316
0.535302
0.521464
0.507919
0.494746
0.481993
0.469687
0.457842
0.446448
0.435479
0.424961
0.41506
0.655486
0.640436
0.630708
0.621214
0.609954
0.597253
0.583595
0.569396
0.554992
0.540625
0.526467
0.512631
0.49919
0.486191
0.473658
0.461602
0.450016
0.438873
0.428174
0.418037
0.660197
0.644995
0.635037
0.625268
0.613727
0.600761
0.586862
0.572446
0.557845
0.543302
0.528982
0.514999
0.501424
0.488301
0.475654
0.463492
0.451809
0.440579
0.429789
0.419533
0.66022
0.645017
0.635058
0.625288
0.613745
0.600777
0.586877
0.57246
0.557858
0.543313
0.528993
0.515009
0.501433
0.488309
0.475661
0.463499
0.451816
0.440585
0.429795
0.419538
0.655556
0.640504
0.630771
0.621272
0.610007
0.597301
0.583638
0.569436
0.555028
0.540659
0.526498
0.512659
0.499217
0.486216
0.473681
0.461624
0.450036
0.438892
0.428193
0.418054
0.646243
0.63149
0.622208
0.613252
0.602541
0.590356
0.577169
0.563396
0.549376
0.535357
0.521515
0.507967
0.49479
0.482033
0.469726
0.457878
0.446482
0.435511
0.424991
0.415088
0.632356
0.618049
0.609436
0.601286
0.5914
0.579991
0.567514
0.554381
0.540939
0.527444
0.514076
0.500961
0.488181
0.475789
0.463819
0.452285
0.441175
0.430462
0.420209
0.410656
0.614007
0.600287
0.592553
0.585464
0.576664
0.566281
0.554739
0.542453
0.529774
0.516969
0.504229
0.491686
0.47943
0.467521
0.455998
0.444878
0.434146
0.423775
0.413874
0.404782
0.591346
0.578347
0.57169
0.565903
0.558442
0.549322
0.538934
0.527691
0.515955
0.504003
0.492038
0.480202
0.468594
0.45728
0.446309
0.435703
0.42544
0.415492
0.406024
0.397498
0.564557
0.552405
0.547008
0.54275
0.536863
0.529232
0.520207
0.510197
0.499573
0.488629
0.47758
0.466579
0.455737
0.445129
0.434811
0.424813
0.415107
0.405662
0.396702
0.388841
0.533859
0.52267
0.518701
0.516178
0.512084
0.506154
0.498687
0.490086
0.480736
0.470946
0.460945
0.450902
0.440936
0.431137
0.42157
0.41227
0.403206
0.394339
0.385961
0.378858
0.499504
0.489383
0.486988
0.486387
0.484285
0.48025
0.47452
0.467493
0.459566
0.451064
0.442236
0.433263
0.424279
0.415386
0.406659
0.398143
0.389802
0.381587
0.373858
0.367597
0.461775
0.452817
0.45212
0.4536
0.453667
0.4517
0.447871
0.442567
0.436199
0.429109
0.421565
0.413765
0.405859
0.397959
0.390157
0.382505
0.374963
0.367471
0.360451
0.355112
0.420985
0.413269
0.414373
0.418066
0.420453
0.420706
0.418921
0.415472
0.410782
0.405214
0.399053
0.392518
0.385774
0.378948
0.372145
0.365429
0.358757
0.352054
0.345801
0.341455
0.377476
0.371069
0.374046
0.380056
0.384886
0.387486
0.387866
0.386385
0.383475
0.379521
0.374829
0.369637
0.364127
0.358441
0.352701
0.346986
0.341249
0.335396
0.329962
0.326674
0.331613
0.326567
0.331466
0.339862
0.347226
0.352272
0.354916
0.355493
0.354448
0.352184
0.349028
0.345241
0.341021
0.336529
0.331904
0.32724
0.322494
0.317546
0.312976
0.310808
0.283786
0.28014
0.286977
0.297796
0.307753
0.315317
0.320295
0.323
0.32388
0.32336
0.32179
0.31945
0.316559
0.313295
0.309818
0.306242
0.302526
0.298527
0.294858
0.293872
0.234407
0.232182
0.240947
0.254189
0.266763
0.276883
0.284241
0.289116
0.291962
0.293219
0.293262
0.29239
0.290844
0.288822
0.286503
0.284026
0.28136
0.278335
0.275591
0.275847
0.183902
0.183108
0.19376
0.209387
0.224567
0.237252
0.247006
0.254069
0.258894
0.261939
0.263598
0.264192
0.263981
0.263182
0.261998
0.260593
0.258952
0.256882
0.255059
0.256628
0.132717
0.133346
0.145814
0.163754
0.181492
0.196716
0.208853
0.218095
0.224891
0.229711
0.232966
0.234998
0.236083
0.23646
0.236352
0.235956
0.235267
0.234067
0.23309
0.236028
0.0813022
0.0833357
0.0975213
0.117664
0.137877
0.155581
0.170062
0.181451
0.190187
0.196747
0.201558
0.204977
0.207294
0.208756
0.20961
0.210073
0.21013
0.209494
0.209053
0.213457
0.0301186
0.0335235
0.0493012
0.071502
0.0940704
0.114168
0.130924
0.144406
0.15503
0.163277
0.169585
0.174317
0.177769
0.180192
0.181841
0.182975
0.183583
0.183205
0.182715
0.188205
-0.0203742
-0.0156428
0.00157734
0.025659
0.0504306
0.0728033
0.091745
0.107245
0.119695
0.129572
0.137317
0.143302
0.147822
0.151116
0.153423
0.155014
0.155865
0.155018
0.15221
0.155572
-0.0697197
-0.0637183
-0.0452271
-0.0194724
0.00731852
0.0318211
0.0528361
0.0702666
0.0844685
0.0959101
0.10503
0.112195
0.117687
0.121706
0.124409
0.125941
0.126206
0.124374
0.119757
0.11509
-0.117481
-0.110273
-0.0906987
-0.063505
-0.0349072
-0.00844515
0.0145121
0.0337729
0.0496513
0.0626017
0.0730615
0.0813981
0.0878959
0.0927568
0.0961251
0.0981282
0.0987918
0.0977694
0.0946149
0.0903292
-0.163232
-0.154891
-0.134436
-0.106061
-0.0758961
-0.047669
-0.0229186
-0.00193767
0.0155401
0.0299547
0.0417465
0.0512954
0.0589078
0.0648191
0.0692103
0.0722403
0.0740462
0.0746686
0.0740128
0.0718221
-0.206574
-0.197181
-0.176058
-0.14678
-0.115313
-0.0855395
-0.0591647
-0.0365888
-0.0175993
-0.00177384
0.0113309
0.0221092
0.0308903
0.0379414
0.043477
0.0476771
0.0507186
0.0528122
0.0540867
0.0539169
-0.247145
-0.236785
-0.215213
-0.185324
-0.152843
-0.121768
-0.0939602
-0.0699348
-0.0495413
-0.0323816
-0.0180144
-0.00603537
0.00390077
0.012082
0.0187453
0.0240864
0.0282984
0.0316459
0.0343197
0.0356107
-0.284621
-0.273386
-0.251583
-0.221389
-0.188201
-0.156091
-0.127067
-0.101761
-0.0800938
-0.0617012
-0.04615
-0.0330321
-0.0219922
-0.0127288
-0.00499089
0.00142957
0.0067375
0.0112141
0.0150282
0.0173469
-0.31873
-0.30671
-0.284893
-0.2547
-0.221132
-0.188276
-0.158274
-0.131879
-0.109092
-0.0895896
-0.072956
-0.0587854
-0.0467175
-0.0364438
-0.0277053
-0.0202882
-0.0139809
-0.00849291
-0.00367594
-0.000493358
-0.34925
-0.336541
-0.314913
-0.285027
-0.251412
-0.21812
-0.187402
-0.16013
-0.136396
-0.115928
-0.0983337
-0.0832173
-0.0702192
-0.0590286
-0.0493835
-0.0410684
-0.0338712
-0.0274954
-0.0217901
-0.0177899
-0.37602
-0.362716
-0.341465
-0.312182
-0.278858
-0.245452
-0.214296
-0.18638
-0.161891
-0.140619
-0.122204
-0.106266
-0.0924523
-0.0804538
-0.0700087
-0.0609018
-0.0529245
-0.0457803
-0.0393047
-0.0345433
-0.398942
-0.385136
-0.364429
-0.336024
-0.303325
-0.270134
-0.238833
-0.210522
-0.185486
-0.163586
-0.144504
-0.127882
-0.113378
-0.10069
-0.089559
-0.0797706
-0.0711222
-0.0633237
-0.0561959
-0.0507604
-0.417979
-0.403764
-0.383744
-0.356464
-0.324709
-0.292063
-0.26092
-0.232474
-0.207112
-0.184772
-0.165186
-0.148026
-0.132966
-0.119712
-0.108012
-0.0976548
-0.0884442
-0.0801009
-0.0724323
-0.0664172
-0.433163
-0.418629
-0.399408
-0.373468
-0.342952
-0.311173
-0.280491
-0.252177
-0.226719
-0.204136
-0.184217
-0.16667
-0.151191
-0.137499
-0.125349
-0.114536
-0.10487
-0.096086
-0.0879788
-0.0814715
-0.444585
-0.429825
-0.411486
-0.387055
-0.35804
-0.327431
-0.297511
-0.2696
-0.244279
-0.221654
-0.201578
-0.183799
-0.16804
-0.154039
-0.141557
-0.130398
-0.120381
-0.111255
-0.102805
-0.0958853
-0.452401
-0.437506
-0.420101
-0.397301
-0.370009
-0.340847
-0.311973
-0.284732
-0.259784
-0.237321
-0.217264
-0.199409
-0.183511
-0.169325
-0.15663
-0.145233
-0.134966
-0.125592
-0.116889
-0.109635
-0.456821
-0.441884
-0.425435
-0.404338
-0.378938
-0.351463
-0.323902
-0.297587
-0.273244
-0.251147
-0.231286
-0.21351
-0.19761
-0.183365
-0.170569
-0.159041
-0.148621
-0.13909
-0.130221
-0.122712
-0.458105
-0.44322
-0.427724
-0.408352
-0.384957
-0.359365
-0.333352
-0.308205
-0.28469
-0.263156
-0.243665
-0.226121
-0.210354
-0.196173
-0.183388
-0.171831
-0.161352
-0.151751
-0.142801
-0.135114
-0.456554
-0.441818
-0.427251
-0.409576
-0.388242
-0.364674
-0.340408
-0.316644
-0.294168
-0.273389
-0.254437
-0.237274
-0.221773
-0.207774
-0.195107
-0.18362
-0.173173
-0.163587
-0.154636
-0.14685
-0.452503
-0.438015
-0.424338
-0.408291
-0.389012
-0.367551
-0.345183
-0.322989
-0.301744
-0.2819
-0.26365
-0.247011
-0.231903
-0.218199
-0.205756
-0.194433
-0.184106
-0.174616
-0.165742
-0.157933
-0.446308
-0.432166
-0.419333
-0.404809
-0.387524
-0.368194
-0.347823
-0.327347
-0.307499
-0.288755
-0.271358
-0.255381
-0.240789
-0.227491
-0.215368
-0.204302
-0.19418
-0.184862
-0.17614
-0.168383
-0.438334
-0.424639
-0.412599
-0.39947
-0.384069
-0.366832
-0.348501
-0.329845
-0.31153
-0.294031
-0.277629
-0.262442
-0.248482
-0.235693
-0.223987
-0.213265
-0.203428
-0.194357
-0.185858
-0.178228
-0.42895
-0.415796
-0.404504
-0.392629
-0.378962
-0.363723
-0.347417
-0.330636
-0.313951
-0.297818
-0.282534
-0.268256
-0.255036
-0.242856
-0.231657
-0.221361
-0.211887
-0.203135
-0.194928
-0.187496
-0.418511
-0.405989
-0.395406
-0.38464
-0.372534
-0.359152
-0.344797
-0.32989
-0.314893
-0.300215
-0.286152
-0.272888
-0.260509
-0.249031
-0.238424
-0.228634
-0.219597
-0.211231
-0.203382
-0.196219
-0.407355
-0.395545
-0.385641
-0.375848
-0.365114
-0.353412
-0.340887
-0.327802
-0.314502
-0.301332
-0.288569
-0.276408
-0.264959
-0.254268
-0.244334
-0.235125
-0.226596
-0.218683
-0.211253
-0.204428
-0.395788
-0.384762
-0.375515
-0.366574
-0.357027
-0.346806
-0.335947
-0.324581
-0.31294
-0.301291
-0.289878
-0.278887
-0.268444
-0.258618
-0.249431
-0.240874
-0.232918
-0.225521
-0.21857
-0.212148
-0.384086
-0.373897
-0.365297
-0.357105
-0.348571
-0.339627
-0.330243
-0.320452
-0.310385
-0.300229
-0.290178
-0.280401
-0.271023
-0.262127
-0.253753
-0.245913
-0.238595
-0.231773
-0.225359
-0.219402
-0.372484
-0.363171
-0.355212
-0.34769
-0.340016
-0.332151
-0.324038
-0.315646
-0.307028
-0.298293
-0.289581
-0.28103
-0.272754
-0.264837
-0.257335
-0.250271
-0.24365
-0.237461
-0.231636
-0.226199
-0.361179
-0.352762
-0.345441
-0.338529
-0.331589
-0.324624
-0.31758
-0.310397
-0.303068
-0.295644
-0.288209
-0.280862
-0.273697
-0.266793
-0.260206
-0.253969
-0.248098
-0.242595
-0.23741
-0.232543
-0.350326
-0.342807
-0.336122
-0.329777
-0.323472
-0.317255
-0.311095
-0.304925
-0.29871
-0.292454
-0.286195
-0.279996
-0.273922
-0.268037
-0.262393
-0.257024
-0.251951
-0.247183
-0.242685
-0.238431
-0.340042
-0.333407
-0.327353
-0.321545
-0.315801
-0.31021
-0.304772
-0.299434
-0.294149
-0.288899
-0.283687
-0.278542
-0.273505
-0.26862
-0.263924
-0.259449
-0.255213
-0.251226
-0.247462
-0.243858
-0.33041
-0.324628
-0.319195
-0.313904
-0.308668
-0.303611
-0.298763
-0.294095
-0.289568
-0.285153
-0.280837
-0.276627
-0.272539
-0.2686
-0.264835
-0.261261
-0.257889
-0.254724
-0.251745
-0.248827
-0.32148
-0.316506
-0.311677
-0.306888
-0.302125
-0.297536
-0.293178
-0.289049
-0.285124
-0.28138
-0.277801
-0.274381
-0.271128
-0.268053
-0.265167
-0.26248
-0.259988
-0.257684
-0.255548
-0.253367
-0.313276
-0.309055
-0.304807
-0.300504
-0.296189
-0.292024
-0.288085
-0.284393
-0.280942
-0.277722
-0.274724
-0.271944
-0.269387
-0.267062
-0.264978
-0.263135
-0.261522
-0.260115
-0.258893
-0.257538
-0.305797
-0.302266
-0.298569
-0.294737
-0.290853
-0.287082
-0.283515
-0.280187
-0.277113
-0.274295
-0.271736
-0.269445
-0.267436
-0.265726
-0.264333
-0.263262
-0.262504
-0.262024
-0.261804
-0.261432
-0.299023
-0.296115
-0.292935
-0.289557
-0.286089
-0.282694
-0.279468
-0.276458
-0.273689
-0.271179
-0.268942
-0.267002
-0.26539
-0.264143
-0.263302
-0.262896
-0.262937
-0.2634
-0.264275
-0.265144
-0.292921
-0.290567
-0.287866
-0.28492
-0.281854
-0.278823
-0.27592
-0.273198
-0.270691
-0.268421
-0.266416
-0.26471
-0.263353
-0.262411
-0.261956
-0.262066
-0.2628
-0.264182
-0.26623
-0.268717
-0.287441
-0.285575
-0.283314
-0.280776
-0.278097
-0.275417
-0.272827
-0.270379
-0.268107
-0.266036
-0.264197
-0.262634
-0.26141
-0.260614
-0.260361
-0.260789
-0.26204
-0.264235
-0.267466
-0.27202
-0.282529
-0.28109
-0.279227
-0.277071
-0.274759
-0.272419
-0.270133
-0.26795
-0.2659
-0.264006
-0.262296
-0.260811
-0.25962
-0.258826
-0.258579
-0.259078
-0.260574
-0.263339
-0.267647
-0.274741
-0.278125
-0.277056
-0.275552
-0.273749
-0.271782
-0.269766
-0.267774
-0.265849
-0.264015
-0.262289
-0.260689
-0.259246
-0.25802
-0.25711
-0.256675
-0.25696
-0.258315
-0.261187
-0.266215
-0.276083
-0.274169
-0.27342
-0.272236
-0.270754
-0.269107
-0.267395
-0.265683
-0.264006
-0.262384
-0.260823
-0.259329
-0.257917
-0.256622
-0.255517
-0.254738
-0.254524
-0.255265
-0.257541
-0.262616
-0.275266
-0.270603
-0.270132
-0.269231
-0.268038
-0.266681
-0.265248
-0.263795
-0.262353
-0.260933
-0.259534
-0.258148
-0.256769
-0.2554
-0.254067
-0.252837
-0.251862
-0.251424
-0.251981
-0.255187
-0.268086
-0.267377
-0.267148
-0.266495
-0.265557
-0.264458
-0.263275
-0.262057
-0.260828
-0.259596
-0.258351
-0.257074
-0.255739
-0.254313
-0.252756
-0.251017
-0.249032
-0.246691
-0.243529
-0.2383
-0.232223
-0.264448
-0.26443
-0.263991
-0.263275
-0.262402
-0.261439
-0.260427
-0.259389
-0.258325
-0.257225
-0.256064
-0.254804
-0.2534
-0.25179
-0.24989
-0.247602
-0.244813
-0.241168
-0.235774
-0.230306
-0.261781
-0.261946
-0.261693
-0.261169
-0.26049
-0.259716
-0.258882
-0.258008
-0.257093
-0.256126
-0.255081
-0.253923
-0.252609
-0.251083
-0.24928
-0.24714
-0.244617
-0.241501
-0.237308
-0.233896
-0.259353
-0.259675
-0.25958
-0.259219
-0.258706
-0.258092
-0.25741
-0.256677
-0.255891
-0.255043
-0.254109
-0.25306
-0.25186
-0.250465
-0.248832
-0.24693
-0.244746
-0.242126
-0.238806
-0.236654
-0.257142
-0.257598
-0.257637
-0.257414
-0.257042
-0.256565
-0.256013
-0.2554
-0.254728
-0.253986
-0.253158
-0.25222
-0.251145
-0.249903
-0.248468
-0.246836
-0.245015
-0.242898
-0.240344
-0.239045
-0.255134
-0.255702
-0.255854
-0.255748
-0.255495
-0.255136
-0.254696
-0.25419
-0.25362
-0.252979
-0.252255
-0.251431
-0.25049
-0.249414
-0.248194
-0.246841
-0.245382
-0.243742
-0.241841
-0.24114
-0.253319
-0.253978
-0.254224
-0.254216
-0.254066
-0.253809
-0.253468
-0.253059
-0.252584
-0.252041
-0.251422
-0.250716
-0.249914
-0.24901
-0.248005
-0.246922
-0.245793
-0.244561
-0.243172
-0.242876
-0.251685
-0.252417
-0.25274
-0.252815
-0.252754
-0.252587
-0.252336
-0.252016
-0.251633
-0.251187
-0.250673
-0.250087
-0.249427
-0.248693
-0.247893
-0.247054
-0.246211
-0.245311
-0.244307
-0.244278
-0.250224
-0.251011
-0.251397
-0.251543
-0.251559
-0.251472
-0.251303
-0.251068
-0.250773
-0.250421
-0.250012
-0.249545
-0.249022
-0.248448
-0.247835
-0.247211
-0.246604
-0.245967
-0.245247
-0.245394
-0.248925
-0.249753
-0.25019
-0.250396
-0.250479
-0.250463
-0.25037
-0.250213
-0.250002
-0.249741
-0.249432
-0.249078
-0.248684
-0.248256
-0.247807
-0.247363
-0.246948
-0.246512
-0.246002
-0.246267
-0.247778
-0.248635
-0.249113
-0.24937
-0.24951
-0.249559
-0.249533
-0.249449
-0.249316
-0.24914
-0.248925
-0.248675
-0.248395
-0.248095
-0.247785
-0.247489
-0.247226
-0.246944
-0.246589
-0.246933
-0.246773
-0.24765
-0.24816
-0.248459
-0.24865
-0.248754