/*--------------------------------*- C++ -*----------------------------------*\
  =========                 |
  \\      /  F ield         | OpenFOAM: The Open Source CFD Toolbox
   \\    /   O peration     | Website:  https://openfoam.org
    \\  /    A nd           | Version:  6.0
     \\/     M anipulation  |
\*---------------------------------------------------------------------------*/
FoamFile
{
    version     2.0;
    format      ascii;
    class       surfaceScalarField;
    location    "71";
    object      phi;
}
// * * * * * * * * * * * * * * * * * * * * * * * * * * * * * * * * * * * * * //

dimensions      [0 3 -1 0 0 0 0];

internalField   nonuniform List<scalar> 
24700
(
-1.83872e-06
0.000101765
-9.99262e-05
-7.328e-06
0.000243405
-0.000237916
-1.62319e-05
0.000337073
-0.000328169
-2.81176e-05
0.000393418
-0.000381532
-4.24396e-05
0.000421432
-0.00040711
-5.86152e-05
0.000428545
-0.000412369
-7.60695e-05
0.000420662
-0.000403208
-9.42563e-05
0.000402294
-0.000384108
-0.000112663
0.000376744
-0.000358338
-0.000130809
0.000346324
-0.000328178
-0.00014824
0.000312564
-0.000295133
-0.000164529
0.000276412
-0.000260123
-0.000179273
0.000238398
-0.000223654
-0.000192103
0.000198774
-0.000185945
-0.000202688
0.000157623
-0.000147037
-0.000210758
0.000114942
-0.000106872
-0.000216113
7.07054e-05
-6.53499e-05
-0.000218651
2.49128e-05
-2.23747e-05
-0.000218386
-2.23795e-05
2.21139e-05
-0.000215469
-7.10332e-05
6.8116e-05
-0.000210208
-0.000120813
0.000115552
-0.000203075
-0.000171382
0.000164249
-0.000194709
-0.0002223
0.000213933
-0.000185908
-0.000273062
0.000264261
-0.000323129
0.000314818
-0.000177596
-1.23471e-06
0.000103
-5.38539e-06
0.000247556
-1.25476e-05
0.000344235
-2.25122e-05
0.000403382
-3.48728e-05
0.000433792
-4.91237e-05
0.000442795
-6.47247e-05
0.000436263
-8.11375e-05
0.000418707
-9.78435e-05
0.00039345
-0.00011435
0.000362831
-0.000130195
0.000328408
-0.000144942
0.000291159
-0.000158191
0.000251647
-0.000169578
0.000210161
-0.000178787
0.000166832
-0.000185562
0.000121716
-0.000189721
7.48641e-05
-0.000191174
2.63663e-05
-0.000189945
-2.36094e-05
-0.000186182
-7.47954e-05
-0.000180183
-0.000126812
-0.000172395
-0.00017917
-0.000163417
-0.000231278
-0.000154001
-0.000282477
-0.000332106
-0.000145025
-5.69639e-07
0.000103569
-3.21965e-06
0.000250206
-8.39207e-06
0.000349407
-1.61148e-05
0.000411105
-2.61335e-05
0.000443811
-3.80306e-05
0.000454693
-5.13095e-05
0.000449542
-6.5448e-05
0.000432846
-7.99287e-05
0.000407931
-9.42557e-05
0.000377158
-0.000107962
0.000342115
-0.000120617
0.000303814
-0.000131825
0.000262855
-0.000141236
0.000219573
-0.000148551
0.000174147
-0.00015353
0.000126695
-0.000156004
7.73377e-05
-0.000155886
2.6249e-05
-0.000153191
-2.63048e-05
-0.000148043
-7.99431e-05
-0.000140696
-0.00013416
-0.000131539
-0.000188327
-0.000121105
-0.000241712
-0.000110078
-0.000293504
-0.000342898
-9.92862e-05
1.43703e-07
0.000103426
-8.66717e-07
0.000251216
-3.82523e-06
0.000352366
-9.0057e-06
0.000416286
-1.63165e-05
0.000451122
-2.54392e-05
0.000463815
-3.59313e-05
0.000460034
-4.72957e-05
0.00044421
-5.90251e-05
0.00041966
-7.06273e-05
0.00038876
-8.16402e-05
0.000353128
-9.16401e-05
0.000313814
-0.000100247
0.000271462
-0.000107128
0.000226454
-0.000112002
0.000179021
-0.000114645
0.000129338
-0.000114894
7.75872e-05
-0.000112659
2.40139e-05
-0.000107928
-3.10365e-05
-0.000100779
-8.70916e-05
-9.13985e-05
-0.00014354
-8.00897e-05
-0.000199636
-6.72919e-05
-0.00025451
-5.36078e-05
-0.000307188
-0.000356686
-3.98203e-05
8.8799e-07
0.000102538
1.62191e-06
0.000250482
1.0619e-06
0.000352926
-1.31401e-06
0.000418662
-5.58485e-06
0.000455392
-1.15414e-05
0.000469772
-1.8806e-05
0.000467299
-2.69169e-05
0.000452321
-3.53855e-05
0.000428129
-4.37313e-05
0.000397106
-5.15035e-05
0.0003609
-5.82924e-05
0.000320603
-6.37357e-05
0.000276905
-6.75209e-05
0.000230239
-6.93865e-05
0.000180887
-6.91223e-05
0.000129074
-6.65702e-05
7.50351e-05
-6.16256e-05
1.90692e-05
-5.42417e-05
-3.84203e-05
-4.44379e-05
-9.68954e-05
-3.23135e-05
-0.000155665
-1.80681e-05
-0.000213881
-2.03009e-06
-0.000270548
1.52906e-05
-0.000324509
-0.000374542
3.31472e-05
1.64198e-06
0.000100896
4.18115e-06
0.000247943
6.15046e-06
0.000350957
6.7855e-06
0.000418027
5.83317e-06
0.000456345
3.38488e-06
0.00047222
-2.56594e-07
0.00047094
-4.67537e-06
0.00045674
-9.41073e-06
0.000432864
-1.40018e-05
0.000401697
-1.8015e-05
0.000364913
-2.1059e-05
0.000323647
-2.27921e-05
0.000278638
-2.29235e-05
0.00023037
-2.12116e-05
0.000179175
-1.74596e-05
0.000125322
-1.15113e-05
6.90868e-05
-3.24662e-06
1.08046e-05
7.41949e-06
-4.90864e-05
2.05328e-05
-0.000110009
3.60858e-05
-0.000171218
5.39921e-05
-0.000231788
7.40428e-05
-0.000290599
9.58267e-05
-0.000346292
-0.000397341
0.000118625
2.382e-06
9.85136e-05
6.73586e-06
0.000243589
1.12991e-05
0.000346393
1.50795e-05
0.000414246
1.76517e-05
0.000453773
1.89837e-05
0.000470888
1.92942e-05
0.00047063
1.89432e-05
0.000457091
1.83541e-05
0.000433453
1.79606e-05
0.00040209
1.81738e-05
0.0003647
1.93626e-05
0.000322458
2.18466e-05
0.000276154
2.58943e-05
0.000226323
3.1728e-05
0.000173341
3.95308e-05
0.000117519
4.94567e-05
5.91609e-05
6.16394e-05
-1.37807e-06
7.61988e-05
-6.36459e-05
9.32414e-05
-0.000127051
0.000112848
-0.000190824
0.000135043
-0.000253982
0.000159736
-0.000315293
0.00018662
-0.000373176
-0.000425717
0.000214996
3.08294e-06
9.54306e-05
9.20411e-06
0.000237468
1.63502e-05
0.000339247
2.33246e-05
0.000407272
2.95379e-05
0.000447559
3.48329e-05
0.000465593
3.93366e-05
0.000466126
4.33442e-05
0.000453083
4.72326e-05
0.000429565
5.14011e-05
0.000397922
5.62325e-05
0.000359869
6.2071e-05
0.000316619
6.92126e-05
0.000269013
7.79038e-05
0.000217631
8.8348e-05
0.000162897
0.000100715
0.000105152
0.000115155
4.47211e-05
0.00013181
-1.80329e-05
0.000150827
-8.26626e-05
0.000172361
-0.000148586
0.000196569
-0.000215032
0.000223575
-0.000280988
0.000253402
-0.00034512
0.000285842
-0.000405615
-0.000460091
0.000320215
3.7198e-06
9.17108e-05
1.1502e-05
0.000229686
2.11382e-05
0.000329611
3.12598e-05
0.00039715
4.1128e-05
0.000437691
5.04627e-05
0.000456258
5.92951e-05
0.000457294
6.78473e-05
0.000444531
7.64419e-05
0.00042097
8.54361e-05
0.000388927
9.51799e-05
0.000350125
0.00010599
0.000305809
0.000118137
0.000256865
0.000131848
0.00020392
0.000147308
0.000147437
0.000164675
8.77853e-05
0.000184091
2.53047e-05
0.000205704
-3.96453e-05
0.000229676
-0.000106634
0.000256197
-0.000175107
0.000285481
-0.000244317
0.000317733
-0.00031324
0.000353076
-0.000380463
0.000391396
-0.000443935
-0.000500725
0.00043203
4.26927e-06
8.74416e-05
1.35486e-05
0.000220407
2.54994e-05
0.00031766
3.86212e-05
0.000384028
5.20467e-05
0.000424266
6.53808e-05
0.000442924
7.85574e-05
0.000444117
9.17203e-05
0.000431368
0.00010513
0.000407561
0.000119096
0.000374961
0.00013393
0.000335291
0.000149919
0.000289821
0.00016731
0.000239474
0.000186309
0.000184921
0.000207088
0.000126659
0.000229791
6.5082e-05
0.000254557
5.39031e-07
0.00028153
-6.66187e-05
0.000310882
-0.000135987
0.000342822
-0.000207048
0.0003776
-0.000279094
0.000415478
-0.000351118
0.00045666
-0.000421645
0.000501119
-0.000488393
-0.000547808
0.000548202
4.71119e-06
8.27304e-05
1.52712e-05
0.000209847
2.92824e-05
0.000303649
4.51585e-05
0.000368152
6.19309e-05
0.000407493
7.91019e-05
0.000425753
9.65114e-05
0.000426708
0.000114222
0.000413658
0.000132427
0.000389355
0.000151384
0.000356005
0.000171361
0.000315313
0.000192615
0.000268567
0.000215368
0.000216721
0.000239812
0.000160478
0.000266103
0.000100367
0.000294381
3.68039e-05
0.000324779
-2.98588e-05
0.00035744
-9.92797e-05
0.000392536
-0.000171082
0.000430281
-0.000244793
0.000470941
-0.000319754
0.000514812
-0.000394988
0.000562153
-0.000468986
0.000613006
-0.000539246
-0.000601525
0.000666723
5.0298e-06
7.77006e-05
1.661e-05
0.000198267
3.23581e-05
0.000287901
5.06521e-05
0.000349858
7.0454e-05
0.000387691
9.11813e-05
0.000405026
0.000112587
0.000405302
0.000134654
0.000391591
0.000157507
0.000366502
0.000181347
0.000332166
0.000206399
0.000290261
0.000232887
0.000242079
0.000261013
0.000188594
0.000290953
0.000130537
0.000322861
6.84601e-05
0.000356872
2.79299e-06
0.000393119
-6.61058e-05
0.000431745
-0.000137906
0.000472917
-0.000212255
0.000516846
-0.000288722
0.000563788
-0.000366697
0.000614047
-0.000445246
0.000667907
-0.000522846
0.000725456
-0.000596795
-0.000662109
0.000786039
5.21478e-06
7.24858e-05
1.75225e-05
0.000185959
3.46292e-05
0.000270794
5.49295e-05
0.000329558
7.73514e-05
0.000365269
0.00010125
0.000381128
0.000126303
0.000380249
0.00015242
0.000365474
0.000179658
0.000339264
0.000208163
0.000303661
0.000238117
0.000260307
0.000269715
0.000210481
0.000303141
0.000155168
0.000338564
9.51142e-05
0.000376137
3.08872e-05
0.000416001
-3.70711e-05
0.000458294
-0.000108399
0.00050316
-0.000182771
0.000550759
-0.000259854
0.000601282
-0.000339245
0.000654961
-0.000420376
0.00071207
-0.000502355
0.00077288
-0.000583656
0.000837495
-0.00066141
-0.000729856
0.000905242
5.26192e-06
6.72239e-05
1.79864e-05
0.000173234
3.60385e-05
0.000252742
5.78807e-05
0.000307716
8.24446e-05
0.000340706
0.000109048
0.000354524
0.000137313
0.000351984
0.000167083
0.000335704
0.000198356
0.00030799
0.000231227
0.000270791
0.000265842
0.000225692
0.000302371
0.000173953
0.000340987
0.000116552
0.000381859
5.42416e-05
0.000425149
-1.24025e-05
0.000471009
-8.29306e-05
0.000519585
-0.000156975
0.000571023
-0.000234209
0.00062547
-0.000314301
0.000683082
-0.000396857
0.000744038
-0.000481332
0.000808545
-0.000566862
0.000876815
-0.000651927
0.000948924
-0.00073352
-0.000805098
0.00102417
5.17366e-06
6.20502e-05
1.80028e-05
0.000160405
3.65754e-05
0.000234169
5.94705e-05
0.000284821
8.56614e-05
0.000314515
0.000114458
0.000325728
0.000145445
0.000320997
0.00017842
0.000302729
0.000213332
0.000273078
0.000250237
0.000233886
0.000289252
0.000186676
0.000330533
0.000132672
0.000374252
7.28335e-05
0.000420586
7.90737e-06
0.000469711
-6.1528e-05
0.000521796
-0.000135015
0.000576996
-0.000212175
0.000635451
-0.000292664
0.000697279
-0.00037613
0.000762583
-0.000462161
0.000831452
-0.000550201
0.00090398
-0.00063939
0.000980264
-0.00072821
0.0010603
-0.000813556
-0.000888139
0.00114334
4.95929e-06
5.70909e-05
1.75968e-05
0.000147768
3.62795e-05
0.000215487
5.97472e-05
0.000261353
8.70514e-05
0.000287211
0.000117525
0.000295254
0.000150741
0.000287781
0.000186471
0.000266999
0.000224635
0.000234913
0.000265263
0.000193258
0.00030846
0.00014348
0.000354379
8.67532e-05
0.000403201
2.40117e-05
0.00045512
-4.40117e-05
0.00051033
-0.000116738
0.000569012
-0.000193697
0.000631322
-0.000274485
0.000697377
-0.000358719
0.000767244
-0.000445997
0.000840934
-0.000535851
0.000918406
-0.000627674
0.00099959
-0.000720573
0.0010844
-0.000813025
0.00117271
-0.000901864
-0.000979146
0.00126372
4.63493e-06
5.2456e-05
1.68186e-05
0.000135584
3.52428e-05
0.000197062
5.88468e-05
0.000237749
8.67948e-05
0.000259263
0.000118473
0.000263576
0.000153474
0.00025278
0.000191566
0.000228907
0.000232663
0.000193816
0.000276791
0.00014913
0.000324059
9.62122e-05
0.00037463
3.61818e-05
0.000428705
-3.0063e-05
0.000486496
-0.000101803
0.00054821
-0.000178453
0.000614029
-0.000259516
0.000684086
-0.000344542
0.000758444
-0.000433077
0.000837079
-0.000524632
0.000919868
-0.00061864
0.00100659
-0.000714396
0.00109695
-0.000810939
0.00119065
-0.000906721
0.00128735
-0.000998566
-0.00107802
0.00138622
4.22338e-06
4.82326e-05
1.57422e-05
0.000124065
3.36085e-05
0.000179196
5.69919e-05
0.000214366
8.52011e-05
0.000231053
0.000117708
0.000231069
0.000154152
0.000216336
0.000194329
0.00018873
0.000238173
0.000149973
0.000285727
0.000101576
0.00033712
4.4819e-05
0.00039254
-1.92382e-05
0.000452207
-8.97295e-05
0.000516345
-0.000165941
0.000585159
-0.000247266
0.000658799
-0.000333157
0.000737338
-0.000423081
0.000820739
-0.000516477
0.000908834
-0.000612727
0.00100131
-0.000711118
0.00109773
-0.000810808
0.00119752
-0.000910733
0.00130011
-0.00100931
0.00140495
-0.00110341
-0.00118424
0.00151117
3.75344e-06
4.44791e-05
1.44635e-05
0.000113355
3.15652e-05
0.000162094
5.44834e-05
0.000191447
8.26988e-05
0.000202838
0.000115798
0.00019797
0.000153499
0.000178635
0.000195655
0.000146574
0.000242243
0.000103385
0.000293345
5.0473e-05
0.000349125
-1.09609e-05
0.000409796
-7.99087e-05
0.000475589
-0.000155523
0.000546721
-0.000237073
0.000623355
-0.000323901
0.000705569
-0.00041537
0.000793314
-0.000510826
0.000886394
-0.000609557
0.000984438
-0.000710771
0.00108689
-0.000813574
0.00119304
-0.000916958
0.00130205
-0.00101974
0.00141304
-0.0011203
0.00152524
-0.00121561
-0.00129679
0.00163778
3.25884e-06
4.12203e-05
1.30954e-05
0.000103519
2.93385e-05
0.000145851
5.16851e-05
0.000169101
7.9811e-05
0.000174712
0.000113445
0.000164336
0.000152411
0.000139668
0.000196646
0.000102339
0.000246192
5.38381e-05
0.000301187
-4.52119e-06
0.000361828
-7.16019e-05
0.000428344
-0.000146425
0.000500955
-0.000228133
0.000579827
-0.000315945
0.000665032
-0.000409105
0.000756505
-0.000506844
0.000854014
-0.000608335
0.000957131
-0.000712674
0.00106522
-0.000818862
0.00117745
-0.000925805
0.00129281
-0.00103232
0.00141018
-0.00113711
0.00152843
-0.00123855
0.0016466
-0.00133377
-0.00141403
0.00176385
2.7764e-06
3.84439e-05
1.17618e-05
9.45332e-05
2.71768e-05
0.000130436
4.89999e-05
0.000147278
7.71196e-05
0.000146592
0.000111429
0.000130026
0.000151882
9.92154e-05
0.000198518
5.57039e-05
0.000251459
8.9628e-07
0.000310897
-6.3959e-05
0.000377055
-0.000137759
0.000450148
-0.000219519
0.00053034
-0.000308325
0.000617687
-0.000403292
0.000712099
-0.000503518
0.000813297
-0.000608042
0.000920787
-0.000715825
0.00103385
-0.000825733
0.00115153
-0.000936548
0.0012727
-0.00104698
0.00139607
-0.00115568
0.00152025
-0.00126129
0.00164394
-0.00136224
0.00176606
-0.00145589
-0.00153381
0.00188583
2.34364e-06
3.61003e-05
1.05886e-05
8.62882e-05
2.53336e-05
0.000115691
4.68397e-05
0.000125771
7.52191e-05
0.000118213
0.000110545
9.47009e-05
0.000152915
5.68452e-05
0.000202481
6.13741e-06
0.000259447
-5.6069e-05
0.00032404
-0.000128553
0.00039648
-0.000210199
0.000476923
-0.000299961
0.000565409
-0.000396811
0.000661814
-0.000499698
0.000765806
-0.00060751
0.000876813
-0.000719048
0.000994011
-0.000833023
0.00111634
-0.00094806
0.00124252
-0.00106273
0.0013711
-0.00117556
0.00150056
-0.00128514
0.00162935
-0.00139008
0.00175604
-0.00148893
0.00187954
-0.0015794
-0.00165346
0.0019992
1.99576e-06
3.41045e-05
9.69442e-06
7.85896e-05
2.40471e-05
0.000101339
4.5591e-05
0.000104228
7.46644e-05
8.91396e-05
0.000111526
5.7839e-05
0.000156423
1.19483e-05
0.000209614
-4.70535e-05
0.000271363
-0.000117818
0.000341906
-0.000199096
0.000421403
-0.000289697
0.000509887
-0.000388445
0.000607201
-0.000494125
0.000712958
-0.000605455
0.000826504
-0.000721055
0.000946907
-0.000839452
0.00107297
-0.000959087
0.00120326
-0.00107835
0.00133618
-0.00119564
0.00147001
-0.00130939
0.00160302
-0.00141816
0.0017336
-0.00152066
0.00186034
-0.00161567
0.00198225
-0.0017013
-0.00177004
0.00209882
1.7626e-06
3.23419e-05
9.18009e-06
7.11721e-05
2.35204e-05
8.69985e-05
4.55813e-05
8.21666e-05
7.59211e-05
5.87998e-05
0.000114979
1.8781e-05
0.000163139
-3.62113e-05
0.000220745
-0.000104659
0.000288085
-0.000185158
0.000365351
-0.000276361
0.000452579
-0.000376926
0.000549598
-0.000485463
0.000655973
-0.0006005
0.000770975
-0.000720457
0.000893568
-0.000843648
0.00102242
-0.000968302
0.00115594
-0.0010926
0.00129234
-0.00121475
0.00142972
-0.00133302
0.00156615
-0.00144583
0.00169979
-0.0015518
0.00182896
-0.00164982
0.00195235
-0.00173906
0.00206921
-0.00181817
-0.0018803
0.00217948
1.66598e-06
3.06759e-05
9.12057e-06
6.37175e-05
2.39045e-05
7.22146e-05
4.70523e-05
5.90188e-05
7.93252e-05
2.6527e-05
0.000121324
-2.32179e-05
0.000173543
-8.84299e-05
0.000236372
-0.000167489
0.00031007
-0.000258857
0.000394714
-0.000361005
0.000490138
-0.00047235
0.000595885
-0.00059121
0.000711166
-0.000715782
0.000834851
-0.000844142
0.00096548
-0.000974277
0.00110131
-0.00110413
0.0012404
-0.00123169
0.00138065
-0.00135501
0.00151998
-0.00147235
0.00165633
-0.00158218
0.00178781
-0.00168328
0.00191273
-0.00177474
0.00202953
-0.00185585
0.00213673
-0.00192537
-0.00197911
0.00223554
1.71761e-06
2.89583e-05
9.55895e-06
5.58761e-05
2.52876e-05
5.6486e-05
5.01428e-05
3.41635e-05
8.50605e-05
-8.39069e-06
0.000130771
-6.89284e-05
0.000187835
-0.000145494
0.000256635
-0.000236288
0.000337328
-0.00033955
0.000429799
-0.000453475
0.000533596
-0.000576147
0.000647901
-0.000705514
0.000771506
-0.000839387
0.000902842
-0.000975478
0.00104003
-0.00111146
0.00118094
-0.00124505
0.00132334
-0.00137409
0.00146496
-0.00149663
0.00160364
-0.00161103
0.00173741
-0.00171595
0.00186455
-0.00181043
0.00198368
-0.00189387
0.00209371
-0.00196588
0.00219456
-0.00202622
-0.00207306
0.00228851
1.92046e-06
2.70379e-05
1.05079e-05
4.72887e-05
2.76954e-05
3.92986e-05
5.48875e-05
6.97139e-06
9.31559e-05
-4.66591e-05
0.000143315
-0.000119087
0.000205936
-0.000208115
0.00028132
-0.000311672
0.000369449
-0.000427679
0.000469927
-0.000553953
0.000581938
-0.000688159
0.000704236
-0.000827812
0.000835157
-0.000970308
0.000972685
-0.00111301
0.00111454
-0.00125332
0.00125831
-0.00138881
0.00140154
-0.00151732
0.00154194
-0.00163702
0.00167739
-0.00174648
0.00180615
-0.00184471
0.00192684
-0.00193112
0.00203853
-0.00200555
0.0021408
-0.00206815
0.00223387
-0.00211929
-0.00215788
0.00231869
2.26739e-06
2.47705e-05
1.19494e-05
3.76066e-05
3.10942e-05
2.01538e-05
6.12256e-05
-2.316e-05
0.000103503
-8.89362e-05
0.000158766
-0.000174351
0.000227528
-0.000276877
0.000309932
-0.000394076
0.000405693
-0.000523441
0.000514056
-0.000662316
0.000633772
-0.000807874
0.000763118
-0.000957158
0.000899965
-0.00110716
0.00104188
-0.00125492
0.00118625
-0.00139769
0.00133046
-0.00153302
0.001472
-0.00165887
0.00160864
-0.00177366
0.00173849
-0.00187633
0.0018601
-0.00196632
0.00197248
-0.0020435
0.0020751
-0.00210817
0.00216786
-0.00216091
0.00225105
-0.00220248
-0.00223256
0.00232573
2.74528e-06
2.20252e-05
1.3844e-05
2.65079e-05
3.54059e-05
-1.40806e-06
6.90234e-05
-5.67775e-05
0.000115886
-0.000135798
0.000176791
-0.000235256
0.000252117
-0.000352203
0.000341759
-0.000483719
0.000445085
-0.000626766
0.0005609
-0.000778131
0.00068747
-0.000934444
0.00082258
-0.00109227
0.000963654
-0.00124823
0.0011079
-0.00139917
0.00125249
-0.00154228
0.00139471
-0.00167525
0.00153215
-0.00179631
0.00166278
-0.00190428
0.00178503
-0.00199858
0.00189785
-0.00207914
0.00200068
-0.00214633
0.00209341
-0.0022009
0.00217633
-0.00224383
0.00225006
-0.00227621
-0.00229836
0.00231586
3.33736e-06
1.86878e-05
1.61388e-05
1.37065e-05
4.05241e-05
-2.57934e-05
7.80989e-05
-9.43523e-05
0.000130018
-0.000187718
0.000196964
-0.000302203
0.000279091
-0.000434329
0.00037596
-0.000580588
0.000486508
-0.000737314
0.000609043
-0.000900666
0.000741312
-0.00106671
0.000880622
-0.00123158
0.001024
-0.00139161
0.00116841
-0.00154357
0.00131091
-0.00168478
0.00144886
-0.0018132
0.00158006
-0.0019275
0.00170281
-0.00202703
0.00181595
-0.00211173
0.00191889
-0.00218207
0.0020115
-0.00223894
0.00209407
-0.00228348
0.00216724
-0.002317
0.00223187
-0.00234084
-0.00235576
0.00228927
4.0261e-06
1.46617e-05
1.87757e-05
-1.04311e-06
4.63292e-05
-5.33469e-05
8.82468e-05
-0.00013627
0.000145579
-0.00024505
0.000218808
-0.000375432
0.000307777
-0.000523297
0.000411628
-0.000684439
0.000528791
-0.000854477
0.000657037
-0.00102891
0.000793595
-0.00120327
0.000935337
-0.00137332
0.00107899
-0.00153527
0.00122139
-0.00168596
0.00135963
-0.00182302
0.00149129
-0.00194486
0.0016145
-0.00205071
0.00172798
-0.00214051
0.00183105
-0.0022148
0.00192358
-0.0022746
0.00200584
-0.00232121
0.0020785
-0.00235614
0.00214244
-0.00238094
0.00219873
-0.00239713
-0.00240571
0.00224868
4.79544e-06
9.86628e-06
2.16985e-05
-1.79462e-05
5.27013e-05
-8.43497e-05
9.92564e-05
-0.000182825
0.000162234
-0.000308027
0.000241829
-0.000455028
0.000337483
-0.000618951
0.000447837
-0.000794793
0.000570763
-0.000977402
0.000703474
-0.00116162
0.000842715
-0.00134251
0.000985004
-0.00151561
0.0011269
-0.00167716
0.00126522
-0.00182429
0.00139729
-0.00195509
0.001521
-0.00206858
0.00163493
-0.00216464
0.00173828
-0.00224386
0.00183085
-0.00230737
0.00191293
-0.00235667
0.00198517
-0.00239345
0.0020485
-0.00241946
0.00210399
-0.00243644
0.00215281
-0.00244595
-0.00244914
0.00219624
5.63206e-06
4.23422e-06
2.48567e-05
-3.71708e-05
5.95276e-05
-0.000119021
0.000110923
-0.000234221
0.000179653
-0.000376756
0.000265535
-0.00054091
0.00036752
-0.000720937
0.00048368
-0.000910952
0.000611294
-0.00110502
0.000747035
-0.00129736
0.000887231
-0.00148271
0.00102816
-0.00165654
0.00116634
-0.00181534
0.00129878
-0.00195672
0.00142309
-0.0020794
0.00153764
-0.00218312
0.00164148
-0.00226848
0.00173433
-0.0023367
0.00181642
-0.00238947
0.00188842
-0.00242867
0.00195128
-0.00245631
0.00200612
-0.0024743
0.0020541
-0.00248443
0.00209642
-0.00248827
-0.00248699
0.00213428
6.5256e-06
-2.29138e-06
2.82063e-05
-5.88515e-05
6.67041e-05
-0.000157518
0.000123053
-0.00029057
0.000197514
-0.000451217
0.00028944
-0.000632836
0.000397212
-0.000828709
0.000518279
-0.00103202
0.000649325
-0.00123606
0.000786533
-0.00143457
0.000925914
-0.00162209
0.00106365
-0.00179428
0.00119638
-0.00194807
0.0013214
-0.00208174
0.00143678
-0.00219479
0.00154139
-0.00228773
0.0016348
-0.00236189
0.00171718
-0.00241909
0.0017892
-0.00246148
0.0018518
-0.00249128
0.00190614
-0.00251064
0.00195342
-0.00252159
0.00199487
-0.00252588
0.00203163
-0.00252502
-0.00252014
0.00206478
7.46812e-06
-9.75949e-06
3.1709e-05
-8.30924e-05
7.41341e-05
-0.000199944
0.000135457
-0.000351893
0.000215503
-0.000531264
0.000313071
-0.000730405
0.000425905
-0.000941543
0.000550808
-0.00115692
0.000683894
-0.00136915
0.000820943
-0.00157162
0.000957782
-0.00175893
0.00109065
-0.00192714
0.00121644
-0.00207386
0.00133288
-0.00219819
0.00143856
-0.00230047
0.00153288
-0.00238205
0.00161591
-0.00244491
0.00168824
-0.00249143
0.00175085
-0.00252409
0.0018049
-0.00254533
0.00185166
-0.0025574
0.00189237
-0.0025623
0.00192822
-0.00256173
0.00196027
-0.00255707
-0.00254934
0.00198947
8.45302e-06
-1.82125e-05
3.53291e-05
-0.000109968
8.17242e-05
-0.000246339
0.00014795
-0.000418118
0.000233307
-0.000616621
0.000335962
-0.00083306
0.000452974
-0.00105855
0.000580503
-0.00128445
0.000714159
-0.00150281
0.000849435
-0.0017069
0.000982123
-0.00189162
0.00110866
-0.00205368
0.00122636
-0.00219155
0.00133344
-0.00230527
0.00142904
-0.00239608
0.0015131
-0.0024661
0.00158611
-0.00251793
0.00164903
-0.00255435
0.00170306
-0.00257811
0.0017495
-0.00259176
0.00178964
-0.00259754
0.00182471
-0.00259737
0.0018558
-0.00259282
0.00188387
-0.00258514
-0.0025752
0.00190974
9.4739e-06
-2.76864e-05
3.90309e-05
-0.000139525
8.9379e-05
-0.000296687
0.000160343
-0.000489082
0.000250614
-0.000706893
0.000357659
-0.000940105
0.000477831
-0.00117873
0.000606684
-0.0014133
0.000739422
-0.00163554
0.000871391
-0.00183886
0.000998506
-0.00201873
0.00111755
-0.00217272
0.00122632
-0.00230032
0.00132361
-0.00240256
0.00140911
-0.00248158
0.00148322
-0.00254021
0.00154683
-0.00258153
0.00160114
-0.00260866
0.00164749
-0.00262447
0.00168724
-0.00263151
0.00172166
-0.00263197
0.00175191
-0.00262762
0.00177897
-0.00261988
0.00180367
-0.00260984
-0.00259823
0.00182669
1.05235e-05
-3.82099e-05
4.2776e-05
-0.000171778
9.69988e-05
-0.000350909
0.000172443
-0.000564526
0.000267112
-0.000801562
0.000377726
-0.00105072
0.00049994
-0.00130094
0.000628773
-0.00154214
0.000759149
-0.00176592
0.00088642
-0.00196613
0.00100677
-0.00213908
0.00111744
-0.0022834
0.0012168
-0.00239967
0.0013042
-0.00248996
0.00137985
-0.00255723
0.00144455
-0.00260491
0.0014995
-0.00263648
0.00154605
-0.00265521
0.00158563
-0.00266404
0.00161957
-0.00266545
0.00164908
-0.00266148
0.00167521
-0.00265374
0.00169882
-0.00264349
0.00172063
-0.00263165
-0.00261879
0.00174119
1.15931e-05
-4.9803e-05
4.65218e-05
-0.000206707
0.000104477
-0.000408865
0.000184052
-0.000644101
0.000282495
-0.000900005
0.000395756
-0.00116398
0.000518832
-0.00142402
0.00064631
-0.00166961
0.000772978
-0.00189259
0.000894349
-0.00208751
0.001007
-0.00225174
0.00110873
-0.00238513
0.00119848
-0.00248942
0.00127615
-0.00256764
0.00134242
-0.0026235
0.0013984
-0.00266089
0.00144549
-0.00268357
0.00148515
-0.00269488
0.0015188
-0.00269769
0.00154772
-0.00269437
0.00157301
-0.00268677
0.0015956
-0.00267633
0.00161623
-0.00266412
0.00163551
-0.00265092
-0.00263716
0.00165387
1.26722e-05
-6.24752e-05
5.02211e-05
-0.000244256
0.000111702
-0.000470345
0.00019497
-0.000727369
0.000296468
-0.0010015
0.000411382
-0.00127889
0.000534121
-0.00154675
0.000658968
-0.00179446
0.000780727
-0.00201435
0.000895214
-0.00220199
0.000999513
-0.00235604
0.001092
-0.00247761
0.0011722
-0.00256962
0.00124052
-0.00263596
0.001298
-0.00268098
0.00134602
-0.00270891
0.00138607
-0.00272362
0.00141966
-0.00272847
0.00144814
-0.00272617
0.0014727
-0.00271893
0.00149434
-0.0027084
0.00151384
-0.00269584
0.00153185
-0.00268213
0.00154885
-0.00266792
-0.0026535
0.0015652
1.37485e-05
-7.62237e-05
5.38228e-05
-0.00028433
0.000118557
-0.00053508
0.000205
-0.000813812
0.000308759
-0.00110526
0.000424291
-0.00139443
0.000545515
-0.00166798
0.000666555
-0.0019155
0.000782381
-0.00213017
0.000889233
-0.00230885
0.000984767
-0.00245157
0.00106796
-0.00256081
0.00113888
-0.00264053
0.00119837
-0.00269545
0.00124775
-0.00273036
0.00128856
-0.00274972
0.00132236
-0.00275743
0.00135061
-0.00275671
0.00137458
-0.00275014
0.00139534
-0.00273969
0.00141377
-0.00272683
0.00143054
-0.00271261
0.00144618
-0.00269778
0.00146108
-0.00268282
-0.00266795
0.00147553
1.48082e-05
-9.10319e-05
5.72729e-05
-0.000326794
0.000124927
-0.000602734
0.000213956
-0.000902841
0.000319128
-0.00121043
0.000434233
-0.00150953
0.000552824
-0.00178657
0.000669013
-0.00203169
0.000778076
-0.00223924
0.000876771
-0.00240754
0.000963359
-0.00253816
0.0010374
-0.00263485
0.00109946
-0.00270259
0.00115072
-0.00274671
0.00119271
-0.00277235
0.00122706
-0.00278407
0.00125532
-0.00278569
0.00127887
-0.00278026
0.00129887
-0.00277015
0.00131628
-0.0027571
0.00133185
-0.00274239
0.00134614
-0.0027269
0.00135959
-0.00271122
0.0013725
-0.00269573
-0.00268056
0.00138511
1.58366e-05
-0.000106869
6.05164e-05
-0.000371474
0.0001307
-0.000672917
0.000221669
-0.000993811
0.000327375
-0.00131614
0.00044103
-0.00162319
0.00055596
-0.0019015
0.000666409
-0.00214214
0.000768077
-0.0023409
0.000858303
-0.00249777
0.000935962
-0.00261582
0.00100116
-0.00270005
0.00105486
-0.00275629
0.00109853
-0.00279038
0.00113383
-0.00280765
0.00116241
-0.00281264
0.00118575
-0.00280903
0.00120514
-0.00279965
0.00122162
-0.00278663
0.00123603
-0.00277151
0.00124899
-0.00275536
0.00126098
-0.00273889
0.00127235
-0.00272259
0.00128335
-0.00270673
-0.00269135
0.00129414
1.68183e-05
-0.000123687
6.3499e-05
-0.000418155
0.000135769
-0.000745187
0.000227991
-0.00108603
0.000333346
-0.00142149
0.000444579
-0.00173442
0.00055493
-0.00201185
0.000658916
-0.00224613
0.000752749
-0.00243474
0.000834384
-0.0025794
0.000903285
-0.00268472
0.000960043
-0.00275681
0.00100596
-0.00280221
0.00104269
-0.00282711
0.00107195
-0.00283691
0.00109536
-0.00283605
0.00111432
-0.00282799
0.00113
-0.00281533
0.00114332
-0.00279995
0.00115498
-0.00278317
0.00116552
-0.0027659
0.00117533
-0.0027487
0.00118468
-0.00273195
0.00119378
-0.00271583
-0.00270033
0.00120276
1.77377e-05
-0.000141424
6.6169e-05
-0.000466586
0.000140042
-0.00081906
0.000232803
-0.00117879
0.000336937
-0.00152563
0.000444846
-0.00184233
0.000549832
-0.00211684
0.000646797
-0.00234309
0.00073253
-0.00252047
0.000805607
-0.00265248
0.000866041
-0.00274515
0.000914836
-0.0028056
0.000953551
-0.00284092
0.000983952
-0.00285751
0.00100777
-0.00286073
0.00102655
-0.00285483
0.00104158
-0.00284302
0.0010539
-0.00282766
0.00106432
-0.00281037
0.00107343
-0.00279229
0.00108168
-0.00277414
0.00108937
-0.0027564
0.00109674
-0.00273932
0.00110395
-0.00272303
-0.00270747
0.00111109
1.85799e-05
-0.000160004
6.84787e-05
-0.000516485
0.000143437
-0.000894018
0.000236016
-0.00127137
0.000338094
-0.00162771
0.00044187
-0.0019461
0.000540837
-0.00221581
0.000630381
-0.00243263
0.000707903
-0.00259799
0.000772582
-0.00271716
0.000824922
-0.00279749
0.000866263
-0.00284694
0.000898349
-0.00287301
0.000922997
-0.00288216
0.000941895
-0.00287963
0.000956491
-0.00286942
0.000967958
-0.00285449
0.000977208
-0.00283691
0.000984925
-0.00281809
0.000991615
-0.00279897
0.00099764
-0.00278016
0.00100326
-0.00276202
0.00100866
-0.00274472
0.00101395
-0.00272833
-0.00271275
0.00101922
1.93305e-05
-0.000179335
7.0386e-05
-0.000567541
0.000145892
-0.000969524
0.000237573
-0.00136306
0.000336814
-0.00172695
0.000435746
-0.00204504
0.000528178
-0.00230824
0.000610046
-0.0025145
0.000679376
-0.00266732
0.00073591
-0.00277369
0.000780578
-0.00284216
0.000814983
-0.00288135
0.000840981
-0.00289901
0.000860392
-0.00290157
0.000874826
-0.00289406
0.000885615
-0.00288021
0.000893807
-0.00286268
0.000900193
-0.00284329
0.000905354
-0.00282325
0.000909711
-0.00280333
0.000913562
-0.00278402
0.000917117
-0.00276557
0.000920522
-0.00274812
0.000923874
-0.00273168
-0.00271612
0.00092724
1.99765e-05
-0.000199311
7.18554e-05
-0.00061942
0.000147359
-0.00104503
0.000237448
-0.00145314
0.000333136
-0.00182264
0.000426623
-0.00213852
0.000512132
-0.00239375
0.000586195
-0.00258856
0.000647455
-0.00272858
0.000696163
-0.0028224
0.000733606
-0.00287961
0.000761578
-0.00290932
0.00078199
-0.00291942
0.000796617
-0.00291619
0.000806969
-0.00290441
0.000814256
-0.0028875
0.0008194
-0.00286783
0.000823079
-0.00284697
0.000825784
-0.00282595
0.000827861
-0.00280541
0.000829556
-0.00278571
0.00083104
-0.00276705
0.000832431
-0.00274951
0.000833805
-0.00273305
-0.00271753
0.00083522
2.05063e-05
-0.000219818
7.28587e-05
-0.000671772
0.000147809
-0.00111998
0.000235646
-0.00154098
0.000327142
-0.00191413
0.000414688
-0.00222607
0.000493005
-0.00247206
0.000559246
-0.0026548
0.000612635
-0.00278197
0.000653879
-0.00286364
0.000684547
-0.00291027
0.00070656
-0.00293134
0.000721835
-0.00293469