/*--------------------------------*- C++ -*----------------------------------*\
  =========                 |
  \\      /  F ield         | OpenFOAM: The Open Source CFD Toolbox
   \\    /   O peration     | Website:  https://openfoam.org
    \\  /    A nd           | Version:  6.0
     \\/     M anipulation  |
\*---------------------------------------------------------------------------*/
FoamFile
{
    version     2.0;
    format      ascii;
    class       volVectorField;
    location    "71";
    object      U;
}
// * * * * * * * * * * * * * * * * * * * * * * * * * * * * * * * * * * * * * //

dimensions      [0 1 -1 0 0 0 0];

internalField   nonuniform List<vector> 
12500
(
(-0.00113376 0.0504774 -9.98234e-22)
(-0.00412642 0.120434 1.49704e-20)
(-0.00897909 0.166388 -2.17444e-20)
(-0.0151018 0.193736 9.96505e-21)
(-0.0220677 0.207022 5.5873e-22)
(-0.0295431 0.209985 -1.16021e-21)
(-0.0372162 0.205585 -1.80785e-20)
(-0.0448168 0.196079 9.90218e-21)
(-0.0521189 0.183115 6.62943e-21)
(-0.0589341 0.167846 6.67595e-21)
(-0.0651038 0.151033 -1.13927e-20)
(-0.070495 0.133144 6.60663e-21)
(-0.0749963 0.114439 -3.13062e-21)
(-0.0785177 0.0950375 5.3351e-21)
(-0.0809915 0.0749694 -1.36128e-20)
(-0.0823747 0.0542199 1.95172e-20)
(-0.082653 0.0327576 -3.6e-21)
(-0.0818449 0.0105579 -1.39696e-20)
(-0.0800088 -0.0123807 7.27172e-21)
(-0.0772431 -0.0360246 -6.94547e-21)
(-0.073667 -0.0602961 6.13679e-21)
(-0.0694325 -0.0850683 7.95158e-21)
(-0.0649743 -0.110168 8.9023e-22)
(-0.061139 -0.135395 -2.30125e-20)
(-0.0566321 -0.160501 1.21102e-20)
(-0.00261397 0.0511988 2.04388e-20)
(-0.00733298 0.122706 -5.22091e-20)
(-0.0127981 0.170142 1.51646e-20)
(-0.0188487 0.198784 1.02148e-20)
(-0.025314 0.213102 -8.099e-21)
(-0.0320217 0.21681 -4.62819e-20)
(-0.0387711 0.212869 1.36591e-20)
(-0.0453639 0.203551 -2.6148e-20)
(-0.051618 0.190524 3.11847e-20)
(-0.0573699 0.174961 -4.15425e-20)
(-0.0624748 0.157642 2.2129e-20)
(-0.0668063 0.139054 7.46031e-21)
(-0.070257 0.119474 -1.8178e-20)
(-0.0727396 0.0990425 -7.97536e-21)
(-0.0741895 0.0778144 5.89438e-20)
(-0.0745672 0.0558052 -5.24385e-20)
(-0.0738622 0.0330217 1.26389e-20)
(-0.0720974 0.0094861 2.17454e-20)
(-0.0693344 -0.0147472 -4.64563e-21)
(-0.065674 -0.0395799 3.4674e-20)
(-0.0612353 -0.0648622 6.61739e-21)
(-0.0561664 -0.0903919 -2.6146e-21)
(-0.0509042 -0.115931 -4.43446e-20)
(-0.0463236 -0.141229 4.05291e-20)
(-0.0410718 -0.165937 -7.76773e-20)
(-0.0041034 0.0515599 6.66815e-20)
(-0.0105592 0.124188 2.17013e-20)
(-0.0166002 0.172899 -2.901e-20)
(-0.0225037 0.20277 1.26141e-20)
(-0.0283597 0.218145 1.12841e-20)
(-0.0341604 0.22267 4.34879e-20)
(-0.0398208 0.219283 -5.55141e-20)
(-0.0452192 0.210255 -9.48671e-21)
(-0.0502217 0.197265 -3.74847e-20)
(-0.0546943 0.181502 -3.13502e-20)
(-0.0585099 0.163768 3.98507e-20)
(-0.0615531 0.144567 -1.35171e-19)
(-0.0637241 0.124201 -4.78732e-21)
(-0.0649418 0.10283 -8.21081e-20)
(-0.0651474 0.0805371 -9.94709e-21)
(-0.0643068 0.057369 1.12522e-20)
(-0.0624143 0.0333695 -6.46093e-20)
(-0.0594958 0.00860466 -4.0608e-20)
(-0.0556141 -0.0168198 -4.77594e-20)
(-0.0508684 -0.0427468 7.43879e-20)
(-0.0453728 -0.0689609 2.70669e-20)
(-0.0392655 -0.0951911 -1.22808e-19)
(-0.0329745 -0.121138 -5.89964e-20)
(-0.0273967 -0.146505 -6.65243e-20)
(-0.021171 -0.170837 1.75625e-19)
(-0.00557127 0.0515345 -1.42715e-21)
(-0.0137424 0.12481 -5.09311e-20)
(-0.0203128 0.174552 -2.53682e-20)
(-0.0259953 0.205559 1.60494e-20)
(-0.0311381 0.221995 9.47643e-20)
(-0.0358987 0.227401 -4.21613e-20)
(-0.0403106 0.22466 9.08886e-20)
(-0.0443327 0.216025 8.71728e-20)
(-0.047884 0.203179 5.28534e-20)
(-0.0508642 0.187324 -6.49537e-22)
(-0.0531682 0.169279 1.07349e-19)
(-0.0546958 0.149572 1.88564e-20)
(-0.0553582 0.128528 8.27111e-20)
(-0.0550838 0.106332 1.9221e-19)
(-0.0538216 0.0830943 -2.2361e-19)
(-0.0515442 0.0588917 3.37997e-19)
(-0.0482508 0.0338018 7.43741e-20)
(-0.0439694 0.00792903 -1.64383e-19)
(-0.0387609 -0.018577 -2.31273e-20)
(-0.0327192 -0.0455093 5.88159e-20)
(-0.0259493 -0.0725956 -3.06909e-20)
(-0.0185749 -0.0995021 -1.92545e-20)
(-0.0110044 -0.12587 -1.83353e-20)
(-0.00415051 -0.151354 -7.18408e-20)
(0.0032993 -0.175382 2.46087e-19)
(-0.0069856 0.0511055 3.59229e-20)
(-0.0168176 0.124518 -1.64528e-19)
(-0.0238643 0.175011 1.99818e-19)
(-0.0292573 0.207032 -7.87616e-20)
(-0.0335944 0.224511 9.52737e-20)
(-0.0371947 0.230843 7.83913e-20)
(-0.0402111 0.228832 2.98521e-20)
(-0.0426868 0.220694 2.57435e-21)
(-0.0445975 0.208103 1.67629e-19)
(-0.0458814 0.192271 1.17251e-19)
(-0.0464595 0.174034 -4.60546e-20)
(-0.0462505 0.153944 -3.04633e-20)
(-0.0451802 0.132349 1.28567e-19)
(-0.0431887 0.109463 2.39617e-20)
(-0.0402348 0.0854212 6.73281e-20)
(-0.0362989 0.0603282 1.60422e-19)
(-0.0313849 0.0342905 -1.36975e-19)
(-0.0255215 0.00744363 1.10336e-19)
(-0.0187662 -0.0200287 -2.42543e-19)
(-0.0112042 -0.0478803 2.04422e-19)
(-0.00292951 -0.0757924 1.72864e-21)
(0.00595191 -0.103376 -1.65193e-19)
(0.0150591 -0.130213 6.47198e-20)
(0.0234703 -0.1559 1.49497e-19)
(0.0323865 -0.179732 -2.16327e-19)
(-0.00831455 0.0502672 1.8822e-19)
(-0.0197207 0.123278 -1.99203e-19)
(-0.0271862 0.174209 -3.08111e-20)
(-0.032231 0.207089 4.06681e-20)
(-0.0356861 0.225565 -8.61302e-20)
(-0.038025 0.23285 -1.33668e-19)
(-0.0395188 0.23164 -1.12181e-19)
(-0.0402968 0.224096 -2.70411e-20)
(-0.0403951 0.211873 -1.92824e-19)
(-0.0397946 0.196184 1.57255e-19)
(-0.0384468 0.177884 -2.41876e-19)
(-0.0362928 0.157545 1.23825e-19)
(-0.033276 0.135542 -3.96558e-20)
(-0.0293506 0.112115 9.57083e-20)
(-0.0244865 0.0874251 -2.42177e-19)
(-0.0186725 0.0616009 1.2036e-19)
(-0.0119172 0.0347719 1.02235e-20)
(-0.00424979 0.00709612 5.2755e-20)
(0.00427717 -0.0212192 3.22526e-19)
(0.0135878 -0.049901 7.38928e-20)
(0.0236002 -0.0785957 -5.02908e-21)
(0.0342256 -0.106867 2.08521e-20)
(0.0451159 -0.134237 1.35661e-19)
(0.0553478 -0.160231 3.97811e-20)
(0.0659447 -0.183997 1.24882e-19)
(-0.00952794 0.0490268 -1.17083e-19)
(-0.0223906 0.121084 1.65879e-19)
(-0.0302152 0.17211 1.06968e-20)
(-0.0348663 0.20566 -2.01966e-19)
(-0.0373842 0.225054 4.27323e-19)
(-0.0383855 0.233292 -1.37432e-19)
(-0.0382554 0.232937 2.02261e-19)
(-0.0372099 0.226073 1.85174e-19)
(-0.0353488 0.214325 -1.52816e-19)
(-0.0326992 0.198901 -2.24926e-19)
(-0.0292471 0.180668 6.18185e-20)
(-0.0249597 0.160222 -6.56737e-20)
(-0.0198005 0.137962 -2.92823e-19)
(-0.0137396 0.114153 3.60238e-19)
(-0.0067594 0.0889809 -1.73986e-19)
(0.0011424 0.0625948 -1.20414e-19)
(0.00995225 0.0351413 2.43952e-21)
(0.0196404 0.00679235 1.01356e-19)
(0.0301592 -0.0222321 4.13414e-20)
(0.0414419 -0.0516444 -1.6138e-19)
(0.0534173 -0.0810692 1.88454e-19)
(0.0660111 -0.110032 -3.23342e-19)
(0.0789102 -0.137996 1.99056e-19)
(0.0911978 -0.164403 -1.50858e-19)
(0.103655 -0.188233 4.12536e-20)
(-0.0105991 0.0474048 1.75127e-19)
(-0.0247722 0.117959 -1.34003e-19)
(-0.0328962 0.168712 -8.44134e-20)
(-0.0371235 0.202706 -1.49392e-19)
(-0.0386733 0.222905 -2.72278e-19)
(-0.03829 0.232065 -2.00934e-19)
(-0.0364663 0.232591 1.26652e-19)
(-0.0335036 0.226476 -1.92244e-19)
(-0.0295673 0.215298 2.44499e-19)
(-0.0247344 0.200255 -3.99831e-19)
(-0.0190287 0.18222 1.79005e-19)
(-0.0124466 0.161808 3.80902e-19)
(-0.00497443 0.139443 -5.38556e-19)
(0.00340013 0.115415 7.74483e-20)
(0.0126812 0.0899308 1.02594e-19)
(0.0228619 0.0631566 9.92827e-20)
(0.0339233 0.0352512 -1.04568e-19)
(0.0458349 0.00639312 -2.41989e-20)
(0.0585528 -0.0231947 -7.98389e-20)
(0.0720184 -0.0532223 -6.55753e-20)
(0.0861684 -0.0833054 -3.67475e-19)
(0.100938 -0.112944 -2.54146e-20)
(0.116049 -0.141542 4.59103e-21)
(0.130599 -0.168446 -1.65905e-19)
(0.145068 -0.192452 1.67776e-19)
(-0.0115064 0.0454352 5.4628e-21)
(-0.0268202 0.113955 5.4286e-20)
(-0.0351849 0.164051 5.73314e-20)
(-0.0389746 0.198231 3.22026e-20)
(-0.0395513 0.219081 2.79585e-19)
(-0.0377683 0.229095 2.63754e-19)
(-0.0342165 0.230499 -2.1389e-19)
(-0.0292798 0.225175 -6.64474e-20)
(-0.0231896 0.214645 -5.8658e-20)
(-0.0160755 0.200085 3.0336e-19)
(-0.00800228 0.182369 1.1127e-19)
(0.00100152 0.162128 -1.59365e-19)
(0.0109248 0.139807 -1.38083e-19)
(0.0217607 0.115718 3.32884e-19)
(0.0334993 0.0900877 -8.20051e-20)
(0.0461241 0.0630972 -1.01126e-19)
(0.0596107 0.0349127 -1.42178e-19)
(0.0739273 0.00571363 -1.11749e-19)
(0.089033 -0.0242824 -1.44286e-19)
(0.104875 -0.054793 -9.46208e-20)
(0.121396 -0.0854379 3.92987e-19)
(0.138534 -0.115703 -1.94616e-19)
(0.156042 -0.144942 1.31103e-19)
(0.173042 -0.172393 -3.49269e-19)
(0.189662 -0.196656 1.38285e-19)
(-0.012235 0.0431644 -1.59402e-19)
(-0.028501 0.109151 -4.16731e-20)
(-0.0370499 0.1582 -3.22157e-19)
(-0.0404037 0.192278 -1.54614e-19)
(-0.0400278 0.213588 -3.03727e-19)
(-0.0368626 0.224347 -3.17189e-20)
(-0.0315851 0.226586 1.63243e-19)
(-0.0246568 0.222066 -1.00576e-19)
(-0.0163746 0.212237 2.16583e-19)
(-0.0069218 0.198241 -5.29182e-19)
(0.00359306 0.18095 -1.68284e-20)
(0.0151072 0.161004 9.49753e-20)
(0.0275829 0.138863 -1.20991e-19)
(0.0409931 0.114862 1.12516e-19)
(0.0553136 0.0892426 -8.57416e-20)
(0.0705181 0.062199 -1.86687e-19)
(0.0865771 0.033902 3.42962e-19)
(0.103457 0.00452771 2.14859e-19)
(0.12112 -0.0257167 -4.40603e-20)
(0.139517 -0.0565645 1.43819e-19)
(0.158592 -0.0876502 -2.83245e-19)
(0.178283 -0.11846 4.09058e-19)
(0.198363 -0.148304 -5.58666e-19)
(0.217996 -0.176306 1.14546e-19)
(0.236912 -0.200859 -2.10422e-19)
(-0.0127775 0.0406491 8.67894e-21)
(-0.0297954 0.103657 -1.44393e-19)
(-0.0384743 0.151271 2.0987e-19)
(-0.0414075 0.184935 4.29941e-19)
(-0.0401221 0.206475 -7.71047e-21)
(-0.0356223 0.217827 4.86626e-20)
(-0.0286573 0.22082 -1.851e-19)
(-0.0197588 0.217078 8.56245e-20)
(-0.00928693 0.207969 6.01296e-19)
(0.00252087 0.194595 -1.36307e-19)
(0.0155112 0.177812 -1.64373e-19)
(0.0295856 0.158264 6.20939e-19)
(0.0446782 0.136424 2.06735e-19)
(0.0607418 0.112642 9.96995e-20)
(0.0777375 0.0871754 1.02488e-19)
(0.0956303 0.0602271 2.78185e-19)
(0.114386 0.0319713 -1.08332e-19)
(0.13397 0.0025789 2.8817e-19)
(0.154345 -0.0277563 3.92239e-19)
(0.175465 -0.0587881 -3.352e-19)
(0.197275 -0.0901737 5.00417e-19)
(0.219702 -0.121412 1.80114e-19)
(0.242537 -0.151783 -6.80978e-19)
(0.26499 -0.18029 9.85362e-19)
(0.286372 -0.205112 -7.76082e-19)
(-0.0131352 0.0379544 -4.14543e-19)
(-0.0307001 0.0976016 2.22368e-19)
(-0.0394568 0.143408 -1.4939e-19)
(-0.0419943 0.176332 -1.40895e-19)
(-0.0398602 0.197838 -1.53085e-19)
(-0.0340982 0.20959 -1.6557e-19)
(-0.0255141 0.213211 4.47262e-20)
(-0.0147014 0.210181 4.3408e-19)
(-0.00207893 0.201777 -9.15131e-20)
(0.0120631 0.189049 -2.43374e-19)
(0.0275267 0.172829 -1.50256e-19)
(0.0441769 0.153757 -6.16722e-20)
(0.0619205 0.132316 1.86908e-19)
(0.0806896 0.108863 -1.1805e-19)
(0.100432 0.0836696 -3.92159e-19)
(0.121105 0.0569455 -4.38078e-19)
(0.142669 0.0288666 1.75302e-19)
(0.165091 -0.00040123 -3.29535e-19)
(0.188333 -0.0306782 2.90121e-19)
(0.21235 -0.0617396 -8.17699e-19)
(0.237083 -0.0932704 6.31445e-19)
(0.262443 -0.124792 -8.36952e-19)
(0.288227 -0.155569 -1.58164e-20)
(0.313703 -0.184483 -2.81453e-19)
(0.337752 -0.209489 8.03584e-19)
(-0.0133179 0.0351502 6.36642e-19)
(-0.0312281 0.0911317 9.27323e-20)
(-0.0400114 0.134786 -6.12151e-20)
(-0.0421822 0.166636 -2.52838e-20)
(-0.0392697 0.18782 4.74377e-19)
(-0.032334 0.199742 1.54732e-19)
(-0.0222212 0.203823 1.40971e-19)
(-0.00957576 0.201396 -1.12933e-19)
(0.00513058 0.19364 4.38537e-19)
(0.0215584 0.181545 -2.16939e-19)
(0.039467 0.165911 1.38809e-19)
(0.0586865 0.147366 3.60093e-19)
(0.079097 0.126392 -2.06007e-19)
(0.100612 0.103354 2.2534e-19)
(0.123167 0.0785306 2.1421e-19)
(0.146712 0.0521366 7.36737e-20)
(0.171207 0.02435 -1.8584e-19)
(0.196613 -0.00466784 5.11946e-19)
(0.222895 -0.0347489 -4.82484e-20)
(0.250003 -0.0656883 -5.71523e-20)
(0.277869 -0.0971991 6.23711e-19)
(0.306383 -0.128833 -4.45293e-19)
(0.335328 -0.159853 7.50377e-19)
(0.364043 -0.18902 -6.21386e-19)
(0.390989 -0.214059 7.77083e-19)
(-0.0133437 0.0323079 -3.09522e-19)
(-0.0314075 0.0844034 6.77612e-20)
(-0.0401657 0.125597 -7.1477e-20)
(-0.0419961 0.156046 -3.32488e-19)
(-0.0383753 0.176603 1.95917e-20)
(-0.0303585 0.188434 1.89616e-19)
(-0.0188158 0.192769 -7.70778e-19)
(-0.00443091 0.190797 5.77249e-19)
(0.0122797 0.183593 -5.63143e-19)
(0.0309329 0.172081 -3.57813e-19)
(0.0512492 0.15702 3.22425e-19)
(0.0730273 0.139019 -7.05564e-19)
(0.0961232 0.118553 5.97277e-19)
(0.120434 0.0959882 -1.89896e-19)
(0.145885 0.0716057 -5.52169e-19)
(0.172421 0.0456253 1.37669e-19)
(0.199997 0.0182263 -1.29445e-19)
(0.228574 -0.0104322 5.0938e-20)
(0.258106 -0.0401897 -1.76796e-19)
(0.288538 -0.0708569 -5.94595e-19)
(0.319781 -0.102171 1.33084e-19)
(0.351692 -0.133719 -5.33954e-22)
(0.384026 -0.164774 -6.16235e-19)
(0.416194 -0.193984 4.32672e-19)
(0.44628 -0.218829 -3.61789e-19)
(-0.0132377 0.0294971 1.25831e-19)
(-0.0312801 0.0775745 2.29878e-19)
(-0.0399581 0.116047 3.19099e-19)
(-0.0414629 0.144785 1.64038e-19)
(-0.0371915 0.164403 -1.6035e-19)
(-0.0281754 0.175862 3.82481e-19)
(-0.0152932 0.180216 2.83556e-19)
(0.000744762 0.178515 -1.02553e-19)
(0.019387 0.171731 3.71089e-19)
(0.0402146 0.160714 -3.82331e-19)
(0.0629156 0.146179 -1.13232e-19)
(0.0872621 0.128707 1.14743e-19)
(0.11309 0.108761 2.29795e-19)
(0.140284 0.0867003 2.65241e-21)
(0.16876 0.0628075 1.48618e-19)
(0.198457 0.0373043 2.77744e-19)
(0.229323 0.0103727 -4.75084e-19)
(0.26131 -0.0178274 5.94026e-19)
(0.29436 -0.0471378 2.02893e-19)
(0.328392 -0.0773775 7.32225e-20)
(0.363288 -0.108303 -7.31281e-19)
(0.398855 -0.139532 1.03164e-19)
(0.434796 -0.170366 1.61119e-19)
(0.4706 -0.199347 -3.83372e-20)
(0.504041 -0.223694 1.77147e-19)
(-0.0130305 0.0267819 9.57465e-21)
(-0.0308971 0.0707963 -5.91745e-19)
(-0.0394323 0.10634 -1.42329e-20)
(-0.040606 0.133085 -1.48319e-19)
(-0.0357152 0.151462 -9.70562e-19)
(-0.0257534 0.16226 8.37371e-19)
(-0.0115933 0.166379 -5.95851e-19)
(0.00604095 0.164738 -3.01951e-20)
(0.0265742 0.15821 -2.83355e-19)
(0.0495614 0.14757 4.9186e-19)
(0.0746661 0.133484 -5.31923e-19)
(0.101641 0.116498 -2.51002e-19)
(0.130306 0.097056 4.32916e-21)
(0.160535 0.0755094 -5.53015e-19)
(0.192235 0.0521368 7.57429e-19)
(0.225337 0.0271616 -8.86362e-19)
(0.259775 0.000769576 3.37464e-22)
(0.29548 -0.0268742 1.36523e-19)
(0.332364 -0.055608 -3.47867e-19)
(0.37031 -0.0852507 3.3982e-19)
(0.409146 -0.115569 -4.81062e-19)
(0.44861 -0.14621 -3.18767e-19)
(0.488331 -0.176513 5.93041e-19)
(0.527866 -0.204929 -6.46095e-19)
(0.564802 -0.228399 -9.80984e-21)
(-0.012756 0.0242177 -5.03897e-19)
(-0.0303144 0.064206 5.74781e-19)
(-0.0386317 0.0966731 -1.76977e-19)
(-0.0394372 0.121181 3.38707e-19)
(-0.0339169 0.138035 3.64263e-19)
(-0.0230158 0.147888 -3.20675e-19)
(-0.00758837 0.15151 -2.12819e-19)
(0.0116402 0.149705 -2.55393e-19)
(0.0340834 0.14325 2.33872e-19)
(0.0592806 0.132848 -1.62214e-20)
(0.0868802 0.119109 3.44095e-19)
(0.116621 0.102544 3.41206e-19)
(0.148313 0.0835735 -4.12665e-19)
(0.181819 0.0625357 8.13486e-19)
(0.217032 0.0397045 -5.44371e-19)
(0.253866 0.0153047 -9.51606e-20)
(0.292229 -0.010472 1.07651e-18)
(0.332015 -0.0374515 -4.99723e-19)
(0.373084 -0.0654618 3.22786e-19)
(0.415255 -0.0943142 6.3253e-19)
(0.458282 -0.123776 -4.10586e-19)
(0.501815 -0.15352 4.36397e-20)
(0.545383 -0.182931 -2.88617e-20)
(0.588598 -0.210394 -1.65653e-19)
(0.629027 -0.232544 3.05604e-19)
(-0.0124483 0.0218486 1.15697e-19)
(-0.0295864 0.0579194 -3.63161e-19)
(-0.0375911 0.0872214 1.98618e-19)
(-0.037949 0.109294 -2.53506e-21)
(-0.0317325 0.124376 1.48376e-19)
(-0.0198321 0.133021 -2.54769e-19)
(-0.00307404 0.135893 1.45622e-19)
(0.0178276 0.133699 3.97395e-19)
(0.0422866 0.127128 -1.29841e-20)
(0.0698377 0.116813 -2.04819e-19)
(0.100123 0.103309 2.0621e-19)
(0.132872 0.0870907 -3.82128e-21)
(0.167884 0.0685505 -6.6289e-19)
(0.205008 0.0480131 2.45377e-19)
(0.244115 0.0257469 5.39312e-20)
(0.285083 0.00197858 -9.75968e-20)
(0.327774 -0.0230918 -1.78229e-19)
(0.37202 -0.0492775 6.75015e-19)
(0.417604 -0.0763911 1.65712e-19)
(0.464251 -0.10423 -3.57062e-19)
(0.511619 -0.132557 -4.39712e-20)
(0.55925 -0.161061 4.93472e-19)
(0.606555 -0.189183 -2.3068e-19)
(0.653185 -0.215278 9.85577e-20)
(0.696897 -0.235626 6.30589e-20)
(-0.0121387 0.0197048 -2.30515e-19)
(-0.0287595 0.0520251 2.28092e-19)
(-0.0363292 0.0781316 -1.27804e-19)
(-0.0361066 0.0976252 -4.09396e-19)
(-0.0290561 0.110728 -3.75814e-19)
(-0.0160122 0.117933 -1.6568e-19)
(0.00223475 0.119828 -1.37492e-19)
(0.0249916 0.117035 -4.06625e-19)
(0.051683 0.110167 -1.65121e-19)
(0.0818478 0.0997926 1.51178e-19)
(0.115126 0.0864159 -2.15647e-19)
(0.151242 0.0704714 -2.27872e-19)
(0.189977 0.0523267 -2.15931e-19)
(0.231154 0.0322916 3.97903e-19)
(0.274603 0.0106291 -8.3469e-19)
(0.320145 -0.0124306 4.83495e-19)
(0.367567 -0.0366778 -8.2748e-19)
(0.416608 -0.0619105 -1.28454e-19)
(0.466941 -0.0879239 -4.60941e-19)
(0.518177 -0.114499 -1.07833e-19)
(0.56985 -0.141388 -1.31821e-19)
(0.621387 -0.168296 -4.40951e-19)
(0.67208 -0.194729 -4.7205e-20)
(0.721595 -0.219048 2.67585e-19)
(0.768114 -0.237126 -6.65374e-19)
(-0.0118527 0.0178014 1.98172e-19)
(-0.0278652 0.0465803 2.57809e-19)
(-0.0348406 0.0695147 8.95748e-19)
(-0.0338409 0.0863397 -1.56827e-19)
(-0.0257353 0.0973087 3.72516e-19)
(-0.0113049 0.102889 8.85101e-19)
(0.00869994 0.103614 -2.4115e-19)
(0.033614 0.100042 3.26305e-19)
(0.0628801 0.0927217 1.90232e-19)
(0.0960456 0.0821627 3.46194e-19)
(0.132749 0.0688219 -6.9494e-20)
(0.172699 0.053098 4.70648e-20)
(0.215651 0.0353344 -1.25661e-19)
(0.261377 0.0158267 6.67557e-19)
(0.309642 -0.00516585 8.44715e-20)
(0.360176 -0.0274095 6.28604e-19)
(0.412657 -0.050684 -1.6235e-19)
(0.466699 -0.074773 5.82798e-19)
(0.521839 -0.0994554 8.29855e-20)
(0.577548 -0.124498 2.98518e-19)
(0.63323 -0.149646 -1.28297e-19)
(0.688201 -0.174616 -2.29311e-20)
(0.741648 -0.198987 7.09555e-19)
(0.793232 -0.221181 4.33108e-19)
(0.841788 -0.236589 -1.72626e-19)
(-0.0116065 0.0161377 -4.77466e-19)
(-0.0269141 0.0416086 -4.8066e-19)
(-0.0330905 0.0614414 -5.005e-19)
(-0.0310453 0.0755643 1.83736e-19)
(-0.0215717 0.0843022 -3.67089e-19)
(-0.00540388 0.0881265 -5.4522e-20)
(0.0167473 0.0875393 -1.43804e-19)
(0.0442474 0.0830518 -5.96714e-19)
(0.0765585 0.0751602 -9.38153e-20)
(0.113234 0.0643255 1.53479e-19)
(0.153902 0.0509629 -4.83762e-19)
(0.198241 0.0354388 6.72283e-19)
(0.245954 0.0180748 -9.1741e-19)
(0.296734 -0.000845464 2.22446e-19)
(0.350243 -0.0210665 -5.6664e-19)
(0.406086 -0.0423511 -4.63783e-19)
(0.463796 -0.064471 -2.72829e-20)
(0.522832 -0.0871993 -7.13178e-20)
(0.582577 -0.110304 5.51805e-20)
(0.642352 -0.133546 -2.6947e-19)
(0.701438 -0.15667 -1.86078e-19)
(0.759059 -0.17941 2.28712e-19)
(0.814334 -0.201423 -6.33517e-19)
(0.866913 -0.221243 2.04868e-19)
(0.916454 -0.233716 1.36815e-19)
(-0.0114045 0.0146973 -8.42273e-20)
(-0.0258917 0.0371005 -1.38732e-19)
(-0.0310111 0.0539401 5.41324e-19)
(-0.027575 0.0653805 2.00349e-19)
(-0.0163254 0.0718485 2.6453e-19)
(0.00203961 0.0738441 -3.53127e-19)
(0.0268437 0.0718592 7.8419e-22)
(0.0574792 0.0663733 -2.85485e-19)
(0.0934206 0.0578427 5.2776e-19)
(0.134215 0.0466884 1.73024e-19)
(0.179462 0.0332908 1.95868e-19)
(0.228782 0.017989 -7.74431e-19)
(0.28179 0.00108581 9.60979e-19)
(0.338065 -0.017146 -2.87935e-19)
(0.397124 -0.0364552 -2.07668e-19)
(0.458409 -0.056604 6.26397e-19)
(0.52128 -0.0773614 2.82087e-19)
(0.585021 -0.0984976 -7.13148e-19)
(0.648854 -0.119781 -2.99342e-19)
(0.711962 -0.140978 9.03787e-19)
(0.773527 -0.161848 -6.89526e-19)
(0.832723 -0.18215 4.1581e-19)
(0.888653 -0.201627 2.31032e-19)
(0.940975 -0.21897 -2.97354e-19)
(0.990235 -0.228426 -2.7091e-19)
(-0.0112383 0.0134506 -3.09697e-19)
(-0.0247563 0.0330155 4.81465e-19)
(-0.0285019 0.0469989 2.04078e-19)
(-0.023252 0.0558241 -2.94241e-19)
(-0.00972609 0.0600407 -4.71194e-20)
(0.0113981 0.0601966 -3.07037e-19)
(0.0394674 0.0567898 -1.22111e-19)
(0.0738883 0.0502825 1.37182e-19)
(0.114132 0.0411022 -3.40214e-20)
(0.159715 0.0296393 2.5979e-19)
(0.210177 0.016246 -2.26168e-19)
(0.265044 0.0012389 6.26972e-19)
(0.323803 -0.0150958 -7.80956e-19)
(0.385872 -0.0324962 4.87462e-19)
(0.450587 -0.0507178 6.09897e-19)
(0.517196 -0.0695276 -8.84339e-19)
(0.584865 -0.0887 -2.69622e-19)
(0.652699 -0.108014 4.56575e-19)
(0.719771 -0.127252 -2.80672e-19)
(0.785158 -0.146202 2.72479e-19)
(0.847983 -0.164654 -6.58338e-19)
(0.907424 -0.182417 1.10508e-19)
(0.962649 -0.199329 4.28711e-19)
(1.01339 -0.214241 -6.88846e-19)
(1.06096 -0.220831 1.81729e-19)
(-0.0110858 0.012357 -2.85598e-19)
(-0.0234394 0.0292881 8.95134e-19)
(-0.0254328 0.0405697 1.70978e-19)
(-0.0178721 0.0468874 -4.61796e-19)
(-0.00148714 0.048924 3.30333e-19)
(0.0230446 0.0472887 1.67427e-19)
(0.0550739 0.0424981 2.67077e-19)
(0.0939996 0.0350084 -1.72959e-20)
(0.139261 0.0252288 -2.75363e-20)
(0.190311 0.0135268 -5.82386e-20)
(0.246586 0.000232498 -2.55967e-19)
(0.307475 -0.0143568 -9.73257e-21)
(0.372287 -0.0299705 6.00011e-19)
(0.440242 -0.0463597 -9.89167e-19)
(0.510461 -0.0632915 7.04086e-19)
(0.581979 -0.0805456 1.43253e-19)
(0.653768 -0.0979117 2.53809e-19)
(0.724769 -0.115189 -1.3096e-19)
(0.793937 -0.132189 1.16054e-18)
(0.860282 -0.148733 -7.16642e-19)
(0.922919 -0.164662 5.73197e-19)
(0.981077 -0.179855 1.34367e-19)
(1.03406 -0.194248 -4.19966e-19)
(1.08183 -0.206765 3.55889e-19)
(1.12593 -0.211029 5.3019e-19)
(-0.0109127 0.0113693 -8.2623e-20)
(-0.0218491 0.025835 -3.15634e-19)
(-0.0216502 0.0345765 -5.37879e-19)
(-0.011216 0.0385264 -3.05521e-19)
(0.00867847 0.0385011 -4.268e-20)
(0.03733 0.0351779 -1.20367e-19)
(0.0740658 0.029101 -5.57008e-19)
(0.118244 0.0207291 9.20636e-20)
(0.169234 0.0104609 -6.26639e-19)
(0.226379 -0.00135258 -4.89124e-20)
(0.288965 -0.0143996 -6.02772e-19)
(0.35619 -0.0284008 -2.1548e-19)
(0.427148 -0.0431032 1.23987e-19)
(0.500822 -0.0582754 -5.8989e-19)
(0.576103 -0.0737039 5.20794e-21)
(0.651815 -0.0891903 -5.09786e-19)
(0.726754 -0.10455 1.97429e-19)
(0.799738 -0.119614 -7.10567e-19)
(0.869655 -0.134229 -1.21345e-19)
(0.935511 -0.148258 -1.31818e-20)
(0.996461 -0.161593 -1.18028e-19)
(1.05182 -0.174179 -1.18854e-19)
(1.10105 -0.185968 -5.69476e-20)
(1.1443 -0.195891 -2.33964e-19)
(1.18212 -0.199583 -4.92739e-19)
(-0.0106745 0.0104378 1.51986e-19)
(-0.0198746 0.0225637 3.99046e-19)
(-0.016985 0.0289256 4.78306e-19)
(-0.00306003 0.0306708 -3.81797e-19)
(0.0210432 0.0287406 7.074e-19)
(0.0545635 0.0238822 -3.83806e-19)
(0.0967679 0.0166713 2.08193e-19)
(0.146932 0.00757486 3.24519e-19)
(0.204304 -0.00301404 2.95764e-19)
(0.268067 -0.0147574 1.43922e-19)
(0.337303 -0.0273608 2.3296e-19)
(0.410971 -0.0405647 1.35489e-19)
(0.487912 -0.0541388 9.19013e-19)
(0.566857 -0.0678775 -6.67924e-19)
(0.646467 -0.0815962 7.63749e-19)
(0.725378 -0.0951299 -3.15765e-19)
(0.802258 -0.108331 6.83416e-19)
(0.875863 -0.121071 -3.13782e-20)
(0.945093 -0.133236 -1.41046e-19)
(1.00903 -0.144732 -2.09949e-20)
(1.06696 -0.155483 5.20525e-19)
(1.11839 -0.165435 -4.91307e-19)
(1.16308 -0.174437 3.53296e-19)
(1.20102 -0.181972 3.73131e-19)
(1.22811 -0.190228 6.86218e-20)
(-0.0103193 0.00951494 1.04984e-19)
(-0.0173927 0.0193821 -5.70088e-19)
(-0.0112605 0.0235174 -2.06663e-19)
(0.00681427 0.0232374 1.8847e-19)
(0.0358534 0.0195916 -5.80134e-19)
(0.0749994 0.0133934 -1.14491e-19)
(0.123414 0.00525044 7.92974e-20)
(0.180238 -0.00436062 3.13235e-19)
(0.244545 -0.0150505 -7.93486e-19)
(0.315295 -0.0264946 6.04767e-20)
(0.391315 -0.0384183 -2.3231e-19)
(0.471289 -0.0505881 -7.07525e-19)
(0.553779 -0.0628049 4.82021e-19)
(0.637265 -0.0748995 2.12203e-20)
(0.720202 -0.0867286 -1.525e-20)
(0.801087 -0.0981724 4.85267e-19)
(0.878526 -0.109132 -8.51997e-19)
(0.951297 -0.119525 6.71958e-19)
(1.01839 -0.129287 -1.26075e-19)
(1.07906 -0.138366 3.75787e-19)
(1.13281 -0.146719 -6.2187e-19)
(1.1794 -0.154308 3.45983e-19)
(1.21885 -0.161024 -5.98943e-19)
(1.25144 -0.166654 5.93508e-19)
(1.27476 -0.172814 -1.98393e-19)
(-0.00979169 0.00855941 7.03073e-19)
(-0.014274 0.0162075 -1.14124e-19)
(-0.00429975 0.0182591 8.41678e-19)
(0.018612 0.0161445 3.89129e-19)
(0.0533215 0.0109992 3.11372e-20)
(0.0988307 0.00369429 1.69659e-19)
(0.154143 -0.00513475 4.07013e-20)
(0.218206 -0.0150037 6.91778e-19)
(0.289853 -0.02553 2.22834e-19)
(0.36777 -0.0364066 -3.00845e-20)
(0.450478 -0.0473865 5.97571e-20)
(0.536358 -0.0582718 2.30907e-19)
(0.623691 -0.0689064 1.92626e-19)
(0.710729 -0.0791703 4.11362e-19)
(0.795771 -0.0889741 -4.69242e-19)
(0.877244 -0.0982536 1.40118e-19)
(0.953777 -0.106965 4.50959e-20)
(1.02426 -0.115081 2.05743e-19)
(1.08786 -0.122583 5.44355e-19)
(1.14406 -0.129462 -3.61359e-19)
(1.19264 -0.135712 2.54557e-20)
(1.23364 -0.141327 -4.73244e-19)
(1.26734 -0.146264 4.34555e-19)
(1.29421 -0.150428 -3.95464e-19)
(1.3127 -0.155135 5.32825e-20)
(-0.00903525 0.00753909 -5.86038e-19)
(-0.0103886 0.0129746 4.47435e-19)
(0.00406821 0.0130759 -7.27155e-19)
(0.0325202 0.00932648 6.27039e-20)
(0.0736237 0.00292115 5.10962e-19)
(0.12619 -0.00522389 -8.51059e-19)
(0.189004 -0.0144537 6.75291e-19)
(0.260755 -0.0242836 -1.0719e-18)
(0.339975 -0.034345 2.13707e-19)
(0.425019 -0.0443585 4.57688e-20)
(0.514071 -0.054116 3.60693e-19)
(0.605198 -0.063469 -1.1979e-18)
(0.696419 -0.0723186 2.07175e-19)
(0.785805 -0.0806072 2.18346e-19)
(0.871572 -0.0883092 -1.29884e-19)
(0.952168 -0.0954232 -7.99381e-19)
(1.02634 -0.101963 3.78203e-19)
(1.09317 -0.107952 6.90546e-19)
(1.15209 -0.113415 -7.16373e-19)
(1.20287 -0.118375 5.1234e-19)
(1.24559 -0.122851 -6.42486e-19)
(1.28057 -0.126855 4.61906e-19)
(1.30834 -0.130362 -1.16884e-19)
(1.32954 -0.133324 6.67565e-19)
(1.34331 -0.136871 -7.31016e-19)
(-0.00799558 0.00643292 8.36739e-20)
(-0.00561106 0.00964052 6.61653e-20)
(0.0140041 0.00791972 1.61268e-19)
(0.0487047 0.0027458 5.7573e-19)
(0.0968982 -0.00465755 -1.8094e-20)
(0.157149 -0.0133454 1.28479e-19)
(0.227961 -0.0226563 5.73091e-19)
(0.307695 -0.0321169 2.31556e-19)
(0.394522 -0.0413861 -7.62985e-20)
(0.486423 -0.0502266 6.4964e-19)
(0.581225 -0.0584855 -7.39206e-19)
(0.676694 -0.0660798 1.13305e-18)
(0.770634 -0.0729822 -4.48683e-19)
(0.86101 -0.0792084 8.0952e-19)
(0.946045 -0.084803 -2.73345e-19)
(1.02431 -0.0898279 9.88296e-20)
(1.09476 -0.0943507 1.18904e-19)
(1.15676 -0.0984361 -2.21381e-19)
(1.21007 -0.10214 1.87326e-19)
(1.25478 -0.105505 1.19115e-19)
(1.29125 -0.108561 1.58136e-19)
(1.32009 -0.111325 3.1904e-19)
(1.34204 -0.113772 -3.45325e-20)
(1.35788 -0.115885 -1.43061e-19)
(1.36725 -0.118645 3.86263e-19)
(-0.00662163 0.00523138 -4.88904e-19)
(0.000176833 0.00618786 5.15347e-20)
(0.0256553 0.00277606 -9.2772e-19)
(0.0673076 -0.00359817 -2.21456e-19)
(0.123246 -0.0117142 -4.15034e-19)
(0.191726 -0.0206188 -8.88989e-20)
(0.2709 -0.0296617 -4.44965e-19)
(0.358736 -0.0383988 -2.66253e-19)
(0.452991 -0.046535 3.52678e-19)
(0.55124 -0.0538948 -5.8855e-19)
(0.650961 -0.0603999 -1.63447e-19)
(0.749655 -0.0660494 5.90896e-21)
(0.844987 -0.0709001 -1.0963e-18)
(0.934907 -0.0750469 4.64051e-19)
(1.01776 -0.0786048 -6.71632e-19)
(1.09233 -0.0816924 -1.96433e-20)
(1.15789 -0.0844197 1.26655e-19)
(1.21415 -0.0868788 -2.09889e-19)
(1.2612 -0.0891399 -1.81325e-19)
(1.29947 -0.09125 8.42761e-20)
(1.32963 -0.0932343 9.09759e-20)
(1.35248 -0.0950993 -5.9492e-19)
(1.36895 -0.09681 3.36477e-19)
(1.37992 -0.0983643 1.56005e-19)
(1.38535 -0.100636 2.88813e-20)
(-0.00486651 0.00393601 4.99352e-19)
(0.00708346 0.00262558 -5.31953e-19)
(0.0391529 -0.00233388 7.46624e-19)
(0.0884459 -0.0096646 1.16682e-19)
(0.152727 -0.0181829 -3.55771e-20)
(0.22988 -0.0269514 -2.51617e-19)
(0.317633 -0.0353545 3.76949e-20)
(0.413499 -0.0430008 3.8317e-19)
(0.514779 -0.0496653 -5.28573e-19)
(0.618636 -0.0552576 5.54845e-19)
(0.722229 -0.0597941 -5.84862e-20)
(0.822865 -0.0633709 2.76423e-20)
(0.918164 -0.066136 7.14744e-19)
(1.00618 -0.0682634 9.47992e-19)
(1.08548 -0.0699301 -3.71698e-19)
(1.15519 -0.0712984 6.44054e-19)
(1.21493 -0.0725032 3.16784e-19)
(1.2648 -0.0736461 -1.97744e-19)
(1.30526 -0.0747941 6.01144e-19)
(1.33704 -0.0759823 -3.17123e-20)
(1.36105 -0.0772193 -5.57891e-19)
(1.3783 -0.0784919 5.71962e-19)
(1.38981 -0.0797477 7.2988e-20)
(1.3965 -0.0809931 -3.34836e-19)
(1.39855 -0.083007 1.06035e-19)
(-0.00268767 0.0025582 -6.93422e-19)
(0.0152062 -0.00101243 7.24922e-19)
(0.0546098 -0.00735334 -4.59725e-19)
(0.112207 -0.015371 -1.43234e-19)
(0.18536 -0.0239543 -3.22017e-19)
(0.27151 -0.0322109 5.70092e-19)
(0.367893 -0.0395881 -3.31273e-19)
(0.471513 -0.0457768 -1.51927e-19)
(0.579194 -0.0506504 -4.34331e-19)
(0.687707 -0.0542283 1.15829e-20)
(0.793949 -0.0566401 -1.69778e-19)
(0.895134 -0.0580883 8.09583e-20)
(0.988955 -0.0588122 -8.58105e-19)
(1.07369 -0.0590561 2.44737e-19)
(1.14824 -0.0590437 -2.89775e-19)
(1.21213 -0.0589612 -2.28251e-19)
(1.2654 -0.058948 6.89952e-20)
(1.30854 -0.0590956 -3.24221e-19)
(1.34235 -0.0594511 -1.31098e-19)
(1.36784 -0.0600248 3.89294e-19)
(1.38611 -0.0607993 1.55627e-19)
(1.39828 -0.0617362 -6.66471e-19)
(1.40543 -0.0627623 4.77437e-19)
(1.40849 -0.0638883 -8.91279e-20)
(1.40773 -0.0658059 -1.76273e-19)
(-4.66066e-05 0.00111774 -2.51568e-19)
(0.0246305 -0.00466997 -1.34565e-19)
(0.0721177 -0.0121931 -2.66294e-20)
(0.138647 -0.0205969 1.98168e-19)
(0.221115 -0.0288811 2.1555e-19)
(0.316451 -0.0362316 1.87715e-19)
(0.421336 -0.0421939 2.33955e-19)
(0.532228 -0.0465745 3.56977e-19)
(0.645474 -0.0493756 5.4552e-19)
(0.757503 -0.0507501 5.38155e-19)
(0.865047 -0.0509537 2.82895e-19)
(0.965347 -0.0502974 -7.65272e-20)
(1.0563 -0.0491029 1.90592e-20)
(1.13652 -0.0476676 -2.1195e-20)
(1.20534 -0.04624 2.20086e-19)
(1.26273 -0.0450069 -5.25851e-20)
(1.30917 -0.0440908 6.22741e-19)
(1.34552 -0.0435548 -2.82585e-19)
(1.37288 -0.0434126 1.67476e-21)
(1.39247 -0.0436408 1.81129e-19)
(1.40552 -0.0441908 -4.01066e-19)
(1.41323 -0.0449971 6.45408e-19)
(1.41666 -0.0459673 -5.16852e-19)
(1.41672 -0.0471138 8.89719e-20)
(1.41372 -0.049042 -3.18871e-19)
(0.00309135 -0.000358704 5.39308e-19)
(0.0354282 -0.00827172 3.63833e-19)
(0.0917437 -0.0167362 -2.33104e-19)
(0.167779 -0.0251902 1.03244e-18)
(0.259906 -0.0327856 -8.94511e-19)
(0.364467 -0.0388261 1.88139e-19)
(0.477538 -0.0429939 -1.41698e-19)
(0.595012 -0.0452486 -6.26629e-19)
(0.712798 -0.0457507 -6.47186e-20)