/*--------------------------------*- C++ -*----------------------------------*\
  =========                 |
  \\      /  F ield         | OpenFOAM: The Open Source CFD Toolbox
   \\    /   O peration     | Website:  https://openfoam.org
    \\  /    A nd           | Version:  6.0
     \\/     M anipulation  |
\*---------------------------------------------------------------------------*/
FoamFile
{
    version     2.0;
    format      ascii;
    class       surfaceScalarField;
    location    "22.1";
    object      phi;
}
// * * * * * * * * * * * * * * * * * * * * * * * * * * * * * * * * * * * * * //

dimensions      [0 3 -1 0 0 0 0];

internalField   nonuniform List<scalar> 
15760
(
-2.87064e-06
2.68068e-06
1.89966e-07
-1.01452e-05
6.81602e-06
4.58583e-07
-2.0761e-05
9.97167e-06
6.4404e-07
-3.38504e-05
1.23234e-05
7.66044e-07
-4.87175e-05
1.40267e-05
8.4039e-07
-6.48173e-05
1.522e-05
8.79822e-07
-8.17365e-05
1.60248e-05
8.94436e-07
-9.91757e-05
1.65472e-05
8.92072e-07
-0.000116934
1.68798e-05
8.78695e-07
-0.000134896
1.7103e-05
8.58758e-07
-0.000153018
1.72863e-05
8.35504e-07
-0.000171318
1.74891e-05
8.11244e-07
-0.000189867
1.77611e-05
7.87581e-07
-0.000208775
1.81431e-05
7.65591e-07
-0.000228188
1.86663e-05
7.4595e-07
-0.00024827
1.93534e-05
7.29021e-07
-0.000269203
2.02181e-05
7.14906e-07
-0.000291172
2.12654e-05
7.03481e-07
-0.00031436
2.24938e-05
6.94537e-07
2.39019e-05
6.87841e-07
-0.00033895
-2.85784e-06
5.53852e-06
-1.0098e-05
1.40562e-05
-2.06577e-05
2.05314e-05
-3.3668e-05
2.53336e-05
-4.84299e-05
2.87887e-05
-6.4395e-05
3.1185e-05
-8.11449e-05
3.27747e-05
-9.83747e-05
3.3777e-05
-0.000115877
3.43822e-05
-0.000133529
3.47552e-05
-0.000151281
3.5038e-05
-0.000169144
3.53523e-05
-0.000187183
3.58001e-05
-0.000205505
3.64651e-05
-0.000224252
3.74127e-05
-0.000243589
3.86903e-05
-0.000263698
4.03274e-05
-0.000284768
4.23356e-05
-0.000306988
4.47137e-05
4.74584e-05
-0.000330544
-2.8319e-06
8.37042e-06
-1.00023e-05
2.12266e-05
-2.0449e-05
3.09781e-05
-3.33002e-05
3.81848e-05
-4.78526e-05
4.33411e-05
-6.35504e-05
4.68828e-05
-7.99664e-05
4.91907e-05
-9.67847e-05
5.05952e-05
-0.000113785
5.13827e-05
-0.000130832
5.18015e-05
-0.000147859
5.20658e-05
-0.000164867
5.23602e-05
-0.000181908
5.28409e-05
-0.00019908
5.36371e-05
-0.000216519
5.4852e-05
-0.000234391
5.65618e-05
-0.00025288
5.88162e-05
-0.000272182
6.16377e-05
-0.000292496
6.50278e-05
6.89834e-05
-0.000314021
-2.79488e-06
1.11653e-05
-9.86415e-06
2.82959e-05
-2.01463e-05
4.12602e-05
-3.27661e-05
5.08047e-05
-4.70139e-05
5.75888e-05
-6.23244e-05
6.21933e-05
-7.8258e-05
6.51244e-05
-9.44831e-05
6.68203e-05
-0.000110761
6.7661e-05
-0.000126936
6.79761e-05
-0.000142922
6.80515e-05
-0.000158696
6.8135e-05
-0.000174295
6.84391e-05
-0.0001898
6.9143e-05
-0.000205341
7.03924e-05
-0.000221078
7.22993e-05
-0.000237202
7.49403e-05
-0.00025392
7.83557e-05
-0.000271448
8.25557e-05
8.75402e-05
-0.000290005
-2.74936e-06
1.39147e-05
-9.6912e-06
3.52377e-05
-1.97641e-05
5.13331e-05
-3.2089e-05
6.31296e-05
-4.59489e-05
7.14487e-05
-6.07679e-05
7.70124e-05
-7.60916e-05
8.0448e-05
-9.1569e-05
8.22977e-05
-0.000106939
8.30308e-05
-0.000122018
8.30552e-05
-0.000136693
8.27264e-05
-0.000150913
8.23556e-05
-0.000164688
8.2214e-05
-0.00017808
8.25348e-05
-0.000191202
8.35138e-05
-0.00020421
8.53074e-05
-0.000217299
8.80298e-05
-0.000230693
9.17493e-05
-0.000244632
9.64952e-05
0.000102277
-0.000259369
-2.69795e-06
1.66126e-05
-9.49092e-06
4.20307e-05
-1.93163e-05
6.11584e-05
-3.1291e-05
7.51044e-05
-4.46914e-05
8.4849e-05
-5.89306e-05
9.12516e-05
-7.35384e-05
9.50558e-05
-8.81429e-05
9.69023e-05
-0.000102456
9.73443e-05
-0.000116264
9.68632e-05
-0.000129419
9.58808e-05
-0.000141833
9.47702e-05
-0.000153482
9.38625e-05
-0.000164397
9.34498e-05
-0.000174669
9.3786e-05
-0.000184445
9.50834e-05
-0.000193923
9.75079e-05
-0.000203346
0.000101172
-0.00021299
0.000106139
0.000112441
-0.000223154
-2.64271e-06
1.92553e-05
-9.26875e-06
4.86567e-05
-1.88125e-05
7.07022e-05
-3.03874e-05
8.66793e-05
-4.3264e-05
9.77257e-05
-5.68466e-05
0.000104834
-7.06502e-05
0.000108859
-8.42822e-05
0.000110534
-9.74269e-05
0.000110489
-0.000109835
0.000109272
-0.00012132
0.000107365
-0.000131749
0.0001052
-0.000141054
0.000103167
-0.000149225
0.000101621
-0.000156321
0.000100882
-0.000162468
0.000101231
-0.000167865
0.000102905
-0.000172775
0.000106082
-0.000177521
0.000110885
0.000117388
-0.000182469
-2.58458e-06
2.18399e-05
-9.02635e-06
5.50985e-05
-1.82543e-05
7.99301e-05
-2.93791e-05
9.78041e-05
-4.16683e-05
0.000110015
-5.45198e-05
0.000117686
-6.74378e-05
0.000121777
-8.00112e-05
0.000123108
-9.18982e-05
0.000122376
-0.000102815
0.000120188
-0.00011253
0.00011708
-0.000120862
0.000113533
-0.000127688
0.000109993
-0.000132945
0.000106878
-0.000136644
0.000104581
-0.00013888
0.000103467
-0.00013984
0.000103865
-0.000139807
0.000106049
-0.000139157
0.000110236
0.000116579
-0.000138348
-2.52297e-06
2.43629e-05
-8.7601e-06
6.13356e-05
-1.76322e-05
8.88022e-05
-2.82479e-05
0.00010842
-3.98748e-05
0.000121642
-5.19093e-05
0.00012972
-6.38494e-05
0.000133717
-7.52716e-05
0.00013453
-8.58123e-05
0.000132917
-9.5156e-05
0.000129532
-0.000103028
0.000124952
-0.000109195
0.0001197
-0.00011347
0.000114268
-0.000115725
0.000109132
-0.000115906
0.000104762
-0.000114057
0.000101618
-0.000110336
0.000100144
-0.000105035
0.000100748
-9.859e-05
0.000103791
0.000109564
-9.15755e-05
-2.45555e-06
2.68184e-05
-8.46043e-06
6.73405e-05
-1.69237e-05
9.72654e-05
-2.69525e-05
0.000118449
-3.78171e-05
0.000132506
-4.89176e-05
0.000140821
-5.97528e-05
0.000144553
-6.98941e-05
0.000144671
-7.89649e-05
0.000141988
-8.66254e-05
0.000137193
-9.2564e-05
0.00013089
-9.64959e-05
0.000123631
-9.8169e-05
0.000115941
-9.73783e-05
0.000108342
-9.39888e-05
0.000101373
-8.79673e-05
9.55964e-05
-7.94175e-05
9.1594e-05
-6.86187e-05
8.9949e-05
-5.60606e-05
9.12326e-05
9.59641e-05
-4.24605e-05
-2.37838e-06
2.91968e-05
-8.11197e-06
7.30741e-05
-1.60935e-05
0.000105247
-2.54274e-05
0.000127783
-3.53888e-05
0.000142468
-4.53853e-05
0.000150817
-5.49235e-05
0.000154091
-6.3579e-05
0.000153327
-7.09729e-05
0.000149381
-7.67535e-05
0.000142973
-8.05842e-05
0.000134721
-8.21391e-05
0.000125186
-8.11059e-05
0.000114908
-7.72002e-05
0.000104436
-7.01918e-05
9.43644e-05
-5.99459e-05
8.53504e-05
-4.64769e-05
7.8125e-05
-3.00144e-05
7.34866e-05
-1.10789e-05
7.2297e-05
7.54321e-05
9.45322e-06
-2.28639e-06
3.14832e-05
-7.69496e-06
7.84826e-05
-1.50956e-05
0.000112648
-2.35867e-05
0.000136274
-3.24467e-05
0.000151328
-4.10933e-05
0.000159464
-4.90451e-05
0.000162043
-5.58903e-05
0.000160172
-6.12592e-05
0.00015475
-6.48038e-05
0.000146518
-6.61808e-05
0.000136098
-6.50423e-05
0.000124048
-6.10337e-05
0.000110899
-5.38023e-05
9.72046e-05
-4.30223e-05
8.35843e-05
-2.84395e-05
7.07676e-05
-9.94208e-06
5.96276e-05
1.23418e-05
5.12027e-05
3.79103e-05
4.67286e-05
4.76091e-05
6.57333e-05
-2.17413e-06
3.36573e-05
-7.18743e-06
8.34959e-05
-1.38778e-05
0.000119338
-2.13298e-05
0.000143726
-2.88206e-05
0.000158819
-3.57744e-05
0.000166418
-4.17225e-05
0.000167991
-4.62692e-05
0.000164719
-4.90637e-05
0.000157545
-4.97759e-05
0.00014723
-4.80777e-05
0.0001344
-4.36272e-05
0.000119597
-3.60593e-05
0.000103331
-2.49851e-05
8.61304e-05
-1.00061e-05
6.86054e-05
9.24584e-06
5.15157e-05
3.30332e-05
3.58402e-05
6.13873e-05
2.28486e-05
9.39052e-05
1.42107e-05
1.20619e-05
0.000129452
-2.03671e-06
3.5694e-05
-6.56802e-06
8.80272e-05
-1.23867e-05
0.000125157
-1.85514e-05
0.00014989
-2.43266e-05
0.000164594
-2.91339e-05
0.000171225
-3.25099e-05
0.000171367
-3.40713e-05
0.00016628
-3.34869e-05
0.000156961
-3.04543e-05
0.000144197
-2.46791e-05
0.000128625
-1.58564e-05
0.000110775
-3.65488e-06
9.11296e-05
1.22966e-05
7.01789e-05
3.24109e-05
4.84911e-05
5.71234e-05
2.68032e-05
8.6831e-05
6.1326e-06
0.000121763
-1.20831e-05
0.000161719
-2.57451e-05
-3.18011e-05
0.000205582
-1.87061e-06
3.75647e-05
-5.81845e-06
9.19751e-05
-1.05734e-05
0.000129912
-1.51503e-05
0.000154467
-1.87837e-05
0.000168227
-2.08751e-05
0.000173316
-2.09493e-05
0.000171441
-1.86205e-05
0.000163951
-1.35665e-05
0.000151907
-5.50827e-06
0.000136139
5.80741e-06
0.000117309
2.06243e-05
9.59579e-05
3.91953e-05
7.25586e-05
6.18028e-05
4.75714e-05
8.87801e-05
2.15137e-05
0.000120523
-4.94001e-06
0.000157471
-3.08155e-05
0.000200019
-5.46312e-05
0.000248259
-7.39851e-05
-8.4841e-05
0.000301299
-1.67402e-06
3.92387e-05
-4.92479e-06
9.52259e-05
-8.39615e-06
0.000133383
-1.10365e-05
0.000157108
-1.20263e-05
0.000169217
-1.07216e-05
0.000172012
-6.60873e-06
0.000167328
7.28173e-07
0.000156614
1.16289e-05
0.000141006
2.63714e-05
0.000121396
4.51809e-05
9.84996e-05
6.82376e-05
7.29011e-05
9.56875e-05
4.51087e-05
0.00012766
1.55992e-05
0.000164295
-1.51219e-05
0.000205787
-4.64318e-05
0.000252418
-7.7446e-05
0.000304569
-0.000106783
0.000362598
-0.000132014
-0.00014831
0.000426067
-1.44652e-06
4.06852e-05
-3.87657e-06
9.76559e-05
-5.82006e-06
0.000135326
-6.1314e-06
0.000157419
-3.90842e-06
0.000166994
1.57021e-06
0.000166533
1.08917e-05
0.000158007
2.45403e-05
0.000142966
4.29141e-05
0.000122632
6.63317e-05
9.7979e-05
9.5029e-05
6.98022e-05
0.000129153
3.87769e-05
0.000168754
5.50756e-06
0.000213783
-2.94291e-05
0.000264101
-6.54399e-05
0.000319521
-0.000101852
0.000379878
-0.000137803
0.000445138
-0.000172043
0.000515552
-0.000202428
-0.000224045
0.000591287
-1.18785e-06
4.1873e-05
-2.66346e-06
9.91315e-05
-2.81076e-06
0.000135474
-3.60185e-07
0.000154968
5.70496e-06
0.000160929
1.62181e-05
0.00015602
3.18793e-05
0.000142345
5.32847e-05
0.00012156
8.094e-05
9.49766e-05
0.000115258
6.36606e-05
0.000156547
2.85135e-05
0.000204984
-9.65969e-06
0.000260584
-5.00928e-05
0.000323165
-9.20103e-05
0.000392311
-0.000134585
0.000467352
-0.000176894
0.000547396
-0.000217846
0.000631429
-0.000256076
0.000718663
-0.000289663
-0.000315334
0.000809952
-8.96029e-07
4.27691e-05
-1.26972e-06
9.95052e-05
6.75363e-07
0.000133529
6.36366e-06
0.00014928
1.69582e-05
0.000150334
3.34388e-05
0.000139539
5.6655e-05
0.000119129
8.73559e-05
9.08593e-05
0.0001262
5.61325e-05
0.000173749
1.61117e-05
0.000230448
-2.81853e-05
0.000296592
-7.58039e-05
0.00037228
-0.000125781
0.000457347
-0.000177077
0.000551269
-0.000228507
0.000653036
-0.000278661
0.000761
-0.000325811
0.000872688
-0.000367764
0.000984912
-0.000401886
-0.000428724
0.0010983
-5.65144e-07
4.33342e-05
3.32132e-07
9.86079e-05
4.7031e-06
0.000129158
1.41567e-05
0.000139826
3.00314e-05
0.00013446
5.34818e-05
0.000116089
8.55345e-05
8.70765e-05
0.000127116
4.92773e-05
0.000179063
4.18559e-06
0.000242113
-4.69378e-05
0.000316889
-0.000102961
0.00040388
-0.000162795
0.000503416
-0.000225317
0.000615633
-0.000289294
0.000740417
-0.000353291
0.000877295
-0.000415539
0.00102515
-0.000473668
0.00118132
-0.000523935
0.00133844
-0.000559
-0.000563796
0.00147351
-1.84257e-07
4.35185e-05
2.18537e-06
9.62383e-05
9.36687e-06
0.000121976
2.31799e-05
0.000126013
4.51612e-05
0.000112478
7.66578e-05
8.45921e-05
0.000118882
4.48527e-05
0.000172933
-4.77371e-06
0.000239802
-6.26834e-05
0.000320361
-0.000127497
0.000415356
-0.000197956
0.000525406
-0.000272845
0.000651029
-0.00035094
0.000792715
-0.000430979
0.000951078
-0.000511654
0.00112716
-0.00059162
0.00132298
-0.000669486
0.00154281
-0.000743768
0.00179705
-0.000813241
-0.000874949
0.0021082
2.66106e-07
4.32524e-05
4.35554e-06
9.21489e-05
1.47992e-05
0.000111533
3.36478e-05
0.000107165
6.26503e-05
8.3476e-05
0.000103348
4.38948e-05
0.000157119
-8.91826e-06
0.00022519
-7.28448e-05
0.000308622
-0.000146116
0.000408292
-0.000227167
0.000524869
-0.000314534
0.000658821
-0.000406797
0.000810437
-0.000502556
0.0009799
-0.000600442
0.00116741
-0.000699164
0.00137338
-0.000797595
0.00159878
-0.000894884
0.00184559
-0.000990572
0.00211697
-0.00108462
-0.00116953
0.00241155
8.09419e-07
4.2443e-05
6.92165e-06
8.60367e-05
2.11576e-05
9.72966e-05
4.58106e-05
8.25117e-05
8.2842e-05
4.64446e-05
0.000133966
-7.22942e-06
0.000200678
-7.56298e-05
0.000284237
-0.000156404
0.000385634
-0.000247513
0.000505547
-0.000347079
0.000644309
-0.000453296
0.000801903
-0.000564391
0.000977974
-0.000678627
0.00117189
-0.000794355
0.0013828
-0.000910075
0.00160974
-0.00102454
0.00185171
-0.00113685
0.00210767
-0.00124653
0.00237634
-0.0013533
-0.00144865
0.00265546
1.47383e-06
4.09691e-05
9.97365e-06
7.75368e-05
2.86147e-05
7.86556e-05
5.9931e-05
5.11954e-05
0.000106076
2.99205e-07
0.000168889
-7.00419e-05
0.000249886
-0.000156627
0.000350218
-0.000256736
0.000470606
-0.000367901
0.000611279
-0.000487753
0.000771943
-0.000613961
0.000951778
-0.000744225
0.00114947
-0.000876321
0.00136329
-0.00100817
0.00159117
-0.00113795
0.00183077
-0.00126414
0.00207953
-0.00138562
0.0023347
-0.00150169
0.00259332
-0.00161192
-0.00170907
0.00285373
2.28837e-06
3.86808e-05
1.36011e-05
6.62241e-05
3.73348e-05
5.49219e-05
7.62426e-05
1.22876e-05
0.000132623
-5.6081e-05
0.000208347
-0.000145766
0.000304811
-0.000253091
0.000422856
-0.000374782
0.000562681
-0.000507725
0.000723782
-0.000648854
0.000904944
-0.000795123
0.00110428
-0.000943563
0.00131934
-0.00109138
0.0015472
-0.00123604
0.00178467
-0.00137542
0.00202835
-0.00150782
0.00227479
-0.00163206
0.00252052
-0.00174742
0.00276219
-0.00185359
-0.00194538
0.0029985
3.27971e-06
3.54011e-05
1.78822e-05
5.16215e-05
4.74505e-05
2.53537e-05
9.49076e-05
-3.51694e-05
0.00016261
-0.000123783
0.000252322
-0.000235477
0.000365118
-0.000365887
0.000501272
-0.000510935
0.000660167
-0.00066662
0.000840276
-0.000828963
0.00103922
-0.000994062
0.00125388
-0.00115823
0.00148063
-0.00131812
0.00171551
-0.00147092
0.00195449
-0.0016144
0.00219364
-0.00174697
0.00242926
-0.00186769
0.00265803
-0.00197618
0.00287707
-0.00207263
-0.00215392
0.00308561
4.4694e-06
3.09317e-05
2.28739e-05
3.3217e-05
5.90406e-05
-1.0813e-05
0.000115978
-9.21071e-05
0.000195968
-0.000203773
0.000300468
-0.000339977
0.000429971
-0.000495391
0.000583883
-0.000664847
0.000760473
-0.00084321
0.000956939
-0.00102543
0.00116958
-0.00120671
0.00139408
-0.00138272
0.00162577
-0.00154981
0.00186
-0.00170516
0.00209241
-0.0018468
0.00231908
-0.00197364
0.00253675
-0.00208536
0.00274284
-0.00218227
0.00293548
-0.00226527
-0.00233307
0.00311463
5.87196e-06
2.50597e-05
2.86047e-05
1.04843e-05
7.2115e-05
-5.43234e-05
0.00013937
-0.000159362
0.000232386
-0.000296789
0.00035206
-0.000459652
0.000497997
-0.000641327
0.000668418
-0.000835268
0.000860217
-0.00103501
0.00106917
-0.00123438
0.00129028
-0.00142782
0.0015182
-0.00161063
0.00174763
-0.00177924
0.00197372
-0.00193125
0.00219232
-0.0020654
0.00240017
-0.00218148
0.0025949
-0.00228009
0.00277509
-0.00236246
0.00294009
-0.00243027
-0.00248373
0.00309076
7.49398e-06
1.75657e-05
3.50705e-05
-1.70922e-05
8.66046e-05
-0.000105858
0.000164845
-0.000237603
0.000271299
-0.000403243
0.000405994
-0.000594347
0.000567318
-0.000802651
0.000752028
-0.00101998
0.000955478
-0.00123846
0.00117204
-0.00145094
0.00139563
-0.00165141
0.00162028
-0.00183528
0.00184058
-0.00199954
0.00205205
-0.00214272
0.00225133
-0.00226468
0.0024362
-0.00236635
0.00260554
-0.00244943
0.00275916
-0.00251608
0.00289759
-0.0025687
-0.00260862
0.00302247
9.33378e-06
8.23194e-06
4.22326e-05
-4.9991e-05
0.000102357
-0.000165982
0.000192009
-0.000327254
0.000311887
-0.000523121
0.000460815
-0.000743275
0.000635655
-0.000977491
0.000831504
-0.00121583
0.00104217
-0.00144913
0.00126084
-0.00166961
0.00148076
-0.00187133
0.00169587
-0.00205039
0.00190125
-0.00220492
0.00209332
-0.00233479
0.00226989
-0.00244126
0.00243004
-0.00252651
0.0025739
-0.00259329
0.00270239
-0.00264457
0.00281694
-0.00268326
-0.00271141
0.00291973
1.13813e-05
-3.1494e-06
5.0017e-05
-8.86267e-05
0.000119135
-0.0002351
0.000220313
-0.000428432
0.000353105
-0.000655913
0.000514796
-0.000904965
0.000700483
-0.00116318
0.000903557
-0.0014189
0.00111647
-0.00166204
0.00133163
-0.00188477
0.00154217
-0.00208187
0.00174254
-0.00225077
0.00192882
-0.0023912
0.0020987
-0.00250467
0.00225135
-0.0025939
0.00238711
-0.00266227
0.00250719
-0.00271337
0.00261331
-0.00275069
0.00270746
-0.00277741
-0.00279596
0.00279201
1.36181e-05
-1.67675e-05
5.83141e-05
-0.000133323
0.000136623
-0.000313409
0.000249073
-0.000540882
0.000393728
-0.000800568
0.000566042
-0.00107728
0.000759238
-0.00135637
0.000965134
-0.0016248
0.00117521
-0.00187212
0.00138165
-0.0020912
0.00157808
-0.0022783
0.00175999
-0.00243268
0.0019248
-0.00255601
0.00207161
-0.00265149
0.00220091
-0.0027232
0.00231409
-0.00277545
0.00241312
-0.00281239
0.00250018
-0.00283775
0.00257747
-0.0028547
-0.00286578
0.00264729
1.60165e-05
-3.2784e-05
6.69795e-05
-0.000184286
0.000154428
-0.000400857
0.000277494
-0.000663948
0.000432416
-0.00095549
0.000612631
-0.0012575
0.000809536
-0.00155328
0.00101371
-0.00182897
0.00121619
-0.00207461
0.00140955
-0.00228456
0.00158845
-0.00245719
0.00174976
-0.002594
0.0018924
-0.00269864
0.00201681
-0.0027759
0.00212455
-0.00283094
0.00221778
-0.00286867
0.00229885
-0.00289347
0.00237012
-0.00290902
0.00243371
-0.00291829
-0.00292374
0.00249167
1.85401e-05
-5.13241e-05
7.5836e-05
-0.000241582
0.000172096
-0.000497117
0.000304703
-0.000796556
0.000467803
-0.00111859
0.000652758
-0.00144245
0.00084938
-0.0017499
0.00104749
-0.00202708
0.00123832
-0.00226543
0.00141537
-0.00246161
0.0015747
-0.00261653
0.00171476
-0.00273406
0.00183585
-0.00281973
0.00193955
-0.00287961
0.00202819
-0.00291957
0.00210431
-0.00294479
0.00217041
-0.00295957
0.00222873
-0.00296734
0.00228121
-0.00297077
-0.00297205
0.00232952
2.11432e-05
-7.24673e-05
8.46774e-05
-0.000305116
0.000189129
-0.000601569
0.000329805
-0.000937232
0.000498588
-0.00128737
0.000684881
-0.00162874
0.000877322
-0.00194234
0.00106557
-0.00221533
0.00124161
-0.00244147
0.00140031
-0.00262031
0.00153934
-0.00275555
0.00165863
-0.00285334
0.00175969
-0.00292079
0.00184492
-0.00296484
0.00191706
-0.00299171
0.00197879
-0.00300652
0.00203249
-0.00301328
0.00208019
-0.00301504
0.00212351
-0.00301409
-0.00301232
0.00216379
2.37715e-05
-9.62387e-05
9.3275e-05
-0.000374619
0.000205005
-0.000713299
0.000351928
-0.00108415
0.000523629
-0.00145907
0.000707838
-0.00181295
0.000892551
-0.00212705
0.00106787
-0.00239064
0.001227
-0.00260061
0.00136645
-0.00275975
0.00148545
-0.00287456
0.00158526
-0.00295315
0.00166828
-0.00300381
0.0017374
-0.00303397
0.00179551
-0.00304982
0.00184519
-0.0030562
0.0018886
-0.00305668
0.00192744
-0.00305388
0.00196303
-0.00304968
-0.00304568
0.00199639
2.63639e-05
-0.000122603
0.000101387
-0.000449643
0.000219212
-0.000831124
0.000370287
-0.00123523
0.000542025
-0.00163081
0.000720912
-0.00199184
0.000894894
-0.00230104
0.00105504
-0.00255079
0.00119613
-0.0027417
0.00131633
-0.00287994
0.00141631
-0.00297454
0.00149836
-0.0030352
0.00156548
-0.00307092
0.00162074
-0.00308924
0.00166697
-0.00309605
0.00170651
-0.00309573
0.00174121
-0.00309138
0.00177247
-0.00308515
0.00180133
-0.00307854
-0.00307287
0.00182852
2.88541e-05
-0.000151457
0.000108771
-0.00052956
0.00023127
-0.000953623
0.000384232
-0.00138819
0.000553166
-0.00179975
0.000723849
-0.00216252
0.00088475
-0.00246194
0.00102832
-0.00269437
0.00115106
-0.00286444
0.00125268
-0.00298157
0.00133509
-0.00305695
0.00140127
-0.00310139
0.00145452
-0.00312417
0.0014979
-0.00313261
0.001534
-0.00313215
0.00156486
-0.0031266
0.00159203
-0.00311855
0.00161662
-0.00310973
0.00163941
-0.00310133
-0.0030944
0.00166093
3.11739e-05
-0.000182631
0.000115193
-0.000613578
0.000240765
-0.0010792
0.000393281
-0.00154071
0.000556756
-0.00196322
0.000716823
-0.00232259
0.000862974
-0.00260809
0.000989305
-0.0028207
0.001094
-0.00296913
0.00117819
-0.00306575
0.00124465
-0.00312341
0.00129681
-0.00315355
0.00133801
-0.00316537
0.00137113
-0.00316574
0.00139848
-0.0031595
0.00142177
-0.00314989
0.00144224
-0.00313902
0.00146075
-0.00312825
0.0014779
-0.00311848
-0.00311056
0.00149407
3.32556e-05
-0.000215886
0.000120442
-0.000700765
0.000247367
-0.00120612
0.00039715
-0.00169049
0.000552801
-0.00211887
0.000700366
-0.00247015
0.000830737
-0.00273846
0.000939759
-0.00292972
0.0010272
-0.00305657
0.00109529
-0.00313385
0.00114744
-0.00317557
0.00118726
-0.00319336
0.00121795
-0.00319606
0.00124213
-0.00318992
0.00126177
-0.00317913
0.00127826
-0.00316638
0.0012926
-0.00315335
0.00130543
-0.00314108
0.00131722
-0.00313027
-0.00312155
0.00132821
3.50394e-05
-0.000250926
0.000124349
-0.000790075
0.000250861
-0.00133263
0.000395757
-0.00183539
0.000541587
-0.0022647
0.000675294
-0.00260386
0.00078941
-0.00285258
0.000881509
-0.00302182
0.000952726
-0.00312779
0.00100615
-0.00318727
0.00104553
-0.00321495
0.00107445
-0.00322228
0.00109589
-0.0032175
0.00111214
-0.00320617
0.00112482
-0.00319182
0.00113507
-0.00317663
0.00114365
-0.00316193
0.00115106
-0.0031485
0.00115765
-0.00313685
-0.00312747
0.00116357
3.64622e-05
-0.000287388
0.000126764
-0.000880377
0.000251106
-0.00145697
0.000389168
-0.00197345
0.000523574
-0.00239911
0.000642548
-0.00272283
0.000740381
-0.00295041
0.000816252
-0.00309769
0.00087242
-0.00318395
0.000912555
-0.00322741
0.000940534
-0.00324293
0.000959771
-0.00324151
0.000972944
-0.00323067
0.000981999
-0.00321522
0.000988271
-0.00319809
0.000992649
-0.00318101
0.00099572
-0.003165
0.000997872
-0.00315065
0.00099935
-0.00313833
-0.0031284
0.00100027
3.74793e-05
-0.000324867
0.000127603
-0.000970501
0.000248097
-0.00157747
0.000377635
-0.00210299
0.000499413
-0.00252089
0.000603205
-0.00282663
0.000685063
-0.00303227
0.000745584
-0.00315821
0.000787896
-0.00322627
0.000816007
-0.00325552
0.000833751
-0.00326067
0.000844284
-0.00325205
0.000849949
-0.00323634
0.000852367
-0.00321764
0.000852608
-0.00319833
0.000851363
-0.00317977
0.000849083
-0.00316272
0.000846064
-0.00314764
0.000842491
-0.00313476
-0.00312435
0.000838446
3.80538e-05
-0.000362921
0.000126821
-0.00105927
0.000241915
-0.00169256
0.000361523
-0.00222259
0.000469836
-0.0026292
0.000558343
-0.00291513
0.000624766
-0.00309869
0.000670903
-0.00320435
0.000700501
-0.00325586
0.000717708
-0.00327272
0.00072619
-0.00326916
0.000728789
-0.00325465
0.000727513
-0.00323506
0.000723689
-0.00321381
0.00071816
-0.0031928
0.000711455
-0.00317306
0.000703921
-0.00315518
0.000695786
-0.0031395
0.000687193
-0.00312617
-0.00311536
0.000678201
3.81604e-05
-0.000401081
0.000124421
-0.00114553
0.000232723
-0.00180086
0.000341282
-0.00233115
0.00043562
-0.00272354
0.000509003
-0.00298852
0.000560678
-0.00315037
0.00059341
-0.00323708
0.000611343
-0.0032738
0.000618606
-0.00327999
0.000618614
-0.00326916
0.000613874
-0.00324991
0.000606076
-0.00322726
0.000596289
-0.00320403
0.000585165
-0.00318168
0.000573107
-0.003161
0.00056038
-0.00314246
0.000547162
-0.00312628
0.000533567
-0.00311257
-0.00310144
0.000519643
3.77862e-05
-0.000438868
0.000120446
-0.00122819
0.000220746
-0.00190116
0.000317412
-0.00242782
0.000397543
-0.00280367
0.000456158
-0.00304713
0.000493849
-0.00318806
0.000514117
-0.00325735
0.000521318
-0.003281
0.000519441
-0.00327811
0.000511601
-0.00326132
0.000499973
-0.00323828
0.000485958
-0.00321325
0.000470402
-0.00318847
0.000453801
-0.00316508
0.000436459
-0.00314366
0.000418576
-0.00312457
0.000400295
-0.003108
0.000381712
-0.00309399
-0.00308259
0.000362867
3.69299e-05
-0.000475798
0.000114975
-0.00130623
0.000206258
-0.00199245
0.00029044
-0.002512
0.000356353
-0.00286958
0.00040069
-0.00309147
0.000425183
-0.00321255
0.000433864
-0.00326603
0.000431141
-0.00327828
0.000420785
-0.00326776
0.000405586
-0.00324612
0.000387407
-0.0032201
0.000367391
-0.00319323
0.000346198
-0.00316728
0.000324202
-0.00314308
0.00030162
-0.00312108
0.000278606
-0.00310156
0.000255276
-0.00308467
0.000231715
-0.00307043
-0.00305884
0.000207963
3.56012e-05
-0.000511399
0.000108116
-0.00137875
0.00018956
-0.00207389
0.000260889
-0.00258333
0.000312749
-0.00292144
0.000343379
-0.0031221
0.000355449
-0.00322462
0.000353334
-0.00326391
0.000341378
-0.00326632
0.000323077
-0.00324945
0.000300896
-0.00322394
0.00027641
-0.00319561
0.000250545
-0.00316737
0.000223808
-0.00314054
0.000196468
-0.00311574
0.000168679
-0.00309329
0.000140552
-0.00307343
0.000112183
-0.0030563
8.36538e-05
-0.0030419
-0.0030302
5.50117e-05
3.38196e-05
-0.000545218
9.99989e-05
-0.00144493
0.000170969
-0.00214486
0.000229268
-0.00264163
0.000267371
-0.00295954
0.000284908
-0.00313964
0.000285292
-0.003225
0.000273087
-0.00325171
0.000252476
-0.00324571
0.000226654
-0.00322363
0.000197776
-0.00319506
0.00016716
-0.003165
0.000135549
-0.00313576
0.000103326
-0.00310832
7.0678e-05
-0.00308309
3.77033e-05
-0.00306032
4.47731e-06
-0.00304021
-2.892e-05
-0.00302291
-6.24045e-05
-0.00300841
-0.00299668
-9.5918e-05
3.16128e-05
-0.000576831
9.07684e-05
-0.00150408
0.000150801
-0.0022049
0.000196054
-0.00268688
0.00022079
-0.00298428
0.000225865
-0.00314471
0.000215251
-0.00321439
0.000193572
-0.00323003
0.000164789
-0.00321693
0.000131783
-0.00319063
9.64182e-05
-0.0031597
5.97931e-05
-0.00312837
2.25e-05
-0.00309846
-1.51743e-05
-0.00307064
-5.31096e-05
-0.00304516
-9.12555e-05
-0.00302217
-0.00012957
-0.00300189
-0.000167986
-0.00298449
-0.000206414
-0.00296999
-0.00295832
-0.000244776
2.90155e-05
-0.000605847
8.05781e-05
-0.00155564
0.000129371
-0.00225369
0.000161692
-0.0027192
0.000173517
-0.00299611
0.000166752
-0.00313795
0.000145775
-0.00319341
0.000115159
-0.00319941
7.86022e-05
-0.00318037
3.86746e-05
-0.0031507
-3.02387e-06
-0.003118
-4.55814e-05
-0.00308581
-8.85241e-05
-0.00305552
-0.000131639
-0.00302753
-0.000174856
-0.00300194
-0.000218169
-0.00297886
-0.000261568
-0.00295849
-0.000305003
-0.00294105
-0.000348369
-0.00292662
-0.00291512
-0.000391565
2.6068e-05
-0.000631915
6.95858e-05
-0.00159916
0.000106976
-0.00229108
0.000126586
-0.00273881
0.000125998
-0.00299552
0.000108003
-0.00311995
7.72398e-05
-0.00316265
3.81538e-05
-0.00316033
-5.84607e-06
-0.00313637
-5.24905e-05
-0.00310405
-0.000100415
-0.00307008
-0.000148864
-0.00303737
-0.000197454
-0.00300693
-0.000246023
-0.00297896
-0.000294537
-0.00295342
-0.000343029
-0.00293037
-0.000391526
-0.00291
-0.000439998
-0.00289258
-0.000488326
-0.00287829
-0.00286708
-0.000536369
2.28144e-05
-0.000654729
5.79497e-05
-0.0016343
8.38998e-05
-0.00231703
9.11049e-05
-0.00274602
7.86275e-05
-0.00298304
4.99884e-05
-0.00309131
9.966e-06
-0.00312263
-3.71812e-05
-0.00311318
-8.83471e-05
-0.0030852
-0.000141546
-0.00305085
-0.000195624
-0.003016
-0.000249954
-0.00298304
-0.000304217
-0.00295267
-0.000358281
-0.0029249
-0.000412135
-0.00289957
-0.000465842
-0.00287666
-0.000519475
-0.00285636
-0.000573033
-0.00283902
-0.000626388
-0.00282494
-0.00281413
-0.000679338
1.9302e-05
-0.000674031
4.58251e-05
-0.00166082
6.04067e-05
-0.00233161
5.55782e-05
-0.00274119
3.17511e-05
-0.00295921
-6.97119e-06
-0.00305259
-5.5768e-05
-0.00307383
-0.000110613
-0.00305833
-0.000168705
-0.00302711
-0.000228326
-0.00299123
-0.000288507
-0.00295582
-0.000348729
-0.00292281
-0.000408718
-0.00289268
-0.000468353
-0.00286526
-0.000527624
-0.0028403
-0.000586614
-0.00281767
-0.000645444
-0.00279753
-0.000704163
-0.00278031
-0.00076264
-0.00276646
-0.00275619
-0.00082058
1.55795e-05
-0.000689611
3.33622e-05
-0.0016786
3.67408e-05
-0.00233499
2.03031e-05
-0.00272475
-1.43268e-05
-0.00292458
-6.25929e-05
-0.00300432
-0.000119713
-0.00301671
-0.000181923
-0.00299612
-0.000246724
-0.00296231
-0.000312645
-0.00292531
-0.000378888
-0.00288957
-0.000445027
-0.00285668
-0.000510823
-0.00282688
-0.000576145
-0.00279994
-0.000640962
-0.00277548
-0.000705352
-0.00275328
-0.000769473
-0.00273341
-0.000833442
-0.00271634
-0.00089714
-0.00270276
-0.0026932
-0.000960135
1.16966e-05
-0.000701307
2.07043e-05
-0.00168761
1.31261e-05
-0.00232741
-1.44553e-05
-0.00269717
-5.93372e-05
-0.0028797
-0.000116626
-0.00294704
-0.000181641
-0.0029517
-0.0002509
-0.00292687
-0.000322194
-0.00289102
-0.000394289
-0.00285322
-0.000466543
-0.00281732
-0.000538621
-0.0027846
-0.000610319
-0.00275519
-0.000681491
-0.00272877
-0.000752059
-0.00270491
-0.000822057
-0.00268328
-0.000891654
-0.00266382
-0.000961041
-0.00264695
-0.00103013
-0.00263367
-0.00262495
-0.00109838
7.70246e-06
-0.00070901
7.98574e-06
-0.00168789
-1.02343e-05
-0.00230919
-4.84617e-05
-0.00265894
-0.000103043
-0.00282512
-0.000168846
-0.00288123
-0.00024134
-0.0028792
-0.00031733
-0.00285088
-0.000394892
-0.00281346
-0.000473007
-0.0027751
-0.000551187
-0.00273914
-0.000629196
-0.00270659
-0.000706877
-0.0026775
-0.000784087
-0.00265156
-0.000860696
-0.0026283
-0.000936663
-0.00260731
-0.00101213
-0.00258835
-0.00108738
-0.0025717
-0.0011624
-0.00255865
-0.00255052
-0.00123683
3.645e-06
-0.000712655
-4.66902e-06
-0.00167958
-3.31586e-05
-0.0022807
-8.15094e-05
-0.00261059
-0.000145237
-0.00276139
-0.000219052
-0.00280742
-0.00029861
-0.00279964
-0.000381003
-0.00276848
-0.000464574
-0.00272988
-0.00054851
-0.00269117
-0.000632475
-0.00265518
-0.000716343
-0.00262272
-0.000800045
-0.0025938
-0.000883476
-0.00256813
-0.000966491
-0.00254529
-0.00104897
-0.00252483
-0.00113102
-0.0025063
-0.00121302
-0.0024897
-0.00129519
-0.00247649
-0.00246761
-0.0013781
-4.30418e-07
-0.000712224
-1.71476e-05
-0.00166286
-5.54879e-05
-0.00224236
-0.000113422
-0.00255266
-0.000185743
-0.00268907
-0.000267071
-0.00272609
-0.000353268
-0.00271345
-0.000441706
-0.00268004
-0.000530976
-0.00264061
-0.000620458
-0.00260169
-0.000709962
-0.00256567
-0.000799503
-0.00253318
-0.000889146
-0.00250416
-0.000978924
-0.00247835
-0.00106878
-0.00245543
-0.00115861
-0.002435
-0.00124841
-0.0024165
-0.00133853
-0.00239958
-0.00142954
-0.00238548
-0.00237299
-0.00152416
-4.48202e-06
-0.000707742
-2.93512e-05
-0.00163799
-7.70874e-05
-0.00219462
-0.000144054
-0.00248569
-0.000224418
-0.00260871
-0.000312761
-0.00263775
-0.00040516
-0.00262105
-0.000499249
-0.00258595
-0.000593838
-0.00254603
-0.000688467
-0.00250706
-0.000783081
-0.00247106
-0.000877827
-0.00243843
-0.000972956
-0.00240903
-0.00106876
-0.00238255
-0.0011655
-0.00235868
-0.0012634
-0.0023371
-0.00136257
-0.00231734
-0.00146356
-0.00229859
-0.00156863
-0.00228041
-0.00227417
-0.00166745
-8.4604e-06
-0.000699282
-4.11762e-05
-0.00160528
-9.78253e-05
-0.00213797
-0.00017327
-0.00241025
-0.000261138
-0.00252084
-0.000356008
-0.00254288