1.22 	3.45254e-18 	-6.98323e-18 	-0.137128 	0.00284293 	-8.26455e-22
1.66 	3.45254e-18 	-6.96118e-18 	-0.262594 	-0.00327456 	-3.8907e-23
2.1 	3.45254e-18 	-6.93894e-18 	-0.303073 	-0.00854351 	-2.38452e-21
2.54 	3.45254e-18 	-8.30431e-18 	-0.453287 	-0.00577951 	-1.44711e-23
2.98 	3.45254e-18 	-8.28171e-18 	-0.461569 	0.00616256 	2.68863e-21
3.42 	3.45254e-18 	-6.87115e-18 	-0.446103 	0.0165926 	2.53091e-21
3.86 	3.45254e-18 	-6.84819e-18 	-0.294149 	0.0172555 	4.25193e-22
4.3 	3.45254e-18 	-6.82504e-18 	-0.220357 	0.00994759 	1.25972e-21
4.74 	3.45254e-18 	-5.41391e-18 	-0.0808353 	-0.000334874 	-5.20872e-22
5.18 	3.45254e-18 	-2.61482e-18 	0.0111297 	-0.0089656 	-1.25759e-22
5.62 	3.45254e-18 	-1.2033e-18 	0.122346 	-0.0147142 	1.7624e-23
6.06 	3.45254e-18 	-1.17937e-18 	0.204375 	-0.0161392 	-7.98985e-23
6.5 	3.45254e-18 	-1.15524e-18 	0.287307 	-0.0150438 	9.76908e-23
