/*--------------------------------*- C++ -*----------------------------------*\
  =========                 |
  \\      /  F ield         | OpenFOAM: The Open Source CFD Toolbox
   \\    /   O peration     | Website:  https://openfoam.org
    \\  /    A nd           | Version:  6.0
     \\/     M anipulation  |
\*---------------------------------------------------------------------------*/
FoamFile
{
    version     2.0;
    format      ascii;
    class       volVectorField;
    location    "24";
    object      U;
}
// * * * * * * * * * * * * * * * * * * * * * * * * * * * * * * * * * * * * * //

dimensions      [0 1 -1 0 0 0 0];

internalField   nonuniform List<vector> 
12500
(
(-0.000268826 0.000237033 -8.03984e-22)
(-0.00157903 0.000585242 1.15119e-20)
(-0.00411492 0.000819947 -1.67933e-20)
(-0.0073582 0.000964906 7.75206e-21)
(-0.0110273 0.00103879 4.67062e-22)
(-0.0149462 0.00105701 -9.64781e-22)
(-0.0189749 0.0010329 -1.4302e-20)
(-0.0230093 0.000977861 7.88213e-21)
(-0.0269775 0.000901577 5.22932e-21)
(-0.0308328 0.000812296 5.32741e-21)
(-0.034548 0.00071706 -9.04207e-21)
(-0.038112 0.000621892 5.27326e-21)
(-0.0415259 0.000531944 -2.48883e-21)
(-0.0448002 0.000451589 4.22882e-21)
(-0.0479529 0.000384491 -1.08061e-20)
(-0.0510071 0.000333644 1.56406e-20)
(-0.0539893 0.000301392 -2.98624e-21)
(-0.0569284 0.000289433 -1.10929e-20)
(-0.0598535 0.000298839 5.68862e-21)
(-0.0627938 0.000330057 -5.43477e-21)
(-0.0657832 0.000382844 4.86808e-21)
(-0.0688556 0.00045633 6.43903e-21)
(-0.0719836 0.000549994 6.54113e-22)
(-0.0750595 0.000664308 -1.84554e-20)
(-0.078499 0.000791813 1.03524e-20)
(-0.000307718 0.000891386 1.46758e-20)
(-0.00168005 0.00228054 -3.93047e-20)
(-0.00426397 0.00331105 1.16593e-20)
(-0.00754232 0.00405009 7.83316e-21)
(-0.0112347 0.00455119 -6.27565e-21)
(-0.0151661 0.00485977 -3.58169e-20)
(-0.0191975 0.00501631 1.06929e-20)
(-0.0232259 0.00505632 -2.02671e-20)
(-0.0271799 0.00501073 2.43296e-20)
(-0.0310134 0.00490646 -3.25784e-20)
(-0.0346999 0.00476694 1.74404e-20)
(-0.0382286 0.00461248 5.65045e-21)
(-0.041601 0.00446066 -1.42654e-20)
(-0.0448281 0.00432653 -6.31555e-21)
(-0.0479281 0.00422285 4.63114e-20)
(-0.0509245 0.00416017 -4.10386e-20)
(-0.0538445 0.0041469 9.83029e-21)
(-0.0567174 0.00418943 1.70253e-20)
(-0.059573 0.00429211 -3.89174e-21)
(-0.0624413 0.00445738 2.74925e-20)
(-0.0653569 0.00468554 5.00844e-21)
(-0.0683545 0.004975 -1.79535e-21)
(-0.0714073 0.00532517 -3.47915e-20)
(-0.0744069 0.00573839 3.2042e-20)
(-0.0777705 0.00619307 -6.49552e-20)
(-0.000387723 0.00154296 4.70671e-20)
(-0.00188699 0.00396784 1.62275e-20)
(-0.004567 0.00578898 -2.1403e-20)
(-0.00791394 0.00711693 9.24408e-21)
(-0.0116502 0.00804 8.69809e-21)
(-0.0156033 0.00863358 3.31622e-20)
(-0.0196365 0.0089652 -4.22978e-20)
(-0.0236486 0.00909435 -6.90321e-21)
(-0.02757 0.00907312 -2.85247e-20)
(-0.0313559 0.00894702 -2.38882e-20)
(-0.0349807 0.00875577 3.09317e-20)
(-0.0384347 0.00853398 -1.03792e-19)
(-0.04172 0.00831168 -3.24948e-21)
(-0.0448484 0.00811472 -6.25559e-20)
(-0.0478389 0.00796511 -7.37725e-21)
(-0.0507157 0.00788116 8.91554e-21)
(-0.0535071 0.00787764 -4.8801e-20)
(-0.0562434 0.00796589 -3.05709e-20)
(-0.0589555 0.00815388 -3.62388e-20)
(-0.0616749 0.00844631 5.68438e-20)
(-0.0644377 0.00884429 2.08007e-20)
(-0.0672804 0.00934569 -9.25519e-20)
(-0.0701775 0.00995006 -4.46104e-20)
(-0.0730189 0.0106618 -4.99158e-20)
(-0.0762249 0.0114451 1.43074e-19)
(-0.000508677 0.00218906 -1.4709e-21)
(-0.00219939 0.00563961 -3.75261e-20)
(-0.00502332 0.00824189 -1.81215e-20)
(-0.00847216 0.0101495 1.13054e-20)
(-0.0122728 0.0114856 7.0762e-20)
(-0.0162567 0.0123551 -3.20683e-20)
(-0.0202906 0.0128526 6.86655e-20)
(-0.0242765 0.0130613 6.56481e-20)
(-0.0281473 0.0130542 4.01024e-20)
(-0.0318601 0.0128952 -6.06144e-22)
(-0.0353912 0.0126401 8.1333e-20)
(-0.0387319 0.0123379 1.41161e-20)
(-0.0418856 0.0120311 6.23688e-20)
(-0.0448651 0.0117564 1.43676e-19)
(-0.0476904 0.0115453 -1.67006e-19)
(-0.050387 0.0114243 2.51551e-19)
(-0.0529844 0.0114149 5.48064e-20)
(-0.0555145 0.011534 -1.21109e-19)
(-0.0580101 0.0117935 -1.7206e-20)
(-0.0605047 0.0122012 4.41469e-20)
(-0.0630367 0.0127592 -2.21518e-20)
(-0.0656453 0.0134653 -1.32677e-20)
(-0.0683069 0.0143195 -1.29462e-20)
(-0.0709097 0.0153288 -5.22058e-20)
(-0.0738781 0.0164426 1.94426e-19)
(-0.000670289 0.00282714 2.45149e-20)
(-0.00261643 0.0072887 -1.18179e-19)
(-0.00563167 0.0106584 1.4427e-19)
(-0.00921526 0.0131327 -5.77728e-20)
(-0.0131003 0.014869 6.95366e-20)
(-0.0171239 0.0160022 5.70163e-20)
(-0.0211576 0.016653 2.17439e-20)
(-0.0251075 0.0169283 1.06747e-21)
(-0.0289101 0.0169215 1.23358e-19)
(-0.0325253 0.0167147 8.56699e-20)
(-0.0359314 0.0163796 -3.4456e-20)
(-0.0391216 0.0159791 -2.22473e-20)
(-0.0421007 0.0155684 9.40967e-20)
(-0.0448827 0.0151953 1.77648e-20)
(-0.047489 0.0149011 4.83015e-20)
(-0.0499464 0.0147209 1.15894e-19)
(-0.0522861 0.0146834 -1.00299e-19)
(-0.0545421 0.0148119 8.11061e-20)
(-0.0567496 0.0151232 -1.75096e-19)
(-0.0589446 0.0156284 1.47353e-19)
(-0.061169 0.016332 9.53703e-22)
(-0.0634655 0.0172319 -1.17781e-19)
(-0.0658136 0.0183292 4.74689e-20)
(-0.0680991 0.0196342 1.07905e-19)
(-0.0707525 0.0210813 -1.68839e-19)
(-0.000872157 0.00345489 1.26792e-19)
(-0.00313688 0.00890835 -1.39733e-19)
(-0.00639001 0.0130276 -2.2638e-20)
(-0.0101404 0.0160518 2.87229e-20)
(-0.0141293 0.0181725 -6.23923e-20)
(-0.0182008 0.0195538 -9.77916e-20)
(-0.022233 0.0203427 -8.17003e-20)
(-0.0261373 0.0206687 -1.97839e-20)
(-0.0298546 0.0206455 -1.41817e-19)
(-0.0333483 0.0203727 1.13373e-19)
(-0.0365995 0.0199376 -1.76699e-19)
(-0.0396035 0.019417 8.96089e-20)
(-0.0423668 0.0188784 -2.98248e-20)
(-0.0449048 0.0183809 6.92808e-20)
(-0.0472403 0.0179759 -1.74647e-19)
(-0.0494017 0.0177076 8.4834e-20)
(-0.0514222 0.0176132 6.33672e-21)
(-0.0533382 0.0177227 3.7793e-20)
(-0.0551876 0.0180591 2.28697e-19)
(-0.0570101 0.0186382 5.07481e-20)
(-0.0588515 0.0194674 -4.63077e-21)
(-0.0607595 0.020546 1.45361e-20)
(-0.0627176 0.0218769 9.59146e-20)
(-0.0646095 0.0234749 2.73585e-20)
(-0.0668736 0.0252587 9.54765e-20)
(-0.00111378 0.00407022 -7.90026e-20)
(-0.00375905 0.0104922 1.16426e-19)
(-0.00729541 0.0153393 7.34669e-21)
(-0.0112435 0.0188932 -1.44029e-19)
(-0.0153544 0.0213794 3.04621e-19)
(-0.0194811 0.0229909 -9.9024e-20)
(-0.0235097 0.0239 1.45273e-19)
(-0.0273583 0.0242588 1.3354e-19)
(-0.0309733 0.0242003 -1.10973e-19)
(-0.0343223 0.0238408 -1.62166e-19)
(-0.0373898 0.023283 4.45538e-20)
(-0.0401734 0.0226169 -4.71414e-20)
(-0.0426816 0.0219223 -2.09182e-19)
(-0.0449313 0.0212695 2.54873e-19)
(-0.0469466 0.0207204 -1.22566e-19)
(-0.0487579 0.0203292 -8.47281e-20)
(-0.0504002 0.0201418 7.82282e-22)
(-0.0519124 0.0201967 6.95302e-20)
(-0.053336 0.0205242 2.87246e-20)
(-0.0547148 0.0211463 -1.1274e-19)
(-0.0560994 0.0220748 1.28933e-19)
(-0.057544 0.0233119 -2.24389e-19)
(-0.0590372 0.0248633 1.37243e-19)
(-0.0604613 0.0267498 -1.05256e-19)
(-0.0622655 0.0288747 2.90987e-20)
(-0.00139453 0.00467118 1.14949e-19)
(-0.00448073 0.0120343 -9.17697e-20)
(-0.00834379 0.0175838 -5.87968e-20)
(-0.0125183 0.0216439 -1.0448e-19)
(-0.0167674 0.0244741 -1.92173e-19)
(-0.020955 0.0262957 -1.42789e-19)
(-0.0249765 0.0273059 8.94555e-20)
(-0.0287584 0.0276782 -1.36143e-19)
(-0.0322535 0.0275641 1.73571e-19)
(-0.0354346 0.0270962 -2.83669e-19)
(-0.0382901 0.0263911 1.26492e-19)
(-0.0408204 0.0255519 2.68115e-19)
(-0.0430359 0.0246701 -3.77972e-19)
(-0.0449551 0.0238272 5.41346e-20)
(-0.0466036 0.023096 7.06377e-20)
(-0.0480131 0.0225406 6.84808e-20)
(-0.0492206 0.0222174 -7.37725e-20)
(-0.0502679 0.0221743 -1.81772e-20)
(-0.0512002 0.0224507 -5.43985e-20)
(-0.0520658 0.0230767 -4.5464e-20)
(-0.0529215 0.0240708 -2.49956e-19)
(-0.053829 0.0254396 -1.6905e-20)
(-0.0547839 0.0271939 2.73439e-21)
(-0.0556684 0.0293626 -1.1358e-19)
(-0.0569455 0.0318332 1.24065e-19)
(-0.00171368 0.0052559 3.32288e-21)
(-0.00529899 0.0135286 3.75367e-20)
(-0.00952956 0.0197515 3.93617e-20)
(-0.0139564 0.0242916 2.29924e-20)
(-0.0183571 0.0274422 1.95588e-19)
(-0.0226082 0.0294524 1.84735e-19)
(-0.0266168 0.0305437 -1.50946e-19)
(-0.0303188 0.03091 -4.61646e-20)
(-0.033675 0.0307201 -4.11808e-20)
(-0.0366642 0.0301217 2.1337e-19)
(-0.0392792 0.0292447 7.6891e-20)
(-0.0415236 0.028204 -1.12354e-19)
(-0.0434099 0.0271024 -9.54106e-20)
(-0.0449581 0.0260321 2.3062e-19)
(-0.046195 0.0250766 -5.7035e-20)
(-0.0471534 0.0243109 -6.93264e-20)
(-0.0478723 0.0238024 -9.69869e-20)
(-0.048396 0.0236102 -7.56718e-20)
(-0.0487734 0.0237847 -9.67989e-20)
(-0.049058 0.0243665 -6.3424e-20)
(-0.0493138 0.0253833 2.64069e-19)
(-0.0496115 0.0268492 -1.30269e-19)
(-0.0499556 0.0287825 8.78672e-20)
(-0.0502302 0.0312235 -2.34034e-19)
(-0.0509164 0.0340445 9.99562e-20)
(-0.00207027 0.00582244 -1.03225e-19)
(-0.00621006 0.0149692 -2.79138e-20)
(-0.0108453 0.0218328 -2.19585e-19)
(-0.0155465 0.026824 -1.0591e-19)
(-0.0201079 0.0302697 -2.10338e-19)
(-0.0244213 0.0324465 -2.20572e-20)
(-0.0284072 0.033599 1.1396e-19)
(-0.0320129 0.0339404 -6.97587e-20)
(-0.0352081 0.0336559 1.51012e-19)
(-0.0379789 0.0329068 -3.68481e-19)
(-0.0403231 0.0318348 -1.07162e-20)
(-0.042248 0.0305656 6.58015e-20)
(-0.0437684 0.029212 -8.37615e-20)
(-0.0449056 0.0278765 7.64502e-20)
(-0.0456873 0.0266527 -5.86284e-20)
(-0.0461472 0.025627 -1.25958e-19)
(-0.0463255 0.0248783 2.30345e-19)
(-0.0462686 0.0244786 1.43193e-19)
(-0.0460292 0.0244914 -2.97534e-20)
(-0.0456665 0.0249707 9.48945e-20)
(-0.0452519 0.025957 -1.87616e-19)
(-0.0448673 0.0274753 2.70882e-19)
(-0.0445282 0.0295558 -3.70619e-19)
(-0.0441229 0.0322542 7.64236e-20)
(-0.0441571 0.0354292 -1.53789e-19)
(-0.00246307 0.00636863 5.6024e-21)
(-0.00720902 0.0163494 -9.53452e-20)
(-0.0122815 0.0238178 1.42236e-19)
(-0.0172735 0.0292288 2.93565e-19)
(-0.0219993 0.0329432 -4.86032e-21)
(-0.0263682 0.0352644 3.36374e-20)
(-0.0303161 0.0364592 -1.27766e-19)
(-0.0338035 0.0367592 6.01155e-20)
(-0.0368107 0.036364 4.16249e-19)
(-0.0393321 0.0354473 -9.48506e-20)
(-0.0413715 0.034161 -1.12452e-19)
(-0.0429402 0.03264 4.26557e-19)
(-0.0440557 0.0310057 1.39762e-19)
(-0.0447405 0.0293694 6.67345e-20)
(-0.0450228 0.0278345 6.85157e-20)
(-0.0449367 0.0264979 1.87204e-19)
(-0.0445229 0.0254509 -7.21214e-20)
(-0.0438295 0.0247793 1.91126e-19)
(-0.0429124 0.0245623 2.5921e-19)
(-0.041836 0.0248705 -2.21555e-19)
(-0.0406806 0.0257613 3.29846e-19)
(-0.0395402 0.0272756 1.1789e-19)
(-0.0384439 0.0294608 -4.48181e-19)
(-0.0372881 0.0323944 6.49226e-19)
(-0.0366108 0.0359241 -5.56744e-19)
(-0.00289048 0.00689192 -2.62832e-19)
(-0.00828955 0.017662 1.48711e-19)
(-0.0138256 0.0256955 -1.00501e-19)
(-0.0191184 0.0314929 -9.60904e-20)
(-0.0240051 0.0354486 -1.04352e-19)
(-0.028415 0.0378926 -1.13856e-19)
(-0.032302 0.0391129 3.14129e-20)
(-0.0356416 0.039358 2.99911e-19)
(-0.0384263 0.0388408 -6.45399e-20)
(-0.04066 0.0377452 -1.68788e-19)
(-0.0423537 0.0362316 -1.03485e-19)
(-0.0435234 0.0344422 -4.24917e-20)
(-0.0441895 0.0325051 1.26124e-19)
(-0.044376 0.0305388 -8.08194e-20)
(-0.0441114 0.0286546 -2.64522e-19)
(-0.0434293 0.0269592 -2.92683e-19)
(-0.0423704 0.0255562 1.17009e-19)
(-0.0409834 0.0245457 -2.18303e-19)
(-0.0393264 0.0240245 1.89986e-19)
(-0.0374692 0.0240834 -5.37734e-19)
(-0.0355006 0.0248013 4.13969e-19)
(-0.0335286 0.0262413 -5.48486e-19)
(-0.0315984 0.0284753 -1.02384e-20)
(-0.0296187 0.0316119 -1.8527e-19)
(-0.0281705 0.0354919 5.75619e-19)
(-0.00335034 0.00738925 4.03294e-19)
(-0.00944361 0.0188984 6.13641e-20)
(-0.0154622 0.0274538 -4.06081e-20)
(-0.0210574 0.0336017 -1.72463e-20)
(-0.0260923 0.0377709 3.22863e-19)
(-0.0305194 0.040317 1.05613e-19)
(-0.0343124 0.0415487 9.62738e-20)
(-0.0374642 0.0417299 -7.77773e-20)
(-0.0399813 0.0410851 3.01324e-19)
(-0.0418783 0.0398069 -1.48783e-19)
(-0.0431747 0.0380621 9.64008e-20)
(-0.0438922 0.0359978 2.46109e-19)
(-0.0440548 0.0337467 -1.40043e-19)
(-0.0436883 0.0314318 1.52145e-19)
(-0.0428212 0.0291705 1.44118e-19)
(-0.0414867 0.0270772 4.94602e-20)
(-0.0397243 0.0252662 -1.22149e-19)
(-0.0375824 0.0238523 3.3871e-19)
(-0.0351202 0.0229506 -3.15899e-20)
(-0.0324114 0.022675 -3.64539e-20)
(-0.0295537 0.0231314 4.08199e-19)
(-0.0266698 0.0244121 -2.90899e-19)
(-0.0238239 0.0266235 4.90895e-19)
(-0.0209415 0.0299169 -4.07745e-19)
(-0.018661 0.0341346 5.54153e-19)
(-0.00383983 0.00785692 -1.94815e-19)
(-0.0106612 0.020049 4.48295e-20)
(-0.0171724 0.0290787 -4.70561e-20)
(-0.0230614 0.0355391 -2.2421e-19)
(-0.028221 0.0398931 1.309e-20)
(-0.0326293 0.042522 1.2917e-19)
(-0.0362827 0.0437541 -5.28197e-19)
(-0.0391932 0.0438674 3.96231e-19)
(-0.0413829 0.0430968 -3.87512e-19)
(-0.0428794 0.0416418 -2.45439e-19)
(-0.0437114 0.0396733 2.20999e-19)
(-0.0439081 0.0373412 -4.80002e-19)
(-0.0434977 0.0347801 4.05705e-19)
(-0.0425085 0.0321146 -1.29432e-19)
(-0.0409699 0.029465 -3.70747e-19)
(-0.0389141 0.0269508 9.18379e-20)
(-0.0363791 0.0246942 -8.64553e-20)
(-0.0334117 0.0228225 3.26451e-20)
(-0.030071 0.0214694 -1.17079e-19)
(-0.0264332 0.0207736 -3.89232e-19)
(-0.0226039 0.0208725 8.73818e-20)
(-0.018721 0.0218955 -1.43606e-22)
(-0.0148698 0.0239952 -4.03421e-19)
(-0.0109978 0.0273825 2.8392e-19)
(-0.00781869 0.0319131 -2.5923e-19)
(-0.00435535 0.00829061 7.88612e-20)
(-0.01193 0.0211026 1.50745e-19)
(-0.0189335 0.0305544 2.12434e-19)
(-0.025096 0.0372866 1.09997e-19)
(-0.0303437 0.041796 -1.08526e-19)
(-0.034683 0.0444895 2.60394e-19)
(-0.0381354 0.045714 1.93726e-19)
(-0.0407339 0.0457611 -7.08607e-20)
(-0.0425185 0.0448745 2.54266e-19)
(-0.0435306 0.043259 -2.62674e-19)
(-0.0438104 0.0410881 -7.73369e-20)
(-0.0433955 0.038512 7.87913e-20)
(-0.0423202 0.0356645 1.56659e-19)
(-0.0406166 0.0326688 1.87889e-21)
(-0.0383155 0.0296442 9.97556e-20)
(-0.0354491 0.0267111 1.84626e-19)
(-0.0320536 0.0239957 -3.1518e-19)
(-0.028174 0.0216342 3.92754e-19)
(-0.0238676 0.0197759 1.32797e-19)
(-0.0192115 0.0185841 4.69122e-20)
(-0.0143173 0.0182304 -4.79473e-19)
(-0.00933803 0.0188887 6.80037e-20)
(-0.00438119 0.0207716 1.05636e-19)
(0.000579153 0.0241706 -2.53775e-20)
(0.00473191 0.0289727 1.27352e-19)
(-0.00489242 0.00868543 6.18835e-21)
(-0.0132353 0.0220468 -3.88316e-19)
(-0.0207188 0.0318636 -9.73456e-21)
(-0.027121 0.0388234 -9.92728e-20)
(-0.0324052 0.0434575 -6.56432e-19)
(-0.0366087 0.0461978 5.70031e-19)
(-0.0397801 0.0474096 -4.07769e-19)
(-0.0419755 0.0473974 -2.06118e-20)
(-0.0432541 0.0464126 -1.9448e-19)
(-0.0436731 0.0446643 3.3771e-19)
(-0.0432858 0.0423272 -3.64949e-19)
(-0.0421397 0.0395499 -1.71502e-19)
(-0.0402772 0.0364629 3.64455e-21)
(-0.0377357 0.0331851 -3.73506e-19)
(-0.0345497 0.0298308 5.1115e-19)
(-0.0307525 0.0265163 -5.93816e-19)
(-0.02638 0.0233663 1.18151e-21)
(-0.0214752 0.0205198 9.14596e-20)
(-0.0160932 0.0181362 -2.29314e-19)
(-0.0103103 0.0163992 2.22886e-19)
(-0.00424185 0.015514 -3.16901e-19)
(0.00194564 0.0157038 -2.09737e-19)
(0.00812261 0.0172542 3.9149e-19)
(0.0142862 0.0205638 -4.27791e-19)
(0.0195013 0.025576 -8.7171e-21)
(-0.0054457 0.00903608 -3.16651e-19)
(-0.01456 0.022868 3.77088e-19)
(-0.0224978 0.0329867 -1.17193e-19)
(-0.0290908 0.0401264 2.27101e-19)
(-0.0343429 0.0448522 2.46402e-19)
(-0.0383246 0.0476214 -2.18284e-19)
(-0.0411136 0.0488175 -1.45507e-19)
(-0.0427906 0.048757 -1.75057e-19)
(-0.0434354 0.0476991 1.61002e-19)
(-0.0431226 0.0458565 -1.07791e-20)
(-0.0419197 0.0434041 2.36642e-19)
(-0.0398865 0.0404882 2.34107e-19)
(-0.037075 0.0372342 -2.80599e-19)
(-0.0335308 0.0337541 5.52821e-19)
(-0.0292944 0.0301538 -3.67675e-19)
(-0.0244032 0.0265405 -6.32441e-20)
(-0.0188952 0.0230308 7.2006e-19)
(-0.0128134 0.0197585 -3.34258e-19)
(-0.00621145 0.0168842 2.13425e-19)
(0.000836059 0.014603 4.17741e-19)
(0.00821195 0.0131473 -2.71618e-19)
(0.015739 0.0127883 2.86926e-20)
(0.0232681 0.0138948 -1.87335e-20)
(0.0307699 0.0170012 -1.11901e-19)
(0.0371561 0.0221411 2.21899e-19)
(-0.00600894 0.00933709 7.23694e-20)
(-0.0158846 0.0235522 -2.39031e-19)
(-0.024236 0.0339036 1.31592e-19)
(-0.0309544 0.0411704 -1.62556e-21)
(-0.0360868 0.0459521 1.00325e-19)
(-0.0397394 0.048731 -1.73622e-19)
(-0.0420204 0.0499087 9.98603e-20)
(-0.0430363 0.049814 2.73277e-19)
(-0.0428886 0.0487136 -8.34017e-21)
(-0.0416702 0.046824 -1.40834e-19)
(-0.0394643 0.0443206 1.42161e-19)
(-0.0363443 0.0413471 -3.30154e-21)
(-0.0323743 0.0380236 -4.53425e-19)
(-0.0276108 0.034454 1.6869e-19)
(-0.0221036 0.0307333 3.73952e-20)
(-0.0158985 0.026956 -6.59664e-20)
(-0.00903983 0.023224 -1.17912e-19)
(-0.00157485 0.0196571 4.5319e-19)
(0.00644088 0.016405 1.10747e-19)
(0.0149331 0.0136606 -2.37832e-19)
(0.0237836 0.0116686 -2.86191e-20)
(0.0328075 0.0107375 3.28685e-19)
(0.0418415 0.0113198 -1.53797e-19)
(0.0508396 0.0141131 6.61264e-20)
(0.0585339 0.0192812 4.68946e-20)
(-0.00657517 0.00958312 -1.44933e-19)
(-0.0171874 0.0240854 1.49534e-19)
(-0.0258955 0.0345933 -8.48871e-20)
(-0.0326552 0.0419296 -2.74312e-19)
(-0.0375598 0.0467273 -2.54085e-19)
(-0.0407526 0.0494942 -1.1313e-19)
(-0.0423735 0.05065 -9.41651e-20)
(-0.0425555 0.0505359 -2.79928e-19)
(-0.0414222 0.0494269 -1.13586e-19)
(-0.0390856 0.0475437 1.03962e-19)
(-0.0356452 0.0450634 -1.49056e-19)
(-0.0311892 0.0421283 -1.57983e-19)
(-0.025796 0.0388542 -1.48731e-19)
(-0.0195355 0.0353376 2.70931e-19)
(-0.0124712 0.031663 -5.708e-19)
(-0.00466212 0.02791 3.26798e-19)
(0.00383456 0.0241621 -5.60443e-19)
(0.0129604 0.020517 -8.65708e-20)
(0.022651 0.0171008 -3.09179e-19)
(0.0328268 0.0140861 -7.23471e-20)
(0.0433668 0.0117074 -8.84422e-20)
(0.0540789 0.0102852 -2.95908e-19)
(0.0647935 0.0103392 -3.24247e-20)
(0.0754696 0.0127467 1.81703e-19)
(0.0846452 0.017843 -4.96742e-19)
(-0.00713682 0.00976929 1.24334e-19)
(-0.0184446 0.0244542 1.68814e-19)
(-0.0274347 0.0350357 5.95501e-19)
(-0.0341317 0.0423779 -1.05255e-19)
(-0.0386779 0.0471473 2.52014e-19)
(-0.0412548 0.0498771 6.03785e-19)
(-0.0420346 0.0510052 -1.65419e-19)
(-0.0411774 0.0508856 2.2499e-19)
(-0.0388288 0.0498021 1.31841e-19)
(-0.0351194 0.0479814 2.39929e-19)
(-0.0301656 0.0456036 -4.82563e-20)
(-0.024071 0.042812 3.27144e-20)
(-0.0169294 0.039721 -8.49424e-20)
(-0.008827 0.0364227 4.61012e-19)
(0.000155327 0.0329936 5.91778e-20)
(0.00993944 0.0295006 4.29952e-19)
(0.0204477 0.0260088 -1.10215e-19)
(0.0316007 0.0225901 3.95096e-19)
(0.0433138 0.0193379 5.5526e-20)
(0.0554912 0.0163861 2.01618e-19)
(0.0679998 0.0139305 -8.71625e-20)
(0.0806369 0.0122636 -1.54736e-20)
(0.0932321 0.0119296 4.81842e-19)
(0.105787 0.0139758 2.96717e-19)
(0.11666 0.0189375 -1.29926e-19)
(-0.00768585 0.00989143 -3.01356e-19)
(-0.0196305 0.0246467 -3.17089e-19)
(-0.0288083 0.0352121 -3.33802e-19)
(-0.0353169 0.0424912 1.23124e-19)
(-0.0393496 0.0471833 -2.48805e-19)
(-0.0411271 0.0498471 -3.72816e-20)
(-0.0408545 0.0509384 -9.88057e-20)
(-0.0387184 0.0508247 -4.1177e-19)
(-0.034886 0.0497993 -6.4569e-20)
(-0.0295061 0.0480961 1.06532e-19)
(-0.0227111 0.0459006 -3.35504e-19)
(-0.0146203 0.0433602 4.66735e-19)
(-0.00534323 0.0405916 -6.35829e-19)
(0.00501595 0.0376875 1.53533e-19)
(0.0163556 0.0347222 -3.91558e-19)
(0.0285734 0.0317564 -3.18518e-19)
(0.041563 0.0288423 -1.81549e-20)
(0.0552126 0.0260304 -4.83278e-20)
(0.0694025 0.0233799 3.82624e-20)
(0.0840021 0.0209758 -1.83353e-19)
(0.0988482 0.018949 -1.2713e-19)
(0.113712 0.0175148 1.56503e-19)
(0.128418 0.0171684 -4.336e-19)
(0.14306 0.0190685 1.41179e-19)
(0.155894 0.0239378 1.0543e-19)
(-0.0082139 0.00994634 -5.34685e-20)
(-0.0207174 0.024653 -9.21051e-20)
(-0.0299673 0.035107 3.60363e-19)
(-0.0361379 0.0422489 1.34912e-19)
(-0.0394753 0.0468107 1.79644e-19)
(-0.0402406 0.0493759 -2.413e-19)
(-0.0386717 0.0504186 4.11032e-22)
(-0.0349811 0.0503193 -1.97216e-19)
(-0.029357 0.0493817 3.66192e-19)
(-0.0219651 0.0478479 1.20021e-19)
(-0.012953 0.0459111 1.35134e-19)
(-0.00245448 0.0437254 -5.39411e-19)
(0.00940477 0.0414145 6.67469e-19)
(0.0225025 0.0390776 -2.01146e-19)
(0.0367146 0.0367946 -1.44342e-19)
(0.0519106 0.0346297 4.3335e-19)
(0.0679498 0.0326346 1.93813e-19)
(0.0846769 0.0308513 -4.91772e-19)
(0.101921 0.0293172 -2.0569e-19)
(0.119494 0.0280748 6.22118e-19)
(0.137175 0.0271814 -4.76229e-19)
(0.154674 0.0267321 2.86908e-19)
(0.171781 0.0270726 1.60592e-19)
(0.188732 0.0293449 -2.06919e-19)
(0.203847 0.034377 -2.08617e-19)
(-0.00871229 0.00993183 -1.96693e-19)
(-0.0216758 0.0244657 3.17248e-19)
(-0.0308582 0.0347083 1.36083e-19)
(-0.0365146 0.0416358 -1.97827e-19)
(-0.038946 0.0460116 -3.18557e-20)
(-0.0384545 0.0484442 -2.09895e-19)
(-0.0353109 0.0494249 -8.40684e-20)
(-0.0297532 0.0493471 9.48066e-20)
(-0.0219893 0.0485247 -2.37911e-20)
(-0.012201 0.0472089 1.8051e-19)
(-0.000549841 0.0456015 -1.57399e-19)
(0.0128165 0.043866 4.37133e-19)
(0.0277576 0.0421365 -5.43715e-19)
(0.0441332 0.040524 3.40178e-19)
(0.0617972 0.0391218 4.23915e-19)
(0.0805905 0.0380093 -6.14458e-19)
(0.100335 0.0372533 -1.87501e-19)
(0.120825 0.0369096 3.16731e-19)
(0.141827 0.0370221 -1.95995e-19)
(0.163072 0.0376235 1.89629e-19)
(0.184241 0.0387259 -4.60606e-19)
(0.204929 0.0403028 7.68795e-20)
(0.224816 0.0424648 3.01314e-19)
(0.244282 0.046173 -4.85567e-19)
(0.262041 0.0521872 1.3644e-19)
(-0.00917189 0.00984667 -1.81938e-19)
(-0.0224732 0.02408 5.91907e-19)
(-0.0314222 0.034009 1.14433e-19)
(-0.0363587 0.0406436 -3.11246e-19)
(-0.0376412 0.0447782 2.24303e-19)
(-0.035614 0.0470452 1.14531e-19)
(-0.0305808 0.0479522 1.83882e-19)
(-0.0228048 0.0479045 -1.20786e-20)
(-0.0125131 0.0472256 -1.92869e-20)
(9.69212e-05 0.0461754 -4.06046e-20)
(0.0148502 0.0449644 -1.78181e-19)
(0.0315859 0.043766 -6.06362e-21)
(0.0501491 0.042726 4.19383e-19)
(0.0703834 0.04197 -6.90062e-19)
(0.0921221 0.04161 4.92507e-19)
(0.115181 0.041749 9.99569e-20)
(0.139349 0.0424853 1.77235e-19)
(0.164376 0.043914 -9.15802e-20)
(0.189962 0.0461287 8.14614e-19)
(0.215745 0.0492194 -5.05828e-19)
(0.241266 0.0532499 4.05407e-19)
(0.265907 0.0581936 9.56773e-20)
(0.289048 0.0640465 -2.98242e-19)
(0.311013 0.071655 2.53135e-19)
(0.331296 0.0812998 4.07298e-19)
(-0.00958286 0.00969041 -5.28972e-20)
(-0.0230741 0.0234938 -2.08719e-19)
(-0.0315937 0.0330071 -3.59207e-19)
(-0.0355719 0.0392727 -2.06039e-19)
(-0.0354274 0.0431147 -2.89899e-20)
(-0.0315482 0.0451884 -8.23029e-20)
(-0.0242716 0.0460162 -3.83399e-19)
(-0.0138866 0.046014 6.38237e-20)
(-0.00064 0.0455132 -4.34832e-19)
(0.0152545 0.0447806 -3.3878e-20)
(0.0336072 0.044034 -4.20426e-19)
(0.0542425 0.0434547 -1.50305e-19)
(0.0769904 0.043198 8.65577e-20)
(0.101678 0.0434018 -4.13383e-19)
(0.128122 0.0441949 3.75661e-21)
(0.15612 0.0457041 -3.58249e-19)
(0.185445 0.0480624 1.38696e-19)
(0.215831 0.0514182 -5.0299e-19)
(0.246962 0.0559468 -8.64344e-20)
(0.278448 0.0618652 -1.2073e-20)
(0.309769 0.0694296 -8.57093e-20)
(0.340162 0.0789042 -8.81284e-20)
(0.36863 0.0907468 -4.4305e-20)
(0.394615 0.106361 -1.77481e-19)
(0.416751 0.124664 -3.92805e-19)
(-0.00993422 0.00946317 9.65349e-20)
(-0.0234383 0.0227075 2.64611e-19)
(-0.0312992 0.0317066 3.20265e-19)
(-0.0340439 0.037533 -2.57594e-19)
(-0.0321557 0.0410395 4.80813e-19)
(-0.026068 0.0429027 -2.62506e-19)
(-0.0161538 0.0436581 1.4329e-19)
(-0.00272925 0.0437297 2.24464e-19)
(0.0139364 0.0434547 2.05162e-19)
(0.03361 0.0431041 1.00183e-19)
(0.0560825 0.0428992 1.62546e-19)
(0.0811586 0.0430243 9.48606e-20)
(0.108647 0.043638 6.43379e-19)
(0.138355 0.0448816 -4.69108e-19)
(0.170078 0.0468888 5.37305e-19)
(0.203602 0.0497932 -2.23962e-19)
(0.238695 0.0537399 4.84805e-19)
(0.275115 0.0588991 -2.30821e-20)
(0.312608 0.0654871 -1.00913e-19)
(0.35092 0.0737982 -1.86491e-20)
(0.389807 0.0842443 3.854e-19)
(0.42908 0.0974618 -3.78821e-19)
(0.468922 0.114749 2.65916e-19)
(0.510015 0.137996 2.96498e-19)
(0.548908 0.161213 6.30637e-20)
(-0.0102132 0.00916514 6.68047e-20)
(-0.0235204 0.0217237 -3.78595e-19)
(-0.0304555 0.0301167 -1.38418e-19)
(-0.0316516 0.0354443 1.27205e-19)
(-0.0276609 0.038586 -3.94245e-19)
(-0.0189659 0.040238 -7.82176e-20)
(-0.00597811 0.0409464 5.45093e-20)
(0.0109549 0.0411406 2.1636e-19)
(0.0315365 0.0411605 -5.50255e-19)
(0.0555066 0.0412773 4.20123e-20)
(0.0826279 0.0417105 -1.62187e-19)
(0.112674 0.0426409 -4.94669e-19)
(0.14542 0.0442204 3.38213e-19)
(0.180636 0.0465809 1.45158e-20)
(0.218083 0.0498417 -1.01944e-20)
(0.257513 0.0541164 3.44103e-19)
(0.298675 0.0595207 -6.10213e-19)
(0.341321 0.0661804 4.84487e-19)
(0.385224 0.0742421 -8.98063e-20)
(0.430203 0.0838839 2.8441e-19)
(0.476151 0.095321 -4.69241e-19)
(0.523103 0.108836 2.70176e-19)
(0.571505 0.124988 -4.86485e-19)
(0.622248 0.144338 5.04714e-19)
(0.67039 0.16077 -1.60068e-19)
(-0.0104045 0.0087964 4.49445e-19)
(-0.0232678 0.0205465 -7.60733e-20)
(-0.0289689 0.0282523 5.64062e-19)
(-0.0282578 0.0330367 2.62743e-19)
(-0.0217617 0.0358034 2.11831e-20)
(-0.010017 0.0372656 1.16007e-19)
(0.00652072 0.0379773 2.81333e-20)
(0.0274659 0.0383702 4.77267e-19)
(0.0524854 0.0387827 1.54387e-19)
(0.0812801 0.0394815 -2.07995e-20)
(0.113569 0.0406781 4.1827e-20)
(0.149077 0.0425411 1.61581e-19)
(0.187523 0.0452057 1.35305e-19)
(0.228617 0.0487809 2.90402e-19)
(0.272056 0.053355 -3.3191e-19)
(0.317529 0.0590009 1.00531e-19)
(0.364723 0.0657792 3.05854e-20)
(0.413334 0.0737414 1.4964e-19)
(0.463085 0.0829314 4.06771e-19)
(0.513751 0.0933821 -2.65863e-19)
(0.565175 0.105103 2.28588e-20)
(0.617296 0.118071 -3.79275e-19)
(0.670272 0.132341 3.60271e-19)
(0.724526 0.14815 -3.51069e-19)
(0.775154 0.161601 3.3568e-20)
(-0.0104898 0.00835691 -3.74936e-19)
(-0.0226205 0.0191824 2.97452e-19)
(-0.0267346 0.0261338 -4.87482e-19)
(-0.0237117 0.0303505 4.23223e-20)
(-0.0142622 0.0327558 3.47213e-19)
(0.00101696 0.0340775 -5.81551e-19)
(0.0216181 0.0348737 4.63615e-19)
(0.0471066 0.0355741 -7.38992e-19)
(0.0770986 0.036511 1.4792e-19)
(0.111238 0.0379404 3.17437e-20)
(0.14918 0.0400583 2.51355e-19)
(0.190574 0.0430122 -8.38256e-19)
(0.235055 0.0469095 1.45256e-19)
(0.282242 0.051824 1.54338e-19)
(0.331736 0.0577998 -9.28281e-20)
(0.383127 0.0648553 -5.77442e-19)
(0.436002 0.0729847 2.72639e-19)
(0.48996 0.0821588 5.11741e-19)
(0.544627 0.092323 -5.41654e-19)
(0.599672 0.103392 3.94058e-19)
(0.654821 0.115239 -5.12961e-19)
(0.709856 0.127675 3.73832e-19)
(0.764657 0.140534 -1.04732e-19)
(0.819281 0.154019 6.00079e-19)
(0.869612 0.166126 -6.98153e-19)
(-0.0104473 0.00784654 5.36811e-20)
(-0.0215103 0.0176395 4.39195e-20)
(-0.0236367 0.0237874 1.08333e-19)
(-0.0178507 0.0274357 3.88999e-19)
(-0.00495528 0.0295223 -1.22414e-20)
(0.0143819 0.0307849 8.79155e-20)
(0.0395891 0.0317814 3.93243e-19)
(0.0701671 0.0329345 1.5942e-19)
(0.105661 0.0345636 -5.2744e-20)
(0.145635 0.0369067 4.50917e-19)
(0.189649 0.040135 -5.15419e-19)
(0.237248 0.0443645 7.93712e-19)
(0.287951 0.0496633 -3.16019e-19)
(0.341252 0.0560579 5.75399e-19)
(0.396625 0.0635371 -1.94893e-19)
(0.453531 0.0720561 7.12966e-20)
(0.511434 0.0815382 8.66384e-20)
(0.569814 0.0918769 -1.68056e-19)
(0.628183 0.102935 1.41009e-19)
(0.686102 0.114543 9.09529e-20)
(0.743186 0.126493 1.26069e-19)
(0.799101 0.138527 2.68899e-19)
(0.853566 0.150393 -2.2386e-20)
(0.906463 0.162268 -1.2366e-19)
(0.95477 0.173592 3.81376e-19)
(-0.0102514 0.00726532 -3.1388e-19)
(-0.0198608 0.0159286 3.44389e-20)
(-0.0195495 0.0212453 -6.23297e-19)
(-0.0105026 0.0243527 -1.49814e-19)
(0.00637186 0.0261955 -2.82069e-19)
(0.0303223 0.0275163 -6.0836e-20)
(0.0606957 0.0288663 -3.0525e-19)
(0.0969067 0.0306539 -1.83254e-19)
(0.138403 0.0331778 2.43734e-19)
(0.184637 0.0366477 -4.08509e-19)
(0.235041 0.041199 -1.13914e-19)
(0.28902 0.0469036 4.50739e-21)
(0.345942 0.0537776 -7.75495e-19)
(0.405147 0.0617883 3.30793e-19)
(0.465957 0.0708595 -4.84534e-19)
(0.527687 0.0808769 -1.51882e-20)
(0.58967 0.0916934 9.63376e-20)
(0.651272 0.103133 -1.56588e-19)
(0.711911 0.114993 -1.37728e-19)
(0.771067 0.12705 6.93089e-20)
(0.828294 0.139058 7.79683e-20)
(0.883216 0.150745 -5.05853e-19)
(0.93551 0.161846 2.89248e-19)
(0.985014 0.172496 1.4752e-19)
(1.02977 0.183152 4.22969e-20)
(-0.00987267 0.00661395 3.21213e-19)
(-0.017588 0.0140642 -3.55677e-19)
(-0.0143392 0.0185468 5.0222e-19)
(-0.00148991 0.0211721 7.85673e-20)
(0.0199311 0.0228816 -2.42436e-20)
(0.0490706 0.0244153 -1.71792e-19)
(0.0851715 0.0263094 2.59714e-20)
(0.127533 0.0289486 2.63726e-19)
(0.175474 0.0325994 -3.65429e-19)
(0.228295 0.0374308 3.85361e-19)
(0.285265 0.0435283 -4.08538e-20)
(0.345611 0.0509049 1.80597e-20)
(0.408521 0.0595113 5.06837e-19)
(0.473159 0.0692434 6.81705e-19)
(0.53868 0.079952 -2.67536e-19)
(0.604259 0.0914506 4.77262e-19)
(0.669112 0.103525 2.43682e-19)
(0.732521 0.115939 -1.49166e-19)
(0.793851 0.128447 4.756e-19)
(0.852561 0.140794 -1.75222e-20)
(0.908215 0.152727 -4.60932e-19)
(0.960475 0.163993 4.89019e-19)
(1.00908 0.174354 7.16517e-20)
(1.05392 0.183915 -3.06463e-19)
(1.09395 0.193776 9.70352e-20)
(-0.00927813 0.00589448 -4.47101e-19)
(-0.0146017 0.0120655 4.84905e-19)
(-0.00786677 0.0157391 -3.09866e-19)
(0.00936489 0.0179756 -9.73735e-20)
(0.0359252 0.0197 -2.19064e-19)
(0.0708355 0.0216393 3.89492e-19)
(0.113205 0.0243039 -2.27243e-19)
(0.162183 0.0280417 -1.04609e-19)
(0.216915 0.0330728 -3.00795e-19)
(0.276514 0.0395093 7.8125e-21)
(0.340044 0.0473696 -1.18623e-19)
(0.406523 0.0565924 5.79889e-20)
(0.474935 0.067048 -6.1246e-19)
(0.544259 0.0785511 1.75072e-19)
(0.613494 0.0908739 -2.12227e-19)
(0.681697 0.103759 -1.71845e-19)
(0.748006 0.116932 5.31656e-20)
(0.811671 0.130115 -2.52882e-19)
(0.87207 0.143035 -1.09682e-19)
(0.928714 0.155434 3.15392e-19)
(0.981252 0.167075 1.3499e-19)
(1.02946 0.177747 -5.74288e-19)
(1.07321 0.187264 4.24756e-19)
(1.11254 0.195727 -8.06897e-20)
(1.14708 0.204567 -1.69524e-19)
(-0.00843176 0.00511106 -1.63098e-19)
(-0.0108071 0.00995799 -9.05474e-20)
(8.15061e-06 0.0128796 -1.82461e-20)
(0.0222336 0.0148572 1.34112e-19)
(0.0545384 0.0167828 1.46757e-19)
(0.095789 0.0193575 1.28488e-19)
(0.144923 0.0230504 1.60579e-19)
(0.200898 0.0281565 2.46252e-19)
(0.262643 0.0348308 3.77975e-19)
(0.329038 0.043109 3.75462e-19)
(0.398907 0.052924 1.99009e-19)
(0.471036 0.0641224 -5.36249e-20)
(0.5442 0.076482 1.34701e-20)
(0.617202 0.0897289 -1.85503e-20)
(0.688917 0.103557 1.59797e-19)
(0.758329 0.117644 -4.31683e-20)
(0.824563 0.131671 4.78444e-19)