/*--------------------------------*- C++ -*----------------------------------*\
  =========                 |
  \\      /  F ield         | OpenFOAM: The Open Source CFD Toolbox
   \\    /   O peration     | Website:  https://openfoam.org
    \\  /    A nd           | Version:  6.0
     \\/     M anipulation  |
\*---------------------------------------------------------------------------*/
FoamFile
{
    version     2.0;
    format      ascii;
    class       volVectorField;
    location    "65";
    object      U;
}
// * * * * * * * * * * * * * * * * * * * * * * * * * * * * * * * * * * * * * //

dimensions      [0 1 -1 0 0 0 0];

internalField   nonuniform List<vector> 
12500
(
(-0.000378205 0.0476101 -1.39859e-21)
(-0.000415743 0.125174 2.08611e-20)
(-1.26431e-05 0.187759 -3.03921e-20)
(7.46331e-05 0.237155 1.39816e-20)
(-0.000376151 0.275182 8.07782e-22)
(-0.00132387 0.303698 -1.70573e-21)
(-0.00260511 0.324481 -2.56471e-20)
(-0.00399508 0.339125 1.41207e-20)
(-0.00525622 0.348977 9.40521e-21)
(-0.00617248 0.355111 9.55759e-21)
(-0.0065689 0.358337 -1.62958e-20)
(-0.00631999 0.359227 9.50576e-21)
(-0.00535055 0.358166 -4.51055e-21)
(-0.00363156 0.355391 7.69019e-21)
(-0.00117317 0.351037 -1.97504e-20)
(0.00198359 0.345177 2.86432e-20)
(0.00577555 0.337851 -5.37999e-21)
(0.0101256 0.329089 -2.05604e-20)
(0.0149501 0.318926 1.0656e-20)
(0.0201649 0.307409 -1.02793e-20)
(0.0256949 0.294599 9.20376e-21)
(0.0314775 0.28057 1.21992e-20)
(0.0374284 0.265396 1.37882e-21)
(0.0434009 0.249125 -3.5438e-20)
(0.0495389 0.231745 1.95383e-20)
(-0.0016795 0.0466724 2.70475e-20)
(-0.00341741 0.123471 -7.19325e-20)
(-0.00365736 0.186031 2.11386e-20)
(-0.00349976 0.235818 1.41953e-20)
(-0.00338333 0.2744 -1.1378e-20)
(-0.00342421 0.303453 -6.47267e-20)
(-0.00359043 0.32463 1.92751e-20)
(-0.00375943 0.339458 -3.66003e-20)
(-0.00376779 0.349258 4.39299e-20)
(-0.00344963 0.355109 -5.87917e-20)
(-0.00266047 0.35785 3.15056e-20)
(-0.00128964 0.358096 1.03789e-20)
(0.00073522 0.356278 -2.5978e-20)
(0.00344917 0.352678 -1.15963e-20)
(0.00685434 0.347473 8.4872e-20)
(0.0109261 0.340773 -7.57272e-20)
(0.01562 0.332645 1.81366e-20)
(0.0208786 0.323139 3.16206e-20)
(0.026637 0.312301 -7.27733e-21)
(0.0328284 0.300184 5.16844e-20)
(0.0393926 0.286848 9.91221e-21)
(0.0462807 0.272362 -3.21378e-21)
(0.0534095 0.256786 -6.67105e-20)
(0.0605977 0.240155 6.22582e-20)
(0.0680366 0.222447 -1.2337e-19)
(-0.00291837 0.045359 8.73975e-20)
(-0.00634792 0.120819 2.96753e-20)
(-0.00731919 0.182953 -3.94427e-20)
(-0.00721165 0.232867 1.70248e-20)
(-0.00664587 0.271862 1.57541e-20)
(-0.00587702 0.301408 6.0184e-20)
(-0.00499497 0.323013 -7.68296e-20)
(-0.00397618 0.338112 -1.27262e-20)
(-0.00273207 0.347984 -5.1857e-20)
(-0.00114978 0.353699 -4.35095e-20)
(0.000880997 0.356112 5.61729e-20)
(0.00345227 0.35587 -1.89406e-19)
(0.00662998 0.353442 -6.23256e-21)
(0.0104519 0.34915 -1.15333e-19)
(0.0149296 0.34321 -1.39759e-20)
(0.0200519 0.335764 1.6257e-20)
(0.0257904 0.326904 -9.16119e-20)
(0.0321047 0.316699 -5.78648e-20)
(0.0389463 0.305209 -6.89111e-20)
(0.0462633 0.292493 1.0818e-19)
(0.0540081 0.278614 4.03961e-20)
(0.0621432 0.263637 -1.79298e-19)
(0.070588 0.24762 -8.75631e-20)
(0.0791306 0.230585 -9.94764e-20)
(0.0879858 0.212513 2.74209e-19)
(-0.00406766 0.043721 -2.54491e-21)
(-0.00913958 0.117321 -6.92957e-20)
(-0.010907 0.178634 -3.3471e-20)
(-0.0109604 0.228401 2.13797e-20)
(-0.0100641 0.26764 1.29595e-19)
(-0.00859049 0.297603 -5.82513e-20)
(-0.00673851 0.319637 1.25116e-19)
(-0.00457754 0.335069 1.19639e-19)
(-0.00209263 0.345115 7.29589e-20)
(0.000774436 0.350823 -1.10217e-21)
(0.0040966 0.35305 1.48512e-19)
(0.00794336 0.352464 2.58782e-20)
(0.0123702 0.349564 1.14654e-19)
(0.0174139 0.344707 2.66198e-19)
(0.0230913 0.338143 -3.10712e-19)
(0.0294017 0.33004 4.70752e-19)
(0.0363293 0.320518 1.04334e-19)
(0.0438473 0.309664 -2.29642e-19)
(0.0519209 0.297549 -3.33648e-20)
(0.0605103 0.284241 8.41821e-20)
(0.0695778 0.269808 -4.35815e-20)
(0.0790949 0.254319 -2.72107e-20)
(0.0889849 0.237832 -2.65822e-20)
(0.0990101 0.220364 -1.05286e-19)
(0.109384 0.201907 3.75849e-19)
(-0.00510604 0.0418125 4.59926e-20)
(-0.0117357 0.113086 -2.19777e-19)
(-0.0143405 0.173201 2.67649e-19)
(-0.0146534 0.222536 -1.06243e-19)
(-0.0135428 0.261827 1.28196e-19)
(-0.0114741 0.2921 1.04884e-19)
(-0.00873972 0.31453 3.98822e-20)
(-0.00549362 0.330322 2.23919e-21)
(-0.00179128 0.340616 2.26005e-19)
(0.00237053 0.346422 1.5734e-19)
(0.00702497 0.348585 -6.32853e-20)
(0.0122154 0.347785 -4.14097e-20)
(0.0179829 0.344541 1.73654e-19)
(0.0243586 0.339239 3.27173e-20)
(0.0313611 0.332155 9.03484e-20)
(0.0389956 0.323487 2.18468e-19)
(0.0472553 0.313374 -1.89394e-19)
(0.0561236 0.301923 1.54404e-19)
(0.065576 0.289217 -3.36265e-19)
(0.0755819 0.275335 2.85665e-19)
(0.0861108 0.260353 2.47333e-21)
(0.0971404 0.244345 -2.33087e-19)
(0.108598 0.227376 9.3049e-20)
(0.120227 0.209462 2.16308e-19)
(0.132214 0.190615 -3.27462e-19)
(-0.00601839 0.0396889 2.38947e-19)
(-0.0140922 0.108232 -2.61822e-19)
(-0.0175533 0.166796 -4.18902e-20)
(-0.0182104 0.215408 5.32629e-20)
(-0.0169961 0.254534 -1.15073e-19)
(-0.0144437 0.284978 -1.79607e-19)
(-0.0109216 0.307736 -1.49801e-19)
(-0.00665784 0.323882 -3.60971e-20)
(-0.00177352 0.334465 -2.59896e-19)
(0.00368076 0.340444 2.08593e-19)
(0.00969682 0.342643 -3.25075e-19)
(0.0162889 0.34174 1.65238e-19)
(0.0234794 0.338266 -5.52095e-20)
(0.03129 0.332628 1.29135e-19)
(0.0397362 0.325127 -3.26986e-19)
(0.0488251 0.315982 1.60291e-19)
(0.0585548 0.305353 1.24395e-20)
(0.0689154 0.293363 7.16059e-20)
(0.0798893 0.280112 4.41211e-19)
(0.0914521 0.265686 1.00728e-19)
(0.103578 0.250172 -7.22547e-21)
(0.116247 0.233656 2.89867e-20)
(0.129392 0.21621 1.91277e-19)
(0.142742 0.197859 5.56327e-20)
(0.156433 0.178634 1.86446e-19)
(-0.00679591 0.0374064 -1.48852e-19)
(-0.0161784 0.102883 2.18064e-19)
(-0.0204946 0.159568 1.37195e-20)
(-0.021566 0.207169 -2.66816e-19)
(-0.0203511 0.245896 5.63661e-19)
(-0.0174254 0.276341 -1.8246e-19)
(-0.0132152 0.299321 2.67466e-19)
(-0.00801078 0.315774 2.45264e-19)
(-0.00199215 0.326651 -2.03765e-19)
(0.00473858 0.332848 -2.98287e-19)
(0.0121314 0.335155 8.19542e-20)
(0.020169 0.334237 -8.66889e-20)
(0.0288517 0.330632 -3.88256e-19)
(0.0381873 0.324758 4.75479e-19)
(0.0481841 0.316933 -2.30115e-19)
(0.0588468 0.307397 -1.60478e-19)
(0.0701747 0.296328 1.15696e-21)
(0.0821605 0.283866 1.33294e-19)
(0.0947906 0.270121 5.62721e-20)
(0.108044 0.255194 -2.19355e-19)
(0.121897 0.239182 2.55052e-19)
(0.136331 0.222181 -4.46108e-19)
(0.151282 0.204281 2.74367e-19)
(0.166471 0.185519 -2.14144e-19)
(0.181959 0.165952 5.58744e-20)
(-0.00743601 0.0350203 2.17621e-19)
(-0.0179776 0.0971632 -1.72511e-19)
(-0.0231309 0.151678 -1.09426e-19)
(-0.0246722 0.197984 -1.93996e-19)
(-0.0235502 0.236065 -3.55868e-19)
(-0.0203584 0.266311 -2.63456e-19)
(-0.0155626 0.289373 1.64869e-19)
(-0.0095025 0.306048 -2.5034e-19)
(-0.0024093 0.317186 3.19174e-19)
(0.00556698 0.323609 -5.21754e-19)
(0.0143351 0.326065 2.33151e-19)
(0.0238446 0.325197 4.96293e-19)
(0.0340708 0.321537 -7.0181e-19)
(0.0450038 0.31551 1.00761e-19)
(0.0566408 0.307447 1.33255e-19)
(0.06898 0.297602 1.30851e-19)
(0.082018 0.286169 -1.38874e-19)
(0.0957474 0.2733 -3.32708e-20)
(0.110156 0.259122 -1.03962e-19)
(0.125223 0.243745 -8.83916e-20)
(0.140927 0.227277 -4.94335e-19)
(0.157247 0.20983 -3.46693e-20)
(0.174123 0.191511 6.03237e-21)
(0.191273 0.172382 -2.30665e-19)
(0.208663 0.152524 2.42049e-19)
(-0.00794223 0.0325848 5.75246e-21)
(-0.0194872 0.0911996 6.95761e-20)
(-0.0254464 0.14329 7.32095e-20)
(-0.0274992 0.18803 4.28311e-20)
(-0.0265528 0.225207 3.62637e-19)
(-0.0231968 0.255035 3.40946e-19)
(-0.0179182 0.278004 -2.78202e-19)
(-0.0110934 0.294779 -8.47895e-20)
(-0.0029965 0.306104 -7.56526e-20)
(0.00617926 0.312724 3.92265e-19)
(0.0163031 0.315336 1.41929e-19)
(0.0272906 0.314553 -2.07038e-19)
(0.0390899 0.310893 -1.77397e-19)
(0.0516705 0.304779 4.29541e-19)
(0.0650147 0.296549 -1.0573e-19)
(0.0791111 0.286468 -1.29848e-19)
(0.0939502 0.274741 -1.84389e-19)
(0.109522 0.261533 -1.44725e-19)
(0.125813 0.246982 -1.87856e-19)
(0.142804 0.231208 -1.25497e-19)
(0.160473 0.214332 5.22188e-19)
(0.178797 0.196479 -2.58947e-19)
(0.197719 0.177783 1.75776e-19)
(0.216964 0.158335 -4.77177e-19)
(0.236374 0.138255 1.94065e-19)
(-0.00832393 0.030152 -1.95114e-19)
(-0.0207183 0.0851166 -5.19294e-20)
(-0.0274432 0.13457 -4.10292e-19)
(-0.0300361 0.177491 -1.96476e-19)
(-0.029336 0.213505 -3.88903e-19)
(-0.0259091 0.242674 -4.01864e-20)
(-0.0202479 0.265349 2.09696e-19)
(-0.0127527 0.282066 -1.27982e-19)
(-0.00373201 0.293468 2.77159e-19)
(0.00658319 0.300219 -6.76271e-19)
(0.018025 0.302959 -2.00171e-20)
(0.0304754 0.302263 1.21312e-19)
(0.0438541 0.29863 -1.54652e-19)
(0.0581078 0.292474 1.43237e-19)
(0.0732012 0.284133 -1.0843e-19)
(0.0891102 0.273876 -2.36803e-19)
(0.105818 0.261918 4.37911e-19)
(0.123308 0.248432 2.75833e-19)
(0.141568 0.233564 -5.53428e-20)
(0.160578 0.217444 1.86858e-19)
(0.180317 0.200203 -3.69256e-19)
(0.200762 0.181982 5.41051e-19)
(0.221862 0.162941 -7.43311e-19)
(0.24335 0.143221 1.54192e-19)
(0.264922 0.122992 -2.99745e-19)
(-0.00859597 0.0277711 1.02373e-20)
(-0.0216954 0.0790344 -1.79132e-19)
(-0.0291402 0.125685 2.6538e-19)
(-0.0322895 0.166556 5.45132e-19)
(-0.0318928 0.201151 -8.93839e-21)
(-0.0284772 0.229413 6.202e-20)
(-0.0225268 0.251567 -2.34094e-19)
(-0.0144547 0.268039 1.10703e-19)
(-0.00459503 0.279372 7.61527e-19)
(0.00678906 0.286152 -1.7366e-19)
(0.0194959 0.288956 -2.0632e-19)
(0.0333753 0.288319 7.835e-19)
(0.0483183 0.284711 2.58226e-19)
(0.0642474 0.278533 1.24785e-19)
(0.0811083 0.270116 1.27599e-19)
(0.098863 0.259729 3.50472e-19)
(0.117485 0.24759 -1.37977e-19)
(0.136954 0.233877 3.63169e-19)
(0.157254 0.218741 4.99298e-19)
(0.178372 0.202318 -4.31911e-19)
(0.200287 0.184744 6.49003e-19)
(0.222979 0.166178 2.37235e-19)
(0.246405 0.146811 -9.00955e-19)
(0.270313 0.126848 1.31385e-18)
(0.294224 0.10654 -1.07795e-18)
(-0.00877814 0.0254874 -4.96532e-19)
(-0.0224545 0.0730671 2.78485e-19)
(-0.0305715 0.116793 -1.87521e-19)
(-0.0342817 0.155412 -1.78955e-19)
(-0.0342297 0.188346 -1.92621e-19)
(-0.0308922 0.215447 -2.08985e-19)
(-0.0247341 0.23684 5.83825e-20)
(-0.0161715 0.252856 5.48588e-19)
(-0.0055562 0.263945 -1.18422e-19)
(0.00682238 0.270617 -3.08176e-19)
(0.0207328 0.273391 -1.88567e-19)
(0.0359952 0.272752 -7.79621e-20)
(0.052473 0.26914 2.3066e-19)
(0.0700649 0.262935 -1.48166e-19)
(0.0886973 0.254456 -4.90835e-19)
(0.108318 0.243966 -5.48146e-19)
(0.128892 0.231682 2.19295e-19)
(0.150395 0.217781 -4.1578e-19)
(0.172812 0.202414 3.66348e-19)
(0.196135 0.185719 -1.03956e-18)
(0.220351 0.167835 8.10269e-19)
(0.245446 0.148931 -1.08446e-18)
(0.271383 0.129233 -2.46344e-20)
(0.297934 0.109035 -3.79092e-19)
(0.324405 0.088711 1.10855e-18)
(-0.00889451 0.0233423 7.6003e-19)
(-0.0230416 0.0673199 1.14117e-19)
(-0.031783 0.108048 -7.54717e-20)
(-0.036046 0.144244 -3.20246e-20)
(-0.0363611 0.175291 5.94284e-19)
(-0.0331482 0.200982 1.92406e-19)
(-0.026845 0.22137 1.74554e-19)
(-0.0178627 0.2367 -1.41813e-19)
(-0.006564 0.247349 5.47279e-19)
(0.00674154 0.253754 -2.71281e-19)
(0.0217976 0.256372 1.75259e-19)
(0.0383979 0.255643 4.47029e-19)
(0.0563812 0.251971 -2.56488e-19)
(0.0756244 0.24571 2.78194e-19)
(0.0960365 0.237163 2.64495e-19)
(0.117553 0.226581 9.16767e-20)
(0.140131 0.214174 -2.31949e-19)
(0.163747 0.200112 6.37979e-19)
(0.188388 0.184542 -6.12949e-20)
(0.214055 0.167596 -7.55241e-20)
(0.240746 0.149413 7.92711e-19)
(0.268452 0.130168 -5.75051e-19)
(0.297146 0.110122 9.74717e-19)
(0.32662 0.0896801 -8.22341e-19)
(0.355931 0.0693997 1.05863e-18)
(-0.00897243 0.0213714 -3.66164e-19)
(-0.0235097 0.0618861 8.20457e-20)
(-0.0328281 0.0995885 -8.74022e-20)
(-0.037621 0.133226 -4.13879e-19)
(-0.0383025 0.162186 2.48401e-20)
(-0.0352333 0.186233 2.35377e-19)
(-0.0288194 0.205371 -9.62053e-19)
(-0.0194617 0.219785 7.19219e-19)
(-0.00752726 0.229783 -7.02527e-19)
(0.00666008 0.235741 -4.45279e-19)
(0.0228246 0.238059 3.99448e-19)
(0.0407391 0.23713 -8.70333e-19)
(0.0602216 0.23332 7.36299e-19)
(0.0811316 0.226954 -2.354e-19)
(0.103364 0.218314 -6.81107e-19)
(0.126847 0.207636 1.70397e-19)
(0.151533 0.195114 -1.61107e-19)
(0.177399 0.180911 6.41967e-20)
(0.204441 0.165161 -2.20426e-19)
(0.232668 0.147988 -7.47446e-19)
(0.262089 0.129523 1.67162e-19)
(0.292699 0.109939 -2.55541e-21)
(0.324469 0.089531 -8.01462e-19)
(0.357216 0.0688424 5.63022e-19)
(0.3897 0.0486817 -4.93958e-19)
(-0.00904121 0.0196042 1.48045e-19)
(-0.0239148 0.0568448 2.79616e-19)
(-0.0337619 0.091537 3.92283e-19)
(-0.0390433 0.122518 2.01636e-19)
(-0.0400607 0.14922 -1.9841e-19)
(-0.0371182 0.171411 4.74303e-19)
(-0.0305888 0.18907 3.50289e-19)
(-0.0208587 0.202341 -1.29769e-19)
(-0.00829452 0.211478 4.58467e-19)
(0.00677223 0.216803 -4.73659e-19)
(0.024053 0.218665 -1.40109e-19)
(0.0433059 0.217412 1.42161e-19)
(0.0643351 0.213371 2.81481e-19)
(0.0869883 0.206837 3.7298e-21)
(0.111153 0.198067 1.81251e-19)
(0.136752 0.187278 3.40642e-19)
(0.16374 0.174647 -5.84371e-19)
(0.192097 0.160322 7.32996e-19)
(0.221825 0.144422 2.51967e-19)
(0.25294 0.127058 9.39646e-20)
(0.285455 0.108348 -9.20237e-19)
(0.319358 0.0884599 1.28398e-19)
(0.354598 0.067715 2.0616e-19)
(0.391015 0.0468167 -5.30248e-20)
(0.427039 0.0269008 2.41738e-19)
(-0.00913037 0.0180626 1.01105e-20)
(-0.0243118 0.0522573 -7.18997e-19)
(-0.034634 0.0839949 -1.88148e-20)
(-0.0403378 0.11226 -1.82872e-19)
(-0.0416234 0.136569 -1.19777e-18)
(-0.0387439 0.156722 1.03517e-18)
(-0.0320408 0.172698 -7.38072e-19)
(-0.0218835 0.184616 -3.82218e-20)
(-0.00863276 0.192692 -3.49161e-19)
(0.00737845 0.197203 6.05077e-19)
(0.0258564 0.198453 -6.53502e-19)
(0.0465525 0.196748 -3.0727e-19)
(0.0692649 0.192378 4.78942e-21)
(0.093837 0.185609 -6.73784e-19)
(0.120155 0.176669 9.24501e-19)
(0.148142 0.165753 -1.08271e-18)
(0.177755 0.153021 4.31337e-22)
(0.208976 0.138603 1.67244e-19)
(0.241809 0.122603 -4.30668e-19)
(0.276265 0.105115 4.25114e-19)
(0.312347 0.0862443 -6.02141e-19)
(0.35001 0.0661473 -4.06327e-19)
(0.389154 0.0451638 7.64849e-19)
(0.429633 0.0241732 -8.42583e-19)
(0.469542 0.004712 -1.47904e-20)
(-0.00926754 0.0167591 -5.86717e-19)
(-0.0247488 0.0481644 6.96062e-19)
(-0.0354806 0.0770383 -2.16553e-19)
(-0.0415086 0.102569 4.15431e-19)
(-0.0429472 0.12439 4.48642e-19)
(-0.0400084 0.142362 -3.96393e-19)
(-0.033005 0.156483 -2.60738e-19)
(-0.0222885 0.166867 -3.13618e-19)
(-0.00820922 0.173704 2.88731e-19)
(0.00890551 0.177237 -2.02712e-20)
(0.0287649 0.177731 4.22464e-19)
(0.0511224 0.175456 4.17984e-19)
(0.0757784 0.170668 -5.03014e-19)
(0.102579 0.1636 9.91787e-19)
(0.131413 0.154456 -6.6366e-19)
(0.162207 0.143409 -1.15435e-19)
(0.194917 0.130599 1.31664e-18)
(0.229519 0.116139 -6.12666e-19)
(0.266003 0.10012 3.99477e-19)
(0.304356 0.0826229 7.88942e-19)
(0.344541 0.0637398 -5.14057e-19)
(0.386451 0.0436138 5.38121e-20)
(0.429899 0.022592 -3.83305e-20)
(0.474735 0.0017347 -2.19409e-19)
(0.518775 -0.016952 4.11579e-19)
(-0.00947592 0.0156961 1.33948e-19)
(-0.0252611 0.0445835 -4.37105e-19)
(-0.0363172 0.0707145 2.40309e-19)
(-0.0425296 0.0935293 -3.46663e-21)
(-0.0439486 0.112811 1.81996e-19)
(-0.0407564 0.128502 -3.12792e-19)
(-0.0332424 0.140641 1.79621e-19)
(-0.021739 0.149348 4.89858e-19)
(-0.00658176 0.154803 -1.48909e-20)
(0.0119143 0.157224 -2.50003e-19)
(0.0334693 0.156845 2.51601e-19)
(0.0578467 0.153904 -5.86308e-21)
(0.0848555 0.148626 -8.07475e-19)
(0.114349 0.141216 2.99798e-19)
(0.146218 0.131853 6.59018e-20)
(0.180387 0.120689 -1.18968e-19)
(0.2168 0.107849 -2.18151e-19)
(0.255411 0.0934317 8.28516e-19)
(0.296168 0.0775186 2.06074e-19)
(0.339005 0.0601827 -4.43365e-19)
(0.383809 0.0415077 -5.59289e-20)
(0.430374 0.0216243 6.28902e-19)
(0.478384 0.000873621 -2.93833e-19)
(0.527668 -0.0195152 1.29895e-19)
(0.575885 -0.0369992 8.49494e-20)
(-0.0097717 0.0148645 -2.66362e-19)
(-0.0258662 0.0415069 2.7481e-19)
(-0.037131 0.065039 -1.54833e-19)
(-0.0433374 0.0851943 -4.98775e-19)
(-0.0444965 0.10193 -4.6017e-19)
(-0.0407742 0.115289 -2.01931e-19)
(-0.0324415 0.125366 -1.68397e-19)
(-0.0198122 0.132303 -4.98742e-19)
(-0.0032033 0.136277 -2.02147e-19)
(0.0170882 0.137492 1.85357e-19)
(0.0407992 0.136159 -2.64466e-19)
(0.0677078 0.132489 -2.79147e-19)
(0.0976333 0.12668 -2.63558e-19)
(0.130433 0.118913 4.83585e-19)
(0.165993 0.109346 -1.0181e-18)
(0.20422 0.0981136 5.89741e-19)
(0.245025 0.0853268 -1.01302e-18)
(0.288308 0.071077 -1.58366e-19)
(0.333946 0.055441 -5.70956e-19)
(0.381776 0.0384906 -1.36013e-19)
(0.431574 0.0203087 -1.65651e-19)
(0.483 0.00101648 -5.6264e-19)
(0.535576 -0.0190654 -6.4612e-20)
(0.589088 -0.0385728 3.51946e-19)
(0.64124 -0.0543521 -9.06334e-19)
(-0.0101616 0.014243 2.2823e-19)
(-0.0265586 0.0389003 3.08627e-19)
(-0.0378768 0.0599936 1.08207e-18)
(-0.0438277 0.077579 -1.90095e-19)
(-0.044411 0.0918062 4.55136e-19)
(-0.0397903 0.102833 1.08349e-18)
(-0.0302248 0.110822 -2.96463e-19)
(-0.0160105 0.115946 4.01073e-19)
(0.00255579 0.118393 2.33982e-19)
(0.0251978 0.118358 4.24898e-19)
(0.0516708 0.116035 -8.47758e-20)
(0.0817656 0.111616 5.7956e-20)
(0.115306 0.105277 -1.51335e-19)
(0.152141 0.0971777 8.15934e-19)
(0.192133 0.0874602 1.03764e-19)
(0.235143 0.0762451 7.69211e-19)
(0.281017 0.0636351 -1.99609e-19)
(0.329567 0.0497184 7.18663e-19)
(0.380556 0.0345729 1.04227e-19)
(0.433687 0.0182753 3.75072e-19)
(0.488591 0.000913417 -1.64316e-19)
(0.544771 -0.0173966 -3.42913e-20)
(0.601573 -0.0363691 9.1766e-19)
(0.658717 -0.0545617 5.73303e-19)
(0.714209 -0.0681238 -2.3398e-19)
(-0.0106408 0.0137987 -5.49632e-19)
(-0.0273075 0.0367042 -5.75455e-19)
(-0.0384749 0.0555267 -6.03711e-19)
(-0.0438558 0.0706602 2.2305e-19)
(-0.0434676 0.0824575 -4.47498e-19)
(-0.037486 0.0912012 -6.6627e-20)
(-0.0261658 0.0971289 -1.76563e-19)
(-0.00978867 0.100455 -7.3126e-19)
(0.0113672 0.101382 -1.13566e-19)
(0.0370436 0.100105 1.88128e-19)
(0.0670083 0.0968088 -5.91394e-19)
(0.101055 0.0916693 8.23061e-19)
(0.138993 0.0848467 -1.12231e-18)
(0.180642 0.0764859 2.71996e-19)
(0.225807 0.0667145 -6.94674e-19)
(0.274271 0.0556445 -5.69489e-19)
(0.325773 0.0433743 -3.37641e-20)
(0.379996 0.0299922 -8.92941e-20)
(0.436552 0.015581 6.78546e-20)
(0.494981 0.000224914 -3.39611e-19)
(0.554744 -0.0159805 -2.37392e-19)
(0.615188 -0.0329216 2.95725e-19)
(0.675495 -0.0503596 -8.2475e-19)
(0.735294 -0.0668509 2.69566e-19)
(0.793158 -0.0777545 1.9133e-19)
(-0.0111922 0.0134887 -9.69312e-20)
(-0.0280551 0.0348365 -1.65845e-19)
(-0.0388128 0.0515551 6.52233e-19)
(-0.0432418 0.0643768 2.42815e-19)
(-0.0414072 0.0738592 3.21858e-19)
(-0.0335118 0.0804139 -4.31697e-19)
(-0.0198153 0.0843589 1.29732e-21)
(-0.000591819 0.0859542 -3.4933e-19)
(0.0238917 0.0854237 6.4843e-19)
(0.0533846 0.0829674 2.11644e-19)
(0.0876522 0.0787668 2.37876e-19)
(0.126468 0.0729871 -9.5072e-19)
(0.169603 0.0657771 1.17794e-18)
(0.216807 0.05727 -3.5485e-19)
(0.267792 0.0475844 -2.56304e-19)
(0.32222 0.0368264 7.7291e-19)
(0.37968 0.025092 3.4984e-19)
(0.439691 0.012471 -8.88682e-19)
(0.501686 -0.000949205 -3.78392e-19)
(0.565026 -0.0150784 1.14363e-18)
(0.629003 -0.0298161 -8.84004e-19)
(0.692826 -0.0450528 5.35562e-19)
(0.755552 -0.0606077 3.04997e-19)
(0.81672 -0.0751208 -3.93487e-19)
(0.875647 -0.0830791 -3.73829e-19)
(-0.0117866 0.0132627 -3.55999e-19)
(-0.0287195 0.0331973 5.74851e-19)
(-0.0387496 0.0479698 2.45649e-19)
(-0.0417794 0.0586333 -3.56654e-19)
(-0.0379507 0.0659448 -5.77108e-20)
(-0.0275093 0.070444 -3.75887e-19)
(-0.0107321 0.0725302 -1.49806e-19)
(0.0121019 0.0725116 1.68091e-19)
(0.0407223 0.070637 -4.2647e-20)
(0.0748667 0.0671163 3.18548e-19)
(0.114272 0.0621308 -2.77698e-19)
(0.15866 0.0558402 7.70861e-19)
(0.20772 0.0483853 -9.60295e-19)
(0.261095 0.0398913 6.00789e-19)
(0.318357 0.0304698 7.52924e-19)
(0.379003 0.0202222 -1.096e-18)
(0.442443 0.00924223 -3.37632e-19)
(0.507999 -0.00238054 5.71699e-19)
(0.574918 -0.0145578 -3.55538e-19)
(0.642382 -0.0271987 3.49081e-19)
(0.709537 -0.0402055 -8.492e-19)
(0.775486 -0.0534812 1.41047e-19)
(0.839231 -0.0669159 5.66205e-19)
(0.900264 -0.0792918 -9.20243e-19)
(0.958644 -0.0842267 2.42466e-19)
(-0.0123837 0.0130665 -3.28481e-19)
(-0.0291977 0.0316765 1.06907e-18)
(-0.0381233 0.0446429 2.05967e-19)
(-0.0392467 0.0533076 -5.59514e-19)
(-0.0328146 0.058613 4.02431e-19)
(-0.0191331 0.0612216 2.04286e-19)
(0.00148692 0.0616114 3.26909e-19)
(0.0287429 0.0601388 -2.25772e-20)
(0.0623375 0.0570797 -3.44492e-20)
(0.101967 0.0526562 -7.12893e-20)
(0.147302 0.0470526 -3.14334e-19)
(0.197973 0.0404258 -1.11371e-20)
(0.253543 0.032911 7.41782e-19)
(0.313498 0.0246266 -1.22455e-18)
(0.37723 0.0156776 8.74467e-19)
(0.444036 0.00615925 1.7747e-19)
(0.513121 -0.0038397 3.16501e-19)
(0.583607 -0.014234 -1.67264e-19)
(0.65456 -0.0249394 1.47741e-18)
(0.72501 -0.0358705 -9.20732e-19)
(0.793986 -0.0469383 7.4357e-19)
(0.860529 -0.0580685 1.78078e-19)
(0.923644 -0.0692151 -5.57042e-19)
(0.98288 -0.0792643 4.75542e-19)
(1.03866 -0.0813443 7.29904e-19)
(-0.0129354 0.0128466 -9.52373e-20)
(-0.0293717 0.0301617 -3.77117e-19)
(-0.0367591 0.0414382 -6.47796e-19)
(-0.0354177 0.0482613 -3.70444e-19)
(-0.0257257 0.0517383 -5.2238e-20)
(-0.00806943 0.0526445 -1.47671e-19)
(0.0171843 0.0515316 -6.83352e-19)
(0.0496832 0.048802 1.13465e-19)
(0.0890705 0.0447582 -7.7134e-19)
(0.134961 0.0396355 -5.9751e-20)
(0.186918 0.0336228 -7.44637e-19)
(0.244426 0.0268748 -2.66947e-19)
(0.306877 0.0195211 1.53671e-19)
(0.373556 0.0116718 -7.35324e-19)
(0.443639 0.00342221 6.36724e-21)
(0.516203 -0.00514294 -6.40483e-19)
(0.590242 -0.013946 2.49075e-19)
(0.664697 -0.0229129 -9.04702e-19)
(0.738483 -0.03197 -1.56728e-19)
(0.810533 -0.041041 -2.00505e-20)
(0.879828 -0.0500462 -1.54666e-19)
(0.945402 -0.0589238 -1.56775e-19)
(1.00632 -0.0676117 -7.42725e-20)
(1.06223 -0.0749558 -3.14858e-19)
(1.11268 -0.0752763 -6.78309e-19)
(-0.0133886 0.0125541 1.74424e-19)
(-0.0291147 0.0285472 4.77158e-19)
(-0.0344771 0.0382223 5.76454e-19)
(-0.0300709 0.0433532 -4.63343e-19)
(-0.0164312 0.0451857 8.62383e-19)
(0.00595268 0.044595 -4.70526e-19)
(0.0366305 0.0421986 2.56137e-19)
(0.0751659 0.0384402 3.99326e-19)
(0.121102 0.033647 3.64972e-19)
(0.173925 0.0280668 1.77552e-19)
(0.233037 0.0218911 2.89021e-19)
(0.297731 0.0152714 1.67913e-19)
(0.367177 0.008328 1.14501e-18)
(0.440423 0.00115807 -8.36857e-19)
(0.516408 -0.0061595 9.59089e-19)
(0.593983 -0.0135591 -4.00981e-19)
(0.67195 -0.0209842 8.68944e-19)
(0.749104 -0.0283828 -4.02128e-20)
(0.824275 -0.035703 -1.81248e-19)
(0.896378 -0.0428882 -3.04623e-20)
(0.964449 -0.0498719 6.87593e-19)
(1.02767 -0.0565752 -6.61036e-19)
(1.08543 -0.0628103 4.73879e-19)
(1.13759 -0.0676364 5.10568e-19)
(1.17998 -0.0710293 9.80488e-20)
(-0.0136885 0.0121488 1.20565e-19)
(-0.0282974 0.0267423 -6.82981e-19)
(-0.0310991 0.0348767 -2.49324e-19)
(-0.0229959 0.0384537 2.28171e-19)
(-0.00470409 0.0388282 -7.08301e-19)
(0.0231578 0.0369594 -1.40647e-19)
(0.0600224 0.0335202 9.75406e-20)
(0.105328 0.0289896 3.85515e-19)
(0.158468 0.0237149 -9.82751e-19)
(0.218748 0.0179524 7.4677e-20)
(0.285356 0.0118929 -2.89262e-19)
(0.35734 0.00567846 -8.83102e-19)
(0.43361 -0.000586058 6.04894e-19)
(0.512952 -0.00682528 2.51062e-20)
(0.594062 -0.0129867 -1.77253e-20)
(0.675582 -0.0190351 6.15874e-19)
(0.756162 -0.0249468 -1.09208e-18)
(0.834507 -0.0307047 8.66668e-19)
(0.909435 -0.0362931 -1.61698e-19)
(0.979923 -0.0416928 4.9972e-19)
(1.04514 -0.0468772 -8.26236e-19)
(1.10448 -0.0518098 4.672e-19)
(1.15757 -0.0564007 -8.19287e-19)
(1.20448 -0.0602106 8.22069e-19)
(1.24277 -0.0633659 -2.69932e-19)
(-0.0137814 0.0116009 8.11808e-19)
(-0.0267923 0.0246779 -1.37456e-19)
(-0.0264532 0.031308 1.0169e-18)
(-0.0139964 0.0334594 4.72821e-19)
(0.00965618 0.0325644 3.74586e-20)
(0.0437266 0.0296488 2.08438e-19)
(0.0874904 0.0254285 5.00426e-20)
(0.140212 0.0204089 8.55806e-19)
(0.201081 0.0149506 2.76149e-19)
(0.269166 0.0093113 -3.73024e-20)
(0.343384 0.00367294 7.4392e-20)
(0.422497 -0.0018405 2.89617e-19)
(0.505125 -0.00715073 2.42692e-19)
(0.589785 -0.0122156 5.20405e-19)
(0.674943 -0.0170212 -5.94961e-19)
(0.759077 -0.0215737 1.79948e-19)
(0.840741 -0.0258928 5.568e-20)
(0.918631 -0.030004 2.66901e-19)
(0.991636 -0.0339331 7.17402e-19)
(1.05888 -0.0377007 -4.73946e-19)
(1.11973 -0.0413195 3.6252e-20)
(1.17382 -0.0447946 -6.43218e-19)
(1.22104 -0.0481094 5.97443e-19)
(1.26161 -0.0510278 -5.53346e-19)
(1.29417 -0.0534252 6.8887e-20)
(-0.0136172 0.0108931 -6.77403e-19)
(-0.0244777 0.0223107 5.36893e-19)
(-0.0203758 0.0274564 -8.79219e-19)
(-0.00289051 0.0283048 7.64507e-20)
(0.0268259 0.0263341 6.24956e-19)
(0.067801 0.0226171 -1.04646e-18)
(0.119108 0.017899 8.33367e-19)
(0.179781 0.0126999 -1.32837e-18)
(0.248749 0.00738295 2.66269e-19)
(0.324783 0.00219647 5.69314e-20)
(0.406483 -0.00269869 4.52208e-19)
(0.492287 -0.00721024 -1.50731e-18)
(0.580515 -0.0113003 2.61064e-19)
(0.669429 -0.0149737 2.77297e-19)
(0.757307 -0.0182668 -1.66567e-19)
(0.842526 -0.0212369 -1.03214e-18)
(0.923632 -0.023952 4.88505e-19)
(0.999402 -0.0264821 9.05895e-19)
(1.06889 -0.0288911 -9.49568e-19)
(1.13144 -0.031232 6.8459e-19)
(1.18669 -0.0335436 -8.71171e-19)
(1.23457 -0.0358526 6.2988e-19)
(1.27522 -0.0381648 -1.64027e-19)
(1.30907 -0.0403232 9.37862e-19)
(1.33553 -0.0421215 -1.04038e-18)
(-0.01315 0.0100198 9.7258e-20)
(-0.0212394 0.0196253 7.95574e-20)
(-0.0127133 0.0233003 1.96145e-19)
(0.0104895 0.0229704 7.02247e-19)
(0.0469592 0.0201283 -2.18531e-20)
(0.095489 0.0158737 1.58751e-19)
(0.154896 0.0109643 7.09314e-19)
(0.223928 0.00592009 2.87803e-19)
(0.301187 0.00109203 -9.48618e-20)
(0.385093 -0.00329687 8.13988e-19)
(0.473886 -0.00712366 -9.30188e-19)
(0.565666 -0.0103447 1.43205e-18)
(0.658462 -0.0129787 -5.69509e-19)
(0.750321 -0.0150907 1.03564e-18)
(0.839405 -0.0167769 -3.50617e-19)
(0.924077 -0.0181501 1.27857e-19)
(1.00298 -0.0193262 1.54907e-19)
(1.07506 -0.0204132 -2.93932e-19)
(1.13964 -0.0215032 2.48295e-19)
(1.19634 -0.022667 1.58902e-19)
(1.24514 -0.0239528 2.14505e-19)
(1.28624 -0.0253885 4.40518e-19)
(1.32008 -0.0269769 -4.5069e-20)
(1.34727 -0.0286006 -1.99501e-19)
(1.36781 -0.0300434 5.55696e-19)
(-0.0123377 0.00898631 -5.68184e-19)
(-0.0169706 0.0166332 6.21779e-20)
(-0.00332191 0.0188581 -1.12683e-18)
(0.026297 0.0174865 -2.70979e-19)
(0.0701882 0.0139952 -5.0967e-19)
(0.126864 0.00948928 -1.10106e-19)
(0.194828 0.00471922 -5.51916e-19)
(0.272473 0.000185922 -3.31228e-19)
(0.358017 -0.00379168 4.41761e-19)
(0.449479 -0.0070366 -7.39903e-19)
(0.544714 -0.00948458 -2.06255e-19)
(0.641488 -0.0111599 7.52079e-21)
(0.737578 -0.0121534 -1.40061e-18)
(0.830891 -0.012601 5.96234e-19)
(0.919562 -0.012663 -8.69742e-19)
(1.00205 -0.0125052 -2.63329e-20)
(1.0772 -0.0122833 1.68272e-19)
(1.14424 -0.0121306 -2.77502e-19)
(1.20281 -0.0121512 -2.41596e-19)
(1.25288 -0.0124168 1.15444e-19)
(1.29475 -0.0129677 1.26263e-19)
(1.32892 -0.0138168 -8.24132e-19)
(1.35609 -0.0149477 4.68113e-19)
(1.37702 -0.0162585 2.22398e-19)
(1.39205 -0.0175899 4.68309e-20)
(-0.0111422 0.00780644 5.81719e-19)
(-0.0115719 0.0133705 -6.43872e-19)
(0.00793145 0.0141859 9.0874e-19)
(0.0446696 0.0119317 1.41798e-19)
(0.0966197 0.00803872 -4.36811e-20)
(0.161959 0.00359359 -3.1227e-19)
(0.238813 -0.000683574 4.67616e-20)
(0.325157 -0.00433501 4.78908e-19)
(0.418762 -0.00709883 -6.63516e-19)
(0.517215 -0.0088691 6.99446e-19)
(0.617983 -0.00966339 -7.37586e-20)
(0.718531 -0.00959277 3.33029e-20)
(0.816459 -0.0088326 9.17764e-19)
(0.909625 -0.00759418 1.22661e-18)
(0.996261 -0.00609857 -4.81937e-19)
(1.07504 -0.00455453 8.47031e-19)
(1.14509 -0.00314202 4.23384e-19)
(1.20602 -0.00200186 -2.62908e-19)
(1.25783 -0.00123156 8.12992e-19)
(1.30085 -0.000886174 -3.91203e-20)
(1.3357 -0.000983091 -7.66309e-19)
(1.36314 -0.00150936 7.94356e-19)
(1.38405 -0.002422 1.052e-19)
(1.39935 -0.00362421 -4.74437e-19)
(1.40953 -0.00502836 1.5077e-19)
(-0.00952728 0.00650113 -8.09995e-19)
(-0.00495121 0.00989426 8.78017e-19)
(0.0211679 0.00937378 -5.61089e-19)
(0.0657246 0.00642865 -1.76815e-19)
(0.126327 0.00241266 -3.9721e-19)
(0.200758 -0.00163253 7.06672e-19)
(0.286694 -0.00504496 -4.13456e-19)
(0.381627 -0.00743929 -1.90586e-19)
(0.482841 -0.0086403 -5.4816e-19)
(0.587471 -0.00864083 1.41784e-20)
(0.692626 -0.00756315 -2.15738e-19)
(0.79554 -0.00562031 1.04663e-19)
(0.89373 -0.00307805 -1.10715e-18)
(0.985136 -0.000219319 3.16706e-19)
(1.06821 0.002686 -3.79209e-19)
(1.14193 0.00540397 -3.02721e-19)
(1.20584 0.00775087 9.26268e-20)
(1.25993 0.00959919 -4.36019e-19)
(1.30458 0.0108765 -1.80438e-19)
(1.3405 0.0115596 5.31763e-19)
(1.36854 0.0116645 2.17016e-19)
(1.3897 0.0112367 -9.2856e-19)
(1.40499 0.0103488 6.71706e-19)
(1.41538 0.00909695 -1.2599e-19)
(1.42145 0.00749794 -2.5462e-19)
(-0.0074583 0.00509646 -2.95473e-19)
(0.00297694 0.00627871 -1.64017e-19)
(0.0364935 0.00454023 -3.32342e-20)
(0.0895526 0.0011361 2.4292e-19)
(0.159342 -0.00268945 2.66597e-19)
(0.243179 -0.00597054 2.34125e-19)
(0.338225 -0.00813626 2.92337e-19)
(0.44143 -0.00890786 4.48919e-19)
(0.549562 -0.00822958 6.89124e-19)
(0.659325 -0.0062208 6.8454e-19)
(0.767525 -0.00312765 3.61949e-19)
(0.871267 0.000726683 -9.76432e-20)
(0.968119 0.00498937 2.50136e-20)
(1.05623 0.00931903 -2.99809e-20)
(1.13439 0.0134171 2.88094e-19)
(1.202 0.0170478 -7.20883e-20)
(1.25902 0.0200467 8.33866e-19)
(1.30588 0.0223201 -3.77492e-19)
(1.34334 0.0238364 3.32859e-21)
(1.37239 0.0246147 2.5104e-19)
(1.3941 0.0247108 -5.54308e-19)
(1.40962 0.0242044 9.02958e-19)
(1.42002 0.0231961 -7.27037e-19)
(1.42627 0.021781 1.27676e-19)
(1.42898 0.0199222 -4.60137e-19)
(-0.00490152 0.00362259 6.33918e-19)
(0.0122897 0.00261201 4.43381e-19)
(0.0539957 -0.000173919 -2.86513e-19)
(0.11621 -0.00375947 1.27413e-18)
(0.195639 -0.00704619 -1.1105e-18)
(0.289066 -0.00917962 2.36136e-19)
(0.393065 -0.00971801 -1.78131e-19)
(0.504005 -0.00852715 -7.90164e-19)
(0.618139 -0.00570417 -8.19727e-20)
(0.731785 -0.00151936 -6.41655e-19)
(0.841551 0.00364541 1.423e-20)
(0.944539 0.00935855 -6.66656e-19)
(1.03851 0.0151939 -4.69769e-19)
(1.12196 0.0207739 6.46998e-19)