/*--------------------------------*- C++ -*----------------------------------*\
  =========                 |
  \\      /  F ield         | OpenFOAM: The Open Source CFD Toolbox
   \\    /   O peration     | Website:  https://openfoam.org
    \\  /    A nd           | Version:  6.0
     \\/     M anipulation  |
\*---------------------------------------------------------------------------*/
FoamFile
{
    version     2.0;
    format      ascii;
    class       volVectorField;
    location    "67";
    object      U;
}
// * * * * * * * * * * * * * * * * * * * * * * * * * * * * * * * * * * * * * //

dimensions      [0 1 -1 0 0 0 0];

internalField   nonuniform List<vector> 
4000
(
(-0.000428808 -0.00847504 -4.50981e-21)
(-0.00283666 -0.016572 2.40555e-20)
(-0.00740573 -0.0187705 -2.92491e-20)
(-0.0129104 -0.0171366 2.22573e-20)
(-0.0187042 -0.0131453 1.08271e-20)
(-0.0244221 -0.00779446 -3.24447e-20)
(-0.0298071 -0.00171976 -2.87472e-21)
(-0.0346921 0.00470521 -1.03707e-21)
(-0.0389804 0.0112879 -1.67344e-20)
(-0.0426268 0.0179542 -9.0543e-21)
(-0.0456251 0.0247015 6.77892e-21)
(-0.0479995 0.0315667 2.57863e-20)
(-0.0497993 0.0386041 -1.98592e-21)
(-0.0510936 0.0458725 2.68392e-21)
(-0.0519678 0.0534268 -2.57769e-20)
(-0.0525223 0.0613141 1.58406e-20)
(-0.0528662 0.0695695 -2.26807e-20)
(-0.0530895 0.0782157 3.42215e-20)
(-0.0532568 0.087275 -3.61116e-23)
(-0.0536308 0.0967747 7.30575e-21)
(-0.000148252 -0.0071496 1.48626e-20)
(-0.00222558 -0.0133926 -7.55833e-20)
(-0.00653481 -0.0144124 -5.21352e-20)
(-0.0118142 -0.012115 -3.54614e-20)
(-0.0173829 -0.00785409 -4.54429e-20)
(-0.0228506 -0.00253374 1.03019e-20)
(-0.0279468 0.00328501 -5.23789e-20)
(-0.0324982 0.00928801 -1.17242e-20)
(-0.0364067 0.0153313 3.82881e-21)
(-0.0396284 0.0213822 3.93444e-20)
(-0.04216 0.0274752 -4.2569e-20)
(-0.0440297 0.0336814 5.90626e-20)
(-0.0452907 0.0400878 -4.40716e-20)
(-0.0460171 0.046784 -5.21432e-20)
(-0.0462997 0.0538541 -7.1738e-20)
(-0.0462463 0.0613711 4.58838e-20)
(-0.0459758 0.0693929 -1.45306e-20)
(-0.0455791 0.0779615 -5.36182e-20)
(-0.0451043 0.087115 5.07936e-20)
(-0.0449019 0.0968764 -3.72317e-20)
(2.98036e-05 -0.00588046 1.43507e-19)
(-0.00186855 -0.0103671 7.44399e-20)
(-0.00602784 -0.010294 8.35894e-20)
(-0.0111551 -0.00741214 6.89068e-21)
(-0.0165412 -0.00295429 4.61258e-20)
(-0.021776 0.00226832 5.81098e-20)
(-0.0265795 0.00776777 -1.0398e-19)
(-0.0307747 0.0132878 -5.53e-20)
(-0.0342635 0.0187314 -7.12607e-20)
(-0.0370041 0.0241058 7.69596e-20)
(-0.0389962 0.0294816 -5.84434e-20)
(-0.0402714 0.0349635 -7.43649e-20)
(-0.0408874 0.0406713 -2.6561e-20)
(-0.0409233 0.0467266 2.56732e-20)
(-0.0404765 0.0532446 -7.08202e-21)
(-0.0396646 0.0603277 1.05689e-20)
(-0.0386197 0.0680606 1.18795e-19)
(-0.0374391 0.0765108 -1.6492e-20)
(-0.0361599 0.0857404 -1.20132e-19)
(-0.0352221 0.0957693 1.56842e-19)
(0.000108262 -0.00466251 4.91326e-20)
(-0.00176297 -0.00748814 -7.06941e-20)
(-0.00589062 -0.00641142 -1.76834e-20)
(-0.010951 -0.00302796 3.23276e-20)
(-0.0162114 0.00155006 9.26922e-20)
(-0.0212468 0.00660331 2.03329e-19)
(-0.0257711 0.0117152 1.98191e-19)
(-0.0296063 0.0166852 1.5957e-20)
(-0.0326557 0.0214608 1.21077e-19)
(-0.0348796 0.0260872 1.84854e-19)
(-0.0362806 0.0306691 -1.47905e-19)
(-0.0368934 0.0353445 2.18314e-19)
(-0.0367798 0.0402659 -4.8077e-20)
(-0.0360239 0.0455886 1.27312e-20)
(-0.0347308 0.0514621 5.10061e-20)
(-0.0330298 0.0580228 6.72748e-20)
(-0.0310702 0.0653883 -1.05714e-19)
(-0.0289621 0.07366 -8.76648e-20)
(-0.0267393 0.0829347 -1.55568e-19)
(-0.0249339 0.0932328 2.24067e-19)
(8.83871e-05 -0.00348549 -2.58004e-20)
(-0.0019073 -0.00473796 -2.63088e-19)
(-0.00612623 -0.00274554 -7.76047e-20)
(-0.0112122 0.00105501 -1.89126e-19)
(-0.0164128 0.00567393 7.10339e-20)
(-0.021293 0.0104832 -1.12489e-19)
(-0.0255646 0.0151357 3.77029e-20)
(-0.0290508 0.0194838 -2.37077e-19)
(-0.0316572 0.0235166 1.2424e-19)
(-0.0333471 0.0273142 -1.48768e-19)
(-0.034125 0.0310132 -1.32155e-19)
(-0.0340281 0.0347832 -1.46554e-19)
(-0.033121 0.0388099 1.33215e-19)
(-0.0314926 0.0432842 -1.18134e-19)
(-0.0292561 0.0483938 1.65266e-19)
(-0.0265543 0.0543153 4.74787e-20)
(-0.0235576 0.0612077 1.16867e-19)
(-0.0203961 0.0692171 5.16872e-20)
(-0.017111 0.0784887 -2.02178e-19)
(-0.0143314 0.0890512 3.25647e-19)
(-3.06918e-05 -0.00233523 1.119e-19)
(-0.00230187 -0.00209002 9.37189e-21)
(-0.00673547 0.000733695 4.60736e-20)
(-0.0119408 0.00486734 1.61232e-19)
(-0.0171499 0.0094474 -2.54153e-20)
(-0.0219237 0.0139374 2.60665e-19)
(-0.0259753 0.0180578 1.14547e-19)
(-0.029132 0.0217106 9.46447e-21)
(-0.0313035 0.0249227 2.94606e-19)
(-0.0324556 0.0278051 9.58674e-20)
(-0.0325947 0.030523 4.50359e-20)
(-0.0317587 0.0332754 1.44335e-19)
(-0.0300134 0.0362805 1.31595e-19)
(-0.0274512 0.0397665 2.39038e-19)
(-0.0241927 0.0439643 -2.13513e-19)
(-0.0203956 0.0490984 2.99564e-19)
(-0.0162549 0.05538 2.35337e-21)
(-0.0119289 0.0630139 -3.81555e-19)
(-0.00747971 0.0722118 4.92082e-19)
(-0.00364373 0.0830228 2.00734e-19)
(-0.000252057 -0.00119657 -6.61323e-20)
(-0.0029487 0.000484968 -1.18587e-19)
(-0.00771584 0.00406146 -2.47542e-19)
(-0.0131285 0.00844735 -7.21334e-21)
(-0.0184096 0.0129114 4.12542e-20)
(-0.0231215 0.0170099 -3.15248e-19)
(-0.0269841 0.020529 -2.33266e-19)
(-0.0298319 0.0234168 -3.35969e-20)
(-0.03158 0.0257332 -2.93799e-19)
(-0.0321979 0.027615 -2.02334e-19)
(-0.0316925 0.0292512 -5.89207e-20)
(-0.0301009 0.0308662 -1.88808e-19)
(-0.0274877 0.0327089 -3.20742e-21)
(-0.0239462 0.035046 -2.48524e-19)
(-0.019603 0.0381559 1.04466e-19)
(-0.0146306 0.0423203 -1.19131e-19)
(-0.00925155 0.0478161 8.9685e-20)
(-0.0036606 0.0549255 -1.15129e-19)
(0.002042 0.0639495 -3.25795e-19)
(0.00699445 0.0749766 -9.79472e-20)
(-0.00058048 -5.53494e-05 -2.33478e-20)
(-0.00385016 0.00301501 -2.53484e-20)
(-0.00905963 0.00727301 2.06588e-19)
(-0.0147546 0.0118359 -3.34454e-19)
(-0.0201567 0.0161129 4.92999e-20)
(-0.024838 0.0197551 -1.9166e-19)
(-0.0285306 0.0226129 9.14558e-20)
(-0.0310799 0.0246764 4.06792e-19)
(-0.0324096 0.0260331 -2.65251e-20)
(-0.0324931 0.0268392 -3.01217e-19)
(-0.0313378 0.0273007 5.60708e-20)
(-0.028978 0.0276614 1.0698e-20)
(-0.0254743 0.028197 -5.97756e-20)
(-0.0209174 0.0292112 7.79015e-21)
(-0.0154367 0.0310337 5.32387e-19)
(-0.00921814 0.0340125 -7.72211e-20)
(-0.00251368 0.0385065 -1.45847e-19)
(0.00443753 0.044899 -2.59443e-19)
(0.0114775 0.0536113 2.65711e-19)
(0.0175893 0.0647986 1.13265e-19)
(-0.00102143 0.00109899 1.21015e-19)
(-0.00500693 0.00552159 -1.57193e-19)
(-0.010751 0.0103974 2.22394e-19)
(-0.0167816 0.0150696 2.22885e-19)
(-0.02233 0.019098 2.05706e-19)
(-0.0269872 0.0222313 4.16487e-19)
(-0.0305041 0.0243831 2.68269e-19)
(-0.0327424 0.0255816 -5.74344e-19)
(-0.0336372 0.0259357 2.92484e-19)
(-0.0331677 0.0256134 2.27987e-19)
(-0.0313421 0.0248291 -2.41074e-21)
(-0.0281907 0.0238375 2.52343e-19)
(-0.0237672 0.0229331 1.95232e-19)
(-0.0181557 0.0224525 -1.0759e-19)
(-0.0114839 0.0227764 3.56975e-19)
(-0.00394788 0.0243274 -4.42756e-19)
(0.00417069 0.0275636 1.75155e-19)
(0.0125815 0.0329984 2.24949e-19)
(0.0210474 0.0412148 -5.34928e-20)
(0.0283528 0.0524749 4.43525e-19)
(-0.00157966 0.00227125 2.39967e-19)
(-0.00641514 0.00801528 1.18745e-20)
(-0.012763 0.013452 -8.64059e-20)
(-0.019152 0.0181751 -9.16667e-20)
(-0.0248375 0.0219055 -4.20056e-19)
(-0.0294399 0.0244938 5.88604e-20)
(-0.0327368 0.0259161 1.67599e-19)
(-0.0346118 0.0262355 -7.95213e-20)
(-0.0350153 0.025576 6.54323e-20)
(-0.0339357 0.0241091 -1.85084e-20)
(-0.031383 0.0220474 -8.56565e-20)
(-0.0273836 0.0196452 7.98151e-20)
(-0.0219825 0.0172041 -3.4819e-19)
(-0.0152536 0.0150833 3.32389e-19)
(-0.00731804 0.0137097 -2.85645e-19)
(0.00162292 0.0135826 8.90612e-20)
(0.0112599 0.0152752 1.9729e-19)
(0.0212469 0.0194644 -4.32005e-20)
(0.0312474 0.0269484 -1.37729e-19)
(0.0397852 0.0381544 -9.13852e-20)
(-0.00225754 0.00345884 -2.96732e-19)
(-0.00806329 0.0104922 -1.94365e-20)
(-0.0150536 0.0164375 6.23107e-20)
(-0.0217848 0.0211623 1.60013e-19)
(-0.0275531 0.0245596 -2.26389e-19)
(-0.0320199 0.026586 -1.96886e-19)
(-0.0349981 0.0272813 4.57866e-19)
(-0.0363989 0.0267406 -2.52958e-19)
(-0.0361933 0.0250981 -1.6228e-19)
(-0.0343825 0.0225209 -2.30976e-19)
(-0.0309817 0.0192092 1.52254e-19)
(-0.0260152 0.0154031 -6.00559e-21)
(-0.0195199 0.0113958 -2.82755e-19)
(-0.0115576 0.00755249 -4.56951e-19)
(-0.00223872 0.00433211 3.47163e-19)
(0.00823549 0.00230456 -2.76887e-19)
(0.0195318 0.00216561 3.92632e-19)
(0.0312479 0.00478858 -1.11131e-19)
(0.0429322 0.0112534 2.26334e-19)
(0.0527674 0.0222335 -7.65712e-19)
(-0.00305331 0.00465082 -5.95782e-19)
(-0.0099292 0.0129317 3.90918e-19)
(-0.0175633 0.0193347 5.35795e-20)
(-0.024573 0.0240201 1.01234e-20)
(-0.0303147 0.0270628 -2.40401e-19)
(-0.0345027 0.0285307 3.53191e-19)
(-0.036993 0.0285289 3.8793e-20)
(-0.0377309 0.0271839 -7.23292e-20)
(-0.036713 0.0246371 -2.28796e-19)
(-0.033958 0.0210453 2.47586e-19)
(-0.0294911 0.0165869 6.22616e-19)
(-0.0233394 0.0114742 -1.38313e-19)
(-0.0155356 0.00597368 3.06773e-19)
(-0.00613155 0.000433979 -3.60017e-19)
(0.0047741 -0.00467838 -3.4099e-19)
(0.0169838 -0.00874406 2.06802e-19)
(0.0301449 -0.0109525 3.35541e-19)
(0.043803 -0.0102119 -1.08076e-18)
(0.0573882 -0.00508494 1.29936e-19)
(0.068643 0.0054536 1.7044e-19)
(-0.00395961 0.00582798 4.40131e-19)
(-0.0119775 0.0152961 1.42721e-19)
(-0.020213 0.0221026 7.52655e-19)
(-0.0273832 0.0267131 3.83074e-20)
(-0.0329248 0.0293917 -8.35733e-20)
(-0.0366167 0.0303225 -3.96454e-19)
(-0.0383655 0.029679 3.37699e-19)
(-0.0381558 0.0276209 6.00955e-19)
(-0.0360144 0.0242969 3.99118e-19)
(-0.0319825 0.0198515 2.84972e-19)
(-0.0261019 0.0144356 2.4326e-19)
(-0.0184098 0.00822343 -4.4001e-19)
(-0.00894301 0.00143699 -1.37153e-19)
(0.00224833 -0.00561709 -9.84786e-20)
(0.0150721 -0.0124986 1.06098e-18)
(0.0293334 -0.0185775 -7.08647e-21)
(0.0446631 -0.0229617 -2.58744e-19)
(0.0605635 -0.0243448 -7.67933e-20)
(0.0763636 -0.0208613 7.36853e-19)
(0.0892614 -0.0110076 9.59654e-20)
(-0.00496242 0.00696388 -2.2759e-20)
(-0.0141581 0.0175322 -4.15444e-19)
(-0.0229032 0.0246798 -6.17188e-19)
(-0.0300558 0.0291813 -1.71072e-19)
(-0.0351531 0.0314939 9.40133e-20)
(-0.0380491 0.0319225 2.07519e-20)
(-0.0387073 0.0307127 5.35935e-19)
(-0.0371553 0.0280617 -6.64922e-19)
(-0.0334534 0.0241291 -2.52273e-19)
(-0.0276704 0.0190499 -5.05123e-19)
(-0.0198712 0.0129487 -4.27996e-19)
(-0.0101135 0.00595779 -3.74875e-19)
(0.00154861 -0.00175615 9.34514e-20)
(0.0150518 -0.00995111 -1.19534e-19)
(0.0302961 -0.0182507 5.08275e-19)
(0.0470801 -0.0260679 -2.82156e-19)
(0.0650144 -0.0324948 -8.60251e-19)
(0.0835692 -0.0360584 -1.66719e-19)
(0.102021 -0.0344257 4.156e-19)
(0.116941 -0.0254861 -3.575e-19)
(-0.00604072 0.00802686 -7.03452e-20)
(-0.0164054 0.0195746 5.04137e-19)
(-0.0255139 0.0269876 -6.43318e-19)
(-0.0324065 0.0313428 1.49246e-19)
(-0.0367403 0.0332904 -3.05434e-19)
(-0.038453 0.0332588 6.78541e-19)
(-0.0375693 0.03157 -4.83971e-19)
(-0.0341625 0.0284639 5.52256e-19)
(-0.0283284 0.0241183 -5.21445e-19)
(-0.0201668 0.0186671 2.21254e-19)
(-0.00977306 0.0122168 -1.08032e-19)
(0.00276333 0.00486409 -2.66582e-19)
(0.0173536 -0.00327888 -3.25753e-19)
(0.0338994 -0.0120451 3.24073e-19)
(0.0522686 -0.0211516 -2.68708e-19)
(0.0722318 -0.0301122 -5.78557e-19)
(0.0933649 -0.0380949 5.99468e-19)
(0.115111 -0.0435688 -7.5273e-19)
(0.136778 -0.0437635 3.35393e-19)
(0.154316 -0.0358676 6.89637e-21)
(-0.0071667 0.00898269 -6.27777e-19)
(-0.018639 0.0213506 -6.78632e-19)
(-0.027906 0.0289355 7.85375e-20)
(-0.0342289 0.0331 -6.53323e-19)
(-0.0374019 0.0346819 -5.71792e-20)
(-0.0374539 0.0342333 -4.79641e-19)
(-0.0344738 0.0321557 -1.09542e-19)
(-0.0285813 0.0287377 -3.18841e-19)
(-0.019909 0.0241844 4.05301e-21)
(-0.00859083 0.0186406 -1.38181e-19)
(0.00524091 0.012209 9.20205e-21)
(0.0214525 0.00496747 -3.95314e-19)
(0.0399016 -0.00301097 4.32205e-19)
(0.0604276 -0.0116254 -6.09211e-19)
(0.0828332 -0.0206937 2.1296e-19)
(0.106827 -0.0298705 5.74612e-21)
(0.131921 -0.0384959 -3.31025e-19)
(0.157516 -0.0451451 8.11515e-19)
(0.183059 -0.0467497 -1.91916e-19)
(0.204065 -0.0397909 -1.21429e-19)
(-0.00830661 0.00979755 7.03367e-19)
(-0.0207645 0.0227861 3.80372e-19)
(-0.0299218 0.0304293 3.53778e-19)
(-0.035295 0.0343488 5.30323e-20)
(-0.0368307 0.0355596 4.77956e-19)
(-0.0346545 0.0347348 6.87429e-19)
(-0.0289221 0.0323563 5.60649e-19)
(-0.0198004 0.0287661 5.01326e-20)
(-0.00746011 0.0242049 4.07962e-19)
(0.0079274 0.0188413 6.27627e-19)
(0.0261855 0.0127923 -1.61112e-19)
(0.0471236 0.00613906 2.71289e-19)
(0.0705262 -0.00105698 2.18982e-19)
(0.0961419 -0.00873193 2.22352e-19)
(0.12367 -0.0167813 1.27934e-18)
(0.152715 -0.0250002 -4.78119e-19)
(0.182683 -0.0329619 -2.75634e-20)
(0.212882 -0.0395306 5.31498e-19)
(0.242981 -0.0415972 -2.96938e-19)
(0.268538 -0.0350363 1.46109e-19)
(-0.00942186 0.0104408 -5.67615e-19)
(-0.0226744 0.0238118 3.59364e-20)
(-0.0313855 0.0313792 -4.54383e-19)
(-0.0353554 0.0349897 -5.90841e-20)
(-0.034696 0.0358203 3.31942e-19)
(-0.029635 0.0346584 -9.87758e-19)
(-0.0203973 0.0320645 -2.3412e-22)
(-0.0071995 0.028436 4.58061e-19)
(0.0097462 0.0240554 4.27638e-19)
(0.0302247 0.0191252 -1.89265e-19)
(0.0540054 0.0137922 6.10974e-20)
(0.0808265 0.00816371 1.42207e-19)
(0.110379 0.00232104 -6.84485e-20)
(0.142292 -0.00366653 -7.42058e-19)
(0.176122 -0.00971997 1.88259e-19)
(0.211318 -0.0157212 5.02561e-19)
(0.247122 -0.0214571 -7.1063e-19)
(0.282665 -0.0261984 3.443e-19)
(0.317838 -0.0270807 8.95354e-20)
(0.349047 -0.0195289 4.4007e-19)
(-0.0104701 0.0108869 -8.34937e-20)
(-0.0242495 0.0243684 -3.97705e-19)
(-0.0321028 0.0317085 1.83195e-19)
(-0.0341375 0.0349394 9.16152e-22)
(-0.0306413 0.0353812 -7.96436e-19)
(-0.0219494 0.0339259 1.24622e-19)
(-0.00836097 0.031207 -2.33168e-20)
(0.00985176 0.0276759 1.59574e-19)
(0.0324268 0.023658 -7.28752e-19)
(0.0590941 0.0193949 -4.96143e-20)
(0.0895548 0.0150715 -1.68167e-19)
(0.123459 0.0108364 1.51356e-19)
(0.160387 0.00681618 5.02593e-19)
(0.199827 0.00312821 -7.82334e-20)
(0.241161 -0.000104435 2.96018e-20)
(0.283628 -0.00274468 1.91532e-19)
(0.326222 -0.00465151 -4.78662e-20)
(0.367731 -0.00537975 3.67699e-19)
(0.407988 -0.00231601 -2.24553e-19)
(0.445 0.00938028 -3.29836e-19)
(-0.011406 0.0111172 7.76086e-20)
(-0.0253588 0.0244108 1.9107e-20)
(-0.0318602 0.0313605 1.59343e-19)
(-0.0313428 0.034142 3.90171e-19)
(-0.02428 0.0341957 2.18722e-19)
(-0.0111221 0.0325059 2.2602e-20)
(0.00774847 0.0297705 -2.60031e-19)
(0.0319913 0.0264885 6.70179e-20)
(0.0612776 0.0230243 3.4855e-19)
(0.0952614 0.0196537 -5.89123e-19)
(0.133553 0.0165961 4.42435e-19)
(0.175696 0.0140379 -3.3184e-19)
(0.221147 0.0121525 2.78516e-19)
(0.269265 0.0111195 -5.96668e-19)
(0.319294 0.0111476 6.48722e-19)
(0.370331 0.0124908 -6.90144e-19)
(0.421207 0.0154402 -1.75167e-19)
(0.470393 0.0206157 5.37153e-19)
(0.516911 0.0308883 -1.86891e-19)
(0.558082 0.0506606 7.2775e-20)
(-0.0121814 0.01112 -5.867e-20)
(-0.0258597 0.023911 5.54097e-19)
(-0.030423 0.0303052 -2.32644e-21)
(-0.0266444 0.0325779 -3.43999e-19)
(-0.0151937 0.0322657 -2.30988e-19)
(0.00335273 0.0304302 4.2322e-19)
(0.028512 0.0278219 -1.67593e-19)
(0.0598517 0.0249772 -2.10859e-20)
(0.096944 0.0222875 3.4649e-19)
(0.139328 0.0200481 -4.3048e-19)
(0.186481 0.0184915 4.59121e-20)
(0.2378 0.0178127 -5.53045e-19)
(0.292594 0.018191 2.8807e-19)
(0.350095 0.0198135 -8.18802e-19)
(0.409478 0.0229062 1.28965e-18)
(0.469896 0.0277728 -2.37001e-19)
(0.530523 0.0348773 2.34249e-19)
(0.590787 0.0453146 -6.13326e-19)
(0.650917 0.0621154 1.11885e-20)
(0.702978 0.0837205 6.5107e-19)
(-0.0127452 0.0108905 -1.77711e-19)
(-0.0255968 0.0228598 1.53602e-19)
(-0.0275344 0.028543 -5.65815e-19)
(-0.0196867 0.0302711 8.3684e-19)
(-0.00293303 0.029651 -6.03989e-19)
(0.0220051 0.0278052 3.10832e-20)
(0.054516 0.0255222 -6.49675e-19)
(0.0940336 0.0233607 4.63994e-19)
(0.139978 0.0217213 -6.66055e-20)
(0.191708 0.0208948 -4.06471e-19)
(0.248496 0.0210944 -2.34748e-19)
(0.309515 0.0224779 2.49191e-19)
(0.373849 0.0251656 1.62139e-19)
(0.440526 0.0292566 -7.12028e-19)
(0.508564 0.0348435 2.58913e-19)
(0.577033 0.0420236 -3.71719e-19)
(0.645136 0.0509118 4.30946e-20)
(0.712391 0.0617725 -3.04278e-19)
(0.779191 0.075579 1.14819e-19)
(0.839651 0.0902325 -4.38493e-19)
(-0.0130418 0.0104302 5.06023e-19)
(-0.0244007 0.0212674 -3.06579e-19)
(-0.0229156 0.0261083 2.52657e-19)
(-0.0100877 0.0272941 -3.18943e-19)
(0.0129744 0.0264758 5.34586e-19)
(0.0453739 0.0248179 -9.39591e-21)
(0.0863241 0.023129 -6.4799e-20)
(0.135063 0.0219704 -4.79148e-20)
(0.190778 0.0217281 2.95287e-19)
(0.252561 0.0226589 4.99461e-19)
(0.319379 0.0249197 -2.94716e-19)
(0.390089 0.0285889 2.84267e-19)
(0.463463 0.0336818 5.13428e-19)
(0.538243 0.0401641 -3.60744e-19)
(0.613206 0.0479615 -7.15739e-19)
(0.687234 0.0569632 1.29659e-18)
(0.759381 0.0670139 -2.33146e-19)
(0.828951 0.077927 -7.38851e-20)
(0.895802 0.0898234 7.56627e-19)
(0.956463 0.102827 -1.67654e-19)
(-0.0130109 0.00974615 -8.23904e-19)
(-0.022088 0.0191642 -5.48551e-19)
(-0.0162677 0.0230709 -2.10607e-19)
(0.00255416 0.0237711 4.06334e-19)
(0.0330095 0.0229308 -9.17293e-19)
(0.0739793 0.0217348 4.74744e-19)
(0.124434 0.0209891 6.00637e-20)
(0.183325 0.0212307 6.03506e-20)
(0.249507 0.0227991 -6.18914e-19)
(0.32169 0.0258795 -2.17925e-19)
(0.398438 0.0305319 -3.81425e-19)
(0.478203 0.0367142 3.6639e-19)
(0.559387 0.0443017 1.01072e-19)
(0.640425 0.0531058 1.68393e-20)
(0.719858 0.062889 4.58436e-19)
(0.796418 0.0733747 -4.68211e-19)
(0.869074 0.0842484 -1.83217e-20)
(0.937075 0.0951691 1.55493e-20)
(1.00002 0.105885 6.62879e-20)
(1.05658 0.118129 3.32531e-19)
(-0.0125855 0.00885107 2.62339e-19)
(-0.0184612 0.016601 6.75739e-19)
(-0.0072758 0.0195383 5.42334e-19)
(0.0186482 0.0198792 -1.86969e-19)
(0.0576381 0.0192725 6.50171e-19)
(0.108283 0.0188965 -5.47929e-20)
(0.169215 0.0195233 -7.70523e-20)
(0.238985 0.0216289 4.60532e-20)
(0.315989 0.0254634 6.2563e-19)
(0.398441 0.0310935 3.66174e-19)
(0.484411 0.0384366 1.06727e-19)
(0.5719 0.0472919 7.44321e-21)
(0.658948 0.0573708 -6.93156e-19)
(0.743733 0.0683282 6.01385e-19)
(0.824673 0.0797886 1.0021e-19)
(0.900493 0.0913679 -1.67871e-19)
(0.970258 0.102687 -7.02995e-19)
(1.03339 0.113399 -5.3961e-20)
(1.08958 0.12311 2.69254e-19)
(1.13912 0.134424 -5.14596e-20)
(-0.0116917 0.00776305 -6.65782e-19)
(-0.0133104 0.0136504 2.78566e-19)
(0.00438219 0.0156558 -1.36011e-18)
(0.0385933 0.0158481 5.5714e-19)
(0.0872789 0.0158197 -4.44298e-19)
(0.148639 0.0167067 3.27451e-19)
(0.220842 0.0192047 -5.08257e-19)
(0.301902 0.0236782 4.69736e-20)
(0.389622 0.0302323 -2.58761e-20)
(0.481623 0.038761 1.35266e-19)
(0.575436 0.0489924 1.9378e-19)
(0.668633 0.0605368 -3.66137e-19)
(0.758977 0.072935 1.93756e-19)
(0.844545 0.0857038 1.75363e-19)
(0.92382 0.0983747 7.41258e-19)
(0.995732 0.110522 -3.25299e-19)
(1.05966 0.121783 -2.08065e-19)
(1.11541 0.131881 3.45487e-19)
(1.16305 0.140464 1.74969e-19)
(1.20379 0.150353 -3.42074e-19)
(-0.0102483 0.00650646 5.83123e-19)
(-0.00641744 0.0104076 5.6216e-19)
(0.0190246 0.0116077 1.62236e-19)
(0.0627549 0.0119579 6.83404e-19)
(0.122265 0.0129452 3.35707e-19)
(0.195238 0.015615 -6.05105e-19)
(0.279227 0.0205282 9.15553e-19)
(0.371557 0.0278724 -4.50133e-19)
(0.469326 0.0375416 4.47799e-19)
(0.569508 0.0491995 5.76428e-19)
(0.669125 0.0623477 -3.28689e-19)
(0.765435 0.0763965 6.26872e-20)
(0.856109 0.0907342 3.4275e-19)
(0.939349 0.104785 2.38799e-19)
(1.01394 0.118051 5.40615e-19)
(1.07926 0.130138 -2.20279e-19)
(1.13517 0.140769 -3.0358e-20)
(1.182 0.149787 3.25413e-19)
(1.22031 0.156988 -7.15938e-20)
(1.2518 0.165019 -8.09505e-22)
(-0.00816758 0.00511311 -3.01017e-19)
(0.00243787 0.00699247 -1.10609e-18)
(0.0369502 0.00761649 2.60526e-19)
(0.0914371 0.00853406 -1.98357e-19)
(0.162803 0.0110632 -4.57945e-19)
(0.248052 0.0160931 -3.26775e-19)
(0.343956 0.0239744 -2.01394e-19)
(0.447012 0.034638 4.89195e-19)
(0.553544 0.0476965 -2.90113e-19)
(0.659908 0.0625355 -2.96522e-19)
(0.762746 0.0784138 -3.71595e-19)
(0.859217 0.0945614 -6.14173e-20)
(0.947164 0.110264 -4.36246e-20)
(1.02518 0.124924 -8.37664e-19)
(1.0926 0.138093 3.98186e-19)
(1.14938 0.149483 -5.25223e-19)
(1.19604 0.158956 1.58282e-19)
(1.23342 0.166503 -1.20641e-18)
(1.26257 0.172118 3.65214e-19)
(1.28539 0.178073 4.47218e-19)
(-0.00535769 0.00362381 -7.5621e-20)
(0.0134689 0.00355115 5.39341e-19)
(0.0584195 0.00394163 3.46e-20)
(0.124851 0.00593953 8.32378e-20)
(0.208926 0.0106117 -1.69232e-19)
(0.306787 0.0186059 -2.86556e-21)
(0.41426 0.0299686 -4.03707e-21)
(0.526917 0.0442877 -1.01299e-19)
(0.64032 0.0608314 3.60386e-19)
(0.750345 0.0786834 1.38694e-19)
(0.853492 0.0968785 6.24099e-19)
(0.947116 0.114523 -1.70097e-19)
(1.02953 0.130882 1.16796e-19)
(1.09997 0.145423 -1.37461e-20)
(1.15847 0.157827 3.18569e-19)
(1.20573 0.167969 1.91512e-19)
(1.24282 0.175886 4.52657e-19)
(1.27109 0.181725 -7.2562e-19)
(1.29196 0.185662 9.02051e-19)
(1.30732 0.189555 -2.84182e-19)
(-0.00172568 0.00208997 -7.02638e-19)
(0.0268707 0.000256923 -2.19465e-19)
(0.0836332 0.000875907 1.71413e-19)
(0.163084 0.00456369 1.0811e-19)
(0.260462 0.0120316 1.10964e-19)
(0.370859 0.0235788 1.12117e-19)
(0.489017 0.0388425 -2.8102e-19)
(0.60957 0.056985 -1.15051e-19)
(0.727444 0.0768921 3.63985e-20)
(0.838286 0.0973596 -3.40066e-19)
(0.93878 0.117261 -1.51775e-19)
(1.02681 0.13567 9.16879e-19)
(1.10142 0.15193 -2.3684e-19)
(1.16269 0.165663 -3.20577e-19)
(1.21143 0.176743 -1.48109e-19)
(1.249 0.185244 1.04641e-19)
(1.27701 0.191381 1.22526e-19)
(1.29713 0.19544 -5.8422e-19)
(1.31098 0.197737 8.35881e-19)
(1.32037 0.199756 -7.20184e-19)
(0.00281809 0.000575029 -7.92945e-20)
(0.0428069 -0.00268971 2.26702e-20)
(0.11271 -0.00126 -2.91061e-20)
(0.206072 0.00480802 4.24398e-19)
(0.317007 0.0157415 2.34842e-20)
(0.439383 0.0313661 1.55594e-19)
(0.566797 0.0508028 -3.23398e-19)
(0.693036 0.0727275 -1.14874e-20)
(0.812645 0.0956464 4.46266e-19)
(0.921391 0.11813 6.12021e-20)
(1.01651 0.138991 -3.84485e-19)
(1.09672 0.157387 -3.34176e-20)
(1.16201 0.172838 -3.08535e-19)
(1.21333 0.185193 3.09371e-19)
(1.25226 0.194554 4.21252e-19)
(1.28071 0.201197 -4.62203e-20)
(1.30063 0.205494 -5.43486e-20)
(1.31387 0.207837 1.66309e-19)
(1.32209 0.208628 -5.25213e-19)
(1.32694 0.209049 4.64374e-19)
(0.00835469 -0.000844735 7.99044e-20)
(0.0613954 -0.00506281 -5.14584e-19)
(0.145667 -0.00212579 1.3766e-19)
(0.253575 0.00706888 -4.27498e-19)
(0.377916 0.0221128 1.47064e-19)
(0.511211 0.0422231 -5.45227e-19)
(0.64595 0.0659131 2.19548e-19)
(0.775305 0.0913523 -6.99019e-20)
(0.893802 0.116722 -2.85669e-21)
(0.997737 0.140477 7.0201e-20)
(1.08525 0.1615 -2.55471e-19)
(1.1561 0.179145 -3.61095e-19)
(1.2113 0.193193 -7.24602e-20)
(1.25265 0.203758 -3.24341e-20)
(1.28236 0.211178 -8.21186e-20)
(1.30269 0.215904 -2.63589e-20)
(1.31577 0.218428 -7.86132e-20)
(1.32348 0.219205 -6.76202e-20)
(1.32739 0.218678 -1.97213e-19)
(1.32895 0.217796 3.09776e-19)
(0.014951 -0.0020802 1.91607e-19)
(0.0826947 -0.00661494 -2.12802e-19)
(0.182399 -0.00137256 4.58114e-19)
(0.30517 0.0117184 -1.97868e-19)
(0.442318 0.0314454 5.28699e-19)
(0.584984 0.0562876 7.83708e-21)
(0.724725 0.0840939 2.64653e-19)
(0.854455 0.112563 -7.09255e-20)
(0.969123 0.139662 2.93074e-19)
(1.06595 0.163874 2.02315e-20)
(1.14424 0.184286 6.88143e-19)
(1.20493 0.200547 -4.73169e-19)
(1.24998 0.21275 6.46155e-20)
(1.28193 0.221283 1.214e-19)
(1.30339 0.226688 6.1844e-19)
(1.31683 0.229558 -2.21679e-19)
(1.3244 0.230453 -4.3275e-20)
(1.32783 0.229853 -2.2461e-19)
(1.32855 0.228207 -2.21458e-20)
(1.32779 0.226291 1.11075e-19)
(0.0226541 -0.00303044 -9.16343e-20)
(0.106691 -0.00708347 2.65159e-19)
(0.222669 0.00134344 -2.72016e-19)
(0.36025 0.0190843 1.07172e-19)
(0.509151 0.0439486 -1.28452e-19)
(0.65922 0.073572 4.70549e-19)
(0.8014 0.105137 -6.56826e-20)
(0.928804 0.135971 1.59764e-19)
(1.03726 0.163982 -9.44101e-20)
(1.12525 0.18784 -2.46074e-21)
(1.19339 0.206957 1.05614e-19)
(1.24376 0.221344 -8.11022e-20)
(1.27916 0.23142 2.09613e-19)
(1.30264 0.23782 -1.04461e-19)
(1.31705 0.241253 -4.50918e-19)
(1.32487 0.242397 4.45848e-19)
(1.32812 0.241843 -1.98129e-19)
(1.32836 0.240057 1.57797e-19)
(1.3268 0.237479 2.69685e-19)
(1.32447 0.234746 1.09963e-19)
(0.0314856 -0.00358486 2.28172e-19)
(0.133288 -0.00619936 -4.7026e-19)
(0.266105 0.00634514 8.98562e-20)
(0.418041 0.0294311 -6.53452e-20)
(0.577215 0.0597279 -2.63637e-19)
(0.732412 0.0939686 -2.06341e-19)
(0.874404 0.128737 -4.06902e-20)
(0.997015 0.161143 -3.6546e-19)
(1.09736 0.189222 -2.1952e-20)
(1.1754 0.211981 -6.72896e-20)
(1.23309 0.229247 -1.8141e-19)
(1.27351 0.24142 -4.05357e-20)
(1.30013 0.249226 -1.37252e-19)
(1.31629 0.253505 -2.25835e-19)
(1.32487 0.255077 2.29104e-19)
(1.32825 0.25466 3.00717e-20)
(1.32822 0.252836 5.97786e-20)
(1.32614 0.250037 -2.58186e-19)
(1.32299 0.246681 -7.31011e-21)
(1.31961 0.243293 -3.90166e-19)
(0.0414373 -0.00362637 2.49481e-19)
(0.162302 -0.00369788 1.66543e-19)
(0.3122 0.0139181 -2.6897e-19)
(0.477631 0.0429441 4.19791e-19)
(0.645238 0.0787804 -4.54422e-20)
(0.803119 0.117265 1.56351e-19)
(0.942411 0.15452 5.4004e-20)
(1.05814 0.187644 1.90096e-19)
(1.14903 0.214981 -1.48801e-19)
(1.2166 0.236002 4.89896e-20)
(1.26405 0.251 -4.69495e-20)
(1.29529 0.260757 -2.0118e-20)
(1.31421 0.266261 3.86204e-20)
(1.32422 0.268502 -7.03853e-20)
(1.32813 0.26836 -2.10641e-20)
(1.32809 0.266551 -6.48588e-20)
(1.32565 0.263619 -1.04558e-19)
(1.32192 0.259948 6.78139e-20)
(1.3177 0.255935 -9.08373e-20)
(1.31364 0.252003 3.92711e-19)
(0.0524675 -0.00303555 -1.2432e-19)
(0.193458 0.00066935 -3.5273e-19)
(0.360326 0.0242947 -4.69109e-20)
(0.538014 0.059718 -1.29862e-20)
(0.71195 0.100999 -1.57917e-19)
(0.870053 0.143166 -2.58779e-19)
(1.00439 0.182085 8.42411e-20)
(1.11163 0.215064 -1.1566e-19)
(1.19228 0.240931 -1.28674e-19)
(1.24937 0.259702 7.11856e-20)
(1.28719 0.272149 -5.3564e-20)
(1.31024 0.279401 -1.07206e-19)
(1.32258 0.28265 -2.80978e-21)
(1.32759 0.282979 7.2345e-20)
(1.32785 0.281278 -7.23788e-20)
(1.32524 0.278229 1.00509e-19)
(1.32105 0.274322 2.73922e-20)
(1.31619 0.269887 6.72476e-20)
(1.31127 0.265304 1.28737e-19)
(1.30678 0.260896 -1.09725e-19)
(0.0644994 -0.0016954 1.18611e-19)
(0.226397 0.00712189 -1.02162e-20)
(0.409759 0.0376402 5.34682e-20)
(0.598135 0.079752 -7.23256e-20)
(0.776148 0.126182 6.19069e-21)
(0.932132 0.171321 2.50071e-19)
(1.05964 0.211027 -1.63899e-19)
(1.15727 0.243044 6.89721e-20)
(1.22739 0.266817 6.05016e-20)
(1.27442 0.282955 -1.69164e-19)
(1.30347 0.292686 1.58057e-19)
(1.31941 0.297429 1.35866e-21)
(1.3263 0.29852 -1.09602e-19)
(1.32733 0.297076 1.31665e-19)
(1.3248 0.293961 -5.1748e-20)
(1.3203 0.289803 3.93583e-20)
(1.3149 0.285023 -4.41678e-20)
(1.30927 0.279901 -1.78751e-20)
(1.30391 0.274806 -1.50401e-19)
(1.29916 0.269957 4.59519e-20)
(0.0774201 0.000503319 -3.97934e-20)
(0.260678 0.015838 1.07196e-19)
(0.459702 0.0540411 1.67881e-20)
(0.656938 0.102949 7.00737e-20)
(0.836748 0.154051 3.34022e-20)
(0.988508 0.201345 1.56684e-20)
(1.10772 0.240958 8.82178e-20)
(1.19513 0.271273 -1.07167e-20)
(1.25486 0.292447 3.84948e-20)
(1.29252 0.305689 6.15232e-20)
(1.31382 0.312635 2.94114e-20)
(1.32374 0.314926 2.09677e-20)
(1.32622 0.313978 8.46635e-20)
(1.32416 0.3109 -8.18893e-20)
(1.31954 0.306498 1.74431e-20)
(1.3137 0.301331 -1.60996e-20)
(1.30746 0.295754 2.50587e-20)
(1.30136 0.289997 2.08751e-20)
(1.29573 0.284425 4.29346e-20)
(1.29086 0.279145 1.70446e-21)
(0.091082 0.00365678 2.3612e-20)
(0.295797 0.0269444 2.15482e-20)
(0.50932 0.0735003 -2.98516e-20)
(0.713416 0.129122 1.86473e-20)
(0.892824 0.184266 1.04894e-20)
(1.03858 0.23284 -3.26775e-20)
(1.14848 0.271519 1.07078e-20)
(1.22547 0.299493 1.9746e-21)
(1.27528 0.317684 1.83116e-20)
(1.30447 0.327871 -4.89494e-20)
(1.31906 0.332033 -9.42342e-23)
(1.32401 0.331965 1.3361e-20)
(1.323 0.329107 -1.06529e-20)
(1.31859 0.324519 1.07443e-20)
(1.31247 0.318935 2.76972e-20)
(1.3057 0.312835 -1.56415e-20)
(1.29892 0.30651 4.43133e-21)
(1.29254 0.300151 1.6914e-20)
(1.28679 0.29412 -2.76846e-20)
(1.28188 0.288405 1.33294e-20)
(0.101007 -0.00365716 7.432e-20)
(0.321906 -0.0273678 -4.09592e-20)
(0.547657 -0.0743669 4.8495e-20)
(0.759433 -0.129703 -3.61697e-20)
(0.942058 -0.183609 -1.63652e-20)
(1.08742 -0.230161 4.98391e-21)
(1.19455 -0.266384 -1.61659e-20)
(1.26758 -0.291831 5.84651e-20)
(1.31315 -0.307695 -4.88242e-20)
(1.33836 -0.315906 1.10867e-20)
(1.34951 -0.318486 -8.60991e-21)
(1.35158 -0.317203 -5.63348e-20)
(1.3482 -0.313437 5.48146e-20)
(1.34182 -0.308179 2.11991e-20)
(1.33403 -0.3021 -2.03988e-20)
(1.32581 -0.295631 4.89061e-20)
(1.31773 -0.289025 -6.28649e-22)
(1.31017 -0.282454 -4.74547e-20)
(1.30334 -0.276273 3.4756e-20)
(1.29742 -0.270421 1.15044e-20)
(0.0868511 -0.00016931 -2.64847e-20)
(0.286023 -0.0154224 7.31021e-20)
(0.497655 -0.0538415 8.5649e-20)
(0.7034 -0.102479 -4.13564e-20)
(0.887391 -0.152498 7.17403e-20)
(1.03956 -0.197942 1.16145e-19)
(1.15646 -0.235201 -6.37006e-21)
(1.24002 -0.262993 -2.0573e-20)
(1.29534 -0.281756 1.02812e-19)
(1.32869 -0.292881 5.0697e-20)
(1.34613 -0.298084 -9.41564e-21)
(1.35277 -0.299006 7.68734e-20)
(1.35254 -0.297019 -8.20827e-20)
(1.34823 -0.293168 1.31475e-19)
(1.34174 -0.288199 -2.14188e-20)
(1.33429 -0.282613 6.49817e-20)
(1.32664 -0.276725 1.25746e-20)
(1.31927 -0.270738 4.60762e-20)
(1.31249 -0.265005 -4.32807e-20)
(1.30656 -0.25958 1.19793e-20)
(0.0733744 0.00232471 -3.98621e-20)
(0.25077 -0.00593044 8.82076e-20)
(0.446991 -0.0364161 6.61632e-20)
(0.644653 -0.07824 -1.05965e-20)
(0.827873 -0.123729 1.10679e-19)
(0.985216 -0.167207 -8.59667e-20)
(1.11107 -0.2047 -8.95726e-21)
(1.20515 -0.234236 7.84634e-20)
(1.2708 -0.255541 2.66281e-20)
(1.31323 -0.269433 3.60534e-20)
(1.33802 -0.277252 -5.27898e-20)
(1.35024 -0.280451 1.47795e-19)
(1.35402 -0.280343 2.83842e-20)
(1.35247 -0.277995 -1.29189e-19)
(1.3478 -0.27421 1.98137e-19)
(1.34149 -0.269559 -2.33662e-19)
(1.33452 -0.264418 -1.10295e-19)
(1.32752 -0.259032 1.91447e-20)
(1.32091 -0.253752 1.05695e-19)
(1.31503 -0.248737 -2.00232e-19)
(0.0607344 0.00391724 -8.42433e-20)
(0.216667 0.00122084 -1.9879e-19)
(0.396497 -0.0221077 -1.7521e-19)