/*--------------------------------*- C++ -*----------------------------------*\
  =========                 |
  \\      /  F ield         | OpenFOAM: The Open Source CFD Toolbox
   \\    /   O peration     | Website:  https://openfoam.org
    \\  /    A nd           | Version:  6.0
     \\/     M anipulation  |
\*---------------------------------------------------------------------------*/
FoamFile
{
    version     2.0;
    format      ascii;
    class       volVectorField;
    location    "24.3";
    object      U;
}
// * * * * * * * * * * * * * * * * * * * * * * * * * * * * * * * * * * * * * //

dimensions      [0 1 -1 0 0 0 0];

internalField   nonuniform List<vector> 
8000
(
(-0.000478663 0.000535715 -3.45579e-21)
(-0.00261668 0.00131824 1.84722e-20)
(-0.00656652 0.0018535 -2.24668e-20)
(-0.0114143 0.00219926 1.7108e-20)
(-0.0166834 0.00239991 8.33099e-21)
(-0.0221045 0.00249128 -2.50174e-20)
(-0.0274847 0.00250346 -2.21119e-21)
(-0.0326993 0.00246146 -7.84668e-22)
(-0.0376789 0.00238589 -1.29861e-20)
(-0.0423945 0.00229377 -7.0355e-21)
(-0.0468466 0.0021991 5.24679e-21)
(-0.0510566 0.00211326 1.99466e-20)
(-0.0550609 0.00204541 -1.49373e-21)
(-0.0589048 0.00200265 2.13715e-21)
(-0.0626394 0.00199017 -2.00908e-20)
(-0.0663236 0.00201131 1.23791e-20)
(-0.070017 0.00206768 -1.7736e-20)
(-0.0737168 0.00216043 2.68392e-20)
(-0.0773443 0.00229107 -3.00459e-23)
(-0.0813401 0.00245087 5.79553e-21)
(-0.000563607 0.00162891 1.14765e-20)
(-0.00282443 0.00403886 -5.86501e-20)
(-0.0068538 0.00571947 -4.05084e-20)
(-0.0117463 0.00683786 -2.75092e-20)
(-0.0170313 0.00752262 -3.53895e-20)
(-0.0224437 0.00787833 7.78751e-21)
(-0.0277944 0.00799361 -4.08528e-20)
(-0.0329613 0.00794274 -9.17578e-21)
(-0.0378772 0.00778753 2.89928e-21)
(-0.0425144 0.00757942 3.05334e-20)
(-0.0468745 0.00736097 -3.33076e-20)
(-0.0509801 0.0071671 4.63318e-20)
(-0.0548685 0.00702596 -3.46957e-20)
(-0.058586 0.00695949 -4.1144e-20)
(-0.062185 0.00698384 -5.66982e-20)
(-0.065726 0.0071094 3.62101e-20)
(-0.0692703 0.00734123 -1.17107e-20)
(-0.0728167 0.00768285 -4.26379e-20)
(-0.0762858 0.00813873 4.03154e-20)
(-0.0801214 0.00868202 -2.99415e-20)
(-0.000732925 0.00270885 1.12191e-19)
(-0.00323817 0.00672552 5.80998e-20)
(-0.00742476 0.00953487 6.534e-20)
(-0.0124046 0.0114118 5.43695e-21)
(-0.017719 0.0125681 3.61135e-20)
(-0.023112 0.0131761 4.50722e-20)
(-0.0284017 0.0133824 -8.19107e-20)
(-0.0334716 0.0133098 -4.33759e-20)
(-0.0382583 0.0130607 -5.64919e-20)
(-0.0427374 0.0127208 6.03035e-20)
(-0.0469126 0.0123611 -4.60599e-20)
(-0.0508086 0.0120404 -5.92621e-20)
(-0.0544643 0.0118062 -2.15797e-20)
(-0.0579282 0.0116962 2.04997e-20)
(-0.0612552 0.0117382 -5.69836e-21)
(-0.0645087 0.0119507 8.21809e-21)
(-0.0677538 0.0123431 9.51121e-20)
(-0.0709926 0.0129222 -1.33631e-20)
(-0.0741447 0.0136961 -9.66848e-20)
(-0.0776596 0.0146199 1.27438e-19)
(-0.000985218 0.00376675 3.90334e-20)
(-0.00385461 0.00935541 -5.51374e-20)
(-0.00827506 0.0132656 -1.38306e-20)
(-0.0133842 0.0158776 2.58578e-20)
(-0.0187416 0.0174847 7.3423e-20)
(-0.0241048 0.0183257 1.60753e-19)
(-0.0293029 0.0186035 1.57078e-19)
(-0.034228 0.0184883 1.30502e-20)
(-0.0388226 0.0181224 9.63239e-20)
(-0.0430668 0.017625 1.47436e-19)
(-0.0469677 0.0170956 -1.17807e-19)
(-0.0505524 0.0166169 1.7435e-19)
(-0.0538626 0.0162569 -3.94797e-20)
(-0.0569497 0.0160698 9.95932e-21)
(-0.0598721 0.016097 4.12279e-20)
(-0.0626977 0.0163667 5.47864e-20)
(-0.0654974 0.016894 -8.62231e-20)
(-0.0682783 0.0176905 -7.19582e-20)
(-0.0709596 0.0187703 -1.27335e-19)
(-0.074 0.0200696 1.85349e-19)
(-0.00131845 0.00479466 -2.03937e-20)
(-0.00466872 0.0119073 -2.08754e-19)
(-0.00939769 0.0168798 -6.1747e-20)
(-0.0146769 0.0201946 -1.50471e-19)
(-0.0200899 0.0222244 5.68777e-20)
(-0.025413 0.0232724 -8.97047e-20)
(-0.0304901 0.0235959 3.08505e-20)
(-0.0352243 0.0234109 -1.89995e-19)
(-0.0395668 0.022898 1.00233e-19)
(-0.0435031 0.0222089 -1.19529e-19)
(-0.0470445 0.0214711 -1.063e-19)
(-0.0502214 0.0207918 -1.19024e-19)
(-0.0530787 0.0202601 1.08039e-19)
(-0.0556713 0.0199486 -9.70042e-20)
(-0.0580619 0.0199145 1.35073e-19)
(-0.0603245 0.0201978 3.90366e-20)
(-0.0625376 0.0208224 9.66257e-20)
(-0.064716 0.0218073 4.23946e-20)
(-0.0667792 0.0231747 -1.67899e-19)
(-0.0691999 0.024843 2.73347e-19)
(-0.00173002 0.00578565 8.98968e-20)
(-0.00567361 0.014362 6.91673e-21)
(-0.0107825 0.0203481 3.70342e-20)
(-0.0162697 0.0243254 1.29226e-19)
(-0.0217492 0.0267434 -1.97832e-20)
(-0.0270207 0.0279674 2.09851e-19)
(-0.0319472 0.0283063 9.31419e-20)
(-0.0364461 0.0280196 7.8304e-21)
(-0.0404787 0.027324 2.39505e-19)
(-0.0440378 0.0264025 7.84783e-20)
(-0.0471396 0.0254095 3.723e-20)
(-0.049818 0.0244767 1.18157e-19)
(-0.0521212 0.0237152 1.08305e-19)
(-0.0541079 0.0232183 1.97722e-19)
(-0.055846 0.0230612 -1.76727e-19)
(-0.0574164 0.0232999 2.4981e-19)
(-0.0589077 0.0239707 3.2741e-21)
(-0.0603446 0.0251036 -3.19269e-19)
(-0.0616497 0.0267339 4.1387e-19)
(-0.0633157 0.0287623 1.71603e-19)
(-0.00221683 0.00673365 -5.29776e-20)
(-0.00686035 0.016702 -9.61658e-20)
(-0.0124152 0.0236435 -2.00125e-19)
(-0.0181437 0.0282361 -5.93228e-21)
(-0.0236964 0.031003 3.41505e-20)
(-0.0289019 0.0323684 -2.55553e-19)
(-0.0336464 0.0326902 -1.89593e-19)
(-0.0378648 0.0322679 -2.71207e-20)
(-0.0415309 0.0313519 -2.39819e-19)
(-0.044646 0.0301536 -1.66045e-19)
(-0.0472319 0.0288533 -4.83916e-20)
(-0.0493263 0.0276063 -1.5582e-19)
(-0.0509803 0.0265467 -2.54007e-21)
(-0.0522563 0.0257899 -2.06933e-19)
(-0.0532273 0.0254332 8.70443e-20)
(-0.0539824 0.0255527 -9.93098e-20)
(-0.054622 0.0262024 7.60743e-20)
(-0.0551841 0.0274297 -9.68286e-20)
(-0.0555973 0.0292893 -2.76635e-19)
(-0.0563835 0.0316667 -8.40748e-20)
(-0.00277523 0.00763328 -1.94972e-20)
(-0.00821757 0.0189111 -2.11752e-20)
(-0.0142768 0.0267415 1.6779e-19)
(-0.0202722 0.0318959 -2.73048e-19)
(-0.0258977 0.0349688 4.00567e-20)
(-0.0310165 0.0364401 -1.57731e-19)
(-0.0355423 0.0367127 7.45377e-20)
(-0.0394311 0.0361226 3.35034e-19)
(-0.0426718 0.0349499 -2.14911e-20)
(-0.0452757 0.0334315 -2.49944e-19)
(-0.0472708 0.031771 4.54111e-20)
(-0.0486984 0.0301457 8.80583e-21)
(-0.0496122 0.0287126 -5.13241e-20)
(-0.0500775 0.0276111 5.18594e-21)
(-0.0501721 0.0269635 4.50874e-19)
(-0.0499934 0.026872 -6.41934e-20)
(-0.0496554 0.0274152 -1.25243e-19)
(-0.0492125 0.0286665 -2.24686e-19)
(-0.0486042 0.0307102 2.29199e-19)
(-0.0483939 0.0334211 9.88932e-20)
(-0.00340087 0.00847937 9.8454e-20)
(-0.00973094 0.0209738 -1.28811e-19)
(-0.0163419 0.0296183 1.82115e-19)
(-0.0226186 0.0352761 1.83337e-19)
(-0.0283055 0.0386104 1.69009e-19)
(-0.0333059 0.0401531 3.42724e-19)
(-0.0375662 0.0403483 2.21631e-19)
(-0.0410673 0.0395637 -4.7626e-19)
(-0.0438159 0.0381051 2.43575e-19)
(-0.0458353 0.0362306 1.9114e-19)
(-0.0471605 0.0341627 -2.71762e-21)
(-0.0478366 0.0320985 2.13976e-19)
(-0.047919 0.0302159 1.66827e-19)
(-0.0474747 0.0286787 -9.07415e-20)
(-0.0465851 0.0276379 3.06651e-19)
(-0.0453555 0.0272271 -3.80129e-19)
(-0.0439146 0.0275587 1.5216e-19)
(-0.0423361 0.0287437 1.95662e-19)
(-0.0405766 0.0309106 -4.55849e-20)
(-0.0392577 0.0339323 3.93356e-19)
(-0.00408852 0.00926649 1.97836e-19)
(-0.0113824 0.0228739 1.02627e-20)
(-0.018578 0.0322501 -7.10099e-20)
(-0.0251348 0.0383489 -7.501e-20)
(-0.0308551 0.0418995 -3.47381e-19)
(-0.0356887 0.0434826 4.91924e-20)
(-0.0396197 0.0435791 1.3938e-19)
(-0.0426583 0.042584 -6.70436e-20)
(-0.0448324 0.0408233 5.53051e-20)
(-0.0461794 0.038571 -1.46594e-20)
(-0.0467429 0.0360637 -7.22417e-20)
(-0.0465719 0.0335129 6.85973e-20)
(-0.0457232 0.0311144 -2.9823e-19)
(-0.0442641 0.0290549 2.8591e-19)
(-0.0422777 0.0275149 -2.47659e-19)
(-0.0398758 0.0266649 7.64956e-20)
(-0.0372018 0.0266609 1.74096e-19)
(-0.0343508 0.0276667 -3.62105e-20)
(-0.0313034 0.0298757 -1.20431e-19)
(-0.0287628 0.0331744 -8.19545e-20)
(-0.00483166 0.00998849 -2.4644e-19)
(-0.0131496 0.0245941 -1.62241e-20)
(-0.0209436 0.0346119 5.19026e-20)
(-0.0277584 0.0410854 1.33458e-19)
(-0.0334619 0.0448077 -1.88412e-19)
(-0.0380563 0.0464055 -1.64421e-19)
(-0.041569 0.0463922 3.83785e-19)
(-0.044044 0.0451856 -2.12069e-19)
(-0.045534 0.0431262 -1.36805e-19)
(-0.0460938 0.040498 -1.96308e-19)
(-0.0457775 0.0375451 1.2996e-19)
(-0.0446398 0.0344872 -3.50175e-21)
(-0.0427388 0.0315313 -2.42705e-19)
(-0.040141 0.0288823 -3.97068e-19)
(-0.0369292 0.0267482 3.02513e-19)
(-0.0332194 0.0253392 -2.45139e-19)
(-0.0291684 0.0248635 3.47549e-19)
(-0.0248937 0.0255556 -9.73698e-20)
(-0.0204054 0.0277023 2.04643e-19)
(-0.0165193 0.0312274 -6.95229e-19)
(-0.00562227 0.0106382 -4.99115e-19)
(-0.0150048 0.0261147 3.27288e-19)
(-0.0233879 0.0366756 4.45109e-20)
(-0.0304124 0.0434536 8.61116e-21)
(-0.0360194 0.0473041 -2.01831e-19)
(-0.0402698 0.048897 2.96805e-19)
(-0.0432397 0.0487752 3.23972e-20)
(-0.0450112 0.0473745 -6.08634e-20)
(-0.0456663 0.0450455 -1.95378e-19)
(-0.0452807 0.0420758 2.11193e-19)
(-0.0439228 0.0387101 5.35481e-19)
(-0.0416553 0.0351678 -1.18292e-19)
(-0.0385393 0.0316583 2.67348e-19)
(-0.0346411 0.0283957 -3.15824e-19)
(-0.0300418 0.0256085 -3.02868e-19)
(-0.024859 0.0235435 1.82087e-19)
(-0.0192608 0.0224657 3.00878e-19)
(-0.0133853 0.0226976 -9.74979e-19)
(-0.00727497 0.0246547 1.14474e-19)
(-0.001897 0.0283345 1.55741e-19)
(-0.00645046 0.0112072 3.69595e-19)
(-0.0169147 0.0274137 1.21596e-19)
(-0.0258495 0.0384102 6.33434e-19)
(-0.0330032 0.0454175 3.26025e-20)
(-0.0383974 0.0493525 -7.04515e-20)
(-0.0421578 0.0509268 -3.35503e-19)
(-0.0444135 0.0507102 2.8531e-19)
(-0.0452893 0.0491538 5.11915e-19)
(-0.0449005 0.0466139 3.41071e-19)
(-0.0433485 0.043377 2.4626e-19)
(-0.0407201 0.0396819 2.12317e-19)
(-0.0370908 0.0357389 -3.81245e-19)
(-0.032529 0.0317494 -1.1943e-19)
(-0.0271036 0.0279232 -8.79824e-20)
(-0.0208955 0.024496 9.42775e-19)
(-0.0140229 0.0217391 -3.19486e-21)
(-0.00666236 0.0199692 -2.35007e-19)
(0.00103137 0.0196072 -7.40807e-20)
(0.00898785 0.0212366 6.7435e-19)
(0.0160437 0.0249777 8.8296e-20)
(-0.00730444 0.0116865 -1.8215e-20)
(-0.01884 0.0284669 -3.49675e-19)
(-0.0282563 0.0397807 -5.20246e-19)
(-0.0354205 0.0469357 -1.44777e-19)
(-0.0404419 0.0509097 7.99458e-20)
(-0.0435152 0.0524557 1.72123e-20)
(-0.0448268 0.0521692 4.5656e-19)
(-0.0445477 0.0505148 -5.66239e-19)
(-0.0428302 0.047853 -2.15389e-19)
(-0.0398056 0.0444667 -4.34098e-19)
(-0.0355849 0.0405842 -3.69755e-19)
(-0.0302628 0.0364006 -3.27437e-19)
(-0.0239224 0.0320979 8.18721e-20)
(-0.0166428 0.0278673 -1.06323e-19)
(-0.00851038 0.0239315 4.55622e-19)
(0.000352462 0.0205635 -2.49686e-19)
(0.00976031 0.0181108 -7.82984e-19)
(0.0195476 0.0170858 -1.57983e-19)
(0.0296321 0.0182727 3.86494e-19)
(0.0386122 0.0219722 -3.37038e-19)
(-0.00817059 0.0120665 -5.89698e-20)
(-0.0207354 0.0292489 4.27717e-19)
(-0.0305254 0.0407496 -5.45519e-19)
(-0.0375374 0.0479623 1.26085e-19)
(-0.0419744 0.051926 -2.59746e-19)
(-0.0441039 0.0534347 5.78594e-19)
(-0.0441718 0.0531101 -4.13533e-19)
(-0.0423977 0.0514308 4.73127e-19)
(-0.0389734 0.0487624 -4.48612e-19)
(-0.0340637 0.0453849 1.91422e-19)
(-0.0278094 0.0415162 -9.28931e-20)
(-0.0203326 0.0373338 -2.33268e-19)
(-0.0117418 0.0329945 -2.88262e-19)
(-0.00213886 0.0286579 2.87255e-19)
(0.00837044 0.0245122 -2.40602e-19)
(0.019648 0.0208005 -5.26213e-19)
(0.0314909 0.0178596 5.47866e-19)
(0.0437248 0.0162567 -6.99069e-19)
(0.0562884 0.0169839 3.14444e-19)
(0.067522 0.0205709 8.35872e-21)
(-0.00903369 0.0123384 -5.34761e-19)
(-0.0225495 0.0297346 -5.77446e-19)
(-0.0325627 0.041279 6.65384e-20)
(-0.0392097 0.0484497 -5.56929e-19)
(-0.0427923 0.0523467 -4.95858e-20)
(-0.0436529 0.0538067 -4.09682e-19)
(-0.0420982 0.0534779 -9.39901e-20)
(-0.0383961 0.0518555 -2.747e-19)
(-0.0327791 0.0493133 2.43186e-21)
(-0.0254475 0.046133 -1.20201e-19)
(-0.0165767 0.0425278 8.5396e-21)
(-0.00632412 0.038662 -3.46396e-19)
(0.00516319 0.03467 3.8184e-19)
(0.0177425 0.0306763 -5.41802e-19)
(0.0312666 0.0268203 1.92017e-19)
(0.0455569 0.0232841 7.3325e-21)
(0.060369 0.0203382 -3.05958e-19)
(0.0755055 0.0185279 7.58816e-19)
(0.0909727 0.0190044 -1.81321e-19)
(0.104893 0.0225291 -1.17852e-19)
(-0.00987719 0.0124945 6.00334e-19)
(-0.0242251 0.0299008 3.24176e-19)
(-0.0342624 0.0413332 3.01562e-19)
(-0.0402748 0.0483521 4.50207e-20)
(-0.0426673 0.052119 4.07802e-19)
(-0.0418582 0.0535136 5.8781e-19)
(-0.0382139 0.0532125 4.81302e-19)
(-0.0320497 0.0517299 4.30674e-20)
(-0.0236367 0.0494531 3.52479e-19)
(-0.0132113 0.046673 5.4465e-19)
(-0.000985908 0.0436079 -1.41292e-19)
(0.0128396 0.0404217 2.37132e-19)
(0.0280674 0.0372399 1.9147e-19)
(0.0444937 0.0341639 1.94803e-19)
(0.0619003 0.0312894 1.15298e-18)
(0.0800313 0.0287245 -4.32187e-19)
(0.0985541 0.0266236 -2.64407e-20)
(0.117198 0.0253993 5.02007e-19)
(0.136073 0.0262311 -2.848e-19)
(0.153239 0.0300299 1.41027e-19)
(-0.0106833 0.0125288 -4.85526e-19)
(-0.0256981 0.0297285 3.11325e-20)
(-0.0355052 0.0408828 -3.88733e-19)
(-0.0405493 0.0476324 -5.06025e-20)
(-0.0413426 0.0512 2.84573e-19)
(-0.0383795 0.0525084 -8.47137e-19)
(-0.0320844 0.0522636 -6.10236e-22)
(-0.0228167 0.051001 3.94238e-19)
(-0.0108839 0.0491262 3.70416e-19)
(0.0034436 0.0469472 -1.63084e-19)
(0.0199157 0.0446997 5.37783e-20)
(0.0382861 0.0425649 1.24736e-19)
(0.0582963 0.0406829 -5.90508e-20)
(0.0796623 0.0391624 -6.6273e-19)
(0.102063 0.0380901 1.67778e-19)
(0.125115 0.0375305 4.62267e-19)
(0.148327 0.0375208 -6.58922e-19)
(0.171247 0.0382521 3.21489e-19)
(0.194064 0.0407682 8.64623e-20)
(0.21512 0.0459477 4.3892e-19)
(-0.0114328 0.0124375 -7.1722e-20)
(-0.0268962 0.0292042 -3.4026e-19)
(-0.036155 0.0399083 1.56563e-19)
(-0.0398242 0.0462687 7.06122e-22)
(-0.0385274 0.049568 -6.82436e-19)
(-0.0328353 0.0507711 1.06492e-19)
(-0.0232283 0.0506123 -2.02207e-20)
(-0.0101071 0.049649 1.37765e-19)
(0.00618715 0.0483074 -6.30603e-19)
(0.025352 0.0469179 -4.4205e-20)
(0.0471009 0.0457431 -1.4816e-19)
(0.0711411 0.0449978 1.31793e-19)
(0.0971509 0.0448639 4.45026e-19)
(0.124757 0.045502 -6.87922e-20)
(0.153512 0.047059 2.66677e-20)
(0.182849 0.0496588 1.75446e-19)
(0.212002 0.0533563 -4.32843e-20)
(0.240112 0.0582673 3.5505e-19)
(0.267161 0.0654374 -2.05346e-19)
(0.292117 0.0754048 -3.26255e-19)
(-0.0121039 0.0122185 6.65073e-20)
(-0.0277363 0.0283208 1.62049e-20)
(-0.036055 0.0384038 1.36456e-19)
(-0.0378596 0.0442617 3.34218e-19)
(-0.0338907 0.047234 1.87541e-19)
(-0.0247965 0.0483252 1.95677e-20)
(-0.0111131 0.048295 -2.23889e-19)
(0.00671733 0.04772 5.73969e-20)
(0.0283198 0.0470442 3.01833e-19)
(0.0533587 0.0466187 -5.11473e-19)
(0.0815116 0.046732 3.85962e-19)
(0.112445 0.0476346 -2.90834e-19)
(0.145789 0.0495606 2.46886e-19)
(0.181118 0.0527494 -5.32652e-19)
(0.217916 0.0574698 5.86365e-19)
(0.255516 0.0640342 -6.27364e-19)
(0.292961 0.0727921 -1.63398e-19)
(0.328931 0.0843686 5.14172e-19)
(0.362287 0.100702 -1.73167e-19)
(0.390064 0.121664 7.82277e-20)
(-0.0126709 0.0118709 -5.03501e-20)
(-0.0281207 0.0270779 4.75124e-19)
(-0.0350228 0.0363797 -1.99948e-21)
(-0.0343792 0.0416401 -2.94939e-19)
(-0.0270558 0.0442513 -1.98359e-19)
(-0.0137825 0.0452532 3.63382e-19)
(0.00484428 0.0454251 -1.43928e-19)
(0.0283342 0.0453558 -1.81326e-20)
(0.0562675 0.0454985 2.99912e-19)
(0.0882624 0.0462116 -3.72585e-19)
(0.123947 0.0477909 4.08597e-20)
(0.162938 0.0504956 -4.84451e-19)
(0.204829 0.0545737 2.55217e-19)
(0.249187 0.0602903 -7.30577e-19)
(0.295558 0.0679672 1.16478e-18)
(0.343481 0.0780339 -2.1328e-19)
(0.392523 0.0911484 2.23804e-19)
(0.442578 0.10875 -5.80764e-19)
(0.494147 0.133852 2.69125e-21)
(0.539366 0.162011 6.66824e-19)
(-0.0131019 0.0113938 -1.52567e-19)
(-0.0279338 0.0254812 1.31829e-19)
(-0.0328456 0.0338634 -4.85378e-19)
(-0.0290661 0.0384646 7.17882e-19)
(-0.0175979 0.0407223 -5.18266e-19)
(0.000737284 0.0417059 2.67386e-20)
(0.0252697 0.0422066 -5.58779e-19)
(0.0554408 0.0428151 3.995e-19)
(0.0907582 0.0439787 -5.70794e-20)
(0.130756 0.0460419 -3.52539e-19)
(0.174968 0.049276 -2.05754e-19)
(0.222907 0.0539011 2.17384e-19)
(0.274065 0.0601052 1.43869e-19)
(0.327926 0.0680611 -6.37116e-19)
(0.383991 0.0779431 2.2988e-19)
(0.441825 0.0899386 -3.39839e-19)
(0.501121 0.10427 4.12245e-20)
(0.561932 0.121398 -2.90205e-19)
(0.625145 0.142495 1.20732e-19)
(0.683476 0.163389 -4.38139e-19)
(-0.0133564 0.0107859 4.34327e-19)
(-0.0270375 0.0235429 -2.63011e-19)
(-0.0292779 0.0309011 2.16722e-19)
(-0.0215626 0.034829 -2.736e-19)
(-0.00504898 0.0367997 4.58644e-19)
(0.0193315 0.0379042 -8.04068e-21)
(0.0508091 0.0389351 -5.58236e-20)
(0.0887198 0.0404714 -4.13863e-20)
(0.132448 0.0429362 2.54744e-19)
(0.18138 0.0466353 4.33156e-19)
(0.234877 0.0517833 -2.55881e-19)
(0.292264 0.0585217 2.48804e-19)
(0.352832 0.0669318 4.54744e-19)
(0.415862 0.0770444 -3.18847e-19)
(0.480662 0.0888436 -6.48915e-19)
(0.546605 0.102262 1.18771e-18)
(0.613181 0.117164 -2.11958e-19)
(0.680074 0.133386 -6.91603e-20)
(0.747532 0.151268 7.49453e-19)
(0.810246 0.169777 -1.57333e-19)
(-0.013384 0.0100457 -7.07216e-19)
(-0.02527 0.0212817 -4.70803e-19)
(-0.0240417 0.0275575 -1.80732e-19)
(-0.0114761 0.0308602 3.4865e-19)
(0.011089 0.0326848 -7.87035e-19)
(0.042581 0.0341323 4.07526e-19)
(0.0820864 0.0359828 5.16411e-20)
(0.128776 0.0387852 5.22013e-20)
(0.181834 0.0429147 -5.33678e-19)
(0.240413 0.0486091 -1.88467e-19)
(0.303607 0.0559925 -3.32272e-19)
(0.370453 0.0650923 3.20956e-19)
(0.43995 0.0758523 9.12545e-20)
(0.511091 0.0881421 1.79697e-20)
(0.582915 0.101764 4.1974e-19)
(0.654541 0.11645 -4.24805e-19)
(0.72521 0.131857 -1.77735e-20)
(0.794312 0.147575 1.03342e-20)
(0.861552 0.16346 5.77935e-20)
(0.923915 0.181002 3.33503e-19)
(-0.0131225 0.00917225 2.252e-19)
(-0.0224456 0.0187252 5.80036e-19)
(-0.0168311 0.0239171 4.65482e-19)
(0.00160932 0.0267176 -1.60427e-19)
(0.0313201 0.0286225 5.57881e-19)
(0.0710388 0.0307266 -4.69981e-20)
(0.119641 0.0337771 -6.62019e-20)
(0.176047 0.0382661 3.9406e-20)
(0.239141 0.0444887 5.39124e-19)
(0.307737 0.0525774 3.16765e-19)
(0.38056 0.0625274 9.24895e-20)
(0.456273 0.0742173 5.64249e-21)
(0.533524 0.0874282 -6.14488e-19)
(0.610995 0.101863 5.33916e-19)
(0.687466 0.117161 9.18595e-20)
(0.76186 0.132912 -1.50941e-19)
(0.833275 0.148666 -6.57331e-19)
(0.901007 0.163957 -5.61795e-20)
(0.96453 0.178322 2.60651e-19)
(1.02294 0.1949 -5.36036e-20)
(-0.0124983 0.00816674 -5.71637e-19)
(-0.0183574 0.0159124 2.39171e-19)
(-0.00732094 0.020087 -1.16755e-18)
(0.0181145 0.0225924 4.78101e-19)
(0.0561226 0.0248965 -3.81259e-19)
(0.10518 0.0280631 2.81068e-19)
(0.163856 0.0327758 -4.36557e-19)
(0.230709 0.0394319 4.00784e-20)
(0.304208 0.0482026 -2.24917e-20)
(0.382712 0.059069 1.17396e-19)
(0.464493 0.0718542 1.69622e-19)
(0.547797 0.0862547 -3.20614e-19)
(0.630917 0.101874 1.69734e-19)
(0.712279 0.118253 1.56076e-19)
(0.790506 0.134903 6.75671e-19)
(0.864473 0.15133 -2.93146e-19)
(0.933322 0.167055 -1.95694e-19)
(0.996481 0.181657 3.29522e-19)
(1.05352 0.194564 1.76975e-19)
(1.10494 0.209674 -3.31335e-19)
(-0.0114276 0.00703518 5.00849e-19)
(-0.0127824 0.0128986 4.82953e-19)
(0.00482101 0.0162006 1.39273e-19)
(0.0384424 0.0187096 5.86643e-19)
(0.0859112 0.0218254 2.88125e-19)
(0.145344 0.0265447 -5.19358e-19)
(0.214884 0.0334426 7.86539e-19)
(0.292591 0.0427698 -3.87052e-19)
(0.376395 0.0545171 3.86353e-19)
(0.46411 0.0684612 4.9998e-19)
(0.553511 0.0842107 -2.85738e-19)
(0.642441 0.101257 5.42574e-20)
(0.728927 0.119026 3.02963e-19)
(0.811273 0.136927 2.13654e-19)
(0.888132 0.15439 4.92936e-19)
(0.958536 0.170906 -1.96817e-19)
(1.02189 0.186038 -2.39211e-20)
(1.07795 0.199472 3.12638e-19)
(1.12664 0.21071 -6.70331e-20)
(1.1693 0.223736 4.05199e-22)
(-0.0098182 0.00579104 -2.58575e-19)
(-0.00548956 0.00976032 -9.504e-19)
(0.0199181 0.0124219 2.23775e-19)
(0.0629507 0.0153285 -1.70341e-19)
(0.120996 0.0197576 -3.93125e-19)
(0.191683 0.0265868 -2.80577e-19)
(0.27258 0.0362215 -1.73324e-19)
(0.361111 0.0486982 4.20983e-19)
(0.454556 0.0637623 -2.50011e-19)
(0.550137 0.0809329 -2.5597e-19)
(0.645163 0.0995739 -3.23967e-19)
(0.737183 0.11897 -5.34822e-20)
(0.824126 0.138398 -3.60913e-20)
(0.904393 0.157186 -7.50501e-19)
(0.976895 0.174759 3.64495e-19)
(1.04104 0.190665 -4.79229e-19)
(1.09669 0.204584 1.5118e-19)
(1.14406 0.216344 -1.15071e-18)
(1.18357 0.225658 3.46681e-19)
(1.21694 0.236151 4.40235e-19)
(-0.00757312 0.00445803 -6.49115e-20)
(0.00375071 0.00660052 4.63825e-19)
(0.0382666 0.0089498 2.97241e-20)
(0.0919236 0.0127431 7.15338e-20)
(0.161543 0.0190644 -1.45427e-19)
(0.24411 0.0286011 -2.36889e-21)
(0.33646 0.0415093 -3.71503e-21)
(0.435253 0.0575319 -8.76936e-20)
(0.537059 0.0761024 3.1103e-19)
(0.638541 0.0964421 1.20301e-19)
(0.736664 0.117665 5.46258e-19)
(0.828885 0.13888 -1.49004e-19)
(0.913286 0.159276 1.04133e-19)
(0.988617 0.178183 -1.36496e-20)
(1.05427 0.195102 2.88711e-19)
(1.11022 0.209714 1.76981e-19)
(1.15688 0.221874 4.27349e-19)
(1.19498 0.23158 -6.90734e-19)
(1.22543 0.238794 8.7028e-19)
(1.25007 0.246595 -2.7593e-19)
(-0.00459393 0.00307226 -6.04828e-19)
(0.0151548 0.00355196 -1.8872e-19)
(0.0601156 0.00601974 1.4756e-19)
(0.125541 0.0112794 9.30156e-20)
(0.207536 0.0201292 9.52177e-20)
(0.302266 0.0329745 9.65733e-20)
(0.405683 0.0496268 -2.41611e-19)
(0.513597 0.0694514 -9.9941e-20)
(0.621892 0.0915156 3.09884e-20)
(0.726803 0.114731 -2.96044e-19)
(0.825179 0.137994 -1.33998e-19)
(0.914666 0.160308 8.10023e-19)
(0.993775 0.180865 -2.08917e-19)
(1.06185 0.199091 -2.88469e-19)
(1.11894 0.214649 -1.37249e-19)
(1.16565 0.227414 9.48714e-20)
(1.20298 0.237442 1.16152e-19)
(1.23213 0.244907 -5.56963e-19)
(1.25435 0.25 8.06927e-19)
(1.2715 0.255223 -6.99811e-19)
(-0.000785095 0.00168381 -6.85368e-20)
(0.0289136 0.00077921 1.96464e-20)
(0.0856455 0.00390281 -2.49774e-20)
(0.163851 0.0112874 3.6529e-19)
(0.258745 0.0233308 2.00665e-20)
(0.365499 0.0400445 1.34105e-19)
(0.479062 0.0607907 -2.78533e-19)
(0.594393 0.0844824 -1.01603e-20)
(0.706816 0.109795 3.86965e-19)
(0.812382 0.135361 5.39699e-20)
(0.908135 0.159935 -3.37326e-19)
(0.992216 0.182518 -2.96165e-20)
(1.06383 0.202416 -2.77591e-19)
(1.12307 0.219242 2.76267e-19)
(1.17074 0.232884 3.84344e-19)
(1.20807 0.243443 -4.23908e-20)
(1.23652 0.251175 -5.18226e-20)
(1.25764 0.256406 1.57933e-19)
(1.27289 0.2595 -5.08552e-19)
(1.28404 0.262444 4.4774e-19)
(0.00394162 0.000357375 6.87219e-20)
(0.0451793 -0.00152211 -4.43633e-19)
(0.114948 0.00290026 1.18752e-19)
(0.206745 0.0131284 -3.68102e-19)
(0.314711 0.0290228 1.26546e-19)
(0.432871 0.0500733 -4.69955e-19)
(0.555127 0.0750917 1.89537e-19)
(0.675689 0.102491 -6.03144e-20)
(0.78957 0.130576 -2.43574e-21)
(0.892972 0.157775 6.17784e-20)
(0.983475 0.182821 -2.2513e-19)
(1.06001 0.204834 -3.21579e-19)
(1.12264 0.223337 -6.60313e-20)
(1.17231 0.238201 -2.96458e-20)
(1.2105 0.249571 -7.52597e-20)
(1.23897 0.257772 -2.45468e-20)
(1.25953 0.263228 -7.35018e-20)
(1.27388 0.26638 -6.37768e-20)
(1.28354 0.267694 -1.90063e-19)
(1.29013 0.268741 3.01791e-19)
(0.00966225 -0.000827979 1.65501e-19)
(0.0640515 -0.00312876 -1.83774e-19)
(0.148005 0.00333397 3.95437e-19)
(0.253937 0.0171578 -1.7062e-19)
(0.37474 0.037509 4.55984e-19)
(0.503195 0.0632238 6.44298e-21)
(0.632214 0.092484 2.28966e-19)
(0.75549 0.123201 -6.12687e-20)
(0.868075 0.153379 2.55931e-19)
(0.966704 0.181375 1.85472e-20)
(1.04982 0.206033 6.09728e-19)
(1.11733 0.226714 -4.20996e-19)
(1.17027 0.243238 5.66878e-20)
(1.21035 0.255772 1.08261e-19)
(1.23964 0.264714 5.6794e-19)
(1.26025 0.270578 -2.04081e-19)
(1.27415 0.273912 -4.05058e-20)
(1.28305 0.275221 -2.14831e-19)
(1.28843 0.275019 -2.27089e-20)
(1.2917 0.27455 1.07583e-19)
(0.0164356 -0.00177997 -7.95299e-20)
(0.0855652 -0.00379603 2.29595e-19)
(0.184676 0.00553311 -2.34891e-19)
(0.30496 0.0237043 9.28456e-20)
(0.437926 0.0490208 -1.10841e-19)
(0.575098 0.0795447 4.07004e-19)
(0.708586 0.11279 -5.66321e-20)
(0.831918 0.146222 1.39713e-19)
(0.940602 0.177677 -8.22201e-20)
(1.03228 0.205591 -2.12332e-21)
(1.10649 0.229063 9.40462e-20)
(1.16423 0.247792 -7.28753e-20)
(1.20744 0.261938 1.89089e-19)
(1.2385 0.271962 -9.42514e-20)
(1.25986 0.278481 -4.15494e-19)
(1.27381 0.282151 4.13224e-19)
(1.28232 0.28359 -1.86343e-19)
(1.28703 0.283319 1.48813e-19)
(1.28924 0.281863 2.58268e-19)
(1.29018 0.280212 1.0611e-19)
(0.0242983 -0.00239518 1.97858e-19)
(0.109679 -0.0032663 -4.07691e-19)
(0.224685 0.00981805 7.80265e-20)
(0.359169 0.0330483 -5.65738e-20)
(0.503181 0.0636974 -2.28047e-19)
(0.647102 0.0989652 -1.78966e-19)
(0.78256 0.135719 -3.51591e-20)
(0.903356 0.1711 -3.19097e-19)
(1.00588 0.202946 -1.94136e-20)
(1.08898 0.229938 -5.92981e-20)
(1.15343 0.251549 -1.61036e-19)
(1.2013 0.267874 -3.57726e-20)
(1.23528 0.27942 -1.23324e-19)
(1.25824 0.286911 -2.05951e-19)
(1.27283 0.291128 2.11e-19)
(1.28136 0.292812 2.91427e-20)
(1.28569 0.292604 5.80779e-20)
(1.28726 0.291005 -2.43338e-19)
(1.2872 0.288526 -6.06291e-21)
(1.28654 0.285956 -3.75736e-19)
(0.0332599 -0.00256201 2.17069e-19)
(0.136268 -0.00127961 1.44738e-19)
(0.267623 0.0164829 -2.33238e-19)
(0.415761 0.0454026 3.6422e-19)
(0.569299 0.0815753 -3.92337e-20)
(0.717727 0.121304 1.36007e-19)
(0.852623 0.160901 4.7082e-20)
(0.968543 0.197362 1.66833e-19)
(1.06313 0.228718 -1.30631e-19)
(1.13664 0.254044 4.35432e-20)
(1.19109 0.273272 -4.18101e-20)
(1.22948 0.28691 -1.84199e-20)
(1.2551 0.295786 3.49934e-20)
(1.27107 0.300829 -6.45051e-20)
(1.28009 0.302928 -1.98375e-20)
(1.28435 0.302857 -6.06903e-20)
(1.2855 0.301237 -9.86961e-20)
(1.28479 0.298527 6.37145e-20)
(1.28314 0.295213 -8.74888e-20)
(1.2814 0.291918 3.78031e-19)
(0.0432991 -0.0021645 -1.0845e-19)
(0.165118 0.00241443 -3.07084e-19)
(0.312949 0.025778 -4.087e-20)
(0.473806 0.060897 -1.10899e-20)
(0.635023 0.102585 -1.37488e-19)
(0.785578 0.146286 -2.25697e-19)
(0.917518 0.187922 7.38821e-20)
(1.02661 0.224557 -1.01518e-19)
(1.11204 0.254604 -1.13782e-19)
(1.17551 0.277654 6.33897e-20)
(1.22021 0.294133 -4.79147e-20)
(1.24988 0.30495 -9.6976e-20)
(1.26819 0.311197 -3.29018e-21)
(1.27833 0.313946 6.5685e-20)
(1.2829 0.314137 -6.70349e-20)
(1.28387 0.312531 9.30324e-20)
(1.28269 0.309702 2.5017e-20)
(1.28035 0.306055 6.30929e-20)
(1.27763 0.302048 1.23041e-19)
(1.27517 0.29816 -1.05416e-19)
(0.0543605 -0.00108682 1.03614e-19)
(0.195926 0.00804397 -9.20768e-21)
(0.360013 0.0378945 4.6436e-20)
(0.532292 0.0795689 -6.30536e-20)
(0.699107 0.12656 5.16222e-21)
(0.849425 0.173569 2.18714e-19)
(0.976291 0.216355 -1.43696e-19)
(1.07707 0.25228 6.08553e-20)
(1.15265 0.280306 5.36573e-20)
(1.20614 0.300613 -1.50886e-19)
(1.24172 0.314126 1.41803e-19)
(1.26365 0.322102 1.25137e-21)
(1.27575 0.325833 -9.99595e-20)
(1.28116 0.326473 1.205e-19)
(1.28226 0.324962 -4.78273e-20)
(1.28077 0.322015 3.65812e-20)
(1.2779 0.318141 -4.09157e-20)
(1.27444 0.313687 -1.63526e-20)
(1.27099 0.309088 -1.43328e-19)
(1.26807 0.304689 4.38845e-20)
(0.0663533 0.000781765 -3.4969e-20)
(0.228305 0.0158026 9.37742e-20)
(0.40807 0.0529517 1.46089e-20)
(0.590174 0.101361 6.13021e-20)
(0.760392 0.153246 2.92356e-20)
(0.908251 0.202769 1.37028e-20)
(1.0283 0.245789 7.77067e-20)
(1.11978 0.280189 -9.43782e-21)
(1.1853 0.305608 3.42616e-20)
(1.22925 0.322846 5.50603e-20)
(1.25656 0.333293 2.65714e-20)
(1.27181 0.338491 1.90761e-20)
(1.27879 0.339862 7.73651e-20)
(1.28046 0.338583 -7.48871e-20)
(1.27892 0.335555 1.60768e-20)
(1.27563 0.331425 -1.50475e-20)
(1.27157 0.326632 2.32986e-20)
(1.26736 0.321464 1.95199e-20)
(1.26345 0.316341 4.0768e-20)
(1.26022 0.311476 1.72481e-21)
(0.0791516 0.0035416 2.07286e-20)
(0.261797 0.0258379 1.89331e-20)
(0.45632 0.0709884 -2.62013e-20)
(0.646421 0.126123 1.63708e-20)
(0.817846 0.182324 9.2453e-21)
(0.961276 0.233482 -2.87591e-20)
(1.07318 0.275842 9.49041e-21)
(1.15484 0.308003 1.7081e-21)
(1.2105 0.330361 1.63674e-20)
(1.24563 0.34433 -4.3879e-20)
(1.26566 0.351706 -1.34455e-22)
(1.27528 0.354241 1.21591e-20)
(1.27815 0.353423 -9.68871e-21)
(1.27692 0.350402 9.80359e-21)
(1.27342 0.346013 2.55776e-20)
(1.26885 0.340826 -1.45495e-20)
(1.26397 0.335202 4.05201e-21)
(1.25928 0.329383 1.59401e-20)
(1.25509 0.323777 -2.62829e-20)
(1.2517 0.318464 1.26149e-20)
(0.0925969 0.00727759 5.78267e-20)
(0.295884 0.0382422 -3.1436e-20)
(0.503931 0.0919588 3.70064e-20)
(0.70006 0.153624 -2.75315e-20)
(0.870604 0.213424 -1.23443e-20)
(1.00796 0.265306 3.73078e-21)
(1.11083 0.306171 -1.2114e-20)
(1.18256 0.335495 4.35658e-20)
(1.22886 0.354465 -3.62708e-20)
(1.25605 0.36507 8.50955e-21)
(1.26984 0.369436 -6.34216e-21)
(1.27484 0.369453 -4.12911e-20)
(1.27446 0.366613 4.00457e-20)
(1.27105 0.362008 1.52405e-20)
(1.26613 0.356385 -1.51635e-20)
(1.26068 0.350232 3.55845e-20)
(1.25528 0.34384 -5.25886e-22)
(1.2503 0.33741 -3.45103e-20)
(1.24597 0.331342 2.55643e-20)
(1.2425 0.325584 8.05047e-21)
(0.106501 0.0120545 -2.02622e-20)
(0.330006 0.0530457 5.87683e-20)
(0.550081 0.115734 6.78829e-20)
(0.750215 0.183561 -3.20145e-20)
(0.917981 0.246148 5.5708e-20)
(1.04798 0.297848 8.81319e-20)
(1.14133 0.336473 -4.8479e-21)
(1.20335 0.362482 -1.51156e-20)
(1.24103 0.377851 7.46998e-20)
(1.26124 0.385078 3.64112e-20)
(1.26979 0.386541 -6.59878e-21)
(1.2711 0.384194 5.42483e-20)
(1.26823 0.37949 -5.81437e-20)
(1.26322 0.373432 9.05218e-20)
(1.25732 0.366674 -1.50994e-20)
(1.2513 0.359622 4.32159e-20)
(1.2456 0.352502 7.77577e-21)
(1.24048 0.345486 3.0909e-20)
(1.2361 0.338966 -2.94261e-20)
(1.23264 0.332754 7.06635e-21)
(0.120649 0.0179127 -3.15332e-20)
(0.36358 0.0702116 7.49109e-20)
(0.593978 0.142103 5.56328e-20)
(0.796126 0.21557 -8.42379e-21)
(0.959469 0.280075 8.66147e-20)
(1.08119 0.330733 -6.46369e-20)
(1.16491 0.366478 -5.04694e-21)
(1.21771 0.388811 5.70781e-20)
(1.24762 0.400463 1.81369e-20)
(1.26185 0.404361 2.53464e-20)
(1.26611 0.403053 -3.74138e-20)
(1.26453 0.398498 9.74852e-20)
(1.25982 0.39207 1.81788e-20)
(1.25369 0.384668 -8.62963e-20)
(1.24716 0.37685 1.25973e-19)
(1.2408 0.368945 -1.48587e-19)
(1.23496 0.361124 -6.8149e-20)
(1.22983 0.353534 1.13054e-20)
(1.2255 0.346564 6.61714e-20)
(1.22211 0.339887 -1.2462e-19)
(0.134811 0.0248649 -7.10548e-20)
(0.396023 0.0896356 -1.67571e-19)
(0.634894 0.170786 -1.44835e-19)
(0.837169 0.249248 -1.97194e-19)
(0.994736 0.314783 -1.11834e-19)
(1.10762 0.363608 -2.31859e-19)
(1.18187 0.395941 2.94574e-20)
(1.22615 0.414348 -1.23037e-19)