/*--------------------------------*- C++ -*----------------------------------*\
  =========                 |
  \\      /  F ield         | OpenFOAM: The Open Source CFD Toolbox
   \\    /   O peration     | Website:  https://openfoam.org
    \\  /    A nd           | Version:  6.0
     \\/     M anipulation  |
\*---------------------------------------------------------------------------*/
FoamFile
{
    version     2.0;
    format      ascii;
    class       volScalarField;
    location    "22.9";
    object      p;
}
// * * * * * * * * * * * * * * * * * * * * * * * * * * * * * * * * * * * * * //

dimensions      [0 2 -2 0 0 0 0];

internalField   nonuniform List<scalar> 
8000
(
-0.26426
-0.265285
-0.265954
-0.266436
-0.266837
-0.267175
-0.267464
-0.267717
-0.267943
-0.26815
-0.268341
-0.268523
-0.268699
-0.268873
-0.26905
-0.269238
-0.269441
-0.269623
-0.269769
-0.270255
-0.264376
-0.265396
-0.26606
-0.266538
-0.266934
-0.267266
-0.267548
-0.267795
-0.268014
-0.268213
-0.268396
-0.268569
-0.268736
-0.268901
-0.26907
-0.269249
-0.269443
-0.269617
-0.269754
-0.270234
-0.264614
-0.265626
-0.266281
-0.266749
-0.267134
-0.267454
-0.267723
-0.267956
-0.26816
-0.268344
-0.268511
-0.268668
-0.268818
-0.268966
-0.269116
-0.269278
-0.269456
-0.269614
-0.269734
-0.270203
-0.264975
-0.265973
-0.266615
-0.267068
-0.267436
-0.267737
-0.267987
-0.268198
-0.268381
-0.268541
-0.268684
-0.268815
-0.268939
-0.269059
-0.269183
-0.269319
-0.269471
-0.269605
-0.2697
-0.270154
-0.265458
-0.266437
-0.267061
-0.267494
-0.26784
-0.268116
-0.268338
-0.26852
-0.268672
-0.2688
-0.26891
-0.269006
-0.269093
-0.269176
-0.269262
-0.26936
-0.269478
-0.269578
-0.269638
-0.270072
-0.266061
-0.267019
-0.26762
-0.268028
-0.268344
-0.268587
-0.268775
-0.26892
-0.269032
-0.269119
-0.269184
-0.269234
-0.269273
-0.269307
-0.269343
-0.269392
-0.269462
-0.269518
-0.269533
-0.269941
-0.266785
-0.267718
-0.268292
-0.268668
-0.268948
-0.269152
-0.269296
-0.269395
-0.269459
-0.269494
-0.269504
-0.269496
-0.269474
-0.269445
-0.269416
-0.269402
-0.269411
-0.269408
-0.269365
-0.269742
-0.267632
-0.268534
-0.269076
-0.269415
-0.269652
-0.269808
-0.269901
-0.269946
-0.269952
-0.269924
-0.269868
-0.26979
-0.269693
-0.269585
-0.269476
-0.26938
-0.26931
-0.269233
-0.269117
-0.269454
-0.268602
-0.269471
-0.269975
-0.27027
-0.270456
-0.270557
-0.270591
-0.270573
-0.270511
-0.270411
-0.270278
-0.270116
-0.26993
-0.269727
-0.269518
-0.269321
-0.269151
-0.268977
-0.268768
-0.269057
-0.269701
-0.27053
-0.27099
-0.271233
-0.271362
-0.2714
-0.271367
-0.271277
-0.27114
-0.270959
-0.270739
-0.270481
-0.270191
-0.269876
-0.269546
-0.269224
-0.268928
-0.268629
-0.268301
-0.268527
-0.270933
-0.271716
-0.272124
-0.272308
-0.272371
-0.272338
-0.272231
-0.272063
-0.271843
-0.271574
-0.271257
-0.270894
-0.270487
-0.270043
-0.269571
-0.269097
-0.268644
-0.268184
-0.267698
-0.267839
-0.272305
-0.273033
-0.273381
-0.273497
-0.273485
-0.273374
-0.273185
-0.272933
-0.272625
-0.272263
-0.271845
-0.271369
-0.270835
-0.270246
-0.269612
-0.268956
-0.268308
-0.267641
-0.266944
-0.266964
-0.273825
-0.274488
-0.274764
-0.274801
-0.274705
-0.274507
-0.27423
-0.273889
-0.27349
-0.273031
-0.272509
-0.271917
-0.27125
-0.270506
-0.26969
-0.268825
-0.267941
-0.267009
-0.266026
-0.265868
-0.275503
-0.276087
-0.276279
-0.276226
-0.276034
-0.275739
-0.275366
-0.27493
-0.274436
-0.273881
-0.273256
-0.272548
-0.271748
-0.270843
-0.269833
-0.268732
-0.267568
-0.266304
-0.264934
-0.264506
-0.277349
-0.277839
-0.277932
-0.277774
-0.277472
-0.277068
-0.276589
-0.276051
-0.275459
-0.274806
-0.274079
-0.27326
-0.27233
-0.271266
-0.270055
-0.2687
-0.267217
-0.265548
-0.263664
-0.262825
-0.279375
-0.279753
-0.279731
-0.27945
-0.279021
-0.278492
-0.277894
-0.277244
-0.276547
-0.275793
-0.274965
-0.274039
-0.272985
-0.27177
-0.270361
-0.268744
-0.266913
-0.264774
-0.262233
-0.260788
-0.281597
-0.281844
-0.281685
-0.281261
-0.280685
-0.280011
-0.279276
-0.278499
-0.277685
-0.276822
-0.275891
-0.274859
-0.27369
-0.272335
-0.270744
-0.268875
-0.266695
-0.264059
-0.260747
-0.25844
-0.284033
-0.284128
-0.283809
-0.283217
-0.282468
-0.281626
-0.280732
-0.279808
-0.27886
-0.277876
-0.276834
-0.275697
-0.27442
-0.272943
-0.271193
-0.269098
-0.266589
-0.263454
-0.259255
-0.255682
-0.286708
-0.286626
-0.286121
-0.285333
-0.284383
-0.283345
-0.282266
-0.281173
-0.280071
-0.278951
-0.277789
-0.276552
-0.275187
-0.27363
-0.27179
-0.269554
-0.266784
-0.26312
-0.257707
-0.252083
-0.289654
-0.289367
-0.288646
-0.287631
-0.28645
-0.285187
-0.283896
-0.282607
-0.281331
-0.280062
-0.278782
-0.277466
-0.276076
-0.274569
-0.272886
-0.27095
-0.268631
-0.265463
-0.260212
-0.253956
-0.29291
-0.292384
-0.291414
-0.290141
-0.288698
-0.28718
-0.28565
-0.284143
-0.282675
-0.281248
-0.279854
-0.278487
-0.277145
-0.275845
-0.274641
-0.273667
-0.273176
-0.273585
-0.276416
-0.288588
-0.296523
-0.29572
-0.294466
-0.292902
-0.291165
-0.289365
-0.287573
-0.285829
-0.284156
-0.282563
-0.281056
-0.279646
-0.278363
-0.27727
-0.276486
-0.276228
-0.276855
-0.278906
-0.283542
-0.295383
-0.300547
-0.299423
-0.297846
-0.295958
-0.2939
-0.291795
-0.289721
-0.287728
-0.285841
-0.284079
-0.282458
-0.281006
-0.279773
-0.278848
-0.278372
-0.278568
-0.279757
-0.282354
-0.286939
-0.296031
-0.305042
-0.303543
-0.301604
-0.29936
-0.296956
-0.294526
-0.292159
-0.289907
-0.287801
-0.285866
-0.284125
-0.282615
-0.281394
-0.280552
-0.280223
-0.280587
-0.281868
-0.284314
-0.288174
-0.294556
-0.310069
-0.308135
-0.305792
-0.303165
-0.300392
-0.297623
-0.294952
-0.292434
-0.290102
-0.287982
-0.286099
-0.284489
-0.283206
-0.282326
-0.281949
-0.282196
-0.283192
-0.285042
-0.287831
-0.291758
-0.315685
-0.313253
-0.310465
-0.307426
-0.304266
-0.301146
-0.298161
-0.295367
-0.292795
-0.290464
-0.288395
-0.286616
-0.285167
-0.2841
-0.283479
-0.283368
-0.283816
-0.284841
-0.286462
-0.288417
-0.321945
-0.318946
-0.315672
-0.312198
-0.308635
-0.305151
-0.301841
-0.298753
-0.295908
-0.29332
-0.290995
-0.28895
-0.287207
-0.285795
-0.284746
-0.284084
-0.283816
-0.283919
-0.28439
-0.284808
-0.328894
-0.325258
-0.32146
-0.317529
-0.313549
-0.309686
-0.30603
-0.302615
-0.299449
-0.29653
-0.293852
-0.291419
-0.289237
-0.28732
-0.28568
-0.284323
-0.283241
-0.282404
-0.281801
-0.281038
-0.336564
-0.332224
-0.327867
-0.323462
-0.319047
-0.314785
-0.310749
-0.306955
-0.303391
-0.300039
-0.296885
-0.293921
-0.291148
-0.288575
-0.286209
-0.284055
-0.282107
-0.280346
-0.27876
-0.277051
-0.344973
-0.339866
-0.33492
-0.330024
-0.325156
-0.320462
-0.315994
-0.311741
-0.307673
-0.303761
-0.299983
-0.296336
-0.292823
-0.289461
-0.286264
-0.283245
-0.28041
-0.277756
-0.27527
-0.272757
-0.354117
-0.348188
-0.342632
-0.337229
-0.331881
-0.326706
-0.321728
-0.316907
-0.3122
-0.307573
-0.303014
-0.298529
-0.294142
-0.289882
-0.28578
-0.28186
-0.27814
-0.274628
-0.271309
-0.26807
-0.363969
-0.357176
-0.350993
-0.345067
-0.339199
-0.333472
-0.327875
-0.322348
-0.31684
-0.31133
-0.305827
-0.300365
-0.294991
-0.289756
-0.284705
-0.279874
-0.275286
-0.270955
-0.266859
-0.262939
-0.374475
-0.366788
-0.359969
-0.353497
-0.347053
-0.340675
-0.334321
-0.327918
-0.321429
-0.314864
-0.308268
-0.301711
-0.295269
-0.289013
-0.283
-0.277269
-0.271843
-0.266735
-0.26191
-0.257345
-0.385549
-0.376956
-0.369494
-0.362445
-0.355346
-0.348187
-0.340906
-0.333439
-0.325784
-0.318001
-0.310186
-0.302448
-0.29489
-0.287598
-0.280633
-0.274031
-0.267809
-0.261969
-0.256462
-0.251288
-0.397068
-0.387573
-0.379467
-0.371794
-0.363934
-0.355834
-0.347433
-0.338704
-0.329706
-0.320566
-0.311437
-0.302466
-0.293778
-0.285464
-0.277578
-0.270149
-0.263179
-0.256657
-0.250515
-0.244776
-0.40887
-0.398496
-0.389743
-0.381382
-0.372627
-0.363401
-0.353673
-0.343487
-0.33299
-0.322388
-0.311888
-0.301671
-0.291869
-0.282567
-0.273809
-0.265605
-0.257942
-0.250793
-0.244067
-0.237811
-0.420752
-0.40954
-0.400132
-0.390997
-0.381189
-0.370633
-0.359372
-0.347556
-0.335439
-0.323308
-0.311421
-0.299976
-0.289101
-0.278867
-0.269297
-0.260378
-0.252082
-0.244362
-0.237106
-0.230392
-0.432472
-0.420479
-0.410403
-0.400387
-0.389345
-0.37725
-0.364264
-0.350678
-0.336862
-0.323181
-0.309928
-0.297302
-0.285418
-0.27432
-0.264006
-0.25444
-0.245574
-0.237344
-0.229614
-0.222504
-0.443749
-0.431046
-0.420278
-0.409255
-0.396788
-0.382954
-0.368084
-0.35263
-0.337084
-0.321874
-0.30731
-0.293576
-0.280762
-0.268879
-0.257896
-0.247754
-0.238388
-0.229711
-0.221567
-0.214126
-0.454269
-0.440938
-0.429446
-0.417273
-0.403192
-0.387443
-0.37057
-0.353203
-0.335945
-0.319267
-0.303475
-0.288727
-0.275074
-0.262494
-0.250924
-0.240283
-0.230486
-0.221429
-0.212934
-0.205232
-0.463689
-0.449821
-0.437563
-0.424094
-0.408222
-0.390419
-0.371478
-0.352207
-0.3333
-0.31525
-0.298338
-0.282685
-0.268296
-0.255114
-0.243044
-0.231982
-0.221829
-0.212461
-0.203681
-0.195789
-0.471648
-0.457339
-0.444265
-0.429356
-0.411546
-0.391602
-0.370584
-0.349471
-0.329022
-0.309724
-0.291822
-0.275384
-0.260371
-0.246686
-0.234207
-0.222809
-0.212379
-0.202771
-0.193775
-0.185765
-0.477773
-0.463123
-0.449182
-0.432704
-0.412849
-0.390733
-0.367691
-0.344847
-0.322998
-0.302603
-0.283854
-0.266762
-0.251242
-0.237161
-0.224369
-0.212724
-0.202097
-0.192325
-0.183185
-0.175132
-0.481697
-0.466805
-0.451947
-0.433798
-0.411843
-0.387586
-0.362628
-0.338209
-0.315132
-0.29381
-0.274369
-0.256763
-0.24086
-0.226493
-0.213488
-0.201688
-0.19095
-0.181091
-0.171883
-0.163863
-0.483062
-0.468025
-0.452213
-0.432324
-0.408272
-0.381967
-0.355254
-0.329452
-0.305345
-0.283279
-0.263311
-0.245336
-0.22918
-0.214642
-0.20153
-0.18967
-0.178909
-0.169046
-0.159847
-0.151937
-0.481533
-0.466447
-0.449657
-0.428007
-0.40192
-0.373719
-0.345456
-0.318495
-0.293572
-0.270957
-0.250633
-0.232441
-0.216164
-0.201576
-0.188464
-0.176645
-0.165954
-0.15617
-0.147062
-0.139341
-0.47681
-0.461769
-0.444
-0.420616
-0.392617
-0.362722
-0.333153
-0.30528
-0.279769
-0.256806
-0.236303
-0.218047
-0.201786
-0.18727
-0.174272
-0.162596
-0.15207
-0.142454
-0.133523
-0.126069
-0.468635
-0.453732
-0.435009
-0.409969
-0.380236
-0.348898
-0.318295
-0.28977
-0.263906
-0.2408
-0.220296
-0.202134
-0.186028
-0.171711
-0.158941
-0.147516
-0.137252
-0.127895
-0.119228
-0.11212
-0.456801
-0.442127
-0.422505
-0.39594
-0.364703
-0.332204
-0.300859
-0.271955
-0.245975
-0.222933
-0.202606
-0.184694
-0.168885
-0.154893
-0.142469
-0.131404
-0.121505
-0.112502
-0.10419
-0.0975068
-0.441159
-0.426805
-0.40637
-0.378458
-0.345986
-0.312639
-0.280856
-0.251844
-0.225987
-0.20321
-0.183238
-0.165731
-0.150359
-0.136823
-0.124864
-0.11427
-0.10484
-0.0962902
-0.0884293
-0.0822519
-0.421619
-0.407677
-0.386547
-0.357507
-0.324105
-0.290236
-0.258323
-0.229475
-0.20397
-0.181658
-0.162211
-0.145263
-0.130467
-0.117513
-0.10614
-0.0961297
-0.0872764
-0.0792853
-0.0719786
-0.0663946
-0.398158
-0.38472
-0.363042
-0.33313
-0.299122
-0.265066
-0.233329
-0.204906
-0.179976
-0.158317
-0.139561
-0.123319
-0.109232
-0.0969856
-0.0863156
-0.0770031
-0.068836
-0.0615134
-0.0548731
-0.0499778
-0.370816
-0.357977
-0.335923
-0.305421
-0.271147
-0.237236
-0.20597
-0.178223
-0.154077
-0.133248
-0.115337
-0.0999375
-0.086686
-0.0752668
-0.0654144
-0.0569102
-0.0495389
-0.0429996
-0.0371444
-0.033025
-0.339699
-0.327554
-0.305316
-0.274525
-0.240327
-0.206888
-0.176373
-0.149535
-0.126365
-0.106529
-0.0896019
-0.0751706
-0.0628699
-0.0523867
-0.0434588
-0.0358695
-0.0294042
-0.0237681
-0.0188163
-0.0155281
-0.304974
-0.293618
-0.271405
-0.240635
-0.206851
-0.174194
-0.144693
-0.118978
-0.0969576
-0.078258
-0.0624373
-0.0490812
-0.0378289
-0.0283753
-0.0204661
-0.0138908
-0.00844115
-0.00383237
0.000101579
0.00251329
-0.266868
-0.256395
-0.234425
-0.203988
-0.170946
-0.139363
-0.111115
-0.0867132
-0.0659962
-0.048556
-0.0339434
-0.021748
-0.01162
-0.00326766
0.0035487
0.00902727
0.0133641
0.0168273
0.0196053
0.020974
-0.225661
-0.216161
-0.194657
-0.164861
-0.132871
-0.102629
-0.0758512
-0.0529315
-0.0336477
-0.0175678
-0.00424132
0.00673176
0.0156849
0.0228882
0.0285588
0.032879
0.0360283
0.0382203
0.0395796
0.0394644
-0.18168
-0.17324
-0.152424
-0.123564
-0.0929161
-0.0642597
-0.0391422
-0.0178499
-0.000106392
0.0145373
0.0265281
0.0362512
0.0440165
0.0500622
0.0545712
0.0577047
0.0596019
0.0603033
0.0597062
0.0575419
-0.135293
-0.127995
-0.108082
-0.0804381
-0.0513977
-0.0245455
-0.00125702
0.0182836
0.0344001
0.0475551
0.0581924
0.0666839
0.0733173
0.0782966
0.0817681
0.0838613
0.0846024
0.0836392
0.0805152
0.0762398
-0.0869048
-0.0808223
-0.0620165
-0.0358476
-0.00865445
0.0161994
0.0375107
0.0551902
0.0696034
0.0812261
0.0905032
0.0978053
0.103417
0.107542
0.110338
0.111953
0.112289
0.110506
0.105908
0.101267
-0.0369442
-0.0321417
-0.0146323
0.00982668
0.0349604
0.0576462
0.0768501
0.0925694
0.105204
0.115239
0.123122
0.129227
0.133853
0.137241
0.139634
0.141305
0.142229
0.141434
0.13866
0.142121
0.0141476
0.0176131
0.0336538
0.0561948
0.0790857
0.0994592
0.116445
0.130116
0.1409
0.149284
0.155709
0.160545
0.164088
0.166593
0.168318
0.169523
0.170197
0.169874
0.169439
0.175043
0.0659108
0.067994
0.0824159
0.102862
0.123358
0.141303
0.155981
0.167532
0.176403
0.183078
0.187988
0.191493
0.193887
0.195419
0.196338
0.196863
0.196977
0.196391
0.196002
0.200506
0.117882
0.11855
0.131228
0.149435
0.167419
0.182848
0.195152
0.204529
0.211436
0.216349
0.219685
0.221787
0.222935
0.223368
0.223314
0.222969
0.222329
0.221172
0.220241
0.223261
0.169601
0.168834
0.179669
0.195527
0.210917
0.223774
0.233665
0.240837
0.245751
0.248869
0.25059
0.251238
0.251075
0.25032
0.249177
0.247811
0.246209
0.244173
0.242387
0.244024
0.22061
0.218402
0.227325
0.240763
0.253513
0.263773
0.27124
0.2762
0.279112
0.280423
0.28051
0.279677
0.278165
0.276173
0.273883
0.271435
0.268797
0.265796
0.26308
0.26339
0.270467
0.266827
0.273796
0.284779
0.294878
0.302552
0.307613
0.310379
0.311305
0.310821
0.309278
0.306961
0.30409
0.300844
0.297384
0.293825
0.290127
0.286143
0.282493
0.281549
0.318741
0.313691
0.318697
0.327227
0.334702
0.339831
0.342531
0.343148
0.342129
0.339882
0.336739
0.33296
0.328747
0.324261
0.319642
0.314985
0.310246
0.305303
0.300744
0.298608
0.36502
0.3586
0.361661
0.367775
0.372687
0.375343
0.375757
0.374294
0.371393
0.36744
0.362746
0.357549
0.352033
0.346341
0.340597
0.334879
0.32914
0.323284
0.317853
0.314586
0.408915
0.401176
0.402341
0.406111
0.408554
0.408839
0.407066
0.403617
0.398918
0.393335
0.387158
0.380606
0.373845
0.367002
0.360185
0.353457
0.346775
0.340061
0.333804
0.32947
0.450057
0.441067
0.440413
0.441944
0.442043
0.440085
0.436248
0.430926
0.424533
0.417416
0.409842
0.402013
0.39408
0.386154
0.378329
0.370656
0.363095
0.355586
0.348555
0.34322
0.488106
0.477946
0.475574
0.475001
0.472909
0.468862
0.463107
0.456046
0.448081
0.439538
0.430668
0.421656
0.412635
0.403707
0.394949
0.386405
0.378038
0.369801
0.362053
0.355789
0.522749
0.511512
0.507549
0.505035
0.50093
0.494971
0.487462
0.478813
0.469411
0.459569
0.449517
0.439424
0.429413
0.419572
0.409966
0.400631
0.391535
0.38264
0.374238
0.367125
0.553701
0.541494
0.536089
0.531821
0.525905
0.518229
0.509148
0.499077
0.48839
0.477384
0.466274
0.455216
0.44432
0.433663
0.4233
0.413261
0.403518
0.394039
0.385051
0.377174
0.580711
0.567651
0.560972
0.55516
0.547654
0.538475
0.528019
0.516704
0.504895
0.492872
0.480838
0.468938
0.457269
0.4459
0.434879
0.424226
0.413922
0.403936
0.394435
0.385887
0.60356
0.589773
0.582007
0.574878
0.566021
0.555566
0.543946
0.531578
0.518818
0.505935
0.493119
0.480506
0.468184
0.456214
0.444635
0.433465
0.422688
0.412275
0.402338
0.393219
0.622062
0.607685
0.59903
0.590829
0.580874
0.569385
0.55682
0.543599
0.530069
0.516488
0.50304
0.489849
0.476998
0.464541
0.452512
0.440924
0.429765
0.419007
0.408716
0.399133
0.63607
0.621243
0.611912
0.602896
0.592108
0.579834
0.566553
0.552685
0.538572
0.524463
0.510536
0.496908
0.483657
0.470832
0.458462
0.446558
0.43511
0.424092
0.413531
0.403595
0.645469
0.630341
0.620553
0.610989
0.59964
0.58684
0.573078
0.558776
0.544271
0.529809
0.515559
0.501638
0.488119
0.475047
0.462448
0.450332
0.438691
0.427499
0.416756
0.406583
0.650186
0.634905
0.624888
0.615048
0.603418
0.590353
0.57635
0.561831
0.547129
0.532489
0.518078
0.50401
0.490356
0.47716
0.464446
0.452224
0.440487
0.429206
0.418373
0.40808
0.650181
0.6349
0.624884
0.615044
0.603414
0.590349
0.576347
0.561828
0.547126
0.532486
0.518076
0.504007
0.490353
0.477158
0.464444
0.452222
0.440485
0.429205
0.418371
0.408078
0.645455
0.630326
0.62054
0.610976
0.599629
0.586829
0.573068
0.558767
0.544262
0.5298
0.515552
0.501631
0.488112
0.47504
0.462442
0.450326
0.438685
0.427493
0.416751
0.406578
0.636045
0.621219
0.611889
0.602875
0.592088
0.579816
0.566536
0.552669
0.538557
0.524449
0.510523
0.496895
0.483645
0.470821
0.458451
0.446547
0.4351
0.424083
0.413522
0.403586
0.622028
0.607652
0.598998
0.5908
0.580847
0.56936
0.556796
0.543577
0.530048
0.516468
0.503021
0.489831
0.476981
0.464526
0.452497
0.44091
0.429751
0.418994
0.408703
0.39912
0.603516
0.589731
0.581966
0.57484
0.565986
0.555534
0.543916
0.53155
0.518792
0.50591
0.493096
0.480483
0.468163
0.456194
0.444616
0.433447
0.42267
0.412258
0.402321
0.393204
0.580658
0.567599
0.560923
0.555114
0.547611
0.538435
0.527982
0.51667
0.504863
0.492841
0.48081
0.468911
0.457243
0.445876
0.434855
0.424204
0.4139
0.403915
0.394415
0.385868
0.553639
0.541433
0.536032
0.531768
0.525855
0.518183
0.509105
0.499036
0.488352
0.477348
0.46624
0.455184
0.444289
0.433633
0.423272
0.413234
0.403492
0.394014
0.385027
0.377151
0.522678
0.511443
0.507483
0.504974
0.500873
0.494918
0.487412
0.478766
0.469368
0.459528
0.449478
0.439388
0.429378
0.419538
0.409934
0.400601
0.391506
0.382611
0.374211
0.367099
0.488027
0.477868
0.4755
0.474932
0.472844
0.468803
0.463051
0.455994
0.448032
0.439492
0.430625
0.421615
0.412596
0.40367
0.394914
0.386371
0.378005
0.369769
0.362023
0.35576
0.449969
0.440981
0.440331
0.441868
0.441972
0.440019
0.436186
0.430869
0.424479
0.417365
0.409794
0.401968
0.394036
0.386113
0.378289
0.370618
0.363059
0.355551
0.348521
0.343188
0.408819
0.401082
0.402252
0.406028
0.408477
0.408767
0.406999
0.403554
0.398859
0.39328
0.387105
0.380556
0.373797
0.366957
0.360141
0.353416
0.346735
0.340023
0.333767
0.329434
0.364917
0.358499
0.361565
0.367685
0.372603
0.375265
0.375684
0.374226
0.371329
0.36738
0.362689
0.357495
0.351981
0.346292
0.34055
0.334834
0.329097
0.323242
0.317812
0.314548
0.31863
0.313583
0.318594
0.32713
0.334612
0.339747
0.342453
0.343075
0.342061
0.339817
0.336678
0.332902
0.328691
0.324208
0.319591
0.314937
0.3102
0.305259
0.3007
0.298566
0.27035
0.266712
0.273686
0.284677
0.294783
0.302463
0.30753
0.310301
0.311232
0.310751
0.309213
0.306899
0.304031
0.300788
0.29733
0.293774
0.290077
0.286095
0.282446
0.281505
0.220487
0.218282
0.22721
0.240655
0.253412
0.263679
0.271153
0.276118
0.279035
0.28035
0.280441
0.279611
0.278102
0.276113
0.273826
0.27138
0.268744
0.265745
0.26303
0.263343
0.169472
0.168708
0.179548
0.195414
0.210812
0.223675
0.233573
0.24075
0.245669
0.248792
0.250517
0.251169
0.251009
0.250257
0.249116
0.247754
0.246153
0.244119
0.242335
0.243974
0.117748
0.11842
0.131103
0.149317
0.167309
0.182745
0.195055
0.204439
0.211351
0.216269
0.219609
0.221714
0.222866
0.223302
0.223251
0.222908
0.22227
0.221115
0.220186
0.223208
0.0657724
0.0678587
0.0822862
0.10274
0.123244
0.141196
0.155881
0.167438
0.176314
0.182994
0.187908
0.191417
0.193814
0.19535
0.196272
0.196799
0.196916
0.196331
0.195945
0.200451
0.0140054
0.017474
0.0335204
0.0560688
0.0789676
0.0993487
0.116341
0.130019
0.140808
0.149197
0.155627
0.160466
0.164013
0.166521
0.168248
0.169456
0.170133
0.169812
0.169379
0.174985
-0.0370896
-0.032284
-0.014769
0.00969739
0.0348391
0.0575325
0.0767435
0.092469
0.105109
0.115149
0.123037
0.129145
0.133775
0.137166
0.139562
0.141235
0.142162
0.141369
0.138596
0.14206
-0.0870527
-0.0809672
-0.0621558
-0.0359797
-0.0087785
0.016083
0.0374014
0.0550872
0.069506
0.0811336
0.0904151
0.0977211
0.103337
0.107464
0.110264
0.111881
0.112219
0.110438
0.105841
0.1012
-0.135443
-0.128142
-0.108223
-0.0805723
-0.051524
-0.0246642
-0.00136861
0.0181784
0.0343004
0.0474604
0.058102
0.0665974
0.0732342
0.0782166
0.0816907
0.0837862
0.0845293
0.0835678
0.0804449
0.07617
-0.181831
-0.173388
-0.152567
-0.1237
-0.0930441
-0.0643801
-0.0392557
-0.0179571
-0.00020801
0.0144406
0.0264358
0.0361626
0.0439313
0.04998
0.0544916
0.0576273
0.0595265
0.0602295
0.0596337
0.0574701
-0.225812
-0.216309
-0.194801
-0.164997
-0.133
-0.102751
-0.075966
-0.0530402
-0.0337509
-0.0176662
-0.00433536
0.0066415
0.0155979
0.0228042
0.0284774
0.0327998
0.0359511
0.0381448
0.0395055
0.0393913
-0.267019
-0.256543
-0.234569
-0.204125
-0.171076
-0.139485
-0.111231
-0.086823
-0.0661005
-0.0486556
-0.0340387
-0.0218397
-0.0117084
-0.00335317
0.00346573
0.00894652
0.0132852
0.0167502
0.0195297
0.0208996
-0.305124
-0.293765
-0.271548
-0.240772
-0.206981
-0.174317
-0.14481
-0.119088
-0.0970628
-0.0783585
-0.0625337
-0.0491739
-0.0379185
-0.028462
-0.0205503
-0.0139728
-0.00852127
-0.00391079
2.46527e-05
0.00243759
-0.339847
-0.327699
-0.305458
-0.274661
-0.240456
-0.20701
-0.17649
-0.149646
-0.126471
-0.10663
-0.0896989
-0.0752642
-0.0629603
-0.0524744
-0.0435441
-0.0359526
-0.0294854
-0.0238476
-0.0188944
-0.015605
-0.370962
-0.35812
-0.336062
-0.305555
-0.271275
-0.237358
-0.206086
-0.178334
-0.154182
-0.13335
-0.115434
-0.100032
-0.0867771
-0.0753552
-0.0655004
-0.0569942
-0.049621
-0.0430801
-0.0372235
-0.0331029
-0.3983
-0.38486
-0.363179
-0.333262
-0.299249
-0.265187
-0.233444
-0.205016
-0.180082
-0.158418
-0.139659
-0.123413
-0.109323
-0.0970745
-0.0864022
-0.0770877
-0.0689188
-0.0615947
-0.054953
-0.0500565
-0.421758
-0.407813
-0.386681
-0.357637
-0.324229
-0.290355
-0.258437
-0.229584
-0.204075
-0.181759
-0.162309
-0.145358
-0.130558
-0.117602
-0.106227
-0.0962148
-0.0873598
-0.0793672
-0.0720592
-0.0664741
-0.441293
-0.426937
-0.4065
-0.378584
-0.346108
-0.312756
-0.280968
-0.251952
-0.22609
-0.20331
-0.183335
-0.165825
-0.150451
-0.136912
-0.124951
-0.114355
-0.104923
-0.0963726
-0.0885105
-0.082332
-0.456931
-0.442255
-0.42263
-0.396063
-0.364821
-0.332319
-0.300969
-0.272061
-0.246078
-0.223032
-0.202702
-0.184787
-0.168976
-0.154982
-0.142556
-0.131489
-0.121589
-0.112585
-0.104271
-0.0975875
-0.468759
-0.453854
-0.435129
-0.410088
-0.380351
-0.349009
-0.318402
-0.289874
-0.264007
-0.240898
-0.220391
-0.202226
-0.186119
-0.171799
-0.159027
-0.147601
-0.137337
-0.127978
-0.11931
-0.112202
-0.476929
-0.461886
-0.444116
-0.42073
-0.392728
-0.36283
-0.333258
-0.305381
-0.279867
-0.256901
-0.236396
-0.218138
-0.201876
-0.187358
-0.174358
-0.162681
-0.152154
-0.142537
-0.133605
-0.12615
-0.481646
-0.466558
-0.449767
-0.428116
-0.402027
-0.373823
-0.345557
-0.318594
-0.293669
-0.271051
-0.250725
-0.232531
-0.216253
-0.201663
-0.18855
-0.17673
-0.166038
-0.156253
-0.147145
-0.139423
-0.483169
-0.46813
-0.452317
-0.432427
-0.408374
-0.382067
-0.355351
-0.329548
-0.305438
-0.28337
-0.263401
-0.245425
-0.229267
-0.214728
-0.201615
-0.189754
-0.178993
-0.169129
-0.159929
-0.152019
-0.481798
-0.466904
-0.452046
-0.433895
-0.41194
-0.387682
-0.362722
-0.338301
-0.315223
-0.293899
-0.274457
-0.25685
-0.240946
-0.226578
-0.213573
-0.201771
-0.191033
-0.181174
-0.171965
-0.163945
-0.477868
-0.463217
-0.449274
-0.432796
-0.412941
-0.390824
-0.367781
-0.344936
-0.323086
-0.30269
-0.28394
-0.266847
-0.251327
-0.237244
-0.224452
-0.212807
-0.20218
-0.192407
-0.183268
-0.175215
-0.471736
-0.457426
-0.444351
-0.429442
-0.411632
-0.391688
-0.37067
-0.349556
-0.329106
-0.309808
-0.291905
-0.275467
-0.260453
-0.246768
-0.234289
-0.222891
-0.212461
-0.202853
-0.193858
-0.185848
-0.463772
-0.449903
-0.437643
-0.424175
-0.408303
-0.3905
-0.371559
-0.352288
-0.333381
-0.31533
-0.298419
-0.282765
-0.268377
-0.255194
-0.243124
-0.232063
-0.22191
-0.212542
-0.203763
-0.195871
-0.454346
-0.441014
-0.429521
-0.417349
-0.403268
-0.387519
-0.370646
-0.35328
-0.336022
-0.319344
-0.303552
-0.288805
-0.275152
-0.262573
-0.251003
-0.240362
-0.230566
-0.22151
-0.213016
-0.205314
-0.443821
-0.431117
-0.420348
-0.409325
-0.396859
-0.383025
-0.368155
-0.352702
-0.337157
-0.321948
-0.307384
-0.293651
-0.280837
-0.268956
-0.257974
-0.247833
-0.238467
-0.229791
-0.221648
-0.214209
-0.432538
-0.420545
-0.410468
-0.400452
-0.38941
-0.377316
-0.364332
-0.350746
-0.336931
-0.323252
-0.309999
-0.297374
-0.285491
-0.274394
-0.264081
-0.254516
-0.245652
-0.237424
-0.229695
-0.222586
-0.420813
-0.409601
-0.400193
-0.391058
-0.38125
-0.370694
-0.359434
-0.347619
-0.335504
-0.323374
-0.311489
-0.300044
-0.289171
-0.278939
-0.26937
-0.260453
-0.252158
-0.244441
-0.237186
-0.230474
-0.408926
-0.398552
-0.389799
-0.381437
-0.372683
-0.363458
-0.353731
-0.343546
-0.333051
-0.32245
-0.311952
-0.301736
-0.291936
-0.282636
-0.27388
-0.265678
-0.258017
-0.25087
-0.244146
-0.237893
-0.397121
-0.387625
-0.379519
-0.371846
-0.363986
-0.355887
-0.347487
-0.338758
-0.329762
-0.320624
-0.311496
-0.302528
-0.293842
-0.285529
-0.277646
-0.270219
-0.263251
-0.256733
-0.250593
-0.244856
-0.385598
-0.377005
-0.369543
-0.362494
-0.355395
-0.348236
-0.340956
-0.33349
-0.325837
-0.318055
-0.310242
-0.302505
-0.29495
-0.287661
-0.280698
-0.274099
-0.26788
-0.262043
-0.256539
-0.251368
-0.374521
-0.366834
-0.360014
-0.353542
-0.347098
-0.34072
-0.334367
-0.327965
-0.321477
-0.314913
-0.308319
-0.301765
-0.295325
-0.289072
-0.283061
-0.277333
-0.271911
-0.266806
-0.261985
-0.257423
-0.364011
-0.357218
-0.351035
-0.345109
-0.339241
-0.333514
-0.327917
-0.32239
-0.316883
-0.311374
-0.305873
-0.300414
-0.295042
-0.28981
-0.284762
-0.279935
-0.27535
-0.271023
-0.266931
-0.263015
-0.354156
-0.348228
-0.342672
-0.337269
-0.33192
-0.326745
-0.321766
-0.316946
-0.312239
-0.307613
-0.303055
-0.298573
-0.294188
-0.289931
-0.285833
-0.281917
-0.2782
-0.274693
-0.271378
-0.268144
-0.34501
-0.339903
-0.334958
-0.330061
-0.325193
-0.320498
-0.316029
-0.311776
-0.307708
-0.303796
-0.300021
-0.296374
-0.292865
-0.289505
-0.286312
-0.283298
-0.280467
-0.277817
-0.275336
-0.272828
-0.336599
-0.33226
-0.327903
-0.323497
-0.319081
-0.314818
-0.310781
-0.306986
-0.303422
-0.300071
-0.296917
-0.293955
-0.291185
-0.288614
-0.286252
-0.284103
-0.282159
-0.280402
-0.278822
-0.277118
-0.328927
-0.325292
-0.321494
-0.317563
-0.313581
-0.309716
-0.306059
-0.302643
-0.299476
-0.296556
-0.29388
-0.291448
-0.289268
-0.287354
-0.285717
-0.284365
-0.283288
-0.282456
-0.281859
-0.281101
-0.321976
-0.318979
-0.315705
-0.31223
-0.308666
-0.305179
-0.301867
-0.298777
-0.295932
-0.293342
-0.291018
-0.288974
-0.287233
-0.285824
-0.284778
-0.28412
-0.283858
-0.283967
-0.284443
-0.284867
-0.315715
-0.313285
-0.310496
-0.307457
-0.304295
-0.301172
-0.298185
-0.295389
-0.292814
-0.290482
-0.288413
-0.286635
-0.285187
-0.284123
-0.283506
-0.283399
-0.283853
-0.284883
-0.28651
-0.288472
-0.310099
-0.308167
-0.305824
-0.303195
-0.30042
-0.297648
-0.294974
-0.292452
-0.290119
-0.287997
-0.286113
-0.284504
-0.283222
-0.282344
-0.281972
-0.282223
-0.283224
-0.285079
-0.287875
-0.291809
-0.305074
-0.303576
-0.301636
-0.29939
-0.296983
-0.29455
-0.292179
-0.289923
-0.287815
-0.285878
-0.284136
-0.282626
-0.281406
-0.280567
-0.280242
-0.28061
-0.281896
-0.284348
-0.288214
-0.294603
-0.300581
-0.299457
-0.297879
-0.295989
-0.293927
-0.291818
-0.289741
-0.287743
-0.285853
-0.284088
-0.282466
-0.281014
-0.279783
-0.27886
-0.278388
-0.278589
-0.279783
-0.282384
-0.286975
-0.296074
-0.29656
-0.295758
-0.294502
-0.292935
-0.291194
-0.28939
-0.287592
-0.285844
-0.284168
-0.282572
-0.281063
-0.279653
-0.278372
-0.277281
-0.276501
-0.276247
-0.276879
-0.278936
-0.283576
-0.295424
-0.292952
-0.292426
-0.291454
-0.290177
-0.288729
-0.287206
-0.285671
-0.28416
-0.282688
-0.281258
-0.279863
-0.278495
-0.277154
-0.275857
-0.274657
-0.273687
-0.273201
-0.273615
-0.276449
-0.288626
-0.289702
-0.289413
-0.288689
-0.287671
-0.286485
-0.285217
-0.28392
-0.282627
-0.281346
-0.280074
-0.278793
-0.277476
-0.276088
-0.274584
-0.272905
-0.270973
-0.26866
-0.265497
-0.260248
-0.253995
-0.286764
-0.286679
-0.28617
-0.285378
-0.284423
-0.28338
-0.282295
-0.281197
-0.280091
-0.278968
-0.277805
-0.276567
-0.275204
-0.27365
-0.271814
-0.269583
-0.266819
-0.26316
-0.257753
-0.252134
-0.284097
-0.284188
-0.283865
-0.283268
-0.282513
-0.281666
-0.280767
-0.279838
-0.278886
-0.2779
-0.276856
-0.275719
-0.274444
-0.27297
-0.271225
-0.269136
-0.266633
-0.263507
-0.259316
-0.255754
-0.28167
-0.281911
-0.281748
-0.281318
-0.280736
-0.280057
-0.279317
-0.278536
-0.277718
-0.276853
-0.275921
-0.27489
-0.273723
-0.272372
-0.270786
-0.268924
-0.266753
-0.264128
-0.260828
-0.258535
-0.279457
-0.279828
-0.2798
-0.279514
-0.27908
-0.278546
-0.277943
-0.277289
-0.276589
-0.275833
-0.275005
-0.27408
-0.273028
-0.271818
-0.270416
-0.268806
-0.266986
-0.264859
-0.262334
-0.260908
-0.277438
-0.27792
-0.278008
-0.277844
-0.277537
-0.277128
-0.276645
-0.276104
-0.275509
-0.274855
-0.274129
-0.273312
-0.272384
-0.271326
-0.270123
-0.268777
-0.267306
-0.265652
-0.263785
-0.262967
-0.2756
-0.276174
-0.27636
-0.276302
-0.276105
-0.275805
-0.275429
-0.27499
-0.274495
-0.273939
-0.273315
-0.27261
-0.271814
-0.270916
-0.269914
-0.268824
-0.267673
-0.266425
-0.265074
-0.264668
-0.273927
-0.27458
-0.274849
-0.274882
-0.274781
-0.274579
-0.274299
-0.273956
-0.273556
-0.273098
-0.272577
-0.271989
-0.271327
-0.27059
-0.269783
-0.26893
-0.268059
-0.267144
-0.26618
-0.266045
-0.272411
-0.273129
-0.273469
-0.27358
-0.273564
-0.273449
-0.273258
-0.273005
-0.272697
-0.272336
-0.27192
-0.271448
-0.27092
-0.270339
-0.269714
-0.269071
-0.268437
-0.267787
-0.267109
-0.267153
-0.27104
-0.271813
-0.272214
-0.272393
-0.272452
-0.272417
-0.272307
-0.272139
-0.271919
-0.271652
-0.271338
-0.270979
-0.270579
-0.270142
-0.269681
-0.269219
-0.26878
-0.268337
-0.267871
-0.268034
-0.269808
-0.270626
-0.27108
-0.271318
-0.271443
-0.271479
-0.271445
-0.271354
-0.271218
-0.271039
-0.270822
-0.270569
-0.270286
-0.269979
-0.26966
-0.26935
-0.269068
-0.268786
-0.268476
-0.268724
-0.268706
-0.269564
-0.270062
-0.270352
-0.270536
-0.270635
-0.270668