/*--------------------------------*- C++ -*----------------------------------*\
  =========                 |
  \\      /  F ield         | OpenFOAM: The Open Source CFD Toolbox
   \\    /   O peration     | Website:  https://openfoam.org
    \\  /    A nd           | Version:  6.0
     \\/     M anipulation  |
\*---------------------------------------------------------------------------*/
FoamFile
{
    version     2.0;
    format      ascii;
    class       volVectorField;
    location    "22.9";
    object      U;
}
// * * * * * * * * * * * * * * * * * * * * * * * * * * * * * * * * * * * * * //

dimensions      [0 1 -1 0 0 0 0];

internalField   nonuniform List<vector> 
8000
(
(-0.000487177 0.000482623 -3.4886e-21)
(-0.00266299 0.00119617 1.86474e-20)
(-0.00668127 0.00169042 -2.26803e-20)
(-0.0116116 0.00201646 1.72707e-20)
(-0.01697 0.00221306 8.41029e-21)
(-0.0224834 0.00231155 -2.52554e-20)
(-0.027957 0.00233854 -2.23229e-21)
(-0.0332647 0.00231641 -7.92276e-22)
(-0.0383366 0.00226387 -1.31097e-20)
(-0.0431438 0.00219658 -7.10252e-21)
(-0.0476869 0.0021276 5.29675e-21)
(-0.051988 0.00206769 2.01373e-20)
(-0.0560838 0.00202558 -1.50803e-21)
(-0.0600202 0.00200809 2.15748e-21)
(-0.0638491 0.00202022 -2.02829e-20)
(-0.0676291 0.00206519 1.24974e-20)
(-0.0714192 0.00214455 -1.79061e-20)
(-0.0752236 0.00225929 2.70965e-20)
(-0.0789787 0.00241058 -3.03386e-23)
(-0.0830736 0.00259059 5.85163e-21)
(-0.000571024 0.00159673 1.1585e-20)
(-0.00286756 0.00396552 -5.92037e-20)
(-0.00696295 0.00562335 -4.08913e-20)
(-0.0119355 0.00673403 -2.77698e-20)
(-0.0173071 0.00742269 -3.57245e-20)
(-0.022809 0.00779082 7.86205e-21)
(-0.0282499 0.00792464 -4.12398e-20)
(-0.0335064 0.00789654 -9.26282e-21)
(-0.0385105 0.00776699 2.9269e-21)
(-0.0432348 0.00758643 3.08238e-20)
(-0.047681 0.0073968 -3.36237e-20)
(-0.0518721 0.00723258 4.67714e-20)
(-0.0558457 0.00712163 -3.50247e-20)
(-0.059649 0.00708567 -4.15343e-20)
(-0.0633347 0.00714068 -5.72366e-20)
(-0.0669632 0.00729689 3.65537e-20)
(-0.0705953 0.00755924 -1.18215e-20)
(-0.0742368 0.00793071 -4.30452e-20)
(-0.0778235 0.00841465 4.07004e-20)
(-0.0817475 0.00898689 -3.02344e-20)
(-0.000740506 0.00269667 1.13245e-19)
(-0.00328031 0.00669883 5.8648e-20)
(-0.00752988 0.00950286 6.59565e-20)
(-0.0125857 0.0113835 5.48817e-21)
(-0.017982 0.0125511 3.64544e-20)
(-0.0234592 0.0131765 4.54996e-20)
(-0.0288331 0.0134045 -8.26828e-20)
(-0.0339858 0.0133569 -4.3786e-20)
(-0.0388535 0.0131355 -5.70244e-20)
(-0.0434114 0.0128251 6.08747e-20)
(-0.0476635 0.0124966 -4.64954e-20)
(-0.0516346 0.0122083 -5.98207e-20)
(-0.0553642 0.0120079 -2.17814e-20)
(-0.0589014 0.0119326 2.06929e-20)
(-0.0623015 0.0120104 -5.75234e-21)
(-0.0656278 0.0122594 8.29645e-21)
(-0.0689448 0.0126889 9.60115e-20)
(-0.0722616 0.0133047 -1.34855e-20)
(-0.0755135 0.0141133 -9.75986e-20)
(-0.0790984 0.0150738 1.28652e-19)
(-0.000994079 0.00377297 3.9399e-20)
(-0.00389774 0.0093718 -5.56566e-20)
(-0.00837765 0.013293 -1.39615e-20)
(-0.0135576 0.0159193 2.60998e-20)
(-0.0189903 0.0175444 7.41131e-20)
(-0.0244302 0.0184069 1.62266e-19)
(-0.0297041 0.0187089 1.58556e-19)
(-0.0347025 0.0186204 1.31719e-20)
(-0.0393676 0.0182832 9.72303e-20)
(-0.0436789 0.0178164 1.48823e-19)
(-0.0476436 0.0173192 -1.18917e-19)
(-0.051289 0.0168745 1.75991e-19)
(-0.0546572 0.0165503 -3.98478e-20)
(-0.0578001 0.0164007 1.00536e-20)
(-0.0607765 0.0164672 4.16149e-20)
(-0.0636543 0.0167777 5.52994e-20)
(-0.0665036 0.0173473 -8.70288e-20)
(-0.0693389 0.0181863 -7.26308e-20)
(-0.072095 0.0193059 -1.2853e-19)
(-0.0751799 0.0206487 1.87091e-19)
(-0.00132949 0.00481716 -2.05846e-20)
(-0.00471448 0.0119621 -2.10712e-19)
(-0.00949907 0.0169601 -6.23265e-20)
(-0.0148428 0.0202988 -1.51883e-19)
(-0.0203233 0.0223525 5.74105e-20)
(-0.0257138 0.0234254 -9.05469e-20)
(-0.0308562 0.0237749 3.1138e-20)
(-0.0356522 0.0236171 -1.91777e-19)
(-0.040052 0.0231328 1.01171e-19)
(-0.0440409 0.0224738 -1.20651e-19)
(-0.0476301 0.0217679 -1.07297e-19)
(-0.0508499 0.0211224 -1.20137e-19)
(-0.0537454 0.0206266 1.0905e-19)
(-0.056372 0.0203534 -9.79079e-20)
(-0.0587929 0.0203599 1.36334e-19)
(-0.0610819 0.0206864 3.94001e-20)
(-0.063317 0.0213567 9.75241e-20)
(-0.0655201 0.0223879 4.27944e-20)
(-0.0676272 0.0237991 -1.69458e-19)
(-0.0700612 0.0255158 2.75833e-19)
(-0.00174391 0.0058219 9.0738e-20)
(-0.00572324 0.0144494 6.98221e-21)
(-0.0108837 0.0204738 3.73809e-20)
(-0.0164285 0.0244832 1.30437e-19)
(-0.0219666 0.0269302 -1.997e-20)
(-0.0272951 0.0281815 2.11815e-19)
(-0.032275 0.0285472 9.40118e-20)
(-0.0368224 0.0282871 7.90324e-21)
(-0.0408975 0.0276188 2.41743e-19)
(-0.0444927 0.0267254 7.92103e-20)
(-0.0476237 0.0257619 3.75762e-20)
(-0.0503246 0.0248604 1.19259e-19)
(-0.0526434 0.0241327 1.09313e-19)
(-0.0546392 0.0236722 1.99558e-19)
(-0.0563802 0.0235547 -1.78368e-19)
(-0.0579472 0.0238363 2.52121e-19)
(-0.0594285 0.0245534 3.30026e-21)
(-0.0608559 0.0257344 -3.22226e-19)
(-0.0621692 0.0274103 4.17698e-19)
(-0.0638128 0.0294906 1.7312e-19)
(-0.00223394 0.00678095 -5.34735e-20)
(-0.00691465 0.016816 -9.70651e-20)
(-0.012517 0.0238065 -2.01997e-19)
(-0.0182958 0.0284378 -5.98755e-21)
(-0.0238977 0.0312375 3.44681e-20)
(-0.0291491 0.0326318 -2.57941e-19)
(-0.0339341 0.0329801 -1.91364e-19)
(-0.0381866 0.0325828 -2.73745e-20)
(-0.0418792 0.0316911 -2.42057e-19)
(-0.0450127 0.0305172 -1.67592e-19)
(-0.0476082 0.029242 -4.88425e-20)
(-0.049703 0.0280215 -1.5727e-19)
(-0.0513481 0.0269905 -2.56431e-21)
(-0.052606 0.0262653 -2.08851e-19)
(-0.0535502 0.0259437 8.785e-20)
(-0.0542695 0.0261025 -1.00229e-19)
(-0.0548639 0.0267961 7.67735e-20)
(-0.0553789 0.0280704 -9.77155e-20)
(-0.0557615 0.0299751 -2.79185e-19)
(-0.0564867 0.0324057 -8.48435e-20)
(-0.00279569 0.00768886 -1.96795e-20)
(-0.00827688 0.0190453 -2.13726e-20)
(-0.0143797 0.026933 1.69358e-19)
(-0.020418 0.0321314 -2.75597e-19)
(-0.0260832 0.0352397 4.0431e-20)
(-0.0312362 0.0367404 -1.592e-19)
(-0.0357895 0.0370382 7.52335e-20)
(-0.0396976 0.0364702 3.38154e-19)
(-0.0429485 0.0353176 -2.16922e-20)
(-0.0455525 0.0338181 -2.52266e-19)
(-0.0475369 0.0321761 4.58359e-20)
(-0.0489423 0.0305698 8.88817e-21)
(-0.0498221 0.0291571 -5.17942e-20)
(-0.0502413 0.0280786 5.23968e-21)
(-0.0502781 0.0274578 4.55023e-19)
(-0.0500297 0.0273979 -6.47896e-20)
(-0.0496098 0.0279788 -1.26386e-19)
(-0.0490802 0.0292726 -2.26736e-19)
(-0.0484006 0.0313579 2.31298e-19)
(-0.0480898 0.034121 9.97622e-20)
(-0.00342459 0.00854057 9.93744e-20)
(-0.00979518 0.021122 -1.30014e-19)
(-0.0164459 0.0298298 1.83816e-19)
(-0.0227585 0.0355353 1.85047e-19)
(-0.0284754 0.0389065 1.70585e-19)
(-0.0334987 0.040478 3.45916e-19)
(-0.0377733 0.0406961 2.23693e-19)
(-0.0412792 0.0399297 -4.80687e-19)
(-0.0440218 0.0384856 2.45836e-19)
(-0.0460233 0.0366228 1.92911e-19)
(-0.0473178 0.0345647 -2.74114e-21)
(-0.0479494 0.0325092 2.1595e-19)
(-0.0479729 0.0306356 1.68359e-19)
(-0.0474548 0.0291093 -9.15795e-20)
(-0.0464765 0.0280825 3.09457e-19)
(-0.0451432 0.0276911 -3.83606e-19)
(-0.0435833 0.0280494 1.53542e-19)
(-0.0418782 0.029268 1.9744e-19)
(-0.0400065 0.0314694 -4.59986e-20)
(-0.0385486 0.0345395 3.96742e-19)
(-0.0041152 0.00933088 1.99686e-19)
(-0.0114512 0.0230303 1.03569e-20)
(-0.0186828 0.0324736 -7.16732e-20)
(-0.0252686 0.0386222 -7.57101e-20)
(-0.0310098 0.0422099 -3.50614e-19)
(-0.0358551 0.0438205 4.96492e-20)
(-0.0397879 0.0439367 1.40675e-19)
(-0.0428172 0.042955 -6.76643e-20)
(-0.0449696 0.0412022 5.58167e-20)
(-0.0462814 0.0389531 -1.47977e-20)
(-0.046795 0.0364449 -7.29098e-20)
(-0.0465582 0.0338904 6.92282e-20)
(-0.0456268 0.0314866 -3.00968e-19)
(-0.0440673 0.0294218 2.88532e-19)
(-0.0419625 0.0278787 -2.49918e-19)
(-0.039424 0.0270307 7.71965e-20)
(-0.0365949 0.0270371 1.75668e-19)
(-0.0335784 0.0280624 -3.65415e-20)
(-0.0303791 0.0302943 -1.21529e-19)
(-0.0276636 0.0336343 -8.26625e-20)
(-0.00486089 0.0100539 -2.48742e-19)
(-0.0132221 0.0247535 -1.63725e-20)
(-0.0210487 0.03484 5.23863e-20)
(-0.027886 0.0413638 1.34698e-19)
(-0.0336015 0.0451225 -1.90163e-19)
(-0.038197 0.0467456 -1.65947e-19)
(-0.0416994 0.0467484 3.87344e-19)
(-0.0441513 0.0455497 -2.14035e-19)
(-0.0456046 0.0434909 -1.38071e-19)
(-0.0461128 0.0408564 -1.9812e-19)
(-0.0457285 0.0378911 1.31157e-19)
(-0.0445049 0.0348152 -3.53987e-21)
(-0.0424988 0.0318372 -2.44936e-19)
(-0.0397756 0.0291637 -4.00694e-19)
(-0.0364176 0.0270053 3.05273e-19)
(-0.0325401 0.025576 -2.47353e-19)
(-0.0282999 0.0250886 3.50688e-19)
(-0.0238226 0.0257803 -9.82463e-20)
(-0.0191454 0.027933 2.06463e-19)
(-0.0150531 0.0314881 -7.01238e-19)
(-0.00565351 0.0107028 -5.03773e-19)
(-0.01508 0.0262727 3.30336e-19)
(-0.0234923 0.036902 4.4926e-20)
(-0.0305329 0.0437294 8.69078e-21)
(-0.0361434 0.0476145 -2.03702e-19)
(-0.0403848 0.0492298 2.99555e-19)
(-0.0433324 0.04912 3.26981e-20)
(-0.0450678 0.0477216 -6.14271e-20)
(-0.0456716 0.0453857 -1.9718e-19)
(-0.0452185 0.0424002 2.13142e-19)
(-0.0437752 0.03901 5.40408e-19)
(-0.0414027 0.0354349 -1.19382e-19)
(-0.0381606 0.0318854 2.69795e-19)
(-0.0341135 0.0285771 -3.18703e-19)
(-0.029342 0.0257415 -3.05612e-19)
(-0.0239628 0.0236295 1.8374e-19)
(-0.0181435 0.0225126 3.0358e-19)
(-0.012031 0.0227181 -9.83735e-19)
(-0.00569772 0.0246583 1.15511e-19)
(-8.77905e-05 0.0283524 1.57121e-19)
(-0.00648314 0.0112697 3.73044e-19)
(-0.0169914 0.0275666 1.22722e-19)
(-0.0259519 0.0386293 6.39307e-19)
(-0.0331154 0.0456838 3.29025e-20)
(-0.0385048 0.0496507 -7.11038e-20)
(-0.0422459 0.0512441 -3.38604e-19)
(-0.0444675 0.0510352 2.87949e-19)
(-0.0452939 0.0494755 5.16638e-19)
(-0.0448394 0.0469216 3.44216e-19)
(-0.0432039 0.04366 2.48525e-19)
(-0.0404727 0.039929 2.14265e-19)
(-0.0367195 0.0359391 -3.84745e-19)
(-0.032011 0.031892 -1.20521e-19)
(-0.0264143 0.0279989 -8.8782e-20)
(-0.0200091 0.0244979 9.51332e-19)
(-0.0129128 0.0216651 -3.23762e-21)
(-0.00530155 0.0198249 -2.37115e-19)
(0.00266114 0.0194054 -7.47454e-20)
(0.0108714 0.0209896 6.80415e-19)
(0.0181787 0.0247243 8.91932e-20)
(-0.00733799 0.0117457 -1.83892e-20)
(-0.0189169 0.0286117 -3.52924e-19)
(-0.028355 0.0399879 -5.25066e-19)
(-0.0355226 0.0471867 -1.46113e-19)
(-0.0405306 0.0511893 8.06825e-20)
(-0.0435741 0.0527506 1.73717e-20)
(-0.0448394 0.0524674 4.6077e-19)
(-0.0444971 0.0508045 -5.71462e-19)
(-0.0426985 0.0481224 -2.17375e-19)
(-0.0395735 0.0447034 -4.38096e-19)
(-0.0352317 0.0407753 -3.73155e-19)
(-0.0297658 0.0365325 -3.30441e-19)
(-0.0232572 0.0321569 8.26228e-20)
(-0.0157829 0.0278401 -1.07294e-19)
(-0.00742847 0.0238069 4.59758e-19)
(0.00168486 0.0203348 -2.51961e-19)
(0.011372 0.0177796 -7.90021e-19)
(0.0214584 0.0166632 -1.59393e-19)
(0.0318253 0.0177725 3.89943e-19)
(0.041071 0.0214409 -3.39919e-19)
(-0.00820443 0.0121217 -5.95201e-20)
(-0.0208111 0.0293833 4.31671e-19)
(-0.0306184 0.0409414 -5.50556e-19)
(-0.037627 0.0481935 1.27252e-19)
(-0.0420414 0.0521814 -2.62139e-19)
(-0.0441298 0.0537013 5.83919e-19)
(-0.0441383 0.0533755 -4.1734e-19)
(-0.0422858 0.051683 4.77484e-19)
(-0.0387634 0.0489888 -4.52739e-19)
(-0.0337346 0.0455723 1.93183e-19)
(-0.0273386 0.0416504 -9.37483e-20)
(-0.0196956 0.0373994 -2.35411e-19)
(-0.0109126 0.0329753 -2.90904e-19)
(-0.0010896 0.0285376 2.89881e-19)
(0.00966874 0.0242753 -2.42795e-19)
(0.0212249 0.0204355 -5.30967e-19)
(0.0333761 0.0173631 5.52798e-19)
(0.045939 0.0156363 -7.05328e-19)
(0.0588133 0.0162529 3.17237e-19)
(0.0703229 0.0197818 8.24293e-21)
(-0.00906729 0.012389 -5.39705e-19)
(-0.0226225 0.0298568 -5.82768e-19)
(-0.0326479 0.0414525 6.71541e-20)
(-0.0392837 0.0486571 -5.62043e-19)
(-0.0428336 0.0525735 -5.00353e-20)
(-0.0436407 0.0540399 -4.13446e-19)
(-0.0420117 0.0537055 -9.48528e-20)
(-0.0382144 0.0520654 -2.77222e-19)
(-0.0324799 0.0494929 2.45673e-21)
(-0.0250077 0.0462688 -1.21305e-19)
(-0.0159714 0.0426049 8.61754e-21)
(-0.00552703 0.0386642 -3.49581e-19)
(0.00618014 0.0345798 3.85342e-19)
(0.0190087 0.0304752 -5.46772e-19)
(0.0328122 0.0264901 1.93764e-19)
(0.0474123 0.022809 7.38888e-21)
(0.0625638 0.0197098 -3.08719e-19)
(0.0780605 0.0177492 7.65602e-19)
(0.0938681 0.0180867 -1.82938e-19)
(0.108074 0.021528 -1.18781e-19)
(-0.00991007 0.0125402 6.05866e-19)
(-0.0242938 0.0300098 3.27157e-19)
(-0.0343371 0.0414862 3.04332e-19)
(-0.0403295 0.0485327 4.54343e-20)
(-0.0426778 0.0523134 4.1154e-19)
(-0.0418011 0.0537094 5.93199e-19)
(-0.0380659 0.053398 4.85711e-19)
(-0.0317869 0.0518935 4.34668e-20)
(-0.0232345 0.0495825 3.55717e-19)
(-0.0126438 0.0467548 5.49655e-19)
(-0.000225844 0.0436273 -1.42592e-19)
(0.0138209 0.0403625 2.39313e-19)
(0.0293 0.0370842 1.93234e-19)
(0.0460084 0.0338926 1.96595e-19)
(0.0637283 0.0308828 1.16354e-18)
(0.0822032 0.0281643 -4.36138e-19)
(0.101099 0.0258977 -2.66778e-20)
(0.120137 0.0245066 5.06483e-19)
(0.139385 0.0251809 -2.87311e-19)
(0.156851 0.0288777 1.42169e-19)
(-0.0107151 0.0125696 -4.89981e-19)
(-0.025761 0.0298235 3.14071e-20)
(-0.0355665 0.0410139 -3.92276e-19)
(-0.0405803 0.0477841 -5.10643e-20)
(-0.0413162 0.0513592 2.87167e-19)
(-0.0382694 0.0526636 -8.54876e-19)
(-0.0318643 0.0524036 -6.24145e-22)
(-0.0224599 0.0511149 3.97849e-19)
(-0.0103628 0.0492021 3.73813e-19)
(0.00415775 0.0469725 -1.64579e-19)
(0.0208527 0.0446601 5.42742e-20)
(0.0394767 0.0424446 1.25884e-19)
(0.0597722 0.0404644 -5.95946e-20)
(0.0814551 0.0388268 -6.68827e-19)
(0.104204 0.0376173 1.69323e-19)
(0.127635 0.0369011 4.66463e-19)
(0.151253 0.0367207 -6.64865e-19)
(0.174599 0.0372779 3.24372e-19)
(0.197825 0.0396295 8.72195e-20)
(0.219201 0.0447011 4.42405e-19)
(-0.011463 0.0124733 -7.2366e-20)
(-0.0269515 0.0292849 -3.43358e-19)
(-0.0361998 0.0400165 1.57995e-19)
(-0.0398264 0.04639 7.20723e-22)
(-0.0384568 0.0496902 -6.88649e-19)
(-0.0326626 0.0508835 1.07463e-19)
(-0.0229239 0.0507046 -2.04074e-20)
(-0.00964131 0.0497109 1.39025e-19)
(0.006845 0.048328 -6.3638e-19)
(0.0262331 0.0468851 -4.46162e-20)
(0.0482372 0.0456436 -1.49527e-19)
(0.0725646 0.0448163 1.33004e-19)
(0.0988935 0.0445836 4.49126e-19)
(0.12685 0.045104 -6.94274e-20)
(0.155985 0.0465228 2.69134e-20)
(0.185731 0.0489634 1.77037e-19)
(0.215318 0.0524844 -4.36856e-20)
(0.243883 0.0572111 3.5815e-19)
(0.271377 0.0642054 -2.07221e-19)
(0.296683 0.0740593 -3.29e-19)
(-0.0121321 0.0122495 6.7113e-20)
(-0.0277822 0.028387 1.63609e-20)
(-0.0360794 0.0384888 1.37693e-19)
(-0.037827 0.044352 3.37249e-19)
(-0.0337675 0.0473184 1.89247e-19)
(-0.02455 0.048394 1.97464e-20)
(-0.0107105 0.0483389 -2.25927e-19)
(0.00730903 0.0477296 5.79177e-20)
(0.0291336 0.0470096 3.04597e-19)
(0.0544277 0.0465287 -5.16162e-19)
(0.0828684 0.046574 3.89508e-19)
(0.114121 0.0473942 -2.9351e-19)
(0.147814 0.0492211 2.49158e-19)
(0.183519 0.0522915 -5.37547e-19)
(0.220717 0.0568711 5.91729e-19)
(0.25874 0.0632695 -6.33082e-19)
(0.296628 0.0718343 -1.64857e-19)
(0.33306 0.0831913 5.18625e-19)
(0.366887 0.0992897 -1.74728e-19)
(0.395061 0.120077 7.86288e-20)
(-0.0126965 0.0118972 -5.08016e-20)
(-0.028155 0.0271297 4.79402e-19)
(-0.0350223 0.0364415 -2.01351e-21)
(-0.0343047 0.0416995 -2.97601e-19)
(-0.02687 0.0442982 -2.0015e-19)
(-0.0134491 0.045279 3.66669e-19)
(0.00536127 0.0454217 -1.45231e-19)
(0.0290703 0.0453151 -1.82963e-20)
(0.0572578 0.0454116 3.02655e-19)
(0.0895403 0.0460685 -3.75991e-19)
(0.125544 0.0475801 4.12374e-20)
(0.164882 0.0502036 -4.88901e-19)
(0.207143 0.0541843 2.57558e-19)
(0.251888 0.059784 -7.37254e-19)
(0.298656 0.0673202 1.17533e-18)
(0.346979 0.0772168 -2.15239e-19)
(0.396413 0.0901238 2.25667e-19)
(0.44684 0.107467 -5.85644e-19)
(0.498753 0.132265 2.90287e-21)
(0.544232 0.160184 6.70994e-19)
(-0.0131244 0.0114154 -1.53921e-19)
(-0.0279537 0.0255188 1.32994e-19)
(-0.0328149 0.0339025 -4.89718e-19)
(-0.0289414 0.0384939 7.24315e-19)
(-0.0173381 0.0407331 -5.2292e-19)
(0.00117216 0.0416909 2.69834e-20)
(0.0259186 0.0421592 -5.63835e-19)
(0.0563413 0.0427285 4.03125e-19)
(0.0919458 0.0438455 -5.75937e-20)
(0.132263 0.0458535 -3.55761e-19)
(0.176822 0.0490222 -2.07642e-19)
(0.225128 0.0535699 2.19383e-19)
(0.276667 0.059682 1.45183e-19)
(0.330911 0.0675282 -6.42882e-19)
(0.387351 0.0772792 2.31978e-19)
(0.445539 0.0891182 -3.42843e-19)
(0.505155 0.103262 4.15864e-20)
(0.566232 0.120164 -2.92521e-19)
(0.629641 0.140996 1.21332e-19)
(0.688109 0.161669 -4.41087e-19)
(-0.013375 0.010803 4.38188e-19)
(-0.0270398 0.0235663 -2.65367e-19)
(-0.0292109 0.0309181 2.18663e-19)
(-0.0213784 0.0348296 -2.76054e-19)
(-0.00470238 0.0367768 4.62746e-19)
(0.0198838 0.037852 -8.1044e-21)
(0.0516085 0.0388486 -5.63281e-20)
(0.0898047 0.0403454 -4.17623e-20)
(0.133852 0.0427648 2.5706e-19)
(0.183132 0.0464115 4.37115e-19)
(0.236998 0.0514984 -2.58216e-19)
(0.294763 0.0581648 2.51082e-19)
(0.355709 0.0664901 4.5888e-19)
(0.419102 0.0765022 -3.21745e-19)
(0.484238 0.0881829 -6.54627e-19)
(0.550475 0.101463 1.198e-18)
(0.617288 0.116203 -2.13813e-19)
(0.684347 0.132241 -6.97083e-20)
(0.751883 0.149908 7.54573e-19)
(0.81463 0.168231 -1.58675e-19)
(-0.0133976 0.0100581 -7.13451e-19)
(-0.0252509 0.0212913 -4.74952e-19)
(-0.0239313 0.0275532 -1.82325e-19)
(-0.0112218 0.0308341 3.51739e-19)
(0.0115362 0.0326314 -7.9404e-19)
(0.0432674 0.0340475 4.11179e-19)
(0.0830546 0.0358635 5.21074e-20)
(0.130063 0.0386278 5.26828e-20)
(0.18347 0.0427146 -5.38515e-19)
(0.24242 0.0483605 -1.90177e-19)
(0.305994 0.0556877 -3.35294e-19)
(0.373216 0.0647213 3.23877e-19)
(0.44307 0.0754029 9.20627e-20)
(0.514536 0.0875999 1.81123e-20)
(0.586637 0.101112 4.23336e-19)
(0.65848 0.115673 -4.2851e-19)
(0.729294 0.130936 -1.79011e-20)
(0.798458 0.146496 1.05266e-20)
(0.86567 0.162202 5.83861e-20)
(0.927962 0.179574 3.35577e-19)
(-0.0131296 0.0091799 2.27176e-19)
(-0.0224006 0.0187211 5.85119e-19)
(-0.0166694 0.0238928 4.69559e-19)
(0.00194488 0.0266671 -1.61842e-19)
(0.0318821 0.0285423 5.62841e-19)
(0.0718754 0.0306148 -4.7419e-20)
(0.120794 0.0336321 -6.67939e-20)
(0.17755 0.0380857 3.97611e-20)
(0.241018 0.0442694 5.43999e-19)
(0.309996 0.052314 3.19644e-19)
(0.383196 0.0622122 9.33366e-20)
(0.459266 0.07384 5.70339e-21)
(0.536834 0.0869763 -6.19978e-19)
(0.614571 0.101322 5.38696e-19)
(0.691243 0.116515 9.26286e-20)
(0.765763 0.132146 -1.5227e-19)
(0.837222 0.147766 -6.62593e-19)
(0.904916 0.162913 -5.64998e-20)
(0.968316 0.177122 2.62518e-19)
(1.02656 0.193537 -5.38779e-20)
(-0.0124973 0.00816947 -5.76583e-19)
(-0.0182813 0.0158949 2.41242e-19)
(-0.00709945 0.020044 -1.17772e-18)
(0.018543 0.0225204 4.82299e-19)
(0.0568131 0.0247941 -3.84618e-19)
(0.10618 0.0279304 2.83548e-19)
(0.165206 0.0326126 -4.40448e-19)
(0.232435 0.0392372 4.04344e-20)
(0.306321 0.047973 -2.26985e-20)
(0.385207 0.0587988 1.18461e-19)
(0.467346 0.0715347 1.71147e-19)
(0.550965 0.0858743 -3.23489e-19)
(0.634344 0.101418 1.71274e-19)
(0.715894 0.117707 1.57457e-19)
(0.794232 0.134252 6.8137e-19)
(0.868228 0.150559 -2.95685e-19)
(0.937025 0.166152 -1.97204e-19)
(1.00006 0.180616 3.3198e-19)
(1.0569 0.193382 1.78041e-19)
(1.10808 0.208332 -3.33701e-19)
(-0.0114165 0.00703284 5.05135e-19)
(-0.0126697 0.0128681 4.87081e-19)
(0.00511112 0.0161405 1.40487e-19)
(0.038975 0.0186192 5.9174e-19)
(0.0867426 0.0217057 2.90655e-19)
(0.14652 0.0263975 -5.23941e-19)
(0.216437 0.0332689 7.93516e-19)
(0.294537 0.0425685 -3.90494e-19)
(0.37873 0.0542844 3.89811e-19)
(0.466808 0.0681895 5.04458e-19)
(0.556528 0.0838892 -2.88302e-19)
(0.645716 0.100872 5.47489e-20)
(0.732384 0.118562 3.05634e-19)
(0.814831 0.136366 2.15502e-19)
(0.891707 0.153719 4.97042e-19)
(0.962048 0.170111 -1.98544e-19)
(1.02527 0.185112 -2.42032e-20)
(1.08113 0.19841 3.14905e-19)
(1.12958 0.209518 -6.75626e-20)
(1.17197 0.222389 3.81374e-22)
(-0.00979482 0.00578361 -2.60776e-19)
(-0.0053343 0.00971767 -9.58492e-19)
(0.0202856 0.0123469 2.25694e-19)
(0.063598 0.0152236 -1.71807e-19)
(0.121978 0.019626 -3.96544e-19)
(0.19304 0.0264319 -2.8306e-19)
(0.274335 0.0360444 -1.74864e-19)
(0.363264 0.0484972 4.24707e-19)
(0.457083 0.0635315 -2.52227e-19)
(0.552993 0.0806619 -2.58267e-19)
(0.648281 0.099249 -3.26836e-19)
(0.740484 0.118575 -5.39533e-20)
(0.827525 0.137915 -3.64418e-20)
(0.907803 0.156599 -7.5693e-19)
(0.980236 0.174054 3.67487e-19)
(1.04424 0.189833 -4.83186e-19)
(1.09969 0.20362 1.52289e-19)
(1.14683 0.215251 -1.15921e-18)
(1.18609 0.224444 3.49278e-19)
(1.21918 0.234794 4.43144e-19)
(-0.00753509 0.00444559 -6.5471e-20)
(0.00395445 0.00654677 4.67713e-19)
(0.0387199 0.0088625 2.99779e-20)
(0.0926943 0.0126281 7.21412e-20)
(0.162683 0.0189269 -1.46665e-19)
(0.24565 0.028445 -2.39872e-21)
(0.338408 0.0413354 -3.75555e-21)
(0.43759 0.0573363 -8.84675e-20)
(0.539739 0.0758759 3.13773e-19)
(0.641496 0.0961709 1.21351e-19)
(0.739811 0.117332 5.51045e-19)
(0.832135 0.138467 -1.50291e-19)
(0.916547 0.158765 1.05021e-19)
(0.991808 0.177559 -1.37415e-20)
(1.05733 0.194354 2.91122e-19)
(1.11308 0.208839 1.78393e-19)
(1.15951 0.220871 4.30578e-19)
(1.19737 0.230456 -6.95843e-19)
(1.22757 0.237563 8.76485e-19)
(1.25196 0.245237 -2.77852e-19)
(-0.00453884 0.00305513 -6.09811e-19)
(0.0154129 0.00348876 -1.90309e-19)
(0.0606621 0.00592357 1.48779e-19)
(0.126442 0.0111593 9.37902e-20)
(0.208835 0.0199918 9.60461e-20)
(0.303983 0.0328238 9.73984e-20)
(0.407805 0.0494615 -2.4371e-19)
(0.516083 0.0692643 -1.00805e-19)
(0.624674 0.0912934 3.1257e-20)
(0.729795 0.114456 -2.98629e-19)
(0.828286 0.137646 -1.3516e-19)
(0.917793 0.159868 8.16976e-19)
(0.996837 0.180318 -2.10724e-19)
(1.06477 0.198425 -2.90875e-19)
(1.12168 0.213857 -1.38326e-19)
(1.16818 0.226498 9.56524e-20)
(1.20527 0.236407 1.17019e-19)
(1.23418 0.243763 -5.61067e-19)
(1.25618 0.248763 8.12689e-19)
(1.27311 0.253879 -7.04712e-19)
(-0.000710501 0.00166253 -6.90714e-20)
(0.0292314 0.000708811 1.97952e-20)
(0.0862914 0.00380186 -2.51935e-20)
(0.164886 0.0111677 3.68326e-19)
(0.260202 0.0232 2.02541e-20)
(0.367379 0.039905 1.35238e-19)
(0.481332 0.0606381 -2.8092e-19)
(0.596988 0.0843049 -1.0248e-20)
(0.709647 0.109575 3.90299e-19)
(0.815351 0.135077 5.44327e-20)
(0.91114 0.159567 -3.40213e-19)
(0.995168 0.182048 -2.98781e-20)
(1.06665 0.20183 -2.79896e-19)
(1.12572 0.218534 2.78586e-19)
(1.17318 0.232053 3.87451e-19)
(1.21028 0.242496 -4.27287e-20)
(1.23851 0.25012 -5.22057e-20)
(1.25942 0.255258 1.59112e-19)
(1.27447 0.258273 -5.12172e-19)
(1.28544 0.261131 4.50974e-19)
(0.00403805 0.000332766 6.92938e-20)
(0.0455615 -0.00159684 -4.47226e-19)
(0.115697 0.00279928 1.19706e-19)
(0.207914 0.0130152 -3.7115e-19)
(0.316317 0.0289047 1.27604e-19)
(0.434895 0.04995 -4.73894e-19)
(0.557511 0.0749542 1.9114e-19)
(0.678347 0.102323 -6.08347e-20)
(0.792397 0.130354 -2.46151e-21)
(0.895863 0.157478 6.23044e-20)
(0.986332 0.182428 -2.27014e-19)
(1.06275 0.20433 -3.24257e-19)
(1.12521 0.222713 -6.6567e-20)
(1.17468 0.237457 -2.98863e-20)
(1.21266 0.248712 -7.58606e-20)
(1.24092 0.256807 -2.47375e-20)
(1.26128 0.262171 -7.40687e-20)
(1.27544 0.265244 -6.4259e-20)
(1.28494 0.266494 -1.91438e-19)
(1.29139 0.267474 3.03928e-19)
(0.00978266 -0.000854836 1.66807e-19)
(0.0645019 -0.00320438 -1.85235e-19)
(0.14886 0.00323827 3.98606e-19)
(0.255237 0.0170574 -1.72011e-19)
(0.376484 0.0374094 4.59714e-19)
(0.505338 0.0631204 6.5153e-21)
(0.634676 0.0923624 2.30863e-19)
(0.758165 0.123039 -6.18e-20)
(0.87085 0.153153 2.58072e-19)
(0.969474 0.181061 1.86937e-20)
(1.0525 0.205613 6.14779e-19)
(1.11986 0.226178 -4.24461e-19)
(1.1726 0.242583 5.71619e-20)
(1.21248 0.255003 1.09153e-19)
(1.24156 0.263839 5.72444e-19)
(1.26198 0.269611 -2.05696e-19)
(1.2757 0.272868 -4.08163e-20)
(1.28446 0.274112 -2.1643e-19)
(1.2897 0.273859 -2.28619e-20)
(1.29287 0.273339 1.08366e-19)
(0.0165819 -0.00180773 -8.01286e-20)
(0.0860863 -0.00386859 2.31369e-19)
(0.185636 0.00544835 -2.36767e-19)
(0.306383 0.0236227 9.35627e-20)
(0.439788 0.0489444 -1.11755e-19)
(0.57733 0.0794636 4.10308e-19)
(0.711086 0.112683 -5.71141e-20)
(0.834567 0.146064 1.40844e-19)
(0.943285 0.177442 -8.29034e-20)
(1.0349 0.205257 -2.15534e-21)
(1.10897 0.228617 9.48021e-20)
(1.16654 0.247229 -7.34663e-20)
(1.20955 0.26126 1.90609e-19)
(1.24041 0.27118 -9.50146e-20)
(1.26158 0.277606 -4.18772e-19)
(1.27536 0.281197 4.16463e-19)
(1.28374 0.282571 -1.87775e-19)
(1.28832 0.282249 1.49956e-19)
(1.29043 0.280753 2.60205e-19)
(1.29128 0.279062 1.06909e-19)
(0.0244719 -0.00242225 1.99361e-19)
(0.110272 -0.00333147 -4.10803e-19)
(0.225748 0.00975001 7.86148e-20)
(0.360705 0.0329911 -5.70121e-20)
(0.50514 0.0636482 -2.2987e-19)
(0.649393 0.0989075 -1.80406e-19)
(0.785062 0.135627 -3.54495e-20)
(0.905944 0.170944 -3.21678e-19)
(1.00844 0.202701 -1.95822e-20)
(1.09143 0.229586 -5.97822e-20)
(1.15572 0.251082 -1.62341e-19)
(1.2034 0.267292 -3.60639e-20)
(1.23719 0.278732 -1.24315e-19)
(1.25997 0.286128 -2.07591e-19)
(1.2744 0.290264 2.12667e-19)
(1.28279 0.291882 2.93636e-20)
(1.28699 0.291621 5.85188e-20)
(1.28846 0.289982 -2.45221e-19)
(1.28832 0.287471 -6.11251e-21)
(1.28759 0.284871 -3.78607e-19)
(0.0334619 -0.00258663 2.18667e-19)
(0.136932 -0.00133283 1.45819e-19)
(0.268781 0.0164372 -2.35028e-19)
(0.417394 0.0453747 3.67016e-19)
(0.571332 0.0815558 -3.9547e-20)
(0.720045 0.121269 1.37073e-19)
(0.855094 0.160821 4.74556e-20)
(0.971041 0.197206 1.68157e-19)
(1.06556 0.228463 -1.31671e-19)
(1.13892 0.253677 4.38938e-20)
(1.1932 0.27279 -4.21425e-20)
(1.2314 0.28632 -1.85617e-20)
(1.25684 0.295098 3.52721e-20)
(1.27265 0.300058 -6.50163e-20)
(1.28154 0.302088 -1.9994e-20)
(1.28567 0.301962 -6.11706e-20)
(1.28672 0.300299 -9.94695e-20)
(1.28593 0.297556 6.42144e-20)
(1.28422 0.294216 -8.81694e-20)
(1.28242 0.290898 3.8098e-19)
(0.0435298 -0.00218474 -1.0923e-19)
(0.165851 0.00237773 -3.09345e-19)
(0.314196 0.0257599 -4.1175e-20)
(0.475519 0.0609023 -1.11854e-20)
(0.637103 0.102597 -1.38531e-19)
(0.787894 0.146274 -2.27433e-19)
(0.91993 0.187853 7.44537e-20)
(1.029 0.2244 -1.02306e-19)
(1.11432 0.25434 -1.14666e-19)
(1.17763 0.277276 6.38869e-20)
(1.22215 0.293645 -4.82897e-20)
(1.25165 0.304361 -9.77402e-20)
(1.2698 0.31052 -3.31753e-21)
(1.2798 0.313196 6.62053e-20)
(1.28425 0.313329 -6.75714e-20)
(1.28512 0.311678 9.37737e-20)
(1.28385 0.308814 2.52173e-20)
(1.28145 0.305139 6.35955e-20)
(1.27867 0.301111 1.2402e-19)
(1.27616 0.297204 -1.06255e-19)
(0.0546198 -0.00110069 1.04352e-19)
(0.196724 0.00802824 -9.25541e-21)
(0.361336 0.0379086 4.67876e-20)
(0.534067 0.0796103 -6.35201e-20)
(0.701211 0.126603 5.20851e-21)
(0.851712 0.173578 2.20378e-19)
(0.978623 0.216295 -1.44786e-19)
(1.07934 0.252123 6.13282e-20)
(1.15478 0.280038 5.40799e-20)
(1.20811 0.300231 -1.52058e-19)
(1.24351 0.313638 1.42914e-19)
(1.26528 0.321522 1.26376e-21)
(1.27724 0.325176 -1.00754e-19)
(1.28253 0.325753 1.2146e-19)
(1.28353 0.324193 -4.82134e-20)
(1.28196 0.321207 3.68764e-20)
(1.27902 0.317304 -4.12437e-20)
(1.27551 0.312827 -1.64868e-20)
(1.27201 0.308211 -1.44496e-19)
(1.26904 0.303796 4.42491e-20)
(0.0666405 0.000776249 -3.52069e-20)
(0.229163 0.0158119 9.44376e-20)
(0.409458 0.0530017 1.47165e-20)
(0.591991 0.10144 6.17469e-20)
(0.762495 0.153321 2.94545e-20)
(0.910487 0.202798 1.3806e-20)
(1.03054 0.245737 7.82895e-20)
(1.12192 0.280033 -9.50558e-21)
(1.18729 0.305339 3.45253e-20)
(1.23108 0.322467 5.54851e-20)
(1.25823 0.332815 2.67799e-20)
(1.27333 0.337929 1.9228e-20)
(1.28019 0.339232 7.79832e-20)
(1.28175 0.337899 -7.54876e-20)
(1.28013 0.334828 1.62064e-20)
(1.27678 0.330667 -1.51744e-20)
(1.27265 0.325848 2.34879e-20)
(1.26839 0.32066 1.96805e-20)
(1.26444 0.315521 4.11094e-20)
(1.26117 0.310641 1.73588e-21)
(0.0794652 0.00354636 2.08702e-20)
(0.262708 0.025876 1.90629e-20)
(0.457757 0.0710771 -2.63844e-20)
(0.64826 0.126241 1.64859e-20)
(0.819928 0.182429 9.31237e-21)
(0.963445 0.233531 -2.89683e-20)
(1.07532 0.275799 9.56039e-21)
(1.15686 0.307851 1.7218e-21)
(1.21236 0.330096 1.64906e-20)
(1.24733 0.34396 -4.42149e-20)
(1.26722 0.351245 -1.36694e-22)
(1.27671 0.353704 1.22558e-20)
(1.27947 0.352826 -9.76595e-21)
(1.27815 0.349758 9.88173e-21)
(1.27458 0.345333 2.57883e-20)
(1.26995 0.340117 -1.46723e-20)
(1.26503 0.334471 4.08468e-21)
(1.26029 0.328634 1.6078e-20)
(1.25606 0.323013 -2.65109e-20)
(1.25263 0.317686 1.27245e-20)
(0.0929349 0.00729439 5.82058e-20)
(0.296839 0.0383119 -3.16475e-20)
(0.505405 0.0920879 3.72599e-20)
(0.701903 0.15378 -2.7722e-20)
(0.872646 0.213558 -1.24321e-20)
(1.01005 0.265372 3.75748e-21)
(1.11286 0.306139 -1.22021e-20)
(1.18446 0.33535 4.38858e-20)
(1.23061 0.354209 -3.65424e-20)
(1.25764 0.364715 8.57417e-21)
(1.2713 0.368997 -6.39009e-21)
(1.27619 0.368946 -4.16202e-20)
(1.27572 0.366053 4.03698e-20)
(1.27223 0.361407 1.53685e-20)
(1.26726 0.355752 -1.52906e-20)
(1.26175 0.349573 3.58906e-20)
(1.25631 0.343161 -5.28306e-22)
(1.25129 0.336714 -3.48173e-20)
(1.24692 0.330632 2.57941e-20)
(1.24342 0.32486 8.12776e-21)
(0.10686 0.0120849 -2.03954e-20)
(0.330996 0.0531492 5.91533e-20)
(0.551575 0.115904 6.83367e-20)
(0.752044 0.183754 -3.22337e-20)
(0.919968 0.246309 5.60891e-20)
(1.04998 0.297932 8.87508e-20)
(1.14325 0.336452 -4.88381e-21)
(1.20514 0.362347 -1.52302e-20)
(1.24267 0.377609 7.52554e-20)
(1.26274 0.384742 3.66887e-20)
(1.27117 0.386129 -6.65368e-21)
(1.27238 0.383721 5.4681e-20)
(1.26944 0.37897 -5.86264e-20)
(1.26436 0.372875 9.12809e-20)
(1.25841 0.366088 -1.52277e-20)
(1.25234 0.359012 4.36033e-20)
(1.2466 0.351873 7.85263e-21)
(1.24145 0.344841 3.1198e-20)
(1.23703 0.338307 -2.96994e-20)
(1.23354 0.332081 7.13892e-21)
(0.121028 0.017958 -3.17415e-20)
(0.364597 0.0703503 7.53794e-20)
(0.595479 0.142314 5.59889e-20)
(0.797926 0.215799 -8.48059e-21)
(0.961392 0.280262 8.72019e-20)
(1.0831 0.330834 -6.50957e-20)
(1.16672 0.366469 -5.09354e-21)
(1.21939 0.38869 5.74877e-20)
(1.24916 0.400239 1.82667e-20)
(1.26326 0.40405 2.554e-20)
(1.26742 0.402672 -3.77067e-20)
(1.26575 0.398061 9.82824e-20)
(1.26098 0.39159 1.83392e-20)
(1.25479 0.384155 -8.70315e-20)
(1.24821 0.376311 1.27099e-19)
(1.24182 0.368383 -1.49941e-19)
(1.23594 0.360544 -6.88018e-20)
(1.23078 0.352938 1.14074e-20)
(1.22641 0.345953 6.6816e-20)
(1.22299 0.339263 -1.25884e-19)
(0.135205 0.0249261 -7.14964e-20)
(0.397056 0.0898102 -1.68631e-19)
(0.636387 0.171037 -1.45773e-19)
(0.838927 0.249511 -1.98489e-19)
(0.996584 0.314994 -1.12592e-19)
(1.10944 0.363725 -2.33459e-19)
(1.18357 0.395947 2.96612e-20)