/*--------------------------------*- C++ -*----------------------------------*\
  =========                 |
  \\      /  F ield         | OpenFOAM: The Open Source CFD Toolbox
   \\    /   O peration     | Website:  https://openfoam.org
    \\  /    A nd           | Version:  6.0
     \\/     M anipulation  |
\*---------------------------------------------------------------------------*/
FoamFile
{
    version     2.0;
    format      ascii;
    class       surfaceScalarField;
    location    "1.6";
    object      phi;
}
// * * * * * * * * * * * * * * * * * * * * * * * * * * * * * * * * * * * * * //

dimensions      [0 3 -1 0 0 0 0];

internalField   nonuniform List<scalar> 
15760
(
-3.64997e-05
3.67802e-05
-2.80508e-07
-0.000114708
7.88083e-05
-6.00175e-07
-0.000215298
0.000101352
-7.62159e-07
-0.00032587
0.000111399
-8.26533e-07
-0.000438317
0.000113279
-8.32092e-07
-0.000547169
0.000109653
-8.00754e-07
-0.000648463
0.000102037
-7.4315e-07
-0.000739042
9.12422e-05
-6.6385e-07
-0.000816179
7.77023e-05
-5.64992e-07
-0.00087741
6.16797e-05
-4.48228e-07
-0.000920485
4.339e-05
-3.15612e-07
-0.000943392
2.30775e-05
-1.69981e-07
-0.000944448
1.07107e-06
-1.50683e-08
-0.000922429
-2.21636e-05
1.44478e-07
-0.000876764
-4.59683e-05
3.02983e-07
-0.000807779
-6.94388e-05
4.53575e-07
-0.000716972
-9.13948e-05
5.88191e-07
-0.000607284
-0.000110386
6.98569e-07
-0.000483328
-0.000124731
7.74216e-07
-0.000132724
8.06155e-07
-0.00035141
-3.48787e-05
7.16589e-05
-0.000110119
0.000154048
-0.000207282
0.000198515
-0.000314343
0.00021846
-0.000423328
0.000222264
-0.000528803
0.000215128
-0.000626818
0.000200051
-0.000714243
0.000178667
-0.000788405
0.000151865
-0.000846919
0.000120193
-0.000887625
8.40968e-05
-0.000908617
4.40687e-05
-0.000908296
7.50551e-07
-0.000885491
-4.49692e-05
-0.000839611
-9.18477e-05
-0.000770874
-0.000138176
-0.000680572
-0.000181697
-0.000571383
-0.000219575
-0.000447694
-0.000248419
-0.000264639
-0.00031578
-3.17601e-05
0.000103419
-0.000101242
0.000223531
-0.000191718
0.00028899
-0.000291901
0.000318643
-0.000394087
0.00032445
-0.000492919
0.00031396
-0.000584476
0.000291608
-0.000665681
0.000259872
-0.000733955
0.000220139
-0.000787049
0.000173287
-0.000822976
0.000120024
-0.000840012
6.11043e-05
-0.000836725
-2.53551e-06
-0.00081205
-6.96445e-05
-0.000765387
-0.000138511
-0.000696776
-0.000206788
-0.000607146
-0.000271327
-0.000498682
-0.00032804
-0.0003753
-0.000371801
-0.000396793
-0.000243146
-2.73751e-05
0.000130794
-8.86503e-05
0.000284806
-0.000169501
0.000369841
-0.000259718
0.00040886
-0.000352014
0.000416746
-0.00044116
0.000403106
-0.000523288
0.000373736
-0.000595385
0.000331969
-0.000654991
0.000279745
-0.000700027
0.000218323
-0.000728723
0.00014872
-0.000739588
7.19689e-05
-0.000731415
-1.07085e-05
-0.000703299
-9.77601e-05
-0.000654677
-0.000187132
-0.000585419
-0.000276046
-0.000496027
-0.000360718
-0.000388025
-0.000436042
-0.000264608
-0.000495218
-0.000529799
-0.000131601
-2.20442e-05
0.000152838
-7.31485e-05
0.00033591
-0.000141908
0.0004386
-0.000219486
0.000486438
-0.000299164
0.000496425
-0.000375916
0.000479858
-0.000445948
0.000443768
-0.000506326
0.000392348
-0.000554714
0.000328133
-0.00058921
0.000252819
-0.000608264
0.000167774
-0.000610635
7.43402e-05
-0.000595366
-2.5978e-05
-0.000561759
-0.000131367
-0.000509357
-0.000239535
-0.000437943
-0.00034746
-0.000347646
-0.000451015
-0.000239278
-0.00054441
-0.000115101
-0.000619395
-0.000664572
1.96717e-05
-1.61482e-05
0.000168986
-5.57196e-05
0.000375482
-0.000110525
0.000493406
-0.000173331
0.000549244
-0.000238145
0.000561239
-0.000300228
0.000541941
-0.000355904
0.000499445
-0.000402331
0.000438774
-0.000437287
0.000363089
-0.000459035
0.000274567
-0.000466224
0.000174964
-0.000457843
6.59586e-05
-0.000433172
-5.06491e-05
-0.000391743
-0.000172796
-0.000333272
-0.000298005
-0.000257586
-0.000423146
-0.0001646
-0.000544001
-5.45193e-05
-0.000654491
7.14247e-05
-0.000745339
-0.00080213
0.000208982
-1.00936e-05
0.00017908
-3.74481e-05
0.000402836
-7.71449e-05
0.000533103
-0.000123698
0.000595797
-0.000171985
0.000609527
-0.000217657
0.000587612
-0.000257214
0.000539002
-0.000287921
0.000469481
-0.00030767
0.000382838
-0.000314859
0.000281756
-0.000308304
0.000168409
-0.000287177
4.4831e-05
-0.000250961
-8.68647e-05
-0.000199406
-0.000224352
-0.000132443
-0.000364968
-5.00691e-05
-0.00050552
4.77951e-05
-0.000641865
0.000161307
-0.000768003
0.000290175
-0.000874207
-0.000943375
0.00043142
-4.27508e-06
0.000183355
-1.94339e-05
0.000417995
-4.364e-05
0.000557309
-7.31987e-05
0.000625355
-0.000103971
0.000640299
-0.000132104
0.000615746
-0.000154345
0.000561243
-0.000168099
0.000483235
-0.000171371
0.00038611
-0.000162674
0.000273058
-0.000140947
0.000146682
-0.000105501
9.38496e-06
-5.59754e-05
-0.00013639
7.69807e-06
-0.000288025
8.53627e-05
-0.000442632
0.000176765
-0.000596923
0.000281769
-0.000746868
0.000400565
-0.0008868
0.000533519
-0.00100716
-0.00108893
0.000679074
9.59111e-07
0.000182396
-2.70169e-06
0.000421656
-1.18239e-05
0.000566431
-2.44315e-05
0.000637963
-3.74335e-05
0.000653301
-4.75713e-05
0.000625883
-5.19148e-05
0.000565586
-4.8053e-05
0.000479373
-3.4112e-05
0.000372169
-8.70379e-06
0.00024765
2.91371e-05
0.000108841
8.00013e-05
-4.14793e-05
0.000144133
-0.000200522
0.000221448
-0.000365341
0.000311577
-0.00053276
0.000413962
-0.000699309
0.000528097
-0.000861003
0.000653891
-0.00101259
0.000791942
-0.00114521
-0.00123903
0.000942047
5.33687e-06
0.000177059
1.18856e-05
0.000415107
1.66999e-05
0.000561617
2.02234e-05
0.000634439
2.4499e-05
0.000649025
3.21241e-05
0.000618258
4.56349e-05
0.000552076
6.72128e-05
0.000457795
9.85934e-05
0.000340788
0.000141072
0.000205172
0.000195537
5.43754e-05
0.000262503
-0.000108445
0.00034211
-0.000280129
0.00043413
-0.00045736
0.000537969
-0.000636599
0.000652741
-0.000814081
0.000777479
-0.00098574
0.000911572
-0.00114669
0.00105542
-0.00128906
-0.00139348
0.00120986
8.68188e-06
0.000168377
2.36996e-05
0.000400089
4.06779e-05
0.000544639
5.88142e-05
0.000616303
7.91781e-05
0.000628661
0.000103683
0.000593753
0.000134424
0.000521335
0.000173314
0.000418905
0.000221933
0.00029217
0.000281479
0.000145625
0.00035277
-1.69156e-05
0.000436233
-0.000191907
0.000531886
-0.000375782
0.000639312
-0.000564786
0.000757647
-0.000754934
0.000885628
-0.000942063
0.00102178
-0.00112189
0.00116484
-0.00128975
0.00131466
-0.00143888
-0.00155156
0.00147274
1.09223e-05
0.000157455
3.23953e-05
0.000378616
5.9322e-05
0.000517712
9.00105e-05
0.000585615
0.000124705
0.000593967
0.000164671
0.000553787
0.000211549
0.000474457
0.000266967
0.000363487
0.000332331
0.000226806
0.000408734
6.92229e-05
0.000496895
-0.000105077
0.000597113
-0.000292126
0.00070921
-0.000487879
0.000832482
-0.000688058
0.000965691
-0.000888143
0.00110712
-0.00108349
0.00125473
-0.00126951
0.00140663
-0.00144164
0.00156194
-0.00159419
-0.00171198
0.00172236
1.20888e-05
0.000145366
3.79321e-05
0.000352773
7.23816e-05
0.000483262
0.000113248
0.000544749
0.000160159
0.000547055
0.000213825
0.000500121
0.000275469
0.000412813
0.000346433
0.000292523
0.000427942
0.000145296
0.000520948
-2.37832e-05
0.000626014
-0.000210142
0.000743209
-0.000409321
0.000872023
-0.000616693
0.00101131
-0.000827349
0.00115932
-0.00103615
0.00131376
-0.00123793
0.00147206
-0.0014278
0.00163171
-0.00160129
0.00179119
-0.00175367
-0.00187286
0.00195206
1.23031e-05
0.000133063
4.05636e-05
0.000324512
8.01604e-05
0.000443665
0.000128794
0.000496115
0.000185725
0.000490124
0.000251255
0.000434592
0.000326257
0.000337811
0.000411817
0.000206964
0.000508954
4.81594e-05
0.000618412
-0.000133241
0.000740477
-0.000332207
0.000874824
-0.000543668
0.00102041
-0.000762282
0.00117547
-0.000982402
0.00133755
-0.00119823
0.00150375
-0.00140414
0.00167098
-0.00159503
0.0018363
-0.00176661
0.00199774
-0.00191511
-0.00203173
0.00215661
1.17602e-05
0.000121303
4.07984e-05
0.000295474
8.34716e-05
0.000400992
0.00013772
0.000441867
0.000202697
0.000425147
0.000278465
0.000358824
0.000365648
0.000250628
0.000465091
0.00010752
0.000577561
-6.43105e-05
0.000703468
-0.000259148
0.00084263
-0.000471369
0.000994094
-0.000695131
0.00115606
-0.000924243
0.00132591
-0.00115226
0.00150045
-0.00137277
0.00167614
-0.00157983
0.00184949
-0.00176838
0.00201742
-0.00193454
0.00217783
-0.00207552
-0.00218572
0.00233183
1.07057e-05
0.000110597
3.93362e-05
0.000266844
8.3532e-05
0.000356797
0.000141758
0.000383641
0.000213299
0.000353606
0.000298151
0.000273972
0.000396771
0.000152008
0.000509756
-5.46594e-06
0.000637511
-0.000192065
0.000779915
-0.000401552
0.000936063
-0.000627517
0.0011041
-0.000863173
0.00128125
-0.00110139
0.00146395
-0.00133496
0.00164823
-0.00155705
0.00183006
-0.00176166
0.00200579
-0.00194411
0.0021725
-0.00210125
0.00232839
-0.0022314
-0.00233186
0.00247452
9.4097e-06
0.000101187
3.69837e-05
0.00023927
8.18043e-05
0.000311976
0.000143062
0.000322383
0.000220364
0.000276304
0.000313768
0.000180567
0.000423602
4.21746e-05
0.000550144
-0.000132007
0.00069325
-0.000335171
0.00085201
-0.000560313
0.00102451
-0.000800014
0.00120775
-0.00104642
0.00139784
-0.00129147
0.00159027
-0.0015274
0.00178046
-0.00174724
0.00196417
-0.00194536
0.00213791
-0.00211785
0.00229925
-0.00226259
0.00244702
-0.00237917
-0.00246733
0.00258248
8.13772e-06
9.30497e-05
3.45569e-05
0.000212851
7.9803e-05
0.00026673
0.000143899
0.000258287
0.000226885
0.000193318
0.000328937
7.85152e-05
0.00045021
-7.90987e-05
0.000590506
-0.000272303
0.000748887
-0.000493552
0.000923363
-0.000734789
0.00111075
-0.000987399
0.00130677
-0.00124244
0.0015064
-0.00149111
0.0017044
-0.00172539
0.00189583
-0.00193866
0.00207659
-0.00212612
0.00224374
-0.002285
0.00239565
-0.0024145
0.002532
-0.00251553
-0.00258972
0.00265439
7.12156e-06
8.59281e-05
3.27832e-05
0.000187189
7.88942e-05
0.000220619
0.000146318
0.000190863
0.000235541
0.000104095
0.000346816
-3.27594e-05
0.000479986
-0.000212269
0.000634145
-0.000426462
0.000807281
-0.000666688
0.000996066
-0.000923574
0.0011959
-0.00118723
0.00140124
-0.00144777
0.00160613
-0.001696
0.00180486
-0.00192412
0.00199253
-0.00212634
0.0021655
-0.00229909
0.00232161
-0.00244111
0.00246025
-0.00255314
0.00258217
-0.00263744
-0.00269702
0.00268947
6.53428e-06
7.93938e-05
3.22175e-05
0.000161506
8.01262e-05
0.00017271
0.000151874
0.000119116
0.000248305
7.66431e-06
0.0003696
-0.000154055
0.00051507
-0.000357739
0.000682825
-0.000594217
0.000869518
-0.000853382
0.00107033
-0.00112439
0.00127926
-0.00139616
0.00148969
-0.00165821
0.00169511
-0.00190141
0.00188976
-0.00211878
0.00206918
-0.00230576
0.00223043
-0.00246034
0.00237211
-0.00258279
0.00249413
-0.00267516
0.00259744
-0.00274075
-0.00278663
0.00268705
6.47408e-06
7.29198e-05
3.31908e-05
0.000134789
8.41261e-05
0.000121775
0.000161465
4.17762e-05
0.000266226
-9.70962e-05
0.000398281
-0.00028611
0.000556127
-0.000515585
0.00073662
-0.00077471
0.000934902
-0.00105166
0.00114465
-0.00133413
0.00135865
-0.00161016
0.00156959
-0.00186915
0.00177087
-0.00210269
0.00195719
-0.00230509
0.00212494
-0.00247351
0.00227224
-0.00260765
0.0023987
-0.00270924
0.00250491
-0.00278138
0.00259215
-0.00282799
-0.00285709
0.00266261
6.96734e-06
6.59524e-05
3.58097e-05
0.000105947
9.10903e-05
6.64941e-05
0.000175319
-4.24526e-05
0.000289422
-0.000211199
0.00043267
-0.000429358
0.00060245
-0.000685365
0.000794146
-0.000966405
0.00100132
-0.00125884
0.00121631
-0.00154912
0.00143103
-0.00182488
0.00163795
-0.00207607
0.00183087
-0.00229561
0.00200539
-0.00247962
0.0021591
-0.00262722
0.00229136
-0.00273992
0.00240307
-0.00282095
0.00249621
-0.00287452
0.0025736
-0.00290539
-0.00292076
0.00263727
7.97554e-06
5.79769e-05
3.99833e-05
7.39389e-05
0.000100844
5.6338e-06
0.000193094
-0.000134703
0.000317253
-0.000335359
0.000471668
-0.000583772
0.000652347
-0.000866044
0.00085307
-0.00116713
0.00106591
-0.00147168
0.00128212
-0.00176533
0.00149324
-0.002036
0.00169202
-0.00227485
0.0018731
-0.00247669
0.00203331
-0.00263983
0.00217151
-0.00276541
0.00228828
-0.00285669
0.00238545
-0.00291812
0.00246561
-0.00295468
0.00253161
-0.00297138
-0.0029749
0.00258575
9.4219e-06
4.8555e-05
4.54931e-05
3.78678e-05
0.000112962
-6.18351e-05
0.000214068
-0.000235808
0.000348582
-0.000469873
0.000513609
-0.0007488
0.00070357
-0.00105601
0.000910623
-0.00137418
0.00112556
-0.00168661
0.00133899
-0.00197876
0.00154254
-0.00223955
0.00172974
-0.00246205
0.00189644
-0.00264339
0.00204081
-0.00278419
0.00216301
-0.00288762
0.00226471
-0.00295839
0.0023485
-0.00300191
0.00241742
-0.0030236
0.0024746
-0.00302855
-0.00302279
0.00252248
1.12141e-05
3.73408e-05
5.2059e-05
-2.97713e-06
0.000126895
-0.000136671
0.000237325
-0.000346238
0.00038203
-0.000614577
0.000556589
-0.000923358
0.00075371
-0.00125313
0.000964037
-0.00158451
0.00117742
-0.00189999
0.00138431
-0.00218565
0.00157694
-0.00243218
0.00174998
-0.00263509
0.00190069
-0.0027941
0.00202863
-0.00291213
0.00213512
-0.00299411
0.00222265
-0.00304592
0.00229432
-0.00307357
0.00235332
-0.00308261
0.00240273
-0.00307796
-0.00306479
0.00244473
1.32634e-05
2.40774e-05
5.93954e-05
-4.91091e-05
0.000142067
-0.000219343
0.000261906
-0.000466078
0.000416174
-0.000768845
0.000598701
-0.00110589
0.000800467
-0.00145489
0.00101084
-0.00179488
0.00121915
-0.00210831
0.00141623
-0.00238273
0.00159532
-0.00261128
0.00175252
-0.00279229
0.00188655
-0.00292813
0.00199825
-0.00302384
0.00208991
-0.00308577
0.0021646
-0.00312061
0.00222564
-0.00313461
0.00227624
-0.00313321
0.00231926
-0.00312097
-0.00310222
0.00235668
1.54949e-05
8.58249e-06
6.72421e-05
-0.000100856
0.000157933
-0.000310033
0.000286889
-0.000595034
0.000449658
-0.000931614
0.000638182
-0.00129441
0.000841817
-0.00165853
0.00104901
-0.00200206
0.00124908
-0.00230839
0.00143368
-0.00256733
0.00159743
-0.00277502
0.00173795
-0.00293281
0.00185538
-0.00304556
0.00195165
-0.00312011
0.00202975
-0.00316386
0.00209306
-0.00318392
0.00214494
-0.00318649
0.00218842
-0.00317669
0.00222605
-0.00315859
-0.0031357
0.00225953
1.78496e-05
-9.26709e-06
7.53739e-05
-0.000158381
0.000173998
-0.000408658
0.000311424
-0.00073246
0.000481246
-0.00110144
0.000673483
-0.00148665
0.000876103
-0.00186115
0.00107707
-0.00220303
0.00126622
-0.00249754
0.00143639
-0.0027375
0.00158378
-0.00292241
0.00170753
-0.00305656
0.00180904
-0.00314707
0.00189108
-0.00320214
0.00195706
-0.00322985
0.00201049
-0.00323735
0.00205459
-0.00323059
0.00209209
-0.0032142
0.0021252
-0.0031917
-0.00316587
0.00215537
2.02807e-05
-2.95478e-05
8.35945e-05
-0.000221694
0.000189816
-0.000514879
0.000334738
-0.000877383
0.000509841
-0.00127654
0.000703309
-0.00168011
0.000902075
-0.00205991
0.00109412
-0.00239508
0.00127023
-0.00267364
0.00142473
-0.00289201
0.00155545
-0.00305313
0.00166294
-0.00316405
0.00174961
-0.00323373
0.00181881
-0.00327135
0.00187417
-0.00328521
0.00191911
-0.00328229
0.00195659
-0.00326807
0.00198902
-0.00324662
0.00201824
-0.00322092
-0.00319307
0.00204544
2.27479e-05
-5.22957e-05
9.17243e-05
-0.000290671
0.000204971
-0.000628126
0.000356129
-0.00102854
0.0005345
-0.00145491
0.000726646
-0.00187226
0.000918909
-0.00225218
0.00109978
-0.00257595
0.00126135
-0.00283521
0.0013996
-0.00303027
0.00151392
-0.00316744
0.00160607
-0.0032562
0.00167921
-0.00330688
0.00173704
-0.00332918
0.00178318
-0.00333136
0.00182085
-0.00331996
0.00185268
-0.00329989
0.00188072
-0.00327466
0.00190649
-0.0032467
-0.00321753
0.00193094
2.5212e-05
-7.75077e-05
9.95907e-05
-0.00036505
0.000219075
-0.000747611
0.000374968
-0.00118443
0.000554445
-0.00163439
0.000742777
-0.00206059
0.000926197
-0.0024356
0.00109415
-0.00274391
0.00124029
-0.00298134
0.00136228
-0.00315226
0.00146089
-0.00326606
0.00153887
-0.00333418
0.00159989
-0.00336789
0.00164774
-0.00337703
0.00168591
-0.00336953
0.00171731
-0.00335136
0.00174422
-0.0033268
0.00176836
-0.0032988
0.00179094
-0.00326928
-0.00323932
0.00181273
2.76316e-05
-0.000105139
0.000107022
-0.00044444
0.000231762
-0.00087235
0.000390711
-0.00134338
0.000569084
-0.00181276
0.000751281
-0.00224279
0.000923912
-0.00260823
0.00107773
-0.00289773
0.00120809
-0.0031117
0.00131423
-0.0032584
0.00139813
-0.00334996
0.00146324
-0.00339929
0.00151349
-0.00341814
0.00155263
-0.00341617
0.00158387
-0.00340077
0.0016098
-0.00337728
0.00163233
-0.00334934
0.00165288
-0.00331935
0.00167242
-0.00328882
-0.00325843
0.00169153
2.99627e-05
-0.000135102
0.00011385
-0.000528327
0.000242697
-0.0010012
0.000402911
-0.0015036
0.000578024
-0.00198787
0.000752028
-0.00241679
0.00091236
-0.00276856
0.00105133
-0.0030367
0.00116599
-0.00322636
0.00125703
-0.00334944
0.00132736
-0.0034203
0.0013809
-0.00345283
0.00142164
-0.00345888
0.00145315
-0.00344767
0.00147831
-0.00342594
0.00149936
-0.00339832
0.00151789
-0.00336787
0.00153503
-0.0033365
0.00155155
-0.00330533
-0.00327479
0.00156791
3.21589e-05
-0.000167261
0.00011991
-0.000616078
0.000251588
-0.00113287
0.000411235
-0.00166324
0.000581066
-0.0021577
0.000745147
-0.00258087
0.000892104
-0.00291552
0.00101595
-0.00316054
0.00111535
-0.00332576
0.00119222
-0.00342631
0.00125018
-0.00347825
0.00129338
-0.00349603
0.00132572
-0.00349122
0.00135048
-0.00347244
0.00137022
-0.00344568
0.00138681
-0.00341491
0.00140157
-0.00338262
0.00141538
-0.00335031
0.00142885
-0.0033188
-0.00328828
0.00144235
3.41732e-05
-0.000201434
0.000125053
-0.000706959
0.000258196
-0.00126602
0.000415473
-0.00182052
0.000578205
-0.00232044
0.000730983
-0.00273365
0.000863898
-0.00304843
0.000972689
-0.00326933
0.00105751
-0.00341059
0.00112126
-0.00349005
0.00116801
-0.00352501
0.00120197
-0.00352999
0.00122685
-0.00351609
0.00124559
-0.00349117
0.00126039
-0.00346048
0.00127281
-0.00342734
0.00128392
-0.00339373
0.00129441
-0.00336081
0.00130475
-0.00332914
-0.00329878
0.00131525
3.596e-05
-0.000237394
0.000129148
-0.000800147
0.000262348
-0.00139922
0.000415537
-0.00197371
0.000569601
-0.0024745
0.00071005
-0.0028741
0.000828614
-0.00316699
0.00092271
-0.00336343
0.000993781
-0.00348166
0.00104546
-0.00354173
0.00108209
-0.00356164
0.00110779
-0.00355568
0.00112596
-0.00353426
0.00113922
-0.00350443
0.00114943
-0.00347069
0.00115786
-0.00343577
0.00116537
-0.00340123
0.0011725
-0.00336794
0.00117962
-0.00333626
-0.00330613
0.00118698
3.74774e-05
-0.000274871
0.000132088
-0.000894757
0.000263935
-0.00153107
0.000411456
-0.00212123
0.000555555
-0.0026186
0.00068298
-0.00300153
0.000787179
-0.00327119
0.000867131
-0.00344338
0.000925348
-0.00353988
0.000965986
-0.00358237
0.000993469
-0.00358912
0.00101171
-0.00357392
0.00102379
-0.00354635
0.00103198
-0.00351262
0.00103783
-0.00347654
0.00104237
-0.00344031
0.00104627
-0.00340514
0.00104997
-0.00337165
0.00105376
-0.00334005
-0.00331021
0.00105784
3.86881e-05
-0.00031356
0.000133793
-0.000989862
0.000262918
-0.00166019
0.000403363
-0.00226168
0.000536474
-0.00275171
0.000650472
-0.00311553
0.000740525
-0.00336125
0.000807008
-0.00350986
0.000853284
-0.00358615
0.00088383
-0.00361292
0.00090301
-0.0036083
0.000914462
-0.00358537
0.00092093
-0.00355282
0.000924336
-0.00351603
0.000925964
-0.00347817
0.000926645
-0.00344099
0.000926911
-0.0034054
0.000927105
-0.00337184
0.000927449
-0.00334039
-0.00331088
0.000928118
3.95615e-05
-0.000353121
0.000134215
-0.00108452
0.000259322
-0.0017853
0.000391475
-0.00239383
0.000512836
-0.00287307
0.000613255
-0.00321594
0.00068955
-0.00343754
0.000743306
-0.00356362
0.000778523
-0.00362137
0.00079983
-0.00363422
0.000811422
-0.00361989
0.000816622
-0.00359057
0.000817824
-0.00355402
0.000816648
-0.00351485
0.00081414
-0.00347566
0.000810963
-0.00343781
0.000807536
-0.00340198
0.000804132
-0.00336844
0.000800926
-0.00333719
-0.00330802
0.000798069
4.0074e-05
-0.000393195
0.000133335
-0.00117778
0.000253227
-0.00190519
0.000376072
-0.00251667
0.000485162
-0.00298216
0.000572049
-0.00330283
0.000635089
-0.00350058
0.00067688
-0.00360541
0.000701864
-0.00364636
0.000714678
-0.00364704
0.000719276
-0.00362449
0.00071864
-0.00358994
0.000714835
-0.00355022
0.000709206
-0.00350922
0.000702599
-0.00346905
0.000695537
-0.00343075
0.000688353
-0.00339479
0.000681262
-0.00336135
0.000674408
-0.00333033
-0.00330153
0.00066792
4.02152e-05
-0.00043341
0.000131173
-0.00126873
0.000244776
-0.00201879
0.000357498
-0.0026294
0.000454008
-0.00307867
0.000527567
-0.00337639
0.000577926
-0.00355094
0.000608497
-0.00363598
0.000623996
-0.00366185
0.000628957
-0.003652
0.000627041
-0.00362258
0.000620888
-0.00358379
0.000612257
-0.00354158
0.000602252
-0.00349922
0.000591548
-0.00345835
0.00058056
-0.00341976
0.00056955
-0.00338378
0.000558691
-0.00335049
0.000548099
-0.00331974
-0.00329132
0.000537887
3.99664e-05
-0.000473377
0.000127742
-0.00135651
0.000234105
-0.00212515
0.000336072
-0.00273136
0.000419863
-0.00316246
0.000480411
-0.00343694
0.000518696
-0.00358923
0.000538756
-0.00365604
0.000545435
-0.00366853
0.000543082
-0.00364964
0.000535036
-0.00361453
0.000523608
-0.00357236
0.000510274
-0.00352825
0.000495934
-0.00348488
0.000481122
-0.00344353
0.000466161
-0.0034048
0.00045126
-0.00336888
0.000436559
-0.00333579
0.000422153
-0.00330533
-0.00327731
0.000408141
3.93315e-05
-0.000512708
0.000123107
-0.00144029
0.000221419
-0.00222347
0.00031217
-0.00282211
0.000383252
-0.00323354
0.000431187
-0.00348487
0.000458008
-0.00361605
0.000468214
-0.00366624
0.000466654
-0.00366697
0.000457432
-0.00364042
0.000443558
-0.00360066
0.000427028
-0.00355583
0.000409072
-0.00351029
0.000390412
-0.00346622
0.000371465
-0.00342459
0.000352483
-0.00338582
0.000333631
-0.00335003
0.000315023
-0.00331718
0.000296739
-0.00328705
-0.00325943
0.000278863
3.83154e-05
-0.000551024
0.000117341
-0.00151931
0.000206922
-0.00231305
0.000286152
-0.00290134
0.00034465
-0.00329204
0.000380417
-0.00352064
0.000396371
-0.003632
0.000397317
-0.00366719
0.000388018
-0.00365767
0.000372291
-0.0036247
0.00035282
-0.00358118
0.000331313
-0.00353432
0.000308783
-0.00348776
0.0002858
-0.00344323
0.000262686
-0.00340147
0.000239636
-0.00336277
0.00021678
-0.00332717
0.000194209
-0.00329461
0.000171994
-0.00326484
-0.00323765
0.000150206
3.69293e-05
-0.000587953
0.000110528
-0.00159291
0.000190829
-0.00239335
0.000258362
-0.00296888
0.00030449
-0.00333817
0.000328562
-0.00354471
0.000334216
-0.00363766
0.000326435
-0.00365941
0.000309819
-0.00364106
0.000287881
-0.00360276
0.000262987
-0.00355629
0.000236588
-0.00350792
0.000209507
-0.00346068
0.000182189
-0.00341592
0.000154877
-0.00337416
0.000127715
-0.0033356
0.000100807
-0.00330027
7.42277e-05
-0.00326803
4.8038e-05
-0.00323865
-0.00321191
2.23001e-05
3.51891e-05
-0.000623142
0.000102762
-0.00166048
0.000173355
-0.00246394
0.000229128
-0.00302465
0.000263164
-0.0033722
0.000276021
-0.00355757
0.000271906
-0.00363354
0.000255868
-0.00364337
0.00023229
-0.00361748
0.000204372
-0.00357484
0.000174186
-0.0035261
0.00014295
-0.00347668
0.000111325
-0.00342906
7.9653e-05
-0.00338424
4.8109e-05
-0.00334262
1.67977e-05
-0.00330429
-1.42031e-05
-0.00326926
-4.48294e-05
-0.0032374
-7.50271e-05
-0.00320845
-0.00318219
-0.000104741
3.31151e-05
-0.000656257
9.41431e-05
-0.00172151
0.000154709
-0.00252451
0.000198754
-0.00306869
0.000221022
-0.00339447
0.000223141
-0.00355969
0.000209744
-0.00362014
0.000185859
-0.00361949
0.000155615
-0.00358724
0.0001219
-0.00354112
8.65129e-05
-0.00349072
5.04703e-05
-0.00344064
1.4298e-05
-0.00339289
-2.17513e-05
-0.00334819
-5.75581e-05
-0.00330681
-9.30537e-05
-0.0032688
-0.000128181
-0.00323414
-0.000162887
-0.0032027
-0.000197119
-0.00317422
-0.00314849
-0.000230827
3.07306e-05
-0.000686988
8.47737e-05
-0.00177555
0.000135094
-0.00257483
0.000167517
-0.00310112
0.000178374
-0.00340533
0.000170216
-0.00355153
0.000147984
-0.00359791
0.000116608
-0.00358811
7.994e-05
-0.00355057
4.05679e-05
-0.00350175
4.29841e-08
-0.00345019
-4.07929e-05
-0.00339981
-8.15271e-05
-0.00335215
-0.00012198
-0.00330774
-0.000162079
-0.00326671
-0.00020179
-0.00322909
-0.000241073
-0.00319485
-0.000279885
-0.00316388
-0.000318172
-0.00313593
-0.00311077
-0.000355887
2.80618e-05
-0.00071505
7.47561e-05
-0.00182225
0.000114702
-0.00261477
0.000135672
-0.00312209
0.000135492
-0.00340515
0.000117501
-0.00353354
8.68381e-05
-0.00356725
4.82788e-05
-0.00354955
5.38565e-06
-0.00350768
-3.95384e-05
-0.00345683
-8.51631e-05
-0.00340457
-0.000130795
-0.00335417
-0.000176114
-0.00330683
-0.000220999
-0.00326286
-0.000265421
-0.00322229
-0.000309375
-0.00318513
-0.000352841
-0.00315139
-0.000395783
-0.00312094
-0.000438143
-0.00309357
-0.00306905
-0.000479869
2.51365e-05
-0.000740186
6.4192e-05
-0.0018613
9.37124e-05
-0.0026443
0.00010345
-0.00313182
9.26175e-05
-0.00339432
6.52145e-05
-0.00350614
2.64857e-05
-0.00352852
-1.89915e-05
-0.00350407
-6.79475e-05
-0.00345872
-0.000118347
-0.00340643
-0.000169053
-0.00335386
-0.000219497
-0.00330373
-0.000269433
-0.0032569
-0.000318786
-0.0032135
-0.000367563
-0.00317351
-0.000415788
-0.00313691
-0.000463464
-0.00310371
-0.000510558
-0.00307385
-0.000557008
-0.00304712
-0.0030233
-0.000602749
2.1984e-05
-0.00076217
5.31808e-05
-0.0018925
7.2295e-05
-0.00266341
7.10588e-05
-0.00313059
4.9963e-05
-0.00337322
1.35477e-05
-0.00346972
-3.29165e-05
-0.00348206
-8.50816e-05
-0.00345191
-0.000139969
-0.00340383
-0.000195788
-0.00335061
-0.000251576
-0.00329807
-0.000306863
-0.00324844
-0.000361459
-0.0032023
-0.000415325
-0.00315964
-0.000468496
-0.00312034
-0.000521025
-0.00308438
-0.00057294
-0.0030518
-0.000624216
-0.00302257
-0.000674776
-0.00299656
-0.00297354
-0.000724541
1.86349e-05
-0.000780805
4.18192e-05
-0.00191568
5.06082e-05
-0.0026722
3.86902e-05
-0.00311867
7.72028e-06
-0.00334225
-3.73292e-05
-0.00342467
-9.12281e-05
-0.00342816
-0.00014988
-0.00339326
-0.000210589
-0.00334312
-0.000271793
-0.00328941
-0.000332675
-0.00323719
-0.000392849
-0.00318827
-0.000452164
-0.00314299
-0.000510601
-0.0031012
-0.000568219
-0.00306272
-0.000625098
-0.0030275
-0.000681294
-0.0029956
-0.000736796
-0.00296707
-0.000791507
-0.00294185
-0.00291972
-0.000845324
1.51205e-05
-0.000795925
3.02014e-05
-0.00193077
2.88008e-05
-0.0026708
6.51907e-06
-0.00309639
-3.39369e-05
-0.0033018
-8.72608e-05
-0.00337135
-0.000148317
-0.0033671
-0.000213276
-0.0033283
-0.000279714
-0.00327669
-0.000346277
-0.00322284
-0.000412278
-0.00317119
-0.000477397
-0.00312315
-0.000541507
-0.00307888
-0.000604598
-0.00303811
-0.000666738
-0.00300058
-0.000728033
-0.00296621
-0.000788575
-0.00293506
-0.000848372
-0.00290727
-0.000907312
-0.00288291
-0.00286179
-0.000965246
1.14726e-05
-0.000807398
1.84184e-05
-0.00193771
7.01269e-06
-0.00265939
-2.52922e-05
-0.00306408
-7.48476e-05
-0.00325224
-0.000136101
-0.00331009
-0.000204055
-0.00329915
-0.000275154
-0.0032572
-0.000347235
-0.0032046
-0.000419137
-0.00315094
-0.000490289
-0.00310004
-0.000560423
-0.00305302
-0.000629427
-0.00300987
-0.000697282
-0.00297025
-0.000764052
-0.00293381
-0.000829862
-0.0029004
-0.000894843
-0.00287008
-0.00095904
-0.00284308
-0.00102233
-0.00281962
-0.00279964
-0.00108447
7.72371e-06
-0.000815122
6.5586e-06
-0.00193655
-1.46239e-05
-0.00263821
-5.6592e-05
-0.00302211
-0.000114861
-0.00319397
-0.000183708
-0.00324125
-0.00025831
-0.00322454
-0.000335386
-0.00318012
-0.000413025
-0.00312697
-0.000490241
-0.00307372
-0.000566571
-0.00302371
-0.000641798
-0.00297779
-0.000715815
-0.00293586
-0.000788584
-0.00289748
-0.000860142
-0.00286226
-0.000930614
-0.00282993
-0.00100017
-0.00280052
-0.0010689
-0.00277434
-0.00113669
-0.00275183
-0.00273319
-0.00120314
3.90641e-06
-0.000819028
-5.29283e-06
-0.00192735
-3.59843e-05
-0.00260752
-8.72383e-05
-0.00297086
-0.000153833
-0.00312738
-0.000229944
-0.00316514
-0.000310945
-0.00314354
-0.00039383
-0.00309724
-0.000476926
-0.00304387
-0.000559414
-0.00299124
-0.000640935
-0.00294219
-0.000721323
-0.0028974
-0.000800484
-0.00285669
-0.000878354
-0.00281961
-0.000954923
-0.00278569
-0.00103028
-0.00275457
-0.00110462
-0.00272618
-0.0011781
-0.00270087
-0.0012506
-0.00267933
-0.00266221
-0.00132158
5.31275e-08
-0.000819081
-1.70543e-05
-0.00191024
-5.69512e-05
-0.00256762
-0.000117098
-0.00291071
-0.000191629
-0.00305285
-0.000274671
-0.00308209
-0.000361816
-0.0030564
-0.000450328
-0.00300873
-0.000538757
-0.00295544
-0.000626444
-0.00290355
-0.000713131
-0.0028555
-0.000798719
-0.00281181
-0.00088314
-0.00277227
-0.000966317
-0.00273644
-0.00104819
-0.00270382
-0.00112877
-0.00267398
-0.00120826
-0.0026467
-0.00128687
-0.00262225
-0.00136453
-0.00260167
-0.00258582
-0.00144092
-3.80434e-06
-0.000815277
-2.86486e-05
-0.0018854
-7.74157e-05
-0.00251885
-0.000146048
-0.00284208
-0.00022812
-0.00297077
-0.000317755
-0.00299246
-0.000410777
-0.00296338
-0.000504708
-0.0029148
-0.00059831
-0.00286184
-0.000691075
-0.00281078
-0.000782853
-0.00276372
-0.000873627
-0.00272104
-0.000963389
-0.00268251
-0.00105208
-0.00264774
-0.00113962
-0.00261628
-0.00122593
-0.00258766
-0.00131117
-0.00256146
-0.00139566
-0.00253776
-0.00147948
-0.00251785
-0.00250187
-0.00156344
-7.63552e-06
-0.000807641
-4.00042e-05
-0.00185303
-9.72792e-05
-0.00246158
-0.000173978
-0.00276538
-0.000263188
-0.00288156
-0.000359071
-0.00289658
-0.00045768
-0.00286477
-0.000556786
-0.00281569
-0.000655347
-0.00276328
-0.000752998
-0.00271313
-0.000849702
-0.00266702
-0.000945551
-0.00262519
-0.00104065
-0.00258741
-0.00113506
-0.00255334
-0.00122873
-0.00252261
-0.0013216
-0.00249479
-0.00141371
-0.00246936
-0.0015054
-0.00244606
-0.00159706
-0.0024262
-0.00240773
-0.0016912
-1.1412e-05
-0.000796229
-5.10569e-05
-0.00181338
-0.000116455
-0.00239618
-0.000200791
-0.00268105
-0.000296735
-0.00278562
-0.000398507
-0.0027948
-0.00050239
-0.00276088
-0.000606384
-0.0027117
-0.000709617
-0.00266004
-0.000811848
-0.0026109
-0.000913141
-0.00256573
-0.0010137
-0.00252463
-0.0011138
-0.00248731
-0.00121373
-0.00245341
-0.00131373
-0.0024226
-0.001414
-0.00239452
-0.00151467
-0.00236869
-0.00161642
-0.00234432
-0.00172148
-0.00232114
-0.0023109
-0.0018183
-1.50948e-05
-0.000781135
-6.17296e-05
-0.00176675
-0.000134847
-0.00232306
-0.000226388
-0.00258951
-0.00032866
-0.00268335
-0.000435962
-0.0026875
-0.000544795
-0.00265205
-0.000653361
-0.00260313
-0.000760928
-0.00255248
-0.000867337
-0.00250449
-0.000972698