1.22 	3.45254e-18 	-6.98323e-18 	-0.0633375 	-0.427646 	-7.5422e-22
1.66 	3.45254e-18 	-6.96118e-18 	0.33146 	0.0544975 	-3.98935e-23
2.1 	3.45254e-18 	-6.93894e-18 	0.696283 	0.528397 	-1.80808e-21
2.54 	3.45254e-18 	-8.30431e-18 	0.451776 	0.722718 	1.82399e-23
2.98 	3.45254e-18 	-8.28171e-18 	0.533566 	0.519673 	4.6482e-22
3.42 	3.45254e-18 	-6.87115e-18 	0.826868 	-0.0549121 	9.14655e-22
3.86 	3.45254e-18 	-6.84819e-18 	0.974529 	-0.425033 	2.35791e-22
4.3 	3.45254e-18 	-6.82504e-18 	0.91002 	-0.644428 	7.86011e-22
4.74 	3.45254e-18 	-5.41391e-18 	0.865137 	-0.599376 	-3.79332e-22
5.18 	3.45254e-18 	-2.61482e-18 	0.972419 	-0.319724 	-2.95255e-22
5.62 	3.45254e-18 	-1.2033e-18 	1.04104 	0.0712551 	1.96523e-22
6.06 	3.45254e-18 	-1.17937e-18 	1.04977 	0.356254 	6.27959e-22
6.5 	3.45254e-18 	-1.15524e-18 	0.991057 	0.532001 	-2.85718e-22
