/*--------------------------------*- C++ -*----------------------------------*\
  =========                 |
  \\      /  F ield         | OpenFOAM: The Open Source CFD Toolbox
   \\    /   O peration     | Website:  https://openfoam.org
    \\  /    A nd           | Version:  6.0
     \\/     M anipulation  |
\*---------------------------------------------------------------------------*/
FoamFile
{
    version     2.0;
    format      ascii;
    class       volVectorField;
    location    "14.2";
    object      U;
}
// * * * * * * * * * * * * * * * * * * * * * * * * * * * * * * * * * * * * * //

dimensions      [0 1 -1 0 0 0 0];

internalField   nonuniform List<vector> 
8000
(
(-0.000577065 0.000603822 -3.77223e-21)
(-0.0031153 0.00149257 2.01641e-20)
(-0.00777721 0.00211882 -2.45287e-20)
(-0.0134931 0.00254981 1.86795e-20)
(-0.0197209 0.00283405 9.09813e-21)
(-0.0261651 0.00300976 -2.73213e-20)
(-0.0326191 0.00310884 -2.41567e-21)
(-0.0389533 0.00315776 -8.58647e-22)
(-0.0451006 0.00317851 -1.41915e-20)
(-0.0510385 0.00318935 -7.69193e-21)
(-0.0567762 0.00320528 5.73306e-21)
(-0.0623453 0.0032385 2.18164e-20)
(-0.0677926 0.00329853 -1.62744e-21)
(-0.0731728 0.00339246 2.3444e-21)
(-0.078546 0.00352501 -2.20007e-20)
(-0.0839799 0.00369848 1.35623e-20)
(-0.0895403 0.00391298 -1.94529e-20)
(-0.0952092 0.00416805 2.9444e-20)
(-0.100875 0.00446369 -3.28402e-23)
(-0.107084 0.00478745 6.39894e-21)
(-0.000672324 0.00190747 1.25267e-20)
(-0.00333573 0.00470602 -6.40235e-20)
(-0.00806004 0.00667237 -4.42274e-20)
(-0.0137929 0.00801862 -3.00389e-20)
(-0.0200016 0.00889901 -3.86486e-20)
(-0.0263963 0.00943518 8.50151e-21)
(-0.0327742 0.00972822 -4.46249e-20)
(-0.0390088 0.00986173 -1.00289e-20)
(-0.0450347 0.00990472 3.16032e-21)
(-0.0508304 0.0099142 3.33663e-20)
(-0.056406 0.00993692 -3.64133e-20)
(-0.0617939 0.0100107 5.06651e-20)
(-0.0670417 0.0101652 -3.79548e-20)
(-0.0722054 0.0104225 -4.50336e-20)
(-0.0773466 0.0107974 -6.211e-20)
(-0.082535 0.0112974 3.96402e-20)
(-0.0878392 0.0119233 -1.2859e-20)
(-0.0932433 0.0126738 -4.68053e-20)
(-0.0986337 0.0135493 4.42621e-20)
(-0.104563 0.0145118 -3.3019e-20)
(-0.00086283 0.00318175 1.22466e-19)
(-0.00377734 0.00785047 6.34352e-20)
(-0.00862797 0.0111292 7.13437e-20)
(-0.0143965 0.0133691 5.93782e-21)
(-0.0205689 0.0148269 3.94356e-20)
(-0.0268666 0.0157057 4.92253e-20)
(-0.0330953 0.0161742 -8.94627e-20)
(-0.0391338 0.016372 -4.73893e-20)
(-0.0449204 0.0164144 -6.17379e-20)
(-0.0504358 0.016397 6.59059e-20)
(-0.0556918 0.0163983 -5.03517e-20)
(-0.0607222 0.0164824 -6.48117e-20)
(-0.0655761 0.0167 -2.36032e-20)
(-0.0703121 0.0170894 2.24281e-20)
(-0.0749944 0.0176771 -6.26699e-21)
(-0.0796972 0.0184773 8.9806e-21)
(-0.0844944 0.0194925 1.04298e-19)
(-0.0893747 0.0207222 -1.45994e-20)
(-0.0942214 0.0221682 -1.06172e-19)
(-0.0995966 0.0237664 1.40536e-19)
(-0.00114493 0.00440896 4.26263e-20)
(-0.00443361 0.0108835 -6.01915e-20)
(-0.00947551 0.0154292 -1.51042e-20)
(-0.0153014 0.0185272 2.82384e-20)
(-0.0214244 0.020532 8.01842e-20)
(-0.0275831 0.0217245 1.75572e-19)
(-0.0335955 0.0223384 1.7158e-19)
(-0.0393488 0.0225676 1.42638e-20)
(-0.0447866 0.0225725 1.05252e-19)
(-0.0498932 0.0224863 1.61134e-19)
(-0.0546823 0.0224198 -1.28806e-19)
(-0.0591896 0.0224639 1.90618e-19)
(-0.0634666 0.0226919 -4.32201e-20)
(-0.0675747 0.0231606 1.08733e-20)
(-0.0715828 0.0239104 4.51655e-20)
(-0.075571 0.0249649 6.00737e-20)
(-0.0796218 0.0263313 -9.44664e-20)
(-0.0837314 0.0280118 -7.89218e-20)
(-0.0877797 0.0300122 -1.39831e-19)
(-0.0923442 0.0322413 2.04221e-19)
(-0.00151357 0.00557432 -2.22669e-20)
(-0.00529521 0.0137685 -2.27968e-19)
(-0.0105942 0.0195194 -6.74351e-20)
(-0.0165024 0.0234273 -1.64334e-19)
(-0.0225682 0.0259376 6.21193e-20)
(-0.0285526 0.0274047 -9.7982e-20)
(-0.0342899 0.028124 3.37041e-20)
(-0.0396789 0.0283406 -2.07576e-19)
(-0.0446702 0.0282581 1.09517e-19)
(-0.0492523 0.0280466 -1.30625e-19)
(-0.0534416 0.0278485 -1.16199e-19)
(-0.0572758 0.0277826 -1.30149e-19)
(-0.0608087 0.0279467 1.18177e-19)
(-0.0641054 0.0284186 -1.06147e-19)
(-0.0672401 0.0292569 1.47838e-19)
(-0.0703011 0.0304984 4.27778e-20)
(-0.0733822 0.032159 1.05943e-19)
(-0.0764909 0.0342475 4.6567e-20)
(-0.0795057 0.036778 -1.84298e-19)
(-0.0830245 0.0396315 3.01055e-19)
(-0.00196282 0.00666661 9.82078e-20)
(-0.00635046 0.016476 7.54152e-21)
(-0.0119724 0.0233558 4.04524e-20)
(-0.017991 0.0280135 1.41143e-19)
(-0.0239967 0.0309784 -2.16034e-20)
(-0.0297783 0.0326728 2.29219e-19)
(-0.035191 0.0334493 1.01753e-19)
(-0.0401475 0.0336007 8.55136e-21)
(-0.0446076 0.033371 2.61705e-19)
(-0.048565 0.032965 8.57798e-20)
(-0.052039 0.0325562 4.06963e-20)
(-0.055069 0.0322919 1.29178e-19)
(-0.0577107 0.0322962 1.18448e-19)
(-0.0600329 0.0326717 2.16339e-19)
(-0.0621157 0.0334993 -1.93374e-19)
(-0.0640569 0.0348353 2.73606e-19)
(-0.0659649 0.0367102 3.71443e-21)
(-0.067863 0.0391458 -3.50042e-19)
(-0.0696319 0.0421711 4.54062e-19)
(-0.0718976 0.0456402 1.88904e-19)
(-0.00248627 0.00767835 -5.78755e-20)
(-0.00758571 0.0189839 -1.05072e-19)
(-0.0135946 0.0269041 -2.18608e-19)
(-0.0197527 0.0322417 -6.47765e-21)
(-0.0256988 0.0356025 3.73101e-20)
(-0.0312547 0.037471 -2.79152e-19)
(-0.0363007 0.0382515 -2.07114e-19)
(-0.040767 0.0382799 -2.96225e-20)
(-0.0446243 0.0378366 -2.62034e-19)
(-0.0478725 0.0371585 -1.8146e-19)
(-0.0505338 0.0364485 -5.28886e-20)
(-0.0526489 0.0358818 -1.70335e-19)
(-0.0542746 0.0356105 -2.75355e-21)
(-0.0554824 0.0357655 -2.26313e-19)
(-0.0563581 0.036456 9.52905e-20)
(-0.0570099 0.037765 -1.08701e-19)
(-0.0575636 0.0397465 8.3396e-20)
(-0.0580635 0.0424448 -1.05976e-19)
(-0.0583994 0.0459138 -3.03312e-19)
(-0.0592346 0.049985 -9.22788e-20)
(-0.00307742 0.00860542 -2.13201e-20)
(-0.00898553 0.0212775 -2.31445e-20)
(-0.0154408 0.0301391 1.83297e-19)
(-0.0217655 0.0360788 -2.98288e-19)
(-0.0276523 0.0397717 4.3761e-20)
(-0.0329617 0.041758 -1.72302e-19)
(-0.0376033 0.0424879 8.14261e-20)
(-0.0415282 0.042335 3.66015e-19)
(-0.0447207 0.0416112 -2.34646e-20)
(-0.0471882 0.0405811 -2.73098e-19)
(-0.0489558 0.0394737 4.96392e-20)
(-0.0500646 0.0384905 9.60647e-21)
(-0.0505712 0.0378123 -5.61223e-20)
(-0.050548 0.037601 5.63367e-21)
(-0.0500854 0.038 4.93149e-19)
(-0.049302 0.0391282 -7.02123e-20)
(-0.048343 0.0410747 -1.37068e-19)
(-0.0472789 0.0439204 -2.46125e-19)
(-0.0460189 0.0477594 2.51066e-19)
(-0.0452781 0.0524099 1.08431e-19)
(-0.00372985 0.00944638 1.0758e-19)
(-0.0105325 0.0233473 -1.40762e-19)
(-0.0174854 0.0330436 1.98993e-19)
(-0.023997 0.0395019 2.00295e-19)
(-0.0298195 0.0434602 1.84628e-19)
(-0.0348576 0.0455085 3.74378e-19)
(-0.0390551 0.0461366 2.42101e-19)
(-0.042388 0.0457497 -5.20246e-19)
(-0.0448569 0.044685 2.66076e-19)
(-0.0464783 0.043229 2.08804e-19)
(-0.0472811 0.0416317 -2.94075e-21)
(-0.0473059 0.0401176 2.33776e-19)
(-0.0466073 0.0388939 1.82312e-19)
(-0.0452564 0.0381551 -9.91716e-20)
(-0.0433456 0.0380838 3.35252e-19)
(-0.0410027 0.0388445 -4.15635e-19)
(-0.0383929 0.040576 1.66427e-19)
(-0.0356186 0.0434145 2.14182e-19)
(-0.0326209 0.0475179 -5.00484e-20)
(-0.0301889 0.0527083 4.30643e-19)
(-0.00443714 0.0102013 2.16266e-19)
(-0.0122068 0.0251879 1.11998e-20)
(-0.0196954 0.035606 -7.76007e-20)
(-0.0264016 0.0424956 -8.19498e-20)
(-0.0321426 0.0466524 -3.79469e-19)
(-0.0368728 0.048711 5.3732e-20)
(-0.0405755 0.0491946 1.52243e-19)
(-0.0432561 0.0485331 -7.32129e-20)
(-0.0449348 0.0470822 6.03912e-20)
(-0.0456397 0.0451434 -1.60275e-20)
(-0.0454046 0.0429805 -7.89077e-20)
(-0.0442699 0.0408346 7.48741e-20)
(-0.0422866 0.0389345 -3.25787e-19)
(-0.0395215 0.0375052 3.12256e-19)
(-0.036066 0.036771 -2.70573e-19)
(-0.0320538 0.0369503 8.35939e-20)
(-0.0276697 0.0382475 1.90257e-19)
(-0.023052 0.040879 -3.96193e-20)
(-0.0181891 0.0450989 -1.31808e-19)
(-0.0139765 0.0507633 -8.95162e-20)
(-0.00519261 0.0108707 -2.69393e-19)
(-0.0139853 0.026795 -1.76833e-20)
(-0.0220294 0.0378172 5.67198e-20)
(-0.0289182 0.0450484 1.45774e-19)
(-0.0345397 0.0493392 -2.05811e-19)
(-0.0389036 0.0513635 -1.79577e-19)
(-0.0420382 0.0516727 4.19133e-19)
(-0.0439826 0.0507151 -2.31597e-19)
(-0.0447812 0.0488577 -1.49388e-19)
(-0.0444771 0.0464087 -2.14339e-19)
(-0.0431113 0.0436374 1.41891e-19)
(-0.040725 0.0407919 -3.86632e-21)
(-0.0373651 0.0381141 -2.64976e-19)
(-0.0330924 0.0358526 -4.33487e-19)
(-0.0279932 0.0342705 3.30235e-19)
(-0.0222032 0.0336441 -2.67605e-19)
(-0.0159245 0.034258 3.79507e-19)
(-0.00933292 0.0364371 -1.06332e-19)
(-0.00247967 0.0405754 2.24027e-19)
(0.00358637 0.0466106 -7.57799e-19)
(-0.00598886 0.0114544 -5.45606e-19)
(-0.0158406 0.0281635 3.57671e-19)
(-0.0244357 0.0396675 4.8643e-20)
(-0.031468 0.0471496 9.40446e-21)
(-0.0369017 0.0515128 -2.2042e-19)
(-0.0408077 0.0534676 3.24122e-19)
(-0.0432639 0.053589 3.5388e-20)
(-0.0443486 0.0523384 -6.64655e-20)
(-0.0441344 0.0500874 -2.1325e-19)
(-0.042684 0.0471433 2.30531e-19)
(-0.0400494 0.043771 5.84397e-19)
(-0.0362757 0.0402148 -1.29132e-19)
(-0.0314076 0.0367169 2.91647e-19)
(-0.0254993 0.0335366 -3.44526e-19)
(-0.0186298 0.0309653 -3.30288e-19)
(-0.0109328 0.0293328 1.98689e-19)
(-0.00262329 0.0290113 3.28394e-19)
(0.00608591 0.030461 -1.0639e-18)
(0.0150689 0.0342705 1.24881e-19)
(0.0230613 0.0405274 1.69358e-19)
(-0.00681726 0.0119505 4.04023e-19)
(-0.0177403 0.0292854 1.32838e-19)
(-0.0268519 0.0411445 6.91915e-19)
(-0.0339532 0.0487847 3.55805e-20)
(-0.0390909 0.0531619 -7.69321e-20)
(-0.0424013 0.0550215 -3.66282e-19)
(-0.0440172 0.0549594 3.11506e-19)
(-0.0440599 0.0534462 5.58737e-19)
(-0.0426352 0.0508538 3.72246e-19)
(-0.03983 0.0474819 2.68643e-19)
(-0.0357127 0.0435829 2.31523e-19)
(-0.0303378 0.0393852 -4.15927e-19)
(-0.0237528 0.0351169 -1.30321e-19)
(-0.0160089 0.0310295 -9.58509e-20)
(-0.00717869 0.0274229 1.02773e-18)
(0.0026079 0.0246635 -3.60262e-21)
(0.0131267 0.0232033 -2.56087e-19)
(0.0241324 0.0236539 -8.08191e-20)
(0.0354215 0.0268578 7.34982e-19)
(0.045439 0.0331426 9.54215e-20)
(-0.00766755 0.0123556 -1.99561e-20)
(-0.019646 0.0301491 -3.82056e-19)
(-0.0292035 0.0422303 -5.68234e-19)
(-0.0362568 0.0499333 -1.58062e-19)
(-0.0409401 0.0542677 8.72702e-20)
(-0.0434598 0.0560141 1.88072e-20)
(-0.0440065 0.0557886 4.98304e-19)
(-0.042748 0.0540699 -6.18019e-19)
(-0.0398271 0.0512278 -2.35062e-19)
(-0.0353597 0.0475516 -4.73646e-19)
(-0.0294372 0.0432759 -4.03381e-19)
(-0.022131 0.0386049 -3.57044e-19)
(-0.0135005 0.033738 8.92564e-20)
(-0.0036029 0.0288988 -1.15826e-19)
(0.00748804 0.0243683 4.9627e-19)
(0.0196424 0.0205169 -2.7219e-19)
(0.0326265 0.0178466 -8.52525e-19)
(0.0461688 0.0171112 -1.71947e-19)
(0.060003 0.0194558 4.2059e-19)
(0.0722064 0.0255525 -3.65517e-19)
(-0.00852761 0.0126642 -6.44586e-20)
(-0.021513 0.0307391 4.67142e-19)
(-0.0314041 0.0429021 -5.95686e-19)
(-0.0382423 0.0505676 1.37708e-19)
(-0.0422545 0.0548015 -2.83509e-19)
(-0.0437197 0.0564212 6.31432e-19)
(-0.0428881 0.0560637 -4.51256e-19)
(-0.039976 0.0542169 5.16239e-19)
(-0.0351652 0.0512505 -4.8939e-19)
(-0.0286049 0.0474448 2.08793e-19)
(-0.0204156 0.0430165 -1.01347e-19)
(-0.0106956 0.0381431 -2.54303e-19)
(0.000471347 0.0329878 -3.14103e-19)
(0.0130061 0.0277297 3.12995e-19)
(0.0268174 0.022602 -2.62027e-19)
(0.0417613 0.0179362 -5.72624e-19)
(0.0575847 0.0142281 5.96128e-19)
(0.0739929 0.0123228 -7.59982e-19)
(0.0906955 0.013681 3.42131e-19)
(0.105354 0.0194121 9.60468e-21)
(-0.00938339 0.0128702 -5.8411e-19)
(-0.0232899 0.0310373 -6.30516e-19)
(-0.0333549 0.0431328 7.26742e-20)
(-0.0397543 0.0506544 -6.07801e-19)
(-0.042812 0.0547266 -5.40256e-20)
(-0.0428811 0.0562058 -4.47025e-19)
(-0.0402719 0.0557526 -1.02533e-19)
(-0.0352484 0.0538673 -2.99619e-19)
(-0.0280323 0.0509238 2.71718e-21)
(-0.0188081 0.0471994 -1.31057e-19)
(-0.00773105 0.0428999 9.29268e-21)
(0.00506381 0.0381822 -3.77602e-19)
(0.0194526 0.0331765 4.1609e-19)
(0.0353131 0.0280133 -5.90193e-19)
(0.0525103 0.0228599 2.09007e-19)
(0.070858 0.0179679 7.83004e-21)
(0.0900576 0.0137537 -3.32395e-19)
(0.109778 0.0110533 8.2412e-19)
(0.129767 0.0115837 -1.96457e-19)
(0.147309 0.016927 -1.27352e-19)
(-0.010219 0.0129669 6.55549e-19)
(-0.0249181 0.0310248 3.5391e-19)
(-0.034944 0.0428944 3.29153e-19)
(-0.0406175 0.0501585 4.9136e-20)
(-0.0423636 0.054003 4.44989e-19)
(-0.0406104 0.0553254 6.41321e-19)
(-0.0357264 0.0548123 5.24988e-19)
(-0.0280217 0.0529805 4.70023e-20)
(-0.0177565 0.0502146 3.84419e-19)
(-0.00515131 0.0467977 5.93917e-19)
(0.00959971 0.0429369 -1.54014e-19)
(0.0263161 0.0387833 2.58522e-19)
(0.0448183 0.0344505 2.08766e-19)
(0.0649167 0.0300343 2.12392e-19)
(0.0863991 0.0256412 1.25489e-18)
(0.108997 0.0214261 -4.70299e-19)
(0.132319 0.0176622 -2.85745e-20)
(0.155952 0.0150379 5.4419e-19)
(0.179742 0.015371 -3.08359e-19)
(0.200798 0.0206511 1.52317e-19)
(-0.0110164 0.0129483 -5.30001e-19)
(-0.026331 0.0306839 3.38882e-20)
(-0.0360446 0.0421615 -4.24048e-19)
(-0.0406344 0.0490499 -5.51765e-20)
(-0.0406314 0.0525975 3.10363e-19)
(-0.0365383 0.0537446 -9.2397e-19)
(-0.0287802 0.0532054 -6.87509e-22)
(-0.0177105 0.0515167 4.29969e-19)
(-0.00362592 0.0490795 4.03912e-19)
(0.0132168 0.0461922 -1.77862e-19)
(0.032582 0.043077 5.8623e-20)
(0.0542361 0.0398989 1.35975e-19)
(0.0779299 0.0367811 -6.44349e-20)
(0.103383 0.0338182 -7.21737e-19)
(0.130269 0.0310934 1.82744e-19)
(0.158184 0.0286957 5.02157e-19)
(0.186578 0.0267483 -7.15199e-19)
(0.214858 0.0256807 3.48556e-19)
(0.242977 0.0272147 9.33175e-20)
(0.268327 0.0335845 4.71312e-19)
(-0.0117556 0.0128093 -7.81653e-20)
(-0.0274523 0.0300004 -3.71199e-19)
(-0.0365116 0.0409162 1.70823e-19)
(-0.0395815 0.0473109 8.11792e-22)
(-0.0373037 0.0504954 -7.44265e-19)
(-0.0302562 0.0514524 1.16162e-19)
(-0.0189194 0.050924 -2.20531e-20)
(-0.0036887 0.0494681 1.50226e-19)
(0.0151032 0.0475051 -6.8763e-19)
(0.0371622 0.0453548 -4.81818e-20)
(0.0622077 0.0432646 -1.61496e-19)
(0.089948 0.0414307 1.43709e-19)
(0.120056 0.0400139 4.84913e-19)
(0.152146 0.0391527 -7.49991e-20)
(0.185749 0.0389767 2.90442e-20)
(0.220271 0.0396091 1.90527e-19)
(0.254895 0.0411474 -4.71755e-20)
(0.288649 0.0438765 3.83146e-19)
(0.32135 0.0494983 -2.23292e-19)
(0.351172 0.0602435 -3.49816e-19)
(-0.0124129 0.0125462 7.25597e-20)
(-0.0281932 0.0289649 1.77466e-20)
(-0.0361782 0.0391521 1.48819e-19)
(-0.0372036 0.0449446 3.64461e-19)
(-0.0320289 0.0477129 2.04514e-19)
(-0.0213099 0.0484808 2.13323e-20)
(-0.0055838 0.0480156 -2.44117e-19)
(0.0147093 0.0468941 6.25815e-20)
(0.0391961 0.045554 3.29122e-19)
(0.0675387 0.0443347 -5.57704e-19)
(0.0994048 0.0435082 4.20816e-19)
(0.134442 0.0433034 -3.17053e-19)
(0.17225 0.0439278 2.68971e-19)
(0.212364 0.0455888 -5.79993e-19)
(0.254219 0.0485188 6.37755e-19)
(0.297107 0.0529925 -6.81922e-19)
(0.340028 0.0593282 -1.77025e-19)
(0.38161 0.0681665 5.54557e-19)
(0.420733 0.0818873 -1.87862e-19)
(0.454047 0.102287 8.25108e-20)
(-0.01296 0.0121556 -5.4878e-20)
(-0.0284493 0.0275739 5.17942e-19)
(-0.0348504 0.0368781 -2.16803e-21)
(-0.0332084 0.0419807 -3.21536e-19)
(-0.0244106 0.0443078 -2.16215e-19)
(-0.00919658 0.04492 3.9614e-19)
(0.0118319 0.044605 -1.56906e-19)
(0.0381788 0.0439518 -1.97659e-20)
(0.0694136 0.0434069 3.27029e-19)
(0.105133 0.0433168 -4.06288e-19)
(0.144931 0.0439595 4.45255e-20)
(0.188374 0.0455705 -5.28113e-19)
(0.234984 0.0483669 2.77991e-19)
(0.284243 0.0525745 -7.95168e-19)
(0.335595 0.0584639 1.26583e-18)
(0.388463 0.0663972 -2.32108e-19)
(0.442284 0.0769343 2.40681e-19)
(0.496768 0.0913605 -6.25376e-19)
(0.552293 0.112759 5.36695e-21)
(0.600601 0.138039 6.99996e-19)
(-0.0133619 0.0116347 -1.66188e-19)
(-0.0280964 0.0258301 1.43544e-19)
(-0.0323033 0.0341197 -5.28872e-19)
(-0.0272636 0.0384803 7.8228e-19)
(-0.0140064 0.0403858 -5.64804e-19)
(0.00663169 0.040928 2.91627e-20)
(0.0339671 0.040907 -6.09163e-19)
(0.0674218 0.0409141 4.3556e-19)
(0.106472 0.04139 -6.22339e-20)
(0.150605 0.0426669 -3.84429e-19)
(0.199282 0.044998 -2.24295e-19)
(0.251927 0.04858 2.37051e-19)
(0.307918 0.0535715 1.56641e-19)
(0.366602 0.0601102 -6.9277e-19)
(0.427326 0.0683292 2.50265e-19)
(0.489488 0.0783688 -3.68283e-19)
(0.552594 0.0903952 4.45187e-20)
(0.616471 0.104778 -3.11127e-19)
(0.681791 0.122662 1.25059e-19)
(0.741562 0.140883 -4.62779e-19)
(-0.0135744 0.0109803 4.73136e-19)
(-0.0269881 0.0237427 -2.86623e-19)
(-0.0282794 0.0309212 2.36167e-19)
(-0.0189977 0.0345376 -2.98161e-19)
(-0.00033479 0.0361031 4.99729e-19)
(0.0267534 0.0367317 -8.7262e-21)
(0.0614687 0.0372259 -6.08635e-20)
(0.103106 0.0381647 -4.51405e-20)
(0.150988 0.0399642 2.77778e-19)
(0.204418 0.0429168 4.72337e-19)
(0.262645 0.0472179 -2.78999e-19)
(0.324856 0.0529851 2.71196e-19)
(0.390187 0.0602726 4.95015e-19)
(0.457745 0.0690819 -3.47125e-19)
(0.526654 0.0793691 -7.03402e-19)
(0.596107 0.0910437 1.28488e-18)
(0.665411 0.103955 -2.29609e-19)
(0.734071 0.117924 -7.42019e-20)
(0.802149 0.133219 7.93014e-19)
(0.864926 0.149444 -1.69665e-19)
(-0.0135429 0.0101893 -7.70048e-19)
(-0.0249538 0.0213287 -5.12595e-19)
(-0.0224897 0.0273465 -1.96775e-19)
(-0.00800709 0.0302807 3.79696e-19)
(0.0171099 0.0316638 -8.57339e-19)
(0.0517485 0.0326203 4.44097e-19)
(0.0949439 0.0339398 5.62947e-20)
(0.145794 0.0361692 5.6946e-20)
(0.203383 0.0396744 -5.81906e-19)
(0.266733 0.0446762 -2.05492e-19)
(0.33478 0.0512764 -3.62155e-19)
(0.40638 0.0594762 3.49679e-19)
(0.48034 0.0691918 9.90009e-20)
(0.55546 0.0802678 1.91135e-20)
(0.630595 0.0924869 4.53709e-19)
(0.704701 0.105575 -4.60126e-19)
(0.776884 0.119194 -1.88916e-20)
(0.846434 0.13296 1.24901e-20)
(0.912961 0.146676 6.36399e-20)
(0.974066 0.162111 3.50557e-19)
(-0.0132015 0.00926015 2.45143e-19)
(-0.0217998 0.0186152 6.3132e-19)
(-0.0146193 0.0234809 5.06613e-19)
(0.00613074 0.025871 -1.74673e-19)
(0.0388309 0.0273166 6.07706e-19)
(0.0821553 0.0289349 -5.11992e-20)
(0.134895 0.0314796 -7.21452e-20)
(0.195853 0.0354372 4.29515e-20)
(0.263768 0.0410876 5.87803e-19)
(0.337268 0.0485403 3.454e-19)
(0.414875 0.057762 1.0089e-19)
(0.495037 0.0686007 6.30192e-21)
(0.576192 0.0808095 -6.67989e-19)
(0.656834 0.0940692 5.80417e-19)
(0.73559 0.10801 9.91103e-20)
(0.811273 0.122226 -1.63721e-19)
(0.88292 0.136292 -7.05834e-19)
(0.949818 0.149787 -5.86231e-20)
(1.01146 0.162252 2.77055e-19)
(1.06743 0.176795 -5.56435e-20)
(-0.0124734 0.00819431 -6.21745e-19)
(-0.0173125 0.0156427 2.60137e-19)
(-0.00433694 0.0194343 -1.27033e-18)
(0.0238374 0.0215041 5.2044e-19)
(0.0652961 0.0233505 -4.15112e-19)
(0.118418 0.0260561 3.06083e-19)
(0.181644 0.0303053 -4.75666e-19)
(0.253362 0.0364824 4.36632e-20)
(0.331836 0.0447342 -2.4536e-20)
(0.415191 0.0550098 1.27968e-19)
(0.501458 0.0670961 1.84676e-19)
(0.58865 0.0806553 -3.48975e-19)
(0.674864 0.0952633 1.84898e-19)
(0.758374 0.110447 1.69486e-19)
(0.837715 0.12572 7.29719e-19)
(0.911731 0.140607 -3.17521e-19)
(0.979596 0.154669 -2.09489e-19)
(1.04082 0.167545 3.51571e-19)
(1.09511 0.178722 1.85569e-19)
(1.14326 0.191833 -3.52072e-19)
(-0.0112715 0.00699882 5.44388e-19)
(-0.0112641 0.0124698 5.24879e-19)
(0.00869164 0.0153452 1.51535e-19)
(0.0455098 0.0174114 6.38215e-19)
(0.0968983 0.0200907 3.13685e-19)
(0.16083 0.0243915 -5.65563e-19)
(0.235263 0.0308804 8.56808e-19)
(0.318026 0.0397834 -4.21682e-19)
(0.406785 0.0510547 4.20999e-19)
(0.499078 0.0644281 5.4462e-19)
(0.592422 0.0794697 -3.11223e-19)
(0.684444 0.0956361 5.91623e-20)
(0.773018 0.112333 3.29102e-19)
(0.85637 0.128965 2.31527e-19)
(0.933151 0.144986 5.31859e-19)
(1.00246 0.159921 -2.13533e-19)
(1.06382 0.173391 -2.6925e-20)
(1.11716 0.185143 3.32724e-19)
(1.16259 0.194781 -7.19005e-20)
(1.20163 0.205886 8.0085e-23)
(-0.00950178 0.00568905 -2.80973e-19)
(-0.00342095 0.00917837 -1.03268e-18)
(0.0247875 0.0113852 2.43252e-19)
(0.0714921 0.0138607 -1.85211e-19)
(0.133915 0.0178934 -4.27745e-19)
(0.209482 0.0243611 -3.05609e-19)
(0.295511 0.0336465 -1.88823e-19)
(0.389129 0.0457459 4.585e-19)
(0.487303 0.0603541 -2.72306e-19)
(0.58696 0.0769376 -2.78978e-19)
(0.685165 0.0948159 -3.52475e-19)
(0.779303 0.113246 -5.81772e-20)
(0.86723 0.131497 -3.97354e-20)
(0.947366 0.148917 -8.12615e-19)
(1.01872 0.164969 3.92726e-19)
(1.08085 0.179257 -5.16705e-19)
(1.13381 0.19153 1.61077e-19)
(1.17803 0.201681 -1.22673e-18)
(1.21415 0.209529 3.70077e-19)
(1.24396 0.218256 4.64966e-19)
(-0.00706579 0.00429128 -7.05894e-20)
(0.00644613 0.00587803 5.03504e-19)
(0.0442396 0.00776238 3.23016e-20)
(0.102047 0.0111563 7.77188e-20)
(0.176467 0.0171381 -1.58034e-19)
(0.264213 0.026379 -2.64511e-21)
(0.361796 0.0389938 -4.08929e-21)
(0.465521 0.054667 -9.54592e-20)
(0.571617 0.0727681 3.38626e-19)
(0.676464 0.0924616 1.30828e-19)
(0.776838 0.112823 5.93697e-19)
(0.87012 0.13295 -1.61775e-19)
(0.954421 0.152047 1.12765e-19)
(1.02861 0.169486 -1.44213e-20)
(1.09228 0.184827 3.11723e-19)
(1.1456 0.197824 1.9015e-19)
(1.18923 0.2084 4.56628e-19)
(1.22411 0.216616 -7.36537e-19)
(1.25132 0.222523 9.24784e-19)
(1.27276 0.228781 -2.92656e-19)
(-0.00386466 0.00284469 -6.55876e-19)
(0.0185505 0.00270944 -2.04916e-19)
(0.0672841 0.00472265 1.60039e-19)
(0.137323 0.00963416 1.00934e-19)
(0.224482 0.0182146 1.03611e-19)
(0.324578 0.0308315 1.04965e-19)
(0.433165 0.0472324 -2.6288e-19)
(0.545661 0.0667059 -1.08617e-19)
(0.657611 0.0882471 3.37463e-20)
(0.765021 0.110715 -3.21849e-19)
(0.864643 0.132986 -1.45409e-19)
(0.954157 0.154076 8.78365e-19)
(1.03221 0.17322 -2.26697e-19)
(1.09837 0.189909 -3.11635e-19)
(1.15292 0.20388 -1.47259e-19)
(1.19673 0.215086 1.02325e-19)
(1.23099 0.223646 1.23952e-19)
(1.25709 0.229786 -5.9364e-19)
(1.27643 0.233753 8.57408e-19)
(1.29086 0.237692 -7.4236e-19)
(0.000196675 0.00140274 -7.40685e-20)
(0.0330768 -0.000154464 2.11935e-20)
(0.0940831 0.00254738 -2.71711e-20)
(0.177333 0.00965315 3.96361e-19)
(0.27767 0.0215055 2.19435e-20)
(0.389838 0.0380509 1.45651e-19)
(0.508334 0.0585633 -3.02776e-19)
(0.627711 0.0818652 -1.10223e-20)
(0.743002 0.106561 4.2052e-19)
(0.850123 0.131247 5.85308e-20)
(0.946134 0.154684 -3.65978e-19)
(1.02933 0.175918 -3.21663e-20)
(1.09915 0.194322 -2.99794e-19)
(1.15598 0.209592 2.98803e-19)
(1.20085 0.221697 4.13774e-19)
(1.23525 0.230807 -4.55688e-20)
(1.26083 0.237229 -5.52446e-20)
(1.27924 0.241325 1.68499e-19)
(1.29205 0.243482 -5.40074e-19)
(1.30098 0.2454 4.76122e-19)
(0.00520493 3.36508e-05 7.45743e-20)
(0.0501674 -0.00250982 -4.80559e-19)
(0.124704 0.00154711 1.28565e-19)
(0.22192 0.011581 -3.99315e-19)
(0.335504 0.0273634 1.37361e-19)
(0.458975 0.0482887 -5.10161e-19)
(0.585754 0.0730588 2.05831e-19)
(0.709676 0.0999908 -6.55818e-20)
(0.825551 0.127331 -2.68883e-21)
(0.929566 0.153502 6.6982e-20)
(1.01945 0.177275 -2.43797e-19)
(1.09438 0.197845 -3.47727e-19)
(1.15473 0.214823 -7.11106e-20)
(1.20174 0.228169 -3.19168e-20)
(1.23713 0.238103 -8.09173e-20)
(1.26286 0.245005 -2.63022e-20)
(1.28086 0.249333 -7.86982e-20)
(1.2929 0.251543 -6.81454e-20)
(1.30055 0.2521 -2.02107e-19)
(1.30537 0.252352 3.20203e-19)
(0.0112335 -0.00118005 1.78982e-19)
(0.0699092 -0.00412585 -1.98828e-19)
(0.1591 0.00205098 4.2806e-19)
(0.270754 0.0157757 -1.84906e-19)
(0.397224 0.0360867 4.94251e-19)
(0.530733 0.0616938 7.16581e-21)
(0.663715 0.0906541 2.483e-19)
(0.789565 0.12079 -6.66355e-20)
(0.903255 0.150077 2.77412e-19)
(1.00164 0.1769 1.99286e-20)
(1.08342 0.200177 6.59458e-19)
(1.14885 0.219368 -4.5494e-19)
(1.19925 0.234388 6.14152e-20)
(1.23665 0.245492 1.16967e-19)
(1.2633 0.253135 6.10226e-19)
(1.28146 0.257871 -2.19177e-19)
(1.29317 0.260261 -4.33473e-20)
(1.30017 0.260806 -2.28972e-19)
(1.30392 0.260005 -2.38994e-20)
(1.30579 0.258932 1.14384e-19)
(0.0183373 -0.0021428 -8.57431e-20)
(0.0923209 -0.00475157 2.47946e-19)
(0.197097 0.00439262 -2.54216e-19)
(0.323315 0.0225641 1.00266e-19)
(0.461864 0.0478963 -1.20194e-19)
(0.603688 0.0782981 4.40851e-19)
(0.74047 0.111156 -6.15348e-20)
(0.865552 0.143869 1.51124e-19)
(0.974507 0.174282 -8.91159e-20)
(1.06522 0.200899 -2.41848e-21)
(1.13759 0.222923 1.0147e-19)
(1.19297 0.240162 -7.8592e-20)
(1.2336 0.252874 2.03723e-19)
(1.2621 0.26159 -1.01594e-19)
(1.28109 0.266968 -4.46105e-19)
(1.29292 0.26968 4.43206e-19)
(1.29961 0.270343 -1.99314e-19)
(1.30277 0.269463 1.59117e-19)
(1.30367 0.267538 2.75335e-19)
(1.30349 0.26543 1.13064e-19)
(0.026548 -0.0027483 2.13441e-19)
(0.117343 -0.0041248 -4.39932e-19)
(0.238387 0.00889356 8.4129e-20)
(0.378911 0.0322206 -6.11087e-20)
(0.528293 0.0629183 -2.4679e-19)
(0.676345 0.0980152 -1.93692e-19)
(0.814362 0.134264 -3.81274e-20)
(0.936108 0.168775 -3.45202e-19)
(1.03818 0.199441 -2.1062e-20)
(1.11977 0.225046 -6.4116e-20)
(1.18207 0.245186 -1.73894e-19)
(1.22748 0.260068 -3.86667e-20)
(1.25898 0.270283 -1.32921e-19)
(1.27961 0.276606 -2.21483e-19)
(1.29214 0.279839 2.26563e-19)
(1.29888 0.280725 3.10435e-20)
(1.3017 0.279886 6.18547e-20)
(1.30201 0.277803 -2.60311e-19)
(1.30089 0.274955 -6.60506e-21)
(1.2993 0.272037 -4.0076e-19)
(0.0358689 -0.00288263 2.33683e-19)
(0.144828 -0.0019831 1.5596e-19)
(0.282523 0.0158456 -2.5176e-19)
(0.436699 0.0449486 3.93133e-19)
(0.595273 0.0811742 -4.24658e-20)
(0.747225 0.12065 1.46933e-19)
(0.883936 0.159604 5.08869e-20)
(1.00008 0.195048 1.80181e-19)
(1.09363 0.225109 -1.411e-19)
(1.16526 0.248998 4.69951e-20)
(1.21741 0.266773 -4.50807e-20)
(1.25339 0.279048 -1.97577e-20)
(1.27672 0.286716 3.76605e-20)
(1.29064 0.290735 -6.93083e-20)
(1.29789 0.292 -2.12447e-20)
(1.30066 0.291267 -6.50516e-20)
(1.30057 0.289134 -1.05631e-19)
(1.29882 0.286036 6.8231e-20)
(1.2963 0.282428 -9.33933e-20)
(1.29378 0.278861 4.03685e-19)
(0.0462717 -0.00242819 -1.16581e-19)
(0.174543 0.00192406 -3.3058e-19)
(0.328934 0.0254936 -4.40279e-20)
(0.495716 0.0608654 -1.20725e-20)
(0.661536 0.10258 -1.48256e-19)
(0.814965 0.145919 -2.435e-19)
(0.948008 0.186765 7.96818e-20)
(1.0567 0.222249 -1.09497e-19)
(1.14066 0.25092 -1.22619e-19)
(1.20205 0.272519 6.82928e-20)
(1.24444 0.2876 -5.15864e-20)
(1.27185 0.297155 -1.04311e-19)
(1.2881 0.302323 -3.45689e-21)
(1.29647 0.304186 7.06466e-20)
(1.29954 0.303671 -7.19765e-20)
(1.29927 0.301517 9.98758e-20)
(1.29705 0.298269 2.69044e-20)
(1.29386 0.294304 6.76311e-20)
(1.29039 0.290055 1.31619e-19)
(1.28726 0.285946 -1.12717e-19)
(0.0576932 -0.00126835 1.11305e-19)
(0.206161 0.00782262 -9.71648e-21)
(0.37694 0.0380202 5.00804e-20)
(0.554931 0.0799952 -6.78866e-20)
(0.725845 0.126957 5.65099e-21)
(0.87838 0.173476 2.35742e-19)
(1.00571 0.215327 -1.54812e-19)
(1.1056 0.249991 6.56004e-20)
(1.17942 0.276593 5.78502e-20)
(1.23075 0.29547 -1.62434e-19)
(1.2641 0.30766 1.52624e-19)
(1.28397 0.314487 1.36518e-21)
(1.29426 0.317265 -1.07471e-19)
(1.29815 0.317142 1.29518e-19)
(1.29799 0.315034 -5.1389e-20)
(1.29547 0.311628 3.92806e-20)
(1.29172 0.307404 -4.3935e-20)
(1.28754 0.302683 -1.76069e-20)
(1.28345 0.297877 -1.53576e-19)
(1.27992 0.293288 4.70699e-20)
(0.0700346 0.000707475 -3.74503e-20)
(0.239278 0.0159016 1.00683e-19)
(0.425776 0.0535338 1.57287e-20)
(0.613291 0.102266 6.59064e-20)
(0.787062 0.15404 3.14817e-20)
(0.936511 0.202936 1.47617e-20)
(1.05647 0.244888 8.36188e-20)
(1.14669 0.277944 -1.01323e-20)
(1.2103 0.301924 3.68736e-20)
(1.25212 0.317779 5.92261e-20)
(1.27736 0.326995 2.85764e-20)
(1.29075 0.331155 2.05158e-20)
(1.29617 0.331689 8.31815e-20)
(1.29653 0.329752 -8.05254e-20)
(1.29393 0.326214 1.72784e-20)
(1.28977 0.321694 -1.6189e-20)
(1.28496 0.316599 2.50262e-20)
(1.28011 0.311198 2.09692e-20)
(1.27563 0.30589 4.37691e-20)
(1.27187 0.300853 1.81413e-21)
(0.0831622 0.00359857 2.22071e-20)
(0.273417 0.026302 2.02856e-20)
(0.474626 0.0720613 -2.81034e-20)
(0.669769 0.127517 1.75644e-20)
(0.84419 0.183504 9.93034e-21)
(0.988638 0.233898 -3.09001e-20)
(1.10002 0.275075 1.01952e-20)
(1.18017 0.305837 1.84933e-21)
(1.23385 0.326768 1.75836e-20)
(1.26694 0.339419 -4.71674e-20)
(1.28509 0.34566 -1.4759e-22)
(1.29308 0.347265 1.30746e-20)
(1.29459 0.34571 -1.04204e-20)
(1.29225 0.342118 1.05406e-20)
(1.28784 0.337289 2.75151e-20)
(1.28252 0.33176 -1.56613e-20)
(1.277 0.325869 4.35829e-21)
(1.27174 0.319838 1.71607e-20)
(1.26703 0.31406 -2.82777e-20)
(1.26314 0.308583 1.35804e-20)
(0.09691 0.00748784 6.17796e-20)
(0.308046 0.0391077 -3.3638e-20)
(0.522652 0.0935439 3.96387e-20)
(0.723407 0.155503 -2.95031e-20)
(0.896402 0.214976 -1.32402e-20)
(1.03428 0.265961 4.00829e-21)
(1.13629 0.305552 -1.2999e-20)
(1.20636 0.333449 4.67525e-20)
(1.25071 0.351025 -3.89451e-20)
(1.27599 0.360388 9.14312e-21)
(1.28809 0.363715 -6.81151e-21)
(1.29167 0.362898 -4.4412e-20)
(1.29012 0.359408 4.3092e-20)
(1.28576 0.354301 1.64185e-20)
(1.28007 0.348288 -1.63282e-20)
(1.27395 0.341829 3.83524e-20)
(1.26798 0.335191 -5.60195e-22)
(1.26249 0.328562 -3.72217e-20)
(1.25768 0.322328 2.75713e-20)
(1.25375 0.316408 8.70865e-21)
(0.111083 0.0124373 -2.16528e-20)
(0.342596 0.0543395 6.27715e-20)
(0.569031 0.11784 7.25868e-20)
(0.773349 0.185912 -3.42747e-20)
(0.943058 0.248052 5.96231e-20)
(1.07316 0.298737 9.44104e-20)
(1.16541 0.336021 -5.21296e-21)
(1.22571 0.360598 -1.62392e-20)
(1.26152 0.374622 8.0156e-20)
(1.27998 0.380687 3.91052e-20)
(1.28704 0.381201 -7.10879e-21)
(1.2871 0.378106 5.83556e-20)
(1.28323 0.372822 -6.26268e-20)
(1.2774 0.366315 9.75562e-20)
(1.27082 0.359204 -1.62752e-20)
(1.26421 0.351869 4.66949e-20)
(1.25799 0.344517 8.43824e-21)
(1.2524 0.337307 3.3434e-20)
(1.24758 0.330623 -3.18145e-20)
(1.24369 0.324247 7.69894e-21)
(0.125462 0.0184837 -3.37024e-20)
(0.376477 0.0719503 7.97746e-20)
(0.612978 0.144727 5.93186e-20)
(0.818862 0.218376 -9.00306e-21)
(0.98369 0.282313 9.25825e-20)
(1.10519 0.331855 -6.92771e-20)
(1.18763 0.366211 -5.45861e-21)
(1.23873 0.387128 6.11372e-20)
(1.26689 0.397494 1.94135e-20)
(1.27954 0.40031 2.72174e-20)
(1.28248 0.398136 -4.02148e-20)
(1.27982 0.392905 1.0499e-19)
(1.27424 0.385953 1.96407e-20)
(1.2674 0.378142 -9.30768e-20)
(1.26026 0.369998 1.36191e-19)
(1.25337 0.361824 -1.60754e-19)
(1.24706 0.353777 -7.38954e-20)
(1.24149 0.345996 1.22457e-20)
(1.23674 0.33886 7.177e-20)
(1.23294 0.332015 -1.35536e-19)
(0.139811 0.0256359 -7.56416e-20)
(0.409106 0.0918257 -1.7857e-19)
(0.653778 0.173915 -1.54555e-19)
(0.859351 0.252481 -2.10472e-19)
(1.018 0.317335 -1.19544e-19)
(1.13041 0.364961 -2.47957e-19)
(1.2033 0.395882 3.15115e-20)
(1.24593 0.412901 -1.31905e-19)
(1.26738 0.41958 -1.45091e-20)