/*--------------------------------*- C++ -*----------------------------------*\
  =========                 |
  \\      /  F ield         | OpenFOAM: The Open Source CFD Toolbox
   \\    /   O peration     | Website:  https://openfoam.org
    \\  /    A nd           | Version:  6.0
     \\/     M anipulation  |
\*---------------------------------------------------------------------------*/
FoamFile
{
    version     2.0;
    format      ascii;
    class       surfaceScalarField;
    location    "1.8";
    object      phi;
}
// * * * * * * * * * * * * * * * * * * * * * * * * * * * * * * * * * * * * * //

dimensions      [0 3 -1 0 0 0 0];

internalField   nonuniform List<scalar> 
15760
(
-3.55098e-05
3.5805e-05
-2.95219e-07
-0.000112329
7.74685e-05
-6.49812e-07
-0.000212172
0.000100688
-8.45026e-07
-0.000323296
0.000112062
-9.37774e-07
-0.000438002
0.000115673
-9.66772e-07
-0.000551079
0.000114033
-9.55063e-07
-0.000658714
0.000108549
-9.14216e-07
-0.000757803
9.99385e-05
-8.49119e-07
-0.00084559
8.85484e-05
-7.61714e-07
-0.000919505
7.45684e-05
-6.53268e-07
-0.000977149
5.81699e-05
-5.25555e-07
-0.00101636
3.95949e-05
-3.8147e-07
-0.00103536
1.92181e-05
-2.25245e-07
-0.00103289
-2.4054e-06
-6.2448e-08
-0.00100848
-2.45063e-05
1.0009e-07
-0.000962641
-4.60947e-05
2.54497e-07
-0.000897032
-6.60017e-05
3.92377e-07
-0.000814577
-8.29607e-05
5.06244e-07
-0.00071945
-9.57164e-05
5.88709e-07
-0.000103284
6.35639e-07
-0.000616801
-3.38434e-05
6.96484e-05
-0.000107588
0.000151213
-0.000203865
0.000196965
-0.000311326
0.000219523
-0.000422421
0.000226768
-0.000531988
0.000223599
-0.000636241
0.000212802
-0.000732131
0.000195828
-0.000816976
0.000173393
-0.000888308
0.000145901
-0.000943836
0.000113698
-0.000981495
7.72535e-05
-0.000999547
3.72707e-05
-0.000996739
-5.21393e-06
-0.000972486
-4.87587e-05
-0.000927096
-9.14848e-05
-0.000861974
-0.000131124
-0.000779792
-0.000165143
-0.000684575
-0.000190934
-0.000206315
-0.000581544
-3.06427e-05
0.000100291
-9.84316e-05
0.000219002
-0.000187754
0.000286287
-0.000288039
0.000319808
-0.000392036
0.000330764
-0.000494679
0.000326243
-0.000592244
0.000310368
-0.000681766
0.00028535
-0.000760703
0.00025233
-0.000826766
0.000211964
-0.000877863
0.000164795
-0.000912108
0.000111498
-0.000927879
5.30419e-05
-0.00092392
-9.17265e-06
-0.000899486
-7.31928e-05
-0.000854542
-0.000136429
-0.000790013
-0.000195652
-0.000708067
-0.000247089
-0.000612388
-0.000286613
-0.000310433
-0.00050827
-2.61526e-05
0.000126444
-8.54658e-05
0.000278315
-0.000164788
0.000365609
-0.000254676
0.000409696
-0.00034833
0.000424418
-0.000440845
0.000418758
-0.000528576
0.000398098
-0.000608664
0.000365438
-0.000678737
0.000322402
-0.000736729
0.000269956
-0.000780804
0.000208871
-0.000809321
0.000140015
-0.00082084
6.45609e-05
-0.000814158
-1.5855e-05
-0.000788386
-9.8965e-05
-0.000743104
-0.000181712
-0.000678621
-0.000260135
-0.000596376
-0.000329334
-0.000499452
-0.000383537
-0.000416783
-0.000393103
-2.07125e-05
0.000147156
-6.95494e-05
0.000327152
-0.000136331
0.00043239
-0.000213038
0.000486404
-0.000293486
0.000504866
-0.000372998
0.00049827
-0.000448032
0.000473133
-0.000515843
0.000433249
-0.000574225
0.000380784
-0.000621345
0.000317076
-0.000655636
0.000243162
-0.000675735
0.000160115
-0.000680441
6.92664e-05
-0.000668682
-2.76134e-05
-0.000639524
-0.000128124
-0.000592234
-0.000229001
-0.000526506
-0.000325863
-0.000442903
-0.000412937
-0.000343629
-0.000482811
-0.000526783
-0.000233629
-1.47256e-05
0.000161882
-5.17305e-05
0.000364157
-0.000104081
0.000484741
-0.000165412
0.000547735
-0.000230306
0.00056976
-0.000294405
0.000562369
-0.000354307
0.000533035
-0.000407377
0.000486319
-0.00045156
0.000424967
-0.000485227
0.000350743
-0.000507061
0.000264996
-0.000515971
0.000169025
-0.000511016
6.43112e-05
-0.000491333
-4.72968e-05
-0.000456068
-0.000163388
-0.000404353
-0.000280716
-0.000335411
-0.000394804
-0.000248953
-0.000499395
-0.000146077
-0.000585686
-0.000641819
-3.10412e-05
-8.62073e-06
0.000170502
-3.31651e-05
0.000388702
-6.99637e-05
0.000521539
-0.000114438
0.000592209
-0.000162082
0.000617404
-0.000208957
0.000609245
-0.000251854
0.000575931
-0.00028826
0.000522725
-0.00031625
0.000452957
-0.000334358
0.000368852
-0.000341471
0.000272109
-0.000336726
0.000164279
-0.000319425
4.70104e-05
-0.000288944
-7.77778e-05
-0.000244623
-0.000207709
-0.000185659
-0.00033968
-0.000111075
-0.000469389
-1.99339e-05
-0.000590536
8.78033e-05
-0.000693424
-0.000762989
0.000208974
-2.81148e-06
0.000173314
-1.50216e-05
0.000400912
-3.59907e-05
0.000542508
-6.29465e-05
0.000619164
-9.24046e-05
0.000646863
-0.000120955
0.000637795
-0.000145653
0.000600629
-0.000164136
0.000541208
-0.000174599
0.000463419
-0.000175704
0.000369957
-0.000166482
0.000262887
-0.000146239
0.000144036
-0.000114468
1.52391e-05
-7.07611e-05
-0.000121485
-1.46995e-05
-0.000263771
5.42922e-05
-0.000408671
0.0001371
-0.000552197
0.000234936
-0.000688372
0.000348769
-0.000807257
-0.000891023
0.000476804
2.34192e-06
0.000170972
1.62028e-06
0.000401633
-4.0994e-06
0.000548228
-1.37492e-05
0.000628814
-2.492e-05
0.000658033
-3.48298e-05
0.000647705
-4.08804e-05
0.00060668
-4.0906e-05
0.000541234
-3.32281e-05
0.000455741
-1.66109e-05
0.00035334
9.81764e-06
0.000236458
4.66495e-05
0.000107204
9.42696e-05
-3.2381e-05
0.000152924
-0.00018014
0.000222805
-0.000333651
0.000304179
-0.000490046
0.000397606
-0.000645624
0.000504159
-0.000794925
0.000625296
-0.000928394
-0.00102634
0.000760617
6.56385e-06
0.000164408
1.58644e-05
0.000392333
2.40132e-05
0.000540079
3.0596e-05
0.000622231
3.69638e-05
0.000651666
4.52049e-05
0.000639464
5.7493e-05
0.000594392
7.57446e-05
0.000522982
0.000101493
0.000429993
0.000135886
0.000318947
0.000179737
0.000192607
0.00023359
5.33513e-05
0.000297768
-9.6559e-05
0.000372413
-0.000254784
0.000457523
-0.000418761
0.000553042
-0.000585565
0.000659055
-0.000751637
0.000776147
-0.000912017
0.000905724
-0.00105797
-0.00116915
0.00104853
9.68274e-06
0.000154725
2.70744e-05
0.000374941
4.70449e-05
0.000520109
6.80194e-05
0.000601257
9.0389e-05
0.000629296
0.000115534
0.000614319
0.000145155
0.000564772
0.000180874
0.000487263
0.000224061
0.000386805
0.000275786
0.000267222
0.000336831
0.000131562
0.000407727
-1.75445e-05
0.000488768
-0.0001776
0.000580013
-0.000346029
0.000681277
-0.000520025
0.00079216
-0.000696449
0.000912199
-0.000871675
0.00104125
-0.00104107
0.00118018
-0.0011969
-0.00131938
0.00133041
1.16381e-05
0.000143087
3.49228e-05
0.000351656
6.42093e-05
0.000490822
9.71499e-05
0.000568316
0.000133351
0.000593095
0.000173537
0.000574133
0.000218928
0.000519381
0.00027084
0.000435351
0.000330474
0.000327171
0.000398829
0.000198867
0.000476672
5.37184e-05
0.000564528
-0.0001054
0.000662648
-0.00027572
0.000770968
-0.000454349
0.000889059
-0.000638116
0.00101611
-0.000823503
0.00115105
-0.00100661
0.00129289
-0.00118291
0.00144159
-0.0013456
-0.00147658
0.00159878
1.24755e-05
0.000130612
3.94071e-05
0.000324725
7.53068e-05
0.000454922
0.000117467
0.000526156
0.000164947
0.000545615
0.00021793
0.000521149
0.000277211
0.0004601
0.000343822
0.00036874
0.00041881
0.000252183
0.000503111
0.000114566
0.000597467
-4.06377e-05
0.000702356
-0.000210288
0.000817904
-0.000391268
0.000943802
-0.000580247
0.00107923
-0.000773544
0.00122284
-0.000967116
0.00137287
-0.00115664
0.00152745
-0.00133749
0.00168554
-0.00150369
-0.00163956
0.00184852
1.23331e-05
0.000118279
4.08339e-05
0.000296224
8.07358e-05
0.000415021
0.000129369
0.000477522
0.000185516
0.000489469
0.000248996
0.000457669
0.000320281
0.000388814
0.000400183
0.000288838
0.000489622
0.000162744
0.000589458
1.47295e-05
0.000700352
-0.000151532
0.000822619
-0.000332555
0.00095609
-0.00052474
0.0011
-0.000724158
0.00125293
-0.000926473
0.00141283
-0.00112701
0.00157717
-0.00132098
0.00174329
-0.00150361
0.00190923
-0.00166963
-0.00180624
0.00207591
1.14222e-05
0.000106857
3.97752e-05
0.000267871
8.14391e-05
0.000373357
0.000134131
0.000424831
0.000196634
0.000426965
0.000268612
0.000385691
0.000350357
0.00030707
0.000442535
0.00019666
0.000545954
5.93257e-05
0.000661343
-0.000100659
0.000789141
-0.00027933
0.000929293
-0.000472707
0.00108108
-0.000676523
0.001243
-0.000886086
0.00141283
-0.0010963
0.00158767
-0.00130185
0.00176425
-0.00149756
0.00193929
-0.00167865
0.00211023
-0.00184057
-0.00197351
0.0022775
1.00051e-05
9.68514e-05
3.7001e-05
0.000240875
7.87904e-05
0.000331567
0.000133753
0.000369869
0.00020093
0.000359787
0.000280036
0.000306585
0.000371323
0.000215783
0.000475372
9.26116e-05
0.000592839
-5.81422e-05
0.000724185
-0.000232005
0.000869397
-0.000424541
0.00102775
-0.000631061
0.00119767
-0.000846437
0.00137667
-0.00106509
0.00156153
-0.00128116
0.00174854
-0.00148885
0.0019338
-0.00168283
0.00211374
-0.00185858
0.00228562
-0.00201245
-0.00213748
0.00244959
8.36952e-06
8.84819e-05
3.33928e-05
0.000215852
7.4424e-05
0.000290536
0.000130696
0.000313597
0.000201713
0.00028877
0.000287409
0.00022089
0.000388092
0.0001151
0.000504252
-2.35478e-05
0.00063627
-0.000190161
0.000784101
-0.000379836
0.000946966
-0.000587406
0.00112315
-0.000807241
0.00130991
-0.00103321
0.00150366
-0.00125884
0.00170017
-0.00147768
0.00189505
-0.00168373
0.00208412
-0.0018719
0.00226385
-0.00203832
0.00243186
-0.00218045
-0.0022939
0.00258828
6.7989e-06
8.1683e-05
2.98402e-05
0.000192811
7.0025e-05
0.000250351
0.000127537
0.000256084
0.00020247
0.000213837
0.000295068
0.000128292
0.000405706
4.46189e-06
0.000534675
-0.000152517
0.000681861
-0.000337346
0.000846398
-0.000544374
0.00102641
-0.000767417
0.00121889
-0.000999719
0.00141981
-0.00123412
0.00162442
-0.00146345
0.00182771
-0.00168097
0.00202493
-0.00188095
0.00221203
-0.00205899
0.00238599
-0.00221229
0.00254514
-0.0023396
-0.0024387
0.00268993
5.54106e-06
7.6142e-05
2.71334e-05
0.000171218
6.71052e-05
0.000210379
0.000126594
0.000196596
0.000206308
0.000134123
0.000306792
2.78077e-05
0.000428383
-0.000117129
0.000570963
-0.000295097
0.000733621
-0.000500004
0.00091435
-0.000725102
0.00110989
-0.000962956
0.0013158
-0.00120563
0.00152679
-0.00144511
0.00173716
-0.00167382
0.00194145
-0.00188526
0.0021349
-0.0020744
0.00231394
-0.00223803
0.00247647
-0.00237482
0.00262189
-0.00248502
-0.00256823
0.00275142
4.77943e-06
7.13625e-05
2.5868e-05
0.00015013
6.68094e-05
0.000169438
0.000129602
0.000133803
0.000215492
4.8233e-05
0.000325193
-8.18938e-05
0.000458794
-0.00025073
0.00061548
-0.000451783
0.000793226
-0.00067775
0.00098861
-0.000920486
0.00119686
-0.00117121
0.00141216
-0.00142093
0.00162819
-0.00166113
0.00183873
-0.00188436
0.00203827
-0.00208481
0.00222248
-0.00225861
0.00238837
-0.00240393
0.00253438
-0.00252082
0.00266013
-0.00261076
-0.00267834
0.00277024
4.6137e-06
6.67488e-05
2.63852e-05
0.000128358
6.97956e-05
0.000126028
0.000137527
6.60718e-05
0.000231183
-4.54228e-05
0.000351417
-0.000202128
0.000497777
-0.00039709
0.000668432
-0.000622437
0.000859968
-0.000869287
0.00106741
-0.00112793
0.00128452
-0.00138832
0.00150438
-0.00164079
0.00172007
-0.00187682
0.00192538
-0.00208968
0.00211535
-0.00227478
0.00228653
-0.00242979
0.002437
-0.0025544
0.00256607
-0.0026499
0.00267399
-0.00271868
-0.00276753
0.00276318
5.06178e-06
6.1687e-05
2.87697e-05
0.00010465
7.62264e-05
7.8571e-05
0.000150552
-8.25346e-06
0.000253445
-0.000148316
0.000385196
-0.00033388
0.000544483
-0.000556377
0.000728166
-0.00080612
0.00093127
-0.00107239
0.00114728
-0.00134393
0.00136872
-0.00160977
0.001588
-0.00186006
0.00179814
-0.00208696
0.00199349
-0.00228502
0.00217008
-0.00245137
0.00232577
-0.00258547
0.00246008
-0.00268871
0.00257399
-0.00276381
0.00266973
-0.00281442
-0.00284695
0.00274915
6.06943e-06
5.56176e-05
3.28855e-05
7.78342e-05
8.58451e-05
2.56114e-05
0.000168213
-9.06211e-05
0.000281467
-0.000261571
0.000425192
-0.000477605
0.000596875
-0.00072806
0.000791842
-0.00100109
0.00100351
-0.00128406
0.001224
-0.00156442
0.00144501
-0.00183078
0.00165875
-0.00207381
0.00185876
-0.00228697
0.00204037
-0.00246663
0.0022009
-0.00261191
0.00233956
-0.00272413
0.00245708
-0.00280623
0.00255535
-0.00286207
0.00263688
-0.00289595
-0.00291408
0.00270401
7.54131e-06
4.80763e-05
3.84595e-05
4.6916e-05
9.81278e-05
-3.40568e-05
0.000189636
-0.000182129
0.000313896
-0.000385831
0.00046944
-0.000633148
0.000652282
-0.000910902
0.000856092
-0.0012049
0.00107278
-0.00150074
0.00129342
-0.00178507
0.00150938
-0.00204673
0.00171323
-0.00227766
0.00189946
-0.0024732
0.00206473
-0.0026319
0.00220777
-0.00275495
0.0023291
-0.00284546
0.00243053
-0.00290766
0.00251466
-0.00294621
0.00258452
-0.0029658
-0.00297225
0.00264269
9.36889e-06
3.87074e-05
4.51634e-05
1.11215e-05
0.000112434
-0.000101328
0.000213768
-0.000283463
0.000349154
-0.000521217
0.000515747
-0.000799741
0.000707881
-0.00110304
0.000917563
-0.00141458
0.00113543
-0.00171861
0.00135198
-0.00200162
0.00155876
-0.00225351
0.00174921
-0.00246812
0.00191913
-0.00264312
0.00206664
-0.00277941
0.00219186
-0.00288017
0.00229642
-0.00295002
0.0023829
-0.00299413
0.00245432
-0.00301764
0.00251382
-0.0030253
-0.00302229
0.00256386
1.1453e-05
2.72544e-05
5.26786e-05
-3.01041e-05
0.000128126
-0.000176776
0.000239547
-0.000394883
0.000385664
-0.000667334
0.000561969
-0.000976046
0.000761006
-0.00130207
0.000973252
-0.00162682
0.00118845
-0.00193381
0.00139702
-0.0022102
0.00159122
-0.00244771
0.00176576
-0.00264266
0.00191795
-0.0027953
0.00204736
-0.00290881
0.00215533
-0.00298815
0.00224436
-0.00303905
0.00231752
-0.00306729
0.00237802
-0.00307813
0.00242889
-0.00307618
-0.00306585
0.00247245
1.37152e-05
1.35392e-05
6.07314e-05
-7.71203e-05
0.000144629
-0.000260673
0.000265995
-0.00051625
0.000421962
-0.000823301
0.000606149
-0.00116023
0.000809314
-0.00150524
0.00102068
-0.00183819
0.00122956
-0.00214269
0.00142685
-0.00240749
0.00160595
-0.0026268
0.00176308
-0.00279979
0.00189711
-0.00292933
0.00200894
-0.00302064
0.00210088
-0.00308009
0.002176
-0.00311417
0.00223759
-0.00312888
0.00228882
-0.00312936
0.00233246
-0.00311982
-0.00310396
0.00237057
1.60989e-05
-2.55964e-06
6.90984e-05
-0.00013012
0.000161442
-0.000353017
0.000292235
-0.000647042
0.000456734
-0.000987801
0.00064657
-0.00135007
0.00085086
-0.00170953
0.00105797
-0.0020453
0.00125731
-0.00234204
0.00144074
-0.00259091
0.00160311
-0.00278918
0.00174228
-0.00293896
0.00185855
-0.00304559
0.00195393
-0.00311602
0.00203143
-0.00315759
0.00209441
-0.00317716
0.00214617
-0.00318064
0.00218965
-0.00317284
0.00222734
-0.00315751
-0.00313759
0.00226097
1.85627e-05
-2.11223e-05
7.7594e-05
-0.000189151
0.000178128
-0.000453551
0.000317479
-0.000786393
0.000488814
-0.00115914
0.000681776
-0.00154303
0.000884129
-0.00191188
0.00108386
-0.00224503
0.00127102
-0.0025292
0.00143879
-0.00275868
0.00158367
-0.00293406
0.00170509
-0.00306038
0.0018046
-0.0031451
0.00188504
-0.00319647
0.00194983
-0.00322238
0.0020024
-0.00322973
0.00204587
-0.00322411
0.0020829
-0.00320987
0.00211558
-0.00319019
-0.00316739
0.00214538
2.10728e-05
-4.21952e-05
8.60517e-05
-0.00025413
0.000194279
-0.000561778
0.000341006
-0.00093312
0.000517178
-0.00133531
0.000710591
-0.00173644
0.000908057
-0.00210935
0.00109772
-0.00243469
0.00127071
-0.00270219
0.00142179
-0.00290976
0.00154915
-0.00306142
0.00165362
-0.00316485
0.00173774
-0.00322922
0.0018049
-0.00326363
0.00185869
-0.00327616
0.00190241
-0.00327345
0.00193891
-0.00326062
0.00197049
-0.00324145
0.00199891
-0.00321861
-0.00319383
0.00202535
2.35955e-05
-6.57907e-05
9.43085e-05
-0.000324843
0.000209508
-0.000676978
0.000362157
-0.00108577
0.000540959
-0.00151411
0.000732134
-0.00192762
0.00092203
-0.00229924
0.00109945
-0.00261211
0.00125696
-0.0028597
0.00139102
-0.00304383
0.0015014
-0.0031718
0.0015901
-0.00325355
0.00166038
-0.0032995
0.00171591
-0.00331917
0.00176024
-0.00332049
0.00179645
-0.00330965
0.00182704
-0.0032912
0.00185394
-0.00326835
0.00187859
-0.00324326
-0.00321716
0.00190193
2.60933e-05
-9.18839e-05
0.000102197
-0.000400947
0.00022344
-0.000798221
0.000380339
-0.00124267
0.000559461
-0.00169323
0.000745836
-0.00211399
0.000925861
-0.00247927
0.00108944
-0.00277569
0.00123078
-0.00300104
0.00134805
-0.0031611
0.00144238
-0.00326613
0.0015167
-0.00332787
0.00157471
-0.00335751
0.00162015
-0.00336461
0.00165638
-0.00335672
0.00168615
-0.00333943
0.00171162
-0.00331668
0.00173439
-0.00329112
0.00175559
-0.00326446
-0.00323754
0.00177597
2.85236e-05
-0.000120408
0.000109547
-0.000481971
0.00023572
-0.000924393
0.000395048
-0.00140199
0.000572186
-0.00187037
0.000751435
-0.00229324
0.000919742
-0.00264757
0.00106844
-0.00292438
0.00119347
-0.00312607
0.00129459
-0.00326222
0.00137406
-0.0033456
0.00143545
-0.00338926
0.00148267
-0.00340472
0.00151936
-0.0034013
0.00154859
-0.00338594
0.00157277
-0.00336361
0.0015937
-0.00333761
0.00161269
-0.00331011
0.00163061
-0.00328238
-0.00325499
0.00164806
3.08398e-05
-0.000151247
0.000116187
-0.000567318
0.000246026
-0.00105423
0.000405886
-0.00156185
0.00057884
-0.00204333
0.00074896
-0.00246336
0.000904174
-0.00280279
0.00103746
-0.00305767
0.00114648
-0.0032351
0.00123237
-0.0033481
0.00129827
-0.0034115
0.00134813
-0.00343912
0.00138589
-0.00344248
0.00141495
-0.00343036
0.00143806
-0.00340905
0.00145727
-0.00338282
0.00147406
-0.00335441
0.00148947
-0.00332551
0.00150419
-0.0032971
-0.00326948
0.00151868
3.29932e-05
-0.00018424
0.000121956
-0.00065628
0.000254084
-0.00118636
0.000412576
-0.00172035
0.000579334
-0.00221008
0.000738687
-0.00262272
0.000879891
-0.00294399
0.000997669
-0.00317545
0.00109129
-0.00332871
0.00116302
-0.00341983
0.00121663
-0.00346511
0.00125627
-0.00347876
0.0012857
-0.00347191
0.00130805
-0.00345271
0.0013257
-0.0034267
0.00134038
-0.00339749
0.00135328
-0.0033673
0.00136522
-0.00333745
0.00137673
-0.00330862
-0.00328094
0.00138819
3.49356e-05
-0.000219176
0.000126706
-0.000748051
0.000259684
-0.00131934
0.000414972
-0.00187564
0.000573764
-0.00236888
0.000721094
-0.00277005
0.000847783
-0.00307068
0.000950293
-0.00327796
0.00102932
-0.00340774
0.00108803
-0.00347854
0.00113059
-0.00350767
0.00116112
-0.00350929
0.00118318
-0.00349397
0.00119953
-0.00346906
0.00121222
-0.00343939
0.00122265
-0.00340792
0.00123179
-0.00337645
0.00124029
-0.00334595
0.00124855
-0.00331688
-0.00328926
0.00125687
3.66211e-05
-0.000255797
0.000130316
-0.000841746
0.00026268
-0.0014517
0.000413053
-0.00202601
0.00056239
-0.00251821
0.000696803
-0.00290446
0.000808818
-0.0031827
0.000896551
-0.00336569
0.000961906
-0.00347309
0.00100872
-0.00352536
0.00104133
-0.00354029
0.00106374
-0.0035317
0.00107917
-0.00350941
0.00109006
-0.00347996
0.00109812
-0.00344744
0.00110449
-0.00341429
0.00110993
-0.0033819
0.00111496
-0.00335097
0.00111989
-0.00332181
-0.00329433
0.00112495
3.80087e-05
-0.000293806
0.000132689
-0.000936426
0.000263002
-0.00158202
0.000406912
-0.00216992
0.000545593
-0.00265689
0.000666529
-0.0030254
0.000763989
-0.00328016
0.0008376
-0.0034393
0.000890249
-0.00352574
0.000926213
-0.00356132
0.000949854
-0.00356393
0.000964928
-0.00354677
0.000974336
-0.00351881
0.000980156
-0.00348578
0.000983801
-0.00345108
0.000986202
-0.00341669
0.000987958
-0.00338365
0.000989459
-0.00335247
0.000990957
-0.00332331
-0.00329602
0.000992646
3.90632e-05
-0.000332869
0.000133761
-0.00103112
0.000260645
-0.0017089
0.000396739
-0.00230601
0.000523849
-0.002784
0.000631029
-0.00313258
0.000714262
-0.00336339
0.000774501
-0.00349954
0.000815395
-0.00356663
0.000841464
-0.00358739
0.000856963
-0.00357943
0.000865349
-0.00355516
0.000869174
-0.00352264
0.000870197
-0.0034868
0.000869571
-0.00345046
0.000868038
-0.00341516
0.000866069
-0.00338168
0.00086397
-0.00335037
0.000861937
-0.00332127
-0.00329421
0.000860132
3.97566e-05
-0.000372626
0.000133498
-0.00112487
0.000255669
-0.00183107
0.000382801
-0.00243314
0.000497687
-0.00289889
0.000591069
-0.00322596
0.000660548
-0.00343287
0.000708206
-0.0035472
0.00073824
-0.00359667
0.000755256
-0.0036044
0.000763302
-0.00358747
0.000765505
-0.00355736
0.000764077
-0.00352121
0.000760483
-0.0034832
0.000755657
-0.00344563
0.000750184
-0.00340969
0.000744435
-0.00337593
0.00073865
-0.00334459
0.000732985
-0.00331561
-0.0032888
0.000727573
4.00744e-05
-0.0004127
0.000131908
-0.0012167
0.000248202
-0.00194736
0.000365437
-0.00255038
0.000467682
-0.00300113
0.000547408
-0.00330568
0.000603701
-0.00348916
0.000639564
-0.00358306
0.000659559
-0.00361666
0.000668244
-0.00361309
0.000669398
-0.00358863
0.000665805
-0.00355377
0.000659355
-0.00351476
0.000651256
-0.0034751
0.000642254
-0.00343663
0.00063281
-0.00340024
0.000623213
-0.00336634
0.000613654
-0.00333503
0.000604256
-0.00330621
-0.00327968
0.000595134
3.99945e-05
-0.000452695
0.000128995
-0.0013057
0.000238372
-0.00205674
0.000344973
-0.00265698
0.000434354
-0.00309052
0.000500703
-0.00337203
0.000544424
-0.00353288
0.000569249
-0.00360789
0.000579938
-0.00362735
0.000580904
-0.00361406
0.000575614
-0.00358334
0.000566517
-0.00354467
0.000555205
-0.00350345
0.000542663
-0.00346256
0.000529482
-0.00342345
0.00051602
-0.00338678
0.000502505
-0.00335282
0.000489088
-0.00332161
0.000475869
-0.00329299
-0.00326675
0.000462944
3.95171e-05
-0.000492212
0.000124817
-0.001391
0.00022638
-0.0021583
0.000321796
-0.00275239
0.000398261
-0.00316698
0.000451608
-0.00342538
0.000483391
-0.00356467
0.000497883
-0.00362238
0.000499909
-0.00362938
0.000493661
-0.00360781
0.00048228
-0.00357196
0.000467889
-0.00353028
0.000451819
-0.00348738
0.000434861
-0.0034456
0.000417476
-0.00340606
0.000399943
-0.00336925
0.00038244
-0.00333532
0.000365087
-0.00330426
0.000347967
-0.00327587
-0.00324994
0.00033116
3.86447e-05
-0.000530856
0.000119441
-0.0014718
0.000212433
-0.0022513
0.000296283
-0.00283624
0.000359913
-0.00323061
0.000400699
-0.00346617
0.000421167
-0.00358513
0.00042597
-0.00362718
0.000419885
-0.0036233
0.000406836
-0.00359476
0.000389634
-0.00355476
0.000370101
-0.00351075
0.000349335
-0.00346661
0.000327962
-0.00342423
0.00030634
-0.00338444
0.000284681
-0.00334759
0.000263123
-0.00331376
0.000241765
-0.0032829
0.000220675
-0.00325478
-0.00322919
0.00019992
3.73863e-05
-0.000568243
0.000112952
-0.00154736
0.000196753
-0.0023351
0.000268801
-0.00290829
0.00031978
-0.00328159
0.000348483
-0.00349487
0.000358235
-0.00359489
0.000353925
-0.00362287
0.000340199
-0.00360957
0.000320683
-0.00357524
0.000297865
-0.00353194
0.000273292
-0.00348617
0.000247861
-0.00344118
0.000222061
-0.00339843
0.000196163
-0.00335854
0.000170325
-0.00332175
0.000144654
-0.00328809
0.00011923
-0.00325748
9.41111e-05
-0.00322966
-0.00320444
6.93575e-05
3.57568e-05
-0.000603999
0.000105444
-0.00161705
0.000179563
-0.00240922
0.000239701
-0.00296843
0.000278289
-0.00332018
0.000295401
-0.00351198
0.000295001
-0.00359448
0.000282089
-0.00360996
0.000261118
-0.0035886
0.000235399
-0.00354952
0.000207115
-0.00350365
0.000177569
-0.00345663
0.000147485
-0.0034111
0.000117237
-0.00336819
8.70234e-05
-0.00332833
5.69572e-05
-0.00329168
2.7121e-05
-0.00325826
-2.42024e-06
-0.00322794
-3.16134e-05
-0.00320047
-0.00317564
-6.04061e-05
3.37755e-05
-0.000637775
9.70181e-05
-0.00168029
0.000161086
-0.00247328
0.000209309
-0.00301665
0.000235824
-0.00334669
0.00024184
-0.003518
0.000231808
-0.00358445
0.000210743
-0.00358889
0.000182854
-0.00356071
0.00015114
-0.00351781
0.000117498
-0.00347001
8.30193e-05
-0.00342215
4.82782e-05
-0.00337636
1.35564e-05
-0.00333346
-2.10109e-05
-0.00329376
-5.53476e-05
-0.00325735
-8.93938e-05
-0.00322421
-0.000123095
-0.00319423
-0.0001564
-0.00316716
-0.00314278
-0.00018926
3.14659e-05
-0.000669241
8.7782e-05
-0.00173661
0.000141536
-0.00252704
0.000177928
-0.00305305
0.000192726
-0.00336149
0.000188129
-0.0035134
0.000168943
-0.00356527
0.000140112
-0.00356006
0.000105577
-0.00352617
6.80287e-05
-0.00348026
2.91054e-05
-0.00343109
-1.02882e-05
-0.00338276
-4.96992e-05
-0.00333695
-8.89247e-05
-0.00329424
-0.000127881
-0.00325481
-0.000166525
-0.0032187
-0.000204819
-0.00318592
-0.000242715
-0.00315634
-0.000280161
-0.00312972
-0.00310584
-0.000317108
2.88545e-05
-0.000698095
7.78431e-05
-0.0017856
0.00012112
-0.00257032
0.000145834
-0.00307776
0.000149297
-0.00336495
0.000134552
-0.00349865
0.000106646
-0.00353736
7.03875e-05
-0.00352381
2.94291e-05
-0.00348522
-1.38319e-05
-0.003437
-5.79887e-05
-0.00338693
-0.000102295
-0.00333845
-0.000146398
-0.00329284
-0.000190158
-0.00325048
-0.000233537
-0.00321143
-0.000276522
-0.00317572
-0.000319095
-0.00314334
-0.000361214
-0.00311422
-0.000402824
-0.00308811
-0.00306479
-0.000443869
2.59701e-05
-0.000724066
6.7309e-05
-0.00182693
0.000100032
-0.00260304
0.00011328
-0.00309101
0.000105803
-0.00335748
8.13554e-05
-0.00347421
4.51219e-05
-0.00350113
1.72696e-06
-0.00348041
-4.54724e-05
-0.00343802
-9.43547e-05
-0.00338812
-0.000143718
-0.00333757
-0.000192949
-0.00328922
-0.000241775
-0.00324402
-0.000290106
-0.00320215
-0.00033794
-0.00316359
-0.000385296
-0.00312836
-0.000432177
-0.00309646
-0.000478545
-0.00306785
-0.000524336
-0.00304232
-0.00301964
-0.000569484
2.28434e-05
-0.000746909
5.62855e-05
-0.00186038
7.84553e-05
-0.00262521
8.04946e-05
-0.00309305
6.24802e-05
-0.00333946
2.87527e-05
-0.00344048
-1.54519e-05
-0.00345692
-6.57309e-05
-0.00343013
-0.000119021
-0.00338473
-0.000173458
-0.00333368
-0.00022802
-0.00328301
-0.000282201
-0.00323504
-0.00033579
-0.00319043
-0.000388735
-0.0031492
-0.000441063
-0.00311127
-0.000492823
-0.0030766
-0.000544041
-0.00304525
-0.000594687
-0.0030172
-0.000644681
-0.00299232
-0.00297039
-0.000693938
1.95062e-05
-0.000766415
4.48762e-05
-0.00188575
5.65605e-05
-0.00263689
4.76858e-05
-0.00308417
1.95398e-05
-0.00331132
-2.30667e-05
-0.00339787
-7.49182e-05
-0.00340507
-0.000131859
-0.00337319
-0.000191117
-0.00332547
-0.00025106
-0.00327374
-0.000310826
-0.00322324
-0.000369996
-0.00317587
-0.000428403
-0.00313202
-0.000486017
-0.00309159
-0.000542889
-0.00305439
-0.000599096
-0.00302039
-0.000654692
-0.00298965
-0.000709658
-0.00296224
-0.000763894
-0.00293809
-0.00291699
-0.000817288
1.59917e-05
-0.000782407
3.31815e-05
-0.00190294
3.45087e-05
-0.00263822
1.5045e-05
-0.00306471
-2.28273e-05
-0.00327344
-7.3931e-05
-0.00334677
-0.000133131
-0.00334587
-0.000196536
-0.00330979
-0.000261653
-0.00326035
-0.000327068
-0.00320832
-0.000392054
-0.00315825
-0.000456265
-0.00311165
-0.000519561
-0.00306873
-0.000581921
-0.00302923
-0.000643407
-0.00299291
-0.000704124
-0.00295968
-0.000764157
-0.00292962
-0.000823511
-0.00290288
-0.000882066
-0.00287953
-0.0028594
-0.000939661
1.23335e-05
-0.00079474
2.12988e-05
-0.0019119
1.24507e-05
-0.00262937
-1.72521e-05
-0.00303501
-6.4446e-05
-0.00322625
-0.000123681
-0.00328753
-0.00018995
-0.0032796
-0.000259636
-0.0032401
-0.000330514
-0.00318947
-0.00040137
-0.00313747
-0.0004716
-0.00308802
-0.000540916
-0.00304234
-0.000609192
-0.00300045
-0.000676403
-0.00296202
-0.000742606
-0.00292671
-0.000807922
-0.00289436
-0.000872481
-0.00286506
-0.000936321
-0.00283904
-0.000999309
-0.00281655
-0.00279751
-0.0010612
8.56584e-06
-0.000803306
9.32226e-06
-0.00191266
-9.47175e-06
-0.00261058
-4.90422e-05
-0.00299544
-0.000105154
-0.00317014
-0.000172165
-0.00322052
-0.000245234
-0.00320653
-0.000321024
-0.00316431
-0.000397564
-0.00311293
-0.000473828
-0.0030612
-0.000549322
-0.00301253
-0.000623813
-0.00296785
-0.000697182
-0.00292708
-0.000769385
-0.00288981
-0.000840453
-0.00285564
-0.000910508
-0.0028243
-0.000979716
-0.00279585
-0.00104817
-0.00277059
-0.00111573
-0.00274898
-0.00273124
-0.00118201
4.72313e-06
-0.000808029
-2.6577e-06
-0.00190528
-3.11256e-05
-0.00258211
-8.01735e-05
-0.00294639
-0.000144798
-0.00310551
-0.000219235
-0.00314609
-0.000298839
-0.00312693
-0.000380551
-0.0030826
-0.000462644
-0.00303084
-0.000544264
-0.00297958
-0.000625026
-0.00293177
-0.000704752
-0.00288812
-0.000783338
-0.00284849
-0.000860713
-0.00281244
-0.000936863
-0.00277949
-0.00101187
-0.00274929
-0.00108593
-0.00272179
-0.00115919
-0.00269733
-0.00123154
-0.00267664
-0.00266037
-0.00130241
8.39438e-07
-0.000808869
-1.45548e-05
-0.00188988
-5.23867e-05
-0.00254428
-0.000110505
-0.00288827
-0.000183234
-0.00303278
-0.00026475
-0.00306457
-0.000350619
-0.00304106
-0.000438057
-0.00299516
-0.000525567
-0.00294333
-0.00061246
-0.00289269
-0.000698458
-0.00284577
-0.000783452
-0.00280313
-0.000867364
-0.00276458
-0.000950112
-0.00272969
-0.00103163
-0.00269797
-0.00111193
-0.00266899
-0.00119119
-0.00264253
-0.00126965
-0.00261886
-0.00134723
-0.00259906
-0.00258402
-0.00142358
-3.05191e-06
-0.000805817
-2.62878e-05
-0.00186665
-7.31404e-05
-0.00249743
-0.000139908
-0.0028215
-0.00022033
-0.00295236
-0.00030857
-0.00297633
-0.000400422
-0.00294921
-0.000493366
-0.00290222
-0.000586124
-0.00285057
-0.000678161
-0.00280065
-0.000769312
-0.00275462
-0.00085955
-0.00271289
-0.000948864
-0.00267527
-0.00103719
-0.00264136
-0.00112443
-0.00261073
-0.00121053
-0.0025829
-0.00129562
-0.00255745
-0.00138004
-0.00253444
-0.00146387
-0.00251522
-0.0025
-0.00154789
-6.91909e-06
-0.000798898
-3.77818e-05
-0.00183578
-9.32834e-05
-0.00244192
-0.000168266
-0.00274652
-0.000255964
-0.00286466
-0.000350566
-0.00288173
-0.000448098
-0.00285167
-0.000546294
-0.00280402
-0.000644074
-0.00275279
-0.000741053
-0.00270367
-0.000837182
-0.00265849
-0.000932547
-0.00261753
-0.00102725
-0.00258057
-0.00112134
-0.00254727
-0.00121479
-0.00251728
-0.00130751
-0.00249017
-0.00139955
-0.00246541
-0.00149126
-0.00244273
-0.00158305
-0.00242344
-0.00240562
-0.00167743
-1.07325e-05
-0.000788165
-4.89699e-05
-0.00179755
-0.000112726
-0.00237817
-0.000195482
-0.00266376
-0.000290034
-0.00277011
-0.000390627
-0.00278114
-0.000493515
-0.00274879
-0.000596663
-0.00270087
-0.00069917
-0.00265028
-0.000800775
-0.00260207
-0.000901533
-0.00255773
-0.00100165
-0.00251741
-0.00110139
-0.00248083
-0.00120104
-0.00244762
-0.00130086
-0.00241746
-0.00140104
-0.00238999
-0.00150172
-0.00236473
-0.00160356
-0.00234089
-0.00170882
-0.00231818
-0.00230837
-0.00180607
-1.44524e-05
-0.000773713
-5.97731e-05
-0.00175223
-0.000131369
-0.00230657
-0.000221452
-0.00257368
-0.000322441
-0.00266912
-0.000428653
-0.00267492
-0.000536561
-0.00264088
-0.000644335
-0.0025931
-0.00075122
-0.0025434
-0.000857039
-0.00249625
-0.000961892