1.275 	2.15223e-18 	-2.76991e-20 	-0.27041
1.825 	2.15223e-18 	-1.39322e-20 	-0.255087
2.375 	2.15223e-18 	1.38775e-18 	-0.294577
2.925 	2.15223e-18 	2.78958e-18 	-0.297977
3.475 	2.15223e-18 	4.53849e-18 	-0.247263
4.025 	2.15223e-18 	6.28755e-18 	-0.178332
4.575 	2.15223e-18 	6.30203e-18 	-0.113241
5.125 	2.15223e-18 	6.31666e-18 	-0.068286
5.675 	2.15223e-18 	6.33144e-18 	-0.0374412
6.225 	2.15223e-18 	4.61166e-18 	-0.0129865
