/*--------------------------------*- C++ -*----------------------------------*\
  =========                 |
  \\      /  F ield         | OpenFOAM: The Open Source CFD Toolbox
   \\    /   O peration     | Website:  https://openfoam.org
    \\  /    A nd           | Version:  6.0
     \\/     M anipulation  |
\*---------------------------------------------------------------------------*/
FoamFile
{
    version     2.0;
    format      ascii;
    class       surfaceScalarField;
    location    "4";
    object      phi;
}
// * * * * * * * * * * * * * * * * * * * * * * * * * * * * * * * * * * * * * //

dimensions      [0 3 -1 0 0 0 0];

internalField   nonuniform List<scalar> 
15760
(
-1.57004e-05
1.57101e-05
-9.69705e-09
-5.20969e-05
3.64514e-05
-5.49318e-08
-0.000102409
5.04309e-05
-1.19262e-07
-0.000162012
5.98002e-05
-1.9644e-07
-0.000227676
6.59454e-05
-2.81902e-07
-0.000297142
6.98382e-05
-3.72275e-07
-0.000368828
7.21511e-05
-4.64721e-07
-0.000441612
7.33406e-05
-5.56565e-07
-0.000514678
7.3711e-05
-6.45195e-07
-0.000587412
7.34618e-05
-7.28137e-07
-0.00065933
7.2722e-05
-8.03185e-07
-0.000730038
7.15761e-05
-8.68511e-07
-0.000799197
7.00813e-05
-9.22724e-07
-0.00086651
6.82785e-05
-9.64849e-07
-0.000931715
6.61994e-05
-9.94315e-07
-0.000994573
6.38688e-05
-1.01101e-06
-0.00105487
6.13083e-05
-1.01529e-06
-0.0011124
5.85431e-05
-1.00778e-06
-0.00116701
5.55994e-05
-9.8918e-07
5.25296e-05
-9.61028e-07
-0.00121858
-1.5038e-05
3.07481e-05
-5.00676e-05
7.14809e-05
-9.86379e-05
9.90013e-05
-0.000156299
0.000117462
-0.000219903
0.000129549
-0.000287218
0.000137154
-0.000356662
0.000141595
-0.000427093
0.000143771
-0.000497668
0.000144286
-0.000567745
0.000143538
-0.000636811
0.000141788
-0.000704443
0.000139208
-0.000770277
0.000135915
-0.000833995
0.000131996
-0.000895315
0.00012752
-0.000953987
0.000122541
-0.00100979
0.000117108
-0.00106252
0.000111275
-0.00111202
0.000105101
9.86788e-05
-0.00115817
-1.37619e-05
4.45101e-05
-4.61434e-05
0.000103862
-9.1326e-05
0.000144184
-0.000145197
0.000171332
-0.000204771
0.000189123
-0.000267879
0.000200263
-0.000332939
0.000206655
-0.000398777
0.000209609
-0.000464504
0.000210014
-0.000529428
0.000208462
-0.000592982
0.000205343
-0.000654693
0.000200919
-0.000714152
0.000195374
-0.000771
0.000188844
-0.000824923
0.000181443
-0.000875647
0.000173265
-0.000922935
0.000164395
-0.000966587
0.000154927
-0.00100645
0.000144965
0.000134633
-0.00104241
-1.19629e-05
5.6473e-05
-4.05761e-05
0.000132476
-8.09034e-05
0.000184511
-0.000129311
0.000219741
-0.000183059
0.00024287
-0.000240075
0.000257278
-0.000298789
0.000265369
-0.000357996
0.000268817
-0.000416755
0.000268773
-0.000474307
0.000266014
-0.000530024
0.00026106
-0.000583371
0.000254265
-0.00063388
0.000245882
-0.000681142
0.000236106
-0.0007248
0.000225102
-0.000764551
0.000213016
-0.000800138
0.000199982
-0.000831358
0.000186147
-0.000858072
0.000171679
0.000156739
-0.000880178
-9.76718e-06
6.62402e-05
-3.37199e-05
0.000156428
-6.79823e-05
0.000218774
-0.000109513
0.000261272
-0.000155886
0.000289243
-0.000205172
0.000306564
-0.000255836
0.000316033
-0.000306656
0.000319637
-0.000356641
0.000318757
-0.000404972
0.000314345
-0.000450958
0.000307046
-0.000494003
0.000297311
-0.000533584
0.000285463
-0.000569239
0.000271761
-0.000600567
0.000256431
-0.00062723
0.000239679
-0.000648953
0.000221705
-0.000665527
0.000202721
-0.000676834
0.000182986
0.000162721
-0.000682817
-7.32525e-06
7.35654e-05
-2.60062e-05
0.000175109
-5.33187e-05
0.000246086
-8.68878e-05
0.000294841
-0.000124661
0.000327016
-0.000164894
0.000346797
-0.000206127
0.000357266
-0.00024714
0.00036065
-0.000286914
0.000358531
-0.000324586
0.000352018
-0.00035942
0.000341879
-0.000390768
0.000328659
-0.000418064
0.000312759
-0.000440803
0.000294501
-0.000458548
0.000274175
-0.000470928
0.000252059
-0.000477649
0.000228425
-0.000478501
0.000203573
-0.000473388
0.000177874
0.000151658
-0.000462325
-4.79932e-06
7.83648e-05
-1.79109e-05
0.000188221
-3.77626e-05
0.000265938
-6.26735e-05
0.000319752
-9.10046e-05
0.000355347
-0.000121242
0.000377034
-0.000152035
0.000388059
-0.000182206
0.00039082
-0.000210735
0.000387061
-0.000236746
0.000378028
-0.000259475
0.000364608
-0.000278252
0.000347436
-0.000292483
0.00032699
-0.000301641
0.000303659
-0.000305261
0.000277795
-0.000302948
0.000249746
-0.000294392
0.00021987
-0.000279382
0.000188563
-0.00025785
0.000156341
0.000123713
-0.000229905
-2.34987e-06
8.07146e-05
-9.91959e-06
0.000195791
-2.22017e-05
0.00027822
-3.81884e-05
0.000335738
-5.66705e-05
0.000373829
-7.6396e-05
0.00039676
-9.61653e-05
0.000407829
-0.00011488
0.000409535
-0.00013156
0.000403741
-0.000145344
0.000391812
-0.000155474
0.000374738
-0.000161282
0.000353244
-0.000162174
0.000327882
-0.000157615
0.0002991
-0.000147129
0.000267309
-0.000130303
0.000232921
-0.00010681
0.000196377
-7.64353e-05
0.000158188
-3.91369e-05
0.000119043
7.97191e-05
4.8571e-06
-1.23067e-07
8.08377e-05
-2.49113e-06
0.000198159
-7.49877e-06
0.000283227
-1.47435e-05
0.000342983
-2.3433e-05
0.000382518
-3.25962e-05
0.000405923
-4.12172e-05
0.00041645
-4.8316e-05
0.000416634
-5.29893e-05
0.000408414
-5.44259e-05
0.000393249
-5.19055e-05
0.000372218
-4.47878e-05
0.000346127
-3.24982e-05
0.000315592
-1.45137e-05
0.000281115
9.64485e-06
0.00024315
4.04066e-05
0.000202159
7.81262e-05
0.000158657
0.000123039
0.000113276
0.000175166
6.69156e-05
2.07496e-05
0.000234135
1.76001e-06
7.90777e-05
3.97667e-06
0.000195942
5.57252e-06
0.000281632
6.45292e-06
0.000342103
7.0343e-06
0.000381937
8.00791e-06
0.000404949
1.01841e-05
0.000414273
1.43934e-05
0.000412424
2.1429e-05
0.000401379
3.20195e-05
0.000382658
4.68213e-05
0.000357416
6.64248e-05
0.000326523
9.13683e-05
0.000290648
0.000122155
0.000250329
0.000159264
0.000206041
0.00020315
0.000158272
0.000254219
0.000107589
0.000312756
5.47385e-05
0.000378792
8.7989e-07
-5.22339e-05
0.000451775
3.21136e-06
7.58663e-05
9.17693e-06
0.000189976
1.63891e-05
0.000274419
2.43937e-05
0.000334098
3.3298e-05
0.000373033
4.35349e-05
0.000394713
5.57046e-05
0.000402104
7.0469e-05
0.00039766
8.84881e-05
0.00038336
0.000110385
0.000360761
0.000136734
0.000331067
0.000168062
0.000295195
0.000204865
0.000253845
0.000247625
0.000207569
0.000296829
0.000156837
0.000352974
0.000102127
0.000416542
4.4021e-05
0.000487916
-1.66355e-05
0.000567176
-7.83798e-05
-0.00013862
0.000653562
4.18114e-06
7.16852e-05
1.29167e-05
0.000181241
2.4532e-05
0.000262804
3.83667e-05
0.000320263
5.43057e-05
0.000357094
7.25658e-05
0.000376452
9.35512e-05
0.000381118
0.000117755
0.000373456
0.000145697
0.000355418
0.000177887
0.000328571
0.000214814
0.00029414
0.000256944
0.000253065
0.000304734
0.000206055
0.000358655
0.000153648
0.000419213
9.62797e-05
0.000486958
3.43811e-05
0.000562468
-3.1489e-05
0.000646251
-0.000100418
0.000738474
-0.000170603
-0.000238292
0.000838147
4.65983e-06
6.70254e-05
1.51318e-05
0.000170769
2.98265e-05
0.000248109
4.80338e-05
0.000302056
6.95154e-05
0.000335612
9.43323e-05
0.000351635
0.000122729
0.000352722
0.000155051
0.000341134
0.000191695
0.000318774
0.000233074
0.000287192
0.000279606
0.000247608
0.000331716
0.000200956
0.000389843
0.000147928
0.000454463
8.90275e-05
0.000526106
2.46368e-05
0.00060537
-4.48824e-05
0.000692903
-0.000119022
0.000789312
-0.000196827
0.000894846
-0.000276137
-0.000351708
0.00100826
4.67819e-06
6.23472e-05
1.58933e-05
0.000159554
3.23658e-05
0.000231637
5.34838e-05
0.000280938
7.89907e-05
0.000310105
0.000108868
0.000321758
0.000143258
0.000318332
0.000182408
0.000301984
0.000226631
0.000274551
0.000276286
0.000237537
0.000331761
0.000192132
0.000393477
0.00013924
0.000461885
7.95197e-05
0.000537479
1.34339e-05
0.000620799
-5.86832e-05
0.00071244
-0.000136523
0.000813034
-0.000219617
0.000923168
-0.000306961
0.00104307
-0.000396037
-0.000479855
0.00117121
4.30508e-06
5.80421e-05
1.54042e-05
0.000148455
3.2513e-05
0.000214528
5.52494e-05
0.000258202
8.34438e-05
0.000281911
0.000117087
0.000288115
0.000156297
0.000279122
0.000201293
0.000256988
0.000252376
0.000223468
0.000309911
0.000180002
0.000374316
0.000127728
0.000446048
6.75078e-05
0.000525596
-2.83009e-08
0.000613461
-7.44309e-05
0.000710142
-0.000155364
0.000816121
-0.000242502
0.000931844
-0.00033534
0.00105766
-0.000432776
0.00119356
-0.00053194
-0.000624006
0.00133771
3.64316e-06
5.4399e-05
1.39858e-05
0.000138112
3.08773e-05
0.000197637
5.42768e-05
0.000234802
8.42027e-05
0.000251985
0.000120751
0.000251566
0.000164109
0.000235764
0.000214558
0.000206539
0.000272466
0.00016556
0.000338277
0.000114191
0.00041249
5.35155e-05
0.000495628
-1.56299e-05
0.000588202
-9.26026e-05
0.000690666
-0.000176895
0.000803365
-0.000268063
0.000926495
-0.000365632
0.00106008
-0.000468927
0.00120396
-0.00057665
0.00135761
-0.000685597
-0.000785203
0.00151881
2.82126e-06
5.15777e-05
1.20508e-05
0.000128883
2.82615e-05
0.000181426
5.18409e-05
0.000211223
8.30896e-05
0.000220736
0.000122306
0.00021235
0.000169844
0.000188226
0.000226134
0.000150249
0.000291689
0.000100004
0.000367084
3.87962e-05
0.000452915
-3.23156e-05
0.000549746
-0.000112461
0.000658038
-0.000200895
0.000778069
-0.000296926
0.000909857
-0.00039985
0.00105309
-0.00050887
0.00120714
-0.000622969
0.00137103
-0.000740548
0.00154353
-0.000858091
-0.000963492
0.00172182
1.98275e-06
4.95949e-05
1.00631e-05
0.000120802
2.55772e-05
0.000165912
4.94051e-05
0.000187395
8.22088e-05
0.000187933
0.000124577
0.000169982
0.000177111
0.000135692
0.000240463
8.68975e-05
0.000315329
2.51382e-05
0.000402414
-4.82896e-05
0.000502367
-0.000132268
0.00061569
-0.000225784
0.000742639
-0.000327844
0.000883124
-0.000437411
0.00103661
-0.000553336
0.00120206
-0.000674317
0.00137793
-0.000798847
0.00156235
-0.000924967
0.00175321
-0.00104895
-0.00115733
0.00194705
1.26982e-06
4.83251e-05
8.4847e-06
0.000113587
2.37373e-05
0.000150659
4.84373e-05
0.000162695
8.36664e-05
0.000152704
0.000130365
0.000123283
0.000189433
7.6624e-05
0.000261762
1.45681e-05
0.000348212
-6.13118e-05
0.000449545
-0.000149622
0.000566328
-0.000249052
0.000698826
-0.000358282
0.000846883
-0.000475901
0.00100982
-0.000600346
0.00118634
-0.00072986
0.00137451
-0.000862482
0.00157173
-0.000996066
0.00177499
-0.00112823
0.00198136
-0.00125532
-0.00136329
0.00218731
8.05791e-07
4.75193e-05
7.71886e-06
0.000106674
2.35399e-05
0.000134838
5.02158e-05
0.000136019
8.92743e-05
0.000113645
0.000142029
7.05281e-05
0.000209675
8.9783e-06
0.000293295
-6.90523e-05
0.00039381
-0.000161827
0.000511878
-0.00026769
0.00064778
-0.000384954
0.000801306
-0.000511807
0.000971659
-0.000646254
0.0011574
-0.000786086
0.00135643
-0.000928888
0.00156601
-0.00107206
0.00178278
-0.00121284
0.00200266
-0.00134811
0.00222028
-0.00147294
-0.00157018
0.00242717
6.78757e-07
4.68406e-05
8.05998e-06
9.92931e-05
2.55695e-05
0.000117329
5.56663e-05
0.000105922
0.00010031
6.90012e-05
0.000161157
9.68168e-06
0.000239623
-6.9488e-05
0.00033686
-0.00016629
0.000453662
-0.000278629
0.000590347
-0.000404375
0.000746637
-0.000541243
0.00092157
-0.000686741
0.00111347
-0.000838156
0.00131999
-0.000992602
0.0015382
-0.0011471
0.00176485
-0.00129871
0.0019966
-0.00144459
0.00223063
-0.00158213
0.00246657
-0.00170889
-0.00181681
0.0027132
9.3541e-07
4.59052e-05
9.6701e-06
9.05584e-05
3.01472e-05
9.68517e-05
6.52789e-05
7.07904e-05
0.000117397
1.6883e-05
0.000188409
-6.13299e-05
0.000279814
-0.000160893
0.000392632
-0.000279108
0.000527279
-0.000413276
0.00068344
-0.000560536
0.00085998
-0.000717784
0.00105492
-0.000881678
0.00126548
-0.00104872
0.00148824
-0.00121536
0.00171935
-0.00137822
0.0019548
-0.00153415
0.00219072
-0.00168051
0.00242381
-0.00181522
0.00265185
-0.00193693
-0.00204064
0.00287567
1.57734e-06
4.43278e-05
1.25732e-05
7.95625e-05
3.73252e-05
7.20997e-05
7.9108e-05
2.90076e-05
0.000140519
-4.45278e-05
0.000223569
-0.00014438
0.000329638
-0.000266963
0.000459357
-0.000408826
0.000612468
-0.000566386
0.000787722
-0.000735791
0.00098286
-0.000912922
0.00119468
-0.0010935
0.00141923
-0.00127327
0.00165206
-0.00144819
0.0018885
-0.00161466
0.00212407
-0.00176972
0.00235464
-0.00191109
0.00257677
-0.00203735
0.00278771
-0.00214786
-0.00223991
0.00298699
2.57374e-06
4.17541e-05
1.66878e-05
6.54485e-05
4.69457e-05
4.18418e-05
9.68642e-05
-2.0911e-05
0.000169157
-0.000116821
0.00026574
-0.000240963
0.000387618
-0.000388841
0.000534736
-0.000555944
0.000705854
-0.000737504
0.000898517
-0.000928454
0.00110915
-0.00112356
0.00133328
-0.00131763
0.00156586
-0.00150585
0.00180164
-0.00168396
0.00203555
-0.00184858
0.00226305
-0.00199722
0.00248036
-0.0021284
0.00268459
-0.00224158
0.00287377
-0.00233704
-0.00241421
0.00304806
3.87597e-06
3.78781e-05
2.18696e-05
4.74549e-05
5.87205e-05
4.99084e-06
0.000118042
-8.02329e-05
0.000202476
-0.000201255
0.000313596
-0.000352083
0.000451737
-0.000526982
0.000615841
-0.000720048
0.000803398
-0.000925061
0.00101055
-0.0011356
0.00123234
-0.00134535
0.00146314
-0.00154843
0.00169709
-0.00173979
0.00192857
-0.00191544
0.00215262
-0.00207262
0.00236521
-0.00220981
0.00256341
-0.0023266
0.00274541
-0.00242357
0.0029104
-0.00250204
-0.002563
0.00305919
5.43316e-06
3.24449e-05
2.79562e-05
2.49318e-05
7.23131e-05
-3.9366e-05
0.000142044
-0.000149964
0.000239489
-0.000298699
0.000365593
-0.000478187
0.000519699
-0.000681088
0.000699437
-0.000899785
0.0009008
-0.00112642
0.00111844
-0.00135325
0.00134615
-0.00157306
0.00157742
-0.0017797
0.00180604
-0.00196841
0.00202658
-0.00213598
0.00223472
-0.00228077
0.00242744
-0.00240253
0.00260302
-0.00250218
0.00276091
-0.00258146
0.00290157
-0.00264269
-0.00268796
0.00302653
7.2034e-06
2.52415e-05
3.4799e-05
-2.66377e-06
8.7394e-05
-9.19611e-05
0.000168256
-0.000230825
0.000279157
-0.000409601
0.000420094
-0.000619124
0.000589085
-0.00085008
0.000782187
-0.00109289
0.000993778
-0.00133802
0.00121711
-0.00157658
0.00144501
-0.00180096
0.00167058
-0.00200527
0.00188782
-0.00218565
0.00209202
-0.00234019
0.00228
-0.00246874
0.00245002
-0.00257255
0.00260171
-0.00265387
0.00273575
-0.00271551
0.00285359
-0.00276054
-0.00279174
0.00295737
9.15799e-06
1.60836e-05
4.22751e-05
-3.57809e-05
0.000103661
-0.000153347
0.000196078
-0.000323242
0.000320426
-0.000533948
0.00047541
-0.000774108
0.000657426
-0.00103209
0.000860783
-0.00129624
0.00107829
-0.00155553
0.00130209
-0.00180037
0.00152449
-0.00202336
0.0017388
-0.00221958
0.00193978
-0.00238664
0.00212394
-0.00252434
0.00228944
-0.00263425
0.00243599
-0.0027191
0.00256443
-0.0027823
0.00267643
-0.0028275
0.00277413
-0.00285824
-0.0028776
0.00285998
1.12793e-05
4.80427e-06
5.02824e-05
-7.4784e-05
0.00012083
-0.000223895
0.000224906
-0.000427318
0.000362204
-0.000671246
0.000529804
-0.000941709
0.000722249
-0.00122454
0.000932083
-0.00150608
0.00115078
-0.00177422
0.0013698
-0.0020194
0.00158157
-0.00223514
0.00178015
-0.00241816
0.00196155
-0.00256803
0.00212372
-0.00268651
0.0022663
-0.00277683
0.00239025
-0.00284304
0.00249738
-0.00288944
0.00259002
-0.00292014
0.00267066
-0.00293887
-0.00294874
0.0027418
1.35545e-05
-8.7502e-06
5.87234e-05
-0.000119953
0.000138606
-0.000303777
0.000254098
-0.000542811
0.00040334
-0.000820488
0.0005815
-0.00111987
0.000781162
-0.0014242
0.000993267
-0.00171818
0.00120837
-0.00198932
0.00141784
-0.00222887
0.00161481
-0.0024321
0.00179457
-0.00259793
0.00195466
-0.00272812
0.00209454
-0.00282638
0.00221516
-0.00289746
0.00231848
-0.00294636
0.00240696
-0.00297792
0.00248323
-0.00299641
0.00254982
-0.00300546
-0.003008
0.00260909
1.59687e-05
-2.47189e-05
6.74872e-05
-0.000171471
0.000156657
-0.000392947
0.000282951
-0.000669106
0.000442623
-0.000980159
0.000628735
-0.00130598
0.000831976
-0.00162744
0.00104203
-0.00192824
0.00124909
-0.00219638
0.00144506
-0.00242485
0.00162427
-0.00261131
0.00178356
-0.00275721
0.00192204
-0.00286661
0.00204058
-0.00294492
0.00214116
-0.00299804
0.00222639
-0.00303159
0.00229904
-0.00305057
0.00236178
-0.00305915
0.00241697
-0.00306065
-0.00305771
0.00246668
1.84995e-05
-4.32184e-05
7.64369e-05
-0.000229409
0.000174602
-0.000491112
0.000310698
-0.000805201
0.000478815
-0.00114828
0.000669853
-0.00149702
0.000872847
-0.00183044
0.00107674
-0.00213212
0.00127196
-0.00239161
0.00145152
-0.0026044
0.00161126
-0.00277105
0.0017497
-0.00289565
0.00186742
-0.00298432
0.00196638
-0.00304388
0.00204928
-0.00308094
0.00211907
-0.00310138
0.00217856
-0.00311006
0.00223022
-0.00311081
0.00227616
-0.00310659
-0.00309963
0.00231808
2.11139e-05
-6.43323e-05
8.54039e-05
-0.000293699
0.000192009
-0.000597717
0.00033653
-0.000949723
0.000510718
-0.00132246
0.000703413
-0.00168971
0.000902412
-0.00202944
0.0010965
-0.00232622
0.00127697
-0.00257208
0.00143829
-0.00276572
0.00157803
-0.00291078
0.00169625
-0.00301388
0.00179476
-0.00308283
0.00187632
-0.00312544
0.00194401
-0.00314864
0.00200083
-0.0031582
0.00204943
-0.00315866
0.00209201
-0.00315339
0.00213031
-0.0031449
-0.00313503
0.00216572
2.37682e-05
-8.81004e-05
9.41912e-05
-0.000364122
0.000208409
-0.000711935
0.000359645
-0.00110096
0.000537254
-0.00150007
0.000728294
-0.00188075
0.000919864
-0.00222101
0.00110121
-0.00250756
0.00126494
-0.00273581
0.00140723
-0.00290801
0.00152731
-0.00303087
0.00162663
-0.00311319
0.00170788
-0.00316409
0.0017743
-0.00319185
0.00182907
-0.00320341
0.00187505
-0.00320418
0.00191461
-0.00319821
0.00194961
-0.00318839
0.00198147
-0.00317676
-0.00316481
0.00201125
2.64093e-05
-0.00011451
0.000102581
-0.000440294
0.000223326
-0.00083268
0.000379293
-0.00125693
0.000557541
-0.00167832
0.000743767
-0.00206698
0.00092497
-0.00240221
0.0010914
-0.00267399
0.00123729
-0.0028817
0.00136059
-0.00303131
0.00146205
-0.00313233
0.00154416
-0.0031953
0.0016102
-0.00323014
0.0016636
-0.00324525
0.00170744
-0.00324725
0.00174431
-0.00324105
0.00177623
-0.00323014
0.00180475
-0.00321691
0.00183098
-0.00320299
-0.00318955
0.00185571
2.89773e-05
-0.000143487
0.000110347
-0.000521664
0.000236303
-0.000958636
0.000394833
-0.00141545
0.000570948
-0.00185444
0.000749514
-0.00224555
0.000918017
-0.00257071
0.00106813
-0.0028241
0.00119587
-0.00300945
0.00130086
-0.0031363
0.0013851
-0.00321656
0.00145182
-0.00326202
0.00150462
-0.00328293
0.00154686
-0.00328749
0.0015814
-0.00328179
0.00161049
-0.00327014
0.00163583
-0.00325547
0.00165863
-0.00323971
0.00167976
-0.00322412
-0.00320959
0.0016998
3.14087e-05
-0.000174896
0.000117267
-0.000607522
0.000246929
-0.0010883
0.000405766
-0.00157429
0.000577126
-0.00202579
0.000745615
-0.00241404
0.000899721
-0.00272482
0.00103281
-0.00295719
0.0011427
-0.00311934
0.00123047
-0.00322407
0.00129907
-0.00328516
0.00135219
-0.00331514
0.00139348
-0.00332423
0.00142613
-0.00332014
0.00145266
-0.00330832
0.00147497
-0.00329245
0.00149444
-0.00327494
0.00151202
-0.0032573
0.00152838
-0.00324048
-0.00322516
0.00154395
3.36393e-05
-0.000208535
0.000123132
-0.000697014
0.000254864
-0.00122003
0.000411767
-0.0017312
0.000576002
-0.00219003
0.000732487
-0.00257052
0.000871109
-0.00286344
0.000987057
-0.00307314
0.00107982
-0.0032121
0.00115167
-0.00329592
0.00120623
-0.00333971
0.00124738
-0.00335629
0.00127867
-0.00335552
0.00130296
-0.00334443
0.00132244
-0.0033278
0.00133868
-0.00330869
0.00135277
-0.00328903
0.00136546
-0.00326999
0.00137725
-0.00325226
-0.00323635
0.00138843
3.56071e-05
-0.000244142
0.000127762
-0.000789169
0.000259859
-0.00135213
0.000412686
-0.00188402
0.000567758
-0.0023451
0.000710809
-0.00271357
0.000833398
-0.00298603
0.000932528
-0.00317227
0.00100915
-0.00328873
0.00106647
-0.00335324
0.00110849
-0.00338173
0.00113911
-0.00338691
0.0011616
-0.003378
0.0011785
-0.00336133
0.00119164
-0.00334094
0.0012023
-0.00331935
0.00121134
-0.00329807
0.00121932
-0.00327797
0.00122661
-0.00325956
-0.00324319
0.00123346
3.72553e-05
-0.000281397
0.000131011
-0.000882924
0.000261757
-0.00148287
0.000408545
-0.00203081
0.000552786
-0.00248934
0.000681445
-0.00284223
0.000787892
-0.00309248
0.000870837
-0.00325521
0.00093246
-0.00335035
0.000976602
-0.00339738
0.00100744
-0.00341257
0.0010287
-0.00340817
0.00104335
-0.00339266
0.00105358
-0.00337155
0.00106089
-0.00334825
0.00106629
-0.00332476
0.00107046
-0.00330223
0.00107383
-0.00328134
0.00107668
-0.00326241
-0.00324569
0.00107918
3.8539e-05
-0.000319936
0.00013278
-0.000977165
0.000260516
-0.00161061
0.000399531
-0.00216983
0.00053165
-0.00262146
0.000645374
-0.00295596
0.000735912
-0.00318301
0.000803503
-0.0033228
0.000851287
-0.00339814
0.000883507
-0.0034296
0.00090432
-0.00343338
0.000917197
-0.00342105
0.000924757
-0.00340022
0.000928835
-0.00337563
0.000930652
-0.00335007
0.000931005
-0.00332511
0.000930411
-0.00330164
0.000929206
-0.00328013
0.000927603
-0.0032608
-0.00324381
0.000925726
3.941e-05
-0.000359346
0.000132992
-0.00107075
0.000256148
-0.00173377
0.00038591
-0.00229959
0.000504971
-0.00274052
0.000603563
-0.00305455
0.000678666
-0.00325812
0.00073183
-0.00337597
0.000766906
-0.00343321
0.000788324
-0.00345102
0.000800088
-0.00344515
0.00080535
-0.00342631
0.000806373
-0.00340124
0.000804672
-0.00337393
0.000801225
-0.00334662
0.000796649
-0.00332054
0.000791345
-0.00329634
0.000785573
-0.00327436
0.000779496
-0.00325472
-0.00323752
0.000773209
3.98424e-05
-0.000399189
0.000131633
-0.00116254
0.000248778
-0.00185091
0.000368082
-0.00241889
0.000473474
-0.00284591
0.000557011
-0.00313809
0.000617312
-0.00331842
0.000657007
-0.00341566
0.000680422
-0.00345663
0.000692007
-0.0034626
0.000695517
-0.00344866
0.000693758
-0.00342455
0.00068865
-0.00339613
0.000681427
-0.00336671
0.000672858
-0.00333805
0.000663421
-0.0033111
0.000653424
-0.00328634
0.00064307
-0.003264
0.000632488
-0.00324414
-0.00322679
0.000621751
3.98167e-05
-0.000439005
0.000128721
-0.00125144
0.00023859
-0.00196078
0.000346494
-0.0025268
0.000437883
-0.0029373
0.000506648
-0.00320685
0.000552872
-0.00336464
0.00058003
-0.00344282
0.000592725
-0.00346932
0.000595293
-0.00346517
0.000591186
-0.00344455
0.000582856
-0.00341622
0.000571909
-0.00338519
0.000559335
-0.00335413
0.000545731
-0.00332445
0.000531462
-0.00329683
0.000516768
-0.00327164
0.00050181
-0.00324905
0.00048669
-0.00322902
-0.00321157
0.00047147
3.93247e-05
-0.00047833
0.00012431
-0.00133643
0.000225813
-0.00206228
0.000321624
-0.00262261
0.000398909
-0.00301459
0.00045333
-0.00326127
0.000486238
-0.00339755
0.000501735
-0.00345832
0.000504532
-0.00347212
0.00049876
-0.0034594
0.000487533
-0.00343332
0.000472967
-0.00340165
0.000456385
-0.0033686
0.000438571
-0.00333632
0.00041998
-0.00330586
0.00040089
-0.00327774
0.000381485
-0.00325224
0.000361896
-0.00322946
0.000342208
-0.00320934
-0.00319183
0.000322475
3.83683e-05
-0.000516698
0.000118485
-0.00141654
0.000210715
-0.00215451
0.000293961
-0.00270585
0.000357222
-0.00307785
0.000397822
-0.00330187
0.000418173
-0.0034179
0.000422809
-0.00346295
0.000416414
-0.00346573
0.000402851
-0.00344584
0.00038489
-0.00341536
0.000364331
-0.00338109
0.000342253
-0.00334652
0.000319267
-0.00331333
0.000295715
-0.00328231
0.0002718
-0.00325383
0.000247667
-0.00322811
0.000223421
-0.00320521
0.00019914
-0.00318505
-0.00316757
0.000174872
3.6959e-05
-0.000553657
0.000111353
-0.00149094
0.000193579
-0.00223674
0.000263984
-0.00277626
0.000313444
-0.00312731
0.0003408
-0.00332923
0.000349324
-0.00342642
0.000343813
-0.00345744
0.000328824
-0.00345074
0.000307909
-0.00342492
0.000283505
-0.00339096
0.000257128
-0.00335472
0.000229646
-0.00331904
0.000201528
-0.00328522
0.000173022
-0.0032538
0.000144275
-0.00322508
0.000115394
-0.00319922
8.64683e-05
-0.00317629
5.75722e-05
-0.00315616
-0.00313875
2.87537e-05
3.51163e-05
-0.000588774
0.000103037
-0.00155886
0.000174699
-0.0023084
0.000232152
-0.00283371
0.000268136
-0.00316329
0.000282848
-0.00334394
0.000280232
-0.00342381
0.000265205
-0.00344242
0.000242118
-0.00342765
0.000214199
-0.003397
0.000183569
-0.00336033
0.000151492
-0.00332264
0.000118663
-0.00328621
8.54328e-05
-0.00325199
5.19734e-05
-0.00322034
1.83816e-05
-0.00319149
-1.52647e-05
-0.00316558
-4.88886e-05
-0.00314266
-8.24167e-05
-0.00312263
-0.00310537
-0.000115795
3.28669e-05
-0.00062164
9.36726e-05
-0.00161966
0.000154367
-0.0023691
0.000198893
-0.00287824
0.000221801
-0.0031862
0.00022447
-0.00334661
0.000211348
-0.00341069
0.000187352
-0.00341842
0.000156579
-0.00339688
0.000121927
-0.00336235
8.52278e-05
-0.00332363
4.75298e-05
-0.00328494
9.38261e-06
-0.00324807
-2.89557e-05
-0.00321365
-6.73756e-05
-0.00318192
-0.000105824
-0.00315304
-0.000144251
-0.00312715
-0.00018259
-0.00310432
-0.000220762
-0.00308446
-0.00306743
-0.000258704
3.02431e-05
-0.000651884
8.34016e-05
-0.00167282
0.000132865
-0.00241856
0.000164602
-0.00290997
0.000174881
-0.00319648
0.000166098
-0.00333782
0.000143046
-0.00338764
0.000110557
-0.00338593
7.2434e-05
-0.00335875
3.12591e-05
-0.00332117
-1.13998e-05
-0.00328097
-5.46752e-05
-0.00324167
-9.81332e-05
-0.00320461
-0.000141588
-0.00317019
-0.000184982
-0.00313853
-0.000228302
-0.00310972
-0.000271524
-0.00308393
-0.000314593
-0.00306125
-0.00035742
-0.00304163
-0.00302492
-0.000399925
2.72819e-05
-0.000679166
7.2368e-05
-0.00171791
0.000110462
-0.00245665
0.000129638
-0.00292915
0.000127768
-0.00319461
0.000108099
-0.00331816
7.56432e-05
-0.00335518
3.50685e-05
-0.00334536
-1.01272e-05
-0.00331356
-5.76659e-05
-0.00327364
-0.000106212
-0.00323242
-0.000155048
-0.00319283
-0.000203831
-0.00315583
-0.000252427
-0.0031216
-0.000300819
-0.00309013
-0.00034903
-0.00306151
-0.000397069
-0.00303589
-0.00044489
-0.00301343
-0.000492389
-0.00299413
-0.00297785
-0.000539461
2.40234e-05
-0.000703189
6.07156e-05
-0.0017546
8.74142e-05
-0.00248335
9.43266e-05
-0.00293606
8.08049e-05
-0.00318109
5.07922e-05
-0.00328814
9.40611e-06
-0.00331379
-3.88989e-05
-0.00329705
-9.09389e-05
-0.00326152
-0.00014472
-0.00321986
-0.000199109
-0.00317803
-0.000253515
-0.00313842
-0.000307657
-0.00310168
-0.000361438
-0.00306782
-0.000414869
-0.0030367
-0.000468008
-0.00300837
-0.000520899
-0.002983
-0.000573514
-0.00296082
-0.000625729
-0.00294192
-0.00292617
-0.000677404
2.05105e-05
-0.000723699
4.85853e-05
-0.00178268
6.39581e-05
-0.00249872
5.89622e-05
-0.00293107
3.42942e-05
-0.00315642
-5.5469e-06
-0.0032483
-5.54306e-05
-0.00326391
-0.000111154
-0.00324133
-0.000169845
-0.00320283
-0.000229773
-0.00315993
-0.000289985
-0.00311782
-0.000349988
-0.00307842
-0.000409548
-0.00304213
-0.000468582
-0.00300878
-0.000527118
-0.00297817
-0.000585245
-0.00295024
-0.000643048
-0.0029252
-0.00070053
-0.00290334
-0.000757551
-0.00288489
-0.00286981
-0.000813911
1.67875e-05
-0.000740487
3.61137e-05
-0.001802
4.03148e-05
-0.00250293
2.38101e-05
-0.00291456
-1.14953e-05
-0.00312111
-6.0673e-05
-0.00319912
-0.000118655
-0.00320593
-0.000181516
-0.00317847
-0.000246688
-0.00313766
-0.000312684
-0.00309393
-0.00037871
-0.0030518
-0.000444355
-0.00301278
-0.000509414
-0.00297707
-0.000573803
-0.00294439
-0.000637546
-0.00291442
-0.000700749
-0.00288704
-0.00076355
-0.00286239
-0.000825998
-0.00284089
-0.000887949
-0.00282294
-0.00280866
-0.000949098
1.28996e-05
-0.000753387
2.34319e-05
-0.00181253
1.66883e-05
-0.00249618
-1.089e-05
-0.00288698
-5.63231e-05
-0.00307568
-0.000114365
-0.00314108
-0.000180071
-0.00314022
-0.000249805
-0.00310873
-0.000321296
-0.00306616
-0.000393283
-0.00302195
-0.000465114
-0.00297996
-0.000536456
-0.00294143
-0.000607119
-0.0029064
-0.000677004
-0.00287451
-0.000746105
-0.00284532
-0.000814524
-0.00281862
-0.000882439
-0.00279448
-0.000949969
-0.00277336
-0.00101698
-0.00275594
-0.00274264
-0.001083
8.89236e-06
-0.000762279
1.06645e-05
-0.00181431
-6.73358e-06
-0.00247878
-4.49217e-05
-0.0028488
-9.99729e-05
-0.00302063
-0.00016642
-0.00307464
-0.000239487
-0.00306716
-0.000315837
-0.00303238
-0.000393478
-0.00298852
-0.000471362
-0.00294406
-0.000548975
-0.00290235
-0.000626057
-0.00286435
-0.000702442
-0.00283002
-0.000778008
-0.00279894
-0.000852694
-0.00277064
-0.000926558
-0.00274475
-0.000999793
-0.00272124
-0.00107259
-0.00270056
-0.00114485
-0.00268368
-0.0026715
-0.00121599
4.81054e-06
-0.000767089
-2.07145e-06
-0.00180742
-2.97798e-05
-0.00245108
-7.80908e-05
-0.00280048
-0.00014225
-0.00295647
-0.000216652
-0.00300023
-0.00029672
-0.00298709
-0.000379417
-0.00294969
-0.000463019
-0.00290492
-0.000546674
-0.00286041
-0.000630004
-0.00281902
-0.000712835
-0.00278152
-0.000795044
-0.00274781
-0.000876499
-0.00271749
-0.000957082
-0.00269005
-0.00103677
-0.00266507
-0.00111574
-0.00264228
-0.00119427
-0.00262202
-0.00127233
-0.00260562
-0.00259425
-0.00134958
6.97563e-07
-0.000767787
-1.46677e-05
-0.00179206
-5.22963e-05
-0.00241345
-0.000110225
-0.00274256
-0.000182982
-0.00288371
-0.000264887
-0.00291833
-0.000351591
-0.00290038
-0.000440347
-0.00286093
-0.000529681
-0.00281559
-0.000618929
-0.00277116
-0.000707851
-0.0027301
-0.000796375
-0.002693
-0.000884459
-0.00265973
-0.000972009
-0.00262994
-0.00105888
-0.00260318
-0.00114497
-0.00257897
-0.00123041
-0.00255685
-0.00131559
-0.00253684
-0.00140072
-0.00252049
-0.00250846
-0.00148651
-3.4056e-06
-0.000764381
-2.70265e-05
-0.00176844
-7.41482e-05
-0.00236632
-0.000141175
-0.00267553
-0.000222017
-0.00280287
-0.000310974
-0.00282937
-0.000403931
-0.00280743
-0.000498419
-0.00276644
-0.000593199
-0.00272081
-0.000687781
-0.00267658
-0.00078206
-0.00263582
-0.0008761
-0.00259896
-0.000969994
-0.00256583
-0.00106379
-0.00253614
-0.00115743
-0.00250954
-0.0012508
-0.0024856
-0.00134393
-0.00246372
-0.00143721
-0.00244356
-0.00153123
-0.00242647
-0.00241098
-0.00162871
-7.46138e-06
-0.00075692
-3.90618e-05
-0.00173684
-9.52209e-05
-0.00231017
-0.00017082
-0.00259993
-0.000259235
-0.00271446
-0.000354787
-0.00273382
-0.000453595
-0.00270862
-0.000553448
-0.00266659
-0.00065331
-0.00262095
-0.000752836
-0.00257705
-0.000852044
-0.00253661
-0.000951129
-0.00249987
-0.00105037
-0.00246659
-0.00115008
-0.00243643
-0.00125055
-0.00240907
-0.00135198
-0.00238417
-0.0014545
-0.0023612
-0.00155872
-0.00233934
-0.00166705
-0.00231814
-0.00230989
-0.00176814
-1.14236e-05
-0.000745496
-5.06806e-05
-0.00169758
-0.000115399
-0.00224545
-0.000199042
-0.00251629
-0.000294527
-0.00261897
-0.000396222
-0.00263212
-0.000500475
-0.00260436
-0.0006053
-0.00256176
-0.000709826
-0.00251642
-0.000813805
-0.00247307
-0.000917312