/*--------------------------------*- C++ -*----------------------------------*\
  =========                 |
  \\      /  F ield         | OpenFOAM: The Open Source CFD Toolbox
   \\    /   O peration     | Website:  https://openfoam.org
    \\  /    A nd           | Version:  6.0
     \\/     M anipulation  |
\*---------------------------------------------------------------------------*/
FoamFile
{
    version     2.0;
    format      ascii;
    class       volScalarField;
    location    "86";
    object      p;
}
// * * * * * * * * * * * * * * * * * * * * * * * * * * * * * * * * * * * * * //

dimensions      [0 2 -2 0 0 0 0];

internalField   nonuniform List<scalar> 
4000
(
-0.436686
-0.438082
-0.438701
-0.439006
-0.439373
-0.439937
-0.440739
-0.441769
-0.442985
-0.444333
-0.445761
-0.447224
-0.448685
-0.450119
-0.451508
-0.452835
-0.454102
-0.455419
-0.456858
-0.457419
-0.426414
-0.428061
-0.428766
-0.429038
-0.429278
-0.429617
-0.430099
-0.430719
-0.431445
-0.432232
-0.433039
-0.433831
-0.434582
-0.435276
-0.435906
-0.436464
-0.436958
-0.437474
-0.438074
-0.438024
-0.416279
-0.418139
-0.418914
-0.419153
-0.419272
-0.419395
-0.419567
-0.41979
-0.420035
-0.420268
-0.420457
-0.420577
-0.420611
-0.420555
-0.420409
-0.420178
-0.419876
-0.419565
-0.419304
-0.418654
-0.40638
-0.408423
-0.409257
-0.409465
-0.409471
-0.409392
-0.409271
-0.40911
-0.408889
-0.408581
-0.408162
-0.407616
-0.406938
-0.40613
-0.405205
-0.404179
-0.403075
-0.401934
-0.400813
-0.399595
-0.396809
-0.399011
-0.399898
-0.40008
-0.399984
-0.399717
-0.399318
-0.398791
-0.398122
-0.397288
-0.396275
-0.395076
-0.393694
-0.392142
-0.390442
-0.388626
-0.386726
-0.384763
-0.382794
-0.381036
-0.38765
-0.389997
-0.390934
-0.391094
-0.390905
-0.390463
-0.389803
-0.388928
-0.387827
-0.386485
-0.384895
-0.383057
-0.380983
-0.378697
-0.376232
-0.373634
-0.370947
-0.368173
-0.365368
-0.363087
-0.378986
-0.381472
-0.382456
-0.382598
-0.382323
-0.381718
-0.38081
-0.379603
-0.378088
-0.376255
-0.374103
-0.371641
-0.36889
-0.36588
-0.362658
-0.359285
-0.355818
-0.352242
-0.348606
-0.345804
-0.370901
-0.373521
-0.374553
-0.374677
-0.374321
-0.373561
-0.372416
-0.370891
-0.368978
-0.366671
-0.363974
-0.360902
-0.357485
-0.353761
-0.349788
-0.345642
-0.341397
-0.33702
-0.332551
-0.329216
-0.36348
-0.366232
-0.367307
-0.367413
-0.366979
-0.366068
-0.364697
-0.362868
-0.360572
-0.357808
-0.354583
-0.350916
-0.346843
-0.34241
-0.337686
-0.332763
-0.327731
-0.322544
-0.317233
-0.313348
-0.356811
-0.359689
-0.360803
-0.360887
-0.360375
-0.359319
-0.357731
-0.35561
-0.352951
-0.349749
-0.346015
-0.34177
-0.337053
-0.331916
-0.326435
-0.320719
-0.314876
-0.308854
-0.302682
-0.298223
-0.350986
-0.353972
-0.355116
-0.355175
-0.354584
-0.353389
-0.351596
-0.349204
-0.346203
-0.342591
-0.338376
-0.333577
-0.328232
-0.322396
-0.316148
-0.309613
-0.302916
-0.296008
-0.288928
-0.283861
-0.34609
-0.349159
-0.350318
-0.350346
-0.349678
-0.348354
-0.346374
-0.343736
-0.340427
-0.336443
-0.331785
-0.326469
-0.320526
-0.314005
-0.306985
-0.299596
-0.291981
-0.2841
-0.276018
-0.270271
-0.342202
-0.34531
-0.346466
-0.346458
-0.345717
-0.344277
-0.342137
-0.339287
-0.335716
-0.33141
-0.326366
-0.320589
-0.314097
-0.306924
-0.299137
-0.290864
-0.282255
-0.273274
-0.264026
-0.257454
-0.339383
-0.342471
-0.343599
-0.343548
-0.342741
-0.341206
-0.338935
-0.335919
-0.332139
-0.327577
-0.322218
-0.316054
-0.309083
-0.301318
-0.292798
-0.28363
-0.273956
-0.263725
-0.25307
-0.245416
-0.337665
-0.340661
-0.341729
-0.341627
-0.340761
-0.339151
-0.336786
-0.333651
-0.329722
-0.324973
-0.319379
-0.312914
-0.305554
-0.29728
-0.288092
-0.278055
-0.267278
-0.255666
-0.243319
-0.2342
-0.337051
-0.339871
-0.34084
-0.340674
-0.339753
-0.338086
-0.335658
-0.332447
-0.328423
-0.323553
-0.317798
-0.311115
-0.303457
-0.29477
-0.285007
-0.274174
-0.262323
-0.249278
-0.235
-0.223942
-0.337507
-0.340059
-0.340885
-0.340635
-0.339653
-0.337938
-0.335466
-0.332209
-0.328131
-0.323186
-0.317326
-0.310491
-0.302612
-0.293601
-0.283368
-0.271853
-0.259038
-0.244659
-0.2284
-0.214923
-0.338963
-0.341158
-0.341788
-0.341425
-0.340363
-0.338592
-0.33608
-0.332789
-0.328673
-0.323678
-0.317744
-0.310798
-0.302751
-0.293494
-0.282893
-0.270827
-0.257209
-0.241695
-0.22359
-0.207243
-0.341324
-0.343078
-0.343454
-0.342935
-0.341761
-0.339911
-0.337342
-0.334006
-0.329848
-0.324807
-0.318812
-0.311786
-0.30363
-0.294223
-0.28341
-0.271014
-0.256858
-0.240456
-0.220611
-0.200902
-0.344481
-0.345719
-0.345781
-0.345053
-0.343719
-0.341748
-0.339087
-0.335679
-0.33146
-0.326363
-0.320321
-0.313258
-0.305093
-0.295732
-0.285063
-0.272956
-0.259243
-0.243364
-0.223762
-0.202838
-0.348324
-0.348984
-0.348672
-0.347673
-0.346119
-0.343972
-0.341171
-0.337651
-0.333341
-0.328176
-0.322093
-0.31504
-0.306974
-0.297875
-0.287756
-0.276702
-0.264905
-0.252665
-0.241111
-0.236678
-0.352755
-0.352792
-0.352045
-0.350711
-0.348872
-0.346487
-0.343492
-0.339812
-0.335378
-0.330124
-0.324001
-0.31698
-0.309061
-0.300288
-0.290769
-0.280704
-0.270434
-0.260482
-0.251902
-0.248582
-0.357705
-0.357084
-0.355847
-0.354114
-0.351924
-0.349241
-0.345996
-0.342112
-0.337517
-0.332151
-0.325976
-0.318986
-0.311218
-0.302761
-0.293773
-0.284499
-0.275287
-0.266593
-0.259026
-0.254448
-0.363137
-0.361833
-0.360058
-0.357868
-0.355268
-0.35223
-0.348685
-0.344554
-0.339761
-0.334249
-0.327993
-0.321002
-0.313335
-0.305106
-0.296488
-0.287714
-0.279072
-0.270878
-0.26346
-0.257595
-0.369048
-0.367039
-0.364686
-0.361991
-0.358933
-0.355492
-0.351604
-0.347181
-0.342147
-0.336444
-0.330052
-0.322991
-0.315334
-0.3072
-0.298757
-0.290208
-0.281774
-0.273665
-0.266063
-0.259191
-0.375464
-0.372728
-0.369765
-0.36653
-0.362976
-0.359095
-0.354821
-0.350061
-0.34473
-0.338769
-0.332159
-0.324928
-0.317154
-0.30896
-0.300501
-0.291952
-0.283488
-0.275256
-0.267379
-0.259855
-0.382432
-0.378943
-0.375345
-0.371546
-0.36747
-0.363116
-0.358412
-0.353257
-0.347554
-0.341243
-0.334305
-0.326777
-0.318743
-0.310327
-0.301681
-0.292962
-0.284316
-0.275864
-0.267699
-0.259763
-0.390003
-0.385731
-0.381482
-0.377103
-0.372484
-0.367622
-0.362438
-0.356812
-0.35064
-0.343859
-0.336459
-0.328487
-0.320042
-0.311256
-0.30228
-0.293264
-0.284343
-0.275625
-0.267187
-0.258988
-0.398225
-0.393137
-0.388222
-0.383256
-0.378072
-0.372662
-0.366927
-0.360732
-0.353967
-0.346573
-0.338559
-0.329992
-0.320992
-0.311705
-0.302287
-0.292886
-0.28363
-0.27462
-0.26592
-0.257517
-0.407127
-0.401188
-0.3956
-0.390037
-0.384263
-0.378248
-0.37187
-0.364981
-0.357472
-0.349306
-0.340519
-0.331212
-0.32153
-0.311637
-0.301695
-0.291851
-0.282223
-0.272903
-0.263942
-0.255346
-0.416711
-0.409889
-0.403622
-0.397453
-0.391049
-0.384348
-0.377208
-0.369473
-0.361054
-0.351948
-0.342236
-0.332059
-0.321594
-0.311019
-0.3005
-0.290177
-0.280156
-0.270515
-0.261286
-0.252483
-0.426944
-0.419216
-0.412267
-0.405472
-0.398379
-0.390887
-0.382838
-0.374084
-0.364575
-0.354366
-0.343593
-0.332445
-0.321124
-0.30982
-0.298697
-0.287879
-0.277456
-0.267486
-0.257982
-0.248955
-0.437755
-0.42911
-0.421477
-0.414025
-0.40616
-0.397743
-0.388609
-0.378649
-0.367874
-0.356415
-0.344473
-0.332281
-0.320062
-0.308011
-0.296276
-0.284963
-0.274139
-0.26384
-0.254056
-0.244794
-0.449033
-0.439474
-0.431154
-0.422996
-0.414251
-0.404744
-0.394334
-0.382976
-0.370773
-0.357944
-0.344757
-0.331482
-0.318355
-0.305559
-0.293223
-0.281427
-0.270211
-0.259591
-0.249529
-0.240032
-0.460623
-0.45017
-0.441157
-0.432227
-0.422463
-0.411679
-0.39979
-0.386854
-0.373087
-0.358802
-0.344331
-0.329968
-0.315946
-0.302429
-0.289516
-0.277258
-0.26567
-0.254742
-0.244411
-0.234691
-0.472328
-0.461017
-0.451301
-0.441509
-0.430564
-0.4183
-0.404736
-0.390063
-0.37463
-0.358845
-0.343086
-0.327658
-0.312777
-0.298577
-0.285123
-0.272434
-0.2605
-0.249285
-0.238701
-0.228781
-0.48391
-0.471794
-0.461357
-0.450591
-0.438283
-0.424334
-0.408914
-0.392382
-0.375225
-0.357934
-0.340918
-0.324474
-0.308788
-0.293955
-0.280004
-0.266923
-0.254675
-0.243202
-0.232389
-0.222301
-0.495091
-0.482237
-0.471052
-0.459181
-0.445316
-0.429488
-0.412065
-0.393596
-0.374703
-0.355941
-0.33773
-0.320339
-0.303915
-0.28851
-0.274116
-0.260687
-0.248164
-0.236467
-0.225456
-0.215239
-0.505558
-0.492044
-0.480073
-0.466951
-0.451341
-0.433465
-0.413934
-0.393501
-0.372905
-0.352745
-0.333424
-0.315175
-0.298093
-0.282186
-0.267407
-0.253682
-0.24093
-0.22905
-0.217879
-0.207578
-0.514972
-0.500884
-0.488081
-0.473559
-0.456028
-0.435973
-0.414284
-0.39191
-0.369688
-0.34823
-0.327908
-0.3089
-0.291249
-0.274917
-0.259819
-0.245856
-0.232927
-0.220912
-0.209623
-0.19929
-0.783396
-0.767231
-0.751013
-0.730615
-0.704802
-0.674875
-0.642669
-0.609884
-0.57781
-0.547261
-0.518649
-0.492101
-0.46758
-0.444959
-0.424078
-0.404769
-0.386876
-0.370222
-0.354572
-0.340181
-0.773447
-0.757796
-0.742762
-0.724473
-0.701409
-0.674395
-0.644876
-0.614339
-0.584026
-0.554799
-0.527149
-0.501291
-0.477258
-0.454978
-0.434328
-0.415168
-0.397362
-0.380755
-0.365134
-0.350667
-0.761739
-0.746681
-0.73274
-0.716382
-0.695927
-0.671792
-0.645034
-0.616897
-0.58853
-0.560806
-0.534284
-0.509256
-0.485827
-0.463984
-0.443647
-0.424707
-0.407049
-0.390541
-0.374997
-0.360509
-0.748665
-0.734277
-0.721345
-0.706725
-0.688693
-0.667337
-0.643352
-0.617715
-0.591443
-0.565386
-0.540145
-0.516081
-0.493369
-0.472056
-0.452109
-0.433454
-0.415998
-0.399638
-0.384213
-0.369756
-0.734602
-0.720955
-0.708956
-0.695877
-0.680047
-0.661313
-0.640048
-0.616957
-0.592891
-0.568642
-0.544826
-0.521856
-0.499971
-0.479278
-0.459795
-0.441484
-0.424282
-0.408111
-0.392842
-0.378458
-0.719901
-0.707059
-0.695925
-0.684196
-0.670327
-0.65401
-0.635352
-0.614797
-0.593008
-0.570683
-0.548421
-0.526669
-0.505719
-0.485736
-0.466786
-0.448877
-0.431975
-0.416029
-0.400945
-0.386672
-0.704879
-0.692897
-0.682574
-0.672019
-0.659864
-0.645725
-0.629508
-0.611423
-0.591934
-0.571616
-0.551021
-0.530603
-0.510695
-0.491509
-0.473165
-0.455711
-0.439151
-0.42346
-0.408584
-0.39445
-0.689821
-0.67874
-0.669187
-0.659648
-0.648967
-0.636749
-0.622766
-0.60703
-0.589814
-0.57155
-0.552713
-0.533737
-0.514974
-0.496675
-0.479007
-0.462062
-0.445882
-0.430474
-0.415818
-0.401843
-0.674965
-0.664816
-0.656
-0.647344
-0.637916
-0.627357
-0.615368
-0.601817
-0.5868
-0.570597
-0.553582
-0.536142
-0.518623
-0.501303
-0.484385
-0.468004
-0.45224
-0.437135
-0.422707
-0.4089
-0.660512
-0.651309
-0.643204
-0.635322
-0.626948
-0.617796
-0.607551
-0.595982
-0.583044
-0.568869
-0.55371
-0.537882
-0.521702
-0.505453
-0.489363
-0.473604
-0.458294
-0.443512
-0.429311
-0.415667
-0.64662
-0.638364
-0.630946
-0.62375
-0.61626
-0.608283
-0.599529
-0.58972
-0.578704
-0.56648
-0.553179
-0.539019
-0.524263
-0.509177
-0.493999
-0.478925
-0.464111
-0.449668
-0.435689
-0.42219
-0.633412
-0.626087
-0.619334
-0.612749
-0.606003
-0.598995
-0.591491
-0.58321
-0.573933
-0.56355
-0.55207
-0.539609
-0.526351
-0.512519
-0.498341
-0.484025
-0.469753
-0.45567
-0.441901
-0.428517
-0.62098
-0.614554
-0.608436
-0.602402
-0.596281
-0.590067
-0.583597
-0.576618
-0.568881
-0.560198
-0.550473
-0.539711
-0.528006
-0.515515
-0.50243
-0.488955
-0.475283
-0.461587
-0.448021
-0.434711
-0.609392
-0.603817
-0.598299
-0.59276
-0.587167
-0.581601
-0.575975
-0.570086
-0.563688
-0.556546
-0.548479
-0.53939
-0.529272
-0.518198
-0.506303
-0.493762
-0.480763
-0.467492
-0.454129
-0.44085
-0.5987
-0.593912
-0.588946
-0.583848
-0.578704
-0.573665
-0.568724
-0.563739
-0.558489
-0.552719
-0.54619
-0.538718
-0.530196
-0.520601
-0.509992
-0.498489
-0.486254
-0.473472
-0.460333
-0.447061
-0.588948
-0.584862
-0.580392
-0.575684
-0.570917
-0.566309
-0.561925
-0.557685
-0.553407
-0.548842
-0.543718
-0.537782
-0.530836
-0.522763
-0.513527
-0.503174
-0.491817
-0.479612
-0.466745
-0.453484
-0.580169
-0.576685
-0.572646
-0.568276
-0.563829
-0.559577
-0.555646
-0.552021
-0.548563
-0.545046
-0.541184
-0.536681
-0.531267
-0.524731
-0.516941
-0.507854
-0.497505
-0.486005
-0.473515
-0.460383
-0.572387
-0.569388
-0.565713
-0.561632
-0.55746
-0.553508
-0.549956
-0.546842
-0.544078
-0.541464
-0.538723
-0.535535
-0.531579
-0.526566
-0.520272
-0.512553
-0.503354
-0.492705
-0.480724
-0.467887
-0.565608
-0.562969
-0.559587
-0.555758
-0.551828
-0.548142
-0.544919
-0.542245
-0.540072
-0.538238
-0.536481
-0.53448
-0.531882
-0.528345
-0.523564
-0.517299
-0.509393
-0.499774
-0.488504
-0.476419
-0.55981
-0.557398
-0.554247
-0.550642
-0.546942
-0.54351
-0.540595
-0.538317
-0.536665
-0.535508
-0.534611
-0.533664
-0.532307
-0.530163
-0.526872
-0.522112
-0.515616
-0.507155
-0.496521
-0.485469
-0.554934
-0.552623
-0.549647
-0.546253
-0.542787
-0.539621
-0.53702
-0.535126
-0.533954
-0.5334
-0.533259
-0.533239
-0.532991
-0.532132
-0.530271
-0.527038
-0.522109
-0.515188
-0.505763
-0.494624
-0.550876
-0.548555
-0.545712
-0.542528
-0.539317
-0.536449
-0.534193
-0.532699
-0.531997
-0.532004
-0.532538
-0.533335
-0.534065
-0.534358
-0.533826
-0.53209
-0.528818
-0.523768
-0.516512
-0.506687
-0.547491
-0.545073
-0.542334
-0.53937
-0.536448
-0.533925
-0.532063
-0.531007
-0.530792
-0.531346
-0.532505
-0.534028
-0.535612
-0.536909
-0.537547
-0.537147
-0.535359
-0.531885
-0.5262
-0.517963
-0.544601
-0.54203
-0.539381
-0.536653
-0.53406
-0.531935
-0.530523
-0.529957
-0.530263
-0.531373
-0.533132
-0.535317
-0.53765
-0.53981
-0.541443
-0.542184
-0.541672
-0.539556
-0.535226
-0.528804
-0.542003
-0.539259
-0.5367
-0.534231
-0.532005
-0.530329
-0.529422
-0.529396
-0.530263
-0.531946
-0.534296
-0.537102
-0.540107
-0.543014
-0.545499
-0.547219
-0.547832
-0.546982
-0.544053
-0.539598
-0.539488
-0.536586
-0.534132
-0.531944
-0.530117
-0.528928
-0.528568
-0.529121
-0.530576
-0.532848
-0.535783
-0.53918
-0.542796
-0.546362
-0.54958
-0.552142
-0.55374
-0.554038
-0.552504
-0.549942
-0.536849
-0.533838
-0.531513
-0.529626
-0.528218
-0.527539
-0.527745
-0.52889
-0.530941
-0.533797
-0.5373
-0.541252
-0.545425
-0.54957
-0.553417
-0.556691
-0.559123
-0.560414
-0.560168
-0.559245
-0.533897
-0.530849
-0.528687
-0.527113
-0.526131
-0.525959
-0.526722
-0.528442
-0.531064
-0.534471
-0.5385
-0.542955
-0.54762
-0.552261
-0.556635
-0.560497
-0.563612
-0.565728
-0.5666
-0.566979
-0.530465
-0.52747
-0.525506
-0.524251
-0.523682
-0.52399
-0.525269
-0.527514
-0.530647
-0.534539
-0.539021
-0.543901
-0.548971
-0.554014
-0.558808
-0.563134
-0.566784
-0.56956
-0.571359
-0.572702
-0.526417
-0.523571
-0.521838
-0.520895
-0.520708
-0.521444
-0.523171
-0.525857
-0.52941
-0.533688
-0.538521
-0.543721
-0.549089
-0.554422
-0.559518
-0.56418
-0.568227
-0.571513
-0.574053
-0.576072
-0.52165
-0.519047
-0.517571
-0.516921
-0.51707
-0.518162
-0.520242
-0.523263
-0.527117
-0.531659
-0.536717
-0.54211
-0.54765
-0.553148
-0.558421
-0.563293
-0.567606
-0.571269
-0.57439
-0.576865
-0.516099
-0.513821
-0.512618
-0.512234
-0.512657
-0.514018
-0.516345
-0.519577
-0.523601
-0.528268
-0.533413
-0.538861
-0.544438
-0.54997
-0.555294
-0.560253
-0.564714
-0.568641
-0.572206
-0.574971
-0.509736
-0.50785
-0.506926
-0.506768
-0.507397
-0.508934
-0.511394
-0.514712
-0.518769
-0.523422
-0.528514
-0.53388
-0.53936
-0.544799
-0.550052
-0.554986
-0.559488
-0.563577
-0.567463
-0.570392
-0.50257
-0.501124
-0.500473
-0.500499
-0.501264
-0.502882
-0.505367
-0.508647
-0.512611
-0.51712
-0.522027
-0.527183
-0.532443
-0.537671
-0.542743
-0.547546
-0.55199
-0.556143
-0.560228
-0.563216
-0.494647
-0.493666
-0.493272
-0.493438
-0.494271
-0.495887
-0.498296
-0.501432
-0.505189
-0.509439
-0.514047
-0.51888
-0.523811
-0.528723
-0.533514
-0.538087
-0.542378
-0.546491
-0.550645
-0.553589
-0.486042
-0.48553
-0.485372
-0.485634
-0.486477
-0.488016
-0.490265
-0.493167
-0.496624
-0.500519
-0.504733
-0.509149
-0.513657
-0.518161
-0.522577
-0.526827
-0.530865
-0.534824
-0.538902
-0.541697
-0.476854
-0.476797
-0.47685
-0.47717
-0.477972
-0.479375
-0.4814
-0.483997
-0.487079
-0.490545
-0.494289
-0.498209
-0.502216
-0.50623
-0.510185
-0.514018
-0.517699
-0.521375
-0.525221
-0.527758
-0.467198
-0.467568
-0.467803
-0.46815
-0.468872
-0.470097
-0.471849
-0.47409
-0.476745
-0.479725
-0.48294
-0.486304
-0.489743
-0.493194
-0.496607
-0.49993
-0.503147
-0.506409
-0.50986
-0.512031
-0.457199
-0.457957
-0.458345
-0.458694
-0.459311
-0.460327
-0.461775
-0.463627
-0.465819
-0.468275
-0.470919
-0.473679
-0.476496
-0.479322
-0.482118
-0.484846
-0.487496
-0.490215
-0.493116
-0.49482
-0.446986
-0.448087
-0.448602
-0.448934
-0.44943
-0.450222
-0.451349
-0.452793
-0.454501
-0.456409
-0.458453
-0.460576
-0.462729
-0.464878
-0.466996
-0.469052
-0.471046
-0.473107
-0.475327
-0.476484
-0.438792
-0.372639
-0.224145
-0.22757
-0.140395
-0.0536923
-0.0883022
-0.156739
-0.110997
-0.0703472
-0.0789982
-0.120826
-0.108993
-0.0812769
-0.0760386
-0.0707223
-0.0777017
-0.0685603
-0.0504648
-0.000456991
-0.4187
-0.370526
-0.2367
-0.229011
-0.139147
-0.0559577
-0.0914312
-0.160253
-0.111666
-0.0696494
-0.075848
-0.116447
-0.106791
-0.0799087
-0.0768613
-0.0729707
-0.079648
-0.0708661
-0.0517392
7.97356e-05
-0.399276
-0.368947
-0.251631
-0.230677
-0.137856
-0.0580277
-0.0945119
-0.16366
-0.112274
-0.068819
-0.0726678
-0.111985
-0.104555
-0.0784548
-0.077541
-0.0750973
-0.0815166
-0.0730931
-0.0529276
0.000618848
-0.38092
-0.367838
-0.268127
-0.232644
-0.136515
-0.0598442
-0.0974956
-0.166908
-0.112822
-0.0678722
-0.0694881
-0.107478
-0.102291
-0.0769219
-0.0780698
-0.0770905
-0.0832959
-0.0752281
-0.0540227
0.00115617
-0.363803
-0.366951
-0.285233
-0.234873
-0.135119
-0.0613548
-0.100335
-0.169937
-0.113312
-0.0668262
-0.0663362
-0.102961
-0.10001
-0.0753168
-0.0784413
-0.0789399
-0.0849741
-0.0772574
-0.0550184
0.00168727
-0.347888
-0.365962
-0.302027
-0.237272
-0.133667
-0.0625148
-0.102984
-0.172684
-0.113745
-0.0656982
-0.0632365
-0.0984667
-0.097718
-0.0736463
-0.0786505
-0.0806359
-0.08654
-0.0791685
-0.0559088
0.00220811
-0.333
-0.364566
-0.317762
-0.239738
-0.132158
-0.0632889
-0.1054
-0.175086
-0.114121
-0.0645055
-0.0602114
-0.0940221
-0.0954228
-0.0719173
-0.0786941
-0.0821701
-0.0879829
-0.0809484
-0.0566881
0.00271418
-0.318905
-0.362539
-0.331923
-0.242178
-0.130596
-0.0636526
-0.107543
-0.17708
-0.114438
-0.0632646
-0.0572802
-0.0896523
-0.0931312
-0.0701366
-0.07857
-0.0835353
-0.0892924
-0.0825854
-0.0573509
0.00320114
-0.305371
-0.359754
-0.344226
-0.244522
-0.128988
-0.0635919
-0.109374
-0.178608
-0.114692
-0.0619914
-0.0544595
-0.0853783
-0.0908493
-0.0683112
-0.078278
-0.0847251
-0.0904591
-0.0840682
-0.0578925
0.00366465
-0.292202
-0.356172
-0.354569
-0.246718
-0.127339
-0.0631028
-0.110857
-0.179619
-0.114877
-0.0607007
-0.051763
-0.0812182
-0.0885832
-0.066448
-0.0778194
-0.085734
-0.0914744
-0.0853866
-0.0583088
0.00410043
-0.279266
-0.35182
-0.362972
-0.248734
-0.125656
-0.0621892
-0.11196
-0.180072
-0.114986
-0.0594059
-0.0492021
-0.0771869
-0.0863383
-0.0645539
-0.0771978
-0.0865578
-0.0923306
-0.0865313
-0.0585963
0.00450422
-0.266511
-0.346768
-0.369538
-0.250564
-0.123967
-0.0608658
-0.112654
-0.179937
-0.115008
-0.0581196
-0.0467856
-0.0732968
-0.0841203
-0.0626361
-0.076416
-0.0871933
-0.0930214
-0.0874943
-0.0587521
0.00487185
-0.253988
-0.34111
-0.374408
-0.252247
-0.122341
-0.0591653
-0.11291
-0.179199
-0.114929
-0.0568527
-0.0445203
-0.0695576
-0.0819341
-0.0607022
-0.0754728
-0.0876382
-0.0935418
-0.0882686
-0.0587741
0.0051992
-0.241867
-0.334953
-0.377738
-0.253818
-0.120835
-0.0571387
-0.112689
-0.177857
-0.114734
-0.055615
-0.0424109
-0.065977
-0.0797813
-0.05876
-0.0743647
-0.0878897
-0.0938884
-0.0888487
-0.0586607
0.00548226
-0.230436
-0.328406
-0.379663
-0.255158
-0.119316
-0.0548193
-0.111984
-0.17593
-0.114404
-0.054415
-0.0404599
-0.0625618
-0.0776605
-0.056815
-0.0731118
-0.0879461
-0.094059
-0.0892305
-0.0584113
0.00571711
-0.220062
-0.321583
-0.380324
-0.255967
-0.117414
-0.0521703
-0.110911
-0.173455
-0.113921
-0.0532596
-0.0386685
-0.0593208
-0.0755804
-0.0548696
-0.0717935
-0.0878168
-0.0940534
-0.0894113
-0.0580258
0.00589989
-0.211107
-0.31461
-0.38003
-0.25646
-0.115266
-0.0491469
-0.109636
-0.170505
-0.113263
-0.0521544
-0.0370353
-0.0562579
-0.0735864
-0.0529326
-0.0704996
-0.0875332
-0.0938769
-0.0893902
-0.0575053
0.00602693
-0.203767
-0.307528
-0.379259
-0.258519
-0.114814
-0.0459957
-0.107757
-0.167244
-0.112409
-0.0511031
-0.0355517
-0.0533401
-0.0717208
-0.0510356
-0.0690511
-0.0871084
-0.0935459
-0.0891721
-0.0568515
0.00609475
-0.197755
-0.300004
-0.377652
-0.263793
-0.118253
-0.0434333
-0.10394
-0.163695
-0.111364
-0.0501164
-0.0342045
-0.050515
-0.0698025
-0.0492034
-0.066698
-0.0864076
-0.0930666
-0.0887649
-0.0560689
0.00609865
-0.192304
-0.292111
-0.372666
-0.265542
-0.120159
-0.041752
-0.0986381
-0.158834
-0.109988
-0.049224
-0.0331474
-0.0480273
-0.0672837
-0.0473221
-0.0629049
-0.0851611
-0.0923703
-0.0881147
-0.0551666
0.00602476
-0.161301
-0.245597
-0.33151
-0.24118
-0.10279
-0.0320231
-0.0729993
-0.118162
-0.0901949
-0.0427838
-0.0314936
-0.0374213
-0.0502574
-0.0353456
-0.0393121
-0.0755143
-0.0868405
-0.0825492
-0.0495237
0.00499777
-0.148866
-0.202794
-0.241491
-0.180144
-0.0579847
0.00896734
-0.019493
-0.0452799
-0.039393
-0.0267893
-0.0282196
-0.0333629
-0.0336012
-0.0133812
-0.00853433
-0.0456648
-0.0637725
-0.0626158
-0.0337808
0.00701491
-0.127844
-0.148054
-0.148729
-0.126072
-0.0595371
0.00956717
0.0250938
0.0249774
0.0113441
-0.0114786
-0.0213256
-0.020488
-0.0106798
-0.000543149
0.00516214
-0.0155929
-0.032758
-0.0324896
-0.0124677
0.00646134
-0.0899203
-0.0996905
-0.108001
-0.0963291
-0.0367667
0.0218202
0.0362799
0.0368785
0.0251916
0.00122143
-0.0119939
-0.00942725
0.00930529
0.0151569
0.021665
0.0118423
-0.00403873
-0.0046279
0.00332501
0.00344081
-0.0622297
-0.074001
-0.0774917
-0.0646233
-0.021778
0.0226951
0.0329458
0.029198
0.0259395
0.0161362
0.00629206
0.00238146
0.0136482
0.0162789
0.0274883
0.0297021
0.0168516
0.0118487
0.0108861
0.00161891
-0.0432917
-0.0526893
-0.0519097
-0.0420506
-0.0140338
0.0155349
0.0255575
0.0271295
0.0297101
0.0221654
0.00939184
0.00709769
0.0198474
0.0230571
0.028835
0.0305903
0.0219154
0.0150871
0.0106939
0.0011313
-0.0282926
-0.0348444
-0.0339561
-0.0296497
-0.0118554
0.012412
0.0248207
0.0256683
0.0240565
0.0205242
0.0151893
0.0139206
0.0216193
0.0235505
0.0265899
0.0277723
0.0213687
0.0146302
0.00984179
0.00211439
-0.0164476
-0.0221233
-0.0232972
-0.0204696
-0.0062536
0.0125683
0.0209826
0.0199099
0.0200044
0.0222585
0.0192855
0.0157268
0.02031
0.0226753
0.0237336
0.0243956
0.0204513
0.0142798
0.00865906
0.00245097
-0.00785613
-0.0134054
-0.0144816
-0.0111925
-0.00179658
0.00999992
0.0163905
0.018007
0.0199112
0.021994
0.019207
0.0157329
0.01912
0.0218193
0.021658
0.0214939
0.0186215
0.0128418
0.00741344
0.00258782
-0.00143554
-0.00618357
-0.00684164
-0.00482591
0.000224468
0.00859628
0.0153674
0.0179904
0.0184233
0.0193434
0.0184665
0.0164853
0.0186992
0.02067
0.0194209
0.0182759
0.0162627
0.0117475
0.00683321
0.00244034
0.00372366
-0.000299242
-0.00142696
-0.000610216
0.00276092
0.0094656
0.014892
0.0163647
0.0162598
0.0178798
0.0188134
0.017108
0.0174423
0.0186156
0.017363
0.0160095
0.0146028
0.0108872
0.00618977
0.00209304
0.00782422
0.00416369
0.00263378
0.00324126
0.00573045
0.0101005
0.0135206
0.014932
0.0158416
0.0175952
0.0182933
0.0163316
0.0159287
0.0171751
0.0163014
0.0145217
0.0128986
0.00971967
0.00561329
0.00190491
0.0110867
0.00774254
0.0061876
0.00656298
0.00781965
0.01025
0.0129238
0.0148498
0.0158396
0.0165248
0.0168637
0.0157375
0.0154395
0.0162846
0.0151873
0.0129641
0.0112681
0.0088278
0.00532345
0.00177421
0.0138181
0.010803
0.00915262
0.00894338
0.00934219
0.0109506
0.0131954
0.0146943
0.0151001
0.0153991
0.0161546
0.0157706
0.0150237
0.014977
0.0138695
0.0118618
0.0103089
0.00824202
0.00498942
0.00157581
0.0162268
0.0133691
0.0114672
0.0107954
0.0108744
0.011895
0.0132795
0.0141604
0.0145954
0.0151135
0.0158237
0.0153476
0.0142014
0.0138392
0.0130954
0.011348
0.00960438
0.00752282
0.0045715
0.00146831
0.0183898
0.0154916
0.0133637
0.0124083
0.0121808
0.012527
0.0132405
0.013984
0.0146057
0.0149429
0.0151292
0.0146297
0.0137174
0.0133471
0.0126234
0.0108133
0.00880656
0.00682602
0.00434164
0.00148474
0.0204067
0.0172815
0.0149355
0.0136761
0.0130994
0.0130324
0.0134597
0.014075
0.0145089
0.0145363
0.014532
0.0142944
0.013602
0.0129415
0.0119813
0.0102434
0.00828721
0.00646294
0.00421882
0.00144886
0.0222554
0.0187388
0.0161237
0.0145792
0.0137944
0.0135583
0.0137498
0.0140582
0.0142632
0.01428
0.0143399
0.0141744
0.013388
0.0124068
0.0114093
0.00996892
0.0081448
0.00625636
0.00400698
0.00135347
0.0238168
0.0197902
0.0169228
0.0152093
0.0143225
0.0139471
0.013905
0.0140173
0.0141862
0.0142428
0.0142127
0.013942
0.0131465
0.0121379
0.0111808
0.00985321
0.00798885
0.00600791
0.00384792
0.00133811
0.0248172
0.020355
0.0173403
0.0155618
0.0146124
0.0141209
0.0139591
0.0140534
0.014257
0.0142415
0.0140321
0.0137132
0.0130795
0.0121821
0.0111565
0.00972033
0.00776119
0.0058223
0.00384346
0.00139176
-0.137785
-0.145292
-0.152594
-0.159735
-0.166764
-0.173735
-0.180706
-0.187738
-0.194891
-0.20222
-0.209755
-0.217496
-0.225349
-0.233126
-0.240371
-0.246526
-0.250498
-0.251798
-0.24927
-0.246303
-0.076966
-0.0800444
-0.0828915
-0.0855025
-0.087873
-0.0899945
-0.0918566
-0.0934484
-0.0947587
-0.0957791
-0.0965047
-0.0969458
-0.0971271
-0.0971242
-0.0970423
-0.0971155
-0.0975748
-0.0989292
-0.101496
-0.106503
-0.0418061
-0.0450914
-0.0483789
-0.0516753
-0.0549897
-0.0583294
-0.0617021
-0.0651159
-0.0685783
-0.0720961
-0.0756736
-0.0793118
-0.0830043
-0.0867346
-0.0904681
-0.0941489
-0.097698
-0.101009
-0.104038
-0.106726
-0.0247411
-0.026876
-0.0289681
-0.0310189
-0.0330314
-0.0350072
-0.0369483
-0.0388565
-0.040734
-0.0425834
-0.0444075
-0.0462101
-0.0479972
-0.0497763
-0.0515625
-0.0533732
-0.055253
-0.0572435
-0.0595185
-0.0622527
-0.011382
-0.0130377
-0.0146914
-0.016345
-0.0180011
-0.019661
-0.0213265
-0.0229992
-0.0246806
-0.026372
-0.0280747
-0.0297891
-0.0315161
-0.0332543
-0.0350042
-0.036759
-0.0385254
-0.0402807
-0.0420927
-0.043924
-0.00347779
-0.0047494
-0.00601703
-0.0072811
-0.00854277
-0.00980258
-0.0110613
-0.0123197
-0.0135789
-0.0148397
-0.0161035
-0.0173712
-0.0186443
-0.0199239
-0.021213
-0.0225109
-0.0238296
-0.0251599
-0.0265676
-0.0280242
0.0028583
0.00187001
0.000881739
-0.000106972
-0.00109706
-0.00208907
-0.0030836
-0.00408134
-0.00508299
-0.00608927
-0.00710091
-0.00811854
-0.00914301
-0.0101746
-0.0112149
-0.0122627
-0.0133242
-0.0143917
-0.0155053
-0.0166406
0.00743747
0.00665201
0.00586762
0.00508421
0.00430134
0.00351885
0.00273652
0.0019541
0.00117128
0.000387741
-0.000396875
-0.0011829
-0.00197081
-0.00276083
-0.00355399
-0.0043497
-0.00515226
-0.00595703
-0.0067926
-0.00764303
0.011031
0.0103991
0.00976813
0.00913803
0.00850846
0.00787926
0.00725025
0.00662123
0.00599202
0.00536241
0.0047322
0.00410123
0.0034693
0.00283635
0.0022019
0.00156654
0.000927709
0.000289027
-0.000368687
-0.00103171
0.0137765
0.0132632
0.0127508
0.0122392
0.0117283
0.0112177
0.0107076
0.0101976
0.00968773
0.00917774
0.00866751
0.00815694
0.00764584
0.00713418
0.0066216
0.00610845
0.00559297
0.00507766
0.00454875
0.00401667
0.0159695
0.0155553
0.0151418
0.0147288
0.0143161
0.0139039
0.0134918
0.0130798
0.0126679
0.0122559
0.0118439
0.0114316
0.0110191
0.0106063
0.0101931
0.00977972
0.0093649
0.00895057
0.00852631
0.00810021
0.0177342
0.0174013
0.0170684
0.0167353
0.0164022
0.0160688
0.0157351
0.0154012
0.015067
0.0147325
0.0143977
0.0140626
0.0137273
0.0133918
0.0130561
0.0127205
0.0123842
0.0120486
0.0117058
0.0113629
0.0192602
0.0189958
0.0187301
0.0184632
0.0181951
0.0179258
0.0176551
0.0173832
0.0171101
0.0168358
0.0165604
0.0162839
0.0160065
0.0157283
0.0154493
0.0151698
0.0148893
0.0146091
0.0143228
0.0140366
0.020653
0.0204456
0.0202355
0.0200226
0.019807
0.0195888
0.0193681
0.0191448
0.0189192
0.0186914
0.0184615
0.0182297
0.0179961
0.017761
0.0175245
0.017287
0.017048
0.0168087
0.0165642
0.0163194
0.022169
0.0220097
0.0218452
0.0216755
0.021501
0.0213217
0.0211379
0.0209499
0.0207578
0.0205619
0.0203626
0.0201602
0.0199548
0.0197469
0.0195366
0.0193245
0.0191102
0.018895
0.0186748
0.0184536
0.0238443
0.0237185
0.0235841
0.0234416
0.0232916
0.0231344
0.0229707
0.0228008
0.0226253
0.0224446
0.0222594
0.02207
0.021877
0.0216808
0.0214818
0.0212806
0.0210771
0.0208725
0.0206635
0.0204534
0.026335
0.0262035
0.0260594
0.0259041
0.0257385
0.0255636
0.0253805
0.0251899
0.0249927
0.0247897
0.0245817
0.0243693
0.0241533
0.0239343
0.0237128
0.0234894
0.0232643
0.0230385
0.0228097
0.0225802
0.0295459
0.0293424
0.0291266
0.0289003
0.0286648
0.0284215
0.0281715
0.0279159
0.0276557
0.0273919
0.0271252
0.0268564
0.0265862
0.0263151
0.0260438
0.0257727
0.0255022
0.0252329
0.0249631
0.0246949
0.0344312
0.0339646
0.0335039
0.0330495
0.0326019
0.0321612
0.0317276
0.0313014
0.0308825
0.0304711
0.0300672
0.029671
0.0292823
0.0289012
0.0285275
0.0281614
0.0278026
0.0274514
0.0271059
0.0267682
0.0397765
0.0389555
0.0381683
0.0374129
0.0366876
0.0359907
0.0353206
0.0346758
0.0340548
0.0334565
0.0328795
0.0323227
0.031785
0.0312654
0.030763
0.0302769
0.0298062
0.0293504
0.0289072
0.0284787
0.0165619
0.0158223
0.0151172
0.0144449
0.0138034
0.013191
0.0126062
0.0120473
0.0115131
0.0110021
0.0105132
0.0100452
0.00959695
0.00916746
0.00875575
0.00836101
0.00798205
0.00761895
0.00726807
0.00693458
0.011131
0.010747
0.0103699
0.00999999
0.00963749
0.00928264
0.00893564
0.00859662
0.00826568
0.00794286
0.00762821
0.00732173
0.00702339
0.00673316
0.00645095
0.0061768
0.00591026
0.00565205
0.00539904
0.00515628
0.00607699
0.00595819
0.00582813
0.0056883
0.00554001
0.00538456
0.00522312
0.00505676
0.00488644
0.00471304
0.00453735
0.00436009
0.00418191
0.0040034
0.00382504
0.00364741
0.00347053
0.0032956
0.00311938
0.00294696
0.00260503
0.00256132
0.00250605
0.00244026
0.00236489
0.00228089
0.0021892
0.00209068
0.00198613
0.00187633
0.00176199
0.00164379
0.00152234
0.00139825
0.00127201
0.00114424
0.00101494
0.000885446
0.000751868
0.00061928
-0.000245589
-0.000279411
-0.000320992
-0.000369915
-0.000425823
-0.000488256
-0.000556747
-0.000630828
-0.000710042
-0.00079393
-0.000882046
-0.000973944