/*--------------------------------*- C++ -*----------------------------------*\
  =========                 |
  \\      /  F ield         | OpenFOAM: The Open Source CFD Toolbox
   \\    /   O peration     | Website:  https://openfoam.org
    \\  /    A nd           | Version:  6.0
     \\/     M anipulation  |
\*---------------------------------------------------------------------------*/
FoamFile
{
    version     2.0;
    format      ascii;
    class       surfaceScalarField;
    location    "65";
    object      phi;
}
// * * * * * * * * * * * * * * * * * * * * * * * * * * * * * * * * * * * * * //

dimensions      [0 3 -1 0 0 0 0];

internalField   nonuniform List<scalar> 
7840
(
-2.25647e-06
3.51615e-05
-3.29051e-05
-8.12266e-06
8.48888e-05
-7.90226e-05
-1.67242e-05
0.000119146
-0.000110545
-2.72496e-05
0.000141612
-0.000131087
-3.89847e-05
0.000155271
-0.000143536
-5.13254e-05
0.000162524
-0.000150183
-6.37812e-05
0.000165245
-0.00015279
-7.59727e-05
0.00016486
-0.000152669
-8.76269e-05
0.000162425
-0.00015077
-9.85709e-05
0.000158707
-0.000147763
-0.000108725
0.000154258
-0.000144104
-0.000118095
0.000149475
-0.000140104
-0.000126767
0.00014465
-0.000135978
-0.000134895
0.000140008
-0.00013188
-0.000142695
0.000135733
-0.000127934
-0.000150431
0.000131989
-0.000124252
-0.000158405
0.000128921
-0.000120947
-0.000166942
0.000126668
-0.000118131
-0.000176381
0.000125384
-0.000115945
0.00012526
-0.000114568
-0.000187073
-2.00852e-06
3.71701e-05
-7.31013e-06
9.01904e-05
-1.51606e-05
0.000126997
-2.48416e-05
0.000151293
-3.57023e-05
0.000166132
-4.71796e-05
0.000174001
-5.88064e-05
0.000176872
-7.02137e-05
0.000176267
-8.11285e-05
0.000173339
-9.13699e-05
0.000168948
-0.000100844
0.000163732
-0.000109539
0.00015817
-0.00011752
0.000152631
-0.00012492
0.000147408
-0.000131937
0.00014275
-0.000138821
0.000138873
-0.00014587
0.000135969
-0.000153413
0.000134211
-0.000161807
0.000133779
0.000134894
-0.000171441
-1.77842e-06
3.89485e-05
-6.54545e-06
9.49574e-05
-1.36729e-05
0.000134124
-2.25264e-05
0.000160147
-3.25126e-05
0.000176118
-4.31036e-05
0.000184592
-5.38499e-05
0.000187619
-6.43853e-05
0.000186803
-7.4428e-05
0.000183382
-8.37783e-05
0.000178298
-9.23169e-05
0.00017227
-0.000100001
0.000165854
-0.000106862
0.000159492
-0.000113004
0.000153549
-0.000118595
0.000148341
-0.00012387
0.000144148
-0.00012912
0.000141219
-0.000134685
0.000139776
-0.000140953
0.000140046
0.000142306
-0.000148364
-1.56402e-06
4.05125e-05
-5.82098e-06
9.92144e-05
-1.22447e-05
0.000140548
-2.02764e-05
0.000168178
-2.93741e-05
0.000185216
-3.90405e-05
0.000194259
-4.88387e-05
0.000197417
-5.83994e-05
0.000196364
-6.74242e-05
0.000192407
-7.56859e-05
0.00018656
-8.30283e-05
0.000179613
-8.93661e-05
0.000172192
-9.46855e-05
0.000164811
-9.90451e-05
0.000157909
-0.000102578
0.000151874
-0.00010549
0.000147061
-0.000108066
0.000143794
-0.00011066
0.00014237
-0.000113698
0.000143085
0.000146302
-0.000117694
-1.3631e-06
4.18756e-05
-5.12866e-06
0.00010298
-1.0859e-05
0.000146278
-1.80623e-05
0.000175382
-2.62433e-05
0.000193397
-3.49316e-05
0.000202947
-4.36996e-05
0.000206185
-5.21711e-05
0.000204835
-6.00258e-05
0.000200262
-6.70017e-05
0.000193536
-7.28965e-05
0.000185508
-7.75708e-05
0.000176866
-8.09518e-05
0.000168192
-8.30401e-05
0.000159997
-8.39164e-05
0.00015275
-8.37504e-05
0.000146895
-8.28084e-05
0.000142852
-8.14587e-05
0.00014102
-8.01785e-05
0.000141805
0.000145695
-7.95719e-05
-1.17359e-06
4.30492e-05
-4.46061e-06
0.000106267
-9.49821e-06
0.000151316
-1.58541e-05
0.000181738
-2.30749e-05
0.000200618
-3.07155e-05
0.000210588
-3.83564e-05
0.000213826
-4.56129e-05
0.000212092
-5.21405e-05
0.000206789
-5.76378e-05
0.000199033
-6.18499e-05
0.00018972
-6.4573e-05
0.000179589
-6.56629e-05
0.000169282
-6.50455e-05
0.00015938
-6.27326e-05
0.000150437
-5.88384e-05
0.000143001
-5.35996e-05
0.000137614
-4.73922e-05
0.000134813
-4.07502e-05
0.000135163
0.000139339
-3.43939e-05
-9.93632e-07
4.40428e-05
-3.80941e-06
0.000109083
-8.14559e-06
0.000155652
-1.36212e-05
0.000187213
-1.98216e-05
0.000206818
-2.63261e-05
0.000217092
-3.2724e-05
0.000220223
-3.86237e-05
0.000217991
-4.36574e-05
0.000211823
-4.74841e-05
0.00020286
-4.97927e-05
0.000192028
-5.03088e-05
0.000180106
-4.88048e-05
0.000167778
-4.51165e-05
0.000155692
-3.91654e-05
0.000144486
-3.09881e-05
0.000134823
-2.07702e-05
0.000127396
-8.88224e-06
0.000122925
4.08252e-06
0.000122198
0.00012616
1.72606e-05
-8.21807e-07
4.48646e-05
-3.16874e-06
0.00011143
-6.78533e-06
0.000159269
-1.13334e-05
0.000191761
-1.64334e-05
0.000211918
-2.16891e-05
0.000222348
-2.67013e-05
0.000225236
-3.1076e-05
0.000222366
-3.44267e-05
0.000215174
-3.63767e-05
0.00020481
-3.65612e-05
0.000192213
-3.4633e-05
0.000178177
-3.02745e-05
0.00016342
-2.32167e-05
0.000148634
-1.32701e-05
0.000134539
-3.65455e-07
0.000121919
1.53923e-05
0.000111638
3.36624e-05
0.000104655
5.37983e-05
0.000102062
0.000105193
7.47653e-05
-6.57302e-07
4.55219e-05
-2.53381e-06
0.000113306
-5.40354e-06
0.000162138
-8.96095e-06
0.000195319
-1.28571e-05
0.000215814
-1.67201e-05
0.000226211
-2.01663e-05
0.000228682
-2.28049e-05
0.000225005
-2.42395e-05
0.000216608
-2.40664e-05
0.000204637
-2.18753e-05
0.000190022
-1.72521e-05
0.000173554
-9.78888e-06
0.000155957
8.95418e-07
0.00013795
1.51204e-05
0.000120314
3.30905e-05
0.000103949
5.48196e-05
8.99088e-05
8.00346e-05
7.94396e-05
0.000108056
7.40406e-05
7.55949e-05
0.000137655
-5.00149e-07
4.60221e-05
-1.90199e-06
0.000114708
-3.98923e-06
0.000164226
-6.47612e-06
0.000197805
-9.03765e-06
0.000218376
-1.13249e-05
0.000228498
-1.29726e-05
0.000230329
-1.36005e-05
0.000225633
-1.28122e-05
0.00021582
-1.01906e-05
0.000202015
-5.29412e-06
0.000185125
2.344e-06
0.000165916
1.32109e-05
0.00014509
2.77968e-05
0.000123364
4.65604e-05
0.000101551
6.98671e-05
8.06418e-05
9.78924e-05
6.18835e-05
0.000130483
4.6849e-05
0.000166969
3.75542e-05
3.6648e-05
0.000205916
-3.51456e-07
4.63735e-05
-1.2734e-06
0.00011563
-2.53535e-06
0.000165488
-3.8547e-06
0.000199125
-4.92027e-06
0.000219441
-5.40168e-06
0.00022898
-4.95233e-06
0.00022988
-3.20801e-06
0.000223888
2.17726e-07
0.000212394
5.74056e-06
0.000196492
1.38134e-05
0.000177052
2.49332e-05
0.000154796
3.96428e-05
0.00013038
5.85225e-05
0.000104484
8.2162e-05
7.79114e-05
0.000111099
5.17047e-05
0.000145708
2.72743e-05
0.00018602
6.5374e-06
0.000231443
-7.86916e-06
-1.22645e-05
0.000280356
-2.13522e-07
4.6587e-05
-6.51167e-07
0.000116068
-1.03928e-06
0.000165876
-1.07715e-06
0.000199163
-4.52742e-07
0.000218817
1.15511e-06
0.000227372
4.07854e-06
0.000226957
8.66516e-06
0.000219302
1.52848e-05
0.000205774
2.43389e-05
0.000187438
3.6271e-05
0.00016512
5.15798e-05
0.000139487
7.08287e-05
0.000111131
9.46498e-05
8.06629e-05
0.00012373
4.88309e-05
0.000158765
1.66704e-05
0.000200343
-1.43041e-05
0.000248739
-4.18588e-05
0.000303539
-6.26686e-05
-7.17227e-05
0.000362997
-8.9646e-08
4.66767e-05
-4.06175e-08
0.000116019
4.98399e-07
0.000165337
1.87248e-06
0.000197789
4.4147e-06
0.000216275
8.45228e-06
0.000223334
1.4314e-05
0.000221095
2.23375e-05
0.000211278
3.28773e-05
0.000195235
4.63138e-05
0.000174002
6.30658e-05
0.000148368
8.36053e-05
0.000118948
0.000108474
8.62623e-05
0.000138301
5.08359e-05
0.000173808
1.33238e-05
0.00021579
-2.5311e-05
0.000265024
-6.35385e-05
0.000322061
-9.88954e-05
0.00038677
-0.000127378
-0.000142372
0.00045742
1.65705e-08
4.66601e-05
5.52898e-07
0.000115482
2.07782e-06
0.000163812
5.0119e-06
0.000194855
9.73484e-06
0.000211552
1.6602e-05
0.000216467
2.59578e-05
0.000211739
3.81459e-05
0.00019909
5.35171e-05
0.000179864
7.24363e-05
0.000155083
9.52921e-05
0.000125512
0.00012251
9.17301e-05
0.000154571
5.42012e-05
0.000192036
1.33706e-05
0.000235574
-3.02142e-05
0.000285975
-7.5712e-05
0.000344114
-0.000121677
0.000410779
-0.00016556
0.000486211
-0.000202811
-0.000225061
0.000568899
1.02564e-07
4.65575e-05
1.12818e-06
0.000114457
3.70751e-06
0.000161232
8.37161e-06
0.00019019
1.55774e-05
0.000204346
2.57365e-05
0.000206308
3.92363e-05
0.000198239
5.64522e-05
0.000181874
7.77544e-05
0.000158561
0.000103511
0.000129326
0.000134091
9.49326e-05
0.000169869
5.59521e-05
0.000211238
1.28317e-05
0.000258635
-3.40258e-05
0.000312573
-8.41525e-05
0.000373697
-0.000136836
0.000442807
-0.000190787
0.000520791
-0.000243544
0.000608258
-0.000290277
-0.00032097
0.000704167
1.68765e-07
4.63888e-05
1.69417e-06
0.000112931
5.41562e-06
0.000157511
1.20122e-05
0.000183594
2.20523e-05
0.000194306
3.60371e-05
0.000192323
5.44304e-05
0.000179846
7.76733e-05
0.000158631
0.000106189
0.000130046
0.000140378
9.51362e-05
0.000180616
5.46949e-05
0.00022724
9.32862e-06
0.000280549
-4.04776e-05
0.000340815
-9.42919e-05
0.000408312
-0.000151649
0.00048338
-0.000211904
0.00056652
-0.000273927
0.000658447
-0.000335471
0.000759952
-0.000391783
-0.000431666
0.000870648
2.20937e-07
4.61678e-05
2.27697e-06
0.000110875
7.26336e-06
0.000152525
1.60455e-05
0.000174812
2.93395e-05
0.000181012
4.77728e-05
0.00017389
7.19226e-05
0.000155696
0.000102334
0.00012822
0.000139519
9.28604e-05
0.000183951
5.07046e-05
0.000236039
2.6066e-06
0.00029611
-5.07423e-05
0.000364381
-0.000108749
0.000440947
-0.000170858
0.000525784
-0.000236486
0.000618803
-0.000304923
0.000719966
-0.000375091
0.00082945
-0.000444954
0.000947767
-0.0005101
-0.000559001
0.0010751
2.72345e-07
4.58955e-05
2.92634e-06
0.000108221
9.35744e-06
0.000146093
2.06547e-05
0.000163514
3.77184e-05
0.000163948
6.1339e-05
0.000150269
9.22445e-05
0.000124791
0.000131119
8.93458e-05
0.0001786
4.53794e-05
0.000235259
-5.95488e-06
0.000301571
-6.37055e-05
0.000377871
-0.000127042
0.00046431
-0.000195187
0.000560808
-0.000267355
0.000667023
-0.000342701
0.000782356
-0.000420257
0.000906053
-0.000498787
0.00103741
-0.00057631
0.00117603
-0.000648718
-0.00070521
0.00132224
3.45104e-07
4.55504e-05
3.71949e-06
0.000104847
1.18572e-05
0.000137956
2.61055e-05
0.000149266
4.75832e-05
0.000142471
7.7278e-05
0.000120574
0.000116099
8.59693e-05
0.000164897
4.05483e-05
0.000224451
-1.41746e-05
0.000295444
-7.69478e-05
0.000378417
-0.000146679
0.000473719
-0.000222344
0.000581442
-0.000302911
0.00070136
-0.000387273
0.000832852
-0.000474193
0.000974839
-0.000562244
0.00112577
-0.000649715
0.00128373
-0.000734272
0.00144679
-0.000811779
-0.000873081
0.00161466
4.70006e-07
4.50804e-05
4.76014e-06
0.000100557
1.49727e-05
0.000127743
3.2742e-05
0.000131497
5.94354e-05
0.000115777
9.62631e-05
8.37465e-05
0.000144333
3.78992e-05
0.000204664
-1.97821e-05
0.000278163
-8.7674e-05
0.000365592
-0.000164377
0.000467512
-0.000248599
0.000584238
-0.000339069
0.000715785
-0.000434458
0.000861836
-0.000533324
0.0010217
-0.000634058
0.00119427
-0.000734815
0.00137792
-0.000833367
0.00157009
-0.000926441
0.00176536
-0.00100705
-0.00105574
0.00194802
6.83737e-07
4.43967e-05
6.17072e-06
9.50697e-05
1.89492e-05
0.000114965
4.0962e-05
0.000109484
7.3844e-05
8.28952e-05
0.000119038
3.85529e-05
0.000177841
-2.0904e-05
0.000251404
-9.33456e-05
0.000340696
-0.000176965
0.000446446
-0.000270127
0.000569098
-0.000371251
0.000708758
-0.00047873
0.000865193
-0.000590893
0.00103785
-0.000705984
0.00122598
-0.000822184
0.00142882
-0.000937653
0.00164602
-0.00105057
0.00187865
-0.00115908
0.00213278
-0.00126117
-0.00134821
0.00242525
1.02783e-06
4.33688e-05
8.08466e-06
8.80129e-05
2.40479e-05
9.90015e-05
5.11782e-05
8.23536e-05
9.13811e-05
4.26923e-05
0.000146316
-1.6382e-05
0.000217424
-9.20119e-05
0.0003059
-0.000181822
0.000412632
-0.000283698
0.000538131
-0.000395626
0.000682468
-0.000515588
0.000845244
-0.000641506
0.0010256
-0.000771245
0.00122226
-0.00090265
0.0014337
-0.00103362
0.00165826
-0.00116221
0.00189445
-0.00128676
0.00214139
-0.00140602
0.00239942
-0.0015192
-0.00161826
0.00266947
1.54e-06
4.18288e-05
1.06249e-05
7.8928e-05
3.05078e-05
7.91187e-05
6.37593e-05
4.91021e-05
0.000112535
-6.08301e-06
0.000178659
-8.25061e-05
0.00026362
-0.000176974
0.000368509
-0.000286711
0.000493927
-0.000409116
0.000639904
-0.000541602
0.00080584
-0.000681524
0.000990505
-0.00082617
0.00119208
-0.000972822
0.00140827
-0.00111884
0.00163645
-0.00126179
0.0018738
-0.00139957
0.00211752
-0.00153048
0.00236489
-0.00165339
0.00261334
-0.00176764
-0.00186664
0.00286172
2.25245e-06
3.95764e-05
1.3894e-05
6.72864e-05
3.85207e-05
5.4492e-05
7.89822e-05
8.64053e-06
0.000137629
-6.47298e-05
0.000216355
-0.000161232
0.000316542
-0.000277161
0.000438961
-0.00040913
0.00058366
-0.000553815
0.000749887
-0.000707829
0.00093607
-0.000867707
0.00113988
-0.00102998
0.00135833
-0.00119128
0.00158802
-0.00134852
0.00182525
-0.00149903
0.0020663
-0.00164062
0.00230757
-0.00177175
0.00254563
-0.00189145
0.00277739
-0.00199939
-0.00209122
0.00300197
3.18798e-06
3.63884e-05
1.79619e-05
5.25125e-05
4.82065e-05
2.42474e-05
9.69901e-05
-4.01431e-05
0.000166762
-0.000134502
0.000259332
-0.000253801
0.000375761
-0.00039359
0.000516226
-0.000549595
0.000679914
-0.000717503
0.000864988
-0.000892903
0.00106865
-0.00107137
0.00128733
-0.00124865
0.00151686
-0.00142081
0.00175284
-0.00158451
0.00199087
-0.00173706
0.0022268
-0.00187655
0.00245689
-0.00200184
0.00267796
-0.00211252
0.00288741
-0.00220884
-0.00228859
0.00308478
4.35894e-06
3.20295e-05
2.28612e-05
3.40103e-05
5.96019e-05
-1.24933e-05
0.000117771
-9.83123e-05
0.000199771
-0.000216501
0.000307115
-0.000361146
0.000440268
-0.000526743
0.000598497
-0.000707825
0.000779816
-0.000898822
0.000981052
-0.00109414
0.00119805
-0.00128837
0.001426
-0.00147659
0.00165977
-0.00165459
0.00189434
-0.00181908
0.00212509
-0.0019678
0.00234802
-0.00209948
0.00255998
-0.00221379
0.0027586
-0.00231115
0.0029424
-0.00239264
-0.00245784
0.00311164
5.76811e-06
2.62614e-05
2.8588e-05
1.11903e-05
7.26594e-05
-5.65647e-05
0.000141155
-0.000166808
0.000236229
-0.000311575
0.00035883
-0.000483746
0.000508501
-0.000676414
0.000683276
-0.0008826
0.000879729
-0.00109527
0.00109321
-0.00130762
0.00131825
-0.00151341
0.00154903
-0.00170737
0.00177985
-0.00188541
0.0020056
-0.00204483
0.00222202
-0.00218421
0.00242586
-0.00230333
0.00261498
-0.00240292
0.00278825
-0.00248442
0.00294541
-0.00254979
-0.00259998
0.00308755
7.41072e-06
1.88507e-05
3.51066e-05
-1.65055e-05
8.72538e-05
-0.000108712
0.000166823
-0.000246378
0.000275463
-0.000420215
0.000413236
-0.000621519
0.000578425
-0.000841604
0.00076754
-0.00107171
0.000975555
-0.00130329
0.00119638
-0.00152845
0.00142347
-0.0017405
0.00165041
-0.00193431
0.00187152
-0.00210652
0.00208216
-0.00225547
0.00227897
-0.00238102
0.00245988
-0.00248424
0.00262402
-0.00256705
0.00277152
-0.00263192
0.00290325
-0.00268153
-0.00271779
0.00302106
9.27641e-06
9.57425e-06
4.23533e-05
-4.95824e-05
0.000103189
-0.000169548
0.000194318
-0.000337507
0.000316575
-0.000542472
0.000468786
-0.00077373
0.000647657
-0.00102047
0.000847971
-0.00127203
0.00106311
-0.00151843
0.00128578
-0.00175112
0.00150879
-0.00196351
0.00172574
-0.00215127
0.00193151
-0.00231229
0.00212247
-0.00244644
0.00229655
-0.0025551
0.00245302
-0.00264071
0.00259228
-0.00270631
0.00271555
-0.00275518
0.00282454
-0.00279052
-0.00281482
0.00292157
1.13503e-05
-1.77603e-06
5.02401e-05
-8.84722e-05
0.000120206
-0.000239513
0.000223059
-0.00044036
0.000358478
-0.000677891
0.000523703
-0.000938955
0.000713615
-0.00121039
0.000921226
-0.00147964
0.00113852
-0.00173573
0.00135744
-0.00197004
0.00157073
-0.0021768
0.00177261
-0.00235314
0.00195902
-0.00249871
0.00212773
-0.00261515
0.00227805
-0.00270542
0.00241056
-0.00277322
0.00252672
-0.00282247
0.0026285
-0.00285697
0.00271813
-0.00288014
-0.00289474
0.00279805
1.36127e-05
-1.53887e-05
5.86536e-05
-0.000133513
0.000137979
-0.000318839
0.000252353
-0.000554735
0.000399932
-0.00082547
0.000576075
-0.0011151
0.00077371
-0.00140802
0.000984222
-0.00169015
0.00119861
-0.00195011
0.0014086
-0.00218003
0.00160753
-0.00237572
0.0017907
-0.00253631
0.00195553
-0.00266354
0.00210124
-0.00276085
0.00222849
-0.00283267
0.00233891
-0.00288364
0.00243469
-0.00291825
0.00251822
-0.0029405
0.00259188
-0.0029538
-0.00296087
0.002658
1.6038e-05
-3.14267e-05
6.74539e-05
-0.000184929
0.000156124
-0.000407509
0.00028141
-0.000680021
0.000439603
-0.000983662
0.000623971
-0.00129947
0.000825542
-0.00160959
0.00103441
-0.00189902
0.00124113
-0.00215684
0.00143788
-0.00237678
0.00161908
-0.00255692
0.00178152
-0.00269876
0.00192416
-0.00280618
0.00204762
-0.00288431
0.00215364
-0.00293868
0.00224458
-0.00297458
0.00232302
-0.00299669
0.00239145
-0.00300893
0.00245215
-0.0030145
-0.00301592
0.0025072
1.8593e-05
-5.00197e-05
7.64726e-05
-0.000242809
0.000174201
-0.000505237
0.000309374
-0.000815194
0.000476129
-0.00115042
0.000665579
-0.00148891
0.000867091
-0.0018111
0.00106997
-0.0021019
0.00126497
-0.00235184
0.00144526
-0.00255708
0.00160675
-0.0027184
0.00174786
-0.00283986
0.001869
-0.00292732
0.00197193
-0.00298725
0.00205917
-0.00302592
0.00213345
-0.00304886
0.00219745
-0.00306068
0.00225354
-0.00306502
0.00230374
-0.0030647
-0.00306197
0.00234979
2.12361e-05
-7.12558e-05
8.55132e-05
-0.000307086
0.000191723
-0.000611447
0.000335354
-0.000958825
0.000508206
-0.00132327
0.000699337
-0.00168005
0.000896871
-0.00200864
0.00108993
-0.00229496
0.00127007
-0.00253197
0.00143188
-0.00271889
0.00157294
-0.00285947
0.00169324
-0.00296016
0.00179443
-0.0030285
0.00187908
-0.0030719
0.00195013
-0.00309697
0.00201042
-0.00310915
0.00206249
-0.00311275
0.00210846
-0.003111
0.00215004
-0.00310628
-0.00310054
0.0021886
2.39166e-05
-9.51724e-05
9.43556e-05
-0.000377525
0.00020818
-0.000725271
0.000358484
-0.00110913
0.000534678
-0.00149946
0.000724048
-0.00186942
0.000914019
-0.00219861
0.00109416
-0.00247509
0.00125729
-0.00269511
0.00139972
-0.00286131
0.00152066
-0.00298041
0.00162146
-0.00306096
0.00170469
-0.00311173
0.00177342
-0.00314064
0.00183072
-0.00315427
0.00187932
-0.00315775
0.0019215
-0.00315493
0.00195905
-0.00314855
0.00199337
-0.0031406
-0.00313267
0.0020255
2.65762e-05
-0.000121749
0.000102764
-0.000453712
0.000223058
-0.000845566
0.000377966
-0.00126404
0.000554613
-0.00167611
0.000738947
-0.00205375
0.000918302
-0.00237796
0.00108324
-0.00264003
0.00122821
-0.00284008
0.00135125
-0.00298435
0.00145309
-0.00308225
0.00153613
-0.003144
0.00160354
-0.00317915
0.0016586
-0.0031957
0.00170428
-0.00319994
0.00174306
-0.00319653
0.0017769
-0.00318876
0.00180727
-0.00317892
0.00183527
-0.00316859
-0.00315906
0.00186166
2.91506e-05
-0.000150899
0.000110497
-0.000535058
0.000235876
-0.000970945
0.00039313
-0.00142129
0.000567363
-0.00185034
0.000743724
-0.00223011
0.000910058
-0.0025443
0.00105835
-0.00278832
0.00118482
-0.00296656
0.00128917
-0.0030887
0.00137335
-0.00316643
0.00144053
-0.00321118
0.00149417
-0.00323279
0.00153752
-0.00323905
0.00157332
-0.00323574
0.00160373
-0.00322694
0.00163037
-0.0032154
0.00165442
-0.00320297
0.00167672
-0.00319089
-0.00318017
0.00169783
3.15725e-05
-0.000182472
0.000117319
-0.000620805
0.000246206
-0.00109983
0.000403466
-0.00157855
0.000572584
-0.00201946
0.0007385
-0.00239603
0.000890083
-0.00269588
0.00102102
-0.00291925
0.00112931
-0.00307485
0.00121608
-0.00317547
0.00128425
-0.0032346
0.00133742
-0.00326435
0.00137912
-0.00327449
0.0014124
-0.00327233
0.00143968
-0.00326303
0.0014628
-0.00325005
0.00148305
-0.00323565
0.00150136
-0.00322128
0.00151836
-0.00320789
-0.00319627
0.00153445
3.37744e-05
-0.000216246
0.000123017
-0.000710047
0.000253703
-0.00123052
0.000408657
-0.00173351
0.00057024
-0.00218104
0.000723758
-0.00254955
0.000859509
-0.00283163
0.00097299
-0.00303273
0.00106386
-0.00316572
0.00113442
-0.00324603
0.00118824
-0.00328842
0.0012291
-0.00330521
0.0012604
-0.00330579
0.00128492
-0.00329684
0.00130472
-0.00328283
0.0013213
-0.00326664
0.00133571
-0.00325006
0.00134865
-0.00323422
0.00136059
-0.00321983
-0.00320751
0.00137183
3.56925e-05
0.000127405
0.00025812
0.000408574
0.00056056
0.000700257
0.000819652
0.000916046
0.000990535
0.00104632
0.00108734
0.00111736
0.00113953
0.00115628
0.00116936
0.00117995
0.00118887
0.00119667
0.0012037
0.00121016
3.45912e-05
0.000208383
0.000123897
0.000683555
0.000251878
0.00118533
0.000400184
0.00167247
0.000551186
0.00210885
0.000691201
0.00247127
0.000812003
0.0027516
0.000910513
0.00295398
0.000987446
0.00308994
0.00104571
0.00317391
0.00108906
0.00321995
0.00112119
0.00324004
0.00114526
0.00324345
0.00116372
0.00323687
0.00117838
0.00322484
0.00119049
0.00321034
0.0012009
0.00319524
0.00121018
0.00318072
0.0012187
0.00316752
0.00315628
0.00122667
3.26601e-05
0.000175723
0.00011935
0.000596865
0.000246952
0.00105773
0.000399225
0.00152019
0.000559224
0.00194885
0.000712534
0.00231796
0.000849341
0.0026148
0.000964801
0.00283852
0.00105817
0.00299657
0.00113139
0.00310068
0.0011878
0.00316354
0.00123106
0.00319679
0.00126452
0.00320999
0.00129098
0.00321041
0.00131256
0.00320326
0.00133082
0.00319209
0.00134684
0.00317922
0.00136137
0.00316619
0.00137491
0.00315398
0.00314343
0.00138776
3.04606e-05
0.000145262
0.000113546
0.00051378
0.000239033
0.000932239
0.000393076
0.00136615
0.000559943
0.00178198
0.000725001
0.0021529
0.000877143
0.00246266
0.00100978
0.00270588
0.00112051
0.00288584
0.00121008
0.00301111
0.0012811
0.00309253
0.00133697
0.00314092
0.00138113
0.00316582
0.00141664
0.00317491
0.00144595
0.00317395
0.00147093
0.0031671
0.00149296
0.00315719
0.001513
0.00314615
0.00153172
0.00313526
0.0031256
0.00154955
2.80558e-05
0.000117206
0.000106673
0.000435163
0.000228388
0.000810525
0.00038191
0.00121263
0.000553182
0.00161071
0.000727922
0.00197816
0.000894151
0.00229643
0.00104369
0.00255634
0.00117241
0.00275712
0.00127958
0.00290394
0.00136681
0.0030053
0.00143699
0.00307074
0.00149344
0.00310937
0.00153935
0.00312899
0.00157748
0.00313583
0.00161002
0.00313456
0.00163866
0.00312856
0.00166463
0.00312018
0.0016888
0.00311108
0.00310261
0.00171179
2.5513e-05
9.16934e-05
9.89488e-05
0.000361727
0.000215376
0.000694098
0.000366086
0.00106192
0.000539055
0.00143774
0.000720913
0.00179631
0.000899337
0.002118
0.00106487
0.0023908
0.0012117
0.00261029
0.00133744
0.0027782
0.00144243
0.00290031
0.00152873
0.00298444
0.00159931
0.00303879
0.00165732
0.00307099
0.00170569
0.00308746
0.00174693
0.00309332
0.00178305
0.00309244
0.00181557
0.00308766
0.00184564
0.00308101
0.00307416
0.0018741
2.28999e-05
6.87935e-05
9.06111e-05
0.000294016
0.000200439
0.00058427
0.000346154
0.000916203
0.000517982
0.00126591
0.000703967
0.00161032
0.000892034
0.00192994
0.0010719
0.00221094
0.00123625
0.00244594
0.00138104
0.00263342
0.00150507
0.00277628
0.0016093
0.0028802
0.00169602
0.00295207
0.00176811
0.0029989
0.00182853
0.00302704
0.00188
0.00304185
0.00192481
0.00304763
0.00196483
0.00304764
0.00200149
0.00304435
0.00303974
0.00203591
2.02807e-05
4.85128e-05
8.19028e-05
0.000232394
0.000184071
0.000482102
0.000322817
0.000777458
0.000490684
0.00109804
0.000677516
0.00142349
0.000872059
0.00173539
0.00106377
0.00201922
0.00124422
0.00226549
0.00140777
0.00246987
0.00155162
0.00263243
0.00167535
0.00275647
0.00178026
0.00284717
0.00186864
0.00291051
0.00194326
0.00295241
0.00200689
0.00297822
0.00206205
0.00299247
0.00211089
0.0029988
0.00215517
0.00300007
0.00299858
0.00219633
1.77144e-05
3.07985e-05
7.3061e-05
0.000177047
0.000166787
0.000388376
0.000296892
0.000647352
0.000458152
0.000936784
0.000642436
0.00123921
0.000839818
0.00153801
0.0010401
0.00181894
0.00123424
0.00207136
0.00141532
0.00228878
0.00157897
0.00246878
0.00172323
0.00261221
0.00184812
0.00272228
0.00195506
0.00280357
0.00204631
0.00286117
0.00212445
0.00290008
0.00219206
0.00292485
0.00225153
0.00293933
0.00230489
0.00294671
0.00294954
0.00235394
1.52527e-05
1.55457e-05
6.43074e-05
0.000127992
0.000149101
0.000303582
0.000269261
0.000527192
0.000421583
0.000784462
0.000600023
0.00106077
0.000796341
0.00134169
0.00100125
0.00161404
0.00120569
0.00186692
0.00140194
0.00209253
0.00158429
0.00228643
0.00174924
0.00244726
0.00189535
0.00257617
0.00202288
0.00267605
0.00213322
0.00275082
0.0022285
0.0028048
0.00231114
0.00284221
0.00238355
0.00286692
0.00244798
0.00288228
0.00289097
0.00250655
1.29394e-05
2.60636e-06
5.58388e-05
8.50929e-05
0.000131497
0.000227924
0.000240808
0.00041788
0.000382296
0.000642974
0.0005519
0.000891164
0.00074325
0.00115034
0.000948413
0.00140887
0.00115892
0.0016564
0.00136682
0.00188463
0.00156548
0.00208778
0.00175006
0.00226268
0.00191766
0.00240857
0.00206713
0.00252657
0.00219877
0.00261919
0.00231387
0.0026897
0.00241439
0.0027417
0.00250255
0.00277877
0.00258061
0.00280421
0.00282066
0.00265092
1.08083e-05
-8.2019e-06
4.78199e-05
4.80812e-05
0.0001144
0.000161344
0.00021237
0.000319911
0.000341635
0.000513709
0.000499893
0.000732905
0.000682646
0.000967588
0.000883597
0.00120792
0.00109537
0.00144464
0.00131036
0.00166964
0.00152158
0.00187655
0.00172327
0.00206099
0.00191123
0.00222061
0.0020829
0.0023549
0.00223725
0.00246484
0.00237449
0.00255245
0.00249575
0.00262044
0.00260274
0.00267177
0.00269749
0.00270946
0.00273579
0.00278236
8.88297e-06
-1.70849e-05
4.03772e-05
1.6587e-05
9.81647e-05
0.000103556
0.00018468
0.000233395
0.000300868
0.000397521
0.000445876
0.000587897
0.000616925
0.000796539
0.000809437
0.00101541
0.00101746
0.00123662
0.00123427
0.00145282
0.00145314
0.00165769
0.00166788
0.00184625
0.00187339
0.00201509
0.00206592
0.00216238
0.00224309
0.00228767
0.00240384
0.00239171
0.0025482
0.00247608
0.00267703
0.00254294
0.00279178
0.00259471
0.00263302
0.00289455
7.17543e-06
-2.42603e-05
3.35938e-05
-9.83132e-06
8.30501e-05
5.40999e-05
0.000158334
0.000158112
0.0002611
0.000294755
0.000391615
0.000457383
0.000548552
0.000639602
0.000728964
0.000834999
0.000928456
0.00103713
0.00114157
0.0012397
0.00136232
0.00143694
0.00158472
0.00162385
0.0018033
0.00179652
0.00201347
0.00195221
0.00221174
0.00208939
0.00239581
0.00220764
0.00256445
0.00230744
0.00271743
0.00238996
0.00285526
0.00245688
0.00250878
0.0029795
5.68505e-06
-2.99453e-05
2.75058e-05
-3.16521e-05
6.9215e-05
1.23906e-05
0.000133751
9.35761e-05
0.000223203
0.000205302
0.000338625
0.000341961
0.000479831
0.000498396
0.00064528
0.00066955
0.000832093
0.000850313
0.00103623
0.00103556
0.00125284
0.00122034
0.00147662
0.00140007
0.00170231
0.00157083
0.00192504
0.00172948
0.00214061
0.00187381
0.00234573
0.00200252
0.00253802
0.00211515
0.00271602
0.00221196
0.00287908
0.00229382
0.00235988
0.00302799
4.39842e-06
-3.43438e-05
2.2102e-05
-4.93556e-05
5.67125e-05
-2.22198e-05
0.000111166
3.91223e-05
0.000187769
0.0001287
0.00028807
0.000241659
0.000412706
0.000373761
0.000561246
0.000521009
0.000732137
0.000679422
0.000922734
0.000844965
0.00112947
0.0010136
0.00134812
0.00118142
0.00157409
0.00134485
0.00180279
0.00150078
0.00202989
0.00164672
0.00225153
0.00178088
0.00246452
0.00190217
0.00266631
0.00201017
0.00285512
0.00210501
0.00218412
0.00303088
3.29029e-06
-3.7634e-05
1.73274e-05
-6.33927e-05
4.54964e-05
-5.03889e-05
9.06336e-05
-6.01494e-06
0.000155098
6.4236e-05
0.000240707
0.00015605
0.000348621
0.000265846
0.000479217
0.000390413
0.000631987
0.000526653
0.000805506
0.000671445
0.000997485
0.000821621
0.00120489
0.000974015
0.00142417
0.00112558
0.00165144
0.00127351
0.00188278
0.00141538
0.00211439
0.00154927
0.00234275
0.00167381
0.0025647
0.00178822
0.00277752
0.0018922
0.00198122
0.00298041
2.32612e-06
-3.99602e-05
1.30923e-05
-7.41589e-05
3.54392e-05
-7.27358e-05
7.20481e-05
-4.26239e-05
0.000125225
1.1059e-05
0.000196883
8.43921e-05
0.000288471
0.000174258
0.000400882
0.000278003
0.000534357
0.000393177
0.000688431
0.000517372
0.000861913
0.000648139
0.00105294
0.000782987
0.00125909
0.000919432
0.0014775
0.00105509
0.0017051
0.00118778
0.0019387
0.00131567
0.00217514
0.00143737
0.00241134
0.00155202
0.00264432
0.00165922
0.00175268
0.00287286
1.46637e-06
-4.14265e-05
9.28654e-06
-8.1979e-05
2.63604e-05
-8.98097e-05
5.51936e-05
-7.14571e-05
9.79784e-05
-3.17257e-05
0.000156606
2.57647e-05
0.000232636
9.8228e-05
0.000327239
0.0001834
0.000441128
0.000279287
0.000574503
0.000383997
0.000727014
0.000495627
0.000897777
0.000612224
0.00108542
0.000731787
0.0012882
0.000852312
0.0015041
0.00097188
0.001731
0.00108876
0.0019668
0.00120157
0.00220947
0.00130935
0.00245693
0.00141176
0.00150224
0.00270738
6.72014e-07
-4.20986e-05
5.79708e-06
-8.71041e-05
1.80621e-05
-0.000102075
3.98007e-05
-9.31956e-05
7.30633e-05
-6.49883e-05
0.000119649
-2.08209e-05
0.000181104
3.67727e-05
0.000258698
0.000105806
0.000353381
0.000184605
0.000465742
0.000271635
0.000595984
0.000365386
0.000743914
0.000464293
0.000908989
0.000566712
0.00109039
0.000670913
0.00128716
0.000775109
0.00149841
0.00087751
0.00172362
0.000976358
0.00196309
0.00106988
0.00221843
0.00115642
0.00123109
0.00248958
-8.96996e-08
-4.20089e-05
2.52653e-06
-8.97203e-05
1.03666e-05
-0.000109915
2.56107e-05
-0.00010844
5.01621e-05
-8.95397e-05
8.56904e-05
-5.63492e-05
0.000133653
-1.11894e-05
0.00019529
4.41681e-05
0.000271612
0.000108283
0.000363368
0.000179879
0.000471029
0.000257725
0.000594778
0.000340544
0.000734537
0.000426953
0.000890036
0.000515413
0.00106097
0.000604179
0.00124725
0.000691221
0.00144957
0.00077404
0.00167051
0.000848941
0.00191821
0.000908716
0.000936971
0.00221233
-8.39621e-07
-4.11692e-05
-5.90298e-07
-8.99696e-05
3.14919e-06
-0.000113654
1.24325e-05
-0.000117723
2.90236e-05
-0.000106131
5.44495e-05
-8.17751e-05
9.00353e-05
-4.67752e-05
0.000136919
-2.71536e-06
0.000196047
4.91543e-05
0.000268162
0.000107765
0.000353775
0.000172112
0.000453147
0.000241172
0.000566271
0.00031383
0.000692853
0.000388831
0.000832304
0.000464728
0.000983693
0.000539833
0.00114561
0.000612117
0.00131559
0.000678969
0.0014876
0.000736707
0.000781352
0.00164322
-1.58619e-06
-3.9583e-05
-3.58075e-06
-8.79751e-05
-3.64553e-06
-0.000113589
1.75812e-07
-0.000121544
9.52363e-06
-0.000115479
2.57844e-05
-9.80359e-05
5.01377e-05
-7.11285e-05
8.35828e-05
-3.61605e-05
0.000126946
5.79069e-06
0.000180874
5.38375e-05
0.000245806
0.000107179
0.000321953
0.000165025
0.000409248
0.000226535
0.000507306
0.000290773
0.000615361
0.000356673
0.000732212
0.000422981
0.000856187
0.000488143
0.000985142
0.000550014
0.0011167
0.000605146
0.000646674
0.00125138
-2.32155e-06
-3.72615e-05
-6.42746e-06
-8.38692e-05
-9.99417e-06
-0.000110023