/*--------------------------------*- C++ -*----------------------------------*\
  =========                 |
  \\      /  F ield         | OpenFOAM: The Open Source CFD Toolbox
   \\    /   O peration     | Website:  https://openfoam.org
    \\  /    A nd           | Version:  6.0
     \\/     M anipulation  |
\*---------------------------------------------------------------------------*/
FoamFile
{
    version     2.0;
    format      ascii;
    class       volScalarField;
    location    "69";
    object      p;
}
// * * * * * * * * * * * * * * * * * * * * * * * * * * * * * * * * * * * * * //

dimensions      [0 2 -2 0 0 0 0];

internalField   nonuniform List<scalar> 
12500
(
-0.471404
-0.47116
-0.470888
-0.470549
-0.470241
-0.470091
-0.470184
-0.470567
-0.471256
-0.472244
-0.473513
-0.475042
-0.476808
-0.47879
-0.480972
-0.483338
-0.485873
-0.488563
-0.491394
-0.494349
-0.497405
-0.500541
-0.503781
-0.507158
-0.5102
-0.46524
-0.465431
-0.465412
-0.465228
-0.465032
-0.464951
-0.465074
-0.465445
-0.466077
-0.466964
-0.468085
-0.46942
-0.470948
-0.47265
-0.474512
-0.476523
-0.478671
-0.480947
-0.483341
-0.48584
-0.488427
-0.491083
-0.493828
-0.496681
-0.499288
-0.458835
-0.459483
-0.459722
-0.459695
-0.459609
-0.459594
-0.459737
-0.460085
-0.460647
-0.461415
-0.462369
-0.463487
-0.464751
-0.466144
-0.467656
-0.469277
-0.471002
-0.472825
-0.47474
-0.476739
-0.478809
-0.480939
-0.483138
-0.485418
-0.487549
-0.452288
-0.453404
-0.453905
-0.454036
-0.454057
-0.454103
-0.454261
-0.454575
-0.455053
-0.455686
-0.456453
-0.457333
-0.458308
-0.459364
-0.460494
-0.461692
-0.462956
-0.464285
-0.465678
-0.467132
-0.468641
-0.470196
-0.471801
-0.473459
-0.475075
-0.445709
-0.447299
-0.448063
-0.448349
-0.448475
-0.448577
-0.448741
-0.449011
-0.449393
-0.449875
-0.450437
-0.451058
-0.45172
-0.452412
-0.453128
-0.453867
-0.454631
-0.455424
-0.45625
-0.457112
-0.45801
-0.458942
-0.459903
-0.460893
-0.461951
-0.43922
-0.44128
-0.442302
-0.442741
-0.442968
-0.44312
-0.443284
-0.4435
-0.443774
-0.444092
-0.444433
-0.444774
-0.445099
-0.445398
-0.445669
-0.445911
-0.446134
-0.446345
-0.446555
-0.446774
-0.447009
-0.447265
-0.44753
-0.447804
-0.448257
-0.432951
-0.435466
-0.436737
-0.437324
-0.437647
-0.437845
-0.438002
-0.438157
-0.438313
-0.438455
-0.438559
-0.438602
-0.438568
-0.438447
-0.438238
-0.437946
-0.437582
-0.437162
-0.436702
-0.43622
-0.435734
-0.435254
-0.434766
-0.434272
-0.434067
-0.427036
-0.429981
-0.431487
-0.432214
-0.432628
-0.432867
-0.433012
-0.4331
-0.433131
-0.433088
-0.432943
-0.432673
-0.432259
-0.431692
-0.430971
-0.430104
-0.429106
-0.428
-0.426809
-0.425562
-0.424287
-0.423003
-0.421695
-0.420376
-0.419456
-0.421608
-0.424944
-0.426667
-0.427524
-0.428024
-0.4283
-0.42843
-0.428448
-0.428352
-0.428118
-0.427718
-0.427124
-0.426315
-0.425279
-0.424015
-0.422533
-0.420852
-0.419
-0.417011
-0.414924
-0.412782
-0.410614
-0.40841
-0.406197
-0.404498
-0.416792
-0.420468
-0.422384
-0.423361
-0.423941
-0.424253
-0.424368
-0.424318
-0.424096
-0.423674
-0.423018
-0.422096
-0.420882
-0.419361
-0.417528
-0.415394
-0.412979
-0.410319
-0.407458
-0.404448
-0.401347
-0.398203
-0.395009
-0.391822
-0.389276
-0.412701
-0.416655
-0.418734
-0.419819
-0.420474
-0.420821
-0.420925
-0.420813
-0.420473
-0.419871
-0.418968
-0.417723
-0.416105
-0.414091
-0.411672
-0.408854
-0.405661
-0.402131
-0.39832
-0.394294
-0.390132
-0.385901
-0.381608
-0.377347
-0.373882
-0.409428
-0.413585
-0.415794
-0.416973
-0.417698
-0.418082
-0.418183
-0.41802
-0.417576
-0.416811
-0.415676
-0.414125
-0.412114
-0.409612
-0.4066
-0.403081
-0.399073
-0.394618
-0.38978
-0.384642
-0.379306
-0.373863
-0.36834
-0.362881
-0.358418
-0.40704
-0.411319
-0.413619
-0.414877
-0.415667
-0.416091
-0.416198
-0.416
-0.415472
-0.414567
-0.413227
-0.411393
-0.409013
-0.406042
-0.402449
-0.398224
-0.393381
-0.38796
-0.382028
-0.375684
-0.369056
-0.362265
-0.35536
-0.348551
-0.342995
-0.405576
-0.409887
-0.412237
-0.413557
-0.414406
-0.414874
-0.414998
-0.414782
-0.414193
-0.413175
-0.411662
-0.409581
-0.406867
-0.403458
-0.399311
-0.394398
-0.388721
-0.382313
-0.375239
-0.367611
-0.359581
-0.351301
-0.342845
-0.334504
-0.327742
-0.40504
-0.409293
-0.411649
-0.41301
-0.41391
-0.414423
-0.414574
-0.414358
-0.413732
-0.412631
-0.410978
-0.40869
-0.405684
-0.401883
-0.397223
-0.391659
-0.385175
-0.377787
-0.369555
-0.360592
-0.35107
-0.341171
-0.330992
-0.320911
-0.312808
-0.405407
-0.409512
-0.411828
-0.413207
-0.414146
-0.414701
-0.414885
-0.414681
-0.414038
-0.412881
-0.411122
-0.408664
-0.40541
-0.401266
-0.396148
-0.389987
-0.382746
-0.374419
-0.365048
-0.354741
-0.343679
-0.332067
-0.320012
-0.307975
-0.298369
-0.406619
-0.41049
-0.412719
-0.414089
-0.415051
-0.41564
-0.415856
-0.415671
-0.415023
-0.413828
-0.411987
-0.409392
-0.40593
-0.401491
-0.395969
-0.389275
-0.381345
-0.372147
-0.361701
-0.350091
-0.337497
-0.324135
-0.310104
-0.295921
-0.284636
-0.408593
-0.412153
-0.414249
-0.41558
-0.41654
-0.417148
-0.417387
-0.417217
-0.416566
-0.41534
-0.413429
-0.410716
-0.407074
-0.402376
-0.396501
-0.389336
-0.380794
-0.370815
-0.359388
-0.34657
-0.332523
-0.317455
-0.301436
-0.284988
-0.271852
-0.411227
-0.414409
-0.416327
-0.417585
-0.418515
-0.419117
-0.41936
-0.41919
-0.418524
-0.41726
-0.415278
-0.41245
-0.40864
-0.403707
-0.397513
-0.389931
-0.380849
-0.370185
-0.357896
-0.344006
-0.328646
-0.312006
-0.294102
-0.275389
-0.260263
-0.414407
-0.417159
-0.418857
-0.420004
-0.420869
-0.421433
-0.42165
-0.421453
-0.420749
-0.419426
-0.417357
-0.414404
-0.410421
-0.405258
-0.398767
-0.390805
-0.381246
-0.369988
-0.356963
-0.342162
-0.325679
-0.307677
-0.288107
-0.267276
-0.250087
-0.418015
-0.4203
-0.421741
-0.422738
-0.423496
-0.423982
-0.424135
-0.423875
-0.4231
-0.421687
-0.419503
-0.416402
-0.41223
-0.406832
-0.40005
-0.391735
-0.381751
-0.369984
-0.356348
-0.340808
-0.323424
-0.304326
-0.283409
-0.260762
-0.241527
-0.421941
-0.423736
-0.424886
-0.425693
-0.426301
-0.426664
-0.426709
-0.426343
-0.425455
-0.423914
-0.42158
-0.418302
-0.413921
-0.408277
-0.401209
-0.392566
-0.382209
-0.370016
-0.355897
-0.339799
-0.321751
-0.301859
-0.279988
-0.255958
-0.234775
-0.426085
-0.427382
-0.428214
-0.428792
-0.429206
-0.429398
-0.429286
-0.428767
-0.427721
-0.426011
-0.423492
-0.420007
-0.415398
-0.409501
-0.402161
-0.393225
-0.382558
-0.370043
-0.355585
-0.33912
-0.320648
-0.300246
-0.277765
-0.252719
-0.229605
-0.430368
-0.431171
-0.431663
-0.431975
-0.43215
-0.432123
-0.431806
-0.431087
-0.429838
-0.42792
-0.425181
-0.421466
-0.416616
-0.410474
-0.402888
-0.393719
-0.382844
-0.370158
-0.355575
-0.339023
-0.320465
-0.2999
-0.27704
-0.250963
-0.22556
-0.434733
-0.435055
-0.435191
-0.435203
-0.435098
-0.434807
-0.434238
-0.433273
-0.431781
-0.429618
-0.426632
-0.422669
-0.417575
-0.411203
-0.403417
-0.394101
-0.38316
-0.370528
-0.356162
-0.340044
-0.322175
-0.302534
-0.280677
-0.255283
-0.229335
-0.439146
-0.439006
-0.438774
-0.438459
-0.438036
-0.437441
-0.436578
-0.435327
-0.433555
-0.431116
-0.42786
-0.423636
-0.4183
-0.41172
-0.403782
-0.394403
-0.383532
-0.371165
-0.357347
-0.342191
-0.325902
-0.308783
-0.291179
-0.274308
-0.264052
-0.443601
-0.443018
-0.442411
-0.441745
-0.440975
-0.44004
-0.438846
-0.437276
-0.435192
-0.432451
-0.428906
-0.424411
-0.418834
-0.412062
-0.404007
-0.39462
-0.383895
-0.371883
-0.358699
-0.344536
-0.32969
-0.314565
-0.299688
-0.286286
-0.278249
-0.448109
-0.447104
-0.446117
-0.445082
-0.443939
-0.442635
-0.441084
-0.439165
-0.436744
-0.433679
-0.429827
-0.425051
-0.419231
-0.412273
-0.404116
-0.394742
-0.384185
-0.372536
-0.359955
-0.346669
-0.33299
-0.319307
-0.30607
-0.294025
-0.285464
-0.452705
-0.451291
-0.449921
-0.448504
-0.446969
-0.445277
-0.443344
-0.441054
-0.438275
-0.434866
-0.430689
-0.425617
-0.419543
-0.412391
-0.404124
-0.394751
-0.384335
-0.372993
-0.3609
-0.348284
-0.335427
-0.322646
-0.310259
-0.298675
-0.289347
-0.457434
-0.455619
-0.453862
-0.452054
-0.450115
-0.448019
-0.445688
-0.44301
-0.439853
-0.436081
-0.431559
-0.42617
-0.419819
-0.41245
-0.404044
-0.394634
-0.384301
-0.373175
-0.361431
-0.349281
-0.336962
-0.324717
-0.312765
-0.301324
-0.291355
-0.462349
-0.460132
-0.457986
-0.45578
-0.45343
-0.45092
-0.44818
-0.445097
-0.441544
-0.437386
-0.432493
-0.426758
-0.420098
-0.412473
-0.403884
-0.394379
-0.384055
-0.373045
-0.361517
-0.349662
-0.337675
-0.325747
-0.31403
-0.302654
-0.292277
-0.467506
-0.46488
-0.462339
-0.459733
-0.456967
-0.454037
-0.450876
-0.447375
-0.443404
-0.438833
-0.433536
-0.427416
-0.420403
-0.412473
-0.403644
-0.393979
-0.383584
-0.372594
-0.361169
-0.349479
-0.33769
-0.325954
-0.314387
-0.303076
-0.292487
-0.472961
-0.469908
-0.466966
-0.463957
-0.460774
-0.457419
-0.453827
-0.449889
-0.445476
-0.440457
-0.434716
-0.428162
-0.420743
-0.41245
-0.403319
-0.393426
-0.382884
-0.371832
-0.360419
-0.348801
-0.337123
-0.32551
-0.314059
-0.302839
-0.29219
-0.478757
-0.475256
-0.471906
-0.468492
-0.46489
-0.461104
-0.457069
-0.452672
-0.447783
-0.442276
-0.436039
-0.428997
-0.421112
-0.412394
-0.402896
-0.392709
-0.381954
-0.37077
-0.359302
-0.347692
-0.336068
-0.324541
-0.313193
-0.302083
-0.291468
-0.484931
-0.480955
-0.477188
-0.473368
-0.469344
-0.465118
-0.460622
-0.455738
-0.450334
-0.444287
-0.437498
-0.429903
-0.421488
-0.412281
-0.402355
-0.391815
-0.380791
-0.369422
-0.357849
-0.346201
-0.334596
-0.323131
-0.311875
-0.300886
-0.290356
-0.491504
-0.487027
-0.482833
-0.478605
-0.474153
-0.469474
-0.464494
-0.459085
-0.453117
-0.446471
-0.439062
-0.430848
-0.421837
-0.41208
-0.401671
-0.390729
-0.379391
-0.367797
-0.356082
-0.344367
-0.332756
-0.321333
-0.310159
-0.299287
-0.288859
-0.498484
-0.493478
-0.488849
-0.484209
-0.47932
-0.47417
-0.468672
-0.462692
-0.4561
-0.448788
-0.440689
-0.431787
-0.422115
-0.411753
-0.400814
-0.38943
-0.377746
-0.365899
-0.354018
-0.342213
-0.330576
-0.319179
-0.308073
-0.297304
-0.286974
-0.505863
-0.500303
-0.495232
-0.490174
-0.484835
-0.479188
-0.47313
-0.466522
-0.459237
-0.451184
-0.442321
-0.432662
-0.422271
-0.411256
-0.399749
-0.387896
-0.375843
-0.363725
-0.351662
-0.339752
-0.328074
-0.316687
-0.305633
-0.294947
-0.2847
-0.513615
-0.507483
-0.501964
-0.496481
-0.490674
-0.484493
-0.477822
-0.470519
-0.462464
-0.45359
-0.443889
-0.433408
-0.422248
-0.410542
-0.398441
-0.386101
-0.373666
-0.361268
-0.349013
-0.336987
-0.325256
-0.313866
-0.302845
-0.292222
-0.282038
-0.521701
-0.514984
-0.509012
-0.503095
-0.496793
-0.490034
-0.482688
-0.474611
-0.465702
-0.455927
-0.445315
-0.433956
-0.421985
-0.409561
-0.396851
-0.384016
-0.371197
-0.358515
-0.346064
-0.333916
-0.322122
-0.310714
-0.299711
-0.28913
-0.27899
-0.530064
-0.522756
-0.516331
-0.509966
-0.503137
-0.495744
-0.487648
-0.478712
-0.468862
-0.458105
-0.446517
-0.434232
-0.42142
-0.408263
-0.39494
-0.381611
-0.368411
-0.355448
-0.342802
-0.330528
-0.318663
-0.307227
-0.296228
-0.285671
-0.27556
-0.538631
-0.530735
-0.523856
-0.517027
-0.50963
-0.501539
-0.492609
-0.482721
-0.471842
-0.460028
-0.447408
-0.434161
-0.42049
-0.406597
-0.392666
-0.378854
-0.365283
-0.352046
-0.339208
-0.326808
-0.314868
-0.303396
-0.29239
-0.281841
-0.271749
-0.547314
-0.53884
-0.53151
-0.524195
-0.51618
-0.507315
-0.49746
-0.486527
-0.474533
-0.461595
-0.447898
-0.433668
-0.419134
-0.404513
-0.389989
-0.375709
-0.361782
-0.348283
-0.33526
-0.322736
-0.310719
-0.299207
-0.288186
-0.277636
-0.267557
-0.556007
-0.546975
-0.539196
-0.531369
-0.522677
-0.512955
-0.50208
-0.490007
-0.47682
-0.462703
-0.4479
-0.432678
-0.41729
-0.40196
-0.386866
-0.372141
-0.357876
-0.34413
-0.330931
-0.318288
-0.306196
-0.294642
-0.283604
-0.273046
-0.262978
-0.56459
-0.555026
-0.546801
-0.53843
-0.528997
-0.518328
-0.506334
-0.493034
-0.478587
-0.463251
-0.447328
-0.43112
-0.4149
-0.398888
-0.383253
-0.36811
-0.353531
-0.339555
-0.326192
-0.313439
-0.301277
-0.289683
-0.278628
-0.26806
-0.258007
-0.572928
-0.562866
-0.554197
-0.545244
-0.534997
-0.523289
-0.510082
-0.495476
-0.479717
-0.463138
-0.446096
-0.428925
-0.411903
-0.395247
-0.379106
-0.363576
-0.348709
-0.334523
-0.321013
-0.30816
-0.295936
-0.284308
-0.273239
-0.262663
-0.252634
-0.580872
-0.570351
-0.561239
-0.551661
-0.540524
-0.527684
-0.513178
-0.497201
-0.480093
-0.462266
-0.444125
-0.426025
-0.408245
-0.390987
-0.374381
-0.3585
-0.343373
-0.329001
-0.315361
-0.302423
-0.290147
-0.278495
-0.267419
-0.25684
-0.246846
-0.588259
-0.577325
-0.567771
-0.557521
-0.545414
-0.531355
-0.515474
-0.498077
-0.479606
-0.460544
-0.441339
-0.422356
-0.403869
-0.386059
-0.369033
-0.352839
-0.337484
-0.322951
-0.309203
-0.296196
-0.283884
-0.27222
-0.261147
-0.250575
-0.240629
-0.594918
-0.583623
-0.573624
-0.562652
-0.549498
-0.534139
-0.516823
-0.497978
-0.478148
-0.457884
-0.437665
-0.417859
-0.398723
-0.380416
-0.363018
-0.346552
-0.331005
-0.316339
-0.302507
-0.289452
-0.277119
-0.265459
-0.254403
-0.24385
-0.23397
-0.600672
-0.589069
-0.578622
-0.566875
-0.552602
-0.535876
-0.517083
-0.496783
-0.475621
-0.454206
-0.433036
-0.412474
-0.392756
-0.374012
-0.356294
-0.3396
-0.323896
-0.30913
-0.29524
-0.28216
-0.269829
-0.25819
-0.247167
-0.236648
-0.226855
-0.605337
-0.593483
-0.582584
-0.570012
-0.554554
-0.53641
-0.51612
-0.494381
-0.471933
-0.449433
-0.42739
-0.40615
-0.385921
-0.366803
-0.348819
-0.331944
-0.316124
-0.301292
-0.287373
-0.274295
-0.261988
-0.250392
-0.239422
-0.228954
-0.219269
-0.608727
-0.59668
-0.585323
-0.57188
-0.555185
-0.535591
-0.513806
-0.490667
-0.467001
-0.4435
-0.42067
-0.398835
-0.378172
-0.358746
-0.340555
-0.323548
-0.307655
-0.292793
-0.278878
-0.26583
-0.253574
-0.242046
-0.231149
-0.220753
-0.2112
-0.610658
-0.598479
-0.586661
-0.572305
-0.554335
-0.53328
-0.510028
-0.485552
-0.460753
-0.436346
-0.412825
-0.390485
-0.369467
-0.349805
-0.331466
-0.31438
-0.298458
-0.283606
-0.269731
-0.256745
-0.244569
-0.233134
-0.222335
-0.212035
-0.202639
-0.610954
-0.598701
-0.586419
-0.57112
-0.551854
-0.52935
-0.504683
-0.478952
-0.453122
-0.427917
-0.40381
-0.381061
-0.359772
-0.339945
-0.321521
-0.304409
-0.288506
-0.273707
-0.25991
-0.24702
-0.234956
-0.223644
-0.212968
-0.202788
-0.193577
-0.609445
-0.597178
-0.584432
-0.568169
-0.547606
-0.52369
-0.497683
-0.470801
-0.444056
-0.418171
-0.393587
-0.370526
-0.349052
-0.329136
-0.310692
-0.293612
-0.277778
-0.263076
-0.249397
-0.236641
-0.224722
-0.213564
-0.20304
-0.193008
-0.18401
-0.605971
-0.593749
-0.580545
-0.563311
-0.541471
-0.516204
-0.488953
-0.46104
-0.433509
-0.407069
-0.382123
-0.358852
-0.337283
-0.317354
-0.298957
-0.281967
-0.266255
-0.251697
-0.238179
-0.225595
-0.213859
-0.202888
-0.192546
-0.18269
-0.173936
-0.600391
-0.588271
-0.574618
-0.556422
-0.533347
-0.506813
-0.478436
-0.449628
-0.421449
-0.394584
-0.369395
-0.346018
-0.324443
-0.304579
-0.286298
-0.26946
-0.253924
-0.239559
-0.226247
-0.213877
-0.202361
-0.191613
-0.181485
-0.171837
-0.163357
-0.592576
-0.580614
-0.566531
-0.547398
-0.523151
-0.495454
-0.466087
-0.436531
-0.407851
-0.380696
-0.355385
-0.332007
-0.310517
-0.290799
-0.272704
-0.256079
-0.240775
-0.226656
-0.213596
-0.201484
-0.190228
-0.179739
-0.16986
-0.160453
-0.152277
-0.582421
-0.570672
-0.556183
-0.536154
-0.51082
-0.482086
-0.451879
-0.421733
-0.392703
-0.365397
-0.340083
-0.31681
-0.295498
-0.276005
-0.258168
-0.24182
-0.226807
-0.212985
-0.200226
-0.188417
-0.177463
-0.167273
-0.157679
-0.148546
-0.140707
-0.56984
-0.558357
-0.543495
-0.522628
-0.496312
-0.466684
-0.435799
-0.405228
-0.376002
-0.348683
-0.323489
-0.300426
-0.279383
-0.260197
-0.242689
-0.226684
-0.21202
-0.198551
-0.186143
-0.174683
-0.164075
-0.154224
-0.144952
-0.13613
-0.12866
-0.55477
-0.543605
-0.528413
-0.506783
-0.479606
-0.449241
-0.41785
-0.387023
-0.357758
-0.330565
-0.30561
-0.282862
-0.262179
-0.24338
-0.226274
-0.210677
-0.196422
-0.18336
-0.171356
-0.160293
-0.150075
-0.140605
-0.131695
-0.123222
-0.116153
-0.537173
-0.526377
-0.510905
-0.488602
-0.460702
-0.429768
-0.39805
-0.367139
-0.33799
-0.311058
-0.286461
-0.264129
-0.243897
-0.225566
-0.208933
-0.19381
-0.180025
-0.167426
-0.155878
-0.145261
-0.135481
-0.126436
-0.117929
-0.109844
-0.103209
-0.517034
-0.506657
-0.490964
-0.468093
-0.439621
-0.408296
-0.376432
-0.345607
-0.316728
-0.290189
-0.266065
-0.24425
-0.224556
-0.20677
-0.190682
-0.176098
-0.162844
-0.150766
-0.139726
-0.129607
-0.120312
-0.111736
-0.103676
-0.0960224
-0.0898539
-0.494366
-0.484456
-0.468611
-0.445287
-0.416404
-0.38487
-0.353043
-0.322474
-0.294011
-0.267996
-0.244455
-0.223253
-0.204182
-0.187018
-0.171544
-0.157564
-0.1449
-0.133399
-0.122922
-0.113351
-0.10459
-0.0965323
-0.0889655
-0.0817859
-0.0761171
-0.469205
-0.45981
-0.443886
-0.420237
-0.391111
-0.359554
-0.327944
-0.297795
-0.269892
-0.244522
-0.22167
-0.201172
-0.182805
-0.166337
-0.151544
-0.13823
-0.126216
-0.115347
-0.105487
-0.0965164
-0.0883408
-0.0808505
-0.0738263
-0.0671682
-0.0620319
-0.441614
-0.432778
-0.416858
-0.393018
-0.363822
-0.332426
-0.301211
-0.271639
-0.244433
-0.219823
-0.197759
-0.178052
-0.160466
-0.144761
-0.130713
-0.118124
-0.106816
-0.0966356
-0.0874455
-0.0791287
-0.0715906
-0.0647199
-0.0582917
-0.0522066
-0.0476384
-0.411677
-0.403446
-0.387614
-0.363724
-0.334633
-0.303581
-0.272931
-0.244086
-0.217704
-0.193964
-0.172779
-0.153942
-0.137206
-0.122329
-0.109085
-0.0972764
-0.0867283
-0.0772881
-0.0688206
-0.0612104
-0.0543639
-0.0481686
-0.0423954
-0.0369424
-0.0329859
-0.379504
-0.371919
-0.356267
-0.33247
-0.303659
-0.273128
-0.243206
-0.215228
-0.189789
-0.167017
-0.146795
-0.1289
-0.113079
-0.0990852
-0.0866973
-0.0757189
-0.0659789
-0.0573275
-0.0496326
-0.0427812
-0.0366811
-0.03122
-0.0261682
-0.0214188
-0.018127
-0.345226
-0.338328
-0.322947
-0.299389
-0.271028
-0.241188
-0.212147
-0.185168
-0.16078
-0.139067
-0.119883
-0.102994
-0.0881406
-0.0750794
-0.0635912
-0.0534847
-0.0445937
-0.0367733
-0.029896
-0.0238525
-0.0185534
-0.0138887
-0.00963393
-0.00567263
-0.00309608
-0.308993
-0.30282
-0.287804
-0.264629
-0.236884
-0.207897
-0.17988
-0.15402
-0.130782
-0.110207
-0.0921274
-0.0762974
-0.0624577
-0.0503673
-0.0398124
-0.0306085
-0.0225964
-0.0156385
-0.00961439
-0.00442085
2.68034e-05
0.00383138
0.0072058
0.0102888
0.012118
-0.270976
-0.265564
-0.251004
-0.228354
-0.201385
-0.173402
-0.146541
-0.121908
-0.0999075
-0.0805412
-0.063622
-0.0488962
-0.0361054
-0.0250132
-0.0154133
-0.00712937
-1.15557e-05
0.006068
0.0112194
0.0155359
0.0190935
0.0219826
0.0243972
0.0265093
0.0275342
-0.23136
-0.226741
-0.212731
-0.190742
-0.164699
-0.137861
-0.112275
-0.0889679
-0.0682824
-0.0501855
-0.0344732
-0.0208867
-0.00916988
0.000907625
0.00954378
0.016905
0.0231298
0.0283333
0.0326108
0.0360399
0.0386846
0.0406182
0.0419941
0.0429775
0.042958
-0.190347
-0.18655
-0.173177
-0.151981
-0.127004
-0.10144
-0.0772386
-0.0553435
-0.036041
-0.0192654
-0.0047982
0.00762245
0.0182498
0.0273078
0.0349855
0.0414388
0.0467928
0.0511458
0.05457
0.0571182
0.0588362
0.0597652
0.059936
0.0593697
0.0577535
-0.14815
-0.1452
-0.132549
-0.112268
-0.0884873
-0.0643142
-0.0415944
-0.021188
-0.00332727
0.0120829
0.0252735
0.0365088
0.0460391
0.0540832
0.0608234
0.0664068
0.0709476
0.074526
0.0771864
0.0789486
0.0798296
0.0797835
0.0785241
0.0757274
0.0719837
-0.104994
-0.102912
-0.0910614
-0.0718101
-0.0493435
-0.0266657
-0.00551242
0.0133386
0.0297066
0.0437135
0.0556005
0.065634
0.0740625
0.0811017
0.0869317
0.0916985
0.0955161
0.0984628
0.100578
0.101884
0.102408
0.102001
0.0999054
0.0954143
0.0907328
-0.0611098
-0.0599125
-0.0489353
-0.0308174
-0.00977061
0.01132
0.0308331
0.0480716
0.0629032
0.0754734
0.0860323
0.094847
0.102164
0.108198
0.113129
0.117108
0.120258
0.122678
0.124444
0.125651
0.126453
0.126786
0.12571
0.122712
0.125195
-0.0167291
-0.0164307
-0.00639354
0.0104969
0.0300308
0.0494552
0.0672655
0.0828437
0.0961022
0.107207
0.116415
0.123993
0.130184
0.1352
0.139219
0.142393
0.144852
0.1467
0.148035
0.148983
0.149708
0.150181
0.14988
0.14928
0.154088
0.0279068
0.0272968
0.0363354
0.0519165
0.0698582
0.0875509
0.103608
0.117488
0.129144
0.138761
0.146598
0.152921
0.157969
0.161949
0.165037
0.167384
0.169119
0.170352
0.171188
0.171752
0.172186
0.172455
0.172195
0.171951
0.176221
0.0725567
0.0710335
0.0790236
0.093226
0.109511
0.12542
0.139686
0.15184
0.161873
0.169984
0.176435
0.181487
0.185374
0.188297
0.190427
0.19191
0.192872
0.193422
0.193662
0.193711
0.193694
0.193583
0.193077
0.192612
0.195858
0.11698
0.114544
0.121444
0.134212
0.148789
0.162878
0.175327
0.185738
0.194136
0.200732
0.205788
0.209559
0.212271
0.214119
0.215266
0.215852
0.215997
0.215803
0.215364
0.214786
0.214174
0.213494
0.21247
0.211508
0.213782
0.160939
0.157594
0.163374
0.174664
0.187499
0.199744
0.210365
0.219027
0.225788
0.230868
0.234526
0.237011
0.238542
0.239303
0.23945
0.239115
0.23841
0.237428
0.236256
0.234984
0.233702
0.232361
0.230711
0.22915
0.230483
0.2042
0.199955
0.204592
0.214377
0.22545
0.235843
0.244636
0.251556
0.256689
0.26026
0.262528
0.263732
0.264081
0.263752
0.262891
0.261622
0.260046
0.258251
0.25631
0.254307
0.25231
0.250266
0.24795
0.245761
0.246196
0.246532
0.241401
0.244886
0.253149
0.262457
0.271005
0.277984
0.283181
0.286704
0.288786
0.289679
0.289615
0.288793
0.28738
0.285513
0.283307
0.280856
0.278237
0.275517
0.272766
0.270044
0.267289
0.264303
0.261488
0.261064
0.287713
0.281715
0.284045
0.290789
0.298341
0.305066
0.310259
0.313763
0.315707
0.316327
0.315871
0.314561
0.312587
0.310106
0.307246
0.304113
0.300793
0.297355
0.293858
0.290364
0.28692
0.283466
0.279828
0.276401
0.275156
0.327528
0.320686
0.321871
0.327108
0.332931
0.337868
0.341317
0.343169
0.343575
0.342772
0.341002
0.338478
0.33538
0.331856
0.328025
0.323984
0.319812
0.315571
0.311312
0.307091
0.302944
0.298813
0.294549
0.290532
0.288501
0.365769
0.35811
0.35817
0.361929
0.366063
0.369262
0.371018
0.371272
0.370191
0.368014
0.364973
0.361275
0.35709
0.352556
0.347785
0.342865
0.337867
0.332847
0.327852
0.322927
0.318105
0.313326
0.308467
0.303886
0.301105
0.402237
0.393794
0.392759
0.39508
0.39758
0.399103
0.399233
0.397953
0.395446
0.39195
0.387692
0.382869
0.377641
0.372138
0.366464
0.3607
0.354911
0.349145
0.343444
0.337847
0.33238
0.326989
0.321569
0.316452
0.312956
0.436745
0.427554
0.425463
0.4264
0.427334
0.427255
0.425835
0.423097
0.419234
0.414484
0.409069
0.403176
0.396958
0.390534
0.384002
0.377436
0.370894
0.36442
0.35805
0.351818
0.345743
0.339777
0.333831
0.328208
0.324034
0.469113
0.459216
0.456117
0.455736
0.455184
0.453592
0.450709
0.446594
0.441455
0.435525
0.429021
0.422121
0.414969
0.407679
0.40034
0.393019
0.385769
0.37863
0.371631
0.364803
0.35816
0.351658
0.345224
0.339127
0.334315
0.499176
0.488617
0.484568
0.482947
0.481001
0.477991
0.473743
0.468345
0.462015
0.454986
0.447467
0.439629
0.431608
0.42351
0.415419
0.407395
0.399487
0.391728
0.384147
0.376766
0.369597
0.3626
0.355717
0.349178
0.34377
0.526777
0.515606
0.510673
0.507899
0.504662
0.500343
0.494834
0.488254
0.480827
0.472786
0.464332
0.45563
0.446809
0.437968
0.429184
0.420514
0.412
0.403673
0.395555
0.387667
0.380016
0.372568
0.365274
0.35833
0.35237
0.551774
0.540044
0.5343
0.53047
0.526054
0.520544
0.513888
0.506234
0.497811
0.48885
0.479547
0.47006
0.460512
0.450996
0.441584
0.432327
0.423263
0.41442
0.405817
0.39747
0.389382
0.381526
0.373863
0.366549
0.360086
0.574036
0.561803
0.555328
0.550551
0.545078
0.538499
0.530819
0.522204
0.512891
0.503108
0.493047
0.482859
0.472662
0.462543
0.452569
0.442788
0.433234
0.423931
0.414895
0.406138
0.397662
0.389444
0.381452
0.373807
0.366891
0.593446
0.58077
0.573651
0.56804
0.561639
0.554126
0.545548
0.536092
0.526001
0.515499
0.504775
0.493974
0.483208
0.472562
0.462096
0.451857
0.441874
0.432168
0.422753
0.413638
0.404823
0.396289
0.388011
0.380076
0.37276
0.609902
0.596843
0.589174
0.58285
0.575659
0.567348
0.558006
0.547835
0.537081
0.525968
0.514678
0.503355
0.492105
0.481009
0.470125
0.459495
0.449146
0.439098
0.42936
0.41994
0.410837
0.402034
0.393513
0.385329
0.377671
0.623313
0.609937
0.601813
0.594905
0.587066
0.578103
0.568135
0.557378
0.54608
0.534465
0.522712
0.51096
0.499313
0.487848
0.476621
0.46567
0.455021
0.444691
0.434688
0.425018
0.415678
0.406655
0.397934
0.389545
0.381604
0.633604
0.619978
0.611502
0.604142
0.595801
0.586334
0.575883
0.564673
0.552955
0.540951
0.528839
0.516755
0.5048
0.493048
0.481554
0.470353
0.459471
0.448922
0.438714
0.428849
0.419324
0.410131
0.401255
0.392705
0.384542
0.640716
0.626908
0.618183
0.610508
0.601818
0.591999
0.58121
0.569683
0.55767
0.545393
0.533028
0.52071
0.508537
0.496583
0.4849
0.473524
0.462476
0.451772
0.441418
0.431415
0.42176
0.412445
0.403459
0.394794
0.386472
0.644602
0.630681
0.621815
0.613965
0.605081
0.595065
0.584086
0.572379
0.560199
0.547767
0.535257
0.522804
0.510506
0.498435
0.486642
0.475163
0.46402
0.453225
0.442786
0.432702
0.42297
0.413584
0.404533
0.3958
0.387384
0.645232
0.631269
0.622371
0.614488
0.605566
0.59551
0.58449
0.572743
0.560524
0.548055
0.535509
0.523022
0.510691
0.49859
0.486768
0.475261
0.464091
0.453271
0.442808
0.432701
0.422947
0.413541
0.404471
0.395716
0.387272
0.642591
0.628657
0.619836
0.612062
0.60326
0.593322
0.582413
0.570766
0.558638
0.546249
0.533778
0.521358
0.509088
0.497042
0.485272
0.473812
0.462685
0.451906
0.44148
0.431408
0.421687
0.412311
0.403268
0.39454
0.386133
0.636679
0.622844
0.614211
0.606689
0.598164
0.588502
0.577853
0.566447
0.554538
0.542351
0.530063
0.517811
0.505696
0.493792
0.482154
0.470816
0.459803
0.449129
0.438802
0.428823
0.41919
0.409896
0.400925
0.39227
0.383967
0.627512
0.613846
0.605508
0.59838
0.59029
0.581061
0.570821
0.559795
0.548236
0.536368
0.524373
0.512389
0.500522
0.488847
0.47742
0.466279
0.45545
0.444947
0.43478
0.424953
0.415462
0.4063
0.397448
0.388913
0.380778
0.615119
0.601692
0.593756
0.587162
0.579661
0.57102
0.561339
0.550831
0.539748
0.528317
0.516722
0.505108
0.49358
0.48222
0.471084
0.460214
0.449637
0.439371
0.429426
0.419806
0.410512
0.401532
0.392844
0.384477
0.376575
0.599546
0.586426
0.578997
0.573073
0.566313
0.558412
0.549435
0.539582
0.529101
0.518223
0.507136
0.495988
0.484892
0.473931
0.463165
0.452639
0.442383
0.432417
0.422753
0.413398
0.404355
0.395607
0.387129
0.378975
0.371367
0.580855
0.568107
0.561286
0.556164
0.550293
0.543281
0.535151
0.526086
0.51633
0.506119
0.495644
0.485061
0.474485
0.464005
0.453686
0.443576
0.433709
0.424105
0.414782
0.405749
0.397009
0.388543
0.380319
0.372422
0.365171
0.559119
0.546809
0.540691
0.5365
0.53166
0.525682
0.518537
0.510389
0.50148
0.492045
0.482285
0.47236
0.462392
0.452474
0.442678
0.433055
0.423641
0.414463
0.405538
0.396881
0.388497
0.380361
0.372435
0.364839
0.358002
0.534429
0.522617
0.517296
0.514155
0.510483
0.505677
0.499653
0.492548
0.484601
0.476051
0.467104
0.457928
0.448653
0.439377
0.430176
0.421107
0.412212
0.403518
0.395049
0.386822
0.378844
0.371087
0.363503
0.356248
0.349883
0.506889
0.495634
0.491194
0.489218
0.486844
0.483343
0.478566
0.472626
0.465752
0.45819
0.450153
0.441815
0.433313
0.424754
0.41622
0.407772
0.399457
0.391307
0.383348
0.375603
0.368081
0.360749
0.35355
0.346678
0.340836
0.476616
0.465974
0.462494
0.461789
0.460833
0.458764
0.455356
0.450694
0.445002
0.438527
0.43149
0.424074
0.416424
0.408655
0.400855
0.393091
0.385415
0.377865
0.370469
0.363256
0.35624
0.349379
0.342606
0.336155
0.330887
0.443741
0.433763
0.431316
0.431979
0.432555
0.432032
0.430109
0.426834
0.422424
0.417129
0.411178
0.404764
0.398041
0.391131
0.384129
0.37711
0.37013
0.363233
0.356452
0.34982
0.343354
0.33701
0.330705
0.324711
0.320064
0.408409
0.399143
0.397792
0.39991
0.402119
0.403252
0.402919
0.401133
0.398099
0.394072
0.389289
0.383951
0.378224
0.372237
0.366094
0.359876
0.353646
0.347452
0.341334
0.335329
0.329461
0.323676
0.317879
0.312379
0.308395
0.370775
0.362265
0.362067
0.365715
0.369649
0.372535
0.37389
0.373685
0.372115
0.369436
0.365895
0.361704
0.357037
0.352033
0.346805
0.341441
0.33601
0.330568
0.325157
0.319823
0.314594
0.309412
0.304162
0.299188
0.295911
0.331008
0.323294
0.324295
0.329538
0.335277
0.340002
0.343131
0.344592
0.344565
0.343308
0.341078
0.338096
0.334547
0.330581
0.326318
0.321855
0.31727
0.312621
0.307961
0.303338
0.298789
0.29425
0.289586
0.285171
0.282638
0.289288
0.282405
0.284641
0.291531
0.299141
0.305781
0.310762
0.313963
0.315549
0.31578
0.314921
0.313204
0.310825
0.307944
0.304692
0.301173
0.297472
0.293657
0.289783
0.285909
0.282076
0.278219
0.274179
0.270353
0.268601
0.245805
0.239785
0.243284
0.251858
0.261393
0.270009
0.276907
0.281912
0.285173
0.286949
0.287513
0.287109
0.285945
0.28419
0.281986
0.279446
0.276664
0.273713
0.270658
0.267565
0.264482
0.261342
0.257961
0.254752
0.253818
0.200762
0.19563
0.200407
0.210692
0.222191
0.232831
0.241699
0.248562
0.253547
0.256916
0.258947
0.259897
0.259983
0.259388
0.258262
0.256729
0.25489
0.252829
0.250617
0.248328
0.246023
0.243632
0.240942
0.238378
0.238296
0.154369
0.150146
0.156208
0.168214
0.1817
0.194399
0.205276
0.214039
0.22079
0.225789
0.229322
0.231655
0.233019
0.233607
0.23358
0.233072
0.232194
0.231038
0.229683
0.228215
0.226704
0.225086
0.223115
0.221219
0.222027
0.106846
0.103549
0.110891
0.124613
0.140094
0.154873
0.167787
0.178478
0.187025
0.193681
0.19874
0.202478
0.205138
0.206924
0.208006
0.208531
0.208618
0.208369
0.207873
0.207226
0.206516
0.205682
0.204447
0.203234
0.204972
0.0584202
0.0560608
0.0646665
0.0800864
0.0975557
0.114418
0.129382
0.14202
0.152381
0.160711
0.167311
0.172466
0.176429
0.179416
0.181609
0.183161
0.184204
0.18485
0.185197
0.185356
0.18543
0.18537
0.18487
0.184341
0.187051
0.00932715
0.00791253
0.0177554
0.0348393
0.0542734
0.0732098
0.0902232
0.104813
0.116994
0.127006
0.135151
0.141725
0.146991
0.151173
0.154464
0.157026
0.159002
0.16051
0.161661
0.162579
0.16339
0.164055
0.164245
0.164372
0.1681
-0.0401921
-0.0406598
-0.0296171
-0.0109176
0.010442
0.0314265
0.0504752
0.0670094
0.0810082
0.0926991
0.102387
0.110373
0.11693
0.122292
0.12666
0.130204
0.133072
0.135393
0.137286
0.13889
0.140352
0.141645
0.142408
0.143082
0.147865
-0.0898919
-0.0894152
-0.0772199
-0.056968
-0.033738
-0.010746
0.0103107
0.0287712
0.0445741
0.0579327
0.0691507
0.0785363
0.0863687
0.0928895
0.0983051
0.102792
0.106502
0.109566