/*--------------------------------*- C++ -*----------------------------------*\
  =========                 |
  \\      /  F ield         | OpenFOAM: The Open Source CFD Toolbox
   \\    /   O peration     | Website:  https://openfoam.org
    \\  /    A nd           | Version:  6.0
     \\/     M anipulation  |
\*---------------------------------------------------------------------------*/
FoamFile
{
    version     2.0;
    format      ascii;
    class       volVectorField;
    location    "69";
    object      U;
}
// * * * * * * * * * * * * * * * * * * * * * * * * * * * * * * * * * * * * * //

dimensions      [0 1 -1 0 0 0 0];

internalField   nonuniform List<vector> 
12500
(
(0.00101374 -0.0501693 -1.08139e-21)
(0.00275922 -0.129824 1.4213e-20)
(0.00380601 -0.192302 -2.04931e-20)
(0.00376617 -0.240112 9.36784e-21)
(0.00266062 -0.275658 5.7421e-22)
(0.000705609 -0.301251 -1.18598e-21)
(-0.00179714 -0.318993 -1.69232e-20)
(-0.00452259 -0.33069 9.28924e-21)
(-0.00716613 -0.337808 6.09588e-21)
(-0.00946967 -0.341479 6.21926e-21)
(-0.0112337 -0.342524 -1.05294e-20)
(-0.0123195 -0.341501 6.1372e-21)
(-0.0126459 -0.338758 -2.89498e-21)
(-0.0121818 -0.33449 4.89947e-21)
(-0.0109384 -0.328786 -1.2571e-20)
(-0.00896019 -0.321672 1.83236e-20)
(-0.00631611 -0.313145 -3.51719e-21)
(-0.00309175 -0.303201 -1.29528e-20)
(0.000617752 -0.291851 6.59608e-21)
(0.00471487 -0.279128 -6.34533e-21)
(0.00911093 -0.265095 5.73153e-21)
(0.0137309 -0.249839 7.72743e-21)
(0.0184579 -0.233461 7.96894e-22)
(0.0230763 -0.216054 -2.20661e-20)
(0.0278439 -0.197644 1.15551e-20)
(0.00241592 -0.0502858 1.84706e-20)
(0.00585787 -0.129499 -4.7896e-20)
(0.00741102 -0.191195 1.41858e-20)
(0.00713562 -0.238129 9.38112e-21)
(0.00532453 -0.272891 -7.49753e-21)
(0.00237681 -0.297912 -4.22025e-20)
(-0.00126576 -0.315361 1.25602e-20)
(-0.00517791 -0.327062 -2.35613e-20)
(-0.00898839 -0.334472 2.82489e-20)
(-0.0123982 -0.338689 -3.77125e-20)
(-0.0151863 -0.340485 2.02442e-20)
(-0.0172064 -0.340368 6.432e-21)
(-0.0183801 -0.338634 -1.64967e-20)
(-0.0186864 -0.335426 -7.43948e-21)
(-0.018152 -0.330787 5.35096e-20)
(-0.01684 -0.324703 -4.74348e-20)
(-0.0148409 -0.31714 1.12238e-20)
(-0.0122626 -0.308068 1.96516e-20)
(-0.00922233 -0.297478 -4.80716e-21)
(-0.00583851 -0.285399 3.22973e-20)
(-0.00221882 -0.271892 5.88337e-21)
(0.00154478 -0.257051 -1.66572e-21)
(0.00533491 -0.240996 -4.07362e-20)
(0.00897284 -0.223842 3.80621e-20)
(0.0126489 -0.205638 -7.1495e-20)
(0.00377728 -0.049933 5.84785e-20)
(0.00879708 -0.128078 1.96322e-20)
(0.0107213 -0.188619 -2.53085e-20)
(0.0100946 -0.234489 1.07039e-20)
(0.00749594 -0.268409 1.03495e-20)
(0.00351 -0.292894 3.86861e-20)
(-0.00128369 -0.310144 -4.89027e-20)
(-0.00636443 -0.321984 -7.69238e-21)
(-0.0112997 -0.329839 -3.25705e-20)
(-0.0157546 -0.334762 -2.72831e-20)
(-0.0194898 -0.337473 3.56033e-20)
(-0.0223542 -0.338421 -1.18356e-19)
(-0.0242735 -0.337845 -3.51052e-21)
(-0.0252376 -0.335836 -7.10767e-20)
(-0.0252888 -0.332386 -8.44196e-21)
(-0.0245096 -0.327439 1.02634e-20)
(-0.0230121 -0.320923 -5.5314e-20)
(-0.0209276 -0.31278 -3.467e-20)
(-0.0183971 -0.302984 -4.14089e-20)
(-0.0155612 -0.291551 6.51605e-20)
(-0.0125489 -0.278547 2.4301e-20)
(-0.00947069 -0.264076 -1.05258e-19)
(-0.00644476 -0.248281 -5.12553e-20)
(-0.00361464 -0.231305 -5.7077e-20)
(-0.000870979 -0.213238 1.54269e-19)
(0.00505629 -0.04909 -2.35817e-21)
(0.0114895 -0.125534 -4.50224e-20)
(0.0136358 -0.184561 -2.07524e-20)
(0.0125469 -0.229197 1.27643e-20)
(0.00909271 -0.262236 8.22266e-20)
(0.00404062 -0.286232 -3.74007e-20)
(-0.00189858 -0.303387 7.88928e-20)
(-0.00811608 -0.315498 7.47669e-20)
(-0.0141249 -0.323949 4.56815e-20)
(-0.0195591 -0.329737 -9.10755e-22)
(-0.024165 -0.333522 9.19969e-20)
(-0.0277883 -0.335693 1.57868e-20)
(-0.0303595 -0.336429 7.01693e-20)
(-0.0318788 -0.335763 1.61155e-19)
(-0.0324035 -0.333638 -1.87061e-19)
(-0.0320345 -0.329948 2.81229e-19)
(-0.0309054 -0.32458 6.15196e-20)
(-0.029171 -0.317445 -1.34466e-19)
(-0.0269966 -0.308492 -1.96162e-20)
(-0.0245468 -0.297728 4.98082e-20)
(-0.0219738 -0.285217 -2.44227e-20)
(-0.019409 -0.271081 -1.41629e-20)
(-0.0169723 -0.255487 -1.41586e-20)
(-0.0147766 -0.238615 -5.78125e-20)
(-0.0128024 -0.22061 2.04349e-19)
(0.0062105 -0.0477455 2.95237e-20)
(0.0138497 -0.121861 -1.38622e-19)
(0.0160612 -0.179032 1.67416e-19)
(0.0144095 -0.222282 -6.69461e-20)
(0.0100512 -0.254414 7.92775e-20)
(0.00392673 -0.277975 6.41025e-20)
(-0.00313221 -0.295136 2.43202e-20)
(-0.0104384 -0.307647 4.06077e-22)
(-0.0174582 -0.316836 1.37321e-19)
(-0.0238003 -0.323636 9.46137e-20)
(-0.0292 -0.328646 -3.89009e-20)
(-0.0335009 -0.332191 -2.50168e-20)
(-0.036638 -0.334392 1.03048e-19)
(-0.0386208 -0.335222 1.9531e-20)
(-0.0395193 -0.334567 5.21753e-20)
(-0.0394512 -0.332272 1.26592e-19)
(-0.0385699 -0.328176 -1.1075e-19)
(-0.0370531 -0.322151 9.02051e-20)
(-0.0350906 -0.314119 -1.91389e-19)
(-0.0328723 -0.30407 1.6115e-19)
(-0.0305759 -0.292067 8.71538e-22)
(-0.0283556 -0.278247 -1.27491e-19)
(-0.0263364 -0.262806 5.27128e-20)
(-0.0246071 -0.245965 1.18263e-19)
(-0.0232429 -0.22794 -1.74353e-19)
(0.00719819 -0.0459001 1.5069e-19)
(0.015798 -0.117077 -1.60184e-19)
(0.0179162 -0.172071 -2.6727e-20)
(0.0156181 -0.2138 3.20677e-20)
(0.0103314 -0.245007 -7.05868e-20)
(0.0031543 -0.268186 -1.10531e-19)
(-0.00497485 -0.285446 -9.13478e-20)
(-0.0133022 -0.298472 -2.21018e-20)
(-0.0212563 -0.308521 -1.58036e-19)
(-0.0284263 -0.316464 1.23498e-19)
(-0.0345395 -0.322834 -1.94489e-19)
(-0.0394386 -0.327895 9.73477e-20)
(-0.043062 -0.331706 -3.385e-20)
(-0.0454261 -0.334185 7.56879e-20)
(-0.0466112 -0.335157 -1.89972e-19)
(-0.0467485 -0.334412 9.03208e-20)
(-0.0460088 -0.331738 5.87049e-21)
(-0.0445907 -0.326957 4.06846e-20)
(-0.0427082 -0.319957 2.45672e-19)
(-0.0405776 -0.310703 5.30344e-20)
(-0.0384039 -0.299253 -5.9478e-21)
(-0.0363675 -0.285756 1.52235e-20)
(-0.0346018 -0.270435 1.02526e-19)
(-0.0331814 -0.253557 2.81223e-20)
(-0.0322779 -0.235425 9.4688e-20)
(0.00798032 -0.0435672 -9.40747e-20)
(0.0172639 -0.111228 1.3353e-19)
(0.0191364 -0.163747 8.06957e-21)
(0.016131 -0.203832 -1.62584e-19)
(0.00992119 -0.234099 3.39156e-19)
(0.00174147 -0.256941 -1.10365e-19)
(-0.00738062 -0.274378 1.59718e-19)
(-0.0166382 -0.28801 1.46893e-19)
(-0.0254314 -0.29902 -1.21641e-19)
(-0.0333363 -0.308208 -1.76798e-19)
(-0.0400752 -0.316048 4.81016e-20)
(-0.0454906 -0.322745 -5.0527e-20)
(-0.049523 -0.328302 -2.2517e-19)
(-0.0521931 -0.332576 2.7171e-19)
(-0.0535876 -0.335338 -1.30241e-19)
(-0.0538475 -0.336315 -9.02649e-20)
(-0.0531572 -0.335234 -5.88863e-22)
(-0.0517336 -0.331866 7.15731e-20)
(-0.0498136 -0.326048 3.04022e-20)
(-0.0476398 -0.317712 -1.1894e-19)
(-0.0454471 -0.3069 1.32236e-19)
(-0.0434449 -0.293765 -2.34372e-19)
(-0.0417807 -0.278557 1.41328e-19)
(-0.0405255 -0.261587 -1.10222e-19)
(-0.0399494 -0.243257 2.91251e-20)
(0.0085227 -0.0407751 1.32449e-19)
(0.0181906 -0.104385 -1.02255e-19)
(0.0196779 -0.154159 -6.55912e-20)
(0.0159333 -0.19249 -1.15283e-19)
(0.00883943 -0.221798 -2.11456e-19)
(-0.000258703 -0.244336 -1.56678e-19)
(-0.0102648 -0.262004 9.65004e-20)
(-0.0203336 -0.276303 -1.46642e-19)
(-0.0298475 -0.288338 1.86594e-19)
(-0.0383754 -0.298842 -3.03322e-19)
(-0.0456381 -0.308229 1.34593e-19)
(-0.0514787 -0.316652 2.84665e-19)
(-0.0558386 -0.324063 -3.99054e-19)
(-0.0587399 -0.330268 5.66308e-20)
(-0.0602718 -0.334976 7.34331e-20)
(-0.0605803 -0.337853 7.18027e-20)
(-0.059859 -0.338563 -7.8053e-20)
(-0.0583392 -0.336807 -2.04153e-20)
(-0.0562778 -0.332363 -5.49418e-20)
(-0.0539439 -0.325114 -4.75321e-20)
(-0.0516036 -0.315072 -2.5349e-19)
(-0.0494989 -0.302383 -1.63115e-20)
(-0.0477974 -0.287313 2.04455e-21)
(-0.0465798 -0.270218 -1.15238e-19)
(-0.0462171 -0.251605 1.17089e-19)
(0.00879817 -0.0375671 3.29669e-21)
(0.0185384 -0.0966514 4.21273e-20)
(0.0195213 -0.143438 4.30726e-20)
(0.0150387 -0.179912 2.60346e-20)
(0.00713742 -0.208237 2.12868e-19)
(-0.00275747 -0.230482 1.99157e-19)
(-0.0135031 -0.248405 -1.62466e-19)
(-0.0242318 -0.263399 -4.83552e-20)
(-0.0343181 -0.276483 -4.3702e-20)
(-0.043331 -0.288327 2.25975e-19)
(-0.0509934 -0.299294 8.02721e-20)
(-0.0571498 -0.309493 -1.1833e-19)
(-0.0617423 -0.318832 -9.91036e-20)
(-0.0647915 -0.327071 2.3925e-19)
(-0.0663856 -0.333866 -5.8814e-20)
(-0.0666705 -0.33882 -7.05124e-20)
(-0.0658437 -0.341526 -9.88319e-20)
(-0.0641459 -0.341609 -7.60836e-20)
(-0.0618508 -0.338772 -9.60912e-20)
(-0.059252 -0.33283 -6.30005e-20)
(-0.056648 -0.323745 2.6147e-19)
(-0.0543167 -0.311638 -1.27238e-19)
(-0.0524526 -0.296777 8.54363e-20)
(-0.0511602 -0.279554 -2.25054e-19)
(-0.0509187 -0.260587 9.33274e-20)
(0.00878876 -0.0340023 -1.16661e-19)
(0.0182879 -0.0881561 -3.00204e-20)
(0.0186738 -0.131748 -2.38349e-19)
(0.013491 -0.16627 -1.13637e-19)
(0.00489845 -0.193575 -2.25917e-19)
(-0.00563197 -0.215514 -2.36937e-20)
(-0.0169343 -0.233684 1.21165e-19)
(-0.0281341 -0.249357 -7.28544e-20)
(-0.0386093 -0.263467 1.58761e-19)
(-0.0479351 -0.276626 -3.84851e-19)
(-0.0558407 -0.289154 -1.0784e-20)
(-0.0621746 -0.301124 6.80552e-20)
(-0.066879 -0.312414 -8.63162e-20)
(-0.0699723 -0.322745 7.79948e-20)
(-0.071538 -0.331731 -5.8877e-20)
(-0.0717178 -0.338915 -1.2556e-19)
(-0.0707076 -0.343817 2.2865e-19)
(-0.0687519 -0.34598 1.40506e-19)
(-0.0661361 -0.345014 -2.9043e-20)
(-0.0631754 -0.340648 9.04065e-20)
(-0.060201 -0.332766 -1.78732e-19)
(-0.0575292 -0.321439 2.56191e-19)
(-0.0553885 -0.306915 -3.49281e-19)
(-0.0539216 -0.289603 7.33365e-20)
(-0.0537315 -0.270236 -1.34022e-19)
(0.00848759 -0.0301541 6.21216e-21)
(0.0174428 -0.0790568 -1.00774e-19)
(0.01717 -0.119281 1.53018e-19)
(0.011363 -0.151761 3.1351e-19)
(0.00223519 -0.177996 -4.42435e-21)
(-0.0087294 -0.199592 3.54357e-20)
(-0.0203652 -0.217963 -1.3381e-19)
(-0.031807 -0.234257 6.34202e-20)
(-0.0424458 -0.249323 4.31895e-19)
(-0.0518705 -0.263717 -9.81036e-20)
(-0.0598209 -0.277723 -1.14971e-19)
(-0.0661523 -0.291395 4.35233e-19)
(-0.070809 -0.304591 1.4036e-19)
(-0.0738069 -0.31701 6.65699e-20)
(-0.0752235 -0.328232 6.71456e-20)
(-0.075193 -0.337751 1.84882e-19)
(-0.0739047 -0.345019 -7.0818e-20)
(-0.0716012 -0.349492 1.82792e-19)
(-0.0685737 -0.350677 2.46265e-19)
(-0.0651548 -0.348192 -2.10553e-19)
(-0.0617064 -0.341816 3.08712e-19)
(-0.0585859 -0.331534 1.05566e-19)
(-0.0560611 -0.317539 -4.07361e-19)
(-0.0543284 -0.300236 5.8243e-19)
(-0.0541403 -0.280464 -4.71871e-19)
(0.00790013 -0.0261088 -2.87683e-19)
(0.0160308 -0.0695339 1.59994e-19)
(0.015072 -0.106255 -1.06929e-19)
(0.00875408 -0.136611 -1.02498e-19)
(-0.000715044 -0.161713 -1.09305e-19)
(-0.0118736 -0.1829 -1.19548e-19)
(-0.0235795 -0.201393 3.30102e-20)
(-0.0349915 -0.218208 3.11015e-19)
(-0.0455236 -0.23411 -6.73722e-20)
(-0.0547844 -0.249601 -1.7343e-19)
(-0.0625299 -0.264942 -1.05158e-19)
(-0.0686259 -0.280175 -4.33899e-20)
(-0.0730218 -0.295153 1.24539e-19)
(-0.0757334 -0.30957 -8.1004e-20)
(-0.0768327 -0.322989 -2.61499e-19)
(-0.0764454 -0.334871 -2.851e-19)
(-0.074751 -0.344613 1.12799e-19)
(-0.0719847 -0.351584 -2.08542e-19)
(-0.0684374 -0.355183 1.74802e-19)
(-0.0644533 -0.354898 -4.9774e-19)
(-0.060422 -0.350373 3.76315e-19)
(-0.0567423 -0.341466 -4.91728e-19)
(-0.0537257 -0.32827 -7.20611e-21)
(-0.0516358 -0.311141 -1.60617e-19)
(-0.0514163 -0.291011 4.71531e-19)
(0.00704485 -0.0219621 4.40336e-19)
(0.0141035 -0.059786 6.47499e-20)
(0.0124666 -0.0929121 -4.21947e-20)
(0.00578558 -0.121068 -1.84336e-20)
(-0.00379685 -0.144963 3.37046e-19)
(-0.0148741 -0.165653 1.09509e-19)
(-0.0263489 -0.184159 9.89464e-20)
(-0.0374176 -0.201359 -7.97829e-20)
(-0.0475255 -0.217931 3.07451e-19)
(-0.0563077 -0.234331 -1.51632e-19)
(-0.0635407 -0.250798 9.81028e-20)
(-0.069106 -0.267375 2.46166e-19)
(-0.0729629 -0.283925 -1.39845e-19)
(-0.0751307 -0.300152 1.49116e-19)
(-0.0756799 -0.315623 1.39876e-19)
(-0.0747291 -0.329789 4.80411e-20)
(-0.0724475 -0.342008 -1.14858e-19)
(-0.0690598 -0.35158 3.17111e-19)
(-0.0648507 -0.357798 -2.93453e-20)
(-0.0601691 -0.360011 -3.13498e-20)
(-0.0554277 -0.357698 3.62646e-19)
(-0.0510652 -0.350547 -2.52279e-19)
(-0.0474383 -0.338491 4.18841e-19)
(-0.0448879 -0.321777 -3.41176e-19)
(-0.0446081 -0.301405 4.36529e-19)
(0.00595295 -0.0178154 -2.10369e-19)
(0.0117351 -0.0500226 4.69299e-20)
(0.00946227 -0.0795058 -4.83019e-20)
(0.00259532 -0.105397 -2.34394e-19)
(-0.00684453 -0.128004 1.33002e-20)
(-0.017536 -0.148093 1.32899e-19)
(-0.0284459 -0.166478 -5.42944e-19)
(-0.0388196 -0.183898 4.04797e-19)
(-0.0481418 -0.200941 -3.94296e-19)
(-0.0560787 -0.218017 -2.48603e-19)
(-0.0624326 -0.23535 2.21714e-19)
(-0.0671053 -0.252986 -4.77348e-19)
(-0.0700716 -0.27081 4.00152e-19)
(-0.071361 -0.288555 -1.27948e-19)
(-0.0710481 -0.305813 -3.58688e-19)
(-0.0692497 -0.322047 8.79511e-20)
(-0.0661275 -0.336607 -8.32998e-20)
(-0.0618954 -0.348749 2.88649e-20)
(-0.0568283 -0.35768 -1.09848e-19)
(-0.0512734 -0.36261 -3.44955e-19)
(-0.0456598 -0.36284 7.88425e-20)
(-0.0404627 -0.357844 -2.79139e-21)
(-0.0360808 -0.347327 -3.26586e-19)
(-0.0329373 -0.331348 2.2759e-19)
(-0.0325532 -0.310929 -1.96894e-19)
(0.00466707 -0.0137706 8.45882e-20)
(0.00901916 -0.0404555 1.56707e-19)
(0.00618416 -0.0662975 2.21335e-19)
(-0.000668937 -0.0898778 1.13624e-19)
(-0.00969044 -0.111114 -1.12081e-19)
(-0.0196706 -0.130488 2.67441e-19)
(-0.0296568 -0.148606 1.98473e-19)
(-0.0389536 -0.166062 -7.25101e-20)
(-0.0470905 -0.183356 2.57435e-19)
(-0.0537697 -0.200848 -2.64639e-19)
(-0.0588228 -0.218744 -7.75299e-20)
(-0.0621769 -0.237102 7.86806e-20)
(-0.0638281 -0.255831 1.536e-19)
(-0.0638234 -0.274704 2.21803e-21)
(-0.0622497 -0.293359 9.47033e-20)
(-0.0592299 -0.311297 1.73307e-19)
(-0.0549253 -0.327892 -2.92138e-19)
(-0.0495427 -0.342395 3.578e-19)
(-0.0433468 -0.353958 1.13322e-19)
(-0.0366783 -0.361682 3.42296e-20)
(-0.0299754 -0.364687 -4.04336e-19)
(-0.023744 -0.362209 5.69767e-20)
(-0.0184171 -0.353658 8.62647e-20)
(-0.014495 -0.338796 -1.88896e-20)
(-0.0139155 -0.318604 9.63909e-20)
(0.00323912 -0.00992508 6.60454e-21)
(0.00606403 -0.03129 -4.03872e-19)
(0.00276826 -0.0535448 -1.07163e-20)
(-0.0038562 -0.0747888 -1.02336e-19)
(-0.0121727 -0.0945797 -6.75572e-19)
(-0.0211048 -0.113123 5.8411e-19)
(-0.0297936 -0.130823 -4.15992e-19)
(-0.0376113 -0.14813 -2.11791e-20)
(-0.0441367 -0.165449 -1.96448e-19)
(-0.0491108 -0.183087 3.38948e-19)
(-0.0523978 -0.201229 -3.63951e-19)
(-0.0539539 -0.219939 -1.69463e-19)
(-0.0538019 -0.239156 3.50044e-21)
(-0.0520133 -0.258696 -3.59531e-19)
(-0.0486962 -0.278252 4.87624e-19)
(-0.0439897 -0.297389 -5.56032e-19)
(-0.0380648 -0.315537 3.16594e-21)
(-0.0311297 -0.331982 8.37207e-20)
(-0.0234428 -0.345874 -1.99527e-19)
(-0.0153364 -0.356249 1.87193e-19)
(-0.00725145 -0.362083 -2.6591e-19)
(0.00028297 -0.362372 -1.65689e-19)
(0.0068117 -0.356175 2.98525e-19)
(0.0117773 -0.342847 -3.18516e-19)
(0.0127337 -0.323232 -4.73778e-22)
(0.00172725 -0.00636627 -3.39255e-19)
(0.0029877 -0.0227152 3.91589e-19)
(-0.000644523 -0.0414915 -1.21197e-19)
(-0.0068184 -0.0604027 2.34311e-19)
(-0.0141418 -0.0786877 2.53481e-19)
(-0.0216876 -0.096296 -2.2345e-19)
(-0.0287019 -0.113435 -1.48164e-19)
(-0.0346303 -0.130415 -1.7773e-19)
(-0.0391048 -0.147543 1.62591e-19)
(-0.0419072 -0.165067 -1.08336e-20)
(-0.0429364 -0.183147 2.36103e-19)
(-0.04218 -0.201842 2.31627e-19)
(-0.0396916 -0.221115 -2.73652e-19)
(-0.0355731 -0.240824 5.34045e-19)
(-0.029962 -0.260722 -3.49976e-19)
(-0.0230243 -0.280447 -5.59816e-20)
(-0.014952 -0.299509 6.58706e-19)
(-0.00596634 -0.317273 -3.04344e-19)
(0.00367166 -0.332943 1.83405e-19)
(0.0136353 -0.345555 3.4819e-19)
(0.0234853 -0.354006 -2.24151e-19)
(0.0326774 -0.357096 2.54447e-20)
(0.0407496 -0.35352 -1.39074e-20)
(0.0471249 -0.342118 -7.48002e-20)
(0.0487778 -0.323475 1.53574e-19)
(0.000192341 -0.00316712 7.70861e-20)
(-8.82614e-05 -0.0148952 -2.48572e-19)
(-0.00391424 -0.0303574 1.35674e-19)
(-0.00941536 -0.0469737 -1.65088e-21)
(-0.0154643 -0.0637153 1.02933e-19)
(-0.0212942 -0.0803007 -1.77627e-19)
(-0.026264 -0.0967552 1.01764e-19)
(-0.0298979 -0.11325 2.77183e-19)
(-0.0318837 -0.129996 -8.20131e-21)
(-0.0320457 -0.147175 -1.41259e-19)
(-0.0303184 -0.164913 1.41592e-19)
(-0.0267228 -0.183257 -3.91639e-21)
(-0.0213454 -0.202181 -4.42564e-19)
(-0.0143226 -0.221575 1.64146e-19)
(-0.00582762 -0.241244 3.62092e-20)
(0.00393833 -0.2609 -6.00359e-20)
(0.0147507 -0.280145 -1.03636e-19)
(0.0263623 -0.298448 4.05979e-19)
(0.0384972 -0.315116 9.18592e-20)
(0.050827 -0.329263 -2.01537e-19)
(0.0629152 -0.339799 -2.18713e-20)
(0.0742081 -0.345417 2.50454e-19)
(0.0842527 -0.344498 -1.17765e-19)
(0.0925098 -0.335302 4.51497e-20)
(0.0953538 -0.318022 2.92062e-20)
(-0.00130573 -0.000382448 -1.55131e-19)
(-0.00304467 -0.00796198 1.54941e-19)
(-0.00690706 -0.0203294 -8.77607e-20)
(-0.0115182 -0.0347277 -2.82213e-19)
(-0.0160243 -0.0499175 -2.60614e-19)
(-0.0198247 -0.0654177 -1.15968e-19)
(-0.0223964 -0.0810881 -9.60912e-20)
(-0.023346 -0.0969696 -2.84302e-19)
(-0.0224198 -0.113175 -1.14621e-19)
(-0.0194862 -0.12982 1.04152e-19)
(-0.0145166 -0.146983 -1.48897e-19)
(-0.00756563 -0.164694 -1.56994e-19)
(0.00124547 -0.182922 -1.45782e-19)
(0.0117439 -0.201575 2.59428e-19)
(0.0237172 -0.220495 -5.45378e-19)
(0.0369225 -0.239455 3.02458e-19)
(0.0510941 -0.258142 -5.13098e-19)
(0.065947 -0.276137 -7.59673e-20)
(0.0811769 -0.292881 -2.64497e-19)
(0.0964422 -0.307625 -5.6944e-20)
(0.111306 -0.319392 -7.15627e-20)
(0.125209 -0.326899 -2.23508e-19)
(0.137718 -0.328339 -1.71901e-20)
(0.148404 -0.321408 1.22132e-19)
(0.153112 -0.305793 -3.0828e-19)
(-0.00271165 0.00195321 1.3279e-19)
(-0.00577014 -0.00200978 1.74556e-19)
(-0.00949932 -0.0115535 6.16009e-19)
(-0.0130107 -0.0238521 -1.08458e-19)
(-0.0157219 -0.0375159 2.58513e-19)
(-0.0171995 -0.0518989 6.18225e-19)
(-0.0170413 -0.0667157 -1.68533e-19)
(-0.0149396 -0.0818872 2.2861e-19)
(-0.0107016 -0.0974326 1.33528e-19)
(-0.0042421 -0.113397 2.41553e-19)
(0.00442943 -0.129811 -4.83182e-20)
(0.0152231 -0.146672 3.28058e-20)
(0.0279825 -0.163935 -8.09049e-20)
(0.0424972 -0.18151 4.4875e-19)
(0.0585133 -0.199258 5.87681e-20)
(0.0757435 -0.216991 4.02269e-19)
(0.0938747 -0.234461 -9.8932e-20)
(0.112575 -0.251347 3.5027e-19)
(0.131499 -0.267223 4.39516e-20)
(0.150279 -0.28151 1.63694e-19)
(0.16847 -0.293419 -6.49843e-20)
(0.185507 -0.301832 -1.43915e-21)
(0.200975 -0.304942 3.45465e-19)
(0.214641 -0.30001 1.9132e-19)
(0.222008 -0.286163 -7.95813e-20)
(-0.00397765 0.00382622 -3.23722e-19)
(-0.00816559 0.00290723 -3.30179e-19)
(-0.0115802 -0.00412963 -3.46309e-19)
(-0.0137891 -0.0144887 1.26629e-19)
(-0.0144695 -0.0266888 -2.55829e-19)
(-0.0133514 -0.0399549 -3.82933e-20)
(-0.0101544 -0.0538793 -1.00857e-19)
(-0.00465894 -0.0682765 -4.19039e-19)
(0.00326392 -0.0830778 -6.53184e-20)
(0.0136503 -0.0982591 1.07319e-19)
(0.0264501 -0.1138 -3.35219e-19)
(0.0415362 -0.12966 4.63251e-19)
(0.0587154 -0.145771 -6.24222e-19)
(0.077738 -0.16203 1.48005e-19)
(0.0983079 -0.1783 -3.74555e-19)
(0.120091 -0.194411 -2.96571e-19)
(0.142724 -0.210152 -1.48444e-20)
(0.165822 -0.225271 -3.97156e-20)
(0.188988 -0.239452 3.62063e-20)
(0.211815 -0.252273 -1.48978e-19)
(0.233837 -0.263164 -9.83513e-20)
(0.254478 -0.271272 1.13065e-19)
(0.273329 -0.275002 -3.02878e-19)
(0.290415 -0.271424 9.39877e-20)
(0.301241 -0.259143 5.66761e-20)
(-0.00506564 0.00524274 -5.77502e-20)
(-0.0101472 0.0067751 -9.64402e-20)
(-0.013053 0.00189101 3.73165e-19)
(-0.0137599 -0.00672793 1.39457e-19)
(-0.0121852 -0.0175623 1.85155e-19)
(-0.00821534 -0.0297438 -2.47474e-19)
(-0.00169018 -0.0427665 1.70632e-22)
(0.00752006 -0.0563535 -2.01071e-19)
(0.019477 -0.0703567 3.71535e-19)
(0.034164 -0.084687 1.20924e-19)
(0.0514865 -0.0992721 1.34202e-19)
(0.0712768 -0.114033 -5.36373e-19)
(0.0933012 -0.12887 6.55091e-19)
(0.117268 -0.143662 -1.96905e-19)
(0.142837 -0.15826 -1.37287e-19)
(0.169626 -0.172492 4.05041e-19)
(0.197217 -0.186163 1.73127e-19)
(0.22517 -0.199056 -4.356e-19)
(0.253031 -0.210921 -1.68495e-19)
(0.280339 -0.221458 5.10736e-19)
(0.306595 -0.230285 -3.68956e-19)
(0.331201 -0.236848 2.16677e-19)
(0.353721 -0.239937 1.06187e-19)
(0.374462 -0.236723 -1.3561e-19)
(0.389404 -0.225418 -1.14677e-19)
(-0.00594828 0.00622631 -2.12572e-19)
(-0.0116478 0.00961726 3.30021e-19)
(-0.0138341 0.00650525 1.41163e-19)
(-0.0128363 -0.000606295 -2.04091e-19)
(-0.00878657 -0.0102052 -3.25488e-20)
(-0.00171752 -0.0213632 -2.15215e-19)
(0.00841367 -0.0334998 -8.60677e-20)
(0.0216457 -0.0462628 9.6644e-20)
(0.0379693 -0.059435 -2.4172e-20)
(0.0573105 -0.0728684 1.82102e-19)
(0.0795246 -0.0864422 -1.57433e-19)
(0.104398 -0.100038 4.34697e-19)
(0.13165 -0.113526 -5.33428e-19)
(0.160944 -0.126761 3.3238e-19)
(0.191889 -0.139577 4.03445e-19)
(0.224051 -0.151789 -5.73705e-19)
(0.256958 -0.163201 -1.67607e-19)
(0.29011 -0.173601 2.80164e-19)
(0.322992 -0.182767 -1.67507e-19)
(0.355077 -0.190461 1.50605e-19)
(0.385815 -0.19642 -3.58382e-19)
(0.414563 -0.200339 6.29592e-20)
(0.440814 -0.201451 2.05215e-19)
(0.465127 -0.197259 -3.08169e-19)
(0.484523 -0.185744 8.60012e-20)
(-0.00660884 0.00681415 -1.97093e-19)
(-0.0126164 0.0114895 6.17473e-19)
(-0.0138518 0.00975496 1.18998e-19)
(-0.0109344 0.00389334 -3.21825e-19)
(-0.00418328 -0.00462631 2.30934e-19)
(0.00623458 -0.0148446 1.17719e-19)
(0.0202488 -0.026129 1.88514e-19)
(0.0378062 -0.038068 -1.21883e-20)
(0.0588224 -0.0503872 -1.95923e-20)
(0.0831596 -0.0628873 -4.113e-20)
(0.110616 -0.0754046 -1.78267e-19)
(0.140922 -0.0877854 -4.43957e-21)
(0.173744 -0.0998726 4.1292e-19)
(0.20869 -0.111497 -6.65459e-19)
(0.245315 -0.122477 4.72097e-19)
(0.283127 -0.132614 9.54171e-20)
(0.321601 -0.141698 1.64627e-19)
(0.360182 -0.149509 -7.47381e-20)
(0.398293 -0.155816 6.90408e-19)
(0.435344 -0.160378 -4.14371e-19)
(0.470708 -0.162958 3.14964e-19)
(0.503643 -0.163352 6.57363e-20)
(0.533467 -0.161074 -2.04067e-19)
(0.560787 -0.153903 1.65528e-19)
(0.584096 -0.139891 2.26428e-19)
(-0.00704004 0.00705297 -5.74752e-20)
(-0.0130158 0.0124732 -2.17611e-19)
(-0.0130419 0.0117214 -3.72558e-19)
(-0.00796753 0.00683864 -2.12943e-19)
(0.00172954 -0.000774469 -2.97375e-20)
(0.0157605 -0.0101513 -8.43249e-20)
(0.0339463 -0.020627 -3.92654e-19)
(0.05614 -0.0317469 6.50611e-20)
(0.0821772 -0.0431909 -4.41519e-19)
(0.111847 -0.0547183 -3.40998e-20)
(0.14488 -0.0661299 -4.21348e-19)
(0.180938 -0.077244 -1.48462e-19)
(0.219624 -0.0878822 8.41641e-20)
(0.260476 -0.0978609 -3.99587e-19)
(0.302986 -0.106988 4.35896e-21)
(0.346606 -0.115059 -3.32294e-19)
(0.390758 -0.12186 1.24408e-19)
(0.434851 -0.127159 -4.41507e-19)
(0.478291 -0.130708 -6.98429e-20)
(0.52048 -0.132228 -7.16798e-21)
(0.560795 -0.131417 -6.63646e-20)
(0.598488 -0.127966 -6.833e-20)
(0.632719 -0.121241 -3.79473e-20)
(0.663485 -0.108946 -1.22565e-19)
(0.689271 -0.0900848 -2.27744e-19)
(-0.00724182 0.00699447 1.04477e-19)
(-0.0128191 0.0126675 2.76418e-19)
(-0.0113441 0.0125177 3.32798e-19)
(-0.00384213 0.00834226 -2.66072e-19)
(0.00907639 0.00145802 4.95262e-19)
(0.0270121 -0.00717928 -2.69144e-19)
(0.0496807 -0.0168895 1.46478e-19)
(0.076839 -0.0271893 2.28958e-19)
(0.108234 -0.0377255 2.08177e-19)
(0.143569 -0.0482263 1.01139e-19)
(0.182492 -0.0584669 1.62909e-19)
(0.22458 -0.0682473 9.50021e-20)
(0.26935 -0.0773787 6.29635e-19)
(0.316257 -0.0856758 -4.52489e-19)
(0.364712 -0.0929521 5.10033e-19)
(0.4141 -0.0990174 -2.06668e-19)
(0.463792 -0.103676 4.36565e-19)
(0.51318 -0.106719 -2.56067e-20)
(0.561689 -0.107922 -8.75432e-20)
(0.608817 -0.107019 -1.2459e-20)
(0.654149 -0.103691 2.97143e-19)
(0.697398 -0.0974831 -2.72366e-19)
(0.73864 -0.0873783 1.90702e-19)
(0.778563 -0.0714154 1.85769e-19)
(0.813904 -0.0531667 3.10073e-20)
(-0.00721845 0.00669099 7.2397e-20)
(-0.0120045 0.0121816 -3.95058e-19)
(-0.00869675 0.0122809 -1.43653e-19)
(0.00154675 0.00855453 1.31916e-19)
(0.0180043 0.00222967 -4.05362e-19)
(0.0401746 -0.00576171 -8.00666e-20)
(0.0676691 -0.0147382 5.56833e-20)
(0.100142 -0.0242008 2.20602e-19)
(0.13724 -0.0337759 -5.57496e-19)
(0.178565 -0.043172 4.22527e-20)
(0.223657 -0.0521504 -1.62828e-19)
(0.271987 -0.0605051 -4.8913e-19)
(0.322958 -0.0680506 3.31174e-19)
(0.37592 -0.0746153 1.42888e-20)
(0.430181 -0.0800375 -9.52157e-21)
(0.485036 -0.0841639 3.16444e-19)
(0.539791 -0.0868483 -5.49629e-19)
(0.593795 -0.08795 4.23214e-19)
(0.646473 -0.0873319 -8.22175e-20)
(0.697357 -0.0848588 2.19938e-19)
(0.746127 -0.0803997 -3.67442e-19)
(0.792649 -0.0738096 1.92961e-19)
(0.837159 -0.0647518 -3.34063e-19)
(0.880313 -0.0527525 3.1872e-19)
(0.918243 -0.0418015 -1.06366e-19)
(-0.00697519 0.006192 4.86326e-19)
(-0.0105506 0.0111272 -7.90772e-20)
(-0.00503242 0.0111627 5.84504e-19)
(0.00831819 0.00765488 2.71222e-19)
(0.028683 0.00174181 2.2274e-20)
(0.0554632 -0.00567627 1.18695e-19)
(0.0881625 -0.0139277 2.88088e-20)
(0.126323 -0.0225104 4.84706e-19)
(0.169471 -0.0310421 1.56266e-19)
(0.217083 -0.039225 -2.06184e-20)
(0.268567 -0.0468194 4.28933e-20)
(0.323255 -0.0536274 1.61507e-19)
(0.38041 -0.0594819 1.32289e-19)
(0.439244 -0.0642414 2.76097e-19)
(0.498941 -0.0677858 -3.16206e-19)
(0.55869 -0.0700157 9.15791e-20)
(0.617712 -0.0708514 3.05792e-20)
(0.675302 -0.0702329 1.31044e-19)
(0.730857 -0.0681211 3.3445e-19)
(0.783907 -0.0645012 -2.24456e-19)
(0.834137 -0.0593921 9.84919e-21)
(0.881401 -0.0528548 -2.78328e-19)
(0.925794 -0.0449165 2.4694e-19)
(0.967645 -0.0355062 -2.2752e-19)
(1.00361 -0.0272711 3.07227e-20)
(-0.0065152 0.00554149 -4.05414e-19)
(-0.00843061 0.00961286 3.1004e-19)
(-0.000273809 0.00932206 -5.04752e-19)
(0.0166064 0.00584254 4.34061e-20)
(0.0413019 0.000228602 3.56416e-19)
(0.0731144 -0.00665583 -5.94106e-19)
(0.111431 -0.014158 4.72124e-19)
(0.155663 -0.0217841 -7.48996e-19)
(0.205194 -0.0291567 1.4903e-19)
(0.259344 -0.0359852 3.16271e-20)
(0.317355 -0.0420444 2.4815e-19)
(0.378386 -0.0471602 -8.25062e-19)
(0.44153 -0.0512005 1.43058e-19)
(0.505841 -0.0540692 1.47951e-19)
(0.57036 -0.0557023 -8.67274e-20)
(0.634161 -0.0560657 -5.24152e-19)
(0.696386 -0.0551532 2.49418e-19)
(0.756282 -0.0529851 4.4129e-19)
(0.813229 -0.049609 -4.51306e-19)
(0.866764 -0.0451019 3.181e-19)
(0.916587 -0.0395776 -3.92302e-19)
(0.96256 -0.0331959 2.78264e-19)
(1.00472 -0.0261107 -6.9682e-20)
(1.04326 -0.018298 3.90187e-19)
(1.07569 -0.0113522 -4.28474e-19)
(-0.00583668 0.00477634 5.77028e-20)
(-0.00560873 0.00773922 4.55628e-20)
(0.00566833 0.00691769 1.11111e-19)
(0.0265591 0.00332764 3.99304e-19)
(0.0560631 -0.00205359 -1.28265e-20)
(0.0933729 -0.00840095 8.91468e-20)
(0.137742 -0.0150887 3.98899e-19)
(0.188426 -0.0216433 1.60936e-19)
(0.244632 -0.0277061 -5.30671e-20)
(0.30549 -0.03301 4.49854e-19)
(0.370037 -0.0373614 -5.09152e-19)
(0.437228 -0.0406278 7.77721e-19)
(0.505962 -0.0427284 -3.05995e-19)
(0.575116 -0.0436275 5.4631e-19)
(0.643593 -0.0433285 -1.83951e-19)
(0.710365 -0.0418683 6.57756e-20)
(0.774517 -0.0393132 7.86829e-20)
(0.835282 -0.0357539 -1.41538e-19)
(0.892065 -0.0313037 1.20779e-19)
(0.944453 -0.0260968 7.47151e-20)
(0.992216 -0.0202906 9.79284e-20)
(1.03529 -0.014069 1.94628e-19)
(1.07374 -0.00760247 -2.25366e-20)
(1.10781 -0.000857679 -8.62378e-20)
(1.13587 0.00527737 2.29885e-19)
(-0.00493087 0.00392599 -3.37464e-19)
(-0.00203733 0.00559698 3.57017e-20)
(0.0128955 0.00410345 -6.41476e-19)
(0.0383334 0.000323385 -1.53078e-19)
(0.0731713 -0.00483681 -2.87768e-19)
(0.116474 -0.0105934 -6.1477e-20)
(0.167335 -0.0163564 -3.08655e-19)
(0.22482 -0.0216852 -1.84748e-19)
(0.287923 -0.0262567 2.43485e-19)
(0.35554 -0.0298454 -4.06452e-19)
(0.426469 -0.0323088 -1.12689e-19)
(0.499434 -0.0335744 3.30518e-21)
(0.573126 -0.0336295 -7.44812e-19)
(0.646253 -0.0325116 3.13464e-19)
(0.717595 -0.0302982 -4.4967e-19)
(0.786059 -0.0270981 -1.24781e-20)
(0.850723 -0.0230424 8.1817e-20)
(0.910862 -0.0182772 -1.38552e-19)
(0.965966 -0.0129578 -1.17722e-19)
(1.01574 -0.00724464 5.27713e-20)
(1.06008 -0.00130154 5.65702e-20)
(1.09905 0.00470414 -3.68619e-19)
(1.13286 0.0106311 2.07271e-19)
(1.16185 0.0165311 9.43788e-20)
(1.18511 0.0219504 1.72778e-20)
(-0.00378102 0.00301304 3.44253e-19)
(0.0023439 0.00326644 -3.66649e-19)
(0.0215195 0.00102515 5.15337e-19)
(0.0520893 -0.00296006 8.11997e-20)
(0.0928213 -0.007851 -2.47089e-20)
(0.142624 -0.0129093 -1.73028e-19)
(0.200394 -0.0175912 2.62521e-20)
(0.264967 -0.0215047 2.64136e-19)
(0.335077 -0.0243808 -3.64244e-19)
(0.409348 -0.0260569 3.8163e-19)
(0.486309 -0.0264618 -4.0086e-20)
(0.564438 -0.0256024 2.0292e-20)
(0.642224 -0.0235487 4.85759e-19)
(0.718228 -0.02042 6.38029e-19)
(0.791156 -0.0163702 -2.5023e-19)
(0.85991 -0.011574 4.26768e-19)
(0.923623 -0.00621457 2.0647e-19)
(0.981686 -0.000473886 -1.30598e-19)
(1.03374 0.00547492 3.88003e-19)
(1.07967 0.0114721 -2.22748e-20)
(1.11955 0.0173734 -3.53731e-19)
(1.15363 0.0230501 3.59649e-19)
(1.1823 0.0284081 4.36161e-20)
(1.20601 0.0335191 -2.06912e-19)
(1.22442 0.0381843 6.53166e-20)
(-0.00236238 0.00205486 -4.77305e-19)
(0.00760682 0.000818905 4.994e-19)
(0.0316584 -0.00218022 -3.16606e-19)
(0.0679815 -0.00631955 -9.81186e-20)
(0.115184 -0.0108315 -2.21935e-19)
(0.17198 -0.0150306 3.93005e-19)
(0.237025 -0.0184329 -2.27607e-19)
(0.308873 -0.020714 -1.04215e-19)
(0.385955 -0.0216807 -2.97341e-19)
(0.466587 -0.0212558 8.28203e-21)
(0.549011 -0.0194614 -1.16237e-19)
(0.631465 -0.0164002 5.45505e-20)
(0.712262 -0.0122361 -5.81033e-19)
(0.789873 -0.00717341 1.65669e-19)
(0.862992 -0.00143734 -1.93853e-19)
(0.930591 0.00474381 -1.51473e-19)
(0.991944 0.0111531 4.59725e-20)
(1.04663 0.0175952 -2.1145e-19)
(1.09449 0.0239031 -8.33206e-20)
(1.13565 0.0299403 2.52316e-19)
(1.1704 0.0356013 9.93426e-20)
(1.19919 0.0408078 -4.2402e-19)
(1.22257 0.0455201 3.01299e-19)
(1.24114 0.0498319 -5.53027e-20)
(1.25494 0.0536752 -1.09623e-19)
(-0.000643249 0.00106556 -1.72641e-19)
(0.013832 -0.00168046 -9.22957e-20)
(0.0434312 -0.00538334 -1.79879e-20)
(0.0861497 -0.00956055 1.36654e-19)
(0.140395 -0.0135242 1.48065e-19)
(0.204635 -0.0166538 1.28439e-19)
(0.277232 -0.0185435 1.60567e-19)
(0.356408 -0.0189588 2.44522e-19)
(0.440249 -0.0178071 3.73443e-19)
(0.52674 -0.0151205 3.6735e-19)
(0.613836 -0.0110336 1.92594e-19)
(0.699565 -0.00575846 -5.22022e-20)
(0.78212 0.000442901 1.31847e-20)
(0.859953 0.00728527 -1.32513e-20)