/*--------------------------------*- C++ -*----------------------------------*\
  =========                 |
  \\      /  F ield         | OpenFOAM: The Open Source CFD Toolbox
   \\    /   O peration     | Website:  https://openfoam.org
    \\  /    A nd           | Version:  6.0
     \\/     M anipulation  |
\*---------------------------------------------------------------------------*/
FoamFile
{
    version     2.0;
    format      ascii;
    class       volVectorField;
    location    "106";
    object      U;
}
// * * * * * * * * * * * * * * * * * * * * * * * * * * * * * * * * * * * * * //

dimensions      [0 1 -1 0 0 0 0];

internalField   nonuniform List<vector> 
12500
(
(0.000612821 -0.0541977 -1.62884e-21)
(0.000343323 -0.13178 2.15645e-20)
(-0.00229798 -0.185145 -3.13072e-20)
(-0.00674476 -0.219365 1.44252e-20)
(-0.0124983 -0.238829 9.23363e-22)
(-0.0191232 -0.247245 -1.89202e-21)
(-0.0262135 -0.247622 -2.66184e-20)
(-0.033419 -0.242307 1.47073e-20)
(-0.0404525 -0.233053 9.64797e-21)
(-0.0470829 -0.221113 9.94146e-21)
(-0.0531265 -0.207337 -1.68909e-20)
(-0.0584389 -0.192259 9.9038e-21)
(-0.0629087 -0.176183 -4.68348e-21)
(-0.0664539 -0.159253 7.93452e-21)
(-0.0690207 -0.14151 -2.04404e-20)
(-0.0705837 -0.122939 2.99972e-20)
(-0.0711479 -0.103505 -5.86288e-21)
(-0.0707513 -0.0831794 -2.11616e-20)
(-0.0694689 -0.06196 1.07028e-20)
(-0.0674107 -0.0398869 -1.02816e-20)
(-0.0646992 -0.0170492 9.34452e-21)
(-0.0614772 0.00641068 1.2674e-20)
(-0.0581538 0.0302971 1.2099e-21)
(-0.0555336 0.0543825 -3.59713e-20)
(-0.0522978 0.0784822 2.00317e-20)
(0.00213795 -0.0533126 2.6627e-20)
(0.00368042 -0.129131 -7.2009e-20)
(0.00173602 -0.180917 2.16304e-20)
(-0.00269514 -0.213835 1.43578e-20)
(-0.00885055 -0.232319 -1.1561e-20)
(-0.0161262 -0.240086 -6.53728e-20)
(-0.0239992 -0.240128 1.96095e-20)
(-0.0320438 -0.234761 -3.68787e-20)
(-0.0399275 -0.225709 4.45223e-20)
(-0.0473948 -0.214196 -5.97842e-20)
(-0.0542512 -0.201044 3.23643e-20)
(-0.0603493 -0.186767 1.01203e-20)
(-0.0655796 -0.17165 -2.65103e-20)
(-0.0698637 -0.155813 -1.20917e-20)
(-0.0731514 -0.139272 8.65156e-20)
(-0.0754209 -0.12198 -7.67162e-20)
(-0.0766798 -0.103862 1.81204e-20)
(-0.0769684 -0.08484 3.18893e-20)
(-0.0763639 -0.0648576 -8.00814e-21)
(-0.0749799 -0.043892 5.2688e-20)
(-0.0729452 -0.0219664 9.25811e-21)
(-0.0704127 0.000839983 -2.63118e-21)
(-0.0677905 0.0243799 -6.59521e-20)
(-0.0658568 0.0484528 6.13487e-20)
(-0.0633886 0.0729354 -1.22436e-19)
(0.0035952 -0.0521006 8.36732e-20)
(0.00685575 -0.125769 2.9443e-20)
(0.00557787 -0.175794 -3.785e-20)
(0.00118121 -0.207361 1.59969e-20)
(-0.00531703 -0.224902 1.59455e-20)
(-0.0131507 -0.232103 5.9483e-20)
(-0.0216862 -0.231913 -7.54209e-20)
(-0.030427 -0.226602 -1.15938e-20)
(-0.0389995 -0.217852 -5.06167e-20)
(-0.0471272 -0.206852 -4.26666e-20)
(-0.0546075 -0.1944 5.64321e-20)
(-0.0612936 -0.180988 -1.87164e-19)
(-0.0670805 -0.166883 -5.21425e-21)
(-0.0718963 -0.152188 -1.12757e-19)
(-0.0756977 -0.136895 -1.3294e-20)
(-0.0784684 -0.12093 1.66774e-20)
(-0.0802203 -0.10418 -8.79064e-20)
(-0.0809964 -0.0865201 -5.50517e-20)
(-0.0808759 -0.0678379 -6.60407e-20)
(-0.0799737 -0.0480457 1.04358e-19)
(-0.0784223 -0.0270969 3.87922e-20)
(-0.076381 -0.00500019 -1.67042e-19)
(-0.0742496 0.0181546 -8.12017e-20)
(-0.0727761 0.0422041 -8.9446e-20)
(-0.0708696 0.0670856 2.59416e-19)
(0.00495905 -0.0505882 -3.73081e-21)
(0.0098116 -0.121758 -6.70554e-20)
(0.00914983 -0.169868 -3.04891e-20)
(0.00479284 -0.200056 1.86406e-20)
(-0.00200007 -0.2167 1.2454e-19)
(-0.0103095 -0.223425 -5.74622e-20)
(-0.0193979 -0.223109 1.21057e-19)
(-0.0287036 -0.21796 1.14992e-19)
(-0.0378156 -0.209609 7.0855e-20)
(-0.0464392 -0.199208 -1.63918e-21)
(-0.0543667 -0.187525 1.43737e-19)
(-0.0614536 -0.175034 2.45793e-20)
(-0.0676022 -0.161984 1.1018e-19)
(-0.0727499 -0.148465 2.52825e-19)
(-0.0768626 -0.134452 -2.94038e-19)
(-0.0799325 -0.119844 4.42218e-19)
(-0.0819781 -0.104498 9.64412e-20)
(-0.083047 -0.0882459 -2.10844e-19)
(-0.0832211 -0.0709207 -3.08878e-20)
(-0.0826166 -0.052371 7.90559e-20)
(-0.0813691 -0.0324777 -3.77337e-20)
(-0.0796418 -0.0111741 -2.10509e-20)
(-0.0778201 0.0115182 -2.14182e-20)
(-0.0766192 0.0354882 -8.89673e-20)
(-0.0751109 0.0607381 3.37674e-19)
(0.00620594 -0.0488018 4.15713e-20)
(0.0124943 -0.117164 -2.03845e-19)
(0.0123771 -0.163228 2.47524e-19)
(0.0080489 -0.192024 -1.00099e-19)
(0.000995767 -0.207828 1.18484e-19)
(-0.00772021 -0.214168 9.58394e-20)
(-0.017266 -0.213834 3.65501e-20)
(-0.0270199 -0.208955 -3.24943e-22)
(-0.0365376 -0.201103 2.08978e-19)
(-0.0455086 -0.191384 1.43954e-19)
(-0.0537216 -0.180538 -6.05098e-20)
(-0.0610366 -0.169018 -3.87461e-20)
(-0.0673645 -0.157062 1.5847e-19)
(-0.072654 -0.144744 3.0328e-20)
(-0.0768828 -0.132029 7.98167e-20)
(-0.0800542 -0.118796 1.95366e-19)
(-0.0821964 -0.104874 -1.72739e-19)
(-0.0833646 -0.0900591 1.41253e-19)
(-0.0836455 -0.0741355 -2.96557e-19)
(-0.0831591 -0.0568909 2.49453e-19)
(-0.0820459 -0.0381346 9.40095e-22)
(-0.0804736 -0.0177211 -1.95516e-19)
(-0.0788095 0.00440622 8.2356e-20)
(-0.0777336 0.0282058 1.82254e-19)
(-0.0765102 0.0537536 -2.83441e-19)
(0.00731409 -0.0467662 2.10725e-19)
(0.0148536 -0.112046 -2.3244e-19)
(0.0151881 -0.155957 -3.99361e-20)
(0.0108611 -0.183359 4.67457e-20)
(0.00356745 -0.198386 -1.04951e-19)
(-0.00550056 -0.204439 -1.659e-19)
(-0.0154232 -0.204195 -1.37219e-19)
(-0.0255253 -0.199696 -3.34411e-20)
(-0.0353325 -0.192442 -2.40611e-19)
(-0.0445208 -0.183492 1.85855e-19)
(-0.0528766 -0.173553 -2.96916e-19)
(-0.0602647 -0.163058 1.47938e-19)
(-0.0666059 -0.15223 -5.32958e-20)
(-0.071861 -0.141136 1.16265e-19)
(-0.0760213 -0.12973 -2.91859e-19)
(-0.0791035 -0.117879 1.36853e-19)
(-0.0811484 -0.105389 7.88959e-21)
(-0.0822223 -0.0920261 6.26193e-20)
(-0.0824212 -0.0775325 3.76076e-19)
(-0.0818729 -0.0616408 7.92039e-20)
(-0.0807273 -0.0440922 -1.05352e-20)
(-0.0791608 -0.0246624 2.29217e-20)
(-0.077522 -0.00320854 1.56266e-19)
(-0.076453 0.0203139 4.19659e-20)
(-0.0754436 0.0460632 1.49452e-19)
(0.00826336 -0.0445037 -1.31676e-19)
(0.0168429 -0.106459 1.93833e-19)
(0.0175161 -0.148129 1.15044e-20)
(0.0131468 -0.174146 -2.38782e-19)
(0.00561798 -0.188463 4.9849e-19)
(-0.00376187 -0.194327 -1.63935e-19)
(-0.0139965 -0.194286 2.36939e-19)
(-0.0243637 -0.190276 2.19644e-19)
(-0.0343629 -0.183724 -1.82987e-19)
(-0.0436589 -0.175633 -2.66189e-19)
(-0.0520359 -0.166674 7.24099e-20)
(-0.0593638 -0.157261 -7.60119e-20)
(-0.0655729 -0.147602 -3.40776e-19)
(-0.0706362 -0.137759 4.09635e-19)
(-0.074559 -0.127675 -1.96509e-19)
(-0.0773729 -0.117209 -1.36708e-19)
(-0.0791335 -0.106152 -2.23594e-21)
(-0.079922 -0.094245 1.06506e-19)
(-0.079848 -0.081194 4.58804e-20)
(-0.079053 -0.0666837 -1.80206e-19)
(-0.0777033 -0.0503931 1.96857e-19)
(-0.0759914 -0.0320216 -3.5272e-19)
(-0.0742502 -0.0113361 2.11491e-19)
(-0.0730815 0.0118087 -1.65574e-19)
(-0.0722349 0.0376565 4.82807e-20)
(0.00903495 -0.0420341 1.82041e-19)
(0.0184195 -0.10045 -1.45762e-19)
(0.019301 -0.139807 -9.44338e-20)
(0.0148318 -0.164457 -1.66484e-19)
(0.00706088 -0.178135 -3.07994e-19)
(-0.00260304 -0.183909 -2.29923e-19)
(-0.0130985 -0.184179 1.40909e-19)
(-0.0236635 -0.18077 -2.15461e-19)
(-0.0337758 -0.175023 2.75788e-19)
(-0.0430903 -0.167885 -4.49325e-19)
(-0.0513897 -0.159988 1.99671e-19)
(-0.0585484 -0.151722 4.23585e-19)
(-0.0645046 -0.143284 -5.94256e-19)
(-0.0692426 -0.134726 8.42047e-20)
(-0.0727806 -0.125987 1.08765e-19)
(-0.0751649 -0.116918 1.07325e-19)
(-0.0764674 -0.107297 -1.18296e-19)
(-0.0767862 -0.0968461 -3.2326e-20)
(-0.0762491 -0.0852413 -8.11847e-20)
(-0.075017 -0.0721249 -7.16169e-20)
(-0.0732811 -0.05712 -3.75345e-19)
(-0.0712597 -0.0398545 -2.34316e-20)
(-0.0692764 -0.0200039 2.46768e-21)
(-0.0678915 0.00268809 -1.71004e-19)
(-0.0671483 0.0285442 1.80824e-19)
(0.00961132 -0.039375 3.79699e-21)
(0.0195451 -0.0940621 5.98724e-20)
(0.0204904 -0.131048 6.10225e-20)
(0.0158539 -0.154356 3.84014e-20)
(0.00782567 -0.167465 3.07353e-19)
(-0.00210328 -0.173243 2.87854e-19)
(-0.0128187 -0.173932 -2.36779e-19)
(-0.023527 -0.171231 -6.92083e-20)
(-0.0336889 -0.166393 -6.37912e-20)
(-0.0429516 -0.160303 3.31664e-19)
(-0.0510968 -0.153554 1.16776e-19)
(-0.0580017 -0.14651 -1.75158e-19)
(-0.0636111 -0.139354 -1.45452e-19)
(-0.0679177 -0.132131 3.52755e-19)
(-0.0709507 -0.124776 -8.67457e-20)
(-0.0727691 -0.11713 -1.03352e-19)
(-0.0734599 -0.108964 -1.45548e-19)
(-0.0731392 -0.0999807 -1.11435e-19)
(-0.0719554 -0.0898298 -1.40011e-19)
(-0.0700941 -0.0781155 -9.19967e-20)
(-0.0677787 -0.0644098 3.82408e-19)
(-0.0652649 -0.0482743 -1.85251e-19)
(-0.0628763 -0.0292934 1.24406e-19)
(-0.0611316 -0.00709408 -3.26352e-19)
(-0.0603986 0.0187081 1.44039e-19)
(0.00997641 -0.0365429 -1.58042e-19)
(0.0201867 -0.0873345 -4.1201e-20)
(0.0210428 -0.121905 -3.36102e-19)
(0.0161673 -0.143897 -1.60056e-19)
(0.00786363 -0.156505 -3.21966e-19)
(-0.00231437 -0.162376 -3.38987e-20)
(-0.0132135 -0.16358 1.74393e-19)
(-0.0240177 -0.161688 -1.03804e-19)
(-0.0341761 -0.157858 2.29551e-19)
(-0.0433308 -0.152911 -5.56867e-19)
(-0.0512629 -0.147397 -1.48179e-20)
(-0.0578516 -0.141654 9.89452e-20)
(-0.0630455 -0.135853 -1.25741e-19)
(-0.0668431 -0.130031 1.13289e-19)
(-0.0692805 -0.124115 -8.47656e-20)
(-0.0704263 -0.117944 -1.80791e-19)
(-0.0703796 -0.111275 3.30257e-19)
(-0.0692723 -0.103794 2.02395e-19)
(-0.0672737 -0.0951264 -4.18154e-20)
(-0.0645965 -0.084837 1.29132e-19)
(-0.0615028 -0.0724487 -2.56331e-19)
(-0.0582957 -0.057459 3.67292e-19)
(-0.0553107 -0.0393616 -5.01426e-19)
(-0.0530285 -0.017663 1.06298e-19)
(-0.052165 0.00805579 -1.99455e-19)
(0.0101162 -0.0335543 8.04203e-21)
(0.0203188 -0.0803068 -1.374e-19)
(0.0209306 -0.112426 2.13778e-19)
(0.0157467 -0.133129 4.39543e-19)
(0.00715371 -0.145296 -5.09762e-21)
(-0.0032532 -0.151339 4.99844e-20)
(-0.0142969 -0.153145 -1.88953e-19)
(-0.0251489 -0.152149 9.16697e-20)
(-0.0352528 -0.149414 6.14589e-19)
(-0.0442491 -0.145693 -1.40591e-19)
(-0.0519192 -0.141495 -1.63407e-19)
(-0.0581436 -0.137134 6.22414e-19)
(-0.0628726 -0.132764 1.98642e-19)
(-0.0661068 -0.128417 9.45473e-20)
(-0.0678856 -0.124016 9.41924e-20)
(-0.0682818 -0.119391 2.63663e-19)
(-0.0674018 -0.114291 -1.01678e-19)
(-0.0653893 -0.108385 2.58089e-19)
(-0.062431 -0.101266 3.49014e-19)
(-0.0587665 -0.0924598 -3.00355e-19)
(-0.0546994 -0.0814368 4.38831e-19)
(-0.050588 -0.0676275 1.47878e-19)
(-0.0467927 -0.0504306 -5.76055e-19)
(-0.0437655 -0.0292274 8.22055e-19)
(-0.0425852 -0.00359604 -6.96377e-19)
(0.0100194 -0.0304283 -3.79266e-19)
(0.0199247 -0.0730216 2.20903e-19)
(0.0201427 -0.102664 -1.47727e-19)
(0.0145917 -0.1221 -1.43841e-19)
(0.00570781 -0.133877 -1.51372e-19)
(-0.00489503 -0.140155 -1.67563e-19)
(-0.0160319 -0.14263 4.7343e-20)
(-0.0268726 -0.142599 4.38185e-19)
(-0.0368622 -0.141026 -9.70977e-20)
(-0.0456436 -0.138598 -2.45991e-19)
(-0.053 -0.135783 -1.47901e-19)
(-0.0588133 -0.132869 -6.21481e-20)
(-0.0630341 -0.130001 1.71855e-19)
(-0.0656624 -0.127202 -1.14842e-19)
(-0.0667363 -0.124394 -3.69883e-19)
(-0.0663279 -0.121405 -4.01792e-19)
(-0.0645448 -0.117972 1.58478e-19)
(-0.0615359 -0.113745 -2.94422e-19)
(-0.0574997 -0.108286 2.43083e-19)
(-0.0526981 -0.101075 -6.98123e-19)
(-0.0474754 -0.0915198 5.26772e-19)
(-0.0422498 -0.0789747 -6.87954e-19)
(-0.0374186 -0.0627322 -9.56841e-21)
(-0.0334217 -0.0420374 -2.24334e-19)
(-0.0317091 -0.0164916 6.86706e-19)
(0.00967924 -0.027188 5.77383e-19)
(0.0189998 -0.0655286 8.69065e-20)
(0.0186884 -0.0926738 -5.64387e-20)
(0.0127302 -0.110864 -2.60137e-20)
(0.00357507 -0.122288 4.6329e-19)
(-0.00716853 -0.128843 1.49854e-19)
(-0.0183244 -0.132031 1.34691e-19)
(-0.029072 -0.133007 -1.10393e-19)
(-0.038865 -0.132636 4.2497e-19)
(-0.0473532 -0.131541 -2.12489e-19)
(-0.0543246 -0.130148 1.38127e-19)
(-0.059663 -0.128723 3.403e-19)
(-0.063319 -0.127401 -1.95837e-19)
(-0.0652901 -0.126205 2.05039e-19)
(-0.0656102 -0.125059 1.92219e-19)
(-0.0643462 -0.123789 6.70855e-20)
(-0.0616006 -0.122128 -1.59729e-19)
(-0.0575203 -0.119708 4.38373e-19)
(-0.0523079 -0.11606 -4.14039e-20)
(-0.0462405 -0.110609 -4.41322e-20)
(-0.0396977 -0.102692 5.00427e-19)
(-0.0331576 -0.0915697 -3.48228e-19)
(-0.0270659 -0.0764065 5.7694e-19)
(-0.0218728 -0.0562881 -4.70046e-19)
(-0.0194083 -0.0308492 6.25939e-19)
(0.00909427 -0.023862 -2.71573e-19)
(0.0175541 -0.0578876 6.08745e-20)
(0.0166 -0.0825251 -6.33043e-20)
(0.0102216 -0.0994809 -3.1884e-19)
(0.000844164 -0.110571 1.82016e-20)
(-0.00995346 -0.117423 1.79227e-19)
(-0.0210207 -0.12134 -7.4203e-19)
(-0.0315577 -0.123334 5.53e-19)
(-0.0410344 -0.124172 -5.41083e-19)
(-0.0491122 -0.124412 -3.43226e-19)
(-0.0555869 -0.124441 3.02872e-19)
(-0.0603464 -0.124506 -6.52324e-19)
(-0.0633421 -0.124736 5.45812e-19)
(-0.0645689 -0.125158 -1.76606e-19)
(-0.0640553 -0.125701 -4.91777e-19)
(-0.0618599 -0.126203 1.21442e-19)
(-0.0580763 -0.126396 -1.16357e-19)
(-0.0528426 -0.125903 4.00571e-20)
(-0.0463574 -0.124225 -1.52153e-19)
(-0.0389041 -0.120736 -4.70629e-19)
(-0.0308891 -0.114688 1.08419e-19)
(-0.0228462 -0.10523 -5.98369e-21)
(-0.0152779 -0.0913654 -4.42278e-19)
(-0.008672 -0.0719801 3.0801e-19)
(-0.00525391 -0.0467249 -2.79284e-19)
(0.00827037 -0.0204863 1.08019e-19)
(0.0156142 -0.0501713 2.05376e-19)
(0.0139346 -0.0722993 2.93809e-19)
(0.00715688 -0.0880248 1.49997e-19)
(-0.00235681 -0.0987818 -1.50266e-19)
(-0.0130818 -0.105925 3.58915e-19)
(-0.0239091 -0.110556 2.6689e-19)
(-0.0340705 -0.113544 -1.00708e-19)
(-0.043059 -0.115559 3.47201e-19)
(-0.0505526 -0.117093 -3.58378e-19)
(-0.0563579 -0.118498 -1.0636e-19)
(-0.0603699 -0.120002 1.0732e-19)
(-0.0625426 -0.121731 2.04002e-19)
(-0.0628705 -0.123721 4.09263e-21)
(-0.0613775 -0.125919 1.24812e-19)
(-0.0581149 -0.128176 2.3249e-19)
(-0.0531653 -0.13024 -3.9212e-19)
(-0.0466552 -0.131739 4.7946e-19)
(-0.0387728 -0.132156 1.48597e-19)
(-0.0297986 -0.130819 4.41008e-20)
(-0.0201561 -0.126898 -5.39701e-19)
(-0.0104266 -0.119407 7.51302e-20)
(-0.00117328 -0.107153 1.16031e-19)
(0.00705036 -0.0887642 -2.58302e-20)
(0.0115944 -0.063851 1.36585e-19)
(0.00722186 -0.017104 6.18963e-21)
(0.0132257 -0.0424663 -5.27181e-19)
(0.0107744 -0.0620941 -1.66513e-20)
(0.00365829 -0.0765862 -1.3514e-19)
(-0.00586336 -0.0869935 -8.9412e-19)
(-0.0163428 -0.0943957 7.74605e-19)
(-0.0267278 -0.0996939 -5.53182e-19)
(-0.0362912 -0.103616 -3.09942e-20)
(-0.0445553 -0.106733 -2.60996e-19)
(-0.0512188 -0.109477 4.49268e-19)
(-0.0561028 -0.112159 -4.82401e-19)
(-0.059112 -0.114991 -2.23892e-19)
(-0.0602064 -0.1181 1.5453e-21)
(-0.0593834 -0.121533 -4.7161e-19)
(-0.0566668 -0.125258 6.40351e-19)
(-0.0521039 -0.129156 -7.29715e-19)
(-0.0457701 -0.133003 5.06048e-21)
(-0.0377811 -0.13645 1.0903e-19)
(-0.0283129 -0.138986 -2.61768e-19)
(-0.0176374 -0.139913 2.47026e-19)
(-0.00618488 -0.13833 -3.50074e-19)
(0.00542597 -0.133117 -2.18378e-19)
(0.0165727 -0.122847 3.93741e-19)
(0.0266165 -0.105814 -4.2168e-19)
(0.0324367 -0.0814955 4.09053e-22)
(0.00597241 -0.0137652 -4.21786e-19)
(0.010453 -0.0348727 5.06694e-19)
(0.00722648 -0.0520239 -1.59412e-19)
(-0.000124551 -0.0652745 3.06489e-19)
(-0.00948063 -0.075298 3.33791e-19)
(-0.019492 -0.082903 -2.95395e-19)
(-0.0291765 -0.0887929 -1.91609e-19)
(-0.0378564 -0.0935556 -2.33331e-19)
(-0.0450884 -0.0976651 2.14715e-19)
(-0.0505951 -0.101489 -1.67302e-20)
(-0.054215 -0.1053 3.10381e-19)
(-0.0558653 -0.109293 3.03797e-19)
(-0.0555162 -0.113593 -3.57838e-19)
(-0.0531728 -0.11826 6.95159e-19)
(-0.0488652 -0.123288 -4.56034e-19)
(-0.0426446 -0.128593 -6.87703e-20)
(-0.034587 -0.133995 8.5277e-19)
(-0.0248048 -0.139189 -3.95686e-19)
(-0.0134661 -0.143701 2.37579e-19)
(-0.000833618 -0.146843 4.51452e-19)
(0.012663 -0.147677 -2.91148e-19)
(0.0263789 -0.144969 3.34729e-20)
(0.0396402 -0.137043 -1.91649e-20)
(0.0517202 -0.121782 -9.70924e-20)
(0.0589721 -0.0983946 2.10427e-19)
(0.00455523 -0.0105253 9.4463e-20)
(0.00737959 -0.0275015 -3.14993e-19)
(0.003419 -0.0422182 1.72216e-19)
(-0.00401992 -0.0542175 -3.0712e-21)
(-0.0129919 -0.0638105 1.32967e-19)
(-0.0222633 -0.0715424 -2.2909e-19)
(-0.0309337 -0.0779244 1.32113e-19)
(-0.0383813 -0.0834065 3.61153e-19)
(-0.0442009 -0.0883665 -1.1158e-20)
(-0.0481421 -0.0931068 -1.81861e-19)
(-0.0500627 -0.09786 1.80322e-19)
(-0.0498956 -0.102799 -6.38503e-21)
(-0.047625 -0.108043 -5.68558e-19)
(-0.0432701 -0.113663 2.10512e-19)
(-0.0368753 -0.119675 4.53069e-20)
(-0.0285061 -0.126036 -7.41493e-20)
(-0.0182521 -0.132619 -1.32531e-19)
(-0.00623515 -0.13918 5.1771e-19)
(0.00737259 -0.145315 1.15185e-19)
(0.0223115 -0.150391 -2.58222e-19)
(0.0381547 -0.153489 -2.90159e-20)
(0.054241 -0.153316 3.21978e-19)
(0.0698602 -0.147975 -1.51613e-19)
(0.0842223 -0.134877 5.88536e-20)
(0.0931104 -0.112805 3.86755e-20)
(0.00301236 -0.00744206 -1.88287e-19)
(0.00410497 -0.0204706 1.97377e-19)
(-0.000502629 -0.0328179 -1.11421e-19)
(-0.00784103 -0.0435593 -3.60006e-19)
(-0.0161685 -0.0526677 -3.34827e-19)
(-0.0243829 -0.0604373 -1.45652e-19)
(-0.0316745 -0.0671945 -1.24036e-19)
(-0.037483 -0.0732558 -3.64077e-19)
(-0.0414447 -0.0789038 -1.48054e-19)
(-0.0433378 -0.0843743 1.35862e-19)
(-0.0430419 -0.0898561 -1.9196e-19)
(-0.0405086 -0.0954952 -1.99857e-19)
(-0.0357404 -0.1014 -1.85399e-19)
(-0.028777 -0.107642 3.28511e-19)
(-0.0196864 -0.114258 -6.91915e-19)
(-0.00856104 -0.121236 3.82784e-19)
(0.00448127 -0.1285 -6.47914e-19)
(0.0192911 -0.135883 -9.5336e-20)
(0.0356746 -0.14307 -3.34048e-19)
(0.0533612 -0.149531 -7.14473e-20)
(0.0719223 -0.154438 -9.06285e-20)
(0.0906875 -0.156529 -2.84286e-19)
(0.108929 -0.153768 -2.20681e-20)
(0.125853 -0.143083 1.571e-19)
(0.13668 -0.122691 -4.16051e-19)
(0.00139312 -0.00457282 1.59642e-19)
(0.000741452 -0.0138986 2.17757e-19)
(-0.00438161 -0.0239693 7.75368e-19)
(-0.0113939 -0.0334561 -1.36078e-19)
(-0.0187806 -0.0420251 3.2816e-19)
(-0.0255827 -0.0497369 7.8676e-19)
(-0.0310888 -0.0567438 -2.15387e-19)
(-0.0348044 -0.0632343 2.92161e-19)
(-0.0364103 -0.0693976 1.69585e-19)
(-0.0357158 -0.0754025 3.07866e-19)
(-0.0326248 -0.0813903 -5.98913e-20)
(-0.0271109 -0.087475 4.28409e-20)
(-0.0192002 -0.0937454 -1.00267e-19)
(-0.00895971 -0.100267 5.66121e-19)
(0.00350952 -0.107079 7.46004e-20)
(0.0180759 -0.114193 5.03837e-19)
(0.0345774 -0.121575 -1.23289e-19)
(0.052818 -0.129125 4.3839e-19)
(0.0725605 -0.136627 5.49038e-20)
(0.0935033 -0.143686 2.05109e-19)
(0.115204 -0.149628 -8.12107e-20)
(0.136985 -0.153336 -2.39398e-21)
(0.158117 -0.152784 4.37022e-19)
(0.177897 -0.144495 2.44197e-19)
(0.191095 -0.126026 -1.05906e-19)
(-0.00024837 -0.0019703 -3.86437e-19)
(-0.00259076 -0.00789863 -4.09259e-19)
(-0.00805609 -0.0158173 -4.32355e-19)
(-0.0144851 -0.0240682 1.59168e-19)
(-0.0206063 -0.0320496 -3.22717e-19)
(-0.0256121 -0.03961 -4.85288e-20)
(-0.0288952 -0.0467407 -1.27747e-19)
(-0.0300315 -0.0535097 -5.29347e-19)
(-0.0287495 -0.0600162 -8.1668e-20)
(-0.0248928 -0.0663621 1.34859e-19)
(-0.0183934 -0.0726391 -4.19483e-19)
(-0.00925177 -0.0789241 5.81806e-19)
(0.00247666 -0.0852793 -7.81157e-19)
(0.01669 -0.0917521 1.8434e-19)
(0.0332453 -0.0983749 -4.66967e-19)
(0.0519604 -0.105162 -3.68781e-19)
(0.0726151 -0.112103 -1.82705e-20)
(0.0949495 -0.119144 -4.90129e-20)
(0.118662 -0.126157 4.50918e-20)
(0.143396 -0.132881 -1.85885e-19)
(0.168678 -0.138838 -1.22886e-19)
(0.193814 -0.143155 1.41701e-19)
(0.21808 -0.144006 -3.81324e-19)
(0.240973 -0.137706 1.18476e-19)
(0.257094 -0.121159 7.73395e-20)
(-0.00185613 0.000320943 -6.83642e-20)
(-0.00576901 -0.002571 -1.17784e-19)
(-0.0113654 -0.00849688 4.63745e-19)
(-0.0169283 -0.0155522 1.73738e-19)
(-0.0214386 -0.0229114 2.31223e-19)
(-0.0242453 -0.0302355 -3.10307e-19)
(-0.02485 -0.0373709 1.24492e-21)
(-0.0229034 -0.0442742 -2.51582e-19)
(-0.0181859 -0.0509598 4.66909e-19)
(-0.0105806 -0.0574646 1.51188e-19)
(-5.31718e-05 -0.0638295 1.66293e-19)
(0.0133628 -0.0700918 -6.70096e-19)
(0.0295753 -0.0762812 8.15978e-19)
(0.0484397 -0.0824191 -2.4544e-19)
(0.0697622 -0.0885177 -1.69984e-19)
(0.0933013 -0.0945787 5.02332e-19)
(0.118768 -0.10059 2.1416e-19)
(0.145826 -0.106519 -5.40166e-19)
(0.174092 -0.112289 -2.08929e-19)
(0.203133 -0.117746 6.35211e-19)
(0.232423 -0.122597 -4.59819e-19)
(0.261234 -0.126269 2.70704e-19)
(0.288832 -0.127323 1.32865e-19)
(0.314996 -0.122161 -1.69969e-19)
(0.334648 -0.10716 -1.50517e-19)
(-0.00337557 0.00226761 -2.49983e-19)
(-0.00867368 0.00200329 4.04299e-19)
(-0.0141556 -0.00212458 1.74465e-19)
(-0.0185491 -0.00805064 -2.53822e-19)
(-0.0210895 -0.0147718 -4.08498e-20)
(-0.0212844 -0.0217893 -2.68943e-19)
(-0.0187486 -0.0288223 -1.0713e-19)
(-0.0132123 -0.0357273 1.20994e-19)
(-0.00451384 -0.0424404 -3.14265e-20)
(0.00741739 -0.0489368 2.26227e-19)
(0.0225744 -0.0552083 -1.95571e-19)
(0.0408821 -0.0612515 5.41866e-19)
(0.0622028 -0.0670613 -6.62631e-19)
(0.086341 -0.0726281 4.13921e-19)
(0.113044 -0.0779355 5.00115e-19)
(0.142004 -0.0829599 -7.10992e-19)
(0.172857 -0.0876684 -2.07466e-19)
(0.205183 -0.0920162 3.47403e-19)
(0.238507 -0.0959385 -2.08218e-19)
(0.272304 -0.0993309 1.87359e-19)
(0.305965 -0.102024 -4.47126e-19)
(0.338703 -0.103715 7.87234e-20)
(0.369722 -0.10346 2.5649e-19)
(0.399111 -0.0980404 -3.84749e-19)
(0.422803 -0.083533 1.09813e-19)
(-0.00475656 0.00384982 -2.30597e-19)
(-0.0111931 0.00576769 7.52302e-19)
(-0.0162835 0.00320902 1.46326e-19)
(-0.0191875 -0.00168219 -3.97554e-19)
(-0.0193898 -0.00777204 2.86992e-19)
(-0.0165571 -0.0144305 1.47013e-19)
(-0.0104203 -0.0212687 2.34595e-19)
(-0.000795144 -0.0280557 -1.58996e-20)
(0.0124144 -0.0346574 -2.54062e-20)
(0.0292238 -0.0409925 -5.19283e-20)
(0.0495748 -0.0470072 -2.21536e-19)
(0.0733399 -0.0526593 -4.00776e-21)
(0.100326 -0.05791 5.13779e-19)
(0.130277 -0.0627182 -8.25075e-19)
(0.162875 -0.0670371 5.86715e-19)
(0.197741 -0.0708113 1.18578e-19)
(0.234437 -0.0739747 2.04495e-19)
(0.272463 -0.0764474 -9.26369e-20)
(0.311257 -0.0781312 8.59552e-19)
(0.350196 -0.0788993 -5.17425e-19)
(0.388563 -0.0785947 3.94064e-19)
(0.425444 -0.0770381 8.23064e-20)
(0.459859 -0.0736442 -2.55442e-19)
(0.492012 -0.065601 2.0723e-19)
(0.519511 -0.049093 2.92017e-19)
(-0.00595584 0.00506201 -6.65977e-20)
(-0.0132271 0.00869339 -2.64816e-19)
(-0.0176191 0.00744568 -4.56818e-19)
(-0.0186975 0.0034675 -2.62107e-19)
(-0.0161866 -0.00202059 -3.69633e-20)
(-0.00990986 -0.00828591 -1.04613e-19)
(0.00028192 -0.0148513 -4.88575e-19)
(0.0144807 -0.0214121 8.20212e-20)
(0.0327076 -0.0277732 -5.49633e-19)
(0.0549115 -0.033804 -4.20199e-20)
(0.08097 -0.0394101 -5.24818e-19)
(0.11069 -0.044516 -1.84372e-19)
(0.143811 -0.0490541 1.043e-19)
(0.180004 -0.0529574 -4.97342e-19)
(0.218879 -0.0561543 5.56707e-21)
(0.259988 -0.0585632 -4.13495e-19)
(0.302825 -0.0600876 1.54605e-19)
(0.346837 -0.0606086 -5.51146e-19)
(0.39142 -0.0599742 -8.73352e-20)
(0.43592 -0.0579829 -9.88088e-21)
(0.479598 -0.0543771 -8.37655e-20)
(0.521504 -0.048852 -8.69002e-20)
(0.560475 -0.0407008 -4.92803e-20)
(0.596126 -0.027122 -1.56983e-19)
(0.626304 -0.00544942 -2.95191e-19)
(-0.00693861 0.00591249 1.2209e-19)
(-0.0146891 0.0107804 3.35907e-19)
(-0.0180456 0.0105634 4.07461e-19)
(-0.0169447 0.00735313 -3.27381e-19)
(-0.0113366 0.00241706 6.12756e-19)
(-0.00119883 -0.00343664 -3.34213e-19)
(0.0134947 -0.00966223 1.82765e-19)
(0.0327354 -0.0158953 2.85338e-19)
(0.0564575 -0.0218903 2.59394e-19)
(0.0845292 -0.0274755 1.2595e-19)
(0.116747 -0.0325239 2.03437e-19)
(0.152837 -0.0369342 1.18764e-19)
(0.19245 -0.0406195 7.84669e-19)
(0.235173 -0.0434984 -5.64878e-19)
(0.28053 -0.0454891 6.36351e-19)
(0.327997 -0.0465033 -2.58875e-19)
(0.377008 -0.0464393 5.45825e-19)
(0.426978 -0.0451724 -3.30737e-20)
(0.477318 -0.0425394 -1.09907e-19)
(0.52746 -0.0383147 -1.69336e-20)
(0.576883 -0.0321789 3.77265e-19)
(0.625138 -0.0236331 -3.49925e-19)
(0.672097 -0.0115254 2.43607e-19)
(0.718355 0.00662158 2.39669e-19)
(0.760128 0.0277754 4.20603e-20)
(-0.00767883 0.00642161 8.45185e-20)
(-0.0155064 0.0120561 -4.79333e-19)
(-0.0174581 0.0125781 -1.75819e-19)
(-0.0138025 0.00997462 1.62238e-19)
(-0.00470015 0.00552682 -5.01496e-19)
(0.00972058 9.35345e-05 -9.91665e-20)
(0.029358 -0.0057297 6.9241e-20)
(0.0540928 -0.011533 2.74188e-19)
(0.0837579 -0.0170317 -6.96709e-19)
(0.118122 -0.0220227 5.2453e-20)
(0.156882 -0.0263556 -2.04155e-19)
(0.199655 -0.029914 -6.11497e-19)
(0.245987 -0.0326036 4.15214e-19)
(0.295353 -0.0343437 1.70877e-20)
(0.347173 -0.0350619 -1.10311e-20)
(0.400825 -0.0346883 3.96001e-19)
(0.455668 -0.0331516 -6.91788e-19)
(0.511065 -0.030373 5.33382e-19)
(0.566412 -0.0262596 -1.03802e-19)
(0.621177 -0.0206978 2.81318e-19)
(0.674937 -0.0135508 -4.70397e-19)
(0.727427 -0.00463977 2.48995e-19)
(0.778739 0.00644685 -4.3653e-19)
(0.82953 0.0205208 4.2091e-19)
(0.875515 0.0339737 -1.38571e-19)
(-0.00815829 0.00661918 5.67626e-19)
(-0.0156176 0.0125722 -9.60204e-20)
(-0.0157602 0.013542 7.14917e-19)
(-0.00914672 0.011379 3.33774e-19)
(0.00386661 0.00735099 2.72384e-20)
(0.0230024 0.00234589 1.47538e-19)
(0.0480251 -0.00300844 3.6062e-20)
(0.0786916 -0.00827081 6.05077e-19)
(0.114715 -0.0131295 1.95209e-19)
(0.155742 -0.017361 -2.54585e-20)
(0.201342 -0.0208029 5.43115e-20)
(0.250999 -0.0233357 2.03741e-19)
(0.304121 -0.0248717 1.66443e-19)
(0.360046 -0.0253465 3.46222e-19)
(0.418064 -0.0247147 -3.97959e-19)
(0.477434 -0.0229451 1.15619e-19)
(0.537414 -0.0200181 3.78587e-20)
(0.597291 -0.0159227 1.66102e-19)
(0.656413 -0.0106554 4.27009e-19)
(0.714221 -0.00422175 -2.86027e-19)
(0.77028 0.00335508 1.29677e-20)
(0.824303 0.012021 -3.63398e-19)
(0.876225 0.0217632 3.24953e-19)
(0.92633 0.0328673 -3.05687e-19)
(0.970955 0.0432338 3.78203e-20)
(-0.00836481 0.00654124 -4.73488e-19)
(-0.0149704 0.0123998 3.76287e-19)
(-0.0128595 0.0135408 -6.17483e-19)
(-0.00285092 0.011659 5.3488e-20)
(0.0145164 0.00798897 4.40877e-19)
(0.0388153 0.00342936 -7.38392e-19)
(0.0696669 -0.00137578 5.88316e-19)
(0.106687 -0.00596813 -9.36176e-19)
(0.149447 -0.0100218 1.87117e-19)
(0.197441 -0.0133058 3.93396e-20)
(0.25008 -0.0156589 3.10932e-19)
(0.306683 -0.0169728 -1.03818e-18)
(0.366489 -0.017181 1.80436e-19)
(0.428671 -0.0162515 1.86684e-19)
(0.492366 -0.0141814 -1.09877e-19)
(0.556698 -0.0109924 -6.64882e-19)
(0.620815 -0.0067272 3.17067e-19)
(0.683924 -0.00144766 5.64546e-19)
(0.74532 0.00476662 -5.81103e-19)
(0.804417 0.0118159 4.11598e-19)
(0.860762 0.0195731 -5.13309e-19)
(0.914045 0.0278697 3.65483e-19)
(0.96411 0.036536 -9.41763e-20)
(1.01105 0.0457305 5.27319e-19)
(1.05219 0.0545627 -5.91881e-19)
(-0.00828965 0.00622679 6.76227e-20)
(-0.0135164 0.0116237 5.52605e-20)
(-0.00866425 0.0126874 1.3642e-19)
(0.00521689 0.0109486 4.92332e-19)
(0.0274128 0.007594 -1.56691e-20)
(0.0573419 0.00351793 1.11411e-19)
(0.0944677 -0.000634486 4.98349e-19)
(0.138243 -0.0044024 2.01507e-19)
(0.188066 -0.00746031 -6.62899e-20)
(0.243247 -0.00958472 5.65942e-19)
(0.303 -0.0106312 -6.41201e-19)
(0.366446 -0.010519 9.81934e-19)
(0.432625 -0.0092194 -3.868e-19)
(0.500523 -0.00674817 6.92832e-19)
(0.56911 -0.00315801 -2.33673e-19)
(0.637378 0.00146762 8.38937e-20)
(0.704378 0.00702025 1.00808e-19)
(0.769258 0.0133712 -1.82894e-19)
(0.831293 0.0203752 1.5615e-19)
(0.889909 0.0278711 9.66705e-20)
(0.944686 0.0356809 1.28438e-19)
(0.995358 0.0436025 2.59284e-19)
(1.04179 0.051436 -2.86045e-20)
(1.08408 0.0592978 -1.1587e-19)
(1.12055 0.0670887 3.21632e-19)
(-0.00792452 0.00571488 -3.9575e-19)
(-0.0112073 0.010337 4.35671e-20)
(-0.00307912 0.0111159 -7.87086e-19)
(0.0151954 0.00941594 -1.89198e-19)
(0.0427281 0.0063661 -3.56979e-19)
(0.0787718 0.00284283 -7.69429e-20)
(0.122612 -0.000522323 -3.86286e-19)
(0.17351 -0.00328167 -2.31442e-19)
(0.230652 -0.00512685 3.06474e-19)
(0.293128 -0.00585965 -5.13141e-19)
(0.359917 -0.00537115 -1.42585e-19)
(0.429907 -0.00362638 3.62319e-21)
(0.501915 -0.000652139 -9.46059e-19)
(0.574734 0.00347377 3.99325e-19)
(0.647175 0.00863279 -5.74971e-19)
(0.718118 0.0146755 -1.61798e-20)
(0.786553 0.0214314 1.05938e-19)
(0.851623 0.0287167 -1.79655e-19)
(0.912642 0.0363417 -1.53114e-19)
(0.969111 0.0441154 6.99787e-20)
(1.02072 0.0518478 7.5951e-20)
(1.06732 0.0593492 -4.93821e-19)
(1.1089 0.0664454 2.78655e-19)
(1.14567 0.0732405 1.30129e-19)
(1.17676 0.0800862 2.79198e-20)
(-0.00725891 0.00504248 4.04633e-19)
(-0.00799123 0.00863624 -4.47938e-19)
(0.00399614 0.00897466 6.33357e-19)
(0.0272284 0.00725562 9.97621e-20)
(0.0606364 0.00454211 -3.06835e-20)
(0.103289 0.00168033 -2.16423e-19)
(0.154265 -0.000727196 3.29995e-20)
(0.212595 -0.00226377 3.32139e-19)
(0.277216 -0.00265789 -4.59569e-19)
(0.34695 -0.0017576 4.82406e-19)
(0.420508 0.000489271 -5.04529e-20)
(0.496518 0.00405168 2.55465e-20)
(0.573568 0.0088306 6.2049e-19)
(0.650265 0.0146739 8.16722e-19)
(0.725293 0.0213915 -3.21059e-19)
(0.797469 0.0287699 5.51331e-19)
(0.865787 0.0365857 2.69364e-19)
(0.92945 0.0446175 -1.70237e-19)
(0.987888 0.0526544 5.11035e-19)
(1.04075 0.0605031 -2.75094e-20)
(1.08791 0.0679909 -4.71492e-19)
(1.12939 0.0749661 4.84226e-19)
(1.16539 0.0813039 6.07904e-20)
(1.19624 0.0871149 -2.83988e-19)
(1.22171 0.0929667 9.01563e-20)
(-0.00627794 0.00424329 -5.6246e-19)
(-0.00380983 0.00661769 6.10444e-19)
(0.0126667 0.00641997 -3.90012e-19)
(0.0414599 0.00467939 -1.22134e-19)
(0.0813032 0.00238411 -2.76242e-19)
(0.131053 0.000336951 4.91354e-19)
(0.189545 -0.000906048 -2.86001e-19)
(0.255534 -0.00097996 -1.31286e-19)
(0.32766 0.00032674 -3.76315e-19)
(0.404438 0.0030957 1.05367e-20)
(0.48428 0.00729925 -1.47782e-19)
(0.565546 0.0128205 6.97653e-20)
(0.646607 0.0194736 -7.44199e-19)
(0.725922 0.0270249 2.12806e-19)
(0.802101 0.0352133 -2.50111e-19)
(0.873972 0.04377 -1.9725e-19)
(0.940612 0.052435 6.06319e-20)
(1.00137 0.0609705 -2.77631e-19)
(1.05587 0.0691693 -1.11248e-19)
(1.10397 0.0768603 3.35929e-19)
(1.14576 0.0839103 1.34707e-19)
(1.18152 0.0902207 -5.74062e-19)
(1.21162 0.0957271 4.11666e-19)
(1.23658 0.10056 -7.57315e-20)
(1.25656 0.105343 -1.54223e-19)
(-0.00496123 0.0033475 -2.04499e-19)
(0.00140202 0.00437551 -1.13476e-19)
(0.0230402 0.00361156 -2.25916e-20)
(0.0580271 0.00190829 1.69118e-19)
(0.104872 0.000167729 1.84658e-19)
(0.162181 -0.000866324 1.61289e-19)
(0.228498 -0.000705013 2.01971e-19)
(0.302254 0.000940324 3.09132e-19)
(0.381746 0.00419475 4.73509e-19)