/*--------------------------------*- C++ -*----------------------------------*\
  =========                 |
  \\      /  F ield         | OpenFOAM: The Open Source CFD Toolbox
   \\    /   O peration     | Website:  https://openfoam.org
    \\  /    A nd           | Version:  6.0
     \\/     M anipulation  |
\*---------------------------------------------------------------------------*/
FoamFile
{
    version     2.0;
    format      ascii;
    class       volScalarField;
    location    "116";
    object      p;
}
// * * * * * * * * * * * * * * * * * * * * * * * * * * * * * * * * * * * * * //

dimensions      [0 2 -2 0 0 0 0];

internalField   nonuniform List<scalar> 
12500
(
-0.43538
-0.437203
-0.438116
-0.438508
-0.438635
-0.438578
-0.438403
-0.438166
-0.437903
-0.437639
-0.437386
-0.437156
-0.436955
-0.436788
-0.436659
-0.43657
-0.436523
-0.436514
-0.43654
-0.436596
-0.436686
-0.4368
-0.43679
-0.436553
-0.437455
-0.431374
-0.432769
-0.433403
-0.433572
-0.433484
-0.433214
-0.43283
-0.432389
-0.431935
-0.431496
-0.431096
-0.43075
-0.43047
-0.430266
-0.430146
-0.430114
-0.430174
-0.430323
-0.430556
-0.430867
-0.431258
-0.431717
-0.432097
-0.432271
-0.43362
-0.4277
-0.428669
-0.429026
-0.42898
-0.428687
-0.428217
-0.427635
-0.427002
-0.426363
-0.425756
-0.425208
-0.42474
-0.424372
-0.424116
-0.423984
-0.423984
-0.424119
-0.42439
-0.424793
-0.425319
-0.425969
-0.426733
-0.427466
-0.428019
-0.429771
-0.424283
-0.424841
-0.424933
-0.424681
-0.424194
-0.423535
-0.422766
-0.421948
-0.421131
-0.420355
-0.419655
-0.419058
-0.418586
-0.418259
-0.41809
-0.418092
-0.41827
-0.418627
-0.419158
-0.419858
-0.420726
-0.421753
-0.422799
-0.423695
-0.425806
-0.421053
-0.42123
-0.421074
-0.42063
-0.419962
-0.419124
-0.418177
-0.417179
-0.416183
-0.415236
-0.414375
-0.413635
-0.413043
-0.412621
-0.412389
-0.412361
-0.412546
-0.412949
-0.413569
-0.4144
-0.415443
-0.416691
-0.418009
-0.41921
-0.421634
-0.417949
-0.417788
-0.417407
-0.416787
-0.41595
-0.414944
-0.413825
-0.412649
-0.411473
-0.410347
-0.409315
-0.408416
-0.407681
-0.40714
-0.406814
-0.406722
-0.406878
-0.407288
-0.407954
-0.408874
-0.410049
-0.411474
-0.413021
-0.414489
-0.417184
-0.414922
-0.414475
-0.413899
-0.413121
-0.41213
-0.410965
-0.409678
-0.408325
-0.406964
-0.40565
-0.404432
-0.403354
-0.402454
-0.401764
-0.401313
-0.401123
-0.401211
-0.401588
-0.402259
-0.403225
-0.404487
-0.406046
-0.407782
-0.409479
-0.412405
-0.411938
-0.411263
-0.410526
-0.40961
-0.408479
-0.407164
-0.405713
-0.404182
-0.40263
-0.401116
-0.399696
-0.398419
-0.397328
-0.396462
-0.395853
-0.395528
-0.39551
-0.395813
-0.396447
-0.397416
-0.398724
-0.400375
-0.402258
-0.404149
-0.407272
-0.408973
-0.408133
-0.407271
-0.40624
-0.404984
-0.403528
-0.401917
-0.400205
-0.398455
-0.39673
-0.395092
-0.393594
-0.392287
-0.391216
-0.390417
-0.389923
-0.389761
-0.38995
-0.390505
-0.391434
-0.392746
-0.394448
-0.396441
-0.398494
-0.401789
-0.406019
-0.40508
-0.40413
-0.403007
-0.40164
-0.400052
-0.398283
-0.396389
-0.394435
-0.392489
-0.390616
-0.388879
-0.387333
-0.386029
-0.385009
-0.384312
-0.38397
-0.384006
-0.384442
-0.385291
-0.386567
-0.388281
-0.390347
-0.392536
-0.395987
-0.403079
-0.402106
-0.401105
-0.399911
-0.398449
-0.396737
-0.394815
-0.392738
-0.390576
-0.388399
-0.38628
-0.384287
-0.382483
-0.380922
-0.379655
-0.378725
-0.378169
-0.378017
-0.378296
-0.379025
-0.380225
-0.381916
-0.384021
-0.386324
-0.389926
-0.400169
-0.399223
-0.398207
-0.396963
-0.39542
-0.393593
-0.391522
-0.389263
-0.38689
-0.384478
-0.382106
-0.379847
-0.37777
-0.375936
-0.374401
-0.373213
-0.372415
-0.372043
-0.372131
-0.372704
-0.373791
-0.375421
-0.377533
-0.379929
-0.383687
-0.397316
-0.396454
-0.395455
-0.39418
-0.392567
-0.390633
-0.388418
-0.385982
-0.383399
-0.380753
-0.378126
-0.375598
-0.373242
-0.371126
-0.36931
-0.367849
-0.366789
-0.366173
-0.36604
-0.366424
-0.367363
-0.368895
-0.370978
-0.373443
-0.377365
-0.39456
-0.39383
-0.392873
-0.391582
-0.389911
-0.387878
-0.385525
-0.382917
-0.380133
-0.377258
-0.374383
-0.37159
-0.368959
-0.366563
-0.364466
-0.362726
-0.361395
-0.360521
-0.360146
-0.360313
-0.361069
-0.362464
-0.364473
-0.366968
-0.371051
-0.391948
-0.391389
-0.390495
-0.389199
-0.387478
-0.385353
-0.382871
-0.3801
-0.377124
-0.374035
-0.370925
-0.367884
-0.364993
-0.362331
-0.359965
-0.357955
-0.356358
-0.355222
-0.354595
-0.354525
-0.355066
-0.356279
-0.358156
-0.360616
-0.364822
-0.389541
-0.389179
-0.388361
-0.387066
-0.3853
-0.383089
-0.380487
-0.377567
-0.374416
-0.371132
-0.367811
-0.364545
-0.361422
-0.35852
-0.355911
-0.353656
-0.351811
-0.350427
-0.349552
-0.349235
-0.349535
-0.350517
-0.352185
-0.354499
-0.358733
-0.387405
-0.387252
-0.386514
-0.385222
-0.383415
-0.381126
-0.378414
-0.37536
-0.372057
-0.368604
-0.365102
-0.361647
-0.358328
-0.355226
-0.352413
-0.349951
-0.347894
-0.346291
-0.345186
-0.344625
-0.344661
-0.345361
-0.346723
-0.34873
-0.352816
-0.385614
-0.385667
-0.385005
-0.383714
-0.381866
-0.379506
-0.376698
-0.373529
-0.370099
-0.366509
-0.362864
-0.359262
-0.355793
-0.35254
-0.349574
-0.346955
-0.344733
-0.342952
-0.341648
-0.340854
-0.340613
-0.340975
-0.34192
-0.343412
-0.347086
-0.384243
-0.384484
-0.383885
-0.382589
-0.380701
-0.378275
-0.375386
-0.372125
-0.368597
-0.364907
-0.361161
-0.35746
-0.353893
-0.350544
-0.34748
-0.344759
-0.342426
-0.340514
-0.339045
-0.338035
-0.337503
-0.337472
-0.33788
-0.338626
-0.341553
-0.383369
-0.383762
-0.383207
-0.381896
-0.379966
-0.377483
-0.374527
-0.371199
-0.367605
-0.363853
-0.360051
-0.356299
-0.352688
-0.349296
-0.346191
-0.343423
-0.341028
-0.339027
-0.337424
-0.336209
-0.335368
-0.334885
-0.33464
-0.33442
-0.33624
-0.38306
-0.383556
-0.383018
-0.381679
-0.379705
-0.377171
-0.374166
-0.370795
-0.367167
-0.363392
-0.359577
-0.355822
-0.352214
-0.34883
-0.345731
-0.342961
-0.340543
-0.338482
-0.336761
-0.33534
-0.334165
-0.333173
-0.332181
-0.330831
-0.331215
-0.383374
-0.383912
-0.383359
-0.381977
-0.379954
-0.377375
-0.374336
-0.370946
-0.367313
-0.36355
-0.359761
-0.356042
-0.352479
-0.349142
-0.346085
-0.343341
-0.340923
-0.338815
-0.336977
-0.335337
-0.3338
-0.332254
-0.330463
-0.327918
-0.326634
-0.384354
-0.384867
-0.384262
-0.382818
-0.380739
-0.378118
-0.375057
-0.371666
-0.368054
-0.364331
-0.360597
-0.356946
-0.353456
-0.350192
-0.347197
-0.344496
-0.342083
-0.339927
-0.337964
-0.336089
-0.334167
-0.332035
-0.329415
-0.325665
-0.322558
-0.386028
-0.386443
-0.385744
-0.384218
-0.382072
-0.379408
-0.376331
-0.372952
-0.369378
-0.365714
-0.362056
-0.358491
-0.355091
-0.351911
-0.348986
-0.346328
-0.34392
-0.341716
-0.339633
-0.337545
-0.335278
-0.332613
-0.329183
-0.324142
-0.318972
-0.388405
-0.388647
-0.387813
-0.386179
-0.383951
-0.381238
-0.378145
-0.374783
-0.371255
-0.367659
-0.364086
-0.360615
-0.357307
-0.354209
-0.351348
-0.348724
-0.346316
-0.344073
-0.341912
-0.33972
-0.337337
-0.334554
-0.330941
-0.32542
-0.319183
-0.391478
-0.391478
-0.390466
-0.388695
-0.386365
-0.383589
-0.380474
-0.377125
-0.373641
-0.370113
-0.366623
-0.363239
-0.360014
-0.356984
-0.354166
-0.351556
-0.349128
-0.346838
-0.344626
-0.342423
-0.340163
-0.337808
-0.335318
-0.33288
-0.334173
-0.39523
-0.394924
-0.393691
-0.391753
-0.389296
-0.386438
-0.383285
-0.379939
-0.376489
-0.373019
-0.369598
-0.366285
-0.363121
-0.360131
-0.357323
-0.354686
-0.352193
-0.349809
-0.347488
-0.345193
-0.342904
-0.340642
-0.338469
-0.336612
-0.337441
-0.399636
-0.398968
-0.397472
-0.395334
-0.392722
-0.389759
-0.38655
-0.383188
-0.379756
-0.376325
-0.372953
-0.369685
-0.366549
-0.363558
-0.36071
-0.357989
-0.355368
-0.352812
-0.350292
-0.347785
-0.345288
-0.342832
-0.340474
-0.338303
-0.337645
-0.404671
-0.403592
-0.401796
-0.399425
-0.396629
-0.393534
-0.390245
-0.386846
-0.383408
-0.379992
-0.376639
-0.373379
-0.370227
-0.367182
-0.364232
-0.361354
-0.358522
-0.355704
-0.352877
-0.350026
-0.347154
-0.344281
-0.341438
-0.338635
-0.336632
-0.410311
-0.408782
-0.406649
-0.404014
-0.401005
-0.397753
-0.394359
-0.390897
-0.387428
-0.383994
-0.380622
-0.377323
-0.374097
-0.370931
-0.367802
-0.364683
-0.361547
-0.358369
-0.355131
-0.351826
-0.348458
-0.345041
-0.341592
-0.338093
-0.334971
-0.416539
-0.414526
-0.412027
-0.4091
-0.405852
-0.402417
-0.398892
-0.395341
-0.391808
-0.388318
-0.384877
-0.381481
-0.37811
-0.374741
-0.371344
-0.367891
-0.364357
-0.360724
-0.356986
-0.353142
-0.349205
-0.345191
-0.341117
-0.336964
-0.332986
-0.423346
-0.42082
-0.417929
-0.414687
-0.411176
-0.407536
-0.403855
-0.400186
-0.396551
-0.392955
-0.389386
-0.385818
-0.382219
-0.378554
-0.374791
-0.370905
-0.366881
-0.362711
-0.358401
-0.353965
-0.349424
-0.344805
-0.340129
-0.335388
-0.330745
-0.43073
-0.427666
-0.424362
-0.420786
-0.416993
-0.413126
-0.409265
-0.405442
-0.401659
-0.397899
-0.394126
-0.390299
-0.386373
-0.38231
-0.37808
-0.373666
-0.369067
-0.364291
-0.359359
-0.354301
-0.34915
-0.343941
-0.338705
-0.333444
-0.328277
-0.438692
-0.435068
-0.431334
-0.42741
-0.423321
-0.419207
-0.415137
-0.411119
-0.407132
-0.403133
-0.399068
-0.394881
-0.39052
-0.385951
-0.381152
-0.376123
-0.370877
-0.365443
-0.359859
-0.354169
-0.348417
-0.342645
-0.336893
-0.331168
-0.325566
-0.447235
-0.44303
-0.438855
-0.434572
-0.430174
-0.425793
-0.421479
-0.417216
-0.412956
-0.408631
-0.404171
-0.399511
-0.394603
-0.389419
-0.383957
-0.378234
-0.372286
-0.36616
-0.35991
-0.353592
-0.347258
-0.340955
-0.334724
-0.328579
-0.322596
-0.45636
-0.451554
-0.446928
-0.442281
-0.437562
-0.43289
-0.428292
-0.423722
-0.419104
-0.414351
-0.40938
-0.404129
-0.398557
-0.392657
-0.386447
-0.379969
-0.373279
-0.366442
-0.359526
-0.352594
-0.345703
-0.338899
-0.332222
-0.325688
-0.319356
-0.466059
-0.460635
-0.455554
-0.450538
-0.445484
-0.440491
-0.435556
-0.430603
-0.425529
-0.420233
-0.414629
-0.408664
-0.402319
-0.395609
-0.388582
-0.381302
-0.373847
-0.366296
-0.358725
-0.3512
-0.343778
-0.336502
-0.329407
-0.322506
-0.315843
-0.476315
-0.470259
-0.46472
-0.459332
-0.453925
-0.448573
-0.443237
-0.43781
-0.432168
-0.426203
-0.419839
-0.413042
-0.405821
-0.398225
-0.390327
-0.382217
-0.373988
-0.365731
-0.357523
-0.34943
-0.341505
-0.333784
-0.326293
-0.319044
-0.312063
-0.487097
-0.480399
-0.474403
-0.468638
-0.462855
-0.457093
-0.451278
-0.445271
-0.438938
-0.432173
-0.424923
-0.417183
-0.408999
-0.400454
-0.391651
-0.382697
-0.3737
-0.364753
-0.355933
-0.3473
-0.338899
-0.330757
-0.322893
-0.315311
-0.308023
-0.498358
-0.491014
-0.484563
-0.478413
-0.472223
-0.465989
-0.459601
-0.452897
-0.44574
-0.438044
-0.429786
-0.421006
-0.41179
-0.402254
-0.392526
-0.382731
-0.372982
-0.363369
-0.353965
-0.34482
-0.335969
-0.327431
-0.319214
-0.311313
-0.303731
-0.510034
-0.502046
-0.495146
-0.488598
-0.481959
-0.475178
-0.46811
-0.46058
-0.452463
-0.443706
-0.434334
-0.424433
-0.414132
-0.40358
-0.392927
-0.382305
-0.371826
-0.361577
-0.351619
-0.341992
-0.332719
-0.323808
-0.315257
-0.307053
-0.299191
-0.522042
-0.513421
-0.506077
-0.499114
-0.491973
-0.484555
-0.476688
-0.468196
-0.458984
-0.449048
-0.438468
-0.427384
-0.415967
-0.404394
-0.392827
-0.381402
-0.370225
-0.359373
-0.348893
-0.338813
-0.329144
-0.319882
-0.311018
-0.302527
-0.294404
-0.534283
-0.525045
-0.517263
-0.50986
-0.502154
-0.493996
-0.4852
-0.475609
-0.465174
-0.453953
-0.442093
-0.429785
-0.41724
-0.404655
-0.392199
-0.380003
-0.368164
-0.356744
-0.345775
-0.335272
-0.325233
-0.315645
-0.30649
-0.297729
-0.289365
-0.546636
-0.536807
-0.528592
-0.520717
-0.512368
-0.503358
-0.4935
-0.482675
-0.4709
-0.458309
-0.445115
-0.431564
-0.417897
-0.404324
-0.391013
-0.378087
-0.365625
-0.353673
-0.342249
-0.331354
-0.320971
-0.311082
-0.301657
-0.292645
-0.284065
-0.558963
-0.548576
-0.539932
-0.531544
-0.522467
-0.512484
-0.501429
-0.489244
-0.476028
-0.462002
-0.447446
-0.432653
-0.417886
-0.403362
-0.389239
-0.375625
-0.362582
-0.350138
-0.338294
-0.327036
-0.316339
-0.306173
-0.296501
-0.28726
-0.278488
-0.571111
-0.560206
-0.551135
-0.542184
-0.532283
-0.521202
-0.50882
-0.495163
-0.480428
-0.464925
-0.449
-0.432985
-0.417157
-0.401728
-0.386843
-0.372589
-0.359009
-0.346112
-0.333883
-0.322295
-0.311312
-0.300896
-0.291002
-0.281553
-0.272617
-0.582909
-0.571531
-0.562032
-0.552462
-0.541635
-0.529332
-0.515504
-0.500281
-0.483972
-0.466974
-0.449697
-0.432497
-0.415658
-0.399379
-0.383787
-0.368945
-0.354874
-0.341565
-0.328988
-0.317102
-0.305863
-0.295226
-0.285136
-0.275504
-0.266432
-0.594173
-0.582374
-0.572442
-0.562189
-0.550333
-0.53669
-0.521311
-0.504452
-0.486538
-0.468055
-0.44946
-0.431129
-0.413341
-0.396275
-0.380033
-0.364656
-0.350143
-0.336465
-0.323578
-0.311429
-0.299966
-0.289137
-0.278878
-0.269087
-0.25991
-0.60471
-0.592544
-0.582173
-0.571169
-0.55818
-0.54309
-0.526076
-0.507536
-0.488013
-0.468075
-0.448218
-0.428824
-0.410156
-0.392371
-0.375543
-0.359687
-0.344781
-0.330778
-0.31762
-0.305245
-0.293591
-0.282601
-0.272202
-0.26228
-0.253029
-0.614317
-0.601843
-0.591021
-0.579197
-0.564978
-0.548349
-0.52964
-0.5094
-0.488292
-0.466953
-0.445905
-0.425526
-0.406057
-0.387625
-0.370276
-0.354
-0.338752
-0.32447
-0.311084
-0.29852
-0.28671
-0.275592
-0.265083
-0.255059
-0.245767
-0.622788
-0.610065
-0.59878
-0.586067
-0.570532
-0.552292
-0.531853
-0.509924
-0.487279
-0.464613
-0.44246
-0.421184
-0.400998
-0.381996
-0.364195
-0.347558
-0.332022
-0.31751
-0.303938
-0.291225
-0.279296
-0.268084
-0.257497
-0.2474
-0.238101
-0.629912
-0.617003
-0.605241
-0.591575
-0.57465
-0.554751
-0.532577
-0.508997
-0.484887
-0.460985
-0.437826
-0.41575
-0.394935
-0.375444
-0.35726
-0.340326
-0.324558
-0.309865
-0.296152
-0.283332
-0.271323
-0.260054
-0.249422
-0.239284
-0.230012
-0.635487
-0.622451
-0.6102
-0.595523
-0.577154
-0.555574
-0.531687
-0.506522
-0.48104
-0.456009
-0.431953
-0.409179
-0.38783
-0.367931
-0.349439
-0.332271
-0.316329
-0.301506
-0.287701
-0.274816
-0.262768
-0.251479
-0.240836
-0.230691
-0.221482
-0.639311
-0.62621
-0.613457
-0.597724
-0.577876
-0.55462
-0.529074
-0.502412
-0.475672
-0.449632
-0.424796
-0.401433
-0.379645
-0.359424
-0.340698
-0.323363
-0.307306
-0.292408
-0.278559
-0.265657
-0.253611
-0.242342
-0.231725
-0.221606
-0.212497
-0.641197
-0.62809
-0.614827
-0.598004
-0.576667
-0.55177
-0.524643
-0.496597
-0.468727
-0.44181
-0.416317
-0.392476
-0.370348
-0.349892
-0.331009
-0.313577
-0.297465
-0.282548
-0.268707
-0.255834
-0.243835
-0.232626
-0.222072
-0.212016
-0.203045
-0.640968
-0.627913
-0.614136
-0.596207
-0.573395
-0.546917
-0.518314
-0.489017
-0.460159
-0.432504
-0.406483
-0.38228
-0.359914
-0.339312
-0.32035
-0.30289
-0.286788
-0.271909
-0.258129
-0.245333
-0.233426
-0.222321
-0.211869
-0.201913
-0.193116
-0.638465
-0.625519
-0.611231
-0.592195
-0.567948
-0.539979
-0.510027
-0.479628
-0.449936
-0.421688
-0.395271
-0.370822
-0.34832
-0.327662
-0.308702
-0.291285
-0.275257
-0.260476
-0.246811
-0.234144
-0.222377
-0.211419
-0.201109
-0.191292
-0.182709
-0.633546
-0.620764
-0.605976
-0.585854
-0.560237
-0.530888
-0.499736
-0.468398
-0.438033
-0.409342
-0.382663
-0.358086
-0.335552
-0.314928
-0.296051
-0.27875
-0.262863
-0.248241
-0.234747
-0.222261
-0.210683
-0.199916
-0.18979
-0.180153
-0.17182
-0.626095
-0.613529
-0.598261
-0.577091
-0.550192
-0.5196
-0.487413
-0.455308
-0.424437
-0.395457
-0.368651
-0.344063
-0.3216
-0.301103
-0.28239
-0.265279
-0.249601
-0.235199
-0.221934
-0.209682
-0.198342
-0.187813
-0.177914
-0.168498
-0.160456
-0.616014
-0.603717
-0.587999
-0.56584
-0.537769
-0.506089
-0.473044
-0.440355
-0.409148
-0.380031
-0.353232
-0.328752
-0.306464
-0.286184
-0.267717
-0.250871
-0.235469
-0.22135
-0.208373
-0.19641
-0.185359
-0.175116
-0.165489
-0.156336
-0.148623
-0.603235
-0.591256
-0.575128
-0.552057
-0.522945
-0.490349
-0.456634
-0.423546
-0.392176
-0.363073
-0.336415
-0.312159
-0.290146
-0.270176
-0.252037
-0.23553
-0.220473
-0.206701
-0.19407
-0.182452
-0.171742
-0.161835
-0.152525
-0.14368
-0.136334
-0.587713
-0.576102
-0.559613
-0.535724
-0.505721
-0.472392
-0.438202
-0.404904
-0.37354
-0.344602
-0.318215
-0.294296
-0.27266
-0.253088
-0.235359
-0.219265
-0.204622
-0.191262
-0.179037
-0.16782
-0.157505
-0.147982
-0.139038
-0.130546
-0.123607
-0.56943
-0.558236
-0.541446
-0.51685
-0.486119
-0.452249
-0.417784
-0.384462
-0.353272
-0.324645
-0.298656
-0.275185
-0.254023
-0.234938
-0.217697
-0.202091
-0.18793
-0.175045
-0.163287
-0.152528
-0.142662
-0.133576
-0.125047
-0.116957
-0.110463
-0.548397
-0.537666
-0.520644
-0.495467
-0.464181
-0.429971
-0.39543
-0.362268
-0.331415
-0.30324
-0.277771
-0.254854
-0.234262
-0.215747
-0.199074
-0.184027
-0.170415
-0.158069
-0.146838
-0.136595
-0.127234
-0.118638
-0.110576
-0.102937
-0.0969268
-0.524649
-0.514428
-0.497252
-0.471628
-0.439972
-0.405623
-0.371203
-0.338381
-0.308022
-0.280434
-0.255601
-0.23334
-0.213406
-0.195544
-0.179513
-0.165095
-0.152098
-0.140353
-0.12971
-0.120041
-0.111241
-0.10319
-0.0956505
-0.0885154
-0.0830267
-0.498249
-0.488584
-0.471339
-0.445414
-0.413574
-0.379288
-0.345183
-0.312873
-0.283156
-0.256283
-0.232195
-0.210685
-0.191495
-0.174363
-0.159044
-0.145321
-0.133003
-0.12192
-0.111924
-0.102887
-0.0947063
-0.0872583
-0.0802991
-0.0737246
-0.0687983
-0.469285
-0.460221
-0.442997
-0.416923
-0.38509
-0.351066
-0.317462
-0.285828
-0.256893
-0.230853
-0.207612
-0.186942
-0.168574
-0.152242
-0.137701
-0.124735
-0.113154
-0.102791
-0.0934999
-0.0851537
-0.0776504
-0.0708658
-0.0645514
-0.0586023
-0.0542878
-0.437871
-0.429448
-0.412342
-0.386274
-0.354639
-0.321069
-0.288143
-0.25734
-0.229318
-0.204221
-0.18192
-0.16217
-0.144695
-0.129226
-0.115521
-0.103367
-0.0925773
-0.0829879
-0.0744554
-0.0668563
-0.06009
-0.0540323
-0.0484338
-0.0431874
-0.0395445
-0.40414
-0.396401
-0.379511
-0.353606
-0.322354
-0.289426
-0.257345
-0.227517
-0.200528
-0.176473
-0.155195
-0.136436
-0.119914
-0.105364
-0.0925452
-0.0812498
-0.0712964
-0.0625268
-0.054802
-0.048003
-0.0420318
-0.036767
-0.0319646
-0.0275111
-0.0245948
-0.368249
-0.361233
-0.344658
-0.319075
-0.288387
-0.256275
-0.225198
-0.196475
-0.170628
-0.147704
-0.127524
-0.109817
-0.0943012
-0.0807128
-0.0688187
-0.058417
-0.049334
-0.041419
-0.0345405
-0.0285861
-0.0234629
-0.019057
-0.0151372
-0.0115701
-0.00941097
-0.330374
-0.324116
-0.307958
-0.28285
-0.252899
-0.221771
-0.191841
-0.164344
-0.139736
-0.118024
-0.099004
-0.0824006
-0.0679314
-0.055338
-0.0443947
-0.0349081
-0.0267141
-0.0196723
-0.0136617
-0.00858054
-0.00434522
-0.000854599
0.00210237
0.00469183
0.00604026
-0.290707
-0.285242
-0.269599
-0.245115
-0.216067
-0.186076
-0.157426
-0.131264
-0.107982
-0.0875488
-0.0697438
-0.0542854
-0.0408935
-0.0293163
-0.0193365
-0.0107714
-0.00346818
0.00270028
0.00783938
0.0120348
0.0153574
0.0178916
0.019807
0.0212604
0.0215445
-0.249455
-0.244814
-0.229783
-0.206066
-0.178075
-0.149363
-0.122113
-0.0973833
-0.0755037
-0.0564092
-0.0398639
-0.0255826
-0.0132886
-0.00273653
0.00628156
0.0139374
0.02037
0.025689
0.0299758
0.0332898
0.0356835
0.0372101
0.037913
0.0377902
0.0364182
-0.20684
-0.203049
-0.188722
-0.165907
-0.139116
-0.111814
-0.0860712
-0.0628596
-0.0424496
-0.0247452
-0.00949735
0.00358174
0.0147658
0.0242947
0.0323692
0.0391524
0.0447721
0.0493195
0.0528472
0.0553806
0.0569448
0.0575059
0.0567728
0.0543608
0.050772
-0.163091
-0.160175
-0.146638
-0.124852
-0.0993913
-0.0736149
-0.0494758
-0.0278578
-0.00897638
0.00729295
0.0212104
0.0330655
0.04313
0.0516406
0.0587958
0.0647578
0.0696544
0.0735756
0.0765699
0.078667
0.0799079
0.080156
0.0786165
0.0744777
0.0699459
-0.11845
-0.116427
-0.10376
-0.0831176
-0.0591057
-0.034958
-0.0125062
0.00745229
0.0247538
0.0395481
0.0521043
0.0627129
0.0716436
0.0791309
0.0853738
0.0905389
0.0947643
0.0981596
0.100811
0.102829
0.104383
0.105416
0.104917
0.102297
0.10548
-0.073154
-0.0720403
-0.0603184
-0.0409249
-0.0184662
0.00396304
0.0246555
0.0428985
0.0585761
0.0718602
0.0830266
0.0923649
0.100142
0.106588
0.111901
0.116249
0.119773
0.122591
0.124812
0.126575
0.128059
0.129234
0.129534
0.12944
0.135058
-0.0274515
-0.0272592
-0.0165487
0.00150338
0.0223186
0.0429536
0.0618274
0.0783089
0.0923264
0.104071
0.113822
0.121866
0.128467
0.133849
0.138209
0.14171
0.144497
0.146691
0.148408
0.149785
0.150976
0.151947
0.152299
0.152585
0.157616
0.0184088
0.0176723
0.0273141
0.0439451
0.0630413
0.0818208
0.0988293
0.113514
0.125844
0.136025
0.144339
0.151069
0.15647
0.160763
0.164135
0.166749
0.168743
0.170238
0.171345
0.172196
0.172926
0.173511
0.173618
0.173688
0.177653
0.0641792
0.0625114
0.0710363
0.08618
0.103497
0.120375
0.135484
0.148348
0.158972
0.167574
0.174436
0.179835
0.184019
0.187198
0.189555
0.191243
0.192394
0.193123
0.193531
0.193737
0.193855
0.193851
0.193424
0.192984
0.195943
0.109615
0.107017
0.114387
0.127992
0.143485
0.158429
0.17162
0.182651
0.191561
0.198577
0.20398
0.208039
0.210992
0.213042
0.214361
0.215094
0.215365
0.215278
0.214928
0.214416
0.213841
0.213155
0.212082
0.211026
0.213014
0.154474
0.150953
0.15714
0.169168
0.18281
0.195804
0.20707
0.216268
0.223466
0.2289
0.232846
0.235564
0.237283
0.238196
0.238464
0.238224
0.23759
0.236657
0.23551
0.234238
0.232923
0.231508
0.229745
0.228042
0.229103
0.19852
0.194088
0.199074
0.209503
0.22128
0.232324
0.241673
0.24905
0.254551
0.258416
0.260916
0.262302
0.262793
0.26257
0.261786
0.260567
0.259019
0.257227
0.255267
0.253219
0.251148
0.248993
0.246536
0.244188
0.244362
0.241524
0.236197
0.239974
0.248797
0.258712
0.26782
0.275274
0.280855
0.284684
0.287003
0.288079
0.288152
0.287429
0.286083
0.284256
0.282064
0.279605
0.276956
0.274185
0.27136
0.268536
0.265652
0.262517
0.259537
0.258861
0.283264
0.277062
0.279634
0.286856
0.294929
0.302131
0.307724
0.311547
0.313739
0.314548
0.314229
0.313017
0.311106
0.308658
0.305807
0.30266
0.299305
0.295812
0.292241
0.288653
0.285094
0.281503
0.277714
0.274123
0.272632
0.323525
0.316473
0.317856
0.323498
0.329762
0.3351
0.338881
0.340994
0.341598
0.340939
0.339268
0.336806
0.33374
0.330222
0.326374
0.322297
0.31807
0.313756
0.309409
0.305082
0.300813
0.296542
0.29213
0.287952
0.285682
0.362103
0.354231
0.354448
0.358546
0.363049
0.366581
0.36861
0.369073
0.368145
0.366072
0.363097
0.359433
0.355254
0.350703
0.345895
0.340921
0.335854
0.330749
0.325655
0.320619
0.31567
0.310754
0.305753
0.301015
0.298
0.398802
0.390146
0.389231
0.391832
0.394637
0.396432
0.396781
0.395665
0.393272
0.389848
0.385627
0.380813
0.37557
0.370033
0.364307
0.358476
0.352606
0.346747
0.340942
0.335231
0.329639
0.324114
0.318558
0.31329
0.309565
0.433438
0.424036
0.422034
0.423198
0.424381
0.424522
0.423274
0.420659
0.416877
0.412171
0.40677
0.400866
0.394616
0.388144
0.381548
0.374906
0.368277
0.361706
0.355229
0.348882
0.342684
0.33659
0.330516
0.324748
0.320352
0.465838
0.455734
0.452698
0.452498
0.452144
0.450725
0.447974
0.44395
0.438862
0.432953
0.426443
0.419516
0.41232
0.404971
0.39756
0.390158
0.382817
0.375579
0.368475
0.361534
0.354772
0.348148
0.341594
0.335358
0.330332
0.49584
0.485081
0.481073
0.479592
0.477801
0.474925
0.470774
0.465438
0.459137
0.452109
0.444569
0.436692
0.428617
0.420453
0.412286
0.404178
0.396178
0.388321
0.380635
0.373145
0.365863
0.358752
0.351757
0.345087
0.339475
0.523295
0.511932
0.507022
0.504355
0.501235
0.497016
0.491576
0.485033
0.477616
0.469561
0.461074
0.452324
0.443443
0.434532
0.42567
0.416915
0.408311
0.399888
0.391671
0.383679
0.375921
0.368367
0.36097
0.353902
0.34775
0.548066
0.536155
0.530419
0.526668
0.522339
0.516899
0.510288
0.502651
0.494223
0.485236
0.475893
0.466352
0.456741
0.447153
0.437663
0.428323
0.419172
0.410238
0.401541
0.393096
0.38491
0.376957
0.3692
0.361771
0.35513
0.57003
0.557628
0.551152
0.546429
0.541016
0.534484
0.526828
0.518216
0.508886
0.499069
0.488962
0.478718
0.468456
0.458267
0.448217
0.438356
0.42872
0.419332
0.410208
0.401362
0.392796
0.384491
0.376414
0.368665
0.361587
0.589077
0.576246
0.569118
0.563542
0.55718
0.549693
0.541124
0.531659
0.521542
0.511002
0.500228
0.48937
0.478541
0.467827
0.45729
0.446976
0.436917
0.427133
0.417639
0.408444
0.399549
0.390938
0.382585
0.374556
0.367098
0.605111
0.591915
0.584231
0.577927
0.570756
0.562457
0.553112
0.542922
0.532136
0.520981
0.509642
0.498263
0.486953
0.475794
0.464844
0.454146
0.443729
0.433611
0.423804
0.414314
0.405141
0.396272
0.387686
0.37942
0.37164
0.618051
0.604555
0.596416
0.589515
0.581681
0.572717
0.562736
0.551954
0.540622
0.528964
0.517163
0.505358
0.493656
0.482134
0.470847
0.459837
0.449128
0.438739
0.428676
0.418946
0.409548
0.40047
0.391695
0.383237
0.375195
0.62783
0.614103
0.605611
0.598248
0.589903
0.580424
0.569952
0.558713
0.546959
0.534913
0.522756
0.510624
0.498619
0.486818
0.475273
0.464022
0.45309
0.442492
0.432235
0.422321
0.41275
0.403513
0.394593
0.385988
0.377749
0.634397
0.620507
0.611769
0.604083
0.595379
0.585541
0.574725
0.563166
0.551117
0.538802
0.526396
0.514035
0.50182
0.489824
0.4781
0.466683
0.455596
0.444853
0.434461
0.424422
0.414732
0.405386
0.396367
0.387661
0.379289
0.637714
0.623732
0.614856
0.606988
0.598082
0.588041
0.577031
0.565291
0.553076
0.540608
0.528062
0.515574
0.503241
0.491137
0.479313
0.467804
0.456632
0.44581
0.435345
0.425237
0.415483
0.406078
0.397006
0.388246
0.379806
0.637759
0.623757
0.614852
0.606946
0.597995
0.587908
0.576855
0.565074
0.552822
0.54032
0.527745
0.515229
0.502873
0.490747
0.478904
0.467377
0.45619
0.445355
0.434878
0.42476
0.414997
0.405584
0.396504
0.387738
0.379297
0.634527
0.620575
0.61175
0.603949
0.595112
0.585137
0.574191
0.562511
0.550351
0.537935
0.52544
0.512998
0.500711
0.488651
0.476869
0.465401
0.454268
0.443486
0.433059
0.422988
0.413271
0.403901
0.39486
0.386134
0.377758
0.628026
0.614195
0.60556
0.598005
0.58944
0.579735
0.569047
0.557606
0.545668
0.533458
0.521151
0.508885
0.496761
0.484853
0.473213
0.461877
0.45087
0.440205
0.429889
0.419925
0.410309
0.401032
0.392076
0.383438
0.375194
0.61828
0.604639
0.596303
0.589136
0.580997
0.571719
0.561437
0.550375
0.538788
0.5269
0.514892
0.502902
0.491033
0.479363
0.467945
0.456817
0.446004
0.435522
0.425378
0.415577
0.406117
0.396984
0.388158
0.379656
0.371608
0.605328
0.591947
0.584014
0.577373
0.569815
0.561117
0.551388
0.540842
0.529732
0.518284
0.506681
0.495066
0.483545
0.472197
0.46108
0.450233
0.439684
0.429449
0.419539
0.409958
0.400707
0.391769
0.383119
0.374798
0.36701
0.589225
0.576171
0.568743
0.562763
0.555934
0.547968
0.538936
0.529041
0.518532
0.507638
0.496547
0.485404
0.47432
0.463379
0.45264
0.442147
0.431929
0.422005
0.412388
0.403084
0.394096
0.385402
0.376972
0.368878
0.361412
0.570038
0.557376
0.550554
0.545364
0.53941
0.53232
0.524127
0.515014
0.505228
0.495
0.484523
0.473948
0.46339
0.452937
0.442653
0.432584
0.422764
0.413213
0.403947
0.394976
0.386304
0.377904
0.369739
0.361915
0.354831
0.547852
0.535645
0.529521
0.525246
0.520306
0.514235
0.507015
0.498812
0.489867
0.480414
0.470652
0.460737
0.450791
0.440906
0.43115
0.421576
0.412218
0.403101
0.394244
0.38566
0.377354
0.369296
0.36144
0.353929
0.347284
0.522763
0.511072
0.505735
0.502491
0.498698
0.493781
0.487666
0.480495
0.472505
0.463933
0.454982
0.445817
0.436565
0.427325
0.41817
0.409156
0.400323
0.3917
0.383307
0.375163
0.367275
0.359606
0.352102
0.344945
0.338794
0.494883
0.483764
0.479297
0.477195
0.474674
0.471039
0.466153
0.460132
0.453206
0.445614
0.437568
0.429238
0.420761
0.412239
0.403754
0.395365
0.387118
0.379045
0.371171
0.363518
0.356096
0.348864
0.341754
0.334989
0.329385
0.464337
0.453844
0.450321
0.449462
0.448329
0.446098
0.442559
0.437798
0.432039
0.425524
0.418471
0.411059
0.403431
0.395698
0.387948
0.380247
0.372643
0.365175
0.357871
0.350758
0.34385
0.3371
0.330426
0.324092
0.319083
0.431261
0.421444
0.418934
0.419409
0.419772
0.419056
0.416973
0.413577
0.409082
0.403734
0.397757
0.391339
0.384632
0.377755
0.370803
0.363846
0.356941
0.350129
0.343445
0.336919
0.330571
0.324347
0.318151
0.312284
0.307916
0.395805
0.38671
0.385274
0.387165
0.38912
0.39002
0.389495
0.387561
0.38442
0.380322
0.375498
0.370146
0.364427
0.358467
0.352369
0.346212
0.340056
0.33395
0.327931
0.322038
0.316294
0.31064
0.304961
0.299594
0.29591
0.358132
0.349802
0.34949
0.352866
0.356498
0.359106
0.360231
0.359846
0.358142
0.355371
0.351771
0.347551
0.34288
0.337894
0.332703
0.327394
0.322035
0.316679
0.311369
0.306151
0.301051
0.296008
0.290885
0.286052
0.283093
0.318416
0.310887
0.311741
0.31666
0.322042
0.326439
0.329294
0.330538
0.330345
0.32897
0.326658
0.323628
0.320059
0.316098
0.311861
0.307445
0.302925
0.298358
0.293796
0.28929
0.284874
0.280481
0.275953
0.271684
0.269488
0.276839
0.270145
0.272197
0.278705
0.285897
0.292151
0.296807
0.299747
0.301131
0.301212
0.300245
0.298456
0.296037
0.293143
0.289902
0.286417
0.28277
0.279028
0.275247
0.271485
0.267787
0.264081
0.260183
0.256509
0.255114
0.233597
0.227767
0.231039
0.239168
0.248216
0.256381
0.262896
0.267592
0.270608
0.272197
0.272621
0.272118
0.270888
0.269098
0.266884
0.26436
0.261615
0.258724
0.25575
0.25276
0.249808
0.246821
0.243587
0.240534
0.239978
0.188894
0.183951
0.188455
0.198224
0.209159
0.219277
0.227698
0.234196
0.23889
0.242029
0.243883
0.244699
0.244689
0.244031
0.242869
0.241326
0.239503
0.23748
0.23533
0.23313
0.230944
0.228701
0.226159
0.22375
0.224072
0.142943
0.138907
0.144644
0.156056
0.168895
0.180993
0.191354
0.199689
0.206095
0.210817
0.214131
0.216292
0.217524
0.218015
0.21792
0.21737
0.216475
0.215327
0.214005
0.212598
0.211185
0.209699
0.207867
0.206118
0.207359
0.0959651
0.092849
0.0998111
0.112857
0.1276
0.141691
0.154012
0.164209
0.172351
0.178678
0.183471
0.186994
0.189481
0.191129
0.192104
0.192547
0.192576
0.192293
0.191787
0.191159
0.190507
0.18977
0.188645
0.187559
0.189762
0.0481878
0.0460018
0.0541686
0.0688231
0.0854575
0.10154
0.115827
0.127898
0.13779
0.145735
0.152017
0.156909
0.160653
0.163457
0.165496
0.166919
0.167853
0.168407
0.168682
0.168793
0.168856
0.168825
0.168366
0.167911
0.171125
-0.000154675
-0.0014059
0.00793566
0.0241603
0.0426563
0.0607136
0.0769613
0.0909063
0.102551
0.112118
0.11989
0.12615
0.131148
0.135098
0.138184
0.140562
0.142367
0.143714
0.144713
0.145494
0.146193
0.146772
0.146863
0.146931
0.151196
-0.0488237
-0.0491402
-0.0386638
-0.0209219
-0.000609054
0.0193921
0.0375817
0.0533899
0.0667815
0.0779641
0.0872226
0.0948428
0.101082