/*--------------------------------*- C++ -*----------------------------------*\
  =========                 |
  \\      /  F ield         | OpenFOAM: The Open Source CFD Toolbox
   \\    /   O peration     | Website:  https://openfoam.org
    \\  /    A nd           | Version:  6.0
     \\/     M anipulation  |
\*---------------------------------------------------------------------------*/
FoamFile
{
    version     2.0;
    format      ascii;
    class       volScalarField;
    location    "39";
    object      p;
}
// * * * * * * * * * * * * * * * * * * * * * * * * * * * * * * * * * * * * * //

dimensions      [0 2 -2 0 0 0 0];

internalField   nonuniform List<scalar> 
4000
(
-0.245644
-0.246549
-0.247145
-0.247579
-0.247939
-0.248241
-0.248496
-0.248715
-0.248909
-0.249082
-0.24924
-0.249388
-0.249529
-0.249668
-0.249809
-0.249962
-0.250127
-0.250253
-0.250311
-0.250856
-0.245703
-0.246608
-0.247204
-0.247634
-0.247991
-0.248287
-0.248536
-0.248749
-0.248935
-0.2491
-0.249249
-0.249388
-0.24952
-0.249648
-0.249779
-0.249922
-0.250077
-0.250192
-0.250239
-0.250774
-0.245862
-0.246768
-0.247359
-0.247784
-0.248131
-0.248417
-0.248653
-0.248853
-0.249024
-0.249174
-0.249307
-0.249429
-0.249543
-0.249654
-0.249767
-0.249891
-0.25003
-0.250128
-0.250156
-0.250679
-0.246123
-0.247028
-0.247613
-0.248027
-0.248361
-0.24863
-0.248848
-0.249027
-0.249177
-0.249304
-0.249413
-0.249509
-0.249597
-0.249682
-0.249768
-0.249867
-0.24998
-0.250055
-0.250057
-0.250564
-0.246489
-0.247391
-0.247967
-0.248366
-0.248681
-0.248928
-0.249121
-0.249273
-0.249393
-0.249488
-0.249564
-0.249626
-0.249679
-0.249727
-0.249777
-0.24984
-0.249921
-0.249963
-0.249931
-0.250417
-0.246962
-0.24786
-0.248424
-0.248804
-0.249094
-0.249312
-0.249472
-0.249589
-0.249671
-0.249727
-0.24976
-0.249778
-0.249784
-0.249785
-0.249788
-0.249804
-0.24984
-0.249841
-0.249765
-0.250225
-0.247548
-0.248439
-0.248987
-0.249342
-0.249602
-0.249784
-0.249905
-0.249978
-0.250014
-0.250019
-0.25
-0.249962
-0.24991
-0.249851
-0.249792
-0.249748
-0.249728
-0.249674
-0.249543
-0.249972
-0.248251
-0.249132
-0.249659
-0.249985
-0.250207
-0.250347
-0.25042
-0.250442
-0.250422
-0.250368
-0.250285
-0.250179
-0.250055
-0.249922
-0.249786
-0.249666
-0.249572
-0.249449
-0.249247
-0.249637
-0.249078
-0.249945
-0.250446
-0.250735
-0.250914
-0.251003
-0.251021
-0.250984
-0.2509
-0.250776
-0.250619
-0.250432
-0.250223
-0.249998
-0.249768
-0.249551
-0.249363
-0.24915
-0.248858
-0.249201
-0.250039
-0.250885
-0.251352
-0.251598
-0.251725
-0.251757
-0.251713
-0.251608
-0.251452
-0.25125
-0.251008
-0.250729
-0.250419
-0.250085
-0.249739
-0.249403
-0.249096
-0.248765
-0.248358
-0.248637
-0.25114
-0.251957
-0.252384
-0.252578
-0.252646
-0.252613
-0.2525
-0.252321
-0.252085
-0.251798
-0.251462
-0.251079
-0.250655
-0.250194
-0.249711
-0.249228
-0.248771
-0.248287
-0.247726
-0.247921
-0.252394
-0.253171
-0.253546
-0.25368
-0.25368
-0.253575
-0.253385
-0.253126
-0.252806
-0.252428
-0.251992
-0.251497
-0.250946
-0.250343
-0.249699
-0.249039
-0.248394
-0.247712
-0.246945
-0.247021
-0.25381
-0.254532
-0.254845
-0.254908
-0.254831
-0.254644
-0.254372
-0.254028
-0.25362
-0.253147
-0.252607
-0.251996
-0.251311
-0.250551
-0.249725
-0.248859
-0.247983
-0.247046
-0.246002
-0.245903
-0.255399
-0.25605
-0.256287
-0.256266
-0.2561
-0.255823
-0.25546
-0.255026
-0.254526
-0.253958
-0.253314
-0.252585
-0.251762
-0.250839
-0.249815
-0.248713
-0.247562
-0.246304
-0.244887
-0.244526
-0.25717
-0.257734
-0.257878
-0.257758
-0.257489
-0.25711
-0.256647
-0.256116
-0.255521
-0.254855
-0.254109
-0.253265
-0.252307
-0.251218
-0.249989
-0.248629
-0.247161
-0.24551
-0.243598
-0.242844
-0.259136
-0.259591
-0.259623
-0.259388
-0.258999
-0.258503
-0.257927
-0.257289
-0.256592
-0.255827
-0.254978
-0.254023
-0.252936
-0.251688
-0.250254
-0.248627
-0.246813
-0.244705
-0.242164
-0.24083
-0.261309
-0.261632
-0.261533
-0.26116
-0.260631
-0.259997
-0.259292
-0.258533
-0.257723
-0.256851
-0.255898
-0.254836
-0.253628
-0.252235
-0.250612
-0.248729
-0.246569
-0.243981
-0.240703
-0.238545
-0.263704
-0.263873
-0.263616
-0.263081
-0.262387
-0.261593
-0.260736
-0.259837
-0.258898
-0.257909
-0.256846
-0.255677
-0.25436
-0.252841
-0.251057
-0.24895
-0.246469
-0.243407
-0.239287
-0.235908
-0.266341
-0.26633
-0.265889
-0.265164
-0.264276
-0.263294
-0.262259
-0.261197
-0.26011
-0.258989
-0.257811
-0.256542
-0.255139
-0.253541
-0.251667
-0.249422
-0.24669
-0.24312
-0.23783
-0.232439
-0.269247
-0.269027
-0.268372
-0.267426
-0.266314
-0.265113
-0.263873
-0.262622
-0.261367
-0.260102
-0.258811
-0.257469
-0.256046
-0.254505
-0.252797
-0.250862
-0.248589
-0.245518
-0.240415
-0.234451
-0.272455
-0.271995
-0.271094
-0.269894
-0.268524
-0.267074
-0.265602
-0.264138
-0.262697
-0.26128
-0.259881
-0.258498
-0.257135
-0.25582
-0.254624
-0.253701
-0.253338
-0.253993
-0.257328
-0.270395
-0.276009
-0.275271
-0.274088
-0.272601
-0.270943
-0.269215
-0.267485
-0.265789
-0.264148
-0.262571
-0.261067
-0.259652
-0.258365
-0.257281
-0.256538
-0.256376
-0.257189
-0.259557
-0.264744
-0.277532
-0.279959
-0.2789
-0.277397
-0.27559
-0.273614
-0.271585
-0.269577
-0.267634
-0.265784
-0.264045
-0.262437
-0.260995
-0.25978
-0.258892
-0.258493
-0.25883
-0.260254
-0.263212
-0.268342
-0.278329
-0.284361
-0.282931
-0.28107
-0.278911
-0.276591
-0.274239
-0.271939
-0.269742
-0.267678
-0.265774
-0.264059
-0.262578
-0.2614
-0.260631
-0.260421
-0.260972
-0.262535
-0.265381
-0.269784
-0.276983
-0.289275
-0.287417
-0.285157
-0.282617
-0.27993
-0.277241
-0.274639
-0.272179
-0.269897
-0.267819
-0.26598
-0.264423
-0.263214
-0.262445
-0.262232
-0.262711
-0.264026
-0.266298
-0.269617
-0.274264
-0.29476
-0.292412
-0.289712
-0.286763
-0.283692
-0.280652
-0.27774
-0.275009
-0.272495
-0.270222
-0.268218
-0.266523
-0.265185
-0.264272
-0.263857
-0.264018
-0.264814
-0.266267
-0.268395
-0.270964
-0.30087
-0.297966
-0.294786
-0.291405
-0.287932
-0.284531
-0.281297
-0.27828
-0.275508
-0.272998
-0.270767
-0.26884
-0.26725
-0.266034
-0.265233
-0.264877
-0.264976
-0.265505
-0.266453
-0.267395
-0.307652
-0.304124
-0.300426
-0.296591
-0.292703
-0.288927
-0.285354
-0.282023
-0.278947
-0.276133
-0.273584
-0.271309
-0.269324
-0.267646
-0.266293
-0.26527
-0.264566
-0.264146
-0.263992
-0.263685
-0.315142
-0.310922
-0.306672
-0.302366
-0.298047
-0.293878
-0.289936
-0.286242
-0.282794
-0.279581
-0.276595
-0.273834
-0.271303
-0.269011
-0.266965
-0.265167
-0.263604
-0.262251
-0.261087
-0.259789
-0.323358
-0.318384
-0.313552
-0.308759
-0.303992
-0.2994
-0.295042
-0.290914
-0.286994
-0.28326
-0.279695
-0.276297
-0.27307
-0.270026
-0.267178
-0.264532
-0.262086
-0.25983
-0.257745
-0.255614
-0.332301
-0.326517
-0.321081
-0.315786
-0.310547
-0.305489
-0.300642
-0.295977
-0.291458
-0.287054
-0.282755
-0.278566
-0.274505
-0.270597
-0.266866
-0.26333
-0.259998
-0.256876
-0.253941
-0.251067
-0.341949
-0.33531
-0.329252
-0.323441
-0.317693
-0.312102
-0.306666
-0.301334
-0.296059
-0.290821
-0.285627
-0.280504
-0.275492
-0.270635
-0.265972
-0.261531
-0.25733
-0.25338
-0.249654
-0.246087
-0.35225
-0.344726
-0.338036
-0.331687
-0.32538
-0.319164
-0.313007
-0.306845
-0.30064
-0.294398
-0.288157
-0.281978
-0.275927
-0.270069
-0.264453
-0.259114
-0.254072
-0.249336
-0.244871
-0.240649
-0.363122
-0.354698
-0.347372
-0.340456
-0.333515
-0.326551
-0.319512
-0.312337
-0.305019
-0.297609
-0.29019
-0.282862
-0.275719
-0.268838
-0.262276
-0.256065
-0.250221
-0.244745
-0.239587
-0.234748
-0.374448
-0.365127
-0.357162
-0.349637
-0.341962
-0.334099
-0.32599
-0.317607
-0.308999
-0.300277
-0.291581
-0.283047
-0.274789
-0.266893
-0.259412
-0.25237
-0.245772
-0.239606
-0.233803
-0.228389
-0.386072
-0.375875
-0.367269
-0.359074
-0.350539
-0.341597
-0.332217
-0.322433
-0.312376
-0.302231
-0.292194
-0.282432
-0.27307
-0.264191
-0.255835
-0.248013
-0.240714
-0.233912
-0.227516
-0.221577
-0.397799
-0.386763
-0.37751
-0.368565
-0.359017
-0.348798
-0.337943
-0.326583
-0.31495
-0.303311
-0.291908
-0.280929
-0.2705
-0.260688
-0.251516
-0.242973
-0.235033
-0.227652
-0.220717
-0.21431
-0.409391
-0.397572
-0.38766
-0.377863
-0.367129
-0.355427
-0.342905
-0.329823
-0.316529
-0.303366
-0.290612
-0.27846
-0.267021
-0.256342
-0.24642
-0.237223
-0.228706
-0.220805
-0.213388
-0.206575
-0.420574
-0.408041
-0.397451
-0.386681
-0.374572
-0.361189
-0.346835
-0.33193
-0.316937
-0.302262
-0.288205
-0.274948
-0.262576
-0.251107
-0.24051
-0.230729
-0.221702
-0.213346
-0.205505
-0.198352
-0.43104
-0.417874
-0.406576
-0.394695
-0.381025
-0.365783
-0.349475
-0.332692
-0.316009
-0.299877
-0.284596
-0.270322
-0.257107
-0.244933
-0.233741
-0.223452
-0.213985
-0.20524
-0.19704
-0.189615
-0.431938
-0.418764
-0.407458
-0.395568
-0.381886
-0.366629
-0.350304
-0.333505
-0.316805
-0.300659
-0.285364
-0.271079
-0.257854
-0.245671
-0.234472
-0.224177
-0.214705
-0.205955
-0.197751
-0.190324
-0.421457
-0.408915
-0.398319
-0.38754
-0.375422
-0.362026
-0.347659
-0.332739
-0.317731
-0.303044
-0.288975
-0.275707
-0.263326
-0.251849
-0.241245
-0.231459
-0.222427
-0.214068
-0.206225
-0.199069
-0.410257
-0.398429
-0.388512
-0.378708
-0.367965
-0.356254
-0.34372
-0.330626
-0.31732
-0.304145
-0.291381
-0.279219
-0.267773
-0.257087
-0.24716
-0.237958
-0.229437
-0.221534
-0.214114
-0.2073
-0.398647
-0.387603
-0.378344
-0.369393
-0.359839
-0.349612
-0.338748
-0.327378
-0.315735
-0.304087
-0.292675
-0.281689
-0.271253
-0.261435
-0.252258
-0.243712
-0.23577
-0.228386
-0.22145
-0.215042
-0.386903
-0.376697
-0.368085
-0.359885
-0.351345
-0.342397
-0.333011
-0.32322
-0.313154
-0.303003
-0.292958
-0.283189
-0.273822
-0.264938
-0.256579
-0.248755
-0.241454
-0.234651
-0.228255
-0.222316
-0.37526
-0.365931
-0.35796
-0.35043
-0.342751
-0.334884
-0.326771
-0.318382
-0.309769
-0.301041
-0.29234
-0.283801
-0.27554
-0.26764
-0.260157
-0.253113
-0.246514
-0.240348
-0.234546
-0.229133
-0.363915
-0.355484
-0.348152
-0.341232
-0.334287
-0.32732
-0.320278
-0.3131
-0.305778
-0.298365
-0.290943
-0.283612
-0.276466
-0.269584
-0.26302
-0.256809
-0.250965
-0.24549
-0.240334
-0.235496
-0.353025
-0.345494
-0.338799
-0.332446
-0.326135
-0.319916
-0.313758
-0.307594
-0.301387
-0.295144
-0.288902
-0.282721
-0.27667
-0.270812
-0.265196
-0.259857
-0.254817
-0.250083
-0.24562
-0.241401
-0.342707
-0.336061
-0.329998
-0.324182
-0.318431
-0.312838
-0.307401
-0.302067
-0.296793
-0.291555
-0.286362
-0.28124
-0.276229
-0.271374
-0.266711
-0.262272
-0.258074
-0.254126
-0.250404
-0.246842
-0.333042
-0.327252
-0.32181
-0.316511
-0.311268
-0.306207
-0.301359
-0.296695
-0.292177
-0.287775
-0.283479
-0.279292
-0.275234
-0.271329
-0.267601
-0.264068
-0.26074
-0.257621
-0.254691
-0.251822
-0.324082
-0.319103
-0.314266
-0.309468
-0.304697
-0.300103
-0.295743
-0.291615
-0.287697
-0.283966
-0.280406
-0.277012
-0.27379
-0.270752
-0.267908
-0.265267
-0.262824
-0.260573
-0.258492
-0.256367
-0.315851
-0.311627
-0.307371
-0.30306
-0.298737
-0.294564
-0.29062
-0.286927
-0.283481
-0.280272
-0.277292
-0.274537
-0.272012
-0.269727
-0.267688
-0.265896
-0.264338
-0.26299
-0.261831
-0.260538
-0.308347
-0.304815
-0.301112
-0.297272
-0.293378
-0.289598
-0.286023
-0.282691
-0.279618
-0.276808
-0.274266
-0.271999
-0.270022
-0.268353
-0.267008
-0.265992
-0.265295
-0.26488
-0.26473
-0.264427
-0.301553
-0.298646
-0.295461
-0.292073
-0.288594
-0.285187
-0.28195
-0.278933
-0.276163
-0.273657
-0.271434
-0.269517
-0.267936
-0.266731
-0.265939
-0.265592
-0.265698
-0.266231
-0.267183
-0.268127
-0.295433
-0.293082
-0.290376
-0.28742
-0.284341
-0.281296
-0.278379
-0.275647
-0.273135
-0.270867
-0.268871
-0.267185
-0.265859
-0.264958
-0.264555
-0.264725
-0.265528
-0.266986
-0.269117
-0.271685
-0.289941
-0.28808
-0.285813
-0.283265
-0.28057
-0.277873
-0.275266
-0.272805
-0.270523
-0.268451
-0.266619
-0.265073
-0.263878
-0.263122
-0.262921
-0.263411
-0.264735
-0.26701
-0.270331
-0.274971
-0.285023
-0.283588
-0.28172
-0.279552
-0.277222
-0.274862
-0.272557
-0.270356
-0.268293
-0.266394
-0.264688
-0.263218
-0.262053
-0.261299
-0.261103
-0.261666
-0.263237
-0.266087
-0.270489
-0.277677
-0.280619
-0.279554
-0.278044
-0.276226
-0.27424
-0.272201
-0.270186
-0.26824
-0.266391
-0.264656
-0.263056
-0.261626
-0.260425
-0.259553
-0.259169
-0.259519
-0.260951
-0.263913
-0.269039
-0.279009
-0.27667
-0.275925
-0.274732
-0.273234
-0.271565
-0.269828
-0.26809
-0.26639
-0.264748
-0.263176
-0.26168
-0.260277
-0.259005
-0.257937
-0.257209
-0.25706
-0.257882
-0.260252
-0.265429
-0.278194
-0.27312
-0.27265
-0.271738
-0.270527
-0.269145
-0.267685
-0.266204
-0.264736
-0.263294
-0.261881
-0.260491
-0.259119
-0.257771
-0.256473
-0.255293
-0.254383
-0.254026
-0.254679
-0.257995
-0.27103
-0.269918
-0.269685
-0.269019
-0.26806
-0.266936
-0.265723
-0.264475
-0.263219
-0.261963
-0.260702
-0.259419
-0.258088
-0.25668
-0.255155
-0.253464
-0.251541
-0.249275
-0.246203
-0.241086
-0.235092
-0.267019
-0.266992
-0.266538
-0.2658
-0.2649
-0.263906
-0.262863
-0.261795
-0.260708
-0.25959
-0.258419
-0.257162
-0.255773
-0.254191
-0.252333
-0.2501
-0.247375
-0.243804
-0.238505
-0.233096
-0.264389
-0.26454
-0.264268
-0.26372
-0.263013
-0.262207
-0.261342
-0.260438
-0.259498
-0.258512
-0.257457
-0.256299
-0.254995
-0.253492
-0.251724
-0.249631
-0.247161
-0.244107
-0.239993
-0.236617
-0.262001
-0.262302
-0.262186
-0.2618
-0.261258
-0.260613
-0.2599
-0.259137
-0.258326
-0.257458
-0.256512
-0.25546
-0.254267
-0.252889
-0.251284
-0.249419
-0.247277
-0.244707
-0.241453
-0.239319
-0.259832
-0.260262
-0.260277
-0.260028
-0.259627
-0.259119
-0.258537
-0.257895
-0.257197
-0.256436
-0.255594
-0.254651
-0.253578
-0.252348
-0.250934
-0.24933
-0.24754
-0.245462
-0.24296
-0.241667
-0.257867
-0.258403
-0.258528
-0.258395
-0.258114
-0.257725
-0.257256
-0.256722
-0.256127
-0.255466
-0.254727
-0.253896
-0.252954
-0.251885
-0.250678
-0.249345
-0.247909
-0.246297
-0.244436
-0.243734
-0.256092
-0.256714
-0.256931
-0.256896
-0.256718
-0.256433
-0.256064
-0.255628
-0.25513
-0.254567
-0.253933
-0.253218
-0.252412
-0.251511
-0.250514
-0.249443
-0.248329
-0.247117
-0.245758
-0.245458
-0.254494
-0.255184
-0.255478
-0.255527
-0.255438
-0.255244
-0.254967
-0.254623
-0.254217
-0.253751
-0.253223
-0.252626
-0.251961
-0.251225
-0.250429
-0.249597
-0.248763
-0.247877
-0.246896
-0.246862
-0.253062
-0.253806
-0.254161
-0.254282
-0.254272
-0.25416
-0.253967
-0.253708
-0.253393
-0.253022
-0.252598
-0.252121
-0.251591
-0.251014
-0.250401
-0.24978
-0.249179
-0.248551
-0.247849
-0.247992
-0.251786
-0.252569
-0.252976
-0.253157
-0.253216
-0.253177
-0.253062
-0.252884
-0.252654
-0.252376
-0.252054
-0.251689
-0.251287
-0.250854
-0.250404
-0.249961
-0.24955
-0.249122
-0.248625
-0.248887
-0.250653
-0.251466
-0.251915
-0.252148
-0.252267
-0.252294
-0.252249
-0.252146
-0.251997
-0.251805
-0.251577
-0.251317
-0.25103
-0.250725
-0.250413
-0.250117
-0.249857
-0.249581
-0.249237
-0.249582
-0.249655
-0.25049
-0.250972
-0.25125
-0.251421
-0.251506
-0.251524
-0.25149
-0.251413
-0.2513
-0.251158
-0.25099
-0.250805
-0.250608
-0.250412
-0.250234
-0.250092
-0.249932
-0.249702
-0.250106
-0.248781
-0.249632
-0.250142
-0.250457
-0.250673
-0.25081
-0.250883
-0.250909
-0.250897
-0.250853
-0.250785
-0.250698
-0.250598
-0.250491
-0.250389
-0.250306
-0.250255
-0.250183
-0.250038
-0.250487
-0.248024
-0.248888
-0.24942
-0.249767
-0.250021
-0.2502
-0.250322
-0.250399
-0.250442
-0.250458
-0.250453
-0.250433
-0.250403
-0.25037
-0.250341
-0.250333
-0.250352
-0.250345
-0.250266
-0.250749
-0.247378
-0.248252
-0.248802
-0.249174
-0.24946
-0.249676
-0.249837
-0.249958
-0.250047
-0.250112
-0.250159
-0.250193
-0.250219
-0.250243
-0.250273
-0.250321
-0.250393
-0.250435
-0.250405
-0.250913
-0.246838
-0.24772
-0.248284
-0.248677
-0.248988
-0.249234
-0.249428
-0.249583
-0.249709
-0.249814
-0.249901
-0.249977
-0.250047
-0.250116
-0.250189
-0.250279
-0.25039
-0.250468
-0.250475
-0.251001
-0.246401
-0.247289
-0.247865
-0.248274
-0.248605
-0.248873
-0.249092
-0.249274
-0.249429
-0.249563
-0.249682
-0.249789
-0.249892
-0.249993
-0.250098
-0.250218
-0.250356
-0.250459
-0.250493
-0.251032
-0.246063
-0.246957
-0.247542
-0.247962
-0.248308
-0.248593
-0.24883
-0.249032
-0.249208
-0.249363
-0.249503
-0.249633
-0.249758
-0.249881
-0.250007
-0.250148
-0.250304
-0.250423
-0.250475
-0.251021
-0.245825
-0.246723
-0.247314
-0.247743
-0.248098
-0.248394
-0.248643
-0.248858
-0.249046
-0.249215
-0.249368
-0.249512
-0.24965
-0.249786
-0.249926
-0.250078
-0.250244
-0.250372
-0.250433
-0.250983
-0.245685
-0.246587
-0.247182
-0.247615
-0.247975
-0.248277
-0.248532
-0.248752
-0.248946
-0.24912
-0.24928
-0.249429
-0.249573
-0.249714
-0.249858
-0.250014
-0.250184
-0.250313
-0.250376
-0.250925
-0.270286
-0.255018
-0.294071
-0.297767
-0.247549
-0.178745
-0.113634
-0.068582
-0.037612
-0.0131027
-0.00237673
0.00695811
0.00942159
0.0114999
0.0107217
0.0101569
0.00848881
0.00715956
0.00436277
0.00282872
-0.270264
-0.254511
-0.293654
-0.298589
-0.249439
-0.180439
-0.114407
-0.0683737
-0.0368238
-0.0122355
-0.00181082
0.00719932
0.00929892
0.0111761
0.0103515
0.00978389
0.00828593
0.00703037
0.00437614
0.00291098
-0.270345
-0.254058
-0.293348
-0.299638
-0.251547
-0.182285
-0.115299
-0.0682618
-0.0361278
-0.011431
-0.00128892
0.00740846
0.00915563
0.0108397
0.00997629
0.00941167
0.00808233
0.0069002
0.00438711
0.00298679
-0.270516
-0.253655
-0.293134
-0.300871
-0.253828
-0.184252
-0.116297
-0.0682493
-0.0355336
-0.0107034
-0.000820462
0.00757964
0.00899091
0.0104932
0.00959909
0.00904403
0.00788011
0.00677077
0.00439594
0.0030553
-0.270761
-0.253292
-0.292982
-0.302235
-0.25623
-0.186309
-0.117392
-0.0683389
-0.0350497
-0.0100661
-0.000414166
0.00770726
0.008804
0.0101387
0.00922247
0.00868407
0.00768097
0.00664348
0.0044028
0.0031157
-0.271056
-0.25296
-0.292854
-0.303671
-0.258704
-0.188429
-0.118576
-0.0685336
-0.0346831
-0.00953089
-7.76457e-05
0.00778628
0.00859426
0.00977775
0.00884854
0.00833418
0.00748615
0.00651936
0.00440772
0.00316733
-0.271377
-0.252643
-0.292713
-0.30512
-0.2612
-0.190587
-0.119843
-0.0688357
-0.034439
-0.00910743
0.000183011
0.0078126
0.00836134
0.00941166
0.00847895
0.00799603
0.00729644
0.0063991
0.00441058
0.00320962
-0.271698
-0.252328
-0.292518
-0.306523
-0.263677
-0.192766
-0.12119
-0.0692473
-0.0343207
-0.00880286
0.00036347
0.0077832
0.00810519
0.00904135
0.00811485
0.00767054
0.00711217
0.00628299
0.00441111
0.00324217
-0.271994
-0.252003
-0.292232
-0.307828
-0.266097
-0.194951
-0.122616
-0.0697697
-0.0343298
-0.00862159
0.000461246
0.00769629
0.00782618
0.00866748
0.007757
0.00735801
0.00693329
0.00617101
0.00440896
0.00326472
-0.272242
-0.251656
-0.291823
-0.308989
-0.268431
-0.197134
-0.124121
-0.0704031
-0.0344659
-0.0085654
0.000475666
0.00755129
0.00752502
0.00829046
0.00740578
0.00705819
0.00675942
0.00606284
0.00440368
0.00327715
-0.272424
-0.25128
-0.291263
-0.309969
-0.270656
-0.199311
-0.125704
-0.0711471
-0.0347267
-0.0086335
0.000407722
0.00734878
0.00720276
0.00791054
0.00706126
0.00677037
0.00658993
0.00595794
0.00439477
0.00327947
-0.272522
-0.250868
-0.290532
-0.310737
-0.272756
-0.201482
-0.127368
-0.0719999
-0.0351086
-0.00882294
0.00025982
0.00709035
0.00686074
0.00752783
0.00672328
0.00649353
0.00642401
0.0058556
0.00438171
0.00327183
-0.272526
-0.250419
-0.289616
-0.311274
-0.274721
-0.203649
-0.129115
-0.0729604
-0.0356072
-0.00912917
3.54033e-05
0.00677842
0.00650047
0.00714241
0.00639152
0.00622643
0.00626074
0.005755
0.00436403
0.00325451
-0.272429
-0.249935
-0.288506
-0.311562
-0.276547
-0.205821
-0.130949
-0.074027
-0.0362172
-0.00954636
-0.000261262
0.00641599
0.00612356
0.00675425
0.00606551
0.0059677
0.00609919
0.00565529
0.00434125
0.00322786
-0.272214
-0.249412
-0.287192
-0.311584
-0.278223
-0.207992
-0.132863
-0.0751908
-0.0369278
-0.0100656
-0.000624395
0.00600673
0.00573172
0.00636326
0.00574467
0.00571588
0.00593835
0.00555552
0.00431295
0.00319229
-0.271858
-0.248845
-0.285674
-0.311323
-0.279722
-0.21013
-0.134822
-0.0764251
-0.0377175
-0.0106726
-0.00104593
0.0055554
0.0053269
0.00596953
0.00542848
0.00546963
0.00577738
0.00545483
0.00427875
0.00314825
-0.27138
-0.248264
-0.283971
-0.310797
-0.281062
-0.212244
-0.136828
-0.0777285
-0.0385866
-0.0113606
-0.00152208
0.00506708
0.00491103
0.00557426
0.00511685
0.00522842
0.00561605
0.00535306
0.00423879
0.00309653
-0.270855
-0.247787
-0.282087
-0.310077
-0.282468
-0.214625
-0.139138
-0.0792645
-0.039642
-0.0121722
-0.00207124
0.00454028
0.00448389
0.00517908
0.00480981
0.00499239
0.00545494
0.00525125
0.00419445
0.00303874
-0.269678
-0.247269
-0.279803
-0.308956
-0.284064
-0.217617
-0.142086
-0.081241
-0.0409801
-0.0131602
-0.00270994
0.00396165
0.00404128
0.0047767
0.00450373
0.00475669
0.00529107
0.00514721
0.00414523
0.0029746
-0.265456
-0.245506
-0.276807
-0.306452
-0.28431
-0.219611
-0.144292
-0.0827206
-0.0418902
-0.0140096
-0.00327562
0.00335016
0.00358786
0.0043399
0.00418742
0.00450287
0.00510931
0.0050233
0.00407799
0.00289366
-0.225097
-0.226069
-0.256976
-0.284407
-0.274667
-0.219896
-0.14761
-0.0849089
-0.0423583
-0.0167173
-0.00539211
-7.01196e-05
0.00102888
0.00161165
0.00229515
0.00289419
0.00391955
0.00414314
0.00353438
0.00230753
-0.183795
-0.209484
-0.229774
-0.246638
-0.242249
-0.201514
-0.14073
-0.0844374
-0.0453616
-0.0228927
-0.0118784
-0.00657454
-0.00412575
-0.00259521
-0.00088655
0.000454606
0.00183692
0.00244362
0.00215308
0.00111591
-0.165383
-0.18803
-0.201593
-0.208168
-0.201415
-0.17266
-0.127824
-0.0830318
-0.0496662
-0.0292244
-0.0179901
-0.0118893
-0.00835084
-0.00598945
-0.00376415
-0.00186334
-0.000299351
0.000626174
0.000744328
0.000317778
-0.138227
-0.161984
-0.17155
-0.172302
-0.165003
-0.145964
-0.115233
-0.0812341
-0.053234
-0.0344052
-0.0230459
-0.0163266
-0.0121136
-0.00919613
-0.00659204
-0.00423126
-0.0023189
-0.000973149
-0.000267181
1.08505e-05
-0.115247
-0.13652
-0.144554
-0.144051
-0.138151
-0.125446
-0.10428
-0.078776
-0.0558116
-0.0389327
-0.0276878
-0.0203363
-0.0153919
-0.0118633
-0.00887706
-0.00616517
-0.00392576
-0.00221672
-0.00105702
-0.000340474
-0.0958851
-0.114584
-0.122399
-0.122843
-0.118635
-0.109555
-0.0945336
-0.0755635
-0.0570572
-0.0420732
-0.0309944
-0.0231053
-0.017591
-0.013676
-0.0105228
-0.007687
-0.00523669
-0.00325418
-0.00171035
-0.000504223
-0.0807753
-0.0969033
-0.104769
-0.106412
-0.103625
-0.0969303
-0.0860467
-0.0717983
-0.05675
-0.0434535
-0.0328753
-0.0249466
-0.0192461
-0.0151555
-0.0119169
-0.00900429
-0.00638349
-0.00415462
-0.00228255
-0.000724535
-0.0690713
-0.082966
-0.0906165
-0.0931125
-0.0915687
-0.0867072
-0.0785702
-0.0674867
-0.0551053
-0.043564
-0.0339457
-0.0263879
-0.0206837
-0.016444
-0.0130901
-0.0101045
-0.00736054
-0.00493027
-0.00279912
-0.000928472
-0.059995
-0.0719533
-0.0791385
-0.082155
-0.0816435
-0.0781425
-0.0718125
-0.0629827
-0.0528747
-0.0431122
-0.0345783
-0.0274939
-0.0218587
-0.0175226
-0.0140739
-0.0110338
-0.00819006
-0.00558725
-0.00321985
-0.00105561
-0.05286
-0.0631674
-0.0697824
-0.0730545
-0.0732796
-0.0707705
-0.0657991
-0.0587823
-0.050594
-0.0423621
-0.0347985
-0.0282296
-0.0227885
-0.0184461
-0.0149145
-0.0117916
-0.00883816
-0.00608054
-0.00351731
-0.00114025
-0.0471555
-0.0560794
-0.0621118
-0.0654415
-0.0661603
-0.0644575
-0.0606381
-0.0550812
-0.0483843
-0.0413769
-0.0346908
-0.0286904
-0.0235243
-0.0192064
-0.0155763
-0.0123481
-0.00930031
-0.00643452
-0.00374718
-0.00123137
-0.0425118
-0.0502903
-0.0557821
-0.0590704
-0.060155
-0.0591455
-0.0562714
-0.0518281
-0.0462752
-0.0402882
-0.0344028
-0.0289416
-0.0240406
-0.0197593
-0.0160551
-0.0127481
-0.00964335
-0.00671754
-0.0039538
-0.00132455
-0.038648
-0.045505
-0.0505434
-0.0537789
-0.0551575
-0.0547057
-0.0525616
-0.0489772
-0.0443452
-0.0392137
-0.0340016
-0.028991
-0.0243326
-0.0201311
-0.016409
-0.0130627
-0.00992631
-0.00696212
-0.00413431
-0.00139715
-0.0353604
-0.0415127
-0.0462166
-0.0494257
-0.051032
-0.0510016
-0.0494254
-0.0465302
-0.0426402
-0.0381883
-0.0335135
-0.0288838
-0.0244673
-0.0203855
-0.0166858
-0.0133265
-0.0101698
-0.00716938
-0.00427177
-0.00143951
-0.0324774
-0.0381611
-0.0426613
-0.045875
-0.047653
-0.0479439
-0.0468181
-0.0444689
-0.0411546
-0.0372297
-0.0329932
-0.0286986
-0.0245159
-0.0205648
-0.016906
-0.013546
-0.0103708
-0.00732782
-0.00435881
-0.00145964
-0.0298961
-0.0353479
-0.0397745
-0.0430217
-0.0449332
-0.0454713
-0.0446926
-0.0427608
-0.0398886
-0.0363805
-0.0325057
-0.0284958
-0.0245183
-0.0206927
-0.0170825
-0.013719
-0.0105163
-0.00742807
-0.00440949
-0.00147748
-0.0275215
-0.0330146
-0.0374862
-0.0407885
-0.0428026
-0.0435228
-0.043003
-0.0413884
-0.0388583
-0.0356781
-0.0320912
-0.0283086
-0.024496
-0.0207808
-0.0172152
-0.0138406
-0.0106053
-0.00748286
-0.00444749
-0.00150091
-0.0253953
-0.0311622
-0.0357666
-0.0391286
-0.041212
-0.0420586
-0.0417286
-0.0403521
-0.0380788
-0.0351426
-0.0317715
-0.0281589
-0.0244665
-0.0208317
-0.017296
-0.0139144
-0.0106614
-0.00752428
-0.0044841
-0.00152191
-0.0236391
-0.0298411
-0.0346055
-0.0380109
-0.0401339
-0.0410638
-0.0408638
-0.03965
-0.0375514
-0.0347803
-0.0315548
-0.028055
-0.0244389
-0.0208485
-0.0173274
-0.0139506
-0.0107048
-0.0075691
-0.00451301
-0.00152803
-0.0225326
-0.0291366
-0.0340103
-0.0374349
-0.0395758
-0.0405497
-0.0404177
-0.0392872
-0.0372794
-0.034594
-0.031443
-0.027999
-0.0244199
-0.0208466
-0.0173305
-0.0139621
-0.010732
-0.00760217
-0.00452682
-0.0015216
-0.150417
-0.160404
-0.170521
-0.180862
-0.19153
-0.202642
-0.214325
-0.22671
-0.239927
-0.254087
-0.26924
-0.285346
-0.302147
-0.319152
-0.335356
-0.34958
-0.359852
-0.365391
-0.364146
-0.360772
-0.0913093
-0.0946432
-0.0976577
-0.100334
-0.102652
-0.104585
-0.106107
-0.107193
-0.107817
-0.107963
-0.10763
-0.10685
-0.105695
-0.104342
-0.103021
-0.102198
-0.10227
-0.104123
-0.10806
-0.116133
-0.0681523
-0.0724181
-0.0767171
-0.0810598
-0.0854574
-0.0899216
-0.0944645
-0.0990985
-0.103835
-0.108684
-0.113651
-0.118732
-0.123909
-0.129144
-0.134354
-0.139433
-0.144189
-0.148434
-0.151848
-0.154214
-0.0555886
-0.0584976
-0.0613627
-0.0641845
-0.0669629
-0.069698
-0.0723892
-0.0750357
-0.0776367
-0.0801911
-0.0826985
-0.0851602
-0.0875797
-0.0899664
-0.0923379
-0.0947243
-0.0971769
-0.099769
-0.102649
-0.106025
-0.0462942
-0.0486727
-0.0510533
-0.0534383
-0.05583
-0.0582307
-0.0606427
-0.0630685
-0.0655103
-0.0679704
-0.0704509
-0.0729533
-0.0754788
-0.0780263
-0.0805944
-0.0831751
-0.0857635
-0.0883335
-0.0908944
-0.0933799
-0.0407151
-0.0425952
-0.0444721
-0.0463463
-0.0482182
-0.0500883
-0.0519574
-0.053826
-0.0556947
-0.0575643
-0.0594356
-0.0613093
-0.0631867
-0.0650688
-0.0669583
-0.068856
-0.0707711
-0.0727012
-0.0746891
-0.0767222
-0.0362821
-0.0377993
-0.039317
-0.0408358
-0.042356
-0.0438782
-0.0454029
-0.0469306
-0.0484619
-0.0499973
-0.0515373
-0.0530823
-0.0546329
-0.0561893
-0.0577524
-0.0593209
-0.0608988
-0.0624785
-0.0640854
-0.0656883
-0.0330293
-0.0342711
-0.0355129
-0.0367547
-0.0379968
-0.0392393
-0.0404825
-0.0417264
-0.0429714
-0.0442176
-0.0454654
-0.0467149
-0.0479665
-0.0492203
-0.0504771
-0.0517362
-0.0530011
-0.0542665
-0.0555536
-0.0568377
-0.0304266
-0.0314534
-0.0324802
-0.033507
-0.0345339
-0.0355611
-0.0365885
-0.0376163
-0.0386447
-0.0396738
-0.0407036
-0.0417343
-0.042766
-0.0437987
-0.0448328
-0.0458675
-0.0469054
-0.0479419
-0.0489927
-0.050037
-0.0283735
-0.0292304
-0.0300871
-0.0309436
-0.0318
-0.0326563
-0.0335125
-0.0343688
-0.0352251
-0.0360814
-0.0369379
-0.0377946
-0.0386514
-0.0395083
-0.0403655
-0.0412226
-0.0420811
-0.0429379
-0.0438045
-0.0446655
-0.0266948
-0.0274121
-0.0281295
-0.0288469
-0.0295644
-0.030282
-0.0309997
-0.0317175
-0.0324355
-0.0331536
-0.0338717
-0.03459
-0.0353082
-0.0360265
-0.0367447
-0.0374626
-0.0381812
-0.0388982
-0.039622
-0.040342
-0.0252924
-0.0258937
-0.0264955
-0.027098
-0.0277011
-0.0283049
-0.0289092
-0.0295141
-0.0301195
-0.0307253
-0.0313316
-0.0319382
-0.032545
-0.0331518
-0.0337588
-0.0343655
-0.0349726
-0.0355786
-0.0361893
-0.0367983
-0.0240207
-0.0245234
-0.0250277
-0.0255336
-0.0260411
-0.0265501
-0.0270607
-0.0275727
-0.0280861
-0.0286007
-0.0291164
-0.0296331
-0.0301507
-0.0306689
-0.0311877
-0.0317068
-0.0322264
-0.0327456
-0.0332686
-0.0337918
-0.0228016
-0.0232215
-0.0236445
-0.0240705
-0.0244995
-0.0249314
-0.0253661
-0.0258033
-0.026243
-0.0266849
-0.0271288
-0.0275745
-0.0280218
-0.0284704
-0.02892
-0.0293705
-0.0298218
-0.0302732
-0.0307276
-0.031184
-0.021396
-0.0217463
-0.0221022
-0.0224635
-0.02283
-0.0232016
-0.0235778
-0.0239585
-0.0243433
-0.0247318
-0.0251238
-0.0255189
-0.0259167
-0.0263169
-0.0267191
-0.027123
-0.0275283
-0.0279348
-0.0283439
-0.0287566
-0.0197804
-0.0200795
-0.0203876
-0.0207043
-0.0210288
-0.0213608
-0.0216997
-0.0220448
-0.0223957
-0.0227517
-0.0231123
-0.023477
-0.0238453
-0.0242165
-0.0245903
-0.0249661
-0.0253435
-0.0257223
-0.0261031
-0.0264883
-0.0172914
-0.0175829
-0.0178873
-0.0182035
-0.0185304
-0.018867
-0.0192123
-0.0195652
-0.0199248
-0.0202904
-0.020661
-0.0210359
-0.0214143
-0.0217956
-0.0221792
-0.0225643
-0.0229506
-0.0233378
-0.0237258
-0.0241178
-0.0140361
-0.014391
-0.0147586
-0.0151374
-0.0155258
-0.0159226
-0.0163263
-0.0167359
-0.0171503
-0.0175685
-0.0179896
-0.0184127
-0.0188372
-0.0192624
-0.0196875
-0.0201123
-0.020536
-0.0209585
-0.0213794
-0.0218022
-0.00902977
-0.0096482
-0.0102609
-0.0108674
-0.0114675
-0.0120607
-0.0126468
-0.0132256
-0.013797
-0.0143607
-0.0149168
-0.015465
-0.0160054
-0.016538
-0.0170627
-0.0175795
-0.0180884
-0.0185899
-0.0190831
-0.0195722
-0.00352555
-0.00450468
-0.00544963
-0.00636228
-0.00724444
-0.0080978
-0.00892395
-0.00972439
-0.0105005
-0.0112536
-0.0119849
-0.0126955
-0.0133866
-0.0140591
-0.0147139
-0.015352
-0.0159741
-0.0165813
-0.0171735
-0.0177547
-0.00361524
-0.00459306
-0.00553667
-0.00644798
-0.00732879
-0.00818079
-0.00900557
-0.00980462
-0.0105793
-0.011331
-0.0120609
-0.0127702
-0.0134598
-0.0141309
-0.0147843
-0.015421
-0.0160416
-0.0166474
-0.0172381
-0.0178178
-0.0091205
-0.00973759
-0.0103489
-0.0109541
-0.0115528
-0.0121446
-0.0127293
-0.0133067
-0.0138766
-0.014439
-0.0149936
-0.0155404
-0.0160794
-0.0166105
-0.0171337
-0.0176491
-0.0181565
-0.0186565
-0.0191483
-0.0196359
-0.0141291
-0.0144826
-0.0148488
-0.0152262
-0.0156132
-0.0160085
-0.0164108
-0.016819