/*--------------------------------*- C++ -*----------------------------------*\
  =========                 |
  \\      /  F ield         | OpenFOAM: The Open Source CFD Toolbox
   \\    /   O peration     | Website:  https://openfoam.org
    \\  /    A nd           | Version:  6.0
     \\/     M anipulation  |
\*---------------------------------------------------------------------------*/
FoamFile
{
    version     2.0;
    format      ascii;
    class       surfaceScalarField;
    location    "53";
    object      phi;
}
// * * * * * * * * * * * * * * * * * * * * * * * * * * * * * * * * * * * * * //

dimensions      [0 3 -1 0 0 0 0];

internalField   nonuniform List<scalar> 
7840
(
-2.3387e-06
4.0504e-06
-1.7117e-06
-8.33522e-06
1.10467e-05
-5.05019e-06
-1.71257e-05
1.70327e-05
-8.24226e-06
-2.7976e-05
2.20678e-05
-1.12175e-05
-4.02814e-05
2.62439e-05
-1.39385e-05
-5.35589e-05
2.96783e-05
-1.64007e-05
-6.74375e-05
3.24986e-05
-1.862e-05
-8.16461e-05
3.4833e-05
-2.06244e-05
-9.60033e-05
3.68038e-05
-2.24467e-05
-0.000110406
3.85226e-05
-2.412e-05
-0.000124819
4.00879e-05
-2.56744e-05
-0.000139268
4.15838e-05
-2.71352e-05
-0.000153825
4.308e-05
-2.85227e-05
-0.000168605
4.46315e-05
-2.98517e-05
-0.000183752
4.62799e-05
-3.1133e-05
-0.000199432
4.80537e-05
-3.23733e-05
-0.000215825
4.99704e-05
-3.35773e-05
-0.000233114
5.20364e-05
-3.47477e-05
-0.000251479
5.4247e-05
-3.58824e-05
5.65956e-05
-3.69779e-05
-0.000271096
-2.29641e-06
6.3468e-06
-8.18557e-06
1.69359e-05
-1.68147e-05
2.56619e-05
-2.74565e-05
3.27095e-05
-3.95099e-05
3.82973e-05
-5.24932e-05
4.26616e-05
-6.60343e-05
4.60396e-05
-7.98592e-05
4.8658e-05
-9.37821e-05
5.07267e-05
-0.000107695
5.2435e-05
-0.000121556
5.39492e-05
-0.000135385
5.54125e-05
-0.000149249
5.69442e-05
-0.000163258
5.86408e-05
-0.000177554
6.0576e-05
-0.000192303
6.28023e-05
-0.000207684
6.53516e-05
-0.000223883
6.82358e-05
-0.000241086
7.14495e-05
7.49833e-05
-0.000259474
-2.26007e-06
8.60687e-06
-8.05048e-06
2.27263e-05
-1.65223e-05
3.41337e-05
-2.6949e-05
4.31363e-05
-3.87285e-05
5.00767e-05
-5.13754e-05
5.53086e-05
-6.45117e-05
5.91759e-05
-7.78555e-05
6.20018e-05
-9.12108e-05
6.40821e-05
-0.000104458
6.56822e-05
-0.000117545
6.70362e-05
-0.000130479
6.83465e-05
-0.000143319
6.97839e-05
-0.000156167
7.14888e-05
-0.000169162
7.35707e-05
-0.000182469
7.61096e-05
-0.000196273
7.9156e-05
-0.000210769
8.27316e-05
-0.000226152
8.68329e-05
9.145e-05
-0.000242619
-2.23172e-06
1.08386e-05
-7.93615e-06
2.84307e-05
-1.62603e-05
4.24578e-05
-2.64729e-05
5.33489e-05
-3.79658e-05
6.15697e-05
-5.02462e-05
6.75889e-05
-6.29256e-05
7.18553e-05
-7.57093e-05
7.47855e-05
-8.83862e-05
7.67589e-05
-0.00010082
7.81156e-05
-0.00011294
7.91565e-05
-0.000124737
8.0144e-05
-0.000136256
8.13029e-05
-0.000147589
8.28212e-05
-0.000158867
8.48493e-05
-0.000170259
8.75011e-05
-0.000181955
9.08525e-05
-0.000194165
9.49414e-05
-0.000207104
9.97721e-05
0.000105337
-0.000220991
-2.21315e-06
1.30517e-05
-7.84777e-06
3.40653e-05
-1.60386e-05
5.06486e-05
-2.60443e-05
6.33545e-05
-3.7247e-05
7.27724e-05
-4.91428e-05
7.94847e-05
-6.13296e-05
8.40421e-05
-7.3496e-05
8.69519e-05
-8.54108e-05
8.86737e-05
-9.69149e-05
8.96197e-05
-0.000107915
9.01564e-05
-0.000118377
9.06066e-05
-0.000128326
9.12518e-05
-0.000137837
9.23321e-05
-0.000147034
9.40461e-05
-0.000156083
9.65499e-05
-0.000165185
9.99549e-05
-0.000174569
0.000104325
-0.000184479
0.000109682
0.000116027
-0.000195169
-2.20551e-06
1.52572e-05
-7.78821e-06
3.9648e-05
-1.58624e-05
5.87228e-05
-2.56719e-05
7.31641e-05
-3.65865e-05
8.3687e-05
-4.80893e-05
9.09874e-05
-5.97625e-05
9.57153e-05
-7.12752e-05
9.84646e-05
-8.23726e-05
9.97711e-05
-9.2868e-05
0.000100115
-0.000102638
9.99262e-05
-0.000111618
9.95873e-05
-0.000119805
9.9438e-05
-0.000127248
9.9776e-05
-0.000134059
0.000100856
-0.000140397
0.000102888
-0.000146475
0.000106033
-0.000152544
0.000110394
-0.000158888
0.000116026
0.000122949
-0.00016581
-2.20884e-06
1.74661e-05
-7.75636e-06
4.51955e-05
-1.57286e-05
6.66951e-05
-2.53512e-05
8.27867e-05
-3.598e-05
9.43158e-05
-4.70846e-05
0.000102092
-5.82316e-05
0.000106862
-6.90696e-05
0.000109303
-7.93179e-05
0.000110019
-8.87588e-05
0.000109556
-9.72328e-05
0.0001084
-0.000104638
0.000106992
-0.000110931
0.000105731
-0.000116131
0.000104976
-0.00012032
0.000105046
-0.000123651
0.000106219
-0.00012634
0.000108721
-0.000128665
0.000112719
-0.000130959
0.00011832
0.000125584
-0.000133594
-2.22151e-06
1.96876e-05
-7.74569e-06
5.07197e-05
-1.56233e-05
7.45726e-05
-2.50591e-05
9.22225e-05
-3.53953e-05
0.000104652
-4.60895e-05
0.000112786
-5.66942e-05
0.000117467
-6.68394e-05
0.000119448
-7.62188e-05
0.000119399
-8.45818e-05
0.000117919
-9.1729e-05
0.000115547
-9.75132e-05
0.000112777
-0.000101843
0.000110061
-0.000104692
0.000107824
-0.000106104
0.000106458
-0.000106206
0.000106322
-0.000105214
0.000107729
-0.000103432
0.000110937
-0.000101251
0.000116138
0.000123465
-9.91315e-05
-2.23997e-06
2.19276e-05
-7.74296e-06
5.62227e-05
-1.55183e-05
8.2348e-05
-2.47488e-05
0.000101453
-3.47642e-05
0.000114667
-4.50134e-05
0.000123035
-5.50387e-05
0.000127492
-6.44556e-05
0.000128865
-7.29356e-05
0.000127879
-8.01972e-05
0.000125181
-8.59999e-05
0.00012135
-9.01465e-05
0.000116923
-9.24888e-05
0.000112403
-9.29398e-05
0.000108275
-9.14895e-05
0.000105008
-8.82229e-05
0.000103055
-8.33368e-05
0.000102843
-7.7153e-05
0.000104754
-7.01255e-05
0.000109111
0.000116171
-6.2832e-05
-2.25854e-06
2.41861e-05
-7.72778e-06
6.16919e-05
-1.53708e-05
8.9991e-05
-2.43475e-05
0.00011043
-3.39773e-05
0.000124297
-4.37046e-05
0.000132763
-5.30676e-05
0.000136855
-6.16738e-05
0.000137471
-6.91797e-05
0.000135385
-7.52786e-05
0.000131279
-7.96931e-05
0.000125765
-8.21759e-05
0.000119406
-8.25163e-05
0.000112744
-8.05561e-05
0.000106315
-7.62111e-05
0.000100663
-6.95003e-05
9.63442e-05
-6.05779e-05
9.39209e-05
-4.9764e-05
9.39399e-05
-3.75729e-05
9.69197e-05
0.00010332
-2.47223e-05
-2.2696e-06
2.64557e-05
-7.67302e-06
6.70953e-05
-1.51228e-05
9.74407e-05
-2.37552e-05
0.000119062
-3.28813e-05
0.000133423
-4.19449e-05
0.000141826
-5.04868e-05
0.000145397
-5.81149e-05
0.000145099
-6.44809e-05
0.000141751
-6.9264e-05
0.000136062
-7.216e-05
0.000128661
-7.28789e-05
0.000120125
-7.11503e-05
0.000111015
-6.67384e-05
0.000101903
-5.94694e-05
9.33936e-05
-4.927e-05
8.61448e-05
-3.62174e-05
8.08682e-05
-2.05964e-05
7.83189e-05
-2.96249e-06
7.92858e-05
8.45492e-05
1.58088e-05
-2.26418e-06
2.87199e-05
-7.54646e-06
7.23776e-05
-1.47047e-05
0.000104599
-2.28495e-05
0.000127207
-3.12834e-05
0.000141857
-3.94525e-05
0.000149995
-4.69051e-05
0.00015285
-5.32581e-05
0.000151452
-5.81704e-05
0.000146663
-6.13214e-05
0.000139213
-6.23975e-05
0.000129737
-6.10836e-05
0.000118811
-5.70635e-05
0.000106995
-5.00318e-05
9.48712e-05
-3.97197e-05
8.30815e-05
-2.59403e-05
7.23654e-05
-8.65554e-06
6.35835e-05
1.19354e-05
5.77279e-05
3.528e-05
5.59412e-05
5.94834e-05
6.03458e-05
-2.23285e-06
3.09527e-05
-7.31343e-06
7.74582e-05
-1.40399e-05
0.000111325
-2.14924e-05
0.000134659
-2.89616e-05
0.000149326
-3.58943e-05
0.000156928
-4.18479e-05
0.000158804
-4.64537e-05
0.000156058
-4.93872e-05
0.000149597
-5.03448e-05
0.000140171
-4.90246e-05
0.000128417
-4.51137e-05
0.0001149
-3.82803e-05
0.000100162
-2.81768e-05
8.47677e-05
-1.44573e-05
6.9362e-05
3.18043e-06
5.47277e-05
2.49198e-05
4.18441e-05
5.07077e-05
3.194e-05
8.00711e-05
2.65778e-05
2.76913e-05
0.000111863
-2.16687e-06
3.31196e-05
-6.94036e-06
8.22317e-05
-1.30516e-05
0.000117437
-1.95417e-05
0.000141149
-2.56807e-05
0.000155465
-3.09087e-05
0.000162156
-3.47868e-05
0.000162682
-3.69586e-05
0.000158229
-3.71202e-05
0.000149758
-3.49955e-05
0.000138046
-3.03163e-05
0.000123738
-2.28041e-05
0.000107388
-1.21556e-05
8.95133e-05
1.96651e-06
7.06455e-05
1.99327e-05
5.13958e-05
4.21221e-05
3.25384e-05
6.88583e-05
1.51078e-05
0.000100283
5.15618e-07
0.000136109
-9.2489e-06
-1.13911e-05
0.000175192
-2.0593e-06
3.51789e-05
-6.39819e-06
8.65706e-05
-1.167e-05
0.000122709
-1.68629e-05
0.000146342
-2.12121e-05
0.000159815
-2.41353e-05
0.000165079
-2.51822e-05
0.000163729
-2.39962e-05
0.000157043
-2.02854e-05
0.000146048
-1.3801e-05
0.000131562
-4.31911e-06
0.000114256
8.37634e-06
9.46922e-05
2.45111e-05
7.33785e-05
4.43402e-05
5.08164e-05
6.81658e-05
2.75703e-05
9.63441e-05
4.36001e-06
0.000129261
-1.78088e-05
0.000167239
-3.74622e-05
0.000210286
-5.22959e-05
-5.85714e-05
0.000257466
-1.9058e-06
3.70847e-05
-5.66488e-06
9.03297e-05
-9.83733e-06
0.000126881
-1.33401e-05
0.000149845
-1.53517e-05
0.000161826
-1.52443e-05
0.000164972
-1.25308e-05
0.000161015
-6.82825e-06
0.000151341
2.16754e-06
0.000137052
1.46978e-05
0.000119032
3.09518e-05
9.80017e-05
5.10756e-05
7.45685e-05
7.51837e-05
4.92704e-05
0.000103377
2.26232e-05
0.000135771
-4.82402e-06
0.000172535
-3.2404e-05
0.000213925
-5.91982e-05
0.000260288
-8.38254e-05
0.000311936
-0.000103944
-0.000115036
0.000368401
-1.70468e-06
3.87893e-05
-4.72582e-06
9.33508e-05
-7.51004e-06
0.000129665
-8.87973e-06
0.000151215
-7.93054e-06
0.000160877
-3.95808e-06
0.000160999
3.59578e-06
0.000153461
1.51786e-05
0.000139758
3.11475e-05
0.000121083
5.17776e-05
9.84017e-05
7.72613e-05
7.2518e-05
0.000107703
4.41268e-05
0.000143113
1.38608e-05
0.000183405
-1.76689e-05
0.000228412
-4.98313e-05
0.000277925
-8.19173e-05
0.000331767
-0.00011304
0.00038991
-0.000141968
0.000452639
-0.000166673
-0.000182583
0.000520185
-1.45602e-06
4.02454e-05
-3.57144e-06
9.54662e-05
-4.65461e-06
0.000130748
-3.40708e-06
0.000149967
1.18839e-06
0.000156282
9.94687e-06
0.000152241
2.35373e-05
0.000139871
4.25167e-05
0.000120779
6.73468e-05
9.62528e-05
9.83941e-05
6.73544e-05
0.000135919
3.49934e-05
0.000180051
-6.01844e-09
0.000230764
-3.68515e-05
0.000287831
-7.47356e-05
0.000350796
-0.000112797
0.000418957
-0.000150079
0.000491393
-0.000185475
0.000567083
-0.000217659
0.000645323
-0.000244912
-0.000264574
0.000727314
-1.15994e-06
4.14053e-05
-2.19215e-06
9.64984e-05
-1.23858e-06
0.000129795
3.14771e-06
0.000145581
1.21271e-05
0.000147302
2.66594e-05
0.000137708
4.75623e-05
0.000118968
7.5546e-05
9.2795e-05
0.000111226
6.05724e-05
0.000155122
2.34585e-05
0.000207638
-1.75219e-05
0.00026903
-6.13989e-05
0.000339366
-0.000107187
0.000418448
-0.000153818
0.000505721
-0.00020007
0.000600136
-0.000244494
0.000699986
-0.000285325
0.000802716
-0.000320388
0.000905097
-0.000347294
-0.00036796
0.00100848
-8.14173e-07
4.22195e-05
-5.71537e-07
9.62558e-05
2.7821e-06
0.000126441
1.08691e-05
0.000137494
2.50207e-05
0.000133151
4.63696e-05
0.00011636
7.59112e-05
8.94263e-05
0.000114537
5.41689e-05
0.000163048
1.20611e-05
0.000222153
-3.56456e-05
0.000292453
-8.78218e-05
0.000374429
-0.000143376
0.000468419
-0.000201177
0.000574579
-0.000259978
0.000692828
-0.000318319
0.000822721
-0.000374386
0.000963137
-0.000425742
0.00111131
-0.000468559
0.00125959
-0.000495573
-0.000493133
0.00138476
-4.12585e-07
4.26321e-05
1.3191e-06
9.45241e-05
7.4743e-06
0.000120286
1.98749e-05
0.000125093
4.00444e-05
0.000112981
6.93064e-05
8.70976e-05
0.000108844
4.98891e-05
0.000159728
3.28459e-06
0.000222929
-5.11397e-05
0.000299311
-0.000112028
0.000389634
-0.000178144
0.000494555
-0.000248297
0.00061467
-0.000321292
0.000750587
-0.000395895
0.000903097
-0.000470828
0.00107348
-0.000544774
0.00126411
-0.000616364
0.0014797
-0.000684156
0.00173132
-0.000747189
-0.000804369
0.00204255
5.9041e-08
4.2573e-05
3.52935e-06
9.10538e-05
1.29403e-05
0.000110875
3.03325e-05
0.000107701
5.74351e-05
8.58784e-05
9.57641e-05
4.87686e-05
0.000146674
-1.02034e-06
0.000211373
-6.14146e-05
0.000290922
-0.000130689
0.000386218
-0.000207324
0.000497986
-0.000289912
0.000626785
-0.000377096
0.000773043
-0.000467549
0.000937133
-0.000559985
0.00111951
-0.000653203
0.00132091
-0.000746179
0.00154271
-0.000838167
0.0017874
-0.000928836
0.00205855
-0.00101834
-0.00109995
0.00235413
6.19325e-07
4.19537e-05
6.12337e-06
8.55498e-05
1.93098e-05
9.76885e-05
4.24495e-05
8.45616e-05
7.74778e-05
5.08501e-05
0.000126085
1.61603e-07
0.000189748
-6.46838e-05
0.000269729
-0.000141395
0.000367043
-0.000228002
0.000482427
-0.000322709
0.000616318
-0.000423803
0.000768841
-0.000529619
0.000939834
-0.000638543
0.0011289
-0.000749049
0.00133547
-0.000859772
0.00155889
-0.000969599
0.00179849
-0.00107777
0.00205359
-0.00118394
0.00232318
-0.00128793
-0.00138139
0.00260462
1.29262e-06
4.06611e-05
9.17957e-06
7.76628e-05
2.67342e-05
8.01339e-05
5.64571e-05
5.48387e-05
0.000100473
6.8343e-06
0.0001606
-5.99653e-05
0.000238354
-0.000142438
0.000334912
-0.000237954
0.000451059
-0.000344149
0.000587132
-0.000458782
0.00074299
-0.000579662
0.000918013
-0.000704642
0.00111113
-0.000831655
0.00132086
-0.00095878
0.00154541
-0.00108433
0.00178273
-0.00120691
0.0020305
-0.00132554
0.00228616
-0.0014396
0.00254691
-0.00154868
-0.00164534
0.00281086
2.1057e-06
3.85554e-05
1.27808e-05
6.69877e-05
3.5366e-05
5.75486e-05
7.2574e-05
1.76307e-05
0.000126675
-4.72671e-05
0.000199534
-0.000132824
0.000292569
-0.000235474
0.000406688
-0.000352072
0.0005422
-0.000479661
0.000698767
-0.000615349
0.000875385
-0.000756279
0.00107041
-0.000899671
0.00128166
-0.0010429
0.00150648
-0.0011836
0.00174191
-0.00131976
0.00198477
-0.00144977
0.00223173
-0.00157251
0.0024794
-0.00168727
0.00272443
-0.00179371
-0.00188628
0.00296536
3.08466e-06
3.54707e-05
1.70035e-05
5.30689e-05
4.53363e-05
2.92159e-05
9.09643e-05
-2.79973e-05
0.000156226
-0.000112528
0.000242899
-0.000219497
0.00035212
-0.000344694
0.000484275
-0.000484228
0.000638923
-0.000634309
0.000814759
-0.000791185
0.00100966
-0.000951179
0.00122079
-0.0011108
0.00144478
-0.00126689
0.00167791
-0.00141673
0.00191632
-0.00155817
0.00215618
-0.00168963
0.00239383
-0.00181016
0.00262585
-0.00191929
0.00284926
-0.00201712
-0.00210014
0.00306312
4.25191e-06
3.12188e-05
2.19078e-05
3.5413e-05
5.67318e-05
-5.60812e-06
0.000111698
-8.29631e-05
0.000189086
-0.000189917
0.000290407
-0.000320817
0.000416261
-0.000470549
0.00056623
-0.000634197
0.000738817
-0.000806896
0.000931495
-0.000983863
0.00114085
-0.00116054
0.00136284
-0.00133279
0.00159303
-0.00149708
0.00182693
-0.00165063
0.00206024
-0.00179148
0.00228905
-0.00191844
0.00251
-0.0020311
0.00272032
-0.00212962
0.00291794
-0.00221474
-0.00228482
0.00310262
5.62392e-06
2.55949e-05
2.75289e-05
1.3508e-05
6.95774e-05
-4.76565e-05
0.000134718
-0.000148103
0.000224997
-0.000280197
0.00034141
-0.00043723
0.00048373
-0.000612869
0.000650419
-0.000800886
0.000838659
-0.000995136
0.00104453
-0.00118974
0.00126333
-0.00137933
0.00148993
-0.00155939
0.00171919
-0.00172634
0.00194632
-0.00187777
0.00216714
-0.00201229
0.00237824
-0.00212954
0.00257709
-0.00222995
0.00276202
-0.00231455
0.00293213
-0.00238485
-0.00244077
0.00308809
7.20977e-06
1.83851e-05
3.38713e-05
-1.31536e-05
8.38226e-05
-9.76078e-05
0.000159821
-0.000224102
0.000263447
-0.000383823
0.000394885
-0.000568668
0.000552757
-0.000770741
0.000734118
-0.000982246
0.000934645
-0.00119566
0.00114901
-0.0014041
0.00137139
-0.00160171
0.00159595
-0.00178395
0.00181734
-0.00194773
0.00203102
-0.00209145
0.00223349
-0.00221476
0.00242232
-0.00231838
0.00259616
-0.00240378
0.00275456
-0.00247295
0.00289783
-0.00252812
-0.00257039
0.00302745
9.0104e-06
9.37473e-06
4.09055e-05
-4.50487e-05
9.93352e-05
-0.000156038
0.000186649
-0.000311415
0.000303673
-0.000500848
0.000449453
-0.000714447
0.000621147
-0.000942435
0.000814193
-0.00117529
0.00102273
-0.0014042
0.0012402
-0.00162157
0.00146002
-0.00182153
0.00167619
-0.00200011
0.0018837
-0.00215525
0.00207883
-0.00228658
0.00225917
-0.0023951
0.00242355
-0.00248276
0.00257187
-0.0025521
0.00270482
-0.0026059
0.00282368
-0.00264698
-0.00267723
0.00293052
1.10182e-05
-1.64348e-06
4.85664e-05
-8.25969e-05
0.000115899
-0.00022337
0.000214687
-0.000410203
0.000344679
-0.000630841
0.000503445
-0.000873213
0.000686431
-0.00112542
0.000887381
-0.00137624
0.00109904
-0.00161586
0.00131401
-0.00183654
0.00152548
-0.002033
0.00172785
-0.00220248
0.001917
-0.00234441
0.00209043
-0.00246
0.00224704
-0.00255171
0.00238695
-0.00262267
0.00251115
-0.0026763
0.00262122
-0.00271597
0.00271903
-0.00274479
-0.00276513
0.00280693
1.32168e-05
-1.48603e-05
5.67527e-05
-0.000126133
0.000133213
-0.00029983
0.000243281
-0.000520271
0.000385277
-0.000772837
0.000555004
-0.00104294
0.000746058
-0.00131647
0.00095059
-0.00158077
0.00116031
-0.00182558
0.00136749
-0.00204371
0.00156569
-0.00223121
0.00175026
-0.00238705
0.00191837
-0.00251251
0.00206888
-0.00261052
0.00220203
-0.00268486
0.00231903
-0.00273967
0.00242169
-0.00277896
0.00251212
-0.00280639
0.00259245
-0.00282512
-0.00283767
0.00266499
1.55806e-05
-3.04408e-05
6.53271e-05
-0.000175879
0.000150902
-0.000385404
0.000271656
-0.000641025
0.000424153
-0.000925334
0.000602216
-0.001221
0.000797616
-0.00151187
0.00100121
-0.00178436
0.00120417
-0.00202854
0.00139904
-0.00223858
0.00158032
-0.0024125
0.00174468
-0.00255141
0.00189075
-0.00265858
0.00201876
-0.00273853
0.00213005
-0.00279615
0.00222664
-0.00283626
0.00231082
-0.00286314
0.00238488
-0.00288045
0.00245096
-0.00289121
-0.00289786
0.00251115
1.80746e-05
-4.85155e-05
7.41184e-05
-0.000231923
0.000168523
-0.000479808
0.000298956
-0.000771459
0.000459945
-0.00108632
0.000643257
-0.00140432
0.000839043
-0.00170766
0.00103732
-0.00198264
0.00122934
-0.00222056
0.00140847
-0.00241772
0.00157057
-0.0025746
0.0017138
-0.00269464
0.00183824
-0.00278302
0.00194527
-0.00284555
0.00203705
-0.00288793
0.00211606
-0.00291527
0.00218476
-0.00293184
0.00224539
-0.00294109
0.00229992
-0.00294573
-0.00294801
0.00235007
2.06548e-05
-6.91702e-05
8.29254e-05
-0.000294194
0.000185585
-0.000582468
0.00032429
-0.000910165
0.000491344
-0.00125338
0.000676546
-0.00158952
0.000868803
-0.00189992
0.00105787
-0.00217171
0.00123565
-0.00239834
0.00139681
-0.00257888
0.00153876
-0.00271654
0.00166117
-0.00281706
0.00176535
-0.0028872
0.00185355
-0.00293375
0.00192841
-0.00296279
0.00199258
-0.00297943
0.00204845
-0.00298771
0.00209807
-0.00299071
0.0021431
-0.00299076
-0.00298984
0.00218493
2.32681e-05
-9.24383e-05
9.15231e-05
-0.000362449
0.000201571
-0.000692516
0.000346784
-0.00105538
0.000517183
-0.00142378
0.000700856
-0.00177319
0.000885981
-0.00208504
0.00106265
-0.00234837
0.00122391
-0.0025596
0.001366
-0.00272097
0.00148791
-0.00283845
0.00159066
-0.00291981
0.00167649
-0.00297304
0.00174821
-0.00300547
0.00180864
-0.00302323
0.00186038
-0.00303117
0.0019056
-0.00303293
0.00194606
-0.00303117
0.00198311
-0.00302782
-0.00302455
0.00201782
2.58544e-05
-0.000118293
9.9672e-05
-0.000436266
0.000215968
-0.000808812
0.000365638
-0.00120505
0.000536523
-0.00159466
0.000715401
-0.00195207
0.000890303
-0.00225995
0.0010522
-0.00251027
0.00119564
-0.00270304
0.00131851
-0.00284384
0.00142127
-0.00294122
0.00150602
-0.00300455
0.00157562
-0.00304264
0.00163312
-0.00306297
0.00168132
-0.00307143
0.0017226
-0.00307245
0.00175885
-0.00306918
0.00179151
-0.00306383
0.00182165
-0.00305796
-0.00305294
0.00185004
2.83482e-05
-0.000146641
0.000107129
-0.000515047
0.00022829
-0.000929973
0.000380181
-0.00135694
0.000548708
-0.00176319
0.000719853
-0.00212321
0.000882078
-0.00242217
0.00102766
-0.00265585
0.00115283
-0.00282821
0.00125707
-0.00294808
0.00134205
-0.0030262
0.00141064
-0.00307314
0.00146606
-0.00309806
0.00151137
-0.00310827
0.00154916
-0.00310923
0.00158152
-0.00310482
0.00161004
-0.00309769
0.00163585
-0.00308964
0.00165979
-0.0030819
-0.00307556
0.00168241
3.06814e-05
-0.000177322
0.000113659
-0.000598025
0.000238113
-0.00105443
0.000389906
-0.00150873
0.000553392
-0.00192667
0.000714321
-0.00228414
0.000862094
-0.00256994
0.000990579
-0.00278434
0.0010977
-0.00293533
0.00118435
-0.00303473
0.00125316
-0.00309501
0.00130745
-0.00312743
0.00135054
-0.00314115
0.00138533
-0.00314306
0.00141415
-0.00313804
0.00143875
-0.00312942
0.00146041
-0.00311935
0.00148003
-0.00310927
0.00149824
-0.0031001
-0.00309275
0.00151542
3.27863e-05
0.000119048
0.000245096
0.000394498
0.000550536
0.000699284
0.000831473
0.000942699
0.00103247
0.00110285
0.00115711
0.0011988
0.00123115
0.00125679
0.00127771
0.00129538
0.0013108
0.00132466
0.00133744
0.00134939
3.28399e-05
0.000179696
0.000119101
0.000603884
0.000244959
0.00106266
0.000393904
0.00151825
0.00054921
0.00193648
0.000697011
0.00229344
0.000828134
0.00257822
0.000938267
0.00279133
0.001027
0.00294101
0.00109643
0.00303919
0.00114986
0.00309841
0.00119083
0.00312995
0.00122256
0.00314296
0.00124766
0.00314428
0.00126812
0.00313878
0.00128538
0.00312975
0.00130042
0.00311934
0.00131395
0.00310894
0.00132641
0.00309949
0.00309186
0.00133807
3.07553e-05
0.00014894
0.000113792
0.000520848
0.00023815
0.000938306
0.00038959
0.00136681
0.000552429
0.00177364
0.000712455
0.00213342
0.000859148
0.00243152
0.000986479
0.002664
0.00109246
0.00283504
0.00117804
0.00295361
0.00124588
0.00303057
0.00129933
0.00307651
0.0013417
0.00310059
0.00137586
0.00311012
0.00140412
0.00311051
0.00142824
0.00310563
0.00144947
0.00309811
0.00146871
0.0030897
0.00148656
0.00308163
0.00307501
0.00150341
2.84401e-05
0.0001205
0.000107338
0.00044195
0.000228498
0.000817146
0.000380154
0.00121516
0.000548146
0.00160565
0.000718464
0.0019631
0.000879632
0.00227036
0.00102402
0.00251961
0.00114796
0.0027111
0.001251
0.00285056
0.00133489
0.00294668
0.0014025
0.0030089
0.00145705
0.00304604
0.00150161
0.00306557
0.00153875
0.00307337
0.00157054
0.00307384
0.00159855
0.0030701
0.00162391
0.00306434
0.00164743
0.00305811
0.00305277
0.00166967
2.59613e-05
9.45388e-05
9.99489e-05
0.000367962
0.000216339
0.000700756
0.000365901
0.0010656
0.000536387
0.00143516
0.000714548
0.00178494
0.000888454
0.00209645
0.00104915
0.00235891
0.0011913
0.00256895
0.00131287
0.002729
0.00141438
0.00284516
0.00149798
0.0029253
0.00156657
0.00297745
0.00162317
0.00300896
0.00167059
0.00302595
0.00171119
0.00303325
0.00174683
0.00303446
0.00177895
0.00303222
0.0018086
0.00302845
0.00302481
0.00183655
2.33866e-05
7.11522e-05
9.1858e-05
0.000299491
0.00020209
0.000590523
0.000347325
0.000920362
0.00051748
0.00126501
0.000700582
0.00160184
0.000884817
0.00191222
0.00106033
0.0021834
0.00122027
0.00240901
0.00136097
0.0025883
0.00148149
0.00272464
0.00158293
0.00282386
0.00166757
0.00289282
0.00173822
0.00293832
0.0017977
0.00296646
0.00184861
0.00298234
0.0018931
0.00298997
0.00193291
0.00299241
0.00196939
0.00299198
0.00299063
0.00200357
2.07814e-05
5.03709e-05
8.3307e-05
0.000236965
0.000186232
0.000487598
0.000325089
0.000781505
0.000492063
0.00109804
0.000676869
0.00141703
0.000868389
0.0017207
0.0010564
0.00199538
0.00123289
0.00223253
0.0013926
0.00242858
0.00153305
0.00258419
0.001654
0.00270291
0.00175679
0.00279002
0.00184372
0.00285139
0.00191743
0.00289275
0.00198059
0.00291918
0.00203557
0.00293499
0.0020844
0.00294358
0.00212873
0.00294765
0.00294944
0.00216992
1.82061e-05
3.21648e-05
7.45354e-05
0.000180636
0.000169276
0.000392858
0.000299982
0.0006508
0.000461058
0.00093696
0.000644171
0.00123392
0.000839411
0.00152546
0.00103679
0.00179801
0.0012276
0.00204172
0.0014053
0.00225089
0.00156583
0.00242366
0.00170746
0.00256129
0.00183032
0.00266716
0.00193586
0.00274585
0.00202628
0.00280233
0.00210405
0.00284141
0.00217165
0.00286739
0.00223132
0.00288392
0.00228497
0.00289399
0.00290006
0.00233435
1.5714e-05
1.64508e-05
6.57691e-05
0.000130581
0.000151739
0.000306887
0.000272874
0.000529665
0.000425619
0.000784215
0.000603689
0.00105585
0.000798766
0.00133038
0.00100167
0.00159511
0.00120358
0.00183981
0.0013971
0.00205737
0.00157681
0.00224394
0.00173947
0.00239863
0.0018838
0.00252283
0.00201011
0.00261954
0.0021198
0.00269264
0.0022149
0.0027463
0.00229773
0.00278455
0.00237059
0.00281106
0.0024356
0.00282898
0.00284084
0.00249482
1.33503e-05
3.10049e-06
5.72115e-05
8.67198e-05
0.000134115
0.000229984
0.000244656
0.000419124
0.00038705
0.000641821
0.000556984
0.000885913
0.000747956
0.00113941
0.000952047
0.00139102
0.00116094
0.00163091
0.00136693
0.00185138
0.00156364
0.00204723
0.00174649
0.00221577
0.00191276
0.00235656
0.00206139
0.00247091
0.0021927
0.00256134
0.00230794
0.00263106
0.00240897
0.00268352
0.00249791
0.00272213
0.0025769
0.00274999
0.00276949
0.00264824
1.11511e-05
-8.05064e-06
4.90375e-05
4.88334e-05
0.000116851
0.00016217
0.00021619
0.000319786
0.000346708
0.000511303
0.00050587
0.000726751
0.000689014
0.000956262
0.000889796
0.00119023
0.00110091
0.0014198
0.00131492
0.00163737
0.00152507
0.00183708
0.00172581
0.00201504
0.0019131
0.00216926
0.00208453
0.00229948
0.00223909
0.00240678
0.00237698
0.00249317
0.00249924
0.00256126
0.0026075
0.00261387
0.00270366
0.00265383
0.0026831
0.00279006
9.14385e-06
-1.71945e-05
4.13894e-05
1.65879e-05
0.000100333
0.000103226
0.00018826
0.000231859
0.000305918
0.000393644
0.000452258
0.000580412
0.000624335
0.000784185
0.000817489
0.000997081
0.00102578
0.00121151
0.0012426
0.00142055
0.00146136
0.00161832
0.00167608
0.00180032
0.00188183
0.00196352
0.00207494
0.00210637
0.00225311
0.00222861
0.00241526
0.00233103
0.00256135
0.00241517
0.00269216
0.00248306
0.002809
0.00253699
0.00257813
0.00291396
7.34677e-06
-2.45413e-05
3.43738e-05
-1.04392e-05
8.48691e-05
5.27311e-05
0.000161534
0.000155195
0.000265882
0.000289296
0.000398016
0.000448277
0.000556468
0.000625733
0.000738194
0.000815354
0.000938784
0.00101092
0.00115284
0.00120649
0.00137449
0.00139667
0.00159789
0.00157691
0.00181772
0.00174369
0.00202951
0.00189459
0.0022298
0.00202831
0.00241628
0.00214455
0.00258767
0.00224378
0.00274361
0.00232711
0.00288449
0.00239611
0.00245079
0.00301184
5.76926e-06
-3.03105e-05
2.80611e-05
-3.27311e-05
7.06858e-05
1.01064e-05
0.000136539
8.93415e-05
0.000227611
0.000198224
0.00034483
0.000331058
0.000487892
0.000482671
0.000655171
0.000648075
0.00084376
0.000822332
0.00104966
0.00100059
0.00126809
0.00117824
0.00149389
0.00135111
0.00172192
0.00151566
0.0019474
0.00166911
0.00216619
0.00180953
0.00237496
0.00193578
0.00257126
0.00204748
0.00275351
0.00214486
0.00292091
0.00222871
0.00229752
0.00307418
4.41146e-06
-3.4722e-05
2.24834e-05
-5.0803e-05
5.79206e-05
-2.53308e-05
0.000113644
3.36182e-05
0.000191884
0.000119984
0.000294095
0.000228848
0.000420816
0.00035595
0.000571556
0.000497336
0.000744737
0.000649151
0.00093775
0.000807578
0.00114711
0.000968881
0.0013687
0.00112952
0.00159805
0.00128631
0.00183065
0.0014365
0.00206222
0.00157796
0.00228889
0.00170911
0.00250734
0.00182903
0.00271491
0.00193729
0.0029096
0.00203402
0.00211587
0.00309125
3.26414e-06
-3.79861e-05
1.76355e-05
-6.51744e-05
4.66229e-05
-5.43182e-05
9.30514e-05
-1.28103e-05
0.000159212
5.38231e-05
0.000246839
0.000141221
0.000357018
0.00024577
0.000490081
0.000364273
0.000645518
0.000493714
0.000821951
0.000631145
0.00101718
0.000773652
0.0012283
0.000918403
0.00145187
0.00106273
0.00168414
0.00120424
0.00192121
0.00134088
0.00215926
0.00147106
0.00239465
0.00159364
0.00262402
0.00170792
0.00284445
0.00181359
0.00190527
0.00305505
2.30914e-06
-4.02953e-05
1.34769e-05
-7.63422e-05
3.67587e-05
-7.75999e-05
7.48055e-05
-5.08572e-05
0.000129843
-1.21431e-06
0.000203697
6.7367e-05
0.000297751
0.000151716
0.000412869
0.000249155
0.00054931
0.000357273
0.000706678
0.000473777
0.000883899
0.000596431
0.00107926
0.00072304
0.0012905
0.000851491
0.00151491
0.000979827
0.00174947
0.00110632
0.00199096
0.00122957
0.00223605
0.00134855
0.00248134
0.00146264
0.00272351
0.00157142
0.00166763
0.00296115
1.52075e-06
-4.1816e-05
9.93767e-06
-8.47591e-05
2.82229e-05
-9.58852e-05
5.88106e-05
-8.14449e-05
0.000103781
-4.6185e-05
0.000164922
6.22653e-06
0.000243721
7.29167e-05
0.000341328
0.000151548
0.000458491
0.00024011
0.000595504
0.000336764
0.000752173
0.000439762
0.000927813
0.0005474
0.00112128
0.000658025
0.00133103
0.000770077
0.00155519
0.000882158
0.00179164
0.000993123
0.00203802
0.00110218
0.0022917
0.00120895
0.00254987
0.00131325
0.00140683
0.00281067
8.6834e-07
-4.26844e-05
6.92769e-06
-9.08184e-05
2.08602e-05
-0.000109818
4.48663e-05
-0.000105451
8.08393e-05
-8.2158e-05
0.000130444
-4.33778e-05
0.000195139
8.22097e-06
0.00027617
7.05176e-05
0.000374531
0.000141749
0.000490931
0.000220364
0.000625767
0.000304926
0.000779115
0.000394051
0.000950755
0.000486386
0.00114021
0.000580618
0.00134685
0.000675525
0.00156991
0.000770059
0.00180864
0.000863451
0.00206225
0.000955342
0.00232966
0.00104584
0.00112818
0.00260831
3.20059e-07
-4.30044e-05
4.34924e-06
-9.48476e-05
1.44906e-05
-0.000119959
3.27131e-05
-0.000123673
6.07073e-05
-0.000110152
9.99701e-05
-8.26407e-05
0.000151847
-4.36556e-05
0.00021754
4.8241e-06
0.000298103
6.11864e-05
0.000394417
0.00012405
0.000507187
0.000192157
0.000636938
0.0002643
0.000784053
0.00033927
0.000948847
0.000415824
0.0011317
0.000492677
0.00133324
0.000568511
0.00155473
0.000641965
0.00179848
0.000711593
0.00206795
0.000776372
0.000834843
0.00236128
-1.53213e-07
-4.28512e-05
2.11011e-06
-9.71109e-05
8.93762e-06
-0.000126787
2.20818e-05
-0.000136818
4.30331e-05
-0.000131104
7.31035e-05
-0.000112711
0.000113476
-8.4028e-05
0.000165227
-4.69265e-05
0.000229329
-2.91585e-06
0.000306648
4.67301e-05
0.000397938
0.000100867
0.000503843
0.000158395
0.000624937
0.000218176
0.000761795
0.000278967
0.000915158
0.000339314
0.00108624
0.000397427
0.0012773
0.000450903
0.00149295
0.000495943
0.00174413
0.000525193
0.00052482
0.00205416
-5.7369e-07
-4.22775e-05
1.36021e-07
-9.78207e-05
4.05359e-06
-0.000130704
1.2738e-05
-0.000145502
2.74948e-05
-0.00014586
4.94538e-05
-0.00013467
7.96195e-05
-0.000114194
0.000118898
-8.62046e-05
0.000168104
-5.21223e-05
0.00022796
-1.31259e-05
0.000299079
2.9748e-05
0.000381951
7.55231e-05
0.000476916
0.000123211
0.000584138
0.000171744
0.000703549
0.000219904
0.000834727
0.000266249
0.000976614
0.000309016
0.00112658
0.000345979
0.00127722
0.000374551
0.000395911
0.00140613
-9.57378e-07
-4.13201e-05
-1.62712e-06
-9.71509e-05
-2.71132e-07
-0.00013206
4.50392e-06
-0.000150277
1.38423e-05
-0.000155199
2.87093e-05
-0.000149537
4.99401e-05
-0.000135424
7.82675e-05
-0.000114532
0.000114331
-8.81861e-05
0.000158674
-5.74686e-05
0.000211722
-2.33004e-05
0.000273758
1.3488e-05
0.00034487
5.2099e-05
0.000424894
9.17195e-05
0.000513318
0.000131479
0.00060916
0.000170407