1.275 	2.15223e-18 	-2.76991e-20 	-0.148526 	0.0042147 	-2.72614e-22
1.825 	2.15223e-18 	-1.39322e-20 	-0.309738 	0.00267207 	3.85494e-21
2.375 	2.15223e-18 	-2.66896e-23 	-0.444167 	0.00362541 	-2.01209e-21
