1.275 	2.15223e-18 	-2.76991e-20 	-0.148524 	0.00432087 	-2.72617e-22
1.825 	2.15223e-18 	-1.39322e-20 	-0.309743 	0.00271883 	3.85517e-21
2.375 	2.15223e-18 	-2.66896e-23 	-0.444164 	0.00327905 	-2.01222e-21
