/*--------------------------------*- C++ -*----------------------------------*\
  =========                 |
  \\      /  F ield         | OpenFOAM: The Open Source CFD Toolbox
   \\    /   O peration     | Website:  https://openfoam.org
    \\  /    A nd           | Version:  6.0
     \\/     M anipulation  |
\*---------------------------------------------------------------------------*/
FoamFile
{
    version     2.0;
    format      ascii;
    class       surfaceScalarField;
    location    "65";
    object      phi;
}
// * * * * * * * * * * * * * * * * * * * * * * * * * * * * * * * * * * * * * //

dimensions      [0 3 -1 0 0 0 0];

internalField   nonuniform List<scalar> 
24700
(
-3.91818e-06
4.21028e-05
-3.81846e-05
-1.35906e-05
8.70317e-05
-7.73592e-05
-2.75127e-05
0.000103882
-8.99596e-05
-4.45406e-05
0.000101055
-8.40268e-05
-6.37889e-05
8.49607e-05
-6.57124e-05
-8.45613e-05
6.03161e-05
-3.95437e-05
-0.000106292
3.04606e-05
-8.72948e-06
-0.000128505
-2.338e-06
2.45503e-05
-0.000150778
-3.66106e-05
5.88843e-05
-0.000172734
-7.14518e-05
9.3407e-05
-0.00019402
-0.000106332
0.000127619
-0.000214315
-0.000140956
0.000161251
-0.000233322
-0.000175165
0.000194172
-0.000250773
-0.000208877
0.000226329
-0.000266435
-0.000242054
0.000257716
-0.000280111
-0.000274687
0.000288363
-0.000291644
-0.000306803
0.000318335
-0.000300924
-0.000338463
0.000347744
-0.000307894
-0.000369783
0.000376753
-0.00031255
-0.000400938
0.000405594
-0.000314955
-0.000432171
0.000434576
-0.000315239
-0.000463795
0.00046408
-0.000313612
-0.000496202
0.000494575
-0.000310375
-0.000529947
0.000526709
-0.000565747
0.000561322
-0.000305949
-3.9739e-06
4.60767e-05
-1.38694e-05
9.69271e-05
-2.8216e-05
0.000118228
-4.58792e-05
0.000118718
-6.59649e-05
0.000105046
-8.77582e-05
8.21093e-05
-0.000110671
5.33737e-05
-0.000134204
2.11944e-05
-0.000157914
-1.29006e-05
-0.0001814
-4.79653e-05
-0.000204293
-8.34394e-05
-0.000226247
-0.000119002
-0.000246943
-0.000154469
-0.000266088
-0.000189732
-0.000283421
-0.000224721
-0.000298715
-0.000259393
-0.000311787
-0.000293731
-0.000322502
-0.000327749
-0.000330782
-0.000361503
-0.000336615
-0.000395105
-0.000340063
-0.000428723
-0.000341271
-0.000462587
-0.000340477
-0.000496996
-0.000338024
-0.0005324
-0.000569379
-0.000334392
-3.92841e-06
5.00051e-05
-1.38164e-05
0.000106815
-2.82718e-05
0.000132684
-4.61962e-05
0.000136642
-6.67031e-05
0.000125553
-8.9069e-05
0.000104475
-0.00011269
7.6995e-05
-0.000137048
4.55522e-05
-0.000161683
1.1734e-05
-0.000186176
-2.3472e-05
-0.00021014
-5.94754e-05
-0.000233211
-9.59305e-05
-0.00025505
-0.000132631
-0.000275338
-0.000169444
-0.000293787
-0.000206272
-0.000310142
-0.000243039
-0.000324187
-0.000279685
-0.000335762
-0.000316174
-0.000344766
-0.000352499
-0.000351176
-0.000388695
-0.000355054
-0.000424845
-0.000356561
-0.000461079
-0.000355968
-0.00049759
-0.000353672
-0.000534696
-0.000572827
-0.000350224
-3.77122e-06
5.37763e-05
-1.33955e-05
0.000116439
-2.76066e-05
0.000146895
-4.53721e-05
0.000154408
-6.58316e-05
0.000146013
-8.82649e-05
0.000126908
-0.00011206
0.00010079
-0.000136685
7.01775e-05
-0.000161668
3.67164e-05
-0.000186576
1.43612e-06
-0.000211009
-3.50424e-05
-0.000234589
-7.23503e-05
-0.000256959
-0.000110261
-0.00027778
-0.000148622
-0.00029674
-0.000187312
-0.000313555
-0.000226224
-0.000327981
-0.000265259
-0.000339829
-0.000304326
-0.000348976
-0.000343352
-0.000355384
-0.000382287
-0.000359116
-0.000421113
-0.000360349
-0.000459846
-0.00035939
-0.000498549
-0.000356696
-0.00053739
-0.000576624
-0.000352899
-3.49696e-06
5.72732e-05
-1.25863e-05
0.000125529
-2.61763e-05
0.000160485
-4.33314e-05
0.000171563
-6.32374e-05
0.000165919
-8.519e-05
0.000148861
-0.000108577
0.000124177
-0.000132861
9.44613e-05
-0.00015756
6.14153e-05
-0.000182234
2.61106e-05
-0.000206476
-1.08012e-05
-0.000229897
-4.8929e-05
-0.000252129
-8.8029e-05
-0.00027282
-0.000127931
-0.000291637
-0.000168495
-0.000308274
-0.000209587
-0.000322462
-0.000251071
-0.000333985
-0.000292803
-0.000342699
-0.000334639
-0.000348548
-0.000376437
-0.000351594
-0.000418067
-0.000352025
-0.000459414
-0.000350184
-0.000500391
-0.000346587
-0.000540986
-0.000581262
-0.000341949
-3.10648e-06
6.03797e-05
-1.13871e-05
0.000133809
-2.39709e-05
0.000173069
-4.00497e-05
0.000187642
-5.88757e-05
0.000184745
-7.97738e-05
0.000169759
-0.000102141
0.000146545
-0.00012544
0.00011776
-0.000149185
8.51602e-05
-0.000172933
4.98596e-05
-0.000196275
1.25403e-05
-0.00021882
-2.6384e-05
-0.000240196
-6.66533e-05
-0.000260043
-0.000108084
-0.000278018
-0.00015052
-0.000293801
-0.000193805
-0.000307103
-0.000237769
-0.000317687
-0.000282219
-0.000325385
-0.00032694
-0.000330127
-0.000371696
-0.000331962
-0.000416233
-0.000331085
-0.000460291
-0.000327863
-0.000503613
-0.000322867
-0.000545982
-0.000587241
-0.000316888
-2.60694e-06
6.29867e-05
-9.81605e-06
0.000141018
-2.10178e-05
0.00018427
-3.5559e-05
0.000202183
-5.27777e-05
0.000201964
-7.20415e-05
0.000189023
-9.27657e-05
0.000167269
-0.000114419
0.000139413
-0.000136518
0.00010726
-0.000158623
7.19649e-05
-0.000180326
3.42436e-05
-0.000201243
-5.46767e-06
-0.000221003
-4.68926e-05
-0.000239252
-8.98351e-05
-0.000255645
-0.000134127
-0.000269857
-0.000179593
-0.000281589
-0.000226037
-0.000290589
-0.000273219
-0.000296669
-0.00032086
-0.000299737
-0.000368627
-0.000299825
-0.000416145
-0.00029712
-0.000462996
-0.000291998
-0.000508736
-0.000285063
-0.000552916
-0.000595126
-0.000277178
-2.0121e-06
6.49988e-05
-7.91207e-06
0.000146918
-1.73831e-05
0.000193741
-2.99502e-05
0.00021475
-4.50549e-05
0.000217068
-6.21202e-05
0.000206088
-8.05887e-05
0.000185737
-9.99418e-05
0.000158766
-0.000119705
0.000127022
-0.000139444
9.17039e-05
-0.000158759
5.35592e-05
-0.000177277
1.30505e-05
-0.000194642
-2.95283e-05
-0.000210508
-7.39687e-05
-0.000224543
-0.000120091
-0.000236428
-0.000167709
-0.000245865
-0.0002166
-0.000252593
-0.000266491
-0.000256411
-0.000317043
-0.000257199
-0.000367839
-0.000254962
-0.000418381
-0.000249862
-0.000468096
-0.000242259
-0.000516339
-0.000232771
-0.000562404
-0.000605586
-0.000222311
-1.34184e-06
6.63406e-05
-5.73347e-06
0.00015131
-1.31702e-05
0.000201178
-2.33723e-05
0.000224952
-3.58991e-05
0.000229595
-5.02407e-05
0.00022043
-6.58758e-05
0.000201372
-8.23051e-05
0.000175195
-9.90663e-05
0.000143784
-0.000115737
0.000108374
-0.00013193
6.97525e-05
-0.000147288
2.84086e-05
-0.000161474
-1.53429e-05
-0.000174163
-6.12791e-05
-0.000185045
-0.00010921
-0.000193816
-0.000158938
-0.000200191
-0.000210224
-0.000203912
-0.00026277
-0.000204764
-0.00031619
-0.000202606
-0.000369997
-0.000197402
-0.000423585
-0.000189269
-0.000476229
-0.000178529
-0.00052708
-0.000165779
-0.000575153
-0.0006194
-0.000151965
-6.21096e-07
6.69617e-05
-3.35564e-06
0.000154045
-8.51642e-06
0.000206339
-1.60278e-05
0.000232463
-2.55775e-05
0.000239145
-3.67324e-05
0.000231585
-4.90156e-05
0.000213656
-6.19535e-05
0.000188133
-7.51006e-05
0.000156931
-8.80489e-05
0.000121323
-0.000100428
8.21318e-05
-0.0001119
3.98805e-05
-0.000122151
-5.09179e-06
-0.000130885
-5.2545e-05
-0.000137818
-0.000102277
-0.000142676
-0.00015408
-0.000145194
-0.000207706
-0.000145126
-0.000262838
-0.000142254
-0.000319062
-0.000136414
-0.000375837
-0.000127527
-0.000432472
-0.00011565
-0.000488107
-0.000101036
-0.000541693
-8.42363e-05
-0.000591953
-0.000637435
-6.62021e-05
1.21477e-07
6.68402e-05
-8.67092e-07
0.000155033
-3.58594e-06
0.000209058
-8.16346e-06
0.000237041
-1.44214e-05
0.000245403
-2.2011e-05
0.000239174
-3.05068e-05
0.000222152
-3.94667e-05
0.000197093
-4.84663e-05
0.00016593
-5.71153e-05
0.000129972
-6.50614e-05
9.00779e-05
-7.19881e-05
4.68072e-05
-7.76077e-05
5.27774e-07
-8.16543e-05
-4.84984e-05
-8.3877e-05
-0.000100054
-8.40349e-05
-0.000153922
-8.18943e-05
-0.000209847
-7.72294e-05
-0.000267503
-6.98295e-05
-0.000326462
-5.95138e-05
-0.000386153
-4.61614e-05
-0.000445825
-2.97596e-05
-0.000504508
-1.0478e-05
-0.000560975
1.12117e-05
-0.000613643
-0.000660594
3.43709e-05
8.55322e-07
6.59849e-05
1.63567e-06
0.000154253
1.43889e-06
0.000209254
-5.79296e-08
0.000238538
-2.81048e-06
0.000248155
-6.55881e-06
0.000242922
-1.09348e-05
0.000226527
-1.55331e-05
0.000201691
-1.99544e-05
0.000170352
-2.38283e-05
0.000133846
-2.68217e-05
9.30713e-05
-2.86393e-05
4.86249e-05
-2.90191e-05
9.07498e-07
-2.7725e-05
-4.97925e-05
-2.45401e-05
-0.000103239
-1.92594e-05
-0.000159203
-1.16841e-05
-0.000217422
-1.61767e-06
-0.000277569
1.11342e-05
-0.000339214
2.67565e-05
-0.000401775
4.5403e-05
-0.000464471
6.71524e-05
-0.000526258
9.19287e-05
-0.000585751
0.000119358
-0.000641072
-0.000689769
0.000148534
1.54995e-06
6.44349e-05
4.05419e-06
0.000151749
6.36875e-06
0.00020694
7.99517e-06
0.000236911
8.84997e-06
0.000247301
9.10322e-06
0.000242669
9.06182e-06
0.000226569
9.08974e-06
0.000201663
9.55773e-06
0.000169884
1.08148e-05
0.000132588
1.31749e-05
9.07112e-05
1.69134e-05
4.48863e-05
2.22699e-05
-4.449e-06
2.94537e-05
-5.69763e-05
3.86508e-05
-0.000112436
5.0032e-05
-0.000170584
6.37601e-05
-0.00023115
7.99976e-05
-0.000293807
9.89122e-05
-0.000358128
0.000120678
-0.000423541
0.000145465
-0.000489258
0.000173402
-0.000554195
0.000204501
-0.00061685
0.000238493
-0.000675064
-0.000725791
0.000274514
2.17701e-06
6.22579e-05
6.29463e-06
0.000147631
1.10197e-05
0.000202215
1.5706e-05
0.000232225
2.01546e-05
0.000242852
2.44485e-05
0.000238375
2.88319e-05
0.000222185
3.36245e-05
0.000196871
3.91658e-05
0.000164342
4.57823e-05
0.000125972
5.37697e-05
8.27239e-05
6.33864e-05
3.52696e-05
7.4854e-05
-1.59166e-05
8.83608e-05
-7.04831e-05
0.000104068
-0.000128144
0.000122117
-0.000188633
0.000142637
-0.00025167
0.000165754
-0.000316924
0.0001916
-0.000383975
0.000220324
-0.000452265
0.000252086
-0.00052102
0.00028704
-0.000589148
0.00032526
-0.00065507
0.000366576
-0.00071638
-0.000769388
0.000410173
2.71219e-06
5.95457e-05
8.27415e-06
0.000142069
1.52259e-05
0.000195263
2.28089e-05
0.000224642
3.07265e-05
0.000234934
3.89826e-05
0.000230119
4.77598e-05
0.000213408
5.73327e-05
0.000187298
6.80085e-05
0.000153666
8.00911e-05
0.000113889
9.38598e-05
6.89552e-05
0.00010956
1.95694e-05
0.000127401
-3.37573e-05
0.000147556
-9.06386e-05
0.00017017
-0.000150758
0.000195362
-0.000213824
0.00022323
-0.000279538
0.000253865
-0.000347559
0.000287356
-0.000417466
0.000323807
-0.000488716
0.000363343
-0.000560556
0.000406104
-0.000631909
0.000452191
-0.000701157
0.000501509
-0.000765698
-0.000821166
0.000553287
3.13691e-06
5.64088e-05
9.9269e-06
0.000135279
1.88519e-05
0.000186338
2.90821e-05
0.000214412
4.02468e-05
0.00022377
5.22822e-05
0.000218084
6.5315e-05
0.000200375
7.95764e-05
0.000173036
9.53426e-05
0.0001379
0.000112896
9.63356e-05
0.000132504
4.93479e-05
0.000154401
-2.32826e-06
0.000178792
-5.8148e-05
0.000205843
-0.00011769
0.000235688
-0.000180603
0.000268428
-0.000246565
0.000304138
-0.000315248
0.00034287
-0.00038629
0.000384663
-0.000459259
0.000429557
-0.00053361
0.000477611
-0.00060861
0.000528909
-0.000683207
0.000583531
-0.000755779
0.000641413
-0.00082358
-0.000881576
0.000701822
3.43963e-06
5.29692e-05
1.12089e-05
0.00012751
2.18031e-05
0.000175744
3.43659e-05
0.000201849
4.84804e-05
0.000209655
6.40317e-05
0.000202533
8.10997e-05
0.000183307
9.98779e-05
0.000154258
0.000120615
0.000117163
0.000143578
7.33733e-05
0.000169022
2.39039e-05
0.000197181
-3.04876e-05
0.000228258
-8.92246e-05
0.000262417
-0.00015185
0.000299788
-0.000217973
0.000340457
-0.000287233
0.000384472
-0.000359263
0.000431843
-0.000433661
0.000482546
-0.000509963
0.000536541
-0.000587604
0.000593785
-0.000665854
0.00065426
-0.000743682
0.00071797
-0.000819489
0.000784831
-0.000890441
-0.000950881
0.000854136
3.61666e-06
4.93525e-05
1.21017e-05
0.000119025
2.40339e-05
0.000163812
3.85771e-05
0.000187306
5.52992e-05
0.000192933
7.40546e-05
0.000183777
9.48902e-05
0.000162472
0.000117971
0.000131177
0.000143527
9.1607e-05
0.000171812
4.50884e-05
0.00020308
-7.36387e-06
0.000237565
-6.49735e-05
0.000275475
-0.000127134
0.000316974
-0.000193349
0.000362185
-0.000263184
0.000411177
-0.000336226
0.000463964
-0.00041205
0.000520501
-0.000490197
0.000580684
-0.000570146
0.000644363
-0.000651284
0.000711365
-0.000732856
0.000781524
-0.000813841
0.000854708
-0.000892673
0.000930762
-0.000966494
-0.00102911
0.00100899
3.67263e-06
4.56799e-05
1.26141e-05
0.000110083
2.5553e-05
0.000150873
4.17187e-05
0.00017114
6.0697e-05
0.000173955
8.23357e-05
0.000162138
0.000106666
0.000138141
0.000133839
0.000104005
0.000164074
6.13723e-05
0.000197622
1.15399e-05
0.000234741
-4.44827e-05
0.000275671
-0.000105903
0.00032062
-0.000172083
0.000369753
-0.000242482
0.000423177
-0.000316608
0.00048093
-0.000393979
0.000542973
-0.000474094
0.000609183
-0.000556407
0.00067935
-0.000640312
0.000753186
-0.00072512
0.000830349
-0.00081002
0.000910489
-0.000893981
0.000993288
-0.000975473
0.00107847
-0.00105167
-0.00111596
0.00116533
3.62028e-06
4.20596e-05
1.27828e-05
0.000100921
2.64243e-05
0.000137231
4.38831e-05
0.000153681
6.47961e-05
0.000153042
8.90311e-05
0.000137903
0.000116625
0.000110548
0.000147729
7.29005e-05
0.000182566
2.65349e-05
0.000221395
-2.72889e-05
0.000264479
-8.75667e-05
0.000312064
-0.000153488
0.000364356
-0.000224376
0.000421504
-0.00029963
0.000483582
-0.000378685
0.000550571
-0.000460968
0.000622349
-0.000545871
0.00069868
-0.000632738
0.00077921
-0.000720843
0.000863482
-0.000809391
0.000950955
-0.000897492
0.00104106
-0.000984084
0.00113326
-0.00106768
0.00122712
-0.00114554
-0.00121077
0.00132193
3.47994e-06
3.85797e-05
1.26703e-05
9.17304e-05
2.67646e-05
0.000123137
4.52486e-05
0.000135197
6.78432e-05
0.000130447
9.4463e-05
0.000111284
0.000125172
7.98384e-05
0.000160142
3.79305e-05
0.000199612
-1.29346e-05
0.000243852
-7.15287e-05
0.000293133
-0.000136848
0.0003477
-0.000208055
0.00040774
-0.000284416
0.000473363
-0.000365254
0.000544577
-0.000449899
0.000621268
-0.000537658
0.000703185
-0.000627789
0.000789937
-0.000719489
0.000880987
-0.000811894
0.000975672
-0.000904076
0.00107323
-0.000995046
0.00117285
-0.0010837
0.00127378
-0.00116861
0.00137541
-0.00124717
-0.00131237
0.00147701
3.27835e-06
3.53013e-05
1.23613e-05
8.26475e-05
2.67361e-05
0.000108762
4.60687e-05
0.000115865
7.01935e-05
0.000106323
9.90985e-05
8.23785e-05
0.000132898
4.60392e-05
0.000171798
-9.69719e-07
0.000216063
-5.71999e-05
0.000265979
-0.000121444
0.000321817
-0.000192686
0.000383799
-0.000270037
0.000452068
-0.000352685
0.000526656
-0.000439842
0.000607458
-0.000530701
0.000694213
-0.000624413
0.000786493
-0.000720069
0.000883698
-0.000816695
0.00098507
-0.000913265
0.00108971
-0.00100872
0.00119662
-0.00110196
0.00130478
-0.00119186
0.00141323
-0.00127705
0.00152118
-0.00135512
-0.00141906
0.00162788
3.04694e-06
3.22544e-05
1.1957e-05
7.37374e-05
2.65352e-05
9.41837e-05
4.66528e-05
9.57472e-05
7.22834e-05
8.06919e-05
0.000103511
5.11506e-05
0.000140519
9.03174e-06
0.00018356
-4.40112e-05
0.000232928
-0.000106568
0.000288915
-0.000177431
0.000351771
-0.000255542
0.000421669
-0.000339935
0.00049866
-0.000429677
0.000582647
-0.000523829
0.000673355
-0.000621409
0.000770317
-0.000721375
0.00087287
-0.000822622
0.000980165
-0.000923989
0.00109118
-0.00102428
0.00120478
-0.00112231
0.00131973
-0.00121691
0.00143482
-0.00130695
0.00154894
-0.00139118
0.00166122
-0.0014674
-0.00152873
0.00177088
2.81964e-06
2.94347e-05
1.15678e-05
6.49892e-05
2.63773e-05
7.93742e-05
4.73419e-05
7.47827e-05
7.45933e-05
5.34405e-05
0.00010833
1.74141e-05
0.000148814
-3.14526e-05
0.000196352
-9.15489e-05
0.000251256
-0.000161472
0.000313804
-0.000239979
0.000384194
-0.000325933
0.000462498
-0.000418238
0.000548622
-0.0005158
0.000642275
-0.000617482
0.00074295
-0.000722083
0.000849915
-0.000828341
0.000962229
-0.000934936
0.00107876
-0.00104052
0.00119822
-0.00114375
0.00131924
-0.00124333
0.00144036
-0.00133803
0.00156018
-0.00142677
0.00167749
-0.00150848
0.00179141
-0.00158132
-0.00163883
0.00190151
2.63029e-06
2.68044e-05
1.13042e-05
5.63153e-05
2.64792e-05
6.41992e-05
4.84789e-05
5.27831e-05
7.76044e-05
2.43149e-05
0.000114177
-1.91585e-05
0.000158542
-7.58177e-05
0.000211048
-0.000144054
0.000272006
-0.00022243
0.000341645
-0.000309618
0.000420057
-0.000404345
0.000507156
-0.000505337
0.000602632
-0.000611276
0.000705934
-0.000720784
0.00081626
-0.000832409
0.00093257
-0.000944651
0.00105362
-0.00105598
0.00117799
-0.0011649
0.00130419
-0.00126994
0.00143065
-0.00136978
0.00155583
-0.00146322
0.00167825
-0.00154919
0.00179638
-0.00162662
0.00190844
-0.00169337
-0.00174368
0.00201329
2.50955e-06
2.42949e-05
1.12678e-05
4.75571e-05
2.70405e-05
4.84265e-05
5.03787e-05
2.9445e-05
8.17541e-05
-7.0605e-06
0.000121609
-5.90134e-05
0.000170361
-0.00012457
0.000228377
-0.000202071
0.000295932
-0.000289985
0.000373151
-0.000386837
0.000459959
-0.000491153
0.000556036
-0.000601414
0.000660788
-0.000716028
0.000773336
-0.000833332
0.000892535
-0.000951608
0.00101701
-0.00106912
0.00114519
-0.00118417
0.00127545
-0.00129515
0.00140609
-0.00140059
0.00153552
-0.00149922
0.0016623
-0.00159
0.00178524
-0.00167212
0.00190357
-0.00174495
0.00201797
-0.00180778
-0.00185771
0.002132
2.48383e-06
2.1811e-05
1.15449e-05
3.8496e-05
2.82292e-05
3.17422e-05
5.3302e-05
4.37214e-06
8.73958e-05
-4.11544e-05
0.000131059
-0.000102677
0.000184757
-0.000178267
0.000248837
-0.000266151
0.000323482
-0.000364629
0.000408647
-0.000472003
0.000504018
-0.000586523
0.000608965
-0.000706361
0.000722541
-0.000829604
0.00084349
-0.000954281
0.000970291
-0.00107841
0.00110122
-0.00120005
0.00123445
-0.0013174
0.00136812
-0.00142882
0.00150044
-0.00153291
0.0016298
-0.00162858
0.00175482
-0.00171502
0.00187446
-0.00179176
0.00198811
-0.0018586
0.00209583
-0.0019155
-0.00196025
0.00219837
2.57129e-06
1.92398e-05
1.21973e-05
2.887e-05
3.0166e-05
1.37735e-05
5.74337e-05
-2.28956e-05
9.47713e-05
-7.8492e-05
0.000142805
-0.00015071
0.000202005
-0.000237467
0.000272647
-0.000336794
0.000354753
-0.000446735
0.000448036
-0.000565286
0.000551859
-0.000690346
0.000665218
-0.00081972
0.000786758
-0.000951144
0.000914816
-0.00108234
0.0010475
-0.00121109
0.00118278
-0.00133533
0.0013186
-0.00145322
0.00145298
-0.0015632
0.00158412
-0.00166405
0.00171048
-0.00175493
0.00183082
-0.00183537
0.00194427
-0.00190521
0.0020503
-0.00196462
0.00214868
-0.00201388
-0.00205149
0.00223993
2.78246e-06
1.64573e-05
1.32613e-05
1.83912e-05
3.29207e-05
-5.88589e-06
6.28741e-05
-5.2849e-05
0.000103996
-0.000119614
0.000156947
-0.000203661
0.000222148
-0.000302669
0.000299734
-0.000414379
0.000389489
-0.00053649
0.000490803
-0.0006666
0.000602647
-0.00080219
0.000723586
-0.00094066
0.000851829
-0.00107939
0.00098531
-0.00121582
0.0011218
-0.00134759
0.00125904
-0.00147257
0.00139485
-0.00158903
0.00152724
-0.00169558
0.00165451
-0.00179132
0.0017753
-0.00187573
0.00188864
-0.0019487
0.00199392
-0.00201049
0.00209087
-0.00206158
0.00217958
-0.00210259
-0.00213281
0.0022609
3.11999e-06
1.33373e-05
1.47476e-05
6.76355e-06
3.65114e-05
-2.76497e-05
6.96386e-05
-8.59762e-05
0.000115061
-0.000165036
0.000173416
-0.000262016
0.000245008
-0.000374262
0.000329752
-0.000499123
0.000427114
-0.000633852
0.000536084
-0.00077557
0.000655182
-0.000921288
0.000782509
-0.00106799
0.000915841
-0.00121272
0.00105275
-0.00135273
0.00119076
-0.0014856
0.00132748
-0.00160929
0.00146071
-0.00172226
0.0015886
-0.00182347
0.00170966
-0.00191239
0.00182285
-0.00198892
0.00192752
-0.00205337
0.0020234
-0.00210637
0.00211058
-0.00214876
0.00218944
-0.00218144
-0.00220435
0.00226098
3.57975e-06
9.75757e-06
1.66441e-05
-6.30076e-06
4.09101e-05
-5.19158e-05
7.76673e-05
-0.000122733
0.000127846
-0.000215215
0.000191994
-0.000326164
0.00027022
-0.000452488
0.000362133
-0.000591037
0.000466802
-0.000738521
0.000582752
-0.00089152
0.000708014
-0.00104655
0.000840226
-0.0012002
0.000976769
-0.00134926
0.00111494
-0.0014909
0.0012521
-0.00162276
0.00138587
-0.00174305
0.00151418
-0.00185057
0.00163543
-0.00194472
0.00174846
-0.00202542
0.0018526
-0.00209305
0.00194758
-0.00214835
0.00203352
-0.00219231
0.00211084
-0.00222609
0.00218021
-0.00225081
-0.00226691
0.00224277
4.15267e-06
5.60489e-06
1.89212e-05
-2.10693e-05
4.6053e-05
-7.90476e-05
8.68404e-05
-0.000163521
0.000142145
-0.000270519
0.000212346
-0.000396365
0.000297271
-0.000537413
0.000396141
-0.000689907
0.000507553
-0.000849933
0.000629522
-0.00101349
0.000759579
-0.00117661
0.000894932
-0.00133555
0.00103265
-0.00148698
0.00116984
-0.0016281
0.00130388
-0.0017568
0.0014325
-0.00187167
0.00155392
-0.00197199
0.00166687
-0.00205767
0.00177059
-0.00212915
0.00186483
-0.00218729
0.00194972
-0.00223324
0.00202572
-0.00226831
0.00209354
-0.0022939
0.00215406
-0.00231133
-0.00232133
0.00220848
4.82679e-06
7.78104e-07
2.1538e-05
-3.77805e-05
5.18511e-05
-0.000109361
9.69955e-05
-0.000208665
0.000157688
-0.000331212
0.000234055
-0.000472731
0.000325554
-0.000628912
0.000430937
-0.00079529
0.000548273
-0.00096727
0.000675045
-0.00114026
0.000808311
-0.00130987
0.000944914
-0.00147215
0.00108171
-0.00162378
0.0012158
-0.00176218
0.00134465
-0.00188566
0.00146628
-0.0019933
0.00157927
-0.00208498
0.00168278
-0.00216117
0.00177649
-0.00222286
0.00186055
-0.00227135
0.00193545
-0.00230814
0.00200195
-0.00233481
0.00206096
-0.00235292
0.00211351
-0.00236388
-0.00236863
0.0021608
5.58905e-06
-4.81095e-06
2.44477e-05
-5.66391e-05
5.8201e-05
-0.000143114
0.000107944
-0.000258408
0.000174167
-0.000397435
0.000256651
-0.000555216
0.0003544
-0.000726661
0.000465628
-0.000906518
0.000587841
-0.00108948
0.000717998
-0.00127042
0.000852742
-0.00144462
0.000988658
-0.00160807
0.00112253
-0.00175765
0.00125156
-0.00189121
0.00137348
-0.00200758
0.0014867
-0.00210652
0.00159023
-0.00218851
0.0016837
-0.00225463
0.0017672
-0.00230637
0.00184127
-0.00234541
0.00190668
-0.00237355
0.0019644
-0.00239254
0.0020155
-0.00240401
0.00206105
-0.00240942
-0.00240978
0.0021022
6.42665e-06
-1.12376e-05
2.76015e-05
-7.7814e-05
6.49922e-05
-0.000180505
0.000119483
-0.000312899
0.000191249
-0.000469201
0.000279639
-0.000643606
0.000383119
-0.000830141
0.000499318
-0.00102272
0.000625168
-0.00121533
0.00075715
-0.0014024
0.000891584
-0.00157905
0.00102493
-0.00174141
0.00115404
-0.00188676
0.00127636
-0.00201353
0.00139002
-0.00212125
0.00149386
-0.00221036
0.00158739
-0.00228204
0.00167067
-0.00233791
0.0017442
-0.0023799
0.0018088
-0.00241001
0.00186548
-0.00243023
0.00191535
-0.0024424
0.0019595
-0.00244817
0.00199902
-0.00244894
-0.00244574
0.00203498
7.32769e-06
-1.85653e-05
3.0951e-05
-0.000101437
7.21122e-05
-0.000221666
0.000131402
-0.000372189
0.000208593
-0.000546391
0.000302511
-0.000737524
0.000411022
-0.000938652
0.000531137
-0.00114283
0.000659243
-0.00134344
0.00079142
-0.00153458
0.000923787
-0.00171142
0.00105282
-0.00187045
0.00117559
-0.00200953
0.00128991
-0.00212785
0.00139438
-0.00222572
0.00148834
-0.00230432
0.00157176
-0.00236545
0.0016451
-0.00241126
0.0017092
-0.002444
0.00176511
-0.00246592
0.00181396
-0.00247909
0.00185692
-0.00248536
0.00189509
-0.00248634
0.00192949
-0.00248334
-0.00247731
0.00196106
8.28118e-06
-2.68465e-05
3.4449e-05
-0.000127605
7.94475e-05
-0.000266664
0.00014349
-0.000436231
0.000225853
-0.000628754
0.000324764
-0.000836436
0.00043744
-0.00105133
0.000560277
-0.00126567
0.000689174
-0.00147234
0.000819919
-0.00166532
0.000948572
-0.00184007
0.00107177
-0.00199365
0.00118695
-0.0021247
0.00129236
-0.00223327
0.00138713
-0.00232049
0.00147109
-0.00238828
0.00154463
-0.002439
0.00160858
-0.00247521
0.00166401
-0.00249943
0.00171211
-0.00251401
0.00175408
-0.00252106
0.00179107
-0.00252235
0.00182413
-0.0025194
0.00185418
-0.00251339
-0.00250519
0.00188206
9.2767e-06
-3.61232e-05
3.80485e-05
-0.000156377
8.6884e-05
-0.0003155
0.000155531
-0.000504879
0.000242686
-0.000715909
0.000345911
-0.00093966
0.000461749
-0.00116717
0.000586017
-0.00138994
0.000714216
-0.00160053
0.000841976
-0.00179308
0.000965449
-0.00196354
0.00108158
-0.00210978
0.00118823
-0.00223136
0.00128421
-0.00232924
0.00136913
-0.00240541
0.0014433
-0.00246244
0.00150748
-0.00250318
0.00156276
-0.00253049
0.00161037
-0.00254704
0.00165157
-0.00255521
0.00168756
-0.00255705
0.00171944
-0.00255423
0.00174815
-0.00254811
0.00177452
-0.00253976
-0.00252991
0.00179924
1.03038e-05
-4.64269e-05
4.17015e-05
-0.000187775
9.43054e-05
-0.000368104
0.000167311
-0.000577884
0.000258753
-0.000807351
0.000365484
-0.00104639
0.00048338
-0.00128506
0.000607744
-0.0015143
0.000733796
-0.00172659
0.000857157
-0.00191644
0.000974213
-0.0020806
0.00108233
-0.00221789
0.00117989
-0.00232891
0.00126623
-0.00241559
0.00134147
-0.00248065
0.00140631
-0.00252728
0.00146181
-0.00255868
0.00150924
-0.00257792
0.0015499
-0.00258771
0.00158508
-0.00259039
0.00161591
-0.00258788
0.0016434
-0.00258172
0.0016684
-0.00257311
0.00169161
-0.00256297
-0.00255189
0.00171359
1.13513e-05
-5.77783e-05
4.53585e-05
-0.000221782
0.000101593
-0.000424339
0.000178614
-0.000654904
0.000273729
-0.000902467
0.000383056
-0.00115572
0.000501842
-0.00140385
0.000624971
-0.00163743
0.000747523
-0.00184914
0.000865257
-0.00203418
0.00097492
-0.00219026
0.00107438
-0.00231735
0.00116258
-0.00241711
0.00123937
-0.00249238
0.00130533
-0.00254661
0.00136146
-0.00258341
0.00140905
-0.00260627
0.00144946
-0.00261833
0.00148403
-0.00262228
0.00151398
-0.00262033
0.00154036
-0.00261426
0.00156407
-0.00260544
0.00158586
-0.0025949
0.00160629
-0.0025834
-0.00257143
0.00162583
1.24073e-05
-7.01855e-05
4.89675e-05
-0.000258342
0.000108627
-0.000483999
0.000189228
-0.000735505
0.000287306
-0.00100054
0.000398245
-0.00126666
0.000516731
-0.00152233
0.000637351
-0.00175805
0.000755192
-0.00196698
0.000866287
-0.00214527
0.00096785
-0.00229183
0.0010583
-0.0024078
0.00113714
-0.00249595
0.0012047
-0.00255995
0.00126192
-0.00260382
0.00131006
-0.00263155
0.00135053
-0.00264674
0.00138474
-0.00265254
0.00141397
-0.00265151
0.00143937
-0.00264573
0.00146189
-0.00263678
0.00148232
-0.00262586
0.00150126
-0.00261384
0.00151921
-0.00260135
-0.00258874
0.00153652
1.34585e-05
-8.36441e-05
5.24742e-05
-0.000297358
0.000115286
-0.00054681
0.000198952
-0.000819171
0.000299204
-0.0011008
0.000410729
-0.00137818
0.000527744
-0.00163935
0.000644679
-0.00187498
0.000756771
-0.00207907
0.00086045
-0.00224895
0.000953465
-0.00238484
0.00103481
-0.00248915
0.00110451
-0.00256564
0.00116331
-0.00261875
0.00121243
-0.00265295
0.00125332
-0.00267244
0.00128744
-0.00268086
0.00131617
-0.00268127
0.00134074
-0.00267607
0.00136216
-0.00266715
0.00138129
-0.00265591
0.00139879
-0.00264336
0.00141518
-0.00263023
0.00143084
-0.00261701
-0.00260396
0.00144607
1.44907e-05
-9.81348e-05
5.58231e-05
-0.00033869
0.000121451
-0.000612438
0.000207593
-0.000905314
0.000309177
-0.00120238
0.000420251
-0.00148926
0.000534683
-0.00175378
0.000646888
-0.00198719
0.000752388
-0.00218457
0.000848101
-0.00234466
0.000932353
-0.00246909
0.0010047
-0.00256149
0.00106563
-0.00262657
0.00111624
-0.00266936
0.00115796
-0.00269467
0.00119233
-0.0027068
0.0012208
-0.00270934
0.0012447
-0.00270517
0.00126515
-0.00269652
0.00128306
-0.00268507
0.00129916
-0.00267201
0.00131402
-0.00265821
0.00132804
-0.00264425
0.00134155
-0.00263051
-0.00261717
0.00135476
1.54888e-05
-0.000113624
5.89582e-05
-0.00038216
0.000127007
-0.000680486
0.000214982
-0.000993288
0.000317024
-0.00130442
0.000426633
-0.00159887
0.000537457
-0.0018646
0.00064404
-0.00209377
0.000742303
-0.00228284
0.000829716
-0.00243208
0.000905192
-0.00254457
0.000968805
-0.00262511
0.00102145
-0.00267921
0.00106449
-0.0027124
0.00109949
-0.00272967
0.001128
-0.00273532
0.00115146
-0.0027328
0.00117108
-0.00272479
0.00118787
-0.00271331
0.00120263
-0.00269983
0.00121597
-0.00268536
0.00122836
-0.00267061
0.00124015
-0.00265604
0.00125158
-0.00264194
-0.00262841
0.00126281
1.64373e-05
-0.000130061
6.18249e-05
-0.000427547
0.00013185
-0.000750512
0.000220971
-0.00108241
0.000322592
-0.00140604
0.000429769
-0.00170604
0.000536074
-0.00197091
0.000636308
-0.002194
0.000726881
-0.00237341
0.00080585
-0.00251105
0.000872696
-0.00261141
0.000927959
-0.00268037
0.00097286
-0.00272412
0.00100895
-0.00274849
0.00103787
-0.00275859
0.00106115
-0.00275859
0.00108012
-0.00275177
0.00109591
-0.00274058
0.0011094
-0.0027268
0.00112128
-0.0027117
0.00113206
-0.00269614
0.00114213
-0.00268067
0.00115176
-0.00266567
0.00116114
-0.00265132
-0.00263767
0.0011704
1.73207e-05
-0.000147382
6.43715e-05
-0.000474598
0.000135886
-0.000822026
0.000225442
-0.00117197
0.000325778
-0.00150638
0.00042963
-0.00180989
0.000530631
-0.00207191
0.000623954
-0.00228733
0.000706561
-0.00245602
0.000777103
-0.00258159
0.000835587
-0.0026699
0.000882956
-0.00272774
0.000920681
-0.00276184
0.000950436
-0.00277825
0.00097386
-0.00278202
0.000992426
-0.00277716
0.00100737
-0.00276672
0.00101969
-0.0027529
0.00103016
-0.00273727
0.00103936
-0.0027209
0.00104771
-0.00270449
0.00105553
-0.00268849
0.00106303
-0.00267318
0.00107038
-0.00265867
-0.00264496
0.00107766
1.8124e-05
-0.000165506
6.65506e-05
-0.000523024
0.000139037
-0.000894513
0.000228308
-0.00126124
0.000326532
-0.0016046
0.000426256
-0.00190962
0.000521304
-0.00216696
0.000607311
-0.00237333
0.000681831
-0.00253054
0.000744089
-0.00264385
0.000794567
-0.00272038
0.000834535
-0.00276771
0.000865645
-0.00279295
0.000889623
-0.00280222
0.000908075
-0.00280047
0.000922383
-0.00279147
0.000933668
-0.002778
0.000942806
-0.00276204
0.000950457
-0.00274492
0.000957109
-0.00272755
0.000963116
-0.0027105
0.000968729
-0.00269411
0.000974127
-0.00267857
0.000979426
-0.00266397
-0.00265024
0.000984705
1.8833e-05
-0.000184339
6.83209e-05
-0.000572512
0.000141239
-0.000967431
0.000229515
-0.00134951
0.000324852
-0.00169994
0.000419746
-0.00200451
0.000508326
-0.00225554
0.000586761
-0.00245177
0.000653201
-0.00259698
0.000707416
-0.00269806
0.000750296
-0.00276326
0.000783367
-0.00280078
0.000808393
-0.00281798
0.000827104
-0.00282094
0.000841035
-0.0028144
0.000851458
-0.00280189
0.000859376
-0.00278592
0.000865547
-0.00276821
0.000870531
-0.00274991
0.000874735
-0.00273175
0.000878447
-0.00271421
0.000881873
-0.00269753
0.000885155
-0.00268185
0.000888385
-0.0026672
-0.00265348
0.000891623
1.94348e-05