/*--------------------------------*- C++ -*----------------------------------*\
  =========                 |
  \\      /  F ield         | OpenFOAM: The Open Source CFD Toolbox
   \\    /   O peration     | Website:  https://openfoam.org
    \\  /    A nd           | Version:  6.0
     \\/     M anipulation  |
\*---------------------------------------------------------------------------*/
FoamFile
{
    version     2.0;
    format      ascii;
    class       volVectorField;
    location    "65";
    object      U;
}
// * * * * * * * * * * * * * * * * * * * * * * * * * * * * * * * * * * * * * //

dimensions      [0 1 -1 0 0 0 0];

internalField   nonuniform List<vector> 
12500
(
(-0.00115575 0.0200445 -9.17114e-22)
(-0.00520293 0.0409834 1.34937e-20)
(-0.0121738 0.0482095 -1.96161e-20)
(-0.0205755 0.0458599 9.00103e-21)
(-0.0296662 0.0370887 5.09743e-22)
(-0.0390369 0.0242144 -1.05594e-21)
(-0.0483739 0.00887957 -1.63226e-20)
(-0.0574418 -0.00780002 8.93659e-21)
(-0.0660639 -0.0251016 5.96684e-21)
(-0.074103 -0.0425806 6.00376e-21)
(-0.0814493 -0.0599778 -1.01893e-20)
(-0.0880158 -0.0771511 5.90072e-21)
(-0.0937347 -0.0940267 -2.78179e-21)
(-0.0985564 -0.11057 4.72914e-21)
(-0.102448 -0.126769 -1.20069e-20)
(-0.105395 -0.142629 1.71632e-20)
(-0.107396 -0.158174 -3.19324e-21)
(-0.108468 -0.173447 -1.21945e-20)
(-0.108644 -0.188519 6.31406e-21)
(-0.107971 -0.203494 -5.99679e-21)
(-0.106513 -0.218513 5.29623e-21)
(-0.104342 -0.233751 6.84963e-21)
(-0.101565 -0.249426 7.32433e-22)
(-0.0983862 -0.265845 -1.97153e-20)
(-0.0948677 -0.283412 1.04074e-20)
(-0.00188292 0.0219793 1.82901e-20)
(-0.00679083 0.0457076 -4.68794e-20)
(-0.014271 0.0548846 1.3673e-20)
(-0.02296 0.0538681 9.20727e-21)
(-0.0322075 0.0459606 -7.30156e-21)
(-0.0416651 0.0335859 -4.17427e-20)
(-0.051056 0.0184616 1.23378e-20)
(-0.0601653 0.00175476 -2.3511e-20)
(-0.0688262 -0.0157766 2.79982e-20)
(-0.076904 -0.033663 -3.72752e-20)
(-0.0842878 -0.0516264 1.97727e-20)
(-0.0908861 -0.0695083 6.60738e-21)
(-0.0966254 -0.0872192 -1.61207e-20)
(-0.101449 -0.104708 -6.99319e-21)
(-0.105316 -0.121947 5.19722e-20)
(-0.108202 -0.13892 -4.60052e-20)
(-0.110101 -0.15563 1.11041e-20)
(-0.111022 -0.172097 1.8991e-20)
(-0.110991 -0.188367 -4.0062e-21)
(-0.110054 -0.204513 3.001e-20)
(-0.10827 -0.220644 5.59737e-21)
(-0.10571 -0.2369 -2.32304e-21)
(-0.102518 -0.253463 -3.80406e-20)
(-0.0989827 -0.270601 3.45968e-20)
(-0.0949288 -0.288646 -6.66595e-20)
(-0.00270981 0.0238921 5.95317e-20)
(-0.00856978 0.0504345 1.95185e-20)
(-0.0165363 0.0616281 -2.60413e-20)
(-0.025425 0.0620287 1.13489e-20)
(-0.0347004 0.0550717 1.01626e-20)
(-0.0440874 0.0432777 3.91967e-20)
(-0.0533545 0.0284351 -4.9998e-20)
(-0.0623128 0.0117615 -8.5134e-21)
(-0.0708094 -0.00594963 -3.36526e-20)
(-0.0787154 -0.0242035 -2.80202e-20)
(-0.0859204 -0.0427028 3.55566e-20)
(-0.0923306 -0.0612728 -1.20304e-19)
(-0.0978678 -0.0798094 -4.16577e-21)
(-0.102469 -0.0982464 -7.24437e-20)
(-0.106087 -0.116538 -8.60295e-21)
(-0.108689 -0.134651 9.95041e-21)
(-0.110261 -0.152566 -5.62919e-20)
(-0.110805 -0.170277 -3.52043e-20)
(-0.110345 -0.1878 -4.12427e-20)
(-0.108923 -0.205175 6.41682e-20)
(-0.106596 -0.222472 2.30833e-20)
(-0.103438 -0.23979 -1.05149e-19)
(-0.0996334 -0.257267 -5.02097e-20)
(-0.0955527 -0.27513 -5.63698e-20)
(-0.0908073 -0.293616 1.50495e-19)
(-0.00362775 0.025726 -1.25649e-21)
(-0.010518 0.0550386 -4.55905e-20)
(-0.0189325 0.0682798 -2.28489e-20)
(-0.0279164 0.0701653 1.43424e-20)
(-0.0370727 0.0642409 8.5303e-20)
(-0.0462124 0.0531108 -3.79566e-20)
(-0.0551576 0.0386282 8.18588e-20)
(-0.0637518 0.0220587 7.84256e-20)
(-0.07186 0.00423032 4.74659e-20)
(-0.0793621 -0.0143363 -4.82589e-22)
(-0.0861511 -0.0333247 9.59031e-20)
(-0.0921329 -0.0525445 1.6824e-20)
(-0.0972263 -0.0718778 7.34049e-20)
(-0.101364 -0.0912446 1.69595e-19)
(-0.104492 -0.110584 -1.96654e-19)
(-0.106573 -0.129845 2.9608e-19)
(-0.107585 -0.148985 6.44125e-20)
(-0.107525 -0.167972 -1.42936e-19)
(-0.106412 -0.186789 -1.97666e-20)
(-0.10429 -0.205438 5.07894e-20)
(-0.101216 -0.223943 -2.62114e-20)
(-0.0972682 -0.242352 -1.62358e-20)
(-0.0926729 -0.260756 -1.54196e-20)
(-0.0878806 -0.279331 -6.07537e-20)
(-0.0823265 -0.298204 2.10587e-19)
(-0.00462203 0.0274212 3.20629e-20)
(-0.012603 0.0593879 -1.47342e-19)
(-0.0214132 0.074668 1.79344e-19)
(-0.0303749 0.0780875 -7.08933e-20)
(-0.0392526 0.0732713 8.58229e-20)
(-0.0479543 0.0628903 7.07433e-20)
(-0.0563649 0.0488531 2.69196e-20)
(-0.0643661 0.0324691 2.44582e-21)
(-0.0718451 0.0146 1.50838e-19)
(-0.0786943 -0.00420845 1.05283e-19)
(-0.0848127 -0.0236205 -4.09429e-20)
(-0.0901083 -0.043431 -2.67781e-20)
(-0.0944995 -0.0635094 1.14735e-19)
(-0.0979163 -0.0837638 2.13558e-20)
(-0.100302 -0.10412 5.96025e-20)
(-0.101613 -0.12451 1.40735e-19)
(-0.101824 -0.14487 -1.19613e-19)
(-0.100928 -0.16514 9.56776e-20)
(-0.0989424 -0.185269 -2.10076e-19)
(-0.0959121 -0.205215 1.7611e-19)
(-0.0918971 -0.22495 1.34933e-21)
(-0.0869843 -0.244464 -1.41117e-19)
(-0.0814388 -0.263791 5.52772e-20)
(-0.0757874 -0.283049 1.26793e-19)
(-0.0693384 -0.302237 -1.85276e-19)
(-0.00567199 0.028918 1.68028e-19)
(-0.0147819 0.0633475 -1.78516e-19)
(-0.0239236 0.080616 -2.75825e-20)
(-0.0327383 0.0855967 3.67793e-20)
(-0.0411709 0.0819561 -7.77117e-20)
(-0.049237 0.0724096 -1.20565e-19)
(-0.056892 0.0589094 -1.01223e-19)
(-0.0640616 0.0428026 -2.43889e-20)
(-0.0706599 0.0249825 -1.73347e-19)
(-0.076595 0.00601952 1.41721e-19)
(-0.0817753 -0.0137317 -2.16727e-19)
(-0.0861137 -0.0340519 1.11063e-19)
(-0.0895309 -0.0547991 -3.48529e-20)
(-0.0919572 -0.0758712 8.47436e-20)
(-0.0933346 -0.0971824 -2.1386e-19)
(-0.0936186 -0.118651 1.06218e-19)
(-0.0927811 -0.140193 9.10284e-21)
(-0.090814 -0.161722 4.62609e-20)
(-0.0877354 -0.183149 2.7978e-19)
(-0.0835921 -0.204387 6.3504e-20)
(-0.0784502 -0.225351 -4.65681e-21)
(-0.0724068 -0.245964 1.78692e-20)
(-0.0657609 -0.266194 1.15715e-19)
(-0.0591105 -0.28609 3.38548e-20)
(-0.0516947 -0.305513 1.07033e-19)
(-0.00675165 0.0301602 -1.04491e-19)
(-0.0170028 0.066788 1.48671e-19)
(-0.0264026 0.0859502 9.69332e-21)
(-0.0349432 0.0924944 -1.82231e-19)
(-0.0427643 0.0900846 3.86528e-19)
(-0.0499973 0.0814552 -1.24208e-19)
(-0.0566745 0.0685867 1.83263e-19)
(-0.0627714 0.0528568 1.6737e-19)
(-0.0682331 0.035187 -1.3811e-19)
(-0.0729875 0.0161714 -2.02662e-19)
(-0.0769552 -0.00381677 5.58109e-20)
(-0.0800574 -0.0245443 -5.93391e-20)
(-0.08222 -0.0458591 -2.61701e-19)
(-0.083377 -0.0676501 3.21381e-19)
(-0.0834726 -0.0898227 -1.54492e-19)
(-0.0824639 -0.112283 -1.06097e-19)
(-0.0803238 -0.134931 2.80158e-21)
(-0.0770456 -0.157654 8.93371e-20)
(-0.0726497 -0.180329 3.56576e-20)
(-0.0671875 -0.202821 -1.39866e-19)
(-0.0607322 -0.224985 1.62829e-19)
(-0.0533919 -0.246671 -2.77415e-19)
(-0.0454925 -0.267769 1.70724e-19)
(-0.0376956 -0.28825 -1.27831e-19)
(-0.029236 -0.307827 3.61211e-20)
(-0.00783087 0.0310988 1.57107e-19)
(-0.0192067 0.0695914 -1.20742e-19)
(-0.028785 0.0905073 -7.63913e-20)
(-0.0369277 0.0985884 -1.35544e-19)
(-0.043978 0.0974485 -2.47086e-19)
(-0.0501878 0.0898115 -1.82385e-19)
(-0.0556719 0.0776689 1.15423e-19)
(-0.0604602 0.0624198 -1.74972e-19)
(-0.0645331 0.0450095 2.2207e-19)
(-0.0678416 0.0260547 -3.62938e-19)
(-0.0703224 0.00594667 1.62111e-19)
(-0.0719077 -0.0150674 3.43336e-19)
(-0.0725323 -0.0368254 -4.84512e-19)
(-0.0721369 -0.0592092 6.96626e-20)
(-0.0706718 -0.0821171 9.14645e-20)
(-0.0680989 -0.105447 8.73469e-20)
(-0.0643957 -0.129084 -9.26318e-20)
(-0.0595597 -0.152895 -2.14095e-20)
(-0.0536157 -0.176725 -7.08464e-20)
(-0.0466208 -0.200395 -5.69787e-20)
(-0.0386566 -0.223698 -3.18397e-19)
(-0.0298419 -0.246407 -2.17972e-20)
(-0.0205204 -0.268327 3.94611e-21)
(-0.0114082 -0.289336 -1.41511e-19)
(-0.00180478 -0.308996 1.44914e-19)
(-0.00887697 0.0316949 5.39006e-21)
(-0.0213306 0.0716582 4.93559e-20)
(-0.0310043 0.0941423 5.22273e-20)
(-0.0386343 0.103702 2.89167e-20)
(-0.0447683 0.103849 2.54445e-19)
(-0.0497801 0.097267 2.40826e-19)
(-0.0538703 0.0859386 -1.95134e-19)
(-0.0571273 0.0712732 -6.12038e-20)
(-0.0595707 0.0542349 -5.35735e-20)
(-0.0611783 0.0354607 2.76452e-19)
(-0.0619057 0.0153602 1.01309e-19)
(-0.0616998 -0.00580552 -1.44677e-19)
(-0.0605071 -0.0278644 -1.24818e-19)
(-0.0582786 -0.0506916 3.0025e-19)
(-0.0549737 -0.0741802 -7.43242e-20)
(-0.0505629 -0.0982218 -9.12171e-20)
(-0.0450315 -0.122693 -1.26627e-19)
(-0.0383839 -0.147444 -9.94356e-20)
(-0.0306511 -0.172294 -1.27417e-19)
(-0.0218973 -0.197024 -8.23923e-20)
(-0.0122127 -0.221372 3.42459e-19)
(-0.00172628 -0.245033 -1.69481e-19)
(0.0092099 -0.267717 1.13765e-19)
(0.0198369 -0.289197 -3.00191e-19)
(0.0307192 -0.308883 1.20744e-19)
(-0.00985666 0.0319226 -1.43991e-19)
(-0.0233105 0.0729132 -3.82951e-20)
(-0.0329962 0.0967364 -2.93275e-19)
(-0.0400123 0.107679 -1.41663e-19)
(-0.0451039 0.109105 -2.78118e-19)
(-0.0487648 0.103622 -2.92067e-20)
(-0.0512827 0.0931832 1.49716e-19)
(-0.0528073 0.0791973 -9.28493e-20)
(-0.0534005 0.0626406 1.98696e-19)
(-0.0530702 0.0441676 -4.85584e-19)
(-0.0517945 0.0242057 -1.53029e-20)
(-0.0495377 0.00303037 8.67671e-20)
(-0.0462609 -0.0191758 -1.10374e-19)
(-0.0419283 -0.0422811 1.01588e-19)
(-0.0365114 -0.0661744 -7.86044e-20)
(-0.0299922 -0.0907438 -1.69117e-19)
(-0.0223665 -0.11586 3.08057e-19)
(-0.0136483 -0.141365 1.91569e-19)
(-0.0038767 -0.16706 -4.03355e-20)
(0.00687677 -0.192694 1.26974e-19)
(0.0185122 -0.217956 -2.49959e-19)
(0.0308914 -0.242472 3.57637e-19)
(0.0436627 -0.265851 -4.87252e-19)
(0.0560376 -0.287747 9.92246e-20)
(0.0683723 -0.307415 -1.83036e-19)
(-0.0107382 0.0317711 8.10397e-21)
(-0.0250852 0.0733103 -1.32291e-19)
(-0.0347016 0.098203 1.91835e-19)
(-0.0410194 0.110397 3.94382e-19)
(-0.0449671 0.113059 -7.46756e-21)
(-0.047152 0.108693 4.48902e-20)
(-0.0479478 0.0992016 -1.71277e-19)
(-0.0475671 0.0859776 7.85758e-20)
(-0.0461169 0.0700024 5.56195e-19)
(-0.0436384 0.051945 -1.25926e-19)
(-0.0401347 0.0322493 -1.51718e-19)
(-0.0355903 0.0112059 5.72143e-19)
(-0.0299834 -0.0109911 1.9027e-19)
(-0.0232935 -0.0342028 9.08948e-20)
(-0.0155068 -0.0583138 9.42496e-20)
(-0.00661865 -0.0832102 2.5371e-19)
(0.00336227 -0.108762 -9.71171e-20)
(0.0144106 -0.134806 2.61654e-19)
(0.0264776 -0.161134 3.52615e-19)
(0.0394835 -0.187478 -2.98277e-19)
(0.0533181 -0.21349 4.43515e-19)
(0.0678335 -0.238734 1.58305e-19)
(0.0826856 -0.262722 -5.97236e-19)
(0.0970707 -0.284975 8.6175e-19)
(0.111067 -0.304594 -6.85698e-19)
(-0.0114936 0.0312451 -3.78394e-19)
(-0.0266002 0.0728354 2.03182e-19)
(-0.0360695 0.098493 -1.37056e-19)
(-0.0416239 0.111767 -1.29015e-19)
(-0.0443533 0.115588 -1.41697e-19)
(-0.0449685 0.112326 -1.53312e-19)
(-0.0439257 0.103813 4.09979e-20)
(-0.0415006 0.091412 4.02932e-19)
(-0.0378475 0.076102 -8.4423e-20)
(-0.0330428 0.0585614 -2.2601e-19)
(-0.0271177 0.0392489 -1.40035e-19)
(-0.0200788 0.0184704 -5.68707e-20)
(-0.0119235 -0.00356779 1.74726e-19)
(-0.00264835 -0.0267179 -1.09385e-19)
(0.00774494 -0.0508599 -3.60695e-19)
(0.0192458 -0.0758786 -4.01194e-19)
(0.0318315 -0.101644 1.60816e-19)
(0.0454641 -0.127996 -2.98738e-19)
(0.0600838 -0.154725 2.62666e-19)
(0.0756014 -0.181556 -7.37215e-19)
(0.091896 -0.208119 5.65517e-19)
(0.108808 -0.233933 -7.45238e-19)
(0.126004 -0.258421 -1.23838e-20)
(0.142681 -0.28096 -2.45294e-19)
(0.158577 -0.300498 7.15439e-19)
(-0.0121006 0.0303654 5.8281e-19)
(-0.0278109 0.071508 8.57577e-20)
(-0.03706 0.0975977 -5.67911e-20)
(-0.0418047 0.111742 -2.31668e-20)
(-0.0432688 0.116605 4.40651e-19)
(-0.0422532 0.114398 1.44855e-19)
(-0.0392907 0.106863 1.32606e-19)
(-0.0347187 0.0953206 -1.05657e-19)
(-0.0287394 0.0807367 4.11215e-19)
(-0.021467 0.0637944 -2.02182e-19)
(-0.012962 0.0449647 1.29681e-19)
(-0.00325555 0.024568 3.37943e-19)
(0.00763483 0.00282364 -1.91566e-19)
(0.0196946 -0.0201106 2.10966e-19)
(0.0329056 -0.0441087 2.00248e-19)
(0.0472418 -0.0690534 6.81648e-20)
(0.0626659 -0.0948169 -1.69708e-19)
(0.079126 -0.121243 4.71131e-19)
(0.0965505 -0.148129 -4.33276e-20)
(0.11484 -0.175203 -4.92165e-20)
(0.13386 -0.202091 5.648e-19)
(0.153436 -0.228286 -3.98878e-19)
(0.173246 -0.253134 6.71341e-19)
(0.192505 -0.275865 -5.50368e-19)
(0.210554 -0.295276 7.01469e-19)
(-0.0125443 0.0291672 -2.85041e-19)
(-0.0286853 0.0693798 6.36654e-20)
(-0.0376454 0.0955502 -6.66257e-20)
(-0.0415513 0.110321 -3.08759e-19)
(-0.0417284 0.116069 1.79399e-20)
(-0.0390515 0.114828 1.78167e-19)
(-0.034122 0.108235 -7.2293e-19)
(-0.0273359 0.0975549 5.42941e-19)
(-0.0189433 0.0837302 -5.29809e-19)
(-0.00909675 0.0674428 -3.35996e-19)
(0.00211195 0.0491726 3.04355e-19)
(0.0146265 0.0292528 -6.64552e-19)
(0.0284081 0.00791612 5.62825e-19)
(0.0434241 -0.0146688 -1.78225e-19)
(0.0596396 -0.0383684 -5.16225e-19)
(0.0770131 -0.0630621 1.27805e-19)
(0.0954925 -0.0886232 -1.19448e-19)
(0.115011 -0.114902 4.56976e-20)
(0.135484 -0.141704 -1.62715e-19)
(0.156799 -0.16877 -5.44061e-19)
(0.178807 -0.195737 1.2179e-19)
(0.201313 -0.222091 1.49399e-21)
(0.224002 -0.247124 -5.55004e-19)
(0.246121 -0.269918 3.90543e-19)
(0.266583 -0.289123 -3.27968e-19)
(-0.0128183 0.0276979 1.16274e-19)
(-0.0292061 0.0665318 2.14108e-19)
(-0.0378117 0.0924232 2.97361e-19)
(-0.0408624 0.107547 1.53886e-19)
(-0.0397505 0.113985 -1.50412e-19)
(-0.0354068 0.113583 3.59817e-19)
(-0.0284914 0.107858 2.67919e-19)
(-0.0194543 0.0980074 -9.57281e-20)
(-0.00859162 0.0849438 3.51428e-19)
(0.00390544 0.0693396 -3.62034e-19)
(0.0179136 0.0516793 -1.06643e-19)
(0.0333507 0.0323066 1.08499e-19)
(0.0501565 0.0114666 2.19097e-19)
(0.06828 -0.0106605 2.10585e-21)
(0.0876698 -0.0339323 1.41144e-19)
(0.108269 -0.0582228 2.60576e-19)
(0.130009 -0.0834045 -4.44813e-19)
(0.152809 -0.109332 5.54721e-19)
(0.176567 -0.135822 1.88926e-19)
(0.201155 -0.162632 6.64657e-20)
(0.226404 -0.189419 -6.74549e-19)
(0.252092 -0.215684 9.65138e-20)
(0.277904 -0.240687 1.46987e-19)
(0.303134 -0.263372 -3.33274e-20)
(0.326255 -0.282244 1.60367e-19)
(-0.0129248 0.0260142 9.88368e-21)
(-0.0293712 0.0630693 -5.51924e-19)
(-0.0375575 0.0883251 -1.24647e-20)
(-0.0397429 0.103508 -1.38674e-19)
(-0.0373514 0.110408 -9.13221e-19)
(-0.0313514 0.110678 7.90597e-19)
(-0.0224502 0.105708 -5.63869e-19)
(-0.0111454 0.0966207 -2.77565e-20)
(0.00222395 0.0842874 -2.69754e-19)
(0.0174294 0.0693654 4.69209e-19)
(0.0343165 0.0523382 -5.07781e-19)
(0.0527774 0.0335571 -2.39727e-19)
(0.0727307 0.013278 5.47064e-21)
(0.0941068 -0.00830765 -5.2723e-19)
(0.116838 -0.0310473 7.21371e-19)
(0.14085 -0.0548075 -8.4103e-19)
(0.166058 -0.0794576 8.61015e-22)
(0.19236 -0.104853 1.29649e-19)
(0.219636 -0.130821 -3.25577e-19)
(0.247735 -0.157134 3.15395e-19)
(0.276463 -0.183477 -4.47809e-19)
(0.305565 -0.209379 -2.93771e-19)
(0.334706 -0.2341 5.44379e-19)
(0.363249 -0.256452 -5.902e-19)
(0.389242 -0.274803 -9.99024e-21)
(-0.0128749 0.0241784 -4.71022e-19)
(-0.029193 0.0591149 5.37765e-19)
(-0.0368924 0.0833934 -1.65265e-19)
(-0.0382001 0.0983285 3.18439e-19)
(-0.0345392 0.105437 3.43423e-19)
(-0.0268967 0.10618 -3.02894e-19)
(-0.0160149 0.10182 -2.0328e-19)
(-0.0024313 0.0933943 -2.43679e-19)
(0.0134766 0.0817295 2.23e-19)
(0.0314458 0.0674603 -1.47526e-20)
(0.0512924 0.0510641 3.2939e-19)
(0.0728837 0.0328958 3.26878e-19)
(0.0961168 0.0132199 -3.9479e-19)
(0.120903 -0.00776128 7.78746e-19)
(0.147157 -0.0298846 -5.19641e-19)
(0.174784 -0.0530075 -9.11649e-20)
(0.203679 -0.0769926 1.02296e-18)
(0.233716 -0.101694 -4.74122e-19)
(0.264745 -0.126943 3.03447e-19)
(0.296585 -0.152526 5.92305e-19)
(0.329008 -0.178156 -3.84145e-19)
(0.361713 -0.203404 4.08683e-20)
(0.394335 -0.227549 -2.55332e-20)
(0.426313 -0.249295 -1.52538e-19)
(0.455332 -0.266868 2.8442e-19)
(-0.0126868 0.0222543 1.0849e-19)
(-0.0286959 0.0548011 -3.42165e-19)
(-0.0358335 0.0777864 1.8743e-19)
(-0.0362392 0.0921679 -2.09465e-21)
(-0.0313059 0.0992138 1.40422e-19)
(-0.0220225 0.100207 -2.42292e-19)
(-0.00915355 0.0962812 1.38607e-19)
(0.00673262 0.0883891 3.7929e-19)
(0.0252258 0.0773045 -1.24717e-20)
(0.0460325 0.0636349 -1.96996e-19)
(0.0689416 0.0478466 1.98969e-19)
(0.0937962 0.0302941 -3.51396e-21)
(0.120472 0.0112483 -6.37752e-19)
(0.148859 -0.00907885 2.36457e-19)
(0.178849 -0.0305134 5.23065e-20)
(0.210325 -0.052902 -9.38434e-20)
(0.243151 -0.0760984 -1.68821e-19)
(0.277167 -0.0999509 6.43195e-19)
(0.312183 -0.124291 1.5705e-19)
(0.347975 -0.148914 -3.37176e-19)
(0.384268 -0.173558 -4.04137e-20)
(0.420706 -0.197841 4.60369e-19)
(0.456875 -0.221086 -2.15383e-19)
(0.492296 -0.241909 9.05482e-20)
(0.524399 -0.25838 5.99177e-20)
(-0.0123844 0.0203033 -2.17023e-19)
(-0.0279128 0.0502613 2.14329e-19)
(-0.0344004 0.0716733 -1.20565e-19)
(-0.0338563 0.0852065 -3.87029e-19)
(-0.0276202 0.0919159 -3.56162e-19)
(-0.0166677 0.0929224 -1.58598e-19)
(-0.00177351 0.0892372 -1.31459e-19)
(0.0164726 0.0817293 -3.89824e-19)
(0.0376348 0.0711175 -1.5851e-19)
(0.0613935 0.0579772 1.45025e-19)
(0.0875126 0.0427598 -2.07526e-19)
(0.115812 0.025816 -2.1998e-19)
(0.146142 0.00742033 -2.08373e-19)
(0.17837 -0.012207 3.83129e-19)
(0.212356 -0.0328812 -8.03874e-19)
(0.247949 -0.0544372 4.63546e-19)
(0.284973 -0.0767179 -7.93051e-19)
(0.323218 -0.0995629 -1.22537e-19)
(0.362439 -0.122799 -4.3784e-19)
(0.402353 -0.146229 -1.01688e-19)
(0.442624 -0.169609 -1.24407e-19)
(0.482829 -0.192604 -4.1326e-19)
(0.52249 -0.214602 -4.31138e-20)
(0.561207 -0.234156 2.48166e-19)
(0.596315 -0.24915 -6.22703e-19)
(-0.0119945 0.0183806 1.86943e-19)
(-0.0268802 0.0456223 2.43445e-19)
(-0.0326094 0.0652241 8.47449e-19)
(-0.0310327 0.0776375 -1.4896e-19)
(-0.0234202 0.0837447 3.53655e-19)
(-0.0107225 0.0845259 8.43949e-19)
(0.00628694 0.0808816 -2.30169e-19)
(0.027006 0.0735999 3.12599e-19)
(0.0509799 0.0633443 1.82762e-19)
(0.0778676 0.0506562 3.33332e-19)
(0.107409 0.0359685 -6.72394e-20)
(0.1394 0.0196255 4.53034e-20)
(0.173661 0.00190318 -1.21286e-19)
(0.210024 -0.0169713 6.44859e-19)
(0.24831 -0.036803 8.18785e-20)
(0.288318 -0.0574153 6.05152e-19)
(0.329812 -0.078639 -1.5561e-19)
(0.372516 -0.100304 5.57505e-19)
(0.416112 -0.122232 7.83352e-20)
(0.460237 -0.144226 2.82832e-19)
(0.50448 -0.166059 -1.20877e-19)
(0.548344 -0.187442 -1.96955e-20)
(0.591277 -0.20784 6.64643e-19)
(0.632946 -0.225778 4.02167e-19)
(0.670789 -0.238893 -1.62191e-19)
(-0.0115441 0.0165318 -4.51602e-19)
(-0.0256322 0.0409963 -4.55089e-19)
(-0.0304664 0.0586001 -4.74582e-19)
(-0.0277275 0.0696558 1.74137e-19)
(-0.0186072 0.0749166 -3.49362e-19)
(-0.00402267 0.0752468 -5.21057e-20)
(0.0152628 0.0714502 -1.37418e-19)
(0.0386429 0.0642404 -5.72854e-19)
(0.0656498 0.0542279 -9.07817e-20)
(0.0959232 0.0419192 1.47964e-19)
(0.129179 0.0277271 -4.6728e-19)
(0.16518 0.0119874 6.49599e-19)
(0.203711 -0.00502435 -8.86641e-19)
(0.244554 -0.0230757 2.14856e-19)
(0.287472 -0.0419628 -5.46939e-19)
(0.332192 -0.0614985 -4.46503e-19)
(0.378399 -0.0815028 -2.58862e-20)
(0.425729 -0.101797 -6.77934e-20)
(0.473767 -0.122196 5.33271e-20)
(0.522057 -0.142508 -2.55767e-19)
(0.570102 -0.162519 -1.75923e-19)
(0.617329 -0.18198 2.15008e-19)
(0.663106 -0.200448 -5.93549e-19)
(0.707156 -0.216456 1.91447e-19)
(0.747233 -0.227312 1.26209e-19)
(-0.011057 0.0147911 -7.98139e-20)
(-0.024194 0.0364753 -1.31689e-19)
(-0.0279609 0.0519444 5.13186e-19)
(-0.0238729 0.0614473 1.90418e-19)
(-0.0130423 0.0656512 2.52146e-19)
(0.00365089 0.0653309 -3.36918e-19)
(0.0254598 0.0612097 5.97733e-22)
(0.0517794 0.0539355 -2.74265e-19)
(0.0821317 0.0440694 5.07174e-19)
(0.116136 0.0320843 1.66905e-19)
(0.153478 0.0183725 1.89542e-19)
(0.193878 0.00325956 -7.47628e-19)
(0.237067 -0.012981 9.28186e-19)
(0.282757 -0.0301136 -2.77963e-19)
(0.330629 -0.0479279 -2.0009e-19)
(0.380315 -0.0662288 6.03046e-19)
(0.431394 -0.0848292 2.70463e-19)
(0.483388 -0.103545 -6.83257e-19)
(0.535774 -0.122191 -2.84689e-19)
(0.58799 -0.14058 8.59893e-19)
(0.639447 -0.158516 -6.52921e-19)
(0.689509 -0.175791 3.9285e-19)
(0.737479 -0.192058 2.16121e-19)
(0.783116 -0.205905 -2.78008e-19)
(0.824686 -0.21419 -2.52986e-19)
(-0.0105508 0.0131792 -2.93652e-19)
(-0.0225767 0.0321262 4.56345e-19)
(-0.0250596 0.045376 1.93684e-19)
(-0.0193693 0.0531799 -2.79342e-19)
(-0.00654558 0.0561604 -4.45392e-20)
(0.0125686 0.0550288 -2.92378e-19)
(0.0372445 0.0504448 -1.1655e-19)
(0.0668797 0.0430007 1.31681e-19)
(0.100984 0.0332139 -3.24183e-20)
(0.13915 0.0215257 2.50047e-19)
(0.181019 0.00830811 -2.1789e-19)
(0.226254 -0.0061245 6.04662e-19)
(0.274504 -0.0215031 -7.53217e-19)
(0.325389 -0.037592 4.70251e-19)
(0.378476 -0.0541782 5.87458e-19)
(0.433273 -0.0710639 -8.50479e-19)
(0.48923 -0.0880602 -2.58187e-19)
(0.545739 -0.104984 4.37204e-19)
(0.602153 -0.121658 -2.67932e-19)
(0.657804 -0.137907 2.58612e-19)
(0.712023 -0.153557 -6.23968e-19)
(0.764123 -0.168446 1.05172e-19)
(0.813386 -0.182335 4.02298e-19)
(0.85962 -0.193883 -6.43286e-19)
(0.901704 -0.199379 1.72868e-19)
(-0.0100342 0.0117031 -2.70719e-19)
(-0.0207717 0.0279899 8.48619e-19)
(-0.021703 0.0389845 1.622e-19)
(-0.0140852 0.0449963 -4.38489e-19)
(0.00110063 0.0466384 3.14101e-19)
(0.0230424 0.0445835 1.60064e-19)
(0.0510264 0.039444 2.55435e-19)
(0.0844478 0.0317672 -1.57232e-20)
(0.122795 0.022033 -2.63169e-20)
(0.16562 0.0106539 -5.64189e-20)
(0.212501 -0.00201804 -2.46602e-19)
(0.263012 -0.0156813 -9.36839e-21)
(0.316696 -0.0300746 5.77253e-19)
(0.373043 -0.0449668 -9.51215e-19)
(0.431479 -0.0601487 6.76954e-19)
(0.491362 -0.0754266 1.37918e-19)
(0.551992 -0.090618 2.43764e-19)
(0.612624 -0.10555 -1.24528e-19)
(0.672488 -0.120058 1.10675e-18)
(0.73082 -0.133986 -6.81814e-19)
(0.786881 -0.147189 5.43347e-19)
(0.839955 -0.159556 1.26274e-19)
(0.889341 -0.170935 -3.94447e-19)
(0.934938 -0.180007 3.33196e-19)
(0.976063 -0.182703 4.95044e-19)
(-0.00950466 0.0103571 -7.81184e-20)
(-0.0187482 0.0240804 -2.99005e-19)
(-0.0178033 0.0328286 -5.09651e-19)
(-0.0078584 0.037009 -2.89623e-19)
(0.0101438 0.0372542 -4.03475e-20)
(0.0354107 0.0342196 -1.14074e-19)
(0.0672334 0.0284857 -5.31258e-19)
(0.104992 0.0205648 8.81669e-20)
(0.148138 0.0109049 -5.99951e-19)
(0.196155 -0.000107501 -4.71177e-20)
(0.24853 -0.0121407 -5.78245e-19)
(0.304716 -0.0249089 -2.06499e-19)
(0.364112 -0.0381638 1.19025e-19)
(0.426047 -0.0516857 -5.65461e-19)
(0.489775 -0.0652778 5.08622e-21)
(0.554487 -0.0787606 -4.88124e-19)
(0.619329 -0.0919685 1.88866e-19)
(0.683422 -0.104748 -6.78423e-19)
(0.745901 -0.116956 -1.15335e-19)
(0.805936 -0.128459 -1.2263e-20)
(0.862764 -0.139138 -1.11942e-19)
(0.915673 -0.148912 -1.12891e-19)
(0.964016 -0.157612 -5.47716e-20)
(1.00767 -0.163916 -2.20914e-19)
(1.0453 -0.164894 -4.63594e-19)
(-0.00894817 0.00912457 1.44276e-19)
(-0.0164517 0.0203887 3.77945e-19)
(-0.013246 0.0269373 4.53075e-19)
(-0.000501931 0.0292991 -3.61491e-19)
(0.0208504 0.0281468 6.71433e-19)
(0.0500197 0.0241356 -3.6415e-19)
(0.0862837 0.0178269 1.9805e-19)
(0.128986 0.00970645 3.09907e-19)
(0.177512 0.000195302 2.82416e-19)
(0.231247 -0.0103449 1.3791e-19)
(0.289546 -0.0216049 2.22695e-19)
(0.351703 -0.0333193 1.29982e-19)
(0.416935 -0.04526 8.79628e-19)
(0.484378 -0.0572289 -6.38548e-19)
(0.553097 -0.0690526 7.30612e-19)
(0.622109 -0.0805785 -3.01274e-19)
(0.690414 -0.0916707 6.52558e-19)
(0.75703 -0.102208 -3.00076e-20)
(0.821036 -0.112081 -1.3448e-19)
(0.881604 -0.121188 -1.97447e-20)
(0.938028 -0.129435 4.93778e-19)
(0.989744 -0.136725 -4.65148e-19)
(1.03642 -0.142769 3.34017e-19)
(1.07789 -0.146756 3.51254e-19)
(1.10919 -0.150804 6.43505e-20)
(-0.00833874 0.00798051 9.96236e-20)
(-0.0138052 0.0168865 -5.3871e-19)
(-0.00789363 0.021314 -1.95494e-19)
(0.00818851 0.0219184 1.79027e-19)
(0.0334921 0.0194243 -5.49437e-19)
(0.0672022 0.0144995 -1.08128e-19)
(0.108556 0.0076953 7.53172e-20)
(0.15683 -0.000522742 2.98642e-19)
(0.211304 -0.00975804 -7.54997e-19)
(0.271223 -0.0196747 5.78379e-20)
(0.335768 -0.0299899 -2.21427e-19)
(0.404031 -0.0404663 -6.74826e-19)
(0.475013 -0.0509057 4.59294e-19)
(0.547636 -0.0611434 2.08603e-20)
(0.620769 -0.0710427 -1.50685e-20)
(0.693265 -0.080491 4.63171e-19)
(0.764006 -0.0893958 -8.11791e-19)
(0.83195 -0.0976811 6.40012e-19)
(0.896173 -0.105285 -1.202e-19)
(0.955903 -0.112155 3.56588e-19)
(1.01055 -0.118249 -5.90365e-19)
(1.05971 -0.123523 3.27611e-19)
(1.10324 -0.12784 -5.66951e-19)
(1.14121 -0.130901 5.61016e-19)
(1.17006 -0.134685 -1.87982e-19)
(-0.00763986 0.00689533 6.63591e-19)
(-0.0107126 0.0135336 -1.07243e-19)
(-0.00159106 0.0159428 7.94664e-19)
(0.0184251 0.0148942 3.67889e-19)
(0.048332 0.0111673 2.99772e-20)
(0.0872589 0.00544919 1.6051e-19)
(0.134366 -0.00171323 3.88533e-20)
(0.188819 -0.00987195 6.55889e-19)
(0.249748 -0.0186551 2.11796e-19)
(0.316209 -0.0277565 -2.86366e-20)
(0.387161 -0.0369267 5.69159e-20)
(0.461455 -0.0459665 2.19276e-19)
(0.537854 -0.0547198 1.83076e-19)
(0.615057 -0.063068 3.91659e-19)
(0.69175 -0.0709244 -4.46737e-19)
(0.766653 -0.0782279 1.33263e-19)
(0.83858 -0.0849389 4.32012e-20)
(0.906486 -0.0910334 1.95715e-19)
(0.969509 -0.0964993 5.17215e-19)
(1.02699 -0.101333 -3.43498e-19)
(1.07851 -0.105538 2.39711e-20)
(1.12384 -0.109121 -4.48734e-19)
(1.163 -0.112041 4.11589e-19)
(1.19619 -0.114161 -3.74616e-19)
(1.22096 -0.116928 5.05319e-20)
(-0.00680675 0.00583847 -5.52582e-19)
(-0.00706296 0.0102844 4.22093e-19)
(0.00582706 0.0107973 -6.85917e-19)
(0.0304183 0.00823792 5.90364e-20)
(0.0656121 0.00343526 4.82599e-19)
(0.110442 -0.0029026 -8.03983e-19)
(0.163945 -0.0102324 6.38726e-19)
(0.225126 -0.018125 -1.01423e-18)
(0.29291 -0.0262374 2.02028e-19)
(0.366112 -0.0343002 4.3511e-20)
(0.443427 -0.0421081 3.42011e-19)
(0.523438 -0.0495122 -1.13607e-18)
(0.604658 -0.0564121 1.96627e-19)
(0.685576 -0.0627486 2.07289e-19)
(0.764729 -0.0684954 -1.23223e-19)
(0.840761 -0.073652 -7.59125e-19)
(0.912482 -0.0782351 3.59147e-19)
(0.978921 -0.0822729 6.55637e-19)
(1.03935 -0.0857988 -6.79917e-19)
(1.09329 -0.0888474 4.86209e-19)
(1.14052 -0.091453 -6.09316e-19)
(1.18104 -0.0936485 4.37986e-19)
(1.21508 -0.0954266 -1.10696e-19)
(1.24299 -0.0966989 6.32129e-19)
(1.26321 -0.0985701 -6.93019e-19)
(-0.00578902 0.00478192 7.84835e-20)
(-0.00273665 0.00709604 6.226e-20)
(0.0145292 0.00584941 1.51265e-19)
(0.0443681 0.0019544 5.41906e-19)
(0.0855425 -0.00372355 -1.72755e-20)
(0.136942 -0.0104596 1.20838e-19)
(0.197428 -0.0177184 5.40325e-19)
(0.265785 -0.0250955 2.18388e-19)
(0.340676 -0.0322851 -7.22671e-20)
(0.420627 -0.0390661 6.13555e-19)
(0.50403 -0.0452909 -6.98835e-19)
(0.58919 -0.0508753 1.07163e-18)
(0.674377 -0.0557881 -4.24803e-19)
(0.757912 -0.0600408 7.66421e-19)
(0.838239 -0.0636756 -2.5896e-19)
(0.913997 -0.0667547 9.36366e-20)
(0.984081 -0.06935 1.12637e-19)
(1.04767 -0.0715344 -2.09869e-19)
(1.10423 -0.0733754 1.77573e-19)
(1.15354 -0.0749314 1.13013e-19)
(1.19562 -0.0762498 1.49919e-19)
(1.23071 -0.0773672 3.02242e-19)
(1.25923 -0.0782798 -3.28187e-20)
(1.28173 -0.0789252 -1.35499e-19)
(1.29734 -0.080157 3.65655e-19)
(-0.00453349 0.0037032 -4.58809e-19)
(0.00238949 0.00393493 4.83846e-20)
(0.0246801 0.00107916 -8.71245e-19)
(0.0604562 -0.00394696 -2.078e-19)
(0.108294 -0.010261 -3.90246e-19)
(0.166885 -0.0171314 -8.33871e-20)
(0.234853 -0.0240402 -4.18582e-19)
(0.310698 -0.0306186 -2.509e-19)
(0.392768 -0.0366116 3.31842e-19)
(0.479252 -0.0418616 -5.54265e-19)
(0.568226 -0.0462945 -1.54051e-19)
(0.657718 -0.049906 5.94143e-21)
(0.745796 -0.0527467 -1.03506e-18)
(0.830669 -0.0549061 4.38372e-19)
(0.91077 -0.0564973 -6.34837e-19)
(0.984827 -0.057642 -1.8618e-20)
(1.0519 -0.0584582 1.19942e-19)
(1.1114 -0.0590512 -1.98467e-19)
(1.16306 -0.0595069 -1.71661e-19)
(1.20694 -0.0598902 7.98019e-20)
(1.24331 -0.0602445 8.60943e-20)
(1.27267 -0.0605936 -5.63207e-19)
(1.29564 -0.0609193 3.18547e-19)
(1.3129 -0.0611701 1.47441e-19)
(1.32409 -0.0620432 2.71993e-20)
(-0.00298681 0.0025875 4.67764e-19)
(0.00843676 0.000782257 -4.98068e-19)
(0.0364344 -0.00351749 6.9991e-19)
(0.0788402 -0.00944249 1.1005e-19)
(0.133992 -0.0161184 -3.3492e-20)
(0.200324 -0.0228225 -2.35391e-19)
(0.276154 -0.0290696 3.5461e-20)
(0.359638 -0.0345433 3.5964e-19)
(0.448752 -0.0390573 -4.96441e-19)
(0.541325 -0.0425362 5.2174e-19)
(0.635112 -0.0449971 -5.5289e-20)
(0.727898 -0.0465293 2.60565e-20)
(0.817612 -0.0472738 6.72729e-19)
(0.902437 -0.0474006 8.94082e-19)
(0.98089 -0.0470891 -3.50594e-19)
(1.05188 -0.0465101 6.0834e-19)
(1.11472 -0.0458132 2.995e-19)
(1.16912 -0.0451185 -1.86768e-19)
(1.21513 -0.0445128 5.68549e-19)
(1.25307 -0.0440503 -3.00156e-20)
(1.28352 -0.043756 -5.27862e-19)
(1.30716 -0.04363 5.40968e-19)
(1.3248 -0.0436308 6.89061e-20)
(1.33722 -0.0437116 -3.16354e-19)
(1.3444 -0.0444596 1.00153e-19)
(-0.00109748 0.0014289 -6.483e-19)
(0.0155202 -0.0023621 6.78389e-19)
(0.049932 -0.00792232 -4.30073e-19)
(0.0996486 -0.0144864 -1.33446e-19)
(0.162715 -0.021218 -3.01518e-19)
(0.237241 -0.0274245 5.34044e-19)
(0.321172 -0.0326749 -3.09968e-19)
(0.412257 -0.0367271 -1.42267e-19)
(0.508063 -0.0394862 -4.06704e-19)
(0.606048 -0.0409798 1.08569e-20)
(0.703673 -0.041333 -1.594e-19)
(0.79854 -0.0407397 7.61114e-20)
(0.888525 -0.0394337 -8.07044e-19)
(0.971886 -0.0376608 2.30187e-19)
(1.04733 -0.0356546 -2.7318e-19)
(1.11404 -0.0336184 -2.15235e-19)
(1.17166 -0.0317138 6.49238e-20)
(1.22022 -0.0300563 -3.06388e-19)
(1.26011 -0.0287153 -1.24037e-19)
(1.29195 -0.0277196 3.67757e-19)
(1.31653 -0.0270648 1.46944e-19)
(1.33473 -0.0267201 -6.29618e-19)
(1.34746 -0.0266171 4.50832e-19)
(1.35558 -0.0267089 -8.42248e-20)
(1.35928 -0.027505 -1.66018e-19)
(0.00118263 0.000230753 -2.34381e-19)
(0.0237448 -0.00547766 -1.25394e-19)
(0.065293 -0.0120911 -2.45024e-20)
(0.122976 -0.0190057 1.85605e-19)
(0.194488 -0.0254575 2.01389e-19)
(0.277544 -0.0308112 1.75031e-19)
(0.36965 -0.0347167 2.18732e-19)
(0.468099 -0.0370342 3.33578e-19)
(0.570025 -0.0377854 5.10252e-19)
(0.672531 -0.0371221 5.03469e-19)
(0.772837 -0.0352911 2.6511e-19)
(0.868451 -0.0325958 -7.18708e-20)
(0.957304 -0.0293581 1.75207e-20)
(1.03784 -0.0258862 -2.01931e-20)
(1.10906 -0.0224491 2.06668e-19)
(1.1705 -0.0192607 -4.96356e-20)
(1.22216 -0.016473 5.86878e-19)
(1.26445 -0.0141769 -2.66534e-19)
(1.29807 -0.0124088 1.68849e-21)
(1.32389 -0.0111608 1.70896e-19)
(1.34289 -0.0103922 -3.78584e-19)
(1.3561 -0.010039 6.09146e-19)
(1.36448 -0.010006 -4.87776e-19)
(1.3689 -0.0102458 8.37724e-20)