/*--------------------------------*- C++ -*----------------------------------*\
  =========                 |
  \\      /  F ield         | OpenFOAM: The Open Source CFD Toolbox
   \\    /   O peration     | Website:  https://openfoam.org
    \\  /    A nd           | Version:  6.0
     \\/     M anipulation  |
\*---------------------------------------------------------------------------*/
FoamFile
{
    version     2.0;
    format      ascii;
    class       volVectorField;
    location    "79";
    object      U;
}
// * * * * * * * * * * * * * * * * * * * * * * * * * * * * * * * * * * * * * //

dimensions      [0 1 -1 0 0 0 0];

internalField   nonuniform List<vector> 
12500
(
(0.000947474 -0.0478539 -1.48884e-21)
(0.00259269 -0.126091 2.05006e-20)
(0.00357226 -0.189571 -2.97892e-20)
(0.00350951 -0.240086 1.37084e-20)
(0.00240958 -0.279444 8.36127e-22)
(0.000475812 -0.309495 -1.74393e-21)
(-0.00199049 -0.332008 -2.51786e-20)
(-0.00465409 -0.348566 1.38842e-20)
(-0.00719461 -0.360491 9.16746e-21)
(-0.00933831 -0.368823 9.37784e-21)
(-0.0108749 -0.37433 -1.59374e-20)
(-0.0116625 -0.377543 9.31803e-21)
(-0.0116253 -0.378799 -4.41003e-21)
(-0.0107454 -0.378295 7.49183e-21)
(-0.00905236 -0.376136 -1.92629e-20)
(-0.00661166 -0.372373 2.81118e-20)
(-0.0035132 -0.36703 -5.39512e-21)
(0.000139657 -0.360134 -1.99943e-20)
(0.00423957 -0.351719 1.02235e-20)
(0.00868355 -0.341833 -9.85014e-21)
(0.0133799 -0.330539 8.90155e-21)
(0.0182523 -0.317905 1.19922e-20)
(0.0232377 -0.303995 1.24387e-21)
(0.0282889 -0.288833 -3.44015e-20)
(0.033398 -0.272368 1.89993e-20)
(0.0022487 -0.0478963 2.57619e-20)
(0.00543573 -0.125638 -6.92804e-20)
(0.00675446 -0.18832 2.06346e-20)
(0.00629425 -0.237954 1.37538e-20)
(0.00433394 -0.276523 -1.10567e-20)
(0.00125924 -0.306004 -6.26444e-20)
(-0.00248691 -0.328241 1.87341e-20)
(-0.00646678 -0.344842 -3.53371e-20)
(-0.0102913 -0.357121 4.25298e-20)
(-0.0136445 -0.366081 -5.70028e-20)
(-0.0162935 -0.372437 3.06709e-20)
(-0.018089 -0.376656 9.83074e-21)
(-0.0189583 -0.379015 -2.51734e-20)
(-0.0188943 -0.37965 -1.13429e-20)
(-0.017943 -0.378612 8.21314e-20)
(-0.0161897 -0.375908 -7.3015e-20)
(-0.0137465 -0.371532 1.73574e-20)
(-0.0107398 -0.365487 3.04058e-20)
(-0.00729934 -0.357797 -7.36922e-21)
(-0.00354872 -0.348513 5.00627e-20)
(0.000401205 -0.337707 9.16546e-21)
(0.00445739 -0.325468 -2.69096e-21)
(0.00856084 -0.311887 -6.35966e-20)
(0.0127056 -0.297017 5.94269e-20)
(0.016777 -0.280855 -1.1811e-19)
(0.00349743 -0.0474134 8.17702e-20)
(0.00809067 -0.123957 2.84406e-20)
(0.00959892 -0.185418 -3.7058e-20)
(0.00861521 -0.233948 1.58282e-20)
(0.00570623 -0.27165 1.52647e-20)
(0.00144203 -0.300585 5.75703e-20)
(-0.00359638 -0.322638 -7.32245e-20)
(-0.00887514 -0.33942 -1.1678e-20)
(-0.0139435 -0.352214 -4.92654e-20)
(-0.0184492 -0.361977 -4.13981e-20)
(-0.0221417 -0.369361 5.40709e-20)
(-0.0248672 -0.374765 -1.80748e-19)
(-0.0265574 -0.378398 -5.46747e-21)
(-0.0272165 -0.380331 -1.09288e-19)
(-0.0269062 -0.38056 -1.3013e-20)
(-0.0257313 -0.379043 1.58005e-20)
(-0.0238257 -0.375737 -8.57811e-20)
(-0.0213385 -0.37062 -5.38949e-20)
(-0.0184225 -0.363706 -6.44165e-20)
(-0.0152226 -0.355045 1.01506e-19)
(-0.0118704 -0.344724 3.78297e-20)
(-0.00847693 -0.332854 -1.64889e-19)
(-0.00509618 -0.319558 -8.02979e-20)
(-0.0016951 -0.304923 -8.96462e-20)
(0.0014902 -0.289009 2.56364e-19)
(0.00464821 -0.046383 -3.14522e-21)
(0.0104661 -0.121021 -6.53244e-20)
(0.0120077 -0.180853 -3.06066e-20)
(0.0103897 -0.228076 1.9019e-20)
(0.00646989 -0.26485 1.22038e-19)
(0.000997461 -0.293276 -5.56567e-20)
(-0.00531697 -0.315243 1.18343e-19)
(-0.0118528 -0.332339 1.1281e-19)
(-0.018106 -0.345805 6.91461e-20)
(-0.0236949 -0.356536 -1.2879e-21)
(-0.0283558 -0.365118 1.40396e-19)
(-0.0319322 -0.371878 2.42411e-20)
(-0.0343612 -0.376953 1.07866e-19)
(-0.0356571 -0.38035 2.48642e-19)
(-0.035896 -0.382001 -2.89454e-19)
(-0.0352002 -0.381812 4.36463e-19)
(-0.0337236 -0.379698 9.56537e-20)
(-0.0316375 -0.37561 -2.09981e-19)
(-0.0291167 -0.369544 -3.05384e-20)
(-0.0263287 -0.36155 7.78373e-20)
(-0.023427 -0.351727 -3.84196e-20)
(-0.0205418 -0.340214 -2.24451e-20)
(-0.0177223 -0.327168 -2.23496e-20)
(-0.0149005 -0.312714 -9.12408e-20)
(-0.0124451 -0.296988 3.41682e-19)
(0.00565534 -0.0447966 4.15556e-20)
(0.0124743 -0.116831 -2.02182e-19)
(0.013894 -0.174646 2.46226e-19)
(0.0115534 -0.22038 -9.89791e-20)
(0.00659251 -0.256181 1.18263e-19)
(-7.25623e-05 -0.284138 9.63841e-20)
(-0.00761471 -0.306112 3.67552e-20)
(-0.0153385 -0.323645 9.75526e-22)
(-0.0226967 -0.33792 2.09279e-19)
(-0.0292849 -0.349766 1.44992e-19)
(-0.0348303 -0.359697 -5.93934e-20)
(-0.0391759 -0.367971 -3.83697e-20)
(-0.0422633 -0.37465 1.59624e-19)
(-0.0441155 -0.379674 3.02872e-20)
(-0.0448199 -0.382911 8.15228e-20)
(-0.0445134 -0.384208 1.97634e-19)
(-0.0433674 -0.383434 -1.72804e-19)
(-0.0415729 -0.380501 1.40814e-19)
(-0.0393267 -0.375385 -3.00535e-19)
(-0.0368183 -0.36813 2.53463e-19)
(-0.0342249 -0.358845 1.4159e-21)
(-0.0316972 -0.347698 -2.01517e-19)
(-0.029281 -0.33488 8.30987e-20)
(-0.0268796 -0.320556 1.86956e-19)
(-0.0250017 -0.304957 -2.9318e-19)
(0.00647518 -0.0426622 2.1273e-19)
(0.0140368 -0.111424 -2.34925e-19)
(0.0151875 -0.16686 -3.91312e-20)
(0.0120648 -0.21094 4.79163e-20)
(0.00606961 -0.245729 -1.05531e-19)
(-0.00173441 -0.273254 -1.6594e-19)
(-0.0104208 -0.295314 -1.38091e-19)
(-0.0192335 -0.313384 -3.35469e-20)
(-0.0275924 -0.328578 -2.40759e-19)
(-0.0350778 -0.341658 1.90096e-19)
(-0.0414119 -0.353065 -2.99234e-19)
(-0.0464383 -0.362987 1.50807e-19)
(-0.0501023 -0.371419 -5.18808e-20)
(-0.0524326 -0.378229 1.1762e-19)
(-0.0535247 -0.383219 -2.96279e-19)
(-0.053526 -0.386176 1.41983e-19)
(-0.0526215 -0.38691 9.59678e-21)
(-0.0510195 -0.385291 6.40252e-20)
(-0.0489367 -0.381262 3.87265e-19)
(-0.046585 -0.374852 8.41571e-20)
(-0.0441663 -0.366179 -9.16898e-21)
(-0.0418541 -0.355432 2.4212e-20)
(-0.0396931 -0.342838 1.62625e-19)
(-0.0375656 -0.328605 4.49077e-20)
(-0.0361262 -0.313073 1.608e-19)
(0.00706865 -0.0400055 -1.32744e-19)
(0.0150881 -0.104868 1.95814e-19)
(0.0158389 -0.157594 1.20573e-20)
(0.011909 -0.199873 -2.42136e-19)
(0.00492703 -0.233612 5.09519e-19)
(-0.00392109 -0.260729 -1.6639e-19)
(-0.0136301 -0.28293 2.42795e-19)
(-0.0233992 -0.301606 2.24011e-19)
(-0.0326266 -0.317797 -1.86305e-19)
(-0.0408846 -0.33219 -2.72089e-19)
(-0.0478942 -0.345164 7.4475e-20)
(-0.0535008 -0.356839 -7.8668e-20)
(-0.0576521 -0.367145 -3.50699e-19)
(-0.0603798 -0.375885 4.25436e-19)
(-0.0617832 -0.382794 -2.04505e-19)
(-0.0620156 -0.387592 -1.41865e-19)
(-0.0612712 -0.390026 -2.91007e-22)
(-0.0597718 -0.389908 1.13879e-19)
(-0.0577516 -0.38714 4.80325e-20)
(-0.0554445 -0.381726 -1.8854e-19)
(-0.0530784 -0.373775 2.10994e-19)
(-0.0508518 -0.363497 -3.72946e-19)
(-0.0488123 -0.351149 2.25761e-19)
(-0.0468309 -0.336982 -1.7548e-19)
(-0.0457123 -0.321458 4.90488e-20)
(0.00740384 -0.0368714 1.88545e-19)
(0.0155802 -0.0972715 -1.51215e-19)
(0.0158231 -0.14699 -9.76003e-20)
(0.0110996 -0.18733 -1.73e-19)
(0.00322183 -0.219977 -3.1897e-19)
(-0.00653243 -0.246693 -2.37485e-19)
(-0.0171023 -0.269061 1.4772e-19)
(-0.0276587 -0.288374 -2.2536e-19)
(-0.0375898 -0.305591 2.87816e-19)
(-0.0464674 -0.321334 -4.70171e-19)
(-0.0540152 -0.335917 2.09546e-19)
(-0.0600815 -0.349406 4.44519e-19)
(-0.0646159 -0.361674 -6.25694e-19)
(-0.06765 -0.372462 8.92263e-20)
(-0.0692828 -0.381441 1.16076e-19)
(-0.0696687 -0.38826 1.1324e-19)
(-0.0690061 -0.392597 -1.23261e-19)
(-0.0675255 -0.394196 -3.19166e-20)
(-0.0654759 -0.392901 -8.80594e-20)
(-0.0631118 -0.388672 -7.55184e-20)
(-0.0606885 -0.3816 -4.05443e-19)
(-0.058432 -0.371899 -2.62758e-20)
(-0.0563978 -0.35985 3.42893e-21)
(-0.0544562 -0.345742 -1.84526e-19)
(-0.0535672 -0.330173 2.01237e-19)
(0.00745844 -0.0333232 5.07949e-21)
(0.0154864 -0.0887755 6.23996e-20)
(0.0151421 -0.135226 6.45714e-20)
(0.00967966 -0.173503 3.86878e-20)
(0.00104119 -0.205006 3.22381e-19)
(-0.00943759 -0.231301 3.03943e-19)
(-0.0206648 -0.253826 -2.48949e-19)
(-0.0318002 -0.273763 -7.52136e-20)
(-0.0422335 -0.291989 -6.77821e-20)
(-0.0515429 -0.30906 3.51688e-19)
(-0.0594594 -0.325242 1.25928e-19)
(-0.0658362 -0.340552 -1.85422e-19)
(-0.0706241 -0.354817 -1.56287e-19)
(-0.0738531 -0.367728 3.78245e-19)
(-0.0756183 -0.378895 -9.3484e-20)
(-0.0760705 -0.387899 -1.12597e-19)
(-0.075407 -0.394343 -1.57642e-19)
(-0.0738623 -0.39789 -1.21948e-19)
(-0.0716958 -0.39831 -1.54397e-19)
(-0.0691811 -0.395499 -1.01037e-19)
(-0.066601 -0.38951 4.20419e-19)
(-0.0642121 -0.38054 -2.05337e-19)
(-0.0620837 -0.368879 1.38066e-19)
(-0.0600969 -0.354849 -3.63666e-19)
(-0.0593746 -0.339195 1.60667e-19)
(0.00722193 -0.0294417 -1.67265e-19)
(0.014804 -0.0795542 -4.51929e-20)
(0.0138262 -0.122518 -3.58089e-19)
(0.00772048 -0.158615 -1.72483e-19)
(-0.00150068 -0.188909 -3.44143e-19)
(-0.0124799 -0.214738 -3.62964e-20)
(-0.0241192 -0.237371 1.86682e-19)
(-0.0355842 -0.257872 -1.13558e-19)
(-0.0462771 -0.277034 2.473e-19)
(-0.0557899 -0.295356 -6.02815e-19)
(-0.0638653 -0.31306 -1.71905e-20)
(-0.0703639 -0.330133 1.0743e-19)
(-0.0752393 -0.346367 -1.36767e-19)
(-0.0785188 -0.361414 1.23913e-19)
(-0.0802918 -0.374836 -9.45728e-20)
(-0.0807017 -0.386151 -2.01835e-19)
(-0.0799399 -0.394882 3.67703e-19)
(-0.0782395 -0.400607 2.26449e-19)
(-0.0758658 -0.403002 -4.73399e-20)
(-0.0731083 -0.401879 1.46558e-19)
(-0.0702773 -0.39722 -2.90198e-19)
(-0.0676625 -0.389185 4.15839e-19)
(-0.0653525 -0.378046 -5.67678e-19)
(-0.0632512 -0.364146 1.18778e-19)
(-0.0626569 -0.348379 -2.349e-19)
(0.0066971 -0.025323 9.09054e-21)
(0.0135559 -0.0698094 -1.52192e-19)
(0.0119331 -0.109112 2.30876e-19)
(0.00531887 -0.142921 4.76879e-19)
(-0.00426773 -0.171928 -7.33713e-21)
(-0.0154839 -0.197216 5.46984e-20)
(-0.0272503 -0.219871 -2.07905e-19)
(-0.0387543 -0.24083 9.82808e-20)
(-0.0494207 -0.260803 6.77731e-19)
(-0.0588625 -0.280235 -1.54454e-19)
(-0.0668389 -0.299319 -1.82349e-19)
(-0.0732218 -0.318021 6.92168e-19)
(-0.0779696 -0.336116 2.24926e-19)
(-0.0811088 -0.353235 1.0677e-19)
(-0.0827227 -0.368903 1.08813e-19)
(-0.0829453 -0.382587 2.98621e-19)
(-0.0819588 -0.393738 -1.14036e-19)
(-0.07999 -0.401842 2.97976e-19)
(-0.0773048 -0.406468 4.01175e-19)
(-0.0742042 -0.40732 -3.42316e-19)
(-0.0710246 -0.40428 5.03316e-19)
(-0.06809 -0.397432 1.72929e-19)
(-0.065514 -0.387001 -6.66296e-19)
(-0.0632342 -0.373321 9.54655e-19)
(-0.0627437 -0.357441 -8.30705e-19)
(0.00590081 -0.0210741 -4.17984e-19)
(0.0117904 -0.0597641 2.40174e-19)
(0.00954631 -0.0952791 -1.62164e-19)
(0.00259245 -0.126703 -1.55859e-19)
(-0.00710881 -0.154333 -1.68675e-19)
(-0.0182647 -0.178981 -1.84977e-19)
(-0.0298372 -0.201537 5.10321e-20)
(-0.0410502 -0.222807 4.87214e-19)
(-0.0513606 -0.243415 -1.0531e-19)
(-0.0604084 -0.263761 -2.74313e-19)
(-0.0679747 -0.284014 -1.67774e-19)
(-0.0739471 -0.304132 -6.89896e-20)
(-0.0782928 -0.323893 2.01942e-19)
(-0.0810409 -0.342922 -1.30548e-19)
(-0.0822709 -0.360729 -4.22717e-19)
(-0.0821086 -0.376747 -4.6272e-19)
(-0.080725 -0.390365 1.84023e-19)
(-0.0783369 -0.400984 -3.3982e-19)
(-0.0752061 -0.408061 2.87106e-19)
(-0.0716398 -0.411167 -8.16845e-19)
(-0.0679967 -0.410056 6.18678e-19)
(-0.0646356 -0.404694 -8.09454e-19)
(-0.0616983 -0.395208 -1.1379e-20)
(-0.0591648 -0.381889 -2.64065e-19)
(-0.0587519 -0.36593 8.36769e-19)
(0.00486368 -0.0168088 6.41292e-19)
(0.0095795 -0.0496539 9.84091e-20)
(0.00677071 -0.0813071 -6.48925e-20)
(-0.000326071 -0.110261 -2.79646e-20)
(-0.00986567 -0.136418 5.21735e-19)
(-0.0206375 -0.160306 1.71158e-19)
(-0.0316659 -0.182616 1.56117e-19)
(-0.0422239 -0.204015 -1.25985e-19)
(-0.0518083 -0.225044 4.88578e-19)
(-0.060092 -0.246057 -2.40919e-19)
(-0.0668825 -0.267208 1.56599e-19)
(-0.0720879 -0.288458 3.97447e-19)
(-0.0756899 -0.309599 -2.25436e-19)
(-0.0777254 -0.330271 2.432e-19)
(-0.0782754 -0.349992 2.29063e-19)
(-0.0774605 -0.368182 7.83983e-20)
(-0.0754427 -0.384195 -1.87821e-19)
(-0.0724275 -0.397359 5.22375e-19)
(-0.0686681 -0.407022 -4.78617e-20)
(-0.0644724 -0.412617 -5.07364e-20)
(-0.0602161 -0.413737 6.01232e-19)
(-0.0562906 -0.410183 -4.18106e-19)
(-0.0528671 -0.401933 6.96329e-19)
(-0.0499725 -0.389171 -5.66976e-19)
(-0.0495856 -0.373212 7.80536e-19)
(0.00362877 -0.0126413 -3.08507e-19)
(0.007016 -0.0397167 7.22611e-20)
(0.00372811 -0.0674895 -7.49004e-20)
(-0.00329562 -0.0939081 -3.61255e-19)
(-0.0123812 -0.118493 2.06644e-20)
(-0.0224286 -0.141492 2.08977e-19)
(-0.0325423 -0.163391 -8.55586e-19)
(-0.0420552 -0.184719 6.42355e-19)
(-0.0505106 -0.205928 -6.28554e-19)
(-0.0576184 -0.227327 -3.97543e-19)
(-0.063217 -0.249057 3.57961e-19)
(-0.0672395 -0.271092 -7.7396e-19)
(-0.0696879 -0.293246 6.52297e-19)
(-0.0706137 -0.315192 -2.08527e-19)
(-0.0701063 -0.336477 -5.87852e-19)
(-0.0682886 -0.356537 1.44184e-19)
(-0.0653178 -0.374717 -1.3632e-19)
(-0.0613905 -0.390302 4.7245e-20)
(-0.0567495 -0.402554 -1.81355e-19)
(-0.0516982 -0.41077 -5.74131e-19)
(-0.0466227 -0.414365 1.31143e-19)
(-0.0419429 -0.412939 -2.93177e-21)
(-0.0378561 -0.406249 -5.48112e-19)
(-0.0344349 -0.394298 3.83491e-19)
(-0.0339668 -0.378478 -3.54413e-19)
(0.00224923 -0.00868048 1.24622e-19)
(0.00420851 -0.030183 2.40536e-19)
(0.000551068 -0.0541157 3.41248e-19)
(-0.00617346 -0.0779585 1.77184e-19)
(-0.0145073 -0.10088 -1.75246e-19)
(-0.023484 -0.122859 4.21321e-19)
(-0.0323031 -0.144178 3.14634e-19)
(-0.040366 -0.165225 -1.14421e-19)
(-0.0472671 -0.186363 4.12998e-19)
(-0.052757 -0.207854 -4.26458e-19)
(-0.0567075 -0.229822 -1.2496e-19)
(-0.059081 -0.252254 1.27754e-19)
(-0.0599047 -0.274994 2.52945e-19)
(-0.0592519 -0.29776 3.14974e-21)
(-0.0572289 -0.320143 1.57607e-19)
(-0.0539694 -0.341624 2.87399e-19)
(-0.0496345 -0.361573 -4.86115e-19)
(-0.0444176 -0.379269 5.97701e-19)
(-0.0385529 -0.393924 1.91615e-19)
(-0.0323362 -0.404727 5.84387e-20)
(-0.0261574 -0.410922 -6.82801e-19)
(-0.0204583 -0.411881 9.73375e-20)
(-0.0154567 -0.40708 1.45938e-19)
(-0.0112597 -0.396239 -3.13787e-20)
(-0.0105135 -0.380763 1.73904e-19)
(0.000785027 -0.0050239 1.06529e-20)
(0.00127581 -0.0212643 -6.20731e-19)
(-0.00262326 -0.0414585 -1.54591e-20)
(-0.00882136 -0.0627171 -1.59558e-19)
(-0.0161107 -0.0839013 -1.06127e-18)
(-0.0236761 -0.104737 9.24133e-19)
(-0.0308235 -0.125314 -6.62301e-19)
(-0.0370296 -0.145881 -3.27692e-20)
(-0.0419434 -0.166706 -3.1687e-19)
(-0.045358 -0.187998 5.50309e-19)
(-0.0471806 -0.209864 -5.94034e-19)
(-0.0474051 -0.232297 -2.78224e-19)
(-0.0460884 -0.25517 7.11428e-21)
(-0.0433312 -0.278248 -5.96836e-19)
(-0.0392649 -0.301182 8.12576e-19)
(-0.0340436 -0.323511 -9.30231e-19)
(-0.0278427 -0.344666 4.94706e-21)
(-0.0208615 -0.363962 1.41518e-19)
(-0.0133321 -0.380611 -3.37504e-19)
(-0.00554249 -0.393743 3.17042e-19)
(0.00211866 -0.402468 -4.52362e-19)
(0.00919449 -0.405935 -2.82952e-19)
(0.0154554 -0.403296 5.11393e-19)
(0.0207809 -0.393884 -5.45926e-19)
(0.022125 -0.379016 -3.2818e-21)
(-0.000700889 -0.00175242 -5.04581e-19)
(-0.00165948 -0.0131434 6.0374e-19)
(-0.00565923 -0.0297636 -1.87602e-19)
(-0.0111105 -0.0484677 3.6652e-19)
(-0.0170771 -0.0678644 3.98896e-19)
(-0.0229066 -0.0874549 -3.53924e-19)
(-0.0280199 -0.107148 -2.38056e-19)
(-0.0319737 -0.127055 -2.86021e-19)
(-0.0344745 -0.14735 2.62824e-19)
(-0.0353587 -0.168183 -1.66493e-20)
(-0.0345697 -0.189633 3.86393e-19)
(-0.0321343 -0.211692 3.81235e-19)
(-0.0281408 -0.234259 -4.52839e-19)
(-0.0227218 -0.257138 8.88911e-19)
(-0.0160397 -0.280038 -5.84721e-19)
(-0.00827791 -0.302572 -9.57915e-20)
(0.000363521 -0.324248 1.11176e-18)
(0.00966787 -0.344458 -5.14668e-19)
(0.0193958 -0.362466 3.12065e-19)
(0.029262 -0.37741 5.94871e-19)
(0.0388819 -0.388334 -3.84015e-19)
(0.0477889 -0.394211 4.32916e-20)
(0.0557499 -0.393868 -2.31738e-20)
(0.0626645 -0.386166 -1.31245e-19)
(0.065071 -0.372205 2.81927e-19)
(-0.00214662 0.0010737 1.15264e-19)
(-0.00447734 -0.00596647 -3.85758e-19)
(-0.00842807 -0.0192385 2.12499e-19)
(-0.0129249 -0.0354614 -2.23791e-21)
(-0.0173119 -0.0530539 1.63003e-19)
(-0.0211054 -0.0713251 -2.83558e-19)
(-0.0238464 -0.0900198 1.6327e-19)
(-0.0251757 -0.10912 4.47199e-19)
(-0.0248586 -0.128705 -1.31418e-20)
(-0.0227762 -0.14886 -2.31383e-19)
(-0.0189081 -0.16963 2.33918e-19)
(-0.0133138 -0.190995 -5.98733e-21)
(-0.00611431 -0.212866 -7.36404e-19)
(0.00252459 -0.235076 2.74492e-19)
(0.0124054 -0.257386 6.12327e-20)
(0.0233093 -0.279478 -1.02498e-19)
(0.0350027 -0.300943 -1.75905e-19)
(0.0472403 -0.321272 6.91708e-19)
(0.0597638 -0.339828 1.58632e-19)
(0.072282 -0.355823 -3.45836e-19)
(0.084413 -0.368323 -3.72692e-20)
(0.0956838 -0.376222 4.34828e-19)
(0.105862 -0.378082 -2.04903e-19)
(0.114912 -0.372252 7.87455e-20)
(0.118988 -0.359478 5.51435e-20)
(-0.00349521 0.00341728 -2.32534e-19)
(-0.00706624 0.000162918 2.40148e-19)
(-0.0108121 -0.0100446 -1.37382e-19)
(-0.0141624 -0.0239068 -4.45031e-19)
(-0.0167381 -0.039717 -4.13408e-19)
(-0.0182248 -0.0566294 -1.86534e-19)
(-0.0182859 -0.0742466 -1.54435e-19)
(-0.0166488 -0.092431 -4.60951e-19)
(-0.0131401 -0.111169 -1.86535e-19)
(-0.00768599 -0.13048 1.70019e-19)
(-0.000302803 -0.150366 -2.45115e-19)
(0.00891715 -0.170787 -2.60612e-19)
(0.0198207 -0.191651 -2.43251e-19)
(0.032208 -0.212808 4.35507e-19)
(0.045845 -0.234053 -9.18729e-19)
(0.0604739 -0.255123 5.12359e-19)
(0.0758215 -0.275686 -8.73286e-19)
(0.0916047 -0.295332 -1.30283e-19)
(0.107535 -0.313545 -4.54835e-19)
(0.123303 -0.329665 -9.91272e-20)
(0.138525 -0.342865 -1.24193e-19)
(0.152722 -0.352083 -3.90672e-19)
(0.16566 -0.355747 -3.12266e-20)
(0.177417 -0.351734 2.16027e-19)
(0.18387 -0.340325 -5.78762e-19)
(-0.00469789 0.00526469 1.99681e-19)
(-0.00932793 0.00518675 2.72359e-19)
(-0.0127076 -0.00229138 9.66857e-19)
(-0.0147344 -0.0139608 -1.71858e-19)
(-0.015292 -0.0280525 4.11491e-19)
(-0.0142306 -0.0436049 9.90648e-19)
(-0.0113361 -0.0601023 -2.71633e-19)
(-0.00642405 -0.0773012 3.70835e-19)
(0.000615785 -0.0951004 2.18258e-19)
(0.00981012 -0.113453 3.96729e-19)
(0.0211049 -0.132314 -8.03349e-20)
(0.0343745 -0.151615 5.40663e-20)
(0.0494332 -0.17125 -1.36052e-19)
(0.0660467 -0.191072 7.53654e-19)
(0.0839438 -0.210893 9.88201e-20)
(0.102826 -0.230484 6.83252e-19)
(0.122376 -0.249572 -1.69288e-19)
(0.142268 -0.267829 6.01003e-19)
(0.16217 -0.284853 7.63775e-20)
(0.181745 -0.300135 2.84522e-19)
(0.200598 -0.313016 -1.14463e-19)
(0.21824 -0.322591 -4.12077e-21)
(0.234427 -0.327333 6.11141e-19)
(0.249396 -0.324786 3.42082e-19)
(0.258945 -0.314721 -1.50953e-19)
(-0.00571648 0.00662466 -4.87454e-19)
(-0.0111809 0.00909216 -5.15688e-19)
(-0.0140259 0.00396612 -5.44651e-19)
(-0.0145632 -0.00572332 2.0055e-19)
(-0.0129162 -0.0182025 -4.07878e-19)
(-0.00909066 -0.032432 -6.14197e-20)
(-0.00299258 -0.0478038 -1.62921e-19)
(0.0054733 -0.0639838 -6.81757e-19)
(0.0163521 -0.0807916 -1.07218e-19)
(0.029621 -0.0981163 1.76883e-19)
(0.0451858 -0.115865 -5.56084e-19)
(0.0628855 -0.133936 7.71635e-19)
(0.0824998 -0.152201 -1.04579e-18)
(0.103759 -0.170506 2.49516e-19)
(0.126353 -0.188663 -6.33958e-19)
(0.14994 -0.206461 -5.04925e-19)
(0.174158 -0.223659 -2.56639e-20)
(0.198629 -0.239987 -6.89017e-20)
(0.222976 -0.255134 6.21013e-20)
(0.246817 -0.268721 -2.59473e-19)
(0.269737 -0.280274 -1.72647e-19)
(0.291228 -0.289121 2.00392e-19)
(0.311017 -0.293956 -5.39185e-19)
(0.329528 -0.292213 1.68763e-19)
(0.342777 -0.283188 1.08823e-19)
(-0.00652458 0.00752529 -8.71002e-20)
(-0.0125618 0.0119081 -1.51133e-19)
(-0.0146932 0.00872653 5.87751e-19)
(-0.0135787 0.000765038 2.21301e-19)
(-0.00955231 -0.0102463 2.95935e-19)
(-0.00276298 -0.0232258 -3.98034e-19)
(0.00676755 -0.0374985 -2.98469e-23)
(0.0190455 -0.0526566 -3.27863e-19)
(0.0340486 -0.0684508 6.08769e-19)
(0.051701 -0.0847117 1.99545e-19)
(0.0718646 -0.1013 2.23242e-19)
(0.0943388 -0.118077 -8.94412e-19)
(0.118865 -0.134893 1.09873e-18)
(0.145134 -0.151573 -3.31581e-19)
(0.172793 -0.167927 -2.32886e-19)
(0.201454 -0.183743 6.90015e-19)
(0.230706 -0.198793 2.97152e-19)
(0.260118 -0.21284 -7.50129e-19)
(0.289254 -0.225626 -2.9322e-19)
(0.317686 -0.236871 8.9033e-19)
(0.344958 -0.24625 -6.48804e-19)
(0.370538 -0.25334 3.8276e-19)
(0.394094 -0.257176 1.91262e-19)
(0.416228 -0.255324 -2.44942e-19)
(0.433552 -0.246703 -2.20581e-19)
(-0.00710751 0.00800994 -3.21163e-19)
(-0.0134253 0.0136996 5.17191e-19)
(-0.0146483 0.0120381 2.22633e-19)
(-0.0117134 0.00552244 -3.24055e-19)
(-0.00513278 -0.00419802 -5.19677e-20)
(0.00481598 -0.0160305 -3.46397e-19)
(0.0180015 -0.0292564 -1.39583e-19)
(0.0343418 -0.0434117 1.57555e-19)
(0.0537445 -0.0581898 -3.92557e-20)
(0.0760765 -0.0733698 3.00887e-19)
(0.10115 -0.0887695 -2.61552e-19)
(0.128718 -0.104217 7.25199e-19)
(0.158478 -0.119536 -8.95246e-19)
(0.190072 -0.134536 5.59869e-19)
(0.2231 -0.149012 6.84123e-19)
(0.257124 -0.162747 -9.77697e-19)
(0.291674 -0.175516 -2.87724e-19)
(0.326264 -0.187087 4.82635e-19)
(0.360398 -0.197231 -2.90223e-19)
(0.393581 -0.205715 2.63661e-19)
(0.42531 -0.212307 -6.30108e-19)
(0.455003 -0.216776 1.10168e-19)
(0.482238 -0.218528 3.6867e-19)
(0.507757 -0.215413 -5.60652e-19)
(0.529185 -0.206072 1.61623e-19)
(-0.00746112 0.0081323 -2.98061e-19)
(-0.0137418 0.0145594 9.68677e-19)
(-0.013839 0.013992 1.87844e-19)
(-0.00889741 0.00862173 -5.11745e-19)
(0.000426181 -7.83088e-06 3.6952e-19)
(0.0137407 -0.0108175 1.89514e-19)
(0.0308122 -0.0230662 3.05753e-19)
(0.0514714 -0.0362502 -1.96205e-20)
(0.0755525 -0.0500175 -3.18372e-20)
(0.102859 -0.0641046 -6.7696e-20)
(0.133146 -0.0782926 -2.96133e-19)
(0.16611 -0.0923804 -8.07904e-21)
(0.201392 -0.106168 6.92511e-19)
(0.238581 -0.119451 -1.1231e-18)
(0.277217 -0.132013 7.99633e-19)
(0.316803 -0.14363 1.62208e-19)
(0.356814 -0.154072 2.81419e-19)
(0.396704 -0.163105 -1.29803e-19)
(0.435918 -0.170498 1.19678e-18)
(0.473898 -0.176016 -7.22288e-19)
(0.510064 -0.179446 5.5344e-19)
(0.543747 -0.180627 1.17641e-19)
(0.574349 -0.179174 -3.66343e-19)
(0.602572 -0.173126 2.9965e-19)
(0.627321 -0.16107 4.32203e-19)
(-0.00758951 0.00795135 -8.70794e-20)
(-0.0134934 0.0145998 -3.41486e-19)
(-0.0122179 0.0147138 -5.88682e-19)
(-0.00505298 0.0101838 -3.38886e-19)
(0.00723052 0.00243429 -4.75764e-20)
(0.0241431 -0.00748729 -1.35934e-19)
(0.0453547 -0.0188352 -6.3681e-19)
(0.0706088 -0.0310808 1.0586e-19)
(0.0996619 -0.0438391 -7.24876e-19)
(0.132245 -0.0568135 -5.64692e-20)
(0.168043 -0.0697566 -6.99355e-19)
(0.206685 -0.0824449 -2.47966e-19)
(0.247741 -0.0946635 1.41409e-19)
(0.290728 -0.106198 -6.73617e-19)
(0.335118 -0.11683 7.24819e-21)
(0.380351 -0.126337 -5.6605e-19)
(0.425845 -0.134492 2.13321e-19)
(0.471012 -0.14106 -7.59901e-19)
(0.515273 -0.145801 -1.21474e-19)
(0.558057 -0.148456 -1.25458e-20)
(0.598788 -0.148757 -1.16232e-19)
(0.636785 -0.146445 -1.19575e-19)
(0.671313 -0.140974 -6.513e-20)
(0.702449 -0.130265 -2.17869e-19)
(0.728876 -0.113693 -4.26914e-19)
(-0.00750197 0.00752648 1.58099e-19)
(-0.012669 0.0139427 4.3379e-19)
(-0.00973673 0.0143534 5.25905e-19)
(-9.00982e-05 0.0103687 -4.2346e-19)
(0.0154123 0.00329142 7.93213e-19)
(0.0361948 -0.00587479 -4.33779e-19)
(0.0618363 -0.0163931 2.37396e-19)
(0.0919913 -0.0277234 3.7353e-19)
(0.12633 -0.0394596 3.41686e-19)
(0.164499 -0.0512827 1.6697e-19)
(0.206096 -0.0629266 2.702e-19)
(0.250661 -0.0741554 1.58265e-19)
(0.297674 -0.0847494 1.05588e-18)
(0.346563 -0.0944975 -7.62306e-19)
(0.396713 -0.103194 8.63613e-19)
(0.447488 -0.110634 -3.51561e-19)
(0.498249 -0.116617 7.46975e-19)
(0.548379 -0.120938 -4.27978e-20)
(0.597312 -0.123385 -1.51044e-19)
(0.644554 -0.123722 -2.14786e-20)
(0.68971 -0.121674 5.19497e-19)
(0.732511 -0.116855 -4.78588e-19)
(0.773037 -0.108365 3.37167e-19)
(0.811877 -0.0944611 3.32796e-19)
(0.845597 -0.0786569 5.75831e-20)
(-0.00720947 0.00691331 1.09556e-19)
(-0.0112584 0.012712 -6.20161e-19)
(-0.00634156 0.0130754 -2.27032e-19)
(0.00609721 0.00936615 2.09942e-19)
(0.0251305 0.0027707 -6.49253e-19)
(0.0501052 -0.00575712 -1.29124e-19)
(0.0805105 -0.0154997 9.03209e-20)
(0.115906 -0.0259168 3.60138e-19)
(0.155863 -0.036593 -9.1434e-19)
(0.199924 -0.0471985 6.98256e-20)
(0.247578 -0.0574599 -2.69743e-19)
(0.298252 -0.067141 -8.15483e-19)
(0.351307 -0.0760307 5.54476e-19)
(0.406055 -0.0839366 2.43034e-20)
(0.461774 -0.0906819 -1.64529e-20)
(0.517733 -0.0961035 5.38556e-19)
(0.573222 -0.100052 -9.38526e-19)
(0.62758 -0.102391 7.26503e-19)
(0.680232 -0.102994 -1.40944e-19)
(0.730715 -0.101747 3.82027e-19)
(0.778716 -0.0985464 -6.39092e-19)
(0.824105 -0.0932843 3.38569e-19)
(0.867105 -0.0856744 -5.86597e-19)
(0.908287 -0.0753378 5.63164e-19)
(0.943802 -0.0661377 -1.92681e-19)
(-0.00672108 0.00616069 7.35698e-19)
(-0.00924674 0.0110256 -1.24093e-19)
(-0.00196778 0.0110494 9.23918e-19)
(0.0136327 0.00738473 4.31614e-19)
(0.0365693 0.00111256 3.57484e-20)
(0.0661142 -0.00686473 1.91261e-19)
(0.101663 -0.0158561 4.66369e-20)
(0.142668 -0.0253313 7.90515e-19)
(0.188583 -0.0348773 2.56331e-19)
(0.238823 -0.0441656 -3.41547e-20)
(0.292738 -0.0529289 7.07723e-20)
(0.349608 -0.0609448 2.6844e-19)
(0.408649 -0.068026 2.21306e-19)
(0.469031 -0.0740142 4.65012e-19)
(0.529902 -0.0787778 -5.34021e-19)
(0.590423 -0.08221 1.55545e-19)
(0.649802 -0.0842284 5.2104e-20)
(0.707327 -0.0847749 2.24489e-19)
(0.7624 -0.0838165 5.76216e-19)
(0.814564 -0.0813481 -3.87365e-19)
(0.86352 -0.0774 1.81901e-20)
(0.909142 -0.0720423 -4.8425e-19)
(0.951537 -0.0653087 4.32125e-19)
(0.991005 -0.0571709 -3.97197e-19)
(1.02428 -0.0502571 5.53388e-20)
(-0.00604094 0.00530884 -6.13177e-19)
(-0.0066094 0.00899151 4.86643e-19)
(0.00346293 0.00844262 -7.9782e-19)
(0.0226574 0.00464217 6.90723e-20)
(0.0499321 -0.00142093 5.70887e-19)
(0.0844797 -0.00889467 -9.57416e-19)
(0.125591 -0.0171201 7.65501e-19)
(0.172592 -0.0255867 -1.22128e-18)
(0.224794 -0.0338954 2.44192e-19)
(0.28145 -0.0417332 5.22705e-20)
(0.341737 -0.048854 4.11599e-19)
(0.404758 -0.055065 -1.37359e-18)
(0.469552 -0.0602185 2.39051e-19)
(0.535126 -0.064206 2.48634e-19)
(0.600488 -0.0669547 -1.46381e-19)
(0.664691 -0.0684245 -8.89233e-19)
(0.726867 -0.0686058 4.24132e-19)
(0.78627 -0.0675182 7.54436e-19)
(0.842298 -0.0652098 -7.74231e-19)
(0.894517 -0.0617591 5.47721e-19)
(0.942662 -0.0572799 -6.77402e-19)
(0.986632 -0.0519276 4.82195e-19)
(1.0265 -0.0458444 -1.20665e-19)
(1.06249 -0.0390338 6.7896e-19)
(1.09217 -0.0331667 -7.56627e-19)
(-0.0051658 0.00438873 8.72066e-20)
(-0.00330868 0.00670384 7.15521e-20)
(0.0100438 0.00541347 1.75523e-19)
(0.0333266 0.00135653 6.35251e-19)
(0.0654326 -0.00455739 -2.05943e-20)
(0.105461 -0.0115246 1.43495e-19)
(0.152579 -0.0189231 6.46465e-19)
(0.205959 -0.0262722 2.62361e-19)
(0.264732 -0.0332002 -8.70838e-20)
(0.327955 -0.0394253 7.41147e-19)
(0.394596 -0.0447394 -8.43326e-19)
(0.463546 -0.0489971 1.29394e-18)
(0.533649 -0.0521067 -5.11538e-19)
(0.60374 -0.0540237 9.17274e-19)
(0.672691 -0.0547446 -3.10036e-19)
(0.739466 -0.0543009 1.11283e-19)
(0.803154 -0.0527541 1.33534e-19)
(0.863013 -0.0501915 -2.41516e-19)
(0.918482 -0.046722 2.06481e-19)
(0.969198 -0.0424753 1.28486e-19)
(1.01498 -0.037602 1.68719e-19)
(1.05582 -0.0322755 3.35925e-19)
(1.09185 -0.0266492 -3.8952e-20)
(1.12334 -0.0207097 -1.49549e-19)
(1.14871 -0.0154795 4.03566e-19)
(-0.00408361 0.00342272 -5.09897e-19)
(0.000707881 0.00424285 5.59558e-20)
(0.0178821 0.00210858 -1.01332e-18)
(0.0458041 -0.00226052 -2.43419e-19)
(0.0832826 -0.00802428 -4.60713e-19)
(0.129302 -0.0144262 -9.89346e-20)
(0.182871 -0.0208877 -5.00064e-19)
(0.242976 -0.0269689 -3.01162e-19)
(0.308528 -0.0323415 3.98913e-19)
(0.378345 -0.0367723 -6.69105e-19)
(0.45115 -0.0401106 -1.86396e-19)
(0.525603 -0.0422764 5.80135e-21)
(0.600342 -0.0432503 -1.24399e-18)
(0.674038 -0.0430634 5.25697e-19)
(0.745459 -0.0417877 -7.57135e-19)
(0.813518 -0.0395261 -2.11447e-20)
(0.877317 -0.0364033 1.38946e-19)
(0.936174 -0.0325587 -2.35369e-19)
(0.989635 -0.0281396 -2.00856e-19)
(1.03747 -0.0232976 9.03725e-20)
(1.07963 -0.0181863 9.70128e-20)
(1.11627 -0.0129606 -6.34282e-19)
(1.14764 -0.0077442 3.57548e-19)
(1.17413 -0.00250158 1.62831e-19)
(1.19486 0.00215094 2.94723e-20)
(-0.0027732 0.00242611 5.19881e-19)
(0.00550707 0.00167614 -5.74647e-19)
(0.0270955 -0.00133847 8.13786e-19)
(0.0602542 -0.00600792 1.29271e-19)
(0.103679 -0.0115568 -3.95453e-20)
(0.156204 -0.0172775 -2.78578e-19)
(0.216645 -0.0226434 4.24728e-20)
(0.283751 -0.0272701 4.30299e-19)
(0.356171 -0.0308902 -5.96433e-19)
(0.432444 -0.0333398 6.28197e-19)
(0.511025 -0.0345458 -6.64337e-20)
(0.590329 -0.0345115 3.3569e-20)
(0.668801 -0.0333035 8.10096e-19)
(0.744984 -0.0310365 1.06916e-18)
(0.817587 -0.0278586 -4.20718e-19)
(0.885538 -0.0239372 7.20423e-19)
(0.948021 -0.019447 3.49731e-19)
(1.00449 -0.01456 -2.21605e-19)
(1.05465 -0.00943862 6.60904e-19)
(1.09847 -0.00423121 -3.81e-20)
(1.13609 0.000929755 -6.05858e-19)
(1.16784 0.00592774 6.1704e-19)
(1.19414 0.0106843 7.50322e-20)
(1.21552 0.0152565 -3.56168e-19)
(1.23163 0.0192768 1.14166e-19)
(-0.0012051 0.00140941 -7.20397e-19)
(0.0111676 -0.000938218 7.82622e-19)
(0.0378076 -0.00480574 -4.99726e-19)
(0.0768333 -0.00969691 -1.55812e-19)
(0.126789 -0.0149031 -3.55111e-19)
(0.186315 -0.0197716 6.32733e-19)
(0.253985 -0.0238403 -3.6855e-19)
(0.328261 -0.0267982 -1.6974e-19)
(0.407485 -0.0284598 -4.86686e-19)
(0.489886 -0.0287526 1.35625e-20)
(0.573634 -0.0277009 -1.92105e-19)
(0.656914 -0.0254078 9.06146e-20)
(0.738014 -0.022035 -9.68692e-19)
(0.815403 -0.0177824 2.77178e-19)
(0.887805 -0.0128682 -3.25756e-19)
(0.954243 -0.00751132 -2.55215e-19)
(1.01406 -0.00191748 7.74808e-20)
(1.06691 0.00373047 -3.58842e-19)
(1.11272 0.00927822 -1.41828e-19)
(1.1517 0.014602 4.29855e-19)
(1.1842 0.0196076 1.69423e-19)
(1.21074 0.0242277 -7.25516e-19)
(1.23192 0.0284351 5.16377e-19)
(1.24837 0.0323084 -9.51865e-20)
(1.26012 0.0356199 -1.90595e-19)
(0.000656809 0.000380945 -2.60267e-19)
(0.0177764 -0.00354754 -1.44456e-19)
(0.0501405 -0.00817982 -2.82796e-20)
(0.0956792 -0.0131502 2.17254e-19)
(0.152738 -0.0178266 2.36834e-19)
(0.219711 -0.0216226 2.06629e-19)
(0.294871 -0.0241585 2.5994e-19)
(0.376346 -0.0252178 3.97914e-19)
(0.462127 -0.0247213 6.10926e-19)
(0.550115 -0.0227099 6.03818e-19)
(0.638205 -0.0193241 3.18132e-19)
(0.724388 -0.0147777 -8.66676e-20)
(0.806853 -0.00933093 2.17219e-20)
(0.884077 -0.00326299 -2.22024e-20)