/*--------------------------------*- C++ -*----------------------------------*\
  =========                 |
  \\      /  F ield         | OpenFOAM: The Open Source CFD Toolbox
   \\    /   O peration     | Website:  https://openfoam.org
    \\  /    A nd           | Version:  6.0
     \\/     M anipulation  |
\*---------------------------------------------------------------------------*/
FoamFile
{
    version     2.0;
    format      ascii;
    class       volScalarField;
    location    "15";
    object      p;
}
// * * * * * * * * * * * * * * * * * * * * * * * * * * * * * * * * * * * * * //

dimensions      [0 2 -2 0 0 0 0];

internalField   nonuniform List<scalar> 
8000
(
-0.282944
-0.284098
-0.284843
-0.285379
-0.285829
-0.286213
-0.286551
-0.286857
-0.287143
-0.287417
-0.287685
-0.287954
-0.288229
-0.288517
-0.288824
-0.289162
-0.289535
-0.289904
-0.29025
-0.291009
-0.283088
-0.284232
-0.28497
-0.285499
-0.285942
-0.28632
-0.28665
-0.286948
-0.287226
-0.287491
-0.28775
-0.288009
-0.288274
-0.288551
-0.288848
-0.289175
-0.289538
-0.289897
-0.290233
-0.290987
-0.283382
-0.284505
-0.285228
-0.285744
-0.286173
-0.286537
-0.286852
-0.287134
-0.287396
-0.287643
-0.287883
-0.288123
-0.288367
-0.288623
-0.288898
-0.289204
-0.289548
-0.289889
-0.290205
-0.290949
-0.28382
-0.284915
-0.285616
-0.286112
-0.28652
-0.286861
-0.287153
-0.287411
-0.287647
-0.287867
-0.288078
-0.288287
-0.2885
-0.288723
-0.288964
-0.289238
-0.289551
-0.289863
-0.290149
-0.290879
-0.284399
-0.285457
-0.28613
-0.286599
-0.286978
-0.287289
-0.287549
-0.287774
-0.287973
-0.288155
-0.288326
-0.288492
-0.28866
-0.288836
-0.289031
-0.289259
-0.289529
-0.289801
-0.290045
-0.290755
-0.285112
-0.286128
-0.286766
-0.287201
-0.287544
-0.287816
-0.288035
-0.288216
-0.288368
-0.2885
-0.288618
-0.288727
-0.288835
-0.28895
-0.289082
-0.289248
-0.28946
-0.289679
-0.289869
-0.290553
-0.285954
-0.286923
-0.287522
-0.287916
-0.288215
-0.288439
-0.288606
-0.288732
-0.288826
-0.288895
-0.288945
-0.288983
-0.289015
-0.289051
-0.289102
-0.289188
-0.289324
-0.289472
-0.289595
-0.290245
-0.28692
-0.28784
-0.288393
-0.28874
-0.288986
-0.289153
-0.289259
-0.28932
-0.289343
-0.289336
-0.289305
-0.289254
-0.289192
-0.289129
-0.289079
-0.289062
-0.289101
-0.289159
-0.289198
-0.289806
-0.288009
-0.288876
-0.289379
-0.289672
-0.289857
-0.289958
-0.289993
-0.289977
-0.289919
-0.289824
-0.289696
-0.289541
-0.289367
-0.289184
-0.289008
-0.288865
-0.28878
-0.288722
-0.288657
-0.289213
-0.289221
-0.290033
-0.29048
-0.29071
-0.290827
-0.290854
-0.290809
-0.290708
-0.290558
-0.290363
-0.290127
-0.289853
-0.289548
-0.289224
-0.288897
-0.288596
-0.288356
-0.28815
-0.287951
-0.288441
-0.290559
-0.291312
-0.291696
-0.291858
-0.291898
-0.291842
-0.291709
-0.291515
-0.291266
-0.290963
-0.290609
-0.290205
-0.289754
-0.289268
-0.288763
-0.288273
-0.287838
-0.287439
-0.287066
-0.287466
-0.292029
-0.292717
-0.293032
-0.293116
-0.293071
-0.292925
-0.292698
-0.292406
-0.292052
-0.291638
-0.291161
-0.290618
-0.290011
-0.289346
-0.288639
-0.287924
-0.287247
-0.286599
-0.285986
-0.286255
-0.29364
-0.294256
-0.294492
-0.29449
-0.29435
-0.294105
-0.293779
-0.293384
-0.292925
-0.292399
-0.2918
-0.291118
-0.29035
-0.289495
-0.288564
-0.28759
-0.286619
-0.285647
-0.284701
-0.284764
-0.295404
-0.295937
-0.296083
-0.295982
-0.295737
-0.295386
-0.294954
-0.294454
-0.29389
-0.293255
-0.292537
-0.291722
-0.290797
-0.28975
-0.288582
-0.287316
-0.285996
-0.28461
-0.283197
-0.28293
-0.297333
-0.297769
-0.297812
-0.297598
-0.297236
-0.296768
-0.296222
-0.295613
-0.294943
-0.294202
-0.293374
-0.292436
-0.291362
-0.290129
-0.288719
-0.28714
-0.285418
-0.283519
-0.281464
-0.28067
-0.299443
-0.299767
-0.299688
-0.299346
-0.29885
-0.298251
-0.29758
-0.296855
-0.296075
-0.29523
-0.294297
-0.293245
-0.292036
-0.290629
-0.288984
-0.28708
-0.284917
-0.282412
-0.279516
-0.277921
-0.301753
-0.301944
-0.301725
-0.301233
-0.300584
-0.299835
-0.299024
-0.298169
-0.297271
-0.296317
-0.29528
-0.29412
-0.292787
-0.291222
-0.289358
-0.287139
-0.284524
-0.281365
-0.277458
-0.274714
-0.304285
-0.304322
-0.303938
-0.303273
-0.302446
-0.301524
-0.30055
-0.299547
-0.298516
-0.297442
-0.296294
-0.295027
-0.293579
-0.291874
-0.289815
-0.287305
-0.284249
-0.280417
-0.275349
-0.270974
-0.307067
-0.306923
-0.306348
-0.305481
-0.304448
-0.303327
-0.302166
-0.300991
-0.299807
-0.298597
-0.29733
-0.295959
-0.294415
-0.292611
-0.290427
-0.287717
-0.284303
-0.279785
-0.273255
-0.26645
-0.310134
-0.30978
-0.308982
-0.307883
-0.306613
-0.305263
-0.303887
-0.302516
-0.301157
-0.299797
-0.298409
-0.29695
-0.295367
-0.293589
-0.291524
-0.289058
-0.286017
-0.28189
-0.275355
-0.267611
-0.313527
-0.312928
-0.311873
-0.310509
-0.308972
-0.307362
-0.305745
-0.304154
-0.302601
-0.301079
-0.299568
-0.298045
-0.296485
-0.294874
-0.293229
-0.291628
-0.290261
-0.289448
-0.290475
-0.299971
-0.317296
-0.31641
-0.315063
-0.3134
-0.311565
-0.309669
-0.307786
-0.305956
-0.304193
-0.302498
-0.300861
-0.299276
-0.297745
-0.296299
-0.295018
-0.294065
-0.293738
-0.294497
-0.297359
-0.30665
-0.321497
-0.320276
-0.318597
-0.316604
-0.314441
-0.312236
-0.310069
-0.307984
-0.306001
-0.304125
-0.302356
-0.300701
-0.299183
-0.297856
-0.296826
-0.296267
-0.296451
-0.297737
-0.300636
-0.307406
-0.326188
-0.324579
-0.322527
-0.320171
-0.317656
-0.315122
-0.312657
-0.310307
-0.308094
-0.306028
-0.304114
-0.302364
-0.30081
-0.299511
-0.298565
-0.298115
-0.298348
-0.299477
-0.301724
-0.306024
-0.331432
-0.329373
-0.326906
-0.324158
-0.321269
-0.318391
-0.315616
-0.31299
-0.310536
-0.308261
-0.30617
-0.304275
-0.302603
-0.301203
-0.300148
-0.299531
-0.299456
-0.300011
-0.301282
-0.303394
-0.337286
-0.334711
-0.331788
-0.328621
-0.32534
-0.322104
-0.319006
-0.316091
-0.313373
-0.310854
-0.308533
-0.306414
-0.304514
-0.302863
-0.301506
-0.300493
-0.299868
-0.299646
-0.299861
-0.300259
-0.343804
-0.340643
-0.337223
-0.333613
-0.329923
-0.326315
-0.322879
-0.319649
-0.316629
-0.31381
-0.311179
-0.308731
-0.306469
-0.30441
-0.302575
-0.300988
-0.29966
-0.298582
-0.297765
-0.296846
-0.351027
-0.347211
-0.343256
-0.339183
-0.335067
-0.33107
-0.32727
-0.323685
-0.320303
-0.3171
-0.314053
-0.311146
-0.308377
-0.305754
-0.303289
-0.300997
-0.298881
-0.296932
-0.295157
-0.293232
-0.358987
-0.354449
-0.349925
-0.34537
-0.34081
-0.336399
-0.332195
-0.328193
-0.324361
-0.320662
-0.317066
-0.313556
-0.31013
-0.306799
-0.303581
-0.300493
-0.297545
-0.294742
-0.292088
-0.289348
-0.367697
-0.362375
-0.357254
-0.3522
-0.347175
-0.342311
-0.337641
-0.333131
-0.328733
-0.3244
-0.320105
-0.315838
-0.311613
-0.307452
-0.303386
-0.299444
-0.29565
-0.29202
-0.288555
-0.285109
-0.377149
-0.37099
-0.365251
-0.359683
-0.354161
-0.348787
-0.343562
-0.338425
-0.333314
-0.328188
-0.323033
-0.317862
-0.31271
-0.307623
-0.302647
-0.297825
-0.293188
-0.288761
-0.28454
-0.280443
-0.387312
-0.380276
-0.373903
-0.367801
-0.361737
-0.355773
-0.349874
-0.343958
-0.337966
-0.331875
-0.325702
-0.319495
-0.313317
-0.307238
-0.301319
-0.295612
-0.29015
-0.28496
-0.280028
-0.275312
-0.398125
-0.390187
-0.38317
-0.376508
-0.369839
-0.363174
-0.35645
-0.349578
-0.342521
-0.335294
-0.327962
-0.320611
-0.313339
-0.306234
-0.299366
-0.292789
-0.286534
-0.280618
-0.275014
-0.269706
-0.409494
-0.400643
-0.392978
-0.38572
-0.378357
-0.370851
-0.363122
-0.355099
-0.346791
-0.338273
-0.329664
-0.321097
-0.312695
-0.304558
-0.29676
-0.289345
-0.282335
-0.275734
-0.269498
-0.263627
-0.421288
-0.411533
-0.403216
-0.395309
-0.387137
-0.378619
-0.369684
-0.36031
-0.350577
-0.340637
-0.330671
-0.320849
-0.311313
-0.302166
-0.293473
-0.285264
-0.277546
-0.270307
-0.26348
-0.257086
-0.433336
-0.422703
-0.413729
-0.405102
-0.395977
-0.386253
-0.375901
-0.364984
-0.353679
-0.342223
-0.330855
-0.319775
-0.309131
-0.299016
-0.289478
-0.280528
-0.272154
-0.264327
-0.256956
-0.250085
-0.445427
-0.43396
-0.424319
-0.414878
-0.404631
-0.39349
-0.381515
-0.368887
-0.3559
-0.342876
-0.330102
-0.317793
-0.30609
-0.295065
-0.284743
-0.275112
-0.266139
-0.257777
-0.249912
-0.242618
-0.457308
-0.445066
-0.43474
-0.424371
-0.412814
-0.400045
-0.386259
-0.371789
-0.357054
-0.342455
-0.328307
-0.314826
-0.30213
-0.290266
-0.27923
-0.268982
-0.259473
-0.250635
-0.242328
-0.234671
-0.468689
-0.455745
-0.444708
-0.433275
-0.420213
-0.405617
-0.389867
-0.373471
-0.356971
-0.340828
-0.325372
-0.310797
-0.297193
-0.284571
-0.272895
-0.262102
-0.252122
-0.242868
-0.234178
-0.226221
-0.479247
-0.465685
-0.453899
-0.441256
-0.426497
-0.409902
-0.392081
-0.373728
-0.355494
-0.33788
-0.321207
-0.305637
-0.291219
-0.277927
-0.265692
-0.254428
-0.244047
-0.234441
-0.225428
-0.217238
-0.488635
-0.474545
-0.461963
-0.447959
-0.431329
-0.412606
-0.392661
-0.372373
-0.352481
-0.333502
-0.315727
-0.299274
-0.284147
-0.27028
-0.257573
-0.245917
-0.235208
-0.225317
-0.216045
-0.207692
-0.496482
-0.481962
-0.468532
-0.453021
-0.434377
-0.413449
-0.391388
-0.369241
-0.347808
-0.327597
-0.308853
-0.291642
-0.275918
-0.261576
-0.248488
-0.236523
-0.225563
-0.215458
-0.205995
-0.197551
-0.502415
-0.487562
-0.473231
-0.456086
-0.435329
-0.412179
-0.388068
-0.364186
-0.341366
-0.320079
-0.300514
-0.282678
-0.266475
-0.251765
-0.238391
-0.226205
-0.215075
-0.204831
-0.195247
-0.186784
-0.506063
-0.490976
-0.475692
-0.456814
-0.433901
-0.408574
-0.382535
-0.357086
-0.333059
-0.310871
-0.290644
-0.272324
-0.255768
-0.2408
-0.227241
-0.214926
-0.20371
-0.193403
-0.183774
-0.175368
-0.507068
-0.491843
-0.475569
-0.454898
-0.429842
-0.402446
-0.374653
-0.34784
-0.32281
-0.29991
-0.279188
-0.260531
-0.243751
-0.228641
-0.215001
-0.202653
-0.19144
-0.181151
-0.171554
-0.163282
-0.505098
-0.48983
-0.472544
-0.450066
-0.422944
-0.393644
-0.364315
-0.33637
-0.310557
-0.287143
-0.2661
-0.247257
-0.230387
-0.215256
-0.201644
-0.189363
-0.178244
-0.168058
-0.158574
-0.150514
-0.499857
-0.484638
-0.466343
-0.442094
-0.413042
-0.382056
-0.351445
-0.322621
-0.296257
-0.272532
-0.251346
-0.232472
-0.21565
-0.200621
-0.18715
-0.175039
-0.164109
-0.154114
-0.144829
-0.137058
-0.49109
-0.476012
-0.456738
-0.430808
-0.400019
-0.367607
-0.335995
-0.306559
-0.279884
-0.256055
-0.234905
-0.216159
-0.199524
-0.184723
-0.171508
-0.159674
-0.149031
-0.139318
-0.130319
-0.122918
-0.478599
-0.463753
-0.443559
-0.416091
-0.383806
-0.350262
-0.317948
-0.288177
-0.261429
-0.237705
-0.21677
-0.198309
-0.182003
-0.167558
-0.154718
-0.143269
-0.133016
-0.12368
-0.115058
-0.108104
-0.462241
-0.447717
-0.426697
-0.397879
-0.364379
-0.330024
-0.297319
-0.267487
-0.240907
-0.217491
-0.196949
-0.178929
-0.163093
-0.149133
-0.136787
-0.125836
-0.116076
-0.107217
-0.0990682
-0.0926425
-0.441935
-0.427826
-0.406104
-0.376166
-0.341766
-0.306932
-0.274148
-0.24453
-0.218349
-0.19544
-0.175462
-0.158038
-0.14281
-0.129464
-0.117731
-0.107391
-0.0982326
-0.0899548
-0.0823832
-0.0765738
-0.417666
-0.404065
-0.381795
-0.351002
-0.316034
-0.281064
-0.248508
-0.219367
-0.193808
-0.171596
-0.152348
-0.135664
-0.121179
-0.108571
-0.0975708
-0.0879553
-0.0795078
-0.0719221
-0.0650397
-0.059942
-0.389483
-0.376486
-0.353846
-0.322489
-0.287299
-0.252529
-0.220499
-0.192086
-0.167359
-0.14602
-0.127655
-0.111851
-0.0982345
-0.0864841
-0.07633
-0.0675496
-0.0599229
-0.0531441
-0.0470701
-0.0427709
-0.3575
-0.345203
-0.322392
-0.290779
-0.255716
-0.221474
-0.190252
-0.1628
-0.139097
-0.118793
-0.101452
-0.0866506
-0.0740174
-0.0632335
-0.0540323
-0.0461934
-0.0394977
-0.033646
-0.0284984
-0.0250513
-0.321895
-0.310393
-0.287626
-0.256073
-0.221478
-0.188077
-0.157926
-0.131648
-0.109141
-0.0900152
-0.0738185
-0.0601274
-0.0485748
-0.0388505
-0.030696
-0.0238974
-0.0182424
-0.0134419
-0.00933454
-0.00678339
-0.282901
-0.27229
-0.249789
-0.218613
-0.184817
-0.152549
-0.123707
-0.098794
-0.0776354
-0.0598101
-0.0448583
-0.0323619
-0.0219649
-0.013371
-0.00633688
-0.000661214
0.00385596
0.00748696
0.0104156
0.0119021
-0.240806
-0.231178
-0.20917
-0.178682
-0.145997
-0.11513
-0.0878125
-0.0644312
-0.0447499
-0.0283243
-0.0146943
-0.0034527
0.00573927
0.0131559
0.0190175
0.0235091
0.0268141
0.029149
0.0306324
0.0306048
-0.195944
-0.187387
-0.166097
-0.136597
-0.105312
-0.0760889
-0.0504857
-0.0287796
-0.010681
0.00427066
0.0165311
0.0264918
0.0344676
0.0406999
0.0453744
0.0486551
0.0506841
0.0515013
0.0509941
0.0488807
-0.148691
-0.141288
-0.120934
-0.0927011
-0.0630827
-0.0357209
-0.0119987
0.00790984
0.0243409
0.0377682
0.0486432
0.0573439
0.0641619
0.0693042
0.0729193
0.0751393
0.0759914
0.0751164
0.0720448
0.067797
-0.099456
-0.0932806
-0.0740691
-0.0473639
-0.0196507
0.00565706
0.0273521
0.0453555
0.0600448
0.0719058
0.0813909
0.088876
0.09465
0.0989183
0.101842
0.103572
0.104008
0.102296
0.0977317
0.0931334
-0.0486736
-0.0437913
-0.0259124
-0.000969647
0.0246273
0.0477135
0.0672532
0.0832543
0.0961281
0.106369
0.114432
0.120695
0.125462
0.128977
0.131486
0.133265
0.134287
0.133566
0.130841
0.13443
0.00321076
0.0067426
0.023116
0.0460888
0.0693879
0.0901103
0.107386
0.121299
0.132287
0.140846
0.147423
0.152393
0.156057
0.158671
0.160496
0.161797
0.16256
0.162312
0.161951
0.1677
0.0557337
0.0578694
0.0725871
0.0934139
0.114266
0.13251
0.147434
0.159189
0.16823
0.17505
0.180087
0.183704
0.186197
0.187821
0.188826
0.189432
0.189623
0.189103
0.188785
0.193416
0.108429
0.109136
0.122073
0.140611
0.1589
0.174582
0.187091
0.196635
0.20368
0.208711
0.212147
0.214338
0.215566
0.216073
0.216089
0.215811
0.215235
0.214136
0.213267
0.216392
0.160833
0.160091
0.171149
0.187292
0.202939
0.216004
0.226061
0.233365
0.238387
0.241595
0.243393
0.244109
0.244006
0.243307
0.242217
0.240905
0.239352
0.237362
0.235625
0.237349
0.212488
0.210291
0.219402
0.23308
0.246041
0.256468
0.264065
0.269124
0.272116
0.273491
0.273632
0.272846
0.271375
0.269422
0.26717
0.264759
0.262157
0.259189
0.25651
0.256891
0.262948
0.259306
0.266431
0.277611
0.287878
0.295681
0.300836
0.303672
0.304651
0.304206
0.302697
0.300406
0.297559
0.294335
0.290898
0.287362
0.283686
0.279722
0.276098
0.27521
0.311783
0.306719
0.311849
0.320536
0.328139
0.33336
0.336124
0.336783
0.335791
0.333562
0.330431
0.32666
0.322454
0.317975
0.313363
0.308717
0.303987
0.299053
0.294508
0.292414
0.35858
0.352133
0.35529
0.361523
0.366527
0.369242
0.36969
0.368243
0.365346
0.36139
0.356689
0.351483
0.345958
0.340259
0.334509
0.328788
0.323047
0.317189
0.311763
0.308525
0.402948
0.395172
0.396406
0.400261
0.402762
0.403076
0.40131
0.397852
0.393136
0.387532
0.38133
0.374754
0.367969
0.361106
0.35427
0.347528
0.340833
0.334108
0.327846
0.323529
0.444521
0.435483
0.434872
0.436457
0.436584
0.434627
0.430773
0.425422
0.418992
0.411835
0.404222
0.396355
0.388384
0.380426
0.372571
0.364873
0.35729
0.349761
0.342717
0.337388
0.482956
0.472738
0.470387
0.469841
0.467748
0.463679
0.457884
0.450775
0.442755
0.434158
0.425234
0.41617
0.407102
0.398129
0.389332
0.380754
0.372356
0.36409
0.356322
0.350054
0.517941
0.506639
0.502677
0.500164
0.496034
0.490031
0.482463
0.473748
0.464277
0.454366
0.444247
0.434092
0.424023
0.414127
0.404473
0.395095
0.385961
0.377031
0.368602
0.361476
0.549193
0.536913
0.53149
0.527202
0.52124
0.513501
0.504344
0.494192
0.483423
0.472336
0.461149
0.450018
0.439054
0.428335
0.417916
0.407827
0.398039
0.388518
0.379497
0.3716
0.576459
0.563319
0.556608
0.550756
0.543187
0.533928
0.523382
0.511974
0.500071
0.487957
0.475836
0.463854
0.45211
0.440672
0.429588
0.418879
0.408524
0.398492
0.388952
0.380378
0.59952
0.58565
0.577837
0.570654
0.561718
0.55117
0.539448
0.526976
0.514113
0.50113
0.48822
0.475518
0.463114
0.451069
0.439422
0.428191
0.417357
0.406894
0.396914
0.387764
0.618194
0.603728
0.595017
0.586749
0.576704
0.56511
0.552434
0.539099
0.525458
0.511771
0.498222
0.484937
0.472
0.459463
0.447361
0.435707
0.424489
0.413678
0.403339
0.393721
0.63233
0.617411
0.608016
0.598923
0.588036
0.57565
0.56225
0.548263
0.534033
0.519813
0.50578
0.492054
0.478712
0.465804
0.453357
0.441385
0.429875
0.418801
0.40819
0.398215
0.641816
0.626592
0.616736
0.607089
0.595635
0.582716
0.568832
0.554406
0.539781
0.525203
0.510846
0.496823
0.48321
0.470053
0.457375
0.445189
0.433484
0.422233
0.411439
0.401225
0.646577
0.6312
0.621112
0.611185
0.599447
0.586261
0.572133
0.557488
0.542664
0.527907
0.513386
0.499215
0.485466
0.472183
0.45939
0.447096
0.435293
0.423954
0.413068
0.402733
0.646574
0.631198
0.62111
0.611183
0.599445
0.586259
0.572131
0.557486
0.542662
0.527905
0.513384
0.499213
0.485465
0.472182
0.459389
0.447095
0.435292
0.423953
0.413067
0.402732
0.641809
0.626585
0.616729
0.607082
0.595629
0.582711
0.568827
0.554402
0.539776
0.525199
0.510842
0.496819
0.483207
0.470049
0.457372
0.445185
0.433481
0.42223
0.411436
0.401222
0.632318
0.617399
0.608004
0.598913
0.588026
0.57564
0.562242
0.548255
0.534026
0.519806
0.505773
0.492047
0.478706
0.465798
0.453352
0.441379
0.42987
0.418796
0.408185
0.398211
0.618177
0.603711
0.595001
0.586734
0.57669
0.565097
0.552422
0.539088
0.525448
0.511761
0.498213
0.484928
0.471991
0.459455
0.447353
0.4357
0.424481
0.41367
0.403332
0.393714
0.599499
0.585628
0.577817
0.570634
0.561701
0.551154
0.539433
0.526961
0.514099
0.501117
0.488208
0.475506
0.463103
0.451058
0.439412
0.428181
0.417348
0.406885
0.396905
0.387756
0.576432
0.563293
0.556583
0.550733
0.543165
0.533907
0.523363
0.511956
0.500054
0.487941
0.475821
0.46384
0.452097
0.440659
0.429575
0.418867
0.408512
0.39848
0.388941
0.380367
0.549161
0.536882
0.531461
0.527174
0.521215
0.513477
0.504322
0.494171
0.483403
0.472317
0.461131
0.450001
0.439038
0.428319
0.417902
0.407812
0.398025
0.388505
0.379484
0.371588
0.517905
0.506603
0.502642
0.500132
0.496005
0.490003
0.482437
0.473723
0.464255
0.454344
0.444227
0.434073
0.424004
0.41411
0.404456
0.395079
0.385945
0.377015
0.368587
0.361462
0.482915
0.472698
0.470349
0.469805
0.467715
0.463648
0.457855
0.450747
0.442729
0.434133
0.425211
0.416148
0.407081
0.398109
0.389313
0.380735
0.372338
0.364072
0.356305
0.350038
0.444475
0.435437
0.434829
0.436417
0.436546
0.434592
0.43074
0.425391
0.418963
0.411808
0.404196
0.39633
0.388361
0.380403
0.372549
0.364852
0.35727
0.349741
0.342698
0.33737
0.402897
0.395122
0.396358
0.400216
0.402721
0.403037
0.401273
0.397818
0.393104
0.387501
0.381302
0.374727
0.367943
0.361081
0.354246
0.347505
0.34081
0.334086
0.327825
0.323508
0.358524
0.352078
0.355237
0.361474
0.366481
0.3692
0.36965
0.368206
0.365311
0.361357
0.356657
0.351453
0.34593
0.340232
0.334483
0.328763
0.323023
0.317166
0.311739
0.308503
0.311722
0.306659
0.311792
0.320482
0.32809
0.333314
0.336081
0.336742
0.335753
0.333526
0.330396
0.326628
0.322423
0.317945
0.313335
0.308689
0.30396
0.299027
0.294483
0.29239
0.262883
0.259242
0.26637
0.277553
0.287825
0.295631
0.30079
0.303628
0.30461
0.304167
0.302659
0.300371
0.297525
0.294303
0.290866
0.287332
0.283657
0.279694
0.276071
0.275184
0.212418
0.210222
0.219337
0.233019
0.245983
0.256415
0.264015
0.269077
0.272071
0.273449
0.273593
0.272808
0.271339
0.269387
0.267137
0.264727
0.262126
0.259159
0.256481
0.256863
0.160758
0.160017
0.171079
0.187227
0.202877
0.215947
0.226007
0.233315
0.23834
0.241551
0.243351
0.244068
0.243967
0.24327
0.242182
0.24087
0.239319
0.237329
0.235594
0.237319
0.10835
0.109058
0.121998
0.140541
0.158835
0.174521
0.187034
0.196581
0.20363
0.208663
0.212102
0.214295
0.215525
0.216033
0.216051
0.215774
0.2152
0.214102
0.213233
0.21636
0.0556501
0.0577873
0.0725086
0.0933402
0.114197
0.132446
0.147374
0.159132
0.168176
0.174999
0.180039
0.183658
0.186153
0.187779
0.188785
0.189393
0.189585
0.189066
0.188749
0.193382
0.00312289
0.00665635
0.0230335
0.0460112
0.0693154
0.0900425
0.107322
0.121239
0.13223
0.140792
0.147372
0.152344
0.15601
0.158626
0.160453
0.161755
0.16252
0.162272
0.161913
0.167664
-0.0487656
-0.0438815
-0.0259988
-0.001051
0.0245512
0.0476423
0.0671865
0.0831913
0.0960686
0.106313
0.114378
0.120644
0.125413
0.12893
0.13144
0.13322
0.134244
0.133524
0.130799
0.134391
-0.0995518
-0.0933746
-0.0741592
-0.0474489
-0.0197303
0.00558261
0.0272822
0.0452896
0.0599824
0.0718464
0.0813343
0.0888218
0.0945978
0.098868
0.101794
0.103525
0.103962
0.102251
0.0976873
0.0930895
-0.148791
-0.141385
-0.121028
-0.0927895
-0.0631655
-0.0357985
-0.0120716
0.00784103
0.0242757
0.0377061
0.0485839
0.057287
0.0641072
0.0692513
0.072868
0.0750895
0.0759428
0.0750687
0.0719977
0.0677501
-0.196047
-0.187488
-0.166194
-0.136688
-0.105398
-0.0761695
-0.0505616
-0.0288512
-0.0107489
0.00420598
0.0164693
0.0264324
0.0344104
0.0406446
0.0453208
0.0486028
0.0506331
0.0514513
0.0509448
0.0488317
-0.240911
-0.231281
-0.20927
-0.178777
-0.146086
-0.115213
-0.087891
-0.0645054
-0.0448203
-0.0283915
-0.0147585
-0.00351444
0.00567974
0.0130984
0.0189616
0.0234547
0.026761
0.029097
0.0305813
0.0305542
-0.283009
-0.272396
-0.249892
-0.218711
-0.184909
-0.152635
-0.123788
-0.0988707
-0.0777083
-0.0598796
-0.0449248
-0.0324259
-0.0220266
-0.0134307
-0.00639488
-0.000717689
0.00380082
0.007433
0.0103627
0.01185
-0.322006
-0.310502
-0.287731
-0.256173
-0.221572
-0.188166
-0.158009
-0.131727
-0.109216
-0.090087
-0.0738872
-0.0601935
-0.0486387
-0.0389123
-0.030756
-0.0239558
-0.0182995
-0.0134977
-0.00938922
-0.00683722
-0.357613
-0.345314
-0.3225
-0.290881
-0.255812
-0.221565
-0.190338
-0.162882
-0.139174
-0.118867
-0.101522
-0.0867187
-0.0740832
-0.0632972
-0.0540942
-0.0462537
-0.0395565
-0.0337035
-0.0285548
-0.0251069
-0.389597
-0.376598
-0.353955
-0.322593
-0.287397
-0.252622
-0.220587
-0.192169
-0.167438
-0.146096
-0.127728
-0.111921
-0.098302
-0.0865496
-0.0763936
-0.0676116
-0.0599835
-0.0532033
-0.0471282
-0.042828
-0.417781
-0.404179
-0.381905
-0.351107
-0.316134
-0.281158
-0.248597
-0.219452
-0.193889
-0.171673
-0.152422
-0.135736
-0.121248
-0.108638
-0.0976361
-0.088019
-0.07957
-0.0719829
-0.0650994
-0.0600007
-0.442051
-0.427941
-0.406216
-0.376273
-0.341867
-0.307028
-0.274238
-0.244616
-0.218431
-0.195519
-0.175538
-0.158111
-0.14288
-0.129532
-0.117798
-0.107456
-0.0982963
-0.0900172
-0.0824444
-0.076634
-0.462357
-0.447832
-0.426809
-0.397986
-0.364481
-0.330121
-0.29741
-0.267575
-0.240991
-0.217572
-0.197026
-0.179004
-0.163165
-0.149204
-0.136855
-0.125903
-0.116141
-0.10728
-0.0991308
-0.0927042
-0.478715
-0.463868
-0.443671
-0.416198
-0.383908
-0.350359
-0.318041
-0.288265
-0.261514
-0.237787
-0.216848
-0.198385
-0.182077
-0.16763
-0.154788
-0.143337
-0.133082
-0.123745
-0.115122
-0.108167
-0.491206
-0.476126
-0.456849
-0.430916
-0.400122
-0.367705
-0.336088
-0.306649
-0.279969
-0.256138
-0.234984
-0.216236
-0.199599
-0.184795
-0.171579
-0.159743
-0.149099
-0.139385
-0.130385
-0.122983
-0.499971
-0.48475
-0.466453
-0.442201
-0.413145
-0.382154
-0.351539
-0.32271
-0.296343
-0.272615
-0.251426
-0.23255
-0.215726
-0.200695
-0.187222
-0.17511
-0.164178
-0.154182
-0.144896
-0.137124
-0.505211
-0.489941
-0.472653
-0.450172
-0.423046
-0.393742
-0.364409
-0.33646
-0.310644
-0.287226
-0.266181
-0.247335
-0.230463
-0.21533
-0.201717
-0.189435
-0.178314
-0.168127
-0.158643
-0.150581
-0.507179
-0.491952
-0.475676
-0.455002
-0.429943
-0.402543
-0.374746
-0.34793
-0.322896
-0.299993
-0.279269
-0.26061
-0.243828
-0.228716
-0.215075
-0.202726
-0.191511
-0.181222
-0.171624
-0.16335
-0.506171
-0.491083
-0.475797
-0.456917
-0.434001
-0.40867
-0.382628
-0.357175
-0.333145
-0.310955
-0.290726
-0.272403
-0.255845
-0.240876
-0.227316
-0.215
-0.203782
-0.193474
-0.183845
-0.175438
-0.502521
-0.487666
-0.473333
-0.456186
-0.435427
-0.412274
-0.388159
-0.364274
-0.341452
-0.320162
-0.300596
-0.282758
-0.266553
-0.251841
-0.238466
-0.22628
-0.215148
-0.204903
-0.195319
-0.186855
-0.496585
-0.482063
-0.468632
-0.453119
-0.434473
-0.413542
-0.391478
-0.369328
-0.347894
-0.32768
-0.308935
-0.291722
-0.275996
-0.261653
-0.248564
-0.236598
-0.225637
-0.215532
-0.206068
-0.197623
-0.488734
-0.474643
-0.46206
-0.448055
-0.431422
-0.412697
-0.39275
-0.37246
-0.352566
-0.333584
-0.315808
-0.299354
-0.284225
-0.270357
-0.257649
-0.245992
-0.235283
-0.225392
-0.216119
-0.207766
-0.479344
-0.46578
-0.453993
-0.441349
-0.426588
-0.409991
-0.392168
-0.373813
-0.355577
-0.337961
-0.321287
-0.305716
-0.291297
-0.278004
-0.265769
-0.254504
-0.244123
-0.234516
-0.225503
-0.217313
-0.468782
-0.455836
-0.444798
-0.433364
-0.420301
-0.405704
-0.389952
-0.373555
-0.357053
-0.340909
-0.325451
-0.310876
-0.297271
-0.284648
-0.272972
-0.262178
-0.252199
-0.242944
-0.234254
-0.226297
-0.457397
-0.445154
-0.434827
-0.424457
-0.412899
-0.400129
-0.386342
-0.371871
-0.357134
-0.342534
-0.328385
-0.314903
-0.302207
-0.290343
-0.279306
-0.269059
-0.25955
-0.250712
-0.242405
-0.234748
-0.445513
-0.434044
-0.424402
-0.414961
-0.404712
-0.393571
-0.381595
-0.368966
-0.355978
-0.342954
-0.33018
-0.31787
-0.306166
-0.295142
-0.28482
-0.275188
-0.266216
-0.257855
-0.24999
-0.242697
-0.433419
-0.422785
-0.41381
-0.405182
-0.396055
-0.386331
-0.375978
-0.36506
-0.353755
-0.342299
-0.330931
-0.319851
-0.309207
-0.299092
-0.289555
-0.280605
-0.272231
-0.264405
-0.257035
-0.250165
-0.421367
-0.411611
-0.403293
-0.395386
-0.387212
-0.378694
-0.369759
-0.360384
-0.350651
-0.340711
-0.330744
-0.320923
-0.311387
-0.302242
-0.293549
-0.285341
-0.277623
-0.270385
-0.26356
-0.257167
-0.40957
-0.400718
-0.393052
-0.385793
-0.378429
-0.370923
-0.363194
-0.355171
-0.346862
-0.338344
-0.329736
-0.321169
-0.312768
-0.304632
-0.296835
-0.289421
-0.282412
-0.275813
-0.269578
-0.263709
-0.398197
-0.390258
-0.383241
-0.376578
-0.369908
-0.363243
-0.356518
-0.349647
-0.342589
-0.335363
-0.328031
-0.320682
-0.31341
-0.306306
-0.299441
-0.292865
-0.286611
-0.280697
-0.275095
-0.269788
-0.387381
-0.380345
-0.373971
-0.367868
-0.361804
-0.355839
-0.349939
-0.344024
-0.338031
-0.331941
-0.325769
-0.319563
-0.313387
-0.307309
-0.301392
-0.295687
-0.290228
-0.28504
-0.280109
-0.275396
-0.377216
-0.371057
-0.365316
-0.359747
-0.354225
-0.34885
-0.343624
-0.338487
-0.333377
-0.328251
-0.323097
-0.317927
-0.312777
-0.307692
-0.302719
-0.297899
-0.293264
-0.28884
-0.284622
-0.280528
-0.367761
-0.362439
-0.357317
-0.352263
-0.347237
-0.342372
-0.337701
-0.333191
-0.328792
-0.32446
-0.320166
-0.315901
-0.311677
-0.307518
-0.303455
-0.299517
-0.295726
-0.292099
-0.288637
-0.285195
-0.359049
-0.354511
-0.349986
-0.34543
-0.34087
-0.336457
-0.332252
-0.328249
-0.324417
-0.320719
-0.317124
-0.313615
-0.310192
-0.306864
-0.303649
-0.300564
-0.29762
-0.294821
-0.29217
-0.289434
-0.351087
-0.347271
-0.343315
-0.339242
-0.335124
-0.331126
-0.327325
-0.323739
-0.320356
-0.317154
-0.314107
-0.311203
-0.308436
-0.305816
-0.303355
-0.301066
-0.298955
-0.29701
-0.295239
-0.293318
-0.343862
-0.340701
-0.337281
-0.33367
-0.329978
-0.326368
-0.322931
-0.3197
-0.31668
-0.31386
-0.311231
-0.308784
-0.306525
-0.304469
-0.302638
-0.301056
-0.299733
-0.298659
-0.297847
-0.296933
-0.337344
-0.334768
-0.331845
-0.328677
-0.325393
-0.322155
-0.319056
-0.316139
-0.31342
-0.310902
-0.308581
-0.306464
-0.304567
-0.30292
-0.301567
-0.300559
-0.299939
-0.299723
-0.299944
-0.300347
-0.331489
-0.32943
-0.326962
-0.324213
-0.321322
-0.318442
-0.315664
-0.313036
-0.310581
-0.308306
-0.306216
-0.304322
-0.302653
-0.301258
-0.300207
-0.299596
-0.299527
-0.300089
-0.301365
-0.303482
-0.326245
-0.324636
-0.322583
-0.320225
-0.317708
-0.315172
-0.312703
-0.310351
-0.308137
-0.306071
-0.304157
-0.302409
-0.300858
-0.299564
-0.298623
-0.298179
-0.29842
-0.299555
-0.301809
-0.306115
-0.321555
-0.320334
-0.318654
-0.316658
-0.314493
-0.312285
-0.310115
-0.308027
-0.306042
-0.304166
-0.302398
-0.300746
-0.299231
-0.297909
-0.296884
-0.296333
-0.296524
-0.297817
-0.300724
-0.3075
-0.317357
-0.31647
-0.315121
-0.313456
-0.311618
-0.309719
-0.307833
-0.305999
-0.304235
-0.302539
-0.300903
-0.29932
-0.297793
-0.296352
-0.295078
-0.294133
-0.293814
-0.294582
-0.297452
-0.306749
-0.313591
-0.31299
-0.311934
-0.310567
-0.309026
-0.307413
-0.305792
-0.304199
-0.302644
-0.301121
-0.299611
-0.298091
-0.296534
-0.294929
-0.293291
-0.2917
-0.290342
-0.289539
-0.290575
-0.300078
-0.310202
-0.309846
-0.309046
-0.307943
-0.30667
-0.305316
-0.303937
-0.302563
-0.301202
-0.299842
-0.298454
-0.296998
-0.295419
-0.293647
-0.291591
-0.289134
-0.286104
-0.281988
-0.275466
-0.267733
-0.30714
-0.306994
-0.306415
-0.305545
-0.304508
-0.303383
-0.302219
-0.301042
-0.299855
-0.298645
-0.29738
-0.296011
-0.294472
-0.292674
-0.290499
-0.287798
-0.284396
-0.27989
-0.273373
-0.266581
-0.304363
-0.304396
-0.304009
-0.30334
-0.30251
-0.301584
-0.300608
-0.299602
-0.29857
-0.297496
-0.296349
-0.295085
-0.293642
-0.291943
-0.289893
-0.287392
-0.284349
-0.28053
-0.275476
-0.271116
-0.301837
-0.302023
-0.3018
-0.301305
-0.300652
-0.2999
-0.299086
-0.298228
-0.29733
-0.296376
-0.29534
-0.294184
-0.292856
-0.291298
-0.289443
-0.287234
-0.284631
-0.281486
-0.277594
-0.274867
-0.299532
-0.29985
-0.299767
-0.299421
-0.298923
-0.29832
-0.297647
-0.29692
-0.29614
-0.295295
-0.294364
-0.293316
-0.292112
-0.290712
-0.289076
-0.287183
-0.285032
-0.282542
-0.279661
-0.278084
-0.297426
-0.297856
-0.297894
-0.297677
-0.297312
-0.296841
-0.296293
-0.295683
-0.295013
-0.294273
-0.293448
-0.292513
-0.291445
-0.29022
-0.288819
-0.287251
-0.285542
-0.283658
-0.281618
-0.280842
-0.295501
-0.296027
-0.296168
-0.296064
-0.295816
-0.295463
-0.295029
-0.294528
-0.293964
-0.293331
-0.292616
-0.291806
-0.290886
-0.289847
-0.288688
-0.287434
-0.286127
-0.284756
-0.283358
-0.283109
-0.29374
-0.294348
-0.29458
-0.294573
-0.294431
-0.294184
-0.293857
-0.293462
-0.293004
-0.29248
-0.291883
-0.291207
-0.290445
-0.289598
-0.288676
-0.287713
-0.286755
-0.285797
-0.284867
-0.284948
-0.292129
-0.29281
-0.29312
-0.293201
-0.293153
-0.293005
-0.292778
-0.292485
-0.292133
-0.291721
-0.291248
-0.29071
-0.29011
-0.289452
-0.288754
-0.288051
-0.287387
-0.286752
-0.286154
-0.286441
-0.290659
-0.291404
-0.291784
-0.291942
-0.291979
-0.291922
-0.291789
-0.291595
-0.291347
-0.291048
-0.290697
-0.290298
-0.289854
-0.289375
-0.28888
-0.288401
-0.287978
-0.287593
-0.287233
-0.287652
-0.289318
-0.290122
-0.290565
-0.290793
-0.290907
-0.290933
-0.290888
-0.290787
-0.290638
-0.290446
-0.290214
-0.289946
-0.289647
-0.289331
-0.289012
-0.288723
-0.288494
-0.288301
-0.288116
-0.288623
-0.288102
-0.288962
-0.28946
-0.28975