/*--------------------------------*- C++ -*----------------------------------*\
  =========                 |
  \\      /  F ield         | OpenFOAM: The Open Source CFD Toolbox
   \\    /   O peration     | Website:  https://openfoam.org
    \\  /    A nd           | Version:  6.0
     \\/     M anipulation  |
\*---------------------------------------------------------------------------*/
FoamFile
{
    version     2.0;
    format      ascii;
    class       volScalarField;
    location    "15";
    object      p;
}
// * * * * * * * * * * * * * * * * * * * * * * * * * * * * * * * * * * * * * //

dimensions      [0 2 -2 0 0 0 0];

internalField   nonuniform List<scalar> 
4000
(
-0.488612
-0.474522
-0.46194
-0.447936
-0.431305
-0.412582
-0.392638
-0.372349
-0.352457
-0.333477
-0.315702
-0.299249
-0.284122
-0.270254
-0.257547
-0.245891
-0.235182
-0.225291
-0.216019
-0.207666
-0.496459
-0.481938
-0.468509
-0.452998
-0.434353
-0.413425
-0.391364
-0.369216
-0.347784
-0.327572
-0.308828
-0.291617
-0.275893
-0.26155
-0.248462
-0.236497
-0.225537
-0.215432
-0.205969
-0.197524
-0.502392
-0.487539
-0.473207
-0.456062
-0.435305
-0.412155
-0.388044
-0.364161
-0.341341
-0.320054
-0.300489
-0.282653
-0.26645
-0.251739
-0.238365
-0.22618
-0.215049
-0.204804
-0.195221
-0.186758
-0.506039
-0.490952
-0.475668
-0.45679
-0.433877
-0.40855
-0.382511
-0.357061
-0.333034
-0.310846
-0.290619
-0.272299
-0.255742
-0.240774
-0.227215
-0.2149
-0.203684
-0.193377
-0.183747
-0.175341
-0.507044
-0.491819
-0.475545
-0.454874
-0.429818
-0.402422
-0.374629
-0.347815
-0.322785
-0.299884
-0.279163
-0.260505
-0.243725
-0.228615
-0.214975
-0.202627
-0.191413
-0.181125
-0.171528
-0.163255
-0.505074
-0.489806
-0.47252
-0.450041
-0.42292
-0.39362
-0.364291
-0.336345
-0.310532
-0.287117
-0.266074
-0.247231
-0.230361
-0.21523
-0.201618
-0.189337
-0.178217
-0.168031
-0.158548
-0.150487
-0.499832
-0.484613
-0.466318
-0.442069
-0.413018
-0.382031
-0.35142
-0.322596
-0.296232
-0.272507
-0.25132
-0.232447
-0.215624
-0.200595
-0.187124
-0.175013
-0.164082
-0.154087
-0.144802
-0.137032
-0.491066
-0.475988
-0.456713
-0.430783
-0.399995
-0.367582
-0.33597
-0.306534
-0.279858
-0.25603
-0.234879
-0.216133
-0.199498
-0.184697
-0.171482
-0.159648
-0.149005
-0.139292
-0.130292
-0.122891
-0.478574
-0.463728
-0.443534
-0.416066
-0.383781
-0.350237
-0.317923
-0.288151
-0.261404
-0.23768
-0.216744
-0.198283
-0.181977
-0.167532
-0.154692
-0.143243
-0.132989
-0.123653
-0.115031
-0.108077
-0.462216
-0.447692
-0.426672
-0.397854
-0.364354
-0.329999
-0.297293
-0.267462
-0.240882
-0.217466
-0.196923
-0.178903
-0.163067
-0.149107
-0.136761
-0.12581
-0.116049
-0.10719
-0.0990413
-0.0926155
-0.44191
-0.427801
-0.406079
-0.376141
-0.34174
-0.306907
-0.274122
-0.244504
-0.218323
-0.195414
-0.175436
-0.158012
-0.142783
-0.129437
-0.117705
-0.107365
-0.0982059
-0.089928
-0.0823563
-0.0765467
-0.41764
-0.40404
-0.38177
-0.350977
-0.316009
-0.281038
-0.248482
-0.219341
-0.193783
-0.17157
-0.152322
-0.135638
-0.121153
-0.108545
-0.0975443
-0.0879287
-0.0794811
-0.0718952
-0.0650127
-0.0599149
-0.389457
-0.37646
-0.35382
-0.322463
-0.287274
-0.252504
-0.220474
-0.192061
-0.167333
-0.145994
-0.127629
-0.111825
-0.0982082
-0.0864577
-0.0763035
-0.067523
-0.0598962
-0.0531172
-0.0470431
-0.0427438
-0.357475
-0.345177
-0.322367
-0.290753
-0.25569
-0.221448
-0.190227
-0.162775
-0.139071
-0.118767
-0.101425
-0.0866244
-0.0739911
-0.0632071
-0.0540058
-0.0461668
-0.0394709
-0.0336191
-0.0284714
-0.0250242
-0.321869
-0.310367
-0.2876
-0.256047
-0.221453
-0.188052
-0.1579
-0.131622
-0.109115
-0.0899893
-0.0737924
-0.0601012
-0.0485486
-0.0388241
-0.0306695
-0.0238708
-0.0182157
-0.013415
-0.00930752
-0.00675625
-0.282875
-0.272264
-0.249763
-0.218588
-0.184792
-0.152523
-0.123681
-0.0987682
-0.0776096
-0.0597841
-0.0448322
-0.0323357
-0.0219386
-0.0133446
-0.00631036
-0.000634568
0.00388273
0.00751386
0.0104426
0.0119293
-0.24078
-0.231152
-0.209144
-0.178657
-0.145972
-0.115104
-0.0877868
-0.0644054
-0.044724
-0.0282984
-0.0146682
-0.00342654
0.00576555
0.0131823
0.019044
0.0235358
0.0268409
0.0291759
0.0306594
0.030632
-0.195918
-0.187361
-0.166072
-0.136571
-0.105287
-0.0760633
-0.0504601
-0.0287539
-0.0106552
0.00429658
0.0165572
0.026518
0.0344938
0.0407262
0.0454009
0.0486817
0.0507109
0.0515282
0.0510211
0.0489079
-0.148666
-0.141262
-0.120908
-0.0926756
-0.0630572
-0.0356954
-0.0119731
0.00793553
0.0243667
0.0377941
0.0486692
0.05737
0.0641882
0.0693306
0.0729458
0.075166
0.0760182
0.0751433
0.0720719
0.0678242
-0.0994305
-0.0932551
-0.0740436
-0.0473385
-0.0196253
0.00568255
0.0273777
0.0453812
0.0600706
0.0719317
0.0814169
0.0889022
0.0946763
0.0989448
0.101869
0.103598
0.104034
0.102322
0.0977588
0.0931605
-0.0486482
-0.0437659
-0.025887
-0.000944286
0.0246527
0.0477389
0.0672788
0.0832799
0.0961539
0.106395
0.114458
0.120721
0.125489
0.129004
0.131512
0.133292
0.134314
0.133593
0.130868
0.134458
0.00323607
0.00676792
0.0231413
0.0461141
0.0694132
0.0901357
0.107411
0.121325
0.132312
0.140872
0.14745
0.152419
0.156084
0.158697
0.160523
0.161824
0.162587
0.162339
0.161979
0.167728
0.0557589
0.0578946
0.0726123
0.0934392
0.114291
0.132535
0.14746
0.159215
0.168256
0.175076
0.180113
0.18373
0.186224
0.187848
0.188852
0.189459
0.18965
0.18913
0.188813
0.193444
0.108454
0.109161
0.122098
0.140636
0.158925
0.174607
0.187116
0.196661
0.203706
0.208737
0.212173
0.214364
0.215593
0.2161
0.216116
0.215838
0.215262
0.214164
0.213294
0.21642
0.160858
0.160116
0.171174
0.187317
0.202964
0.216029
0.226086
0.233391
0.238413
0.241621
0.24342
0.244135
0.244033
0.243334
0.242244
0.240932
0.239379
0.237389
0.235653
0.237377
0.212513
0.210316
0.219427
0.233105
0.246066
0.256494
0.26409
0.26915
0.272142
0.273517
0.273659
0.272872
0.271402
0.269449
0.267197
0.264786
0.262185
0.259216
0.256538
0.256919
0.262973
0.259331
0.266456
0.277636
0.287903
0.295706
0.300862
0.303698
0.304677
0.304232
0.302723
0.300433
0.297585
0.294362
0.290925
0.287389
0.283714
0.27975
0.276125
0.275238
0.311808
0.306744
0.311874
0.320561
0.328164
0.333386
0.336149
0.336808
0.335817
0.333588
0.330457
0.326687
0.322481
0.318001
0.31339
0.308744
0.304014
0.299081
0.294536
0.292441
0.358605
0.352158
0.355315
0.361548
0.366552
0.369268
0.369715
0.368269
0.365372
0.361416
0.356715
0.35151
0.345985
0.340286
0.334537
0.328815
0.323075
0.317217
0.31179
0.308553
0.402973
0.395197
0.39643
0.400286
0.402787
0.403101
0.401335
0.397878
0.393162
0.387558
0.381357
0.374781
0.367996
0.361133
0.354298
0.347555
0.34086
0.334135
0.327874
0.323557
0.444546
0.435508
0.434897
0.436482
0.436609
0.434653
0.430799
0.425448
0.419018
0.411862
0.404248
0.396381
0.388411
0.380453
0.372598
0.364901
0.357318
0.349789
0.342745
0.337416
0.482981
0.472763
0.470412
0.469866
0.467774
0.463704
0.45791
0.450801
0.442781
0.434184
0.425261
0.416197
0.407129
0.398157
0.38936
0.380781
0.372383
0.364118
0.35635
0.350083
0.517966
0.506664
0.502701
0.500189
0.49606
0.490056
0.482489
0.473774
0.464304
0.454392
0.444274
0.434119
0.42405
0.414155
0.404501
0.395123
0.385989
0.377059
0.36863
0.361504
0.549217
0.536938
0.531515
0.527227
0.521266
0.513526
0.50437
0.494218
0.483449
0.472362
0.461175
0.450045
0.439081
0.428362
0.417944
0.407855
0.398067
0.388547
0.379526
0.371629
0.576484
0.563344
0.556633
0.550781
0.543212
0.533953
0.523408
0.512
0.500097
0.487983
0.475863
0.463881
0.452138
0.4407
0.429616
0.418907
0.408552
0.39852
0.38898
0.380407
0.599546
0.585675
0.577862
0.570679
0.561744
0.551196
0.539474
0.527002
0.514139
0.501156
0.488247
0.475545
0.463142
0.451097
0.43945
0.428219
0.417386
0.406923
0.396942
0.387793
0.618219
0.603753
0.595042
0.586774
0.576729
0.565136
0.55246
0.539126
0.525485
0.511798
0.49825
0.484965
0.472027
0.459491
0.447389
0.435736
0.424517
0.413706
0.403368
0.393749
0.632355
0.617436
0.608041
0.598949
0.588062
0.575676
0.562277
0.54829
0.53406
0.51984
0.505808
0.492081
0.47874
0.465832
0.453386
0.441413
0.429903
0.418829
0.408219
0.398244
0.641842
0.626618
0.616762
0.607115
0.595661
0.582743
0.568858
0.554433
0.539808
0.525231
0.510873
0.496851
0.483238
0.470081
0.457404
0.445217
0.433512
0.422262
0.411468
0.401254
0.646603
0.631226
0.621138
0.611212
0.599474
0.586288
0.57216
0.557515
0.542691
0.527934
0.513413
0.499243
0.485494
0.472211
0.459418
0.447124
0.435322
0.423983
0.413097
0.402762
0.6466
0.631224
0.621136
0.61121
0.599472
0.586286
0.572158
0.557513
0.54269
0.527933
0.513412
0.499241
0.485493
0.47221
0.459417
0.447124
0.435321
0.423982
0.413096
0.402762
0.641835
0.626612
0.616756
0.607109
0.595656
0.582738
0.568854
0.554429
0.539804
0.525227
0.51087
0.496847
0.483235
0.470078
0.457401
0.445214
0.43351
0.42226
0.411466
0.401252
0.632345
0.617426
0.608032
0.59894
0.588054
0.575668
0.56227
0.548283
0.534054
0.519834
0.505802
0.492076
0.478735
0.465827
0.453381
0.441408
0.429899
0.418825
0.408215
0.39824
0.618205
0.603739
0.595029
0.586762
0.576718
0.565125
0.55245
0.539116
0.525476
0.51179
0.498242
0.484957
0.47202
0.459484
0.447382
0.435729
0.424511
0.4137
0.403362
0.393744
0.599527
0.585656
0.577845
0.570663
0.561729
0.551182
0.539461
0.52699
0.514128
0.501146
0.488237
0.475535
0.463132
0.451088
0.439441
0.42821
0.417378
0.406915
0.396935
0.387786
0.576461
0.563322
0.556612
0.550762
0.543194
0.533936
0.523392
0.511985
0.500083
0.48797
0.475851
0.463869
0.452126
0.440689
0.429605
0.418897
0.408542
0.39851
0.388971
0.380398
0.54919
0.536911
0.53149
0.527204
0.521244
0.513506
0.504351
0.4942
0.483433
0.472347
0.461161
0.450031
0.439068
0.428349
0.417932
0.407842
0.398055
0.388535
0.379515
0.371618
0.517935
0.506633
0.502673
0.500162
0.496035
0.490033
0.482467
0.473753
0.464284
0.454374
0.444257
0.434103
0.424034
0.41414
0.404487
0.395109
0.385976
0.377046
0.368617
0.361492
0.482946
0.472729
0.470379
0.469835
0.467745
0.463678
0.457885
0.450777
0.44276
0.434164
0.425241
0.416179
0.407111
0.39814
0.389343
0.380765
0.372368
0.364103
0.356335
0.350069
0.444506
0.435469
0.43486
0.436448
0.436577
0.434623
0.430771
0.425422
0.418994
0.411839
0.404226
0.396361
0.388392
0.380434
0.37258
0.364883
0.357301
0.349772
0.342729
0.337401
0.40293
0.395154
0.39639
0.400248
0.402752
0.403069
0.401305
0.39785
0.393135
0.387533
0.381333
0.374758
0.367974
0.361112
0.354278
0.347536
0.340842
0.334117
0.327856
0.32354
0.358557
0.352111
0.35527
0.361507
0.366514
0.369232
0.369682
0.368238
0.365343
0.361389
0.356689
0.351485
0.345961
0.340263
0.334515
0.328794
0.323054
0.317197
0.311771
0.308534
0.311756
0.306694
0.311826
0.320516
0.328123
0.333347
0.336113
0.336775
0.335785
0.333558
0.330429
0.32666
0.322455
0.317977
0.313367
0.308721
0.303992
0.299059
0.294515
0.292421
0.262918
0.259277
0.266404
0.277588
0.287859
0.295664
0.300823
0.303661
0.304643
0.3042
0.302692
0.300403
0.297557
0.294335
0.290899
0.287364
0.28369
0.279726
0.276103
0.275216
0.212454
0.210258
0.219372
0.233054
0.246018
0.256449
0.264048
0.269111
0.272105
0.273483
0.273626
0.272841
0.271372
0.26942
0.267169
0.26476
0.262159
0.259191
0.256514
0.256896
0.160795
0.160054
0.171116
0.187263
0.202913
0.215982
0.226042
0.233349
0.238374
0.241584
0.243384
0.244102
0.244001
0.243303
0.242215
0.240903
0.239352
0.237362
0.235627
0.237352
0.108388
0.109096
0.122036
0.140578
0.158871
0.174557
0.187069
0.196616
0.203665
0.208697
0.212136
0.214329
0.215559
0.216067
0.216084
0.215808
0.215233
0.214135
0.213266
0.216394
0.0556892
0.0578263
0.0725471
0.093378
0.114234
0.132482
0.14741
0.159168
0.168212
0.175035
0.180073
0.183692
0.186188
0.187813
0.188819
0.189427
0.189619
0.1891
0.188783
0.193415
0.00316306
0.00669633
0.0230729
0.0460499
0.0693534
0.0900799
0.107359
0.121276
0.132266
0.140828
0.147408
0.15238
0.156045
0.158661
0.160488
0.16179
0.162554
0.162306
0.161947
0.167698
-0.0487244
-0.0438405
-0.0259584
-0.00101136
0.0245901
0.0476805
0.0672241
0.0832285
0.0961054
0.106349
0.114414
0.120679
0.125448
0.128965
0.131475
0.133255
0.134279
0.133558
0.130834
0.134425
-0.0995095
-0.0933326
-0.0741178
-0.0474083
-0.0196905
0.00562166
0.0273207
0.0453275
0.0600198
0.0718835
0.081371
0.0888583
0.0946341
0.0989041
0.10183
0.10356
0.103997
0.102286
0.0977228
0.0931249
-0.148747
-0.141342
-0.120985
-0.092748
-0.0631249
-0.0357587
-0.0120324
0.0078797
0.0243139
0.0377439
0.0486214
0.0573241
0.064144
0.069288
0.0729045
0.0751258
0.0759789
0.0751047
0.0720337
0.0677861
-0.196002
-0.187444
-0.166151
-0.136646
-0.105357
-0.0761288
-0.0505216
-0.0288118
-0.01071
0.00424445
0.0165074
0.0264702
0.0344478
0.0406818
0.0453578
0.0486397
0.0506698
0.0514879
0.0509813
0.0488682
-0.240866
-0.231237
-0.209226
-0.178734
-0.146044
-0.115172
-0.0878502
-0.0644653
-0.0447807
-0.0283523
-0.0147198
-0.00347606
0.00571781
0.0131362
0.0189991
0.0234921
0.0267982
0.029134
0.0306183
0.0305911
-0.282963
-0.272351
-0.249847
-0.218666
-0.184866
-0.152593
-0.123747
-0.0988299
-0.077668
-0.0598398
-0.0448855
-0.0323869
-0.021988
-0.0133924
-0.00635677
-0.000679792
0.00383853
0.00747056
0.0104001
0.0118873
-0.321959
-0.310456
-0.287685
-0.256128
-0.221528
-0.188123
-0.157967
-0.131685
-0.109175
-0.0900465
-0.0738472
-0.0601539
-0.0485994
-0.0388733
-0.0307173
-0.0239174
-0.0182613
-0.0134597
-0.00935138
-0.00679951
-0.357565
-0.345267
-0.322453
-0.290835
-0.255767
-0.221521
-0.190295
-0.162839
-0.139132
-0.118826
-0.101482
-0.0866786
-0.0740434
-0.0632578
-0.0540551
-0.0462148
-0.0395179
-0.033665
-0.0285165
-0.0250687
-0.389549
-0.37655
-0.353907
-0.322546
-0.287352
-0.252577
-0.220543
-0.192127
-0.167396
-0.146054
-0.127687
-0.11188
-0.0982618
-0.0865097
-0.076354
-0.0675722
-0.0599443
-0.0531644
-0.0470895
-0.0427895
-0.417732
-0.40413
-0.381857
-0.35106
-0.316088
-0.281113
-0.248553
-0.219408
-0.193846
-0.171631
-0.15238
-0.135695
-0.121207
-0.108598
-0.097596
-0.0879792
-0.0795304
-0.0719436
-0.0650602
-0.0599618
-0.442001
-0.427891
-0.406167
-0.376225
-0.34182
-0.306983
-0.274194
-0.244572
-0.218388
-0.195476
-0.175496
-0.158069
-0.142839
-0.129492
-0.117757
-0.107416
-0.0982563
-0.0899775
-0.0824049
-0.0765946
-0.462307
-0.447782
-0.42676
-0.397938
-0.364434
-0.330075
-0.297365
-0.26753
-0.240947
-0.217528
-0.196983
-0.178962
-0.163123
-0.149162
-0.136814
-0.125862
-0.116101
-0.10724
-0.0990909
-0.0926644
-0.478665
-0.463817
-0.443621
-0.41615
-0.383861
-0.350313
-0.317995
-0.28822
-0.26147
-0.237743
-0.216805
-0.198342
-0.182034
-0.167588
-0.154746
-0.143296
-0.133041
-0.123704
-0.115082
-0.108127
-0.491155
-0.476076
-0.456799
-0.430867
-0.400074
-0.367658
-0.336042
-0.306603
-0.279925
-0.256094
-0.234941
-0.216193
-0.199556
-0.184753
-0.171538
-0.159702
-0.149058
-0.139344
-0.130344
-0.122942
-0.49992
-0.4847
-0.466403
-0.442151
-0.413097
-0.382106
-0.351492
-0.322665
-0.296298
-0.272571
-0.251382
-0.232507
-0.215683
-0.200652
-0.18718
-0.175068
-0.164136
-0.154141
-0.144854
-0.137083
-0.50516
-0.48989
-0.472603
-0.450122
-0.422998
-0.393694
-0.364362
-0.336414
-0.310598
-0.287181
-0.266136
-0.247292
-0.23042
-0.215287
-0.201675
-0.189392
-0.178272
-0.168086
-0.158601
-0.15054
-0.507128
-0.491901
-0.475626
-0.454953
-0.429895
-0.402495
-0.374699
-0.347883
-0.322851
-0.299948
-0.279225
-0.260566
-0.243784
-0.228673
-0.215032
-0.202683
-0.191469
-0.18118
-0.171582
-0.163309
-0.50612
-0.491032
-0.475747
-0.456867
-0.433952
-0.408622
-0.38258
-0.357129
-0.333099
-0.31091
-0.290681
-0.272359
-0.255802
-0.240832
-0.227272
-0.214957
-0.20374
-0.193432
-0.183802
-0.175396
-0.50247
-0.487616
-0.473283
-0.456137
-0.435378
-0.412226
-0.388112
-0.364228
-0.341406
-0.320117
-0.300551
-0.282713
-0.266509
-0.251798
-0.238423
-0.226237
-0.215106
-0.20486
-0.195277
-0.186813
-0.496534
-0.482013
-0.468582
-0.45307
-0.434424
-0.413494
-0.391431
-0.369282
-0.347848
-0.327634
-0.308889
-0.291677
-0.275952
-0.261609
-0.24852
-0.236555
-0.225594
-0.215489
-0.206026
-0.197581
-0.488684
-0.474593
-0.462011
-0.448005
-0.431373
-0.412649
-0.392703
-0.372413
-0.352519
-0.333538
-0.315762
-0.299309
-0.284181
-0.270312
-0.257605
-0.245949
-0.235239
-0.225348
-0.216076
-0.207723
0.075299
0.0468518
0.0259901
0.0161624
0.00740689
-0.00449817
-0.0178951
-0.030831
-0.0429963
-0.0548112
-0.066524
-0.0781074
-0.0894655
-0.100554
-0.11138
-0.121964
-0.132331
-0.142506
-0.152519
-0.162412
0.0185597
0.00469122
-0.00740035
-0.0147948
-0.0203635
-0.0268332
-0.034358
-0.0419277
-0.0489591
-0.0555076
-0.0617989
-0.0679298
-0.0738756
-0.0795901
-0.085054
-0.0902699
-0.0952443
-0.099979
-0.104471
-0.108714
0.00525077
-0.000800842
-0.00611603
-0.0106697
-0.0148567
-0.0191462
-0.0236838
-0.028311
-0.0328487
-0.0372564
-0.0415874
-0.0458935
-0.0501886
-0.0544652
-0.058717
-0.0629462
-0.0671603
-0.0713671
-0.0755737
-0.0797868
-0.00227158
-0.00598665
-0.00952169
-0.0130986
-0.0166913
-0.0202524
-0.0237857
-0.0272975
-0.030773
-0.034196
-0.037564
-0.0408835
-0.0441594
-0.0473919
-0.0505791
-0.0537201
-0.0568159
-0.0598678
-0.0628776
-0.0658468
-0.0078856
-0.0108708
-0.0134976
-0.0160012
-0.0185396
-0.0211022
-0.0236382
-0.0261304
-0.0285868
-0.0310161
-0.0334215
-0.0358041
-0.0381657
-0.0405089
-0.0428363
-0.0451503
-0.0474534
-0.0497482
-0.0520372
-0.054323
-0.0119846
-0.0143732
-0.0163102
-0.0180712
-0.0198802
-0.0217573
-0.0236438
-0.0255055
-0.0273438
-0.0291702
-0.0309907
-0.0328056
-0.0346139
-0.0364152
-0.0382104
-0.0400001
-0.0417849
-0.0435655
-0.0453422
-0.0471157
-0.0143481
-0.016178
-0.0175857
-0.018864
-0.0202075
-0.0216237
-0.0230569
-0.0244751
-0.0258785
-0.0272767
-0.0286752
-0.0300741
-0.031472
-0.0328682
-0.0342627
-0.0356561
-0.0370487
-0.038441
-0.0398331
-0.0412256
-0.0153945
-0.0168111
-0.0179029
-0.0189005
-0.0199524
-0.0210655
-0.0221971
-0.0233215
-0.024437
-0.0255506
-0.0266664
-0.0277847
-0.0289043
-0.0300241
-0.031144
-0.0322642
-0.0333846
-0.0345054
-0.0356265
-0.0367481
-0.0157327
-0.0167828
-0.0176635
-0.0185044
-0.019378
-0.0202853
-0.021204
-0.0221201
-0.0230321
-0.0239431
-0.0248554
-0.0257691
-0.0266836
-0.0275984
-0.028513
-0.0294277
-0.0303423
-0.031257
-0.0321716
-0.0330864
-0.0159037
-0.0166419
-0.017352
-0.0180834
-0.0188352
-0.0195942
-0.0203527
-0.0211093
-0.0218648
-0.0226201
-0.0233755
-0.024131
-0.0248862
-0.025641
-0.0263954
-0.0271493
-0.0279029
-0.0286561
-0.029409
-0.0301617
-0.0161024
-0.0166224
-0.0171915
-0.0178146
-0.0184521
-0.0190825
-0.0197052
-0.0203254
-0.020946
-0.0215671
-0.0221881
-0.0228085
-0.0234283
-0.0240477
-0.0246669
-0.0252857
-0.0259044
-0.026523
-0.0271415
-0.02776
-0.0163112
-0.016683
-0.0171312
-0.0176422
-0.018165
-0.0186765
-0.0191785
-0.0196784
-0.0201797
-0.0206824
-0.0211856
-0.0216888
-0.0221921
-0.0226958
-0.0232001
-0.0237049
-0.0242104
-0.0247166
-0.0252236
-0.0257315
-0.0164506
-0.0166972
-0.0170284
-0.0174287
-0.0178429
-0.0182461
-0.01864
-0.0190327
-0.0194282
-0.0198266
-0.020227
-0.0206288
-0.0210322
-0.0214374
-0.0218446
-0.0222538
-0.022665
-0.0230783
-0.0234937
-0.0239111
-0.0164112
-0.0165237
-0.016727
-0.0170186
-0.0173349
-0.0176426
-0.0179411
-0.0182394
-0.0185428
-0.0188516
-0.0191649
-0.019482
-0.0198028
-0.0201275
-0.0204562
-0.020789
-0.0211256
-0.0214661
-0.0218103
-0.0221581
-0.0159521
-0.0159115
-0.0159775
-0.0161686
-0.0164034
-0.0166332
-0.0168536
-0.0170749
-0.0173045
-0.0175434
-0.0177902
-0.0180439
-0.018304
-0.0185706
-0.0188437
-0.0191231
-0.0194085
-0.0196997
-0.0199963
-0.0202982
-0.0147335
-0.0144829
-0.0144101
-0.0145406
-0.0147425
-0.0149368
-0.0151153
-0.0152946
-0.0154862
-0.0156916
-0.0159084
-0.0161347
-0.0163696
-0.016613
-0.0168648
-0.0171245
-0.0173916
-0.0176658
-0.0179464
-0.018233
-0.012564
-0.0118535
-0.0115582
-0.0116856
-0.011949
-0.0121846
-0.0123777
-0.0125644
-0.0127686
-0.0129935
-0.0132339
-0.0134853
-0.0137459
-0.0140156
-0.0142941
-0.0145808
-0.0148751
-0.015176
-0.0154829
-0.0157952
-0.00986654
-0.00814956
-0.00744389
-0.00766513
-0.00814953
-0.00854314
-0.00882459
-0.00907728
-0.00935368
-0.0096601
-0.0099849
-0.0103188
-0.0106589
-0.0110054
-0.0113584
-0.0117173
-0.0120812
-0.0124491
-0.0128201
-0.0131936
-0.00599321
-0.00192646
-0.000519363
-0.00121628
-0.00237521
-0.00323078
-0.0037924
-0.00426862
-0.00477312
-0.00531366
-0.00586396
-0.00640698
-0.00693989
-0.00746546
-0.00798581
-0.00850124
-0.0090112
-0.00951516
-0.0100129
-0.0105042
-0.00375696
0.00455091
0.00723471
0.00581021
0.00362272
0.00210717
0.00118238
0.000429976
-0.000359968
-0.00119514
-0.00202614
-0.0028247
-0.00358899
-0.00432624
-0.0050417
-0.00573714
-0.00641288
-0.00706931
-0.00770722
-0.00832743
0.11666
0.117177
0.118232
0.119819
0.121936
0.124599
0.127827
0.131642
0.136061
0.141087
0.146702
0.152852
0.159421
0.166174
0.172688
0.178162
0.181061
0.178342
0.163363
0.121165
0.107605
0.107983
0.108694
0.109762
0.111146
0.11287
0.114867
0.117165
0.119637
0.12231
0.12493
0.127499
0.129522
0.130915
0.130688
0.128492
0.122251
0.110671
0.0886081
0.0502466
0.096915
0.0971139
0.0974644
0.0979787
0.0986232
0.0993913
0.100208
0.101044
0.101768
0.102317
0.102465
0.102081
0.100776
0.0982828
0.0939533
0.0872788
0.077287
0.0633049
0.0446299
0.0214843
0.0852735
0.0853036
0.0853372
0.0853742
0.0853926
0.085363
0.0852236
0.0849087
0.0843154
0.0833363
0.0818147
0.0795812
0.0764107
0.0720594
0.0662636
0.0587714
0.0494454
0.0381714
0.0248793
0.00864539
0.073372
0.073278
0.0730786
0.0727688
0.0723356
0.071744
0.0709485
0.0698797
0.068467
0.0666114
0.0642241
0.0611784
0.0573844
0.0527092
0.0471105
0.0404859
0.0328508
0.023999
0.0136609
0.000868716
0.0617837
0.0616152
0.061273
0.060752
0.060045
0.0591236
0.057957
0.056492
0.0546857
0.0524712
0.0498073
0.0466234
0.0428968
0.0385626
0.0336231
0.0279919
0.0216327
0.0143028
0.00573383
-0.00479585
0.0509031
0.0506998
0.0502899
0.0496693
0.0488348
0.0477675
0.0464492
0.0448461
0.0429351
0.0406771
0.0380556
0.0350316
0.0316001
0.027718
0.0233829
0.0185225
0.0131027
0.00695537
-0.000109142
-0.00866233
0.04095
0.0407386
0.0403135
0.0396714
0.0388107
0.0377205
0.0363916
0.0348042
0.0329471
0.0307971
0.0283468
0.0255711
0.0224669
0.0190037
0.0151815
0.0109584
0.00633346
0.00122581
-0.00444772
-0.0110399
0.0320074
0.0318038
0.0313949
0.0307774
0.0299504
0.0289077
0.0276454
0.0261522
0.0244229
0.0224433
0.0202096
0.0177052
0.0149304
0.0118663
0.00852131
0.00487685
0.000954037
-0.00326872
-0.00776504
-0.0125962
0.0240679
0.0238797
0.0235025
0.0229325
0.0221689
0.0212079
0.0200487
0.0186853
0.0171165
0.0153338
0.0133371
0.0111164
0.0086763
0.00600738
0.0031245
2.34092e-05
-0.00326065
-0.00671275
-0.01024
-0.0137385
0.0170728
0.0169027
0.0165625
0.0160479
0.0153584
0.0144916
0.0134491
0.0122286
0.0108327
0.00925735
0.00750645
0.00557468
0.00347026
0.00118903
-0.00125037
-0.00384441
-0.00654909
-0.0093312
-0.012071
-0.0146029
0.0109415
0.0107892
0.0104851
0.0100251
0.00940874
0.00863506
0.00770805
0.00662846
0.00540246
0.00403001
0.00251902
0.000868168
-0.000911301
-0.00282115
-0.00484214
-0.00696987
-0.00915912
-0.0113699
-0.0134684
-0.0152586
0.0055909
0.00545411
0.00518134
0.00476864
0.00421626
0.00352459
0.00269972
0.00174513
0.000670191
-0.000521288
-0.00181721
-0.00321408
-0.00469635
-0.00626226
-0.00789215
-0.00958446
-0.0113007
-0.0130062
-0.0145636
-0.0157538
0.000947504
0.000822497
0.000572967
0.000195434
-0.000309156
-0.000938938
-0.00168622
-0.0025451
-0.00350377
-0.00455461
-0.00568149
-0.00687474
-0.00811222
-0.00938331
-0.0106609
-0.0119383
-0.0131816
-0.0143718
-0.0153987
-0.016063
-0.00304354
-0.0031618
-0.00339886
-0.0037575
-0.0042363
-0.00483217
-0.00553657
-0.00634181
-0.00723434
-0.00820314
-0.00922836
-0.0102938
-0.0113695
-0.0124315
-0.0134354
-0.0143496
-0.0151177
-0.0157096
-0.0160437
-0.0159951
-0.00641231
-0.00652963
-0.00676645
-0.00712465
-0.00760309
-0.0081981
-0.00890188
-0.00970619
-0.0105972
-0.0115618
-0.0125769
-0.0136205
-0.0146531
-0.0156372
-0.0165047
-0.0171878
-0.0175641
-0.0175125
-0.0168373
-0.0153661
-0.0091615
-0.00928364
-0.00953146
-0.00990613
-0.0104081
-0.0110341
-0.0117799
-0.0126385
-0.0136004
-0.0146532
-0.0157759
-0.0169434
-0.0181087
-0.0192172
-0.0201673
-0.0208425
-0.0210251
-0.0204349
-0.0185235
-0.0144806
-0.0112706
-0.0114016
-0.0116672
-0.0120691
-0.0126094
-0.0132878
-0.0141052
-0.015059
-0.0161491
-0.0173699
-0.0187156
-0.0201689
-0.0216984
-0.0232406
-0.0246714
-0.0257767
-0.0261714
-0.025255
-0.0219897
-0.0146004
-0.0127063
-0.0128463
-0.0131296
-0.0135591
-0.0141384
-0.0148712
-0.0157627
-0.0168184
-0.0180476
-0.0194583
-0.0210663
-0.0228803
-0.0249165
-0.0271566
-0.0295475
-0.0318639
-0.0336034
-0.0335855
-0.0296099
-0.0176156
-0.0134347
-0.0135801
-0.0138743
-0.0143211
-0.0149247
-0.0156919
-0.0166303
-0.0177518
-0.0190707
-0.0206081
-0.0223915
-0.0244584
-0.0268594
-0.0296533
-0.0329055
-0.0366164
-0.0405747
-0.0437548
-0.0428378
-0.027839
0.126933
0.127498
0.128763
0.130631
0.133247
0.136511
0.140667
0.145571
0.151601
0.158548
0.167001
0.176645
0.188416
0.201815
0.218423
0.237382
0.261557
0.289326
0.326162
0.368602
0.126897
0.127462
0.128726
0.130594
0.133208
0.136472
0.140625
0.145526
0.151552
0.158495
0.16694
0.176574
0.188329
0.201706
0.218276
0.237184
0.261267
0.288899
0.325501
0.367545
0.126825
0.12739
0.128653
0.130519
0.133132
0.136392
0.140542
0.145437
0.151456
0.158388
0.166818
0.176431
0.188154
0.201489
0.217983
0.236789
0.260687
0.288047
0.324181
0.365437
0.126718
0.127283
0.128544
0.130408
0.133017
0.136273
0.140417
0.145304
0.151311
0.158228
0.166636
0.176218
0.187893
0.201163
0.217545
0.236199
0.259822
0.286777
0.32221
0.36229
0.126575
0.127139
0.128399
0.13026
0.132865
0.136115
0.14025
0.145127
0.151119
0.158015
0.166393
0.175936
0.187546
0.200731
0.216965
0.235417
0.258675
0.285095
0.319595
0.358119
0.126397
0.126961
0.128218
0.130076
0.132675
0.135918
0.140044
0.144906
0.15088
0.15775
0.166092
0.175584
0.187116
0.200195
0.216246
0.234448
0.257254
0.283013
0.31635
0.352946
0.126183
0.126747
0.128001
0.129855
0.132449
0.135683
0.139797
0.144643
0.150595
0.157435
0.165733
0.175165
0.186604
0.199556
0.215391
0.233295
0.255564
0.280541
0.312486
0.346799
0.125935
0.126499
0.12775
0.129599
0.132185
0.135411
0.13951
0.144338
0.150264
0.157069
0.165318
0.17468
0.186014
0.198817
0.214406
0.231966
0.253615
0.277696
0.308022
0.339709
0.125652
0.126216
0.127464
0.129309
0.131887
0.135101
0.139185
0.143992
0.14989
0.156654
0.164848
0.17413
0.185346
0.197981
0.213295
0.230465
0.251418
0.274491
0.302976
0.331715
0.125336
0.1259
0.127144
0.128984
0.131553
0.134755
0.138822
0.143606
0.149472
0.156192
0.164325
0.173518
0.184605
0.197051
0.212064
0.2288
0.248985
0.270946
0.297369
0.322859
0.124986
0.12555
0.126791
0.128625
0.131184
0.134374
0.138422
0.143181
0.149013
0.155684
0.16375
0.172845
0.183794
0.196031
0.21072
0.226978
0.24633
0.267077
0.291226
0.313188
0.124603
0.125168
0.126406
0.128234
0.130783
0.133959
0.137987
0.142718
0.148513
0.155131
0.163126
0.172114
0.182914
0.194924
0.209269
0.225005
0.243467
0.262904
0.284573
0.302756
0.124187
0.124754
0.125989
0.127811
0.130349
0.13351
0.137516
0.142219
0.147974
0.154535
0.162455
0.171327
0.181971
0.193734
0.207718
0.22289
0.240414
0.258444
0.277443
0.291616
0.12374
0.124308
0.12554
0.127356
0.129883
0.133029
0.137012
0.141684
0.147397
0.153898
0.161738
0.170487
0.180967
0.192466
0.206075
0.220642
0.23719
0.253716
0.269871
0.279822
0.123261
0.123832
0.125061
0.126872
0.129386
0.132517
0.136476
0.141115
0.146784
0.153221
0.160977
0.169597
0.179905
0.191124
0.204346
0.218268
0.233813
0.248739
0.2619
0.267422
0.122751
0.123326
0.124553
0.126358
0.12886
0.131973
0.135907
0.140512
0.146133
0.152504
0.16017
0.168653
0.178782
0.189706
0.202529
0.21577
0.230296
0.243525
0.253586
0.254454
0.122212
0.122792
0.124017
0.125816
0.128305
0.131402
0.135308
0.139878
0.14545
0.151751
0.159324
0.167664
0.177606
0.188222
0.200637
0.213162
0.226661
0.238091
0.244988
0.240951
0.121644
0.12223
0.123456
0.125252
0.127731
0.130812
0.134696
0.139234
0.144761
0.150996
0.158482
0.166681
0.176442
0.186744
0.198753
0.210529
0.222999
0.23249
0.236153
0.22681
0.121046
0.121641
0.12287
0.124667
0.12714
0.130212
0.134078
0.138592
0.144083
0.150263
0.157672
0.165743
0.175333
0.185326
0.196937
0.207937
0.219375
0.226763
0.227099
0.211351
0.120416
0.121013
0.122235
0.124022
0.12647
0.129514
0.133332
0.137793
0.143198
0.14928
0.156535
0.164419
0.173727
0.183347
0.194421
0.204632
0.214969
0.220435
0.217921
0.194873
0.120413
0.121011
0.122233
0.124019
0.126467
0.129511
0.133328
0.137789
0.143194
0.149275
0.156529
0.164412
0.173719
0.183338
0.19441
0.204619
0.214954
0.220418
0.2179
0.194848
0.121044
0.121639
0.122868
0.124664
0.127137
0.130209
0.134074
0.138588
0.144079
0.150258
0.157666
0.165736
0.175326
0.185317
0.196927
0.207925
0.219361
0.226747
0.227079
0.211327
0.121642
0.122228
0.123454
0.125249
0.127728
0.130809
0.134692
0.13923
0.144757
0.150991
0.158476
0.166675
0.176435
0.186735
0.198744
0.210518
0.222986
0.232475
0.236134
0.226788
0.12221
0.12279
0.124015
0.125814
0.128303
0.131399
0.135305
0.139875
0.145446
0.151746
0.159319
0.167658
0.177599
0.188214
0.200628
0.213151
0.226648
0.238076
0.244971
0.24093
0.12275
0.123324
0.124551
0.126356
0.128858
0.131971
0.135904
0.140509
0.146129
0.152499
0.160165
0.168647
0.178775
0.189699
0.202521
0.21576
0.230285
0.243512
0.253569
0.254434
0.123259
0.12383
0.125059
0.12687
0.129384
0.132514
0.136473
0.141112
0.14678
0.153217
0.160972
0.169591
0.179899
0.191117
0.204338
0.218258
0.233802
0.248726
0.261885
0.267403
0.123738
0.124307
0.125538
0.127354
0.129881
0.133027
0.13701
0.141681
0.147394
0.153894
0.161733
0.170482
0.180961
0.19246
0.206068
0.220633
0.23718
0.253704
0.269856
0.279804
0.124186
0.124752
0.125987
0.127809
0.130347
0.133508
0.137514
0.142216
0.147971
0.154531
0.162451
0.171322
0.181966
0.193728
0.207711
0.222882
0.240405
0.258433
0.277429
0.2916
0.124601
0.125166
0.126404
0.128232
0.130781
0.133957
0.137984
0.142716
0.14851
0.155127
0.163123
0.172109
0.182909
0.194918
0.209262
0.224998
0.243458
0.262894
0.284561
0.302741
0.124985
0.125549
0.12679
0.128624
0.131183
0.134372
0.13842
0.143179
0.14901
0.155681
0.163747
0.172841
0.183789
0.196026
0.210714
0.226971
0.246322
0.267068
0.291215
0.313175
0.125335
0.125898
0.127143
0.128982
0.131551
0.134754
0.13882
0.143604
0.14947
0.156189
0.164322
0.173514
0.184601
0.197047
0.212059
0.228794
0.248978