/*--------------------------------*- C++ -*----------------------------------*\
  =========                 |
  \\      /  F ield         | OpenFOAM: The Open Source CFD Toolbox
   \\    /   O peration     | Website:  https://openfoam.org
    \\  /    A nd           | Version:  6.0
     \\/     M anipulation  |
\*---------------------------------------------------------------------------*/
FoamFile
{
    version     2.0;
    format      ascii;
    class       surfaceScalarField;
    location    "15";
    object      phi;
}
// * * * * * * * * * * * * * * * * * * * * * * * * * * * * * * * * * * * * * //

dimensions      [0 3 -1 0 0 0 0];

internalField   nonuniform List<scalar> 
15760
(
-3.24534e-06
3.09815e-06
1.47195e-07
-1.14143e-05
7.8011e-06
3.67894e-07
-2.33134e-05
1.1366e-05
5.33002e-07
-3.79972e-05
1.40292e-05
6.54601e-07
-5.47256e-05
1.59859e-05
7.42538e-07
-7.29339e-05
1.74032e-05
8.05061e-07
-9.2207e-05
1.84242e-05
8.48959e-07
-0.000112258
1.9171e-05
8.79704e-07
-0.000132908
1.97487e-05
9.01612e-07
-0.000154073
2.02471e-05
9.17997e-07
-0.000175747
2.07428e-05
9.3134e-07
-0.000197991
2.13e-05
9.43435e-07
-0.000220918
2.19715e-05
9.55532e-07
-0.000244685
2.27987e-05
9.68449e-07
-0.000269479
2.3812e-05
9.82665e-07
-0.000295509
2.50307e-05
9.9838e-07
-0.000322987
2.64633e-05
1.01556e-06
-0.000352129
2.81077e-05
1.034e-06
-0.000383137
2.99545e-05
1.05338e-06
3.19971e-05
1.07337e-06
-0.000416208
-3.21491e-06
6.31306e-06
-1.13093e-05
1.58955e-05
-2.30952e-05
2.3152e-05
-3.76278e-05
2.85618e-05
-5.41644e-05
3.25224e-05
-7.21351e-05
3.5374e-05
-9.11183e-05
3.74073e-05
-0.000110818
3.88711e-05
-0.000131048
3.99783e-05
-0.000151713
4.09117e-05
-0.000172797
4.18268e-05
-0.000194351
4.28549e-05
-0.000216484
4.41043e-05
-0.000239346
4.56607e-05
-0.000263122
4.75878e-05
-0.000288019
4.99276e-05
-0.000314255
5.26997e-05
-0.00034205
5.5902e-05
-0.000371612
5.95173e-05
6.35319e-05
-0.000403147
-3.15482e-06
9.46787e-06
-1.11013e-05
2.3842e-05
-2.26629e-05
3.47136e-05
-3.68962e-05
4.27951e-05
-5.30538e-05
4.868e-05
-7.05567e-05
5.2877e-05
-8.89703e-05
5.58209e-05
-0.000107983
5.78836e-05
-0.000127389
5.93843e-05
-0.000147074
6.05969e-05
-0.000167003
6.17562e-05
-0.00018721
6.30618e-05
-0.000207786
6.46802e-05
-0.000228871
6.67458e-05
-0.000250644
6.93609e-05
-0.000273313
7.25959e-05
-0.000297101
7.64877e-05
-0.000322238
8.10397e-05
-0.000348952
8.62306e-05
9.20404e-05
-0.00037746
-3.06994e-06
1.25378e-05
-1.08054e-05
3.15775e-05
-2.20455e-05
4.59536e-05
-3.5849e-05
5.65985e-05
-5.14625e-05
6.42935e-05
-6.82944e-05
6.9709e-05
-8.58919e-05
7.34183e-05
-0.00010392
7.59121e-05
-0.000122148
7.76116e-05
-0.000140431
7.888e-05
-0.000158705
8.00305e-05
-0.000176975
8.13323e-05
-0.000195309
8.3014e-05
-0.000213828
8.52645e-05
-0.0002327
8.8233e-05
-0.000252131
9.20272e-05
-0.000272355
9.67116e-05
-0.00029362
0.000102304
-0.000316177
0.000108788
0.000116138
-0.000340275
-2.96675e-06
1.55046e-05
-1.04416e-05
3.90523e-05
-2.12815e-05
5.67935e-05
-3.45482e-05
6.98653e-05
-4.94818e-05
7.92271e-05
-6.54759e-05
8.57032e-05
-8.20559e-05
8.99983e-05
-9.8859e-05
9.27152e-05
-0.000115619
9.43719e-05
-0.000132156
9.54168e-05
-0.000148365
9.62395e-05
-0.000164213
9.71798e-05
-0.000179731
9.8532e-05
-0.000195013
0.000100547
-0.000210211
0.00010343
-0.000225525
0.000107341
-0.000241199
0.000112386
-0.000257507
0.000118613
-0.00027474
0.00012602
0.000134589
-0.000293191
-2.85243e-06
1.8357e-05
-1.00319e-05
4.62318e-05
-2.04133e-05
6.71749e-05
-3.30621e-05
8.2514e-05
-4.72121e-05
9.33771e-05
-6.22422e-05
0.000100733
-7.76541e-05
0.00010541
-9.30539e-05
0.000108115
-0.000108137
0.000109455
-0.000122677
0.000109957
-0.000136522
0.000110084
-0.000149586
0.000110244
-0.000161856
0.000110801
-0.000173384
0.000112075
-0.000184293
0.000114339
-0.000194773
0.000117822
-0.000205078
0.000122691
-0.000215513
0.000129048
-0.000226423
0.00013693
0.000146336
-0.000238171
-2.73381e-06
2.10908e-05
-9.59706e-06
5.30951e-05
-1.94806e-05
7.70584e-05
-3.1454e-05
9.44875e-05
-4.47468e-05
0.00010667
-5.87246e-05
0.000114711
-7.28672e-05
0.000119553
-8.67487e-05
0.000121997
-0.000100024
0.00012273
-0.000112416
0.00012235
-0.000123716
0.000121384
-0.000133778
0.000120306
-0.000142525
0.000119549
-0.000149956
0.000119506
-0.00015615
0.000120533
-0.000161274
0.000122946
-0.000165585
0.000127002
-0.000169423
0.000132887
-0.000173205
0.000140712
0.000150522
-0.000177391
-2.61634e-06
2.37071e-05
-9.1532e-06
5.96319e-05
-1.85133e-05
8.64186e-05
-2.97713e-05
0.000105745
-4.21548e-05
0.000119053
-5.50205e-05
0.000127577
-6.783e-05
0.000132362
-8.01293e-05
0.000134296
-9.1533e-05
0.000134133
-0.000101714
0.000132531
-0.000110402
0.000130071
-0.000117379
0.000127283
-0.000122494
0.000124664
-0.000125672
0.000122683
-0.000126928
0.00012179
-0.000126387
0.000122405
-0.000124294
0.000124909
-0.000121024
0.000129617
-0.000117075
0.000136764
0.000146496
-0.000113049
-2.50317e-06
2.62103e-05
-8.70894e-06
6.58377e-05
-1.75263e-05
9.52359e-05
-2.80348e-05
0.000116254
-3.94644e-05
0.000130483
-5.11684e-05
0.000139281
-6.25972e-05
0.000143791
-7.32756e-05
0.000144974
-8.2785e-05
0.000143643
-9.07516e-05
0.000140498
-9.68419e-05
0.000136161
-0.000100765
0.000131206
-0.000102281
0.000126181
-0.000101223
0.000121626
-9.75196e-05
0.000118086
-9.12226e-05
0.000116108
-8.25418e-05
0.000116228
-7.18704e-05
0.000118945
-5.98011e-05
0.000124694
0.000133808
-4.71127e-05
-2.39464e-06
2.86049e-05
-8.26344e-06
7.17065e-05
-1.65143e-05
0.000103487
-2.62315e-05
0.000125971
-3.66504e-05
0.000140902
-4.71279e-05
0.000149758
-5.71123e-05
0.000153775
-6.61176e-05
0.000153979
-7.3703e-05
0.000151228
-7.9458e-05
0.000146253
-8.29948e-05
0.000139698
-8.39493e-05
0.000132161
-8.1991e-05
0.000124222
-7.68449e-05
0.00011648
-6.83247e-05
0.000109566
-5.63777e-05
0.000104161
-4.11391e-05
0.000100989
-2.29895e-05
0.000100796
-2.60818e-06
0.000104313
0.000112194
1.90052e-05
-2.28815e-06
3.08931e-05
-7.80592e-06
7.72243e-05
-1.54513e-05
0.000111132
-2.43107e-05
0.000134831
-3.36276e-05
0.000150219
-4.27681e-05
0.000158899
-5.11878e-05
0.000162195
-5.84024e-05
0.000161194
-6.39639e-05
0.00015679
-6.74412e-05
0.00014973
-6.84086e-05
0.000140665
-6.64422e-05
0.000130194
-6.11263e-05
0.000118906
-5.20743e-05
0.000107428
-3.89666e-05
9.64579e-05
-2.16089e-05
8.68031e-05
-1.23749e-08
7.93927e-05
2.5507e-05
7.52762e-05
5.42141e-05
7.56058e-05
8.15503e-05
8.48581e-05
-2.17859e-06
3.30717e-05
-7.31678e-06
8.23625e-05
-1.42917e-05
0.000118107
-2.21868e-05
0.000142726
-3.02525e-05
0.000158285
-3.78672e-05
0.000166513
-4.4501e-05
0.000168829
-4.96829e-05
0.000166376
-5.29733e-05
0.00016008
-5.39413e-05
0.000150698
-5.21476e-05
0.000138872
-4.71339e-05
0.00012518
-3.84227e-05
0.000110195
-2.55304e-05
9.45355e-05
-8.00288e-06
7.89304e-05
1.45205e-05
6.42797e-05
4.2204e-05
5.17093e-05
7.4868e-05
4.26121e-05
0.000111788
3.86855e-05
4.18772e-05
0.000151461
-2.05925e-06
3.51309e-05
-6.77023e-06
8.70735e-05
-1.29757e-05
0.000124313
-1.97465e-05
0.000149496
-2.63341e-05
0.000164872
-3.2127e-05
0.000172306
-3.66112e-05
0.000173313
-3.93352e-05
0.0001691
-3.98807e-05
0.000160626
-3.78371e-05
0.000148654
-3.27797e-05
0.000133814
-2.42527e-05
0.000116653
-1.17582e-05
9.77007e-05
5.24247e-06
7.75348e-05
2.73076e-05
5.68653e-05
5.49577e-05
3.66296e-05
8.8565e-05
1.8102e-05
0.000128165
3.01169e-06
0.000173153
-6.30169e-06
-6.79792e-06
0.000221828
-1.92304e-06
3.7054e-05
-6.13799e-06
9.12884e-05
-1.14362e-05
0.000129611
-1.68612e-05
0.000154921
-2.16531e-05
0.000169664
-2.52003e-05
0.000175854
-2.69973e-05
0.00017511
-2.66091e-05
0.000168712
-2.36423e-05
0.000157659
-1.77192e-05
0.000142731
-8.45491e-06
0.00012455
4.56397e-06
0.000103634
2.1799e-05
8.04656e-05
4.37744e-05
5.55593e-05
7.10779e-05
2.95618e-05
0.00010433
3.3779e-06
0.00014409
-2.16582e-05
0.000190662
-4.35603e-05
0.000243695
-5.93352e-05
-6.45509e-05
0.000301448
-1.76366e-06
3.88176e-05
-5.39301e-06
9.49178e-05
-9.6067e-06
0.000133824
-1.34009e-05
0.000158716
-1.59845e-05
0.000172248
-1.67264e-05
0.000176596
-1.51114e-05
0.000173495
-1.07054e-05
0.000164306
-3.12855e-06
0.000150082
7.96632e-06
0.000131636
2.29129e-05
0.000109603
4.20511e-05
8.44963e-05
6.57489e-05
5.67678e-05
9.44278e-05
2.68804e-05
0.000128588
-4.59814e-06
0.000168816
-3.68506e-05
0.00021575
-6.85915e-05
0.000269924
-9.77352e-05
0.000331368
-0.000120779
-0.000131746
0.000398564
-1.57641e-06
4.03941e-05
-4.51196e-06
9.78533e-05
-7.42711e-06
0.00013674
-9.24497e-06
0.000160533
-9.11705e-06
0.00017212
-6.36487e-06
0.000173843
-4.34123e-07
0.000167564
9.13828e-06
0.000154734
2.27464e-05
0.000136474
4.07298e-05
0.000113653
6.33831e-05
8.695e-05
9.09659e-05
5.69135e-05
0.000123716
2.40177e-05
0.000161872
-1.1276e-05
0.000205711
-4.84371e-05
0.000255594
-8.67329e-05
0.000312
-0.000124997
0.0003755
-0.000161235
0.00044649
-0.000191769
-0.000209256
0.000523999
-1.35812e-06
4.17522e-05
-3.47547e-06
9.99707e-05
-4.8447e-06
0.000138109
-4.28646e-06
0.000159975
-8.63483e-07
0.000168697
6.18433e-06
0.000166796
1.74878e-05
0.000156261
3.35797e-05
0.000138642
5.49109e-05
0.000115143
8.18558e-05
8.67081e-05
0.000114709
5.40969e-05
0.000153678
1.79447e-05
0.000198876
-2.11805e-05
0.000250325
-6.2725e-05
0.000307975
-0.000106088
0.00037176
-0.000150518
0.000441682
-0.000194919
0.000517917
-0.00023747
0.000600861
-0.000274713
-0.000298741
0.000690345
-1.10617e-06
4.28583e-05
-2.26538e-06
0.00010113
-1.80985e-06
0.000137653
1.5738e-06
0.000156592
8.94516e-06
0.000161325
2.11827e-05
0.000154558
3.90345e-05
0.000138409
6.31474e-05
0.000114529
9.40783e-05
8.42117e-05
0.00013229
4.84965e-05
0.000178134
8.25236e-06
0.000231828
-3.57485e-05
0.000293416
-8.27688e-05
0.000362743
-0.000132052
0.000439422
-0.000182767
0.000522847
-0.000233942
0.000612248
-0.00028432
0.000706849
-0.00033207
0.00080616
-0.000374025
-0.00040351
0.000910929
-8.16647e-07
4.3675e-05
-8.59559e-07
0.000101173
1.73352e-06
0.00013506
8.44156e-06
0.000149884
2.04792e-05
0.000149288
3.88782e-05
0.000136159
6.45405e-05
0.000112747
9.82663e-05
8.08029e-05
0.000140761
4.1717e-05
0.000192624
-3.36653e-06
0.000254325
-5.34485e-05
0.000326166
-0.00010759
0.000408234
-0.000164837
0.000500333
-0.000224151
0.000601902
-0.000284337
0.000711919
-0.000343958
0.000828802
-0.000401204
0.000950348
-0.000453616
0.00107395
-0.000497628
-0.000530043
0.00120048
-4.82173e-07
4.41572e-05
7.74371e-07
9.99162e-05
5.85968e-06
0.000129975
1.64478e-05
0.000139295
3.39373e-05
0.000131798
5.95407e-05
0.000110556
9.43393e-05
7.79482e-05
0.000139308
3.58345e-05
0.000195317
-1.42922e-05
0.000263121
-7.11703e-05
0.000343333
-0.000133661
0.000436401
-0.000200657
0.000542572
-0.000271008
0.000661867
-0.000343445
0.000794026
-0.000416496
0.000938426
-0.000488358
0.00109387
-0.000556647
0.00125784
-0.00061759
0.00142376
-0.000663543
-0.000677438
0.00157115
-9.07838e-08
4.42479e-05
2.68309e-06
9.71424e-05
1.06695e-05
0.000121988
2.57627e-05
0.000124202
4.9567e-05
0.000107994
8.34911e-05
7.66315e-05
0.000128799
3.26398e-05
0.00018663
-2.19957e-05
0.000257987
-8.56491e-05
0.000343725
-0.000156908
0.000444528
-0.000234465
0.000560904
-0.000317033
0.000693196
-0.000403301
0.000841651
-0.0004919
0.00100656
-0.0005814
0.00118853
-0.00067033
0.00138905
-0.00075717
0.00161174
-0.000840283
0.00186629
-0.000918092
-0.000985858
0.00217471
3.77591e-07
4.38704e-05
4.93402e-06
9.25859e-05
1.62987e-05
0.000110624
3.66049e-05
0.000103896
6.76737e-05
7.69251e-05
0.000111108
3.31974e-05
0.00016833
-2.45825e-05
0.000240586
-9.42514e-05
0.000328919
-0.000173982
0.000434139
-0.000262129
0.000556795
-0.000357121
0.000697168
-0.000457406
0.000855288
-0.000561421
0.001031
-0.000667616
0.00122411
-0.000774502
0.00143452
-0.00088074
0.0016626
-0.000985256
0.00190968
-0.00108736
0.00217839
-0.0011868
-0.0012757
0.00246823
9.46511e-07
4.29238e-05
7.60623e-06
8.59262e-05
2.29044e-05
9.53255e-05
4.92217e-05
7.75789e-05
8.85926e-05
3.75542e-05
0.000142787
-2.09966e-05
0.000213326
-9.51214e-05
0.000301458
-0.000182384
0.00040811
-0.000280634
0.000533836
-0.000387855
0.000678778
-0.000502063
0.000842654
-0.000621281
0.00102478
-0.000743549
0.00122414
-0.000866975
0.00143946
-0.00098982
0.00166932
-0.0011106
0.00191224
-0.00122818
0.00216675
-0.00134187
0.00243123
-0.00145128
-0.00154826
0.0027038
1.64372e-06
4.12801e-05
1.0788e-05
7.67819e-05
3.06547e-05
7.54589e-05
6.38657e-05
4.43678e-05
0.000112643
-1.12233e-05
0.000178865
-8.72181e-05
0.000264046
-0.000180302
0.00036928
-0.000287618
0.000495164
-0.000406519
0.000641732
-0.000534422
0.000808418
-0.000668749
0.000994067
-0.000806931
0.00119699
-0.00094647
0.00141504
-0.00108503
0.00164575
-0.00122053
0.00188641
-0.00135126
0.00213416
-0.00147593
0.00238601
-0.00159372
0.00263888
-0.00170416
-0.00180071
0.00289133
2.49741e-06
3.87827e-05
1.45656e-05
6.47138e-05
3.97055e-05
5.03189e-05
8.07533e-05
3.32004e-06
0.000140062
-7.05321e-05
0.000219515
-0.000166671
0.000320465
-0.000281252
0.000443632
-0.000410785
0.000589016
-0.000551903
0.000755837
-0.000701243
0.000942535
-0.000855447
0.00114683
-0.00101123
0.00136587
-0.00116551
0.00159636
-0.00131551
0.00183475
-0.00145892
0.00207742
-0.00159393
0.00232076
-0.00171928
0.00256131
-0.00183426
0.00279581
-0.00193866
-0.00202804
0.00302313
3.53304e-06
3.52497e-05
1.90122e-05
4.92346e-05
5.01776e-05
1.91536e-05
0.000100023
-4.65252e-05
0.000170935
-0.000141444
0.000264649
-0.000260385
0.000382133
-0.000398736
0.000523466
-0.000552118
0.00068775
-0.000716187
0.000873101
-0.000886594
0.00107673
-0.00105908
0.00129512
-0.00122962
0.00152425
-0.00139464
0.00175987
-0.00155113
0.00199772
-0.00169677
0.00223379
-0.00182999
0.00246444
-0.00194993
0.0026865
-0.00205632
0.0028974
-0.00214955
-0.00222722
0.00309658
4.77077e-06
3.04789e-05
2.41792e-05
2.98261e-05
6.21358e-05
-1.8803e-05
0.000121698
-0.000106088
0.00020514
-0.000224886
0.000313835
-0.00036908
0.000448092
-0.000532994
0.000607038
-0.000711064
0.000788575
-0.000897724
0.000989484
-0.0010875
0.00120564
-0.00127523
0.00143233
-0.00145631
0.0016646
-0.00162691
0.00189761
-0.00178414
0.00212694
-0.0019261
0.00234878
-0.00205183
0.00256007
-0.00216121
0.00275854
-0.0022548
0.00294271
-0.00233372
-0.00239731
0.00311281
6.22368e-06
2.42552e-05
3.00889e-05
5.96095e-06
7.55746e-05
-6.42888e-05
0.000145664
-0.000176177
0.000242315
-0.000321537
0.000366265
-0.00049303
0.000516851
-0.00068358
0.000691928
-0.00088614
0.000887956
-0.00109375
0.00110027
-0.00129981
0.00132347
-0.00149843
0.00155189
-0.00168474
0.00178009
-0.00185511
0.00200318
-0.00200723
0.00221713
-0.00214006
0.00241892
-0.00225362
0.00260651
-0.00234881
0.00277886
-0.00242715
0.00293572
-0.00249058
-0.00253979
0.00307819
7.89691e-06
1.63583e-05
3.67307e-05
-2.28728e-05
9.04084e-05
-0.000117967
0.00017165
-0.000257418
0.000281836
-0.000431723
0.000420754
-0.000631947
0.000586432
-0.000849258
0.000775186
-0.00107489
0.000981905
-0.00130047
0.00120053
-0.00151844
0.00142468
-0.00172257
0.00164819
-0.00190824
0.00186565
-0.00207257
0.00207272
-0.00221431
0.0022663
-0.00233364
0.00244452
-0.00243183
0.00260662
-0.00251091
0.00275278
-0.00257331
0.00288387
-0.00262167
-0.00265764
0.00300172
9.78734e-06
6.57095e-06
4.40593e-05
-5.71448e-05
0.000106468
-0.000180375
0.000199229
-0.000350179
0.000322837
-0.000555331
0.000475781
-0.000784892
0.000654484
-0.00102796
0.000853559
-0.00127397
0.00106636
-0.00151327
0.00128572
-0.0017378
0.0015047
-0.00194156
0.00171723
-0.00212078
0.00191854
-0.00227387
0.00210532
-0.00240108
0.00227572
-0.00250404
0.00242921
-0.00258532
0.00256624
-0.00264795
0.00268806
-0.00269512
0.00279632
-0.00272993
-0.00275464
0.00289332
1.18835e-05
-5.31251e-06
5.1994e-05
-9.72553e-05
0.000123501
-0.000251883
0.000227824
-0.000454502
0.000364227
-0.000691734
0.000529571
-0.000950236
0.000718457
-0.00121685
0.000923786
-0.0014793
0.00113762
-0.00172711
0.00135213
-0.00195232
0.00156044
-0.00214986
0.00175713
-0.00231747
0.00193855
-0.0024553
0.00210276
-0.00256529
0.00224928
-0.00265056
0.0023788
-0.00271484
0.0024928
-0.00276195
0.00259322
-0.00279554
0.00268218
-0.00281889
-0.00283453
0.00276208
1.41651e-05
-1.94776e-05
6.04185e-05
-0.000143509
0.000141175
-0.000332639
0.000256725
-0.000570052
0.000404749
-0.000839758
0.00058021
-0.0011257
0.000775805
-0.00141244
0.000982907
-0.0016864
0.00119272
-0.00193692
0.00139734
-0.00215694
0.00159053
-0.00234305
0.00176806
-0.00249499
0.00192767
-0.00261491
0.00206886
-0.00270648
0.00219243
-0.00277414
0.00230006
-0.00282247
0.0023939
-0.00285579
0.00247625
-0.00287789
0.00254935
-0.00289199
-0.00290064
0.00261546
1.66031e-05
-3.60808e-05
6.91817e-05
-0.000196087
0.000159083
-0.00042254
0.000285116
-0.000696085
0.000443051
-0.000997694
0.000625786
-0.00130843
0.000824211
-0.00161087
0.00102855
-0.00189074
0.00122971
-0.00213808
0.00142033
-0.00234756
0.00159532
-0.00251805
0.00175193
-0.0026516
0.0018894
-0.00275239
0.00200855
-0.00282563
0.00211119
-0.00287677
0.00219964
-0.00291092
0.0022764
-0.00293254
0.00234383
-0.00294532
0.00240407
-0.00295223
-0.00295565
0.00245908
1.91592e-05
-5.52399e-05
7.81001e-05
-0.000255028
0.000176761
-0.000521202
0.000312114
-0.000831437
0.00047777
-0.00116335
0.000664537
-0.0014952
0.000861786
-0.00180812
0.00105911
-0.00208806
0.00124775
-0.00232672
0.00142142
-0.00252123
0.00157652
-0.00267315
0.00171186
-0.00278693
0.00182809
-0.00286861
0.00192707
-0.00292461
0.00201129
-0.00296099
0.00208341
-0.00298305
0.00214597
-0.0029951
0.0022012
-0.00300055
0.00225097
-0.003002
-0.00300158
0.0022969
2.17858e-05
-7.70258e-05
8.69624e-05
-0.000320205
0.000193703
-0.000627942
0.000336823
-0.000974557
0.000507627
-0.00133415
0.000694993
-0.00168256
0.000887217
-0.00200034
0.00107387
-0.00227472
0.00124709
-0.00249994
0.00140205
-0.00267619
0.00153679
-0.00280788
0.00165158
-0.00290173
0.00174824
-0.00296527
0.00182934
-0.00300571
0.00189775
-0.0030294
0.00195616
-0.00304146
0.00200698
-0.00304591
0.00205215
-0.00304573
0.00209327
-0.00304311
-0.00303989
0.00213158
2.44274e-05
-0.000101453
9.55365e-05
-0.000391314
0.000209387
-0.000741793
0.000358384
-0.00112355
0.000531526
-0.0015073
0.000716081
-0.00186712
0.000899831
-0.00218409
0.00107293
-0.00244781
0.00122885
-0.00265585
0.00136442
-0.00281177
0.00147928
-0.00292274
0.00157497
-0.00299742
0.0016541
-0.0030444
0.00171969
-0.00307131
0.00177467
-0.00308438
0.00182161
-0.00308841
0.00186263
-0.00308693
0.00189939
-0.00308248
0.00193314
-0.00307686
-0.00307158
0.00196483
2.70215e-05
-0.000128475
0.000103579
-0.000467871
0.000223301
-0.000861515
0.000376033
-0.00127629
0.000548619
-0.00167988
0.000727182
-0.00204568
0.000899588
-0.0023565
0.00105708
-0.00260531
0.00119476
-0.00279353
0.00131115
-0.00292816
0.00140727
-0.00301886
0.00148563
-0.00307578
0.00154937
-0.00310814
0.00160164
-0.00312358
0.00164525
-0.00312798
0.0016825
-0.00312566
0.00171521
-0.00311964
0.00174471
-0.00311198
0.00177199
-0.00310414
-0.00309733
0.00179774
2.95013e-05
-0.000157976
0.000110847
-0.000549217
0.000234979
-0.000985646
0.00038915
-0.00143046
0.00055836
-0.00184909
0.000728136
-0.00221546
0.000886994
-0.00251535
0.00102765
-0.00274596
0.00114695
-0.00291283
0.00124496
-0.00302618
0.00132386
-0.00309775
0.00138679
-0.00313871
0.00143714
-0.00315849
0.00147798
-0.00316441
0.00151187
-0.00316187
0.00154081
-0.0031546
0.00156627
-0.0031451
0.00158933
-0.00313505
0.00161074
-0.00312554
-0.00311757
0.00163097
3.17983e-05
-0.000189774
0.000117112
-0.000634531
0.000244019
-0.00111255
0.000397292
-0.00158373
0.000560515
-0.00201232
0.000719197
-0.00237414
0.000862982
-0.00265914
0.000986284
-0.00286926
0.00108764
-0.00301419
0.00116848
-0.00310702
0.0012318
-0.00316107
0.00128113
-0.00318804
0.00131984
-0.0031972
0.00135081
-0.00319538
0.00137627
-0.00318734
0.0013979
-0.00317623
0.00141688
-0.00316409
0.00143404
-0.00315221
0.00144995
-0.00314144
-0.00313256
0.00146493
3.38454e-05
-0.00022362
0.000122167
-0.000722852
0.00025011
-0.0012405
0.00040021
-0.00173383
0.000555149
-0.00216725
0.000700961
-0.00251995
0.000828773
-0.00278695
0.00093477
-0.00297526
0.00101905
-0.00309846
0.00108409
-0.00317206
0.00113347
-0.00321045
0.00117082
-0.0032254
0.00119937
-0.00322575
0.00122169
-0.0032177
0.00123969
-0.00320534
0.00125473
-0.00319127
0.00126774
-0.00317709
0.00127936
-0.00316382
0.00128999
-0.00315208
-0.00314246
0.00129989
3.55837e-05
-0.000259203
0.000125849
-0.000813117
0.000253056
-0.0013677
0.000397863
-0.00187864
0.000542597
-0.00231199
0.000674288
-0.00265164
0.000785759
-0.00289842
0.000874922
-0.00306442
0.000943202
-0.00316675
0.000993885
-0.00322275
0.00103082
-0.00324738
0.00105759
-0.00325217
0.00107717
-0.00324533
0.00109179
-0.00323232
0.00110303
-0.00321658
0.00111197
-0.00320021
0.00111934
-0.00318447
0.00112563
-0.00317011
0.00113114
-0.00315759
-0.00314736
0.00113605
3.69515e-05
-0.000296155
0.000128017
-0.000904183
0.000252738
-0.00149242
0.000390346
-0.00201625
0.000523351
-0.00244499
0.000640143
-0.00276844
0.000735328
-0.00299361
0.000808406
-0.0031375
0.000861879
-0.00322022
0.000899559
-0.00326043
0.000925377
-0.0032732
0.000942737
-0.00326953
0.000954276
-0.00325687
0.000961887
-0.00323993
0.00096686
-0.00322155
0.000970044
-0.00320339
0.000971999
-0.00318642
0.000973095
-0.00317121
0.000973563
-0.00315806
-0.00314731
0.000973515
3.7906e-05
-0.000334061
0.000128595
-0.000994872
0.000249169
-0.001613
0.00037794
-0.00214502
0.000498086
-0.00256514
0.000599608
-0.00286996
0.000678878
-0.00307288
0.00073678
-0.0031954
0.000776638
-0.00326008
0.000802556
-0.00328634
0.000818388
-0.00328903
0.000827259
-0.0032784
0.000831466
-0.00326108
0.000832582
-0.00324104
0.000831634
-0.0032206
0.000829282
-0.00320104
0.000825956
-0.0031831
0.000821938
-0.00316719
0.000817404
-0.00315353
-0.00314234
0.000812434
3.84121e-05
-0.000372473
0.000127547
-0.00108401
0.000242445
-0.0017279
0.000361028
-0.0022636
0.000467548
-0.00267166
0.00055376
-0.00295617
0.000617695
-0.00313681
0.0006614
-0.00323911
0.000688772
-0.00328745
0.000704016
-0.00330159
0.000710792
-0.0032958
0.000711904
-0.00327951
0.00070931
-0.00325848
0.000704293
-0.00323603
0.000697659
-0.00321397
0.000689915
-0.0031933
0.000681391
-0.00317457
0.000672305
-0.0031581
0.000662794
-0.00314401
-0.00313246
0.000652915
3.84468e-05
-0.00041092
0.000124883
-0.00117044
0.000232744
-0.00183576
0.000340071
-0.00237093
0.000432515
-0.0027641
0.000503626
-0.00302728
0.000552939
-0.00318613
0.000583426
-0.0032696
0.00059934
-0.00330336
0.000604837
-0.00330709
0.000603311
-0.00329428
0.000597223
-0.00327343
0.000588216
-0.00324948
0.00057732
-0.00322513
0.000565159
-0.0032018
0.000552117
-0.00318025
0.000538445
-0.0031609
0.000524317
-0.00314397
0.000509841
-0.00312954
-0.00311769
0.000495064
3.79991e-05
-0.000448919
0.000120653
-0.0012531
0.000220301
-0.00193541
0.000315577
-0.0024662
0.000393762
-0.00284229
0.000450162
-0.00308368
0.000485628
-0.00322159
0.000503829
-0.0032878
0.000509195
-0.00330873
0.000505721
-0.00330361
0.000496485
-0.00328504
0.00048362
-0.00326056
0.000468482
-0.00323434
0.000451885
-0.00320853
0.000434301
-0.00318422
0.00041602
-0.00316197
0.000397232
-0.00314211
0.000378077
-0.00312482
0.000358645
-0.00311011
-0.00309802
0.000338981
3.70696e-05
-0.000485989
0.000114942
-0.00133097
0.000205394
-0.00202586
0.000288072
-0.00254888
0.000352026
-0.00290624
0.000394228
-0.00312588
0.000416637
-0.003244
0.000423415
-0.00329458
0.000419019
-0.00330433
0.000407204
-0.0032918
0.000390724
-0.00326856
0.000371396
-0.00324123
0.000350326
-0.00321327
0.000328147
-0.00318635
0.000305212
-0.00316129
0.00028173
-0.00313849
0.000257847
-0.00311823
0.000233674
-0.00310065
0.000209296
-0.00308573
-0.00307348
0.000184754
3.56696e-05
-0.000521658
0.000107862
-0.00140316
0.000188329
-0.00210632
0.000258078
-0.00261863
0.000307996
-0.00295616
0.000336584
-0.00315447
0.000346707
-0.00325412
0.000342839
-0.00329071
0.000329347
-0.00329084
0.000309703
-0.00327215
0.000286333
-0.00324519
0.00026077
-0.00321567
0.000233907
-0.00318641
0.000206228
-0.00315868
0.000177989
-0.00313305
0.000149333
-0.00310984
0.000120368
-0.00308927
9.11865e-05
-0.00307146
6.18699e-05
-0.00305641
-0.00304408
3.24661e-05
3.382e-05
-0.000555478
9.95444e-05
-0.00146889
0.000169421
-0.0021762
0.000226097
-0.00267531
0.000262296
-0.00299236
0.000277892
-0.00317007
0.000276459
-0.00325269
0.000262633
-0.00327688
0.000240604
-0.00326881
0.000213537
-0.00324509
0.000183544
-0.0032152
0.000151909
-0.00318404
0.000119346
-0.00315384
8.62203e-05
-0.00312555
5.27064e-05
-0.00309953
1.88958e-05
-0.00307603
-1.51394e-05
-0.00305523
-4.93211e-05
-0.00303728
-8.35657e-05
-0.00302217
-0.00300983
-0.000117814
3.15495e-05
-0.000587028
9.01362e-05
-0.00152747
0.000148989
-0.00223505
0.000192601
-0.00271892
0.000215487
-0.00301524
0.00021872
-0.0031733
0.00020641
-0.00324038
0.000183227
-0.0032537
0.000153127
-0.00323871
0.000118955
-0.00321091
8.25372e-05
-0.00317878
4.49409e-05
-0.00314644
6.73513e-06
-0.00311564
-3.18088e-05
-0.00308701
-7.05797e-05
-0.00306076
-0.000109533
-0.00303707
-0.000148629
-0.00301613
-0.000187804
-0.00299811
-0.000226965
-0.00298301
-0.00297076
-0.000266036
2.88938e-05
-0.000615921
7.97913e-05
-0.00157837
0.000127341
-0.0022826
0.000158024
-0.0027496
0.000168061
-0.00302528
0.000159557
-0.0031648
0.000136993
-0.00321782
0.000104975
-0.00322168
6.71851e-05
-0.00320092
2.61578e-05
-0.00316989
-1.65421e-05
-0.00313608
-6.00306e-05
-0.00310295
-0.000103853
-0.00307182
-0.000147807
-0.00304305
-0.000191833
-0.00301674
-0.000235927
-0.00299298
-0.000280083
-0.00297198
-0.00032425
-0.00295394
-0.000368325
-0.00293893
-0.00292688
-0.000412205
2.58934e-05
-0.000641815
6.86672e-05
-0.00162114
0.000104772
-0.00231871
0.000122763
-0.00276759
0.000120457
-0.00302298
0.000100817
-0.00314516
6.8567e-05
-0.00318557
2.81683e-05
-0.00318128
-1.69927e-05
-0.00315576
-6.46811e-05
-0.0031222
-0.000113565
-0.0030872
-0.000162911
-0.0030536
-0.000212351
-0.00302238
-0.000261732
-0.00299367
-0.00031103
-0.00296744
-0.000360279
-0.00294373
-0.000409509
-0.00292275
-0.000458691
-0.00290476
-0.000507705
-0.00288992
-0.00287817
-0.000556408
2.25928e-05
-0.000664408
5.69212e-05
-0.00165547
8.15624e-05
-0.00234335
8.71786e-05
-0.00277321
7.30548e-05
-0.00300885
4.28613e-05
-0.00311496
1.44178e-06
-0.00314415
-4.69408e-05
-0.0031329
-9.92063e-05
-0.00310349
-0.000153402
-0.003068
-0.000208403
-0.0030322
-0.0002636
-0.00299841
-0.000318687
-0.00296729
-0.000373541
-0.00293882
-0.000428155
-0.00291282
-0.000482597
-0.00288929
-0.000536941
-0.0028684
-0.000591188
-0.00285051
-0.000645208
-0.0028359
-0.00282458
-0.000698797
1.90394e-05
-0.000683447
4.47072e-05
-0.00168114
5.79708e-05
-0.00235661
5.15924e-05
-0.00276683
2.61913e-05
-0.00298345
-1.40008e-05
-0.00307477
-6.41143e-05
-0.00309403
-0.000120127
-0.00307689
-0.000179266
-0.00304436
-0.000239843
-0.00300742
-0.000300915
-0.00297113
-0.000361979
-0.00293734
-0.00042277
-0.0029065
-0.000483173
-0.00287841
-0.000543183
-0.00285281
-0.000602887
-0.00282958
-0.000662408
-0.00280888
-0.000721797
-0.00279112
-0.00078092
-0.00277678
-0.00276602
-0.00083948
1.52818e-05
-0.000698729
3.21737e-05
-0.00169803
3.42374e-05
-0.00235868
1.62948e-05
-0.00274889
-1.98378e-05
-0.00294732
-6.94951e-05
-0.00302511
-0.00012786
-0.00303567
-0.000191178
-0.00301357
-0.000256979
-0.00297855
-0.000323822
-0.00294058
-0.000390928
-0.00290402
-0.000457886
-0.00287039
-0.000524464
-0.00283992
-0.000590536
-0.00281234
-0.000656073
-0.00278728
-0.000721156
-0.0027645
-0.00078595
-0.00274409
-0.000850571
-0.0027265
-0.000914897
-0.00271245
-0.00270243
-0.000978493
1.13695e-05
-0.000710098
1.94622e-05
-0.00170612
1.05818e-05
-0.0023498
-1.84555e-05
-0.00271985
-6.47707e-05
-0.002901
-0.000123378
-0.00296651
-0.000189573
-0.00296947
-0.000259887
-0.00294325
-0.000332141
-0.0029063
-0.000405125
-0.0028676
-0.000478218
-0.00283093
-0.000551095
-0.00279751
-0.000623556
-0.00276746
-0.000695461
-0.00274044
-0.000766733
-0.00271601
-0.000837408
-0.00269382
-0.00090766
-0.00267384
-0.000977682
-0.00265648
-0.00104738
-0.00264275
-0.00263359
-0.00111622
7.35135e-06
-0.00071745
6.70539e-06
-0.00170548
-1.27965e-05
-0.00233029
-5.24284e-05
-0.00268022
-0.000108377
-0.00284505
-0.00017543
-0.00289945
-0.000249046
-0.00289586
-0.000326044
-0.00286626
-0.000404528
-0.00282782
-0.000483504
-0.00278862
-0.0005625
-0.00275193
-0.000641288
-0.00271872
-0.000719717
-0.00268903
-0.000797646
-0.00266251
-0.000874946
-0.00263871
-0.000951576
-0.00261719
-0.00102769
-0.00259773
-0.00110356
-0.00258061
-0.00117918
-0.00256713
-0.00255858
-0.00125419
3.27489e-06
-0.000720725
-5.97425e-06
-0.00169623
-3.57194e-05
-0.00230055
-8.54223e-05
-0.00263051
-0.000150453
-0.00278002
-0.000225457
-0.00282445
-0.000306082
-0.00281523
-0.00038944
-0.0027829
-0.000473899
-0.00274336
-0.000558669
-0.00270385
-0.000643427
-0.00266717
-0.000728056
-0.00263409
-0.000812491
-0.00260459
-0.00089663
-0.00257837
-0.000980326
-0.00255501
-0.00106347
-0.00253405
-0.00114615
-0.00251504
-0.00122877
-0.00249799
-0.00131154
-0.00248435
-0.00247507
-0.00139506
-8.14941e-07
-0.00071991
-1.8466e-05
-0.00167858
-5.80311e-05
-0.00226098
-0.000117265
-0.00257128
-0.000190828
-0.00270646
-0.000273287
-0.00274199
-0.000360502
-0.00272802
-0.000449865
-0.00269353
-0.000539991
-0.00265323
-0.000630279
-0.00261357
-0.000720554
-0.0025769
-0.000810836
-0.00254381
-0.000901197
-0.00251423
-0.000991672
-0.00248789
-0.00108221
-0.00246448
-0.00117269
-0.00244357
-0.00126313
-0.0024246
-0.00135388
-0.00240724
-0.00144552
-0.00239272
-0.00237982
-0.00154077
-4.87679e-06
-0.000715033
-3.06727e-05
-0.00165278
-7.96e-05
-0.00221206
-0.000147814
-0.00250307
-0.000229362
-0.00262491
-0.000318783
-0.00265257
-0.000412154
-0.00263465
-0.00050713
-0.00259856
-0.000602543
-0.00255782
-0.000697951
-0.00251816
-0.000793309
-0.00248154
-0.000888775
-0.00244835
-0.000984601
-0.0024184
-0.00108108
-0.00239141
-0.0011785
-0.00236706
-0.00127705
-0.00234502
-0.00137686
-0.00232479
-0.0014785
-0.0023056
-0.00158423
-0.00228698
-0.00228044
-0.00168361
-8.86164e-06
-0.000706171
-4.24923e-05
-0.00161915
-0.000100296
-0.00215425
-0.000176938
-0.00242643
-0.000265935
-0.00253591
-0.000361833
-0.00255667