/*--------------------------------*- C++ -*----------------------------------*\
  =========                 |
  \\      /  F ield         | OpenFOAM: The Open Source CFD Toolbox
   \\    /   O peration     | Website:  https://openfoam.org
    \\  /    A nd           | Version:  6.0
     \\/     M anipulation  |
\*---------------------------------------------------------------------------*/
FoamFile
{
    version     2.0;
    format      ascii;
    class       volVectorField;
    location    "0.2";
    object      U;
}
// * * * * * * * * * * * * * * * * * * * * * * * * * * * * * * * * * * * * * //

dimensions      [0 1 -1 0 0 0 0];

internalField   nonuniform List<vector> 
8000
(
(-0.000819282 -0.00135182 8.79438e-22)
(0.00928106 -0.00885085 -4.80252e-21)
(0.0399996 -0.016888 6.99031e-21)
(0.0858598 -0.0231516 -5.97828e-21)
(0.140221 -0.0269776 -3.77372e-21)
(0.197665 -0.0286563 1.12603e-20)
(0.254406 -0.0288026 1.15472e-21)
(0.308218 -0.0280068 5.11291e-22)
(0.358059 -0.0267106 6.73978e-21)
(0.403633 -0.0252013 3.62183e-21)
(0.445042 -0.0236476 -2.75944e-21)
(0.482581 -0.0221392 -1.00703e-20)
(0.516608 -0.0207176 9.61792e-22)
(0.547488 -0.0193976 -8.4331e-22)
(0.575562 -0.0181804 9.318e-21)
(0.601137 -0.0170603 -5.56259e-21)
(0.624484 -0.0160294 7.49734e-21)
(0.645834 -0.0150787 -1.11677e-20)
(0.665327 -0.0142017 1.2909e-23)
(0.684724 -0.0133585 -1.9368e-21)
(-0.000577403 -0.00406825 -2.72788e-21)
(0.0108147 -0.026527 1.29826e-20)
(0.0429679 -0.050575 1.15328e-20)
(0.0899599 -0.0693049 1.06074e-20)
(0.145016 -0.0807397 1.54146e-20)
(0.202767 -0.0857504 -2.96183e-21)
(0.259534 -0.0861807 1.97751e-20)
(0.313198 -0.0837965 4.91686e-21)
(0.3628 -0.0799179 -1.32637e-21)
(0.408096 -0.0754036 -1.58488e-20)
(0.449222 -0.0707574 1.67991e-20)
(0.486489 -0.0662465 -2.29686e-20)
(0.520264 -0.0619951 1.67226e-20)
(0.550915 -0.0580471 1.91377e-20)
(0.578782 -0.0544053 2.51707e-20)
(0.604171 -0.0510527 -1.66909e-20)
(0.627349 -0.0479649 4.36585e-21)
(0.648547 -0.0451163 1.67818e-20)
(0.667904 -0.0424874 -1.59323e-20)
(0.687183 -0.0399597 1.01562e-20)
(-8.48258e-05 -0.00685707 -1.82765e-20)
(0.0138919 -0.0442157 -1.2963e-20)
(0.0489066 -0.0841163 -1.73606e-20)
(0.0981492 -0.115138 -1.80594e-21)
(0.154582 -0.134037 -1.23362e-20)
(0.212934 -0.142282 -2.15672e-20)
(0.269745 -0.142943 3.41682e-20)
(0.323111 -0.138955 2.1249e-20)
(0.372232 -0.132504 2.68825e-20)
(0.416973 -0.125012 -3.05408e-20)
(0.457534 -0.11731 2.27673e-20)
(0.494261 -0.109836 2.74389e-20)
(0.527536 -0.102795 9.16733e-21)
(0.557732 -0.0962571 -9.22818e-21)
(0.585189 -0.0902256 1.98161e-21)
(0.610209 -0.084672 -4.33552e-21)
(0.633055 -0.0795554 -3.88602e-20)
(0.653952 -0.0748334 6.11105e-21)
(0.67304 -0.0704734 3.6799e-20)
(0.692088 -0.0662792 -4.18023e-20)
(0.000676158 -0.00976506 -3.05638e-21)
(0.0185344 -0.0619226 1.33463e-20)
(0.0578193 -0.117411 6.32418e-21)
(0.110405 -0.160437 -9.75545e-22)
(0.16887 -0.186561 -2.07191e-20)
(0.228097 -0.197877 -6.05725e-20)
(0.284958 -0.198683 -6.45484e-20)
(0.337865 -0.193066 -4.85013e-21)
(0.386263 -0.184063 -4.3353e-20)
(0.430174 -0.17364 -6.68297e-20)
(0.469894 -0.162941 5.54026e-20)
(0.505817 -0.152572 -8.0065e-20)
(0.538349 -0.142807 1.50862e-20)
(0.567871 -0.133742 -5.48796e-21)
(0.59472 -0.125379 -1.70655e-20)
(0.619194 -0.117678 -2.08712e-20)
(0.64155 -0.110579 3.37445e-20)
(0.662004 -0.104024 2.63065e-20)
(0.680696 -0.0979679 4.52446e-20)
(0.699407 -0.0921383 -5.77239e-20)
(0.00173177 -0.0128352 1.02101e-21)
(0.0247718 -0.0796471 2.00273e-20)
(0.0697097 -0.150354 1.23137e-20)
(0.126693 -0.204982 3.64371e-20)
(0.187806 -0.238 -7.72304e-21)
(0.248153 -0.252166 3.09961e-20)
(0.305047 -0.253001 -6.4965e-21)
(0.357326 -0.245724 7.4293e-20)
(0.404754 -0.234197 -3.72297e-20)
(0.447563 -0.220908 4.99735e-20)
(0.48617 -0.2073 4.57991e-20)
(0.521034 -0.194127 4.81627e-20)
(0.552591 -0.181731 -4.48609e-20)
(0.581227 -0.170228 3.68101e-20)
(0.60728 -0.159616 -5.29795e-20)
(0.63104 -0.14984 -1.45846e-20)
(0.652755 -0.140824 -3.39166e-20)
(0.672633 -0.132495 -1.4987e-20)
(0.690811 -0.124791 5.62668e-20)
(0.70909 -0.117371 -7.89113e-20)
(0.00311675 -0.0161072 7.4123e-21)
(0.0326424 -0.0973818 -5.28057e-21)
(0.0845787 -0.182834 -7.94591e-23)
(0.146959 -0.248551 -1.6102e-20)
(0.211287 -0.288047 1.3142e-20)
(0.272956 -0.304785 -4.80837e-20)
(0.329841 -0.305506 -2.17769e-20)
(0.381311 -0.296535 -4.75754e-22)
(0.427521 -0.282525 -7.98881e-20)
(0.46896 -0.266457 -2.75098e-20)
(0.506192 -0.250049 -1.15324e-20)
(0.539752 -0.234192 -4.31771e-20)
(0.57011 -0.219284 -3.90039e-20)
(0.597661 -0.205456 -6.97295e-20)
(0.622741 -0.192699 6.21182e-20)
(0.645631 -0.180943 -8.34927e-20)
(0.666568 -0.170096 2.60049e-21)
(0.685746 -0.160067 1.03631e-19)
(0.703305 -0.15078 -1.27687e-19)
(0.721067 -0.141824 -4.34603e-20)
(0.00487239 -0.0196138 -4.38843e-21)
(0.0421898 -0.115109 -1.44089e-20)
(0.102423 -0.214728 -1.76181e-21)
(0.171134 -0.290919 2.95518e-21)
(0.239179 -0.336394 1.14877e-21)
(0.302325 -0.355377 4.23156e-20)
(0.359129 -0.355821 4.28115e-20)
(0.409592 -0.345122 6.54956e-21)
(0.454335 -0.328684 7.05013e-20)
(0.494141 -0.309946 5.18484e-20)
(0.529746 -0.290873 1.57126e-20)
(0.561771 -0.272477 5.02828e-20)
(0.590721 -0.255202 4.90633e-23)
(0.617002 -0.239185 6.56467e-20)
(0.640946 -0.22441 -2.95982e-20)
(0.662822 -0.21079 3.29684e-20)
(0.682857 -0.198216 -2.21676e-20)
(0.701227 -0.186579 2.96441e-20)
(0.718073 -0.175788 7.87638e-20)
(0.735252 -0.165368 2.15801e-20)
(0.00704605 -0.0233803 -1.17383e-20)
(0.0534614 -0.132797 -1.17767e-20)
(0.12323 -0.245905 1.0797e-20)
(0.199127 -0.331854 -2.07841e-20)
(0.271317 -0.382737 2.65689e-21)
(0.336039 -0.403597 6.5921e-22)
(0.392657 -0.403587 -1.32195e-20)
(0.441902 -0.39113 -5.86784e-20)
(0.484926 -0.372335 -4.09497e-22)
(0.522846 -0.351057 5.41897e-20)
(0.556585 -0.32948 -1.74746e-20)
(0.586857 -0.308715 -7.76209e-22)
(0.614205 -0.28924 1.10435e-20)
(0.639047 -0.271196 -3.7494e-21)
(0.661706 -0.254552 -1.18833e-19)
(0.68244 -0.239206 2.07839e-20)
(0.701463 -0.225028 2.96742e-20)
(0.718932 -0.211895 5.02848e-20)
(0.73499 -0.199698 -5.42241e-20)
(0.751536 -0.187897 -2.111e-20)
(0.00968971 -0.0274233 2.00124e-20)
(0.0665054 -0.150401 -3.44411e-20)
(0.14698 -0.276221 5.07333e-20)
(0.230824 -0.371121 4.74635e-20)
(0.307504 -0.426779 2.92146e-20)
(0.373841 -0.449114 1.39671e-20)
(0.430131 -0.448465 -1.00253e-20)
(0.477934 -0.43423 3.8371e-20)
(0.518989 -0.413166 -2.69757e-20)
(0.554779 -0.3895 -2.68441e-20)
(0.586427 -0.365602 -7.44672e-21)
(0.614745 -0.342661 -3.50502e-20)
(0.640316 -0.321179 -3.20346e-20)
(0.663562 -0.30129 1.99411e-20)
(0.684803 -0.28295 -6.25494e-20)
(0.704282 -0.266037 8.00302e-20)
(0.722197 -0.250402 -2.88441e-20)
(0.738689 -0.235904 -3.9683e-20)
(0.753903 -0.222418 1.33457e-20)
(0.769786 -0.209339 -6.67019e-20)
(0.0128584 -0.0317489 9.14226e-20)
(0.081368 -0.16786 7.48166e-21)
(0.173637 -0.305519 -2.39193e-20)
(0.266087 -0.408483 -1.35261e-20)
(0.34751 -0.468229 -6.14398e-20)
(0.415437 -0.491616 2.62586e-20)
(0.471223 -0.490141 3.31058e-21)
(0.517346 -0.474119 -1.2726e-20)
(0.556187 -0.450895 5.20057e-21)
(0.589615 -0.425015 4.14305e-21)
(0.618965 -0.399001 6.52583e-21)
(0.645145 -0.374099 1.77056e-21)
(0.668776 -0.350821 4.44103e-20)
(0.690288 -0.329291 -3.28943e-20)
(0.70999 -0.309448 3.57722e-20)
(0.728114 -0.29115 -1.33772e-20)
(0.744842 -0.274227 -2.1418e-20)
(0.760294 -0.258522 1.05316e-20)
(0.774626 -0.243888 2.24318e-20)
(0.789835 -0.229655 1.08258e-20)
(0.0166085 -0.0363517 -1.48368e-19)
(0.0980894 -0.185092 -3.57187e-21)
(0.203147 -0.33363 2.98444e-20)
(0.304748 -0.4437 5.09818e-20)
(0.391071 -0.506808 -6.92287e-20)
(0.460498 -0.530812 -3.97424e-20)
(0.515572 -0.528331 5.16275e-20)
(0.55977 -0.51053 -3.80993e-20)
(0.596157 -0.485272 -1.18407e-20)
(0.627008 -0.457371 -5.25997e-21)
(0.653868 -0.429464 1.59214e-22)
(0.677744 -0.402833 1.85688e-21)
(0.699289 -0.377989 9.55525e-21)
(0.718939 -0.355041 2.85191e-20)
(0.736993 -0.333909 -2.02627e-20)
(0.753671 -0.314429 1.6539e-20)
(0.769139 -0.296414 -2.89622e-20)
(0.783503 -0.27969 1.12899e-20)
(0.796932 -0.26408 -1.95155e-20)
(0.811463 -0.248851 5.88737e-20)
(0.0209951 -0.041214 -4.0993e-19)
(0.1167 -0.202001 2.57765e-19)
(0.235438 -0.360372 2.51661e-20)
(0.346614 -0.476532 8.65986e-21)
(0.437894 -0.542252 -9.24824e-20)
(0.508669 -0.566437 1.24414e-19)
(0.562792 -0.562783 -5.35418e-21)
(0.604816 -0.54323 -1.00582e-20)
(0.638521 -0.516083 -4.244e-20)
(0.666594 -0.48637 3.15425e-20)
(0.690792 -0.456807 5.11425e-20)
(0.712212 -0.428692 -6.76026e-21)
(0.73154 -0.402523 1.92665e-20)
(0.749209 -0.378395 -6.12282e-21)
(0.765511 -0.356204 -5.63277e-21)
(0.780655 -0.33577 -5.50863e-21)
(0.794795 -0.316887 -1.46459e-20)
(0.808023 -0.299363 2.46747e-20)
(0.820538 -0.28299 -9.00082e-21)
(0.834374 -0.266969 -7.35664e-21)
(0.0260704 -0.0463049 3.33282e-19)
(0.137217 -0.218467 1.6397e-19)
(0.270413 -0.385551 5.37645e-19)
(0.391464 -0.506744 2.42831e-20)
(0.487661 -0.574314 -3.39849e-20)
(0.559573 -0.598254 -1.55275e-19)
(0.612483 -0.593281 1.38183e-19)
(0.652083 -0.57202 2.08164e-19)
(0.68289 -0.543147 8.37032e-20)
(0.708005 -0.511843 7.23349e-20)
(0.729386 -0.48087 5.75787e-20)
(0.748216 -0.451521 -5.16019e-20)
(0.765202 -0.424277 3.55143e-21)
(0.780777 -0.399211 -1.55738e-20)
(0.795224 -0.376206 6.66583e-20)
(0.808739 -0.355063 1.66659e-21)
(0.821472 -0.335561 -1.33949e-20)
(0.833505 -0.317499 -1.58655e-21)
(0.845085 -0.300619 2.4728e-20)
(0.858157 -0.284079 3.14011e-21)
(0.0318812 -0.0515801 1.61214e-20)
(0.159643 -0.234354 -3.27169e-19)
(0.307953 -0.408966 -4.60899e-19)
(0.43905 -0.534106 -1.16624e-19)
(0.540032 -0.602768 8.08723e-20)
(0.612817 -0.626057 2.31766e-20)
(0.664235 -0.619642 2.52528e-19)
(0.701167 -0.596742 -2.75454e-19)
(0.728877 -0.566318 -9.4275e-20)
(0.750873 -0.533652 -1.41573e-19)
(0.769303 -0.501516 -8.90714e-20)
(0.785421 -0.471182 -7.91673e-20)
(0.79995 -0.443108 2.18222e-20)
(0.813318 -0.417348 -2.8371e-20)
(0.825795 -0.393771 7.71786e-20)
(0.837571 -0.372172 -2.75203e-20)
(0.84879 -0.352322 -9.55621e-20)
(0.859535 -0.334016 -1.51689e-20)
(0.870119 -0.316932 5.03059e-20)
(0.882238 -0.300243 -2.79002e-20)
(0.0384676 -0.0569832 -4.28804e-20)
(0.183961 -0.249509 5.23117e-19)
(0.347916 -0.430407 -6.16655e-19)
(0.489108 -0.558396 1.27999e-19)
(0.594654 -0.627408 -2.14054e-19)
(0.668005 -0.649672 4.89798e-19)
(0.71764 -0.64172 -2.906e-19)
(0.751669 -0.617269 2.68055e-19)
(0.776104 -0.585482 -2.5441e-19)
(0.794844 -0.551685 7.10877e-20)
(0.810206 -0.518629 -4.149e-20)
(0.823505 -0.48755 -9.13658e-20)
(0.835469 -0.458879 -9.68051e-20)
(0.846514 -0.432652 7.41368e-20)
(0.856895 -0.408732 -5.924e-20)
(0.866791 -0.386915 -1.10365e-19)
(0.876341 -0.366982 1.02589e-19)
(0.885638 -0.348734 -1.40954e-19)
(0.89507 -0.331777 4.61543e-20)
(0.905851 -0.315421 -7.02945e-21)
(0.0458612 -0.0624461 -7.76506e-19)
(0.210135 -0.263766 -8.02515e-19)
(0.390137 -0.449663 7.61076e-20)
(0.541353 -0.579405 -6.67934e-19)
(0.651163 -0.648056 -4.97118e-20)
(0.724737 -0.668954 -3.77106e-19)
(0.772297 -0.659406 -8.2175e-20)
(0.803204 -0.633513 -2.07105e-19)
(0.824209 -0.600559 -2.12855e-20)
(0.839578 -0.565861 -8.48727e-20)
(0.85178 -0.532117 -1.67467e-20)
(0.862169 -0.500517 -1.65514e-19)
(0.871471 -0.471457 1.28324e-19)
(0.880079 -0.444961 -2.15015e-19)
(0.888227 -0.420893 5.2344e-20)
(0.896074 -0.399059 -1.73652e-21)
(0.903747 -0.379266 -1.0472e-19)
(0.911353 -0.361335 1.96265e-19)
(0.919321 -0.34481 -6.56193e-20)
(0.928139 -0.329365 -2.62529e-20)
(0.054084 -0.0678915 9.46988e-19)
(0.238108 -0.276947 4.90741e-19)
(0.434431 -0.466522 4.13609e-19)
(0.595485 -0.596937 4.90453e-20)
(0.709192 -0.664556 5.23795e-19)
(0.78262 -0.683794 6.40908e-19)
(0.827816 -0.672621 4.78605e-19)
(0.855403 -0.645415 -9.68576e-22)
(0.87285 -0.611498 2.47451e-19)
(0.884761 -0.576123 3.61848e-19)
(0.893732 -0.541912 -1.01376e-19)
(0.901144 -0.509991 1.35075e-19)
(0.907702 -0.480722 1.0893e-19)
(0.91377 -0.454115 8.28827e-20)
(0.919548 -0.430036 4.88293e-19)
(0.925166 -0.408315 -1.7468e-19)
(0.930719 -0.388796 -2.08199e-20)
(0.936323 -0.371325 1.84276e-19)
(0.942364 -0.35545 -1.01192e-19)
(0.948482 -0.341462 3.70939e-20)
(0.0631477 -0.0732342 -8.49296e-19)
(0.267803 -0.288872 9.60989e-20)
(0.480591 -0.480781 -6.38244e-19)
(0.651195 -0.610817 -4.4102e-20)
(0.768372 -0.676782 4.10202e-19)
(0.84127 -0.694112 -1.04409e-18)
(0.883824 -0.681322 7.12131e-20)
(0.907919 -0.652952 3.79633e-19)
(0.921709 -0.61828 3.28306e-19)
(0.930105 -0.582448 -1.28062e-19)
(0.935807 -0.547972 3.11338e-20)
(0.940199 -0.515907 9.07848e-20)
(0.943957 -0.486573 -3.42016e-20)
(0.947403 -0.45996 -3.73162e-19)
(0.950691 -0.435938 9.72378e-20)
(0.953906 -0.414354 2.21299e-19)
(0.957093 -0.39509 -2.97138e-19)
(0.960356 -0.378003 1.55576e-19)
(0.963955 -0.362762 4.22577e-20)
(0.966841 -0.350404 1.56562e-19)
(0.0730535 -0.0783837 -1.65205e-19)
(0.299124 -0.299354 -6.26748e-19)
(0.528394 -0.492244 2.39646e-19)
(0.708163 -0.62089 -5.6491e-20)
(0.828338 -0.684636 -1.03948e-18)
(0.900314 -0.699862 1.59381e-19)
(0.939966 -0.685499 -3.10565e-21)
(0.960424 -0.656133 1.44259e-19)
(0.970492 -0.62092 -6.13844e-19)
(0.975353 -0.584845 -6.03973e-21)
(0.977782 -0.550297 -9.19671e-20)
(0.979152 -0.518246 1.21133e-19)
(0.9801 -0.48896 2.99835e-19)
(0.980896 -0.462406 -4.77436e-20)
(0.981641 -0.438439 6.88869e-21)
(0.982352 -0.416909 1.12384e-19)
(0.983011 -0.397698 -1.68089e-20)
(0.983679 -0.380644 1.81563e-19)
(0.984462 -0.365597 -1.03024e-19)
(0.984031 -0.354342 -1.5574e-19)
(0.0837923 -0.0832462 1.31212e-19)
(0.331952 -0.308214 6.19881e-21)
(0.577598 -0.50073 2.67525e-19)
(0.766062 -0.627025 6.02386e-19)
(0.888725 -0.68805 2.91659e-19)
(0.959387 -0.701031 1.594e-20)
(0.995899 -0.685174 -2.97729e-19)
(1.01261 -0.655 8.58002e-20)
(1.01893 -0.619467 3.11409e-19)
(1.02027 -0.583363 -5.09274e-19)
(1.01946 -0.548932 3.58998e-19)
(1.01785 -0.517047 -2.44715e-19)
(1.01604 -0.487922 1.91602e-19)
(1.01425 -0.461489 -3.81744e-19)
(1.01253 -0.437576 3.84892e-19)
(1.01084 -0.416006 -4.01482e-19)
(1.00911 -0.396611 -9.47476e-20)
(1.00734 -0.379154 2.97055e-19)
(1.00549 -0.363642 -1.02491e-19)
(1.00206 -0.352681 3.73033e-20)
(0.0953456 -0.0877278 -1.18838e-19)
(0.366153 -0.315277 1.03454e-18)
(0.627949 -0.506077 -3.80097e-20)
(0.824559 -0.629118 -5.80464e-19)
(0.94917 -0.686987 -3.43393e-19)
(1.01813 -0.697636 6.12142e-19)
(1.0513 -0.680401 -2.32817e-19)
(1.06418 -0.649626 -3.31915e-20)
(1.06675 -0.614002 3.42485e-19)
(1.06462 -0.578088 -4.42709e-19)
(1.06064 -0.543965 3.07787e-20)
(1.05614 -0.512409 -4.68964e-19)
(1.05167 -0.483579 2.20056e-19)
(1.04741 -0.457371 -5.98503e-19)
(1.04338 -0.433591 8.79484e-19)
(1.03954 -0.412026 -1.53902e-19)
(1.03582 -0.392448 1.35217e-19)
(1.0323 -0.374533 -3.73227e-19)
(1.02888 -0.358447 1.80639e-20)
(1.02373 -0.347755 3.68435e-19)
(0.107685 -0.0917342 -3.92227e-19)
(0.401575 -0.320378 3.40009e-19)
(0.679177 -0.508142 -1.09721e-18)
(0.883315 -0.627094 1.53676e-18)
(1.00932 -0.681444 -1.0355e-18)
(1.07621 -0.689726 3.63132e-20)
(1.10584 -0.671264 -8.93635e-19)
(1.11485 -0.640112 5.98174e-19)
(1.11371 -0.604634 -1.03725e-19)
(1.10818 -0.56913 -4.42808e-19)
(1.10113 -0.535511 -2.11714e-19)
(1.09384 -0.504456 2.19173e-19)
(1.08681 -0.476072 1.29771e-19)
(1.0802 -0.450231 -5.66015e-19)
(1.074 -0.426727 2.11899e-19)
(1.06816 -0.405343 -2.63256e-19)
(1.06262 -0.385851 1.66293e-20)
(1.05749 -0.367967 -2.02686e-19)
(1.05267 -0.352046 6.83946e-20)
(1.04655 -0.341566 -2.79549e-19)
(0.120768 -0.0951711 1.09227e-18)
(0.438043 -0.323363 -6.11344e-19)
(0.730994 -0.506807 4.89055e-19)
(0.941983 -0.620906 -5.74926e-19)
(1.0688 -0.671444 9.68743e-19)
(1.13328 -0.677382 -3.72368e-20)
(1.15922 -0.657875 -9.22501e-20)
(1.16434 -0.626586 -6.05103e-20)
(1.15955 -0.591497 3.63968e-19)
(1.15073 -0.556626 5.4141e-19)
(1.14072 -0.523709 -3.32468e-19)
(1.13076 -0.49333 2.71963e-19)
(1.1213 -0.465549 4.51988e-19)
(1.11246 -0.440219 -3.31303e-19)
(1.10421 -0.417128 -5.79475e-19)
(1.09648 -0.39606 9.97662e-19)
(1.08922 -0.376795 -1.88906e-19)
(1.08247 -0.359087 -6.00775e-20)
(1.07611 -0.343375 4.98747e-19)
(1.06886 -0.332781 -1.26038e-19)
(0.134546 -0.0979492 -1.86874e-18)
(0.475371 -0.324095 -1.23313e-18)
(0.783104 -0.501978 -4.57439e-19)
(1.00021 -0.61054 8.30341e-19)
(1.12728 -0.657047 -1.74236e-18)
(1.189 -0.660712 7.92585e-19)
(1.21113 -0.640371 8.81652e-20)
(1.21238 -0.609198 5.19606e-20)
(1.20403 -0.574744 -8.25205e-19)
(1.19204 -0.540727 -2.81151e-19)
(1.1792 -0.50871 -4.3442e-19)
(1.1667 -0.479185 3.80127e-19)
(1.15494 -0.45217 8.48605e-20)
(1.14401 -0.427504 -1.47938e-20)
(1.13385 -0.404971 3.78391e-19)
(1.12438 -0.384356 -3.96884e-19)
(1.11553 -0.365441 -1.34251e-20)
(1.10736 -0.347991 1.84279e-20)
(1.09975 -0.332458 5.82095e-20)
(1.09177 -0.321609 2.41294e-19)
(0.148961 -0.0999831 6.09486e-19)
(0.513354 -0.322453 1.56675e-18)
(0.835197 -0.493588 1.23725e-18)
(1.05765 -0.596012 -3.94039e-19)
(1.1844 -0.63834 1.22378e-18)
(1.24306 -0.639852 -1.0733e-19)
(1.26129 -0.618912 -1.28288e-19)
(1.25872 -0.588117 7.20578e-20)
(1.24692 -0.554543 8.71829e-19)
(1.23188 -0.521602 4.5684e-19)
(1.21636 -0.490681 1.19867e-19)
(1.20146 -0.462185 1.20312e-20)
(1.18753 -0.436099 -7.05456e-19)
(1.17463 -0.412252 5.91914e-19)
(1.16268 -0.39043 9.08693e-20)
(1.15158 -0.370427 -1.55818e-19)
(1.14127 -0.352032 -5.88858e-19)
(1.13177 -0.335034 -3.03997e-20)
(1.123 -0.319896 2.10095e-19)
(1.11431 -0.309016 -2.99865e-20)
(0.163942 -0.101192 -1.62713e-18)
(0.551775 -0.318333 6.73588e-19)
(0.886956 -0.481599 -3.16739e-18)
(1.11396 -0.577368 1.20123e-18)
(1.23982 -0.61544 -9.10035e-19)
(1.29515 -0.614963 6.3241e-19)
(1.30943 -0.593681 -8.75627e-19)
(1.3031 -0.563529 9.30543e-20)
(1.28798 -0.531081 -2.40812e-20)
(1.27006 -0.49943 1.66527e-19)
(1.252 -0.469793 2.26024e-19)
(1.23484 -0.442499 -4.35823e-19)
(1.21888 -0.417501 2.12522e-19)
(1.20414 -0.394622 1.79959e-19)
(1.19053 -0.373654 7.03487e-19)
(1.17792 -0.354398 -3.18018e-19)
(1.16625 -0.336651 -1.87738e-19)
(1.15554 -0.320224 2.90428e-19)
(1.14572 -0.305582 1.32042e-19)
(1.13643 -0.29477 -2.92674e-19)
(0.179412 -0.101503 1.46715e-18)
(0.590402 -0.311653 1.41508e-18)
(0.938059 -0.466001 3.87093e-19)
(1.16877 -0.554688 1.5537e-18)
(1.2932 -0.588494 6.61286e-19)
(1.34496 -0.586229 -1.17427e-18)
(1.35527 -0.564878 1.61733e-18)
(1.34528 -0.535638 -7.62746e-19)
(1.327 -0.504553 6.74877e-19)
(1.30635 -0.474399 7.91965e-19)
(1.28592 -0.446229 -4.32881e-19)
(1.26665 -0.420301 8.19222e-20)
(1.2488 -0.396544 3.97596e-19)
(1.23235 -0.374781 2.60208e-19)
(1.21719 -0.35481 5.46555e-19)
(1.20319 -0.336444 -2.31279e-19)
(1.19026 -0.319493 -3.9312e-20)
(1.17843 -0.303792 2.85241e-19)
(1.16767 -0.289795 -6.39368e-20)
(1.1578 -0.279204 -3.1097e-21)
(0.195285 -0.100847 -7.6642e-19)
(0.628993 -0.302352 -2.80254e-18)
(0.988176 -0.446814 6.35601e-19)
(1.22174 -0.528078 -4.7489e-19)
(1.34423 -0.557673 -9.76383e-19)
(1.39222 -0.553858 -5.93629e-19)
(1.39856 -0.53272 -3.23853e-19)
(1.38505 -0.504658 8.35739e-19)
(1.36377 -0.475165 -4.69946e-19)
(1.34057 -0.446705 -4.33461e-19)
(1.31792 -0.420175 -5.08802e-19)
(1.2967 -0.395768 -8.61063e-20)
(1.2771 -0.373397 -6.93762e-20)
(1.25907 -0.352885 -9.4345e-19)
(1.24248 -0.334044 4.10619e-19)
(1.22719 -0.316695 -5.53764e-19)
(1.21311 -0.300663 1.49371e-19)
(1.20026 -0.28581 -1.10774e-18)
(1.18863 -0.272567 3.40626e-19)
(1.17822 -0.262317 4.01893e-19)
(0.211466 -0.0991664 -1.91948e-19)
(0.667296 -0.290391 1.4028e-18)
(1.03698 -0.424088 8.97442e-20)
(1.27255 -0.497677 1.99653e-19)
(1.3926 -0.523175 -3.84961e-19)
(1.43666 -0.518076 -4.7589e-21)
(1.43908 -0.497441 1.57523e-20)
(1.42218 -0.470816 -1.46954e-19)
(1.39809 -0.443135 5.84422e-19)
(1.37253 -0.416553 2.19367e-19)
(1.34785 -0.391823 8.54138e-19)
(1.32483 -0.369082 -2.46273e-19)
(1.30362 -0.348231 1.44091e-19)
(1.28414 -0.329099 -1.1387e-20)
(1.26623 -0.311509 3.48971e-19)
(1.24976 -0.295298 2.01347e-19)
(1.23463 -0.280304 4.52677e-19)
(1.22084 -0.266414 -7.01287e-19)
(1.20844 -0.254028 8.45908e-19)
(1.19752 -0.244236 -2.72185e-19)
(0.22785 -0.0964092 -1.85339e-18)
(0.70505 -0.275754 -5.63577e-19)
(1.08414 -0.397901 4.57497e-19)
(1.32086 -0.46365 2.78678e-19)
(1.43802 -0.48522 2.4453e-19)
(1.47802 -0.479125 2.17084e-19)
(1.47661 -0.459285 -5.44107e-19)
(1.45651 -0.434348 -1.8107e-19)
(1.4298 -0.408684 8.02535e-20)
(1.40207 -0.384151 -5.08412e-19)
(1.37552 -0.361369 -1.94709e-19)
(1.35086 -0.340427 1.22775e-18)
(1.32819 -0.321219 -3.11763e-19)
(1.30739 -0.303583 -3.91579e-19)
(1.28829 -0.287355 -1.64934e-19)
(1.27075 -0.272388 1.23409e-19)
(1.25466 -0.258535 1.2826e-19)
(1.24003 -0.245706 -5.79703e-19)
(1.22693 -0.234261 8.1211e-19)
(1.21554 -0.22503 -7.13702e-19)
(0.244328 -0.0925346 -2.12438e-19)
(0.74199 -0.258449 6.38945e-20)
(1.12933 -0.368362 -6.88673e-20)
(1.36637 -0.426192 1.02106e-18)
(1.48022 -0.44405 3.57836e-20)
(1.51609 -0.437267 3.11378e-19)
(1.51096 -0.418511 -6.28662e-19)
(1.48784 -0.395499 -1.13865e-20)
(1.45873 -0.372043 7.41333e-19)
(1.42902 -0.349714 8.32621e-20)
(1.4008 -0.329013 -5.64641e-19)
(1.37466 -0.30999 -3.77349e-20)
(1.35067 -0.292535 -3.8627e-19)
(1.32869 -0.276499 4.02704e-19)
(1.30852 -0.261734 5.04663e-19)
(1.29001 -0.248105 -5.64194e-20)
(1.27306 -0.235485 -5.30908e-20)
(1.25769 -0.223803 1.7837e-19)
(1.24398 -0.21337 -5.18569e-19)
(1.23216 -0.204795 4.86322e-19)
(0.260782 -0.0875121 2.12573e-19)
(0.777848 -0.238511 -1.35336e-18)
(1.17225 -0.335609 3.72545e-19)
(1.40877 -0.385519 -1.01944e-18)
(1.51896 -0.399928 3.44259e-19)
(1.55066 -0.392775 -1.13378e-18)
(1.54194 -0.375385 4.24612e-19)
(1.51603 -0.354522 -1.28706e-19)
(1.48473 -0.333446 -9.68295e-22)
(1.45326 -0.313462 1.0108e-19)
(1.42354 -0.29496 -3.85321e-19)
(1.3961 -0.277961 -4.99879e-19)
(1.37095 -0.262358 -8.71335e-20)
(1.3479 -0.248014 -3.75878e-20)
(1.32678 -0.234798 -1.00316e-19)
(1.30742 -0.222591 -3.1098e-20)
(1.28973 -0.211282 -8.79802e-20)
(1.2737 -0.200819 -7.30798e-20)
(1.25946 -0.191455 -2.01641e-19)
(1.24727 -0.183621 3.24043e-19)
(0.277091 -0.0813222 5.08489e-19)
(0.812356 -0.215999 -5.6209e-19)
(1.21258 -0.299807 1.16112e-18)
(1.4478 -0.341876 -4.75047e-19)
(1.554 -0.353134 1.21199e-18)
(1.58154 -0.345935 1.79243e-20)
(1.56942 -0.330182 5.17816e-19)
(1.54093 -0.311673 -1.24001e-19)
(1.50769 -0.293133 4.87704e-19)
(1.47467 -0.275615 2.1307e-20)
(1.44365 -0.259417 1.01649e-18)
(1.41507 -0.244535 -6.88031e-19)
(1.38889 -0.230868 9.96971e-20)
(1.36493 -0.218295 1.71831e-19)
(1.34299 -0.206703 7.74684e-19)
(1.32289 -0.195987 -2.77009e-19)
(1.30455 -0.186057 -4.97287e-20)
(1.28797 -0.176871 -2.46052e-19)
(1.2733 -0.168624 -2.0024e-20)
(1.26077 -0.161608 1.20918e-19)
(0.293127 -0.0739575 -2.37505e-19)
(0.845249 -0.190999 6.95145e-19)
(1.25004 -0.261151 -6.81388e-19)
(1.48321 -0.295527 2.67809e-19)
(1.58515 -0.303961 -2.78199e-19)
(1.60858 -0.297042 9.91918e-19)
(1.59326 -0.283184 -1.27449e-19)
(1.56245 -0.267216 2.81835e-19)
(1.5275 -0.251347 -1.65519e-19)
(1.49314 -0.236401 2.96785e-21)
(1.46101 -0.222594 1.62638e-19)
(1.43146 -0.209906 -1.14134e-19)
(1.40442 -0.198246 2.94406e-19)
(1.37968 -0.187512 -1.40556e-19)
(1.35704 -0.177606 -5.72373e-19)
(1.33632 -0.168441 5.53889e-19)
(1.31744 -0.159944 -2.32566e-19)
(1.30042 -0.152082 1.85229e-19)
(1.28539 -0.144986 3.00673e-19)
(1.27258 -0.138857 1.25385e-19)
(0.308763 -0.0654231 5.93672e-19)
(0.876266 -0.16362 -1.21959e-18)
(1.28435 -0.219858 2.25261e-19)
(1.51475 -0.246757 -1.62769e-19)
(1.61224 -0.252718 -5.91207e-19)
(1.63164 -0.246401 -4.15354e-19)
(1.61335 -0.234678 -8.01132e-20)
(1.58048 -0.221417 -6.57623e-19)
(1.54407 -0.208335 -2.87495e-20)
(1.50859 -0.196048 -1.07473e-19)
(1.47554 -0.184703 -2.79912e-19)
(1.4452 -0.174273 -6.34035e-20)
(1.41745 -0.164679 -1.98483e-19)
(1.39208 -0.155837 -3.05625e-19)
(1.36886 -0.147668 2.98279e-19)
(1.34765 -0.140101 3.3219e-20)
(1.32834 -0.133079 6.56727e-20)
(1.31097 -0.126577 -3.102e-19)
(1.29567 -0.120659 -1.08295e-20)
(1.28264 -0.115478 -4.5399e-19)
(0.323866 -0.0557371 6.35309e-19)
(0.905158 -0.134 4.26024e-19)
(1.31526 -0.176172 -6.59211e-19)
(1.54224 -0.195869 9.93879e-19)
(1.6351 -0.199726 -1.06568e-19)
(1.65062 -0.194323 3.171e-19)
(1.62961 -0.184955 1.03382e-19)
(1.59495 -0.174544 3.34355e-19)
(1.55733 -0.164344 -2.59463e-19)
(1.52096 -0.154786 7.59368e-20)
(1.48719 -0.14596 -7.38354e-20)
(1.45622 -0.137836 -2.98134e-20)
(1.42792 -0.130352 5.45772e-20)
(1.40205 -0.123443 -9.64418e-20)
(1.3784 -0.117049 -2.54868e-20)
(1.3568 -0.111116 -8.27885e-20)
(1.33718 -0.105601 -1.27568e-19)
(1.31956 -0.100482 8.39876e-20)
(1.30409 -0.0957592 -1.04795e-19)
(1.2909 -0.0915807 4.66289e-19)
(0.338308 -0.0449309 -3.10546e-19)
(0.931687 -0.102298 -8.8183e-19)
(1.34254 -0.13036 -1.03855e-19)
(1.5655 -0.143182 -3.24759e-20)
(1.65363 -0.145313 -3.43528e-19)
(1.66544 -0.141124 -5.23006e-19)
(1.64198 -0.134307 1.55615e-19)
(1.60581 -0.126867 -2.10495e-19)
(1.56723 -0.119625 -2.19909e-19)
(1.53019 -0.112846 1.14602e-19)
(1.49589 -0.106578 -8.46002e-20)
(1.46449 -0.100795 -1.59879e-19)
(1.43579 -0.0954527 6.94631e-22)
(1.40957 -0.0905066 1.04171e-19)
(1.38561 -0.0859142 -9.75862e-20)
(1.36375 -0.0816379 1.33908e-19)
(1.34393 -0.0776519 3.7908e-20)
(1.32617 -0.0739291 8.55271e-20)
(1.3106 -0.0704097 1.54275e-19)
(1.29731 -0.0672798 -1.32847e-19)
(0.351958 -0.0330494 2.92466e-19)
(0.955628 -0.0686981 -2.07631e-20)
(1.366 -0.0827088 1.28946e-19)
(1.58437 -0.0890279 -1.65282e-19)
(1.66772 -0.089816 1.94595e-20)
(1.67602 -0.0871218 4.95193e-19)
(1.65042 -0.0830306 -3.14123e-19)
(1.61303 -0.0786585 1.19636e-19)
(1.57374 -0.0744277 9.93917e-20)
(1.53626 -0.0704614 -2.74047e-19)
(1.50164 -0.0667754 2.46041e-19)
(1.46996 -0.0633527 2.41998e-22)
(1.44102 -0.0601695 -1.57843e-19)
(1.4146 -0.0572021 1.86105e-19)
(1.39046 -0.0544259 -7.14018e-20)
(1.36847 -0.0518193 5.28806e-20)
(1.34855 -0.0493716 -5.92048e-20)
(1.33075 -0.0470484 -2.52341e-20)
(1.31517 -0.044734 -1.84716e-19)
(1.30185 -0.0426916 5.80572e-20)
(0.36469 -0.0201506 -9.36027e-20)
(0.976774 -0.0334067 2.59068e-19)
(1.38544 -0.0335224 4.16336e-20)
(1.59875 -0.0337508 1.53999e-19)
(1.67732 -0.0335774 6.67973e-20)
(1.68236 -0.0326389 3.10171e-20)
(1.6549 -0.0314202 1.6311e-19)
(1.61658 -0.0301883 -2.0541e-20)
(1.57686 -0.0290018 6.36899e-20)
(1.53916 -0.0278631 9.90011e-20)
(1.5044 -0.026767 4.4846e-20)
(1.47262 -0.02571 3.07276e-20)
(1.44361 -0.0246903 1.22157e-19)
(1.41712 -0.023705 -1.18601e-19)
(1.39294 -0.0227476 2.42915e-20)
(1.37093 -0.0218123 -2.17578e-20)
(1.35103 -0.0209021 3.36575e-20)
(1.33329 -0.0199721 2.75352e-20)
(1.31778 -0.0188572 5.41016e-20)
(1.3045 -0.0179341 1.5436e-21)
(0.376386 -0.00630602 5.62905e-20)
(0.994939 0.00335029 4.97152e-20)
(1.40072 0.0168782 -6.71405e-20)
(1.60854 0.0222968 4.09559e-20)
(1.68239 0.0230572 1.99648e-20)
(1.68442 0.0220033 -6.36808e-20)
(1.65543 0.0202293 1.9113e-20)
(1.61649 0.0182729 3.65953e-21)
(1.57658 0.0164031 3.05128e-20)
(1.53888 0.0147175 -7.91199e-20)
(1.50419 0.013232 3.80192e-22)
(1.47249 0.0119327 2.01191e-20)
(1.44355 0.0107983 -1.61197e-20)
(1.41714 0.00981054 1.56964e-20)
(1.39304 0.00895863 3.88129e-20)
(1.37114 0.00823231 -2.1468e-20)
(1.35137 0.0076161 6.37051e-21)
(1.33378 0.00716838 2.21899e-20)
(1.31841 0.00709558 -3.53514e-20)
(1.30523 0.00687554 1.75154e-20)
(0.386932 0.00840058 1.47536e-19)
(1.00996 0.0413286 -8.06856e-20)
(1.41172 0.0681588 9.24525e-20)
(1.61369 0.0787557 -6.64974e-20)
(1.68292 0.0797405 -2.64877e-20)
(1.68224 0.0764834 9.09869e-21)
(1.65205 0.0716245 -2.41013e-20)
(1.61277 0.0664565 8.36981e-20)
(1.57294 0.0615394 -6.7127e-20)
(1.53546 0.0570505 1.54531e-20)
(1.50102 0.0530077 -1.15145e-20)
(1.46957 0.0493763 -6.90052e-20)
(1.44087 0.046111 6.55092e-20)
(1.41468 0.0431724 2.3763e-20)
(1.39079 0.0405326 -2.32166e-20)
(1.36911 0.0381656 5.3041e-20)
(1.34958 0.0360444 -1.29688e-21)
(1.33223 0.0342433 -4.8629e-20)
(1.31707 0.0330012 3.49811e-20)
(1.30407 0.0316225 1.07514e-20)
(0.396223 0.023874 -5.24855e-20)
(1.02169 0.0802682 1.45806e-19)
(1.41836 0.119975 1.63345e-19)
(1.61417 0.135262 -7.37658e-20)
(1.67892 0.136125 1.23974e-19)
(1.67585 0.130482 1.82578e-19)
(1.64479 0.122475 -1.03487e-20)
(1.60548 0.114096 -2.75524e-20)
(1.56598 0.106161 1.37776e-19)
(1.52894 0.0989082 6.50473e-20)
(1.49495 0.0923486 -1.05231e-20)
(1.46392 0.0864244 9.18353e-20)
(1.4356 0.0810654 -9.31691e-20)
(1.40976 0.0762113 1.45352e-19)
(1.38622 0.0718172 -2.34492e-20)
(1.36487 0.0678415 6.49458e-20)
(1.34568 0.0642468 1.0699e-20)
(1.32866 0.061125 4.33228e-20)
(1.31378 0.0587382 -4.11521e-20)
(1.30101 0.0561935 1.04688e-20)
(0.404159 0.0400067 -7.93818e-20)
(1.03002 0.119893 1.76844e-19)
(1.42057 0.171971 1.29339e-19)
(1.60999 0.191448 -1.72161e-20)
(1.67044 0.191863 1.792e-19)
(1.66531 0.183683 -1.32854e-19)
(1.63372 0.172492 -4.37652e-21)
(1.59468 0.160928 1.08213e-19)
(1.55576 0.150026 3.40522e-20)
(1.51938 0.140065 4.51072e-20)
(1.48602 0.131046 -6.45706e-20)
(1.45557 0.122883 1.64678e-19)
(1.42779 0.115482 2.85292e-20)
(1.40244 0.108761 -1.38186e-19)
(1.37936 0.102659 1.96542e-19)
(1.35845 0.097118 -2.26178e-19)
(1.3397 0.0920908 -9.93456e-20)
(1.32308 0.0876884 1.85049e-20)
(1.30855 0.0841866 9.31231e-20)
(1.29608 0.0804766 -1.77918e-19)
(0.410653 0.0566807 -1.67775e-19)
(1.03485 0.159914 -3.99535e-19)
(1.41832 0.223787 -3.44363e-19)
(1.60118 0.246947 -4.29358e-19)
(1.65756 0.246611 -2.31743e-19)
(1.65072 0.235772 -4.60816e-19)
(1.61895 0.221391 5.8515e-20)
(1.58047 0.206693 -2.26481e-19)
(1.54238 0.192892 -2.3924e-20)
(1.50686 0.180299 3.59875e-20)
(1.47432 0.168893 -7.58894e-20)
(1.44462 0.158563 9.28149e-20)
(1.41752 0.149186 1.59691e-19)
(1.39279 0.140661 -2.25156e-19)
(1.37028 0.13291 3.47215e-20)
(1.34992 0.125858 9.7515e-20)
(1.33169 0.119449 1.59633e-19)
(1.31556 0.113813 -1.37807e-19)
(1.30142 0.109231 -5.96455e-21)
(1.28931 0.104364 1.56972e-19)
(0.415629 0.0737683 -3.06331e-19)
(1.03612 0.200034 8.45962e-19)
(1.41163 0.275057 -1.49357e-19)
(1.58781 0.301392 1.77519e-19)
(1.64037 0.300029 -1.65501e-19)
(1.63219 0.286443 5.06083e-19)
(1.60057 0.268894 -7.77935e-20)
(1.56294 0.251132 4.72171e-20)
(1.52592 0.234524 -1.94527e-20)
(1.49148 0.21939 7.11486e-20)
(1.45994 0.205688 4.49219e-20)
(1.43115 0.193275 5.47817e-20)