/*--------------------------------*- C++ -*----------------------------------*\
  =========                 |
  \\      /  F ield         | OpenFOAM: The Open Source CFD Toolbox
   \\    /   O peration     | Website:  https://openfoam.org
    \\  /    A nd           | Version:  6.0
     \\/     M anipulation  |
\*---------------------------------------------------------------------------*/
FoamFile
{
    version     2.0;
    format      ascii;
    class       surfaceScalarField;
    location    "108";
    object      phi;
}
// * * * * * * * * * * * * * * * * * * * * * * * * * * * * * * * * * * * * * //

dimensions      [0 3 -1 0 0 0 0];

internalField   nonuniform List<scalar> 
15760
(
1.35089e-06
0.000157814
-0.000159165
1.63511e-06
0.000387821
-0.000388105
-1.00604e-06
0.000549852
-0.000547211
-7.06332e-06
0.000657329
-0.000651272
-1.61569e-05
0.000722525
-0.000713431
-2.74393e-05
0.000756232
-0.00074495
-3.98863e-05
0.00076729
-0.000754843
-5.24803e-05
0.000762472
-0.000749878
-6.43111e-05
0.000746659
-0.000734828
-7.46222e-05
0.000723157
-0.000712846
-8.28256e-05
0.000694074
-0.00068587
-8.85017e-05
0.000660676
-0.000655
-9.13916e-05
0.000623701
-0.000620811
-9.13891e-05
0.0005836
-0.000583603
-8.85289e-05
0.000540713
-0.000543573
-8.29731e-05
0.000495376
-0.000500932
-7.49901e-05
0.000447973
-0.000455956
-6.49336e-05
0.00039893
-0.000408987
-5.32463e-05
0.00034863
-0.000360317
0.000297186
-0.000310007
-4.04251e-05
2.84576e-06
0.000154969
6.63553e-06
0.000384031
8.75049e-06
0.000547737
8.11724e-06
0.000657963
4.70014e-06
0.000725942
-9.22284e-07
0.000761854
-7.87806e-06
0.000774246
-1.52165e-05
0.000769811
-2.20362e-05
0.000753478
-2.75505e-05
0.000728671
-3.11154e-05
0.000697639
-3.22345e-05
0.000661795
-3.05535e-05
0.000622021
-2.58509e-05
0.000578897
-1.80267e-05
0.000532889
-7.09343e-06
0.000484443
6.8338e-06
0.000434045
2.35386e-05
0.000382226
4.26704e-05
0.000329498
0.000276131
6.37249e-05
4.25069e-06
0.000150718
1.14401e-05
0.000376842
1.82891e-05
0.000540888
2.31881e-05
0.000653064
2.56977e-05
0.000723433
2.61202e-05
0.000761432
2.51609e-05
0.000775205
2.3688e-05
0.000771284
2.25807e-05
0.000754586
2.26437e-05
0.000728608
2.45671e-05
0.000695715
2.89149e-05
0.000657448
3.6128e-05
0.000614807
4.65348e-05
0.000568491
6.03618e-05
0.000519061
7.77391e-05
0.000467066
9.86985e-05
0.000413086
0.000123156
0.000357768
0.000150847
0.000301807
0.000245733
0.000181246
5.53957e-06
0.000145178
1.59636e-05
0.000366418
2.7452e-05
0.000529399
3.7923e-05
0.000642593
4.65549e-05
0.000714801
5.33719e-05
0.000754615
5.88978e-05
0.000769679
6.38996e-05
0.000766282
6.92146e-05
0.000749271
7.56478e-05
0.000722175
8.39184e-05
0.000687444
9.46411e-05
0.000646725
0.000108326
0.000601122
0.000125391
0.000551426
0.00014617
0.000498282
0.00017092
0.000442316
0.000199807
0.000384199
0.000232873
0.000324701
0.000269941
0.000264739
0.000205212
0.000310461
6.68115e-06
0.000138497
2.00997e-05
0.000352999
3.6034e-05
0.000513465
5.20106e-05
0.000626616
6.68615e-05
0.00069995
8.03371e-05
0.000741139
9.27678e-05
0.000757248
0.000104799
0.000754251
0.000117203
0.000736866
0.000130764
0.000708615
0.000146207
0.000672002
0.000164175
0.000628757
0.000185225
0.000580072
0.000209838
0.000526813
0.000238431
0.000469689
0.000271361
0.000409386
0.000308909
0.000346651
0.000351236
0.000282374
0.000398256
0.000217719
0.000154063
0.000449405
7.6407e-06
0.000130857
2.37262e-05
0.000336914
4.37896e-05
0.000493402
6.50642e-05
0.000605341
8.60852e-05
0.000678929
0.000106344
0.00072088
0.000125971
0.000737622
0.00014547
0.000734752
0.000165525
0.000716811
0.000186873
0.000687267
0.000210221
0.000648653
0.000236216
0.000602762
0.000265435
0.000550854
0.000298392
0.000493855
0.000335558
0.000432523
0.000377362
0.000367583
0.000424176
0.000299838
0.000476266
0.000230284
0.000533642
0.000160343
9.19746e-05
0.00059573
8.38331e-06
0.000122473
2.67144e-05
0.000318583
5.04499e-05
0.000469666
7.66433e-05
0.000579148
0.000103597
0.000651975
0.000130571
0.000693906
0.000157493
0.000710699
0.000184712
0.000707533
0.000212802
0.000688721
0.000242425
0.000657644
0.000274245
0.000616833
0.000308886
0.00056812
0.00034692
0.00051282
0.000388869
0.000451906
0.000435226
0.000386166
0.000486466
0.000316343
0.00054303
0.000243274
0.000605276
0.000168038
0.000673309
9.23098e-05
1.87383e-05
0.000746545
8.87621e-06
0.000113597
2.89383e-05
0.00029852
5.57416e-05
0.000442863
8.62836e-05
0.000548606
0.000118712
0.000619546
0.000152092
0.000660526
0.000186161
0.000676631
0.000221101
0.000672593
0.000257356
0.000652466
0.000295491
0.00061951
0.000336102
0.000576222
0.000379767
0.000524454
0.000427029
0.000465559
0.000478398
0.000400538
0.000534369
0.000330194
0.000595442
0.00025527
0.000662113
0.000176602
0.000734826
9.53255e-05
0.000813781
1.33548e-05
-6.58466e-05
0.000898366
9.09215e-06
0.000104505
3.02876e-05
0.000277325
5.9414e-05
0.000413737
9.35419e-05
0.000514478
0.000130751
0.000582337
0.000169961
0.000621316
0.000210738
0.000635854
0.000253099
0.000630232
0.000297342
0.000608223
0.000343917
0.000572935
0.000393331
0.000526808
0.000446099
0.000471687
0.000502717
0.00040894
0.000563673
0.000339583
0.000629456
0.000264411
0.000700585
0.000184141
0.000777609
9.9578e-05
0.000861059
1.18758e-05
0.000951239
-7.68252e-05
-0.000162083
0.00104748
9.01274e-06
9.54921e-05
3.06813e-05
0.000255656
6.12709e-05
0.000383147
9.80511e-05
0.000477698
0.000139125
0.000541262
0.000183327
0.000577114
0.000230082
0.000589099
0.00027925
0.000581065
0.000330982
0.00055649
0.000385602
0.000518315
0.000443519
0.000468892
0.000505172
0.000410034
0.000571014
0.000343098
0.000641505
0.000269091
0.000717139
0.000188778
0.000798457
0.000102823
0.000886068
1.19672e-05
0.000980597
-8.26533e-05
0.00108246
-0.000178687
-0.000270503
0.00119088
8.63177e-06
8.68603e-05
3.00824e-05
0.000234206
6.12036e-05
0.000352026
9.95815e-05
0.00043932
0.000143434
0.00049741
0.000191574
0.000528974
0.000243327
0.000537346
0.000298423
0.000525969
0.000356877
0.000498036
0.000418892
0.000456299
0.000484783
0.000403001
0.000554926
0.00033989
0.00062974
0.000268285
0.000709677
0.000189153
0.000795247
0.000103209
0.000887028
1.10419e-05
0.000985684
-8.66894e-05
0.00109192
-0.000188892
0.00120625
-0.000293014
-0.000391994
0.00132774
7.95888e-06
7.89014e-05
2.85118e-05
0.000213653
5.92254e-05
0.000321312
9.8104e-05
0.000400441
0.000143566
0.000451948
0.000194474
0.000478067
0.000250109
0.000481711
0.000310109
0.000465969
0.000374388
0.000433757
0.000443059
0.000387629
0.00051637
0.00032969
0.000594665
0.000261595
0.000678359
0.000184592
0.000767927
9.95849e-05
0.00086391
7.22606e-06
0.000966917
-9.19657e-05
0.00107763
-0.000197404
0.00119677
-0.000308027
0.00132484
-0.000421081
-0.000527867
0.00146071
7.02332e-06
7.18781e-05
2.60631e-05
0.000194613
5.55029e-05
0.000291873
9.38494e-05
0.000362095
0.0001398
0.000405997
0.00019234
0.000425527
0.000250774
0.000423277
0.000314712
0.000402031
0.000384021
0.000364447
0.000458782
0.000312868
0.000539231
0.00024924
0.00062573
0.000175096
0.000718734
9.1588e-05
0.000818765
-4.45673e-07
0.00092639
-0.000100399
0.0010422
-0.000207777
0.00116679
-0.000321997
0.00130073
-0.000441959
0.00144433
-0.000564684
-0.000679743
0.0015962
5.8778e-06
6.60003e-05
2.29132e-05
0.000177578
5.03802e-05
0.000264406
8.73524e-05
0.000325123
0.000132878
0.000360471
0.000186142
0.000372263
0.000246552
0.000362867
0.000313772
0.000334811
0.00038771
0.00029051
0.000468486
0.000232092
0.0005564
0.000161326
0.000651885
7.96105e-05
0.000755465
-1.19918e-05
0.000867699
-0.00011268
0.000989124
-0.000221824
0.00112019
-0.000338844
0.00126122
-0.000463025
0.00141235
-0.000593094
0.00157348
-0.000725809
-0.000849119
0.00174286
4.60099e-06
6.13993e-05
1.93279e-05
0.000162851
4.43874e-05
0.000239346
7.94674e-05
0.000290043
0.000124031
0.000315907
0.000177544
0.000318751
0.00023961
0.0003008
0.000310044
0.000264377
0.000388885
0.000211669
0.000476382
0.000144595
0.000572953
6.4755e-05
0.00067913
-2.65665e-05
0.000795481
-0.000128342
0.00092252
-0.000239719
0.00106061
-0.000359911
0.00120985
-0.000488085
0.00137002
-0.000623201
0.00154058
-0.000763653
0.00172068
-0.000905904
-0.00103662
0.00190818
3.2966e-06
5.81027e-05
1.56549e-05
0.000150492
3.82242e-05
0.000216777
7.13379e-05
0.000256929
0.000114933
0.000272312
0.000168837
0.000264847
0.000232944
0.000236693
0.000307315
0.000190006
0.000392205
0.000126779
0.000488042
4.87578e-05
0.000595375
-4.25781e-05
0.000714782
-0.000145973
0.000846757
-0.000260318
0.000991587
-0.000384549
0.00114921
-0.000517539
0.00131913
-0.000658002
0.00150031
-0.00080438
0.00169126
-0.000954599
0.00189023
-0.00110487
-0.00124107
0.00209468
2.08701e-06
5.60157e-05
1.22999e-05
0.00014028
3.27069e-05
0.00019637
6.43035e-05
0.000225332
0.000107552
0.000229064
0.000162712
0.000209687
0.000230049
0.000169355
0.000309939
0.000110116
0.000402887
3.38311e-05
0.000509489
-5.78437e-05
0.000630338
-0.000163427
0.0007659
-0.000281535
0.000916369
-0.000410787
0.00108152
-0.0005497
0.00126058
-0.000696604
0.00145217
-0.000849583
0.00165423
-0.00100644
0.00186422
-0.0011646
0.00207953
-0.00132018
-0.00145877
0.00229722
1.10029e-06
5.49155e-05
9.68332e-06
0.000131697
2.86792e-05
0.000177374
5.97458e-05
0.000194266
0.000103904
0.000184906
0.000161897
0.000151694
0.000234403
9.68497e-05
0.00032212
2.23989e-05
0.000425761
-6.98103e-05
0.000545972
-0.000178055
0.000683199
-0.000300653
0.00083753
-0.000435866
0.00100854
-0.000581797
0.00119516
-0.000736324
0.00139563
-0.000897065
0.00160743
-0.00106139
0.00182747
-0.00122648
0.00205224
-0.00138937
0.00227842
-0.00154636
-0.00168323
0.00250289
4.52249e-07
5.44632e-05
8.18411e-06
0.000123965
2.68989e-05
0.000158659
5.88956e-05
0.000162269
0.000105761
0.00013804
0.000168729
8.87262e-05
0.000248866
1.67119e-05
0.000347124
-7.58591e-05
0.000464279
-0.000186965
0.000600806
-0.000314581
0.000756713
-0.000456561
0.000931381
-0.000610534
0.00112343
-0.00077385
0.00133067
-0.000943564
0.0015501
-0.00111649
0.00177803
-0.00128932
0.00201029
-0.00145874
0.00224263
-0.0016217
0.00247139
-0.00177513
-0.00190566
0.00269383
2.27849e-07
5.42354e-05
8.08316e-06
0.000116109
2.79264e-05
0.000138816
6.26492e-05
0.000127546
0.000114371
8.6319e-05
0.000184763
1.83338e-05
0.000275186
-7.37106e-05
0.000386674
-0.000187348
0.00051983
-0.000320121
0.000674657
-0.000469408
0.000850393
-0.000632297
0.00104539
-0.00080553
0.00125706
-0.000985518
0.00148193
-0.00116843
0.00171578
-0.00135034
0.00195386
-0.0015274
0.00219115
-0.00169603
0.00242251
-0.00185305
0.00264275
-0.00199537
-0.00211338
0.00285047
4.67072e-07
5.37683e-05
9.52276e-06
0.000107054
3.20481e-05
0.00011629
7.14469e-05
8.81476e-05
0.000130288
2.74776e-05
0.000210564
-6.19417e-05
0.000313745
-0.000176892
0.000440705
-0.000314308
0.00059156
-0.000470977
0.000765504
-0.000643352
0.000960683
-0.000827475
0.00117417
-0.00101902
0.00140205
-0.0012134
0.00163963
-0.00140602
0.00188174
-0.00159245
0.00212307
-0.00176873
0.00235849
-0.00193146
0.00258339
-0.00207796
0.00279418
-0.00220616
-0.00231385
0.00299465
1.16486e-06
5.26034e-05
1.2502e-05
9.57165e-05
3.92651e-05
8.95273e-05
8.52564e-05
4.21563e-05
0.000153362
-4.06278e-05
0.000245708
-0.000154288
0.000363628
-0.000294813
0.000507523
-0.000458203
0.000676682
-0.000640136
0.000869158
-0.000835828
0.00108175
-0.00104007
0.00131013
-0.00124739
0.00154909
-0.00145237
0.00179297
-0.00164989
0.002036
-0.00183549
0.00227282
-0.00200554
0.00249878
-0.00215742
0.00271036
-0.00228953
0.00290554
-0.00240133
-0.00249292
0.00308461
2.27493e-06
5.03285e-05
1.68936e-05
8.10979e-05
4.93324e-05
5.70885e-05
0.000103648
-1.21593e-05
0.000182861
-0.000119841
0.000288993
-0.000260419
0.000422935
-0.000428755
0.000584268
-0.000619536
0.000771115
-0.000826982
0.000980116
-0.00104483
0.00120658
-0.00126653
0.00144482
-0.00148563
0.00168859
-0.00169614
0.00193161
-0.00189291
0.00216806
-0.00207194
0.002393
-0.00223048
0.00260264
-0.00236707
0.00279452
-0.00248141
0.0029674
-0.00257422
-0.00264739
0.00312187
3.72965e-06
4.65989e-05
2.24966e-05
6.23309e-05
6.18535e-05
1.77316e-05
0.000125942
-7.62476e-05
0.000217694
-0.000211594
0.000338734
-0.000381459
0.000489172
-0.000579192
0.000667417
-0.000797781
0.000870127
-0.00102969
0.00109236
-0.00126707
0.00132797
-0.00150214
0.00157012
-0.00172778
0.00181193
-0.00193795
0.00204707
-0.00212805
0.00227021
-0.00229509
0.00247739
-0.00243766
0.00266607
-0.00255574
0.00283513
-0.00265048
0.00298472
-0.00272381
-0.00277889
0.00311622
5.45814e-06
4.11407e-05
2.90885e-05
3.87006e-05
7.63778e-05
-2.95577e-05
0.000151358
-0.000151228
0.000256611
-0.000316846
0.000393036
-0.000517884
0.000559599
-0.000745755
0.00075321
-0.000991393
0.000968853
-0.00124534
0.00119999
-0.0014982
0.00143921
-0.00174136
0.00167896
-0.00196753
0.00191229
-0.00217128
0.00213341
-0.00234916
0.00233803
-0.00249971
0.00252351
-0.00262314
0.00268877
-0.00272101
0.00283409
-0.00279579
0.00296076
-0.00285048
-0.00288893
0.0030708
7.40131e-06
3.37394e-05
3.64677e-05
9.63419e-06
9.24748e-05
-8.55648e-05
0.000179125
-0.000237878
0.00029835
-0.000436071
0.000449965
-0.0006695
0.000631437
-0.000927227
0.000837914
-0.00119787
0.00106263
-0.00147005
0.00129762
-0.00173319
0.00153462
-0.00197835
0.00176593
-0.00219884
0.00198514
-0.00239049
0.00218755
-0.00255157
0.00237028
-0.00268245
0.00253224
-0.00278509
0.00267377
-0.00286254
0.00279632
-0.00291835
0.0029021
-0.00295626
-0.00298039
0.00299357
9.51889e-06
2.42205e-05
4.44739e-05
-2.53209e-05
0.000109769
-0.00015086
0.000208525
-0.000336634
0.000341687
-0.000569233
0.000507617
-0.00083543
0.000701964
-0.00112157
0.000917973
-0.00141388
0.00114723
-0.00169931
0.00138073
-0.00196669
0.0016099
-0.00220752
0.00182754
-0.00241649
0.00202835
-0.0025913
0.0022091
-0.00273232
0.00236853
-0.00284187
0.00250699
-0.00292356
0.00262606
-0.0029816
0.00272805
-0.00302034
0.00281567
-0.00304387
-0.00305627
0.00289155
1.17882e-05
1.24323e-05
5.29854e-05
-6.65181e-05
0.000127933
-0.000225808
0.000238882
-0.000447582
0.000385425
-0.000715776
0.000564117
-0.00101412
0.000768565
-0.00132602
0.000990129
-0.00163544
0.00121907
-0.00192825
0.00144586
-0.00219348
0.00166231
-0.00242397
0.00186229
-0.00261646
0.00204201
-0.00277102
0.00219991
-0.00289021
0.00233626
-0.00297822
0.00245268
-0.00303998
0.0025516
-0.00308053
0.00263585
-0.00310459
0.0027083
-0.00311632
-0.0031195
0.00277153
1.41972e-05
-1.76492e-06
6.19006e-05
-0.000114221
0.000146658
-0.000310565
0.00026952
-0.000570444
0.000428359
-0.000874615
0.000617618
-0.00120338
0.000828784
-0.00153719
0.00105156
-0.00185822
0.00127537
-0.00215207
0.00149085
-0.00240895
0.00169076
-0.00262388
0.0018705
-0.00279621
0.00202801
-0.00292853
0.00216334
-0.00302554
0.00227807
-0.00309296
0.00237475
-0.00313665
0.0024563
-0.00316209
0.00252573
-0.00317402
0.0025858
-0.00317639
-0.00317257
0.00263887
1.67351e-05
-1.85e-05
7.11149e-05
-0.000168601
0.000165613
-0.000405064
0.000299725
-0.000704556
0.00046925
-0.00104414
0.000666329
-0.00140046
0.000880432
-0.00175129
0.00110002
-0.0020778
0.00131434
-0.00236639
0.00151477
-0.00260939
0.00169559
-0.0028047
0.00185393
-0.00295455
0.00198945
-0.00306405
0.00210359
-0.00313968
0.00219891
-0.00318829
0.0022785
-0.00321624
0.00234549
-0.00322907
0.00240277
-0.0032313
0.00245285
-0.00322647
-0.00321748
0.00249775
1.9385e-05
-3.7885e-05
8.05014e-05
-0.000229718
0.000184427
-0.000508989
0.000328731
-0.00084886
0.000506853
-0.00122226
0.000708594
-0.0016022
0.000921706
-0.0019644
0.00113399
-0.00229009
0.00133516
-0.00256755
0.00151794
-0.00279217
0.00167835
-0.00296511
0.00181535
-0.00309155
0.00193007
-0.00317877
0.00202505
-0.00323466
0.00210347
-0.0032667
0.00216862
-0.0032814
0.00222357
-0.00328402
0.00227095
-0.00327868
0.00231293
-0.00326845
-0.00325571
0.00235116
2.2119e-05
-6.00041e-05
8.99016e-05
-0.0002975
0.000202673
-0.000621761
0.000355732
-0.00100192
0.000539971
-0.0014065
0.00074299
-0.00180522
0.000951306
-0.00217272
0.00115272
-0.0024915
0.001338
-0.00275284
0.0015016
-0.00295577
0.00164141
-0.00310492
0.00175801
-0.00320815
0.00185375
-0.00327451
0.00193188
-0.00331279
0.00199586
-0.00333069
0.00204897
-0.00333451
0.00209402
-0.00332907
0.00213329
-0.00331794
0.00216857
-0.00330373
-0.00328833
0.00220118
2.48971e-05
-8.49011e-05
9.91247e-05
-0.000371728
0.00021989
-0.000742526
0.000379922
-0.00116195
0.000567527
-0.00159411
0.000768428
-0.00200612
0.000968501
-0.00237279
0.00115619
-0.00267919
0.00132382
-0.00292047
0.00146772
-0.00309967
0.00158756
-0.00322476
0.00168529
-0.00330588
0.00176414
-0.00335335
0.00182772
-0.00337637
0.00187953
-0.0033825
0.00192261
-0.00337759
0.00195943
-0.00336589
0.00199192
-0.00335043
0.00202151
-0.00333331
-0.00331603
0.00204922
2.76682e-05
-0.000112569
0.000107956
-0.000452016
0.000235598
-0.000870168
0.00040055
-0.0013269
0.000588648
-0.0017822
0.000784213
-0.00220169
0.000973134
-0.00256171
0.00114506
-0.00285111
0.00129414
-0.00306955
0.00141862
-0.00322414
0.00151971
-0.00332585
0.00160042
-0.00338659
0.00166447
-0.0034174
0.00171561
-0.00342751
0.00175716
-0.00342405
0.00179183
-0.00341225
0.00182171
-0.00339577
0.00184837
-0.00337709
0.00187294
-0.00335788
-0.00333928
0.00189619
3.03734e-05
-0.000142943
0.000116168
-0.00053781
0.000249336
-0.00100334
0.000416967
-0.00149453
0.000602711
-0.00196795
0.000790068
-0.00238904
0.000965561
-0.00273721
0.00112046
-0.00300601
0.00125086
-0.00319996
0.00135677
-0.00333005
0.00144066
-0.00340974
0.00150624
-0.00345217
0.00155748
-0.00346864
0.00159801
-0.00346804
0.00163084
-0.00345688
0.00165832
-0.00343973
0.00168218
-0.00341963
0.00170366
-0.00339858
0.00172364
-0.00337786
-0.00335833
0.00174269
3.29488e-05
-0.000175892
0.000123535
-0.000628396
0.000260686
-0.00114049
0.000428673
-0.00166252
0.000609381
-0.00214866
0.000786111
-0.00256577
0.000946552
-0.00289765
0.00108385
-0.0031433
0.00119602
-0.00331214
0.00128458
-0.0034186
0.00135294
-0.0034781
0.00140521
-0.00350445
0.00144537
-0.0035088
0.00147678
-0.00349945
0.0015021
-0.0034822
0.0015233
-0.00346092
0.00154177
-0.0034381
0.00155849
-0.0034153
0.00157412
-0.00339349
-0.00337331
0.0015891
3.53292e-05
-0.000211221
0.000129844
-0.000722911
0.0002693
-0.00127994
0.000435337
-0.00182856
0.000608599
-0.00232192
0.000772791
-0.00272997
0.000917175
-0.00304203
0.00103687
-0.003263
0.00113166
-0.00340692
0.00120426
-0.0034912
0.00125874
-0.00353258
0.00129935
-0.00354506
0.00132988
-0.00353933
0.00135337
-0.00352293
0.00137207
-0.00350091
0.00138762
-0.00347647
0.00140112
-0.0034516
0.00141333
-0.00342751
0.00142475
-0.00340491
-0.00338427
0.00143571
3.74514e-05
-0.000248672
0.00013491
-0.000820369
0.000274919
-0.00141995
0.000436811
-0.00199045
0.000600564
-0.00248567
0.00075082
-0.00288022
0.000878675
-0.00316989
0.00098119
-0.00336551
0.00105968
-0.00348541
0.00111778
-0.0035493
0.00115991
-0.00357471
0.00119027
-0.00357542
0.00121235
-0.00356141
0.00122881
-0.00353939
0.00124156
-0.00351365
0.00125188
-0.0034868
0.00126067
-0.00346039
0.0012685
-0.00343534
0.00127576
-0.00341217
-0.0033912
0.00128268
3.92568e-05
-0.000287929
0.000138579
-0.000919691
0.000277382
-0.00155876
0.000433117
-0.00214618
0.00058568
-0.00263823
0.000721078
-0.00301562
0.000832371
-0.00328118
0.000918426
-0.00345157
0.000981813
-0.0035488
0.0010268
-0.0035943
0.00105794
-0.00360585
0.00107922
-0.0035967
0.00109378
-0.00357597
0.0011039
-0.00354951
0.00111113
-0.00352088
0.00111651
-0.00349218
0.00112074
-0.00346461
0.00112425
-0.00343885
0.00112733
-0.00341526
-0.00339405
0.00113019
4.0694e-05
-0.000328623
0.00014074
-0.00101974
0.000276628
-0.00169464
0.00042443
-0.00229399
0.000564509
-0.00277831
0.000684548
-0.00313566
0.000779576
-0.00337621
0.000850067
-0.00352206
0.000899569
-0.0035983
0.000932733
-0.00362746
0.00095404
-0.00362715
0.00096719
-0.00360985
0.000974935
-0.00358372
0.000979187
-0.00355376
0.000981208
-0.0035229
0.000981817
-0.00349279
0.000981544
-0.00346434
0.000980739
-0.00343805
0.000979624
-0.00341414
-0.00339277
0.000978342
4.17259e-05
-0.000370349
0.000141335
-0.00111935
0.000272701
-0.00182601
0.000411067
-0.00243235
0.000537736
-0.00290498
0.00064226
-0.00324018
0.000721555
-0.0034555
0.000777464
-0.00357797
0.000814246
-0.00363508
0.000836713
-0.00364993
0.000849156
-0.0036396
0.000854918
-0.00361562
0.000856373
-0.00358517
0.000855098
-0.00355249
0.000852103
-0.00351991
0.000848026
-0.00348871
0.000843279
-0.00345959
0.000838134
-0.0034329
0.000832766
-0.00340877
-0.00338729
0.000827285
4.23114e-05
-0.00041266
0.000140319
-0.00121735
0.00026569
-0.00195138
0.000393387
-0.00256005
0.000506042
-0.00301764
0.000595167
-0.00332931
0.000659411
-0.00351975
0.000701735
-0.00362029
0.000726869
-0.00366022
0.000739614
-0.00366267
0.000743978
-0.00364396
0.000742928
-0.00361456
0.000738474
-0.00358072
0.000731902
-0.00354591
0.000724008
-0.00351201
0.000715285
-0.00347999
0.000706056
-0.00345036
0.000696535
-0.00342338
0.000686858
-0.0033991
-0.00337755
0.000677117
4.24339e-05
-0.000455094
0.000137716
-0.00131264
0.000255788
-0.00206945
0.000371856
-0.00267612
0.000470179
-0.00311596
0.000544222
-0.00340335
0.000594181
-0.0035697
0.000623885
-0.00365
0.000638328
-0.00367466
0.000642169
-0.00366651
0.000639079
-0.00364087
0.000631647
-0.00360713
0.000621554
-0.00357063
0.000609833
-0.00353419
0.000597102
-0.00349928
0.000583744
-0.00346663
0.000570008
-0.00343662
0.000556065
-0.00340944
0.000542027
-0.00338506
-0.00336349
0.000527968
4.20828e-05
-0.000497177
0.000133577
-0.00140413
0.000243225
-0.0021791
0.000346958
-0.00277985
0.000430861
-0.00319986
0.000490284
-0.00346278
0.000526751
-0.00360617
0.000544736
-0.00366798
0.000549323
-0.00367925
0.000544934
-0.00366212
0.000534878
-0.00363082
0.000521383
-0.00359364
0.000505836
-0.00355508
0.000489056
-0.00351741
0.000471518
-0.00348174
0.000453514
-0.00344863
0.000435238
-0.00341835
0.00041683
-0.00339103
0.000398382
-0.00336661
-0.00334506
0.000379956
4.12581e-05
-0.000538435
0.000127983
-0.00149086
0.000228267
-0.00227938
0.000319186
-0.00287077
0.000388766
-0.00326944
0.000434119
-0.00350813
0.000457883
-0.00362993
0.000464967
-0.00367506
0.000460411
-0.00367469
0.000448338
-0.00365005
0.00043169
-0.00361417
0.000412361
-0.00357431
0.000391484
-0.0035342
0.000369696
-0.00349563
0.000347359
-0.00345941
0.000324689
-0.00342596
0.00030184
-0.0033955
0.000278926
-0.00336811
0.000256025
-0.00334371
-0.00332223
0.000233195
3.99694e-05
-0.000578405
0.000121038
-0.00157192
0.000211202
-0.00236955
0.000289024
-0.00294859
0.000344518
-0.00332494
0.000376403
-0.00354001
0.000388216
-0.00364175
0.000385129
-0.00367198
0.000372031
-0.00366159
0.000352711
-0.00363073
0.000329752
-0.00359121
0.000304752
-0.00354931
0.000278621
-0.00350807
0.000251852
-0.00346886
0.000224709
-0.00343226
0.000197352
-0.0033986
0.000169897
-0.00336805
0.000142439
-0.00334066
0.000115052
-0.00331632
-0.00329496
8.77867e-05
3.82346e-05
-0.000616639
0.000112865
-0.00164655
0.000192323
-0.00244901
0.000256933
-0.0030132
0.000298681
-0.00336669
0.000317719
-0.00355905
0.000318286
-0.00364231
0.000305669
-0.00365936
0.000284529
-0.00364045
0.000258305
-0.00360451
0.000229245
-0.00356215
0.000198681
-0.00351875
0.000167342
-0.00347673
0.0001356
-0.00343711
0.000103639
-0.0034003
7.15707e-05
-0.00336653
3.94803e-05
-0.00333595
7.4483e-06
-0.00330862
-2.44549e-05
-0.00328442
-0.00326324
-5.61765e-05
3.60787e-05
-0.000652718
0.000103598
-0.00171407
0.000171923
-0.00251733
0.000223343
-0.00306462
0.000251758
-0.0033951
0.000258569
-0.00356586
0.000248539
-0.00363228
0.000226947
-0.00363777
0.000198176
-0.00361168
0.000165315
-0.00357165
0.000130303
-0.00352714
9.42464e-05
-0.00348269
5.77208e-05
-0.00344021
2.09998e-05
-0.00340039
-1.57947e-05
-0.00336351
-5.25974e-05
-0.00332973
-8.93488e-05
-0.0032992
-0.000125981
-0.00327199
-0.000162423
-0.00324798
-0.00322705
-0.000198616
3.35326e-05
-0.000686251
9.3378e-05
-0.00177392
0.000150285
-0.00257424
0.000188652
-0.00310299
0.000204192
-0.00341064
0.00019938
-0.00356105
0.000179342
-0.00361225
0.000149254
-0.00360768
0.000113188
-0.00357561
7.3895e-05
-0.00353235
3.3036e-05
-0.00348628
-8.47575e-06
-0.00344118
-5.01865e-05
-0.0033985
-9.19003e-05
-0.00335868
-0.000133549
-0.00332186
-0.000175107
-0.00328817
-0.000216541
-0.00325777
-0.000257796
-0.00323074
-0.000298793
-0.00320698
-0.00318638
-0.000339465
3.06318e-05
-0.000716882
8.23474e-05
-0.00182564
0.00012768
-0.00261957
0.000153219
-0.00312852
0.000156373
-0.0034138
0.000140517
-0.00354519
0.000111001
-0.00358273
7.28282e-05
-0.00356951
2.9742e-05
-0.00353253
-1.58285e-05
-0.00348678
-6.2467e-05
-0.00343964
-0.000109421
-0.00339422
-0.000156332
-0.00335159
-0.000203064
-0.00331195
-0.000249591
-0.00327533
-0.000295927
-0.00324183
-0.000342067
-0.00321163
-0.000387964
-0.00318484
-0.00043353
-0.00316142
-0.00314123
-0.000478683
2.74153e-05
-0.000744298
7.06494e-05
-0.00186887
0.000104363
-0.00265328
0.000117369
-0.00314153
0.000108641
-0.00340507
8.22893e-05
-0.00351884
4.37747e-05
-0.00354422
-2.1292e-06
-0.0035236
-5.20119e-05
-0.00348265
-0.000103744
-0.00343505
-0.000156123
-0.00338726
-0.000208529
-0.00334182
-0.000260674
-0.00329944
-0.000312462
-0.00326016
-0.000363905
-0.00322389
-0.000415049
-0.00319069
-0.000465922
-0.00316076
-0.000516491
-0.00313427
-0.00056665
-0.00311126
-0.00309158
-0.000616295
2.39246e-05
-0.000768222
5.84243e-05
-0.00190337
8.05704e-05
-0.00267543
8.13959e-05
-0.00314236
6.12953e-05
-0.00338497
2.49677e-05
-0.00348252
-2.21134e-05
-0.00349713
-7.54415e-05
-0.00347028
-0.000131935
-0.00342615
-0.000189742
-0.00337724
-0.000247846
-0.00332916
-0.000305733
-0.00328393
-0.000363164
-0.00324201
-0.00042007
-0.00320325
-0.000476482
-0.00316748
-0.000532483
-0.00313469
-0.000588136
-0.0031051
-0.000643429
-0.00307898
-0.000698239
-0.00305645
-0.0030374
-0.000752423
2.02031e-05
-0.000788425
4.58081e-05
-0.00192897
5.65238e-05
-0.00268615
4.55641e-05
-0.0031314
1.46009e-05
-0.003354
-3.1211e-05
-0.0034367
-8.64644e-05
-0.00344188
-0.000146945
-0.0034098
-0.000209892
-0.00336321
-0.000273706
-0.00331343
-0.000337535
-0.00326533
-0.000400948
-0.00322052
-0.000463741
-0.00317922
-0.00052585
-0.00314114
-0.000587314
-0.00310601
-0.000648245
-0.00307376
-0.000708753
-0.00304459
-0.000768859
-0.00301887
-0.000828428
-0.00299688
-0.00297857
-0.00088725
1.62952e-05
-0.000804721
3.29319e-05
-0.00194561
3.24277e-05
-0.00268564
1.01126e-05
-0.00310908
-3.12051e-05
-0.00331269
-8.60333e-05
-0.00338188
-0.000149093
-0.00337882
-0.000216478
-0.00334241
-0.000285735
-0.00329395
-0.000355498
-0.00324367
-0.000425059
-0.00319577
-0.000494059
-0.00315152
-0.000562311
-0.00311096
-0.00062974
-0.00307372
-0.000696376
-0.00303938
-0.000762343
-0.00300779
-0.000827805
-0.00297913
-0.000892836
-0.00295384
-0.0009573
-0.00293241
-0.002915
-0.00102087
1.2246e-05
-0.000816967
1.99209e-05
-0.00195329
8.47132e-06
-0.00267419
-2.47417e-05
-0.00307587
-7.59088e-05
-0.00326152
-0.000139303
-0.00331848
-0.000209822
-0.0033083
-0.000283874
-0.00326836
-0.0003593
-0.00321852
-0.000434947
-0.00316802
-0.000510244
-0.00312047
-0.000584895
-0.00307687
-0.000658726
-0.00303713
-0.000731635
-0.00300081
-0.000803614
-0.0029674
-0.000874775
-0.00293663
-0.00094532
-0.00290859
-0.0010154
-0.00288376
-0.00108488
-0.00286293
-0.00284659
-0.00115329
8.10036e-06
-0.000825067
6.89397e-06
-0.00195208
-1.51714e-05
-0.00265213
-5.88022e-05
-0.00303224
-0.000119315
-0.00320101
-0.000190835
-0.00324696
-0.000268475
-0.00323066
-0.000348955
-0.00318788
-0.000430394
-0.00313708
-0.000511843
-0.00308657
-0.000592856
-0.00303946
-0.000673209
-0.00299651
-0.000752747
-0.0029576
-0.00083134
-0.00292221
-0.000908916
-0.00288982
-0.000985529
-0.00286002
-0.00106139
-0.00283273
-0.00113672
-0.00280844
-0.00121142
-0.00278823
-0.00277308
-0.00128493
3.90239e-06
-0.000828969
-6.03761e-06
-0.00194214
-3.83415e-05
-0.00261982
-9.18914e-05
-0.00297869
-0.000161247
-0.00313165
-0.000240459
-0.00316775
-0.000324877
-0.00314624
-0.000411531
-0.00310122
-0.000498802
-0.00304981
-0.000585928
-0.00299945
-0.000672594
-0.00295279
-0.000758659
-0.00291045
-0.000844012
-0.00287224
-0.000928515
-0.00283771
-0.00101203
-0.0028063
-0.00109453
-0.00277752
-0.00117617
-0.00275108
-0.00125729
-0.00272732
-0.00133786
-0.00270766
-0.00269333
-0.0014176
-3.05367e-07
-0.000828664
-1.8771e-05
-0.00192367
-6.08962e-05
-0.0025777
-0.000123851
-0.00291573
-0.000201545
-0.00305396
-0.000288012
-0.00308128
-0.000378855
-0.0030554
-0.000471401
-0.00300868
-0.000564278
-0.00295694
-0.000656902
-0.00290682
-0.000749089
-0.0028606
-0.000840805
-0.00281873
-0.000932023
-0.00278103
-0.00102265
-0.00274708
-0.00111254
-0.00271642
-0.00120156
-0.00268851
-0.00128983
-0.00266281
-0.00137779
-0.00263935
-0.00146568
-0.00261977
-0.00260473
-0.00155428
-4.48299e-06
-0.000824181
-3.12138e-05
-0.00189694
-8.27102e-05
-0.0025262
-0.000154545
-0.0028439
-0.000240071
-0.00296843
-0.000333349
-0.002988
-0.000430242
-0.00295851
-0.000528358
-0.00291056
-0.000626549
-0.00285875
-0.000724399
-0.00280897
-0.000821859
-0.00276314
-0.000919028
-0.00272156
-0.00101603
-0.00268402
-0.00111292
-0.00265018
-0.00120967
-0.00261967
-0.00130615
-0.00259203
-0.00140237
-0.00256659
-0.00149874
-0.00254298
-0.00159588
-0.00252264
-0.00250393
-0.00169668
-8.59412e-06
-0.000815587
-4.32852e-05
-0.00186225
-0.000103679
-0.00246581
-0.000183863
-0.00276371
-0.000276714
-0.00287558
-0.000376355
-0.00288836
-0.000478901
-0.00285596
-0.000582214
-0.00280725
-0.000685343
-0.00275562
-0.00078801
-0.0027063
-0.000890282
-0.00266087
-0.000992389
-0.00261946
-0.00109465
-0.00258177
-0.00119741
-0.00254743
-0.00130099
-0.00251609
-0.00140565
-0.00248738
-0.0015115
-0.00246074
-0.0016192
-0.00243528
-0.00173132
-0.00241052
-0.00240015
-0.00183509
-1.25931e-05
-0.000802994
-5.48961e-05
-0.00181995
-0.000123693
-0.00239701
-0.000211696
-0.00267571
-0.000311375
-0.0027759
-0.000416934
-0.0027828
-0.000524727
-0.00274817
-0.000632841
-0.00269914
-0.000740478
-0.00264798
-0.000847451
-0.00259933
-0.00095387
-0.00255445
-0.00106
-0.00251333
-0.00116621
-0.00247555
-0.00127303
-0.00244061
-0.00138115
-0.00240797
-0.00149148
-0.00237704
-0.00160495
-0.00234727
-0.00172186