/*--------------------------------*- C++ -*----------------------------------*\
  =========                 |
  \\      /  F ield         | OpenFOAM: The Open Source CFD Toolbox
   \\    /   O peration     | Website:  https://openfoam.org
    \\  /    A nd           | Version:  6.0
     \\/     M anipulation  |
\*---------------------------------------------------------------------------*/
FoamFile
{
    version     2.0;
    format      ascii;
    class       volScalarField;
    location    "25";
    object      p;
}
// * * * * * * * * * * * * * * * * * * * * * * * * * * * * * * * * * * * * * //

dimensions      [0 2 -2 0 0 0 0];

internalField   nonuniform List<scalar> 
4000
(
-0.260632
-0.261631
-0.262284
-0.262757
-0.263151
-0.263482
-0.263765
-0.264013
-0.264234
-0.264435
-0.264622
-0.264799
-0.26497
-0.265138
-0.26531
-0.265494
-0.265691
-0.265859
-0.265979
-0.266503
-0.260759
-0.261755
-0.262404
-0.262872
-0.263261
-0.263586
-0.263863
-0.264105
-0.26432
-0.264515
-0.264694
-0.264864
-0.265028
-0.265189
-0.265354
-0.265531
-0.265721
-0.265884
-0.265997
-0.266518
-0.261005
-0.261992
-0.262633
-0.263092
-0.26347
-0.263784
-0.264049
-0.264277
-0.264478
-0.264659
-0.264824
-0.264978
-0.265126
-0.265272
-0.265422
-0.265583
-0.26576
-0.265909
-0.266008
-0.266521
-0.261368
-0.262342
-0.262971
-0.263416
-0.263778
-0.264074
-0.26432
-0.264528
-0.264707
-0.264866
-0.265008
-0.265138
-0.265262
-0.265383
-0.265507
-0.265644
-0.265798
-0.265926
-0.266002
-0.266502
-0.261847
-0.262806
-0.263418
-0.263844
-0.264184
-0.264456
-0.264675
-0.264855
-0.265005
-0.265132
-0.265242
-0.265338
-0.265427
-0.265513
-0.265601
-0.265704
-0.265826
-0.265923
-0.265966
-0.266448
-0.262444
-0.263383
-0.263975
-0.264376
-0.264687
-0.264927
-0.265112
-0.265256
-0.265368
-0.265455
-0.265522
-0.265574
-0.265617
-0.265655
-0.265696
-0.265752
-0.265829
-0.265884
-0.265885
-0.266343
-0.263157
-0.264075
-0.26464
-0.265011
-0.265288
-0.265489
-0.265632
-0.265731
-0.265795
-0.265831
-0.265845
-0.265841
-0.265825
-0.265802
-0.265781
-0.265776
-0.265795
-0.265795
-0.26574
-0.266167
-0.26399
-0.264881
-0.265417
-0.265751
-0.265986
-0.266141
-0.266234
-0.266279
-0.266286
-0.266261
-0.26621
-0.266138
-0.266049
-0.26595
-0.265851
-0.265767
-0.26571
-0.265638
-0.265513
-0.265901
-0.264945
-0.265805
-0.266305
-0.266597
-0.266782
-0.266883
-0.266918
-0.266901
-0.266842
-0.266746
-0.26662
-0.266465
-0.266289
-0.266098
-0.265902
-0.265719
-0.265566
-0.2654
-0.265183
-0.265522
-0.266026
-0.266851
-0.267308
-0.26755
-0.267678
-0.267717
-0.267686
-0.267599
-0.267465
-0.26729
-0.267077
-0.266829
-0.266551
-0.26625
-0.265936
-0.265631
-0.265355
-0.265068
-0.264732
-0.265009
-0.26724
-0.268021
-0.268428
-0.268612
-0.268676
-0.268646
-0.268541
-0.268377
-0.268162
-0.2679
-0.267592
-0.267239
-0.266846
-0.266417
-0.265965
-0.265511
-0.26508
-0.264636
-0.264144
-0.264335
-0.268594
-0.269322
-0.26967
-0.269788
-0.269778
-0.26967
-0.269485
-0.269238
-0.268936
-0.268581
-0.268172
-0.267708
-0.267189
-0.266618
-0.266004
-0.265373
-0.264751
-0.264104
-0.263404
-0.263472
-0.270096
-0.27076
-0.271039
-0.271079
-0.270986
-0.270792
-0.270519
-0.270183
-0.26979
-0.26934
-0.268827
-0.268248
-0.267596
-0.266871
-0.266078
-0.26524
-0.264386
-0.26348
-0.262498
-0.262388
-0.271755
-0.272343
-0.272539
-0.27249
-0.272302
-0.272012
-0.271644
-0.271213
-0.270726
-0.270178
-0.269562
-0.268867
-0.268081
-0.267196
-0.26621
-0.265139
-0.264011
-0.26278
-0.261418
-0.261041
-0.273583
-0.274078
-0.274177
-0.274024
-0.273728
-0.273329
-0.272855
-0.272323
-0.271736
-0.27109
-0.270372
-0.269564
-0.268648
-0.267604
-0.266418
-0.265095
-0.263653
-0.262026
-0.260162
-0.259382
-0.275592
-0.275977
-0.275961
-0.275686
-0.275264
-0.274741
-0.274148
-0.273504
-0.272812
-0.272064
-0.271243
-0.270327
-0.269286
-0.26809
-0.266707
-0.265125
-0.263341
-0.261255
-0.258751
-0.257377
-0.277796
-0.278051
-0.2779
-0.277483
-0.276914
-0.276247
-0.275518
-0.274747
-0.273938
-0.27308
-0.272154
-0.271132
-0.269974
-0.268638
-0.267073
-0.265242
-0.263117
-0.260547
-0.257295
-0.255078
-0.280214
-0.280318
-0.280009
-0.279425
-0.278684
-0.27785
-0.276963
-0.276045
-0.275101
-0.274122
-0.273085
-0.271955
-0.27069
-0.269231
-0.267509
-0.265456
-0.263009
-0.259957
-0.255844
-0.252388
-0.282872
-0.2828
-0.282305
-0.281527
-0.280587
-0.279557
-0.278486
-0.277398
-0.276301
-0.275185
-0.274029
-0.272798
-0.271445
-0.269907
-0.268096
-0.265907
-0.263207
-0.259639
-0.254339
-0.248856
-0.285799
-0.285523
-0.284813
-0.28381
-0.28264
-0.281386
-0.280103
-0.278821
-0.27755
-0.276286
-0.275012
-0.273703
-0.272326
-0.27084
-0.26919
-0.267304
-0.265061
-0.261996
-0.256873
-0.250785
-0.289035
-0.288522
-0.287565
-0.286304
-0.284873
-0.283366
-0.281845
-0.280345
-0.278884
-0.277462
-0.276075
-0.274717
-0.27339
-0.272116
-0.270953
-0.270042
-0.269646
-0.270194
-0.273242
-0.285751
-0.292627
-0.291838
-0.290598
-0.289047
-0.287324
-0.285536
-0.283754
-0.282018
-0.280352
-0.278766
-0.277267
-0.275869
-0.274606
-0.273544
-0.272809
-0.272624
-0.273358
-0.275561
-0.280416
-0.292588
-0.296628
-0.295518
-0.293957
-0.292084
-0.290041
-0.287948
-0.285886
-0.283901
-0.282023
-0.280269
-0.27866
-0.277224
-0.276016
-0.275129
-0.274711
-0.274989
-0.276294
-0.279049
-0.283845
-0.293244
-0.301097
-0.299614
-0.297692
-0.295465
-0.293076
-0.290661
-0.288305
-0.286063
-0.283968
-0.282044
-0.280317
-0.278828
-0.277639
-0.276844
-0.276582
-0.277038
-0.278444
-0.281052
-0.285117
-0.291776
-0.306094
-0.30418
-0.301855
-0.299245
-0.296489
-0.293735
-0.291077
-0.28857
-0.286251
-0.284146
-0.282282
-0.2807
-0.279457
-0.278633
-0.278333
-0.278681
-0.279808
-0.28182
-0.284804
-0.288975
-0.311679
-0.309268
-0.306499
-0.303479
-0.300337
-0.297232
-0.294262
-0.291482
-0.288925
-0.286613
-0.28457
-0.282827
-0.281427
-0.280427
-0.279892
-0.279889
-0.280471
-0.281654
-0.283458
-0.285622
-0.317904
-0.314928
-0.311676
-0.308221
-0.304677
-0.30121
-0.297916
-0.294844
-0.29202
-0.289456
-0.287165
-0.285165
-0.283482
-0.282146
-0.281191
-0.280643
-0.28051
-0.280765
-0.281404
-0.282001
-0.324816
-0.321206
-0.31743
-0.313521
-0.309559
-0.305715
-0.302077
-0.298683
-0.295542
-0.292655
-0.290021
-0.287643
-0.285531
-0.283699
-0.282161
-0.280923
-0.279973
-0.27928
-0.278832
-0.278225
-0.332446
-0.328135
-0.323802
-0.319418
-0.315024
-0.310782
-0.306768
-0.302999
-0.299468
-0.296158
-0.293057
-0.290159
-0.287466
-0.284987
-0.28273
-0.280696
-0.278877
-0.277253
-0.275809
-0.274238
-0.340813
-0.335736
-0.330817
-0.325943
-0.321097
-0.316427
-0.311985
-0.307764
-0.303737
-0.299877
-0.296164
-0.292593
-0.289171
-0.28591
-0.282825
-0.279927
-0.277217
-0.274692
-0.272337
-0.26995
-0.349913
-0.344018
-0.338488
-0.33311
-0.327786
-0.322638
-0.317692
-0.312912
-0.308256
-0.303693
-0.299209
-0.294812
-0.290523
-0.28637
-0.282383
-0.278582
-0.274983
-0.271594
-0.268397
-0.265273
-0.359722
-0.352964
-0.346808
-0.340908
-0.335067
-0.329373
-0.323816
-0.318339
-0.312894
-0.307459
-0.302043
-0.296678
-0.291409
-0.286286
-0.28135
-0.276636
-0.272165
-0.26795
-0.263967
-0.260156
-0.370185
-0.362535
-0.355744
-0.349299
-0.342887
-0.336548
-0.330243
-0.323902
-0.317488
-0.31101
-0.304511
-0.298059
-0.291728
-0.285585
-0.279686
-0.274069
-0.268756
-0.263757
-0.259039
-0.254575
-0.381217
-0.372662
-0.36523
-0.35821
-0.351148
-0.344036
-0.336815
-0.329422
-0.321855
-0.31417
-0.306461
-0.298834
-0.29139
-0.284212
-0.27736
-0.270868
-0.264754
-0.259018
-0.253611
-0.248533
-0.392697
-0.38324
-0.375165
-0.367525
-0.359709
-0.351666
-0.343337
-0.334694
-0.325796
-0.316764
-0.307748
-0.298893
-0.290321
-0.282119
-0.274344
-0.267021
-0.260154
-0.253731
-0.247684
-0.242035
-0.404464
-0.394128
-0.385407
-0.377083
-0.36838
-0.359222
-0.34958
-0.339493
-0.329107
-0.318621
-0.30824
-0.298141
-0.288454
-0.279264
-0.270613
-0.262512
-0.254947
-0.247891
-0.241255
-0.235085
-0.416316
-0.405142
-0.395768
-0.386676
-0.376929
-0.366453
-0.35529
-0.343586
-0.331589
-0.319581
-0.307816
-0.29649
-0.28573
-0.275605
-0.266138
-0.257318
-0.249116
-0.241486
-0.234314
-0.227681
-0.428014
-0.416057
-0.406017
-0.396051
-0.385081
-0.373079
-0.360205
-0.34674
-0.333052
-0.319499
-0.306369
-0.293862
-0.28209
-0.271099
-0.260885
-0.251414
-0.242638
-0.234493
-0.226844
-0.21981
-0.439276
-0.426609
-0.41588
-0.404914
-0.39253
-0.378802
-0.364055
-0.348732
-0.33332
-0.31824
-0.303799
-0.290183
-0.277479
-0.265699
-0.254813
-0.244762
-0.235481
-0.226886
-0.218819
-0.211451
-0.44979
-0.436494
-0.425044
-0.412938
-0.398952
-0.383321
-0.36658
-0.349352
-0.332231
-0.315684
-0.300015
-0.285382
-0.271836
-0.259356
-0.24788
-0.237325
-0.22761
-0.218631
-0.210209
-0.202576
-0.449475
-0.43618
-0.424734
-0.412632
-0.398652
-0.383029
-0.366298
-0.349079
-0.331966
-0.315427
-0.299766
-0.28514
-0.271601
-0.259127
-0.247656
-0.237107
-0.227396
-0.218421
-0.210004
-0.202375
-0.438961
-0.426296
-0.41557
-0.404608
-0.39223
-0.378509
-0.363769
-0.348455
-0.333051
-0.317979
-0.303546
-0.289937
-0.277238
-0.265465
-0.254584
-0.244539
-0.235262
-0.226672
-0.218609
-0.211245
-0.4277
-0.415746
-0.405708
-0.395745
-0.38478
-0.372784
-0.359917
-0.34646
-0.332779
-0.319234
-0.306111
-0.293611
-0.281845
-0.27086
-0.260651
-0.251185
-0.242414
-0.234274
-0.226629
-0.219599
-0.416004
-0.404832
-0.395461
-0.386372
-0.376628
-0.366158
-0.355001
-0.343304
-0.331313
-0.319312
-0.307554
-0.296234
-0.28548
-0.275361
-0.265899
-0.257085
-0.248887
-0.241261
-0.234094
-0.227465
-0.404154
-0.393821
-0.385102
-0.376781
-0.368081
-0.358927
-0.34929
-0.339209
-0.328829
-0.318349
-0.307974
-0.297881
-0.2882
-0.279015
-0.27037
-0.262272
-0.254712
-0.247661
-0.241029
-0.234864
-0.39239
-0.382935
-0.374862
-0.367225
-0.359411
-0.351372
-0.343047
-0.334409
-0.325516
-0.31649
-0.307479
-0.298629
-0.290062
-0.281866
-0.274095
-0.266777
-0.259914
-0.253496
-0.247453
-0.241808
-0.380913
-0.37236
-0.36493
-0.357913
-0.350853
-0.343744
-0.336526
-0.329137
-0.321574
-0.313894
-0.306189
-0.298567
-0.291127
-0.283954
-0.277106
-0.270619
-0.264508
-0.258777
-0.253374
-0.2483
-0.369884
-0.362236
-0.355447
-0.349005
-0.342595
-0.336258
-0.329955
-0.323617
-0.317207
-0.310732
-0.304237
-0.297789
-0.291461
-0.285322
-0.279427
-0.273814
-0.268505
-0.26351
-0.258795
-0.254336
-0.359424
-0.352668
-0.346515
-0.340616
-0.334778
-0.329085
-0.323531
-0.318056
-0.312612
-0.30718
-0.301766
-0.296404
-0.291139
-0.286018
-0.281086
-0.276375
-0.271907
-0.267696
-0.263717
-0.259909
-0.349619
-0.343726
-0.338198
-0.332821
-0.327499
-0.322353
-0.317409
-0.31263
-0.307976
-0.303413
-0.298931
-0.294536
-0.290249
-0.286098
-0.282113
-0.278315
-0.27472
-0.271333
-0.26814
-0.26502
-0.340521
-0.335447
-0.33053
-0.325658
-0.320814
-0.316145
-0.311704
-0.307484
-0.303458
-0.299597
-0.295885
-0.292315
-0.288893
-0.285633
-0.28255
-0.279654
-0.276947
-0.274425
-0.272073
-0.269689
-0.332158
-0.327848
-0.323518
-0.319136
-0.314744
-0.310503
-0.30649
-0.302721
-0.299189
-0.295879
-0.292777
-0.289878
-0.287186
-0.284707
-0.282449
-0.280416
-0.278599
-0.276978
-0.275537
-0.273969
-0.32453
-0.320922
-0.317149
-0.313241
-0.309282
-0.305439
-0.301802
-0.298407
-0.295266
-0.292377
-0.289741
-0.287361
-0.285247
-0.283414
-0.281876
-0.280637
-0.279688
-0.278998
-0.278552
-0.277948
-0.31762
-0.314647
-0.311397
-0.307945
-0.304403
-0.300936
-0.297643
-0.294571
-0.291745
-0.289179
-0.286885
-0.284882
-0.283195
-0.281857
-0.2809
-0.280351
-0.280218
-0.280474
-0.281116
-0.281716
-0.311396
-0.308988
-0.306222
-0.303205
-0.300065
-0.296961
-0.293991
-0.29121
-0.288651
-0.286336
-0.284289
-0.282542
-0.281137
-0.280133
-0.279595
-0.27959
-0.280171
-0.281354
-0.283161
-0.285329
-0.305813
-0.303901
-0.301579
-0.298972
-0.296218
-0.293465
-0.290806
-0.288299
-0.285977
-0.283868
-0.282
-0.280413
-0.279164
-0.278334
-0.27803
-0.278374
-0.279499
-0.28151
-0.284497
-0.288673
-0.300816
-0.299337
-0.297417
-0.295193
-0.292806
-0.290391
-0.288035
-0.285792
-0.283693
-0.281765
-0.280033
-0.278538
-0.277342
-0.276541
-0.276272
-0.276723
-0.278126
-0.280732
-0.284799
-0.291464
-0.296347
-0.295241
-0.293683
-0.291812
-0.289771
-0.287679
-0.285616
-0.283629
-0.281747
-0.279989
-0.278373
-0.27693
-0.275715
-0.27482
-0.274394
-0.274666
-0.275966
-0.278717
-0.283514
-0.29292
-0.292346
-0.291562
-0.290324
-0.288776
-0.287055
-0.285267
-0.283483
-0.281745
-0.280074
-0.278482
-0.276976
-0.275571
-0.274299
-0.273229
-0.272485
-0.272292
-0.273019
-0.275218
-0.280073
-0.292253
-0.288754
-0.288246
-0.287292
-0.286034
-0.284604
-0.283096
-0.281573
-0.28007
-0.278603
-0.277175
-0.27578
-0.274414
-0.273078
-0.271793
-0.270621
-0.269701
-0.269296
-0.269838
-0.272885
-0.285401
-0.285519
-0.285249
-0.284542
-0.283541
-0.282371
-0.281116
-0.279831
-0.278544
-0.277267
-0.275996
-0.274713
-0.273395
-0.272008
-0.270511
-0.26885
-0.266954
-0.2647
-0.261624
-0.256494
-0.250399
-0.282594
-0.282528
-0.282036
-0.281259
-0.280319
-0.279288
-0.278213
-0.27712
-0.276016
-0.274892
-0.273727
-0.272486
-0.271122
-0.269573
-0.267751
-0.265549
-0.262838
-0.259259
-0.25395
-0.248457
-0.279941
-0.280051
-0.279744
-0.27916
-0.278419
-0.277582
-0.276691
-0.275767
-0.274816
-0.273828
-0.272781
-0.27164
-0.270363
-0.268892
-0.267158
-0.265093
-0.262634
-0.25957
-0.255448
-0.251978
-0.277528
-0.277789
-0.27764
-0.277223
-0.276653
-0.275983
-0.275249
-0.274471
-0.273653
-0.272786
-0.27185
-0.270816
-0.269646
-0.268297
-0.26672
-0.264876
-0.262737
-0.260154
-0.256893
-0.254659
-0.275331
-0.275721
-0.275707
-0.275432
-0.275008
-0.274481
-0.273883
-0.273232
-0.272531
-0.271773
-0.270941
-0.270013
-0.268959
-0.26775
-0.266354
-0.264758
-0.26296
-0.26086
-0.258346
-0.256954
-0.273332
-0.273831
-0.273932
-0.273778
-0.273479
-0.273076
-0.272596
-0.272056
-0.271461
-0.270804
-0.270074
-0.269254
-0.268325
-0.267267
-0.266068
-0.264731
-0.263274
-0.261632
-0.259758
-0.258957
-0.271515
-0.272107
-0.272304
-0.272254
-0.272063
-0.271768
-0.271394
-0.270955
-0.270458
-0.2699
-0.269272
-0.268565
-0.267766
-0.266867
-0.265867
-0.264781
-0.263638
-0.262392
-0.261018
-0.26062
-0.269869
-0.270536
-0.270815
-0.270854
-0.270758
-0.270559
-0.27028
-0.269936
-0.269534
-0.269073
-0.268549
-0.267956
-0.267292
-0.266553
-0.265745
-0.264892
-0.264023
-0.263102
-0.262107
-0.261976
-0.268382
-0.269112
-0.26946
-0.269576
-0.269563
-0.26945
-0.269258
-0.269003
-0.268692
-0.268327
-0.267907
-0.267431
-0.266898
-0.266313
-0.265686
-0.265039
-0.264403
-0.26374
-0.263026
-0.263074
-0.267044
-0.267826
-0.268232
-0.268415
-0.268475
-0.26844
-0.268329
-0.268157
-0.267934
-0.267661
-0.267342
-0.266978
-0.266572
-0.26613
-0.265664
-0.265195
-0.26475
-0.26429
-0.263785
-0.263955
-0.265847
-0.266672
-0.267128
-0.267368
-0.267493
-0.267527
-0.26749
-0.267396
-0.267254
-0.26707
-0.266846
-0.266587
-0.266297
-0.265983
-0.265656
-0.265337
-0.265046
-0.264744
-0.264395
-0.264651
-0.264784
-0.265644
-0.266142
-0.266431
-0.266614
-0.26671
-0.266739
-0.266716
-0.266649
-0.266545
-0.266408
-0.266243
-0.266056
-0.265853
-0.265644
-0.265448
-0.265281
-0.265102
-0.264872
-0.265192
-0.263847
-0.264737
-0.265271
-0.265604
-0.265835
-0.265986
-0.266074
-0.266113
-0.266113
-0.26608
-0.266021
-0.265938
-0.265839
-0.265729
-0.265619
-0.265523
-0.265453
-0.265369
-0.265231
-0.265602
-0.263033
-0.263949
-0.264513
-0.264882
-0.265156
-0.265354
-0.265492
-0.265585
-0.265643
-0.265672
-0.265678
-0.265666
-0.26564
-0.265608
-0.265576
-0.26556
-0.265568
-0.265556
-0.265491
-0.265902
-0.262339
-0.263277
-0.263867
-0.264266
-0.264575
-0.264812
-0.264993
-0.265132
-0.265238
-0.265319
-0.265379
-0.265424
-0.265458
-0.265488
-0.26552
-0.265566
-0.265634
-0.265679
-0.26567
-0.266114
-0.261761
-0.262719
-0.26333
-0.263753
-0.264091
-0.26436
-0.264576
-0.264752
-0.264898
-0.26502
-0.265123
-0.265214
-0.265296
-0.265374
-0.265456
-0.26555
-0.265664
-0.265753
-0.265788
-0.266259
-0.261301
-0.262274
-0.262902
-0.263345
-0.263705
-0.264
-0.264242
-0.264447
-0.264623
-0.264778
-0.264915
-0.265041
-0.265159
-0.265274
-0.265392
-0.265523
-0.265671
-0.265792
-0.265862
-0.266353
-0.260957
-0.261943
-0.262583
-0.263041
-0.263418
-0.263731
-0.263993
-0.264219
-0.264418
-0.264596
-0.264758
-0.264908
-0.265053
-0.265195
-0.265339
-0.265496
-0.265668
-0.265813
-0.265907
-0.266413
-0.260731
-0.261725
-0.262374
-0.262841
-0.263229
-0.263554
-0.26383
-0.26407
-0.264284
-0.264477
-0.264654
-0.264822
-0.264983
-0.265142
-0.265304
-0.265478
-0.265666
-0.265826
-0.265936
-0.266453
-0.260622
-0.261621
-0.262274
-0.262747
-0.26314
-0.263471
-0.263754
-0.264001
-0.264222
-0.264423
-0.264609
-0.264785
-0.264955
-0.265123
-0.265294
-0.265476
-0.265672
-0.26584
-0.265959
-0.266482
-0.283251
-0.279835
-0.343173
-0.299047
-0.206042
-0.143161
-0.0814837
-0.0379078
-0.0120166
0.00748572
0.0138449
0.0183407
0.018091
0.0176686
0.0156361
0.0137131
0.0109011
0.0085956
0.00511393
0.00279072
-0.2834
-0.279927
-0.343265
-0.29918
-0.206176
-0.143428
-0.0818333
-0.0381787
-0.0121974
0.00740949
0.013832
0.0183551
0.0181128
0.017682
0.0156378
0.0137041
0.0108835
0.00857762
0.00509641
0.00277992
-0.283642
-0.280104
-0.343657
-0.29974
-0.206582
-0.143875
-0.0823461
-0.0385536
-0.0124659
0.0072705
0.013772
0.0183335
0.0181078
0.0176757
0.0156244
0.0136837
0.0108568
0.00855244
0.00507416
0.00276509
-0.283957
-0.280341
-0.344301
-0.300691
-0.207252
-0.144497
-0.0830157
-0.0390295
-0.0128192
0.00706835
0.0136643
0.0182746
0.0180749
0.0176489
0.0155957
0.0136518
0.010821
0.00852014
0.00504739
0.00274635
-0.284318
-0.280608
-0.345127
-0.301979
-0.208171
-0.145286
-0.0838342
-0.0396035
-0.0132544
0.00680228
0.0135082
0.0181769
0.0180135
0.017601
0.0155516
0.0136083
0.0107763
0.0084808
0.00501636
0.00272383
-0.284695
-0.280866
-0.346053
-0.303543
-0.209322
-0.146236
-0.084793
-0.0402729
-0.0137684
0.00647133
0.0133028
0.018039
0.0179224
0.0175312
0.0154916
0.013553
0.0107229
0.00843446
0.00498132
0.00269764
-0.285053
-0.281078
-0.346991
-0.305315
-0.210685
-0.147335
-0.0858829
-0.0410346
-0.0143577
0.00607455
0.0130474
0.0178594
0.0178011
0.0174389
0.0154159
0.0134859
0.0106608
0.00838118
0.00494254
0.00266791
-0.285361
-0.281205
-0.347855
-0.307226
-0.21224
-0.148573
-0.0870944
-0.0418856
-0.0150188
0.00561117
0.0127415
0.0176369
0.0176487
0.0173235
0.0153243
0.013407
0.0105902
0.00832105
0.00490028
0.00263477
-0.285593
-0.281214
-0.348565
-0.309217
-0.213968
-0.14994
-0.0884177
-0.0428224
-0.0157481
0.00508088
0.0123848
0.0173704
0.0174648
0.0171846
0.015217
0.0133163
0.0105113
0.00825414
0.00485483
0.00259834
-0.285728
-0.281078
-0.349055
-0.311235
-0.215851
-0.151423
-0.089843
-0.043841
-0.0165413
0.00448397
0.0119775
0.0170596
0.0172493
0.0170223
0.0150942
0.013214
0.0104245
0.00818055
0.00480644
0.00255877
-0.285751
-0.280777
-0.349272
-0.313237
-0.217878
-0.15301
-0.0913604
-0.0449367
-0.0173942
0.00382153
0.01152
0.0167042
0.0170021
0.0168365
0.0149562
0.0131003
0.0103298
0.00810041
0.00475534
0.00251618
-0.285658
-0.280302
-0.349175
-0.31519
-0.220039
-0.154693
-0.0929601
-0.0461046
-0.0183019
0.00309542
0.0110134
0.0163047
0.0167236
0.0166275
0.0148035
0.0129756
0.0102276
0.00801386
0.00470178
0.00247073
-0.28545
-0.279647
-0.348737
-0.317074
-0.222331
-0.156462
-0.0946343
-0.0473402
-0.0192603
0.00230805
0.0104591
0.0158619
0.0164144
0.016396
0.0146366
0.0128403
0.0101183
0.00792111
0.00464595
0.00242257
-0.285134
-0.278815
-0.347936
-0.318867
-0.224756
-0.158315
-0.0963766
-0.0486389
-0.0202645
0.00146251
0.00985896
0.0153772
0.0160752
0.0161425
0.014456
0.012695
0.0100021
0.00782235
0.00458807
0.00237186
-0.284713
-0.27781
-0.34675
-0.320536
-0.227307
-0.16024
-0.0981721
-0.0499903
-0.0213054
0.000564682
0.00921608
0.0148522
0.015707
0.0158678
0.0142625
0.01254
0.00987933
0.00771771
0.00452827
0.00231874
-0.284178
-0.276635
-0.345162
-0.322017
-0.229937
-0.162202
-0.0999841
-0.0513696
-0.0223656
-0.000374445
0.00853608
0.0142902
0.0153111
0.0155727
0.0140564
0.0123758
0.00975024
0.00760731
0.00446657
0.00226333
-0.283557
-0.275322
-0.343202
-0.323349
-0.232648
-0.164194
-0.101815
-0.0527781
-0.0234504
-0.00135277
0.00782157
0.0136958
0.0148911
0.0152601
0.0138395
0.0122038
0.0096155
0.00749199
0.00440327
0.00220591
-0.282913
-0.273923
-0.340918
-0.324868
-0.235774
-0.166469
-0.103884
-0.0543588
-0.0246587
-0.00241622
0.00705426
0.0130678
0.0144507
0.0149359
0.0136158
0.0120277
0.00947748
0.00737457
0.00433973
0.00214727
-0.281654
-0.272242
-0.337907
-0.326488
-0.239744
-0.169385
-0.106439
-0.0562631
-0.0260562
-0.00361288
0.00620917
0.0123858
0.013979
0.0145935
0.0133845
0.0118474
0.0093372
0.00725439
0.00427689
0.00208727
-0.277603
-0.269615
-0.333076
-0.325426
-0.24268
-0.171597
-0.108198
-0.0576211
-0.0269795
-0.00463386
0.00541045
0.011645
0.0134381
0.0141828
0.013116
0.0116354
0.00917893
0.00710755
0.00420549
0.00201995
-0.239985
-0.248865
-0.297439
-0.301274
-0.246117
-0.174887
-0.109445
-0.0592294
-0.027548
-0.00817819
0.0017257
0.00726827
0.00991657
0.0113109
0.0112618
0.010145
0.00811174
0.00603913
0.00369838
0.00157859
-0.200812
-0.226964
-0.249399
-0.255876
-0.225733
-0.166687
-0.106617
-0.0598738
-0.0299757
-0.0136319
-0.00503793
-8.87664e-05
0.00327453
0.00576534
0.00709142
0.00703125
0.00585583
0.00426099
0.00251879
0.000796446
-0.179268
-0.199675
-0.210328
-0.211209
-0.191021
-0.148658
-0.100613
-0.0606809
-0.03395
-0.0190677
-0.0111302
-0.00629371
-0.00248027
0.000727618
0.00299575
0.00395583
0.00372037
0.00278898
0.00155556
0.000449485
-0.148393
-0.169729
-0.175965
-0.172648
-0.15766
-0.129387
-0.0945082
-0.062575
-0.0389955
-0.024486
-0.016203
-0.010979
-0.00684863
-0.00333773
-0.000567861
0.00118312
0.00183554
0.00162033
0.000882972
0.000257291
-0.12272
-0.142056
-0.147244
-0.143263
-0.132206
-0.113638
-0.0893191
-0.0644172
-0.0435903
-0.0290748
-0.0199755
-0.0141674
-0.00993231
-0.00648691
-0.0035855
-0.00129657
7.4355e-05
0.000546586
0.000279654
-0.000136978
-0.101653
-0.118731
-0.124125
-0.121568
-0.113764
-0.101148
-0.0839074
-0.0644297
-0.046183
-0.0319909
-0.0223237
-0.0161602
-0.0120778
-0.0089478
-0.00611971
-0.0035065
-0.0016035
-0.000515407
-0.00026227
-0.000317136
-0.0853936
-0.100079
-0.105903
-0.105146
-0.0998664
-0.0907935
-0.0779519
-0.0625058
-0.0468057
-0.0335546
-0.0239712
-0.0178471
-0.0140126
-0.0111302
-0.00832425
-0.00546861
-0.00315421
-0.00153842
-0.000712959
-0.000388855
-0.0728794
-0.0854919
-0.0914686
-0.0920839
-0.0886416
-0.0817946
-0.0717611
-0.0593706
-0.0461609
-0.0343907
-0.0255067
-0.01965
-0.0158721
-0.0129241
-0.0100102
-0.00698321
-0.00441094
-0.00241087
-0.00107261
-0.000430998
-0.0632311
-0.0740637
-0.0798553
-0.0813067
-0.0791486
-0.073853
-0.0658312
-0.0558722
-0.0450022
-0.0349605
-0.0270264
-0.0213824
-0.0173682
-0.0141329
-0.011122
-0.00808151
-0.00542895
-0.00320017
-0.00147562
-0.000533463
-0.0556815
-0.0649854
-0.0703835
-0.0722625
-0.070994
-0.0669288
-0.060543
-0.0525785
-0.0437646
-0.0353398
-0.0282476
-0.0226696
-0.0183337
-0.0148761
-0.0119108
-0.00899696
-0.0063373
-0.00396285
-0.00192829
-0.000632252
-0.0496553
-0.0576615
-0.0625902
-0.0646513
-0.0640456
-0.0610437
-0.0560407
-0.0496892
-0.0425384
-0.0353903
-0.0289163
-0.0234099
-0.0189598
-0.0154896
-0.0126415
-0.00982677
-0.00711197
-0.00461395
-0.00232971
-0.000700557
-0.0447499
-0.0516748
-0.0561512
-0.0582964
-0.0582347
-0.0561349
-0.0522616
-0.0471673
-0.0412561
-0.035031
-0.0290742
-0.023836
-0.0195418
-0.0161452
-0.0133093
-0.0104708
-0.00767089
-0.00509371
-0.00266792
-0.000790677
-0.0406735
-0.0467307
-0.0508354
-0.0530559
-0.0534405
-0.0520541
-0.0490658
-0.0449107
-0.0398846
-0.0343826
-0.0289982
-0.0242048
-0.0201408
-0.016732
-0.0137801
-0.010887
-0.00805915
-0.00546976
-0.00299046
-0.000909183
-0.0372171
-0.0426184
-0.0464694
-0.0487768
-0.0495009
-0.0486525
-0.0463359
-0.0428643
-0.038514
-0.0336877
-0.0289141
-0.0245381
-0.0206071
-0.017121
-0.0140685
-0.0111885
-0.00838897
-0.0058003
-0.00327773
-0.00101339
-0.0342042
-0.0391836
-0.0429029
-0.0452984
-0.0462761
-0.0458282
-0.0440041
-0.0410542
-0.037298
-0.0331028
-0.0288287
-0.0247189
-0.0208637
-0.0173694
-0.0143067
-0.0114668
-0.00867965
-0.00605659
-0.00348783
-0.00109382
-0.0315278
-0.0363155
-0.0400124
-0.0425018
-0.0436763
-0.043516
-0.0420597
-0.0395563
-0.0363201
-0.0326113
-0.0286637
-0.0247391
-0.0210082
-0.0175917
-0.0145391
-0.0116963
-0.00889083
-0.00622625
-0.00363581
-0.00116576
-0.0290873
-0.0339442
-0.037719
-0.0403067
-0.0416244
-0.0416739
-0.0405253
-0.0384018
-0.0355466
-0.0321542
-0.0284422
-0.0247095
-0.021133
-0.0177897
-0.0147147
-0.011844
-0.00903116
-0.00634722
-0.00374865
-0.00122577
-0.0269176
-0.0320663
-0.0359948
-0.0386645
-0.0400747
-0.0402895
-0.0393967
-0.0375517
-0.0349405
-0.0317676
-0.0282598
-0.0246978
-0.0212302
-0.0179204
-0.0148204
-0.011938
-0.00913607
-0.00644069
-0.0038278
-0.00126613
-0.0251365
-0.0307302
-0.0348291
-0.0375528
-0.03902
-0.0393508
-0.0386296
-0.0369636
-0.0345189
-0.0315115
-0.0281496
-0.0246873
-0.0212752
-0.0179895
-0.0148868
-0.0120049
-0.00921017
-0.00650028
-0.00387323
-0.00129032
-0.0240198
-0.0300186
-0.0342302
-0.0369803
-0.0384768
-0.0388625
-0.0382211
-0.036649
-0.0343036
-0.0313892
-0.0280933
-0.0246685
-0.0212836
-0.0180201
-0.0149238
-0.0120407
-0.00924545
-0.00652539
-0.0038928
-0.00130207
-0.161855
-0.171898
-0.182064
-0.192443
-0.20314
-0.214267
-0.22595
-0.23832
-0.251506
-0.26562
-0.280721
-0.296783
-0.313569
-0.33063
-0.346996
-0.361547
-0.3723
-0.378514
-0.377947
-0.375336
-0.102161
-0.105641
-0.108816
-0.111666
-0.114172
-0.11631
-0.118055
-0.119381
-0.120264
-0.120687
-0.120646
-0.12017
-0.119326
-0.11828
-0.117253
-0.116701
-0.11701
-0.119082
-0.123221
-0.13155
-0.0771842
-0.0814779
-0.0858069
-0.0901817
-0.0946138
-0.0991152
-0.103698
-0.108376
-0.113161
-0.118063
-0.123089
-0.128239
-0.133495
-0.138825
-0.144151
-0.149371
-0.154298
-0.158753
-0.162422
-0.165111
-0.0635034
-0.0664198
-0.0692952
-0.0721303
-0.0749256
-0.0776813
-0.0803975
-0.0830736
-0.085709
-0.0883034
-0.0908566
-0.09337
-0.0958474
-0.0982981
-0.100739
-0.103201
-0.105735
-0.108416
-0.111401
-0.114915
-0.0531063
-0.0554628
-0.0578226
-0.060188
-0.0625614
-0.0649453
-0.0673422
-0.0697544
-0.0721845
-0.0746348
-0.0771077
-0.0796049
-0.0821278
-0.084676
-0.0872482
-0.0898373
-0.0924397
-0.0950317
-0.0976286
-0.100182
-0.0466662
-0.0485131
-0.0503573
-0.0521996
-0.0540405
-0.0558807
-0.0577208
-0.0595617
-0.061404
-0.0632487
-0.0650965
-0.0669485
-0.0688061
-0.0706702
-0.0725439
-0.0744281
-0.0763324
-0.0782555
-0.0802432
-0.0822948
-0.0415078
-0.042985
-0.0444632
-0.0459428
-0.0474244
-0.0489086
-0.0503959
-0.0518869
-0.0533823
-0.0548825
-0.0563883
-0.0579001
-0.0594186
-0.060944
-0.0624773
-0.0640175
-0.0655689
-0.0671247
-0.0687127
-0.0703105
-0.0376672
-0.0388671
-0.0400672
-0.0412676
-0.0424685
-0.0436701
-0.0448728
-0.0460766
-0.047282
-0.0484892
-0.0496984
-0.05091
-0.0521244
-0.0533417
-0.0545628
-0.055787
-0.0570182
-0.0582515
-0.0595098
-0.0607744
-0.0345803
-0.0355653
-0.0365504
-0.0375356
-0.038521
-0.0395069
-0.0404933
-0.0414804
-0.0424683
-0.0434572
-0.0444473
-0.0454387
-0.0464316
-0.0474259
-0.0484221
-0.0494197
-0.050421
-0.0514221
-0.0524399
-0.0534575
-0.0321318
-0.032948
-0.0337641
-0.03458
-0.0353959
-0.0362119
-0.0370279
-0.0378441
-0.0386606
-0.0394774
-0.0402945
-0.0411121
-0.0419303
-0.0427489
-0.0435682
-0.0443879
-0.0452095
-0.0460301
-0.0468626
-0.0476935
-0.0301271
-0.0308052
-0.0314833
-0.0321614
-0.0328397
-0.0335181
-0.0341967
-0.0348755
-0.0355546
-0.036234
-0.0369137
-0.0375937
-0.038274
-0.0389545
-0.0396354
-0.0403162
-0.0409982
-0.0416791
-0.0423686
-0.0430566
-0.0284553
-0.0290188
-0.0295828
-0.0301473
-0.0307125
-0.0312783
-0.0318447
-0.0324117
-0.0329793
-0.0335474
-0.0341161
-0.0346852
-0.0352547
-0.0358245
-0.0363946
-0.0369647
-0.0375356
-0.0381055
-0.0386818
-0.0392575
-0.026961
-0.0274273
-0.0278951
-0.0283645
-0.0288353
-0.0293077
-0.0297815
-0.0302568
-0.0307334
-0.0312113
-0.0316903
-0.0321704
-0.0326514
-0.0331332
-0.0336157
-0.0340985
-0.0345823
-0.0350657
-0.0355541
-0.0360432
-0.0255595
-0.0259445
-0.0263324
-0.0267232
-0.0271169
-0.0275134
-0.0279125
-0.0283142
-0.0287181
-0.0291243
-0.0295325
-0.0299424
-0.0303539
-0.0307668
-0.0311808
-0.0315956
-0.0320115
-0.0324274
-0.0328474
-0.0332691
-0.024008
-0.0243247
-0.0246469
-0.0249744
-0.0253069
-0.0256442
-0.0259861
-0.0263323
-0.0266825
-0.0270363
-0.0273935
-0.0277537
-0.0281166
-0.0284818
-0.0288491
-0.0292179
-0.0295884
-0.0299597
-0.0303347
-0.0307125
-0.0222786
-0.0225456
-0.0228213
-0.0231053
-0.023397
-0.0236959
-0.0240015
-0.0243133
-0.0246306
-0.0249529
-0.0252796
-0.0256104
-0.0259445
-0.0262816
-0.0266211
-0.0269625
-0.0273057
-0.0276499
-0.027997
-0.0283472
-0.0197087
-0.019969
-0.0202421
-0.0205266
-0.0208217
-0.0211261
-0.021439
-0.0217593
-0.0220862
-0.0224188
-0.0227563
-0.0230979
-0.0234428
-0.0237906
-0.0241404
-0.0244917
-0.0248442
-0.0251972
-0.0255518
-0.0259089
-0.016401
-0.0167254
-0.0170622
-0.01741
-0.0177671
-0.0181323
-0.0185042
-0.0188817
-0.0192638
-0.0196494
-0.0200378
-0.020428
-0.0208194
-0.0212113
-0.0216031
-0.0219943
-0.0223844
-0.022773
-0.0231606
-0.0235484
-0.0113763
-0.0119638
-0.0125452
-0.0131203
-0.0136886
-0.0142498
-0.0148038
-0.0153502
-0.015889
-0.01642
-0.0169431
-0.0174583
-0.0179654
-0.0184645
-0.0189556
-0.0194386
-0.0199137
-0.0203809
-0.0208407
-0.0212944
-0.00587841
-0.00682536
-0.00773799
-0.00861819
-0.00946774
-0.0102883
-0.0110816
-0.011849
-0.0125919
-0.0133116
-0.0140094
-0.0146864
-0.0153437
-0.0159822
-0.0166029
-0.0172068
-0.0177945
-0.018367
-0.0189251
-0.0194702
-0.00585917
-0.00680623
-0.00771897
-0.00859928
-0.00944894
-0.0102697
-0.011063
-0.0118305
-0.0125735
-0.0132933
-0.0139912
-0.0146682
-0.0153256
-0.0159642
-0.016585
-0.0171889
-0.0177767
-0.0183492
-0.0189073
-0.0194525
-0.0113574
-0.011945
-0.0125265
-0.0131017
-0.0136701
-0.0142315
-0.0147855
-0.0153321
-0.015871
-0.0164021
-0.0169253
-0.0174405
-0.0179477
-0.0184469
-0.0189381
-0.0194212
-0.0198964
-0.0203637
-0.0208235
-0.0212773
-0.0163829
-0.0167074
-0.0170444
-0.0173922
-0.0177494
-0.0181147
-0.0184867
-0.0188643
-0.0192465
-0.0196322
-0.0200207
-0.020411
-0.0208025
-0.0211945
-0.0215864
-0.0219777
-0.0223678
-0.0227565
-0.0231442
-0.0235321