/*--------------------------------*- C++ -*----------------------------------*\
  =========                 |
  \\      /  F ield         | OpenFOAM: The Open Source CFD Toolbox
   \\    /   O peration     | Website:  https://openfoam.org
    \\  /    A nd           | Version:  6.0
     \\/     M anipulation  |
\*---------------------------------------------------------------------------*/
FoamFile
{
    version     2.0;
    format      ascii;
    class       surfaceScalarField;
    location    "25";
    object      phi;
}
// * * * * * * * * * * * * * * * * * * * * * * * * * * * * * * * * * * * * * //

dimensions      [0 3 -1 0 0 0 0];

internalField   nonuniform List<scalar> 
7840
(
-2.76056e-06
2.84908e-06
-8.85158e-08
-9.77348e-06
7.19869e-06
-1.85768e-07
-2.00192e-05
1.04707e-05
-2.24936e-07
-3.26593e-05
1.28626e-05
-2.22516e-07
-4.70173e-05
1.45494e-05
-1.9144e-07
-6.25609e-05
1.56851e-05
-1.41467e-07
-7.88847e-05
1.64035e-05
-7.97399e-08
-9.56933e-05
1.68199e-05
-1.13226e-08
-0.000112787
1.70338e-05
6.03268e-08
-0.00013005
1.713e-05
1.32945e-07
-0.000147437
1.71813e-05
2.05118e-07
-0.000164962
1.72491e-05
2.75998e-07
-0.000182691
1.73845e-05
3.45102e-07
-0.000200733
1.76289e-05
4.12172e-07
-0.000219224
1.80144e-05
4.77085e-07
-0.000238328
1.85643e-05
5.39794e-07
-0.000258221
1.92927e-05
6.00317e-07
-0.000279085
2.0205e-05
6.58726e-07
-0.0003011
2.13006e-05
7.14988e-07
2.2579e-05
7.69038e-07
-0.000324449
-2.75074e-06
5.59982e-06
-9.73644e-06
1.41844e-05
-1.99369e-05
2.06711e-05
-3.25119e-05
2.54376e-05
-4.67824e-05
2.88199e-05
-6.22124e-05
3.11152e-05
-7.83921e-05
3.25832e-05
-9.5021e-05
3.34488e-05
-0.000111894
3.39064e-05
-0.000128887
3.41236e-05
-0.00014595
3.4244e-05
-0.000163091
3.43901e-05
-0.000180371
3.46645e-05
-0.000197893
3.51512e-05
-0.000215795
3.59161e-05
-0.000234238
3.70073e-05
-0.000253401
3.84552e-05
-0.000273468
4.02725e-05
-0.000294627
4.24593e-05
4.50149e-05
-0.000317063
-2.73123e-06
8.33104e-06
-9.66227e-06
2.11154e-05
-1.97716e-05
3.07805e-05
-3.22156e-05
3.78816e-05
-4.63101e-05
4.29144e-05
-6.15127e-05
4.63178e-05
-7.74049e-05
4.84754e-05
-9.36761e-05
4.972e-05
-0.000110109
5.03396e-05
-0.000126569
5.05832e-05
-0.00014299
5.06654e-05
-0.00015937
5.07702e-05
-0.000175759
5.10536e-05
-0.000192253
5.16447e-05
-0.000208983
5.26464e-05
-0.000226111
5.41357e-05
-0.00024382
5.61634e-05
-0.000262301
5.87535e-05
-0.000281751
6.19096e-05
6.56328e-05
-0.000302369
-2.70358e-06
1.10346e-05
-9.55545e-06
2.79673e-05
-1.95318e-05
4.07569e-05
-3.17841e-05
5.01339e-05
-4.56216e-05
5.67518e-05
-6.04925e-05
6.11887e-05
-7.59668e-05
6.39496e-05
-9.17192e-05
6.54724e-05
-0.000107516
6.61362e-05
-0.000123202
6.62698e-05
-0.000138695
6.61579e-05
-0.000153972
6.60468e-05
-0.000169066
6.61479e-05
-0.00018406
6.66389e-05
-0.000199079
6.76651e-05
-0.000214282
6.93385e-05
-0.000229855
7.17368e-05
-0.000246003
7.49017e-05
-0.00026294
7.88462e-05
8.35763e-05
-0.000280883
-2.66971e-06
1.37043e-05
-9.42145e-06
3.4719e-05
-1.92276e-05
5.0563e-05
-3.1234e-05
6.21403e-05
-4.4742e-05
7.02598e-05
-5.91894e-05
7.56361e-05
-7.41319e-05
7.88921e-05
-8.92266e-05
8.05671e-05
-0.000104218
8.11278e-05
-0.000118928
8.09798e-05
-0.000133247
8.04763e-05
-0.000147126
7.99259e-05
-0.000160575
7.95973e-05
-0.000173658
7.97216e-05
-0.000186485
8.04927e-05
-0.000199213
8.20663e-05
-0.000212033
8.45566e-05
-0.000225165
8.80333e-05
-0.000238846
9.25281e-05
9.80582e-05
-0.000253328
-2.63146e-06
1.63358e-05
-9.26527e-06
4.13528e-05
-1.88682e-05
6.0166e-05
-3.05799e-05
7.3852e-05
-4.3694e-05
8.33738e-05
-5.76375e-05
8.95796e-05
-7.19513e-05
9.3206e-05
-8.6273e-05
9.48888e-05
-0.000100323
9.51775e-05
-0.000113893
9.455e-05
-0.000126842
9.34248e-05
-0.000139087
9.21717e-05
-0.000150608
9.1118e-05
-0.000161439
9.05525e-05
-0.000171672
9.07256e-05
-0.000181453
9.18472e-05
-0.000190978
9.40817e-05
-0.000200486
9.75414e-05
-0.00021025
0.000102292
0.000108372
-0.000220564
-2.59012e-06
1.89259e-05
-9.08982e-06
4.78525e-05
-1.84582e-05
6.95344e-05
-2.98287e-05
8.52226e-05
-4.24884e-05
9.60335e-05
-5.58551e-05
0.000102946
-6.94557e-05
0.000106807
-8.29084e-05
0.000108341
-9.59074e-05
0.000108177
-0.000108213
0.000106856
-0.000119646
0.000104858
-0.000130085
0.00010261
-0.000139466
0.000100499
-0.000147786
9.88728e-05
-0.000155108
9.80471e-05
-0.000161559
9.82989e-05
-0.000167337
9.98596e-05
-0.000172701
0.000102905
-0.000177967
0.000107557
0.000113899
-0.000183493
-2.54585e-06
2.14717e-05
-8.89431e-06
5.4201e-05
-1.79943e-05
7.86344e-05
-2.8974e-05
9.62022e-05
-4.11157e-05
0.000108175
-5.38309e-05
0.000115661
-6.66358e-05
0.000119612
-7.91315e-05
0.000120837
-9.09877e-05
0.000120033
-0.000101932
0.0001178
-0.000111745
0.000114671
-0.000120257
0.000111123
-0.000127356
0.000107597
-0.000132988
0.000104505
-0.000137172
0.000102231
-0.000140007
0.000101134
-0.000141679
0.000101532
-0.000142467
0.000103693
-0.000142739
0.000107829
0.000114099
-0.000142939
-2.49744e-06
2.39692e-05
-8.67305e-06
6.03766e-05
-1.7463e-05
8.74244e-05
-2.79907e-05
0.00010673
-3.9537e-05
0.000119721
-5.1511e-05
0.000127635
-6.34232e-05
0.000131524
-7.48625e-05
0.000132276
-8.54784e-05
0.000130649
-9.49689e-05
0.000127291
-0.000103074
0.000122776
-0.000109575
0.000117624
-0.000114299
0.000112322
-0.000117133
0.000107339
-0.000118035
0.000103133
-0.000117055
0.000100154
-0.000114355
9.88323e-05
-0.000110223
9.95607e-05
-0.00010508
0.000102686
0.000108501
-9.94829e-05
-2.44204e-06
2.64112e-05
-8.41482e-06
6.63494e-05
-1.68387e-05
9.58483e-05
-2.68326e-05
0.000116724
-3.76787e-05
0.000130568
-4.87887e-05
0.000138745
-5.96735e-05
0.000142409
-6.99171e-05
0.00014252
-7.91565e-05
0.000139888
-8.7067e-05
0.000135201
-9.33534e-05
0.000129062
-9.77484e-05
0.000122019
-0.000100018
0.000114592
-9.99767e-05
0.000107297
-9.75054e-05
0.000100661
-9.25838e-05
9.52324e-05
-8.53224e-05
9.15709e-05
-7.5997e-05
9.02353e-05
-6.50809e-05
9.17702e-05
9.66821e-05
-5.32615e-05
-2.3754e-06
2.87866e-05
-8.10317e-06
7.20772e-05
-1.60838e-05
0.000103829
-2.54311e-05
0.000126071
-3.54302e-05
0.000140567
-4.54993e-05
0.000148814
-5.51561e-05
0.000152065
-6.39884e-05
0.000151352
-7.1631e-05
0.000147531
-7.77476e-05
0.000141318
-8.20191e-05
0.000133334
-8.41391e-05
0.000124139
-8.38165e-05
0.000114269
-8.07895e-05
0.00010427
-7.48499e-05
9.47218e-05
-6.58815e-05
8.6264e-05
-5.39108e-05
7.96002e-05
-3.91672e-05
7.54917e-05
-2.21523e-05
7.47553e-05
7.82302e-05
-3.70046e-06
-2.29227e-06
3.10789e-05
-7.71779e-06
7.75027e-05
-1.51515e-05
0.000111263
-2.36988e-05
0.000134619
-3.26469e-05
0.000149515
-4.14223e-05
0.00015759
-4.9554e-05
0.000160197
-5.66413e-05
0.00015844
-6.23277e-05
0.000153217
-6.62799e-05
0.00014527
-6.8172e-05
0.000135226
-6.76762e-05
0.000123643
-6.44607e-05
0.000111054
-5.81982e-05
9.80074e-05
-4.8589e-05
8.51127e-05
-3.54038e-05
7.30788e-05
-1.85492e-05
6.27456e-05
1.8413e-06
5.51011e-05
2.52848e-05
5.13118e-05
5.27083e-05
5.08068e-05
-2.18719e-06
3.32661e-05
-7.23662e-06
8.25521e-05
-1.39893e-05
0.000118015
-2.15354e-05
0.000142165
-2.91591e-05
0.000157138
-3.62927e-05
0.000164723
-4.24764e-05
0.000166381
-4.73247e-05
0.000163288
-5.04985e-05
0.000156391
-5.16815e-05
0.000146453
-5.05617e-05
0.000134106
-4.68164e-05
0.000119898
-4.0103e-05
0.00010434
-3.00584e-05
8.79628e-05
-1.63129e-05
7.13672e-05
1.47267e-06
5.52933e-05
2.35357e-05
4.06826e-05
4.98948e-05
2.8742e-05
8.01631e-05
2.10435e-05
1.95979e-05
0.000113274
-2.05533e-06
3.53214e-05
-6.63856e-06
8.71353e-05
-1.25446e-05
0.000123921
-1.88368e-05
0.000148457
-2.47857e-05
0.000163087
-2.98202e-05
0.000169758
-3.34847e-05
0.000170045
-3.54053e-05
0.000165209
-3.52614e-05
0.000156247
-3.27626e-05
0.000143954
-2.76288e-05
0.000128972
-1.95722e-05
0.000111841
-8.28135e-06
9.30495e-05
6.59067e-06
7.30907e-05
2.54291e-05
5.25288e-05
4.86388e-05
3.20835e-05
7.65875e-05
1.27339e-05
0.000109484
-4.15497e-06
0.000147139
-1.6611e-05
-2.17724e-05
0.000188509
-1.89331e-06
3.72147e-05
-5.90581e-06
9.11478e-05
-1.07695e-05
0.000128785
-1.55037e-05
0.000153191
-1.93487e-05
0.000166932
-2.17129e-05
0.000172122
-2.21287e-05
0.000170461
-2.02191e-05
0.000163299
-1.56714e-05
0.000151699
-8.21743e-06
0.0001365
2.38374e-06
0.000118371
1.63618e-05
9.7863e-05
3.39529e-05
7.54584e-05
5.54201e-05
5.16236e-05
8.10732e-05
2.68756e-05
0.000111281
1.87551e-06
0.000146454
-2.24391e-05
0.000186963
-4.4664e-05
0.000232901
-6.2549e-05
-7.23233e-05
0.000283452
-1.69951e-06
3.89142e-05
-5.02507e-06
9.44734e-05
-8.62354e-06
0.000132383
-1.14483e-05
0.000156016
-1.26859e-05
0.00016817
-1.16995e-05
0.000171136
-7.98334e-06
0.000166745
-1.13027e-06
0.000156446
9.19015e-06
0.000141379
2.32458e-05
0.000122444
4.12511e-05
0.000100366
6.33751e-05
7.5739e-05
8.97512e-05
4.90823e-05
0.000120494
2.08804e-05
0.000155729
-8.35915e-06
0.000195629
-3.80239e-05
0.000240452
-6.72624e-05
0.000290559
-9.47709e-05
0.000346301
-0.000118292
-0.000133332
0.00040731
-1.47371e-06
4.03879e-05
-3.9866e-06
9.69863e-05
-6.07328e-06
0.00013447
-6.59426e-06
0.000156537
-4.65441e-06
0.00016623
4.59658e-07
0.000166022
9.32651e-06
0.000157878
2.24211e-05
0.000143351
4.0132e-05
0.000123668
6.2768e-05
9.98085e-05
9.05556e-05
7.2578e-05
0.000123633
4.26617e-05
0.000162041
1.0674e-05
0.000205722
-2.28007e-05
0.00025453
-5.71665e-05
0.000308264
-9.17588e-05
0.000366745
-0.000125743
0.000429922
-0.000157948
0.00049804
-0.000186409
-0.000206617
0.000571324
-1.21593e-06
4.16039e-05
-2.78098e-06
9.85514e-05
-3.0861e-06
0.000134775
-8.69455e-07
0.00015432
4.87723e-06
0.000160484
1.49783e-05
0.00015592
3.01241e-05
0.000142732
5.09008e-05
0.000122575
7.78042e-05
9.67644e-05
0.000111238
6.63743e-05
0.000151503
3.23138e-05
0.000198768
-4.60375e-06
0.000253046
-4.36043e-05
0.000314152
-8.39063e-05
0.000381666
-0.00012468
0.000454916
-0.000165009
0.000532999
-0.000203826
0.00061488
-0.000239829
0.000699753
-0.000271282
-0.000295407
0.000788544
-9.24545e-07
4.25284e-05
-1.3936e-06
9.90204e-05
3.79468e-07
0.000133002
5.8094e-06
0.00014889
1.60492e-05
0.000150244
3.20683e-05
0.000139901
5.47056e-05
0.000120095
8.46999e-05
9.25804e-05
0.0001227
5.8764e-05
0.000169261
1.98136e-05
0.000224822
-2.32474e-05
0.000289678
-6.94595e-05
0.000363929
-0.000117856
0.000447416
-0.000167393
0.000539622
-0.000216886
0.00063954
-0.000264927
0.000745515
-0.000309801
0.000855039
-0.000349353
0.00096485
-0.000381094
-0.000406217
0.00107566
-5.94069e-07
4.31225e-05
2.0163e-07
9.82247e-05
4.38559e-06
0.000128818
1.3555e-05
0.000139721
2.90364e-05
0.000134762
5.1973e-05
0.000116965
8.33802e-05
8.86878e-05
0.000124175
5.17852e-05
0.000175187
7.75248e-06
0.000237149
-4.21482e-05
0.000310686
-9.6785e-05
0.000396297
-0.00015507
0.000494324
-0.000215883
0.000604926
-0.000277995
0.000728017
-0.000339977
0.000863149
-0.00040006
0.00100922
-0.000455872
0.00116353
-0.000503665
0.00131856
-0.000536123
-0.000538642
0.00145098
-2.14066e-07
4.33366e-05
2.04644e-06
9.59642e-05
9.02374e-06
0.000121841
2.25235e-05
0.000126221
4.40692e-05
0.000113217
7.49957e-05
8.60384e-05
0.000116504
4.71797e-05
0.000169686
-1.39695e-06
0.000235529
-5.8091e-05
0.00031491
-0.000121529
0.000408585
-0.00019046
0.000517196
-0.000263681
0.000641297
-0.000339983
0.000781426
-0.000418124
0.000938266
-0.000496817
0.00111295
-0.00057474
0.0013076
-0.000650526
0.00152665
-0.000722717
0.0017807
-0.000790171
-0.000850411
0.00209247
2.34427e-07
4.31021e-05
4.20482e-06
9.19938e-05
1.44235e-05
0.000111622
3.29254e-05
0.000107719
6.14449e-05
8.46971e-05
0.00010151
4.59728e-05
0.000154492
-5.80151e-06
0.000221611
-6.8516e-05
0.000303932
-0.000140412
0.000402344
-0.000219941
0.000517542
-0.000305658
0.00065003
-0.000396169
0.000800153
-0.000490106
0.000968163
-0.000586134
0.00115435
-0.000683004
0.00135924
-0.000779632
0.00158393
-0.000875212
0.00183054
-0.000969335
0.00210239
-0.00106202
-0.00114591
0.00239789
7.74452e-07
4.23277e-05
6.7545e-06
8.60138e-05
2.07402e-05
9.76364e-05
4.50076e-05
8.34518e-05
8.15027e-05
4.82019e-05
0.000131929
-4.45316e-06
0.000197774
-7.16467e-05
0.0002803
-0.000151043
0.000380511
-0.000240623
0.000499107
-0.000338537
0.000636464
-0.000443015
0.000792616
-0.000552322
0.00096728
-0.00066477
0.0011599
-0.000778757
0.00136974
-0.000892836
0.00159592
-0.00100581
0.00183754
-0.00111684
0.00209369
-0.00122548
0.00236317
-0.0013315
-0.00142636
0.00264362
1.43387e-06
4.08938e-05
9.78464e-06
7.7663e-05
2.81452e-05
7.92759e-05
5.90312e-05
5.25657e-05
0.000104582
2.65091e-06
0.000166627
-6.64982e-05
0.000246684
-0.000151703
0.000345913
-0.000250272
0.000465059
-0.000359769
0.000604393
-0.000477872
0.000763677
-0.000602298
0.000942159
-0.000730804
0.00113861
-0.000861222
0.00135139
-0.000991535
0.00157851
-0.00111996
0.00181774
-0.00124504
0.00206659
-0.00136569
0.00232235
-0.00148124
0.00258212
-0.00159127
-0.00168841
0.00284417
2.24163e-06
3.86522e-05
1.33847e-05
6.65199e-05
3.68029e-05
5.58577e-05
7.52313e-05
1.41373e-05
0.000130956
-5.3074e-05
0.000205845
-0.000141387
0.000301304
-0.000247161
0.000418195
-0.000367163
0.000556759
-0.000498333
0.000716549
-0.000637662
0.000896424
-0.000782173
0.00109458
-0.000928962
0.00130865
-0.00107529
0.00153581
-0.0012187
0.00177294
-0.00135708
0.0020167
-0.0014888
0.00226368
-0.00161267
0.00251042
-0.00172798
0.00275357
-0.00183442
-0.00192662
0.00299178
3.22453e-06
3.54277e-05
1.76334e-05
5.2111e-05
4.68474e-05
2.66437e-05
9.37736e-05
-3.2789e-05
0.000160761
-0.000120061
0.000249578
-0.000230204
0.000361321
-0.000358904
0.000496303
-0.000502145
0.000653965
-0.000655995
0.000832857
-0.000816554
0.00103068
-0.000979997
0.00124442
-0.0011427
0.00147052
-0.00130139
0.00170511
-0.00145329
0.00194421
-0.00159618
0.0021839
-0.00172849
0.0024205
-0.00184927
0.00265063
-0.00195811
0.00287139
-0.00205518
-0.00213718
0.00308195
4.40438e-06
3.10233e-05
2.25888e-05
3.39267e-05
5.83605e-05
-9.12803e-06
0.000114716
-8.91448e-05
0.000193937
-0.000199282
0.000297498
-0.000333765
0.000425928
-0.000487335
0.000578692
-0.000654908
0.000754136
-0.000831439
0.000949549
-0.00101197
0.00116133
-0.00119177
0.00138522
-0.0013666
0.00161666
-0.00153284
0.00185104
-0.00168767
0.002084
-0.00182913
0.00231162
-0.00195611
0.00253061
-0.00206825
0.00273831
-0.00216581
0.00293277
-0.00224964
-0.00231831
0.00311391
5.79609e-06
2.52272e-05
2.82809e-05
1.14418e-05
7.13557e-05
-5.22028e-05
0.000137982
-0.000155771
0.000230187
-0.000291487
0.000348899
-0.000452477
0.000493779
-0.000632215
0.000663126
-0.000824255
0.000853926
-0.00102224
0.00106206
-0.0012201
0.00128261
-0.00141232
0.0015103
-0.00159429
0.00173988
-0.00176242
0.00196653
-0.00191431
0.00218606
-0.00204866
0.00239515
-0.00216521
0.0025914
-0.0022645
0.00277328
-0.0023477
0.00294008
-0.00241644
-0.0024708
0.00309257
7.4067e-06
1.78205e-05
3.47074e-05
-1.58589e-05
8.5768e-05
-0.000103263
0.000163341
-0.000233344
0.000268958
-0.000397104
0.000402697
-0.000586217
0.000563022
-0.000792539
0.000746784
-0.00100802
0.00094944
-0.0012249
0.00116546
-0.00143611
0.00138883
-0.0016357
0.00161362
-0.00181908
0.00183445
-0.00198325
0.0020468
-0.00212666
0.00224726
-0.00224913
0.00243355
-0.0023515
0.00260447
-0.00243541
0.00275973
-0.00250296
0.00289979
-0.0025565
-0.00259727
0.00302626
9.23496e-06
8.58552e-06
4.18315e-05
-4.84554e-05
0.000101449
-0.000162881
0.000190406
-0.000322301
0.000309444
-0.000516141
0.000457455
-0.000734228
0.000631396
-0.00096648
0.000826471
-0.00120309
0.00103659
-0.00143502
0.00125502
-0.00165454
0.00147505
-0.00185573
0.00169064
-0.00203468
0.00189684
-0.00218945
0.00209002
-0.00231984
0.00226791
-0.00242702
0.00242951
-0.0025131
0.00257488
-0.00258078
0.00270485
-0.00263294
0.00282082
-0.00267248
-0.00270138
0.00292493
1.12713e-05
-2.68576e-06
4.95808e-05
-8.6765e-05
0.000118167
-0.000231467
0.000218638
-0.000422772
0.000350611
-0.000648114
0.000511458
-0.000895075
0.000696387
-0.00115141
0.000898898
-0.0014056
0.00111153
-0.00164765
0.00132675
-0.00186975
0.0015377
-0.00206668
0.00173882
-0.0022358
0.00192612
-0.00237675
0.00209722
-0.00249093
0.0022512
-0.002581
0.00238834
-0.00265024
0.00250977
-0.00270221
0.00261718
-0.00274034
0.00271251
-0.00276781
-0.002787
0.00279813
1.34975e-05
-1.61832e-05
5.78475e-05
-0.000131115
0.000135608
-0.000309228
0.000247358
-0.000534522
0.000391241
-0.000791996
0.000562819
-0.00106665
0.00075543
-0.00134402
0.000960993
-0.00161117
0.00117106
-0.00185772
0.00137783
-0.00207652
0.00157491
-0.00226377
0.00175774
-0.00241864
0.00192367
-0.00254267
0.00207171
-0.00263898
0.00220227
-0.00271156
0.00231669
-0.00276467
0.00241689
-0.00280241
0.00250502
-0.00282848
0.00258327
-0.00284605
-0.00285767
0.00265394
1.58865e-05
-3.20697e-05
6.64888e-05
-0.000181717
0.000153385
-0.000396124
0.000275776
-0.000656913
0.00043
-0.000946221
0.000609614
-0.00124627
0.000806127
-0.00154053
0.0010102
-0.00181524
0.00121291
-0.00206043
0.00140682
-0.00227043
0.00158654
-0.00244348
0.00174887
-0.00258097
0.00189263
-0.00268642
0.00201821
-0.00276456
0.00212709
-0.00282044
0.00222138
-0.00285896
0.00230344
-0.00288446
0.00237558
-0.00290062
0.00243994
-0.00291042
-0.00291631
0.00249858
1.84023e-05
-5.0472e-05
7.5329e-05
-0.000238644
0.000171045
-0.000491841
0.000303023
-0.00078889
0.000465522
-0.00110872
0.00065003
-0.00143078
0.00084646
-0.00173696
0.00104469
-0.00201347
0.00123595
-0.0022517
0.00141371
-0.00244819
0.00157395
-0.00260372
0.00171504
-0.00272205
0.0018372
-0.00280859
0.00194196
-0.00286932
0.00203159
-0.00291007
0.00210861
-0.00293599
0.00217552
-0.00295137
0.00223456
-0.00295966
0.00228765
-0.00296351
-0.00296517
0.00233651
2.09994e-05
-7.14714e-05
8.4163e-05
-0.000301808
0.000188093
-0.00059577
0.000328202
-0.000929
0.000496501
-0.00127702
0.000682512
-0.00161679
0.000874952
-0.0019294
0.00106351
-0.00220202
0.00124013
-0.00242832
0.00139964
-0.00260769
0.0015396
-0.00274369
0.00165988
-0.00284233
0.00176192
-0.00291063
0.00184808
-0.00295548
0.00192107
-0.00298306
0.00198355
-0.00299847
0.00203792
-0.00300574
0.0020862
-0.00300794
0.00213003
-0.00300734
-0.00300589
0.00217075
2.3624e-05
-9.50954e-05
9.27634e-05
-0.000370947
0.000204007
-0.000707014
0.000350442
-0.00107544
0.000521788
-0.00144836
0.000705878
-0.00180088
0.000890762
-0.00211429
0.00106653
-0.00237779
0.00122636
-0.00258815
0.00136664
-0.00274797
0.00148656
-0.0028636
0.00158728
-0.00294306
0.00167118
-0.00299452
0.0017411
-0.00302541
0.00179992
-0.00304188
0.00185023
-0.00304877
0.00189418
-0.00304969
0.0019335
-0.00304726
0.00196952
-0.00304336
-0.00303964
0.00200326
2.62153e-05
-0.000121311
0.000100889
-0.00044562
0.000218274
-0.000824399
0.000368954
-0.00122611
0.000540468
-0.00161988
0.000719389
-0.0019798
0.000893685
-0.00228858
0.0010544
-0.0025385
0.00119623
-0.00272998
0.00131725
-0.002869
0.0014181
-0.00296445
0.00150098
-0.00302594
0.00156886
-0.0030624
0.0016248
-0.00308135
0.00167163
-0.0030887
0.00171169
-0.00308883
0.00174684
-0.00308485
0.00177851
-0.00307893
0.00180774
-0.00307259
-0.00306717
0.00183527
2.87073e-05
-0.000150018
0.000108296
-0.000525209
0.000230413
-0.000946516
0.000383078
-0.00137878
0.000551919
-0.00178872
0.00072277
-0.00215065
0.000884097
-0.00244991
0.0010283
-0.00268271
0.00115179
-0.00285346
0.00125421
-0.00297142
0.00133741
-0.00304764
0.00140433
-0.00309285
0.00145823
-0.0031163
0.00150219
-0.00312531
0.00153879
-0.00312531
0.0015701
-0.00312014
0.00159766
-0.00311241
0.0016226
-0.00310386
0.00164571
-0.0030957
-0.00308899
0.00166753
3.10316e-05
-0.00018105
0.000114751
-0.000608929
0.000240006
-0.00107177
0.000392328
-0.0015311
0.000555829
-0.00195222
0.000716176
-0.002311
0.000862833
-0.00259657
0.000989826
-0.0028097
0.00109526
-0.0029589
0.0011802
-0.00305636
0.00124736
-0.00311481
0.00130017
-0.00314565
0.00134193
-0.00315807
0.00137555
-0.00315893
0.00140333
-0.00315309
0.001427
-0.00314381
0.00144781
-0.00313322
0.00146664
-0.00312269
0.00148408
-0.00311314
-0.00310543
0.00150052
3.31206e-05
0.000120043
0.000246721
0.000396407
0.000552191
0.000700125
0.000831052
0.000940742
0.00102888
0.00109766
0.00115045
0.00119082
0.001222
0.00124661
0.00126662
0.00128345
0.00129809
0.00131122
0.00132327
0.00133451
3.31136e-05
0.000180969
0.000120022
0.000608694
0.000246688
0.0010714
0.000396368
0.00153062
0.000552157
0.00195168
0.000700107
0.00231042
0.000831058
0.002596
0.000940778
0.00280916
0.00102895
0.00295839
0.00109776
0.00305589
0.00115057
0.00311438
0.00119097
0.00314526
0.00122218
0.0031577
0.0012468
0.00315859
0.00126683
0.00315276
0.00128368
0.0031435
0.00129833
0.00313292
0.00131147
0.0031224
0.00132354
0.00311286
0.00310516
0.00133479
3.10243e-05
0.000149945
0.000114729
0.00052499
0.000239968
0.00094616
0.000392278
0.00137831
0.000555779
0.00178817
0.000716138
0.00215006
0.000862817
0.00244932
0.00098984
0.00268214
0.00109531
0.00285292
0.00118028
0.00297093
0.00124748
0.00304718
0.0013003
0.00309243
0.0013421
0.00311591
0.00137574
0.00312494
0.00140354
0.00312496
0.00142723
0.00311981
0.00144805
0.00311209
0.00146689
0.00310356
0.00148435
0.00309541
0.00308871
0.0015008
2.86998e-05
0.000121245
0.000108272
0.000445418
0.000230369
0.000824063
0.000383019
0.00122566
0.000551853
0.00161934
0.000722711
0.00197921
0.000884057
0.00228798
0.00102829
0.0025379
0.00115181
0.00272941
0.00125427
0.00286846
0.0013375
0.00296395
0.00140445
0.00302548
0.00145838
0.00306198
0.00150237
0.00308096
0.00153899
0.00308834
0.00157032
0.00308848
0.0015979
0.00308452
0.00162285
0.00307861
0.00164598
0.00307228
0.00306687
0.00166782
2.62077e-05
9.50377e-05
0.000100863
0.000370763
0.000218226
0.0007067
0.000368885
0.001075
0.000540387
0.00144784
0.000719308
0.00180029
0.000893617
0.00211367
0.00105435
0.00237717
0.00119622
0.00258754
0.00131728
0.0027474
0.00141816
0.00286307
0.00150108
0.00294256
0.00156899
0.00299407
0.00162497
0.00302498
0.00167182
0.00304148
0.0017119
0.0030484
0.00174708
0.00304934
0.00177877
0.00304692
0.00180801
0.00304303
0.00303932
0.00183556
2.36165e-05
7.14212e-05
9.27373e-05
0.000301642
0.000203956
0.000595481
0.000350367
0.000928593
0.000521693
0.00127651
0.000705775
0.0016162
0.000890665
0.00192878
0.00106645
0.00220138
0.00122631
0.00242769
0.00136663
0.00260708
0.00148658
0.00274311
0.00158735
0.0028418
0.00167128
0.00291013
0.00174124
0.00295502
0.0018001
0.00298263
0.00185043
0.00299806
0.00189441
0.00300536
0.00193375
0.00300757
0.00196979
0.00300699
0.00300556
0.00200356
2.0992e-05
5.04292e-05
8.4137e-05
0.000238497
0.00018804
0.000491578
0.000328121
0.000788513
0.000496394
0.00110824
0.00068239
0.00143021
0.000874827
0.00173634
0.00106339
0.00201281
0.00124004
0.00225104
0.00139958
0.00244754
0.00153958
0.00260311
0.00165991
0.00272147
0.00176199
0.00280805
0.00184819
0.00286882
0.00192122
0.0029096
0.00198373
0.00293555
0.00203813
0.00295096
0.00208644
0.00295926
0.00213029
0.00296314
0.00296481
0.00217104
1.83953e-05
3.20339e-05
7.53034e-05
0.000181589
0.000170992
0.000395889
0.000302938
0.000656567
0.000465406
0.00094577
0.00064989
0.00124573
0.000846307
0.00153992
0.00104454
0.00181458
0.00123582
0.00205976
0.0014136
0.00226976
0.00157388
0.00244283
0.00171501
0.00258035
0.00183722
0.00268584
0.00194203
0.00276401
0.0020317
0.00281993
0.00210877
0.00285848
0.00217571
0.00288401
0.00223478
0.00290019
0.00228791
0.00291001
0.00291592
0.0023368
1.58801e-05
1.61539e-05
6.64643e-05
0.000131004
0.000153333
0.000309021
0.000275689
0.000534211
0.000429878
0.000791581
0.000609459
0.00106614
0.00080595
0.00134343
0.00101001
0.00161052
0.00121273
0.00185704
0.00140666
0.00207583
0.00158641
0.00226308
0.00174878
0.00241797
0.00189259
0.00254203
0.00201822
0.00263838
0.00212715
0.002711
0.00222149
0.00276414
0.00230359
0.00280191
0.00237578
0.00282801
0.00244018
0.00284561
0.00285725
0.00249885
1.34916e-05
2.66225e-06
5.78245e-05
8.66715e-05
0.000135558
0.000231288
0.000247272
0.000422496
0.000391115
0.000647739
0.000562654
0.000894604
0.000755233
0.00115085
0.000960775
0.00140498
0.00117083
0.00164698
0.00137761
0.00186905
0.00157472
0.00206597
0.00175759
0.0022351
0.00192356
0.00237607
0.00207165
0.00249029
0.00220227
0.00258038
0.00231674
0.00264966
0.00241699
0.00270166
0.00250517
0.00273983
0.00258347
0.00276732
0.00278654
0.00265418
1.12662e-05
-8.60391e-06
4.95597e-05
4.8378e-05
0.000118119
0.000162728
0.000218554
0.000322062
0.000350484
0.000515808
0.000511287
0.000733801
0.000696175
0.000965965
0.000898653
0.0012025
0.00111127
0.00143436
0.00132648
0.00165384
0.00153744
0.00185501
0.00173859
0.00203395
0.00192593
0.00218873
0.00209708
0.00231914
0.00225111
0.00242635
0.00238831
0.00251247
0.0025098
0.00258017
0.00261727
0.00263237
0.00271265
0.00267194
0.00270087
0.00279832
9.2306e-06
-1.78345e-05
4.18124e-05
1.57961e-05
0.000101404
0.000103136
0.000190326
0.00023314
0.000309319
0.000396815
0.000457282
0.000585839
0.000631174
0.000792073
0.000826205
0.00100747
0.00103629
0.00122428
0.0012547
0.00143544
0.00147473
0.00163498
0.00169033
0.00181835
0.00189656
0.0019825
0.00208978
0.00212592
0.00226772
0.0022484
0.00242939
0.0023508
0.00257481
0.00243475
0.00270485
0.00250232
0.00282089
0.0025559
0.0025967
0.00292506
7.40301e-06
-2.52375e-05
3.46902e-05
-1.1491e-05
8.57262e-05
5.21001e-05
0.000163264
0.000155602
0.000268836
0.000291243
0.000402524
0.000452151
0.000562794
0.000631803
0.000746503
0.00082376
0.000949113
0.00102167
0.00116509
0.00121946
0.00138844
0.00141163
0.00161323
0.00159356
0.00183407
0.00176166
0.00204645
0.00191354
0.00224696
0.0020479
0.00243331
0.00216446
0.00260428
0.00226377
0.00275962
0.00234699
0.00289975
0.00241576
0.00247016
0.00302629
5.79286e-06
-3.10304e-05
2.82648e-05
-3.39629e-05
7.13158e-05
9.04905e-06
0.000137907
8.90109e-05
0.000230068
0.000199082
0.000348727
0.000333491
0.000493548
0.000486982
0.000662835
0.000654473
0.000853579
0.000830924
0.00106166
0.00101138
0.00128217
0.00119112
0.00150984
0.00136589
0.00173942
0.00153208
0.00196607
0.00168689
0.00218563
0.00182834
0.00239478
0.00195531
0.00259108
0.00206746
0.00277304
0.00216504
0.0029399
0.00224889
0.00231759
0.00309247
4.40122e-06
-3.54316e-05
2.25727e-05
-5.21344e-05
5.83206e-05
-2.66988e-05
0.000114642
3.26898e-05
0.000193817
0.000119907
0.000297324
0.000229985
0.000425694
0.000358612
0.000578393
0.000501774
0.000753773
0.000655545
0.000949124
0.000816025
0.00116085
0.000979394
0.0013847
0.00114203
0.00161612
0.00130067
0.00185049
0.00145251
0.00208346
0.00159537
0.00231111
0.00172766
0.00253014
0.00184843
0.0027379
0.00195728
0.00293244
0.00205435
0.00213637
0.00311366
3.22092e-06
-3.86525e-05
1.76158e-05
-6.65293e-05
4.68047e-05
-5.58877e-05
9.3695e-05
-1.42006e-05
0.000160637
5.29653e-05
0.000249399
0.000141222
0.00036108
0.000246931
0.000495994
0.00036686
0.000653586
0.000497952
0.000832409
0.000637202
0.00103017
0.000781634
0.00124385
0.000928348
0.00146991
0.00107461
0.00170447
0.00121795
0.00194355
0.00135629
0.00218325
0.00148796
0.00241988
0.0016118
0.00265006
0.00172709
0.00287088
0.00183353
0.00192574
0.00308152
2.23695e-06
-4.08895e-05
1.33637e-05
-7.7656e-05
3.6754e-05
-7.92781e-05
7.5144e-05
-5.25905e-05
0.000130821
-2.71159e-06
0.000205653
6.63897e-05
0.000301048
0.000151536
0.00041787
0.000250038
0.00055636
0.000359462
0.000716076
0.000477487
0.000895877
0.000601833
0.00109397
0.000730259
0.00130798
0.000860599
0.00153509
0.000990839
0.00177218
0.0011192
0.00201593
0.00124421
0.00226292
0.00136481
0.00250969
0.00148033
0.00275289
0.00159034
0.00168746
0.00299116
1.42746e-06
-4.23169e-05
9.75837e-06
-8.59869e-05
2.80868e-05
-9.76065e-05
5.89303e-05
-8.3434e-05
0.00010443
-4.82109e-05
0.000166415
4.40411e-06
0.000246405
7.1546e-05
0.000345563
0.000150881
0.000464633
0.000240392
0.000603889
0.000338231
0.000763093
0.000442629
0.000941498
0.000551854
0.00113788
0.000664219
0.00135059
0.000778123
0.00157767
0.000892123
0.00181686
0.00100502
0.00206569
0.00111598
0.00232146
0.00122456
0.00258126
0.00133053
0.00142536
0.00284337
7.65754e-07
-4.30827e-05
6.72141e-06
-9.19426e-05
2.06696e-05
-0.000111555
4.48888e-05
-0.000107653
8.13272e-05
-8.46493e-05
0.000131689
-4.59581e-05
0.000197465
5.77052e-06
0.000279917
6.84287e-05
0.000380048
0.00014026
0.000498563
0.000219716
0.000635837
0.000305356
0.000791906
0.000395785
0.000966489
0.000489635
0.00115904
0.000585575
0.0013688
0.000682355
0.00159493
0.000778894
0.00183653
0.000874386
0.00209266
0.000968425
0.00236216
0.00106104
0.00114487
0.00264265
2.2309e-07
-4.33058e-05
4.16398e-06
-9.58835e-05
1.43391e-05
-0.00012173
3.27866e-05
-0.000126101
6.12435e-05
-0.000113106
0.00010124
-8.59548e-05
0.000154147
-4.71366e-05
0.000221188
1.38797e-06
0.000303428
5.80207e-05
0.000401754
0.00012139
0.000516865
0.000190245
0.000649265
0.000263384
0.0007993
0.0003396
0.000967225
0.00041765
0.00115333
0.000496247
0.00135816
0.000574069
0.00158279
0.00064975
0.00182939
0.000721833
0.00210124
0.000789182
0.000849355
0.00239675
-2.28114e-07
-4.30776e-05
1.99779e-06
-9.81094e-05
8.92549e-06
-0.000128658
2.23648e-05
-0.00013954
4.38423e-05
-0.000134584
7.46947e-05
-0.000116807
0.000116124
-8.85663e-05
0.000169224
-5.1712e-05
0.000234983
-7.73742e-06
0.000314275
4.20972e-05
0.000407859
9.66611e-05
0.000516376
0.000154867
0.000640382
0.000215595
0.000780415
0.000277616
0.000937163
0.0003395
0.00111176
0.000399476
0.00130633
0.000455173
0.00152533
0.00050284
0.00177934
0.000535172
0.000537598
0.00209109
-6.10577e-07
-4.24671e-05
1.4608e-07
-9.8866e-05
4.27544e-06
-0.000132787
1.33795e-05
-0.000148644
2.87883e-05
-0.000149992
5.16471e-05
-0.000139666
8.29727e-05
-0.000119892
0.000123683
-9.24224e-05
0.000174607
-5.86611e-05
0.000236478
-1.97737e-05
0.000309921
2.32179e-05
0.000395433
6.93548e-05
0.000493358
0.00011767
0.000603853
0.000167121
0.000726832
0.00021652
0.000861847
0.000264462
0.00100779
0.000309228
0.00116196
0.000348669
0.00131683
0.000380309
0.000405397
0.00144903
-9.42957e-07
-4.15241e-05
-1.45422e-06
-9.83548e-05
2.61024e-07
-0.000134502
5.62295e-06
-0.000154006
1.57881e-05
-0.000160158
3.17282e-05
-0.000155606
5.42833e-05
-0.000142447
8.41927e-05
-0.000122332
0.000122106
-9.65739e-05
0.000168576
-6.62437e-05
0.000224042
-3.22488e-05
0.000288799
4.59826e-06
0.000362945
4.35239e-05
0.000446319
8.37468e-05
0.000538402
0.000124438
0.000638185
0.000164679
0.000744007
0.000203406
0.000853353
0.000239323