/*--------------------------------*- C++ -*----------------------------------*\
  =========                 |
  \\      /  F ield         | OpenFOAM: The Open Source CFD Toolbox
   \\    /   O peration     | Website:  https://openfoam.org
    \\  /    A nd           | Version:  6.0
     \\/     M anipulation  |
\*---------------------------------------------------------------------------*/
FoamFile
{
    version     2.0;
    format      ascii;
    class       volVectorField;
    location    "25";
    object      U;
}
// * * * * * * * * * * * * * * * * * * * * * * * * * * * * * * * * * * * * * //

dimensions      [0 1 -1 0 0 0 0];

internalField   nonuniform List<vector> 
4000
(
(-0.000474778 0.000578848 -3.44054e-21)
(-0.00259464 0.00142772 1.83907e-20)
(-0.00651096 0.00201408 -2.23675e-20)
(-0.011318 0.0023986 1.70323e-20)
(-0.0165431 0.00262822 8.29406e-21)
(-0.0219183 0.00274098 -2.49066e-20)
(-0.0272522 0.00276888 -2.20136e-21)
(-0.0324207 0.00273851 -7.81131e-22)
(-0.0373547 0.00267181 -1.29285e-20)
(-0.0420253 0.00258683 -7.00424e-21)
(-0.0464329 0.00249836 5.2235e-21)
(-0.0505989 0.00241842 1.98577e-20)
(-0.0545595 0.00235657 -1.48709e-21)
(-0.0583596 0.0023202 2.12764e-21)
(-0.0620502 0.00231467 -2.00012e-20)
(-0.0656905 0.00234339 1.23239e-20)
(-0.06934 0.00240794 -1.76566e-20)
(-0.0729932 0.00250941 2.67191e-20)
(-0.0765645 0.0026493 -2.99091e-23)
(-0.0805167 0.00281823 5.76932e-21)
(-0.000560657 0.00166136 1.14261e-20)
(-0.00280456 0.0041234 -5.83925e-20)
(-0.00680097 0.00584574 -4.033e-20)
(-0.0116529 0.0069967 -2.73878e-20)
(-0.0168938 0.00770634 -3.52332e-20)
(-0.0222603 0.00808074 7.75293e-21)
(-0.0275646 0.00820991 -4.06722e-20)
(-0.0326854 0.00816935 -9.13512e-21)
(-0.0375558 0.00802194 2.88646e-21)
(-0.0421483 0.00781996 3.0398e-20)
(-0.0464646 0.00760664 -3.31599e-20)
(-0.050527 0.00741743 4.61265e-20)
(-0.0543728 0.00728082 -3.45419e-20)
(-0.058048 0.00721902 -4.09615e-20)
(-0.0616048 0.00724834 -5.64465e-20)
(-0.0651039 0.00737921 3.60494e-20)
(-0.0686067 0.00761669 -1.16589e-20)
(-0.0721092 0.00796441 -4.24476e-20)
(-0.0755252 0.0084271 4.01356e-20)
(-0.0793204 0.00897655 -2.98045e-20)
(-0.000730217 0.00273052 1.117e-19)
(-0.00321924 0.00678487 5.78444e-20)
(-0.00737372 0.00962648 6.50527e-20)
(-0.012314 0.0115297 5.41302e-21)
(-0.0175852 0.0127069 3.59545e-20)
(-0.0229334 0.013331 4.4873e-20)
(-0.028178 0.0135495 -8.155e-20)
(-0.0332032 0.0134861 -4.31843e-20)
(-0.0379462 0.013244 -5.62426e-20)
(-0.0423828 0.0129095 6.00367e-20)
(-0.0465167 0.0125542 -4.58562e-20)
(-0.0503724 0.0122372 -5.90004e-20)
(-0.0539888 0.0120065 -2.14849e-20)
(-0.0574144 0.0118998 2.04091e-20)
(-0.0607036 0.0119452 -5.67314e-21)
(-0.0639201 0.0121612 8.1815e-21)
(-0.0671291 0.0125571 9.46912e-20)
(-0.0703299 0.01314 -1.33054e-20)
(-0.0734352 0.0139188 -9.62575e-20)
(-0.0769164 0.0148462 1.26869e-19)
(-0.000982084 0.00377791 3.8863e-20)
(-0.00383543 0.00939011 -5.48956e-20)
(-0.00822486 0.0133233 -1.37695e-20)
(-0.013296 0.0159555 2.57447e-20)
(-0.0186121 0.0175795 7.31006e-20)
(-0.0239328 0.0184341 1.60045e-19)
(-0.0290884 0.0187227 1.56386e-19)
(-0.0339716 0.0186158 1.29929e-20)
(-0.0385258 0.0182564 9.58993e-20)
(-0.0427312 0.0177641 1.46786e-19)
(-0.0465949 0.0172388 -1.17288e-19)
(-0.0501441 0.0167634 1.73581e-19)
(-0.0534205 0.0164063 -3.93064e-20)
(-0.0564753 0.0162218 9.91529e-21)
(-0.0593667 0.0162514 4.10464e-20)
(-0.0621628 0.0165232 5.45457e-20)
(-0.0649345 0.0170525 -8.58445e-20)
(-0.0676863 0.0178513 -7.16425e-20)
(-0.0703301 0.0189344 -1.26775e-19)
(-0.0733465 0.0202355 1.84529e-19)
(-0.00131429 0.00479592 -2.03049e-20)
(-0.00464818 0.0119187 -2.07841e-19)
(-0.00934744 0.0169051 -6.14761e-20)
(-0.0145908 0.0202343 -1.4981e-19)
(-0.0199654 0.0222772 5.66283e-20)
(-0.0252491 0.0233366 -8.93102e-20)
(-0.0302872 0.0236696 3.07152e-20)
(-0.0349838 0.0234923 -1.89159e-19)
(-0.0392903 0.0229858 9.97921e-20)
(-0.0431929 0.0223019 -1.19003e-19)
(-0.0467028 0.0215684 -1.05832e-19)
(-0.0498507 0.0208927 -1.185e-19)
(-0.0526813 0.020364 1.07563e-19)
(-0.0552495 0.0200552 -9.65784e-20)
(-0.057618 0.0200231 1.3448e-19)
(-0.0598606 0.0203082 3.88657e-20)
(-0.0620563 0.0209341 9.62031e-20)
(-0.0642168 0.0219203 4.22076e-20)
(-0.0662547 0.0232904 -1.67166e-19)
(-0.0686635 0.0249591 2.7217e-19)
(-0.00172433 0.00577788 8.95043e-20)
(-0.00565079 0.0143519 6.88674e-21)
(-0.0107314 0.0203436 3.6872e-20)
(-0.0161854 0.0243297 1.28659e-19)
(-0.0216299 0.0267573 -1.96962e-20)
(-0.0268661 0.0279906 2.08929e-19)
(-0.0317582 0.028338 9.27327e-20)
(-0.0362245 0.0280587 7.79593e-21)
(-0.0402267 0.0273698 2.38452e-19)
(-0.0437582 0.026454 7.8133e-20)
(-0.0468354 0.0254662 3.70663e-20)
(-0.0494925 0.0245379 1.17637e-19)
(-0.0517775 0.0237805 1.07829e-19)
(-0.0537493 0.0232871 1.96854e-19)
(-0.0554756 0.023133 -1.75952e-19)
(-0.0570374 0.023374 2.48719e-19)
(-0.0585237 0.0240463 3.26167e-21)
(-0.0599562 0.0251805 -3.17875e-19)
(-0.06125 0.0268136 4.12067e-19)
(-0.0629183 0.0288423 1.70881e-19)
(-0.00220923 0.00671797 -5.27467e-20)
(-0.00683453 0.0166729 -9.57449e-20)
(-0.0123627 0.0236124 -1.99248e-19)
(-0.018061 0.0282085 -5.90601e-21)
(-0.0235826 0.0309818 3.40004e-20)
(-0.0287575 0.0323547 -2.54431e-19)
(-0.0334729 0.0326841 -1.8876e-19)
(-0.0376644 0.0322693 -2.70014e-20)
(-0.0413065 0.0313604 -2.38764e-19)
(-0.0444011 0.030169 -1.65314e-19)
(-0.0469701 0.0288753 -4.81787e-20)
(-0.0490516 0.0276347 -1.55135e-19)
(-0.0506969 0.0265811 -2.52852e-21)
(-0.0519684 0.02583 -2.06025e-19)
(-0.0529393 0.0254783 8.66636e-20)
(-0.0536985 0.025602 -9.88751e-20)
(-0.0543469 0.0262547 7.57438e-20)
(-0.0549195 0.0274844 -9.64078e-20)
(-0.055337 0.029348 -2.7543e-19)
(-0.056141 0.0317261 -8.37086e-20)
(-0.00276548 0.00761095 -1.94112e-20)
(-0.00818831 0.0188658 -2.1082e-20)
(-0.0142224 0.0266873 1.67054e-19)
(-0.0201909 0.0318407 -2.7185e-19)
(-0.0257898 0.034917 3.9881e-20)
(-0.030883 0.036394 -1.57038e-19)
(-0.0353854 0.0366737 7.42102e-20)
(-0.0392537 0.0360912 3.33561e-19)
(-0.0424773 0.0349266 -2.13966e-20)
(-0.0450681 0.0334168 -2.48844e-19)
(-0.0470546 0.031765 4.52116e-20)
(-0.0484784 0.0301487 8.76673e-21)
(-0.0493935 0.0287247 -5.10995e-20)
(-0.0498655 0.027632 5.16168e-21)
(-0.0499721 0.0269927 4.48902e-19)
(-0.0498109 0.0269086 -6.39113e-20)
(-0.0494964 0.0274579 -1.24698e-19)
(-0.0490797 0.0287142 -2.2371e-19)
(-0.0484923 0.0307642 2.28202e-19)
(-0.048316 0.0334776 9.84758e-20)
(-0.0033889 0.00845173 9.80228e-20)
(-0.00969805 0.0209153 -1.28246e-19)
(-0.0162856 0.0295451 1.81316e-19)
(-0.0225389 0.0351978 1.82532e-19)
(-0.0282037 0.0385327 1.68267e-19)
(-0.033184 0.0400797 3.41217e-19)
(-0.0374269 0.0402814 2.20656e-19)
(-0.0409141 0.0395049 -4.74163e-19)
(-0.0436528 0.0380557 2.42502e-19)
(-0.045667 0.0361916 1.90298e-19)
(-0.0469921 0.0341352 -2.70518e-21)
(-0.0476736 0.0320833 2.13035e-19)
(-0.0477676 0.0302136 1.66094e-19)
(-0.0473412 0.0286898 -9.03426e-20)
(-0.0464761 0.0276621 3.05311e-19)
(-0.0452778 0.0272637 -3.78468e-19)
(-0.0438753 0.0276059 1.51498e-19)
(-0.0423393 0.0288001 1.94812e-19)
(-0.0406174 0.0309772 -4.53897e-20)
(-0.0393487 0.0340043 3.91717e-19)
(-0.00407437 0.00923492 1.96967e-19)
(-0.011346 0.0228053 1.02173e-20)
(-0.0185199 0.032162 -7.06981e-20)
(-0.0250569 0.0382522 -7.46808e-20)
(-0.0307599 0.041801 -3.45854e-19)
(-0.035579 0.0433871 4.89759e-20)
(-0.039499 0.0434897 1.38766e-19)
(-0.0425305 0.0425032 -6.67478e-20)
(-0.0447021 0.0407532 5.5061e-20)
(-0.0460518 0.0385135 -1.45951e-20)
(-0.0466237 0.0360207 -7.19233e-20)
(-0.0464676 0.0334861 6.82939e-20)
(-0.0456407 0.0311054 -2.96919e-19)
(-0.0442107 0.0290647 2.84652e-19)
(-0.0422612 0.027544 -2.46574e-19)
(-0.0399041 0.0267129 7.61601e-20)
(-0.0372833 0.026726 1.73338e-19)
(-0.034491 0.027747 -3.60534e-20)
(-0.0314979 0.0299718 -1.19906e-19)
(-0.0290227 0.0332801 -8.16099e-20)
(-0.00481553 0.00995433 -2.45354e-19)
(-0.0131101 0.0245185 -1.6153e-20)
(-0.0208843 0.034513 5.16741e-20)
(-0.027683 0.040975 1.32871e-19)
(-0.033374 0.0446936 -1.87582e-19)
(-0.0379597 0.0462931 -1.63697e-19)
(-0.0414679 0.0462857 3.82093e-19)
(-0.0439428 0.0450881 -2.11134e-19)
(-0.0454378 0.0430407 -1.36201e-19)
(-0.0460083 0.0404272 -1.9544e-19)
(-0.0457092 0.037492 1.29386e-19)
(-0.0445957 0.0344544 -3.48631e-21)
(-0.0427265 0.0315215 -2.41633e-19)
(-0.0401688 0.0288976 -3.9532e-19)
(-0.037006 0.0267901 3.01182e-19)
(-0.0333543 0.025408 -2.44067e-19)
(-0.0293711 0.0249578 3.46031e-19)
(-0.0251709 0.0256731 -9.69466e-20)
(-0.020753 0.0278429 2.03765e-19)
(-0.0169466 0.0313835 -6.92287e-19)
(-0.00560446 0.0106027 -4.96911e-19)
(-0.0149628 0.0260351 3.25845e-19)
(-0.0233281 0.0365701 4.4315e-20)
(-0.0303402 0.0433342 8.57316e-21)
(-0.0359397 0.0471794 -2.00942e-19)
(-0.0401874 0.048773 2.95497e-19)
(-0.0431594 0.0486567 3.22544e-20)
(-0.0449381 0.0472654 -6.05949e-20)
(-0.045606 0.0449495 -1.94513e-19)
(-0.0452395 0.0419965 2.10259e-19)
(-0.0439076 0.0386513 5.33109e-19)
(-0.0416737 0.0351332 -1.17769e-19)
(-0.0385998 0.031652 2.66163e-19)
(-0.0347527 0.0284209 -3.14428e-19)
(-0.0302142 0.0256682 -3.01533e-19)
(-0.0251027 0.0236392 1.81285e-19)
(-0.0195864 0.0225966 2.99565e-19)
(-0.0138007 0.0228615 -9.70717e-19)
(-0.00777635 0.0248509 1.13972e-19)
(-0.00249083 0.0285536 1.55065e-19)
(-0.00643137 0.0111716 3.67962e-19)
(-0.016871 0.0273329 1.21059e-19)
(-0.0257902 0.0383018 6.30643e-19)
(-0.0329354 0.0452937 3.24589e-20)
(-0.0383273 0.049222 -7.01407e-20)
(-0.042091 0.0507963 -3.34023e-19)
(-0.0443557 0.0505849 2.84052e-19)
(-0.0452463 0.049038 5.09651e-19)
(-0.0448785 0.046512 3.3956e-19)
(-0.0433543 0.0432933 2.45166e-19)
(-0.0407614 0.039621 2.11372e-19)
(-0.0371756 0.0357058 -3.79553e-19)
(-0.0326666 0.0317489 -1.18902e-19)
(-0.0273038 0.0279604 -8.75905e-20)
(-0.0211687 0.0245752 9.38602e-19)
(-0.0143804 0.0218634 -3.17884e-21)
(-0.00711589 0.0201392 -2.33973e-19)
(0.000472892 0.0198213 -7.37543e-20)
(0.0083282 0.0214938 6.7138e-19)
(0.0152802 0.0252667 8.78591e-20)
(-0.00728455 0.0116518 -1.81347e-20)
(-0.0187957 0.0283874 -3.48133e-19)
(-0.0281989 0.0396729 -5.17954e-19)
(-0.0353586 0.0468117 -1.44139e-19)
(-0.040383 0.0507784 7.95937e-20)
(-0.043466 0.0523237 1.71372e-20)
(-0.0447938 0.052042 4.54542e-19)
(-0.0445375 0.0503972 -5.63737e-19)
(-0.0428499 0.0477498 -2.14436e-19)
(-0.0398628 0.0443827 -4.32172e-19)
(-0.0356877 0.0405246 -3.68112e-19)
(-0.0304202 0.036371 -3.25979e-19)
(-0.0241442 0.0321045 8.1507e-20)
(-0.0169396 0.0279162 -1.05847e-19)
(-0.00889336 0.0240287 4.53593e-19)
(-0.000128593 0.020714 -2.48576e-19)
(0.00916866 0.0183167 -7.79519e-19)
(0.0188356 0.0173469 -1.57285e-19)
(0.0288036 0.0185884 3.84787e-19)
(0.0376694 0.0223297 -3.35599e-19)
(-0.00815039 0.0120336 -5.87095e-20)
(-0.0206915 0.0291729 4.25832e-19)
(-0.0304711 0.0406458 -5.43117e-19)
(-0.037483 0.0478422 1.25529e-19)
(-0.0419285 0.0517981 -2.58601e-19)
(-0.0440744 0.053306 5.76043e-19)
(-0.0441663 0.052986 -4.11707e-19)
(-0.0424237 0.0513164 4.71033e-19)
(-0.039039 0.0486626 -4.46623e-19)
(-0.0341773 0.0453047 1.90571e-19)
(-0.0279802 0.0414613 -9.24809e-20)
(-0.0205704 0.0373102 -2.32225e-19)
(-0.0120572 0.033009 -2.8697e-19)
(-0.00254331 0.0287176 2.8597e-19)
(0.00786506 0.0246243 -2.39525e-19)
(0.0190292 0.0209716 -5.23864e-19)
(0.0307458 0.0180939 5.45427e-19)
(0.042843 0.0165555 -6.95957e-19)
(0.055274 0.0173478 3.13058e-19)
(0.0663831 0.0209865 8.40456e-21)
(-0.00901368 0.0123079 -5.324e-19)
(-0.0225072 0.0296638 -5.74905e-19)
(-0.0325131 0.0411819 6.62451e-20)
(-0.0391645 0.0483369 -5.54481e-19)
(-0.0427616 0.0522266 -4.93679e-20)
(-0.0436457 0.0536858 -4.07877e-19)
(-0.0421233 0.0533618 -9.35752e-20)
(-0.0384623 0.0517492 -2.73484e-19)
(-0.0328955 0.0492217 2.4226e-21)
(-0.0256237 0.0460614 -1.19665e-19)
(-0.016823 0.0424816 8.50058e-21)
(-0.0066515 0.0386476 -3.44845e-19)
(0.00474313 0.0346943 3.80129e-19)
(0.0172175 0.0307468 -5.39364e-19)
(0.0306239 0.0269449 1.91155e-19)
(0.0447836 0.0234704 7.30079e-21)
(0.0594518 0.020592 -3.04581e-19)
(0.0744339 0.0188522 7.55425e-19)
(0.0897508 0.0194011 -1.80505e-19)
(0.103535 0.0229854 -1.17375e-19)
(-0.00985785 0.0124669 5.97688e-19)
(-0.0241855 0.0298367 3.22751e-19)
(-0.0342191 0.0412451 3.00237e-19)
(-0.0402409 0.0482498 4.48231e-20)
(-0.0426541 0.0520104 4.06013e-19)
(-0.0418761 0.0534049 5.85224e-19)
(-0.0382731 0.0531091 4.7918e-19)
(-0.0321603 0.0516368 4.28748e-20)
(-0.0238091 0.049375 3.50915e-19)
(-0.0134565 0.0466151 5.42225e-19)
(-0.00131555 0.0435755 -1.40659e-19)
(0.0124134 0.0404211 2.36071e-19)
(0.027532 0.0372778 1.90612e-19)
(0.0438356 0.0342478 1.93931e-19)
(0.0611062 0.0314273 1.14777e-18)
(0.0790876 0.0289242 -4.30234e-19)
(0.0974474 0.0268917 -2.63196e-20)
(0.115918 0.0257396 4.99752e-19)
(0.134623 0.0266461 -2.83527e-19)
(0.151641 0.0305078 1.40443e-19)
(-0.0106651 0.0125044 -4.83393e-19)
(-0.0256623 0.0296723 3.10001e-20)
(-0.0354697 0.0408055 -3.87034e-19)
(-0.0405286 0.0475432 -5.03805e-20)
(-0.0413494 0.0511061 2.83328e-19)
(-0.0384258 0.0524157 -8.43418e-19)
(-0.0321817 0.0521771 -6.01696e-22)
(-0.0229765 0.0509256 3.92498e-19)
(-0.0111181 0.0490664 3.68773e-19)
(0.00312269 0.0469081 -1.62363e-19)
(0.0194952 0.0446865 5.35364e-20)
(0.0377527 0.0425835 1.24176e-19)
(0.0576363 0.0407398 -5.87881e-20)
(0.0788616 0.039265 -6.59734e-19)
(0.101107 0.0382461 1.67019e-19)
(0.123991 0.0377477 4.60176e-19)
(0.147021 0.0378057 -6.55947e-19)
(0.169749 0.0386081 3.2004e-19)
(0.192376 0.0411965 8.60747e-20)
(0.21327 0.0464358 4.37106e-19)
(-0.011416 0.0124165 -7.14127e-20)
(-0.0268652 0.0291565 -3.38775e-19)
(-0.036129 0.0398432 1.55877e-19)
(-0.039819 0.0461945 6.98771e-22)
(-0.0385572 0.0494913 -6.79455e-19)
(-0.0329136 0.0506974 1.06027e-19)
(-0.023368 0.0505462 -2.01302e-20)
(-0.0103213 0.0495952 1.37157e-19)
(0.00588523 0.0482701 -6.27812e-19)
(0.0249488 0.046902 -4.40028e-20)
(0.0465825 0.0457537 -1.47493e-19)
(0.0704935 0.0450406 1.31205e-19)
(0.09636 0.0449456 4.4302e-19)
(0.123809 0.0456298 -6.84824e-20)
(0.152392 0.0472409 2.65461e-20)
(0.181545 0.0499031 1.74655e-19)
(0.2105 0.0536705 -4.3086e-20)
(0.238401 0.0586554 3.53463e-19)
(0.265241 0.0658993 -2.04415e-19)
(0.290021 0.0759228 -3.24839e-19)
(-0.0120887 0.0122009 6.6217e-20)
(-0.0277111 0.0282818 1.61305e-20)
(-0.0360402 0.0383517 1.35862e-19)
(-0.0378725 0.0442038 3.32764e-19)
(-0.0339469 0.0471762 1.86723e-19)
(-0.024911 0.0482725 1.94813e-20)
(-0.0113005 0.0482517 -2.22907e-19)
(0.00644272 0.0476902 5.71468e-20)
(0.0279435 0.0470321 3.00497e-19)
(0.0528662 0.0466287 -5.09203e-19)
(0.0808887 0.0467692 3.84242e-19)
(0.111677 0.0477047 -2.89532e-19)
(0.144864 0.0496702 2.45775e-19)
(0.180023 0.0529064 -5.3025e-19)
(0.216639 0.0576835 5.83717e-19)
(0.254047 0.0643153 -6.24533e-19)
(0.291289 0.0731522 -1.62665e-19)
(0.327044 0.08482 5.11903e-19)
(0.360178 0.101253 -1.72387e-19)
(0.387761 0.122294 7.79847e-20)
(-0.0126577 0.0118565 -5.01336e-20)
(-0.0281025 0.0270477 4.73073e-19)
(-0.0350211 0.0363408 -1.99305e-21)
(-0.034413 0.0415991 -2.93661e-19)
(-0.0271424 0.0442132 -1.97499e-19)
(-0.0139383 0.0452224 3.61803e-19)
(0.00460318 0.0454053 -1.43303e-19)
(0.0279921 0.0453508 -1.8054e-20)
(0.0558093 0.045512 2.98588e-19)
(0.0876733 0.0462478 -3.70941e-19)
(0.123213 0.0478544 4.06751e-20)
(0.162047 0.0505921 -4.8229e-19)
(0.203771 0.0547098 2.54074e-19)
(0.247954 0.0604744 -7.27307e-19)
(0.294144 0.0682095 1.15958e-18)
(0.341884 0.0783475 -2.12317e-19)
(0.390745 0.0915504 2.22858e-19)
(0.440626 0.109263 -5.78299e-19)
(0.492034 0.134498 2.60536e-21)
(0.537128 0.162761 6.64601e-19)
(-0.0130908 0.0113825 -1.51918e-19)
(-0.0279235 0.0254596 1.31271e-19)
(-0.0328593 0.0338378 -4.83297e-19)
(-0.0291243 0.0384403 7.14798e-19)
(-0.0177196 0.0407037 -5.16034e-19)
(0.000534135 0.0416967 2.66207e-20)
(0.0249677 0.0422099 -5.56348e-19)
(0.0550234 0.042834 3.97757e-19)
(0.0902098 0.0440164 -5.6833e-20)
(0.130063 0.046102 -3.50984e-19)
(0.174117 0.0493627 -2.04838e-19)
(0.22189 0.0540196 2.16415e-19)
(0.272876 0.0602618 1.43227e-19)
(0.326563 0.0682634 -6.34293e-19)
(0.382456 0.0782005 2.28856e-19)
(0.440128 0.0902627 -3.38353e-19)
(0.499276 0.104675 4.10399e-20)
(0.559963 0.121902 -2.89034e-19)
(0.623081 0.143117 1.20404e-19)
(0.681344 0.164105 -4.36606e-19)
(-0.0133479 0.0107775 4.32477e-19)
(-0.0270365 0.0235295 -2.61882e-19)
(-0.0293096 0.0308881 2.15791e-19)
(-0.0216492 0.0348207 -2.72423e-19)
(-0.00521116 0.0367998 4.56677e-19)
(0.0190742 0.0379152 -8.01082e-21)
(0.0504384 0.0389596 -5.55812e-20)
(0.0882186 0.0405117 -4.12055e-20)
(0.131801 0.0429949 2.53629e-19)
(0.180575 0.0467154 4.31246e-19)
(0.233906 0.0518884 -2.54755e-19)
(0.291121 0.0586564 2.477e-19)
(0.351518 0.0671019 4.5273e-19)
(0.414383 0.0772567 -3.17437e-19)
(0.479028 0.0891064 -6.46105e-19)
(0.544837 0.102585 1.18262e-18)
(0.611302 0.117556 -2.11045e-19)
(0.678116 0.133861 -6.88875e-20)
(0.745533 0.151838 7.46805e-19)
(0.808226 0.170427 -1.56663e-19)
(-0.0133783 0.01004 -7.04229e-19)
(-0.0252799 0.0212762 -4.68816e-19)
(-0.0240944 0.0275563 -1.79968e-19)
(-0.0115957 0.0308669 3.47171e-19)
(0.0108802 0.0327018 -7.83679e-19)
(0.0422623 0.0341614 4.05774e-19)
(0.0816389 0.0360257 5.14172e-20)
(0.128183 0.0388434 5.19687e-20)
(0.181082 0.0429901 -5.31352e-19)
(0.239493 0.0487042 -1.87645e-19)
(0.302515 0.0561106 -3.30813e-19)
(0.369191 0.0652378 3.19542e-19)
(0.438524 0.0760306 9.08584e-20)
(0.509518 0.0883597 1.78934e-20)
(0.581214 0.102028 4.17965e-19)
(0.65274 0.116769 -4.22983e-19)
(0.72334 0.132238 -1.77086e-20)
(0.792408 0.148027 1.0247e-20)
(0.859656 0.163992 5.75071e-20)
(0.922044 0.181607 3.32423e-19)
(-0.0131202 0.00916915 2.24253e-19)
(-0.0224683 0.018727 5.77603e-19)
(-0.0169082 0.0239269 4.6353e-19)
(0.00145183 0.0267376 -1.59749e-19)
(0.0310584 0.0286542 5.55504e-19)
(0.0706515 0.0307709 -4.67961e-20)
(0.11911 0.0338347 -6.59181e-20)
(0.175355 0.0383378 3.92355e-20)
(0.238281 0.044576 5.36782e-19)
(0.306703 0.0526826 3.15379e-19)
(0.379354 0.0626539 9.2081e-20)
(0.454906 0.0743695 5.61421e-21)
(0.532011 0.0876118 -6.11819e-19)
(0.609361 0.102084 5.31591e-19)
(0.685739 0.117427 9.14804e-20)
(0.760073 0.133232 -1.50291e-19)
(0.831465 0.149044 -6.54712e-19)
(0.89921 0.1644 -5.60077e-20)
(0.962784 0.178835 2.59704e-19)
(1.02126 0.195484 -5.34547e-20)
(-0.0125001 0.00816616 -5.6927e-19)
(-0.018395 0.0159212 2.38181e-19)
(-0.00742615 0.0201067 -1.16268e-18)
(0.0179139 0.0226241 4.76091e-19)
(0.0558018 0.0249405 -3.79651e-19)
(0.104717 0.0281193 2.7988e-19)
(0.163235 0.0328441 -4.34693e-19)
(0.229916 0.0395128 3.99081e-20)
(0.303239 0.0482973 -2.23919e-20)
(0.38157 0.0591801 1.16883e-19)
(0.463188 0.0719855 1.68885e-19)
(0.546348 0.0864115 -3.19226e-19)
(0.62935 0.102062 1.6899e-19)
(0.710624 0.11848 1.55404e-19)
(0.7888 0.135177 6.72872e-19)
(0.862751 0.151657 -2.91904e-19)
(0.93162 0.16744 -1.94942e-19)
(0.994833 0.182104 3.28288e-19)
(1.05196 0.195075 1.7642e-19)
(1.10348 0.210256 -3.30137e-19)
(-0.0114342 0.00703704 4.98801e-19)
(-0.0128374 0.0129138 4.8098e-19)
(0.00468375 0.0162291 1.38692e-19)
(0.0381935 0.0187509 5.84205e-19)
(0.0855255 0.0218788 2.86914e-19)
(0.144801 0.0266093 -5.17164e-19)
(0.214169 0.0335176 7.83198e-19)
(0.291698 0.0428556 -3.85404e-19)
(0.375325 0.0546154 3.84694e-19)
(0.462874 0.0685751 4.97827e-19)
(0.55213 0.0843453 -2.84504e-19)
(0.640943 0.101419 5.40212e-20)
(0.727344 0.119222 3.0167e-19)
(0.809643 0.137164 2.12755e-19)
(0.886493 0.154677 4.90923e-19)
(0.956922 0.171247 -1.95978e-19)
(1.02033 0.186439 -2.37893e-20)
(1.07648 0.199933 3.11499e-19)
(1.12528 0.211231 -6.677e-20)
(1.16806 0.224327 4.14662e-22)
(-0.00983058 0.00579529 -2.57523e-19)
(-0.00556438 0.00978143 -9.46532e-19)
(0.0197448 0.0124578 2.22858e-19)
(0.0626488 0.0153773 -1.6964e-19)
(0.120541 0.0198175 -3.91491e-19)
(0.191056 0.0266561 -2.79389e-19)
(0.271772 0.0362994 -1.72587e-19)
(0.360122 0.0487853 4.192e-19)
(0.453396 0.0638613 -2.48949e-19)
(0.548829 0.0810482 -2.54867e-19)
(0.643735 0.099712 -3.22587e-19)
(0.73567 0.119138 -5.3256e-20)
(0.822568 0.138605 -3.59256e-20)
(0.902829 0.157439 -7.47375e-19)
(0.975361 0.175064 3.63027e-19)
(1.03957 0.191027 -4.77291e-19)
(1.0953 0.205005 1.50626e-19)
(1.14277 0.216825 -1.14647e-18)
(1.18241 0.226193 3.45387e-19)
(1.21589 0.236752 4.38755e-19)
(-0.00759232 0.00446456 -6.46439e-20)
(0.0036533 0.00662683 4.61968e-19)
(0.0380535 0.00899153 2.96028e-20)
(0.0915645 0.0127971 7.12437e-20)
(0.161015 0.0191277 -1.44836e-19)
(0.243399 0.0286717 -2.35433e-21)
(0.335563 0.0415866 -3.69518e-21)
(0.434179 0.0576176 -8.73226e-20)
(0.535829 0.0762006 3.09715e-19)
(0.637186 0.0965589 1.19798e-19)
(0.73522 0.117808 5.43954e-19)
(0.827395 0.139059 -1.48386e-19)
(0.91179 0.159498 1.03703e-19)
(0.987151 0.178455 -1.3603e-20)
(1.05287 0.195429 2.87535e-19)
(1.1089 0.2101 1.76287e-19)
(1.15566 0.222317 4.25747e-19)
(1.19388 0.232079 -6.88187e-19)
(1.22444 0.239343 8.67167e-19)
(1.24919 0.247202 -2.74961e-19)
(-0.00462108 0.00308091 -6.02451e-19)
(0.0150322 0.00358259 -1.87962e-19)
(0.0598592 0.00606561 1.46978e-19)
(0.125122 0.0113359 9.26459e-20)
(0.206934 0.0201927 9.48216e-20)
(0.301474 0.033043 9.61792e-20)
(0.404705 0.0497007 -2.40608e-19)
(0.512454 0.0695339 -9.95272e-20)
(0.620614 0.0916126 3.08604e-20)
(0.725429 0.11485 -2.94803e-19)
(0.823753 0.138145 -1.33437e-19)
(0.91323 0.1605 8.06669e-19)
(0.992369 0.181105 -2.08045e-19)
(1.0605 0.199385 -2.87301e-19)
(1.11768 0.214999 -1.3672e-19)
(1.16449 0.227822 9.44911e-20)
(1.20193 0.237904 1.15722e-19)
(1.23118 0.245419 -5.5492e-19)
(1.2535 0.250556 8.04043e-19)
(1.27075 0.255828 -6.97348e-19)
(-0.000821295 0.00169431 -6.82823e-20)
(0.0287633 0.000813056 1.95756e-20)
(0.0853432 0.00395082 -2.48741e-20)
(0.16337 0.0113436 3.63841e-19)
(0.25807 0.0233915 1.99766e-20)
(0.364631 0.0401082 1.33564e-19)
(0.478016 0.0608592 -2.77392e-19)
(0.593199 0.084561 -1.01181e-20)
(0.705514 0.109892 3.85369e-19)
(0.811019 0.135485 5.3747e-20)
(0.906754 0.160097 -3.35938e-19)
(0.99086 0.182727 -2.94897e-20)
(1.06253 0.202676 -2.76473e-19)
(1.12186 0.219558 2.75146e-19)
(1.16962 0.233255 3.82829e-19)
(1.20705 0.243868 -4.22261e-20)
(1.2356 0.251649 -5.16319e-20)
(1.25681 0.256924 1.5735e-19)
(1.27215 0.260054 -5.06741e-19)
(1.28338 0.263038 4.46126e-19)
(0.00389527 0.00036935 6.84491e-20)
(0.044999 -0.0014864 -4.41919e-19)
(0.114597 0.00294814 1.18297e-19)
(0.206201 0.0131815 -3.66648e-19)
(0.313967 0.0290775 1.26041e-19)
(0.431936 0.0501296 -4.68075e-19)
(0.554028 0.0751535 1.88772e-19)
(0.674466 0.102566 -6.00656e-20)
(0.78827 0.130674 -2.4233e-21)
(0.891644 0.157907 6.15254e-20)
(0.982163 0.182996 -2.24224e-19)
(1.05874 0.20506 -3.20288e-19)
(1.12145 0.223616 -6.57705e-20)
(1.17122 0.238535 -2.95284e-20)
(1.20951 0.249958 -7.49668e-20)
(1.23808 0.258207 -2.44534e-20)
(1.25872 0.263706 -7.32231e-20)
(1.27315 0.266895 -6.35386e-20)
(1.28288 0.268239 -1.89379e-19)
(1.28954 0.269317 3.00722e-19)
(0.00960475 -0.000815035 1.64879e-19)
(0.0638396 -0.00309279 -1.83078e-19)
(0.147605 0.00337924 3.93928e-19)
(0.253333 0.0172049 -1.69956e-19)
(0.373933 0.0375553 4.54206e-19)
(0.502205 0.063271 6.40821e-21)
(0.631079 0.0925387 2.2806e-19)
(0.754258 0.123273 -6.10145e-20)
(0.866798 0.153481 2.54907e-19)
(0.965431 0.181516 1.84762e-20)
(1.04859 0.206222 6.07298e-19)
(1.11617 0.226956 -4.19327e-19)
(1.1692 0.243534 5.64607e-20)
(1.20937 0.256121 1.07831e-19)
(1.23876 0.26511 5.65745e-19)
(1.25945 0.271017 -2.03295e-19)
(1.27343 0.274388 -4.03532e-20)
(1.2824 0.275726 -2.1404e-19)
(1.28783 0.275548 -2.26312e-20)
(1.29116 0.275104 1.07193e-19)
(0.0163661 -0.00176668 -7.92452e-20)
(0.0853205 -0.00376163 2.28751e-19)
(0.184227 0.00557314 -2.33997e-19)
(0.304299 0.0237426 9.25044e-20)
(0.437063 0.0490562 -1.10406e-19)
(0.574066 0.0795817 4.0543e-19)
(0.707433 0.112838 -5.6402e-20)
(0.830697 0.146293 1.39173e-19)
(0.939367 0.177783 -8.18933e-20)
(1.03107 0.205742 -2.10741e-21)
(1.10534 0.229265 9.3683e-20)
(1.16317 0.248047 -7.25899e-20)
(1.20647 0.262245 1.88354e-19)
(1.23762 0.272318 -9.38819e-20)
(1.25906 0.27888 -4.13897e-19)
(1.27309 0.282586 4.11643e-19)
(1.28167 0.284056 -1.85641e-19)
(1.28643 0.283809 1.48252e-19)
(1.28869 0.282372 2.5731e-19)
(1.28967 0.280739 1.05715e-19)
(0.0242161 -0.00238227 1.97143e-19)
(0.109401 -0.00323547 -4.0621e-19)
(0.224189 0.00985018 7.77468e-20)
(0.358456 0.0330752 -5.63653e-20)
(0.502273 0.0637203 -2.27179e-19)
(0.646044 0.0989916 -1.7828e-19)
(0.781406 0.135761 -3.50206e-20)
(0.902164 0.171171 -3.17864e-19)
(1.0047 0.203058 -1.93323e-20)
(1.08785 0.230099 -5.9066e-20)
(1.15238 0.251762 -1.6041e-19)
(1.20033 0.268139 -3.5633e-20)
(1.2344 0.279735 -1.22846e-19)
(1.25744 0.287269 -2.05157e-19)
(1.27211 0.291523 2.10189e-19)
(1.2807 0.293238 2.90334e-20)
(1.28508 0.293054 5.78597e-20)
(1.2867 0.291475 -2.42414e-19)
(1.28668 0.289011 -6.03942e-21)
(1.28605 0.286455 -3.74317e-19)
(0.0331645 -0.00255031 2.16309e-19)
(0.135957 -0.00125444 1.44224e-19)
(0.267083 0.0165045 -2.32387e-19)
(0.415003 0.0454159 3.62891e-19)
(0.568358 0.0815845 -3.90845e-20)
(0.716656 0.121319 1.355e-19)
(0.851484 0.160938 4.69038e-20)
(0.967392 0.197434 1.662e-19)
(1.06202 0.228835 -1.30134e-19)
(1.13559 0.254213 4.33749e-20)
(1.19012 0.273492 -4.16505e-20)
(1.22859 0.287181 -1.83516e-20)
(1.2543 0.296102 3.48586e-20)
(1.27034 0.301183 -6.42573e-20)
(1.27943 0.303314 -1.97609e-20)
(1.28374 0.303269 -6.0456e-20)
(1.28493 0.301669 -9.83172e-20)
(1.28426 0.298974 6.347e-20)
(1.28264 0.295672 -8.71533e-20)
(1.28093 0.292389 3.76576e-19)
(0.0431903 -0.0021549 -1.08079e-19)
(0.164775 0.00243181 -3.0601e-19)
(0.312369 0.0257868 -4.07251e-20)
(0.47301 0.0608949 -1.10444e-20)
(0.634059 0.10258 -1.36991e-19)
(0.784509 0.146291 -2.24871e-19)
(0.916406 0.187955 7.36096e-20)
(1.02551 0.22463 -1.01143e-19)
(1.11099 0.254726 -1.13359e-19)
(1.17453 0.277828 6.31515e-20)
(1.21932 0.294358 -4.77348e-20)
(1.24907 0.305222 -9.6608e-20)
(1.26745 0.311509 -3.27605e-21)
(1.27766 0.314292 6.54339e-20)
(1.28228 0.31451 -6.67744e-20)
(1.2833 0.312925 9.26722e-20)
(1.28215 0.310113 2.49202e-20)
(1.27985 0.306478 6.28476e-20)
(1.27715 0.302481 1.2256e-19)
(1.27471 0.298603 -1.05003e-19)
(0.0542384 -0.00108023 1.03263e-19)
(0.195552 0.00805156 -9.18522e-21)
(0.359397 0.0378884 4.62688e-20)
(0.531469 0.0795503 -6.2832e-20)
(0.698134 0.12654 5.14018e-21)
(0.848369 0.173565 2.17923e-19)
(0.975216 0.216384 -1.43177e-19)
(1.07603 0.252354 6.06295e-20)
(1.15166 0.280431 5.34549e-20)
(1.20524 0.300789 -1.50325e-19)
(1.24089 0.314351 1.4127e-19)
(1.2629 0.32237 1.24513e-21)
(1.27507 0.326137 -9.95759e-20)
(1.28053 0.326806 1.20036e-19)
(1.28168 0.325318 -4.76401e-20)
(1.28023 0.322389 3.64378e-20)
(1.27738 0.318529 -4.07564e-20)
(1.27395 0.314085 -1.62877e-20)
(1.27053 0.309496 -1.42756e-19)
(1.26762 0.305105 4.3706e-20)
(0.0662183 0.000784437 -3.48562e-20)
(0.227905 0.0157985 9.34593e-20)
(0.407425 0.052929 1.45577e-20)
(0.589332 0.101325 6.10909e-20)
(0.759419 0.153212 2.91315e-20)
(0.907218 0.202756 1.36537e-20)
(1.02727 0.245814 7.74291e-20)
(1.11879 0.280263 -9.40566e-21)
(1.18438 0.305733 3.41355e-20)
(1.22841 0.323022 5.48568e-20)
(1.2558 0.333515 2.64712e-20)
(1.27111 0.338752 1.9003e-20)
(1.27815 0.340155 7.70667e-20)
(1.27986 0.338901 -7.45973e-20)
(1.27836 0.335892 1.6014e-20)
(1.27511 0.331778 -1.49859e-20)
(1.27107 0.326997 2.32067e-20)
(1.26688 0.321838 1.94418e-20)
(1.26299 0.316723 4.06012e-20)
(1.25979 0.311865 1.7192e-21)
(0.0790044 0.00353946 2.06614e-20)
(0.261372 0.0258205 1.88715e-20)
(0.455651 0.0709477 -2.61145e-20)
(0.645568 0.12607 1.63162e-20)
(0.816883 0.182276 9.21341e-21)
(0.960274 0.233461 -2.86597e-20)
(1.0722 0.275863 9.45707e-21)
(1.15391 0.308075 1.70156e-21)
(1.20964 0.330485 1.63085e-20)
(1.24484 0.344503 -4.37183e-20)
(1.26495 0.351922 -1.33302e-22)
(1.27463 0.354492 1.21126e-20)
(1.27754 0.353701 -9.65157e-21)
(1.27635 0.350703 9.76592e-21)
(1.27288 0.346331 2.54757e-20)
(1.26834 0.341157 -1.449e-20)
(1.26349 0.335544 4.03625e-21)
(1.25881 0.329733 1.5873e-20)
(1.25464 0.324134 -2.61718e-20)
(1.25127 0.318828 1.25615e-20)
(0.0789709 -0.00353892 5.56406e-20)
(0.261276 -0.0258163 -3.05762e-20)
(0.455499 -0.070938 3.60876e-20)
(0.645375 -0.126056 -2.68749e-20)
(0.816666 -0.182264 -1.21641e-20)
(0.960048 -0.233454 3.74844e-21)
(1.07198 -0.275864 -1.20475e-20)
(1.1537 -0.308087 4.35672e-20)
(1.20944 -0.330508 -3.64788e-20)
(1.24467 -0.344536 8.34301e-21)
(1.26479 -0.351963 -6.4364e-21)
(1.27448 -0.35454 -4.23163e-20)
(1.2774 -0.353755 4.12343e-20)
(1.27622 -0.350761 1.60016e-20)
(1.27276 -0.346392 -1.54216e-20)
(1.26822 -0.341221 3.70805e-20)
(1.26337 -0.335611 -4.33542e-22)
(1.2587 -0.329802 -3.62101e-20)
(1.25453 -0.324205 2.65991e-20)
(1.25116 -0.3189 8.87823e-21)
(0.0661876 -0.000784995 -1.99528e-20)
(0.227814 -0.0157974 5.3967e-20)
(0.407278 -0.0529234 6.31104e-20)
(0.589141 -0.101316 -3.05355e-20)
(0.7592 -0.153203 5.27581e-20)
(0.906985 -0.202751 8.56659e-20)
(1.02703 -0.245816 -4.84511e-21)
(1.11857 -0.280275 -1.5422e-20)
(1.18417 -0.305756 7.62827e-20)
(1.22822 -0.323056 3.77323e-20)
(1.25562 -0.333558 -7.09465e-21)
(1.27095 -0.338802 5.75328e-20)
(1.278 -0.340212 -6.18459e-20)
(1.27973 -0.338963 9.8973e-20)
(1.27823 -0.335958 -1.61856e-20)
(1.27498 -0.331847 4.93808e-20)
(1.27095 -0.327069 9.69668e-21)
(1.26677 -0.321912 3.5372e-20)
(1.26288 -0.316799 -3.32235e-20)
(1.25968 -0.311943 9.21566e-21)
(0.0542107 0.00107878 -2.95609e-20)
(0.195468 -0.0080531 6.45798e-20)
(0.359257 -0.0378866 4.8135e-20)
(0.531283 -0.0795452 -7.68263e-21)
(0.697915 -0.126534 8.05619e-20)
(0.848132 -0.173562 -6.36487e-20)
(0.974975 -0.216387 -6.70281e-21)
(1.07579 -0.252366 5.73863e-20)
(1.15144 -0.280453 1.91146e-20)
(1.20503 -0.300823 2.67407e-20)
(1.24071 -0.314394 -3.9446e-20)
(1.26272 -0.322422 1.10056e-19)
(1.27491 -0.326196 2.14194e-20)
(1.28039 -0.326871 -9.72384e-20)
(1.28154 -0.325388 1.49765e-19)
(1.2801 -0.322463 -1.77424e-19)
(1.27726 -0.318606 -8.44978e-20)
(1.27383 -0.314165 1.43851e-20)
(1.27041 -0.309578 8.15353e-20)
(1.26751 -0.305189 -1.54422e-19)
(0.0431657 0.00215278 -6.19702e-20)
(0.164697 -0.00243557 -1.45466e-19)
(0.312238 -0.0257883 -1.28217e-19)
(0.472831 -0.0608936 -1.75141e-19)
(0.633843 -0.102578 -1.04153e-19)