/*--------------------------------*- C++ -*----------------------------------*\
  =========                 |
  \\      /  F ield         | OpenFOAM: The Open Source CFD Toolbox
   \\    /   O peration     | Website:  https://openfoam.org
    \\  /    A nd           | Version:  6.0
     \\/     M anipulation  |
\*---------------------------------------------------------------------------*/
FoamFile
{
    version     2.0;
    format      ascii;
    class       volScalarField;
    location    "78";
    object      p;
}
// * * * * * * * * * * * * * * * * * * * * * * * * * * * * * * * * * * * * * //

dimensions      [0 2 -2 0 0 0 0];

internalField   nonuniform List<scalar> 
8000
(
-0.412326
-0.412904
-0.413019
-0.412848
-0.412587
-0.412353
-0.412227
-0.412256
-0.412462
-0.412854
-0.413436
-0.414206
-0.415165
-0.416309
-0.417632
-0.419131
-0.420793
-0.422521
-0.424205
-0.426621
-0.413318
-0.413308
-0.413077
-0.41267
-0.41221
-0.411807
-0.411545
-0.411478
-0.411633
-0.412025
-0.41266
-0.41354
-0.414663
-0.416025
-0.417618
-0.419434
-0.421455
-0.423594
-0.425735
-0.428541
-0.414221
-0.413678
-0.413125
-0.412491
-0.411832
-0.411253
-0.410842
-0.410656
-0.410729
-0.411083
-0.411728
-0.412667
-0.4139
-0.415422
-0.417223
-0.419292
-0.421611
-0.4241
-0.42664
-0.429794
-0.414929
-0.413925
-0.413083
-0.412233
-0.411377
-0.410615
-0.410037
-0.409705
-0.409664
-0.409939
-0.410546
-0.411494
-0.412782
-0.414407
-0.416358
-0.418623
-0.421183
-0.423966
-0.426856
-0.430322
-0.415373
-0.413992
-0.412897
-0.411848
-0.410796
-0.409842
-0.409077
-0.408571
-0.408377
-0.40853
-0.409052
-0.409956
-0.411244
-0.412915
-0.41496
-0.417366
-0.420113
-0.423139
-0.426333
-0.430085
-0.415515
-0.413846
-0.412543
-0.411309
-0.410066
-0.408909
-0.407936
-0.407225
-0.40684
-0.406826
-0.407212
-0.408018
-0.409251
-0.410912
-0.412994
-0.415486
-0.41837
-0.42159
-0.425046
-0.429065
-0.415343
-0.413482
-0.412016
-0.410617
-0.409185
-0.407817
-0.406615
-0.405668
-0.405053
-0.404826
-0.405026
-0.405679
-0.4068
-0.408394
-0.410457
-0.412981
-0.415951
-0.419318
-0.422996
-0.427269
-0.414876
-0.412916
-0.411334
-0.409789
-0.408174
-0.406587
-0.405137
-0.403927
-0.403044
-0.40256
-0.402524
-0.402972
-0.403925
-0.405394
-0.407381
-0.409882
-0.412886
-0.416354
-0.420217
-0.42474
-0.414152
-0.412184
-0.41053
-0.408861
-0.407069
-0.405257
-0.403545
-0.402047
-0.400866
-0.400086
-0.39977
-0.399964
-0.400696
-0.401985
-0.40384
-0.406262
-0.409248
-0.412768
-0.416777
-0.421551
-0.413229
-0.411335
-0.409653
-0.407878
-0.405918
-0.40388
-0.401896
-0.400094
-0.398591
-0.397487
-0.396856
-0.396755
-0.397222
-0.398283
-0.399952
-0.40224
-0.405153
-0.408672
-0.412781
-0.417803
-0.412182
-0.410435
-0.408761
-0.406897
-0.404778
-0.402517
-0.400259
-0.398146
-0.396311
-0.394867
-0.393901
-0.39348
-0.39365
-0.394443
-0.395882
-0.397984
-0.400765
-0.404218
-0.40836
-0.413607
-0.411103
-0.40956
-0.407922
-0.405984
-0.403713
-0.401238
-0.398712
-0.396294
-0.39413
-0.392347
-0.391043
-0.390295
-0.390154
-0.390659
-0.391836
-0.393707
-0.396295
-0.3996
-0.403669
-0.40906
-0.410095
-0.408796
-0.407212
-0.405209
-0.402798
-0.400119
-0.39734
-0.394634
-0.392161
-0.390058
-0.388436
-0.387375
-0.386934
-0.38715
-0.38805
-0.389655
-0.391987
-0.395041
-0.398868
-0.404226
-0.409277
-0.40824
-0.406717
-0.404652
-0.402109
-0.399243
-0.396235
-0.393271
-0.390523
-0.388139
-0.386236
-0.3849
-0.38419
-0.38414
-0.384768
-0.386084
-0.388095
-0.39077
-0.394115
-0.399126
-0.408779
-0.407998
-0.406529
-0.404402
-0.401736
-0.398702
-0.395495
-0.392313
-0.389338
-0.386726
-0.384597
-0.38304
-0.38211
-0.381832
-0.382206
-0.383216
-0.384838
-0.386986
-0.389556
-0.393765
-0.408738
-0.408178
-0.406743
-0.404549
-0.401769
-0.39859
-0.395221
-0.391869
-0.388724
-0.385944
-0.383654
-0.381938
-0.380842
-0.380376
-0.380512
-0.381196
-0.382352
-0.383817
-0.385314
-0.388187
-0.409286
-0.408889
-0.407457
-0.405186
-0.402299
-0.399001
-0.395509
-0.392038
-0.388781
-0.385897
-0.383507
-0.381687
-0.380471
-0.379843
-0.379742
-0.380062
-0.380662
-0.381301
-0.381502
-0.382543
-0.410547
-0.410229
-0.408758
-0.406397
-0.40341
-0.400016
-0.39644
-0.392899
-0.389583
-0.38665
-0.384209
-0.382326
-0.381011
-0.380222
-0.379854
-0.379746
-0.379685
-0.379358
-0.378125
-0.37697
-0.412623
-0.412283
-0.410721
-0.408251
-0.405165
-0.401695
-0.398066
-0.394494
-0.391163
-0.388217
-0.385756
-0.383825
-0.382411
-0.381441
-0.380772
-0.380189
-0.379403
-0.378008
-0.375188
-0.371543
-0.415589
-0.415111
-0.4134
-0.410795
-0.407604
-0.404066
-0.400405
-0.396827
-0.393503
-0.390563
-0.388086
-0.386097
-0.384563
-0.38339
-0.382419
-0.381428
-0.380119
-0.37803
-0.374152
-0.368878
-0.419487
-0.418752
-0.416825
-0.414051
-0.410738
-0.407129
-0.403439
-0.399861
-0.396546
-0.393603
-0.391089
-0.389005
-0.387301
-0.385874
-0.384582
-0.383253
-0.381717
-0.37981
-0.377504
-0.377565
-0.42433
-0.42322
-0.421008
-0.418021
-0.414559
-0.410859
-0.407129
-0.403536
-0.40021
-0.397232
-0.39463
-0.392382
-0.39042
-0.388638
-0.386906
-0.385089
-0.383082
-0.380827
-0.378439
-0.377257
-0.430111
-0.428516
-0.425946
-0.422698
-0.419047
-0.415227
-0.411427
-0.407789
-0.404411
-0.40134
-0.398574
-0.396067
-0.393733
-0.391466
-0.389148
-0.386675
-0.383974
-0.381013
-0.377879
-0.374925
-0.436811
-0.434633
-0.431637
-0.428074
-0.424188
-0.420208
-0.416298
-0.412567
-0.409075
-0.405831
-0.402799
-0.39991
-0.397068
-0.394168
-0.391114
-0.387829
-0.384266
-0.38041
-0.376339
-0.372032
-0.444411
-0.441565
-0.438078
-0.434149
-0.429984
-0.425797
-0.421726
-0.417838
-0.414147
-0.410622
-0.407195
-0.403778
-0.400273
-0.396592
-0.392665
-0.388452
-0.383939
-0.379137
-0.374127
-0.368757
-0.452901
-0.449314
-0.445281
-0.44094
-0.43645
-0.432007
-0.427711
-0.42358
-0.41958
-0.415637
-0.411658
-0.407546
-0.403219
-0.398615
-0.393707
-0.388494
-0.383004
-0.377281
-0.371415
-0.365276
-0.462277
-0.457887
-0.453263
-0.448473
-0.443615
-0.43886
-0.43426
-0.429776
-0.425323
-0.420794
-0.416081
-0.4111
-0.405794
-0.400148
-0.39418
-0.387936
-0.38148
-0.374885
-0.368243
-0.361473
-0.47254
-0.467295
-0.462047
-0.456777
-0.451509
-0.446374
-0.441366
-0.436387
-0.431307
-0.425996
-0.420356
-0.414328
-0.407907
-0.401127
-0.394054
-0.386777
-0.379388
-0.371976
-0.364631
-0.357315
-0.483688
-0.477546
-0.471649
-0.465875
-0.460149
-0.454547
-0.448998
-0.443349
-0.437435
-0.43113
-0.424364
-0.417132
-0.409484
-0.401509
-0.393319
-0.38503
-0.37675
-0.368573
-0.360576
-0.352743
-0.495706
-0.488631
-0.482074
-0.47577
-0.469523
-0.463341
-0.457086
-0.450556
-0.443582
-0.436065
-0.427991
-0.41942
-0.410467
-0.401272
-0.391977
-0.382713
-0.373591
-0.364696
-0.356086
-0.347751
-0.508555
-0.500525
-0.493297
-0.486433
-0.479583
-0.472676
-0.465513
-0.457868
-0.449596
-0.440659
-0.431119
-0.421114
-0.410815
-0.400402
-0.390035
-0.379845
-0.36993
-0.360359
-0.351169
-0.34234
-0.522165
-0.513167
-0.505264
-0.497796
-0.490235
-0.482422
-0.474118
-0.465108
-0.455307
-0.444765
-0.433641
-0.422142
-0.410493
-0.398891
-0.387499
-0.376436
-0.365779
-0.355575
-0.345834
-0.336525
-0.536426
-0.526464
-0.51788
-0.509747
-0.501332
-0.492401
-0.482702
-0.472074
-0.460531
-0.44824
-0.435453
-0.422444
-0.409466
-0.396725
-0.384367
-0.372488
-0.361141
-0.350345
-0.340083
-0.330317
-0.551185
-0.540278
-0.531004
-0.522121
-0.512678
-0.502386
-0.491028
-0.478544
-0.465086
-0.450944
-0.43646
-0.421958
-0.407702
-0.393883
-0.380625
-0.367991
-0.356004
-0.34466
-0.33391
-0.323719
-0.566246
-0.554427
-0.544447
-0.534702
-0.524027
-0.512114
-0.498838
-0.484292
-0.468788
-0.452742
-0.436571
-0.420624
-0.405158
-0.390336
-0.376246
-0.362918
-0.350346
-0.338499
-0.327298
-0.316723
-0.581365
-0.568684
-0.55797
-0.547225
-0.535088
-0.521291
-0.505862
-0.489091
-0.471462
-0.453508
-0.435697
-0.41838
-0.401786
-0.386041
-0.371193
-0.357235
-0.344132
-0.331831
-0.320221
-0.309308
-0.596255
-0.582777
-0.571289
-0.559381
-0.545539
-0.529604
-0.511825
-0.492719
-0.472943
-0.453123
-0.433751
-0.415157
-0.39753
-0.380948
-0.365416
-0.350894
-0.33732
-0.324615
-0.312642
-0.301445
-0.610591
-0.596388
-0.584074
-0.570821
-0.55503
-0.536734
-0.516459
-0.494969
-0.473076
-0.451472
-0.430644
-0.410882
-0.392324
-0.374996
-0.358861
-0.343844
-0.32986
-0.316807
-0.304521
-0.293097
-0.624012
-0.609167
-0.595961
-0.58117
-0.563201
-0.542364
-0.519509
-0.495645
-0.471717
-0.448445
-0.426288
-0.405481
-0.3861
-0.368121
-0.351464
-0.336026
-0.321698
-0.308357
-0.295812
-0.284224
-0.636132
-0.620734
-0.606558
-0.590039
-0.569693
-0.546192
-0.520738
-0.494571
-0.468731
-0.443937
-0.420595
-0.398874
-0.378785
-0.360255
-0.343164
-0.327381
-0.31278
-0.299213
-0.286468
-0.274783
-0.646551
-0.630687
-0.615461
-0.597034
-0.574159
-0.547937
-0.519933
-0.491588
-0.463998
-0.437851
-0.413482
-0.390984
-0.370309
-0.351331
-0.333898
-0.317852
-0.303051
-0.289326
-0.276445
-0.26473
-0.654857
-0.638618
-0.62226
-0.601776
-0.576275
-0.547346
-0.516903
-0.486553
-0.457408
-0.430094
-0.404865
-0.381738
-0.360601
-0.341285
-0.323605
-0.307385
-0.292463
-0.27865
-0.265701
-0.254029
-0.660648
-0.644122
-0.62656
-0.603905
-0.575749
-0.544196
-0.511487
-0.479346
-0.448863
-0.420584
-0.394672
-0.371066
-0.349598
-0.330058
-0.312233
-0.295929
-0.28097
-0.267144
-0.254199
-0.242644
-0.663538
-0.646812
-0.627988
-0.603099
-0.572326
-0.5383
-0.503549
-0.469863
-0.43828
-0.409247
-0.382834
-0.358907
-0.337243
-0.317598
-0.299735
-0.283443
-0.268535
-0.254776
-0.241911
-0.230548
-0.663169
-0.646327
-0.626206
-0.599075
-0.565794
-0.529509
-0.492982
-0.458025
-0.425592
-0.396024
-0.369297
-0.345208
-0.323489
-0.303862
-0.286071
-0.269892
-0.255127
-0.241518
-0.228814
-0.217723
-0.65922
-0.642345
-0.620922
-0.591602
-0.555986
-0.51771
-0.479707
-0.443769
-0.410746
-0.380867
-0.354017
-0.329931
-0.308299
-0.288818
-0.271214
-0.255254
-0.240726
-0.227355
-0.214895
-0.204158
-0.651417
-0.634593
-0.611897
-0.580499
-0.542786
-0.502827
-0.463675
-0.427059
-0.39371
-0.363744
-0.336963
-0.313045
-0.291647
-0.272443
-0.255145
-0.239511
-0.22532
-0.212277
-0.200151
-0.189847
-0.639541
-0.622853
-0.59895
-0.565644
-0.52612
-0.484824
-0.444865
-0.407878
-0.374468
-0.34464
-0.318119
-0.294538
-0.273521
-0.254727
-0.237856
-0.22266
-0.208907
-0.196288
-0.184586
-0.174797
-0.623434
-0.606969
-0.581962
-0.546971
-0.505967
-0.463701
-0.423285
-0.386236
-0.353025
-0.323556
-0.297486
-0.274407
-0.253921
-0.23567
-0.21935
-0.204705
-0.191496
-0.179399
-0.168216
-0.159022
-0.603001
-0.58685
-0.560878
-0.524472
-0.48235
-0.439495
-0.398973
-0.362164
-0.329407
-0.300512
-0.275079
-0.252665
-0.232856
-0.215284
-0.199638
-0.185661
-0.173105
-0.161632
-0.151069
-0.142554
-0.578213
-0.562471
-0.535709
-0.498193
-0.455336
-0.412278
-0.371994
-0.335717
-0.303659
-0.275545
-0.250927
-0.229338
-0.210349
-0.193588
-0.178741
-0.165549
-0.153757
-0.143019
-0.133183
-0.12544
-0.54911
-0.533876
-0.506526
-0.468235
-0.425037
-0.382157
-0.342444
-0.306976
-0.275847
-0.248709
-0.225076
-0.204462
-0.186431
-0.17061
-0.156683
-0.144392
-0.133477
-0.123588
-0.114599
-0.107728
-0.515796
-0.501174
-0.473462
-0.434748
-0.391605
-0.349272
-0.310445
-0.276047
-0.246061
-0.220079
-0.197586
-0.178087
-0.161143
-0.146382
-0.133491
-0.122214
-0.112287
-0.103365
-0.0953451
-0.0894324
-0.478443
-0.464537
-0.436708
-0.397931
-0.355231
-0.313798
-0.27615
-0.243058
-0.214409
-0.189746
-0.168534
-0.150274
-0.134532
-0.12094
-0.109192
-0.0990341
-0.0902068
-0.082374
-0.075441
-0.0705273
-0.437278
-0.424195
-0.396504
-0.358028
-0.316145
-0.275938
-0.239738
-0.208167
-0.181027
-0.157823
-0.138011
-0.121095
-0.106649
-0.0943182
-0.0838061
-0.0748669
-0.0672498
-0.0606313
-0.0548934
-0.0510092
-0.392589
-0.380436
-0.353142
-0.315319
-0.274607
-0.235929
-0.201417
-0.171555
-0.146073
-0.124446
-0.106131
-0.090639
-0.0775615
-0.066559
-0.0573544
-0.0497164
-0.043408
-0.0381238
-0.0337231
-0.0310612
-0.344711
-0.33359
-0.306952
-0.270125
-0.23091
-0.194035
-0.161424
-0.133434
-0.109731
-0.0897758
-0.0730266
-0.0590132
-0.047347
-0.0377152
-0.0298677
-0.0235906
-0.0186652
-0.0148501
-0.0120881
-0.0111809
-0.294024
-0.284034
-0.258304
-0.222793
-0.185377
-0.150548
-0.120023
-0.0940397
-0.0722151
-0.0539959
-0.0388515
-0.0263318
-0.0160772
-0.0078128
-0.00132682
0.0035724
0.0070579
0.00916588
0.00967982
0.00819905
-0.240944
-0.232176
-0.207594
-0.173698
-0.138352
-0.105783
-0.077504
-0.0536431
-0.0337718
-0.0173292
-0.00379313
0.00726863
0.0161887
0.0232031
0.0284845
0.032193
0.0343724
0.034607
0.0322876
0.0284981
-0.185916
-0.178455
-0.155245
-0.123235
-0.0901999
-0.0600786
-0.0341844
-0.0125447
0.00530749
0.019941
0.031875
0.0415372
0.0492558
0.0552655
0.0597555
0.0629068
0.0646193
0.0639346
0.0600332
0.0560664
-0.129409
-0.123326
-0.101693
-0.0718115
-0.0412967
-0.0137846
0.00960481
0.028934
0.0447007
0.0574781
0.0677832
0.0760452
0.0826059
0.0877416
0.091732
0.094891
0.0971838
0.0975166
0.0956105
0.100519
-0.0718957
-0.0672554
-0.0473828
-0.0198405
0.00797634
0.032745
0.053529
0.0704697
0.0840868
0.0949506
0.103568
0.110359
0.115663
0.119767
0.122965
0.125551
0.127505
0.128308
0.12895
0.136149
-0.0138643
-0.0107175
0.0072376
0.0322639
0.0572393
0.0791587
0.0972587
0.111748
0.123161
0.132059
0.138936
0.1442
0.14818
0.151163
0.153425
0.155213
0.156501
0.15697
0.157608
0.163542
0.0441979
0.0458142
0.0617227
0.0840929
0.106119
0.125114
0.140475
0.152469
0.161634
0.16852
0.173599
0.177261
0.17982
0.181546
0.182695
0.183484
0.183909
0.183724
0.183736
0.188003
0.101809
0.101872
0.115635
0.135247
0.154254
0.170281
0.182876
0.192353
0.199249
0.204095
0.207341
0.209352
0.210424
0.210801
0.210713
0.210345
0.209677
0.208494
0.207538
0.210268
0.158498
0.157
0.168549
0.18534
0.201294
0.214344
0.224175
0.231137
0.235765
0.238565
0.239964
0.240301
0.239849
0.238831
0.237449
0.235859
0.234026
0.231758
0.22976
0.231019
0.213806
0.210755
0.220055
0.234001
0.246907
0.257003
0.264101
0.268579
0.270963
0.271737
0.271299
0.269965
0.267983
0.265554
0.262856
0.260019
0.256997
0.253627
0.250586
0.250462
0.267293
0.262712
0.269759
0.280874
0.290775
0.297975
0.302398
0.30445
0.304641
0.303431
0.301192
0.298215
0.294726
0.290905
0.286908
0.282841
0.278654
0.274214
0.27016
0.268722
0.318538
0.312467
0.317287
0.325625
0.332598
0.336989
0.338827
0.338534
0.336605
0.333477
0.329496
0.324928
0.319977
0.314805
0.309549
0.304295
0.298991
0.293532
0.28851
0.285828
0.367142
0.359636
0.36229
0.367938
0.372093
0.373795
0.373161
0.370628
0.366677
0.361717
0.356071
0.349983
0.343637
0.337176
0.330718
0.324336
0.317979
0.311564
0.305625
0.301769
0.412734
0.403862
0.404436
0.407516
0.408998
0.408155
0.405188
0.400543
0.394685
0.387999
0.380784
0.373263
0.365602
0.357928
0.350342
0.342904
0.335566
0.328264
0.321465
0.316509
0.454966
0.444814
0.443422
0.444086
0.443066
0.43985
0.43471
0.428101
0.420469
0.412178
0.403505
0.394653
0.385772
0.376972
0.368342
0.359929
0.35169
0.343573
0.335978
0.330001
0.49352
0.482185
0.478968
0.477397
0.474073
0.468677
0.461546
0.453137
0.443881
0.43412
0.424113
0.414044
0.404047
0.394221
0.384638
0.375337
0.366282
0.357429
0.349105
0.342191
0.528107
0.515702
0.510822
0.507223
0.501815
0.494453
0.485528
0.475499
0.464782
0.453701
0.442494
0.431332
0.420334
0.409586
0.39915
0.389056
0.379273
0.369764
0.360784
0.353027
0.558473
0.545118
0.538759
0.53336
0.52611
0.517013
0.506508
0.495052
0.48305
0.470806
0.458545
0.446422
0.434545
0.422989
0.411805
0.401016
0.390598
0.380515
0.370958
0.362458
0.584391
0.570219
0.562582
0.555633
0.546799
0.536214
0.524353
0.511677
0.498574
0.485336
0.472173
0.459229
0.446601
0.434355
0.422533
0.411153
0.400195
0.389625
0.379574
0.370437
0.605671
0.590824
0.582126
0.573891
0.563746
0.551933
0.538954
0.52527
0.51126
0.497204
0.483298
0.469679
0.456434
0.443621
0.431275
0.419411
0.408011
0.397043
0.386585
0.376924
0.62216
0.606785
0.597255
0.588012
0.576842
0.564068
0.550217
0.535748
0.521031
0.506337
0.491855
0.47771
0.463986
0.450733
0.437982
0.425743
0.414001
0.402725
0.391952
0.381887
0.633735
0.617988
0.607863
0.597901
0.586
0.572542
0.558071
0.543044
0.527827
0.512681
0.49779
0.483275
0.469213
0.455651
0.442614
0.430112
0.418131
0.406639
0.395645
0.385298
0.640316
0.624353
0.613879
0.603492
0.591162
0.577302
0.562467
0.547115
0.531605
0.516197
0.50107
0.48634
0.472083
0.458344
0.445144
0.432491
0.420375
0.408761
0.397643
0.387141
0.641854
0.625836
0.615261
0.60475
0.592293
0.578316
0.563377
0.547932
0.532342
0.516862
0.501671
0.486886
0.472579
0.458795
0.445555
0.432868
0.420719
0.409078
0.397933
0.387404
0.63834
0.622427
0.612001
0.601665
0.589387
0.575579
0.560795
0.545493
0.530032
0.514672
0.499592
0.484908
0.470697
0.457001
0.443846
0.431237
0.419161
0.407586
0.396514
0.386086
0.629802
0.614154
0.604124
0.594261
0.582463
0.569108
0.554738
0.53981
0.52469
0.50964
0.494842
0.480418
0.466446
0.452972
0.440023
0.427607
0.415709
0.404294
0.393392
0.383192
0.616304
0.601076
0.591685
0.582587
0.571568
0.558945
0.545243
0.53092
0.516348
0.501795
0.48745
0.473442
0.459851
0.44673
0.434109
0.421999
0.41038
0.399219
0.388583
0.378736
0.597947
0.583291
0.574772
0.566723
0.556773
0.545154
0.53237
0.518877
0.505055
0.491184
0.47746
0.464018
0.450949
0.43831
0.426136
0.414443
0.403205
0.392389
0.382112
0.372738
0.574868
0.560928
0.553504
0.546776
0.538174
0.527825
0.516199
0.503755
0.490881
0.477869
0.464927
0.452202
0.43979
0.427757
0.416148
0.404979
0.394222
0.383842
0.374012
0.365228
0.547236
0.534151
0.528032
0.522882
0.515895
0.507068
0.496832
0.485646
0.473909
0.461928
0.449926
0.438059
0.426435
0.41513
0.404197
0.393658
0.38348
0.373622
0.364326
0.356241
0.515259
0.503155
0.498534
0.495202
0.49008
0.483014
0.474388
0.464659
0.45424
0.443454
0.432539
0.421667
0.410957
0.400495
0.390346
0.380539
0.371034
0.361784
0.353102
0.34582
0.479174
0.468168
0.46522
0.463923
0.460898
0.455816
0.449006
0.440921
0.431989
0.422551
0.412864
0.403114
0.393435
0.383927
0.374664
0.365685
0.356944
0.348386
0.340393
0.33401
0.439251
0.429449
0.428324
0.429259
0.42854
0.425646
0.420841
0.414573
0.407283
0.399336
0.391006
0.382497
0.37396
0.365506
0.357225
0.349166
0.341276
0.333488
0.326256
0.320861
0.39579
0.387283
0.388112
0.391445
0.393218
0.392695
0.390066
0.38577
0.380265
0.373936
0.36708
0.35992
0.352623
0.345316
0.338104
0.331048
0.324092
0.317151
0.310746
0.306423
0.349119
0.341985
0.34487
0.350741
0.355164
0.357171
0.356867
0.354681
0.351086
0.346489
0.341209
0.335491
0.32952
0.323441
0.317376
0.311399
0.305452
0.299429
0.293912
0.290738
0.299593
0.293897
0.298913
0.307427
0.314629
0.319298
0.321448
0.321488
0.319908
0.317138
0.31352
0.309323
0.30475
0.299966
0.29511
0.290276
0.285405
0.280365
0.275789
0.273838
0.247594
0.243382
0.250575
0.261806
0.271882
0.279319
0.284023
0.286385
0.286905
0.286036
0.284148
0.28153
0.278408
0.274966
0.271365
0.267721
0.263977
0.259974
0.256385
0.255732
0.193524
0.19083
0.200215
0.214199
0.227213
0.237491
0.244825
0.249578
0.25226
0.253348
0.253234
0.252233
0.250592
0.248517
0.246193
0.24376
0.241172
0.238238
0.235668
0.236386
0.137807
0.136649
0.148209
0.164947
0.180925
0.194088
0.204099
0.211288
0.216171
0.219245
0.220927
0.221555
0.221399
0.220684
0.219622
0.218381
0.216929
0.215053
0.213501
0.215676
0.0808852
0.081264
0.0949543
0.114407
0.13334
0.149398
0.162107
0.171751
0.17885
0.183917
0.187393
0.189637
0.190939
0.191546
0.191697
0.191591
0.191207
0.190298
0.189686
0.193386
0.0232152
0.025118
0.0408602
0.0629529
0.0847956
0.103729
0.119126
0.131221
0.140528
0.147576
0.152823
0.156646
0.159351
0.161199
0.162448
0.163325
0.16379
0.16352
0.16352
0.168876
-0.034736
-0.0313371
-0.0136497
0.0109706
0.035642
0.0573983
0.0754503
0.0899702
0.101459
0.110455
0.11743
0.122773
0.126796
0.129763
0.131948
0.133624
0.134755
0.134817
0.134803
0.141378
-0.0924949
-0.0876419
-0.068144
-0.0411437
-0.0137586
0.0107404
0.0313906
0.0482915
0.0619257
0.0728338
0.0814984
0.0883174
0.0936049
0.097613
0.100599
0.102852
0.104316
0.103896
0.10134
0.105637
-0.149586
-0.143334
-0.122186
-0.0929875
-0.0630369
-0.0359029
-0.012732
0.00649246
0.0222253
0.0350042
0.0453145
0.0535522
0.0600177
0.064922
0.0684327
0.0707053
0.0716158
0.0702239
0.065795
0.0613717
-0.205545
-0.19796
-0.175345
-0.144159
-0.111821
-0.082186
-0.0565899
-0.0351101
-0.017326
-0.00270561
0.00924024
0.0189133
0.0266199
0.032575
0.036934
0.0398379
0.0413097
0.0409514
0.0382425
0.0342345
-0.259915
-0.251072
-0.227192
-0.19426
-0.159745
-0.127767
-0.0998586
-0.0762004
-0.0564111
-0.0399642
-0.0263603
-0.0151787
-0.00608487
0.00117599
0.00680032
0.010964
0.0138212
0.0154073
0.0155584
0.0139304
-0.312256
-0.302242
-0.277317
-0.242907
-0.206452
-0.172315
-0.142228
-0.116483
-0.0947443
-0.0764942
-0.0612216
-0.0484845
-0.0379192
-0.0292333
-0.0221927
-0.0165986
-0.0122489
-0.00891486
-0.00652645
-0.00583964
-0.362157
-0.351065
-0.325328
-0.289731
-0.251603
-0.21552
-0.183412
-0.155693
-0.132082
-0.112077
-0.0951589
-0.0808698
-0.0688239
-0.0587026
-0.0502462
-0.0432382
-0.0374567
-0.0326104
-0.0285662
-0.0261765
-0.409239
-0.39717
-0.370863
-0.33439
-0.294885
-0.257096
-0.223152
-0.193595
-0.168214
-0.146528
-0.128019
-0.112217
-0.0987217
-0.0871958
-0.0773622
-0.06899
-0.0618427
-0.0556088
-0.0501804
-0.0465457
-0.453164
-0.440222
-0.41359
-0.376569
-0.336006
-0.296781
-0.261213
-0.229982
-0.202956
-0.179688
-0.159667
-0.142419
-0.127531
-0.114656
-0.103506
-0.0938415
-0.0854166
-0.0779066
-0.0712252
-0.0665027
-0.493641
-0.479932
-0.45322
-0.415988
-0.37471
-0.334345
-0.297389
-0.264672
-0.23615
-0.211421
-0.18999
-0.171383
-0.155185
-0.141041
-0.128657
-0.117788
-0.108188
-0.0995196
-0.0916916
-0.0859117
-0.53043
-0.516061
-0.489506
-0.452403
-0.410768
-0.369581
-0.331502
-0.297509
-0.267661
-0.241612
-0.218893
-0.199037
-0.181629
-0.166312
-0.152789
-0.140814
-0.13014
-0.120428
-0.111565
-0.104772
-0.563347
-0.548423
-0.52225
-0.485612
-0.443987
-0.402318
-0.363399
-0.328362
-0.297378
-0.270169
-0.246298
-0.225315
-0.206811
-0.190429
-0.17587
-0.16289
-0.151243
-0.140596
-0.130812
-0.123083
-0.592268
-0.576892
-0.551305
-0.515455
-0.474212
-0.432412
-0.392956
-0.357125
-0.325212
-0.297015
-0.272142
-0.250166
-0.230686
-0.213353
-0.197867
-0.183984
-0.171466
-0.159986
-0.149386
-0.140807
-0.617128
-0.601401
-0.576581
-0.541821
-0.501325
-0.459752
-0.420075
-0.383715
-0.351091
-0.322091
-0.296375
-0.273546
-0.253218
-0.235049
-0.218746
-0.204064
-0.190773
-0.178557
-0.167235
-0.157886
-0.637927
-0.621945
-0.598046
-0.564647
-0.525246
-0.484259
-0.444686
-0.408072
-0.374968
-0.345357
-0.318963
-0.295425
-0.274379
-0.255493
-0.238481
-0.223101
-0.209132
-0.196269
-0.184314
-0.174264
-0.654725
-0.63858
-0.615723
-0.58392
-0.54594
-0.505889
-0.466746
-0.430161
-0.396812
-0.366789
-0.339886
-0.315786
-0.294151
-0.274666
-0.257052
-0.241073
-0.226516
-0.213092
-0.200583
-0.1899
-0.667641
-0.651423
-0.629697
-0.599679
-0.563411
-0.52463
-0.486239
-0.449967
-0.416615
-0.386381
-0.35914
-0.334625
-0.312531
-0.292561
-0.274449
-0.257967
-0.242908
-0.229003
-0.216018
-0.204769
-0.676851
-0.660647
-0.640108
-0.612016
-0.577709
-0.540504
-0.503176
-0.467499
-0.434386
-0.404144
-0.376736
-0.351952
-0.329525
-0.309184
-0.290675
-0.273779
-0.258302
-0.24399
-0.230603
-0.218854
-0.682581
-0.666477
-0.64715
-0.621072
-0.588925
-0.553569
-0.517596
-0.48279
-0.450154
-0.420107
-0.3927
-0.367791
-0.345155
-0.32455
-0.30574
-0.288518
-0.2727
-0.258053
-0.244331
-0.232147
-0.685101
-0.669183
-0.651063
-0.627037
-0.597193
-0.563915
-0.529565
-0.49589
-0.463965
-0.434312
-0.407074
-0.382179
-0.359454
-0.338688
-0.319668
-0.302202
-0.286117
-0.271199
-0.257206
-0.244647
-0.684719
-0.669072
-0.652134
-0.630144
-0.602688
-0.571669
-0.539173
-0.506872
-0.475884
-0.446818
-0.419911
-0.395167
-0.372467
-0.351638
-0.332495
-0.31486
-0.298574
-0.283445
-0.269239
-0.256364
-0.68177
-0.666479
-0.650679
-0.630667
-0.605622
-0.576986
-0.546539
-0.515829
-0.485987
-0.457696
-0.431278
-0.406816
-0.38425
-0.363451
-0.344263
-0.326529
-0.310105
-0.29482
-0.28045
-0.267314
-0.676605
-0.661757
-0.647039
-0.628908
-0.606243
-0.580055
-0.551802
-0.522871
-0.494368
-0.467028
-0.441251
-0.417197
-0.394869
-0.374187
-0.355028
-0.337259
-0.320751
-0.305356
-0.290869
-0.27752
-0.66959
-0.655266
-0.64157
-0.625195
-0.604824
-0.581091
-0.555127
-0.528126
-0.501133
-0.474907
-0.449916
-0.42639
-0.4044
-0.383915
-0.364852
-0.347104
-0.330561
-0.315098
-0.300531
-0.287014
-0.661082
-0.647364
-0.634628
-0.619866
-0.60166
-0.580333
-0.556699
-0.531738
-0.506398
-0.481435
-0.457364
-0.434483
-0.412923
-0.392711
-0.373804
-0.356126
-0.339591
-0.324094
-0.309477
-0.29583
-0.651431
-0.638392
-0.62656
-0.613259
-0.597059
-0.578038
-0.556721
-0.533865
-0.510291
-0.48672
-0.463694
-0.441565
-0.420525
-0.400655
-0.381959
-0.364394
-0.3479
-0.332396
-0.317753
-0.304006
-0.640966
-0.628673
-0.617695
-0.605704
-0.59133
-0.574474
-0.555412
-0.534678
-0.512947
-0.490876
-0.469006
-0.447729
-0.427293
-0.407831
-0.389394
-0.371979
-0.355553
-0.340062
-0.325406
-0.311583
-0.62999
-0.618499
-0.608333
-0.597511
-0.584774
-0.569911
-0.552998
-0.534361
-0.514512
-0.494021
-0.473403
-0.453071
-0.433316
-0.414323
-0.39619
-0.378955
-0.362616
-0.347149
-0.332485
-0.318599
-0.618773
-0.608127
-0.598739
-0.58896
-0.577676
-0.564618
-0.549713
-0.533103
-0.515138
-0.496278
-0.476989
-0.457684
-0.438682
-0.420214
-0.402424
-0.385394
-0.369156
-0.353714
-0.339037
-0.32509
-0.607553
-0.597779
-0.589141
-0.580294
-0.570291
-0.558846
-0.545785
-0.531099
-0.514982
-0.497773
-0.479869
-0.461658
-0.443476
-0.425585
-0.408175
-0.391368
-0.375237
-0.359816
-0.34511
-0.331092
-0.596528
-0.587637
-0.579723
-0.57172
-0.562843
-0.552827
-0.541434
-0.528541
-0.514203
-0.498635
-0.482147
-0.465084
-0.447778
-0.430513
-0.413514
-0.396947
-0.380921
-0.365508
-0.350747
-0.336634
-0.58586
-0.577845
-0.570633
-0.563399
-0.555519
-0.546761
-0.536862
-0.525615
-0.512962
-0.498995
-0.483928
-0.468048
-0.451663
-0.435066
-0.418508
-0.402192
-0.386268
-0.370842
-0.35599
-0.341744
-0.575676
-0.568512
-0.561978
-0.555455
-0.548465
-0.540818
-0.532248
-0.522497
-0.511412
-0.49898
-0.485316
-0.470634
-0.455202
-0.439307
-0.423216
-0.407161
-0.391331
-0.375866
-0.36088
-0.346449
-0.566067
-0.559712
-0.55383
-0.547975
-0.54179
-0.535132
-0.527744
-0.51934
-0.509699
-0.498716
-0.486411
-0.472919
-0.458457
-0.443288
-0.427684
-0.411899
-0.396152
-0.380623
-0.365454
-0.350779
-0.557091
-0.55149
-0.546233
-0.541011
-0.535569
-0.529802
-0.523471
-0.516277
-0.507953
-0.498318
-0.487308
-0.474978
-0.461483
-0.447052
-0.431948
-0.416436
-0.400766
-0.385146
-0.369752
-0.354776
-0.548772
-0.543858
-0.539198
-0.534585
-0.529842
-0.524892
-0.519516
-0.513412
-0.506282
-0.497888
-0.488092
-0.476874
-0.464324
-0.450626
-0.436024
-0.420786
-0.405182
-0.389452
-0.373801
-0.358483
-0.541097
-0.536799
-0.53271
-0.528691
-0.524618
-0.520434
-0.515933
-0.510816
-0.504767
-0.497506
-0.488833
-0.478659
-0.467011
-0.454022
-0.439907
-0.424933
-0.409385
-0.393532
-0.377612
-0.361966
-0.53402
-0.530268
-0.526726
-0.523294
-0.519877
-0.516424
-0.51274
-0.508527
-0.503459
-0.497225
-0.489578
-0.480368
-0.469559
-0.457232
-0.443569
-0.428828
-0.413308
-0.397314
-0.38113
-0.365225
-0.527453
-0.524188
-0.521176
-0.518329
-0.515563
-0.512822
-0.509911
-0.506538
-0.502365
-0.497063
-0.490345
-0.48201
-0.471964
-0.460232
-0.446958
-0.432384
-0.416828
-0.400646
-0.384208
-0.368262
-0.521277
-0.518455
-0.515962
-0.513704
-0.511589
-0.509548
-0.507381
-0.504794
-0.501447
-0.496992
-0.491115
-0.483568
-0.474201
-0.462984
-0.450009
-0.435495
-0.419769
-0.403249
-0.386466
-0.370682
-0.515347
-0.512943
-0.510965
-0.509298
-0.507835
-0.506484
-0.505036
-0.503194
-0.500612
-0.496933
-0.491818
-0.48498
-0.476218
-0.465434
-0.452659
-0.438056
-0.421927
-0.404706
-0.387179
-0.371797
-0.509499
-0.507515
-0.506051
-0.504975
-0.504156
-0.50348
-0.502723
-0.501585
-0.499716
-0.496751
-0.492333
-0.486144
-0.47793
-0.467528
-0.454886
-0.440078
-0.423307
-0.404856
-0.385455
-0.369206
-0.503571
-0.502029
-0.501083
-0.500587
-0.500393
-0.500363
-0.50026
-0.499779
-0.498569
-0.496261
-0.492486
-0.4869
-0.479208
-0.46918
-0.456668
-0.441612
-0.424021
-0.403761
-0.380132
-0.355265
-0.497413
-0.496359
-0.49593
-0.49599
-0.496386
-0.496955
-0.497452
-0.497567
-0.496954
-0.495242
-0.492059
-0.487047
-0.479884
-0.470302
-0.458099
-0.443158
-0.425466
-0.404962
-0.381123
-0.356398
-0.490914
-0.4904
-0.490485
-0.491062
-0.491989
-0.493089
-0.49411
-0.494744
-0.49465
-0.493462
-0.490811
-0.486338
-0.479712
-0.470651
-0.45894
-0.444459
-0.427218
-0.407185
-0.38398
-0.360719
-0.484006
-0.48409
-0.484671
-0.48571
-0.487093
-0.488634
-0.490081
-0.491135
-0.491462
-0.490707
-0.488509
-0.484514
-0.478394
-0.469864
-0.458707
-0.444806
-0.428174
-0.408721
-0.38616
-0.364482
-0.476682
-0.477411
-0.478462
-0.479892
-0.481635
-0.483509
-0.485268
-0.486624
-0.487257
-0.486825
-0.48498
-0.481379
-0.475703
-0.467674
-0.457079
-0.44382
-0.427918
-0.409238
-0.387646
-0.367817
-0.469003
-0.470403
-0.471881
-0.473618
-0.475617
-0.477705
-0.47965
-0.481182
-0.481996
-0.481768
-0.480168
-0.476868
-0.471566
-0.464002
-0.453986
-0.441453
-0.426447
-0.408825
-0.388636
-0.370905
-0.461091
-0.46316
-0.46501
-0.466964
-0.46911
-0.471292
-0.473299
-0.47488
-0.475754
-0.475617
-0.474158
-0.471077
-0.466097
-0.458986
-0.449592
-0.437898
-0.423983
-0.407718
-0.389328
-0.373853
-0.453123
-0.455827
-0.45798
-0.460061
-0.46225
-0.464416
-0.466374
-0.467897
-0.468727
-0.468587
-0.467194
-0.464279
-0.4596
-0.452968
-0.444278
-0.433566
-0.420947
-0.406321
-0.39003
-0.376857
-0.445317
-0.448587
-0.450966
-0.453089
-0.455231
-0.457291
-0.459111
-0.460494
-0.461209
-0.461008
-0.459643
-0.456882
-0.452529
-0.44644
-0.438564
-0.428985
-0.417845
-0.405068
-0.391046
-0.380111
-0.437908
-0.441641
-0.444166
-0.446258
-0.448281
-0.450169
-0.451793
-0.452987
-0.453552
-0.453272
-0.451939
-0.449362
-0.445392
-0.439934
-0.432984
-0.424661
-0.415118
-0.404292
-0.392561
-0.383713
-0.431123
-0.435193
-0.437781
-0.439781
-0.441634
-0.443309
-0.44471
-0.4457
-0.446115
-0.445774
-0.444508
-0.442171
-0.438657
-0.433916
-0.427977
-0.420976
-0.413061
-0.40417
-0.394623
-0.387661
-0.42516
-0.429419
-0.431992