/*--------------------------------*- C++ -*----------------------------------*\
  =========                 |
  \\      /  F ield         | OpenFOAM: The Open Source CFD Toolbox
   \\    /   O peration     | Website:  https://openfoam.org
    \\  /    A nd           | Version:  6.0
     \\/     M anipulation  |
\*---------------------------------------------------------------------------*/
FoamFile
{
    version     2.0;
    format      ascii;
    class       surfaceScalarField;
    location    "62";
    object      phi;
}
// * * * * * * * * * * * * * * * * * * * * * * * * * * * * * * * * * * * * * //

dimensions      [0 3 -1 0 0 0 0];

internalField   nonuniform List<scalar> 
15760
(
-2.34241e-06
-1.71063e-05
1.94487e-05
-8.32576e-06
-4.09363e-05
4.69197e-05
-1.70174e-05
-5.72666e-05
6.59582e-05
-2.76007e-05
-6.8076e-05
7.86593e-05
-3.93884e-05
-7.49071e-05
8.66947e-05
-5.18203e-05
-7.89702e-05
9.14021e-05
-6.44569e-05
-8.11914e-05
9.38281e-05
-7.69701e-05
-8.22592e-05
9.47724e-05
-8.91338e-05
-8.26696e-05
9.48332e-05
-0.000100815
-8.27675e-05
9.44488e-05
-0.000111965
-8.27841e-05
9.39343e-05
-0.000122612
-8.28677e-05
9.35142e-05
-0.000132849
-8.31102e-05
9.33473e-05
-0.000142828
-8.35676e-05
9.35471e-05
-0.00015275
-8.42745e-05
9.41956e-05
-0.000162848
-8.52549e-05
9.53532e-05
-0.000173383
-8.65264e-05
9.70617e-05
-0.000184627
-8.8103e-05
9.93467e-05
-0.000196852
-9.00067e-05
0.000102232
-9.22697e-05
0.000105751
-0.000210333
-2.53462e-06
-1.45717e-05
-8.9455e-06
-3.45254e-05
-1.82006e-05
-4.80115e-05
-2.94163e-05
-5.68604e-05
-4.18598e-05
-6.24635e-05
-5.49408e-05
-6.58892e-05
-6.81986e-05
-6.79336e-05
-8.12903e-05
-6.91676e-05
-9.39783e-05
-6.99815e-05
-0.000106121
-7.0625e-05
-0.000117662
-7.12432e-05
-0.000128622
-7.19075e-05
-0.00013909
-7.26417e-05
-0.000149215
-7.34428e-05
-0.000159193
-7.4297e-05
-0.000169256
-7.51914e-05
-0.000179663
-7.61193e-05
-0.000190682
-7.70839e-05
-0.000202582
-7.81073e-05
-7.92283e-05
-0.000215623
-2.74299e-06
-1.18287e-05
-9.61098e-06
-2.76575e-05
-1.94617e-05
-3.81608e-05
-3.13372e-05
-4.49848e-05
-4.44545e-05
-4.93463e-05
-5.81875e-05
-5.21563e-05
-7.20489e-05
-5.40722e-05
-8.56737e-05
-5.55428e-05
-9.88049e-05
-5.68503e-05
-0.000111282
-5.81478e-05
-0.000123032
-5.94938e-05
-0.000134058
-6.08812e-05
-0.000144436
-6.22633e-05
-0.000154304
-6.35753e-05
-0.00016385
-6.4751e-05
-0.000173305
-6.57357e-05
-0.00018293
-6.64945e-05
-0.000192998
-6.70166e-05
-0.000203782
-6.73226e-05
-6.74607e-05
-0.00021555
-2.96434e-06
-8.86432e-06
-1.03116e-05
-2.03102e-05
-2.07805e-05
-2.76918e-05
-3.33346e-05
-3.24308e-05
-4.71368e-05
-3.55441e-05
-6.1522e-05
-3.7771e-05
-7.59721e-05
-3.96222e-05
-9.00942e-05
-4.14206e-05
-0.000103605
-4.33398e-05
-0.000116315
-4.5437e-05
-0.000128125
-4.76839e-05
-0.000139012
-4.99942e-05
-0.000149027
-5.22482e-05
-0.000158289
-5.4314e-05
-0.000166974
-5.60661e-05
-0.000175309
-5.74002e-05
-0.00018356
-5.82438e-05
-0.000192013
-5.85638e-05
-0.000200962
-5.83733e-05
-5.7729e-05
-0.000210694
-3.19381e-06
-5.67051e-06
-1.1031e-05
-1.24731e-05
-2.21263e-05
-1.65965e-05
-3.53625e-05
-1.91946e-05
-4.98479e-05
-2.10587e-05
-6.48774e-05
-2.27415e-05
-7.98996e-05
-2.45999e-05
-9.44904e-05
-2.68299e-05
-0.000108333
-2.94972e-05
-0.000121204
-3.25656e-05
-0.000132966
-3.59223e-05
-0.000143558
-3.9402e-05
-0.000152997
-4.28095e-05
-0.00016137
-4.59405e-05
-0.000168836
-4.86006e-05
-0.000175613
-5.06236e-05
-0.000181971
-5.18852e-05
-0.00018822
-5.23154e-05
-0.000194686
-5.19073e-05
-5.07192e-05
-0.000201695
-3.4243e-06
-2.24621e-06
-1.17457e-05
-4.15169e-06
-2.3454e-05
-4.88818e-06
-3.73529e-05
-5.29572e-06
-5.24979e-05
-5.91369e-06
-6.81457e-05
-7.09373e-06
-8.37121e-05
-9.0335e-06
-9.87403e-05
-1.18017e-05
-0.000112877
-1.53602e-05
-0.000125859
-1.95841e-05
-0.0001375
-2.42808e-05
-0.000147694
-2.92089e-05
-0.000156406
-3.40969e-05
-0.000163684
-3.86627e-05
-0.000169652
-4.26326e-05
-0.000174513
-4.57622e-05
-0.000178543
-4.7856e-05
-0.000182074
-4.87844e-05
-0.000185482
-4.84988e-05
-4.70434e-05
-0.000189158
-3.64613e-06
1.39992e-06
-1.2424e-05
4.62615e-06
-2.4702e-05
7.38989e-06
-3.92102e-05
9.21242e-06
-5.49566e-05
9.83271e-06
-7.11641e-05
9.11373e-06
-8.72193e-05
7.02175e-06
-0.000102635
3.6136e-06
-0.00011702
-9.74385e-07
-0.000130068
-6.53653e-06
-0.00014154
-1.28085e-05
-0.00015127
-1.94791e-05
-0.000159164
-2.62032e-05
-0.000165209
-3.26177e-05
-0.000169482
-3.83596e-05
-0.000172155
-4.30885e-05
-0.0001735
-4.65113e-05
-0.000173877
-4.84079e-05
-0.000173722
-4.86538e-05
-4.72495e-05
-0.000173516
-3.84684e-06
5.24676e-06
-1.30249e-05
1.38042e-05
-2.57905e-05
2.01555e-05
-4.08087e-05
2.42306e-05
-5.7048e-05
2.6072e-05
-7.37048e-05
2.57705e-05
-9.0143e-05
2.346e-05
-0.000105849
1.93201e-05
-0.000120402
1.35778e-05
-0.000133447
6.50914e-06
-0.000144694
-1.5616e-06
-0.000153909
-1.02642e-05
-0.000160925
-1.91878e-05
-0.000165652
-2.78902e-05
-0.0001681
-3.59121e-05
-0.000168389
-4.27989e-05
-0.00016677
-4.81306e-05
-0.000163622
-5.15552e-05
-0.000159454
-5.28226e-05
-5.18392e-05
-0.000154864
-4.01147e-06
9.25823e-06
-1.34993e-05
2.3292e-05
-2.66225e-05
3.32787e-05
-4.19926e-05
3.96006e-05
-5.85486e-05
4.26281e-05
-7.54695e-05
4.26914e-05
-9.21054e-05
4.00959e-05
-0.000107926
3.5141e-05
-0.000122485
2.81362e-05
-0.000135391
1.94154e-05
-0.000146301
9.34816e-06
-0.000154913
-1.65223e-06
-0.000160977
-1.31233e-05
-0.000164314
-2.45531e-05
-0.00016484
-3.53861e-05
-0.000162599
-4.50405e-05
-0.000157791
-5.29385e-05
-0.000150799
-5.85469e-05
-0.0001422
-6.14222e-05
-6.12964e-05
-0.000132742
-4.12337e-06
1.33816e-05
-1.37925e-05
3.29612e-05
-2.7088e-05
4.65742e-05
-4.25814e-05
5.5094e-05
-5.91928e-05
5.92394e-05
-7.60931e-05
5.95917e-05
-9.26288e-05
5.66316e-05
-0.000108264
5.0776e-05
-0.000122537
4.24097e-05
-0.000135034
3.19125e-05
-0.000145369
1.96827e-05
-0.000153178
6.1569e-06
-0.00015813
-8.1716e-06
-0.000159943
-2.27397e-05
-0.000158422
-3.69073e-05
-0.0001535
-4.99624e-05
-0.000145293
-6.11453e-05
-0.000134151
-6.9689e-05
-0.000120703
-7.48703e-05
-7.61282e-05
-0.000105871
-4.16568e-06
1.75473e-05
-1.3848e-05
4.26435e-05
-2.70715e-05
5.97977e-05
-4.23812e-05
7.04037e-05
-5.86869e-05
7.55452e-05
-7.516e-05
7.60648e-05
-9.11518e-05
7.26233e-05
-0.000106131
6.57555e-05
-0.000119638
5.59167e-05
-0.000131249
4.35233e-05
-0.000140554
2.89873e-05
-0.000147145
1.27485e-05
-0.000150622
-4.69457e-06
-0.000150606
-2.27558e-05
-0.000146777
-4.07359e-05
-0.000138932
-5.78076e-05
-0.000127057
-7.30209e-05
-0.000111415
-8.5331e-05
-9.26484e-05
-9.36366e-05
-9.69197e-05
-7.18568e-05
-4.12328e-06
2.16706e-05
-1.36138e-05
5.21341e-05
-2.64633e-05
7.26471e-05
-4.1201e-05
8.51414e-05
-5.67327e-05
9.1077e-05
-7.22337e-05
9.15658e-05
-8.70652e-05
8.74548e-05
-0.000100709
7.93993e-05
-0.000112718
6.7926e-05
-0.000122679
5.34837e-05
-0.000130181
3.64893e-05
-0.000134802
1.73693e-05
-0.000136099
-3.39702e-06
-0.000133621
-2.52339e-05
-0.000126935
-4.7422e-05
-0.000115687
-6.90554e-05
-9.9694e-05
-8.90141e-05
-7.90684e-05
-0.000105957
-5.43916e-05
-0.000118313
-0.000124402
-2.69093e-05
-3.98504e-06
2.56556e-05
-1.30491e-05
6.11981e-05
-2.51717e-05
8.47698e-05
-3.88739e-05
9.88435e-05
-5.30572e-05
0.00010526
-6.68986e-05
0.000105407
-7.97669e-05
0.000100323
-9.11582e-05
9.07906e-05
-0.000100645
7.7413e-05
-0.000107838
6.06764e-05
-0.000112352
4.1003e-05
-0.000113783
1.8801e-05
-0.000111695
-5.48571e-06
-0.000105608
-3.13205e-05
-9.50212e-05
-5.80088e-05
-7.94533e-05
-8.46234e-05
-5.8537e-05
-0.00010993
-3.21715e-05
-0.000132322
-7.72836e-07
-0.000149712
-0.000159529
3.43546e-05
-3.74593e-06
2.94015e-05
-1.21303e-05
6.95825e-05
-2.31366e-05
9.57761e-05
-3.5278e-05
0.000110985
-4.74458e-05
0.000117428
-5.88082e-05
0.00011677
-6.87306e-05
0.000110245
-7.67137e-05
9.87738e-05
-8.23461e-05
8.30454e-05
-8.52663e-05
6.35966e-05
-8.5132e-05
4.08688e-05
-8.15933e-05
1.52622e-05
-7.42685e-05
-1.28105e-05
-6.27253e-05
-4.28637e-05
-4.64726e-05
-7.42615e-05
-2.49778e-05
-0.000106118
2.26662e-06
-0.000137175
3.5597e-05
-0.000165652
7.4877e-05
-0.000188992
-0.000203563
0.00011891
-3.40841e-06
3.28099e-05
-1.0856e-05
7.70301e-05
-2.03377e-05
0.000105258
-3.03531e-05
0.000121
-3.97696e-05
0.000126845
-4.77285e-05
0.000124729
-5.3571e-05
0.000116088
-5.67815e-05
0.000101984
-5.69461e-05
8.321e-05
-5.37208e-05
6.03713e-05
-4.68067e-05
3.39546e-05
-3.59264e-05
4.3819e-06
-2.08004e-05
-2.79365e-05
-1.11945e-06
-6.25446e-05
2.34849e-05
-9.88659e-05
5.34616e-05
-0.000136095
8.9327e-05
-0.00017304
0.000131579
-0.000207904
0.000180424
-0.000237837
-0.000258144
0.000235005
-2.98262e-06
3.57926e-05
-9.24738e-06
8.32949e-05
-1.67976e-05
0.000112808
-2.41065e-05
0.000128309
-2.99985e-05
0.000132737
-3.35632e-05
0.000128293
-3.40887e-05
0.000116613
-3.10119e-05
9.89075e-05
-2.38848e-05
7.60829e-05
-1.23523e-05
4.88388e-05
3.86258e-06
1.77398e-05
2.49701e-05
-1.67257e-05
5.11283e-05
-5.40947e-05
8.24645e-05
-9.38808e-05
0.000119112
-0.000135514
0.000161262
-0.000178245
0.000209211
-0.000220989
0.000263385
-0.000262078
0.000324232
-0.000298684
-0.000325333
0.000391421
-2.48483e-06
3.82774e-05
-7.344e-06
8.8154e-05
-1.25747e-05
0.000118039
-1.66049e-05
0.000132339
-1.81924e-05
0.000134324
-1.6347e-05
0.000126448
-1.0271e-05
0.000110537
6.83201e-07
8.79533e-05
1.70378e-05
5.97283e-05
3.92009e-05
2.66756e-05
6.74682e-05
-1.05275e-05
0.000102018
-5.12754e-05
0.000142906
-9.49825e-05
0.000190066
-0.000141041
0.000243329
-0.000188777
0.000302471
-0.000237386
0.000367291
-0.000285809
0.000437728
-0.000332516
0.000514019
-0.000374975
-0.00040767
0.000596356
-1.93441e-06
4.02118e-05
-5.19514e-06
9.14148e-05
-7.74714e-06
0.000120591
-7.94939e-06
0.000132542
-4.4676e-06
0.000130842
3.79631e-06
0.000118184
1.77579e-05
9.65759e-05
3.81849e-05
6.75263e-05
6.57135e-05
3.21997e-05
0.000100849
-8.46027e-06
0.000143957
-5.36347e-05
0.000195236
-0.000102555
0.000254696
-0.000154443
0.000322126
-0.000208471
0.000397067
-0.000263718
0.000478812
-0.000319131
0.000566451
-0.000373447
0.000658972
-0.000425037
0.000755537
-0.00047154
-0.000508801
0.000856667
-1.34958e-06
4.15614e-05
-2.84716e-06
9.29123e-05
-2.38939e-06
0.000120133
1.76098e-06
0.000128391
1.10553e-05
0.000121548
2.67247e-05
0.000102515
4.98283e-05
7.34722e-05
8.12807e-05
3.6074e-05
0.00012186
-8.38006e-06
0.000172204
-5.88041e-05
0.000232787
-0.000114218
0.000303892
-0.00017366
0.00038557
-0.000236121
0.000477582
-0.000300483
0.000579328
-0.000365464
0.000689751
-0.000429555
0.000807235
-0.00049093
0.000929473
-0.000547275
0.00105354
-0.000595607
-0.000634649
0.00117939
-7.42722e-07
4.23041e-05
-3.29866e-07
9.24995e-05
3.45348e-06
0.000116349
1.24696e-05
0.000119375
2.83098e-05
0.000105708
5.23568e-05
7.84676e-05
8.58269e-05
4.00021e-05
0.000129789
-7.88843e-06
0.000185168
-6.37585e-05
0.00025273
-0.000126366
0.000333068
-0.000194556
0.000426579
-0.000267171
0.000533446
-0.000342987
0.000653611
-0.000420648
0.000786749
-0.000498602
0.000932191
-0.000574997
0.00108873
-0.000647465
0.00125383
-0.000712383
0.00142084
-0.000762615
-0.00078258
0.00156877
-1.17285e-07
4.24214e-05
2.35385e-06
9.00284e-05
9.78618e-06
0.000108917
2.41953e-05
0.000104966
4.73306e-05
8.25726e-05
8.07345e-05
4.50637e-05
0.000125775
-5.03814e-06
0.000183652
-6.57657e-05
0.00025539
-0.000135497
0.00034182
-0.000212795
0.000443559
-0.000296295
0.000561015
-0.000384627
0.000694401
-0.000476374
0.000843813
-0.00057006
0.00100937
-0.000664159
0.0011915
-0.000757127
0.00139146
-0.000847421
0.00161251
-0.000933438
0.00186361
-0.00101371
-0.00108391
0.00216493
5.3703e-07
4.18844e-05
5.23853e-06
8.53269e-05
1.66793e-05
9.74764e-05
3.70533e-05
8.4592e-05
6.82786e-05
5.13473e-05
0.00011205
1.29245e-06
0.000169855
-6.28428e-05
0.000242961
-0.000138872
0.00033239
-0.000224926
0.00043888
-0.000319286
0.000562865
-0.00042028
0.000704467
-0.000526229
0.00086353
-0.000635437
0.00103969
-0.000746219
0.0012325
-0.000856967
0.00144162
-0.000966246
0.00166711
-0.00107291
0.00190992
-0.00117625
0.00217223
-0.00127601
-0.00136505
0.00245337
1.24054e-06
4.06438e-05
8.38976e-06
7.81776e-05
2.42607e-05
8.16055e-05
5.12429e-05
5.76098e-05
9.1421e-05
1.11692e-05
0.000146613
-5.38994e-05
0.000218361
-0.000134591
0.000307891
-0.000228402
0.000416058
-0.000333094
0.000543296
-0.000446523
0.000689579
-0.000566563
0.000854425
-0.000691075
0.00103693
-0.000817939
0.00123583
-0.000945118
0.00144961
-0.00107075
0.00167664
-0.00119327
0.00191522
-0.00131149
0.00216366
-0.0014247
0.00242014
-0.00153249
-0.00162755
0.00268264
2.02375e-06
3.86201e-05
1.19005e-05
6.83009e-05
3.27032e-05
6.08028e-05
6.70206e-05
2.32924e-05
0.000117081
-3.88914e-05
0.000184766
-0.000121584
0.000271563
-0.000221388
0.000378496
-0.000335335
0.000506036
-0.000460634
0.000654048
-0.000594535
0.000821757
-0.000734272
0.00100778
-0.000877095
0.00121018
-0.00102034
0.0014266
-0.00116154
0.00165437
-0.00129853
0.00189065
-0.00142955
0.00213247
-0.00155332
0.00237682
-0.00166904
0.00262065
-0.00177633
-0.00186944
0.00286253
2.92248e-06
3.56976e-05
1.58766e-05
5.53467e-05
4.21957e-05
3.44837e-05
8.46491e-05
-1.9161e-05
0.000145556
-9.97984e-05
0.000226758
-0.000202786
0.000329529
-0.000324159
0.000454467
-0.000460272
0.000601396
-0.000607563
0.000769321
-0.00076246
0.000956444
-0.000921395
0.00116025
-0.0010809
0.00137766
-0.00123775
0.00160521
-0.00138909
0.00183925
-0.00153257
0.00207612
-0.00166642
0.00231227
-0.00178947
0.00254434
-0.00190111
0.00276929
-0.00200127
-0.00208621
0.00298606
3.97277e-06
3.17248e-05
2.04204e-05
3.88991e-05
5.2909e-05
1.99516e-06
0.000104339
-7.05912e-05
0.000177026
-0.000172485
0.000272615
-0.000298375
0.000391945
-0.00044349
0.000534917
-0.000603244
0.000700411
-0.000773057
0.000886295
-0.000948344
0.00108954
-0.00112464
0.0013064
-0.00129776
0.0015327
-0.00146405
0.00176411
-0.00162049
0.00199636
-0.00176483
0.00222555
-0.0018956
0.00244818
-0.0020121
0.00266136
-0.00211429
0.00286277
-0.00220268
-0.00227546
0.00305202
5.2061e-06
2.65187e-05
2.5615e-05
1.84902e-05
6.49638e-05
-3.73537e-05
0.000126195
-0.000131822
0.000211471
-0.000257762
0.000322029
-0.000408932
0.000457995
-0.000579456
0.000618264
-0.000763514
0.000800484
-0.000955277
0.00100118
-0.00114904
0.001216
-0.00133945
0.00144006
-0.00152183
0.00166836
-0.00169235
0.00189606
-0.0018482
0.00211888
-0.00198764
0.00233319
-0.00210991
0.0025362
-0.00221511
0.00272593
-0.00230402
0.00290121
-0.00237796
-0.00243671
0.00306245
6.64553e-06
1.98732e-05
3.15112e-05
-6.37544e-06
7.84046e-05
-8.42471e-05
0.000150171
-0.000203588
0.000248618
-0.000356209
0.000374296
-0.000534611
0.000526307
-0.000731466
0.000702235
-0.000939442
0.000898269
-0.00115131
0.0011095
-0.00136027
0.00133037
-0.00156032
0.00155515
-0.00174661
0.00177841
-0.00191561
0.00199542
-0.00206521
0.00220236
-0.00219458
0.00239647
-0.00230402
0.00257603
-0.00239467
0.00274027
-0.00246827
0.00288923
-0.00252691
-0.00257164
0.00302416
8.30344e-06
1.15698e-05
3.81197e-05
-3.61917e-05
9.31826e-05
-0.00013931
0.000176049
-0.000286454
0.000287907
-0.000468068
0.000428306
-0.00067501
0.000594995
-0.000898155
0.000784001
-0.00112845
0.000989951
-0.00135726
0.00120661
-0.00157693
0.00142749
-0.00178121
0.0016465
-0.00196561
0.00185835
-0.00212747
0.00205896
-0.00226581
0.00224547
-0.0023811
0.00241633
-0.00247488
0.00257105
-0.0025494
0.00271007
-0.00260728
0.00283443
-0.00265128
-0.00268329
0.00294609
1.01807e-05
1.38911e-06
4.54074e-05
-7.14185e-05
0.00010915
-0.000203052
0.000203429
-0.000380734
0.000328506
-0.000593144
0.000482584
-0.000829088
0.000661781
-0.00107735
0.000860423
-0.00132709
0.00107165
-0.00156849
0.0012882
-0.00179347
0.00150315
-0.00199616
0.00171059
-0.00217305
0.00190597
-0.00232285
0.00208628
-0.00244611
0.00224995
-0.00254478
0.00239672
-0.00262165
0.00252729
-0.00267997
0.00264305
-0.00272304
0.00274579
-0.00275402
-0.00277532
0.00283782
1.22666e-05
-1.08774e-05
5.32968e-05
-0.000112449
0.00012606
-0.000275815
0.000231746
-0.00048642
0.00036934
-0.000730738
0.000535387
-0.000995135
0.000724175
-0.00126614
0.000928356
-0.00153127
0.00113986
-0.00177999
0.00135086
-0.00200447
0.0015546
-0.00219991
0.00174591
-0.00236437
0.00192143
-0.00249836
0.00207948
-0.00260417
0.00221988
-0.00268517
0.00234353
-0.0027453
0.00245206
-0.00278849
0.00254749
-0.00281848
0.00263201
-0.00283854
-0.00285128
0.00270798
1.45397e-05
-2.54171e-05
6.16692e-05
-0.000159578
0.000143576
-0.000357722
0.000260285
-0.000603128
0.000409159
-0.000879613
0.000584829
-0.0011708
0.000779703
-0.00146101
0.000984972
-0.00173654
0.0011918
-0.00198682
0.00139241
-0.00220508
0.00158076
-0.00238826
0.00175291
-0.00253651
0.0019069
-0.00265235
0.0020425
-0.00273976
0.00216071
-0.00280338
0.00226335
-0.00284794
0.00235267
-0.00287781
0.002431
-0.0028968
0.00250057
-0.00290811
-0.00291431
0.0025636
1.69685e-05
-4.23857e-05
7.03679e-05
-0.000212978
0.000161286
-0.00044864
0.000288227
-0.000730069
0.000446621
-0.00103801
0.000629037
-0.00135322
0.000826133
-0.00165811
0.00102804
-0.00193844
0.00122573
-0.00218452
0.00141205
-0.0023914
0.00158218
-0.00255839
0.00173364
-0.00268798
0.00186598
-0.00278469
0.00198021
-0.00285398
0.00207827
-0.00290145
0.00216259
-0.00293226
0.00223568
-0.0029509
0.0022999
-0.00296102
0.00235734
-0.00296555
-0.00296688
0.00240991
1.95121e-05
-6.18978e-05
7.92037e-05
-0.000272669
0.000178718
-0.000548154
0.00031469
-0.000866041
0.000480379
-0.0012037
0.000666304
-0.00153915
0.000861675
-0.00185348
0.0010561
-0.00213287
0.00124097
-0.00236938
0.00141026
-0.00256069
0.00156067
-0.0027088
0.00169127
-0.00281859
0.00180295
-0.00289637
0.0018977
-0.00294874
0.0019781
-0.00298185
0.00204684
-0.003001
0.00210643
-0.00301049
0.00215909
-0.00301368
0.00220664
-0.0030131
-0.00301087
0.00225063
2.2121e-05
-8.40188e-05
8.79608e-05
-0.000338509
0.000195363
-0.000655556
0.000338783
-0.00100946
0.000509188
-0.0013741
0.000695222
-0.00172518
0.000885113
-0.00204337
0.00106854
-0.00231629
0.00123787
-0.00253871
0.00138856
-0.00271138
0.00151892
-0.00283916
0.00162948
-0.00292915
0.00172219
-0.00298907
0.00179973
-0.00302627
0.00186497
-0.00304709
0.00192063
-0.00305666
0.00196905
-0.00305892
0.00201217
-0.00305679
0.00205149
-0.00305243
-0.00304762
0.00208824
2.4738e-05
-0.000108757
9.6405e-05
-0.000410176
0.000210701
-0.000769852
0.000359664
-0.00115842
0.000531989
-0.00154643
0.000714786
-0.00190798
0.000895863
-0.00222445
0.00106556
-0.00248599
0.00121762
-0.00269077
0.00134916
-0.00284292
0.00146006
-0.00295006
0.00155203
-0.00302112
0.0016278
-0.00306484
0.00169041
-0.00308889
0.00174279
-0.00309947
0.00178748
-0.00310135
0.00182656
-0.00309799
0.00186164
-0.00309186
0.00189393
-0.00308472
-0.00307804
0.00192435
2.73002e-05
-0.000136057
0.000104294
-0.000487169
0.000224229
-0.000889787
0.000376593
-0.00131079
0.00054798
-0.00171781
0.000724441
-0.00208444
0.000893955
-0.00239396
0.00104801
-0.00264004
0.00118198
-0.00282474
0.00129466
-0.00295561
0.00138727
-0.00304266
0.00146242
-0.00309627
0.00152332
-0.00312574
0.00157311
-0.00313868
0.00161457
-0.00314094
0.00164998
-0.00313676
0.00168109
-0.0031291
0.00170921
-0.00311998
0.00173528
-0.0031108
-0.00310273
0.00175997
2.97409e-05
-0.000165798
0.000111387
-0.000568816
0.000235491
-0.00101389
0.000388975
-0.00146427
0.000556657
-0.0018855
0.000724079
-0.00225186
0.00087994
-0.00254983
0.00101723
-0.00277733
0.00113306
-0.00294057
0.00122773
-0.00305027
0.00130354
-0.00311848
0.00136373
-0.00315647
0.00141168
-0.00317369
0.00145046
-0.00317745
0.00148257
-0.00317305
0.00150997
-0.00316416
0.00153411
-0.00315324
0.00155601
-0.00314189
0.0015764
-0.00313119
-0.00312208
0.00159575
3.19922e-05
-0.00019779
0.000117461
-0.000654284
0.0002441
-0.00114053
0.000396395
-0.00161657
0.000557825
-0.00204693
0.000713993
-0.00240803
0.000854775
-0.00269061
0.000974861
-0.00289741
0.00107304
-0.00303875
0.0011509
-0.00312814
0.00121155
-0.00317912
0.00125853
-0.00320346
0.00129523
-0.00321038
0.00132446
-0.00320668
0.00134844
-0.00319702
0.00136877
-0.0031845
0.00138663
-0.0031711
0.00140281
-0.00315806
0.00141785
-0.00314622
-0.00313631
0.00143208
3.39883e-05
-0.000231779
0.000122314
-0.00074261
0.000249759
-0.00126797
0.000398629
-0.00176544
0.000551577
-0.00219987
0.0006948
-0.00255125
0.000819679
-0.00281549
0.000922666
-0.0030004
0.00100406
-0.00312014
0.00106649
-0.00319057
0.00111355
-0.00322619
0.00114891
-0.00323881
0.00117576
-0.00323723
0.00119661
-0.00322753
0.00121335
-0.00321376
0.00122728
-0.00319844
0.00123933
-0.00318314
0.00125009
-0.00316883
0.00125998
-0.00315612
-0.00314555
0.00126923
3.56718e-05
-0.00026745
0.000125791
-0.000832729
0.000252287
-0.00139447
0.000395655
-0.0019088
0.000538269
-0.00234249
0.000667365
-0.00268035
0.000776031
-0.00292415
0.000862419
-0.00308679
0.00092812
-0.00318585
0.000976505
-0.00323895
0.00101144
-0.00326113
0.00103652
-0.00326388
0.00105464
-0.00325535
0.001068
-0.0032409
0.00107814
-0.00322391
0.00108613
-0.00320643
0.00109267
-0.00318967
0.00109821
-0.00317438
0.00110307
-0.00316097
-0.00314988
0.0011074
3.69823e-05
-0.000304433
0.000127756
-0.000923503
0.000251577
-0.00151829
0.000387586
-0.00204481
0.0005184
-0.0024733
0.000632648
-0.00279459
0.000725193
-0.0030167
0.000795739
-0.00315733
0.000846917
-0.00323702
0.000882587
-0.00327462
0.000906682
-0.00328522
0.00092257
-0.00327977
0.000932849
-0.00326563
0.000939371
-0.00324742
0.000943392
-0.00322793
0.000945738
-0.00320877
0.000946953
-0.00319089
0.000947393
-0.00317482
0.000947281
-0.00316086
-0.00314933
0.000946726
3.78789e-05
-0.000342311
0.000128138
-0.00101376
0.000247652
-0.00163781
0.000374709
-0.00217187
0.000492646
-0.00259124
0.000591717
-0.00289366
0.00066853
-0.00309351
0.00072414
-0.00321294
0.000761961
-0.00327484
0.00078612
-0.00329878
0.000800452
-0.00329955
0.000808044
-0.00328736
0.00081115
-0.00326873
0.000811308
-0.00324758
0.000809518
-0.00322614
0.000806421
-0.00320568
0.000802432
-0.0031869
0.000797828
-0.00317021
0.000792775
-0.00315581
-0.0031439
0.000787352
3.83279e-05
-0.000380639
0.000126908
-0.00110234
0.000240616
-0.00175151
0.000357412
-0.00228867
0.000461747
-0.00269557
0.000545628
-0.00297754
0.000607297
-0.00315518
0.000648936
-0.00325458
0.000674501
-0.00330041
0.000688199
-0.00331248
0.000693661
-0.00330501
0.000693648
-0.00328735
0.000690081
-0.00326517
0.00068421
-0.00324171
0.000676822
-0.00321875
0.000668407
-0.00319726
0.000659285
-0.00317778
0.000649668
-0.0031606
0.000639687
-0.00314583
-0.00313361
0.000629399
3.83078e-05
-0.000418947
0.00012408
-0.00118811
0.000230649
-0.00185808
0.000336154
-0.00239417
0.000426471
-0.00278589
0.000495386
-0.00304646
0.000542621
-0.00320242
0.000571249
-0.00328321
0.000585558
-0.00331472
0.000589689
-0.00331661
0.000586999
-0.00330232
0.000579911
-0.00328026
0.000570034
-0.00325529
0.000558369
-0.00323004
0.000545524
-0.0032059
0.000531871
-0.00318361
0.000517655
-0.00316356
0.000503041
-0.00314598
0.000488137
-0.00313092
-0.00311846
0.000472986
3.78088e-05
-0.000456756
0.000119704
-0.00127001
0.000217989
-0.00195637
0.00031144
-0.00248762
0.000387575
-0.00286203
0.000441925
-0.00310081
0.000475491
-0.00323598
0.00049202
-0.00329974
0.000495953
-0.00331865
0.000491262
-0.00331192
0.000480988
-0.00329205
0.000467224
-0.0032665
0.000451298
-0.00323936
0.000434
-0.00321274
0.000415791
-0.00318769
0.000396949
-0.00316477
0.00037766
-0.00314427
0.000358057
-0.00312638
0.000338231
-0.0031111
-0.00309846
0.000318222
3.68323e-05
-0.000493588
0.000113869
-0.00134705
0.000202912
-0.00204541
0.000283788
-0.0025685
0.000345786
-0.00292402
0.00038608
-0.0031411
0.000406756
-0.00325666
0.000412027
-0.00330501
0.000406345
-0.00331297
0.000393438
-0.00329901
0.000376021
-0.00327463
0.000355876
-0.00324636
0.000334085
-0.00321757
0.000311263
-0.00318992
0.00028775
-0.00316418
0.000263749
-0.00314076
0.0002394
-0.00311992
0.000214813
-0.00310179
0.000190067
-0.00308635
-0.00307359
0.000165206
3.53904e-05
-0.000528979
0.000106686
-0.00141834
0.000185721
-0.00212445
0.00025371
-0.00263649
0.000301774
-0.00297209
0.000328594
-0.00316792
0.000337135
-0.0032652
0.000331903
-0.00329978
0.000317251
-0.00329832
0.000296618
-0.00327838
0.000272394
-0.00325041
0.000246082
-0.00322005
0.000218554
-0.00319004
0.000190279
-0.00316165
0.000161501
-0.0031354
0.000132362
-0.00311162
0.000102962
-0.00309052
7.33919e-05
-0.00307222
4.37314e-05
-0.00305669
-0.00304389
1.4027e-05
3.35043e-05
-0.000562483
9.82872e-05
-0.00148313
0.000166728
-0.00219289
0.0002217
-0.00269146
0.000256151
-0.00300654
0.00027011
-0.00318188
0.000267231
-0.00326232
0.000252165
-0.00328471
0.000229082
-0.00327523
0.000201111
-0.00325041
0.000170333
-0.00321963
0.000138005
-0.00318772
0.000104823
-0.00315686
7.11394e-05
-0.00312796
3.7122e-05
-0.00310139
2.85697e-06
-0.00307736
-3.15872e-05
-0.00305608
-6.61347e-05
-0.00303767
-0.000100704
-0.00302212
-0.00300936
-0.000135236
3.1203e-05
-0.000593686
8.88173e-05
-0.00154074
0.000146246
-0.00225031
0.000188219
-0.00273343
0.000209461
-0.00302778
0.000211182
-0.0031836
0.000197547
-0.00324869
0.000173231
-0.0032604
0.000142163
-0.00324416
0.000107159
-0.0032154
7.00129e-05
-0.00318249
3.177e-05
-0.00314947
-7.01612e-06
-0.00311808
-4.6084e-05
-0.00308889
-8.53292e-05
-0.00306214
-0.000124712
-0.00303798
-0.000164195
-0.0030166
-0.000203716
-0.00299815
-0.000243186
-0.00298265
-0.00297001
-0.000282528
2.85219e-05
-0.000622208
7.84288e-05
-0.00159065
0.000124578
-0.00229646
0.000153694
-0.00276255
0.00016219
-0.00303628
0.000152284
-0.0031737
0.000128502
-0.0032249
9.54424e-05
-0.00322734
5.67607e-05
-0.00320548
1.49598e-05
-0.0031736
-2.84215e-05
-0.0031391
-7.25181e-05
-0.00310538
-0.000116888
-0.00307371
-0.000161338
-0.00304444
-0.000205812
-0.00301767
-0.000250313
-0.00299348
-0.000294837
-0.00297207
-0.000339336
-0.00295365
-0.000383705
-0.00293828
-0.00292588
-0.000427844
2.55013e-05
-0.000647709
6.72774e-05
-0.00163242
0.000102016
-0.0023312
0.000118513
-0.00277905
0.000114762
-0.00303253
9.38239e-05
-0.00315276
6.04483e-05
-0.00319153
1.90862e-05
-0.00318597
-2.69041e-05
-0.00315949
-7.53169e-05
-0.00312519
-0.000124843
-0.00308958
-0.000174764
-0.00305546
-0.000224724
-0.00302375
-0.000274577
-0.00299459
-0.000324302
-0.00296794
-0.000373939
-0.00294384
-0.000423521
-0.00292249
-0.000473019
-0.00290416
-0.000522315
-0.00288899
-0.00287692
-0.000571268
2.21856e-05
-0.000669895
5.55181e-05
-0.00166576
7.88335e-05
-0.00235452
8.30294e-05
-0.00278324
6.75523e-05
-0.00301705
3.61513e-05
-0.00312136
-6.31206e-06
-0.00314906
-5.5591e-05
-0.0031367
-0.000108633
-0.00310645
-0.000163513
-0.00307031
-0.000219122
-0.00303397
-0.000274868
-0.00299971
-0.000330452
-0.00296816
-0.000385755
-0.00293929
-0.000440778
-0.00291292
-0.000495591
-0.00288903
-0.000550272
-0.00286781
-0.000604824
-0.00284961
-0.000659115
-0.0028347
-0.00282309
-0.000712947
1.86214e-05
-0.000688516
4.33027e-05
-0.00169044
5.52851e-05
-0.0023665
4.75591e-05
-0.00277551
2.08889e-05
-0.00299038
-2.04288e-05
-0.00308004
-7.15152e-05
-0.00309798
-0.000128367
-0.00307984
-0.000188238
-0.00304658
-0.000249464
-0.00300908
-0.000311119
-0.00297231
-0.000372708
-0.00293812
-0.000433977
-0.00290689
-0.000494812
-0.00287845
-0.000555215
-0.00285252
-0.000615276
-0.00282897
-0.000675122
-0.00280796
-0.000734805
-0.00278992
-0.000794191
-0.00277531
-0.0027643
-0.000852985
1.4857e-05
-0.000703373
3.07776e-05
-0.00170636
3.16072e-05
-0.00236733
1.23869e-05
-0.00275629
-2.49371e-05
-0.00295305
-7.5647e-05
-0.00302933
-0.000134923
-0.0030387
-0.000199032
-0.00301574
-0.000265527
-0.00298008
-0.000332989
-0.00294162
-0.000400656
-0.00290465
-0.000468122
-0.00287065
-0.000535161
-0.00283985
-0.000601652
-0.00281196
-0.000667569
-0.0027866
-0.000732998
-0.00276354
-0.000798106
-0.00274286
-0.000863012
-0.00272502
-0.000927596
-0.00271073
-0.00270047
-0.000991419
1.09413e-05
-0.000714314
1.80824e-05
-0.0017135
8.01624e-06
-0.00235726
-2.22322e-05
-0.00272605
-6.96681e-05
-0.00290562
-0.000129263
-0.00296974
-0.000196316
-0.00297165
-0.000267377
-0.00294467
-0.000340294
-0.00290717
-0.000413874
-0.00286804
-0.000487507
-0.00283101
-0.000560878
-0.00279728
-0.000633789
-0.00276694
-0.000706103
-0.00273965
-0.000777744
-0.00271496
-0.000848756
-0.00269252
-0.000919314
-0.0026723
-0.000989615
-0.00265472
-0.00105957
-0.00264077
-0.00263141
-0.00112863
6.9227e-06
-0.000721237
5.34793e-06
-0.00171192
-1.52915e-05
-0.00233662
-5.6072e-05
-0.00268527
-0.000113076
-0.00284861
-0.00018106
-0.00290175
-0.000255486
-0.00289722
-0.000333196
-0.00286696
-0.000412315
-0.00282805
-0.000491865
-0.00278849
-0.000571387
-0.00275149
-0.000650657
-0.00271801
-0.000729528
-0.00268807
-0.000807859
-0.00266132
-0.000885522
-0.00263729
-0.000962481
-0.00261557
-0.00103889
-0.00259589
-0.00111503
-0.00257857
-0.0011909
-0.00256491
-0.00255618
-0.00126613
2.84824e-06
-0.000724085
-7.30466e-06
-0.00170177
-3.81401e-05
-0.00230579
-8.89331e-05
-0.00263447
-0.000154962
-0.00278259
-0.000230845
-0.00282587
-0.000312239
-0.00281583
-0.000396277
-0.00278293
-0.000481347
-0.00274298
-0.000566673
-0.00270316
-0.000651943
-0.00266622
-0.000737046
-0.00263291
-0.000821916
-0.0026032
-0.000906455
-0.00257678
-0.000990513
-0.00255324
-0.00107398
-0.0025321
-0.00115696
-0.00251291
-0.00123984
-0.00249569
-0.00132285
-0.0024819
-0.00247244
-0.00140659
-1.23759e-06
-0.000722848
-1.97661e-05
-0.00168324
-6.03758e-05
-0.00226518
-0.000120645
-0.0025742
-0.000195153
-0.00270808
-0.000278446
-0.00274258
-0.000366394
-0.00272788
-0.000456409
-0.00269291
-0.000547125
-0.00265226
-0.000637953
-0.00261233
-0.000728729
-0.00257545
-0.000819476
-0.00254216
-0.000910271
-0.00251241
-0.00100115
-0.0024859
-0.00109205
-0.00246233
-0.00118287
-0.00244128
-0.0012736
-0.00242218
-0.00136462
-0.00240467
-0.0014565
-0.00239002
-0.00237696
-0.00155198
-5.29386e-06
-0.000717554
-3.19402e-05
-0.0016566
-8.18684e-05
-0.00221525
-0.000151068
-0.002505
-0.000233514
-0.00262563
-0.000323728
-0.00265236
-0.000417799
-0.00263381
-0.000513402
-0.00259731
-0.000609385
-0.00255628
-0.000705319
-0.0025164
-0.000801167
-0.0024796
-0.000897091
-0.00244624
-0.000993349
-0.00241615
-0.00109024
-0.00238902
-0.00118803
-0.00236454
-0.00128694
-0.00234237
-0.00138708