/*--------------------------------*- C++ -*----------------------------------*\
  =========                 |
  \\      /  F ield         | OpenFOAM: The Open Source CFD Toolbox
   \\    /   O peration     | Website:  https://openfoam.org
    \\  /    A nd           | Version:  6.0
     \\/     M anipulation  |
\*---------------------------------------------------------------------------*/
FoamFile
{
    version     2.0;
    format      ascii;
    class       volVectorField;
    location    "62";
    object      U;
}
// * * * * * * * * * * * * * * * * * * * * * * * * * * * * * * * * * * * * * //

dimensions      [0 1 -1 0 0 0 0];

internalField   nonuniform List<vector> 
8000
(
(-0.00024769 -0.00733417 -3.93157e-21)
(-0.00183869 -0.0176506 2.0993e-20)
(-0.00502789 -0.0248011 -2.55179e-20)
(-0.0089857 -0.0295876 1.94213e-20)
(-0.0132539 -0.0326464 9.44918e-21)
(-0.0175592 -0.0344836 -2.83508e-20)
(-0.0217042 -0.0354911 -2.50758e-21)
(-0.0255608 -0.0359648 -8.95231e-22)
(-0.0290582 -0.0361226 -1.46729e-20)
(-0.03217 -0.0361211 -7.94486e-21)
(-0.034903 -0.0360697 5.93428e-21)
(-0.0372893 -0.0360439 2.25686e-20)
(-0.03938 -0.0360948 -1.70871e-21)
(-0.0412384 -0.0362576 2.39035e-21)
(-0.0429363 -0.0365569 -2.26663e-20)
(-0.0445561 -0.0370112 1.39514e-20)
(-0.0461829 -0.0376338 -1.99922e-20)
(-0.047831 -0.0384325 3.02105e-20)
(-0.0494142 -0.0394147 -3.26685e-23)
(-0.0514538 -0.0405999 6.48042e-21)
(-5.29884e-05 -0.00636785 1.30123e-20)
(-0.0014631 -0.0152471 -6.63362e-20)
(-0.00466002 -0.0214221 -4.57757e-20)
(-0.00872166 -0.0256051 -3.11006e-20)
(-0.0131398 -0.0283567 -3.99385e-20)
(-0.0176121 -0.0301173 8.90208e-21)
(-0.0219219 -0.0312203 -4.6071e-20)
(-0.0259282 -0.0319103 -1.03307e-20)
(-0.0295528 -0.0323606 3.31097e-21)
(-0.032765 -0.0326888 3.45012e-20)
(-0.0355696 -0.0329707 -3.75054e-20)
(-0.0379981 -0.0332523 5.21129e-20)
(-0.0401019 -0.03356 -3.89639e-20)
(-0.0419456 -0.0339085 -4.61583e-20)
(-0.0436024 -0.0343065 -6.35641e-20)
(-0.045156 -0.0347614 4.06203e-20)
(-0.0466924 -0.0352805 -1.30032e-20)
(-0.0482304 -0.0358686 -4.76527e-20)
(-0.049694 -0.0365298 4.51045e-20)
(-0.0515732 -0.0373047 -3.3234e-20)
(5.41993e-05 -0.00531941 1.2645e-19)
(-0.00130988 -0.0126699 6.55233e-20)
(-0.00461512 -0.0178293 7.36351e-20)
(-0.0088486 -0.0214004 6.10129e-21)
(-0.0134559 -0.0238556 4.06673e-20)
(-0.0181096 -0.0255622 5.09544e-20)
(-0.0225768 -0.0267905 -9.1999e-20)
(-0.0267066 -0.027731 -4.88005e-20)
(-0.0304148 -0.0285108 -6.32711e-20)
(-0.0336673 -0.0292076 6.78671e-20)
(-0.0364676 -0.0298627 -5.17088e-20)
(-0.0388472 -0.0304924 -6.62062e-20)
(-0.0408585 -0.0310975 -2.39037e-20)
(-0.0425681 -0.0316713 2.28767e-20)
(-0.0440523 -0.0322059 -6.32711e-21)
(-0.0453978 -0.0326967 9.29502e-21)
(-0.0466944 -0.0331448 1.05932e-19)
(-0.0479685 -0.0335518 -1.48144e-20)
(-0.049155 -0.0339201 -1.07334e-19)
(-0.0507208 -0.0343112 1.40838e-19)
(6.44308e-05 -0.00418891 4.3641e-20)
(-0.00139728 -0.00992339 -6.22095e-20)
(-0.00491276 -0.0140332 -1.55866e-20)
(-0.00938369 -0.01699 2.88455e-20)
(-0.0142155 -0.0191656 8.22685e-20)
(-0.019061 -0.020847 1.80276e-19)
(-0.0236753 -0.022237 1.75974e-19)
(-0.0279003 -0.02347 1.44315e-20)
(-0.031648 -0.0246259 1.07733e-19)
(-0.034882 -0.025742 1.64709e-19)
(-0.037605 -0.0268247 -1.3165e-19)
(-0.0398487 -0.0278598 1.94631e-19)
(-0.0416668 -0.0288214 -4.3502e-20)
(-0.0431286 -0.0296799 1.1234e-20)
(-0.0443145 -0.0304085 4.57149e-20)
(-0.0453165 -0.0309889 6.04908e-20)
(-0.0462308 -0.0314138 -9.51757e-20)
(-0.0470939 -0.0316803 -7.90862e-20)
(-0.0478538 -0.0317888 -1.39994e-19)
(-0.0489636 -0.031822 2.02917e-19)
(-3.17303e-05 -0.00297863 -2.2852e-20)
(-0.00174216 -0.00701669 -2.33625e-19)
(-0.00556865 -0.0100493 -6.9047e-20)
(-0.0103375 -0.0123948 -1.68281e-19)
(-0.0154225 -0.0143117 6.34329e-20)
(-0.0204637 -0.016 -1.00243e-19)
(-0.0252093 -0.0175918 3.41161e-20)
(-0.0294977 -0.0191638 -2.11877e-19)
(-0.033239 -0.0207485 1.11471e-19)
(-0.036396 -0.0223432 -1.33139e-19)
(-0.0389709 -0.0239193 -1.18322e-19)
(-0.0409955 -0.0254316 -1.31911e-19)
(-0.0425248 -0.0268259 1.19762e-19)
(-0.0436309 -0.0280476 -1.0689e-19)
(-0.044399 -0.029048 1.49115e-19)
(-0.0449281 -0.029791 4.29052e-20)
(-0.0453235 -0.0302573 1.05837e-19)
(-0.0456348 -0.0304363 4.65169e-20)
(-0.0458259 -0.0303244 -1.83142e-19)
(-0.0463472 -0.0300251 2.96843e-19)
(-0.000243089 -0.00169381 9.99522e-20)
(-0.00235847 -0.00396489 7.99116e-21)
(-0.00659231 -0.00589972 4.12176e-20)
(-0.0117108 -0.00764061 1.44054e-19)
(-0.0170676 -0.00932142 -2.2331e-20)
(-0.0222986 -0.011049 2.33586e-19)
(-0.0271511 -0.0128822 1.03278e-19)
(-0.0314642 -0.0148399 8.63441e-21)
(-0.035149 -0.0169078 2.65556e-19)
(-0.0381686 -0.0190443 8.67509e-20)
(-0.0405249 -0.0211868 4.09885e-20)
(-0.0422495 -0.0232587 1.30554e-19)
(-0.0433983 -0.0251766 1.19324e-19)
(-0.0440455 -0.0268579 2.17185e-19)
(-0.0442815 -0.0282277 -1.94049e-19)
(-0.0442133 -0.0292271 2.72853e-19)
(-0.0439578 -0.0298185 2.60907e-21)
(-0.0435806 -0.0299781 -3.47424e-19)
(-0.0430661 -0.0296935 4.48544e-19)
(-0.0428753 -0.0290881 1.84322e-19)
(-0.000577023 -0.000343436 -5.89503e-20)
(-0.00325531 -0.000790606 -1.06547e-19)
(-0.00798441 -0.00161449 -2.22256e-19)
(-0.0134914 -0.00276032 -6.57214e-21)
(-0.0191243 -0.00422652 3.76055e-20)
(-0.0245246 -0.0060221 -2.83692e-19)
(-0.0294464 -0.00813126 -2.10283e-19)
(-0.0337346 -0.0105158 -3.01717e-20)
(-0.037304 -0.0131168 -2.65516e-19)
(-0.0401196 -0.0158559 -1.83415e-19)
(-0.0421832 -0.0186384 -5.34348e-20)
(-0.0435261 -0.0213574 -1.71635e-19)
(-0.0442033 -0.0238996 -2.90796e-21)
(-0.0442907 -0.0261514 -2.2684e-19)
(-0.0438827 -0.0280073 9.51754e-20)
(-0.0430951 -0.0293784 -1.08623e-19)
(-0.0420584 -0.0302006 8.21895e-20)
(-0.0408574 -0.0304274 -1.05513e-19)
(-0.0395024 -0.0300296 -2.98583e-19)
(-0.0384823 -0.0291471 -9.04598e-20)
(-0.00103848 0.00105897 -2.13375e-20)
(-0.00443479 0.00247461 -2.32088e-20)
(-0.00973377 0.00276645 1.85997e-19)
(-0.0156504 0.00220488 -3.02155e-19)
(-0.0215439 0.000935701 4.43851e-20)
(-0.0270735 -0.000948827 -1.7415e-19)
(-0.0320082 -0.0033581 8.258e-20)
(-0.0362042 -0.00619882 3.6983e-19)
(-0.0395838 -0.00937069 -2.38997e-20)
(-0.0421158 -0.0127625 -2.7504e-19)
(-0.0438028 -0.0162506 5.03846e-20)
(-0.0446746 -0.0197005 9.77774e-21)
(-0.0447844 -0.0229694 -5.55254e-20)
(-0.0442076 -0.0259116 6.46266e-21)
(-0.0430415 -0.0283854 4.90261e-19)
(-0.0414104 -0.0302641 -7.04653e-20)
(-0.0394596 -0.0314462 -1.3499e-19)
(-0.0372959 -0.0318493 -2.4041e-19)
(-0.0349625 -0.0314137 2.45773e-19)
(-0.032998 -0.0302893 1.05432e-19)
(-0.00162887 0.00249474 1.08929e-19)
(-0.00588977 0.00578906 -1.42156e-19)
(-0.0118147 0.00719181 2.01123e-19)
(-0.018139 0.0072033 2.02324e-19)
(-0.0242527 0.00611988 1.86646e-19)
(-0.0298452 0.00413703 3.78426e-19)
(-0.0347098 0.00141913 2.44426e-19)
(-0.0387204 -0.00188848 -5.24629e-19)
(-0.0418113 -0.00564853 2.67895e-19)
(-0.0439575 -0.00972197 2.09668e-19)
(-0.0451634 -0.0139619 -2.7795e-21)
(-0.0454571 -0.0182104 2.33465e-19)
(-0.044889 -0.0222985 1.8117e-19)
(-0.0435316 -0.0260481 -9.9123e-20)
(-0.0414831 -0.0292783 3.31569e-19)
(-0.0388745 -0.0318165 -4.10963e-19)
(-0.0358666 -0.0335104 1.6329e-19)
(-0.0325908 -0.0342239 2.09269e-19)
(-0.02913 -0.0338467 -4.88927e-20)
(-0.0261011 -0.0325261 4.1632e-19)
(-0.00234492 0.00393971 2.17637e-19)
(-0.00760174 0.00910019 1.12031e-20)
(-0.0141845 0.0115977 -7.82925e-20)
(-0.020886 0.0121708 -8.29102e-20)
(-0.0271481 0.0112698 -3.82899e-19)
(-0.0327039 0.00919378 5.40509e-20)
(-0.0373804 0.00617891 1.53404e-19)
(-0.0410765 0.00241881 -7.35179e-20)
(-0.0437431 -0.00191748 6.05973e-20)
(-0.0453651 -0.00666948 -1.64042e-20)
(-0.0459506 -0.0116738 -7.90893e-20)
(-0.0455271 -0.0167565 7.47316e-20)
(-0.044141 -0.0217282 -3.23952e-19)
(-0.0418605 -0.0263823 3.10244e-19)
(-0.0387819 -0.0304983 -2.67172e-19)
(-0.0350407 -0.0338514 8.28738e-20)
(-0.0308123 -0.0362252 1.85751e-19)
(-0.0262537 -0.037408 -3.96415e-20)
(-0.0214942 -0.0372097 -1.2848e-19)
(-0.0172659 -0.0357539 -8.65669e-20)
(-0.00317769 0.00536443 -2.70546e-19)
(-0.00953924 0.0123448 -1.79787e-20)
(-0.0167824 0.015907 5.69909e-20)
(-0.023797 0.0170292 1.46758e-19)
(-0.0300985 0.0163153 -2.07272e-19)
(-0.035477 0.014167 -1.80807e-19)
(-0.0398029 0.0108898 4.21624e-19)
(-0.0430073 0.00672156 -2.32998e-19)
(-0.0450633 0.00185777 -1.50062e-19)
(-0.04597 -0.00352641 -2.14697e-19)
(-0.0457427 -0.0092594 1.41851e-19)
(-0.0444103 -0.0151603 -4.51143e-21)
(-0.0420164 -0.0210291 -2.64224e-19)
(-0.0386242 -0.026639 -4.29321e-19)
(-0.0343257 -0.0317351 3.26685e-19)
(-0.0292586 -0.0360391 -2.62217e-19)
(-0.0236109 -0.0392605 3.7133e-19)
(-0.0175638 -0.0410878 -1.04615e-19)
(-0.011297 -0.0412126 2.13975e-19)
(-0.00570455 -0.0397023 -7.32555e-19)
(-0.00411199 0.00673507 -5.46623e-19)
(-0.0116571 0.0154502 3.58861e-19)
(-0.0195289 0.0200303 4.89114e-20)
(-0.0267546 0.0216853 9.42106e-21)
(-0.032944 0.0211694 -2.21662e-19)
(-0.0379565 0.0189845 3.25953e-19)
(-0.0417154 0.0155025 3.5581e-20)
(-0.0441906 0.0110022 -6.67808e-20)
(-0.0453836 0.00570112 -2.13818e-19)
(-0.0453125 -0.000217101 2.31057e-19)
(-0.0440048 -0.00658079 5.84023e-19)
(-0.0414951 -0.0132127 -1.29169e-19)
(-0.0378277 -0.0199143 2.9009e-19)
(-0.0330624 -0.0264529 -3.41106e-19)
(-0.0272873 -0.0325511 -3.25075e-19)
(-0.0206398 -0.0378856 1.95859e-19)
(-0.0133185 -0.0420891 3.19557e-19)
(-0.00552493 -0.0447302 -1.03295e-18)
(0.00251342 -0.0453358 1.23004e-19)
(0.00968376 -0.0438724 1.64557e-19)
(-0.00512626 0.00801504 4.04533e-19)
(-0.0138966 0.0183374 1.32874e-19)
(-0.0223275 0.0238675 6.94691e-19)
(-0.0296208 0.0260317 3.57684e-20)
(-0.0354996 0.0257268 -7.73138e-20)
(-0.0399036 0.0235515 -3.68136e-19)
(-0.0428167 0.0199417 3.13138e-19)
(-0.0442539 0.0152148 5.6115e-19)
(-0.0442504 0.00960752 3.73337e-19)
(-0.0428492 0.00330816 2.69037e-19)
(-0.0400958 -0.00351779 2.31264e-19)
(-0.0360372 -0.0107061 -4.15088e-19)
(-0.0307249 -0.0180737 -1.29287e-19)
(-0.0242217 -0.025399 -9.47865e-20)
(-0.0166148 -0.0324031 1.01405e-18)
(-0.0080432 -0.0387374 -5.06214e-21)
(0.00128529 -0.0439713 -2.49523e-19)
(0.0111552 -0.047546 -7.54564e-20)
(0.0213038 -0.048777 7.1182e-19)
(0.0303385 -0.047474 9.50262e-20)
(-0.0061933 0.00916734 -2.00189e-20)
(-0.0161873 0.0209243 -3.83148e-19)
(-0.0250667 0.0273121 -5.70476e-19)
(-0.0322403 0.029949 -1.58853e-19)
(-0.0375603 0.0298643 8.76621e-20)
(-0.041055 0.0277489 1.89368e-20)
(-0.0427751 0.0241004 5.0067e-19)
(-0.0427857 0.0192739 -6.20965e-19)
(-0.04116 0.0135255 -2.36113e-19)
(-0.0379712 0.00704731 -4.75012e-19)
(-0.0332897 -3.46098e-06 -4.0368e-19)
(-0.0271834 -0.00748126 -3.56436e-19)
(-0.0197212 -0.0152292 8.90795e-20)
(-0.0109795 -0.0230546 -1.15097e-19)
(-0.00105502 -0.0307027 4.90028e-19)
(0.009905 -0.0378325 -2.69595e-19)
(0.0216795 -0.0439842 -8.33898e-19)
(0.0340451 -0.0484898 -1.64175e-19)
(0.0467321 -0.0504219 4.06926e-19)
(0.0580148 -0.0493771 -3.52633e-19)
(-0.00728156 0.0101574 -6.45706e-20)
(-0.0184491 0.0231315 4.6835e-19)
(-0.0276232 0.0302561 -5.97817e-19)
(-0.0344446 0.0333113 1.38187e-19)
(-0.0389059 0.0334453 -2.84974e-19)
(-0.0411303 0.0314356 6.34814e-19)
(-0.0412388 0.0278394 -4.5365e-19)
(-0.0393499 0.0230502 5.18747e-19)
(-0.0355779 0.0173457 -4.91818e-19)
(-0.0300308 0.0109256 2.09312e-19)
(-0.0228101 0.00394188 -1.01826e-19)
(-0.0140143 -0.00347737 -2.54533e-19)
(-0.00374307 -0.0112048 -3.13203e-19)
(0.00789785 -0.0190885 3.11283e-19)
(0.0207846 -0.0269215 -2.59616e-19)
(0.0347455 -0.0344092 -5.63125e-19)
(0.0495325 -0.0411177 5.8428e-19)
(0.0649131 -0.0463258 -7.40116e-19)
(0.0806568 -0.0488692 3.29813e-19)
(0.0946863 -0.0480992 5.06393e-21)
(-0.00835706 0.010956 -5.84894e-19)
(-0.0205957 0.0248875 -6.32356e-19)
(-0.0298656 0.0325975 7.28737e-20)
(-0.0360553 0.0359935 -6.1086e-19)
(-0.0393055 0.0363275 -5.45875e-20)
(-0.0398371 0.0344568 -4.49656e-19)
(-0.0378439 0.0309954 -1.03185e-19)
(-0.0334985 0.0263765 -3.01522e-19)
(-0.0269583 0.0209035 2.48246e-21)
(-0.0183688 0.0147906 -1.31891e-19)
(-0.00786873 0.00819337 8.89408e-21)
(0.00440324 0.00123147 -3.78429e-19)
(0.0183028 -0.00599007 4.15104e-19)
(0.0336744 -0.0133585 -5.88491e-19)
(0.0503424 -0.0207255 2.06811e-19)
(0.0680833 -0.0278738 6.75674e-21)
(0.0865935 -0.0344584 -3.26693e-19)
(0.10561 -0.0397992 8.03149e-19)
(0.124997 -0.0425658 -1.92212e-19)
(0.142389 -0.0418905 -1.22153e-19)
(-0.0093855 0.0115416 6.56903e-19)
(-0.0225375 0.0261342 3.5503e-19)
(-0.0316562 0.0342476 3.30549e-19)
(-0.0368854 0.037882 4.94009e-20)
(-0.0385175 0.0383763 4.47405e-19)
(-0.0368721 0.0366596 6.45241e-19)
(-0.032216 0.0333991 5.28687e-19)
(-0.0247762 0.0290682 4.70721e-20)
(-0.0147536 0.0240006 3.86826e-19)
(-0.00233332 0.0184333 5.97394e-19)
(0.0123038 0.0125371 -1.54852e-19)
(0.0289706 0.00643894 2.5958e-19)
(0.0474638 0.000239299 2.09715e-19)
(0.0675571 -0.0059708 2.12862e-19)
(0.088994 -0.0120896 1.2468e-18)
(0.111463 -0.0179826 -4.66643e-19)
(0.13456 -0.023438 -2.81467e-20)
(0.157936 -0.0279306 5.31305e-19)
(0.181584 -0.0301022 -2.99316e-19)
(0.203052 -0.0289621 1.47099e-19)
(-0.0103341 0.0119021 -5.31558e-19)
(-0.0241831 0.0268313 3.42117e-20)
(-0.032851 0.0351389 -4.26465e-19)
(-0.036737 0.0388853 -5.56872e-20)
(-0.0362856 0.0394799 3.12564e-19)
(-0.0319149 0.0379137 -9.30663e-19)
(-0.0239641 0.0349023 -5.81547e-22)
(-0.0127145 0.0309578 4.33179e-19)
(0.00158882 0.0264474 4.07055e-19)
(0.0187186 0.0216375 -1.79145e-19)
(0.0384475 0.016726 5.88429e-20)
(0.0605316 0.0118644 1.36686e-19)
(0.0846958 0.00717295 -6.49707e-20)
(0.110622 0.00275261 -7.20746e-19)
(0.137942 -0.00130362 1.82725e-19)
(0.16621 -0.00490621 4.96083e-19)
(0.194862 -0.00796454 -7.04427e-19)
(0.22336 -0.0101783 3.42869e-19)
(0.251801 -0.0102918 9.09219e-20)
(0.278046 -0.00730713 4.53429e-19)
(-0.0111724 0.0120347 -7.875e-20)
(-0.0254404 0.0269587 -3.72989e-19)
(-0.0332982 0.0352314 1.71725e-19)
(-0.0353964 0.0389463 8.4994e-22)
(-0.0323305 0.0395666 -7.49485e-19)
(-0.0246165 0.0381357 1.16869e-19)
(-0.0126661 0.0354101 -2.22679e-20)
(0.00318407 0.0319372 1.51513e-19)
(0.0226421 0.0281167 -6.93351e-19)
(0.0454343 0.0242473 -4.82498e-20)
(0.071281 0.0205611 -1.62124e-19)
(0.0998744 0.017247 1.44876e-19)
(0.130858 0.0144678 4.8596e-19)
(0.163811 0.0123729 -7.53646e-20)
(0.198225 0.0111079 2.8864e-20)
(0.233473 0.01081 1.88754e-19)
(0.268732 0.0115743 -4.68146e-20)
(0.303083 0.01362 3.7326e-19)
(0.336463 0.0182753 -2.20693e-19)
(0.367402 0.0264645 -3.40262e-19)
(-0.0118724 0.0119453 7.2877e-20)
(-0.0262143 0.0265167 1.76815e-20)
(-0.032833 0.0345167 1.49638e-19)
(-0.0326261 0.0380503 3.66824e-19)
(-0.0263389 0.0386202 2.06026e-19)
(-0.0145857 0.0373111 2.15941e-20)
(0.00214684 0.0349118 -2.46324e-19)
(0.0234618 0.031998 6.31102e-20)
(0.0490126 0.0289962 3.31976e-19)
(0.0784694 0.0262326 -5.62346e-19)
(0.11149 0.023969 4.23868e-19)
(0.147697 0.0224297 -3.18914e-19)
(0.186658 0.0218236 2.6953e-19)
(0.227866 0.0223649 -5.79731e-19)
(0.270724 0.0242956 6.34653e-19)
(0.314498 0.0278984 -6.77186e-19)
(0.35819 0.0334917 -1.74276e-19)
(0.40049 0.0416848 5.41842e-19)
(0.440377 0.0546018 -1.85109e-19)
(0.47466 0.0729856 7.71825e-20)
(-0.012407 0.0116462 -5.52275e-20)
(-0.0264029 0.0255247 5.21196e-19)
(-0.0312718 0.0330198 -2.05101e-21)
(-0.0281564 0.036232 -3.23789e-19)
(-0.0179529 0.0366909 -2.18135e-19)
(-0.00137763 0.0355115 3.9953e-19)
(0.0210002 0.0335048 -1.58311e-19)
(0.0487098 0.0312643 -1.99537e-20)
(0.0813312 0.0292314 3.29984e-19)
(0.118454 0.0277448 -4.09975e-19)
(0.159648 0.0270755 4.45862e-20)
(0.204443 0.0274549 -5.31184e-19)
(0.252318 0.0290982 2.78544e-19)
(0.302706 0.0322308 -7.94727e-19)
(0.355011 0.0371206 1.25981e-18)
(0.408624 0.0441206 -2.31349e-19)
(0.462966 0.0537681 2.35484e-19)
(0.517752 0.0672914 -6.13376e-19)
(0.573346 0.0875782 6.93132e-21)
(0.621778 0.111339 6.75429e-19)
(-0.0127469 0.011153 -1.67388e-19)
(-0.0258929 0.0240174 1.44639e-19)
(-0.0284061 0.0307974 -5.3275e-19)
(-0.0216793 0.0335769 7.88298e-19)
(-0.0067649 0.0339008 -5.69452e-19)
(0.0155087 0.0329037 2.94134e-20)
(0.0444722 0.0314073 -6.14838e-19)
(0.0795545 0.0300092 4.39655e-19)
(0.120224 0.0291493 -6.2832e-20)
(0.165942 0.0291556 -3.87518e-19)
(0.216133 0.0302768 -2.25425e-19)
(0.27017 0.0327056 2.38818e-19)
(0.327374 0.0365976 1.56826e-19)
(0.387037 0.0420864 -6.91239e-19)
(0.448456 0.0492986 2.50421e-19)
(0.510985 0.0583622 -3.64824e-19)
(0.5741 0.0694227 4.36255e-20)
(0.637604 0.0828122 -3.0431e-19)
(0.702108 0.0995536 1.19685e-19)
(0.760887 0.116328 -4.48706e-19)
(-0.0128573 0.0104821 4.76432e-19)
(-0.0245537 0.0220414 -2.8857e-19)
(-0.0239975 0.0279358 2.37855e-19)
(-0.0128457 0.03022 -3.00484e-19)
(0.00768004 0.0304428 5.03785e-19)
(0.0366194 0.0297478 -8.7854e-21)
(0.0731712 0.0289539 -6.14095e-20)
(0.116618 0.0286466 -4.54947e-20)
(0.166256 0.0292429 2.80289e-19)
(0.221345 0.0310332 4.76115e-19)
(0.281081 0.0342102 -2.80896e-19)
(0.344588 0.0388887 2.7256e-19)
(0.410937 0.04512 4.95381e-19)
(0.479179 0.0529027 -3.47447e-19)
(0.548387 0.0621889 -6.98078e-19)
(0.617715 0.0728828 1.27116e-18)
(0.686449 0.0848275 -2.27518e-19)
(0.754079 0.0978353 -7.27912e-20)
(0.820636 0.112128 7.67682e-19)
(0.881611 0.127056 -1.66938e-19)
(-0.0126948 0.00964917 -7.75624e-19)
(-0.0222333 0.0196522 -5.16246e-19)
(-0.0177764 0.0245465 -1.98253e-19)
(-0.00127058 0.0263405 3.82641e-19)
(0.0258695 0.0265736 -8.64249e-19)
(0.0625166 0.0263857 4.47944e-19)
(0.107687 0.026576 5.68093e-20)
(0.160445 0.0276962 5.75774e-20)
(0.219832 0.0301128 -5.86674e-19)
(0.284808 0.0340458 -2.06836e-19)
(0.354242 0.0395949 -3.63811e-19)
(0.426921 0.0467593 3.50878e-19)
(0.501586 0.0554537 9.82331e-20)
(0.576988 0.0655222 1.82423e-20)
(0.651944 0.076748 4.48315e-19)
(0.725395 0.0888585 -4.56135e-19)
(0.796448 0.101522 -1.83717e-20)
(0.864409 0.114358 1.34982e-20)
(0.928918 0.127187 6.34934e-20)
(0.987669 0.141401 3.38099e-19)
(-0.0122047 0.00866823 2.46934e-19)
(-0.0187564 0.0169126 6.3584e-19)
(-0.00944553 0.0207634 5.10251e-19)
(0.0134546 0.0221563 -1.75989e-19)
(0.0482973 0.0226034 6.12616e-19)
(0.0937332 0.0232233 -5.1688e-20)
(0.148518 0.0247719 -7.27017e-20)
(0.211405 0.0277367 4.34941e-20)
(0.281066 0.0323969 5.92411e-19)
(0.356057 0.0388603 3.47865e-19)
(0.434824 0.0470915 1.01679e-19)
(0.515745 0.0569376 6.77025e-21)
(0.597203 0.0681519 -6.6642e-19)
(0.677661 0.0804187 5.79069e-19)
(0.755733 0.093374 9.77426e-20)
(0.830248 0.106623 -1.62546e-19)
(0.900279 0.119752 -6.91918e-19)
(0.965164 0.132354 -5.58412e-20)
(1.02447 0.14403 2.68776e-19)
(1.0778 0.157435 -5.3337e-20)
(-0.0113193 0.00755273 -6.26192e-19)
(-0.0139253 0.0138935 2.61962e-19)
(0.00131207 0.0167413 -1.27928e-18)
(0.0317421 0.0179187 5.24281e-19)
(0.0754272 0.0188843 -4.18222e-19)
(0.130714 0.0207095 3.08263e-19)
(0.195993 0.024073 -4.79214e-19)
(0.269581 0.0293553 4.41819e-20)
(0.349663 0.0366992 -2.4683e-20)
(0.434281 0.0460503 1.28627e-19)
(0.52139 0.0571933 1.84836e-19)
(0.608944 0.0697907 -3.49168e-19)
(0.695006 0.0834224 1.85235e-19)
(0.777848 0.097624 1.68768e-19)
(0.856029 0.111921 7.20258e-19)
(0.928443 0.125858 -3.14644e-19)
(0.994335 0.139016 -2.0449e-19)
(1.05329 0.151047 3.42055e-19)
(1.10513 0.161523 1.77269e-19)
(1.1506 0.173599 -3.4147e-19)
(-0.00995906 0.00631773 5.48141e-19)
(-0.0075251 0.0106772 5.28304e-19)
(0.0148196 0.0126566 1.52615e-19)
(0.0539816 0.0139083 6.42588e-19)
(0.10765 0.0157991 3.15822e-19)
(0.173754 0.0193151 -5.69648e-19)
(0.250186 0.0250091 8.62529e-19)
(0.334688 0.033097 -4.2431e-19)
(0.424834 0.0435253 4.23136e-19)
(0.51808 0.0560222 5.46217e-19)
(0.611878 0.0701521 -3.12003e-19)
(0.703819 0.0853754 5.94134e-20)
(0.791777 0.101106 3.27835e-19)
(0.874013 0.116767 2.29597e-19)
(0.949239 0.13183 5.24045e-19)
(1.01664 0.145845 -2.11937e-19)
(1.07583 0.158459 -2.78897e-20)
(1.12682 0.169435 3.22149e-19)
(1.16986 0.17846 -7.0299e-20)
(1.20638 0.188662 -2.84744e-22)
(-0.00803408 0.00498299 -2.829e-19)
(0.000668945 0.00736158 -1.0393e-18)
(0.0313894 0.00870965 2.44814e-19)
(0.0805107 0.0104322 -1.86421e-19)
(0.145236 0.0137508 -4.30492e-19)
(0.222939 0.0195111 -3.07625e-19)
(0.310852 0.0280737 -1.89784e-19)
(0.406006 0.0394188 4.60856e-19)
(0.505275 0.0532292 -2.73516e-19)
(0.605512 0.0689655 -2.80343e-19)
(0.703742 0.0859482 -3.52443e-19)
(0.797351 0.103443 -5.81159e-20)
(0.884237 0.120737 -4.05367e-20)
(0.962889 0.137202 -8.04761e-19)
(1.03241 0.152327 3.86084e-19)
(1.09248 0.165746 -5.08306e-19)
(1.14323 0.177233 1.55867e-19)
(1.1852 0.186698 -1.18912e-18)
(1.21911 0.194027 3.59209e-19)
(1.2467 0.202007 4.46287e-19)
(-0.00544804 0.00357634 -7.10758e-20)
(0.01088 0.00406569 5.06467e-19)
(0.0513026 0.00512747 3.25224e-20)
(0.111583 0.00782169 7.81539e-20)
(0.188298 0.0131513 -1.58852e-19)
(0.278095 0.0217466 -2.78977e-21)
(0.377388 0.0336924 -3.97448e-21)
(0.482381 0.0486511 -9.55963e-20)
(0.589219 0.0659787 3.39744e-19)
(0.694235 0.0848356 1.30862e-19)
(0.794203 0.104305 5.92298e-19)
(0.886547 0.1235 -1.6111e-19)
(0.969459 0.141653 1.11679e-19)
(1.04192 0.158166 -1.37086e-20)
(1.10362 0.172631 3.07304e-19)
(1.15486 0.18483 1.86005e-19)
(1.19638 0.194711 4.43135e-19)
(1.2292 0.202347 -7.13034e-19)
(1.25448 0.207834 8.90794e-19)
(1.27404 0.213509 -2.81551e-19)
(-0.00210255 0.00213667 -6.59491e-19)
(0.0233171 0.000934219 -2.06059e-19)
(0.0747874 0.00216614 1.60884e-19)
(0.147336 0.006428 1.01455e-19)
(0.236748 0.0144087 1.04292e-19)
(0.33876 0.0264266 1.05268e-19)
(0.448826 0.0421927 -2.64119e-19)
(0.562266 0.0609701 -1.08494e-19)
(0.67457 0.0817416 3.40309e-20)
(0.781733 0.103369 -3.21549e-19)
(0.880552 0.124743 -1.44541e-19)
(0.968793 0.144908 8.72411e-19)
(1.04522 0.163133 -2.25381e-19)
(1.10952 0.178944 -3.07361e-19)
(1.16211 0.192111 -1.43611e-19)
(1.20394 0.20261 1.00638e-19)
(1.23628 0.210579 1.19822e-19)
(1.26059 0.21625 -5.73558e-19)
(1.27829 0.219895 8.24042e-19)
(1.29118 0.223403 -7.1214e-19)
(0.00209764 0.000716217 -7.43392e-20)
(0.038161 -0.0018597 2.12436e-20)
(0.101997 0.000110183 -2.7331e-20)
(0.187766 0.00661543 3.98074e-19)
(0.290275 0.0179115 2.21142e-20)
(0.404176 0.0338889 1.46023e-19)
(0.523867 0.0537808 -3.03752e-19)
(0.64383 0.0763845 -1.09125e-20)
(0.759077 0.100298 4.20485e-19)
(0.865564 0.12413 5.81348e-20)
(0.960445 0.146668 -3.64189e-19)
(1.04214 0.166994 -3.19847e-20)
(1.11021 0.184521 -2.9552e-19)
(1.16518 0.198981 2.95319e-19)
(1.20819 0.210368 4.05603e-19)
(1.24079 0.218874 -4.45201e-20)
(1.26469 0.224813 -5.33751e-20)
(1.28158 0.228548 1.62504e-19)
(1.29302 0.230472 -5.17695e-19)
(1.30071 0.232092 4.56892e-19)
(0.00723933 -0.000618309 7.49727e-20)
(0.0555501 -0.00411425 -4.82666e-19)
(0.132989 -0.000731685 1.29127e-19)
(0.232704 0.00874973 -4.00904e-19)
(0.348332 0.0240096 1.37949e-19)
(0.473306 0.0443817 -5.11511e-19)
(0.60096 0.0685262 2.06178e-19)
(0.725095 0.094741 -6.57273e-20)
(0.840551 0.121276 -2.72061e-21)
(0.943607 0.14658 6.65509e-20)
(1.03212 0.169461 -2.41954e-19)
(1.10542 0.189156 -3.43751e-19)
(1.16402 0.205315 -6.96924e-20)
(1.20925 0.217933 -3.12683e-20)
(1.24295 0.227247 -7.90897e-20)
(1.2671 0.233649 -2.55224e-20)
(1.28367 0.237597 -7.63745e-20)
(1.29445 0.23954 -6.59439e-20)
(1.30097 0.239941 -1.93829e-19)
(1.30478 0.24 3.05464e-19)
(0.0133954 -0.00178574 1.79702e-19)
(0.0755663 -0.0056018 -1.99546e-19)
(0.167706 -3.50899e-05 4.29442e-19)
(0.281799 0.0131823 -1.85501e-19)
(0.410147 0.0329933 4.95616e-19)
(0.544887 0.0580456 7.37003e-21)
(0.678405 0.086359 2.48407e-19)
(0.804107 0.115748 -6.67268e-20)
(0.917052 0.144206 2.76319e-19)
(1.01423 0.170154 1.94304e-20)
(1.09451 0.192559 6.52864e-19)
(1.15827 0.210924 -4.49569e-19)
(1.20699 0.225201 6.10173e-20)
(1.24277 0.235666 1.15456e-19)
(1.26793 0.242789 5.95286e-19)
(1.28473 0.247122 -2.13508e-19)
(1.29525 0.249222 -4.20085e-20)
(1.3012 0.24958 -2.1959e-19)
(1.30402 0.248684 -2.21853e-20)
(1.30506 0.247497 1.09131e-19)
(0.0206196 -0.00269168 -8.59234e-20)
(0.0982226 -0.00607493 2.48593e-19)
(0.205963 0.00252735 -2.5495e-19)
(0.334523 0.0202314 1.00417e-19)
(0.474741 0.0450737 -1.20442e-19)
(0.6175 0.0749039 4.4121e-19)
(0.754478 0.107081 -6.16583e-20)
(0.879088 0.139013 1.50391e-19)
(0.987039 0.168577 -8.8865e-20)
(1.07639 0.194327 -2.4542e-21)
(1.1472 0.215515 1.00149e-19)
(1.20097 0.231991 -7.73206e-20)
(1.24005 0.24404 1.99999e-19)
(1.26711 0.25221 -9.9849e-20)
(1.2848 0.25716 -4.34093e-19)
(1.2955 0.259557 4.30192e-19)
(1.30119 0.260006 -1.92313e-19)
(1.30347 0.259 1.53247e-19)
(1.30361 0.257024 2.63472e-19)
(1.30273 0.25486 1.07646e-19)
(0.0289414 -0.00323079 2.13943e-19)
(0.123453 -0.00527516 -4.40857e-19)
(0.247441 0.00727034 8.42061e-20)
(0.390172 0.030162 -6.1221e-20)
(0.540982 0.060367 -2.47084e-19)
(0.689662 0.094863 -1.93559e-19)
(0.827558 0.130392 -3.81603e-20)
(0.94856 0.16409 -3.43789e-19)
(1.04945 0.193898 -2.08559e-20)
(1.1296 0.218657 -6.35861e-20)
(1.19036 0.23801 -1.71893e-19)
(1.23427 0.2522 -3.83223e-20)
(1.26438 0.261837 -1.30679e-19)
(1.28376 0.2677 -2.16289e-19)
(1.29518 0.270589 2.2026e-19)
(1.30097 0.271231 2.94442e-20)
(1.30295 0.270237 5.85805e-20)
(1.30253 0.268075 -2.50394e-19)
(1.30076 0.265209 -6.83247e-21)
(1.29858 0.262273 -3.81272e-19)
(0.038362 -0.00329009 2.33975e-19)
(0.151105 -0.0029439 1.56132e-19)
(0.291687 0.0144787 -2.52037e-19)
(0.447898 0.0431685 3.93356e-19)
(0.60764 0.0788863 -4.25621e-20)
(0.75992 0.117723 1.46665e-19)
(0.896229 0.155918 5.07251e-20)
(1.01142 0.190525 1.79019e-19)
(1.10368 0.219733 -1.40168e-19)
(1.17387 0.242809 4.64149e-20)
(1.22456 0.259857 -4.44777e-20)
(1.25918 0.271516 -1.91971e-20)
(1.28128 0.278686 3.68726e-20)
(1.29413 0.282324 -6.74344e-20)
(1.30045 0.283312 -2.0401e-20)
(1.30241 0.282394 -6.25965e-20)
(1.30162 0.280152 -1.01328e-19)
(1.29925 0.277008 6.56104e-20)
(1.29617 0.273402 -8.86349e-20)
(1.29314 0.269843 3.83151e-19)
(0.0488502 -0.00275305 -1.16626e-19)
(0.180938 0.00116533 -3.30694e-19)
(0.338125 0.0243903 -4.39537e-20)
(0.506742 0.0593604 -1.21466e-20)
(0.67346 0.100542 -1.48041e-19)
(0.826937 0.1432 -2.42812e-19)
(0.95935 0.18325 7.9218e-20)
(1.06695 0.217885 -1.08809e-19)
(1.14958 0.245721 -1.21394e-19)
(1.20957 0.266553 6.73684e-20)
(1.25062 0.280971 -5.07607e-20)
(1.27682 0.289983 -1.02038e-19)
(1.29201 0.294727 -2.96353e-21)
(1.29946 0.296276 6.90206e-20)
(1.30174 0.295542 -6.95037e-20)
(1.30079 0.293247 9.65781e-20)
(1.29798 0.289922 2.61949e-20)
(1.29425 0.285932 6.49358e-20)
(1.2903 0.2817 1.25132e-19)
(1.28671 0.277613 -1.06856e-19)
(0.0603403 -0.0015043 1.11279e-19)
(0.212623 0.00727413 -9.63649e-21)
(0.386073 0.0371811 5.00961e-20)
(0.565678 0.0787546 -6.7798e-20)
(0.737225 0.125149 5.75249e-21)
(0.889563 0.170946 2.34784e-19)
(1.01609 0.211974 -1.53995e-19)
(1.1148 0.245788 6.50151e-20)
(1.1873 0.271585 5.71796e-20)
(1.23733 0.289748 -1.60082e-19)
(1.26947 0.301341 1.49949e-19)
(1.28827 0.307694 1.35527e-21)
(1.29766 0.310113 -1.04613e-19)
(1.30077 0.309731 1.25874e-19)
(1.29994 0.307448 -4.95995e-20)
(1.29683 0.303934 3.78192e-20)
(1.29258 0.299655 -4.24221e-20)
(1.28792 0.294923 -1.70662e-20)
(1.28341 0.290141 -1.45845e-19)
(1.27947 0.285582 4.45552e-20)
(0.0727314 0.000565207 -3.73706e-20)
(0.245752 0.0155669 1.00561e-19)
(0.434766 0.0529534 1.57316e-20)
(0.623665 0.101274 6.57236e-20)
(0.79782 0.152443 3.1351e-20)
(0.946866 0.200578 1.47047e-20)
(1.0659 0.241689 8.29938e-20)
(1.15493 0.273909 -1.00651e-20)
(1.21726 0.297122 3.63806e-20)
(1.25788 0.312319 5.82514e-20)
(1.28205 0.321001 2.79482e-20)
(1.29452 0.32475 1.99805e-20)
(1.29916 0.32498 8.08078e-20)
(1.29886 0.322828 -7.81395e-20)
(1.29569 0.319149 1.67016e-20)
(1.29102 0.314545 -1.54596e-20)
(1.28577 0.30941 2.40731e-20)
(1.28051 0.304006 2.00878e-20)
(1.27565 0.298724 4.1521e-20)
(1.27152 0.293719 1.70557e-21)
(0.0858879 0.00355299 2.21746e-20)
(0.279846 0.0261798 2.02288e-20)
(0.483394 0.0717279 -2.80127e-20)
(0.679688 0.126753 1.74993e-20)
(0.854269 0.182096 9.86038e-21)
(0.998155 0.231697 -3.07062e-20)
(1.10854 0.272028 1.00891e-20)
(1.18751 0.301976 1.8524e-21)
(1.24001 0.322184 1.73085e-20)
(1.27202 0.334235 -4.634e-20)
(1.28923 0.340002 -1.10383e-22)
(1.29642 0.341249 1.27098e-20)
(1.29726 0.339436 -1.0129e-20)
(1.29436 0.335664 1.0244e-20)
(1.28946 0.330717 2.65008e-20)
(1.2837 0.32512 -1.49931e-20)
(1.27778 0.319199 4.22742e-21)
(1.27215 0.313169 1.62834e-20)
(1.2671 0.307416 -2.67284e-20)
(1.26288 0.30197 1.28579e-20)
(0.0996427 0.00754001 6.1542e-20)
(0.314375 0.0391922 -3.35106e-20)
(0.531126 0.0934411 3.94683e-20)
(0.732807 0.154945 -2.93564e-20)
(0.90577 0.213735 -1.31337e-20)
(1.04297 0.263905 3.9987e-21)
(1.14395 0.302654 -1.28461e-20)
(1.21289 0.329767 4.60932e-20)
(1.25617 0.34667 -3.82854e-20)
(1.28048 0.355487 8.9845e-21)
(1.29176 0.358393 -6.68676e-21)
(1.29466 0.357265 -4.31743e-20)
(1.29255 0.353553 4.17687e-20)
(1.28769 0.348292 1.57942e-20)
(1.28157 0.34218 -1.56919e-20)
(1.27507 0.335663 3.66582e-20)
(1.26875 0.329 -6.00968e-22)
(1.26292 0.322372 -3.52404e-20)
(1.2578 0.316161 2.59863e-20)
(1.25357 0.310269 8.0927e-21)
(0.1138 0.0125862 -2.15858e-20)
(0.348771 0.0546201 6.24331e-20)
(0.577148 0.117947 7.21614e-20)
(0.782182 0.185534 -3.40471e-20)
(0.951699 0.246957 5.91627e-20)
(1.08105 0.296814 9.34369e-20)
(1.17228 0.33327 -5.17519e-21)
(1.23153 0.357099 -1.59512e-20)
(1.26635 0.370499 7.86913e-20)
(1.28398 0.37607 3.82668e-20)
(1.29032 0.376211 -6.86095e-21)
(1.2898 0.372843 5.67146e-20)
(1.28544 0.367365 -6.04292e-20)
(1.27919 0.360725 9.40078e-20)
(1.27223 0.353527 -1.56263e-20)
(1.26528 0.346141 4.44334e-20)
(1.25874 0.338765 7.87025e-21)
(1.25286 0.331556 3.14472e-20)
(1.24775 0.324891 -2.99342e-20)
(1.24358 0.318538 7.18837e-21)
(0.128141 0.0187263 -3.35454e-20)
(0.382451 0.0724126 7.92033e-20)
(0.620686 0.14502 5.88538e-20)
(0.827095 0.218152 -8.90765e-21)
(0.991607 0.281345 9.15516e-20)
(1.11231 0.330054 -6.85291e-20)
(1.19378 0.363604 -5.18654e-21)
(1.2439 0.383814 6.01072e-20)
(1.27118 0.393604 1.90188e-20)
(1.2831 0.395974 2.65831e-20)
(1.28544 0.393467 -3.91722e-20)
(1.28227 0.387995 1.01649e-19)
(1.27627 0.380872 1.87851e-20)
(1.26906 0.372942 -8.94953e-20)
(1.26158 0.364719 1.30025e-19)
(1.25439 0.356498 -1.52845e-19)
(1.24779 0.348428 -6.95879e-20)
(1.24196 0.340645 1.17546e-20)
(1.23694 0.333524 6.71845e-20)
(1.2329 0.326696 -1.26183e-19)