1.275 	2.15223e-18 	-2.76991e-20 	-0.280402 	0.0102952 	-3.39881e-22
1.825 	2.15223e-18 	-1.39322e-20 	-0.54283 	0.00120618 	5.2226e-21
2.375 	2.15223e-18 	-2.66896e-23 	-0.34971 	-0.00595038 	-1.99854e-21
