/*--------------------------------*- C++ -*----------------------------------*\
  =========                 |
  \\      /  F ield         | OpenFOAM: The Open Source CFD Toolbox
   \\    /   O peration     | Website:  https://openfoam.org
    \\  /    A nd           | Version:  6.0
     \\/     M anipulation  |
\*---------------------------------------------------------------------------*/
FoamFile
{
    version     2.0;
    format      ascii;
    class       volScalarField;
    location    "28";
    object      p;
}
// * * * * * * * * * * * * * * * * * * * * * * * * * * * * * * * * * * * * * //

dimensions      [0 2 -2 0 0 0 0];

internalField   nonuniform List<scalar> 
12500
(
-0.251763
-0.252533
-0.253064
-0.253469
-0.253814
-0.254107
-0.254358
-0.254576
-0.254768
-0.254939
-0.255094
-0.255235
-0.255367
-0.255491
-0.25561
-0.255726
-0.255843
-0.255962
-0.256086
-0.256216
-0.25636
-0.256518
-0.256652
-0.256739
-0.257176
-0.251825
-0.252593
-0.253122
-0.253524
-0.253867
-0.254158
-0.254405
-0.25462
-0.254808
-0.254975
-0.255125
-0.255263
-0.25539
-0.255509
-0.255624
-0.255736
-0.255848
-0.255963
-0.256082
-0.256209
-0.256349
-0.256503
-0.256633
-0.256717
-0.257152
-0.251953
-0.252718
-0.253244
-0.253643
-0.253981
-0.254266
-0.254508
-0.254715
-0.254896
-0.255056
-0.255199
-0.255328
-0.255447
-0.255558
-0.255664
-0.255767
-0.255871
-0.255976
-0.256087
-0.256205
-0.256338
-0.256485
-0.25661
-0.256686
-0.257118
-0.252147
-0.252909
-0.253431
-0.253824
-0.254155
-0.254433
-0.254665
-0.254863
-0.255034
-0.255182
-0.255313
-0.25543
-0.255537
-0.255635
-0.255727
-0.255817
-0.255908
-0.256
-0.256098
-0.256204
-0.256325
-0.256462
-0.256577
-0.256642
-0.257069
-0.252408
-0.253167
-0.253684
-0.254069
-0.254391
-0.254658
-0.254878
-0.255063
-0.255219
-0.255353
-0.255468
-0.255569
-0.255658
-0.255738
-0.255813
-0.255885
-0.255957
-0.256031
-0.256111
-0.2562
-0.256305
-0.256428
-0.256529
-0.25658
-0.257001
-0.252737
-0.253491
-0.254002
-0.254378
-0.254688
-0.254941
-0.255146
-0.255314
-0.255452
-0.255567
-0.255662
-0.255742
-0.255809
-0.255867
-0.255919
-0.255967
-0.256015
-0.256065
-0.256122
-0.256188
-0.256272
-0.256376
-0.25646
-0.256492
-0.256905
-0.253135
-0.253884
-0.254386
-0.254751
-0.255048
-0.255284
-0.25547
-0.255618
-0.255734
-0.255825
-0.255896
-0.255949
-0.25599
-0.256019
-0.256042
-0.25606
-0.256078
-0.256098
-0.256125
-0.256163
-0.25622
-0.256299
-0.256361
-0.25637
-0.256774
-0.253602
-0.254346
-0.254839
-0.255191
-0.25547
-0.255687
-0.255851
-0.255974
-0.256064
-0.256127
-0.256168
-0.256191
-0.256198
-0.256194
-0.256181
-0.256163
-0.256143
-0.256126
-0.256116
-0.256118
-0.256141
-0.25619
-0.256223
-0.256203
-0.256596
-0.254142
-0.25488
-0.255362
-0.255698
-0.255958
-0.256151
-0.25629
-0.256384
-0.256444
-0.256474
-0.256481
-0.256467
-0.256436
-0.256391
-0.256336
-0.256274
-0.256209
-0.256146
-0.25609
-0.256047
-0.256028
-0.256039
-0.256037
-0.255982
-0.256362
-0.254758
-0.255488
-0.255956
-0.256274
-0.256511
-0.256678
-0.256787
-0.256849
-0.256874
-0.256868
-0.256834
-0.256778
-0.256703
-0.256611
-0.256506
-0.256392
-0.256274
-0.256156
-0.256045
-0.255947
-0.255876
-0.255839
-0.255793
-0.255695
-0.256059
-0.255452
-0.256173
-0.256626
-0.256922
-0.257133
-0.25727
-0.257345
-0.257371
-0.257357
-0.257309
-0.257231
-0.257128
-0.257002
-0.256857
-0.256695
-0.256521
-0.256339
-0.256156
-0.255978
-0.255814
-0.255678
-0.255582
-0.255481
-0.25533
-0.255674
-0.25623
-0.256938
-0.257372
-0.257644
-0.257825
-0.257928
-0.257966
-0.257952
-0.257895
-0.257801
-0.257675
-0.25752
-0.257338
-0.257133
-0.256906
-0.256663
-0.256409
-0.256149
-0.255891
-0.255647
-0.255433
-0.255262
-0.255091
-0.254875
-0.255194
-0.257095
-0.257787
-0.258199
-0.258442
-0.25859
-0.258655
-0.258652
-0.258594
-0.25849
-0.258347
-0.258169
-0.257958
-0.257715
-0.257445
-0.257147
-0.256827
-0.256489
-0.256141
-0.25579
-0.25545
-0.255139
-0.254876
-0.254616
-0.254317
-0.254604
-0.258054
-0.258725
-0.25911
-0.259321
-0.25943
-0.259453
-0.259405
-0.2593
-0.259147
-0.258951
-0.258717
-0.258447
-0.258141
-0.2578
-0.257426
-0.257022
-0.256592
-0.256143
-0.255684
-0.255229
-0.254802
-0.254423
-0.254051
-0.253643
-0.253885
-0.259111
-0.259756
-0.260109
-0.260281
-0.260347
-0.260324
-0.260227
-0.260071
-0.259866
-0.259616
-0.259324
-0.258992
-0.25862
-0.258207
-0.257752
-0.257258
-0.256728
-0.256167
-0.255585
-0.254997
-0.254429
-0.253907
-0.253391
-0.252842
-0.253018
-0.260272
-0.260883
-0.261198
-0.261327
-0.261345
-0.26127
-0.261121
-0.26091
-0.260649
-0.260342
-0.259992
-0.259598
-0.259159
-0.258672
-0.258135
-0.257548
-0.256911
-0.256229
-0.25551
-0.254769
-0.254034
-0.253336
-0.252636
-0.2519
-0.25198
-0.261544
-0.262113
-0.262383
-0.262462
-0.262425
-0.262293
-0.262086
-0.261817
-0.261498
-0.261132
-0.260722
-0.260266
-0.259761
-0.259201
-0.258582
-0.257901
-0.257154
-0.256344
-0.255476
-0.254563
-0.253634
-0.252723
-0.25179
-0.250806
-0.250743
-0.262932
-0.263449
-0.263666
-0.263688
-0.263589
-0.263394
-0.263122
-0.262791
-0.262409
-0.261983
-0.261512
-0.260994
-0.260424
-0.259793
-0.259095
-0.258322
-0.257467
-0.256526
-0.255501
-0.254399
-0.253249
-0.252085
-0.250862
-0.249552
-0.249274
-0.264441
-0.264898
-0.265053
-0.265008
-0.26484
-0.264573
-0.26423
-0.26383
-0.263382
-0.262891
-0.262358
-0.261778
-0.261143
-0.260445
-0.259671
-0.25881
-0.257849
-0.25678
-0.255594
-0.254294
-0.2529
-0.251443
-0.249868
-0.248132
-0.247539
-0.266079
-0.266464
-0.266547
-0.266427
-0.266178
-0.265831
-0.265409
-0.264932
-0.264411
-0.263851
-0.263252
-0.262608
-0.26191
-0.261145
-0.2603
-0.259356
-0.258297
-0.257104
-0.255762
-0.254259
-0.252605
-0.250822
-0.24883
-0.246552
-0.245503
-0.267852
-0.268155
-0.268155
-0.267948
-0.267608
-0.267169
-0.266657
-0.266094
-0.265492
-0.264855
-0.264184
-0.263472
-0.262709
-0.26188
-0.260966
-0.259947
-0.258798
-0.257493
-0.256004
-0.254306
-0.252391
-0.250261
-0.247801
-0.244857
-0.243169
-0.269769
-0.269977
-0.269883
-0.269577
-0.269133
-0.268589
-0.267976
-0.267315
-0.26662
-0.265898
-0.265147
-0.264361
-0.263529
-0.262634
-0.261655
-0.260567
-0.259342
-0.257943
-0.256332
-0.254465
-0.252312
-0.24985
-0.246914
-0.243217
-0.240661
-0.27184
-0.271942
-0.27174
-0.271321
-0.270759
-0.270097
-0.269367
-0.268595
-0.267796
-0.266976
-0.266136
-0.265268
-0.264362
-0.263399
-0.262359
-0.261213
-0.25993
-0.258467
-0.256774
-0.25479
-0.252454
-0.249711
-0.246331
-0.241788
-0.237972
-0.274077
-0.27406
-0.273737
-0.27319
-0.272495
-0.271699
-0.270838
-0.26994
-0.269022
-0.268093
-0.267152
-0.266194
-0.265208
-0.264178
-0.263084
-0.2619
-0.260595
-0.259125
-0.257435
-0.255444
-0.253054
-0.250137
-0.246292
-0.240532
-0.234588
-0.276498
-0.276346
-0.275887
-0.275197
-0.274352
-0.273405
-0.272397
-0.271359
-0.270309
-0.269256
-0.268204
-0.267148
-0.26608
-0.264988
-0.263857
-0.26267
-0.261408
-0.260047
-0.258557
-0.25689
-0.254977
-0.252675
-0.249417
-0.243791
-0.237096
-0.27912
-0.278819
-0.278206
-0.277357
-0.276345
-0.275231
-0.274061
-0.272867
-0.271671
-0.270484
-0.269312
-0.268152
-0.267001
-0.265853
-0.264703
-0.263551
-0.262403
-0.261279
-0.260222
-0.259316
-0.258728
-0.258726
-0.259716
-0.263416
-0.276271
-0.281967
-0.281498
-0.280715
-0.279687
-0.278492
-0.277195
-0.275847
-0.274485
-0.273132
-0.271801
-0.270502
-0.269234
-0.268001
-0.266802
-0.265646
-0.264546
-0.263534
-0.262663
-0.262025
-0.26177
-0.262145
-0.263517
-0.266393
-0.272214
-0.285684
-0.285065
-0.284406
-0.283433
-0.282211
-0.280815
-0.27932
-0.277781
-0.276239
-0.274719
-0.273238
-0.271806
-0.27043
-0.269114
-0.267869
-0.266711
-0.265668
-0.264788
-0.264145
-0.263852
-0.264077
-0.265061
-0.267131
-0.270666
-0.276445
-0.287639
-0.288442
-0.287569
-0.286387
-0.284952
-0.283339
-0.281632
-0.279891
-0.278159
-0.276465
-0.274829
-0.273262
-0.271775
-0.270378
-0.269086
-0.267922
-0.266924
-0.266147
-0.265672
-0.265611
-0.266116
-0.267381
-0.269646
-0.273138
-0.278201
-0.286976
-0.292127
-0.291014
-0.2896
-0.287935
-0.28609
-0.284159
-0.282205
-0.280277
-0.278404
-0.276609
-0.274905
-0.273305
-0.271822
-0.270475
-0.26929
-0.268307
-0.267581
-0.267186
-0.267219
-0.267794
-0.269048
-0.271126
-0.274132
-0.278147
-0.284567
-0.296153
-0.294768
-0.293101
-0.291188
-0.289097
-0.28693
-0.284757
-0.282626
-0.28057
-0.278612
-0.276767
-0.275048
-0.273469
-0.272049
-0.270815
-0.269801
-0.269056
-0.26864
-0.268623
-0.269083
-0.2701
-0.27174
-0.274032
-0.276918
-0.281254
-0.300549
-0.29886
-0.296916
-0.294737
-0.292388
-0.289976
-0.287575
-0.285237
-0.282993
-0.280867
-0.278874
-0.277024
-0.275331
-0.27381
-0.272484
-0.27138
-0.270535
-0.269992
-0.269795
-0.269987
-0.270604
-0.271663
-0.273146
-0.274938
-0.277523
-0.305343
-0.303314
-0.30107
-0.298611
-0.295991
-0.293325
-0.290691
-0.28814
-0.285703
-0.283401
-0.281245
-0.279245
-0.277408
-0.275746
-0.274274
-0.273011
-0.27198
-0.271207
-0.270716
-0.270523
-0.270636
-0.271043
-0.271708
-0.272502
-0.273678
-0.31056
-0.308155
-0.305588
-0.302833
-0.299932
-0.297004
-0.294131
-0.29136
-0.28872
-0.286227
-0.283889
-0.281708
-0.279689
-0.277834
-0.276152
-0.274653
-0.27335
-0.272253
-0.271373
-0.270711
-0.270259
-0.269995
-0.269879
-0.269791
-0.269862
-0.316222
-0.313403
-0.310491
-0.307427
-0.304234
-0.301038
-0.297918
-0.294917
-0.29206
-0.289355
-0.286803
-0.284402
-0.282148
-0.280038
-0.278075
-0.27626
-0.2746
-0.273097
-0.271753
-0.270565
-0.269518
-0.268592
-0.267755
-0.2669
-0.266107
-0.322344
-0.319075
-0.315797
-0.312411
-0.308918
-0.305445
-0.302068
-0.298823
-0.295726
-0.292778
-0.289972
-0.287299
-0.284748
-0.282313
-0.27999
-0.27778
-0.275685
-0.273705
-0.271842
-0.270091
-0.268441
-0.266878
-0.26538
-0.26386
-0.26238
-0.328933
-0.325179
-0.321517
-0.3178
-0.313998
-0.310238
-0.306591
-0.303081
-0.299713
-0.29648
-0.293367
-0.290357
-0.287438
-0.2846
-0.28184
-0.279158
-0.276558
-0.274045
-0.271622
-0.269288
-0.267041
-0.264872
-0.26277
-0.260663
-0.258619
-0.335991
-0.33172
-0.327658
-0.3236
-0.319482
-0.315424
-0.311486
-0.307681
-0.304002
-0.30043
-0.296944
-0.293524
-0.290157
-0.286835
-0.283559
-0.280336
-0.277174
-0.274084
-0.271074
-0.268152
-0.265319
-0.262576
-0.259918
-0.257286
-0.254756
-0.343508
-0.338693
-0.334219
-0.329814
-0.325369
-0.320996
-0.316741
-0.312601
-0.308556
-0.304579
-0.300644
-0.296732
-0.292833
-0.288948
-0.285085
-0.28126
-0.277489
-0.273792
-0.270183
-0.266674
-0.263274
-0.259987
-0.256812
-0.2537
-0.250733
-0.351467
-0.346084
-0.341189
-0.336431
-0.331647
-0.326937
-0.322329
-0.317803
-0.313325
-0.308865
-0.304396
-0.299904
-0.29539
-0.290866
-0.286353
-0.281877
-0.277465
-0.273142
-0.268931
-0.264846
-0.260899
-0.257097
-0.253439
-0.249881
-0.246508
-0.359834
-0.353868
-0.348547
-0.34343
-0.338293
-0.333216
-0.328208
-0.323231
-0.318243
-0.31321
-0.308115
-0.302955
-0.297746
-0.292516
-0.2873
-0.282138
-0.277064
-0.272111
-0.267304
-0.262659
-0.258189
-0.253899
-0.249787
-0.245811
-0.242055
-0.368567
-0.362007
-0.356259
-0.350778
-0.345267
-0.339784
-0.334317
-0.328812
-0.323224
-0.317524
-0.311709
-0.305795
-0.299819
-0.293827
-0.287871
-0.281999
-0.276257
-0.270678
-0.265288
-0.260105
-0.255135
-0.250384
-0.245846
-0.241474
-0.237357
-0.377607
-0.37045
-0.364277
-0.358423
-0.352513
-0.346576
-0.340578
-0.334458
-0.328171
-0.321705
-0.315078
-0.308332
-0.301528
-0.294733
-0.288011
-0.281422
-0.275014
-0.268823
-0.262871
-0.257173
-0.251731
-0.246546
-0.241606
-0.236862
-0.232403
-0.386879
-0.379132
-0.372538
-0.366302
-0.359957
-0.353505
-0.346895
-0.340061
-0.332973
-0.325643
-0.31812
-0.310476
-0.302797
-0.29517
-0.287673
-0.28037
-0.273311
-0.266527
-0.260038
-0.253852
-0.247966
-0.242373
-0.237058
-0.231964
-0.227186
-0.396293
-0.38797
-0.380963
-0.374328
-0.367507
-0.360469
-0.353154
-0.345503
-0.337511
-0.329224
-0.320731
-0.312136
-0.303552
-0.295081
-0.286812
-0.27881
-0.27112
-0.263771
-0.256774
-0.250129
-0.243827
-0.237855
-0.23219
-0.226769
-0.221698
-0.405742
-0.396865
-0.389453
-0.382401
-0.37505
-0.367346
-0.359227
-0.350653
-0.341657
-0.332333
-0.32281
-0.313228
-0.303724
-0.294413
-0.285387
-0.276709
-0.268418
-0.260535
-0.253061
-0.245988
-0.239299
-0.232977
-0.22699
-0.221266
-0.215928
-0.415104
-0.405704
-0.397894
-0.390399
-0.382459
-0.374
-0.364971
-0.355371
-0.345283
-0.334854
-0.324259
-0.313672
-0.30325
-0.293115
-0.283358
-0.274036
-0.265179
-0.256795
-0.248878
-0.24141
-0.234366
-0.227723
-0.221441
-0.215441
-0.209865
-0.424241
-0.414354
-0.406155
-0.398186
-0.389587
-0.380279
-0.370239
-0.359517
-0.348261
-0.336677
-0.324987
-0.313394
-0.30207
-0.29114
-0.280687
-0.270759
-0.261374
-0.252528
-0.244204
-0.236374
-0.229008
-0.222074
-0.215527
-0.209276
-0.203493
-0.433001
-0.422672
-0.41409
-0.405608
-0.396277
-0.386023
-0.374873
-0.362946
-0.350463
-0.337695
-0.324906
-0.312325
-0.30013
-0.288443
-0.277338
-0.266848
-0.256977
-0.247709
-0.239015
-0.23086
-0.223204
-0.216011
-0.209228
-0.202754
-0.196795
-0.441218
-0.430497
-0.421538
-0.412499
-0.402358
-0.391066
-0.378717
-0.365518
-0.351771
-0.337809
-0.323936
-0.3104
-0.297378
-0.284983
-0.273274
-0.262269
-0.251958
-0.24231
-0.233286
-0.224841
-0.21693
-0.209511
-0.202523
-0.195856
-0.189755
-0.448719
-0.437662
-0.428327
-0.418685
-0.407655
-0.395238
-0.381617
-0.367098
-0.35207
-0.336927
-0.322005
-0.30756
-0.293765
-0.280719
-0.268461
-0.256993
-0.246289
-0.236305
-0.226992
-0.218296
-0.210166
-0.202555
-0.195393
-0.188563
-0.182352
-0.45532
-0.443985
-0.434276
-0.423981
-0.411988
-0.39837
-0.383422
-0.367559
-0.351257
-0.334965
-0.319044
-0.303752
-0.289248
-0.275612
-0.262865
-0.250988
-0.239941
-0.229668
-0.220108
-0.211201
-0.202889
-0.195121
-0.187818
-0.180855
-0.174569
-0.460836
-0.449285
-0.4392
-0.428203
-0.41518
-0.400301
-0.383991
-0.366782
-0.349237
-0.331849
-0.314995
-0.298927
-0.283785
-0.269627
-0.256452
-0.244225
-0.232888
-0.222373
-0.212611
-0.203533
-0.195077
-0.187189
-0.179779
-0.172716
-0.166389
-0.465079
-0.453375
-0.442913
-0.431168
-0.417057
-0.400877
-0.383194
-0.364662
-0.345924
-0.327511
-0.309804
-0.29304
-0.277338
-0.26273
-0.249195
-0.236676
-0.225103
-0.214396
-0.204477
-0.195272
-0.186713
-0.178741
-0.17126
-0.16413
-0.157797
-0.467866
-0.456072
-0.445231
-0.432698
-0.417457
-0.399953
-0.380911
-0.361105
-0.341247
-0.321894
-0.303425
-0.286054
-0.269874
-0.254892
-0.241064
-0.228316
-0.216563
-0.205716
-0.195688
-0.1864
-0.177779
-0.169763
-0.162245
-0.155083
-0.14878
-0.469018
-0.457197
-0.445977
-0.432624
-0.416226
-0.397403
-0.377041
-0.35603
-0.335142
-0.31495
-0.295817
-0.277934
-0.261363
-0.246086
-0.232036
-0.219123
-0.207248
-0.196314
-0.186227
-0.176901
-0.168261
-0.160241
-0.152725
-0.145565
-0.139329
-0.468367
-0.456582
-0.444985
-0.430789
-0.413229
-0.393114
-0.371494
-0.349369
-0.327558
-0.306637
-0.286949
-0.268653
-0.251782
-0.23629
-0.222091
-0.209078
-0.197142
-0.186176
-0.176081
-0.166764
-0.15815
-0.150167
-0.14269
-0.13557
-0.129437
-0.465757
-0.45407
-0.442101
-0.427055
-0.408347
-0.38699
-0.364199
-0.34107
-0.318455
-0.296925
-0.276795
-0.25819
-0.241111
-0.225487
-0.211213
-0.198168
-0.186232
-0.175291
-0.165239
-0.155981
-0.147437
-0.139535
-0.132137
-0.125095
-0.119101
-0.461049
-0.449519
-0.43719
-0.4213
-0.401479
-0.378955
-0.3551
-0.331092
-0.307805
-0.285793
-0.265338
-0.246528
-0.229336
-0.213665
-0.199392
-0.186383
-0.17451
-0.163651
-0.153696
-0.144547
-0.136122
-0.128344
-0.121066
-0.114141
-0.108322
-0.454123
-0.442807
-0.430136
-0.413424
-0.392548
-0.368953
-0.344158
-0.31941
-0.295591
-0.273228
-0.252567
-0.23366
-0.216449
-0.200816
-0.186621
-0.173718
-0.161971
-0.151254
-0.141452
-0.132463
-0.124204
-0.116595
-0.10948
-0.102712
-0.0971065
-0.444879
-0.433833
-0.420844
-0.403348
-0.381495
-0.356945
-0.331352
-0.306012
-0.281806
-0.259227
-0.238481
-0.219584
-0.20245
-0.18694
-0.172899
-0.160173
-0.148617
-0.138102
-0.128508
-0.119732
-0.11169
-0.104297
-0.0973872
-0.0908188
-0.0854631
-0.433241
-0.422519
-0.409244
-0.391019
-0.368286
-0.342915
-0.316675
-0.290901
-0.266456
-0.243797
-0.223085
-0.204305
-0.187343
-0.172041
-0.158231
-0.145752
-0.134453
-0.1242
-0.114872
-0.106363
-0.0985878
-0.0914589
-0.0848011
-0.0784752
-0.0734067
-0.419156
-0.408809
-0.39529
-0.376407
-0.352908
-0.326863
-0.300139
-0.274091
-0.249558
-0.226952
-0.206395
-0.187837
-0.171139
-0.156128
-0.142626
-0.130464
-0.119487
-0.109559
-0.100554
-0.0923676
-0.0849114
-0.0780961
-0.0717375
-0.0656998
-0.060956
-0.402598
-0.392677
-0.378962
-0.359505
-0.335371
-0.308809
-0.281769
-0.255612
-0.231139
-0.208719
-0.188432
-0.170198
-0.153856
-0.139219
-0.1261
-0.114324
-0.103735
-0.0941913
-0.0855691
-0.0777599
-0.0706765
-0.0642261
-0.0582167
-0.0525147
-0.0481333
-0.383566
-0.374118
-0.360264
-0.340333
-0.315704
-0.288794
-0.261609
-0.235504
-0.211237
-0.189132
-0.169228
-0.151416
-0.135517
-0.121333
-0.10867
-0.0973489
-0.0872107
-0.0781137
-0.0699323
-0.0625574
-0.0559016
-0.0498696
-0.0442621
-0.0389464
-0.034965
-0.362086
-0.353157
-0.339228
-0.318932
-0.293961
-0.266873
-0.239716
-0.213821
-0.189904
-0.168236
-0.148822
-0.131526
-0.116154
-0.102499
-0.0903607
-0.0795596
-0.0699346
-0.0613439
-0.0536614
-0.0467781
-0.0406064
-0.035049
-0.0299
-0.0250256
-0.0214846
-0.338208
-0.329843
-0.31591
-0.295368
-0.270212
-0.24312
-0.21616
-0.190632
-0.167198
-0.146085
-0.127262
-0.11057
-0.0958037
-0.0827472
-0.0711997
-0.0609798
-0.0519271
-0.0439002
-0.0367738
-0.0304393
-0.0248098
-0.0197861
-0.0151576
-0.0107866
-0.00773405
-0.31201
-0.304249
-0.290388
-0.269727
-0.244547
-0.217625
-0.191028
-0.166014
-0.143192
-0.122744
-0.104605
-0.0885991
-0.0745088
-0.0621159
-0.0512183
-0.0416356
-0.0332094
-0.0258002
-0.0192845
-0.0135554
-0.00852676
-0.00409889
-5.96649e-05
0.00373421
0.00624153
-0.28359
-0.276474
-0.262765
-0.242116
-0.217077
-0.190493
-0.164418
-0.140059
-0.117969
-0.098286
-0.0809176
-0.0656706
-0.0523207
-0.0406479
-0.0304517
-0.0215548
-0.0138023
-0.00705852
-0.00120351
0.0038665
0.00823594
0.0120027
0.0153753
0.0185062
0.0204135
-0.253072
-0.246639
-0.233165
-0.212662
-0.187925
-0.161844
-0.136443
-0.11287
-0.0916231
-0.0727974
-0.056276
-0.0418525
-0.0292979
-0.0183929
-0.0089401
-0.000767288
0.0062747
0.0123154
0.0174688
0.0218331
0.0254888
0.0285278
0.031149
0.0335245
0.0347922
-0.2206
-0.214884
-0.20173
-0.181508
-0.157231
-0.131812
-0.107227
-0.0845615
-0.0642583
-0.0463732
-0.030767
-0.0172227
-0.00550909
0.00459102
0.0132697
0.0206926
0.027001
0.0323159
0.0367418
0.0403681
0.043267
0.0455197
0.0473078
0.0488317
0.0493924
-0.186337
-0.18137
-0.168621
-0.148813
-0.125149
-0.100541
-0.0769045
-0.0552587
-0.0359907
-0.0191204
-0.00448849
0.00812971
0.0189664
0.0282349
0.0361209
0.0427819
0.0483494
0.0529328
0.0566233
0.0594954
0.0616097
0.0630325
0.0639075
0.0644226
0.0640381
-0.150463
-0.146273
-0.134015
-0.114749
-0.0918456
-0.0681875
-0.0456222
-0.0250975
-0.00694705
0.00884323
0.0224497
0.0341034
0.0440363
0.0524575
0.0595459
0.0654497
0.070289
0.0741579
0.0771265
0.0792453
0.0805575
0.0811004
0.0809039
0.0800118
0.078164
-0.113173
-0.109786
-0.0980993
-0.0795025
-0.0574959
-0.0349176
-0.0135349
0.00577693
0.0227363
0.0373887
0.0499255
0.0605831
0.0695932
0.0771614
0.0834616
0.088635
0.0927922
0.0960116
0.0983378
0.0997901
0.100384
0.100078
0.0986074
0.095676
0.0918661
-0.0746754
-0.0721125
-0.0610763
-0.043266
-0.0222844
-0.000904382
0.019195
0.0372117
0.0529144
0.066377
0.0778045
0.0874379
0.0955087
0.102221
0.107749
0.112232
0.115783
0.118479
0.120362
0.121453
0.121779
0.121211
0.119048
0.114604
0.109916
-0.035189
-0.0334677
-0.0231553
-0.00624136
0.0135981
0.0336732
0.0523995
0.0690481
0.0834356
0.0956619
0.105943
0.114524
0.121635
0.127482
0.132237
0.136048
0.139035
0.141295
0.142905
0.143957
0.144599
0.144788
0.14366
0.140701
0.14288
0.00506684
0.00593119
0.0154504
0.031366
0.0499574
0.0686328
0.0859071
0.101124
0.114145
0.125093
0.134194
0.141692
0.147819
0.152777
0.156739
0.159854
0.162246
0.164022
0.165275
0.166129
0.166741
0.167097
0.166712
0.166001
0.170402
0.0458596
0.0458561
0.0545195
0.0693457
0.0865958
0.10379
0.119545
0.133277
0.144888
0.154522
0.16241
0.168798
0.173914
0.177957
0.181099
0.183486
0.185246
0.186489
0.187315
0.187848
0.188226
0.188428
0.18811
0.187753
0.191657
0.0869551
0.0860774
0.09383
0.107487
0.123316
0.13896
0.153141
0.165344
0.17551
0.1838
0.190448
0.1957
0.199778
0.202877
0.205164
0.206783
0.207857
0.208493
0.208794
0.208873
0.208855
0.208724
0.208188
0.207639
0.210611
0.128118
0.126364
0.133159
0.145578
0.15992
0.17396
0.186525
0.197167
0.205862
0.212785
0.218174
0.222269
0.225287
0.227416
0.228817
0.229628
0.229967
0.229934
0.229625
0.22914
0.228587
0.227938
0.226928
0.225922
0.228
0.169115
0.166487
0.172285
0.183412
0.196216
0.208611
0.219531
0.228591
0.2358
0.241343
0.245459
0.248382
0.250324
0.251464
0.251955
0.251928
0.251493
0.250744
0.249766
0.248651
0.247485
0.246231
0.244643
0.243084
0.244297
0.209713
0.206217
0.21099
0.220782
0.232012
0.242737
0.251996
0.259465
0.265182
0.269342
0.27218
0.273927
0.274784
0.274923
0.27449
0.273605
0.272372
0.270876
0.269193
0.267405
0.265582
0.263679
0.261473
0.259334
0.259719
0.249684
0.245332
0.249059
0.257488
0.267122
0.276167
0.283764
0.289645
0.293876
0.296658
0.298225
0.298798
0.298572
0.297709
0.296345
0.294595
0.292552
0.290295
0.287891
0.285411
0.282916
0.280353
0.277526
0.274806
0.274396
0.288805
0.283612
0.286284
0.293335
0.301368
0.308736
0.314681
0.31899
0.321751
0.323172
0.323482
0.322895
0.321596
0.319738
0.31745
0.314837
0.311985
0.308966
0.30584
0.302668
0.299502
0.296287
0.29285
0.289562
0.28839
0.32686
0.320846
0.322462
0.328135
0.334574
0.340284
0.344602
0.347366
0.348686
0.348772
0.347849
0.346123
0.34377
0.340935
0.337737
0.334274
0.330625
0.326854
0.323015
0.319163
0.315339
0.31149
0.307467
0.30363
0.301725
0.363638
0.356828
0.357398
0.361705
0.366575
0.370658
0.373387
0.374645
0.374561
0.373348
0.371226
0.368392
0.365013
0.361226
0.357141
0.35285
0.348423
0.34392
0.339387
0.334874
0.330414
0.325957
0.321374
0.317009
0.314402
0.398939
0.391362
0.390906
0.393872
0.39721
0.399713
0.400901
0.400704
0.399264
0.396797
0.393518
0.389615
0.385246
0.380539
0.375599
0.370507
0.365331
0.360121
0.35492
0.349772
0.344704
0.339667
0.334554
0.329685
0.326406
0.432572
0.424261
0.422807
0.424471
0.426328
0.427309
0.427018
0.425425
0.422688
0.419021
0.414634
0.409708
0.404392
0.398806
0.393047
0.387191
0.381297
0.375413
0.369576
0.363823
0.358177
0.352595
0.346983
0.341636
0.337717
0.464356
0.455348
0.452935
0.453348
0.453786
0.453315
0.451617
0.448698
0.444729
0.439925
0.434489
0.428593
0.422379
0.41596
0.409425
0.402844
0.396272
0.38975
0.383312
0.376989
0.370801
0.364706
0.358629
0.352832
0.348305
0.494119
0.484456
0.48113
0.480354
0.479449
0.477608
0.474584
0.470419
0.465293
0.459421
0.452999
0.446193
0.439136
0.431936
0.424673
0.417414
0.410206
0.403087
0.396087
0.389232
0.382537
0.375967
0.369458
0.363241
0.358143
0.521703
0.511432
0.507248
0.505355
0.503194
0.500073
0.495816
0.490491
0.48429
0.477425
0.470088
0.462437
0.454599
0.446673
0.438735
0.430846
0.423049
0.415378
0.407857
0.40051
0.393349
0.386341
0.379436
0.372829
0.367198
0.546962
0.536131
0.531152
0.528225
0.524903
0.520605
0.515213
0.508824
0.501636
0.493861
0.485685
0.477259
0.468704
0.460113
0.451558
0.443092
0.434756
0.426579
0.418583
0.410787
0.403199
0.395794
0.388529
0.381564
0.375443
0.569762
0.558425
0.55272
0.548851
0.544474
0.539107
0.532687
0.525335
0.517255
0.508657
0.499723
0.490597
0.481395
0.472204
0.46309
0.454104
0.445282
0.436649
0.428224
0.420024
0.412053
0.40429
0.396702
0.389414
0.382849
0.589982
0.578194
0.571841
0.567128
0.56181
0.555492
0.548159
0.53995
0.531078
0.52175
0.512142
0.502396
0.492619
0.482896
0.473287
0.46384
0.454586
0.44555
0.436746
0.428187
0.419878
0.4118
0.403927
0.396352
0.389389
0.607516
0.595337
0.588416
0.582968
0.57683
0.569684
0.561555
0.552604
0.543044
0.533082
0.522891
0.512605
0.50233
0.492145
0.482107
0.47226
0.462633
0.453247
0.444115
0.435246
0.426643
0.418293
0.410174
0.402349
0.395041
0.622273
0.609763
0.602361
0.59629
0.589459
0.581614
0.572817
0.563238
0.553099
0.542604
0.531921
0.521182
0.510488
0.499914
0.489515
0.479331
0.46939
0.45971
0.450301
0.441172
0.432324
0.423745
0.415419
0.407384
0.399783
0.634174
0.621398
0.613606
0.60703
0.599638
0.591229
0.58189
0.571806
0.5612
0.550274
0.539194
0.528089
0.517057
0.50617
0.49548
0.485025
0.47483
0.464913
0.455282
0.445943
0.436896
0.428134
0.419642
0.411437
0.403599
0.643158
0.630179
0.622093
0.615134
0.607318
0.598481
0.588734
0.578268
0.567309
0.556058
0.544679
0.533298
0.52201
0.510886
0.499976
0.489317
0.478931
0.468835
0.459036
0.449539
0.440343
0.431442
0.422825
0.414491
0.406474
0.649177
0.636063
0.627778
0.620562
0.612461
0.603338
0.593317
0.582595
0.571399
0.55993
0.54835
0.536784
0.525326
0.514043
0.502986
0.492189
0.481676
0.47146
0.461549
0.451946
0.442649
0.433655
0.424955
0.416535
0.408397
0.6522
0.639018
0.630633
0.623288
0.615044
0.605777
0.595618
0.584767
0.573453
0.561874
0.550193
0.538534
0.52699
0.515628
0.504497
0.493631
0.483053
0.472777
0.46281
0.453153
0.443807
0.434766
0.426024
0.417561
0.409362
0.652211
0.639029
0.630644
0.623298
0.615053
0.605786
0.595626
0.584775
0.57346
0.561881
0.5502
0.53854
0.526995
0.515633
0.504502
0.493636
0.483057
0.472781
0.462814
0.453157
0.44381
0.43477
0.426027
0.417564
0.409365
0.64921
0.636096
0.627809
0.620592
0.612489
0.603364
0.593341
0.582618
0.57142
0.55995
0.548369
0.536802
0.525342
0.514058
0.503001
0.492203
0.481689
0.471472
0.46156
0.451957
0.44266
0.433665
0.424965
0.416544
0.408406
0.643214
0.630234
0.622145
0.615183
0.607364
0.598525
0.588774
0.578306
0.567344
0.556091
0.544709
0.533326
0.522037
0.510911
0.5
0.489339
0.478952
0.468855
0.459055
0.449557
0.44036
0.431458
0.422841
0.414506
0.406488
0.634252
0.621473
0.613679
0.607099
0.599702
0.591289
0.581946
0.571858
0.561248
0.550319
0.539237
0.528129
0.517094
0.506205
0.495513
0.485056
0.47486
0.464941
0.455309
0.445968
0.43692
0.428156
0.419664
0.411458
0.403619
0.622372
0.60986
0.602454
0.596378
0.589541
0.581691
0.572888
0.563305
0.553161
0.542662
0.531975
0.521233
0.510536
0.499959
0.489557
0.479371
0.469428
0.459745
0.450335
0.441205
0.432354
0.423774
0.415447
0.407411
0.399808
0.607636
0.595453
0.588528
0.583073
0.576929
0.569776
0.561642
0.552684
0.543119
0.533152
0.522956
0.512667
0.502388
0.492199
0.482158
0.472308
0.462678
0.45329
0.444155
0.435285
0.42668
0.418328
0.410208
0.402381
0.395071
0.590121
0.57833
0.571971
0.567252
0.561926
0.555601
0.548259
0.540044
0.531165
0.521832
0.512219
0.502467
0.492686
0.482959
0.473346
0.463896
0.454639
0.4456
0.436794
0.428233
0.419921
0.411841
0.403966
0.396389
0.389425
0.56992
0.558578
0.552868
0.548991
0.544605
0.53923
0.532802
0.525441
0.517354
0.50875
0.499809
0.490678
0.481471
0.472275
0.463158
0.454168
0.445342
0.436706
0.428279
0.420075
0.412102
0.404337
0.396747
0.389457
0.38289
0.547138
0.536302
0.531317
0.528381
0.52505
0.520742
0.51534
0.508942
0.501747
0.493964
0.485781
0.477349
0.468789
0.460193
0.451633
0.443163
0.434823
0.426642
0.418643
0.410844
0.403254
0.395846
0.388578
0.381611
0.375489
0.521895
0.511618
0.507428
0.505526
0.503354
0.500223
0.495955
0.490621
0.484411
0.477538
0.470194
0.462536
0.454691
0.44676
0.438818
0.430924
0.423123
0.415447
0.407923
0.400573
0.393408
0.386398
0.37949
0.372881
0.367248
0.494326
0.484657
0.481324
0.480538
0.479622
0.477769
0.474735
0.470559
0.465424
0.459543
0.453113
0.446299
0.439237
0.43203
0.424762
0.417497
0.410285
0.403162
0.396158
0.389299
0.382601
0.376028
0.369517
0.363297
0.358196
0.464576
0.455562
0.453141
0.453543
0.45397
0.453487
0.451777
0.448847
0.444869
0.440055
0.43461
0.428707
0.422486
0.41606
0.40952
0.402934
0.396357
0.38983
0.383388
0.377061
0.370869
0.364771
0.358691
0.352892
0.348363
0.432804
0.424486
0.423024
0.424678
0.426522
0.42749
0.427187
0.425582
0.422835
0.419159
0.414763
0.409828
0.404505
0.398912
0.393147
0.387285
0.381386
0.375497
0.369656
0.363899
0.35825
0.352664
0.347049
0.3417
0.337778
0.399181
0.391596
0.391132
0.394087
0.397412
0.399902
0.401078
0.400869
0.399418
0.396941
0.393652
0.389741
0.385364
0.38065
0.375703
0.370606
0.365424
0.360209
0.355004
0.349851
0.344779
0.33974
0.334623
0.329752
0.32647
0.363888
0.35707
0.357632
0.361927
0.366784
0.370855
0.37357
0.374816
0.374721
0.373497
0.371365
0.368522
0.365135
0.361341
0.35725
0.352952
0.34852
0.344011
0.339474
0.334956
0.330493
0.326032
0.321445
0.317077
0.314468
0.327115
0.321094
0.322702
0.328363
0.33479
0.340486
0.34479
0.347542
0.34885
0.348925
0.347992
0.346257
0.343896
0.341053
0.337848
0.334379
0.330724
0.326948
0.323104
0.319247
0.31542
0.311567
0.307541
0.3037
0.301793
0.289065
0.283864
0.286528
0.293568
0.301587
0.308941
0.314873
0.319169
0.321919
0.323328
0.323628
0.323032
0.321724
0.319859
0.317563
0.314944
0.312087
0.309062
0.30593
0.302755
0.299584
0.296365
0.292925
0.289635
0.28846
0.249946
0.245586
0.249305
0.257723
0.267344
0.276375
0.283958
0.289826
0.294045
0.296815
0.298372
0.298937
0.298702
0.297831
0.29646
0.294703
0.292654
0.290392
0.287983
0.285499
0.283
0.280433
0.277602
0.274879
0.274466
0.209974
0.206471
0.211235
0.221016
0.232233
0.242945
0.252191
0.259647
0.265352
0.2695
0.272329
0.274066
0.274915
0.275046
0.274605
0.273714
0.272475
0.270973
0.269286
0.267492
0.265666
0.263759
0.26155
0.259408
0.259789
0.169373
0.166737
0.172528
0.183644
0.196436
0.208818
0.219725
0.228772
0.235969
0.241501
0.245607
0.248521
0.250454
0.251586
0.25207
0.252036
0.251595
0.250841
0.249858
0.248738
0.247568
0.246311
0.244719
0.243157
0.244367
0.128371
0.126609
0.133397
0.145806
0.160137
0.174164
0.186716
0.197346
0.206029
0.212941
0.21832
0.222406
0.225415
0.227537
0.228931
0.229735
0.230068
0.23003
0.229716
0.229227
0.228669
0.228017
0.227003
0.225994
0.22807
0.0872005
0.0863149
0.0940605
0.107709
0.123527
0.139159
0.153328
0.165519
0.175673
0.183952
0.190591
0.195834
0.199904
0.202996
0.205276
0.206888
0.207956
0.208588
0.208883
0.208958
0.208936
0.208801
0.208261
0.20771
0.210679
0.046095
0.0460837
0.0547407
0.0695591
0.0867993
0.103982
0.119726
0.133446
0.145046
0.15467
0.162548
0.168928
0.174036
0.178071
0.181207
0.183588
0.185343
0.18658
0.187402
0.187931
0.188304