/*--------------------------------*- C++ -*----------------------------------*\
  =========                 |
  \\      /  F ield         | OpenFOAM: The Open Source CFD Toolbox
   \\    /   O peration     | Website:  https://openfoam.org
    \\  /    A nd           | Version:  6.0
     \\/     M anipulation  |
\*---------------------------------------------------------------------------*/
FoamFile
{
    version     2.0;
    format      ascii;
    class       surfaceScalarField;
    location    "28";
    object      phi;
}
// * * * * * * * * * * * * * * * * * * * * * * * * * * * * * * * * * * * * * //

dimensions      [0 3 -1 0 0 0 0];

internalField   nonuniform List<scalar> 
24700
(
-1.29038e-06
1.37114e-06
-8.0762e-08
-4.69186e-06
3.65479e-06
-2.53302e-07
-9.80249e-06
5.5415e-06
-4.30875e-07
-1.62711e-05
7.07593e-06
-6.07319e-07
-2.37962e-05
8.30308e-06
-7.78022e-07
-3.21234e-05
9.26722e-06
-9.40002e-07
-4.10426e-05
1.00108e-05
-1.09156e-06
-5.03843e-05
1.05737e-05
-1.23195e-06
-6.00163e-05
1.09931e-05
-1.36116e-06
-6.98399e-05
1.13033e-05
-1.47962e-06
-7.97872e-05
1.15354e-05
-1.58809e-06
-8.98174e-05
1.17177e-05
-1.68746e-06
-9.99142e-05
1.18755e-05
-1.77871e-06
-0.000110083
1.20315e-05
-1.86276e-06
-0.000120348
1.22053e-05
-1.94054e-06
-0.000130749
1.24138e-05
-2.01287e-06
-0.000141339
1.26712e-05
-2.08055e-06
-0.000152184
1.29891e-05
-2.1443e-06
-0.000163355
1.3376e-05
-2.2048e-06
-0.000174931
1.38381e-05
-2.26272e-06
-0.000186991
1.43791e-05
-2.31871e-06
-0.000199618
1.50001e-05
-2.37342e-06
-0.00021289
1.56999e-05
-2.42754e-06
-0.000226884
1.64758e-05
-2.48165e-06
1.73261e-05
-2.53636e-06
-0.000241674
-1.28786e-06
2.659e-06
-4.68181e-06
7.04874e-06
-9.77937e-06
1.06391e-05
-1.62287e-05
1.35253e-05
-2.37274e-05
1.58018e-05
-3.20204e-05
1.75601e-05
-4.08962e-05
1.88866e-05
-5.01843e-05
1.98618e-05
-5.97509e-05
2.05597e-05
-6.94959e-05
2.10483e-05
-7.93495e-05
2.1389e-05
-8.92693e-05
2.16374e-05
-9.92372e-05
2.18434e-05
-0.000109257
2.20512e-05
-0.000119351
2.22994e-05
-0.000129559
2.26213e-05
-0.000139932
2.3045e-05
-0.000150536
2.3593e-05
-0.000161443
2.42825e-05
-0.00017273
2.51257e-05
-0.000184481
2.61294e-05
-0.000196776
2.72959e-05
-0.000209699
2.86222e-05
-0.000223326
3.01029e-05
3.17338e-05
-0.000237733
-1.28476e-06
3.94376e-06
-4.66846e-06
1.04324e-05
-9.74693e-06
1.57175e-05
-1.61664e-05
1.99448e-05
-2.36227e-05
2.32581e-05
-3.18584e-05
2.57958e-05
-4.06599e-05
2.76881e-05
-4.98539e-05
2.90558e-05
-5.93037e-05
3.00096e-05
-6.89061e-05
3.06506e-05
-7.85878e-05
3.10707e-05
-8.83028e-05
3.13524e-05
-9.80295e-05
3.15702e-05
-0.000107768
3.179e-05
-0.000117539
3.207e-05
-0.000127378
3.24605e-05
-0.000137337
3.30038e-05
-0.000147479
3.37347e-05
-0.000157876
3.46797e-05
-0.000168608
3.5858e-05
-0.00017976
3.72809e-05
-0.000191416
3.89521e-05
-0.000203662
4.08681e-05
-0.00021658
4.30208e-05
4.5404e-05
-0.00023025
-1.28138e-06
5.22514e-06
-4.65267e-06
1.38037e-05
-9.70676e-06
2.07716e-05
-1.60869e-05
2.63249e-05
-2.34858e-05
3.0657e-05
-3.1643e-05
3.3953e-05
-4.03415e-05
3.63866e-05
-4.9404e-05
3.81183e-05
-5.86896e-05
3.92952e-05
-6.80902e-05
4.00512e-05
-7.75274e-05
4.05079e-05
-8.695e-05
4.0775e-05
-9.63309e-05
4.09511e-05
-0.000105665
4.11246e-05
-0.000114969
4.13734e-05
-0.000124274
4.17656e-05
-0.000133629
4.23592e-05
-0.000143097
4.32022e-05
-0.000152749
4.43323e-05
-0.000162668
4.5777e-05
-0.000172941
4.75534e-05
-0.000183657
4.96686e-05
-0.000194909
5.21193e-05
-0.000206784
5.48957e-05
5.79899e-05
-0.00021937
-1.27805e-06
6.50319e-06
-4.63541e-06
1.71611e-05
-9.6607e-06
2.57969e-05
-1.59931e-05
3.26574e-05
-2.33215e-05
3.79853e-05
-3.13812e-05
4.20127e-05
-3.9951e-05
4.49563e-05
-4.88486e-05
4.7016e-05
-5.79277e-05
4.83743e-05
-6.70739e-05
4.91974e-05
-7.62021e-05
4.96361e-05
-8.52539e-05
4.98267e-05
-9.41951e-05
4.98923e-05
-0.000103014
4.99434e-05
-0.000111719
5.00786e-05
-0.000120338
5.03847e-05
-0.000128916
5.09368e-05
-0.000137511
5.17979e-05
-0.000146198
5.30188e-05
-0.000155058
5.46376e-05
-0.000164185
5.66796e-05
-0.000173673
5.91571e-05
-0.000183623
6.20692e-05
-0.000194133
6.54055e-05
6.91573e-05
-0.0002053
-1.2751e-06
7.77829e-06
-4.61759e-06
2.05036e-05
-9.61039e-06
3.07897e-05
-1.58877e-05
3.89347e-05
-2.31337e-05
4.52313e-05
-3.10792e-05
4.99582e-05
-3.94978e-05
5.33749e-05
-4.82017e-05
5.57199e-05
-5.70379e-05
5.72105e-05
-6.58848e-05
5.80443e-05
-7.46491e-05
5.84004e-05
-8.32633e-05
5.8441e-05
-9.16842e-05
5.83132e-05
-9.98909e-05
5.81501e-05
-0.000107884
5.80712e-05
-0.000115682
5.81834e-05
-0.000123326
5.85803e-05
-0.00013087
5.93423e-05
-0.000138387
6.05357e-05
-0.000145962
6.22122e-05
-0.000153691
6.44084e-05
-0.000161678
6.7145e-05
-0.000170035
7.04257e-05
-0.000178872
7.42425e-05
7.85866e-05
-0.000188301
-1.27278e-06
9.05107e-06
-4.59973e-06
2.38305e-05
-9.55668e-06
3.57467e-05
-1.5772e-05
4.515e-05
-2.29248e-05
5.23841e-05
-3.07408e-05
5.77743e-05
-3.89885e-05
6.16226e-05
-4.74738e-05
6.42052e-05
-5.60367e-05
6.57734e-05
-6.45473e-05
6.65549e-05
-7.29027e-05
6.67558e-05
-8.10252e-05
6.65635e-05
-8.88604e-05
6.61484e-05
-9.6376e-05
6.56657e-05
-0.000103561
6.52566e-05
-0.000110427
6.50486e-05
-0.000117002
6.51559e-05
-0.000123338
6.56785e-05
-0.000129504
6.67018e-05
-0.000135587
6.82947e-05
-0.000141687
7.05091e-05
-0.00014792
7.3378e-05
-0.000154409
7.69143e-05
-0.000161282
8.11155e-05
8.59753e-05
-0.000168671
-1.27113e-06
1.03222e-05
-4.58169e-06
2.71411e-05
-9.49903e-06
4.0664e-05
-1.56451e-05
5.12961e-05
-2.26935e-05
5.94325e-05
-3.03654e-05
6.54461e-05
-3.84237e-05
6.96808e-05
-4.66684e-05
7.24499e-05
-5.49321e-05
7.40372e-05
-6.30761e-05
7.46988e-05
-7.09873e-05
7.4667e-05
-7.85762e-05
7.41524e-05
-8.57756e-05
7.33478e-05
-9.25397e-05
7.24298e-05
-9.8844e-05
7.15609e-05
-0.000104686
7.08904e-05
-0.000110085
7.05546e-05
-0.000115082
7.06759e-05
-0.000119742
7.1362e-05
-0.000124151
7.27039e-05
-0.000128416
7.4774e-05
-0.000132662
7.76236e-05
-0.000137027
8.12799e-05
-0.000141663
8.57514e-05
9.10384e-05
-0.000146726
-1.26991e-06
1.15921e-05
-4.56237e-06
3.04335e-05
-9.43491e-06
4.55365e-05
-1.55026e-05
5.73637e-05
-2.24338e-05
6.63638e-05
-2.99451e-05
7.29574e-05
-3.77948e-05
7.75304e-05
-4.57771e-05
8.04323e-05
-5.37178e-05
8.19778e-05
-6.14693e-05
8.24504e-05
-6.8908e-05
8.21057e-05
-7.59318e-05
8.11762e-05
-8.24592e-05
7.98751e-05
-8.84286e-05
7.83992e-05
-9.37994e-05
7.69317e-05
-9.85526e-05
7.56436e-05
-0.000102693
7.46946e-05
-0.000106249
7.42322e-05
-0.000109277
7.43903e-05
-0.000111861
7.52873e-05
-0.000114109
7.70227e-05
-0.000116159
7.96731e-05
-0.000118167
8.32885e-05
-0.000120312
8.78957e-05
9.35085e-05
-0.000122782
-1.26855e-06
1.28607e-05
-4.53948e-06
3.37045e-05
-9.35927e-06
5.03563e-05
-1.53359e-05
6.33404e-05
-2.2133e-05
7.31609e-05
-2.94632e-05
8.02876e-05
-3.70808e-05
8.51481e-05
-4.47757e-05
8.81272e-05
-5.23675e-05
8.95696e-05
-5.97005e-05
8.97834e-05
-6.6641e-05
8.90461e-05
-7.3074e-05
8.76093e-05
-7.89028e-05
8.5704e-05
-8.40488e-05
8.35451e-05
-8.84521e-05
8.1335e-05
-9.20743e-05
7.92658e-05
-9.49006e-05
7.75209e-05
-9.69433e-05
7.62749e-05
-9.8245e-05
7.5692e-05
-9.88811e-05
7.59235e-05
-9.89622e-05
7.71037e-05
-9.86334e-05
7.93443e-05
-9.80734e-05
8.27285e-05
-9.74905e-05
8.73128e-05
9.31346e-05
-9.71167e-05
-1.26607e-06
1.41267e-05
-4.50934e-06
3.69477e-05
-9.26425e-06
5.51113e-05
-1.51317e-05
6.92078e-05
-2.17709e-05
7.98002e-05
-2.88916e-05
8.74083e-05
-3.62457e-05
9.25022e-05
-4.36199e-05
9.55014e-05
-5.08291e-05
9.67787e-05
-5.77112e-05
9.66655e-05
-6.41232e-05
9.54581e-05
-6.99382e-05
9.34243e-05
-7.50445e-05
9.08103e-05
-7.93451e-05
8.78457e-05
-8.27594e-05
8.47494e-05
-8.52261e-05
8.17325e-05
-8.67068e-05
7.90017e-05
-8.71912e-05
7.67593e-05
-8.67022e-05
7.5203e-05
-8.53017e-05
7.4523e-05
-8.3095e-05
7.4897e-05
-8.02339e-05
7.64833e-05
-7.69175e-05
7.94121e-05
-7.33902e-05
8.37855e-05
8.96807e-05
-6.99363e-05
-1.2611e-06
1.53878e-05
-4.4669e-06
4.01535e-05
-9.13902e-06
5.97834e-05
-1.48712e-05
7.49399e-05
-2.13191e-05
8.6248e-05
-2.81905e-05
9.42798e-05
-3.52365e-05
9.95481e-05
-4.22422e-05
0.000102507
-4.902e-05
0.000103557
-5.54035e-05
0.000103049
-6.12427e-05
0.000101297
-6.64005e-05
9.85821e-05
-7.07512e-05
9.5161e-05
-7.41802e-05
9.12747e-05
-7.65853e-05
8.71545e-05
-7.788e-05
8.30271e-05
-7.79981e-05
7.91198e-05
-7.69008e-05
7.5662e-05
-7.45842e-05
7.28864e-05
-7.10881e-05
7.10269e-05
-6.65048e-05
7.03137e-05
-6.09864e-05
7.09649e-05
-5.47498e-05
7.31754e-05
-4.80789e-05
7.71146e-05
8.29229e-05
-4.13211e-05
-1.2519e-06
1.66397e-05
-4.40587e-06
4.33075e-05
-8.97e-06
6.43475e-05
-1.45309e-05
8.05009e-05
-2.07412e-05
9.24583e-05
-2.73079e-05
0.000100846
-3.39823e-05
0.000106223
-4.05503e-05
0.000109075
-4.68242e-05
0.00010983
-5.26359e-05
0.000108861
-5.78311e-05
0.000106493
-6.22659e-05
0.000103017
-6.58034e-05
9.86985e-05
-6.83134e-05
9.37847e-05
-6.96731e-05
8.85141e-05
-6.97701e-05
8.31242e-05
-6.85081e-05
7.78578e-05
-6.58144e-05
7.29682e-05
-6.16503e-05
6.87223e-05
-5.60238e-05
6.54004e-05
-4.9003e-05
6.3293e-05
-4.07303e-05
6.26921e-05
-3.14336e-05
6.38787e-05
-2.14365e-05
6.71175e-05
7.26469e-05
-1.11605e-05
-1.23649e-06
1.78762e-05
-4.319e-06
4.639e-05
-8.74148e-06
6.877e-05
-1.40832e-05
8.58427e-05
-1.99938e-05
9.83689e-05
-2.61803e-05
0.000107033
-3.23956e-05
0.000112438
-3.84278e-05
0.000115107
-4.40917e-05
0.000115494
-4.92202e-05
0.000113989
-5.3659e-05
0.000110931
-5.72609e-05
0.000106619
-5.98823e-05
0.00010132
-6.13818e-05
9.52842e-05
-6.16194e-05
8.87518e-05
-6.04593e-05
8.19641e-05
-5.77746e-05
7.51731e-05
-5.34557e-05
6.86494e-05
-4.74226e-05
6.26892e-05
-3.96406e-05
5.76184e-05
-3.01403e-05
5.37926e-05
-1.90392e-05
5.15911e-05
-6.56424e-06
5.14038e-05
6.92662e-06
5.36266e-05
5.86445e-05
2.0929e-05
-1.21279e-06
1.9089e-05
-4.19858e-06
4.93758e-05
-8.43642e-06
7.30078e-05
-1.34976e-05
9.09039e-05
-1.90284e-05
0.0001039
-2.47358e-05
0.00011274
-3.03747e-05
0.000118077
-3.5737e-05
0.00012047
-4.06412e-05
0.000120399
-4.49248e-05
0.000118273
-4.84367e-05
0.000114443
-5.10313e-05
0.000109213
-5.25644e-05
0.000102853
-5.28893e-05
9.56092e-05
-5.18558e-05
8.77182e-05
-4.93102e-05
7.94185e-05
-4.50994e-05
7.09622e-05
-3.90779e-05
6.26279e-05
-3.11209e-05
5.47321e-05
-2.11421e-05
4.76396e-05
-9.1197e-06
4.17702e-05
4.8724e-06
3.7599e-05
2.06283e-05
3.56479e-05
3.77692e-05
3.64857e-05
4.0709e-05
5.57047e-05
-1.17879e-06
2.02678e-05
-4.03699e-06
5.2234e-05
-8.03764e-06
7.70085e-05
-1.27428e-05
9.5609e-05
-1.77939e-05
0.000108951
-2.2897e-05
0.000117843
-2.78087e-05
0.000122988
-3.23242e-05
0.000124985
-3.62673e-05
0.000124342
-3.94813e-05
0.000121487
-4.18217e-05
0.000116784
-4.31495e-05
0.000110541
-4.33259e-05
0.000103029
-4.22073e-05
9.44906e-05
-3.96424e-05
8.51533e-05
-3.54701e-05
7.52462e-05
-2.95207e-05
6.50128e-05
-2.16207e-05
5.47279e-05
-1.16032e-05
4.47147e-05
6.72906e-07
3.53634e-05
1.52945e-05
2.71487e-05
3.22527e-05
2.06407e-05
5.13902e-05
1.65104e-05
7.2333e-05
1.55429e-05
1.86292e-05
9.44128e-05
-1.13279e-06
2.14006e-05
-3.82738e-06
5.49286e-05
-7.52909e-06
8.07102e-05
-1.17883e-05
9.98682e-05
-1.62398e-05
0.000113402
-2.0586e-05
0.00012219
-2.45833e-05
0.000126986
-2.80288e-05
0.000128431
-3.07504e-05
0.000127063
-3.25977e-05
0.000123334
-3.34343e-05
0.00011762
-3.31312e-05
0.000110238
-3.15608e-05
0.000101459
-2.85914e-05
9.15211e-05
-2.40819e-05
8.06438e-05
-1.7878e-05
6.90423e-05
-9.80958e-06
5.69444e-05
3.08959e-07
4.46094e-05
1.26726e-05
3.23511e-05
2.74709e-05
2.05651e-05
4.48597e-05
9.75987e-06
6.4914e-05
5.86472e-07
8.75582e-05
-6.1339e-06
0.000112465
-9.3634e-06
-7.81985e-06
0.000138914
-1.07356e-06
2.24742e-05
-3.56422e-06
5.74193e-05
-6.89693e-06
8.40429e-05
-1.06073e-05
0.000103579
-1.43194e-05
0.000117114
-1.77289e-05
0.000125599
-2.05878e-05
0.000129845
-2.26919e-05
0.000130535
-2.387e-05
0.000128241
-2.39756e-05
0.00012344
-2.28793e-05
0.000116524
-2.04632e-05
0.000107822
-1.66143e-05
9.76102e-05
-1.12196e-05
8.61265e-05
-4.16006e-06
7.35842e-05
4.69564e-06
6.01866e-05
1.54967e-05
4.61434e-05
2.8415e-05
3.1691e-05
4.3647e-05
1.71191e-05
6.14071e-05
2.805e-06
8.19073e-05
-1.07403e-05
0.000105312
-2.28187e-05
0.000131661
-3.24826e-05
0.000160728
-3.84304e-05
-3.88923e-05
0.000191801
-1.00044e-06
2.34746e-05
-3.24364e-06
5.96625e-05
-6.13041e-06
8.69297e-05
-9.17702e-06
0.000106625
-1.19923e-05
0.00011993
-1.42597e-05
0.000127867
-1.57217e-05
0.000131307
-1.61666e-05
0.00013098
-1.54187e-05
0.000127494
-1.333e-05
0.000121351
-9.77364e-06
0.000112968
-4.63936e-06
0.000102688
2.17149e-06
9.07993e-05
1.07502e-05
7.75478e-05
2.11859e-05
6.31486e-05
3.35715e-05
4.7801e-05
4.80119e-05
3.1703e-05
6.46331e-05
1.50698e-05
8.35919e-05
-1.83981e-06
0.000105083
-1.8686e-05
0.000129334
-3.49914e-05
0.000156578
-5.00632e-05
0.000186984
-6.28877e-05
0.000220492
-7.19385e-05
-7.48982e-05
0.000256497
-9.13376e-07
2.4388e-05
-2.86353e-06
6.16126e-05
-5.22204e-06
8.92882e-05
-7.4803e-06
0.000108883
-9.22586e-06
0.000121675
-1.01235e-05
0.000128764
-9.89874e-06
0.000131082
-8.32521e-06
0.000129406
-5.2142e-06
0.000124382
-4.07601e-07
0.000116544
6.22717e-06
0.000106333
1.48006e-05
9.41142e-05
2.54035e-05
8.01965e-05
3.81088e-05
6.48425e-05
5.29743e-05
4.82831e-05
7.00463e-05
3.0729e-05
8.93663e-05
1.23829e-05
0.000110981
-6.54534e-06
0.00013496
-2.58181e-05
0.00016141
-4.51359e-05
0.000190499
-6.40811e-05
0.000222462
-8.20258e-05
0.000257563
-9.79887e-05
0.000295963
-0.000110338
-0.000116247
0.000337311
-8.12797e-07
2.52008e-05
-2.42315e-06
6.3223e-05
-4.16697e-06
9.1032e-05
-5.50422e-06
0.000110221
-5.9942e-06
0.000122165
-5.27539e-06
0.000128045
-3.04839e-06
0.000128855
9.37525e-07
0.00012542
6.89409e-06
0.000118426
1.50005e-05
0.000108438
2.54073e-05
9.5926e-05
3.82375e-05
8.12841e-05
5.35865e-05
6.48475e-05
7.15207e-05
4.69083e-05
9.20754e-05
2.77283e-05
0.000115254
7.55032e-06
0.000141029
-1.33919e-05
0.000169347
-3.48631e-05
0.000200142
-5.66133e-05
0.000233362
-7.83557e-05
0.000269005
-9.97246e-05
0.000307172
-0.000120193
0.000348108
-0.000138925
0.000392175
-0.000154405
-0.000163498
0.000439426
-6.99346e-07
2.59001e-05
-1.92241e-06
6.4446e-05
-2.96164e-06
9.20712e-05
-3.23828e-06
0.000110497
-2.27583e-06
0.000121203
3.21599e-07
0.000125448
4.88746e-06
0.000124289
1.17066e-05
0.000118601
2.10251e-05
0.000109107
3.30558e-05
9.64072e-05
4.7981e-05
8.10009e-05
6.59519e-05
6.33131e-05
8.70863e-05
4.37131e-05
0.000111463
2.25315e-05
0.000139116
7.56914e-08
0.000170024
-2.33584e-05
0.000204108
-4.74756e-05
0.000241218
-7.19733e-05
0.000281139
-9.65339e-05
0.0003236
-0.000120816
0.000368314
-0.000144438
0.000415053
-0.000166932
0.000463782
-0.000187654
0.000514844
-0.000205468
-0.000217475
0.000568822
-5.73513e-07
2.64736e-05
-1.36065e-06
6.52332e-05
-1.60161e-06
9.23122e-05
-6.71064e-07
0.000109567
1.95103e-06
0.000118581
6.70311e-06
0.000120696
1.39616e-05
0.000117031
2.40552e-05
0.000108507
3.72749e-05
9.58877e-05
5.38793e-05
7.98028e-05
7.40963e-05
6.07839e-05
9.81215e-05
3.92879e-05
0.000126114
1.57205e-05
0.000158189
-9.54349e-06
0.000194407
-3.61426e-05
0.000234762
-6.37127e-05
0.000279159
-9.18733e-05
0.000327401
-0.000120215
0.000379156
-0.000148289
0.000433944
-0.000175604
0.000491125
-0.00020162
0.000549947
-0.000225754
0.000609691
-0.000247398
0.000670087
-0.000265863
-0.000279941
0.000732553
-4.35189e-07
2.69088e-05
-7.35369e-07
6.55333e-05
-7.89972e-08
9.16558e-05
2.2138e-06
0.000107274
6.7142e-06
0.00011408
1.39109e-05
0.000113499
2.42313e-05
0.00010671
3.80563e-05
9.46824e-05
5.57307e-05
7.82133e-05
7.75679e-05
5.79656e-05
0.000103852
3.45e-05
0.000134835
8.30492e-06
0.000170733
-2.01778e-05
0.00021172
-5.05302e-05
0.000257915
-8.23373e-05
0.000309369
-0.000115167
0.000366046
-0.00014855
0.00042779
-0.000181959
0.000494281
-0.000214781
0.000564968
-0.00024629
0.000638971
-0.000275623
0.00071499
-0.000301773
0.00079123
-0.000323638
0.000865799
-0.000340433
-0.000355165
0.000941023
-2.83228e-07
2.71921e-05
-4.08998e-08
6.5291e-05
1.62e-06
8.99949e-05
5.44159e-06
0.000103452
1.20533e-05
0.000107468
2.20009e-05
0.000103552
3.57689e-05
9.29422e-05
5.37964e-05
7.66549e-05
7.64868e-05
5.55229e-05
0.000104213
3.02397e-05
0.000137317
1.39569e-06
0.000176112
-3.04899e-05
0.000220875
-6.49412e-05
0.000271847
-0.000101502
0.000329226
-0.000139716
0.000393161
-0.000179102
0.000463751
-0.00021914
0.000541029
-0.000259237
0.000624944
-0.000298697
0.000715316
-0.000336662
0.000811725
-0.000372032
0.000913273
-0.000403321
0.0010179
-0.000428267
0.00112053
-0.000443057
-0.00044326
0.00120862
-1.15609e-07
2.73077e-05
7.31806e-07
6.44436e-05
3.51602e-06
8.72107e-05
9.04852e-06
9.79199e-05
1.80231e-05
9.84939e-05
3.10478e-05
9.05269e-05
4.86684e-05
7.53216e-05
7.1384e-05
5.39392e-05
9.96564e-05
2.72506e-05
0.000133913
-4.01708e-06
0.000174549
-3.924e-05
0.000221923
-7.78641e-05
0.000276359
-0.000119377
0.000338144
-0.000163287
0.000407532
-0.000209104
0.000484754
-0.000256324
0.000570039
-0.000304425
0.000663652
-0.000352849
0.000765962
-0.000401007
0.000877567
-0.000448267
0.000999503
-0.000493968
0.00113361
-0.000537426
0.00128336
-0.000578016
0.00145636
-0.000616056
-0.000656626
0.00166972
7.25553e-08
2.72351e-05
1.59873e-06
6.29174e-05
5.64115e-06
8.31683e-05
1.30868e-05
9.04742e-05
2.46988e-05
8.68819e-05
4.11506e-05
7.40751e-05
6.30502e-05
5.34221e-05
9.09541e-05
2.60353e-05
0.000125375
-7.17027e-06
0.000166782
-4.54245e-05
0.000215601
-8.80589e-05
0.000272209
-0.000134472
0.000336932
-0.0001841
0.000410047
-0.000236403
0.000491787
-0.000290844
0.000582355
-0.000346892
0.000681947
-0.000404017
0.000790796
-0.000461699
0.000909239
-0.000519449
0.00103781
-0.00057684
0.00117739
-0.00063355
0.0013294
-0.000689431
0.00149599
-0.000744604
0.00167967
-0.000799736
-0.000854531
0.00187757
2.86295e-07
2.69488e-05
2.57794e-06
6.06258e-05
8.03269e-06
7.77136e-05
1.76177e-05
8.08892e-05
3.21681e-05
7.23314e-05
5.24236e-05
5.38196e-05
7.90509e-05
2.67948e-05
0.000112656
-7.56968e-06
0.000153787
-4.8301e-05
0.000202931
-9.45688e-05
0.00026051
-0.000145638
0.000326874
-0.000200835
0.000402292
-0.000259518
0.000486954
-0.000321065
0.000580973
-0.000384864
0.000684396
-0.000450316
0.000797222
-0.000516842
0.000919426
-0.000583903
0.001051
-0.000651024
0.00119199
-0.000717827
0.00134252
-0.000784083
0.00150283
-0.000849741
0.00167316
-0.000914931
0.00185318
-0.000979759
-0.00104114
0.00203979
5.32345e-07
2.64165e-05
3.6918e-06
5.74663e-05
1.0735e-05
7.06704e-05
2.27114e-05
6.89128e-05
4.0529e-05
5.45138e-05
6.49902e-05
2.93584e-05
9.68123e-05
-5.02729e-06
0.000136635
-4.73922e-05
0.000185017
-9.66836e-05
0.000242431
-0.000151983
0.000309249
-0.000212456
0.000385732
-0.000277318
0.000472024
-0.00034581
0.000568144
-0.000417184
0.000673989
-0.000490709
0.000789342
-0.000565669
0.000913885
-0.000641385
0.00104722
-0.000717234
0.00118887
-0.000792674
0.00133831
-0.000867271
0.00149496
-0.000940735
0.00165814
-0.00101292
0.001827
-0.00108379
0.00200029
-0.00115305
-0.00121669
0.00217583
8.18176e-07
2.55983e-05
4.96459e-06
5.33199e-05
1.3795e-05
6.184e-05
2.84409e-05
5.42669e-05
4.98795e-05
3.30752e-05
7.89681e-05
2.69758e-07
0.000116459
-4.25186e-05
0.000163003
-9.39356e-05
0.000219135
-0.000152816
0.000285265
-0.000218113
0.000361657
-0.000288849
0.00044842
-0.000364081
0.000545491
-0.000442881
0.000652637
-0.00052433
0.000769455
-0.000607527
0.000895386
-0.000691599
0.00102973
-0.000775726
0.00117165
-0.000859162
0.00132024
-0.00094126
0.00147446
-0.00102149
0.0016332
-0.00109947
0.00179521
-0.00117494
0.00195913
-0.00124771
0.00212346
-0.00131737
-0.00137995
0.00228671
1.15142e-06
2.44469e-05
6.42053e-06
4.80508e-05
1.72585e-05
5.1002e-05
3.48743e-05
3.66512e-05
6.03062e-05
7.64328e-06
9.4452e-05
-3.3876e-05
0.000138077
-8.61432e-05
0.000191805
-0.000147664
0.000256105
-0.000217115
0.000331265
-0.000293273
0.000417377
-0.000374961
0.000514317
-0.000461022
0.000621743
-0.000550306
0.000739092
-0.000641679
0.000865598
-0.000734033
0.00100031
-0.000826314
0.00114213
-0.000917545
0.00128983
-0.00100686
0.00144208
-0.00109351
0.0015975
-0.00117691
0.00175464
-0.00125661
0.00191202
-0.00133231
0.00206812
-0.00140381
0.00222148
-0.00147073
-0.00152968
0.00237121
1.53929e-06
2.29076e-05
8.08176e-06
4.15083e-05
2.11655e-05
3.79182e-05
4.20673e-05
1.57493e-05
7.18725e-05
-2.21619e-05
0.000111497
-7.35001e-05
0.000161683
-0.00013633
0.000222988
-0.000208968
0.000295751
-0.000289879
0.000380075
-0.000377597
0.0004758
-0.000470686
0.000582498
-0.000567719
0.000699471
-0.00066728
0.000825773
-0.000767981
0.000960237
-0.000868497
0.00110151
-0.000967591
0.00124813
-0.00106416
0.00139851
-0.00115724
0.00155107
-0.00124607
0.00170421
-0.00133005
0.00185637
-0.00140877
0.00200605
-0.001482
0.00215185
-0.00154961
0.00229254
-0.00161142
-0.00166482
0.00242769
1.98799e-06
2.09196e-05
9.96649e-06
3.35299e-05
2.55464e-05
2.23383e-05
5.00569e-05
-8.76116e-06
8.46082e-05
-5.67132e-05
0.000130101
-0.000118993
0.000187215
-0.000193443
0.000256376
-0.00027813
0.000337731
-0.000371234
0.000431118
-0.000470984
0.000536052
-0.000575619
0.000651724
-0.000683392
0.000777031
-0.000792587
0.000910607
-0.000901557
0.00105088
-0.00100877
0.00119614
-0.00111285
0.00134461
-0.00121262
0.00149449
-0.00130713
0.00164406
-0.00139564
0.00179169
-0.00147768
0.0019359
-0.00155297
0.00207536
-0.00162146
0.00220896
-0.00168321
0.00233583
-0.00173829
-0.00178493
0.00245594
2.5024e-06
1.84172e-05
1.20875e-05
2.39448e-05
3.04189e-05
4.00693e-06
5.88553e-05
-3.71976e-05
9.85007e-05
-9.63587e-05
0.000150199
-0.000170692
0.000214507
-0.000257751
0.000291657
-0.000355279
0.000381522
-0.000461099
0.000483598
-0.000573059
0.000596999
-0.00068902
0.000720486
-0.000806879
0.000852514
-0.000924615
0.000991301
-0.00104034
0.00113491
-0.00115238
0.00128135
-0.00125929
0.00142864
-0.00135992
0.00157492
-0.0014534
0.00171847
-0.00153919
0.00185781
-0.00161702
0.00199169
-0.00168685
0.00211911
-0.00174888
0.00223933
-0.00180344
0.00235193
-0.00185089
-0.00189022
0.00245722
3.08571e-06
1.53315e-05
1.4451e-05
1.25794e-05
3.57854e-05
-1.73274e-05
6.84461e-05
-6.98583e-05
0.00011349
-0.000141403
0.00017165
-0.000228851
0.000243292
-0.000329394
0.000328377
-0.000440364
0.000426425
-0.000559147
0.000536513
-0.000683147
0.000657298
-0.000809805
0.000787077
-0.000936658
0.000923867
-0.0010614
0.00106551
-0.00118199
0.0012098
-0.00129667
0.00135456
-0.00140405
0.00149777
-0.00150312
0.00163763
-0.00159326
0.00177262
-0.00167418
0.00190152
-0.00174592
0.00202343
-0.00180877
0.00213777
-0.00186322
0.00224423
-0.0019099
0.00234279
-0.00194945
-0.00198152
0.00243409
3.73936e-06
1.15921e-05
1.70564e-05
-7.37623e-07
4.1632e-05
-4.1903e-05
7.87823e-05
-0.000107009
0.000129465
-0.000192085
0.000194236
-0.000293623
0.000273197
-0.000408355
0.000365951
-0.000533118
0.000471587
-0.000664784
0.000588703
-0.000800262
0.000715462
-0.000936565
0.0008497
-0.0010709
0.00098904
-0.00120075
0.00113104
-0.00132399
0.00127332
-0.00143895
0.00141369
-0.00154442
0.00155023
-0.00163966
0.00168136
-0.00172439
0.00180587
-0.00179869
0.00192292
-0.00186297
0.00203204
-0.00191788
0.00213305
-0.00196423
0.00222605
-0.00200291
0.0023114
-0.0020348
-0.00206008
0.00238997
4.46299e-06
7.12914e-06
1.98955e-05
-1.61701e-05
4.79279e-05
-6.99354e-05
8.97852e-05
-0.000148866
0.000146264
-0.000248564
0.000217669
-0.000365028
0.000303751
-0.000494437
0.000403677
-0.000633044
0.000516036
-0.000777143
0.000638904
-0.00092313
0.000769953
-0.00106761
0.000906593
-0.00120754
0.00104615
-0.0013403
0.001186
-0.00146385
0.00132376
-0.00157671
0.00145736
-0.00167802
0.00158513
-0.00176743
0.00170583
-0.00184509
0.00181866
-0.00191152
0.0019232
-0.00196752
0.00201941
-0.00201408
0.00210749
-0.00205231
0.00218791
-0.00208332
0.00226128
-0.00210817
-0.00212742
0.00232862
5.25443e-06
1.87471e-06
2.29529e-05
-3.38686e-05
5.46247e-05
-0.000101607
0.000101345
-0.000195586
0.000163677
-0.000310896
0.000241591
-0.000442941
0.000334403
-0.000587249
0.000440768
-0.000739409
0.000558727
-0.000895102
0.000685826
-0.00105023
0.000819277
-0.00120106
0.000956155
-0.00134441
0.00109359
-0.00147774
0.00122896
-0.00159921
0.00136
-0.00170775
0.00148492
-0.00180293
0.00160241
-0.00188492
0.00171165
-0.00195434
0.00181229
-0.00201216
0.00190434
-0.00205957
0.00198812
-0.00209787
0.00206419
-0.00212838
0.00213323
-0.00215237
0.00219606
-0.002171
-0.00218509
0.00225373
6.10972e-06
-4.23501e-06
2.62057e-05
-5.39646e-05
6.16577e-05
-0.000137059
0.000113322
-0.00024725
0.000181448
-0.000379023
0.000265585
-0.000527078
0.000364535
-0.000686199
0.000476382
-0.000851255
0.000598598
-0.00101732
0.000728224
-0.00117986
0.000862089
-0.00133493
0.000997049
-0.00147937
0.0011302
-0.00161089
0.00125905
-0.00172806
0.00138161
-0.00183032
0.00149648
-0.0019178
0.00160279
-0.00199123
0.00170018
-0.00205173
0.00178873
-0.00210071
0.00186883
-0.00213966
0.0019411
-0.00217014
0.00200634
-0.00219361
0.00206539
-0.00221141
0.00211914
-0.00222475
-0.00223458
0.00216863
7.02312e-06
-1.12581e-05
2.9624e-05
-7.65654e-05
6.89459e-05
-0.000176381
0.00012555
-0.000303854
0.000199285
-0.000452758
0.000289194
-0.000616987
0.000393496
-0.000790501
0.000509668
-0.000967427
0.000634627
-0.00114228
0.000764973
-0.0013102
0.000897267
-0.00146722
0.00102829
-0.0016104
0.00115525
-0.00173785
0.00127594
-0.00184875
0.00138877
-0.00194315
0.00149278
-0.00202181
0.00158759
-0.00208604
0.00167328
-0.00213742
0.0017503
-0.00217772
0.00181935
-0.00220871
0.00188127
-0.00223207
0.00193699
-0.00224933
0.00198743
-0.00226186
0.00203349
-0.00227081
-0.0022772
0.00207611
7.98704e-06
-1.92452e-05
3.31708e-05
-0.000101749
7.63934e-05
-0.000219604
0.000137837
-0.000365298
0.000216863
-0.000531785
0.00031193
-0.000712054
0.000420621
-0.000899192
0.000539806
-0.00108661
0.000665891
-0.00126836
0.000795141
-0.00143945
0.000923985
-0.00159607
0.00104929
-0.0017357
0.00116852
-0.00185708
0.00127987
-0.0019601
0.00138221
-0.00204549
0.00147509
-0.00211469
0.00155856
-0.00216951
0.00163309
-0.00221196
0.00169945
-0.00224408
0.00175855
-0.00226781
0.00181136
-0.00228488
0.00185887
-0.00229683
0.00190198
-0.00230497
0.00194155
-0.00231038
-0.00231404
0.00197839
8.99205e-06
-2.82372e-05
3.68024e-05
-0.00012956
8.38911e-05
-0.000266692
0.000149974
-0.00043138
0.00023384
-0.000615651
0.000333297
-0.000811511
0.00044527
-0.00101117
0.000566047
-0.00120739
0.000691614
-0.00139393
0.000818028
-0.00156586
0.000941742
-0.00171978
0.00105985
-0.0018538
0.00117021
-0.00196745
0.00127149
-0.00206137
0.00136307
-0.00213707
0.00144495
-0.00219657
0.0015176
-0.00224216
0.00158181
-0.00227617
0.00163855
-0.00230082
0.00168886
-0.00231812
0.00173377
-0.00232979
0.00177425
-0.00233731
0.00181114
-0.00234187
0.00184522
-0.00234446
-0.00234599
0.00187718
1.00269e-05
-3.82641e-05
4.04689e-05
-0.000160002
9.13185e-05
-0.000317542
0.000161737
-0.000501799
0.000249864
-0.000703778
0.000352812
-0.000914459
0.000466852
-0.00112521
0.000587755
-0.00132829
0.000711205
-0.00151738
0.000833198
-0.00168786
0.000950366
-0.00183695
0.00106016
-0.0019636
0.00116092
-0.00206821
0.00125182
-0.00215227
0.00133273
-0.00221798
0.00140409
-0.00226793
0.00146668
-0.00230476
0.00152154
-0.00233102
0.00156974
-0.00234903
0.00161239
-0.00236077
0.0016505
-0.0023679
0.00168497
-0.00237178
0.00171658
-0.00237347
0.00174598
-0.00237386
-0.00237374
0.00177373
1.10785e-05
-4.93426e-05
4.41153e-05
-0.000193038
9.85473e-05
-0.000371974
0.000172897
-0.000576148
0.00026459
-0.000795471
0.000370025
-0.00101989
0.000484856
-0.00124004
0.000604435
-0.00144787
0.000724279
-0.00163722
0.000840483
-0.00180406
0.00094999
-0.00194646
0.00105071
-0.00206432
0.00114151
-0.00215901
0.00122207
-0.00223283
0.00129273
-0.00228864
0.00135425
-0.00232945
0.00140768
-0.00235819
0.00145418
-0.00237752
0.0014949
-0.00238975
0.00153091
-0.00239678
0.00156317
-0.00240016
0.00159249
-0.0024011
0.00161954
-0.00240053
0.00164488
-0.0023992
-0.0023978
0.00166895
1.21324e-05
-6.1475e-05
4.76823e-05
-0.000228588
0.000105444
-0.000429736
0.000183225
-0.000653929
0.000277694
-0.00088994
0.000384539
-0.00112674
0.000498872
-0.00135437
0.000615746
-0.00156475
0.000730666
-0.00175214
0.000839965
-0.00191336
0.000941011
-0.0020475
0.00103224
-0.00215555
0.00111305
-0.00223981
0.00118359
-0.00230338
0.00124459
-0.00234963
0.00129709
-0.00238194
0.00134229
-0.00240339
0.0013814
-0.00241664
0.00141558
-0.00242393
0.00144583
-0.00242703
0.00147303
-0.00242736
0.00149788
-0.00242595
0.00152096
-0.0024236
0.0015427
-0.00242095
-0.00241856
0.00156345
1.31726e-05
-7.46476e-05
5.11082e-05
-0.000266524
0.000111876
-0.000490504
0.000192504
-0.000734557
0.000288881
-0.000986316
0.000396026
-0.00123388
0.000508605
-0.00146695
0.000621516
-0.00167766
0.000730395
-0.00186102
0.000831942
-0.00201491
0.000924029
-0.00213959
0.00100564
-0.00223716
0.00107667
-0.00231085
0.00113772
-0.00236442
0.00118979
-0.0024017
0.00123411
-0.00242627
0.00127197
-0.00244125
0.00130459
-0.00244926
0.00133305
-0.00245239
0.00135829
-0.00245227
0.00138106
-0.00245012
0.00140196
-0.00244686
0.00142148
-0.00244312
0.00143998
-0.00243944
-0.00243627
0.00145769
1.41822e-05
-8.88298e-05
5.43302e-05
-0.000306672
0.000117714
-0.000553888
0.000200533
-0.000817377
0.000297901
-0.00108368
0.000404238
-0.00134022
0.000513884
-0.0015766
0.000621727
-0.0017855
0.000723675
-0.00196297
0.000816887
-0.00210812
0.000899785
-0.00222249
0.00097189
-0.00230927
0.00103357
-0.00237253
0.00108574
-0.0024166
0.00112965
-0.00244561
0.00116663
-0.00246325
0.00119798
-0.0024726
0.00122488
-0.00247615
0.00124832
-0.00247583
0.00126913
-0.00247308
0.00128796
-0.00246896
0.00130532
-0.00246422
0.0013216
-0.0024594
0.00133708
-0.00245491
-0.00245112
0.00135193
1.5144e-05
-0.000103974
5.7287e-05
-0.000348815
0.000122835
-0.000619436
0.000207136
-0.000901677
0.000304559
-0.00118111
0.000409015
-0.00144468
0.000514658
-0.00168224
0.000616509
-0.00188735
0.00071086
-0.00205732
0.000795399
-0.00219266
0.000869105
-0.00229619
0.000932005
-0.00237217
0.000984855
-0.00242538
0.00102885
-0.00246059
0.00106536
-0.00248212
0.00109577
-0.00249366
0.00112135
-0.00249817
0.00114317
-0.00249798
0.00116215
-0.00249481
0.001179
-0.00248993
0.00119428
-0.00248423
0.00120839
-0.00247833
0.00122165