/*--------------------------------*- C++ -*----------------------------------*\
  =========                 |
  \\      /  F ield         | OpenFOAM: The Open Source CFD Toolbox
   \\    /   O peration     | Website:  https://openfoam.org
    \\  /    A nd           | Version:  6.0
     \\/     M anipulation  |
\*---------------------------------------------------------------------------*/
FoamFile
{
    version     2.0;
    format      ascii;
    class       volScalarField;
    location    "117";
    object      p;
}
// * * * * * * * * * * * * * * * * * * * * * * * * * * * * * * * * * * * * * //

dimensions      [0 2 -2 0 0 0 0];

internalField   nonuniform List<scalar> 
12500
(
-0.480358
-0.481603
-0.482249
-0.482622
-0.483013
-0.483551
-0.484304
-0.485291
-0.486495
-0.487878
-0.489393
-0.490991
-0.492625
-0.494252
-0.495833
-0.497336
-0.498737
-0.500016
-0.501165
-0.502172
-0.503018
-0.503707
-0.504467
-0.505467
-0.50452
-0.469757
-0.471232
-0.471972
-0.472344
-0.472662
-0.473056
-0.473596
-0.474304
-0.475169
-0.47616
-0.477237
-0.47836
-0.479487
-0.480585
-0.481624
-0.482579
-0.483435
-0.484182
-0.484816
-0.485337
-0.485732
-0.486013
-0.486396
-0.487044
-0.485935
-0.459216
-0.460889
-0.461705
-0.46207
-0.462316
-0.462569
-0.462898
-0.463332
-0.463864
-0.464468
-0.465111
-0.465758
-0.466378
-0.466944
-0.467433
-0.46783
-0.468126
-0.468319
-0.468415
-0.468421
-0.468334
-0.468171
-0.468137
-0.468394
-0.467131
-0.448805
-0.450646
-0.451527
-0.451882
-0.452057
-0.452174
-0.452302
-0.452471
-0.452678
-0.452903
-0.453118
-0.453296
-0.453411
-0.453444
-0.453379
-0.453209
-0.452932
-0.452554
-0.452088
-0.451549
-0.450946
-0.450303
-0.449807
-0.449625
-0.4482
-0.43859
-0.440575
-0.441509
-0.441854
-0.441961
-0.44195
-0.441888
-0.441804
-0.441698
-0.441554
-0.441351
-0.441067
-0.440682
-0.440184
-0.439564
-0.438821
-0.43796
-0.436993
-0.435941
-0.434828
-0.433671
-0.432505
-0.431495
-0.43081
-0.429195
-0.42863
-0.430738
-0.431719
-0.432053
-0.4321
-0.43197
-0.431728
-0.431404
-0.430998
-0.430499
-0.42989
-0.429153
-0.428276
-0.427251
-0.426075
-0.424754
-0.423298
-0.421727
-0.420067
-0.418348
-0.416601
-0.414864
-0.413278
-0.412013
-0.410157
-0.418977
-0.421196
-0.422218
-0.422544
-0.422536
-0.422297
-0.421888
-0.421336
-0.420645
-0.419805
-0.418802
-0.417623
-0.416262
-0.414716
-0.412987
-0.411085
-0.409027
-0.406838
-0.404547
-0.402194
-0.399817
-0.397462
-0.395237
-0.393302
-0.39114
-0.409683
-0.412003
-0.413064
-0.413384
-0.413328
-0.412989
-0.412424
-0.411659
-0.410696
-0.409528
-0.408145
-0.406537
-0.404702
-0.402642
-0.400363
-0.397881
-0.395216
-0.392397
-0.389459
-0.386445
-0.383404
-0.380385
-0.377462
-0.374774
-0.372229
-0.400794
-0.403213
-0.404313
-0.40463
-0.40453
-0.4041
-0.40339
-0.402422
-0.401201
-0.39972
-0.39797
-0.395947
-0.393649
-0.391084
-0.388262
-0.385201
-0.381927
-0.378472
-0.374873
-0.371179
-0.367447
-0.363729
-0.36006
-0.35655
-0.35355
-0.392361
-0.394877
-0.396016
-0.396333
-0.396194
-0.395679
-0.394832
-0.393674
-0.392207
-0.390426
-0.388324
-0.385899
-0.383153
-0.380094
-0.376737
-0.373104
-0.369223
-0.365128
-0.360862
-0.356476
-0.352033
-0.347593
-0.34315
-0.338776
-0.335266
-0.384432
-0.387046
-0.388225
-0.388542
-0.388367
-0.387773
-0.386797
-0.385458
-0.383758
-0.381692
-0.379253
-0.376442
-0.373262
-0.369724
-0.365846
-0.361649
-0.357167
-0.352435
-0.3475
-0.342416
-0.337255
-0.332082
-0.326855
-0.321606
-0.317555
-0.377058
-0.379772
-0.38099
-0.381307
-0.381098
-0.380428
-0.379329
-0.37782
-0.375899
-0.373562
-0.370804
-0.367626
-0.364031
-0.360033
-0.355649
-0.350904
-0.345831
-0.34047
-0.334869
-0.329087
-0.323206
-0.317297
-0.311292
-0.305187
-0.30059
-0.370293
-0.373103
-0.374359
-0.374675
-0.374432
-0.373689
-0.372474
-0.370804
-0.368676
-0.366086
-0.363029
-0.359506
-0.355521
-0.351087
-0.34622
-0.340947
-0.335301
-0.329323
-0.323063
-0.316586
-0.309984
-0.303341
-0.296569
-0.289641
-0.284516
-0.364191
-0.367089
-0.368377
-0.36869
-0.368413
-0.3676
-0.366277
-0.364457
-0.362138
-0.359316
-0.355985
-0.352144
-0.3478
-0.342961
-0.337643
-0.331871
-0.325677
-0.3191
-0.312194
-0.305028
-0.297703
-0.290318
-0.282781
-0.27506
-0.269429
-0.358804
-0.361775
-0.363087
-0.363393
-0.363082
-0.362202
-0.360779
-0.358824
-0.356334
-0.353304
-0.349729
-0.345607
-0.34094
-0.335737
-0.33001
-0.323779
-0.317072
-0.309927
-0.302394
-0.294543
-0.286488
-0.278344
-0.270021
-0.261506
-0.255374
-0.354181
-0.357202
-0.358525
-0.358819
-0.358473
-0.357533
-0.35602
-0.353946
-0.351309
-0.348101
-0.344318
-0.339955
-0.335014
-0.329497
-0.323413
-0.316776
-0.309605
-0.301933
-0.293802
-0.28528
-0.276486
-0.267548
-0.258389
-0.249027
-0.242349
-0.350364
-0.353401
-0.35472
-0.354995
-0.354613
-0.353618
-0.35203
-0.349858
-0.3471
-0.343749
-0.339798
-0.335243
-0.33008
-0.324308
-0.31793
-0.31095
-0.303379
-0.295236
-0.286551
-0.277382
-0.267843
-0.258071
-0.247995
-0.237672
-0.230331
-0.347384
-0.350395
-0.35169
-0.351936
-0.351519
-0.350476
-0.348826
-0.346578
-0.343729
-0.340271
-0.336196
-0.331499
-0.326171
-0.320208
-0.313604
-0.306354
-0.298456
-0.289912
-0.280734
-0.270958
-0.260684
-0.250041
-0.238954
-0.227501
-0.219295
-0.345256
-0.348192
-0.349437
-0.349646
-0.349191
-0.348107
-0.346409
-0.344107
-0.341195
-0.337667
-0.333511
-0.328721
-0.323284
-0.317191
-0.310428
-0.30298
-0.294831
-0.285964
-0.276365
-0.266043
-0.255065
-0.243539
-0.231364
-0.21859
-0.209242
-0.34398
-0.346784
-0.347951
-0.348109
-0.347613
-0.346492
-0.34476
-0.342423
-0.339475
-0.335908
-0.331709
-0.326868
-0.321371
-0.315201
-0.308338
-0.300757
-0.292427
-0.283311
-0.273369
-0.262573
-0.25095
-0.238569
-0.225276
-0.211025
-0.200218
-0.343536
-0.34615
-0.347208
-0.347299
-0.346753
-0.345596
-0.343837
-0.341479
-0.338516
-0.334934
-0.330722
-0.325863
-0.320342
-0.314136
-0.307219
-0.299555
-0.291101
-0.281801
-0.271591
-0.260407
-0.248225
-0.235066
-0.220708
-0.204923
-0.192362
-0.343887
-0.346251
-0.347167
-0.347171
-0.346563
-0.345365
-0.343581
-0.341209
-0.338241
-0.33466
-0.330452
-0.325598
-0.320077
-0.313862
-0.306922
-0.299212
-0.290679
-0.281253
-0.270849
-0.259371
-0.246748
-0.23295
-0.21769
-0.200486
-0.185952
-0.344981
-0.347039
-0.347777
-0.34767
-0.346983
-0.345732
-0.343915
-0.341528
-0.338556
-0.334982
-0.330786
-0.325946
-0.320438
-0.314232
-0.307291
-0.299567
-0.290999
-0.281509
-0.270996
-0.259338
-0.24642
-0.232156
-0.216205
-0.197769
-0.181043
-0.346752
-0.348455
-0.348979
-0.348733
-0.347944
-0.34662
-0.344757
-0.342343
-0.33936
-0.335788
-0.331602
-0.326778
-0.32129
-0.315105
-0.308187
-0.300489
-0.29195
-0.282493
-0.272014
-0.260376
-0.247418
-0.232969
-0.216535
-0.196848
-0.177442
-0.349132
-0.350437
-0.350713
-0.350297
-0.349376
-0.347954
-0.346021
-0.343561
-0.340552
-0.336969
-0.332785
-0.327974
-0.322509
-0.316361
-0.309497
-0.301881
-0.293469
-0.284209
-0.274031
-0.262846
-0.250536
-0.23693
-0.221405
-0.202277
-0.18206
-0.352051
-0.352925
-0.352919
-0.352299
-0.351213
-0.349662
-0.347631
-0.3451
-0.342043
-0.338431
-0.334236
-0.329431
-0.323991
-0.317893
-0.311115
-0.303639
-0.295453
-0.286552
-0.276948
-0.266684
-0.255863
-0.244679
-0.233377
-0.223028
-0.219992
-0.355444
-0.355863
-0.355545
-0.354688
-0.353401
-0.351686
-0.349525
-0.346894
-0.343763
-0.340102
-0.33588
-0.331073
-0.325657
-0.319617
-0.312945
-0.305644
-0.297733
-0.289252
-0.280275
-0.270926
-0.261411
-0.252046
-0.243272
-0.236151
-0.234929
-0.359259
-0.359207
-0.35855
-0.357421
-0.355899
-0.353984
-0.35166
-0.348899
-0.345669
-0.341937
-0.337671
-0.332849
-0.32745
-0.321469
-0.314908
-0.307792
-0.300162
-0.292093
-0.283694
-0.275125
-0.266614
-0.258469
-0.25106
-0.244981
-0.242743
-0.36346
-0.362926
-0.361906
-0.360475
-0.358683
-0.356535
-0.354017
-0.351097
-0.347741
-0.343915
-0.339588
-0.334734
-0.32934
-0.323404
-0.316942
-0.30999
-0.302607
-0.294882
-0.28694
-0.27894
-0.271083
-0.263612
-0.256773
-0.250839
-0.247341
-0.368023
-0.367002
-0.365599
-0.363839
-0.361747
-0.359337
-0.356595
-0.35349
-0.349985
-0.346043
-0.341631
-0.336725
-0.331312
-0.325395
-0.318997
-0.312162
-0.304957
-0.297478
-0.289843
-0.282196
-0.274698
-0.267521
-0.260816
-0.254683
-0.250062
-0.372945
-0.371432
-0.369629
-0.367517
-0.365101
-0.362403
-0.359413
-0.356099
-0.352421
-0.348339
-0.343816
-0.338827
-0.33336
-0.32742
-0.321033
-0.314248
-0.307134
-0.299785
-0.29231
-0.28483
-0.277472
-0.270357
-0.263575
-0.257153
-0.251677
-0.378234
-0.376223
-0.374007
-0.371525
-0.368766
-0.365761
-0.362503
-0.358959
-0.355083
-0.350832
-0.346164
-0.341052
-0.335482
-0.329461
-0.323016
-0.316199
-0.30908
-0.301746
-0.294298
-0.28684
-0.279472
-0.272284
-0.265338
-0.258631
-0.252541
-0.383909
-0.381392
-0.378752
-0.375888
-0.372772
-0.369445
-0.365902
-0.362105
-0.358005
-0.35355
-0.348694
-0.343406
-0.337672
-0.331497
-0.324915
-0.317975
-0.310751
-0.303328
-0.295797
-0.288252
-0.280777
-0.273446
-0.266308
-0.259354
-0.252845
-0.389995
-0.386961
-0.383887
-0.380633
-0.377151
-0.373491
-0.369646
-0.365572
-0.361214
-0.356512
-0.351415
-0.345886
-0.339912
-0.333503
-0.326694
-0.319541
-0.312119
-0.304513
-0.296812
-0.289101
-0.281458
-0.273949
-0.266617
-0.259458
-0.252664
-0.396517
-0.392951
-0.389436
-0.385788
-0.381934
-0.377929
-0.373764
-0.369386
-0.364729
-0.359726
-0.354319
-0.348473
-0.342176
-0.335443
-0.328318
-0.320864
-0.313161
-0.305295
-0.297355
-0.289425
-0.281578
-0.273873
-0.266354
-0.259021
-0.252027
-0.403496
-0.39938
-0.395418
-0.391373
-0.387143
-0.382782
-0.378275
-0.373556
-0.368549
-0.363179
-0.357386
-0.351135
-0.344424
-0.337278
-0.32975
-0.321914
-0.313857
-0.305671
-0.297444
-0.289259
-0.281184
-0.273277
-0.265577
-0.258089
-0.250938
-0.410943
-0.40626
-0.401847
-0.397404
-0.392793
-0.388061
-0.383182
-0.378076
-0.372656
-0.366841
-0.360573
-0.353826
-0.346608
-0.338959
-0.330949
-0.322662
-0.314195
-0.305643
-0.297095
-0.288631
-0.280316
-0.272202
-0.264325
-0.256692
-0.249402
-0.418859
-0.413592
-0.408724
-0.403884
-0.398883
-0.393759
-0.38847
-0.38292
-0.377012
-0.370664
-0.363826
-0.356485
-0.348669
-0.340437
-0.331876
-0.323083
-0.314163
-0.305213
-0.296323
-0.287567
-0.279006
-0.270683
-0.26263
-0.254852
-0.247428
-0.427231
-0.421363
-0.41604
-0.410801
-0.405399
-0.399855
-0.394106
-0.388042
-0.381559
-0.374581
-0.367074
-0.359045
-0.350546
-0.34166
-0.332492
-0.323152
-0.313749
-0.304384
-0.29514
-0.286087
-0.277275
-0.268744
-0.260514
-0.252589
-0.245028
-0.436029
-0.42955
-0.423772
-0.418132
-0.412311
-0.406307
-0.400036
-0.393375
-0.386221
-0.378512
-0.370234
-0.361428
-0.352172
-0.342575
-0.332758
-0.322844
-0.312943
-0.303153
-0.293553
-0.284202
-0.275142
-0.266402
-0.257996
-0.24992
-0.242219
-0.445206
-0.438111
-0.431882
-0.425833
-0.419568
-0.413054
-0.406188
-0.398837
-0.390907
-0.382361
-0.373219
-0.363555
-0.353481
-0.34313
-0.332639
-0.322136
-0.311732
-0.301519
-0.291565
-0.28192
-0.272616
-0.26367
-0.255089
-0.24686
-0.239017
-0.454698
-0.44699
-0.440312
-0.433847
-0.427103
-0.420018
-0.412469
-0.404325
-0.395512
-0.386028
-0.375934
-0.365346
-0.354408
-0.343275
-0.332097
-0.321003
-0.310101
-0.299472
-0.289174
-0.279243
-0.269701
-0.260554
-0.251801
-0.243418
-0.235436
-0.464424
-0.456111
-0.448992
-0.442094
-0.434828
-0.427097
-0.418769
-0.409724
-0.39992
-0.389402
-0.378283
-0.366719
-0.354886
-0.342961
-0.331096
-0.319421
-0.308033
-0.297002
-0.286372
-0.276166
-0.266394
-0.257054
-0.248134
-0.239601
-0.231486
-0.474282
-0.465383
-0.457829
-0.450479
-0.442636
-0.434176
-0.424964
-0.414905
-0.404008
-0.392374
-0.38017
-0.367595
-0.354856
-0.342139
-0.329601
-0.317361
-0.305507
-0.294091
-0.283145
-0.272679
-0.262689
-0.253165
-0.244086
-0.235408
-0.22717
-0.484156
-0.474697
-0.466715
-0.458885
-0.450402
-0.441119
-0.430913
-0.419733
-0.40765
-0.394831
-0.381501
-0.3679
-0.354256
-0.340764
-0.327574
-0.314796
-0.302498
-0.290721
-0.279478
-0.268766
-0.258573
-0.248877
-0.23965
-0.230835
-0.222489
-0.493913
-0.483927
-0.475522
-0.467179
-0.457984
-0.447778
-0.436468
-0.424066
-0.410718
-0.396664
-0.382186
-0.36756
-0.353029
-0.338789
-0.324979
-0.311692
-0.29898
-0.286866
-0.275348
-0.26441
-0.254029
-0.244177
-0.234815
-0.225876
-0.217438
-0.503403
-0.492931
-0.484108
-0.47521
-0.465224
-0.453992
-0.441474
-0.427761
-0.413086
-0.397767
-0.382139
-0.366506
-0.35112
-0.336168
-0.321775
-0.308016
-0.294923
-0.2825
-0.270731
-0.259589
-0.24904
-0.239048
-0.229567
-0.220517
-0.212007
-0.512463
-0.501552
-0.492313
-0.482814
-0.471952
-0.459592
-0.445771
-0.430674
-0.414633
-0.39804
-0.381278
-0.364672
-0.348473
-0.332856
-0.317926
-0.303734
-0.290294
-0.277594
-0.265601
-0.254279
-0.243582
-0.233471
-0.22389
-0.214746
-0.206185
-0.520918
-0.50962
-0.499966
-0.489813
-0.47799
-0.464408
-0.4492
-0.432667
-0.415242
-0.397388
-0.379527
-0.361996
-0.345039
-0.328809
-0.313389
-0.298809
-0.285062
-0.272117
-0.259931
-0.248454
-0.237634
-0.227426
-0.217764
-0.208546
-0.199959
-0.528585
-0.516955
-0.506884
-0.496023
-0.483155
-0.468266
-0.451609
-0.43361
-0.414804
-0.395722
-0.376815
-0.358421
-0.340767
-0.323983
-0.308128
-0.293206
-0.279192
-0.26604
-0.253692
-0.242089
-0.231173
-0.220892
-0.211173
-0.201901
-0.193314
-0.535273
-0.523371
-0.512878
-0.501254
-0.487264
-0.470997
-0.452848
-0.433377
-0.41322
-0.392964
-0.373078
-0.353891
-0.335609
-0.318336
-0.302102
-0.28689
-0.272653
-0.259331
-0.246856
-0.235159
-0.224176
-0.21385
-0.204098
-0.194796
-0.186236
-0.540788
-0.528674
-0.517754
-0.505313
-0.490134
-0.472438
-0.452778
-0.431856
-0.410399
-0.38904
-0.368254
-0.348356
-0.329523
-0.311828
-0.295276
-0.279825
-0.265413
-0.251963
-0.239399
-0.227642
-0.216623
-0.20628
-0.196521
-0.187216
-0.178712
-0.544937
-0.532674
-0.521321
-0.508014
-0.491593
-0.472437
-0.451274
-0.428944
-0.406259
-0.383885
-0.362291
-0.34177
-0.322466
-0.304422
-0.287615
-0.271982
-0.257443
-0.24391
-0.231295
-0.219514
-0.208493
-0.198165
-0.188429
-0.179146
-0.170729
-0.547531
-0.535181
-0.52339
-0.509176
-0.491475
-0.470854
-0.448221
-0.424552
-0.400731
-0.377442
-0.355142
-0.334092
-0.314403
-0.296084
-0.279088
-0.263331
-0.248716
-0.235146
-0.222523
-0.210757
-0.199769
-0.18949
-0.179807
-0.170577
-0.162277
-0.548389
-0.536014
-0.523782
-0.508629
-0.489632
-0.467564
-0.44352
-0.418602
-0.393752
-0.369662
-0.346765
-0.325286
-0.305299
-0.286785
-0.269668
-0.253846
-0.239211
-0.225652
-0.213065
-0.201355
-0.190439
-0.180244
-0.170646
-0.1615
-0.15335
-0.547339
-0.534999
-0.522327
-0.506218
-0.48593
-0.462458
-0.437086
-0.41103
-0.385275
-0.360506
-0.337127
-0.315322
-0.29513
-0.276499
-0.259331
-0.243508
-0.228908
-0.215411
-0.202907
-0.191296
-0.180492
-0.170417
-0.160938
-0.151909
-0.143942
-0.544226
-0.531981
-0.518874
-0.501805
-0.480251
-0.455445
-0.428852
-0.401785
-0.37526
-0.349943
-0.3262
-0.304176
-0.283871
-0.265205
-0.24806
-0.2323
-0.217792
-0.20441
-0.192038
-0.180571
-0.16992
-0.160005
-0.150681
-0.141802
-0.134053
-0.538909
-0.526816
-0.513286
-0.49527
-0.472502
-0.446454
-0.418765
-0.390831
-0.363679
-0.33795
-0.313966
-0.29183
-0.271507
-0.25289
-0.23584
-0.220209
-0.205855
-0.192643
-0.180453
-0.169176
-0.158722
-0.149007
-0.139875
-0.131183
-0.123685
-0.531268
-0.519383
-0.505449
-0.486517
-0.462606
-0.435432
-0.40679
-0.378143
-0.350516
-0.324513
-0.300413
-0.278274
-0.258029
-0.239545
-0.222666
-0.207231
-0.19309
-0.180105
-0.168148
-0.15711
-0.146899
-0.137425
-0.128524
-0.120056
-0.112844
-0.521204
-0.509581
-0.495272
-0.475472
-0.450511
-0.422345
-0.392908
-0.363711
-0.335764
-0.30963
-0.285538
-0.263506
-0.243434
-0.225167
-0.208533
-0.193364
-0.179499
-0.166797
-0.155128
-0.144379
-0.134456
-0.125267
-0.116638
-0.108433
-0.101541
-0.508643
-0.497336
-0.482686
-0.462083
-0.436185
-0.407178
-0.377115
-0.347538
-0.31943
-0.293306
-0.269346
-0.247528
-0.227724
-0.209759
-0.193448
-0.178611
-0.165087
-0.152727
-0.1414
-0.13099
-0.121403
-0.112545
-0.104229
-0.0963265
-0.0897907
-0.493534
-0.482593
-0.467649
-0.446326
-0.419621
-0.389936
-0.359425
-0.32964
-0.301529
-0.275555
-0.251849
-0.230353
-0.210911
-0.193332
-0.177418
-0.162984
-0.149863
-0.137904
-0.126974
-0.116955
-0.107755
-0.0992722
-0.0913143
-0.0837568
-0.0776121
-0.475853
-0.465328
-0.450143
-0.428196
-0.40083
-0.370643
-0.339866
-0.310047
-0.28209
-0.256403
-0.233071
-0.212001
-0.193013
-0.1759
-0.160458
-0.146496
-0.133842
-0.122344
-0.111867
-0.102293
-0.0935276
-0.0854692
-0.077915
-0.0707466
-0.0650282
-0.455601
-0.44554
-0.430178
-0.407718
-0.379848
-0.34934
-0.318481
-0.288801
-0.261151
-0.235884
-0.213041
-0.192497
-0.174051
-0.157487
-0.14259
-0.129166
-0.117042
-0.106064
-0.0960959
-0.0870205
-0.0787428
-0.071158
-0.0640556
-0.0573225
-0.0520655
-0.432805
-0.423256
-0.407787
-0.384935
-0.356728
-0.326085
-0.295328
-0.265955
-0.23876
-0.214041
-0.191798
-0.171876
-0.154059
-0.138118
-0.123836
-0.111017
-0.0994844
-0.0890853
-0.0796831
-0.0711606
-0.0634231
-0.0563633
-0.049764
-0.043515
-0.0387541
-0.407519
-0.398528
-0.383029
-0.359918
-0.331544
-0.300954
-0.27048
-0.241576
-0.214978
-0.190929
-0.169389
-0.150179
-0.133071
-0.117827
-0.104228
-0.0920751
-0.0811939
-0.0714309
-0.0626503
-0.0547355
-0.0475925
-0.0411119
-0.0350706
-0.0293587
-0.0251313
-0.379822
-0.371432
-0.355987
-0.332754
-0.304391
-0.274038
-0.244022
-0.215744
-0.189876
-0.166609
-0.14587
-0.127458
-0.111132
-0.0966527
-0.0837978
-0.0723699
-0.0621959
-0.0531238
-0.0450192
-0.037767
-0.031274
-0.0254296
-0.0200066
-0.0148924
-0.0112436
-0.349817
-0.342069
-0.326765
-0.303555
-0.275377
-0.245443
-0.216053
-0.188548
-0.163534
-0.141156
-0.121306
-0.103767
-0.0882922
-0.0746375
-0.0625825
-0.0519323
-0.0425166
-0.0341861
-0.0268094
-0.0202735
-0.0144867
-0.00933848
-0.00460091
-0.000156661
0.00285875
-0.317627
-0.310563
-0.295492
-0.272449
-0.24463
-0.215289
-0.186685
-0.16009
-0.136046
-0.114651
-0.0957708
-0.0791745
-0.0646085
-0.0518306
-0.0406231
-0.0307952
-0.0221813
-0.014637
-0.00803488
-0.00226592
0.00275913
0.00714839
0.0111245
0.0148137
0.0171449
-0.283402
-0.277059
-0.262312
-0.239582
-0.212292
-0.183712
-0.156043
-0.130483
-0.107513
-0.0871881
-0.0693486
-0.0537533
-0.0401463
-0.0282877
-0.0179649
-0.00899328
-0.00121404
0.00551039
0.0113004
0.0162591
0.0204711
0.0240374
0.0271689
0.0300134
0.0316299
-0.247305
-0.241719
-0.227391
-0.205116
-0.178518
-0.150855
-0.12426
-0.0998514
-0.0780503
-0.0588708
-0.0421334
-0.0275886
-0.0149803
-0.00407287
0.00533981
0.0134342
0.0203604
0.0262464
0.0312026
0.0353225
0.038682
0.0413698
0.0435781
0.0454877
0.046335
-0.209522
-0.204725
-0.190906
-0.169227
-0.143476
-0.116878
-0.0914822
-0.06833
-0.0477812
-0.0298138
-0.0142306
-0.000776452
0.0108034
0.0207391
0.0292287
0.0364394
0.0425102
0.047557
0.0516756
0.0549443
0.0574271
0.0591966
0.0604053
0.061227
0.0610653
-0.170251
-0.166273
-0.153052
-0.132102
-0.107344
-0.081946
-0.0578657
-0.0360629
-0.0168401
-0.000142366
0.014243
0.0265752
0.0371065
0.0460611
0.0536288
0.0599664
0.0652003
0.0694298
0.0727283
0.0751496
0.0767406
0.0775439
0.0775915
0.0769091
0.0751886
-0.129704
-0.12657
-0.114034
-0.0939392
-0.0703093
-0.0462351
-0.0235736
-0.00320303
0.0146288
0.0300074
0.0431585
0.0543443
0.063815
0.0717897
0.078452
0.0839502
0.0884001
0.0918836
0.094447
0.0961119
0.0968982
0.0967654
0.0954293
0.0925599
0.0887563
-0.0881044
-0.0858358
-0.0740652
-0.0549446
-0.0325668
-0.00992696
0.011224
0.0300895
0.0464738
0.0604899
0.0723749
0.0823934
0.0907942
0.0977937
0.103573
0.108281
0.112031
0.114905
0.116945
0.118173
0.118623
0.118153
0.116006
0.111456
0.106728
-0.0456853
-0.0442993
-0.0333682
-0.0153298
0.00568468
0.0267919
0.0463522
0.0636494
0.078537
0.0911525
0.101742
0.110572
0.11789
0.12391
0.128814
0.132755
0.135858
0.138221
0.139923
0.141061
0.14179
0.142046
0.140883
0.137785
0.140238
-0.00267721
-0.0021891
0.0078333
0.0246911
0.0442433
0.0637325
0.0816336
0.0973091
0.110658
0.12184
0.131107
0.138726
0.144942
0.149966
0.15398
0.157136
0.159563
0.16137
0.162654
0.163542
0.1642
0.164594
0.1642
0.163495
0.168221
0.0406771
0.040257
0.0493096
0.0649002
0.0829052
0.100705
0.11689
0.130901
0.142677
0.152397
0.160318
0.166705
0.171799
0.175807
0.178907
0.181252
0.182971
0.184177
0.184974
0.185489
0.185862
0.18606
0.185717
0.185381
0.189557
0.0841346
0.0828008
0.0908309
0.10508
0.121467
0.13752
0.151946
0.164258
0.174436
0.182673
0.189229
0.194365
0.198316
0.201283
0.203441
0.204937
0.205897
0.206432
0.206645
0.206655
0.206586
0.206414
0.205835
0.205291
0.208448
0.127453
0.125204
0.132168
0.145016
0.159729
0.173991
0.186627
0.19722
0.205783
0.212523
0.217701
0.221571
0.224363
0.22627
0.227459
0.228071
0.228226
0.228029
0.227573
0.226967
0.226314
0.225581
0.224497
0.223467
0.225658
0.170392
0.167232
0.173096
0.184494
0.197493
0.209936
0.220765
0.229627
0.23657
0.241809
0.245602
0.248201
0.249823
0.250655
0.250856
0.250557
0.249873
0.248898
0.247719
0.246429
0.245116
0.243734
0.242035
0.240418
0.241675
0.212715
0.208652
0.21339
0.223306
0.234566
0.245177
0.254194
0.261328
0.266655
0.270397
0.272811
0.274138
0.274589
0.274341
0.273542
0.272319
0.270774
0.268994
0.267057
0.265043
0.263026
0.26095
0.258595
0.256361
0.256728
0.254189
0.249235
0.252834
0.261249
0.270761
0.279542
0.286757
0.292177
0.295903
0.298163
0.29921
0.299276
0.298563
0.297239
0.295442
0.293289
0.290876
0.28828
0.285571
0.282819
0.280083
0.277306
0.274291
0.27144
0.270954
0.294588
0.288761
0.291217
0.298126
0.305896
0.312863
0.3183
0.322032
0.324184
0.324988
0.32469
0.323515
0.321655
0.319267
0.316483
0.313409
0.310133
0.306724
0.303244
0.299756
0.296306
0.292836
0.289178
0.285723
0.284421
0.333693
0.327014
0.328334
0.333748
0.339796
0.344981
0.348675
0.350759
0.351374
0.350756
0.349146
0.346759
0.343778
0.340351
0.336599
0.332621
0.328497
0.32429
0.320053
0.315843
0.311696
0.307556
0.303278
0.29924
0.297157
0.371292
0.363789
0.36399
0.367931
0.372294
0.375741
0.377744
0.378227
0.377354
0.37536
0.372479
0.368918
0.36485
0.360414
0.355723
0.350868
0.345921
0.340939
0.335969
0.331059
0.326241
0.321459
0.316591
0.311994
0.309166
0.407184
0.398887
0.397996
0.400501
0.40323
0.404999
0.40537
0.404315
0.402011
0.398694
0.394593
0.389905
0.384792
0.379387
0.373793
0.368095
0.362357
0.35663
0.350957
0.345378
0.339919
0.334528
0.329104
0.323975
0.320435
0.441175
0.432121
0.430173
0.431294
0.432453
0.432613
0.431427
0.428905
0.425238
0.420661
0.415398
0.409635
0.403528
0.397199
0.390746
0.384244
0.377754
0.371319
0.364978
0.358765
0.352701
0.346737
0.34079
0.335158
0.330944
0.473084
0.463312
0.460354
0.460153
0.459817
0.458454
0.455794
0.451886
0.446932
0.441167
0.434806
0.42803
0.420984
0.413785
0.40652
0.399262
0.392062
0.384961
0.377992
0.371183
0.364551
0.358054
0.351621
0.345516
0.340666
0.502738
0.492294
0.488381
0.486931
0.48519
0.482397
0.478357
0.473153
0.466996
0.460121
0.452736
0.445013
0.437092
0.429079
0.421057
0.413092
0.405231
0.397509
0.389955
0.382593
0.375435
0.368444
0.361562
0.355017
0.349573
0.529978
0.518909
0.514105
0.511492
0.508446
0.504328
0.499011
0.492609
0.485342
0.477441
0.46911
0.460513
0.451783
0.443019
0.4343
0.425683
0.417212
0.408919
0.400826
0.392956
0.385315
0.377872
0.37058
0.363629
0.357635
0.554657
0.543016
0.537391
0.53371
0.529469
0.524139
0.517658
0.510163
0.501884
0.493049
0.483856
0.474464
0.464997
0.45555
0.446194
0.436984
0.427959
0.419146
0.410564
0.402232
0.394153
0.386301
0.378639
0.371318
0.364822
0.576639
0.564481
0.558115
0.553471
0.548152
0.541735
0.534208
0.525733
0.516546
0.506873
0.496908
0.486802
0.476675
0.466615
0.45669
0.446949
0.437427
0.428148
0.41913
0.410384
0.401915
0.393699
0.385707
0.378055
0.371106
0.595802
0.583187
0.576165
0.570669
0.564402
0.557026
0.548579
0.539243
0.529258
0.518849
0.508204
0.497472
0.486764
0.476166
0.465741
0.455533
0.445575
0.435888
0.426487
0.417379
0.408568
0.400034
0.391754
0.383808
0.376462
0.612039
0.599028
0.59144
0.585213
0.578132
0.569935
0.5607
0.550626
0.539957
0.528918
0.517692
0.506422
0.495218
0.484159
0.473305
0.462698
0.452367
0.442331
0.432601
0.423184
0.414081
0.405276
0.39675
0.388553
0.380865
0.625255
0.611912
0.603855
0.597023
0.589268
0.580393
0.570507
0.559824
0.54859
0.53703
0.525323
0.513609
0.501994
0.490554
0.479345
0.468408
0.457769
0.447445
0.437444
0.427772
0.418428
0.409399
0.40067
0.392266
0.384296
0.63537
0.621762
0.613336
0.60603
0.597749
0.588343
0.577947
0.566786
0.55511
0.543141
0.531057
0.518995
0.507056
0.495317
0.483831
0.472635
0.461754
0.451203
0.440991
0.431119
0.421586
0.412383
0.403495
0.394927
0.386736
0.642319
0.628514
0.619823
0.612179
0.603522
0.593736
0.582976
0.571472
0.559479
0.547216
0.534861
0.522548
0.510377
0.498423
0.486736
0.475354
0.464299
0.453585
0.44322
0.433204
0.423536
0.414208
0.405206
0.39652
0.388171
0.646051
0.632118
0.623269
0.615427
0.606549
0.596538
0.58556
0.573851
0.561667
0.549227
0.536708
0.524244
0.511933
0.499848
0.488041
0.476545
0.465385
0.454573
0.444116
0.434014
0.424264
0.414861
0.40579
0.397033
0.388591
0.646531
0.632541
0.623643
0.615743
0.6068
0.59672
0.585675
0.573901
0.561654
0.549156
0.536582
0.524066
0.511708
0.499579
0.48773
0.476197
0.465001
0.454156
0.443668
0.433537
0.42376
0.414332
0.405239
0.396456
0.387988
0.643738
0.629763
0.620924
0.61311
0.60426
0.59427
0.583307
0.571607
0.559428
0.54699
0.534472
0.522006
0.509694
0.497607
0.485798
0.474301
0.463139
0.452327
0.441869
0.431767
0.422018
0.412617
0.403546
0.394787
0.386357
0.637668
0.623778
0.615108
0.607524
0.598924
0.589183
0.578453
0.566969
0.554986
0.542728
0.530374
0.51806
0.505888
0.49393
0.482241
0.470856
0.459799
0.449084
0.438719
0.428704
0.419039
0.409714
0.400712
0.392023
0.3837
0.628331
0.614596
0.606205
0.598993
0.590802
0.581465
0.571119
0.559991
0.548334
0.536375
0.524296
0.512234
0.500295
0.488553
0.477064
0.465866
0.454984
0.444433
0.434221
0.424352
0.414825
0.405628
0.39674
0.388169
0.380017
0.615751
0.602242
0.594238
0.587538
0.579911
0.571136
0.561323
0.550689
0.539487
0.527945
0.516249
0.504541
0.492927
0.481487
0.470279
0.459342
0.448704
0.438382
0.428386
0.41872
0.409384
0.400366
0.391639
0.383232
0.375317
0.59997
0.586756
0.579243
0.573193
0.566284
0.558225
0.549092
0.539089
0.528468
0.517461
0.506255
0.494999
0.483803
0.47275
0.461901
0.4513
0.440975
0.430946
0.421225
0.41182
0.402731
0.393942
0.385421
0.377224
0.369609
0.581044
0.56819
0.561271
0.556006
0.549963
0.54277
0.534461
0.525225
0.51531
0.504951
0.494342
0.483635
0.472947
0.462365
0.451954
0.44176
0.431816
0.422144
0.412759
0.40367
0.394882
0.386371
0.378101
0.370159
0.362906
0.559041
0.546614
0.540386
0.536036
0.531004
0.524824
0.517479
0.50914
0.500053
0.490455
0.480546
0.470484
0.460392
0.450362
0.440464
0.430749
0.421253
0.412001
0.403009
0.394293
0.385858
0.377675
0.3697
0.362058
0.355225
0.534048
0.522109
0.516666
0.513353
0.509472
0.504445
0.498201
0.490887
0.482746
0.474017
0.464908
0.455584
0.446174
0.436777
0.427467
0.4183
0.409316
0.400544
0.392004
0.383715
0.375683
0.367877
0.360242
0.352941
0.346586
0.506163
0.494772
0.490202
0.488042
0.485444
0.481706
0.476693
0.470527
0.463445
0.455691
0.447479
0.438982
0.430337
0.421649
0.412999
0.404447
0.396038
0.387806
0.379773
0.371964
0.364387
0.357006
0.349753
0.342834
0.337012
0.475498
0.464712
0.461095
0.460199
0.459008
0.456686
0.453029
0.448128
0.442214
0.435535
0.428313
0.42073
0.412929
0.405024
0.397103
0.389231
0.381458
0.373822
0.366352
0.359073
0.352001
0.34509
0.338263
0.331765
0.326526
0.442179
0.432051
0.429463
0.429929
0.430262
0.429477
0.427292
0.423767
0.419124
0.413617
0.407473
0.400884
0.394004
0.386953
0.379826
0.372695
0.365617
0.358632
0.351775
0.345077
0.338557
0.332163
0.325803
0.319763
0.315156
0.406346
0.396925
0.395432
0.397352
0.399313
0.400177
0.399574
0.397529
0.394255
0.390008
0.385025
0.379509
0.37362
0.367489
0.361218
0.354887
0.348557
0.342276
0.336081
0.330012
0.324089
0.318257
0.312406
0.30686
0.302929
0.368151
0.359481
0.359142
0.362595
0.366281
0.368894
0.369974
0.369505
0.36769
0.364787
0.361043
0.356669
0.351838
0.346689
0.341332
0.335854
0.330324
0.324795
0.31931
0.313913
0.308632
0.303406
0.298103
0.293086
0.289874
0.327757
0.31988
0.320743
0.325798
0.331293
0.335746
0.3386
0.339795
0.33952
0.338038
0.335603
0.332438
0.328725
0.324614
0.320223
0.315648
0.310965
0.306232
0.3015
0.296818
0.29222
0.28764
0.282927
0.27847
0.276018
0.28534
0.278293
0.280398
0.287111
0.294486
0.300859
0.305566
0.308503
0.309843
0.30985
0.308787
0.306889
0.304348
0.301325
0.297947
0.294319
0.290524
0.286628
0.282686
0.278757
0.274882
0.270989
0.266902
0.263038
0.261383
0.241086
0.2349
0.238279
0.246692
0.256005
0.264364
0.270996
0.275743
0.278762
0.280317
0.280682
0.280101
0.27878
0.276887
0.274563
0.271919
0.269047
0.266022
0.262904
0.259761
0.256642
0.253473
0.25005
0.246807
0.245987
0.195192
0.189895
0.194566
0.20471
0.216005
0.226404
0.235017
0.241632
0.246384
0.24954
0.251379
0.252159
0.252095
0.251368
0.250129
0.248498
0.246578
0.244449
0.242182
0.239851
0.237517
0.235104
0.232378
0.229785
0.229837
0.147865
0.14348
0.149452
0.161342
0.174649
0.187128
0.197768
0.206295
0.212826
0.217623
0.220974
0.223147
0.224371
0.224837
0.224706
0.224109
0.223158
0.221943
0.220542
0.21904
0.217511
0.215879
0.213879
0.211957
0.212922
0.0993207
0.095865
0.103138
0.116775
0.132108
0.146692
0.15939
0.169866
0.178208
0.184677
0.189569
0.19316
0.195691
0.197367
0.198357
0.198804
0.198828
0.19853
0.197998
0.197329
0.19661
0.195772
0.194516
0.193283
0.195201
0.0497841
0.0472704
0.0558314
0.0712028
0.0885599
0.10526
0.120036
0.132481
0.142658
0.15082
0.15727
0.162294
0.166145
0.169036
0.171149
0.172637
0.17363
0.174239
0.174561
0.174708
0.174786
0.174733
0.174219
0.173677
0.176593
-0.000513667
-0.00207706
0.00774886
0.024826
0.0441904
0.0630021
0.0798606
0.0942865
0.10631
0.116177
0.124194
0.130656
0.135827
0.13993
0.143158
0.145672
0.147611
0.149096
0.150235
0.151154
0.151979
0.152665
0.152848
0.152966
0.15693
-0.0513344
-0.0519444
-0.0408872
-0.0221471
-0.000808252
0.0200962
0.0390294
0.0554345
0.0693057
0.0808791
0.0904629
0.0983609
0.104845
0.110149
0.114471
0.117984
0.120832
0.123144
0.125039
0.126657
0.128147
0.129471
0.130233
0.130899
0.135953
-0.102435
-0.102093
-0.0898486
-0.069503
-0.0462381
-0.0232745
-0.00228772
0.0160838
0.0317947
0.0450678
0.0562114
0.0655355