/*--------------------------------*- C++ -*----------------------------------*\
  =========                 |
  \\      /  F ield         | OpenFOAM: The Open Source CFD Toolbox
   \\    /   O peration     | Website:  https://openfoam.org
    \\  /    A nd           | Version:  6.0
     \\/     M anipulation  |
\*---------------------------------------------------------------------------*/
FoamFile
{
    version     2.0;
    format      ascii;
    class       volScalarField;
    location    "118";
    object      p;
}
// * * * * * * * * * * * * * * * * * * * * * * * * * * * * * * * * * * * * * //

dimensions      [0 2 -2 0 0 0 0];

internalField   nonuniform List<scalar> 
12500
(
-0.459788
-0.459606
-0.459327
-0.458922
-0.458493
-0.458164
-0.458029
-0.458146
-0.45854
-0.459215
-0.460163
-0.461368
-0.462815
-0.464489
-0.466375
-0.468461
-0.470731
-0.473171
-0.475764
-0.478489
-0.481325
-0.484247
-0.487233
-0.49026
-0.493248
-0.455388
-0.455725
-0.455751
-0.455543
-0.455266
-0.455051
-0.454993
-0.45515
-0.455543
-0.456175
-0.457034
-0.458104
-0.459371
-0.46082
-0.462439
-0.464217
-0.466142
-0.468203
-0.470386
-0.472674
-0.475049
-0.477491
-0.479969
-0.482446
-0.48499
-0.45084
-0.45172
-0.452058
-0.452051
-0.451926
-0.451822
-0.451835
-0.45202
-0.452398
-0.452967
-0.453715
-0.454626
-0.455683
-0.456875
-0.458191
-0.459623
-0.461161
-0.462799
-0.464526
-0.466329
-0.468197
-0.470113
-0.472033
-0.473911
-0.475977
-0.44626
-0.447695
-0.44835
-0.448543
-0.448571
-0.448574
-0.448651
-0.448855
-0.449204
-0.449695
-0.450311
-0.451038
-0.451858
-0.45276
-0.453736
-0.45478
-0.455887
-0.457055
-0.458277
-0.459546
-0.460856
-0.462194
-0.463506
-0.464738
-0.466292
-0.441781
-0.443768
-0.444736
-0.445129
-0.445308
-0.445416
-0.445551
-0.445766
-0.446076
-0.446473
-0.44694
-0.447459
-0.448013
-0.448592
-0.44919
-0.449803
-0.450433
-0.451079
-0.451742
-0.452421
-0.453118
-0.453825
-0.454474
-0.45501
-0.456016
-0.437543
-0.440065
-0.441337
-0.441926
-0.442253
-0.442464
-0.442654
-0.442874
-0.443135
-0.443427
-0.443728
-0.444019
-0.444281
-0.444505
-0.444685
-0.444822
-0.444921
-0.444989
-0.445033
-0.445059
-0.445081
-0.445096
-0.445025
-0.444812
-0.445232
-0.433691
-0.436714
-0.438275
-0.439053
-0.439526
-0.439838
-0.440081
-0.440303
-0.44051
-0.440688
-0.440811
-0.440856
-0.440803
-0.44064
-0.440363
-0.439976
-0.43949
-0.438917
-0.438273
-0.437577
-0.436852
-0.436105
-0.435245
-0.434225
-0.434014
-0.430365
-0.43384
-0.435666
-0.436625
-0.43724
-0.437653
-0.43795
-0.438174
-0.438327
-0.438388
-0.438327
-0.438114
-0.437726
-0.437149
-0.436377
-0.435419
-0.434288
-0.433007
-0.431601
-0.4301
-0.428544
-0.426952
-0.425224
-0.423326
-0.422432
-0.427697
-0.431559
-0.433621
-0.434749
-0.435502
-0.436016
-0.43637
-0.436602
-0.436705
-0.436653
-0.436407
-0.435931
-0.435196
-0.434182
-0.432884
-0.431309
-0.429476
-0.427415
-0.425162
-0.422765
-0.420282
-0.417746
-0.415051
-0.412188
-0.410545
-0.425797
-0.429967
-0.43223
-0.433513
-0.4344
-0.435017
-0.435435
-0.435683
-0.435747
-0.435591
-0.435168
-0.434433
-0.433348
-0.431887
-0.430038
-0.427806
-0.425216
-0.422303
-0.419118
-0.415723
-0.412201
-0.408604
-0.404825
-0.400886
-0.39841
-0.424752
-0.429139
-0.43156
-0.432984
-0.433999
-0.434722
-0.435213
-0.43549
-0.43553
-0.435288
-0.434705
-0.433725
-0.432298
-0.430388
-0.427976
-0.425061
-0.421668
-0.417837
-0.413631
-0.409132
-0.404449
-0.399657
-0.394653
-0.389499
-0.386086
-0.424616
-0.42912
-0.431654
-0.433198
-0.434336
-0.435167
-0.43574
-0.436061
-0.436098
-0.435792
-0.435073
-0.433872
-0.432124
-0.42978
-0.426807
-0.423199
-0.418971
-0.41417
-0.408865
-0.403158
-0.397186
-0.391051
-0.38466
-0.378126
-0.373646
-0.425406
-0.429923
-0.43252
-0.434162
-0.435412
-0.436353
-0.437017
-0.437399
-0.437453
-0.437109
-0.436284
-0.434893
-0.432856
-0.430105
-0.426594
-0.422299
-0.41723
-0.411427
-0.404963
-0.397957
-0.390574
-0.382947
-0.374994
-0.366889
-0.361192
-0.427104
-0.431527
-0.434135
-0.43585
-0.437199
-0.438246
-0.439006
-0.439461
-0.439552
-0.439196
-0.438296
-0.43675
-0.434462
-0.431345
-0.427331
-0.422382
-0.416488
-0.40968
-0.40203
-0.393663
-0.384769
-0.375514
-0.365828
-0.35595
-0.348866
-0.429653
-0.433882
-0.436446
-0.438203
-0.439633
-0.440776
-0.441631
-0.442166
-0.442307
-0.441959
-0.441011
-0.439345
-0.436846
-0.433408
-0.428942
-0.423386
-0.416711
-0.408931
-0.400104
-0.390357
-0.379896
-0.368912
-0.357349
-0.345508
-0.33686
-0.432965
-0.436906
-0.439373
-0.441138
-0.442623
-0.443845
-0.444786
-0.445397
-0.445591
-0.445262
-0.444283
-0.442523
-0.439848
-0.436133
-0.431267
-0.425165
-0.417775
-0.409086
-0.399139
-0.388046
-0.37602
-0.363269
-0.349742
-0.335791
-0.32541
-0.436927
-0.440499
-0.442817
-0.444551
-0.446058
-0.447334
-0.448339
-0.449011
-0.44925
-0.448935
-0.447929
-0.446087
-0.443259
-0.439301
-0.434083
-0.427498
-0.419469
-0.409959
-0.398984
-0.386636
-0.373116
-0.358641
-0.343154
-0.327025
-0.31477
-0.441409
-0.444545
-0.446665
-0.448326
-0.449816
-0.451109
-0.452148
-0.452852
-0.453112
-0.452793
-0.451748
-0.449819
-0.446842
-0.44266
-0.437125
-0.430109
-0.421515
-0.411283
-0.3994
-0.385931
-0.371056
-0.354986
-0.33765
-0.319387
-0.30517
-0.446274
-0.448926
-0.450802
-0.452346
-0.453773
-0.455039
-0.456068
-0.456766
-0.457009
-0.456653
-0.455541
-0.453502
-0.450365
-0.445958
-0.440121
-0.432712
-0.423617
-0.412754
-0.40009
-0.385661
-0.369616
-0.352155
-0.333183
-0.312953
-0.296757
-0.451386
-0.453524
-0.455118
-0.456499
-0.457814
-0.459001
-0.45997
-0.460612
-0.46079
-0.460352
-0.459131
-0.456948
-0.453623
-0.448976
-0.442837
-0.435056
-0.425506
-0.414093
-0.400767
-0.38554
-0.368532
-0.349923
-0.329602
-0.307681
-0.289567
-0.456625
-0.458237
-0.459516
-0.460689
-0.46184
-0.462893
-0.463745
-0.464274
-0.464333
-0.46376
-0.462381
-0.460011
-0.456463
-0.451552
-0.445102
-0.436959
-0.426989
-0.415094
-0.401214
-0.385345
-0.367581
-0.348083
-0.326737
-0.303478
-0.283578
-0.461886
-0.462976
-0.463916
-0.464839
-0.465775
-0.466637
-0.467314
-0.46767
-0.467552
-0.46679
-0.465203
-0.462602
-0.458795
-0.453594
-0.446825
-0.438329
-0.427976
-0.415666
-0.401337
-0.384977
-0.366658
-0.34653
-0.324493
-0.300288
-0.278762
-0.467093
-0.467677
-0.46826
-0.468896
-0.469568
-0.470185
-0.470628
-0.470754
-0.470403
-0.4694
-0.467557
-0.464684
-0.460588
-0.455081
-0.447992
-0.439168
-0.428482
-0.415839
-0.401179
-0.384483
-0.365801
-0.345262
-0.322781
-0.297889
-0.274785
-0.472195
-0.472299
-0.472516
-0.472831
-0.473196
-0.473517
-0.473673
-0.473516
-0.472881
-0.471588
-0.469449
-0.466271
-0.461864
-0.456047
-0.448655
-0.439547
-0.428611
-0.415765
-0.400956
-0.38416
-0.365396
-0.344719
-0.321931
-0.296231
-0.271246
-0.477172
-0.476828
-0.476672
-0.476641
-0.476661
-0.476643
-0.476465
-0.475978
-0.475013
-0.47339
-0.47092
-0.467413
-0.462684
-0.456561
-0.448898
-0.439575
-0.428507
-0.415647
-0.400982
-0.384534
-0.366352
-0.346467
-0.324528
-0.299418
-0.274046
-0.48203
-0.48127
-0.480741
-0.480343
-0.479988
-0.479594
-0.479044
-0.478187
-0.476856
-0.47487
-0.472041
-0.468184
-0.463125
-0.456708
-0.448806
-0.439332
-0.428241
-0.415539
-0.401293
-0.385633
-0.368778
-0.351022
-0.332683
-0.31486
-0.302761
-0.4868
-0.485653
-0.484751
-0.483973
-0.483219
-0.482423
-0.481469
-0.480211
-0.478483
-0.476106
-0.472895
-0.468673
-0.463276
-0.456568
-0.448448
-0.438859
-0.4278
-0.415327
-0.401564
-0.38671
-0.371055
-0.354979
-0.338953
-0.3241
-0.313849
-0.491532
-0.490019
-0.488748
-0.487579
-0.486412
-0.485192
-0.483812
-0.48213
-0.47998
-0.477188
-0.473573
-0.468968
-0.463221
-0.456217
-0.44788
-0.438186
-0.427168
-0.414921
-0.401607
-0.387455
-0.372765
-0.357904
-0.343281
-0.329598
-0.318879
-0.496288
-0.494423
-0.492783
-0.491219
-0.489629
-0.487973
-0.486151
-0.484025
-0.481434
-0.478204
-0.474164
-0.469153
-0.463038
-0.455719
-0.447148
-0.437328
-0.426319
-0.414243
-0.401275
-0.387645
-0.373626
-0.359524
-0.345634
-0.332365
-0.321023
-0.501139
-0.498925
-0.496916
-0.494954
-0.492937
-0.490836
-0.488561
-0.485977
-0.482925
-0.479236
-0.474745
-0.469301
-0.462787
-0.455124
-0.446285
-0.436297
-0.425243
-0.413257
-0.400517
-0.387238
-0.373657
-0.360016
-0.346525
-0.333427
-0.321603
-0.506156
-0.503586
-0.501206
-0.498844
-0.496398
-0.493849
-0.491112
-0.488056
-0.484523
-0.48035
-0.475376
-0.469465
-0.462514
-0.454465
-0.445313
-0.435105
-0.42394
-0.411959
-0.399338
-0.386272
-0.372966
-0.359613
-0.34637
-0.333397
-0.321315
-0.511406
-0.508463
-0.505707
-0.502946
-0.50007
-0.49707
-0.493863
-0.490319
-0.486283
-0.481594
-0.476101
-0.46968
-0.462246
-0.453762
-0.444244
-0.433758
-0.422416
-0.410364
-0.397773
-0.384822
-0.371687
-0.358529
-0.345473
-0.33264
-0.320479
-0.516949
-0.513607
-0.510467
-0.507306
-0.504001
-0.500545
-0.496858
-0.492808
-0.48824
-0.482998
-0.476942
-0.469961
-0.461992
-0.453019
-0.443081
-0.43226
-0.420683
-0.408497
-0.395869
-0.382963
-0.369936
-0.356926
-0.344039
-0.331373
-0.319262
-0.522829
-0.51906
-0.515525
-0.511962
-0.508225
-0.504308
-0.500126
-0.495545
-0.490411
-0.484571
-0.4779
-0.470305
-0.461745
-0.452229
-0.441817
-0.430612
-0.41875
-0.406382
-0.393668
-0.380763
-0.367807
-0.354919
-0.342191
-0.329712
-0.317729
-0.529079
-0.52485
-0.520909
-0.516942
-0.512768
-0.508378
-0.503681
-0.498537
-0.492792
-0.486303
-0.478959
-0.47069
-0.461482
-0.45137
-0.440439
-0.428808
-0.416622
-0.404037
-0.391205
-0.378271
-0.365361
-0.352578
-0.340003
-0.327715
-0.315896
-0.535715
-0.530994
-0.526635
-0.522257
-0.517639
-0.512759
-0.507519
-0.501771
-0.495364
-0.488166
-0.480086
-0.471083
-0.461172
-0.450416
-0.438925
-0.426836
-0.4143
-0.401473
-0.388503
-0.37552
-0.362638
-0.349946
-0.337512
-0.325407
-0.313759
-0.542737
-0.537494
-0.532706
-0.527911
-0.522835
-0.517442
-0.511621
-0.505219
-0.498089
-0.490116
-0.481235
-0.471437
-0.460771
-0.449331
-0.43725
-0.424679
-0.411776
-0.398694
-0.385571
-0.372527
-0.359659
-0.347044
-0.334735
-0.322795
-0.311308
-0.550129
-0.544338
-0.539112
-0.533891
-0.528339
-0.522401
-0.515953
-0.508837
-0.500914
-0.492095
-0.482346
-0.471696
-0.460231
-0.448075
-0.435383
-0.422317
-0.409039
-0.395695
-0.382413
-0.369297
-0.356432
-0.343876
-0.331674
-0.319876
-0.30853
-0.55786
-0.551503
-0.54583
-0.540172
-0.53412
-0.527597
-0.520464
-0.512563
-0.503773
-0.494033
-0.483351
-0.471798
-0.459496
-0.446602
-0.433288
-0.419724
-0.40607
-0.392464
-0.379019
-0.365826
-0.352952
-0.340442
-0.328327
-0.316646
-0.305417
-0.565883
-0.558947
-0.552822
-0.546713
-0.540131
-0.532973
-0.525088
-0.516324
-0.506584
-0.49585
-0.484175
-0.471675
-0.458511
-0.444867
-0.430929
-0.416872
-0.402848
-0.388983
-0.375376
-0.362101
-0.349208
-0.33673
-0.324684
-0.313097
-0.301964
-0.574136
-0.566616
-0.560036
-0.55346
-0.546309
-0.538456
-0.529742
-0.520029
-0.509259
-0.497459
-0.484736
-0.471256
-0.457215
-0.44282
-0.428267
-0.413727
-0.399344
-0.385229
-0.371464
-0.358104
-0.345185
-0.332726
-0.320734
-0.309219
-0.298164
-0.582541
-0.574442
-0.567405
-0.560341
-0.552576
-0.543958
-0.53433
-0.52358
-0.511695
-0.498765
-0.484952
-0.47047
-0.455549
-0.440412
-0.425259
-0.410255
-0.395529
-0.381174
-0.367255
-0.353811
-0.340861
-0.328412
-0.31646
-0.305
-0.294011
-0.591005
-0.582339
-0.574845
-0.567269
-0.558836
-0.549375
-0.538741
-0.526863
-0.513788
-0.499671
-0.484738
-0.469245
-0.453452
-0.437592
-0.421863
-0.406418
-0.391367
-0.376787
-0.362722
-0.349196
-0.336213
-0.323767
-0.311846
-0.300428
-0.289497
-0.59942
-0.590206
-0.582257
-0.574137
-0.564975
-0.554586
-0.542853
-0.529759
-0.515426
-0.50008
-0.484009
-0.467511
-0.450865
-0.434311
-0.418035
-0.402175
-0.386823
-0.372033
-0.357833
-0.344228
-0.331212
-0.318767
-0.306871
-0.295487
-0.284611
-0.607662
-0.597928
-0.589524
-0.580826
-0.570866
-0.55946
-0.546534
-0.532144
-0.516495
-0.499894
-0.482683
-0.465198
-0.447731
-0.430517
-0.41373
-0.397486
-0.381856
-0.366875
-0.352552
-0.338877
-0.325831
-0.313388
-0.301515
-0.29016
-0.279341
-0.615593
-0.605372
-0.596515
-0.587198
-0.576366
-0.563851
-0.549644
-0.533888
-0.516884
-0.499015
-0.48068
-0.462239
-0.443991
-0.42616
-0.408901
-0.392307
-0.376427
-0.361275
-0.346844
-0.333109
-0.32004
-0.307603
-0.295755
-0.284429
-0.273673
-0.623062
-0.612396
-0.603084
-0.593103
-0.581321
-0.56761
-0.552041
-0.534864
-0.516481
-0.497352
-0.477921
-0.458569
-0.439589
-0.42119
-0.403501
-0.386594
-0.370493
-0.355195
-0.340673
-0.326891
-0.313809
-0.301385
-0.289567
-0.278274
-0.26759
-0.629907
-0.618842
-0.609073
-0.598378
-0.58557
-0.570578
-0.55358
-0.534946
-0.51518
-0.494816
-0.474335
-0.454125
-0.434471
-0.415556
-0.397485
-0.380304
-0.364015
-0.348594
-0.334002
-0.32019
-0.307108
-0.294707
-0.282928
-0.271675
-0.261077
-0.635957
-0.624542
-0.614313
-0.602854
-0.588945
-0.572598
-0.554121
-0.534012
-0.51288
-0.491323
-0.46985
-0.448848
-0.428582
-0.409209
-0.390806
-0.373393
-0.35695
-0.341436
-0.326796
-0.312973
-0.299907
-0.287545
-0.275816
-0.264614
-0.254117
-0.641034
-0.629322
-0.618629
-0.606354
-0.591274
-0.573513
-0.553526
-0.531947
-0.509486
-0.486796
-0.464402
-0.442681
-0.421872
-0.402103
-0.383421
-0.36582
-0.34926
-0.333682
-0.319022
-0.305209
-0.292179
-0.279872
-0.268209
-0.257072
-0.246694
-0.644956
-0.633003
-0.62184
-0.608701
-0.592391
-0.573173
-0.551665
-0.528644
-0.504911
-0.481163
-0.457931
-0.435572
-0.414293
-0.394192
-0.375286
-0.357544
-0.340906
-0.3253
-0.310647
-0.29687
-0.283898
-0.271667
-0.260087
-0.249031
-0.238794
-0.647539
-0.635404
-0.623765
-0.609717
-0.59213
-0.571433
-0.548419
-0.524005
-0.499076
-0.47436
-0.450381
-0.42747
-0.405801
-0.385436
-0.366363
-0.348529
-0.331856
-0.316257
-0.301643
-0.28793
-0.275042
-0.262909
-0.251433
-0.240477
-0.230403
-0.648605
-0.636344
-0.624226
-0.609233
-0.590338
-0.56816
-0.543678
-0.517942
-0.49191
-0.466328
-0.441702
-0.418332
-0.396353
-0.375794
-0.356616
-0.338742
-0.322078
-0.306524
-0.291985
-0.278367
-0.26559
-0.253581
-0.242231
-0.231397
-0.221512
-0.647979
-0.635652
-0.623053
-0.607086
-0.58687
-0.563234
-0.537345
-0.51038
-0.483353
-0.457017
-0.431852
-0.408118
-0.385914
-0.365234
-0.346013
-0.328152
-0.311544
-0.296078
-0.28165
-0.26816
-0.255526
-0.24367
-0.232471
-0.221783
-0.212111
-0.645495
-0.63316
-0.620082
-0.603127
-0.581598
-0.556549
-0.529337
-0.501253
-0.473354
-0.446384
-0.420792
-0.396794
-0.374452
-0.353726
-0.334526
-0.316735
-0.300233
-0.284898
-0.270621
-0.257296
-0.244837
-0.233163
-0.222143
-0.211627
-0.202198
-0.641002
-0.628717
-0.615165
-0.597221
-0.574406
-0.548015
-0.519585
-0.49051
-0.461871
-0.434396
-0.408492
-0.384333
-0.361941
-0.341245
-0.322132
-0.30447
-0.288125
-0.272969
-0.258884
-0.245762
-0.233514
-0.222055
-0.211243
-0.200928
-0.19177
-0.634362
-0.622182
-0.608171
-0.589251
-0.5652
-0.537558
-0.508036
-0.478109
-0.448874
-0.421026
-0.394929
-0.370713
-0.34836
-0.327773
-0.308816
-0.291342
-0.275208
-0.260279
-0.246431
-0.233553
-0.221553
-0.210344
-0.199771
-0.189687
-0.18083
-0.625454
-0.613434
-0.598983
-0.579118
-0.553903
-0.525123
-0.49465
-0.464024
-0.43434
-0.406256
-0.380088
-0.355919
-0.333697
-0.313297
-0.294565
-0.277342
-0.261475
-0.246823
-0.233258
-0.220666
-0.208954
-0.19803
-0.18773
-0.177909
-0.169383
-0.614177
-0.602372
-0.587508
-0.566746
-0.540458
-0.510673
-0.479403
-0.44824
-0.41826
-0.390078
-0.363959
-0.339944
-0.317944
-0.297811
-0.279374
-0.262465
-0.246922
-0.232599
-0.219365
-0.207105
-0.195721
-0.185121
-0.175128
-0.165605
-0.157441
-0.600452
-0.588915
-0.573674
-0.552078
-0.524829
-0.494186
-0.462288
-0.430753
-0.400634
-0.372493
-0.346545
-0.322786
-0.301099
-0.281313
-0.263244
-0.246712
-0.231552
-0.217612
-0.204759
-0.192875
-0.181863
-0.171626
-0.161978
-0.152787
-0.145017
-0.584222
-0.573005
-0.557433
-0.535083
-0.507
-0.475662
-0.443309
-0.411575
-0.381473
-0.35351
-0.327852
-0.304454
-0.28317
-0.263812
-0.246181
-0.230092
-0.215372
-0.20187
-0.189449
-0.177988
-0.167393
-0.157561
-0.148297
-0.139474
-0.13213
-0.565456
-0.554609
-0.538759
-0.515751
-0.486976
-0.455115
-0.422489
-0.390727
-0.360797
-0.333149
-0.307897
-0.284961
-0.26417
-0.245317
-0.228197
-0.212614
-0.198396
-0.185387
-0.173449
-0.162461
-0.152328
-0.142944
-0.134104
-0.12569
-0.118803
-0.544145
-0.533718
-0.517652
-0.494095
-0.464784
-0.43258
-0.399863
-0.368245
-0.338638
-0.311436
-0.286705
-0.26433
-0.244118
-0.225849
-0.209308
-0.194297
-0.180641
-0.168181
-0.156778
-0.146313
-0.136688
-0.127797
-0.119425
-0.111461
-0.105063
-0.520307
-0.510348
-0.494137
-0.47015
-0.440467
-0.408105
-0.375481
-0.344175
-0.315039
-0.288411
-0.264309
-0.24259
-0.22304
-0.205429
-0.189537
-0.175162
-0.162126
-0.15027
-0.139457
-0.129565
-0.120498
-0.112147
-0.104288
-0.0968178
-0.0909415
-0.493982
-0.484539
-0.46826
-0.443974
-0.41409
-0.381756
-0.349407
-0.318575
-0.290052
-0.264118
-0.240749
-0.219776
-0.200969
-0.184089
-0.168911
-0.155233
-0.142875
-0.13168
-0.121509
-0.112242
-0.103783
-0.0960205
-0.088724
-0.0817942
-0.0764718
-0.465239
-0.456358
-0.440093
-0.415646
-0.385735
-0.353616
-0.321716
-0.291516
-0.26374
-0.238614
-0.216076
-0.195934
-0.177944
-0.161862
-0.147461
-0.134538
-0.122915
-0.112434
-0.102958
-0.0943683
-0.0865696
-0.0794479
-0.0727669
-0.0664287
-0.0616951
-0.434166
-0.425891
-0.40973
-0.385263
-0.355503
-0.32378
-0.292499
-0.263078
-0.236176
-0.211964
-0.190347
-0.171113
-0.154009
-0.138788
-0.125221
-0.113108
-0.102271
-0.0925569
-0.083828
-0.075968
-0.0688829
-0.0624573
-0.0564507
-0.0507632
-0.0466612
-0.400876
-0.393252
-0.377284
-0.352944
-0.323509
-0.292359
-0.261859
-0.233356
-0.207443
-0.184242
-0.163629
-0.145373
-0.129217
-0.11491
-0.102229
-0.0909741
-0.080972
-0.0720715
-0.064139
-0.0570604
-0.0507435
-0.0450727
-0.0398068
-0.0348419
-0.0314245
-0.365505
-0.358571
-0.342891
-0.318824
-0.289885
-0.259477
-0.229908
-0.202453
-0.177636
-0.155534
-0.135996
-0.11878
-0.103624
-0.0902804
-0.078527
-0.0681704
-0.0590426
-0.0509973
-0.0439055
-0.0376571
-0.0321625
-0.0273087
-0.0228597
-0.0187028
-0.0160206
-0.328206
-0.322
-0.306703
-0.283054
-0.254776
-0.22527
-0.196774
-0.170483
-0.146858
-0.125933
-0.107535
-0.0914107
-0.0772985
-0.0649536
-0.0541602
-0.0447314
-0.0365066
-0.0293469
-0.0231306
-0.0177538
-0.0131319
-0.00915884
-0.00561085
-0.00235352
-0.000437906
-0.289151
-0.28371
-0.268889
-0.245799
-0.218341
-0.189886
-0.162592
-0.137572
-0.115224
-0.0955444
-0.0783392
-0.06335
-0.0503149
-0.0389948
-0.0291812
-0.020696
-0.0133882
-0.00712864
-0.00180623
0.00267269
0.00638413
0.0094213
0.0119885
0.0142534
0.0153475
-0.248529
-0.243885
-0.229632
-0.207238
-0.180749
-0.153484
-0.127511
-0.103856
-0.0828608
-0.0644841
-0.0485166
-0.0346951
-0.0227603
-0.0124794
-0.00365262
0.00388789
0.0102818
0.0156451
0.0200737
0.0236458
0.026425
0.0284877
0.0299966
0.0311122
0.0311443
-0.206543
-0.202726
-0.189129
-0.167561
-0.14218
-0.116232
-0.0916842
-0.0694804
-0.0499024
-0.0328784
-0.0181846
-0.00555529
0.00526576
0.0145045
0.0223518
0.0289643
0.0344684
0.0389626
0.0425197
0.0451924
0.0470268
0.0480676
0.0483518
0.0478904
0.0463001
-0.163407
-0.160443
-0.147586
-0.126967
-0.102822
-0.0783056
-0.0552775
-0.0345978
-0.0164937
-0.000864197
0.0125265
0.0239463
0.0336481
0.0418525
0.0487431
0.054468
0.0591419
0.0628453
0.0656224
0.0674923
0.0684734
0.0685227
0.0673494
0.0646042
0.0608416
-0.119348
-0.117256
-0.105219
-0.0856618
-0.0628688
-0.039886
-0.0184605
0.000630914
0.0172126
0.0314119
0.0434747
0.0536706
0.0622503
0.0694312
0.0753947
0.0802875
0.0842243
0.0872832
0.0895033
0.0909061
0.0915221
0.0912024
0.0891615
0.0846495
0.0799095
-0.0745976
-0.0733958
-0.0622501
-0.0438569
-0.0225195
-0.00115955
0.0185923
0.0360407
0.0510586
0.0637966
0.0745089
0.0834656
0.0909156
0.0970744
0.102124
0.106215
0.109473
0.111995
0.113857
0.115159
0.116058
0.116484
0.115443
0.112392
0.115142
-0.0293877
-0.02909
-0.0189018
-0.00176542
0.0180254
0.0376859
0.0557041
0.0714642
0.0848837
0.0961339
0.105475
0.113176
0.119483
0.124608
0.128731
0.132006
0.13456
0.136501
0.137925
0.138962
0.13978
0.14034
0.140082
0.139492
0.144588
0.0160402
0.0154242
0.0245972
0.0403963
0.0585637
0.0764616
0.0926983
0.106734
0.118529
0.128269
0.136221
0.14265
0.147798
0.151873
0.155053
0.157488
0.159309
0.160626
0.161544
0.162191
0.16271
0.16306
0.162848
0.162635
0.167162
0.0614446
0.0599105
0.0680191
0.0824134
0.0988945
0.114981
0.1294
0.141686
0.151836
0.160053
0.166601
0.171744
0.175716
0.178721
0.180931
0.182491
0.183529
0.184154
0.184469
0.184593
0.184654
0.18462
0.184162
0.183734
0.187205
0.106586
0.104134
0.111138
0.124073
0.13882
0.153059
0.165638
0.17616
0.184656
0.191339
0.196476
0.200323
0.203108
0.205026
0.206242
0.206896
0.207107
0.206979
0.206607
0.206097
0.205556
0.204944
0.203967
0.203042
0.205515
0.151226
0.14786
0.15373
0.165165
0.178145
0.190517
0.201245
0.209999
0.216841
0.221993
0.225718
0.228266
0.229857
0.230677
0.230882
0.230605
0.229958
0.229034
0.22792
0.226708
0.225489
0.22421
0.222601
0.221075
0.222588
0.195131
0.190862
0.195576
0.205484
0.21668
0.227179
0.23606
0.243055
0.248252
0.251882
0.254203
0.255458
0.255857
0.255577
0.254765
0.253544
0.252018
0.250272
0.248382
0.246431
0.244491
0.242501
0.240221
0.238064
0.23866
0.238074
0.232915
0.236464
0.244833
0.254242
0.262877
0.269927
0.275182
0.278756
0.280884
0.281819
0.281795
0.281013
0.279639
0.277813
0.275647
0.273237
0.27066
0.267984
0.265279
0.262605
0.259897
0.256943
0.254156
0.253876
0.279832
0.273801
0.276186
0.283017
0.290652
0.297447
0.302695
0.306244
0.308227
0.308881
0.308457
0.307178
0.305235
0.302785
0.299957
0.296857
0.293571
0.290168
0.286708
0.283253
0.279851
0.276437
0.272826
0.269424
0.268307
0.32019
0.313313
0.314543
0.319852
0.325742
0.330733
0.334223
0.336108
0.336542
0.335764
0.334016
0.331515
0.32844
0.324939
0.321133
0.317119
0.312974
0.308762
0.304534
0.300345
0.296234
0.292137
0.287896
0.2839
0.281984
0.358944
0.351247
0.351344
0.35516
0.359347
0.362586
0.364372
0.364649
0.363587
0.361425
0.358399
0.354717
0.350547
0.346031
0.341278
0.336378
0.331402
0.326405
0.321435
0.316538
0.311745
0.306996
0.302154
0.297592
0.294912
0.395895
0.387411
0.386406
0.388772
0.391312
0.392864
0.393014
0.391748
0.389251
0.385763
0.381514
0.376699
0.371481
0.36599
0.360329
0.35458
0.348807
0.343059
0.337378
0.331804
0.326362
0.320996
0.31559
0.310488
0.307082
0.430857
0.421624
0.419556
0.420528
0.421491
0.421432
0.420023
0.41729
0.413431
0.408684
0.403272
0.397382
0.391168
0.384752
0.378228
0.371672
0.365142
0.358682
0.352327
0.346113
0.340059
0.334113
0.328179
0.322568
0.318473
0.463653
0.453713
0.450632
0.450277
0.449744
0.448163
0.445284
0.44117
0.436028
0.430096
0.423589
0.416688
0.409537
0.40225
0.394915
0.3876
0.380359
0.373229
0.366243
0.359429
0.352803
0.346317
0.339892
0.333804
0.329061
0.494119
0.483517
0.479482
0.477878
0.475944
0.472938
0.468688
0.463286
0.456949
0.449914
0.442388
0.434546
0.426522
0.418424
0.410333
0.402312
0.394409
0.386658
0.379085
0.371714
0.364558
0.357575
0.350699
0.344167
0.338818
0.522101
0.510886
0.505963
0.5032
0.499968
0.495649
0.490133
0.483545
0.476108
0.468057
0.459594
0.450885
0.442058
0.433214
0.424428
0.415759
0.407247
0.398924
0.390812
0.382932
0.375291
0.367853
0.360565
0.353624
0.347715
0.547457
0.535683
0.529947
0.526124
0.521708
0.516192
0.509527
0.50186
0.493425
0.484452
0.475139
0.465643
0.456087
0.446566
0.43715
0.427891
0.418828
0.409987
0.401387
0.393045
0.384965
0.377118
0.369458
0.362146
0.355725
0.57006
0.557784
0.551314
0.546539
0.541062
0.534476
0.526783
0.518154
0.508828
0.499032
0.488959
0.47876
0.468554
0.458428
0.448449
0.438664
0.429109
0.419806
0.410771
0.402017
0.393547
0.385335
0.377346
0.369701
0.36282
0.589794
0.577075
0.569961
0.564348
0.557941
0.550417
0.541826
0.532356
0.52225
0.511734
0.500997
0.490184
0.479409
0.468754
0.458283
0.448039
0.438053
0.428346
0.418931
0.409817
0.401006
0.392477
0.3842
0.376263
0.368976
0.606557
0.593459
0.585792
0.579465
0.572265
0.563944
0.554588
0.544402
0.533633
0.522505
0.511202
0.499867
0.488607
0.477503
0.466612
0.455976
0.445624
0.435573
0.425835
0.416415
0.407314
0.398515
0.389993
0.381807
0.374171
0.620263
0.60685
0.598729
0.591816
0.583967
0.574992
0.56501
0.554238
0.542926
0.531298
0.519532
0.507768
0.496111
0.484638
0.473403
0.462446
0.451793
0.44146
0.431456
0.421785
0.412445
0.403425
0.394703
0.38631
0.378385
0.630839
0.617178
0.608704
0.601338
0.592988
0.583509
0.573044
0.561821
0.550089
0.538073
0.525948
0.513853
0.501888
0.490128
0.478627
0.467421
0.456534
0.445981
0.43577
0.425904
0.41638
0.407187
0.39831
0.389755
0.381603
0.638226
0.624386
0.615664
0.607983
0.599283
0.589453
0.578652
0.567112
0.555087
0.542798
0.530423
0.518094
0.505912
0.493951
0.482261
0.470878
0.459826
0.449118
0.438761
0.428755
0.4191
0.409785
0.400797
0.392126
0.383811
0.642381
0.628431
0.61957
0.611713
0.602819
0.592793
0.581803
0.570086
0.557895
0.545452
0.532933
0.52047
0.508164
0.496086
0.484287
0.472802
0.461654
0.450856
0.440413
0.430326
0.420593
0.411207
0.402154
0.393413
0.385
0.643275
0.629287
0.620394
0.612503
0.603573
0.593509
0.58248
0.570724
0.558496
0.546017
0.533464
0.520969
0.508631
0.496523
0.484696
0.473183
0.462009
0.451185
0.440718
0.430608
0.420852
0.411445
0.402372
0.39361
0.385164
0.640896
0.62694
0.618125
0.610344
0.601535
0.59159
0.580673
0.569019
0.556883
0.544488
0.53201
0.519583
0.507308
0.495256
0.483481
0.472016
0.460885
0.450102
0.439672
0.429596
0.419873
0.410496
0.401449
0.392712
0.384301
0.635245
0.621392
0.612765
0.605236
0.596706
0.587038
0.576383
0.564972
0.553058
0.540865
0.528572
0.516315
0.504195
0.492287
0.480644
0.469301
0.458284
0.447607
0.437276
0.427293
0.417657
0.40836
0.399386
0.390722
0.382412
0.62634
0.612661
0.604329
0.597195
0.589099
0.579866
0.569623
0.558594
0.54703
0.535159
0.52316
0.511173
0.499302
0.487623
0.476192
0.465047
0.454214
0.443707
0.433537
0.423705
0.41421
0.405045
0.396189
0.387645
0.3795
0.614214
0.600778
0.592848
0.586248
0.578742
0.570097
0.560414
0.549905
0.53882
0.527387
0.51579
0.504173
0.492642
0.481279
0.47014
0.459266
0.448685
0.438415
0.428465
0.418841
0.409543
0.400559
0.391866
0.383489
0.375575
0.598913
0.585788
0.578365
0.572434
0.56567
0.557766
0.548789
0.538935
0.528454
0.517574
0.506487
0.495337
0.484239
0.473275
0.462506
0.451976
0.441716
0.431746
0.422077
0.412718
0.403669
0.394917
0.386433
0.378267
0.370647
0.580502
0.567754
0.560937
0.555808
0.549932
0.542918
0.534788
0.525723
0.515968
0.505757
0.495282
0.484697
0.474119
0.463637
0.453316
0.443202
0.43333
0.423722
0.414394
0.405355
0.396609
0.388137
0.379906
0.371997
0.364731
0.559056
0.546749
0.540635
0.536435
0.531588
0.525608
0.518464
0.510317
0.501409
0.491975
0.482215
0.472289
0.462319
0.452399
0.4426
0.432972
0.423554
0.41437
0.40544
0.396776
0.388385
0.380242
0.372308
0.364698
0.357846
0.534667
0.522863
0.517543
0.514391
0.510711
0.505903
0.499878
0.492774
0.484828
0.476279
0.467332
0.458156
0.448878
0.439599
0.430395
0.421322
0.41242
0.403721
0.395244
0.387009
0.379024
0.371258
0.363664
0.356395
0.350013
0.507442
0.496199
0.491758
0.489768
0.487383
0.483878
0.4791
0.473159
0.466286
0.458725
0.450687
0.442347
0.433843
0.42528
0.416742
0.408288
0.399966
0.391808
0.383841
0.376086
0.368555
0.361213
0.354002
0.347114
0.341254
0.4775
0.466873
0.463389
0.462666
0.461696
0.459619
0.456208
0.451545
0.445852
0.439376
0.432337
0.424918
0.417265
0.409491
0.401685
0.393914
0.38623
0.37867
0.371265
0.364041
0.357013
0.35014
0.343353
0.336884
0.331598
0.444973
0.435014
0.432559
0.433198
0.433755
0.433222
0.431292
0.428013
0.4236
0.418302
0.412348
0.40593
0.399201
0.392284
0.385275
0.378247
0.371257
0.364348
0.357555
0.35091
0.344431
0.338072
0.33175
0.325737
0.32107
0.410007
0.400764
0.3994
0.401488
0.403673
0.40479
0.404446
0.402653
0.399613
0.395581
0.390791
0.385447
0.379712
0.373716
0.367563
0.361334
0.355091
0.348884
0.342751
0.33673
0.330845
0.325044
0.319227
0.313704
0.309702
0.37276
0.364277
0.36406
0.367671
0.371574
0.374437
0.375776
0.375559
0.37398
0.371292
0.367742
0.363541
0.358863
0.353847
0.348606
0.343227
0.337781
0.332322
0.326894
0.321541
0.316292
0.31109
0.305817
0.300818
0.297521
0.333403
0.325719
0.326693
0.33189
0.337589
0.342285
0.345392
0.346836
0.346794
0.345524
0.34328
0.340285
0.336721
0.332739
0.32846
0.323979
0.319375
0.314706
0.310024
0.30538
0.300807
0.296244
0.291553
0.287109
0.284556
0.292117
0.285267
0.287469
0.294302
0.301863
0.308463
0.313415
0.316592
0.318157
0.31837
0.317492
0.315757
0.313358
0.310458
0.307184
0.303644
0.29992
0.29608
0.292181
0.288281
0.284421
0.280536
0.276464
0.272604
0.270832
0.249094
0.243109
0.246563
0.25507
0.264544
0.273111
0.279969
0.284943
0.288176
0.289927
0.290466
0.290039
0.28885
0.28707
0.28484
0.282274
0.279463
0.276484
0.273399
0.270274
0.26716
0.263988
0.26057
0.257323
0.256368
0.204537
0.199441
0.204165
0.214369
0.225793
0.236372
0.24519
0.252012
0.256962
0.260298
0.262297
0.263216
0.263272
0.262646
0.261488
0.259923
0.258051
0.255957
0.253709
0.251385
0.249043
0.246614
0.243882
0.241273
0.241171
0.158658
0.154473
0.16047
0.17238
0.185777
0.198402
0.209217
0.217928
0.224634
0.229591
0.233084
0.235379
0.236705
0.237256
0.237191
0.236645
0.235728
0.234532
0.233137
0.231627
0.230075
0.228413
0.226393
0.224445
0.225232
0.111677
0.10842
0.115684
0.129295
0.144671
0.159359
0.172197
0.182825
0.191315
0.197919
0.20293
0.206622
0.209236
0.210976
0.212014
0.212494
0.212536
0.21224
0.211698
0.211004
0.210246
0.209362
0.208071
0.206799
0.208516
0.0638249
0.0615063
0.0700208
0.0853117
0.102657
0.119412
0.134285
0.146845
0.157136
0.165404
0.171945
0.177044
0.180953
0.183887
0.186027
0.187527
0.188518
0.189111
0.189405
0.18951
0.189531
0.189414
0.188849
0.188254
0.190942
0.0153362
0.0139626
0.0236999
0.0406356
0.0599254
0.0787348
0.0956398
0.110136
0.122235
0.132171
0.140247
0.146754
0.151956
0.156076
0.159306
0.161809
0.163724
0.165173
0.166265
0.167123
0.167873
0.168475
0.168592
0.168643
0.172351
-0.0335472
-0.0339739
-0.0230518
-0.00452135
0.0166717
0.037508
0.0564291
0.0728528
0.0867537
0.0983557
0.107961
0.115869
0.122352
0.127642
0.13194
0.135416
0.138217
0.140471
0.142298
0.143835
0.145231
0.146455
0.147136
0.147724
0.15249
-0.0825787
-0.0820616
-0.070003
-0.0499423
-0.0269031
-0.00408244
0.0168254
0.0351565
0.0508446
0.064099
0.0752207
0.0845159
0.0922624