/*--------------------------------*- C++ -*----------------------------------*\
  =========                 |
  \\      /  F ield         | OpenFOAM: The Open Source CFD Toolbox
   \\    /   O peration     | Website:  https://openfoam.org
    \\  /    A nd           | Version:  6.0
     \\/     M anipulation  |
\*---------------------------------------------------------------------------*/
FoamFile
{
    version     2.0;
    format      ascii;
    class       volScalarField;
    location    "17.6";
    object      p;
}
// * * * * * * * * * * * * * * * * * * * * * * * * * * * * * * * * * * * * * //

dimensions      [0 2 -2 0 0 0 0];

internalField   nonuniform List<scalar> 
8000
(
-0.275409
-0.276503
-0.277211
-0.27772
-0.278144
-0.278503
-0.278813
-0.279088
-0.279339
-0.279572
-0.279794
-0.28001
-0.280225
-0.280445
-0.280674
-0.280922
-0.281192
-0.281464
-0.281728
-0.282231
-0.275557
-0.276643
-0.277345
-0.277848
-0.278266
-0.278619
-0.278922
-0.27919
-0.279434
-0.27966
-0.279874
-0.280082
-0.280289
-0.2805
-0.28072
-0.28096
-0.281222
-0.281487
-0.281744
-0.282244
-0.275842
-0.276912
-0.277602
-0.278094
-0.2785
-0.278839
-0.279129
-0.279382
-0.279611
-0.279821
-0.280019
-0.280209
-0.280398
-0.280591
-0.280794
-0.281015
-0.281261
-0.281511
-0.28175
-0.282243
-0.276261
-0.277309
-0.277981
-0.278455
-0.278842
-0.279162
-0.27943
-0.279661
-0.279866
-0.280052
-0.280223
-0.280387
-0.280548
-0.280711
-0.280885
-0.281078
-0.281297
-0.281522
-0.281736
-0.282217
-0.276811
-0.277832
-0.278481
-0.278931
-0.279292
-0.279584
-0.279823
-0.280023
-0.280196
-0.280346
-0.280482
-0.280607
-0.280728
-0.28085
-0.280982
-0.281135
-0.281316
-0.281504
-0.281682
-0.282147
-0.27749
-0.278478
-0.279098
-0.279519
-0.279847
-0.280103
-0.280304
-0.280464
-0.280594
-0.280699
-0.280786
-0.280861
-0.280928
-0.280996
-0.281072
-0.28117
-0.2813
-0.281439
-0.281569
-0.282012
-0.278294
-0.279246
-0.279832
-0.280216
-0.280504
-0.280717
-0.280871
-0.280981
-0.281057
-0.281105
-0.281132
-0.281142
-0.281141
-0.281138
-0.281143
-0.281169
-0.28123
-0.281305
-0.281375
-0.281788
-0.279221
-0.280133
-0.28068
-0.281022
-0.281262
-0.281422
-0.28152
-0.28157
-0.281582
-0.281562
-0.281515
-0.281446
-0.281362
-0.281271
-0.281183
-0.281118
-0.281091
-0.281084
-0.281077
-0.281454
-0.280272
-0.28114
-0.281643
-0.281935
-0.28212
-0.28222
-0.282253
-0.282234
-0.282171
-0.282071
-0.281938
-0.281775
-0.28159
-0.281391
-0.281192
-0.281012
-0.280873
-0.280758
-0.280654
-0.280986
-0.281449
-0.282269
-0.282721
-0.282957
-0.283078
-0.283109
-0.283069
-0.282972
-0.282827
-0.282637
-0.282405
-0.282136
-0.281834
-0.281508
-0.281172
-0.280851
-0.28057
-0.280317
-0.280088
-0.28036
-0.282756
-0.283522
-0.283917
-0.284088
-0.284138
-0.284092
-0.283971
-0.28379
-0.283554
-0.283267
-0.282929
-0.282542
-0.282108
-0.281636
-0.28114
-0.280647
-0.280188
-0.279756
-0.27936
-0.27955
-0.284198
-0.284904
-0.285233
-0.285331
-0.285301
-0.285171
-0.284963
-0.284691
-0.28436
-0.283971
-0.283522
-0.283009
-0.282434
-0.2818
-0.28112
-0.280423
-0.279743
-0.27908
-0.278457
-0.278525
-0.285785
-0.286421
-0.286674
-0.286689
-0.28657
-0.286348
-0.286046
-0.285678
-0.28525
-0.284758
-0.284196
-0.283558
-0.282836
-0.282029
-0.281146
-0.280211
-0.279263
-0.2783
-0.277363
-0.277243
-0.287527
-0.28808
-0.288245
-0.288166
-0.287946
-0.287622
-0.28722
-0.286754
-0.286226
-0.285632
-0.284961
-0.284199
-0.283332
-0.282349
-0.281248
-0.280048
-0.278781
-0.277438
-0.276067
-0.275647
-0.289434
-0.28989
-0.289954
-0.289765
-0.289431
-0.288995
-0.288483
-0.287912
-0.287284
-0.28659
-0.285814
-0.284935
-0.28393
-0.282774
-0.281451
-0.279963
-0.27833
-0.276518
-0.274557
-0.273668
-0.29152
-0.291863
-0.291807
-0.291492
-0.291028
-0.290464
-0.289831
-0.289146
-0.288412
-0.287616
-0.286739
-0.285751
-0.284617
-0.283298
-0.281757
-0.279972
-0.277938
-0.275575
-0.272849
-0.271252
-0.293802
-0.294013
-0.293818
-0.293356
-0.292741
-0.292029
-0.291257
-0.290445
-0.289594
-0.288691
-0.287711
-0.286618
-0.285365
-0.283897
-0.282153
-0.28008
-0.277638
-0.274685
-0.271045
-0.268434
-0.296302
-0.296357
-0.296
-0.295366
-0.294575
-0.293693
-0.29276
-0.291801
-0.290816
-0.289794
-0.288704
-0.287505
-0.286141
-0.284542
-0.282619
-0.280282
-0.277446
-0.273891
-0.269198
-0.265125
-0.299044
-0.29892
-0.298373
-0.29754
-0.296545
-0.295464
-0.294345
-0.293214
-0.292076
-0.290918
-0.28971
-0.288409
-0.286954
-0.285264
-0.283231
-0.28072
-0.277567
-0.273389
-0.267329
-0.260998
-0.302063
-0.301731
-0.300963
-0.2999
-0.29867
-0.297361
-0.296028
-0.294701
-0.293389
-0.29208
-0.290752
-0.289368
-0.28788
-0.286227
-0.28433
-0.282089
-0.279345
-0.275606
-0.269607
-0.262469
-0.305398
-0.304825
-0.303804
-0.302478
-0.300982
-0.299415
-0.297841
-0.296294
-0.294788
-0.293319
-0.291872
-0.290428
-0.288974
-0.287505
-0.286054
-0.28472
-0.283718
-0.283407
-0.28517
-0.295756
-0.3091
-0.308245
-0.306935
-0.305313
-0.30352
-0.301669
-0.299829
-0.298044
-0.296329
-0.294689
-0.29312
-0.291623
-0.29021
-0.288925
-0.287861
-0.287205
-0.287278
-0.288571
-0.292159
-0.302493
-0.313224
-0.31204
-0.310402
-0.308452
-0.306335
-0.304174
-0.302052
-0.300013
-0.29808
-0.296263
-0.29457
-0.293014
-0.291629
-0.290483
-0.289695
-0.289459
-0.290064
-0.291893
-0.295484
-0.303202
-0.317829
-0.316264
-0.314257
-0.311948
-0.30948
-0.306993
-0.304573
-0.302271
-0.300112
-0.298112
-0.296284
-0.294648
-0.293246
-0.292151
-0.291473
-0.29137
-0.292043
-0.293718
-0.296628
-0.301778
-0.322978
-0.320969
-0.318554
-0.315856
-0.313017
-0.310186
-0.307459
-0.304885
-0.302491
-0.300292
-0.2983
-0.296537
-0.295041
-0.29387
-0.293108
-0.292859
-0.293233
-0.294325
-0.29622
-0.299072
-0.328728
-0.326212
-0.323345
-0.320232
-0.317002
-0.313816
-0.31077
-0.307912
-0.305263
-0.302834
-0.30063
-0.298666
-0.296967
-0.295572
-0.294531
-0.293901
-0.293726
-0.294022
-0.294816
-0.295849
-0.335133
-0.33204
-0.328682
-0.325129
-0.321493
-0.317939
-0.31456
-0.311396
-0.308458
-0.305745
-0.303254
-0.300987
-0.298954
-0.297176
-0.295678
-0.294482
-0.293599
-0.293012
-0.292726
-0.292354
-0.342238
-0.338499
-0.33461
-0.330597
-0.326538
-0.3226
-0.318865
-0.315358
-0.312074
-0.309
-0.306119
-0.303422
-0.30091
-0.298592
-0.29648
-0.294583
-0.292901
-0.291415
-0.290125
-0.288677
-0.350073
-0.34562
-0.341166
-0.336675
-0.332178
-0.327831
-0.323702
-0.319794
-0.316083
-0.312539
-0.30914
-0.305869
-0.302728
-0.299723
-0.296868
-0.294175
-0.291647
-0.289279
-0.287067
-0.284754
-0.358654
-0.353424
-0.348378
-0.343391
-0.338434
-0.333644
-0.329064
-0.324668
-0.320417
-0.316271
-0.312203
-0.308207
-0.30429
-0.300471
-0.296776
-0.293225
-0.289834
-0.286612
-0.283554
-0.280496
-0.367974
-0.361914
-0.356253
-0.350756
-0.345309
-0.340022
-0.334906
-0.329909
-0.324977
-0.32007
-0.315175
-0.310302
-0.30548
-0.300747
-0.296143
-0.291702
-0.287451
-0.283408
-0.279564
-0.275826
-0.378005
-0.371074
-0.364781
-0.358755
-0.352776
-0.346916
-0.34115
-0.335405
-0.329625
-0.323788
-0.317906
-0.312021
-0.306189
-0.30047
-0.294921
-0.289584
-0.284491
-0.279662
-0.275081
-0.270699
-0.388688
-0.380857
-0.373925
-0.367345
-0.360774
-0.354235
-0.347672
-0.341006
-0.334197
-0.327258
-0.320244
-0.313236
-0.30632
-0.299577
-0.293072
-0.286854
-0.280949
-0.275373
-0.270097
-0.265101
-0.399932
-0.391192
-0.383614
-0.376446
-0.369198
-0.361843
-0.35431
-0.34653
-0.338505
-0.330306
-0.322039
-0.313828
-0.305788
-0.298011
-0.290567
-0.283497
-0.27682
-0.270541
-0.264612
-0.259036
-0.41161
-0.401967
-0.39374
-0.385934
-0.377898
-0.369562
-0.36086
-0.351766
-0.342352
-0.332757
-0.323151
-0.313694
-0.304521
-0.295729
-0.287379
-0.279501
-0.272099
-0.265164
-0.258627
-0.25251
-0.423555
-0.413033
-0.404154
-0.395642
-0.386677
-0.37717
-0.367089
-0.356489
-0.345533
-0.334445
-0.32345
-0.31274
-0.302455
-0.292687
-0.283481
-0.274847
-0.266774
-0.259235
-0.252137
-0.245527
-0.435559
-0.424201
-0.41466
-0.405352
-0.395295
-0.384408
-0.372742
-0.360465
-0.347854
-0.335214
-0.32282
-0.310881
-0.299531
-0.288843
-0.278841
-0.269512
-0.260827
-0.252737
-0.24513
-0.238082
-0.447374
-0.435238
-0.42502
-0.414803
-0.40347
-0.390993
-0.377553
-0.363464
-0.349125
-0.334919
-0.321155
-0.308039
-0.295689
-0.284152
-0.273422
-0.263465
-0.254229
-0.245649
-0.237588
-0.230162
-0.458714
-0.445872
-0.434951
-0.423695
-0.410891
-0.396625
-0.381254
-0.365264
-0.349174
-0.333431
-0.318356
-0.30414
-0.290873
-0.278566
-0.267184
-0.256668
-0.246949
-0.23794
-0.229482
-0.221745
-0.469259
-0.455795
-0.444136
-0.431696
-0.41723
-0.401
-0.383588
-0.365658
-0.347843
-0.330629
-0.314332
-0.299113
-0.285021
-0.272032
-0.260081
-0.249082
-0.238949
-0.229576
-0.220783
-0.212801
-0.478664
-0.464669
-0.452226
-0.438453
-0.42215
-0.403824
-0.384311
-0.364459
-0.344989
-0.326406
-0.309
-0.292888
-0.278075
-0.264499
-0.252064
-0.240661
-0.230188
-0.220519
-0.211457
-0.2033
-0.486563
-0.472133
-0.458856
-0.443605
-0.42532
-0.404815
-0.383202
-0.361498
-0.340486
-0.320665
-0.30228
-0.285398
-0.269976
-0.255914
-0.243085
-0.231362
-0.220627
-0.210733
-0.201469
-0.193209
-0.492583
-0.477816
-0.463652
-0.446794
-0.426426
-0.40372
-0.380067
-0.356629
-0.334223
-0.313317
-0.2941
-0.276581
-0.260668
-0.246225
-0.233099
-0.221143
-0.210227
-0.200183
-0.190789
-0.1825
-0.496353
-0.481348
-0.466248
-0.447683
-0.425182
-0.400314
-0.374737
-0.349728
-0.326106
-0.304287
-0.284395
-0.266378
-0.2501
-0.235387
-0.222064
-0.209968
-0.198955
-0.188839
-0.179388
-0.171146
-0.497516
-0.48237
-0.466295
-0.44596
-0.421335
-0.394406
-0.367074
-0.340692
-0.316055
-0.29351
-0.273109
-0.254742
-0.238227
-0.22336
-0.209944
-0.197804
-0.186783
-0.176675
-0.167247
-0.159128
-0.495739
-0.480548
-0.463475
-0.441352
-0.414673
-0.385843
-0.356969
-0.329443
-0.304009
-0.280934
-0.260197
-0.24163
-0.225012
-0.210111
-0.196712
-0.184627
-0.173689
-0.163674
-0.15435
-0.146433
-0.490723
-0.47558
-0.45751
-0.433631
-0.40503
-0.374509
-0.344342
-0.315923
-0.289921
-0.26652
-0.245623
-0.227012
-0.210428
-0.195616
-0.182346
-0.17042
-0.159661
-0.149827
-0.140692
-0.133055
-0.482214
-0.467209
-0.448171
-0.422622
-0.392284
-0.360329
-0.329146
-0.300098
-0.273766
-0.250245
-0.229368
-0.210869
-0.194459
-0.179863
-0.166836
-0.155175
-0.144693
-0.135131
-0.126273
-0.118996
-0.470007
-0.455233
-0.435284
-0.408201
-0.376363
-0.343264
-0.311362
-0.281958
-0.255536
-0.2321
-0.211423
-0.193194
-0.177098
-0.162846
-0.150181
-0.138895
-0.128791
-0.119596
-0.111106
-0.104266
-0.453958
-0.439506
-0.418736
-0.390303
-0.357241
-0.323314
-0.291
-0.261516
-0.235242
-0.212096
-0.191795
-0.173992
-0.158352
-0.144571
-0.132389
-0.121588
-0.111968
-0.103239
-0.0952125
-0.0888915
-0.433982
-0.419943
-0.398474
-0.368918
-0.334942
-0.300517
-0.268102
-0.23881
-0.212914
-0.190257
-0.170504
-0.15328
-0.138234
-0.125054
-0.113473
-0.103272
-0.0942425
-0.0860858
-0.0786261
-0.0729116
-0.410061
-0.396529
-0.37451
-0.344092
-0.309531
-0.274948
-0.242738
-0.2139
-0.188607
-0.166627
-0.147587
-0.131089
-0.116771
-0.104316
-0.0934548
-0.083967
-0.0756376
-0.0681628
-0.0613825
-0.0563699
-0.382239
-0.369308
-0.346917
-0.315923
-0.281121
-0.246714
-0.215006
-0.186874
-0.162391
-0.141267
-0.123093
-0.107459
-0.0939958
-0.0823847
-0.0723574
-0.0636932
-0.0561739
-0.0494958
-0.0435139
-0.0392901
-0.350628
-0.338394
-0.315826
-0.284561
-0.249863
-0.21596
-0.185036
-0.157842
-0.134363
-0.114255
-0.0970877
-0.0824419
-0.0699482
-0.0592905
-0.050204
-0.0424698
-0.0358708
-0.0301096
-0.0250443
-0.0216637
-0.315399
-0.303958
-0.281425
-0.250203
-0.215951
-0.182863
-0.152984
-0.126942
-0.10464
-0.0856922
-0.0696529
-0.056102
-0.0446752
-0.0350641
-0.0270123
-0.0203071
-0.0147381
-0.0100179
-0.00598325
-0.00349032
-0.276785
-0.266231
-0.243954
-0.21309
-0.179612
-0.147631
-0.119038
-0.0943385
-0.0733645
-0.0557
-0.0408897
-0.028519
-0.0182342
-0.00974111
-0.00279786
0.00279557
0.00723743
0.0107983
0.013664
0.0151015
-0.235068
-0.225493
-0.203698
-0.173501
-0.141108
-0.110503
-0.0834105
-0.0602217
-0.040706
-0.0244244
-0.0109206
0.000209298
0.00930196
0.0166299
0.0224121
0.0268325
0.0300727
0.0323481
0.0337798
0.0337159
-0.190582
-0.182073
-0.160982
-0.131751
-0.100733
-0.0717461
-0.0463452
-0.0248111
-0.00685991
0.00796403
0.0201128
0.029975
0.0378637
0.0440187
0.0486248
0.0518445
0.053819
0.0545882
0.0540437
0.0519095
-0.143697
-0.136337
-0.116168
-0.0881815
-0.0588044
-0.0316547
-0.00811244
0.0116437
0.0279448
0.0412596
0.0520366
0.060651
0.067393
0.0724683
0.0760243
0.0781921
0.0789985
0.0780873
0.0749943
0.0707354
-0.0948214
-0.0886836
-0.0696416
-0.0431605
-0.0156637
0.00945594
0.0309924
0.0488623
0.063438
0.0752011
0.084601
0.0920111
0.0977188
0.101928
0.1048
0.106483
0.106878
0.105137
0.10056
0.0959437
-0.0443872
-0.0395367
-0.0218118
0.00292957
0.0283345
0.0512554
0.0706571
0.0865426
0.0993186
0.109476
0.117465
0.123664
0.128374
0.131837
0.134299
0.136034
0.137016
0.136266
0.133521
0.137058
0.00716214
0.0106679
0.0269031
0.0496969
0.0728275
0.0934066
0.110564
0.124378
0.135283
0.143772
0.150288
0.155203
0.158819
0.161389
0.163174
0.164436
0.165163
0.164885
0.164494
0.170184
0.0593646
0.0614801
0.0760755
0.096745
0.117451
0.135573
0.150397
0.16207
0.171043
0.177804
0.182791
0.186363
0.188817
0.190404
0.191375
0.191949
0.192109
0.191563
0.191217
0.195796
0.111755
0.112448
0.125278
0.14368
0.161845
0.177424
0.189851
0.199328
0.206319
0.211303
0.2147
0.216856
0.218053
0.218531
0.218519
0.218215
0.217614
0.216492
0.215598
0.218681
0.163871
0.163121
0.174088
0.190115
0.205657
0.218639
0.22863
0.235883
0.240862
0.244036
0.245805
0.246494
0.246369
0.245648
0.244538
0.243205
0.241633
0.239626
0.23787
0.239559
0.215256
0.213057
0.222091
0.235672
0.248548
0.25891
0.266456
0.271477
0.274439
0.27579
0.275912
0.275108
0.273623
0.271656
0.26939
0.266965
0.26435
0.261369
0.258676
0.259029
0.265464
0.261825
0.268887
0.279988
0.290189
0.297942
0.303062
0.305872
0.306833
0.306374
0.304854
0.302555
0.2997
0.296469
0.293024
0.289481
0.285798
0.281827
0.278193
0.277283
0.314066
0.30901
0.314091
0.322715
0.330269
0.335456
0.338197
0.338842
0.337842
0.335609
0.332476
0.328705
0.324498
0.320018
0.315405
0.310757
0.306025
0.301089
0.296539
0.294429
0.360648
0.354214
0.357334
0.363521
0.368491
0.371185
0.371623
0.370173
0.367278
0.363327
0.358631
0.353432
0.347913
0.34222
0.336474
0.330756
0.325018
0.319163
0.313735
0.310487
0.404821
0.397062
0.39827
0.402094
0.404575
0.404881
0.403116
0.399666
0.39496
0.389368
0.38318
0.376616
0.369844
0.362991
0.356165
0.349431
0.342743
0.336024
0.329766
0.325443
0.446217
0.437201
0.436575
0.438141
0.43826
0.436308
0.432465
0.427129
0.420719
0.413581
0.405987
0.398139
0.390186
0.382244
0.374403
0.366718
0.359146
0.351627
0.344589
0.33926
0.484495
0.474303
0.471946
0.471393
0.469304
0.465248
0.459474
0.452388
0.444395
0.435823
0.426925
0.417885
0.408839
0.399888
0.391109
0.382547
0.374163
0.365911
0.358153
0.351888
0.519341
0.508068
0.504109
0.501599
0.497484
0.491502
0.483963
0.475279
0.465841
0.455961
0.445873
0.435747
0.425704
0.415833
0.406201
0.396843
0.387727
0.378812
0.370396
0.363277
0.550473
0.538225
0.532813
0.528537
0.522597
0.514888
0.505767
0.495652
0.484921
0.47387
0.462718
0.45162
0.440687
0.429995
0.419602
0.409535
0.399768
0.390266
0.38126
0.373373
0.577638
0.564533
0.557838
0.552006
0.544466
0.535244
0.52474
0.513373
0.501513
0.489439
0.477358
0.465412
0.453702
0.442295
0.431239
0.420555
0.410222
0.400211
0.390689
0.382127
0.600617
0.586783
0.578992
0.571834
0.562935
0.552429
0.540753
0.528327
0.51551
0.502571
0.489703
0.47704
0.464673
0.452661
0.441044
0.42984
0.419031
0.408591
0.39863
0.389494
0.619226
0.604798
0.596113
0.587875
0.577871
0.566324
0.553697
0.540412
0.52682
0.51318
0.499676
0.486432
0.473532
0.461031
0.448961
0.437336
0.426144
0.415356
0.405038
0.395436
0.633315
0.618437
0.60907
0.600012
0.589168
0.576831
0.563484
0.549549
0.53537
0.521199
0.507212
0.493529
0.480227
0.467355
0.454942
0.443
0.431517
0.420467
0.409878
0.399921
0.642773
0.627591
0.617765
0.608154
0.596746
0.583879
0.570048
0.555676
0.541103
0.526576
0.512265
0.498287
0.484715
0.471594
0.458951
0.446795
0.435118
0.423893
0.413122
0.402925
0.647524
0.632188
0.622131
0.612242
0.600551
0.587417
0.573343
0.558752
0.543981
0.529275
0.514802
0.500675
0.486967
0.473722
0.460963
0.448701
0.436926
0.425613
0.414749
0.404433
0.647529
0.632194
0.622136
0.612247
0.600556
0.587421
0.573347
0.558756
0.543985
0.529278
0.514805
0.500678
0.48697
0.473725
0.460966
0.448704
0.436929
0.425616
0.414752
0.404435
0.642789
0.627606
0.61778
0.608168
0.59676
0.583892
0.57006
0.555688
0.541115
0.526587
0.512276
0.498297
0.484724
0.471604
0.45896
0.446804
0.435127
0.423902
0.41313
0.402933
0.633342
0.618463
0.609095
0.600036
0.589191
0.576853
0.563505
0.549569
0.535389
0.521217
0.50723
0.493546
0.480243
0.467371
0.454957
0.443014
0.431531
0.420482
0.409892
0.399935
0.619263
0.604835
0.596148
0.587909
0.577903
0.566354
0.553726
0.54044
0.526847
0.513206
0.4997
0.486455
0.473555
0.461053
0.448982
0.437357
0.426164
0.415376
0.405058
0.395455
0.600665
0.586831
0.579038
0.571878
0.562976
0.552468
0.54079
0.528362
0.515544
0.502603
0.489734
0.47707
0.464702
0.452689
0.441071
0.429867
0.419058
0.408616
0.398654
0.389518
0.577697
0.564591
0.557894
0.552059
0.544517
0.535292
0.524785
0.513417
0.501554
0.489479
0.477396
0.465449
0.453738
0.44233
0.431272
0.420588
0.410254
0.400242
0.390719
0.382156
0.550543
0.538294
0.532879
0.528599
0.522657
0.514944
0.505821
0.495703
0.484969
0.473917
0.462763
0.451664
0.440729
0.430036
0.419642
0.409574
0.399805
0.390303
0.381296
0.373408
0.519422
0.508147
0.504184
0.501671
0.497552
0.491567
0.484024
0.475337
0.465897
0.456015
0.445925
0.435797
0.425752
0.41588
0.406247
0.396888
0.38777
0.378854
0.370437
0.363317
0.484586
0.474392
0.472032
0.471474
0.469381
0.465321
0.459543
0.452455
0.444458
0.435884
0.426984
0.417942
0.408894
0.399941
0.391161
0.382597
0.374212
0.365959
0.358199
0.351934
0.446318
0.4373
0.43667
0.438232
0.438346
0.436389
0.432542
0.427203
0.42079
0.413649
0.406053
0.398202
0.390248
0.382303
0.374461
0.366774
0.359201
0.35168
0.344642
0.33931
0.404933
0.397172
0.398376
0.402194
0.40467
0.404971
0.403201
0.399747
0.395038
0.389443
0.383252
0.376686
0.369911
0.363057
0.356229
0.349493
0.342803
0.336083
0.329823
0.325499
0.36077
0.354334
0.357449
0.36363
0.368594
0.371284
0.371716
0.370263
0.367364
0.363409
0.35871
0.353508
0.347987
0.342291
0.336544
0.330824
0.325084
0.319227
0.313798
0.310548
0.314197
0.309139
0.314215
0.322833
0.330381
0.335562
0.338298
0.338939
0.337935
0.335698
0.332562
0.328788
0.324578
0.320096
0.315481
0.31083
0.306096
0.301159
0.296607
0.294495
0.265605
0.261964
0.269021
0.280115
0.29031
0.298057
0.303171
0.305976
0.306933
0.30647
0.304947
0.302644
0.299786
0.296553
0.293106
0.28956
0.285875
0.281902
0.278266
0.277354
0.215407
0.213205
0.222234
0.235808
0.248677
0.259032
0.266572
0.271589
0.274546
0.275893
0.276011
0.275204
0.273715
0.271746
0.269477
0.26705
0.264432
0.26145
0.258755
0.259105
0.164031
0.163278
0.174239
0.190259
0.205795
0.218769
0.228754
0.236001
0.240976
0.244146
0.24591
0.246597
0.246468
0.245744
0.244631
0.243296
0.241722
0.239712
0.237954
0.23964
0.111924
0.112614
0.125438
0.143833
0.16199
0.177562
0.189982
0.199454
0.20644
0.211419
0.214812
0.216965
0.218158
0.218633
0.218619
0.218312
0.217708
0.216584
0.215688
0.218768
0.0595426
0.0616553
0.0762447
0.0969064
0.117604
0.135719
0.150536
0.162203
0.17117
0.177928
0.18291
0.186478
0.188928
0.190513
0.19148
0.192051
0.192209
0.19166
0.191312
0.195888
0.00734881
0.0108517
0.0270808
0.0498664
0.0729887
0.0935601
0.11071
0.124519
0.135418
0.143901
0.150413
0.155325
0.158937
0.161503
0.163285
0.164544
0.165269
0.164988
0.164596
0.170282
-0.0441922
-0.0393446
-0.021626
0.00310706
0.0285034
0.0514162
0.0708106
0.0866897
0.09946
0.109612
0.117597
0.123792
0.128498
0.131958
0.134416
0.136149
0.137128
0.136375
0.133629
0.137163
-0.0946184
-0.0884835
-0.069448
-0.0429753
-0.0154873
0.00962397
0.0311529
0.0490162
0.063586
0.0753438
0.084739
0.0921449
0.0978488
0.102055
0.104924
0.106604
0.106996
0.105253
0.100675
0.0960583
-0.143487
-0.136129
-0.115966
-0.0879889
-0.0586208
-0.0314797
-0.00794513
0.0118042
0.0280991
0.0414086
0.0521808
0.0607909
0.0675291
0.0726009
0.0761539
0.0783191
0.0791232
0.07821
0.0751157
0.0708562
-0.190364
-0.181858
-0.160774
-0.131551
-0.100542
-0.0715643
-0.0461713
-0.0246443
-0.0066993
0.0081191
0.0202629
0.0301208
0.0380056
0.0441571
0.0487601
0.0519771
0.0539491
0.0547162
0.05417
0.0520347
-0.234844
-0.225271
-0.203482
-0.173295
-0.140911
-0.110314
-0.0832302
-0.0600487
-0.0405394
-0.0242634
-0.0107647
0.000360745
0.00944939
0.0167738
0.0225527
0.0269702
0.0302079
0.0324809
0.0339105
0.0338452
-0.276554
-0.266002
-0.243732
-0.212877
-0.179408
-0.147436
-0.118851
-0.0941596
-0.073192
-0.0555334
-0.0407283
-0.0283621
-0.0180815
-0.00959207
-0.00265216
0.00293824
0.00737737
0.0109357
0.0137991
0.0152349
-0.315162
-0.303724
-0.281198
-0.249984
-0.215741
-0.182662
-0.152792
-0.126758
-0.104462
-0.0855202
-0.0694861
-0.0559399
-0.0445173
-0.0349101
-0.0268617
-0.0201597
-0.0145936
-0.00987608
-0.00584385
-0.00335279
-0.350385
-0.338154
-0.315593
-0.284336
-0.249648
-0.215754
-0.184838
-0.157652
-0.134179
-0.114078
-0.0969158
-0.0822748
-0.0697855
-0.0591317
-0.0500487
-0.0423178
-0.0357218
-0.0299634
-0.0249007
-0.0215221
-0.381992
-0.369064
-0.346678
-0.315693
-0.2809
-0.246502
-0.214803
-0.186679
-0.162203
-0.141085
-0.122916
-0.107287
-0.0938283
-0.0822212
-0.0721976
-0.0635367
-0.0560206
-0.0493454
-0.0433663
-0.0391446
-0.409809
-0.39628
-0.374267
-0.343857
-0.309305
-0.274731
-0.24253
-0.2137
-0.188413
-0.16644
-0.147405
-0.130912
-0.116599
-0.104148
-0.0932906
-0.0838063
-0.0754801
-0.0680083
-0.0612308
-0.0562205
-0.433727
-0.419691
-0.398227
-0.368679
-0.334711
-0.300296
-0.26789
-0.238605
-0.212717
-0.190066
-0.170318
-0.153099
-0.138058
-0.124882
-0.113305
-0.103107
-0.0940808
-0.0859272
-0.0784704
-0.0727583
-0.4537
-0.43925
-0.418485
-0.39006
-0.357007
-0.323089
-0.290783
-0.261307
-0.235039
-0.2119
-0.191604
-0.173807
-0.158171
-0.144395
-0.132216
-0.121419
-0.111802
-0.103077
-0.0950528
-0.0887344
-0.469746
-0.454975
-0.43503
-0.407955
-0.376125
-0.343035
-0.311141
-0.281745
-0.25533
-0.2319
-0.211228
-0.193005
-0.176914
-0.162665
-0.150005
-0.138722
-0.128621
-0.11943
-0.110942
-0.104105
-0.481951
-0.466949
-0.447915
-0.422373
-0.392043
-0.360096
-0.328922
-0.299881
-0.273556
-0.250041
-0.22917
-0.210676
-0.19427
-0.179678
-0.166656
-0.154998
-0.14452
-0.134961
-0.126105
-0.118831
-0.490459
-0.475318
-0.457252
-0.43338
-0.404786
-0.374274
-0.344114
-0.315702
-0.289708
-0.266312
-0.245421
-0.226815
-0.210235
-0.195428
-0.182161
-0.170239
-0.159483
-0.149652
-0.14052
-0.132886
-0.495474
-0.480285
-0.463216
-0.441099
-0.414427
-0.385604
-0.356738
-0.329219
-0.303792
-0.280723
-0.259991
-0.241429
-0.224815
-0.209919
-0.196523
-0.184442
-0.173507
-0.163496
-0.154175
-0.14626
-0.497251
-0.482107
-0.466035
-0.445705
-0.421087
-0.394165
-0.366841
-0.340466
-0.315835
-0.293296
-0.2729
-0.254538
-0.238027
-0.223164
-0.209752
-0.197615
-0.186597
-0.176492
-0.167067
-0.158951
-0.496088
-0.481085
-0.465988
-0.447428
-0.424933
-0.400071
-0.374502
-0.349499
-0.325883
-0.30407
-0.284182
-0.266171
-0.249897
-0.235188
-0.221868
-0.209775
-0.198765
-0.188652
-0.179205
-0.170965
-0.492319
-0.477554
-0.463393
-0.446539
-0.426176
-0.403476
-0.37983
-0.356398
-0.333998
-0.313097
-0.293884
-0.27637
-0.260462
-0.246022
-0.232899
-0.220947
-0.210034
-0.199993
-0.190601
-0.182315
-0.4863
-0.471872
-0.458597
-0.44335
-0.42507
-0.404571
-0.382963
-0.361265
-0.340258
-0.320442
-0.302062
-0.285184
-0.269766
-0.255707
-0.242882
-0.231161
-0.220429
-0.210539
-0.201277
-0.19302
-0.478403
-0.46441
-0.451969
-0.438199
-0.4219
-0.403579
-0.384071
-0.364224
-0.344759
-0.326181
-0.308779
-0.292671
-0.277862
-0.264289
-0.251857
-0.240456
-0.229987
-0.220321
-0.211261
-0.203106
-0.469
-0.455538
-0.443881
-0.431444
-0.416981
-0.400755
-0.383347
-0.365422
-0.347611
-0.330402
-0.314109
-0.298894
-0.284805
-0.271819
-0.25987
-0.248874
-0.238743
-0.229373
-0.220583
-0.212602
-0.458457
-0.445618
-0.434698
-0.423445
-0.410643
-0.39638
-0.381014
-0.365027
-0.348941
-0.333202
-0.31813
-0.303918
-0.290653
-0.278349
-0.26697
-0.256457
-0.24674
-0.237733
-0.229277
-0.221541
-0.44712
-0.434986
-0.424769
-0.414554
-0.403223
-0.390749
-0.377313
-0.363227
-0.348891
-0.334689
-0.320927
-0.307814
-0.295467
-0.283932
-0.273205
-0.263249
-0.254015
-0.245437
-0.237377
-0.229954
-0.435308
-0.423951
-0.414412
-0.405105
-0.39505
-0.384166
-0.372503
-0.360228
-0.347619
-0.334982
-0.322591
-0.310654
-0.299306
-0.28862
-0.278619
-0.269292
-0.260609
-0.252521
-0.244915
-0.237869
-0.423307
-0.412786
-0.403908
-0.395398
-0.386435
-0.376929
-0.36685
-0.356252
-0.345299
-0.334213
-0.32322
-0.312511
-0.302228
-0.292461
-0.283256
-0.274623
-0.266552
-0.259013
-0.251917
-0.245307
-0.411365
-0.401723
-0.393498
-0.385693
-0.377658
-0.369324
-0.360623
-0.35153
-0.342117
-0.332524
-0.322919
-0.313463
-0.304291
-0.2955
-0.287151
-0.279273
-0.271872
-0.264938
-0.258401
-0.252284
-0.39969
-0.390951
-0.383374
-0.376207
-0.36896
-0.361607
-0.354074
-0.346295
-0.338272
-0.330072
-0.321806
-0.313596
-0.305555
-0.297779
-0.290335
-0.283265
-0.276588
-0.270309
-0.264381
-0.258804
-0.388448
-0.380619
-0.373688
-0.367109
-0.360539
-0.354001
-0.347439
-0.340773
-0.333964
-0.327025
-0.320011
-0.313002
-0.306085
-0.299342
-0.292837
-0.286618
-0.280712
-0.275136
-0.269859
-0.264863
-0.377768
-0.370838
-0.364547
-0.358522
-0.352544
-0.346685
-0.340919
-0.335174
-0.329393
-0.323556
-0.317673
-0.311787
-0.305953
-0.300233
-0.294682
-0.289344
-0.28425
-0.27942
-0.274837
-0.270454
-0.36774
-0.361682
-0.356021
-0.350525
-0.345079
-0.339794
-0.334677
-0.32968
-0.324747
-0.319839
-0.314942
-0.310067
-0.305242
-0.300507
-0.295901
-0.291458
-0.287205
-0.283159
-0.279314
-0.275574
-0.358422
-0.353193
-0.348148
-0.343163
-0.338207
-0.333418
-0.328837
-0.324441
-0.320189
-0.316041
-0.311971
-0.307971
-0.304051
-0.300229
-0.29653
-0.292976
-0.289582
-0.286357
-0.283297
-0.280237
-0.349844
-0.345391
-0.340939
-0.336449
-0.331953
-0.327607
-0.323479
-0.319569
-0.315856
-0.312311
-0.308908
-0.305634
-0.302488
-0.299479
-0.29662
-0.293922
-0.29139
-0.289018
-0.286803
-0.284486
-0.34201
-0.338272
-0.334384
-0.330373
-0.326316
-0.322378
-0.318643
-0.315135
-0.31185
-0.308772
-0.305888
-0.303186
-0.300669
-0.298346
-0.296228
-0.294326
-0.292639
-0.291148
-0.289853
-0.288401
-0.334907
-0.331815
-0.328458
-0.324907
-0.321272
-0.317719
-0.31434
-0.311175
-0.308235
-0.305519
-0.303023
-0.300751
-0.298712
-0.296927
-0.295423
-0.294221
-0.293331
-0.292738
-0.292446
-0.292069
-0.328502
-0.325988
-0.323122
-0.320011
-0.316783
-0.313598
-0.310552
-0.307693
-0.305042
-0.302608
-0.3004
-0.29843
-0.296724
-0.295321
-0.294273
-0.293635
-0.293452
-0.293741
-0.294527
-0.295556
-0.322752
-0.320746
-0.318332
-0.315636
-0.312798
-0.309969
-0.307241
-0.304666
-0.302269
-0.300066
-0.298069
-0.2963
-0.294796
-0.293617
-0.292846
-0.292587
-0.292953
-0.294036
-0.295923
-0.298769
-0.317604
-0.31604
-0.314036
-0.311729
-0.309262
-0.306776
-0.304356
-0.302052
-0.299891
-0.297887
-0.296052
-0.294409
-0.292999
-0.291894
-0.291206
-0.291093
-0.291756
-0.293421
-0.296322
-0.301465
-0.312997
-0.311816
-0.31018
-0.308233
-0.306117
-0.303957
-0.301834
-0.299793
-0.297857
-0.296036
-0.294336
-0.292773
-0.291379
-0.290222
-0.289423
-0.289176
-0.28977
-0.291587
-0.295167
-0.302877
-0.308872
-0.30802
-0.306713
-0.305093
-0.303302
-0.30145
-0.299611
-0.297823
-0.296104
-0.294459
-0.292884
-0.291378
-0.289955
-0.288659
-0.287584
-0.286916
-0.286975
-0.288255
-0.291832
-0.302157
-0.305169
-0.304599
-0.303581
-0.302257
-0.300763
-0.299196
-0.297621
-0.296071
-0.294561
-0.293086
-0.291631
-0.290179
-0.288714
-0.287235
-0.285771
-0.284424
-0.283407
-0.283081
-0.284831
-0.295406
-0.301833
-0.301506
-0.300741
-0.299679
-0.29845
-0.297141
-0.295806
-0.294476
-0.293159
-0.291844
-0.290508
-0.289114
-0.287615
-0.285951
-0.284041
-0.281785
-0.279026
-0.27527
-0.269255
-0.2621
-0.298814
-0.298696
-0.298151
-0.297319
-0.296325
-0.295243
-0.294122
-0.292987
-0.291844
-0.290679
-0.289462
-0.288151
-0.286685
-0.284983
-0.282937
-0.280412
-0.277243
-0.273048
-0.266973
-0.260627
-0.296073
-0.296134
-0.295779
-0.295147
-0.294356
-0.293472
-0.292537
-0.291573
-0.290582
-0.289552
-0.288453
-0.287244
-0.285869
-0.284257
-0.282321
-0.27997
-0.277119
-0.273548
-0.268841
-0.264753
-0.293577
-0.293792
-0.2936
-0.293139
-0.292523
-0.29181
-0.291035
-0.290217
-0.289359
-0.288448
-0.287459
-0.286355
-0.285091
-0.28361
-0.281853
-0.279766
-0.277309
-0.274341
-0.270688
-0.268062
-0.291298
-0.291647
-0.291593
-0.291279
-0.290814
-0.290247
-0.28961
-0.28892
-0.288178
-0.287375
-0.286488
-0.285489
-0.284343
-0.283012
-0.281457
-0.279658
-0.277609
-0.275232
-0.272494
-0.270881
-0.289218
-0.289679
-0.289745
-0.289557
-0.289222
-0.288782
-0.288267
-0.28769
-0.287054
-0.286351
-0.285566
-0.284676
-0.283659
-0.28249
-0.281154
-0.279652
-0.278005
-0.276179
-0.274206
-0.273302
-0.287319
-0.287876
-0.288044
-0.287964
-0.287742
-0.287416
-0.287009
-0.286537
-0.286002
-0.285399
-0.284719
-0.283946
-0.283067
-0.282071
-0.280957
-0.279743
-0.278463
-0.277106
-0.275723
-0.275288
-0.285587
-0.286226
-0.286481
-0.286496
-0.286374
-0.286149
-0.285843
-0.285469
-0.285033
-0.284533
-0.283962
-0.283312
-0.282579
-0.28176
-0.280863
-0.279916
-0.278954
-0.277978
-0.277029
-0.276893
-0.284011
-0.28472
-0.28505
-0.285147
-0.285115
-0.284982
-0.284769
-0.284491
-0.284153
-0.283756
-0.283297
-0.282774
-0.282188
-0.281542
-0.28085
-0.28014
-0.279447
-0.27877
-0.278135
-0.278188
-0.28258
-0.28335
-0.283745
-0.283915
-0.283963
-0.283915
-0.283789
-0.283602
-0.283359
-0.283064
-0.282717
-0.28232
-0.281876
-0.281392
-0.280884
-0.280379
-0.279907
-0.279463
-0.279055
-0.279229
-0.281288
-0.28211
-0.282562
-0.282797
-0.282916
-0.282944
-0.282899
-0.282797
-0.282645
-0.282448
-0.282208
-0.281929
-0.281617
-0.28128
-0.280934
-0.280601
-0.280307
-0.280043
-0.279801
-0.280058
-0.280126
-0.280995
-0.281498
-0.281789
-0.281972
-0.282068
-0.282097