1.275 	2.15223e-18 	-2.76991e-20 	-0.149398 	0.00554753 	-2.7694e-22
1.825 	2.15223e-18 	-1.39322e-20 	-0.334356 	0.00680913 	4.02452e-21
2.375 	2.15223e-18 	-2.66896e-23 	-0.454548 	0.00615884 	-2.07329e-21
