/*--------------------------------*- C++ -*----------------------------------*\
  =========                 |
  \\      /  F ield         | OpenFOAM: The Open Source CFD Toolbox
   \\    /   O peration     | Website:  https://openfoam.org
    \\  /    A nd           | Version:  6.0
     \\/     M anipulation  |
\*---------------------------------------------------------------------------*/
FoamFile
{
    version     2.0;
    format      ascii;
    class       surfaceScalarField;
    location    "12.9";
    object      phi;
}
// * * * * * * * * * * * * * * * * * * * * * * * * * * * * * * * * * * * * * //

dimensions      [0 3 -1 0 0 0 0];

internalField   nonuniform List<scalar> 
15760
(
-3.51346e-06
3.49671e-06
1.67524e-08
-1.23209e-05
8.79017e-06
1.72869e-08
-2.51367e-05
1.28203e-05
-4.53116e-09
-4.09609e-05
1.58647e-05
-4.04111e-08
-5.90219e-05
1.81452e-05
-8.42721e-08
-7.87384e-05
1.98485e-05
-1.3199e-07
-9.969e-05
2.11325e-05
-1.80938e-07
-0.000121592
2.21311e-05
-2.29597e-07
-0.000144273
2.29587e-05
-2.77223e-07
-0.000167662
2.37125e-05
-3.23565e-07
-0.000191768
2.44749e-05
-3.68647e-07
-0.00021667
2.53146e-05
-4.12624e-07
-0.000242502
2.62876e-05
-4.55688e-07
-0.000269441
2.7437e-05
-4.98008e-07
-0.000297695
2.87937e-05
-5.39691e-07
-0.000327491
3.03764e-05
-5.80768e-07
-0.000359061
3.21916e-05
-6.21205e-07
-0.000392633
3.42332e-05
-6.60919e-07
-0.00042842
3.64871e-05
-6.99763e-07
3.89467e-05
-7.3766e-07
-0.00046663
-3.46617e-06
6.96287e-06
-1.21607e-05
1.74847e-05
-2.48098e-05
2.54693e-05
-4.04173e-05
3.14722e-05
-5.82103e-05
3.59382e-05
-7.76029e-05
3.92412e-05
-9.81674e-05
4.1697e-05
-0.000119609
4.35732e-05
-0.000141749
4.50978e-05
-0.000164501
4.64649e-05
-0.000187866
4.78394e-05
-0.000211911
4.93595e-05
-0.000236761
5.11384e-05
-0.000262589
5.32648e-05
-0.000289599
5.58034e-05
-0.000318017
5.87948e-05
-0.000348081
6.22554e-05
-0.000380024
6.61762e-05
-0.000414068
7.0531e-05
7.53067e-05
-0.000450428
-3.37611e-06
1.0339e-05
-1.18547e-05
2.59633e-05
-2.41841e-05
3.77988e-05
-3.93752e-05
4.66633e-05
-5.66525e-05
5.32155e-05
-7.54212e-05
5.801e-05
-9.52397e-05
6.15154e-05
-0.000115796
6.41291e-05
-0.000136888
6.61898e-05
-0.00015841
6.79872e-05
-0.000180339
6.97683e-05
-0.000202722
7.17425e-05
-0.000225667
7.40834e-05
-0.000249332
7.69301e-05
-0.000273916
8.0387e-05
-0.000299645
8.45238e-05
-0.000326763
8.93736e-05
-0.000355518
9.49311e-05
-0.000386149
0.000101163
0.000108049
-0.000418892
-3.25036e-06
1.35893e-05
-1.14248e-05
3.41378e-05
-2.3302e-05
4.9676e-05
-3.79021e-05
6.12634e-05
-5.44467e-05
6.976e-05
-7.23285e-05
7.58918e-05
-9.10861e-05
8.0273e-05
-0.000110382
8.34246e-05
-0.000129984
8.57919e-05
-0.000149753
8.77569e-05
-0.000169634
8.96485e-05
-0.00018964
9.17485e-05
-0.000209851
9.42952e-05
-0.000230406
9.7485e-05
-0.00025149
0.000101471
-0.000273329
0.000106363
-0.000296177
0.000112222
-0.000320304
0.000119058
-0.00034598
0.000126838
0.000135542
-0.000373472
-3.0984e-06
1.66877e-05
-1.09006e-05
4.194e-05
-2.22204e-05
6.09957e-05
-3.60892e-05
7.51322e-05
-5.17254e-05
8.53962e-05
-6.85075e-05
9.26739e-05
-8.59501e-05
9.77156e-05
-0.000103684
0.000101158
-0.000121439
0.000103547
-0.000139035
0.000105353
-0.000156369
0.000106982
-0.000173412
0.000108792
-0.000190204
0.000111088
-0.000206852
0.000114133
-0.000223521
0.00011814
-0.000240433
0.000123274
-0.000257853
0.000129642
-0.000276081
0.000137286
-0.000295434
0.000146192
0.000156341
-0.000316234
-2.931e-06
1.96187e-05
-1.03155e-05
4.93245e-05
-2.10035e-05
7.16837e-05
-3.40392e-05
8.81679e-05
-4.86385e-05
9.99955e-05
-6.41654e-05
0.000108201
-8.0109e-05
0.000113659
-9.60649e-05
0.000117114
-0.00011172
0.000119202
-0.000126842
0.000120474
-0.000141273
0.000121413
-0.000154928
0.000122447
-0.000167794
0.000123954
-0.00017993
0.000126269
-0.000191472
0.000129682
-0.000202627
0.000134429
-0.000213673
0.000140688
-0.000224947
0.00014856
-0.000236829
0.000158074
0.000169235
-0.000249723
-2.75881e-06
2.23775e-05
-9.70248e-06
5.62682e-05
-1.97148e-05
8.1696e-05
-3.18534e-05
0.000100306
-4.53336e-05
0.000113476
-5.95066e-05
0.000122374
-7.38375e-05
0.00012799
-8.78866e-05
0.000131163
-0.000101294
0.00013261
-0.000113773
0.000132953
-0.0001251
0.000132741
-0.000135122
0.000132469
-0.000143757
0.000132588
-0.000151002
0.000133514
-0.000156942
0.000135622
-0.000161759
0.000139246
-0.000165734
0.000144663
-0.000169247
0.000152073
-0.00017276
0.000161587
0.000173268
-0.000176793
-2.59104e-06
2.49686e-05
-9.08974e-06
6.27669e-05
-1.84081e-05
9.10144e-05
-2.96168e-05
0.000111515
-4.19336e-05
0.000125792
-5.47012e-05
0.000135141
-6.73652e-05
0.000140654
-7.94542e-05
0.000143252
-9.05647e-05
0.000143721
-0.000100351
0.000142739
-0.000108523
0.000140913
-0.000114848
0.000138793
-0.000119159
0.000136899
-0.00012137
0.000135725
-0.000121495
0.000135747
-0.000119667
0.000137418
-0.000116155
0.000141151
-0.000111375
0.000147293
-0.000105888
0.0001561
0.000167756
-0.000100375
-2.43425e-06
2.74028e-05
-8.49684e-06
6.88295e-05
-1.71193e-05
9.96368e-05
-2.73846e-05
0.000121781
-3.85162e-05
0.000136924
-4.98545e-05
0.00014648
-6.08333e-05
0.000151633
-7.09576e-05
0.000153377
-7.97868e-05
0.00015255
-8.69231e-05
0.000149876
-9.20078e-05
0.000145998
-9.4724e-05
0.00014151
-9.48085e-05
0.000136984
-9.20726e-05
0.000132989
-8.64303e-05
0.000130105
-7.7933e-05
0.000128921
-6.68076e-05
0.000130026
-5.34905e-05
0.000133976
-3.86502e-05
0.00014126
0.000152283
-2.3177e-05
-2.29144e-06
2.96943e-05
-7.93172e-06
7.44698e-05
-1.58607e-05
0.000107566
-2.51716e-05
0.000131091
-3.50965e-05
0.000146849
-4.49808e-05
0.000156364
-5.42563e-05
0.000160908
-6.2416e-05
0.000161536
-6.89948e-05
0.000159129
-7.35543e-05
0.000154435
-7.56763e-05
0.00014812
-7.49633e-05
0.000140797
-7.10507e-05
0.000133071
-6.36303e-05
0.000125569
-5.24881e-05
0.000118963
-3.75555e-05
0.000113988
-1.89729e-05
0.000111443
2.83956e-06
0.000112163
2.71158e-05
0.000116984
0.000126689
5.27098e-05
-2.1618e-06
3.18561e-05
-7.38952e-06
7.96975e-05
-1.4618e-05
0.000114794
-2.29462e-05
0.00013942
-3.16167e-05
0.000155519
-3.9986e-05
0.000164733
-4.7494e-05
0.000168416
-5.36357e-05
0.000167678
-5.79379e-05
0.000163431
-5.99401e-05
0.000156437
-5.91823e-05
0.000147362
-5.52021e-05
0.000136816
-4.75412e-05
0.00012541
-3.57681e-05
0.000113796
-1.95202e-05
0.000102715
1.43092e-06
9.30371e-05
2.70868e-05
8.57873e-05
5.71042e-05
8.21458e-05
9.06567e-05
8.34312e-05
9.10359e-05
0.000126309
-2.04091e-06
3.3897e-05
-6.85313e-06
8.45097e-05
-1.33509e-05
0.000121292
-2.06312e-05
0.0001467
-2.79454e-05
0.000162834
-3.46642e-05
0.000171452
-4.02432e-05
0.000173995
-4.41922e-05
0.000171627
-4.60471e-05
0.000165286
-4.53479e-05
0.000155738
-4.16199e-05
0.000143634
-3.43638e-05
0.00012956
-2.30539e-05
0.0001141
-7.1529e-06
9.78946e-05
1.38507e-05
8.1711e-05
4.0371e-05
6.65168e-05
7.26082e-05
5.35501e-05
0.000110377
4.43771e-05
0.000152867
4.0941e-05
4.55463e-05
0.000198357
-1.92168e-06
3.58187e-05
-6.29572e-06
8.88838e-05
-1.19976e-05
0.000126994
-1.81106e-05
0.000152813
-2.38876e-05
0.000168611
-2.87106e-05
0.000176275
-3.20528e-05
0.000177338
-3.34453e-05
0.00017302
-3.24472e-05
0.000164288
-2.86202e-05
0.000151911
-2.15058e-05
0.00013652
-1.06074e-05
0.000118662
4.62204e-06
9.88707e-05
2.47797e-05
7.77369e-05
5.04903e-05
5.60003e-05
8.23448e-05
3.46623e-05
0.000120776
1.51193e-05
0.000165841
-6.88538e-07
0.000216869
-1.00871e-05
-9.5023e-06
0.000271918
-1.79555e-06
3.76142e-05
-5.68462e-06
9.27728e-05
-1.04827e-05
0.000131792
-1.52425e-05
0.000157573
-1.92044e-05
0.000172573
-2.17505e-05
0.000178821
-2.23639e-05
0.000177951
-2.05934e-05
0.000171249
-1.60248e-05
0.000159719
-8.255e-06
0.000144141
3.1321e-06
0.000125132
1.85877e-05
0.000103206
3.86199e-05
7.88386e-05
6.38094e-05
5.25474e-05
9.48123e-05
2.49974e-05
0.000132328
-2.85288e-06
0.000176995
-2.95479e-05
0.00022917
-5.2864e-05
0.000288471
-6.93879e-05
-7.39398e-05
0.000352909
-1.65391e-06
3.92681e-05
-4.98547e-06
9.61044e-05
-8.72577e-06
0.000135532
-1.18745e-05
0.000160722
-1.36382e-05
0.000174336
-1.33787e-05
0.000178562
-1.05688e-05
0.000175141
-4.75855e-06
0.000165439
4.45168e-06
0.000150509
1.74331e-05
0.00013116
3.4548e-05
0.000108018
5.61701e-05
8.15842e-05
8.27078e-05
5.23009e-05
0.000114632
2.06231e-05
0.000152504
-1.28746e-05
0.000196987
-4.73355e-05
0.000248802
-8.13634e-05
0.000308564
-0.000112626
0.000376309
-0.000137133
-0.000147933
0.000450302
-1.48906e-06
4.07572e-05
-4.1656e-06
9.87809e-05
-6.64861e-06
0.000138015
-7.85735e-06
0.00016193
-6.93673e-06
0.000173416
-3.19831e-06
0.000174823
3.92573e-06
0.000168017
1.49157e-05
0.000154449
3.01862e-05
0.000135238
5.01008e-05
0.000111245
7.4981e-05
8.31373e-05
0.000105116
5.14487e-05
0.000140779
1.66388e-05
0.000182245
-2.08432e-05
0.000229839
-6.04685e-05
0.000283981
-0.000101478
0.000345231
-0.000142613
0.000414243
-0.000181638
0.000491464
-0.000214354
-0.000232242
0.000575774
-1.29454e-06
4.20517e-05
-3.19522e-06
0.000100682
-4.17832e-06
0.000138998
-3.052e-06
0.000160804
1.13333e-06
0.00016923
9.15188e-06
0.000166805
2.16514e-05
0.000155518
3.91843e-05
0.000136916
6.22244e-05
0.000112198
9.11706e-05
8.22991e-05
0.000126343
4.79645e-05
0.000167977
9.81554e-06
0.00021621
-3.15947e-05
0.000271092
-7.57252e-05
0.000332603
-0.000121979
0.000400715
-0.00016959
0.00047549
-0.000217388
0.000557188
-0.000263336
0.000646285
-0.00030345
-0.000328518
0.000742561
-1.06447e-06
4.31162e-05
-2.04576e-06
0.000101663
-1.24508e-06
0.000138198
2.67271e-06
0.000156886
1.07863e-05
0.000161117
2.39935e-05
0.000153597
4.30635e-05
0.000136447
6.86663e-05
0.000111313
0.000101383
7.94812e-05
0.000141702
4.19805e-05
0.000189998
-3.31365e-07
0.000246507
-4.66939e-05
0.000311293
-9.63807e-05
0.000384212
-0.000148643
0.000464887
-0.000202655
0.000552729
-0.000257432
0.000647011
-0.00031167
0.000747041
-0.000363366
0.000852455
-0.000408864
-0.000440095
0.000964032
-7.9204e-07
4.39082e-05
-6.85799e-07
0.000101557
2.22527e-06
0.000135287
9.45116e-06
0.00014966
2.22328e-05
0.000148335
4.16269e-05
0.000134203
6.8561e-05
0.000109513
0.000103861
7.60133e-05
0.000148256
3.50861e-05
0.000202367
-1.2131e-05
0.000266681
-6.46448e-05
0.000341508
-0.000121521
0.000426933
-0.000181806
0.000522753
-0.000244463
0.000628391
-0.000308293
0.000742812
-0.000371853
0.000864454
-0.000433313
0.000991211
-0.000490123
0.0011207
-0.000538351
-0.000573296
0.0012539
-4.67659e-07
4.43759e-05
9.24231e-07
0.000100165
6.32109e-06
0.00012989
1.74365e-05
0.000138545
3.57024e-05
0.000130069
6.23618e-05
0.000107544
9.85242e-05
7.3351e-05
0.00014519
2.93475e-05
0.00020325
-2.29744e-05
0.000273472
-8.23522e-05
0.000356468
-0.000147641
0.000452672
-0.000217725
0.000562302
-0.000291436
0.000685326
-0.000367488
0.000821421
-0.000444388
0.000969892
-0.000520324
0.00112949
-0.000592911
0.00129774
-0.00065837
0.00146829
-0.000708906
-0.000726628
0.00162162
-7.80679e-08
4.4454e-05
2.83537e-06
9.72513e-05
1.11519e-05
0.000121573
2.68125e-05
0.000122884
5.1461e-05
0.000105421
8.65403e-05
7.24646e-05
0.000133344
2.65472e-05
0.000193032
-3.03402e-05
0.000266619
-9.6562e-05
0.000354957
-0.00017069
0.000458705
-0.000251389
0.000578322
-0.000337341
0.000714075
-0.00042719
0.000866102
-0.000519514
0.00103455
-0.000612831
0.00121983
-0.00070561
0.0014232
-0.00079628
0.00164797
-0.000883144
0.00190356
-0.000964496
-0.00103481
0.00221175
3.97085e-07
4.40569e-05
5.11618e-06
9.25322e-05
1.68556e-05
0.000109834
3.78008e-05
0.000101939
6.98166e-05
7.34051e-05
0.000114541
2.77401e-05
0.000173424
-3.23355e-05
0.000247723
-0.000104639
0.000338478
-0.000187317
0.00044647
-0.000278682
0.000572195
-0.000377114
0.000715845
-0.000480992
0.000877335
-0.000588679
0.00105636
-0.00069854
0.00125252
-0.000808996
0.00146553
-0.000918616
0.00169548
-0.00102623
0.00194341
-0.00113107
0.0022117
-0.00123278
-0.00132332
0.0025002
9.80667e-07
4.30762e-05
7.8438e-06
8.56691e-05
2.35856e-05
9.40921e-05
5.06419e-05
7.48826e-05
9.10922e-05
3.29548e-05
0.000146739
-2.7907e-05
0.000219123
-0.000104719
0.000309489
-0.000195006
0.000418738
-0.000296565
0.000547363
-0.000407308
0.000695416
-0.000525167
0.000862492
-0.000648067
0.00104775
-0.000773941
0.00125
-0.000900789
0.00146777
-0.00102676
0.00169943
-0.00115028
0.00194332
-0.00127011
0.00219775
-0.0013855
0.00246097
-0.001496
-0.0015936
0.00273126
1.69898e-06
4.13772e-05
1.11021e-05
7.6266e-05
3.15009e-05
7.36932e-05
6.55728e-05
4.08108e-05
0.000115582
-1.70544e-05
0.000183432
-9.57566e-05
0.000270641
-0.000191928
0.000378277
-0.000302642
0.000506878
-0.000425166
0.000656382
-0.000556811
0.000826094
-0.000694879
0.0010147
-0.000836673
0.00122032
-0.000979567
0.00144064
-0.00112111
0.00167299
-0.00125911
0.00191451
-0.00139179
0.00216218
-0.00151779
0.00241293
-0.00163626
0.00266366
-0.00174673
-0.00184294
0.002913
2.57837e-06
3.87988e-05
1.49714e-05
6.3873e-05
4.07457e-05
4.79189e-05
8.2789e-05
-1.23256e-06
0.000143489
-7.77544e-05
0.00022474
-0.000177008
0.000327875
-0.000295062
0.000453557
-0.000428325
0.00060169
-0.000573298
0.000771355
-0.000726477
0.000960827
-0.000884351
0.00116764
-0.00104349
0.00138875
-0.00120067
0.00162068
-0.00135304
0.00185974
-0.00149818
0.0021022
-0.00163425
0.00234441
-0.00176
0.00258288
-0.00187473
0.00281443
-0.00197828
-0.00206654
0.00303804
3.64241e-06
3.51564e-05
1.95186e-05
4.79968e-05
5.14273e-05
1.60102e-05
0.000102406
-5.22109e-05
0.000174862
-0.00015021
0.000270519
-0.000272666
0.000390297
-0.00041484
0.000534176
-0.000572204
0.000701119
-0.000740242
0.000889068
-0.000914426
0.00109504
-0.00109032
0.00131532
-0.00126377
0.00154572
-0.00143107
0.00178182
-0.00158915
0.00201932
-0.00173567
0.00225414
-0.00186907
0.00248269
-0.00198855
0.00270189
-0.00209393
0.00290929
-0.00218569
-0.00226172
0.00310447
4.9096e-06
3.02468e-05
2.47893e-05
2.81171e-05
6.35983e-05
-2.27988e-05
0.000124424
-0.000113037
0.000209542
-0.000235328
0.000320284
-0.000383407
0.000456871
-0.000551426
0.000618287
-0.00073362
0.000802259
-0.000924213
0.00100536
-0.00111753
0.00122327
-0.00130823
0.00145108
-0.00149158
0.00168371
-0.0016637
0.00191625
-0.00182168
0.00214425
-0.00196367
0.00236397
-0.00208879
0.00257245
-0.00219703
0.00276758
-0.00228906
0.00294804
-0.00236615
-0.00242787
0.00311419
6.39182e-06
2.3855e-05
3.0801e-05
3.70782e-06
7.72419e-05
-6.92396e-05
0.000148709
-0.000184505
0.000247134
-0.000333753
0.000373177
-0.00050945
0.00052604
-0.000704289
0.000703397
-0.000910977
0.000901497
-0.00112231
0.00111546
-0.00133149
0.0013397
-0.00153246
0.00156841
-0.0017203
0.00179608
-0.00189137
0.00201783
-0.00204343
0.00222968
-0.00217553
0.00242874
-0.00228785
0.00261314
-0.00238143
0.00278199
-0.00245792
0.00293524
-0.00251939
-0.00256673
0.0030741
8.09339e-06
1.57616e-05
3.75396e-05
-2.57384e-05
9.22637e-05
-0.000123964
0.000174973
-0.000267214
0.000286987
-0.000445767
0.000427972
-0.000650434
0.000595777
-0.000872095
0.000786504
-0.0011017
0.000994814
-0.00133062
0.00121445
-0.00155113
0.00143888
-0.00175689
0.00166187
-0.00194329
0.00187802
-0.00210752
0.00208307
-0.00224848
0.00227405
-0.00236651
0.00244924
-0.00246304
0.00260807
-0.00254025
0.00275088
-0.00260073
0.00287869
-0.00264719
-0.00268146
0.00299341
1.00107e-05
5.75093e-06
4.49568e-05
-6.06845e-05
0.000108487
-0.000187494
0.000202773
-0.0003615
0.000328209
-0.000571203
0.000483117
-0.000805342
0.000663703
-0.00105268
0.000864342
-0.00130234
0.00107817
-0.00154445
0.00129786
-0.00177082
0.0015164
-0.00197543
0.00172772
-0.00215461
0.00192712
-0.00230692
0.00211145
-0.0024328
0.00227902
-0.00253408
0.00242945
-0.00261348
0.0025634
-0.0026742
0.0026822
-0.00271953
0.00278763
-0.00275263
-0.00277584
0.00288202
1.21318e-05
-6.38086e-06
5.29693e-05
-0.000101522
0.000125652
-0.000260177
0.00023152
-0.000467368
0.000369691
-0.000709374
0.000536818
-0.000972469
0.000727256
-0.00124312
0.000933668
-0.00150876
0.00114793
-0.00175872
0.00136213
-0.00198502
0.00156936
-0.00218266
0.00176432
-0.00234956
0.00194346
-0.00248607
0.00210503
-0.00259437
0.00224872
-0.00267777
0.00237538
-0.00274014
0.00248662
-0.00278543
0.00258445
-0.00281736
0.00267105
-0.00283923
-0.00285361
0.00274882
1.4436e-05
-2.08169e-05
6.14583e-05
-0.000148544
0.00014342
-0.000342139
0.000260493
-0.000584441
0.000410166
-0.000859047
0.000587156
-0.00114946
0.000783906
-0.00143987
0.000991577
-0.00171643
0.00120124
-0.00196839
0.00140499
-0.00218876
0.00159663
-0.0023743
0.00177207
-0.002525
0.00192925
-0.00264325
0.00206782
-0.00273294
0.00218875
-0.0027987
0.00229383
-0.00284522
0.00238528
-0.00287689
0.00246547
-0.00289754
0.00253664
-0.0029104
-0.00291801
0.00260104
1.68937e-05
-3.77106e-05
7.02702e-05
-0.000201921
0.00016138
-0.000433249
0.000288868
-0.000711929
0.000448274
-0.00101845
0.000632226
-0.00133341
0.000831374
-0.00163902
0.00103577
-0.00192082
0.00123627
-0.00216889
0.00142557
-0.00237806
0.0015987
-0.00254743
0.00175308
-0.00267938
0.00188813
-0.0027783
0.00200483
-0.00284964
0.0021051
-0.00289896
0.00219135
-0.00293147
0.00226611
-0.00295165
0.00233177
-0.0029632
0.00239044
-0.00296907
-0.00297163
0.00244406
1.94657e-05
-5.71763e-05
7.92188e-05
-0.000261674
0.000179062
-0.000533091
0.000315759
-0.000848626
0.000482657
-0.00118535
0.000670293
-0.00152105
0.000867827
-0.00183655
0.00106475
-0.00211775
0.00125232
-0.00235646
0.00142436
-0.0025501
0.00157744
-0.00270051
0.00171055
-0.00281248
0.00182449
-0.00289225
0.00192127
-0.00294641
0.00200343
-0.00298113
0.0020737
-0.00300174
0.00213461
-0.00301256
0.00218838
-0.00301697
0.00223687
-0.00301756
-0.00301641
0.00228165
2.21038e-05
-7.92801e-05
8.80906e-05
-0.000327661
0.000195956
-0.000640957
0.00034027
-0.000992939
0.000512051
-0.00135713
0.000699922
-0.00170892
0.00089202
-0.00202865
0.00107789
-0.00230362
0.00124974
-0.00252831
0.0014029
-0.00270326
0.00153559
-0.0028332
0.00164826
-0.00292515
0.00174284
-0.00298683
0.00182201
-0.00302558
0.00188867
-0.00304779
0.00194553
-0.0030586
0.00199498
-0.00306201
0.00203896
-0.00306095
0.002079
-0.0030576
-0.00305375
0.00211634
2.47517e-05
-0.000104032
9.66518e-05
-0.000399561
0.000211541
-0.000755847
0.000361548
-0.00114295
0.00053538
-0.00153096
0.000720086
-0.00189362
0.000903349
-0.00221191
0.00107536
-0.00247563
0.00122972
-0.00268267
0.00136344
-0.00283699
0.00147633
-0.00294609
0.00157006
-0.00301889
0.00164736
-0.00306413
0.00171128
-0.00308951
0.00176479
-0.00310129
0.00181043
-0.00310425
0.00185031
-0.00310189
0.00188606
-0.0030967
0.0019189
-0.00309044
-0.00308461
0.00194976
2.73463e-05
-0.000131378
0.000104658
-0.000476873
0.000225309
-0.000876497
0.000378842
-0.00129648
0.000551826
-0.00170395
0.000730214
-0.00207201
0.000901838
-0.00238354
0.00105803
-0.00263182
0.00119407
-0.0028187
0.00130864
-0.00295155
0.00140292
-0.00304037
0.00147953
-0.0030955
0.00154167
-0.00312627
0.00159252
-0.00314036
0.00163488
-0.00314365
0.00167104
-0.00314041
0.00170278
-0.00313363
0.00173142
-0.00312533
0.00175791
-0.00311693
-0.00310962
0.00178292
2.98205e-05
-0.000161199
0.000111868
-0.000558921
0.000236795
-0.00100142
0.000391547
-0.00145123
0.000560875
-0.00187328
0.000730192
-0.00224133
0.000888045
-0.00254139
0.00102728
-0.00277106
0.00114492
-0.00293634
0.00124121
-0.00304784
0.00131842
-0.00311759
0.00137982
-0.00315689
0.00142878
-0.00317524
0.00146841
-0.00317999
0.00150124
-0.00317648
0.00152925
-0.00316841
0.00155388
-0.00315826
0.00157618
-0.00314763
0.00159687
-0.00313763
-0.00312918
0.00161644
3.21058e-05
-0.000193304
0.000118053
-0.000644868
0.000245608
-0.00112898
0.000399238
-0.00160486
0.000562323
-0.00203636
0.000720315
-0.00239932
0.000862941
-0.00268402
0.000984773
-0.00289289
0.00108452
-0.00303609
0.00116376
-0.00312707
0.00122557
-0.0031794
0.00127355
-0.00320487
0.00131108
-0.00321276
0.001341
-0.00320992
0.00136555
-0.00320103
0.00138637
-0.00318923
0.00140461
-0.0031765
0.00142109
-0.00316411
0.00143635
-0.00315289
-0.00314356
0.00145072
3.41354e-05
-0.00022744
0.000123011
-0.000733744
0.000251445
-0.00125741
0.000401687
-0.0017551
0.000556263
-0.00219094
0.000701209
-0.00254427
0.00082777
-0.00281058
0.000932301
-0.00299742
0.00101505
-0.00311884
0.00107864
-0.00319066
0.00112668
-0.00322744
0.00116285
-0.00324104
0.00119038
-0.00324029
0.0012118
-0.00323134
0.001229
-0.00321824
0.00124331
-0.00320355
0.00125566
-0.00318884
0.00126665
-0.0031751
0.00127669
-0.00316293
-0.00315288
0.00128602
3.58508e-05
-0.000263291
0.000126581
-0.000824474
0.000254119
-0.00138495
0.000398869
-0.00189985
0.000543053
-0.00233512
0.000673753
-0.00267497
0.000783935
-0.00292076
0.000871675
-0.00308516
0.000938539
-0.00318571
0.000987903
-0.00324003
0.00102366
-0.0032632
0.0010494
-0.00326678
0.00106808
-0.00325897
0.00108191
-0.00324516
0.00109243
-0.00322876
0.00110072
-0.00321184
0.00110748
-0.00319561
0.00111319
-0.00318081
0.00111815
-0.00316788
-0.00315724
0.00112251
3.7191e-05
-0.000300482
0.000128626
-0.000915909
0.000253522
-0.00150985
0.000390896
-0.00203723
0.000523204
-0.00246743
0.000638925
-0.00279069
0.000732821
-0.00301466
0.000804546
-0.00315689
0.000856719
-0.00323788
0.000893216
-0.00327652
0.000917992
-0.00328797
0.000934442
-0.00328323
0.000945185
-0.00326971
0.000952088
-0.00325206
0.000956415
-0.00323309
0.000959
-0.00321442
0.000960388
-0.003197
0.000960941
-0.00318136
0.000960882
-0.00316782
-0.00315669
0.000960323
3.81142e-05
-0.000338596
0.000129074
-0.00100687
0.000249676
-0.00163045
0.000378061
-0.00216561
0.0004974
-0.00258677
0.000597811
-0.0028911
0.000675821
-0.00309267
0.000732454
-0.00321352
0.000771126
-0.00327655
0.000795984
-0.00330138
0.00081089
-0.00330288
0.000818954
-0.0032913
0.000822447
-0.0032732
0.00082292
-0.00325253
0.000821378
-0.00323155
0.000818468
-0.00321151
0.000814609
-0.00319314
0.000810078
-0.00317683
0.000805044
-0.00316279
-0.00315123
0.000799587
3.85863e-05
-0.000377182
0.000127895
-0.00109618
0.000242687
-0.00174524
0.000360756
-0.00228368
0.000466393
-0.0026924
0.000551482
-0.00297619
0.000614208
-0.00315539
0.000656734
-0.00325605
0.000683028
-0.00330284
0.000697321
-0.00331567
0.000703269
-0.00330883
0.000703655
-0.00329168
0.000700412
-0.00326996
0.000694802
-0.00324692
0.000687616
-0.00322436
0.000679347
-0.00320324
0.000670319
-0.00318411
0.000660744
-0.00316726
0.000650756
-0.0031528
-0.00314089
0.000640413
3.85853e-05
-0.000415767
0.0001251
-0.00118269
0.000232735
-0.00185288
0.000339449
-0.00239039
0.000430962
-0.00278392
0.000500964
-0.00304619
0.000549127
-0.00320355
0.000578524
-0.00328544
0.00059346
-0.00331778
0.0005981
-0.00332031
0.000595826
-0.00330655
0.000589077
-0.00328494
0.000579474
-0.00326036
0.000568026
-0.00323548
0.000555345
-0.00321168
0.000541805
-0.0031897
0.000527653
-0.00316996
0.000513058
-0.00315266
0.000498127
-0.00313787
-0.00312567
0.000482907
3.81011e-05
-0.000453868
0.000120745
-0.00126534
0.000220063
-0.00195219
0.000314651
-0.00248498
0.00039188
-0.00286115
0.000447199
-0.00310151
0.000481583
-0.00323794
0.000498781
-0.00330264
0.000503255
-0.00332225
0.000499003
-0.00331606
0.000489086
-0.00329663
0.000475613
-0.00327146
0.00045992
-0.00324466
0.000442803
-0.00321836
0.000424727
-0.0031936
0.000405971
-0.00317095
0.000386724
-0.00315071
0.000367121
-0.00313306
0.000347255
-0.003118
-0.00310558
0.000327166
3.71354e-05
-0.000491004
0.000114916
-0.00134312
0.000204952
-0.00204223
0.000286887
-0.00256692
0.00034988
-0.00292414
0.00039104
-0.00314267
0.000412435
-0.00325933
0.000418289
-0.00330849
0.000413078
-0.00331704
0.000400552
-0.00330354
0.000383445
-0.00327953
0.000363551
-0.00325157
0.000341959
-0.00322307
0.000319288
-0.00319569
0.000295883
-0.0031702
0.000271948
-0.00314701
0.000247624
-0.00312639
0.000223023
-0.00310846
0.000198227
-0.00309321
-0.00308063
0.00017328
3.57003e-05
-0.000526704
0.000107727
-0.00141514
0.000187707
-0.00212221
0.000256678
-0.00263589
0.000305644
-0.00297311
0.000333236
-0.00317026
0.000342411
-0.00326851
0.000337691
-0.00330377
0.000323451
-0.0033028
0.000303151
-0.00328324
0.000279198
-0.00325557
0.000253104
-0.00322547
0.000225746
-0.00319571
0.000197599
-0.00316754
0.000168909
-0.00314151
0.000139818
-0.00311792
0.00011043
-0.003097
8.08375e-05
-0.00307886
5.11207e-05
-0.00306349
-0.00305084
2.13286e-05
3.38172e-05
-0.000560521
9.93118e-05
-0.00148064
0.000168646
-0.00219154
0.000224523
-0.00269176
0.000259791
-0.00300837
0.000274439
-0.00318491
0.000272121
-0.00326619
0.000257506
-0.00328916
0.000234786
-0.00328008
0.000207109
-0.00325556
0.00017657
-0.00322503
0.000144432
-0.00319334
0.000111398
-0.00316268
7.78227e-05
-0.00313397
4.38766e-05
-0.00310756
9.64767e-06
-0.00308369
-2.47939e-05
-0.00306256
-5.93706e-05
-0.00304429
-9.3999e-05
-0.00302886
-0.00301622
-0.000128619
3.15155e-05
-0.000592037
8.98169e-05
-0.00153894
0.000148085
-0.00224981
0.000190891
-0.00273457
0.000212871
-0.00303035
0.000215207
-0.00318725
0.000202071
-0.00325305
0.000178155
-0.00326524
0.000147411
-0.00324934
0.000112669
-0.00322082
7.57345e-05
-0.0031881
3.76595e-05
-0.00315526
-9.9791e-07
-0.00312402
-3.99733e-05
-0.00309499
-7.91601e-05
-0.00306837
-0.000118516
-0.00304434
-0.000158004
-0.00302307
-0.000197558
-0.00300473
-0.000237087
-0.00298933
-0.00297679
-0.000276515
2.88311e-05
-0.000620868
7.93968e-05
-0.00158951
0.000126332
-0.00229675
0.000156211
-0.00276445
0.000165375
-0.00303952
0.000156021
-0.00317789
0.000132684
-0.00322972
9.99832e-05
-0.00323254
6.15915e-05
-0.00321095
2.00259e-05
-0.00317925
-2.31659e-05
-0.00314491
-6.7113e-05
-0.00311131
-0.000111369
-0.00307977
-0.00015574
-0.00305062
-0.000200166
-0.00302395
-0.000244648
-0.00299985
-0.000289181
-0.00297854
-0.000333714
-0.0029602
-0.000378143
-0.00294491
-0.00293257
-0.000422364
2.58048e-05
-0.000646673
6.82089e-05
-0.00163191
0.00010368
-0.00233222
0.000120877
-0.00278165
0.000117731
-0.00303637
9.72895e-05
-0.00315745
6.43147e-05
-0.00319674
2.32759e-05
-0.0031915
-2.24521e-05
-0.00316522
-7.06516e-05
-0.00313105
-0.000120006
-0.00309555
-0.000169793
-0.00306153
-0.000219652
-0.00302991
-0.000269435
-0.00300084
-0.00031912
-0.00297426
-0.000368744
-0.00295023
-0.000418338
-0.00292894
-0.000467872
-0.00291067
-0.000517225
-0.00289555
-0.00288354
-0.000566256
2.24814e-05
-0.000669154
5.64099e-05
-0.00166584
8.04068e-05
-0.00235622
8.52443e-05
-0.00278648
7.03163e-05
-0.00302144
3.9365e-05
-0.0031265
-2.73528e-06
-0.00315464
-5.17202e-05
-0.00314252
-0.000104523
-0.00311242
-0.000159207
-0.00307637
-0.00021466
-0.0030401
-0.000270283
-0.0030059
-0.000325776
-0.00297441
-0.000381018
-0.00294559
-0.000436007
-0.00291927
-0.000490811
-0.00289543
-0.000545506
-0.00287425
-0.000600094
-0.00285608
-0.000654441
-0.0028412
-0.00282963
-0.000708346
1.89081e-05
-0.000688062
4.4153e-05
-0.00169108
5.67687e-05
-0.00236883
4.96315e-05
-0.00277935
2.34619e-05
-0.00299527
-1.74466e-05
-0.00308559
-6.82017e-05
-0.00310389
-0.000124784
-0.00308594
-0.000184434
-0.00305277
-0.000245479
-0.00301532
-0.000306988
-0.00297859
-0.000368464
-0.00294443
-0.000429649
-0.00291323
-0.000490429
-0.00288481
-0.000550802
-0.0028589
-0.000610857
-0.00283537
-0.000670718
-0.00281439
-0.000730436
-0.00279636
-0.000789877
-0.00278176
-0.00277077
-0.00084874
1.51336e-05
-0.000703196
3.15859e-05
-0.00170754
3.30039e-05
-0.00237025
1.43251e-05
-0.00276067
-2.25407e-05
-0.00295841
-7.28759e-05
-0.00303526
-0.000131847
-0.00304491
-0.000195706
-0.00302208
-0.000261995
-0.00298648
-0.000329288
-0.00294803
-0.000396817
-0.00291106
-0.000464176
-0.00287707
-0.000531137
-0.00284627
-0.000597575
-0.00281838
-0.000663465
-0.00279301
-0.000728889
-0.00276995
-0.000794011
-0.00274926
-0.000858951
-0.00273142
-0.000923585
-0.00271713
-0.00270688
-0.000987474
1.12072e-05
-0.000714403
1.88492e-05
-0.00171518
9.33012e-06
-0.00236073
-2.04188e-05
-0.00273092
-6.74331e-05
-0.00291139
-0.000126682
-0.00297601
-0.000193452
-0.00297814
-0.00026428
-0.00295125
-0.000337002
-0.00291376
-0.000410421
-0.00287461
-0.000483924
-0.00283756
-0.000557191
-0.0028038
-0.000630026
-0.00277343
-0.000702289
-0.00274611
-0.000773904
-0.0027214
-0.00084491
-0.00269894
-0.000915482
-0.00267869
-0.000985813
-0.00266109
-0.00105581
-0.00264713
-0.00263776
-0.00112493
7.17759e-06
-0.000721581
6.07452e-06
-0.00171407
-1.40553e-05
-0.0023406
-5.43732e-05
-0.0026906
-0.000110987
-0.00285478
-0.000178651
-0.00290834
-0.000252812
-0.00290398
-0.000330301
-0.00287376
-0.000409235
-0.00283482
-0.00048863
-0.00279522
-0.000568024
-0.00275817
-0.000647192
-0.00272463
-0.000725987
-0.00269464
-0.000804267
-0.00266783
-0.000881902
-0.00264376
-0.000958856
-0.00262199
-0.00103528
-0.00260227
-0.00111145
-0.00258491
-0.00118737
-0.00257122
-0.00256247
-0.00126266
3.09212e-06
-0.000724673
-6.61633e-06
-0.00170437
-3.69759e-05
-0.00231024
-8.73388e-05
-0.00264024
-0.000153004
-0.00278911
-0.000228587
-0.00283276
-0.000309731
-0.00282284
-0.000393559
-0.00278993
-0.000478451
-0.00274993
-0.000563627
-0.00271004
-0.000648771
-0.00267302
-0.000733771
-0.00263963
-0.000818563
-0.00260985
-0.000903046
-0.00258335
-0.000987074
-0.00255973
-0.00107053
-0.00253853
-0.00115352
-0.00251928
-0.00123645
-0.00250199
-0.00131952
-0.00248815
-0.00247866
-0.00140332
-1.00445e-06
-0.000723668
-1.91136e-05
-0.00168626
-5.92776e-05
-0.00227008
-0.000119145
-0.00258037
-0.000193312
-0.00271495
-0.000276322
-0.00274975
-0.000364032
-0.00273513
-0.000453845
-0.00270012
-0.000544388
-0.00265939
-0.000635068
-0.00261936
-0.000725718
-0.00258237
-0.00081636
-0.00254899
-0.000907071
-0.00251913
-0.000997885
-0.00249254
-0.00108875
-0.00246887
-0.00117955
-0.00244773
-0.0012703
-0.00242853
-0.00136135
-0.00241094
-0.00145329
-0.00239621
-0.0023831
-0.00154885
-5.071e-06
-0.000718597
-3.1321e-05
-0.00166001
-8.08299e-05
-0.00222057
-0.000149651
-0.00251155
-0.000231776
-0.00263282
-0.000321721
-0.00265981
-0.000415564
-0.00264129
-0.000510972
-0.00260471
-0.000606785
-0.00256357
-0.000702572
-0.00252357
-0.000798292
-0.00248665
-0.000894107
-0.00245318
-0.000990273
-0.00242297
-0.00108709
-0.00239572
-0.00118483
-0.00237113
-0.0012837
-0.00234885
-0.00138382
-0.00232841
-0.00148577
-0.00230899
-0.00159182
-0.00229015
-0.00228346
-0.00169147
-9.0587e-06
-0.000709539
-4.3137e-05
-0.00162593
-0.000101505
-0.0021622
-0.000178728
-0.00243433
-0.000268275
-0.00254328