/*--------------------------------*- C++ -*----------------------------------*\
  =========                 |
  \\      /  F ield         | OpenFOAM: The Open Source CFD Toolbox
   \\    /   O peration     | Website:  https://openfoam.org
    \\  /    A nd           | Version:  6.0
     \\/     M anipulation  |
\*---------------------------------------------------------------------------*/
FoamFile
{
    version     2.0;
    format      ascii;
    class       volVectorField;
    location    "12.9";
    object      U;
}
// * * * * * * * * * * * * * * * * * * * * * * * * * * * * * * * * * * * * * //

dimensions      [0 1 -1 0 0 0 0];

internalField   nonuniform List<vector> 
8000
(
(-0.000611255 0.000686378 -3.83735e-21)
(-0.00328492 0.0016961 2.05127e-20)
(-0.00818606 0.00241303 -2.49546e-20)
(-0.0141939 0.00291353 1.90047e-20)
(-0.0207451 0.00325208 9.25755e-21)
(-0.0275355 0.00347138 -2.78003e-20)
(-0.034353 0.00360676 -2.45843e-21)
(-0.0410657 0.00368743 -8.74469e-22)
(-0.0476057 0.0037375 -1.44452e-20)
(-0.0539512 0.00377682 -7.83102e-21)
(-0.0601125 0.00382168 5.83519e-21)
(-0.0661232 0.00388515 2.22142e-20)
(-0.0720318 0.00397738 -1.65432e-21)
(-0.077895 0.00410584 2.39023e-21)
(-0.0837744 0.00427536 -2.24133e-20)
(-0.0897435 0.00448809 1.38194e-20)
(-0.0958719 0.00474382 -1.98298e-20)
(-0.102108 0.00504218 3.00168e-20)
(-0.108276 0.00538372 -3.33723e-23)
(-0.115179 0.00575086 6.542e-21)
(-0.000711801 0.00206006 1.27431e-20)
(-0.00351293 0.00507331 -6.51329e-20)
(-0.00847024 0.00719573 -4.49978e-20)
(-0.0144844 0.00866033 -3.05643e-20)
(-0.0210033 0.00963405 -3.93276e-20)
(-0.0277288 0.0102473 8.64837e-21)
(-0.0344537 0.0106077 -4.54141e-20)
(-0.0410488 0.0108035 -1.02093e-20)
(-0.0474482 0.0109074 3.21277e-21)
(-0.0536309 0.0109792 3.39622e-20)
(-0.0596082 0.0110676 -3.70717e-20)
(-0.0654143 0.011212 5.15875e-20)
(-0.0710986 0.011443 -3.86524e-20)
(-0.0767187 0.0117834 -4.58719e-20)
(-0.0823382 0.012248 -6.32878e-20)
(-0.0880323 0.0128439 4.03811e-20)
(-0.093874 0.013571 -1.31153e-20)
(-0.0998141 0.0144286 -4.77253e-20)
(-0.105673 0.015419 4.51364e-20)
(-0.112259 0.0164892 -3.37207e-20)
(-0.000910841 0.00339769 1.24589e-19)
(-0.00396577 0.00836712 6.45411e-20)
(-0.00903718 0.0118631 7.25901e-20)
(-0.0150671 0.0142679 6.04239e-21)
(-0.021525 0.0158566 4.01269e-20)
(-0.0281256 0.0168449 5.00908e-20)
(-0.0346703 0.0174107 -9.10419e-20)
(-0.041036 0.0177002 -4.82323e-20)
(-0.0471602 0.0178337 -6.28474e-20)
(-0.0530241 0.0179106 6.70887e-20)
(-0.0586406 0.0180124 -5.12622e-20)
(-0.064045 0.0182052 -6.59988e-20)
(-0.0692882 0.0185412 -2.40387e-20)
(-0.0744304 0.0190598 2.2843e-20)
(-0.0795378 0.0197876 -6.39654e-21)
(-0.0846901 0.0207382 9.14099e-21)
(-0.0899665 0.0219128 1.06323e-19)
(-0.0953228 0.0233121 -1.48713e-20)
(-0.100574 0.0249419 -1.08295e-19)
(-0.106538 0.0267129 1.43618e-19)
(-0.00120378 0.00467814 4.33748e-20)
(-0.00463552 0.0115277 -6.12371e-20)
(-0.00988072 0.0163455 -1.53698e-20)
(-0.01594 0.0196511 2.87351e-20)
(-0.0223141 0.0218218 8.15957e-20)
(-0.0287364 0.0231543 1.78672e-19)
(-0.0350215 0.0238936 1.74622e-19)
(-0.041055 0.0242418 1.45223e-20)
(-0.0467799 0.0243655 1.07137e-19)
(-0.0521806 0.0244028 1.64036e-19)
(-0.0572717 0.024468 -1.3115e-19)
(-0.0620903 0.0246551 1.94084e-19)
(-0.0666894 0.0250393 -4.40362e-20)
(-0.0711321 0.0256789 1.10633e-20)
(-0.0754892 0.0266152 4.60282e-20)
(-0.0798468 0.0278709 6.12467e-20)
(-0.0842933 0.0294519 -9.62803e-20)
(-0.0887931 0.0313626 -8.04679e-20)
(-0.0931543 0.0336151 -1.42631e-19)
(-0.0982085 0.0360834 2.08652e-19)
(-0.00158435 0.00588403 -2.26555e-20)
(-0.00551103 0.0145127 -2.3197e-19)
(-0.0109916 0.020582 -6.86233e-20)
(-0.0170991 0.024735 -1.67232e-19)
(-0.0233738 0.0274427 6.32156e-20)
(-0.0295735 0.0290775 -9.97181e-20)
(-0.0355304 0.0299476 3.43069e-20)
(-0.0411418 0.0303074 -2.11283e-19)
(-0.0463576 0.0303678 1.1148e-19)
(-0.0511664 0.0303046 -1.32977e-19)
(-0.0555852 0.0302647 -1.18306e-19)
(-0.0596527 0.0303705 -1.32534e-19)
(-0.063424 0.0307227 1.2036e-19)
(-0.0669657 0.0314013 -1.08132e-19)
(-0.0703542 0.0324662 1.50613e-19)
(-0.0736838 0.0339542 4.36047e-20)
(-0.0770557 0.0358799 1.08017e-19)
(-0.0804471 0.0382557 4.74958e-20)
(-0.0836603 0.0411055 -1.87989e-19)
(-0.0875449 0.0442665 3.07763e-19)
(-0.00204522 0.00700248 9.99485e-20)
(-0.00657864 0.0172886 7.66735e-21)
(-0.0123575 0.0245232 4.11682e-20)
(-0.018537 0.029457 1.43637e-19)
(-0.0247043 0.0326463 -2.19829e-20)
(-0.0306472 0.0345323 2.33287e-19)
(-0.0362193 0.0354811 1.03569e-19)
(-0.0413327 0.0357959 8.70303e-21)
(-0.0459464 0.0357284 2.66411e-19)
(-0.050054 0.0354901 8.73389e-20)
(-0.0536747 0.0352596 4.14392e-20)
(-0.0568488 0.0351886 1.31539e-19)
(-0.0596329 0.0354049 1.20636e-19)
(-0.0620972 0.0360144 2.20388e-19)
(-0.0643238 0.0371005 -1.96997e-19)
(-0.0664172 0.0387204 2.78863e-19)
(-0.0684943 0.0409041 3.84305e-21)
(-0.0705506 0.043679 -3.56892e-19)
(-0.0723863 0.0470886 4.63076e-19)
(-0.0748739 0.0509351 1.93189e-19)
(-0.00257867 0.00802545 -5.89003e-20)
(-0.00782283 0.0198318 -1.06944e-19)
(-0.0139624 0.0281317 -2.22487e-19)
(-0.0202412 0.033769 -6.5927e-21)
(-0.0262993 0.0373755 3.79781e-20)
(-0.0319595 0.0394546 -2.84116e-19)
(-0.0371016 0.0404242 -2.10808e-19)
(-0.0416553 0.040631 -3.01478e-20)
(-0.0455907 0.0403636 -2.66741e-19)
(-0.0489074 0.0398659 -1.84743e-19)
(-0.0516271 0.0393464 -5.38485e-20)
(-0.0537907 0.0389857 -1.73447e-19)
(-0.0554557 0.0389405 -2.79232e-21)
(-0.0566945 0.0393462 -2.30513e-19)
(-0.057595 0.0403161 9.71013e-20)
(-0.0582724 0.0419356 -1.10759e-19)
(-0.0588625 0.0442599 8.5036e-20)
(-0.0593847 0.0473417 -1.0801e-19)
(-0.0596446 0.0512559 -3.09269e-19)
(-0.0605452 0.0557756 -9.41562e-20)
(-0.00317704 0.00894939 -2.17082e-20)
(-0.0092266 0.0221278 -2.3562e-20)
(-0.0157862 0.0313823 1.86556e-19)
(-0.0221918 0.0376368 -3.03599e-19)
(-0.0281416 0.04159 4.454e-20)
(-0.0334984 0.0438 -1.75375e-19)
(-0.0381728 0.0447303 8.28785e-20)
(-0.0421156 0.0447649 3.72573e-19)
(-0.0453105 0.044224 -2.38745e-20)
(-0.0477641 0.0433792 -2.78029e-19)
(-0.049501 0.0424656 5.05382e-20)
(-0.0505616 0.0416908 9.77176e-21)
(-0.0510027 0.0412411 -5.71745e-20)
(-0.0508973 0.0412842 5.70678e-21)
(-0.0503376 0.0419695 5.02394e-19)
(-0.0494491 0.0434208 -7.15139e-20)
(-0.048389 0.0457307 -1.39692e-19)
(-0.0472064 0.0489926 -2.50919e-19)
(-0.0457232 0.0533305 2.55935e-19)
(-0.0448858 0.0585004 1.10695e-19)
(-0.00383312 0.00977438 1.09501e-19)
(-0.0107716 0.0241703 -1.43284e-19)
(-0.0178036 0.0342605 2.0255e-19)
(-0.0243587 0.0410394 2.03867e-19)
(-0.0301982 0.0452652 1.87917e-19)
(-0.0352303 0.0475438 3.81049e-19)
(-0.0394005 0.0483772 2.46425e-19)
(-0.0426852 0.0481801 -5.29552e-19)
(-0.0450843 0.0472978 2.70848e-19)
(-0.0466133 0.0460237 2.12567e-19)
(-0.0473 0.044614 -2.98418e-21)
(-0.0471839 0.0432994 2.3803e-19)
(-0.046319 0.0422934 1.85672e-19)
(-0.0447764 0.0417979 -1.00988e-19)
(-0.0426498 0.0420033 3.4152e-19)
(-0.0400736 0.0430819 -4.23427e-19)
(-0.0372267 0.0451797 1.69596e-19)
(-0.0341942 0.0484512 2.18322e-19)
(-0.0308289 0.0530951 -5.10761e-20)
(-0.0281411 0.0588728 4.39559e-19)
(-0.00454014 0.0105029 2.20168e-19)
(-0.0124375 0.0259579 1.13968e-20)
(-0.0199823 0.0367593 -7.89919e-20)
(-0.026699 0.043966 -8.3411e-20)
(-0.0324161 0.0483897 -3.86232e-19)
(-0.0370924 0.0506778 5.46871e-20)
(-0.0407138 0.0513646 1.54961e-19)
(-0.0432863 0.0508883 -7.4515e-20)
(-0.0448297 0.0496119 6.14667e-20)
(-0.045371 0.0478431 -1.63144e-20)
(-0.0449422 0.0458519 -8.03277e-20)
(-0.0435822 0.0438852 7.62088e-20)
(-0.0413406 0.0421786 -3.3174e-19)
(-0.0382832 0.0409653 3.1794e-19)
(-0.0345019 0.0404796 -2.75578e-19)
(-0.0301367 0.0409509 8.51378e-20)
(-0.0253871 0.0425952 1.93845e-19)
(-0.0203788 0.0456548 -4.03737e-20)
(-0.0150126 0.0504393 -1.34332e-19)
(-0.0103958 0.0567513 -9.12711e-20)
(-0.00529154 0.0111384 -2.74256e-19)
(-0.0142019 0.0274923 -1.79846e-20)
(-0.0222822 0.0388766 5.77381e-20)
(-0.0291538 0.0464123 1.48369e-19)
(-0.0347168 0.0509608 -2.09478e-19)
(-0.0389862 0.0532066 -1.82771e-19)
(-0.0419931 0.0537098 4.26591e-19)
(-0.0437779 0.0529258 -2.35713e-19)
(-0.0443845 0.0512278 -1.52047e-19)
(-0.0438549 0.0489293 -2.18163e-19)
(-0.0422282 0.0463047 1.44429e-19)
(-0.0395433 0.0436076 -3.93203e-21)
(-0.0358449 0.0410865 -2.69735e-19)
(-0.0311918 0.0389983 -4.41357e-19)
(-0.0256697 0.0376175 3.36234e-19)
(-0.0194198 0.0372348 -2.72542e-19)
(-0.0126592 0.0381514 3.8655e-19)
(-0.00555641 0.0407269 -1.08319e-19)
(0.0019218 0.0454297 2.2848e-19)
(0.0085234 0.0521594 -7.71998e-19)
(-0.00608052 0.0116838 -5.5546e-19)
(-0.0160384 0.028775 3.64095e-19)
(-0.0246532 0.0406108 4.95164e-20)
(-0.0316462 0.0483758 9.57135e-21)
(-0.0369938 0.0529797 -2.24331e-19)
(-0.0407721 0.0551406 3.29869e-19)
(-0.0430626 0.05544 3.60223e-20)
(-0.0439448 0.054345 -6.76482e-20)
(-0.0434914 0.0522319 -2.17012e-19)
(-0.0417637 0.0494121 2.34611e-19)
(-0.0388117 0.0461547 5.94755e-19)
(-0.0346777 0.042708 -1.3143e-19)
(-0.0294034 0.0393198 2.96821e-19)
(-0.02304 0.0362573 -3.50693e-19)
(-0.0156646 0.0338237 -3.36228e-19)
(-0.00741508 0.0323654 2.0229e-19)
(0.00147838 0.032276 3.34486e-19)
(0.0108053 0.0340605 -1.08356e-18)
(0.0205188 0.0384045 1.27144e-19)
(0.0291568 0.0453831 1.72261e-19)
(-0.00689942 0.0121406 4.11319e-19)
(-0.0179161 0.0298046 1.35208e-19)
(-0.0270343 0.0419577 7.04231e-19)
(-0.0340796 0.0498518 3.62029e-20)
(-0.0391097 0.0544454 -7.82948e-20)
(-0.0422665 0.0564887 -3.72742e-19)
(-0.0436861 0.0565825 3.17005e-19)
(-0.0434914 0.0552012 5.68549e-19)
(-0.0417883 0.0527202 3.78799e-19)
(-0.0386624 0.0494419 2.73334e-19)
(-0.0341801 0.0456212 2.35554e-19)
(-0.0283925 0.0414893 -4.23265e-19)
(-0.0213437 0.037278 -1.3266e-19)
(-0.0130808 0.0332453 -9.75265e-20)
(-0.00367351 0.0297018 1.04601e-18)
(0.00674582 0.0270309 -3.65087e-21)
(0.0179378 0.02571 -2.60705e-19)
(0.0296545 0.0264049 -8.23183e-20)
(0.0417644 0.0300807 7.48256e-19)
(0.0525165 0.0370902 9.64499e-20)
(-0.00773921 0.0125081 -2.03334e-20)
(-0.0197986 0.0305757 -3.88889e-19)
(-0.0293522 0.0429081 -5.78333e-19)
(-0.0363369 0.0508296 -1.60847e-19)
(-0.0408963 0.0553496 8.88028e-20)
(-0.0432417 0.0572516 1.91432e-20)
(-0.0435669 0.0571545 5.07037e-19)
(-0.0420414 0.0555395 -6.28857e-19)
(-0.0388081 0.0527786 -2.39178e-19)
(-0.0339817 0.0491627 -4.81928e-19)
(-0.027651 0.0449272 -4.10447e-19)
(-0.0198844 0.0402773 -3.63266e-19)
(-0.010737 0.0354143 9.08062e-20)
(-0.000261716 0.0305658 -1.17827e-19)
(0.0114718 0.026021 5.04949e-19)
(0.0243321 0.0221661 -2.76988e-19)
(0.0380707 0.0195292 -8.67629e-19)
(0.0524085 0.0189257 -1.75027e-19)
(0.067143 0.0216498 4.28072e-19)
(0.0801557 0.0284493 -3.71809e-19)
(-0.00858903 0.0127832 -6.56224e-20)
(-0.0216427 0.0310784 4.75431e-19)
(-0.0315212 0.0434466 -6.06218e-19)
(-0.0382806 0.0512906 1.40154e-19)
(-0.0421552 0.0556744 -2.88476e-19)
(-0.043428 0.0574167 6.42455e-19)
(-0.0423522 0.057156 -4.59119e-19)
(-0.0391453 0.0553817 5.25225e-19)
(-0.0339891 0.0524643 -4.97866e-19)
(-0.0270313 0.0486846 2.12419e-19)
(-0.0183899 0.0442591 -1.03107e-19)
(-0.00815966 0.0393647 -2.5868e-19)
(0.0035797 0.0341645 -3.19502e-19)
(0.0167536 0.028839 3.18414e-19)
(0.0312752 0.0236265 -2.6656e-19)
(0.0469995 0.0188707 -5.82574e-19)
(0.0636585 0.0150912 6.06537e-19)
(0.0809441 0.013197 -7.732e-19)
(0.0986236 0.0148227 3.48239e-19)
(0.114165 0.0212157 1.05775e-20)
(-0.00943596 0.0129612 -5.94486e-19)
(-0.0233986 0.0312983 -6.4165e-19)
(-0.0334425 0.0435522 7.39649e-20)
(-0.0397528 0.0512095 -6.18421e-19)
(-0.0426589 0.0553927 -5.49333e-20)
(-0.042517 0.0569583 -4.54798e-19)
(-0.0396393 0.0565677 -1.04304e-19)
(-0.0342907 0.0547216 -3.04773e-19)
(-0.0266923 0.0517941 2.8023e-21)
(-0.0170269 0.0480621 -1.33287e-19)
(-0.00544697 0.0437304 9.46563e-21)
(0.00791604 0.0389543 -3.8406e-19)
(0.0229422 0.0338624 4.23245e-19)
(0.0395132 0.0285842 -6.00267e-19)
(0.0574978 0.0232892 2.12601e-19)
(0.076709 0.0182367 7.9669e-21)
(0.0968322 0.0138619 -3.38032e-19)
(0.117517 0.0110607 8.38251e-19)
(0.138564 0.0117427 -1.99708e-19)
(0.157076 0.0177 -1.29663e-19)
(-0.0102648 0.0130361 6.6713e-19)
(-0.0250081 0.0312189 3.6014e-19)
(-0.0350028 0.0432012 3.34921e-19)
(-0.0405745 0.0505577 4.99968e-20)
(-0.0421517 0.0544727 4.52743e-19)
(-0.0401643 0.0558439 6.52447e-19)
(-0.034982 0.055358 5.34029e-19)
(-0.0269151 0.0535318 4.78278e-20)
(-0.0162224 0.0507493 3.91014e-19)
(-0.00312246 0.0472929 6.04069e-19)
(0.0121936 0.043368 -1.56616e-19)
(0.0295485 0.0391238 2.62929e-19)
(0.048766 0.0346712 2.12319e-19)
(0.0696593 0.0301037 2.16032e-19)
(0.0920183 0.0255277 1.27616e-18)
(0.115573 0.0211018 -4.78273e-19)
(0.139916 0.0171119 -2.90203e-20)
(0.164607 0.0142968 5.53271e-19)
(0.189542 0.0146764 -3.13476e-19)
(0.211691 0.0205318 1.54948e-19)
(-0.0110582 0.0130018 -5.39302e-19)
(-0.0264044 0.0308233 3.44543e-20)
(-0.0360731 0.0423707 -4.31399e-19)
(-0.0405432 0.0493094 -5.61209e-20)
(-0.0403472 0.0528878 3.15708e-19)
(-0.0359888 0.0540464 -9.39878e-19)
(-0.0278934 0.0534997 -7.00918e-22)
(-0.0164136 0.0517841 4.37343e-19)
(-0.00184444 0.0492995 4.10785e-19)
(0.0155595 0.0463434 -1.80912e-19)
(0.0355651 0.0431359 5.96154e-20)
(0.057941 0.0398396 1.38273e-19)
(0.0824399 0.0365747 -6.55398e-20)
(0.108782 0.0334327 -7.33898e-19)
(0.13664 0.0304949 1.8582e-19)
(0.165608 0.0278514 5.10545e-19)
(0.195121 0.0256323 -7.27126e-19)
(0.224553 0.0243051 3.54313e-19)
(0.253903 0.0257921 9.48067e-20)
(0.280505 0.0327157 4.78776e-19)
(-0.0117954 0.0128526 -7.94997e-20)
(-0.0275099 0.0300966 -3.7765e-19)
(-0.0365054 0.0410436 1.73795e-19)
(-0.0394296 0.0474496 8.31094e-22)
(-0.0369251 0.0506274 -7.57088e-19)
(-0.02957 0.0515611 1.18175e-19)
(-0.0178442 0.050993 -2.24269e-20)
(-0.0021421 0.0494805 1.52785e-19)
(0.0172054 0.0474428 -6.99324e-19)
(0.0399056 0.0451983 -4.8992e-20)
(0.065679 0.042992 -1.64223e-19)
(0.0942338 0.0410171 1.46137e-19)
(0.125242 0.0394306 4.9308e-19)
(0.158313 0.038367 -7.62661e-20)
(0.192977 0.0379517 2.9542e-20)
(0.228634 0.0383055 1.93661e-19)
(0.264453 0.0395262 -4.79871e-20)
(0.299436 0.0419195 3.89255e-19)
(0.333436 0.0473699 -2.27071e-19)
(0.364679 0.0586168 -3.54754e-19)
(-0.0124523 0.012583 7.38213e-20)
(-0.0282337 0.0290275 1.80727e-20)
(-0.0361283 0.0392123 1.51393e-19)
(-0.0369721 0.0449814 3.70744e-19)
(-0.031525 0.0477099 2.0803e-19)
(-0.0204426 0.0484237 2.16911e-20)
(-0.00426141 0.047891 -2.48278e-19)
(0.0165794 0.046688 6.36547e-20)
(0.0417068 0.0452512 3.34708e-19)
(0.0707824 0.043918 -5.67153e-19)
(0.103472 0.0429575 4.27927e-19)
(0.139417 0.0425948 -3.22401e-19)
(0.178212 0.0430325 2.73482e-19)
(0.219381 0.0444714 -5.89691e-19)
(0.262352 0.0471362 6.48354e-19)
(0.306403 0.0512927 -6.93214e-19)
(0.350527 0.0572471 -1.79906e-19)
(0.393334 0.0656313 5.63273e-19)
(0.433743 0.0789484 -1.9096e-19)
(0.468567 0.0995727 8.40225e-20)
(-0.0129993 0.0121885 -5.58193e-20)
(-0.0284682 0.0276099 5.26845e-19)
(-0.0347435 0.0368833 -2.20852e-21)
(-0.0328722 0.0419333 -3.27056e-19)
(-0.0237427 0.0441929 -2.19904e-19)
(-0.00809469 0.0447259 4.02909e-19)
(0.0134701 0.0443214 -1.59585e-19)
(0.0404551 0.0435681 -2.01024e-20)
(0.0724275 0.0429113 3.32577e-19)
(0.108979 0.042695 -4.13184e-19)
(0.149696 0.0431939 4.52699e-20)
(0.194131 0.0446387 -5.37014e-19)
(0.241793 0.0472405 2.82639e-19)
(0.292142 0.0512168 -8.08382e-19)
(0.344599 0.0568273 1.28662e-18)
(0.398563 0.0644194 -2.35973e-19)
(0.453442 0.074531 2.44304e-19)
(0.508907 0.0884114 -6.34873e-19)
(0.565311 0.109164 5.81049e-21)
(0.614344 0.134011 7.0768e-19)
(-0.0133998 0.0116643 -1.69019e-19)
(-0.0280863 0.0258433 1.4598e-19)
(-0.0321216 0.0340791 -5.37905e-19)
(-0.0267923 0.0383637 7.95641e-19)
(-0.0131299 0.0401801 -5.74445e-19)
(0.00802753 0.0406245 2.96614e-20)
(0.0359946 0.040499 -6.19543e-19)
(0.0701895 0.0403946 4.42977e-19)
(0.110081 0.0407508 -6.32992e-20)
(0.155145 0.0418973 -3.90955e-19)
(0.204828 0.0440833 -2.28077e-19)
(0.25853 0.0475004 2.41059e-19)
(0.315604 0.0523011 1.5925e-19)
(0.375366 0.058615 -7.04175e-19)
(0.43713 0.0665661 2.54428e-19)
(0.500255 0.0762845 -3.7417e-19)
(0.564211 0.0879233 4.52256e-20)
(0.628776 0.101831 -3.15595e-19)
(0.694583 0.119142 1.26129e-19)
(0.754735 0.136944 -4.68191e-19)
(-0.0136078 0.0110057 4.81205e-19)
(-0.0269377 0.0237342 -2.91529e-19)
(-0.0280008 0.0308404 2.40206e-19)
(-0.0183564 0.0343634 -3.03256e-19)
(0.000798728 0.0358246 5.0825e-19)
(0.0285047 0.0363435 -8.87254e-21)
(0.0639577 0.0367251 -6.19014e-20)
(0.106443 0.0375482 -4.59125e-20)
(0.155271 0.0392274 2.82508e-19)
(0.209722 0.0420519 4.80356e-19)
(0.26902 0.0462127 -2.83737e-19)
(0.332321 0.0518219 2.75769e-19)
(0.398722 0.0589272 5.03252e-19)
(0.467293 0.067523 -3.52909e-19)
(0.537119 0.0775586 -7.14642e-19)
(0.607351 0.0889373 1.30503e-18)
(0.677262 0.101505 -2.33248e-19)
(0.746323 0.115076 -7.52589e-20)
(0.814557 0.129901 8.0269e-19)
(0.877399 0.145757 -1.72188e-19)
(-0.0135674 0.0102089 -7.83124e-19)
(-0.0248491 0.0212974 -5.21295e-19)
(-0.0220887 0.0272283 -2.00113e-19)
(-0.00715812 0.030057 3.86148e-19)
(0.0185498 0.0313268 -8.71932e-19)
(0.0539144 0.0321685 4.51668e-19)
(0.0979592 0.0333738 5.72547e-20)
(0.149765 0.0354896 5.79122e-20)
(0.208392 0.0388791 -5.91835e-19)
(0.272832 0.0437593 -2.08996e-19)
(0.341982 0.0502263 -3.68289e-19)
(0.414656 0.0582749 3.55563e-19)
(0.489617 0.0678145 1.00594e-19)
(0.565624 0.0786829 1.93547e-20)
(0.64149 0.0906578 4.60751e-19)
(0.71614 0.103462 -4.67421e-19)
(0.788654 0.116758 -1.91344e-20)
(0.858306 0.130165 1.28914e-20)
(0.924687 0.143471 6.48134e-20)
(0.985553 0.158541 3.54366e-19)
(-0.0132113 0.00927147 2.49296e-19)
(-0.0216241 0.0185584 6.42004e-19)
(-0.0140681 0.0233258 5.15182e-19)
(0.00722594 0.0256033 -1.77636e-19)
(0.040625 0.0269325 6.18049e-19)
(0.0847887 0.0284367 -5.20687e-20)
(0.138488 0.0308716 -7.33768e-20)
(0.200499 0.0347222 4.36825e-20)
(0.269523 0.0402647 5.97841e-19)
(0.344146 0.0476031 3.51286e-19)
(0.422839 0.0566969 1.0261e-19)
(0.504003 0.0673863 6.43434e-21)
(0.586027 0.0794172 -6.78986e-19)
(0.667367 0.0924645 5.89969e-19)
(0.746616 0.106155 1.00619e-19)
(0.822569 0.120084 -1.66353e-19)
(0.894255 0.133827 -7.16023e-19)
(0.960965 0.146976 -5.92023e-20)
(1.0222 0.159066 2.80599e-19)
(1.07765 0.173228 -5.61438e-20)
(-0.0124614 0.00819492 -6.32205e-19)
(-0.0170472 0.0155575 2.64514e-19)
(-0.00360651 0.0192422 -1.29176e-18)
(0.0252168 0.0211967 5.29256e-19)
(0.0674876 0.0229287 -4.22157e-19)
(0.121562 0.0255263 3.11287e-19)
(0.185849 0.0296743 -4.8378e-19)
(0.258695 0.0357541 4.44078e-20)
(0.338315 0.0439066 -2.4954e-20)
(0.422779 0.0540727 1.30143e-19)
(0.510061 0.0660305 1.87774e-19)
(0.598122 0.0794336 -3.54816e-19)
(0.685014 0.0938508 1.88011e-19)
(0.768983 0.108805 1.72248e-19)
(0.848547 0.123809 7.40926e-19)
(0.92255 0.138392 -3.22552e-19)
(0.990181 0.152122 -2.12397e-19)
(1.05097 0.164648 3.56269e-19)
(1.10466 0.17547 1.87519e-19)
(1.15212 0.188185 -3.56516e-19)
(-0.0112302 0.00698663 5.53495e-19)
(-0.0108896 0.0123538 5.33649e-19)
(0.00963045 0.0151163 1.54091e-19)
(0.0472088 0.0170686 6.48977e-19)
(0.0995239 0.0196403 3.1901e-19)
(0.164514 0.0238435 -5.75176e-19)
(0.240091 0.0302431 8.7141e-19)
(0.324027 0.0390591 -4.28873e-19)
(0.413926 0.0502372 4.28173e-19)
(0.507261 0.0635003 5.53844e-19)
(0.601489 0.0784044 -3.16483e-19)
(0.694191 0.0943975 6.01728e-20)
(0.783208 0.110879 3.34492e-19)
(0.866755 0.127256 2.35215e-19)
(0.943488 0.142981 5.39932e-19)
(1.01253 0.15759 -2.16973e-19)
(1.07343 0.170715 -2.752e-20)
(1.12616 0.182115 3.37005e-19)
(1.17088 0.191415 -7.29203e-20)
(1.20915 0.202126 2.48098e-23)
(-0.00942338 0.00566268 -2.85661e-19)
(-0.00291756 0.00903075 -1.0499e-18)
(0.0259628 0.0111215 2.47326e-19)
(0.0735422 0.0134886 -1.88318e-19)
(0.137002 0.0174247 -4.3497e-19)
(0.213719 0.0238085 -3.10817e-19)
(0.300948 0.0330175 -1.92043e-19)
(0.395745 0.0450387 4.66299e-19)
(0.495003 0.0595545 -2.76936e-19)
(0.595581 0.0760189 -2.83739e-19)
(0.694488 0.0937408 -3.58371e-19)
(0.789077 0.11197 -5.9147e-20)
(0.877192 0.129975 -4.04854e-20)
(0.957263 0.147107 -8.25444e-19)
(1.02833 0.162837 3.98587e-19)
(1.08999 0.176783 -5.2447e-19)
(1.14234 0.188705 1.63164e-19)
(1.18587 0.198513 -1.24281e-18)
(1.22125 0.206043 3.75004e-19)
(1.2503 0.2144 4.70328e-19)
(-0.00694229 0.00425022 -7.17762e-20)
(0.00709787 0.00569997 5.11829e-19)
(0.0456771 0.00746843 3.28408e-20)
(0.104473 0.0107635 7.90146e-20)
(0.180031 0.0166633 -1.60675e-19)
(0.268997 0.0258359 -2.69929e-21)
(0.367803 0.0383865 -4.16265e-21)
(0.472667 0.0539856 -9.70703e-20)
(0.57974 0.0719876 3.4436e-19)
(0.685338 0.0915438 1.33015e-19)
(0.786196 0.111721 6.0351e-19)
(0.879684 0.131613 -1.64419e-19)
(0.963924 0.15043 1.14546e-19)
(1.03783 0.167551 -1.45834e-20)
(1.10102 0.182552 3.16485e-19)
(1.15374 0.1952 1.92883e-19)
(1.19669 0.205434 4.62747e-19)
(1.23086 0.213327 -7.46163e-19)
(1.25737 0.218947 9.36311e-19)
(1.27814 0.224876 -2.96222e-19)
(-0.00368824 0.00278947 -6.66613e-19)
(0.0193689 0.00250454 -2.08312e-19)
(0.0690061 0.0044061 1.62662e-19)
(0.140145 0.00923237 1.02598e-19)
(0.228528 0.0177482 1.05363e-19)
(0.329885 0.0303125 1.06721e-19)
(0.439677 0.0466577 -2.6732e-19)
(0.553225 0.0660545 -1.10421e-19)
(0.666 0.087481 3.43258e-20)
(0.773956 0.109785 -3.272e-19)
(0.873828 0.131837 -1.47764e-19)
(0.96331 0.152656 8.92489e-19)
(1.04109 0.171489 -2.30371e-19)
(1.10679 0.187841 -3.16415e-19)
(1.16075 0.201466 -1.49329e-19)
(1.20389 0.212331 1.03864e-19)
(1.23748 0.22057 1.25571e-19)
(1.26291 0.226419 -6.01312e-19)
(1.28164 0.230136 8.67997e-19)
(1.2955 0.233797 -7.51355e-19)
(0.000433549 0.00133487 -7.52395e-20)
(0.0340782 -0.000380133 2.15218e-20)
(0.0961072 0.00221902 -2.76299e-20)
(0.180558 0.00925693 4.0289e-19)
(0.282184 0.0210635 2.23321e-20)
(0.395622 0.03757 1.4807e-19)
(0.515263 0.0580296 -3.07845e-19)
(0.635563 0.0812436 -1.11996e-20)
(0.751491 0.1058 4.27504e-19)
(0.858936 0.130288 5.94731e-20)
(0.954971 0.15347 -3.71913e-19)
(1.03793 0.174401 -3.26928e-20)
(1.10732 0.192473 -3.04372e-19)
(1.16357 0.207399 3.03449e-19)
(1.20781 0.219165 4.19838e-19)
(1.24155 0.227956 -4.62214e-20)
(1.26649 0.23409 -5.59597e-20)
(1.28432 0.237934 1.70677e-19)
(1.2966 0.23988 -5.46647e-19)
(1.30507 0.241573 4.82042e-19)
(0.00550926 -4.43724e-05 7.58043e-20)
(0.0513656 -0.00274785 -4.8834e-19)
(0.127042 0.00122047 1.30635e-19)
(0.225547 0.0112071 -4.05877e-19)
(0.340457 0.0269624 1.39632e-19)
(0.465171 0.0478582 -5.18594e-19)
(0.592994 0.0725706 2.0924e-19)
(0.717675 0.0993947 -6.66816e-20)
(0.83398 0.126564 -2.74034e-21)
(0.938103 0.1525 6.80583e-20)
(1.02781 0.175985 -2.4766e-19)
(1.10234 0.196229 -3.53121e-19)
(1.16216 0.212865 -7.21535e-20)
(1.20854 0.225873 -3.2384e-20)
(1.2433 0.235489 -8.20792e-20)
(1.26842 0.242104 -2.66613e-20)
(1.28585 0.246181 -7.97679e-20)
(1.2974 0.248179 -6.90477e-20)
(1.30463 0.248564 -2.04599e-19)
(1.30908 0.248639 3.24016e-19)
(0.0116116 -0.00126482 1.81831e-19)
(0.0713148 -0.00436581 -2.02006e-19)
(0.161756 0.00174169 4.34941e-19)
(0.274768 0.0154418 -1.87914e-19)
(0.402574 0.0357423 5.02304e-19)
(0.53726 0.0613231 7.31541e-21)
(0.671151 0.0902122 2.52351e-19)
(0.797573 0.120212 -6.77546e-20)
(0.911487 0.149293 2.81879e-19)
(1.00978 0.175845 2.02082e-20)
(1.09123 0.198808 6.69729e-19)
(1.15615 0.217661 -4.61941e-19)
(1.20597 0.232344 6.23915e-20)
(1.24275 0.243127 1.18757e-19)
(1.26881 0.250482 6.18878e-19)
(1.28642 0.254966 -2.22259e-19)
(1.29765 0.257144 -4.39306e-20)
(1.30424 0.257516 -2.31852e-19)
(1.30765 0.256576 -2.41364e-20)
(1.30923 0.255365 1.15777e-19)
(0.0187945 -0.00223011 -8.70606e-20)
(0.0939404 -0.0049814 2.51829e-19)
(0.200068 0.00411758 -2.58294e-19)
(0.327692 0.0222878 1.01837e-19)
(0.467554 0.0476221 -1.2216e-19)
(0.610457 0.0779932 4.47966e-19)
(0.747986 0.110758 -6.25612e-20)
(0.873447 0.143301 1.53503e-19)
(0.982433 0.173471 -9.0554e-20)
(1.0729 0.19979 -2.47861e-21)
(1.14482 0.221482 1.03e-19)
(1.19964 0.238384 -7.97666e-20)
(1.23967 0.250773 2.06722e-19)
(1.26759 0.259195 -1.03102e-19)
(1.28605 0.264317 -4.52341e-19)
(1.29742 0.266815 4.49305e-19)
(1.30371 0.267302 -2.01949e-19)
(1.30653 0.266282 1.61203e-19)
(1.30716 0.264245 2.78785e-19)
(1.30674 0.26203 1.14466e-19)
(0.0270883 -0.00283324 2.16743e-19)
(0.119178 -0.00433131 -4.4676e-19)
(0.24166 0.00867007 8.54223e-20)
(0.383614 0.0320184 -6.20681e-20)
(0.534253 0.0627251 -2.50739e-19)
(0.683258 0.0977787 -1.96784e-19)
(0.821849 0.133905 -3.87503e-20)
(0.943787 0.168212 -3.50649e-19)
(1.04572 0.198602 -2.14008e-20)
(1.12695 0.223887 -6.51135e-20)
(1.18873 0.24369 -1.76547e-19)
(1.23356 0.258244 -3.92647e-20)
(1.2645 0.268159 -1.34889e-19)
(1.2846 0.274218 -2.24647e-19)
(1.29666 0.277231 2.29722e-19)
(1.30301 0.277936 3.14199e-20)
(1.3055 0.276952 6.26016e-20)
(1.30554 0.274755 -2.63728e-19)
(1.30419 0.271818 -6.72272e-21)
(1.30241 0.268815 -4.05773e-19)
(0.036495 -0.00295974 2.37211e-19)
(0.146877 -0.00215249 1.5834e-19)
(0.286079 0.0156904 -2.5568e-19)
(0.44168 0.0448345 3.99247e-19)
(0.601431 0.0810692 -4.31483e-20)
(0.75419 0.120482 1.4923e-19)
(0.891299 0.159281 5.16838e-20)
(1.00746 0.194484 1.8296e-19)
(1.10075 0.224244 -1.43278e-19)
(1.17193 0.2478 4.77063e-20)
(1.22354 0.265243 -4.5754e-20)
(1.25896 0.277208 -2.00266e-20)
(1.28177 0.284602 3.82048e-20)
(1.29522 0.28839 -7.02802e-20)
(1.30208 0.289465 -2.15255e-20)
(1.30451 0.288582 -6.59223e-20)
(1.30415 0.28633 -1.07016e-19)
(1.30218 0.283139 6.91351e-20)
(1.29948 0.279457 -9.45567e-20)
(1.29679 0.275822 4.08772e-19)
(0.0469843 -0.00249163 -1.18308e-19)
(0.176796 0.00180559 -3.35564e-19)
(0.332745 0.0254222 -4.46959e-20)
(0.500923 0.0608508 -1.22797e-20)
(0.667813 0.102568 -1.5053e-19)
(0.821895 0.145817 -2.47243e-19)
(0.955171 0.186473 8.08934e-20)
(1.06375 0.221685 -1.11161e-19)
(1.14734 0.250036 -1.2445e-19)
(1.20824 0.2713 6.9302e-20)
(1.25009 0.28606 -5.2339e-20)
(1.27698 0.295328 -1.05801e-19)
(1.29276 0.30025 -3.48264e-21)
(1.30072 0.301912 7.1654e-20)
(1.30346 0.301237 -7.29631e-20)
(1.30292 0.298956 1.01247e-19)
(1.30047 0.295608 2.72854e-20)
(1.29709 0.291566 6.85331e-20)
(1.29347 0.287256 1.33304e-19)
(1.29019 0.283089 -1.14154e-19)
(0.0584913 -0.00131211 1.12939e-19)
(0.208606 0.00776831 -9.82601e-21)
(0.380972 0.0380459 5.08521e-20)
(0.560305 0.0800882 -6.89096e-20)
(0.732168 0.127037 5.75591e-21)
(0.885201 0.173437 2.39317e-19)
(1.01261 0.215064 -1.57141e-19)
(1.11227 0.249431 6.65854e-20)
(1.18567 0.275702 5.87159e-20)
(1.23649 0.294249 -1.64807e-19)
(1.26933 0.306135 1.54837e-19)
(1.28871 0.312699 1.3894e-21)
(1.2986 0.31526 -1.08986e-19)
(1.30214 0.314963 1.31333e-19)
(1.3017 0.312718 -5.20975e-20)
(1.29895 0.309205 3.98164e-20)
(1.29502 0.304896 -4.45378e-20)
(1.29067 0.300108 -1.7857e-20)
(1.28644 0.295249 -1.55574e-19)
(1.28278 0.29061 4.76898e-20)
(0.0709154 0.000689359 -3.79778e-20)
(0.241897 0.0159236 1.02151e-19)
(0.429989 0.0536676 1.59664e-20)
(0.618772 0.102472 6.688e-20)
(0.793362 0.154214 3.1954e-20)
(0.943162 0.202957 1.49844e-20)
(1.06308 0.244654 8.48529e-20)
(1.15299 0.277394 -1.02779e-20)
(1.21614 0.301039 3.74116e-20)
(1.25745 0.316575 6.00793e-20)
(1.28221 0.325508 2.8983e-20)
(1.29518 0.329431 2.08058e-20)
(1.30024 0.329773 8.4349e-20)
(1.30032 0.327685 -8.16542e-20)
(1.29748 0.324029 1.75179e-20)
(1.29312 0.319417 -1.64114e-20)
(1.28815 0.314248 2.53684e-20)
(1.28316 0.308788 2.12543e-20)
(1.27855 0.303432 4.43506e-20)
(1.27467 0.298348 1.83219e-21)
(0.0841209 0.00361179 2.25216e-20)
(0.276187 0.0264107 2.05728e-20)
(0.478976 0.0723109 -2.85065e-20)
(0.675299 0.127837 1.7817e-20)
(0.850406 0.183768 1.00739e-20)
(0.995073 0.233976 -3.13493e-20)
(1.10631 0.274872 1.03416e-20)
(1.18609 0.305306 1.87915e-21)
(1.23931 0.325905 1.78332e-20)
(1.27192 0.338252 -4.78395e-20)
(1.28963 0.344232 -1.49356e-22)
(1.29725 0.345623 1.32581e-20)
(1.29845 0.343899 -1.0567e-20)
(1.29586 0.340175 1.06885e-20)
(1.29125 0.335242 2.78979e-20)
(1.28576 0.329632 -1.58787e-20)
(1.2801 0.323675 4.41951e-21)
(1.27471 0.31759 1.7396e-20)
(1.26989 0.311766 -2.86604e-20)
(1.26588 0.306245 1.37672e-20)
(0.09794 0.00753758 6.26193e-20)
(0.310942 0.0393117 -3.41054e-20)
(0.527096 0.0939145 4.01962e-20)
(0.728931 0.155937 -2.99197e-20)
(0.902485 0.215326 -1.34277e-20)
(1.04046 0.266095 4.06713e-21)
(1.14226 0.305384 -1.31824e-20)
(1.21193 0.332947 4.74092e-20)
(1.25582 0.350199 -3.94925e-20)
(1.28066 0.359275 9.27273e-21)
(1.29236 0.362362 -6.90724e-21)
(1.29562 0.361354 -4.50369e-20)
(1.29381 0.357714 4.36988e-20)
(1.28923 0.352489 1.66501e-20)
(1.28336 0.346384 -1.65571e-20)
(1.2771 0.339851 3.88912e-20)
(1.271 0.333152 -5.68447e-22)
(1.26539 0.326472 -3.77416e-20)
(1.26047 0.320195 2.79534e-20)
(1.25643 0.314231 8.83165e-21)
(0.112176 0.0125281 -2.19485e-20)
(0.34559 0.0546449 6.362e-20)
(0.573525 0.118333 7.35816e-20)
(0.778817 0.186457 -3.47509e-20)
(0.948966 0.248484 6.04458e-20)
(1.07908 0.298926 9.57188e-20)
(1.17105 0.335892 -5.28936e-21)
(1.23095 0.360134 -1.64686e-20)
(1.26631 0.373846 8.12697e-20)
(1.28437 0.379642 3.96512e-20)
(1.29108 0.379937 -7.20947e-21)
(1.29086 0.376669 5.91769e-20)
(1.28676 0.371251 -6.35122e-20)
(1.28074 0.364638 9.89414e-20)
(1.27401 0.357444 -1.65055e-20)
(1.26726 0.35004 4.73656e-20)
(1.26092 0.34263 8.56195e-21)
(1.25523 0.33537 3.39121e-20)
(1.25031 0.328643 -3.22671e-20)
(1.24631 0.322224 7.81759e-21)
(0.126609 0.0186192 -3.41626e-20)
(0.379542 0.072361 8.08038e-20)
(0.617479 0.145343 6.00969e-20)
(0.824232 0.219027 -9.12406e-21)
(0.989393 0.282824 9.38267e-20)
(1.11082 0.332099 -7.02425e-20)
(1.19296 0.366128 -5.53612e-21)
(1.24365 0.386713 6.19694e-20)
(1.2714 0.39678 1.9673e-20)
(1.28368 0.399345 2.75952e-20)
(1.28632 0.396971 -4.07773e-20)
(1.28341 0.391583 1.06479e-19)
(1.27764 0.38451 1.99246e-20)
(1.27063 0.376602 -9.44062e-20)
(1.26335 0.368379 1.38169e-19)
(1.25634 0.36014 -1.63095e-19)
(1.24992 0.352037 -7.49841e-20)
(1.24425 0.344208 1.24291e-20)
(1.2394 0.337029 7.28209e-20)
(1.23551 0.33014 -1.37577e-19)
(0.141002 0.0258189 -7.66126e-20)
(0.412212 0.092343 -1.80897e-19)
(0.658248 0.174649 -1.56611e-19)
(0.864585 0.253233 -2.13257e-19)
(1.02348 0.31792 -1.21152e-19)
(1.13576 0.365259 -2.51291e-19)
(1.20832 0.395848 3.19375e-20)
(1.25056 0.412543 -1.33709e-19)
(1.27163 0.418937 -1.47144e-20)