/*--------------------------------*- C++ -*----------------------------------*\
  =========                 |
  \\      /  F ield         | OpenFOAM: The Open Source CFD Toolbox
   \\    /   O peration     | Website:  https://openfoam.org
    \\  /    A nd           | Version:  6.0
     \\/     M anipulation  |
\*---------------------------------------------------------------------------*/
FoamFile
{
    version     2.0;
    format      ascii;
    class       volScalarField;
    location    "23.2";
    object      p;
}
// * * * * * * * * * * * * * * * * * * * * * * * * * * * * * * * * * * * * * //

dimensions      [0 2 -2 0 0 0 0];

internalField   nonuniform List<scalar> 
8000
(
-0.26371
-0.264732
-0.265398
-0.265879
-0.266279
-0.266616
-0.266904
-0.267157
-0.267382
-0.267588
-0.267779
-0.26796
-0.268135
-0.268308
-0.268484
-0.268672
-0.268874
-0.269054
-0.269195
-0.269687
-0.263827
-0.264844
-0.265506
-0.265982
-0.266378
-0.266709
-0.266991
-0.267236
-0.267455
-0.267653
-0.267836
-0.268009
-0.268176
-0.26834
-0.268508
-0.268687
-0.26888
-0.269052
-0.269185
-0.269671
-0.264066
-0.265074
-0.265728
-0.266195
-0.266579
-0.266898
-0.267167
-0.267399
-0.267603
-0.267786
-0.267954
-0.26811
-0.26826
-0.268407
-0.268557
-0.268719
-0.268896
-0.269053
-0.269169
-0.269645
-0.264427
-0.265422
-0.266062
-0.266514
-0.266882
-0.267183
-0.267432
-0.267643
-0.267825
-0.267985
-0.268128
-0.268259
-0.268383
-0.268503
-0.268627
-0.268763
-0.268915
-0.269048
-0.269138
-0.269599
-0.264909
-0.265886
-0.266509
-0.266941
-0.267286
-0.267562
-0.267784
-0.267966
-0.268118
-0.268246
-0.268355
-0.268451
-0.268539
-0.268622
-0.268708
-0.268807
-0.268925
-0.269024
-0.269081
-0.269521
-0.265511
-0.266467
-0.267068
-0.267474
-0.26779
-0.268034
-0.268221
-0.268366
-0.268479
-0.268565
-0.268631
-0.268681
-0.268721
-0.268755
-0.268792
-0.268842
-0.268913
-0.268968
-0.268979
-0.269394
-0.266234
-0.267165
-0.267739
-0.268114
-0.268394
-0.268598
-0.268742
-0.268842
-0.268906
-0.268941
-0.268952
-0.268945
-0.268924
-0.268896
-0.268868
-0.268854
-0.268864
-0.268862
-0.268816
-0.269199
-0.267079
-0.267981
-0.268522
-0.268861
-0.269098
-0.269254
-0.269348
-0.269393
-0.269399
-0.269372
-0.269318
-0.26924
-0.269145
-0.269038
-0.26893
-0.268836
-0.268767
-0.26869
-0.268572
-0.268916
-0.268047
-0.268916
-0.26942
-0.269714
-0.269901
-0.270003
-0.270037
-0.270019
-0.269958
-0.26986
-0.269728
-0.269568
-0.269383
-0.269182
-0.268975
-0.268779
-0.268612
-0.268438
-0.268227
-0.268522
-0.269144
-0.269974
-0.270434
-0.270677
-0.270806
-0.270845
-0.270813
-0.270724
-0.270588
-0.270408
-0.270189
-0.269934
-0.269646
-0.269333
-0.269006
-0.268686
-0.268392
-0.268094
-0.267764
-0.267996
-0.270374
-0.271158
-0.271566
-0.271751
-0.271814
-0.271782
-0.271676
-0.271509
-0.271291
-0.271023
-0.270709
-0.270348
-0.269943
-0.269501
-0.269033
-0.268561
-0.268111
-0.267653
-0.267165
-0.267313
-0.271744
-0.272473
-0.272821
-0.272938
-0.272927
-0.272817
-0.272629
-0.272379
-0.272073
-0.271712
-0.271296
-0.270823
-0.270291
-0.269705
-0.269075
-0.268423
-0.267779
-0.267114
-0.266416
-0.266442
-0.273263
-0.273926
-0.274203
-0.274242
-0.274146
-0.273949
-0.273674
-0.273334
-0.272937
-0.27248
-0.27196
-0.271371
-0.270707
-0.269967
-0.269155
-0.268294
-0.267415
-0.266486
-0.265502
-0.265351
-0.274939
-0.275523
-0.275717
-0.275665
-0.275474
-0.27518
-0.274808
-0.274374
-0.273882
-0.273329
-0.272706
-0.272002
-0.271204
-0.270303
-0.269297
-0.268202
-0.267044
-0.265785
-0.264416
-0.263994
-0.276783
-0.277273
-0.277368
-0.277211
-0.276911
-0.276508
-0.27603
-0.275494
-0.274904
-0.274253
-0.273528
-0.272712
-0.271785
-0.270725
-0.269519
-0.26817
-0.266694
-0.265032
-0.263151
-0.26232
-0.278807
-0.279186
-0.279165
-0.278886
-0.278459
-0.277931
-0.277334
-0.276686
-0.275991
-0.275238
-0.274413
-0.273489
-0.272438
-0.271227
-0.269824
-0.268213
-0.266391
-0.264261
-0.261727
-0.260293
-0.281027
-0.281275
-0.281118
-0.280695
-0.28012
-0.279448
-0.278715
-0.27794
-0.277127
-0.276266
-0.275336
-0.274308
-0.273141
-0.271791
-0.270205
-0.268343
-0.266174
-0.26355
-0.260249
-0.257957
-0.283461
-0.283557
-0.28324
-0.282649
-0.281902
-0.281062
-0.280169
-0.279248
-0.278301
-0.277319
-0.276278
-0.275143
-0.273869
-0.272396
-0.270653
-0.268566
-0.266069
-0.26295
-0.258767
-0.255215
-0.286134
-0.286053
-0.28555
-0.284763
-0.283816
-0.282779
-0.281702
-0.28061
-0.279509
-0.278391
-0.277232
-0.275996
-0.274635
-0.273082
-0.271248
-0.269021
-0.266265
-0.262619
-0.257228
-0.25163
-0.289077
-0.288791
-0.288072
-0.287059
-0.285881
-0.284619
-0.28333
-0.282043
-0.280768
-0.279501
-0.278223
-0.276908
-0.275522
-0.27402
-0.272343
-0.270417
-0.268114
-0.264965
-0.259739
-0.253514
-0.29233
-0.291806
-0.290838
-0.289567
-0.288126
-0.28661
-0.285082
-0.283577
-0.282111
-0.280685
-0.279293
-0.277928
-0.27659
-0.275295
-0.2741
-0.273137
-0.272664
-0.273098
-0.275967
-0.288198
-0.29594
-0.295139
-0.293887
-0.292325
-0.290591
-0.288793
-0.287002
-0.285261
-0.283589
-0.281998
-0.280493
-0.279086
-0.277807
-0.27672
-0.275946
-0.275701
-0.276348
-0.278426
-0.283099
-0.294997
-0.299961
-0.298838
-0.297264
-0.295378
-0.293323
-0.291219
-0.289148
-0.287156
-0.285271
-0.283511
-0.281893
-0.280444
-0.279217
-0.278299
-0.277834
-0.278045
-0.279255
-0.281879
-0.2865
-0.295644
-0.304452
-0.302955
-0.301018
-0.298777
-0.296375
-0.293948
-0.291583
-0.289332
-0.287229
-0.285296
-0.283558
-0.282052
-0.280837
-0.280004
-0.279688
-0.280068
-0.281371
-0.283845
-0.28774
-0.294168
-0.309473
-0.307543
-0.305202
-0.302578
-0.299808
-0.297041
-0.294372
-0.291856
-0.289527
-0.28741
-0.285531
-0.283926
-0.28265
-0.28178
-0.281417
-0.281682
-0.2827
-0.284577
-0.2874
-0.291368
-0.315084
-0.312655
-0.30987
-0.306834
-0.303678
-0.30056
-0.297578
-0.294786
-0.292216
-0.289889
-0.287825
-0.286052
-0.284612
-0.283557
-0.282951
-0.282858
-0.28333
-0.284381
-0.286033
-0.288023
-0.321339
-0.318343
-0.315073
-0.311602
-0.308042
-0.30456
-0.301253
-0.298167
-0.295327
-0.292742
-0.290424
-0.288387
-0.286654
-0.285255
-0.284222
-0.283579
-0.283335
-0.283463
-0.283962
-0.284409
-0.328282
-0.32465
-0.320855
-0.316928
-0.31295
-0.30909
-0.305437
-0.302026
-0.298864
-0.29595
-0.293281
-0.290857
-0.288687
-0.286784
-0.285161
-0.283824
-0.282764
-0.281951
-0.281374
-0.280637
-0.335946
-0.33161
-0.327257
-0.322855
-0.318443
-0.314184
-0.310152
-0.306362
-0.302803
-0.299459
-0.296314
-0.293361
-0.290602
-0.288044
-0.285696
-0.283562
-0.281635
-0.279897
-0.278335
-0.276649
-0.344348
-0.339245
-0.334304
-0.329411
-0.324547
-0.319856
-0.315393
-0.311145
-0.307084
-0.30318
-0.299413
-0.295778
-0.292281
-0.288935
-0.285757
-0.282758
-0.279944
-0.277311
-0.274846
-0.272354
-0.353485
-0.347561
-0.342009
-0.33661
-0.331266
-0.326095
-0.321122
-0.316308
-0.311609
-0.306993
-0.302445
-0.297975
-0.293604
-0.289362
-0.285278
-0.281379
-0.277678
-0.274186
-0.270887
-0.267667
-0.36333
-0.356542
-0.350363
-0.344441
-0.338578
-0.332856
-0.327266
-0.321747
-0.316248
-0.31075
-0.305262
-0.299815
-0.294459
-0.289242
-0.28421
-0.279398
-0.274829
-0.270517
-0.266439
-0.262537
-0.37383
-0.366148
-0.359333
-0.352866
-0.346427
-0.340055
-0.333708
-0.327315
-0.320839
-0.314287
-0.307707
-0.301167
-0.294743
-0.288505
-0.28251
-0.276798
-0.271391
-0.2663
-0.261492
-0.256944
-0.384897
-0.376309
-0.368852
-0.361808
-0.354715
-0.347563
-0.340291
-0.332836
-0.325195
-0.317428
-0.30963
-0.301909
-0.29437
-0.287096
-0.280149
-0.273565
-0.267361
-0.261538
-0.256046
-0.250888
-0.396409
-0.38692
-0.378819
-0.371151
-0.363298
-0.355207
-0.346817
-0.338102
-0.32912
-0.319997
-0.310886
-0.301934
-0.293264
-0.284968
-0.2771
-0.269687
-0.262734
-0.256228
-0.250102
-0.244376
-0.408205
-0.397838
-0.389089
-0.380734
-0.371987
-0.362772
-0.353057
-0.342887
-0.332408
-0.321824
-0.311343
-0.301144
-0.291361
-0.282077
-0.273337
-0.265148
-0.257501
-0.250367
-0.243655
-0.237413
-0.420083
-0.408877
-0.399474
-0.390346
-0.380547
-0.370003
-0.358758
-0.346959
-0.334862
-0.32275
-0.310883
-0.299456
-0.2886
-0.278383
-0.268829
-0.259926
-0.251645
-0.243939
-0.236696
-0.229995
-0.431799
-0.419812
-0.409741
-0.399733
-0.388702
-0.376621
-0.363654
-0.350086
-0.336291
-0.32263
-0.309396
-0.296789
-0.284923
-0.273842
-0.263543
-0.253992
-0.245141
-0.236925
-0.229207
-0.222109
-0.443074
-0.430376
-0.419615
-0.4086
-0.396146
-0.382328
-0.367477
-0.352044
-0.33652
-0.32133
-0.306785
-0.29307
-0.280273
-0.268407
-0.257439
-0.247312
-0.237958
-0.229295
-0.221163
-0.213734
-0.453592
-0.440267
-0.428781
-0.416619
-0.402552
-0.386821
-0.369969
-0.352624
-0.335388
-0.31873
-0.302957
-0.288228
-0.274592
-0.262028
-0.250473
-0.239845
-0.230061
-0.221016
-0.212532
-0.204841
-0.463013
-0.44915
-0.436899
-0.423442
-0.407586
-0.389804
-0.370884
-0.351636
-0.332751
-0.314721
-0.297829
-0.282193
-0.267821
-0.254653
-0.242597
-0.231549
-0.221409
-0.212052
-0.203283
-0.195401
-0.470974
-0.45667
-0.443603
-0.428708
-0.410916
-0.390994
-0.369999
-0.348909
-0.328482
-0.309204
-0.291321
-0.2749
-0.259902
-0.246232
-0.233766
-0.222382
-0.211963
-0.202366
-0.193381
-0.185381
-0.477104
-0.462458
-0.448525
-0.432062
-0.412227
-0.390134
-0.367116
-0.344295
-0.322467
-0.302092
-0.283361
-0.266286
-0.250781
-0.236713
-0.223934
-0.212301
-0.201686
-0.191924
-0.182794
-0.174751
-0.481033
-0.466145
-0.451297
-0.433164
-0.411231
-0.386998
-0.362063
-0.337667
-0.314611
-0.293308
-0.273884
-0.256295
-0.240406
-0.226052
-0.21306
-0.201271
-0.190544
-0.180695
-0.171496
-0.163485
-0.482406
-0.467373
-0.451571
-0.4317
-0.40767
-0.38139
-0.3547
-0.328921
-0.304834
-0.282787
-0.262835
-0.244876
-0.228734
-0.214209
-0.201108
-0.189259
-0.178509
-0.168655
-0.159465
-0.151563
-0.480886
-0.465805
-0.449026
-0.427395
-0.401331
-0.373153
-0.344914
-0.317976
-0.293073
-0.270475
-0.250168
-0.23199
-0.215726
-0.20115
-0.188049
-0.17624
-0.165559
-0.155784
-0.146685
-0.138971
-0.476175
-0.461138
-0.443381
-0.420016
-0.39204
-0.36217
-0.332624
-0.304772
-0.27928
-0.256334
-0.235846
-0.217605
-0.201356
-0.186852
-0.173864
-0.162198
-0.151681
-0.142073
-0.13315
-0.125703
-0.468013
-0.453114
-0.434403
-0.409384
-0.379674
-0.34836
-0.317779
-0.289275
-0.263429
-0.24034
-0.21985
-0.2017
-0.185607
-0.1713
-0.15854
-0.147124
-0.136869
-0.12752
-0.11886
-0.111759
-0.456194
-0.441524
-0.421914
-0.39537
-0.364156
-0.331681
-0.300358
-0.271472
-0.24551
-0.222483
-0.20217
-0.18427
-0.168472
-0.154491
-0.142076
-0.131019
-0.121128
-0.112132
-0.103827
-0.0971503
-0.440567
-0.426217
-0.405796
-0.377904
-0.345455
-0.31213
-0.280368
-0.251375
-0.225534
-0.202772
-0.182812
-0.165317
-0.149955
-0.136428
-0.124478
-0.113892
-0.104469
-0.0959265
-0.088072
-0.0819002
-0.421045
-0.407106
-0.38599
-0.35697
-0.32359
-0.289743
-0.25785
-0.229019
-0.203529
-0.18123
-0.161796
-0.144859
-0.130072
-0.117127
-0.105761
-0.0957586
-0.0869121
-0.0789274
-0.0716267
-0.0660478
-0.397602
-0.384168
-0.362503
-0.332611
-0.298625
-0.264589
-0.23287
-0.204464
-0.179548
-0.157901
-0.139156
-0.122924
-0.108845
-0.0966075
-0.0859448
-0.0766391
-0.0684782
-0.0611615
-0.0545266
-0.0496359
-0.370279
-0.357444
-0.335403
-0.30492
-0.270666
-0.236775
-0.205526
-0.177794
-0.153661
-0.132844
-0.114942
-0.0995522
-0.0863089
-0.074897
-0.0650513
-0.0565533
-0.0491877
-0.0426537
-0.0368035
-0.0326881
-0.339182
-0.32704
-0.304815
-0.274042
-0.239863
-0.206442
-0.175944
-0.14912
-0.125962
-0.106136
-0.0892181
-0.0747952
-0.0625018
-0.0520253
-0.0431036
-0.0355198
-0.0290596
-0.0234283
-0.018481
-0.0151962
-0.304477
-0.293124
-0.270924
-0.240171
-0.206405
-0.173765
-0.144279
-0.118576
-0.0965666
-0.0778765
-0.0620642
-0.0487156
-0.03747
-0.0280224
-0.0201187
-0.0135483
-0.00810324
-0.00349873
0.000431367
0.00283997
-0.266391
-0.25592
-0.233963
-0.203542
-0.170518
-0.138949
-0.110715
-0.0863247
-0.0656175
-0.0481859
-0.0335808
-0.0213922
-0.0112702
-0.0029232
0.00388832
0.00936252
0.0136953
0.0171548
0.0199295
0.0212956
-0.225204
-0.215706
-0.194214
-0.164433
-0.132459
-0.102231
-0.0754655
-0.0525561
-0.0332812
-0.0172091
-0.00388928
0.00707784
0.0160257
0.0232243
0.0288907
0.0332071
0.0363529
0.0385417
0.0398983
0.0397812
-0.181242
-0.172805
-0.152
-0.123154
-0.0925209
-0.0638771
-0.0387705
-0.0174874
0.000248147
0.014885
0.0268699
0.0365876
0.0443483
0.0503898
0.0548953
0.0580255
0.0599198
0.0606187
0.0600196
0.0578542
-0.134876
-0.12758
-0.107677
-0.080046
-0.0510186
-0.0241778
-0.000898978
0.0186335
0.0347429
0.047892
0.058524
0.0670109
0.0736402
0.078616
0.0820843
0.0841748
0.0849134
0.0839483
0.0808232
0.0765472
-0.0865064
-0.080426
-0.0616292
-0.0354725
-0.00829093
0.0165527
0.0378555
0.0555279
0.0699349
0.0815523
0.0908249
0.098123
0.103731
0.107853
0.110647
0.112259
0.112593
0.110808
0.106209
0.101567
-0.0365645
-0.0317637
-0.0142626
0.0101855
0.0353089
0.0579857
0.0771822
0.0928953
0.105525
0.115555
0.123434
0.129536
0.134159
0.137544
0.139935
0.141603
0.142525
0.141729
0.138953
0.142412
0.0145093
0.0179734
0.0340067
0.056538
0.0794198
0.0997856
0.116765
0.130431
0.14121
0.14959
0.156012
0.160845
0.164386
0.166888
0.168611
0.169814
0.170486
0.170162
0.169725
0.175326
0.0662553
0.0683374
0.0827526
0.10319
0.123679
0.141617
0.156289
0.167836
0.176703
0.183375
0.188283
0.191785
0.194177
0.195707
0.196624
0.197147
0.19726
0.196672
0.196282
0.200783
0.11821
0.118878
0.131549
0.149749
0.167727
0.18315
0.195449
0.204823
0.211727
0.216638
0.219971
0.222071
0.223218
0.223649
0.223594
0.223247
0.222606
0.221448
0.220515
0.223533
0.169913
0.169146
0.179976
0.195828
0.211213
0.224064
0.233952
0.241121
0.246033
0.249149
0.250869
0.251515
0.251351
0.250595
0.249451
0.248085
0.246481
0.244444
0.242657
0.244292
0.220908
0.2187
0.227618
0.241052
0.253797
0.264054
0.271518
0.276475
0.279386
0.280696
0.280782
0.279948
0.278435
0.276442
0.274152
0.271703
0.269064
0.266062
0.263345
0.263654
0.270751
0.267111
0.274077
0.285056
0.295151
0.302823
0.307882
0.310646
0.311572
0.311086
0.309544
0.307226
0.304354
0.301108
0.297648
0.294089
0.29039
0.286405
0.282755
0.28181
0.319013
0.313963
0.318966
0.327493
0.334965
0.340092
0.342792
0.343408
0.342389
0.340142
0.336998
0.333219
0.329006
0.32452
0.319901
0.315245
0.310505
0.305563
0.301002
0.298866
0.365281
0.35886
0.36192
0.368031
0.372942
0.375596
0.37601
0.374547
0.371646
0.367694
0.363
0.357803
0.352287
0.346596
0.340852
0.335134
0.329396
0.32354
0.318109
0.314842
0.409165
0.401426
0.40259
0.406359
0.408801
0.409085
0.407312
0.403864
0.399165
0.393583
0.387407
0.380856
0.374095
0.367253
0.360436
0.353709
0.347027
0.340314
0.334057
0.329723
0.450297
0.441308
0.440653
0.442184
0.442282
0.440324
0.436488
0.431168
0.424776
0.417659
0.410086
0.402259
0.394326
0.386402
0.378577
0.370905
0.363345
0.355837
0.348806
0.343471
0.488338
0.478179
0.475807
0.475234
0.473141
0.469096
0.463342
0.456282
0.448318
0.439777
0.430909
0.421898
0.412879
0.403952
0.395195
0.386652
0.378286
0.370049
0.362302
0.356038
0.522973
0.511738
0.507775
0.505262
0.501157
0.495199
0.487692
0.479045
0.469645
0.459804
0.449754
0.439663
0.429654
0.419814
0.410209
0.400875
0.391781
0.382886
0.374485
0.367372
0.553919
0.541714
0.536309
0.532042
0.526127
0.518453
0.509374
0.499305
0.488621
0.477616
0.466508
0.455453
0.444558
0.433902
0.423541
0.413503
0.403762
0.394283
0.385297
0.37742
0.580923
0.567865
0.561188
0.555377
0.547872
0.538695
0.528242
0.516929
0.505123
0.493102
0.48107
0.469172
0.457505
0.446138
0.435118
0.424467
0.414164
0.404179
0.394679
0.386132
0.603768
0.589984
0.582218
0.575091
0.566236
0.555784
0.544166
0.531801
0.519043
0.506163
0.49335
0.480738
0.468419
0.45645
0.444873
0.433705
0.422929
0.412517
0.402581
0.393464
0.622267
0.607892
0.599238
0.59104
0.581087
0.5696
0.557038
0.54382
0.530292
0.516714
0.503269
0.49008
0.477232
0.464777
0.452749
0.441163
0.430005
0.419249
0.408958
0.399377
0.636272
0.621448
0.612118
0.603105
0.592319
0.580048
0.56677
0.552905
0.538794
0.524689
0.510764
0.497138
0.48389
0.471067
0.458698
0.446796
0.43535
0.424334
0.413774
0.403839
0.645671
0.630544
0.620759
0.611196
0.599851
0.587053
0.573294
0.558996
0.544493
0.530034
0.515787
0.501868
0.488351
0.475282
0.462685
0.450571
0.438931
0.42774
0.416999
0.406827
0.650387
0.635108
0.625094
0.615256
0.603628
0.590566
0.576567
0.56205
0.547351
0.532714
0.518306
0.50424
0.490588
0.477395
0.464683
0.452463
0.440727
0.429448
0.418615
0.408324
0.650383
0.635104
0.62509
0.615252
0.603625
0.590563
0.576564
0.562048
0.547349
0.532712
0.518304
0.504238
0.490587
0.477393
0.464682
0.452461
0.440725
0.429447
0.418614
0.408322
0.645659
0.630532
0.620748
0.611186
0.599841
0.587044
0.573286
0.558988
0.544486
0.530027
0.515781
0.501863
0.488346
0.475277
0.46268
0.450566
0.438927
0.427736
0.416995
0.406823
0.636252
0.621429
0.6121
0.603087
0.592303
0.580033
0.566757
0.552893
0.538783
0.524678
0.510754
0.497129
0.483881
0.471059
0.458691
0.446789
0.435343
0.424327
0.413767
0.403833
0.622239
0.607865
0.599213
0.591016
0.581065
0.56958
0.55702
0.543802
0.530276
0.516699
0.503255
0.490067
0.477219
0.464765
0.452738
0.441153
0.429995
0.41924
0.408949
0.399368
0.603732
0.589949
0.582185
0.57506
0.566208
0.555758
0.544142
0.531779
0.519023
0.506143
0.493332
0.480722
0.468403
0.456435
0.444859
0.433692
0.422916
0.412505
0.40257
0.393453
0.58088
0.567823
0.561148
0.55534
0.547838
0.538664
0.528213
0.516903
0.505098
0.493079
0.481049
0.469152
0.457486
0.44612
0.435101
0.424451
0.414149
0.404165
0.394665
0.386119
0.553868
0.541664
0.536263
0.531999
0.526087
0.518416
0.50934
0.499274
0.488592
0.477589
0.466483
0.455429
0.444536
0.433881
0.423521
0.413484
0.403744
0.394266
0.38528
0.377404
0.522915
0.511681
0.507722
0.505212
0.501112
0.495157
0.487653
0.479009
0.469612
0.459773
0.449725
0.439636
0.429628
0.419789
0.410186
0.400854
0.39176
0.382866
0.374467
0.367354
0.488273
0.478116
0.475747
0.475179
0.473091
0.469049
0.463299
0.456242
0.448281
0.439743
0.430877
0.421868
0.41285
0.403925
0.395169
0.386628
0.378263
0.370027
0.362281
0.356018
0.450227
0.441239
0.440588
0.442123
0.442226
0.440273
0.436441
0.431124
0.424735
0.417621
0.410051
0.402226
0.394295
0.386372
0.378549
0.370879
0.36332
0.355812
0.348783
0.343449
0.409088
0.401352
0.40252
0.406293
0.40874
0.409029
0.407261
0.403816
0.399121
0.393542
0.387368
0.380819
0.374061
0.367221
0.360406
0.35368
0.347
0.340288
0.334032
0.329699
0.365198
0.35878
0.361844
0.367961
0.372876
0.375536
0.375954
0.374496
0.371599
0.367649
0.362958
0.357764
0.35225
0.346562
0.34082
0.335103
0.329366
0.323512
0.318081
0.314816
0.318925
0.313879
0.318886
0.327418
0.334896
0.340028
0.342732
0.343353
0.342338
0.340094
0.336954
0.333178
0.328967
0.324483
0.319866
0.315211
0.310474
0.305532
0.300973
0.298838
0.270659
0.267022
0.273992
0.284977
0.295078
0.302755
0.307819
0.310588
0.311518
0.311036
0.309497
0.307182
0.304313
0.301069
0.297611
0.294054
0.290357
0.286373
0.282724
0.281781
0.220812
0.218607
0.22753
0.240969
0.25372
0.263983
0.271453
0.276415
0.27933
0.280643
0.280733
0.279901
0.278391
0.276401
0.274113
0.271666
0.269029
0.266028
0.263313
0.263623
0.169814
0.169049
0.179884
0.195742
0.211133
0.223991
0.233884
0.241058
0.245974
0.249094
0.250817
0.251467
0.251305
0.250552
0.24941
0.248046
0.246444
0.244409
0.242623
0.244259
0.118109
0.118779
0.131455
0.14966
0.167645
0.183074
0.195379
0.204758
0.211666
0.216581
0.219918
0.222021
0.22317
0.223604
0.223551
0.223207
0.222567
0.221411
0.22048
0.2235
0.0661514
0.0682362
0.082656
0.103099
0.123595
0.141539
0.156217
0.167769
0.176641
0.183316
0.188228
0.191734
0.194128
0.195661
0.19658
0.197105
0.19722
0.196634
0.196246
0.200748
0.014404
0.0178708
0.0339086
0.0564458
0.079334
0.099706
0.116691
0.130362
0.141146
0.14953
0.155956
0.160792
0.164336
0.166841
0.168565
0.169771
0.170445
0.170122
0.169687
0.175289
-0.0366705
-0.0318671
-0.0143616
0.0100923
0.035222
0.0579051
0.0771073
0.0928255
0.105459
0.115494
0.123377
0.129481
0.134107
0.137495
0.139888
0.141559
0.142482
0.141688
0.138914
0.142374
-0.0866125
-0.0805294
-0.0617285
-0.0355661
-0.00837834
0.0164715
0.0377799
0.0554573
0.0698689
0.0814904
0.0907665
0.0980677
0.103679
0.107803
0.110599
0.112213
0.112549
0.110765
0.106168
0.101527
-0.134981
-0.127683
-0.107776
-0.0801394
-0.051106
-0.0242593
-0.000974883
0.0185626
0.0346765
0.0478295
0.058465
0.0669549
0.073587
0.0785652
0.0820356
0.0841279
0.0848681
0.0839043
0.0807801
0.0765046
-0.181346
-0.172907
-0.152098
-0.123247
-0.0926078
-0.0639583
-0.0388463
-0.0175583
0.00018163
0.0148223
0.0268106
0.0365313
0.0442946
0.0503385
0.0548459
0.0579778
0.0598737
0.0605737
0.0599756
0.0578107
-0.225306
-0.215806
-0.19431
-0.164524
-0.132545
-0.102312
-0.0755406
-0.0526266
-0.0333474
-0.0172716
-0.00394853
0.00702147
0.0159718
0.0231727
0.0288409
0.033159
0.0363063
0.0384963
0.0398539
0.0397375
-0.26649
-0.256017
-0.234056
-0.203632
-0.170602
-0.139028
-0.110789
-0.0863943
-0.0656831
-0.048248
-0.0336397
-0.0214484
-0.0113239
-0.00297481
0.00383855
0.00931433
0.0136485
0.0171092
0.0198848
0.0212518
-0.304572
-0.293217
-0.271014
-0.240257
-0.206488
-0.173842
-0.144351
-0.118644
-0.0966312
-0.0779377
-0.0621225
-0.0487712
-0.0375233
-0.0280737
-0.0201683
-0.0135964
-0.00815005
-0.00354444
0.000386586
0.002796
-0.339273
-0.327129
-0.304902
-0.274126
-0.239943
-0.206517
-0.176015
-0.149186
-0.126025
-0.106196
-0.0892754
-0.07485
-0.0625545
-0.0520761
-0.0431528
-0.0355676
-0.0291062
-0.0234739
-0.0185257
-0.0152402
-0.370366
-0.357528
-0.335485
-0.305
-0.270742
-0.236847
-0.205594
-0.177859
-0.153722
-0.132902
-0.114998
-0.0996059
-0.0863606
-0.0749471
-0.0650999
-0.0566006
-0.0492339
-0.042699
-0.0368479
-0.0327319
-0.397683
-0.384247
-0.362581
-0.332686
-0.298697
-0.264658
-0.232936
-0.204526
-0.179607
-0.157958
-0.13921
-0.122976
-0.108896
-0.0966565
-0.0859925
-0.0766856
-0.0685238
-0.0612063
-0.0545707
-0.0496794
-0.42112
-0.40718
-0.386062
-0.357041
-0.323658
-0.289808
-0.257912
-0.229078
-0.203586
-0.181285
-0.161848
-0.144909
-0.130121
-0.117175
-0.105808
-0.0958043
-0.0869569
-0.0789716
-0.0716703
-0.0660908
-0.440637
-0.426284
-0.405862
-0.377969
-0.345518
-0.312192
-0.280427
-0.251431
-0.225588
-0.202824
-0.182862
-0.165366
-0.150003
-0.136475
-0.124524
-0.113936
-0.104513
-0.0959699
-0.088115
-0.0819427
-0.456256
-0.441584
-0.421974
-0.395429
-0.364214
-0.331738
-0.300412
-0.271525
-0.245561
-0.222532
-0.202218
-0.184316
-0.168517
-0.154535
-0.14212
-0.131062
-0.121171
-0.112175
-0.103869
-0.0971922
-0.468068
-0.453168
-0.434457
-0.409437
-0.379727
-0.348412
-0.31783
-0.289324
-0.263477
-0.240386
-0.219895
-0.201745
-0.18565
-0.171343
-0.158582
-0.147166
-0.136911
-0.127562
-0.118902
-0.1118
-0.476223
-0.461185
-0.443428
-0.420063
-0.392087
-0.362217
-0.33267
-0.304817
-0.279324
-0.256377
-0.235889
-0.217646
-0.201398
-0.186893
-0.173904
-0.162238
-0.151721
-0.142114
-0.13319
-0.125743
-0.480928
-0.465845
-0.449066
-0.427435
-0.401372
-0.373195
-0.344955
-0.318016
-0.293113
-0.270515
-0.250207
-0.232029
-0.215765
-0.201189
-0.188088
-0.176279
-0.165598
-0.155823
-0.146724
-0.139011
-0.48244
-0.467406
-0.451604
-0.431734
-0.407705
-0.381425
-0.354736
-0.328957
-0.30487
-0.282823
-0.262872
-0.244913
-0.22877
-0.214245
-0.201145
-0.189296
-0.178546
-0.168692
-0.159503
-0.151601
-0.48106
-0.466171
-0.451324
-0.433191
-0.411259
-0.387027
-0.362094
-0.337698
-0.314643
-0.293341
-0.273917
-0.256328
-0.24044
-0.226086
-0.213095
-0.201306
-0.19058
-0.180732
-0.171533
-0.163522
-0.477124
-0.462477
-0.448545
-0.432083
-0.41225
-0.390158
-0.367141
-0.344321
-0.322495
-0.302121
-0.28339
-0.266316
-0.250812
-0.236745
-0.223967
-0.212334
-0.20172
-0.191959
-0.18283
-0.174787
-0.470987
-0.456683
-0.443617
-0.428722
-0.410932
-0.391012
-0.370019
-0.34893
-0.328505
-0.309228
-0.291346
-0.274926
-0.25993
-0.24626
-0.233796
-0.222412
-0.211995
-0.202399
-0.193415
-0.185416
-0.463021
-0.449157
-0.436906
-0.42345
-0.407596
-0.389816
-0.370899
-0.351652
-0.332769
-0.314741
-0.29785
-0.282216
-0.267845
-0.254679
-0.242625
-0.231578
-0.221438
-0.212083
-0.203316
-0.195435
-0.453594
-0.440268
-0.428782
-0.416621
-0.402557
-0.386828
-0.369978
-0.352636
-0.335401
-0.318746
-0.302975
-0.288247
-0.274613
-0.26205
-0.250497
-0.239871
-0.230088
-0.221045
-0.212564
-0.204874
-0.44307
-0.430372
-0.419611
-0.408597
-0.396145
-0.382329
-0.367481
-0.35205
-0.336528
-0.321341
-0.306798
-0.293085
-0.28029
-0.268426
-0.25746
-0.247335
-0.237984
-0.229322
-0.221192
-0.213765
-0.431791
-0.419803
-0.409733
-0.399725
-0.388696
-0.376617
-0.363652
-0.350087
-0.336294
-0.322636
-0.309405
-0.2968
-0.284936
-0.273858
-0.263561
-0.254013
-0.245164
-0.23695
-0.229235
-0.222139
-0.42007
-0.408864
-0.399461
-0.390334
-0.380536
-0.369994
-0.358751
-0.346955
-0.33486
-0.322752
-0.310887
-0.299463
-0.288609
-0.278395
-0.268844
-0.259944
-0.251665
-0.243962
-0.236722
-0.230023
-0.408188
-0.397821
-0.389072
-0.380718
-0.371972
-0.362758
-0.353046
-0.342878
-0.332402
-0.321821
-0.311343
-0.301147
-0.291366
-0.282085
-0.273348
-0.265162
-0.257518
-0.250387
-0.243678
-0.237439
-0.396389
-0.3869
-0.378799
-0.371132
-0.363279
-0.35519
-0.346802
-0.338088
-0.329109
-0.319989
-0.31088
-0.301931
-0.293265
-0.284972
-0.277107
-0.269697
-0.262747
-0.256245
-0.250122
-0.2444
-0.384873
-0.376286
-0.368829
-0.361785
-0.354693
-0.347542
-0.340272
-0.332818
-0.32518
-0.317415
-0.30962
-0.301902
-0.294366
-0.287095
-0.280152
-0.273571
-0.26737
-0.261551
-0.256063
-0.250909
-0.373803
-0.366123
-0.359308
-0.35284
-0.346402
-0.340031
-0.333685
-0.327294
-0.320819
-0.31427
-0.307692
-0.301155
-0.294734
-0.288499
-0.282508
-0.276799
-0.271396
-0.266309
-0.261506
-0.256961
-0.363301
-0.356514
-0.350336
-0.344414
-0.338551
-0.332829
-0.32724
-0.321721
-0.316224
-0.310728
-0.305242
-0.299798
-0.294444
-0.28923
-0.284202
-0.279394
-0.274829
-0.270521
-0.266448
-0.262551
-0.353454
-0.347531
-0.34198
-0.336581
-0.331236
-0.326066
-0.321093
-0.316279
-0.311581
-0.306966
-0.30242
-0.297952
-0.293584
-0.289345
-0.285265
-0.281369
-0.277673
-0.274185
-0.270891
-0.267676
-0.344315
-0.339214
-0.334273
-0.32938
-0.324516
-0.319825
-0.315361
-0.311113
-0.307052
-0.303148
-0.299383
-0.29575
-0.292254
-0.288912
-0.285737
-0.282743
-0.279932
-0.277304
-0.274845
-0.272358
-0.335912
-0.331578
-0.327225
-0.322823
-0.318411
-0.314151
-0.310118
-0.306327
-0.302768
-0.299423
-0.296279
-0.293327
-0.290569
-0.288015
-0.28567
-0.28354
-0.281618
-0.279884
-0.278327
-0.276647
-0.328247
-0.324616
-0.320822
-0.316895
-0.312916
-0.309055
-0.305401
-0.301988
-0.298825
-0.29591
-0.293241
-0.290817
-0.288648
-0.286748
-0.285128
-0.283795
-0.28274
-0.281932
-0.28136
-0.280629
-0.321303
-0.318309
-0.315039
-0.311567
-0.308007
-0.304523
-0.301214
-0.298127
-0.295284
-0.292698
-0.290379
-0.288342
-0.28661
-0.285213
-0.284182
-0.283543
-0.283303
-0.283437
-0.283941
-0.284395
-0.315047
-0.312621
-0.309836
-0.306799
-0.303641
-0.300521
-0.297537
-0.294742
-0.29217
-0.28984
-0.287775
-0.286002
-0.284562
-0.283508
-0.282904
-0.282815
-0.28329
-0.284347
-0.286004
-0.288001
-0.309436
-0.307508
-0.305168
-0.302542
-0.29977
-0.297001
-0.294329
-0.29181
-0.289478
-0.287358
-0.285477
-0.283871
-0.282594
-0.281725
-0.281364
-0.281632
-0.282654
-0.284536
-0.287364
-0.291339
-0.304416
-0.302921
-0.300984
-0.298742
-0.296338
-0.293907
-0.291538
-0.289284
-0.287177
-0.285241
-0.2835
-0.281992
-0.280777
-0.279945
-0.279629
-0.280012
-0.281318
-0.283796
-0.287697
-0.294132
-0.299927
-0.298806
-0.297232
-0.295344
-0.293285
-0.291178
-0.289103
-0.287106
-0.285217
-0.283453
-0.281832
-0.280381
-0.279153
-0.278235
-0.277771
-0.277984
-0.279197
-0.281824
-0.28645
-0.295601
-0.29591
-0.295111
-0.293858
-0.292293
-0.290555
-0.288753
-0.286957
-0.28521
-0.283534
-0.281938
-0.280429
-0.27902
-0.277741
-0.276654
-0.27588
-0.275637
-0.276286
-0.278367
-0.283045
-0.294949
-0.292305
-0.291782
-0.290812
-0.289538
-0.288093
-0.286572
-0.285038
-0.283527
-0.282055
-0.280625
-0.27923
-0.277862
-0.276522
-0.275227
-0.274033
-0.273072
-0.272601
-0.273037
-0.275908
-0.288142
-0.289058
-0.288772
-0.288051
-0.287035
-0.285851
-0.284584
-0.283289
-0.281995
-0.280715
-0.279443
-0.278161
-0.276844
-0.275456
-0.273953
-0.272278
-0.270353
-0.268051
-0.264903
-0.259676
-0.25345
-0.286123
-0.286041
-0.285535
-0.284744
-0.283791
-0.282749
-0.281666
-0.280567
-0.279461
-0.278337
-0.277174
-0.275935
-0.274572
-0.273019
-0.271186
-0.268961
-0.266207
-0.262563
-0.257173
-0.251577
-0.283459
-0.283553
-0.283232
-0.282637
-0.281884
-0.281037
-0.280139
-0.27921
-0.278258
-0.277271
-0.276226
-0.275088
-0.273813
-0.27234
-0.270597
-0.268513
-0.266019
-0.262904
-0.258727
-0.255181
-0.281035
-0.28128
-0.281118
-0.28069
-0.28011
-0.279431
-0.278692
-0.27791
-0.277092
-0.276226
-0.275293
-0.274261
-0.273094
-0.271743
-0.27016
-0.268301
-0.266137
-0.26352
-0.260228
-0.257947
-0.278826
-0.2792
-0.279174
-0.278889
-0.278456
-0.277922
-0.277319
-0.276666
-0.275964
-0.275208
-0.274379
-0.273453
-0.272402
-0.271192
-0.269791
-0.268185
-0.26637
-0.264249
-0.261727
-0.260308
-0.276812
-0.277296
-0.277385
-0.277223
-0.276916
-0.276508
-0.276024
-0.275483
-0.274888
-0.274233
-0.273506
-0.272688
-0.271761
-0.270703
-0.269501
-0.268158
-0.26669
-0.265039
-0.263173
-0.26236
-0.274978
-0.275554
-0.275742
-0.275684
-0.275488
-0.275188
-0.274811
-0.274372
-0.273876
-0.27332
-0.272695
-0.27199
-0.271194
-0.270296
-0.269295
-0.268207
-0.267058
-0.265812
-0.264458
-0.264055
-0.273311
-0.273965
-0.274235
-0.274268
-0.274168
-0.273966
-0.273685
-0.273342
-0.272941
-0.272482
-0.271961
-0.271372
-0.27071
-0.269973
-0.269167
-0.268315
-0.267446
-0.266531
-0.265563
-0.26543
-0.2718
-0.272519
-0.27286
-0.272971
-0.272955
-0.27284
-0.272649
-0.272395
-0.272086
-0.271724
-0.271308
-0.270835
-0.270307
-0.269725
-0.269101
-0.268458
-0.267825
-0.267174
-0.266492
-0.266537
-0.270435
-0.271208
-0.27161
-0.271789
-0.271848
-0.271812
-0.271702
-0.271533
-0.271312
-0.271044
-0.27073
-0.27037
-0.269969
-0.269532
-0.269071
-0.268609
-0.26817
-0.267725
-0.267254
-0.267419
-0.269209
-0.270028
-0.270481
-0.270719
-0.270844
-0.270879
-0.270844
-0.270753
-0.270615
-0.270436
-0.270218
-0.269964
-0.26968
-0.269373
-0.269053
-0.268742
-0.26846
-0.268176
-0.267861
-0.268111
-0.268113
-0.268971
-0.269469
-0.269758
-0.269941