/*--------------------------------*- C++ -*----------------------------------*\
  =========                 |
  \\      /  F ield         | OpenFOAM: The Open Source CFD Toolbox
   \\    /   O peration     | Website:  https://openfoam.org
    \\  /    A nd           | Version:  6.0
     \\/     M anipulation  |
\*---------------------------------------------------------------------------*/
FoamFile
{
    version     2.0;
    format      ascii;
    class       volVectorField;
    location    "23.2";
    object      U;
}
// * * * * * * * * * * * * * * * * * * * * * * * * * * * * * * * * * * * * * //

dimensions      [0 1 -1 0 0 0 0];

internalField   nonuniform List<vector> 
8000
(
(-0.000485238 0.000487982 -3.48132e-21)
(-0.00265279 0.00120651 1.86085e-20)
(-0.00665633 0.00170146 -2.26329e-20)
(-0.011569 0.00202509 1.72346e-20)
(-0.0169083 0.0022171 8.3927e-21)
(-0.0224019 0.00230957 -2.52026e-20)
(-0.0278555 0.00232965 -2.22761e-21)
(-0.0331432 0.00230006 -7.90592e-22)
(-0.0381953 0.00223977 -1.30823e-20)
(-0.0429827 0.00216458 -7.08766e-21)
(-0.047506 0.00208763 5.28567e-21)
(-0.0517872 0.00201974 2.0095e-20)
(-0.0558629 0.00196964 -1.50486e-21)
(-0.0597788 0.00194417 2.15296e-21)
(-0.0635866 0.00194836 -2.02403e-20)
(-0.0673449 0.00198544 1.24712e-20)
(-0.071113 0.00205698 -1.78683e-20)
(-0.0748935 0.00216404 2.70394e-20)
(-0.0786191 0.00230789 -3.02731e-23)
(-0.0826911 0.00248054 5.83918e-21)
(-0.000569139 0.00159769 1.15609e-20)
(-0.00285769 0.0039656 -5.90807e-20)
(-0.0069389 0.00562031 -4.08063e-20)
(-0.0118944 0.00672605 -2.7712e-20)
(-0.0172477 0.00740843 -3.56501e-20)
(-0.0227307 0.0077694 7.84552e-21)
(-0.0281526 0.00789546 -4.11539e-20)
(-0.0333903 0.00785922 -9.24351e-21)
(-0.0383758 0.00772126 2.92077e-21)
(-0.0430816 0.0075321 3.07594e-20)
(-0.0475094 0.00733367 -3.35536e-20)
(-0.0516822 0.00716048 4.66739e-20)
(-0.0556373 0.00704035 -3.49517e-20)
(-0.0594218 0.00699503 -4.14477e-20)
(-0.0630884 0.00704049 -5.71171e-20)
(-0.0666974 0.00718702 3.64775e-20)
(-0.0703097 0.00743957 -1.17969e-20)
(-0.0739295 0.00780129 -4.29546e-20)
(-0.0774893 0.00827583 4.06148e-20)
(-0.0813929 0.00883844 -3.01693e-20)
(-0.000738421 0.00269354 1.13011e-19)
(-0.00327033 0.00668938 5.85262e-20)
(-0.00750643 0.0094867 6.58195e-20)
(-0.0125463 0.0113601 5.47679e-21)
(-0.0179256 0.0125198 3.63787e-20)
(-0.0233853 0.013137 4.54048e-20)
(-0.0287418 0.0133565 -8.25113e-20)
(-0.0338774 0.0133003 -4.3695e-20)
(-0.0387284 0.0130699 -5.69062e-20)
(-0.04327 0.0127504 6.0748e-20)
(-0.0475061 0.0124124 -4.63987e-20)
(-0.0514615 0.0121144 -5.96967e-20)
(-0.0551755 0.0119038 -2.17366e-20)
(-0.058697 0.011818 2.065e-20)
(-0.0620814 0.0118848 -5.74033e-21)
(-0.0653917 0.0121226 8.27909e-21)
(-0.0686928 0.0125406 9.58116e-20)
(-0.0719921 0.0131447 -1.34583e-20)
(-0.0752213 0.0139421 -9.73952e-20)
(-0.0787901 0.0148909 1.28382e-19)
(-0.000991581 0.0037662 3.93176e-20)
(-0.00388728 0.00935383 -5.55412e-20)
(-0.00835453 0.013265 -1.39325e-20)
(-0.0135198 0.0158819 2.6046e-20)
(-0.0189371 0.0174979 7.39597e-20)
(-0.0243614 0.0183513 1.6193e-19)
(-0.0296201 0.0186443 1.58228e-19)
(-0.0346039 0.0185467 1.31448e-20)
(-0.0392549 0.0182004 9.70291e-20)
(-0.0435528 0.017724 1.48515e-19)
(-0.0475048 0.0172171 -1.18671e-19)
(-0.051138 0.0167621 1.75627e-19)
(-0.0544945 0.0164271 -3.9766e-20)
(-0.057626 0.0162662 1.00327e-20)
(-0.0605913 0.0163207 4.15288e-20)
(-0.0634581 0.0166187 5.51853e-20)
(-0.0662968 0.0171753 -8.68496e-20)
(-0.0691202 0.0180011 -7.2481e-20)
(-0.0718596 0.019108 -1.28264e-19)
(-0.0749345 0.0204371 1.86703e-19)
(-0.00132642 0.00480731 -2.05421e-20)
(-0.00470327 0.0119368 -2.10277e-19)
(-0.00947608 0.0169221 -6.21977e-20)
(-0.0148066 0.0202495 -1.51569e-19)
(-0.0202736 0.022293 5.7292e-20)
(-0.0256509 0.0233561 -9.03598e-20)
(-0.0307806 0.0236962 3.10741e-20)
(-0.0355648 0.0235292 -1.91381e-19)
(-0.0399537 0.0230357 1.00963e-19)
(-0.0439328 0.0223673 -1.20402e-19)
(-0.0475132 0.0216516 -1.07075e-19)
(-0.0507252 0.0209957 -1.1989e-19)
(-0.0536138 0.020489 1.08825e-19)
(-0.0562343 0.0202042 -9.7707e-20)
(-0.0586498 0.0201982 1.36054e-19)
(-0.0609339 0.0205114 3.93192e-20)
(-0.063165 0.0211676 9.7324e-20)
(-0.0653632 0.0221844 4.27052e-20)
(-0.0674609 0.0235816 -1.6911e-19)
(-0.0698922 0.0252831 2.75279e-19)
(-0.00174017 0.00580959 9.05505e-20)
(-0.00571108 0.0144183 6.96763e-21)
(-0.0108607 0.0204277 3.73037e-20)
(-0.0163939 0.0244243 1.30167e-19)
(-0.0219206 0.0268601 -1.99285e-20)
(-0.0272384 0.0281012 2.11379e-19)
(-0.0322085 0.0284574 9.38185e-20)
(-0.0367472 0.0281883 7.88707e-21)
(-0.040815 0.0275111 2.41246e-19)
(-0.0444044 0.0266087 7.90477e-20)
(-0.0475311 0.0256359 3.74993e-20)
(-0.0502291 0.0247246 1.19014e-19)
(-0.0525465 0.0239863 1.09089e-19)
(-0.0545421 0.0235144 1.9915e-19)
(-0.0562842 0.0233845 -1.78003e-19)
(-0.0578536 0.0236526 2.51607e-19)
(-0.0593384 0.0243552 3.29401e-21)
(-0.0607691 0.0255211 -3.21567e-19)
(-0.0620814 0.0271822 4.16844e-19)
(-0.0637306 0.0292461 1.72781e-19)
(-0.00222949 0.00676683 -5.33629e-20)
(-0.00690146 0.0167805 -9.68648e-20)
(-0.0124939 0.0237541 -2.0158e-19)
(-0.0182628 0.0283716 -5.97532e-21)
(-0.0238555 0.0311595 3.43975e-20)
(-0.0290987 0.0325434 -2.5741e-19)
(-0.033877 0.0328824 -1.9097e-19)
(-0.0381242 0.0324765 -2.73181e-20)
(-0.0418134 0.0315767 -2.4156e-19)
(-0.0449453 0.0303946 -1.67249e-19)
(-0.0475411 0.0291111 -4.87424e-20)
(-0.0496383 0.0278819 -1.56948e-19)
(-0.0512878 0.0268415 -2.55899e-21)
(-0.0525521 0.0261059 -2.08425e-19)
(-0.0535045 0.0257727 8.76708e-20)
(-0.0542339 0.0259187 -1.00025e-19)
(-0.0548403 0.0265982 7.66175e-20)
(-0.0553674 0.0278573 -9.75183e-20)
(-0.0557581 0.0297469 -2.78616e-19)
(-0.056498 0.0321603 -8.46723e-20)
(-0.00279055 0.00767356 -1.96389e-20)
(-0.00826267 0.0190069 -2.13287e-20)
(-0.0143564 0.0268764 1.69009e-19)
(-0.0203866 0.0320603 -2.7503e-19)
(-0.0260447 0.0351565 4.03477e-20)
(-0.0311922 0.0366469 -1.58874e-19)
(-0.0357416 0.0369359 7.50789e-20)
(-0.039648 0.0363601 3.37461e-19)
(-0.0428992 0.0352004 -2.16475e-20)
(-0.045506 0.0336941 -2.51751e-19)
(-0.0474955 0.0320453 4.57415e-20)
(-0.0489087 0.0304321 8.86994e-21)
(-0.0497989 0.0290119 -5.16898e-20)
(-0.0502312 0.0279249 5.22785e-21)
(-0.0502836 0.0272944 4.54101e-19)
(-0.0500533 0.0272233 -6.46572e-20)
(-0.0496541 0.0277913 -1.26132e-19)
(-0.049146 0.0290706 -2.26279e-19)
(-0.0484842 0.0311412 2.3083e-19)
(-0.0481973 0.0338868 9.95688e-20)
(-0.00341883 0.00852468 9.91693e-20)
(-0.00978003 0.021082 -1.29746e-19)
(-0.0164226 0.029771 1.83438e-19)
(-0.0227285 0.0354616 1.84667e-19)
(-0.0284405 0.0388207 1.70234e-19)
(-0.0334608 0.0403824 3.45207e-19)
(-0.0377346 0.0405924 2.23235e-19)
(-0.041242 0.0398193 -4.79704e-19)
(-0.0439887 0.0383695 2.45334e-19)
(-0.0459971 0.0365017 1.92518e-19)
(-0.0473015 0.034439 -2.73604e-21)
(-0.0479461 0.032379 2.15512e-19)
(-0.0479858 0.0305006 1.68019e-19)
(-0.0474874 0.0289686 -9.13935e-20)
(-0.0465321 0.0279352 3.08834e-19)
(-0.045225 0.0275353 -3.82834e-19)
(-0.0436947 0.0278831 1.53235e-19)
(-0.0420205 0.029089 1.97044e-19)
(-0.0401761 0.0312768 -4.5906e-20)
(-0.0387512 0.0343298 3.95989e-19)
(-0.0041089 0.00931489 1.99274e-19)
(-0.0114352 0.02299 1.03361e-20)
(-0.0186595 0.0324143 -7.15256e-20)
(-0.0252401 0.038548 -7.55544e-20)
(-0.0309783 0.042124 -3.49896e-19)
(-0.0358231 0.0437253 4.95478e-20)
(-0.0397579 0.0438345 1.40387e-19)
(-0.0427918 0.0428474 -6.75266e-20)
(-0.0449518 0.0410906 5.57033e-20)
(-0.0462745 0.0388386 -1.47668e-20)
(-0.0468024 0.0363286 -7.27616e-20)
(-0.0465836 0.0337726 6.90886e-20)
(-0.045674 0.0313675 -3.00361e-19)
(-0.0441404 0.029301 2.87951e-19)
(-0.0420657 0.0277552 -2.49417e-19)
(-0.0395612 0.026903 7.7041e-20)
(-0.0367701 0.0269024 1.75319e-19)
(-0.0337938 0.0279181 -3.6468e-20)
(-0.0306312 0.0301389 -1.21285e-19)
(-0.027957 0.0334627 -8.25055e-20)
(-0.00485417 0.0100383 -2.4823e-19)
(-0.0132055 0.024714 -1.63397e-20)
(-0.0210255 0.0347818 5.22787e-20)
(-0.027859 0.0412911 1.34423e-19)
(-0.0335733 0.0450386 -1.89774e-19)
(-0.0381706 0.0466533 -1.65608e-19)
(-0.0416775 0.0466502 3.86554e-19)
(-0.0441371 0.0454476 -2.13599e-19)
(-0.0456014 0.0433868 -1.37791e-19)
(-0.046124 0.040752 -1.97719e-19)
(-0.0457581 0.0377877 1.30892e-19)
(-0.0445572 0.034714 -3.53119e-21)
(-0.0425781 0.0317389 -2.44442e-19)
(-0.0398866 0.0290684 -3.99892e-19)
(-0.0365651 0.0269125 3.04662e-19)
(-0.032729 0.0254842 -2.46863e-19)
(-0.0285349 0.0249951 3.49992e-19)
(-0.0241065 0.0256818 -9.80522e-20)
(-0.0194746 0.0278268 2.06057e-19)
(-0.0154309 0.031368 -6.99909e-19)
(-0.00564648 0.0106878 -5.02737e-19)
(-0.0150631 0.0262347 3.29658e-19)
(-0.0234695 0.0368461 4.48336e-20)
(-0.0305075 0.0436597 8.67312e-21)
(-0.0361186 0.0475344 -2.03287e-19)
(-0.0403638 0.0491424 2.98945e-19)
(-0.0433185 0.0490279 3.26313e-20)
(-0.0450643 0.0476273 -6.13021e-20)
(-0.0456822 0.0452915 -1.96781e-19)
(-0.045247 0.0423082 2.1271e-19)
(-0.043826 0.0389221 5.39318e-19)
(-0.0414803 0.035353 -1.19141e-19)
(-0.03827 0.031811 2.69255e-19)
(-0.03426 0.028511 -3.18067e-19)
(-0.029531 0.025684 -3.05006e-19)
(-0.0241999 0.0235795 1.83374e-19)
(-0.0184341 0.0224676 3.02982e-19)
(-0.0123785 0.0226741 -9.81797e-19)
(-0.00609847 0.0246119 1.15281e-19)
(-0.000542902 0.0282952 1.56817e-19)
(-0.00647593 0.0112556 3.72277e-19)
(-0.0169744 0.0275308 1.22473e-19)
(-0.0259296 0.0385766 6.38003e-19)
(-0.0330918 0.0456184 3.28361e-20)
(-0.0384835 0.049576 -7.09591e-20)
(-0.0422304 0.0511632 -3.37917e-19)
(-0.0444616 0.050951 2.87364e-19)
(-0.0453012 0.0493907 5.15593e-19)
(-0.0448638 0.0468389 3.4352e-19)
(-0.0432496 0.0435819 2.48025e-19)
(-0.0405444 0.0398581 2.13835e-19)
(-0.0368221 0.035878 -3.83972e-19)
(-0.03215 0.0318429 -1.2028e-19)
(-0.0265953 0.0279637 -8.8606e-20)
(-0.0202382 0.0244777 9.49445e-19)
(-0.0131962 0.0216597 -3.22776e-21)
(-0.00564533 0.0198322 -2.3665e-19)
(0.00225314 0.0194213 -7.45981e-20)
(0.0104032 0.0210097 6.79076e-19)
(0.0176521 0.024738 8.89964e-20)
(-0.0073307 0.0117326 -1.83501e-20)
(-0.0189001 0.0285786 -3.52202e-19)
(-0.0283337 0.0399393 -5.23996e-19)
(-0.0355012 0.0471266 -1.45817e-19)
(-0.0405132 0.0511212 8.05193e-20)
(-0.0435646 0.0526776 1.73362e-20)
(-0.0448419 0.0523923 4.59838e-19)
(-0.0445156 0.0507304 -5.70306e-19)
(-0.0427373 0.0480521 -2.16936e-19)
(-0.0396372 0.0446401 -4.37212e-19)
(-0.0353252 0.0407219 -3.72404e-19)
(-0.0298945 0.0364922 -3.29779e-19)
(-0.0234268 0.0321327 8.24573e-20)
(-0.0159997 0.027835 -1.07081e-19)
(-0.00769886 0.023823 4.58848e-19)
(0.00135428 0.0203732 -2.51459e-19)
(0.0109747 0.0178388 -7.88473e-19)
(0.0209902 0.0167395 -1.59082e-19)
(0.0312907 0.0178609 3.89185e-19)
(0.0404753 0.0215283 -3.39287e-19)
(-0.00819717 0.0121098 -5.93977e-20)
(-0.0207946 0.0293532 4.30794e-19)
(-0.0305984 0.0408974 -5.49439e-19)
(-0.0376082 0.0481394 1.26993e-19)
(-0.0420285 0.0521207 -2.61609e-19)
(-0.0441271 0.053637 5.8274e-19)
(-0.0441502 0.0533106 -4.16498e-19)
(-0.0423169 0.0516204 4.7652e-19)
(-0.0388183 0.0489318 -4.51827e-19)
(-0.0338182 0.045524 1.92794e-19)
(-0.0274564 0.0416142 -9.35594e-20)
(-0.0198533 0.0373789 -2.34939e-19)
(-0.0111163 0.0329744 -2.90323e-19)
(-0.00134585 0.0285599 2.89303e-19)
(0.00935312 0.0243242 -2.42313e-19)
(0.020843 0.020513 -5.29923e-19)
(0.0329213 0.0174693 5.51715e-19)
(0.0454068 0.015768 -7.03957e-19)
(0.0582086 0.016405 3.16624e-19)
(0.0696557 0.0199393 8.26759e-21)
(-0.00906013 0.0123782 -5.38608e-19)
(-0.0226067 0.0298299 -5.81588e-19)
(-0.0326296 0.0414135 6.70175e-20)
(-0.0392682 0.0486096 -5.6091e-19)
(-0.042826 0.0525208 -4.99362e-20)
(-0.0436459 0.0539851 -4.12613e-19)
(-0.0420346 0.0536514 -9.4662e-20)
(-0.0382599 0.052015 -2.76665e-19)
(-0.0325533 0.0494493 2.45079e-21)
(-0.0251143 0.0462354 -1.21061e-19)
(-0.0161172 0.0425852 8.60047e-21)
(-0.00571814 0.0386622 -3.4888e-19)
(0.00593716 0.0345996 3.84571e-19)
(0.018707 0.0305212 -5.4568e-19)
(0.0324447 0.0265663 1.93381e-19)
(0.0469719 0.0229187 7.37706e-21)
(0.0620439 0.0198544 -3.08116e-19)
(0.0774566 0.0179267 7.64119e-19)
(0.0931858 0.0182922 -1.82587e-19)
(0.107328 0.0217452 -1.18579e-19)
(-0.00990308 0.0125305 6.0464e-19)
(-0.024279 0.0299861 3.26496e-19)
(-0.0343211 0.0414524 3.03718e-19)
(-0.0403181 0.0484922 4.53426e-20)
(-0.0426767 0.0522693 4.10712e-19)
(-0.0418157 0.0536645 5.92007e-19)
(-0.0381017 0.0533552 4.84736e-19)
(-0.0318495 0.0518556 4.33786e-20)
(-0.0233296 0.0495526 3.55002e-19)
(-0.0127775 0.0467361 5.48551e-19)
(-0.000404487 0.0436235 -1.42306e-19)
(0.0135907 0.0403776 2.38832e-19)
(0.0290112 0.0371224 1.92845e-19)
(0.0456538 0.0339585 1.96201e-19)
(0.0633008 0.030981 1.16122e-18)
(0.0816957 0.0282989 -4.35272e-19)
(0.100505 0.0260712 -2.66268e-20)
(0.119452 0.0247181 5.0551e-19)
(0.138615 0.025426 -2.86766e-19)
(0.156015 0.0291397 1.41921e-19)
(-0.0107083 0.0125609 -4.88994e-19)
(-0.0257474 0.0298031 3.13465e-20)
(-0.0355534 0.0409853 -3.91492e-19)
(-0.040574 0.0477507 -5.09622e-20)
(-0.041323 0.0513239 2.86593e-19)
(-0.0382954 0.052629 -8.53164e-19)
(-0.0319156 0.0523724 -6.21357e-22)
(-0.0225428 0.0510897 3.97051e-19)
(-0.0104835 0.049186 3.73063e-19)
(0.00399238 0.0469684 -1.64249e-19)
(0.0206358 0.0446716 5.4165e-20)
(0.0392012 0.0424756 1.25631e-19)
(0.0594307 0.0405192 -5.94745e-20)
(0.0810404 0.0389099 -6.67489e-19)
(0.103709 0.0377335 1.68984e-19)
(0.127053 0.0370549 4.65547e-19)
(0.150577 0.0369153 -6.6357e-19)
(0.173826 0.0375134 3.23746e-19)
(0.196959 0.0399017 8.70563e-20)
(0.218266 0.0449928 4.41657e-19)
(-0.0114565 0.0124657 -7.22235e-20)
(-0.0269396 0.0292677 -3.42672e-19)
(-0.0361901 0.0399933 1.57678e-19)
(-0.0398263 0.0463638 7.17576e-22)
(-0.0384732 0.0496638 -6.87274e-19)
(-0.0327022 0.0508593 1.07248e-19)
(-0.0229936 0.0506851 -2.03663e-20)
(-0.00974799 0.0496986 1.38747e-19)
(0.00669425 0.0483254 -6.35105e-19)
(0.0260311 0.0468954 -4.4526e-20)
(0.0479765 0.0456699 -1.49226e-19)
(0.0722379 0.0448624 1.32737e-19)
(0.0984935 0.0446536 4.48225e-19)
(0.12637 0.0452025 -6.92876e-20)
(0.155417 0.0466546 2.68596e-20)
(0.18507 0.0491336 1.7669e-19)
(0.214558 0.0526969 -4.35976e-20)
(0.243019 0.0574675 3.57482e-19)
(0.270413 0.0645023 -2.06811e-19)
(0.295642 0.0743786 -3.28411e-19)
(-0.012126 0.0122429 6.69788e-20)
(-0.0277722 0.028373 1.63263e-20)
(-0.0360742 0.0384708 1.37419e-19)
(-0.0378346 0.0443329 3.36578e-19)
(-0.0337955 0.0473007 1.8887e-19)
(-0.0246059 0.0483801 1.9707e-20)
(-0.010802 0.0483308 -2.25477e-19)
(0.00717439 0.0477296 5.78025e-20)
(0.0289482 0.0470201 3.03987e-19)
(0.0541839 0.0465525 -5.15127e-19)
(0.0825586 0.0466141 3.88727e-19)
(0.113738 0.0474541 -2.92921e-19)
(0.147351 0.0493049 2.48658e-19)
(0.18297 0.0524036 -5.36473e-19)
(0.220077 0.057017 5.90554e-19)
(0.258003 0.063455 -6.31832e-19)
(0.29579 0.0720658 -1.6454e-19)
(0.332118 0.0834747 5.17664e-19)
(0.365839 0.0996277 -1.74388e-19)
(0.393925 0.120454 7.85481e-20)
(-0.0126909 0.0118915 -5.07016e-20)
(-0.0281475 0.0271187 4.78455e-19)
(-0.0350225 0.0364285 -2.0103e-21)
(-0.0343215 0.0416874 -2.97012e-19)
(-0.0269119 0.0442891 -1.99754e-19)
(-0.0135245 0.0452749 3.65942e-19)
(0.00524415 0.0454245 -1.44943e-19)
(0.0289033 0.0453268 -1.82601e-20)
(0.0570327 0.0454342 3.02049e-19)
(0.0892495 0.0461045 -3.75239e-19)
(0.12518 0.0476323 4.11544e-20)
(0.164439 0.0502753 -4.87921e-19)
(0.206615 0.0542791 2.57044e-19)
(0.251272 0.0599067 -7.35788e-19)
(0.297949 0.0674762 1.17302e-18)
(0.346181 0.077413 -2.1481e-19)
(0.395527 0.0903688 2.25265e-19)
(0.44587 0.107772 -5.84587e-19)
(0.497706 0.13264 2.8527e-21)
(0.543127 0.160616 6.70116e-19)
(-0.0131194 0.0114107 -1.53622e-19)
(-0.0279492 0.0255108 1.32736e-19)
(-0.0328218 0.0338945 -4.88757e-19)
(-0.0289694 0.0384884 7.22891e-19)
(-0.0173967 0.040732 -5.2189e-19)
(0.00107394 0.041696 2.69293e-20)
(0.0257717 0.0421719 -5.62717e-19)
(0.0561371 0.0427505 4.02324e-19)
(0.0916761 0.0438786 -5.74799e-20)
(0.131921 0.0458997 -3.55049e-19)
(0.1764 0.049084 -2.07226e-19)
(0.224622 0.0536501 2.18942e-19)
(0.276074 0.059784 1.44894e-19)
(0.330231 0.0676562 -6.41616e-19)
(0.386585 0.077438 2.31517e-19)
(0.444693 0.0893137 -3.42186e-19)
(0.504236 0.103502 4.15082e-20)
(0.565254 0.120456 -2.9202e-19)
(0.628619 0.141349 1.21207e-19)
(0.687058 0.162073 -4.40458e-19)
(-0.0133708 0.0107992 4.37333e-19)
(-0.0270391 0.0235613 -2.64845e-19)
(-0.0292258 0.0309148 2.18233e-19)
(-0.0214197 0.0348303 -2.75511e-19)
(-0.00478047 0.0367832 4.61838e-19)
(0.019759 0.0378653 -8.09017e-21)
(0.0514275 0.03887 -5.62165e-20)
(0.0895586 0.0403761 -4.16792e-20)
(0.133533 0.0428063 2.56549e-19)
(0.182734 0.0464655 4.36241e-19)
(0.236515 0.0515668 -2.577e-19)
(0.294194 0.0582504 2.50579e-19)
(0.355053 0.0665957 4.5797e-19)
(0.418364 0.0766314 -3.21107e-19)
(0.483423 0.0883399 -6.53376e-19)
(0.549594 0.101652 1.19575e-18)
(0.616354 0.11643 -2.13407e-19)
(0.683375 0.132511 -6.9589e-20)
(0.750895 0.150227 7.53479e-19)
(0.813636 0.168593 -1.58383e-19)
(-0.0133944 0.0100553 -7.1207e-19)
(-0.0252549 0.0212893 -4.74033e-19)
(-0.0239559 0.0275545 -1.81972e-19)
(-0.0112789 0.0308407 3.51055e-19)
(0.0114353 0.0326444 -7.92489e-19)
(0.0431122 0.0340679 4.1037e-19)
(0.0828352 0.0358921 5.20043e-20)
(0.129771 0.0386654 5.25766e-20)
(0.183099 0.0427624 -5.37446e-19)
(0.241963 0.0484198 -1.89799e-19)
(0.305451 0.0557602 -3.34627e-19)
(0.372587 0.0648096 3.23233e-19)
(0.44236 0.0755096 9.18854e-20)
(0.513752 0.0877284 1.80822e-20)
(0.58579 0.101266 4.2255e-19)
(0.657584 0.115856 -4.27699e-19)
(0.728365 0.131153 -1.78736e-20)
(0.797517 0.146749 1.04829e-20)
(0.864736 0.162497 5.82552e-20)
(0.927045 0.179908 3.35135e-19)
(-0.0131278 0.00917809 2.26738e-19)
(-0.0224104 0.018722 5.83993e-19)
(-0.0167055 0.0238984 4.68656e-19)
(0.00186942 0.0266789 -1.61529e-19)
(0.0317552 0.0285611 5.61743e-19)
(0.0716861 0.0306411 -4.73259e-20)
(0.120533 0.0336663 -6.66628e-20)
(0.177209 0.0381283 3.96825e-20)
(0.240592 0.0443212 5.4292e-19)
(0.309483 0.0523763 3.19008e-19)
(0.382597 0.0622867 9.31495e-20)
(0.458585 0.0739292 5.68972e-21)
(0.536081 0.087083 -6.1877e-19)
(0.613758 0.101449 5.37644e-19)
(0.690384 0.116667 9.24604e-20)
(0.764876 0.132326 -1.51978e-19)
(0.836326 0.147977 -6.61447e-19)
(0.904029 0.163157 -5.64326e-20)
(0.967458 0.177402 2.62115e-19)
(1.02574 0.193854 -5.38208e-20)
(-0.0124973 0.00816873 -5.75487e-19)
(-0.0182981 0.0158987 2.40783e-19)
(-0.007149 0.0200537 -1.17546e-18)
(0.0184465 0.0225369 4.81369e-19)
(0.0566571 0.0248177 -3.83874e-19)
(0.105954 0.0279612 2.82999e-19)
(0.1649 0.0326506 -4.39587e-19)
(0.232043 0.0392827 4.03555e-20)
(0.305841 0.0480269 -2.26529e-20)
(0.384639 0.0588623 1.18226e-19)
(0.466697 0.0716098 1.70811e-19)
(0.550245 0.0859637 -3.22855e-19)
(0.633565 0.101525 1.70934e-19)
(0.715072 0.117835 1.57153e-19)
(0.793386 0.134404 6.80122e-19)
(0.867375 0.150739 -2.95128e-19)
(0.936185 0.166362 -1.96875e-19)
(0.999245 0.180859 3.31447e-19)
(1.05613 0.193656 1.77814e-19)
(1.10737 0.208643 -3.33191e-19)
(-0.0114187 0.00703323 5.04185e-19)
(-0.0126947 0.0128748 4.86166e-19)
(0.00504609 0.016154 1.40218e-19)
(0.038855 0.0186397 5.90611e-19)
(0.0865547 0.0217331 2.90095e-19)
(0.146254 0.0264314 -5.22925e-19)
(0.216085 0.033309 7.91971e-19)
(0.294096 0.0426153 -3.89732e-19)
(0.3782 0.0543387 3.89046e-19)
(0.466195 0.068253 5.03468e-19)
(0.555842 0.0839645 -2.87735e-19)
(0.644971 0.100962 5.46402e-20)
(0.731598 0.11867 3.05045e-19)
(0.814022 0.136497 2.15096e-19)
(0.890895 0.153875 4.96143e-19)
(0.961251 0.170296 -1.98164e-19)
(1.0245 0.185327 -2.41399e-20)
(1.08041 0.198656 3.14414e-19)
(1.12892 0.209793 -6.74472e-20)
(1.17137 0.2227 3.87069e-22)
(-0.0097998 0.00578514 -2.60288e-19)
(-0.00536883 0.00972707 -9.56698e-19)
(0.0202031 0.0123637 2.25269e-19)
(0.063452 0.0152472 -1.71482e-19)
(0.121756 0.0196559 -3.95786e-19)
(0.192733 0.0264673 -2.8251e-19)
(0.273937 0.0360852 -1.74523e-19)
(0.362775 0.0485437 4.23882e-19)
(0.456509 0.0635851 -2.51736e-19)
(0.552344 0.0807251 -2.57759e-19)
(0.647572 0.0993248 -3.26202e-19)
(0.739734 0.118667 -5.38491e-20)
(0.826753 0.138027 -3.63637e-20)
(0.907029 0.156735 -7.55516e-19)
(0.979478 0.174218 3.66832e-19)
(1.04352 0.190026 -4.82318e-19)
(1.09901 0.203843 1.52048e-19)
(1.1462 0.215503 -1.15736e-18)
(1.18552 0.224724 3.48714e-19)
(1.21867 0.235106 4.42518e-19)
(-0.00754337 0.00444825 -6.53469e-20)
(0.00390899 0.00655866 4.66851e-19)
(0.038618 0.00888201 2.99216e-20)
(0.0925204 0.012654 7.20064e-20)
(0.162425 0.018958 -1.4639e-19)
(0.245301 0.0284806 -2.39219e-21)
(0.337967 0.0413753 -3.74667e-21)
(0.437059 0.0573814 -8.82962e-20)
(0.539131 0.0759284 3.13165e-19)
(0.640825 0.0962339 1.21118e-19)
(0.739096 0.117409 5.49987e-19)
(0.831397 0.138563 -1.50006e-19)
(0.915807 0.158883 1.04825e-19)
(0.991083 0.177703 -1.37217e-20)
(1.05663 0.194527 2.90593e-19)
(1.11243 0.209041 1.78084e-19)
(1.15891 0.221102 4.29875e-19)
(1.19683 0.230715 -6.94733e-19)
(1.22709 0.237845 8.75141e-19)
(1.25153 0.245548 -2.77436e-19)
(-0.00455097 0.00305886 -6.08705e-19)
(0.0153551 0.00350279 -1.89956e-19)
(0.0605391 0.00594507 1.48508e-19)
(0.126239 0.0111863 9.36183e-20)
(0.208541 0.0200229 9.58625e-20)
(0.303594 0.0328581 9.72154e-20)
(0.407324 0.0494994 -2.43245e-19)
(0.515519 0.0693074 -1.00613e-19)
(0.624043 0.0913448 3.11974e-20)
(0.729116 0.11452 -2.98057e-19)
(0.82758 0.137727 -1.34904e-19)
(0.917083 0.15997 8.15441e-19)
(0.996142 0.180444 -2.10325e-19)
(1.06411 0.198578 -2.90346e-19)
(1.12106 0.214039 -1.38091e-19)
(1.1676 0.226709 9.54807e-20)
(1.20475 0.236644 1.1683e-19)
(1.23372 0.244026 -5.60175e-19)
(1.25577 0.249046 8.1144e-19)
(1.27275 0.254186 -7.03652e-19)
(-0.000727026 0.00166721 -6.89526e-20)
(0.0291602 0.000724489 1.97621e-20)
(0.086146 0.00382445 -2.51455e-20)
(0.164652 0.0111946 3.67652e-19)
(0.259872 0.0232296 2.02126e-20)
(0.366953 0.0399368 1.34986e-19)
(0.480817 0.060673 -2.8039e-19)
(0.596399 0.0843457 -1.02286e-20)
(0.709005 0.109626 3.89561e-19)
(0.814677 0.135143 5.43305e-20)
(0.910458 0.159652 -3.39575e-19)
(0.994498 0.182156 -2.98205e-20)
(1.06601 0.201965 -2.79389e-19)
(1.12512 0.218697 2.78075e-19)
(1.17263 0.232244 3.86768e-19)
(1.20978 0.242713 -4.26545e-20)
(1.23806 0.250362 -5.21224e-20)
(1.25901 0.25552 1.58855e-19)
(1.27412 0.258553 -5.11387e-19)
(1.28513 0.261431 4.50272e-19)
(0.00401659 0.000338212 6.91669e-20)
(0.0454757 -0.00158016 -4.46428e-19)
(0.115528 0.0028219 1.19494e-19)
(0.20765 0.0130407 -3.70473e-19)
(0.315954 0.0289314 1.27369e-19)
(0.434437 0.049978 -4.7302e-19)
(0.556971 0.0749857 1.90784e-19)
(0.677744 0.102362 -6.07194e-20)
(0.791756 0.130405 -2.45582e-21)
(0.895207 0.157546 6.21882e-20)
(0.985684 0.182518 -2.26598e-19)
(1.06213 0.204446 -3.23666e-19)
(1.12463 0.222856 -6.64493e-20)
(1.17415 0.237627 -2.98335e-20)
(1.21217 0.248908 -7.57286e-20)
(1.24048 0.257027 -2.46957e-20)
(1.26088 0.262412 -7.39447e-20)
(1.27509 0.265503 -6.41538e-20)
(1.28462 0.266767 -1.91139e-19)
(1.2911 0.267762 3.03465e-19)
(0.00975579 -0.000848868 1.66517e-19)
(0.0644007 -0.00318747 -1.84911e-19)
(0.148667 0.00325972 3.97902e-19)
(0.254943 0.01708 -1.71702e-19)
(0.376089 0.0374319 4.58886e-19)
(0.504853 0.0631439 6.49932e-21)
(0.634118 0.0923902 2.30442e-19)
(0.757558 0.123076 -6.16823e-20)
(0.87022 0.153205 2.57597e-19)
(0.968846 0.181133 1.86614e-20)
(1.05189 0.205709 6.13663e-19)
(1.11928 0.2263 -4.23696e-19)
(1.17207 0.242733 5.70569e-20)
(1.212 0.255178 1.08956e-19)
(1.24113 0.264039 5.71455e-19)
(1.26159 0.269831 -2.05341e-19)
(1.27535 0.273105 -4.07484e-20)
(1.28414 0.274364 -2.16082e-19)
(1.28942 0.274123 -2.2829e-20)
(1.29261 0.273614 1.08196e-19)
(0.0165492 -0.00180154 -7.99954e-20)
(0.0859691 -0.00385235 2.30975e-19)
(0.185419 0.00546735 -2.3635e-19)
(0.306062 0.023641 9.34033e-20)
(0.439367 0.0489617 -1.11552e-19)
(0.576825 0.079482 4.09574e-19)
(0.71052 0.112708 -5.70072e-20)
(0.833967 0.1461 1.40593e-19)
(0.942677 0.177496 -8.27519e-20)
(1.0343 0.205334 -2.14838e-21)
(1.10841 0.228719 9.46349e-20)
(1.16601 0.247357 -7.33359e-20)
(1.20907 0.261415 1.90274e-19)
(1.23997 0.271358 -9.48464e-20)
(1.26119 0.277805 -4.18052e-19)
(1.27501 0.281414 4.15753e-19)
(1.28342 0.282803 -1.87462e-19)
(1.28803 0.282492 1.49706e-19)
(1.29016 0.281005 2.59783e-19)
(1.29103 0.279323 1.06735e-19)
(0.024433 -0.00241621 1.99027e-19)
(0.110139 -0.00331687 -4.10111e-19)
(0.225508 0.00976526 7.84839e-20)
(0.360358 0.0330039 -5.69146e-20)
(0.504697 0.0636593 -2.29465e-19)
(0.648874 0.0989206 -1.80086e-19)
(0.784495 0.135648 -3.5385e-20)
(0.905357 0.17098 -3.21105e-19)
(1.00786 0.202757 -1.9545e-20)
(1.09088 0.229666 -5.9675e-20)
(1.1552 0.251188 -1.62052e-19)
(1.20292 0.267424 -3.59994e-20)
(1.23676 0.278888 -1.24096e-19)
(1.25958 0.286306 -2.0723e-19)
(1.27404 0.29046 2.12301e-19)
(1.28246 0.292093 2.93155e-20)
(1.2867 0.291844 5.84228e-20)
(1.28819 0.290213 -2.44809e-19)
(1.28807 0.28771 -6.10144e-21)
(1.28735 0.285117 -3.77982e-19)
(0.0334166 -0.00258112 2.18311e-19)
(0.136783 -0.00132091 1.45579e-19)
(0.26852 0.0164474 -2.3463e-19)
(0.417025 0.0453809 3.66394e-19)
(0.570872 0.0815602 -3.94774e-20)
(0.71952 0.121277 1.36836e-19)
(0.854534 0.160839 4.73727e-20)
(0.970475 0.197242 1.67864e-19)
(1.06501 0.22852 -1.3144e-19)
(1.13841 0.25376 4.38163e-20)
(1.19272 0.272899 -4.2069e-20)
(1.23096 0.286453 -1.85304e-20)
(1.25645 0.295254 3.52106e-20)
(1.27229 0.300233 -6.49038e-20)
(1.28121 0.302279 -1.99598e-20)
(1.28537 0.302165 -6.10653e-20)
(1.28645 0.300511 -9.93002e-20)
(1.28567 0.297776 6.41049e-20)
(1.28397 0.294442 -8.8021e-20)
(1.28219 0.291129 3.80337e-19)
(0.043478 -0.00218021 -1.09057e-19)
(0.165686 0.00238594 -3.08842e-19)
(0.313914 0.0257639 -4.11071e-20)
(0.475132 0.060901 -1.11642e-20)
(0.636633 0.102594 -1.38299e-19)
(0.787369 0.146276 -2.27047e-19)
(0.919383 0.187868 7.43268e-20)
(1.02846 0.224436 -1.02131e-19)
(1.1138 0.2544 -1.1447e-19)
(1.17715 0.277362 6.37768e-20)
(1.22171 0.293755 -4.82067e-20)
(1.25125 0.304494 -9.75714e-20)
(1.26943 0.310673 -3.31173e-21)
(1.27947 0.313366 6.60905e-20)
(1.28394 0.313512 -6.74534e-20)
(1.28484 0.311871 9.36108e-20)
(1.28359 0.309015 2.51732e-20)
(1.2812 0.305346 6.34853e-20)
(1.27843 0.301323 1.23806e-19)
(1.27593 0.29742 -1.06072e-19)
(0.0545616 -0.00109759 1.04188e-19)
(0.196544 0.00803174 -9.24473e-21)
(0.361037 0.0379053 4.67094e-20)
(0.533666 0.0796008 -6.34163e-20)
(0.700735 0.126593 5.19822e-21)
(0.851194 0.173576 2.20008e-19)
(0.978094 0.216308 -1.44544e-19)
(1.07883 0.252158 6.12233e-20)
(1.1543 0.280098 5.39863e-20)
(1.20766 0.300317 -1.51799e-19)
(1.24311 0.313748 1.42668e-19)
(1.26491 0.321653 1.26107e-21)
(1.2769 0.325324 -1.00579e-19)
(1.28222 0.325916 1.21248e-19)
(1.28324 0.324366 -4.81285e-20)
(1.28169 0.32139 3.68115e-20)
(1.27876 0.317493 -4.11716e-20)
(1.27527 0.313021 -1.64572e-20)
(1.27178 0.308409 -1.44241e-19)
(1.26882 0.303997 4.41694e-20)
(0.0665759 0.000777477 -3.51539e-20)
(0.22897 0.0158098 9.42899e-20)
(0.409144 0.0529903 1.46926e-20)
(0.59158 0.101422 6.16479e-20)
(0.762019 0.153304 2.94058e-20)
(0.90998 0.202791 1.37831e-20)
(1.03003 0.245748 7.81601e-20)
(1.12144 0.280068 -9.4905e-21)
(1.18684 0.305399 3.44669e-20)
(1.23067 0.322552 5.53911e-20)
(1.25785 0.332923 2.67338e-20)
(1.27298 0.338056 1.91945e-20)
(1.27988 0.339374 7.78469e-20)
(1.28146 0.338053 -7.53552e-20)
(1.27986 0.334992 1.61779e-20)
(1.27652 0.330838 -1.51466e-20)
(1.2724 0.326025 2.34463e-20)
(1.26816 0.320841 1.96452e-20)
(1.26421 0.315706 4.10346e-20)
(1.26096 0.310829 1.7335e-21)
(0.0793947 0.00354528 2.08387e-20)
(0.262502 0.0258673 1.9034e-20)
(0.457433 0.0710569 -2.63437e-20)
(0.647844 0.126214 1.64603e-20)
(0.819457 0.182405 9.29746e-21)
(0.962953 0.233519 -2.89218e-20)
(1.07483 0.275808 9.54485e-21)
(1.1564 0.307885 1.71876e-21)
(1.21194 0.330155 1.64633e-20)
(1.24695 0.344043 -4.41405e-20)
(1.26687 0.351349 -1.36219e-22)
(1.27639 0.353825 1.22344e-20)
(1.27917 0.35296 -9.74889e-21)
(1.27787 0.349903 9.86449e-21)
(1.27431 0.345486 2.57419e-20)
(1.2697 0.340277 -1.46453e-20)
(1.26479 0.334636 4.07748e-21)
(1.26006 0.328803 1.60478e-20)
(1.25584 0.323185 -2.64609e-20)
(1.25242 0.317861 1.27005e-20)
(0.0928588 0.0072906 5.81213e-20)
(0.296623 0.0382961 -3.16004e-20)
(0.505072 0.0920586 3.72035e-20)
(0.701486 0.153745 -2.76796e-20)
(0.872184 0.213528 -1.24126e-20)
(1.00957 0.265357 3.75153e-21)
(1.1124 0.306145 -1.21825e-20)
(1.18403 0.335382 4.38148e-20)
(1.23021 0.354266 -3.64822e-20)
(1.25728 0.364794 8.55986e-21)
(1.27097 0.369096 -6.37947e-21)
(1.27589 0.36906 -4.15475e-20)
(1.27543 0.366179 4.02983e-20)
(1.27196 0.361542 1.53403e-20)
(1.267 0.355894 -1.52626e-20)
(1.26151 0.349721 3.58232e-20)
(1.25608 0.343313 -5.27748e-22)
(1.25107 0.33687 -3.47499e-20)
(1.2467 0.330792 2.57438e-20)
(1.24321 0.325022 8.11085e-21)
(0.106779 0.0120781 -2.03657e-20)
(0.330773 0.0531258 5.90675e-20)
(0.551238 0.115865 6.82356e-20)
(0.75163 0.18371 -3.21849e-20)
(0.919518 0.246272 5.60042e-20)
(1.04953 0.297912 8.86132e-20)
(1.14282 0.336456 -4.87583e-21)
(1.20473 0.362377 -1.52048e-20)
(1.24229 0.377663 7.51322e-20)
(1.2624 0.384817 3.66273e-20)
(1.27086 0.386221 -6.64157e-21)
(1.27209 0.383827 5.45854e-20)
(1.26916 0.379086 -5.852e-20)
(1.2641 0.373 9.11135e-20)
(1.25816 0.366219 -1.51994e-20)
(1.2521 0.359149 4.35181e-20)
(1.24637 0.352014 7.83578e-21)
(1.24123 0.344985 3.11346e-20)
(1.23682 0.338454 -2.96395e-20)
(1.23334 0.332232 7.12299e-21)
(0.120943 0.0179478 -3.16951e-20)
(0.364367 0.070319 7.5275e-20)
(0.595139 0.142266 5.59095e-20)
(0.797519 0.215747 -8.46795e-21)
(0.960956 0.280219 8.70712e-20)
(1.08267 0.33081 -6.49938e-20)
(1.16631 0.36647 -5.08329e-21)
(1.21901 0.388716 5.73967e-20)
(1.24881 0.400288 1.82378e-20)
(1.26294 0.404119 2.54971e-20)
(1.26712 0.402757 -3.76419e-20)
(1.26547 0.398159 9.81062e-20)
(1.26071 0.391698 1.83039e-20)
(1.25454 0.38427 -8.68694e-20)
(1.24797 0.376432 1.26851e-19)
(1.24159 0.368509 -1.49643e-19)
(1.23572 0.360673 -6.86584e-20)
(1.23056 0.353071 1.13849e-20)
(1.2262 0.34609 6.66746e-20)
(1.22279 0.339402 -1.25607e-19)
(0.135117 0.0249123 -7.1398e-20)
(0.396823 0.0897707 -1.68395e-19)
(0.63605 0.17098 -1.45564e-19)
(0.838529 0.249451 -1.982e-19)
(0.996165 0.314946 -1.12423e-19)
(1.10903 0.363698 -2.33103e-19)
(1.18319 0.395945 2.96158e-20)
(1.22737 0.414266 -1.23741e-19)