/*--------------------------------*- C++ -*----------------------------------*\
  =========                 |
  \\      /  F ield         | OpenFOAM: The Open Source CFD Toolbox
   \\    /   O peration     | Website:  https://openfoam.org
    \\  /    A nd           | Version:  6.0
     \\/     M anipulation  |
\*---------------------------------------------------------------------------*/
FoamFile
{
    version     2.0;
    format      ascii;
    class       surfaceScalarField;
    location    "37";
    object      phi;
}
// * * * * * * * * * * * * * * * * * * * * * * * * * * * * * * * * * * * * * //

dimensions      [0 3 -1 0 0 0 0];

internalField   nonuniform List<scalar> 
24700
(
-1.27697e-06
9.65129e-08
1.18046e-06
-4.6441e-06
6.80035e-07
2.6871e-06
-9.7041e-06
1.50208e-06
3.55792e-06
-1.61097e-05
2.44914e-06
3.95642e-06
-2.35623e-05
3.43983e-06
4.01279e-06
-3.18099e-05
4.41815e-06
3.8295e-06
-4.06439e-05
5.34796e-06
3.48602e-06
-4.98954e-05
6.20858e-06
3.04294e-06
-5.94321e-05
6.99117e-06
2.54548e-06
-6.91544e-05
7.69578e-06
2.02655e-06
-7.89926e-05
8.32888e-06
1.50936e-06
-8.89036e-05
8.90141e-06
1.00959e-06
-9.88679e-05
9.42717e-06
5.37097e-07
-0.000108887
9.92154e-06
9.7403e-08
-0.00011898
1.04005e-05
-3.07261e-07
-0.000129183
1.08797e-05
-6.77098e-07
-0.000139543
1.13743e-05
-1.01413e-06
-0.000150119
1.18979e-05
-1.32174e-06
-0.000160977
1.24629e-05
-1.60438e-06
-0.00017219
1.30799e-05
-1.86732e-06
-0.000183832
1.3758e-05
-2.11652e-06
-0.000195977
1.45042e-05
-2.35848e-06
-0.000208701
1.53242e-05
-2.60021e-06
-0.000222074
1.62223e-05
-2.84901e-06
1.72048e-05
-3.11316e-06
-0.000236166
-1.27616e-06
1.37268e-06
-4.63877e-06
4.04264e-06
-9.68857e-06
6.55187e-06
-1.60767e-05
8.83723e-06
-2.35033e-05
1.08665e-05
-3.17153e-05
1.26302e-05
-4.05029e-05
1.41356e-05
-4.96964e-05
1.5402e-05
-5.9162e-05
1.64568e-05
-6.87991e-05
1.73329e-05
-7.85364e-05
1.80662e-05
-8.83293e-05
1.86943e-05
-9.81567e-05
1.92545e-05
-0.000108018
1.97832e-05
-0.000117932
2.03145e-05
-0.000127933
2.08799e-05
-0.000138066
2.15075e-05
-0.00014839
2.22217e-05
-0.00015897
2.30431e-05
-0.000169878
2.39881e-05
-0.000181189
2.50689e-05
-0.000192978
2.62937e-05
-0.000205321
2.76668e-05
-0.000218289
2.919e-05
3.08674e-05
-0.000231951
-1.27505e-06
2.64773e-06
-4.63111e-06
7.3987e-06
-9.66576e-06
1.15865e-05
-1.60274e-05
1.51988e-05
-2.34138e-05
1.82528e-05
-3.15696e-05
2.0786e-05
-4.02829e-05
2.28489e-05
-4.93815e-05
2.45006e-05
-5.87293e-05
2.58046e-05
-6.82228e-05
2.68263e-05
-7.77877e-05
2.76312e-05
-8.73763e-05
2.82829e-05
-9.69643e-05
2.88425e-05
-0.000106548
2.93673e-05
-0.000116144
2.991e-05
-0.000125782
3.05181e-05
-0.000135508
3.12336e-05
-0.000145379
3.20922e-05
-0.000155459
3.31233e-05
-0.000165821
3.43499e-05
-0.00017654
3.57884e-05
-0.000187695
3.74488e-05
-0.000199363
3.93344e-05
-0.000211618
4.14452e-05
4.37832e-05
-0.000224534
-1.27397e-06
3.9217e-06
-4.62219e-06
1.07469e-05
-9.63776e-06
1.66021e-05
-1.59651e-05
2.15262e-05
-2.32987e-05
2.55864e-05
-3.13799e-05
2.88672e-05
-3.99936e-05
3.14626e-05
-4.8964e-05
3.34711e-05
-5.81513e-05
3.49919e-05
-6.74477e-05
3.61227e-05
-7.67746e-05
3.6958e-05
-8.60794e-05
3.75877e-05
-9.5333e-05
3.80962e-05
-0.000104528
3.8562e-05
-0.000113674
3.90567e-05
-0.000122801
3.96446e-05
-0.00013195
4.03824e-05
-0.000141176
4.13181e-05
-0.000150544
4.24915e-05
-0.000160127
4.39333e-05
-0.000170004
4.56653e-05
-0.000180256
4.77006e-05
-0.000190964
5.00429e-05
-0.00020221
5.26906e-05
5.56441e-05
-0.000214071
-1.27332e-06
5.19502e-06
-4.61314e-06
1.40867e-05
-9.60673e-06
2.15957e-05
-1.58935e-05
2.7813e-05
-2.31635e-05
3.28564e-05
-3.11541e-05
3.68578e-05
-3.96459e-05
3.99544e-05
-4.84588e-05
4.2284e-05
-5.7448e-05
4.39811e-05
-6.65003e-05
4.51751e-05
-7.55311e-05
4.59889e-05
-8.44816e-05
4.65382e-05
-9.33163e-05
4.69308e-05
-0.000102021
4.72666e-05
-0.000110601
4.76365e-05
-0.000119079
4.81225e-05
-0.000127493
4.87968e-05
-0.000135897
4.97218e-05
-0.000144354
5.09489e-05
-0.00015294
5.25188e-05
-0.000161735
5.44607e-05
-0.000170827
5.67923e-05
-0.000180304
5.95196e-05
-0.000190253
6.26405e-05
6.61545e-05
-0.000200764
-1.27343e-06
6.46845e-06
-4.60498e-06
1.74183e-05
-9.57452e-06
2.65652e-05
-1.58154e-05
3.40539e-05
-2.30126e-05
4.00536e-05
-3.08987e-05
4.47438e-05
-3.92496e-05
4.83053e-05
-4.788e-05
5.09143e-05
-5.66392e-05
5.27403e-05
-6.54076e-05
5.39435e-05
-7.40933e-05
5.46746e-05
-8.26297e-05
5.50745e-05
-9.0973e-05
5.52742e-05
-9.9101e-05
5.53946e-05
-0.000107011
5.55467e-05
-0.00011472
5.58309e-05
-0.00012226
5.63368e-05
-0.00012968
5.71425e-05
-0.000137045
5.83137e-05
-0.00014443
5.99034e-05
-0.00015192
6.1951e-05
-0.000159609
6.44815e-05
-0.000167595
6.75053e-05
-0.000175977
7.10224e-05
7.50323e-05
-0.000184855
-1.27458e-06
7.74304e-06
-4.59827e-06
2.0742e-05
-9.54208e-06
3.15091e-05
-1.57324e-05
4.02443e-05
-2.28486e-05
4.71698e-05
-3.06179e-05
5.25132e-05
-3.88113e-05
5.64987e-05
-4.72379e-05
5.93409e-05
-5.57406e-05
6.1243e-05
-6.41924e-05
6.23953e-05
-7.24931e-05
6.29753e-05
-8.05668e-05
6.31482e-05
-8.83601e-05
6.30674e-05
-9.58405e-05
6.2875e-05
-0.000102996
6.2702e-05
-0.000109833
6.26683e-05
-0.000116378
6.28821e-05
-0.000122676
6.34397e-05
-0.000128786
6.44237e-05
-0.000134785
6.59029e-05
-0.000140764
6.79302e-05
-0.000146825
7.05419e-05
-0.000153076
7.37564e-05
-0.000159632
7.75785e-05
8.201e-05
-0.00016661
-1.2768e-06
9.01984e-06
-4.59291e-06
2.40581e-05
-9.50893e-06
3.64251e-05
-1.56436e-05
4.6379e-05
-2.26701e-05
5.41963e-05
-3.03108e-05
6.01539e-05
-3.83314e-05
6.45192e-05
-4.65352e-05
6.75448e-05
-5.47589e-05
6.94666e-05
-6.28674e-05
7.05038e-05
-7.07515e-05
7.08594e-05
-7.8325e-05
7.07217e-05
-8.5523e-05
7.02654e-05
-9.2301e-05
6.9653e-05
-9.86347e-05
6.90357e-05
-0.00010452
6.85534e-05
-0.000109972
6.83345e-05
-0.000115028
6.84956e-05
-0.000119744
6.91397e-05
-0.000124196
7.0355e-05
-0.000128479
7.2213e-05
-0.000132703
7.47661e-05
-0.000136992
7.80456e-05
-0.00014148
8.2066e-05
8.68348e-05
-0.000146305
-1.27986e-06
1.02997e-05
-4.58779e-06
2.7366e-05
-9.47253e-06
4.13098e-05
-1.55446e-05
5.2451e-05
-2.24711e-05
6.11228e-05
-2.99695e-05
6.76523e-05
-3.78006e-05
7.23504e-05
-4.57629e-05
7.5507e-05
-5.36863e-05
7.739e-05
-6.14282e-05
7.82458e-05
-6.88701e-05
7.83013e-05
-7.59145e-05
7.7766e-05
-8.24838e-05
7.68347e-05
-8.85198e-05
7.5689e-05
-9.39836e-05
7.44995e-05
-9.88565e-05
7.34263e-05
-0.000103141
7.26191e-05
-0.000106863
7.22172e-05
-0.00011007
7.23472e-05
-0.000112837
7.31219e-05
-0.000115261
7.46367e-05
-0.000117461
7.69667e-05
-0.000119579
8.01631e-05
-0.00012177
8.42571e-05
8.92675e-05
-0.000124203
-1.28316e-06
1.15829e-05
-4.58058e-06
3.06635e-05
-9.4278e-06
4.6157e-05
-1.54267e-05
5.84499e-05
-2.22387e-05
6.79348e-05
-2.95767e-05
7.49903e-05
-3.71978e-05
7.99714e-05
-4.48958e-05
8.3205e-05
-5.24953e-05
8.49895e-05
-5.98466e-05
8.55971e-05
-6.68219e-05
8.52766e-05
-7.33126e-05
8.42567e-05
-7.92277e-05
8.27498e-05
-8.44935e-05
8.09549e-05
-8.90545e-05
7.90605e-05
-9.28745e-05
7.72462e-05
-9.59391e-05
7.56837e-05
-9.82584e-05
7.45365e-05
-9.98695e-05
7.39584e-05
-0.000100839
7.40916e-05
-0.000101265
7.50626e-05
-0.000101276
7.69776e-05
-0.00010103
7.9917e-05
-0.000100711
8.39384e-05
8.90815e-05
-0.000100525
-1.28573e-06
1.28686e-05
-4.56758e-06
3.39453e-05
-9.36681e-06
5.09563e-05
-1.52765e-05
6.43597e-05
-2.19527e-05
7.46109e-05
-2.91046e-05
8.21423e-05
-3.64866e-05
8.73534e-05
-4.38893e-05
9.06077e-05
-5.11331e-05
9.22334e-05
-5.80626e-05
9.25266e-05
-6.45419e-05
9.17559e-05
-7.04516e-05
9.01664e-05
-7.56875e-05
8.79857e-05
-8.01598e-05
8.54272e-05
-8.37945e-05
8.26952e-05
-8.65351e-05
7.99868e-05
-8.83463e-05
7.74949e-05
-8.92179e-05
7.54081e-05
-8.917e-05
7.39105e-05
-8.82569e-05
7.31786e-05
-8.6572e-05
7.33777e-05
-8.42497e-05
7.46553e-05
-8.14661e-05
7.71334e-05
-7.84376e-05
8.09099e-05
8.60596e-05
-7.54156e-05
-1.28618e-06
1.41548e-05
-4.5437e-06
3.72028e-05
-9.27864e-06
5.56912e-05
-1.50753e-05
7.01563e-05
-2.15845e-05
8.11201e-05
-2.85132e-05
8.9071e-05
-3.56139e-05
9.44541e-05
-4.26759e-05
9.76696e-05
-4.95172e-05
9.90747e-05
-5.59784e-05
9.89878e-05
-6.19175e-05
9.76949e-05
-6.72061e-05
9.54551e-05
-7.17278e-05
9.25074e-05
-7.53771e-05
8.90766e-05
-7.80608e-05
8.53788e-05
-7.97e-05
8.1626e-05
-8.02349e-05
7.80298e-05
-7.96299e-05
7.48032e-05
-7.78812e-05
7.21617e-05
-7.50237e-05
7.03211e-05
-7.11391e-05
6.94931e-05
-6.6362e-05
6.98782e-05
-6.08844e-05
7.16558e-05
-5.49575e-05
7.4983e-05
7.99907e-05
-4.88887e-05
-1.28273e-06
1.54375e-05
-4.50252e-06
4.04226e-05
-9.14955e-06
6.03383e-05
-1.47991e-05
7.58059e-05
-2.10976e-05
8.74186e-05
-2.77502e-05
9.57235e-05
-3.45091e-05
0.000101213
-4.11637e-05
0.000104324
-4.75321e-05
0.000105443
-5.34531e-05
0.000104909
-5.87813e-05
0.000103023
-6.33822e-05
0.000100056
-6.71295e-05
9.62547e-05
-6.99042e-05
9.18513e-05
-7.15945e-05
8.70692e-05
-7.20989e-05
8.21304e-05
-7.13305e-05
7.72613e-05
-6.92238e-05
7.26965e-05
-6.57439e-05
6.86819e-05
-6.08975e-05
6.54746e-05
-5.47447e-05
6.33403e-05
-4.74113e-05
6.25449e-05
-3.90992e-05
6.33436e-05
-3.00944e-05
6.59782e-05
7.0666e-05
-2.07696e-05
-1.27336e-06
1.67109e-05
-4.43664e-06
4.35859e-05
-8.96347e-06
6.48651e-05
-1.442e-05
8.12624e-05
-2.04482e-05
9.34468e-05
-2.6752e-05
0.000102027
-3.30844e-05
0.000107545
-3.92367e-05
0.000110477
-4.50286e-05
0.000111235
-5.03004e-05
0.000110181
-5.49064e-05
0.000107629
-5.87096e-05
0.000103859
-6.15779e-05
9.91231e-05
-6.33823e-05
9.36557e-05
-6.39962e-05
8.76831e-05
-6.32971e-05
8.14314e-05
-6.11711e-05
7.51353e-05
-5.75198e-05
6.90452e-05
-5.22715e-05
6.34335e-05
-4.53947e-05
5.85979e-05
-3.69161e-05
5.48617e-05
-2.69394e-05
5.25681e-05
-1.56647e-05
5.20689e-05
-3.40824e-06
5.37218e-05
5.78736e-05
9.38418e-06
-1.2559e-06
1.79668e-05
-4.33804e-06
4.6668e-05
-8.70287e-06
6.92299e-05
-1.39067e-05
8.64663e-05
-1.95868e-05
9.91269e-05
-2.54458e-05
0.000107886
-3.12378e-05
0.000113337
-3.6757e-05
0.000115996
-4.18266e-05
0.000116305
-4.62906e-05
0.000114645
-5.00065e-05
0.000111345
-5.28392e-05
0.000106692
-5.4656e-05
0.00010094
-5.53238e-05
9.43235e-05
-5.47069e-05
8.70662e-05
-5.26674e-05
7.93919e-05
-4.90681e-05
7.15359e-05
-4.37789e-05
6.3756e-05
-3.66879e-05
5.63425e-05
-2.77178e-05
4.96278e-05
-1.6848e-05
4.3992e-05
-4.14286e-06
3.98629e-05
1.02169e-05
3.77092e-05
2.58976e-05
3.80411e-05
4.13929e-05
4.23782e-05
-1.22821e-06
1.9195e-05
-4.19869e-06
4.96385e-05
-8.34976e-06
7.3381e-05
-1.32268e-05
9.13433e-05
-1.8461e-05
0.000104361
-2.37528e-05
0.000113178
-2.8857e-05
0.000118442
-3.35704e-05
0.000120709
-3.77205e-05
0.000120455
-4.11567e-05
0.000118081
-4.37425e-05
0.000113931
-4.53486e-05
0.000108298
-4.5848e-05
0.000101439
-4.51107e-05
9.35862e-05
-4.30005e-05
8.49561e-05
-3.93736e-05
7.57649e-05
-3.40784e-05
6.62407e-05
-2.69602e-05
5.66377e-05
-1.78698e-05
4.72522e-05
-6.68063e-06
3.84386e-05
6.6861e-06
3.06252e-05
2.22252e-05
2.43239e-05
3.98005e-05
2.01338e-05
5.90847e-05
1.87569e-05
2.09877e-05
7.94899e-05
-1.1884e-06
2.03834e-05
-4.01112e-06
5.24612e-05
-7.88695e-06
7.72568e-05
-1.23482e-05
9.58046e-05
-1.70181e-05
0.000109031
-2.15926e-05
0.000117752
-2.58253e-05
0.000122674
-2.95139e-05
0.000124398
-3.24893e-05
0.00012343
-3.46063e-05
0.000120198
-3.57357e-05
0.00011506
-3.57575e-05
0.00010832
-3.45551e-05
0.000100237
-3.20096e-05
9.10407e-05
-2.79952e-05
8.09417e-05
-2.23748e-05
7.01446e-05
-1.49976e-05
5.88636e-05
-5.69903e-06
4.73392e-05
5.69436e-06
3.58588e-05
1.93522e-05
2.47808e-05
3.54152e-05
1.45622e-05
5.39543e-05
5.78478e-06
7.49088e-05
-8.20702e-07
9.7996e-05
-4.33026e-06
-3.60303e-06
0.000122587
-1.135e-06
2.15184e-05
-3.76905e-06
5.50953e-05
-7.29916e-06
8.0787e-05
-1.12418e-05
9.97473e-05
-1.52085e-05
0.000112998
-1.88877e-05
0.000121432
-2.20279e-05
0.000125815
-2.44245e-05
0.000126794
-2.59085e-05
0.000124914
-2.63378e-05
0.000120627
-2.55893e-05
0.000114312
-2.35529e-05
0.000106283
-2.01254e-05
9.68094e-05
-1.52057e-05
8.6121e-05
-8.68863e-06
7.44246e-05
-4.59305e-07
6.19152e-05
9.61246e-06
4.87918e-05
2.16771e-05
3.52745e-05
3.59074e-05
2.16285e-05
5.24937e-05
8.19451e-06
7.16266e-05
-4.57067e-06
9.34583e-05
-1.6047e-05
0.000118033
-2.53958e-05
0.000145167
-3.14633e-05
-3.26783e-05
0.000174242
-1.06707e-06
2.25855e-05
-3.4677e-06
5.74959e-05
-6.57392e-06
8.38932e-05
-9.88221e-06
0.000103056
-1.29883e-05
0.000116104
-1.55677e-05
0.000124011
-1.73587e-05
0.000127606
-1.81489e-05
0.000127585
-1.7764e-05
0.000124529
-1.60594e-05
0.000118923
-1.29137e-05
0.000111166
-8.22322e-06
0.000101593
-1.89788e-06
9.04841e-05
6.14351e-06
7.80796e-05
1.59779e-05
6.45902e-05
2.76838e-05
5.02093e-05
4.13489e-05
3.51267e-05
5.70789e-05
1.95445e-05
7.50073e-05
3.7001e-06
9.53027e-05
-1.21009e-05
0.000118167
-2.74351e-05
0.000143813
-4.16932e-05
0.000172404
-5.39866e-05
0.000203912
-6.29713e-05
-6.65968e-05
0.000237831
-9.84268e-07
2.35697e-05
-3.104e-06
5.96157e-05
-5.70185e-06
8.6491e-05
-8.24926e-06
0.000105603
-1.03204e-05
0.000118175
-1.15719e-05
0.000125262
-1.17248e-05
0.000127759
-1.05514e-05
0.000126411
-7.86397e-06
0.000121842
-3.50723e-06
0.000114566
2.64701e-06
0.000105012
1.07035e-05
9.35362e-05
2.07461e-05
8.04415e-05
3.28393e-05
6.59864e-05
4.70312e-05
5.03984e-05
6.33562e-05
3.38844e-05
8.18415e-05
1.66414e-05
0.000102517
-1.13092e-06
0.000125429
-1.92124e-05
0.000150663
-3.73341e-05
0.000178357
-5.51296e-05
0.00020872
-7.20558e-05
0.000242001
-8.72678e-05
0.000278379
-9.93489e-05
-0.000105813
0.000317595
-8.86718e-07
2.44565e-05
-2.67629e-06
6.14052e-05
-4.67629e-06
8.8491e-05
-6.32711e-06
0.000107254
-7.17489e-06
0.000119023
-6.84987e-06
0.000124937
-5.04817e-06
0.000125957
-1.51749e-06
0.000122881
3.95324e-06
0.000116371
1.15409e-05
0.000106978
2.13923e-05
9.51602e-05
3.36256e-05
8.13028e-05
4.83308e-05
6.57363e-05
6.55677e-05
4.87495e-05
8.53641e-05
3.06019e-05
0.000107715
1.15338e-05
0.000132581
-8.22488e-06
0.000159896
-2.84463e-05
0.000189578
-4.88944e-05
0.000221553
-6.93084e-05
0.000255792
-8.93687e-05
0.000292366
-0.00010863
0.000331498
-0.0001264
0.000373551
-0.000141402
-0.000150919
0.000418657
-7.74834e-07
2.52313e-05
-2.1837e-06
6.28141e-05
-3.49214e-06
8.97995e-05
-4.10275e-06
0.000107864
-3.52644e-06
0.000118446
-1.35938e-06
0.00012277
2.7362e-06
0.000121861
9.04679e-06
0.00011657
1.78179e-05
0.0001076
2.92603e-05
9.55358e-05
4.35532e-05
8.08672e-05
6.08442e-05
6.40118e-05
8.12465e-05
4.5334e-05
0.000104834
2.51616e-05
0.000131636
3.79995e-06
0.000161627
-1.84568e-05
0.000194718
-4.13162e-05
0.000230753
-6.44812e-05
0.000269504
-8.76448e-05
0.000310682
-0.000110487
0.000353978
-0.000132665
0.000399132
-0.000153785
0.000446079
-0.000173346
0.000495149
-0.000190472
-0.000202749
0.000546979
-6.48963e-07
2.58803e-05
-1.62512e-06
6.37903e-05
-2.144e-06
9.03184e-05
-1.5631e-06
0.000107283
6.49296e-07
0.000116234
4.93897e-06
0.000118481
1.16863e-05
0.000115114
2.12215e-05
0.000107035
3.38351e-05
9.49863e-05
4.97839e-05
7.95869e-05
6.92933e-05
6.13578e-05
9.25561e-05
4.07491e-05
0.000119728
1.81617e-05
0.000150923
-6.03265e-06
0.000186197
-3.14747e-05
0.000225543
-5.78024e-05
0.000268865
-8.46378e-05
0.000315959
-0.000111576
0.00036649
-0.000138176
0.000419964
-0.000163961
0.000475722
-0.000188422
0.000532977
-0.00021104
0.000590968
-0.000231336
0.000649388
-0.000248892
-0.000263049
0.000709688
-5.08991e-07
2.63893e-05
-9.97998e-07
6.42793e-05
-6.23821e-07
8.99442e-05
1.30865e-06
0.000105351
5.38098e-06
0.000112162
1.20884e-05
0.000111773
2.18618e-05
0.000105341
3.50833e-05
9.38132e-05
5.20973e-05
7.79724e-05
7.32158e-05
5.84684e-05
9.87209e-05
3.58527e-05
0.000128863
1.06068e-05
0.000163858
-1.68328e-05
0.000203877
-4.60522e-05
0.000249042
-7.66397e-05
0.000299406
-0.000108167
0.000354936
-0.000140167
0.000415477
-0.000172117
0.000480712
-0.000203411
0.000550084
-0.000233332
0.000622698
-0.000261036
0.000697216
-0.000285559
0.00077178
-0.0003059
0.000844413
-0.000321525
-0.000336079
0.000917443
-3.53922e-07
2.67432e-05
-2.97108e-07
6.42225e-05
1.08142e-06
8.85657e-05
4.53669e-06
0.000101896
1.07069e-05
0.000105992
2.01434e-05
0.000102337
3.33336e-05
9.21505e-05
5.07176e-05
7.64293e-05
7.26983e-05
5.59916e-05
9.96475e-05
3.15192e-05
0.000131907
3.59295e-06
0.00016979
-2.72754e-05
0.000213573
-6.06167e-05
0.000263502
-9.59807e-05
0.000319778
-0.000132916
0.000382559
-0.000170948
0.000451953
-0.000209561
0.000528006
-0.00024817
0.00061068
-0.000286084
0.0006998
-0.000322453
0.000794948
-0.000356184
0.0008952
-0.000385811
0.000998429
-0.000409129
0.00109941
-0.000422509
-0.000422032
0.00118537
-1.82039e-07
2.69252e-05
4.85661e-07
6.35548e-05
2.99065e-06
8.60607e-05
8.15462e-06
9.67318e-05
1.66784e-05
9.74677e-05
2.91744e-05
8.98407e-05
4.61906e-05
7.51343e-05
6.8227e-05
5.43929e-05
9.57449e-05
2.84736e-05
0.000129172
-1.90805e-06
0.000168904
-3.61385e-05
0.000215301
-7.36726e-05
0.000268691
-0.000114007
0.000329369
-0.000156658
0.000397598
-0.000201145
0.000473624
-0.000246974
0.000557695
-0.000293633
0.000650101
-0.000340576
0.00075124
-0.000387224
0.000861746
-0.000432959
0.000982696
-0.000477134
0.00111597
-0.000519084
0.00126507
-0.000558232
0.0014376
-0.000595038
-0.000635095
0.00165066
1.10801e-08
2.69141e-05
1.36488e-06
6.2201e-05
5.1333e-06
8.22922e-05
1.22107e-05
8.96544e-05
2.33651e-05
8.63133e-05
3.92733e-05
7.39326e-05
6.05446e-05
5.3863e-05
8.77363e-05
2.72012e-05
0.000121361
-5.15142e-06
0.00016189
-4.2437e-05
0.000209751
-8.39987e-05
0.000265324
-0.000129246
0.000328945
-0.000177628
0.000400902
-0.000228615
0.000481444
-0.000281687
0.000570795
-0.000336325
0.000669178
-0.000392016
0.00077686
-0.000448258
0.000894217
-0.00050458
0.00102183
-0.000560575
0.00116064
-0.000615944
0.00131212
-0.000670562
0.00147848
-0.000724592
0.00166223
-0.00077879
-0.000833169
0.00186031
2.29933e-07
2.66842e-05
2.35696e-06
6.00739e-05
7.54355e-06
7.71057e-05
1.67611e-05
8.04369e-05
3.0848e-05
7.22264e-05
5.05456e-05
5.42349e-05
7.65217e-05
2.78869e-05
0.000109383
-5.65991e-06
0.000149678
-4.54469e-05
0.000197899
-9.06574e-05
0.000254471
-0.000140571
0.000319751
-0.000194526
0.000394023
-0.0002519
0.000477492
-0.000312085
0.000570295
-0.00037449
0.000672506
-0.000438535
0.000784155
-0.000503664
0.000905257
-0.00056936
0.00103585
-0.000635169
0.00117601
-0.000700743
0.00132594
-0.000765873
0.00148592
-0.000830536
0.00165622
-0.000894892
0.00183652
-0.000959097
-0.00102024
0.0020236
4.8068e-07
2.62035e-05
3.4825e-06
5.70721e-05
1.02623e-05
7.03258e-05
2.18712e-05
6.88281e-05
3.9218e-05
5.48796e-05
6.31059e-05
3.0347e-05
9.42529e-05
-3.26008e-06
0.0001333
-4.47067e-05
0.000180809
-9.29559e-05
0.000237257
-0.000147105
0.000303024
-0.000206338
0.000378386
-0.000269889
0.000463504
-0.000337017
0.000558419
-0.000407
0.000663057
-0.000479128
0.000777235
-0.000552713
0.000900671
-0.000627101
0.00103301
-0.000701693
0.00117381
-0.000775975
0.00132261
-0.000849538
0.00147885
-0.000922113
0.00164189
-0.000993581
0.00181091
-0.00106392
0.00198467
-0.00113285
-0.00119646
0.00216089
7.7026e-07
2.54333e-05
4.7641e-06
5.30783e-05
1.33336e-05
6.17563e-05
2.76089e-05
5.45528e-05
4.85667e-05
3.39218e-05
7.7064e-05
1.84969e-06
0.000113854
-4.00505e-05
0.00015959
-9.0442e-05
0.000214812
-0.000148178
0.000279938
-0.000212232
0.000355248
-0.000281648
0.000440867
-0.000355507
0.000536757
-0.000432907
0.000642715
-0.000512958
0.000758372
-0.000594786
0.000883207
-0.000677548
0.00101656
-0.000760452
0.00115765
-0.000842779
0.00130558
-0.000923906
0.00145937
-0.00100333
0.00161792
-0.00108067
0.00178003
-0.00115569
0.00194435
-0.00122823
0.00210934
-0.00129784
-0.00136059
0.00227347
1.10588e-06
2.43274e-05
6.22465e-06
4.79595e-05
1.68005e-05
5.11804e-05
3.40388e-05
3.73145e-05
5.89759e-05
8.98474e-06
9.2509e-05
-3.16835e-05
0.000135405
-8.29463e-05
0.000188293
-0.00014333
0.000251649
-0.000211534
0.000325777
-0.00028636
0.000410788
-0.000366658
0.000506582
-0.000451302
0.000612849
-0.000539174
0.000729063
-0.000629172
0.000854498
-0.00072022
0.000988245
-0.000811295
0.00112924
-0.00090145
0.0012763
-0.000989838
0.00142813
-0.00107574
0.00158338
-0.00115857
0.0017406
-0.0012379
0.00189834
-0.00131343
0.00205506
-0.00138495
0.00220929
-0.00145207
-0.00151137
0.00236006
1.49446e-06
2.28329e-05
7.88546e-06
4.15685e-05
2.07016e-05
3.83643e-05
4.12144e-05
1.68017e-05
7.05066e-05
-2.03074e-05
0.000109494
-7.06704e-05
0.000158923
-0.000132375
0.000219357
-0.000203764
0.000291151
-0.000283328
0.000374426
-0.000369635
0.000469051
-0.000461283
0.000574628
-0.00055688
0.0006905
-0.000655046
0.000815761
-0.000754433
0.000949287
-0.000853746
0.00108977
-0.000951781
0.00123578
-0.00104745
0.00138577
-0.00113983
0.00153818
-0.00122815
0.00169142
-0.00131181
0.00184394
-0.00139042
0.00199423
-0.00146372
0.00214086
-0.00153158
0.00228258
-0.00159379
-0.00164769
0.0024189
1.94213e-06
2.08908e-05
9.76443e-06
3.37462e-05
2.50669e-05
2.30618e-05
4.91724e-05
-7.30383e-06
8.31887e-05
-5.43237e-05
0.000128018
-0.0001155
0.000184346
-0.000188703
0.000252613
-0.000272031
0.000332984
-0.0003637
0.000425325
-0.000461976
0.000529184
-0.000565142
0.000643794
-0.00067149
0.000768096
-0.000779347
0.000900767
-0.000887104
0.00104028
-0.000993261
0.00118497
-0.00109647
0.00133307
-0.00119556
0.00148283
-0.00128959
0.00163253
-0.00137784
0.00178053
-0.00145981
0.00192535
-0.00153523
0.00206563
-0.001604
0.00220023
-0.00166618
0.00232825
-0.0017218
-0.00176903
0.00244959
2.45381e-06
1.8437e-05
1.18746e-05
2.43254e-05
2.99145e-05
5.02189e-06
5.79262e-05
-3.53156e-05
9.70124e-05
-9.34099e-05
0.000148021
-0.000166509
0.00021152
-0.000252202
0.00028776
-0.000348271
0.000376642
-0.000452582
0.000477696
-0.00056303
0.000590079
-0.000677524
0.000712597
-0.000794008
0.000843753
-0.000910503
0.00098181
-0.00102516
0.00112488
-0.00113633
0.00127098
-0.00124257
0.00141818
-0.00134276
0.0015646
-0.00143602
0.00170854
-0.00152178
0.00184849
-0.00159977
0.00198319
-0.00166992
0.00211158
-0.0017324
0.00223292
-0.00178752
0.0023467
-0.00183559
-0.00187556
0.00245322
3.03292e-06
1.54041e-05
1.42229e-05
1.31355e-05
3.52486e-05
-1.60038e-05
6.74624e-05
-6.75294e-05
0.000111922
-0.00013787
0.000169369
-0.000223956
0.000240186
-0.00032302
0.00032436
-0.000432444
0.000421445
-0.000549667
0.000530561
-0.000672146
0.000650415
-0.000797378
0.000779352
-0.000922945
0.000915438
-0.00104659
0.00105656
-0.00116628
0.00120053
-0.0012803
0.00134521
-0.00138725
0.00148858
-0.00148613
0.00162884
-0.00157627
0.00176444
-0.00165738
0.00189414
-0.00172947
0.00201702
-0.00179279
0.00213243
-0.00184781
0.00224003
-0.00189512
0.00233976
-0.00193532
-0.00196802
0.00243222
3.68122e-06
1.17229e-05
1.68097e-05
7.01808e-09
4.10573e-05
-4.02515e-05
7.77377e-05
-0.00010421
0.000127813
-0.000187945
0.000191854
-0.000287996
0.000269984
-0.00040115
0.000361841
-0.000524301
0.000466557
-0.000654383
0.000582779
-0.000788369
0.000708725
-0.000923324
0.000842278
-0.0010565
0.000981108
-0.00118542
0.00112281
-0.00130798
0.00126502
-0.00142251
0.00140555
-0.00152779
0.00154248
-0.00162306
0.00167421
-0.001708
0.0017995
-0.00178268
0.00191748
-0.00184745
0.00202763
-0.00190294
0.00212973
-0.00194991
0.00222385
-0.00198924
0.00231031
-0.00202177
-0.00204765
0.00238993
4.39869e-06
7.32419e-06
1.9628e-05
-1.52223e-05
4.73123e-05
-6.79357e-05
8.86776e-05
-0.000145575
0.00014453
-0.000243798
0.000215195
-0.000358661
0.000300455
-0.000486409
0.000399517
-0.000623364
0.000511023
-0.000765889
0.000633103
-0.000910448
0.00076348
-0.0010537
0.000899615
-0.00119263
0.00103886
-0.00132467
0.00117864
-0.00144776
0.00131655
-0.00156042
0.00145053
-0.00166176
0.00157888
-0.00175141
0.00170034
-0.00182946
0.00181406
-0.0018964
0.0019196
-0.00195299
0.00201684
-0.00200019
0.00210599
-0.00203906
0.00218745
-0.0020707
0.00226182
-0.00209614
-0.00211593
0.0023301
5.18352e-06
2.14067e-06
2.26637e-05
-3.27025e-05
5.39679e-05
-9.924e-05
0.000100177
-0.000191784
0.00016187
-0.000305491
0.000239044
-0.000435835
0.000331057
-0.000578422
0.000436613
-0.000728919
0.000553809
-0.000883085
0.000680246
-0.00103689
0.000813189
-0.00118664
0.000949751
-0.0013292
0.00108709
-0.00146201
0.00122259
-0.00158326
0.00135399
-0.00169182
0.00147946
-0.00178723
0.00159767
-0.00186962
0.00170777
-0.00193956
0.00180935
-0.00199798
0.00190239
-0.00204603
0.00198718
-0.00208497
0.00206423
-0.00211611
0.00213422
-0.00214068
0.00219793
-0.00215985
-0.00217441
0.00225641
6.03209e-06
-3.89142e-06
2.58951e-05
-5.25656e-05
6.09619e-05
-0.000134307
0.0001121
-0.000242922
0.000179583
-0.000372974
0.000262994
-0.000519247
0.000361185
-0.000676613
0.000472295
-0.000840029
0.000593857
-0.00100465
0.000722965
-0.00116599
0.000856495
-0.00132017
0.000991331
-0.00146403
0.00112458
-0.00159526
0.00125375
-0.00171242
0.00137683
-0.0018149
0.00149238
-0.00190278
0.0015995
-0.00197674
0.00169779
-0.00203785
0.00178728
-0.00208747
0.00186833
-0.00212708
0.00194153
-0.00215818
0.00200766
-0.00218223
0.00206753
-0.00220056
0.00212205
-0.00221437
-0.0022246
0.00217224
6.93894e-06
-1.08304e-05
2.92934e-05
-7.492e-05
6.82153e-05
-0.000173229
0.000124284
-0.000298991
0.00019738
-0.00044607
0.000286591
-0.000608457
0.00039019
-0.000780212
0.000505717
-0.000955556
0.000630147
-0.00112908
0.00076013
-0.00129598
0.000892262
-0.0014523
0.00102334
-0.00159511
0.00115058
-0.0017225
0.00127174
-0.00183358
0.0013852
-0.00192836
0.00148998
-0.00200756
0.00158564
-0.0020724
0.00167222
-0.00212443
0.00175014
-0.00216539
0.00182007
-0.00219701
0.00188283
-0.00222094
0.00193933
-0.00223873
0.00199049
-0.00225172
0.0020372
-0.00226107
-0.0022678
0.0020804
7.89673e-06
-1.87271e-05
3.28223e-05
-9.98456e-05
7.56344e-05
-0.000216041
0.000136541
-0.000359897
0.000214943
-0.000524473
0.000309352
-0.000702866
0.000417413
-0.000888273
0.000536057
-0.0010742
0.000661748
-0.00125477
0.000790792
-0.00142502
0.000919641
-0.00158115
0.00104516
-0.00172063
0.00116481
-0.00184215
0.00127674
-0.00194551
0.0013798
-0.00203142
0.00147347
-0.00210123
0.00155779
-0.00215671
0.00163318
-0.00219983
0.00170038
-0.00223259
0.00176027
-0.0022569
0.00181382
-0.0022745
0.001862
-0.00228691
0.00190573
-0.00229545
0.00194585
-0.00230119
-0.00230515
0.00198319
8.89623e-06
-2.76233e-05
3.6439e-05
-0.000127388
8.31113e-05
-0.000262713
0.000148663
-0.000425449
0.000231931
-0.000607741
0.000330784
-0.000801719
0.000442211
-0.000999701
0.000562562
-0.00119455
0.000687874
-0.00138008
0.000814233
-0.00155138
0.000938103
-0.00170502
0.00105656
-0.00183909
0.00116745
-0.00195304
0.00126939
-0.00204745
0.00136172
-0.00212375
0.0014444
-0.00218391
0.00151786
-0.00223018
0.00158287
-0.00226484
0.00164036
-0.00229008
0.00169138
-0.00230791
0.00173694
-0.00232005
0.00177799
-0.00232797
0.00181541
-0.00233287
0.00184996
-0.00233575
-0.00233753
0.00188235
9.92635e-06
-3.75497e-05
4.00943e-05
-0.000157556
9.0527e-05
-0.000313146
0.000160428
-0.00049535
0.000247994
-0.000695307
0.000350403
-0.000904127
0.000463992
-0.00111329
0.00058459
-0.00131515
0.00070792
-0.00150341
0.000829998
-0.00167346
0.00094745
-0.00182248
0.00105771
-0.00194935
0.00115907
-0.0020544
0.00125066
-0.00213904
0.00133233
-0.00220542
0.00140446
-0.00225604
0.00146782
-0.00229353
0.00152339
-0.00232041
0.00157227
-0.00233896
0.00161554
-0.00235118
0.0016542
-0.00235872
0.00168918
-0.00236294
0.00172123
-0.00236492
0.00175104
-0.00236555
-0.00236565
0.00177916
1.09742e-05
-4.85239e-05
4.37334e-05
-0.000190316
9.77537e-05
-0.000367166
0.000171608
-0.000569205
0.000262787
-0.000786486
0.000367757
-0.0010091
0.000482238
-0.00122777
0.000601632
-0.00143454
0.000721485
-0.00162326
0.000837897
-0.00178987
0.000947793
-0.00193237
0.00104905
-0.00205061
0.0011405
-0.00214584
0.00122177
-0.00222031
0.00129316
-0.00227681
0.00135541
-0.00231829
0.00140953
-0.00234766
0.00145668
-0.00236756
0.00149799
-0.00238027
0.00153454
-0.00238773
0.00156728
-0.00239146
0.00159703
-0.00239269
0.00162448
-0.00239237
0.00165017
-0.00239125
-0.00239004
0.00167457
1.20253e-05
-6.05492e-05
4.72977e-05
-0.000225588
0.000104659
-0.000424527
0.000181975
-0.000646521
0.000275984
-0.000880495
0.000382446
-0.00111556
0.000496531
-0.00134186
0.000613337
-0.00155135
0.000728382
-0.00173831
0.000837991
-0.00189948
0.000939505
-0.00203389
0.00103132
-0.00214242
0.00111279
-0.00222731
0.00118403
-0.00229156
0.00124573
-0.0023385
0.0012989
-0.00237146
0.00134472
-0.00239348
0.00138441
-0.00240725
0.00141911
-0.00241497
0.00144983
-0.00241845
0.00147744
-0.00241907
0.00150267
-0.00241792
0.00152609
-0.00241579
0.00154816
-0.00241331
-0.00241109
0.00156921
1.30639e-05
-7.36132e-05
5.07254e-05
-0.000263249
0.00011111
-0.000484911
0.00019131
-0.000726722
0.000287289
-0.000976474
0.000394136
-0.00122241
0.00050657
-0.00145429
0.000619519
-0.0016643
0.000728623
-0.00184741
0.000830561
-0.00200142
0.000923171
-0.0021265
0.00100539
-0.00222465
0.00107709
-0.00229901
0.0011388
-0.00235327
0.00119152
-0.00239122
0.00123645
-0.00241639
0.00127487
-0.00243191
0.00130799
-0.00244037
0.00133691
-0.00244389
0.00136256
-0.00244409
0.00138569
-0.00244221
0.00140694
-0.00243916
0.00142677
-0.00243562
0.00144555
-0.0024321
-0.00242908
0.00146353
1.40732e-05
-8.76864e-05
5.39542e-05
-0.00030313
0.000116976
-0.000547933
0.000199411
-0.000809157
0.000296448
-0.00107351
0.000402573
-0.00132853
0.000512171
-0.00156389
0.000620149
-0.00177228
0.000722404
-0.00194967
0.000816068
-0.00209508
0.000899522
-0.00220995
0.000972244
-0.00229737
0.00103456
-0.00236132
0.00108736
-0.00240607
0.00113186
-0.00243572
0.00116939
-0.00245392
0.00120124
-0.00246376
0.00122859
-0.00246772
0.00125243
-0.00246773
0.0012736
-0.00246526
0.00129276
-0.00246137
0.00131043
-0.00245683
0.00132699
-0.00245218
0.00134273
-0.00244784
-0.00244419
0.00135785
1.5036e-05
-0.000102722
5.69223e-05
-0.000345017
0.000122136
-0.000613146
0.000206101
-0.000893122
0.000303262
-0.00117067
0.000407592
-0.00143286
0.000513277
-0.00166957
0.000615345
-0.00187434
0.000710068
-0.00204439
0.000795099
-0.00218011
0.000869376
-0.00228423
0.000932881
-0.00236087
0.000986338
-0.00241478
0.00103091
-0.00245065
0.00106797
-0.00247277
0.00109887
-0.00248482
0.00112489
-0.00248977
0.00114711
-0.00248994
0.00116645
-0.00248707
0.00118362
-0.00248243
0.00119919
-0.00247694
0.00121358
-0.00247122
0.0012271
-0.0024657