/*--------------------------------*- C++ -*----------------------------------*\
  =========                 |
  \\      /  F ield         | OpenFOAM: The Open Source CFD Toolbox
   \\    /   O peration     | Website:  https://openfoam.org
    \\  /    A nd           | Version:  6.0
     \\/     M anipulation  |
\*---------------------------------------------------------------------------*/
FoamFile
{
    version     2.0;
    format      ascii;
    class       volScalarField;
    location    "16.7";
    object      p;
}
// * * * * * * * * * * * * * * * * * * * * * * * * * * * * * * * * * * * * * //

dimensions      [0 2 -2 0 0 0 0];

internalField   nonuniform List<scalar> 
8000
(
-0.277779
-0.278889
-0.279607
-0.280124
-0.280555
-0.280921
-0.281238
-0.281522
-0.281782
-0.282027
-0.282262
-0.282493
-0.282725
-0.282964
-0.283215
-0.283488
-0.283787
-0.284089
-0.284381
-0.284945
-0.277925
-0.279027
-0.27974
-0.28025
-0.280675
-0.281035
-0.281345
-0.281622
-0.281875
-0.282112
-0.282338
-0.282561
-0.282784
-0.283013
-0.283256
-0.28352
-0.28381
-0.284104
-0.284387
-0.284947
-0.278212
-0.279298
-0.279998
-0.280496
-0.280908
-0.281255
-0.281551
-0.281813
-0.282051
-0.282271
-0.282481
-0.282685
-0.282889
-0.2831
-0.283323
-0.283568
-0.283841
-0.284118
-0.284383
-0.284935
-0.278637
-0.279699
-0.28038
-0.28086
-0.281253
-0.281579
-0.281853
-0.282092
-0.282306
-0.282501
-0.282683
-0.282859
-0.283034
-0.283215
-0.283407
-0.283622
-0.283867
-0.284118
-0.284355
-0.284895
-0.279196
-0.280228
-0.280884
-0.28134
-0.281706
-0.282003
-0.282248
-0.282455
-0.282635
-0.282794
-0.282939
-0.283076
-0.283209
-0.283347
-0.283496
-0.283669
-0.283874
-0.284087
-0.284286
-0.284808
-0.279884
-0.280882
-0.281508
-0.281933
-0.282265
-0.282526
-0.282732
-0.282898
-0.283033
-0.283146
-0.283241
-0.283325
-0.283403
-0.283483
-0.283575
-0.28369
-0.283842
-0.284004
-0.284154
-0.284652
-0.2807
-0.281658
-0.282248
-0.282636
-0.282927
-0.283143
-0.283301
-0.283415
-0.283496
-0.28355
-0.283582
-0.283599
-0.283607
-0.283614
-0.28363
-0.283672
-0.283753
-0.283848
-0.283936
-0.284404
-0.281639
-0.282555
-0.283105
-0.283448
-0.28369
-0.283853
-0.283953
-0.284006
-0.284021
-0.284004
-0.28396
-0.283896
-0.283816
-0.283732
-0.283653
-0.2836
-0.283589
-0.2836
-0.283608
-0.284038
-0.282702
-0.283572
-0.284076
-0.284369
-0.284554
-0.284654
-0.284688
-0.284669
-0.284608
-0.284508
-0.284375
-0.284214
-0.28403
-0.283834
-0.283639
-0.283467
-0.28334
-0.283241
-0.28315
-0.283533
-0.283891
-0.284711
-0.285162
-0.285397
-0.285518
-0.285548
-0.285506
-0.285408
-0.28526
-0.285068
-0.284834
-0.284562
-0.284258
-0.28393
-0.283594
-0.283275
-0.283002
-0.282761
-0.282542
-0.282864
-0.285209
-0.285974
-0.286366
-0.286536
-0.286583
-0.286535
-0.286411
-0.286225
-0.285985
-0.285692
-0.285349
-0.284955
-0.284514
-0.284035
-0.283533
-0.283037
-0.282581
-0.282156
-0.281767
-0.282005
-0.286662
-0.287365
-0.287691
-0.287786
-0.287752
-0.287618
-0.287404
-0.287126
-0.286788
-0.286391
-0.285932
-0.28541
-0.284823
-0.284176
-0.283485
-0.282778
-0.282094
-0.281431
-0.280811
-0.280926
-0.28826
-0.288891
-0.289141
-0.289151
-0.289026
-0.288798
-0.28849
-0.288115
-0.287677
-0.287174
-0.2866
-0.285947
-0.285209
-0.284385
-0.283484
-0.282532
-0.281572
-0.2806
-0.279661
-0.279582
-0.290011
-0.29056
-0.290721
-0.290636
-0.290409
-0.290078
-0.289668
-0.289192
-0.288654
-0.288047
-0.287362
-0.286582
-0.285695
-0.28469
-0.283564
-0.282339
-0.28105
-0.279687
-0.278302
-0.277915
-0.291928
-0.29238
-0.292438
-0.292243
-0.291902
-0.291457
-0.290936
-0.290355
-0.289714
-0.289006
-0.288214
-0.287316
-0.286288
-0.285106
-0.283752
-0.28223
-0.280563
-0.278717
-0.276725
-0.275852
-0.294026
-0.294364
-0.294302
-0.29398
-0.293508
-0.292934
-0.292291
-0.291595
-0.290848
-0.290038
-0.289144
-0.288135
-0.286976
-0.285627
-0.28405
-0.282222
-0.28014
-0.277725
-0.274943
-0.273334
-0.29632
-0.296526
-0.296324
-0.295854
-0.29523
-0.294508
-0.293726
-0.292902
-0.292038
-0.291121
-0.290123
-0.289009
-0.28773
-0.286229
-0.284443
-0.282319
-0.279814
-0.276788
-0.27306
-0.270395
-0.298833
-0.298884
-0.298518
-0.297876
-0.297076
-0.296183
-0.29524
-0.294268
-0.293271
-0.292234
-0.291127
-0.289906
-0.288515
-0.28688
-0.28491
-0.282513
-0.279599
-0.275946
-0.271129
-0.26695
-0.301591
-0.301462
-0.300906
-0.300063
-0.299058
-0.297966
-0.296836
-0.295694
-0.294544
-0.293371
-0.292145
-0.290822
-0.289338
-0.28761
-0.285525
-0.282945
-0.279701
-0.275404
-0.269186
-0.262695
-0.304628
-0.304289
-0.303512
-0.302438
-0.301198
-0.299877
-0.298533
-0.297195
-0.295869
-0.294547
-0.293201
-0.291793
-0.290274
-0.288579
-0.286626
-0.284307
-0.281461
-0.277588
-0.271408
-0.264066
-0.307984
-0.307401
-0.30637
-0.305033
-0.303526
-0.301947
-0.300361
-0.298803
-0.297284
-0.2958
-0.294334
-0.292866
-0.291377
-0.289861
-0.288345
-0.286921
-0.285795
-0.285313
-0.286828
-0.297049
-0.311708
-0.310842
-0.309521
-0.307887
-0.306082
-0.304218
-0.302367
-0.300569
-0.298841
-0.297185
-0.295597
-0.294071
-0.292621
-0.291282
-0.290146
-0.289391
-0.289329
-0.290442
-0.293787
-0.303774
-0.315857
-0.314661
-0.31301
-0.311047
-0.308916
-0.306743
-0.304608
-0.302557
-0.30061
-0.298776
-0.29706
-0.295473
-0.294045
-0.292839
-0.291971
-0.291627
-0.292092
-0.293739
-0.297098
-0.3045
-0.32049
-0.31891
-0.316889
-0.314566
-0.312084
-0.309583
-0.30715
-0.304835
-0.302661
-0.300641
-0.298786
-0.297114
-0.295663
-0.294502
-0.293735
-0.293517
-0.294044
-0.295537
-0.298225
-0.303093
-0.325669
-0.323644
-0.321212
-0.318499
-0.315644
-0.3128
-0.310059
-0.30747
-0.305058
-0.302836
-0.300814
-0.299009
-0.297456
-0.29621
-0.295352
-0.294981
-0.295207
-0.29612
-0.297807
-0.300413
-0.331451
-0.328916
-0.326031
-0.322902
-0.319656
-0.316456
-0.313395
-0.310519
-0.30785
-0.305393
-0.303153
-0.301139
-0.299375
-0.297897
-0.296753
-0.295997
-0.295673
-0.295797
-0.296398
-0.297221
-0.337892
-0.334777
-0.331399
-0.327829
-0.324176
-0.320606
-0.31721
-0.314026
-0.311063
-0.308317
-0.305782
-0.303457
-0.301351
-0.299481
-0.297873
-0.296549
-0.29552
-0.29477
-0.294307
-0.293754
-0.345034
-0.34127
-0.33736
-0.333329
-0.329252
-0.325296
-0.321541
-0.31801
-0.314696
-0.311582
-0.308648
-0.305884
-0.30329
-0.300873
-0.298646
-0.29662
-0.294795
-0.293157
-0.291706
-0.2901
-0.352908
-0.348427
-0.343952
-0.339441
-0.334924
-0.330558
-0.326406
-0.322468
-0.318719
-0.315127
-0.311665
-0.308318
-0.305085
-0.301975
-0.299002
-0.29618
-0.293515
-0.291004
-0.288646
-0.286192
-0.361528
-0.356269
-0.3512
-0.346192
-0.341214
-0.336401
-0.331793
-0.327362
-0.323065
-0.31886
-0.31472
-0.310637
-0.306621
-0.302692
-0.298876
-0.295198
-0.291676
-0.28832
-0.285129
-0.281944
-0.37089
-0.364799
-0.359113
-0.353593
-0.348123
-0.34281
-0.337659
-0.332619
-0.32763
-0.322654
-0.317677
-0.312709
-0.307781
-0.302933
-0.298209
-0.293645
-0.289268
-0.2851
-0.281133
-0.277278
-0.380961
-0.373997
-0.36768
-0.36163
-0.355625
-0.349732
-0.343924
-0.338126
-0.332279
-0.326361
-0.320387
-0.314399
-0.308457
-0.302622
-0.296953
-0.291497
-0.286285
-0.281338
-0.276643
-0.272152
-0.391685
-0.38382
-0.376862
-0.370256
-0.363654
-0.357076
-0.350463
-0.343732
-0.336845
-0.329815
-0.3227
-0.315582
-0.308552
-0.301693
-0.295072
-0.288738
-0.28272
-0.277034
-0.271651
-0.266554
-0.402967
-0.394193
-0.386588
-0.379391
-0.372107
-0.364706
-0.357111
-0.349254
-0.34114
-0.33284
-0.324465
-0.31614
-0.307984
-0.300093
-0.292535
-0.285354
-0.27857
-0.272187
-0.266159
-0.260487
-0.414681
-0.405003
-0.396748
-0.388911
-0.380832
-0.37244
-0.363664
-0.354482
-0.344967
-0.335263
-0.325543
-0.31597
-0.306681
-0.297776
-0.289316
-0.281331
-0.273828
-0.266795
-0.260165
-0.253959
-0.426658
-0.416101
-0.407193
-0.398645
-0.38963
-0.380055
-0.369889
-0.359189
-0.348123
-0.336919
-0.325805
-0.314977
-0.304578
-0.2947
-0.285387
-0.276652
-0.268483
-0.260851
-0.253666
-0.246973
-0.438689
-0.427297
-0.417725
-0.408375
-0.398258
-0.387292
-0.375529
-0.363141
-0.350411
-0.33765
-0.325136
-0.313079
-0.301617
-0.290822
-0.280718
-0.271292
-0.262515
-0.254339
-0.246649
-0.239523
-0.450524
-0.438355
-0.428103
-0.417838
-0.406435
-0.393867
-0.380318
-0.366109
-0.351645
-0.337315
-0.323429
-0.310198
-0.297738
-0.286097
-0.27527
-0.26522
-0.255897
-0.247235
-0.239095
-0.231596
-0.461876
-0.449002
-0.438045
-0.426734
-0.413849
-0.399479
-0.383989
-0.367872
-0.351652
-0.335783
-0.320587
-0.306258
-0.292884
-0.280477
-0.269002
-0.258398
-0.248596
-0.239509
-0.230977
-0.22317
-0.472425
-0.45893
-0.447231
-0.434728
-0.42017
-0.403826
-0.386285
-0.368222
-0.350274
-0.332935
-0.316519
-0.301189
-0.286994
-0.273909
-0.261867
-0.250784
-0.240573
-0.231126
-0.222263
-0.214215
-0.481823
-0.467799
-0.455313
-0.441467
-0.425062
-0.406611
-0.386962
-0.366973
-0.34737
-0.328662
-0.31114
-0.29492
-0.280008
-0.26634
-0.253818
-0.242335
-0.231788
-0.222049
-0.21292
-0.204701
-0.489705
-0.475247
-0.461922
-0.44659
-0.428193
-0.407555
-0.385801
-0.363958
-0.342814
-0.322869
-0.304371
-0.287386
-0.271868
-0.257718
-0.244807
-0.233007
-0.222201
-0.212241
-0.202914
-0.194596
-0.495697
-0.480903
-0.466687
-0.44974
-0.42925
-0.406405
-0.382607
-0.35903
-0.336494
-0.315468
-0.296141
-0.278522
-0.262518
-0.247991
-0.234786
-0.222758
-0.211774
-0.201667
-0.192213
-0.183869
-0.499428
-0.484398
-0.46924
-0.450577
-0.427947
-0.402935
-0.377213
-0.352066
-0.328317
-0.306382
-0.286384
-0.268272
-0.251906
-0.237113
-0.223716
-0.21155
-0.200473
-0.190297
-0.180791
-0.172497
-0.500541
-0.48537
-0.469233
-0.448793
-0.424033
-0.396958
-0.369481
-0.342964
-0.318203
-0.295547
-0.275045
-0.256586
-0.239988
-0.225045
-0.211559
-0.199353
-0.188271
-0.178106
-0.168625
-0.160458
-0.498702
-0.483487
-0.466348
-0.444114
-0.417297
-0.388319
-0.359302
-0.331645
-0.306092
-0.28291
-0.262077
-0.243424
-0.226726
-0.211753
-0.198287
-0.18614
-0.175145
-0.165077
-0.155703
-0.14774
-0.493615
-0.478448
-0.460308
-0.436314
-0.407572
-0.376905
-0.346599
-0.318053
-0.291938
-0.268434
-0.247447
-0.228754
-0.212095
-0.197214
-0.183881
-0.171897
-0.161084
-0.151199
-0.142017
-0.134339
-0.485024
-0.469997
-0.450885
-0.425217
-0.394738
-0.36264
-0.331323
-0.302153
-0.275714
-0.252096
-0.231133
-0.212557
-0.196076
-0.181415
-0.16833
-0.156615
-0.146082
-0.136473
-0.12757
-0.120254
-0.472728
-0.457932
-0.437906
-0.410703
-0.378725
-0.345487
-0.313456
-0.283937
-0.257413
-0.233887
-0.213128
-0.194827
-0.178665
-0.164352
-0.151633
-0.140295
-0.130145
-0.120905
-0.112374
-0.105498
-0.456581
-0.442107
-0.421259
-0.392706
-0.359507
-0.325446
-0.29301
-0.263417
-0.237047
-0.213817
-0.193439
-0.175569
-0.159867
-0.146031
-0.133797
-0.122949
-0.113285
-0.104515
-0.0964503
-0.0900965
-0.436502
-0.422441
-0.400893
-0.371218
-0.337109
-0.302556
-0.270026
-0.240631
-0.214647
-0.191911
-0.172087
-0.154801
-0.139698
-0.126466
-0.114837
-0.104593
-0.0955225
-0.0873279
-0.0798331
-0.0740888
-0.41247
-0.398917
-0.37682
-0.346285
-0.311597
-0.276893
-0.244574
-0.215642
-0.190266
-0.168214
-0.149108
-0.132552
-0.118182
-0.105679
-0.0947742
-0.0852464
-0.07688
-0.0693705
-0.0625582
-0.0575189
-0.384535
-0.371584
-0.349115
-0.318007
-0.283084
-0.248564
-0.216756
-0.188536
-0.163977
-0.142785
-0.124552
-0.108865
-0.0953535
-0.0836988
-0.0736318
-0.0649312
-0.0573783
-0.0506687
-0.044658
-0.0404105
-0.352807
-0.340553
-0.31791
-0.286536
-0.251724
-0.217716
-0.186699
-0.159424
-0.135875
-0.115706
-0.0984842
-0.08379
-0.0712527
-0.0605555
-0.0514331
-0.0436662
-0.0370369
-0.0312473
-0.0261563
-0.0227548
-0.31746
-0.306
-0.283394
-0.252069
-0.21771
-0.184524
-0.154561
-0.128445
-0.106079
-0.0870756
-0.0709871
-0.0573925
-0.0459263
-0.0362799
-0.028196
-0.0214616
-0.0158657
-0.0111204
-0.00706297
-0.00455178
-0.278726
-0.268154
-0.245808
-0.214847
-0.18127
-0.149199
-0.120529
-0.0957626
-0.0747311
-0.0570164
-0.042162
-0.0297521
-0.0194323
-0.0109077
-0.00393609
0.00168303
0.00614844
0.00973126
0.0126166
0.0140695
-0.236891
-0.227299
-0.205438
-0.175151
-0.142667
-0.11198
-0.0848173
-0.0615686
-0.0420013
-0.0256748
-0.0121317
-0.00096698
0.00815665
0.0155123
0.0213192
0.0257619
0.0290223
0.0313163
0.0327642
0.0327116
-0.192286
-0.183763
-0.16261
-0.133295
-0.102194
-0.0731337
-0.0476699
-0.0260823
-0.00808522
0.00677847
0.018962
0.0288549
0.0367707
0.0429498
0.0475772
0.050816
0.0528075
0.0535917
0.0530588
0.0509311
-0.145286
-0.137913
-0.117686
-0.0896232
-0.0601711
-0.0329555
-0.0093573
0.0104462
0.0267877
0.0401375
0.0509449
0.0595862
0.0663519
0.071448
0.0750224
0.0772065
0.0780272
0.0771272
0.0740409
0.0697855
-0.0962978
-0.0901484
-0.0710538
-0.0445031
-0.016939
0.00823902
0.0298247
0.0477361
0.062347
0.0741405
0.0835669
0.0910003
0.0967286
0.100957
0.103845
0.105542
0.105949
0.104218
0.0996444
0.095034
-0.0457545
-0.0408943
-0.0231215
0.00168236
0.0271469
0.0501191
0.0695636
0.0854849
0.0982913
0.108475
0.116487
0.122705
0.127433
0.130913
0.133389
0.135138
0.136132
0.135391
0.132652
0.136206
0.00589984
0.00941351
0.0256916
0.0485409
0.0717238
0.0923473
0.109541
0.123386
0.134317
0.142827
0.149362
0.154295
0.157925
0.160509
0.162306
0.16358
0.164319
0.16405
0.163669
0.169377
0.0582026
0.0603243
0.0749575
0.0956758
0.116427
0.134587
0.149442
0.16114
0.170134
0.176914
0.181916
0.185502
0.187968
0.189567
0.190548
0.191132
0.191301
0.190763
0.190426
0.195021
0.110689
0.111385
0.124249
0.142693
0.160896
0.176507
0.188959
0.198457
0.205465
0.210463
0.213872
0.216039
0.217246
0.217732
0.217729
0.217434
0.21684
0.215726
0.214839
0.217935
0.162895
0.162147
0.173142
0.189205
0.20478
0.217787
0.227798
0.235067
0.240059
0.243244
0.245021
0.245719
0.2456
0.244887
0.243783
0.242456
0.24089
0.238888
0.237138
0.238838
0.214364
0.212165
0.221224
0.234834
0.247736
0.258118
0.26568
0.270713
0.273684
0.275043
0.27517
0.274371
0.27289
0.270928
0.268666
0.266246
0.263635
0.260658
0.257969
0.258331
0.264651
0.261011
0.268092
0.279218
0.289439
0.297207
0.302338
0.305156
0.306122
0.305668
0.30415
0.301854
0.299001
0.295773
0.29233
0.288789
0.285108
0.281139
0.277508
0.276605
0.313325
0.308267
0.313363
0.322006
0.329576
0.334773
0.337521
0.33817
0.337173
0.33494
0.331808
0.328037
0.32383
0.31935
0.314738
0.31009
0.305359
0.300423
0.295875
0.293769
0.359975
0.353537
0.356668
0.362869
0.367849
0.37055
0.37099
0.369542
0.366646
0.362693
0.357995
0.352794
0.347273
0.341578
0.335831
0.330112
0.324373
0.318517
0.313089
0.309844
0.404209
0.396444
0.39766
0.401494
0.403981
0.404289
0.402523
0.39907
0.394361
0.388765
0.382573
0.376005
0.369229
0.362373
0.355544
0.348807
0.342117
0.335396
0.329137
0.324816
0.44566
0.436637
0.436015
0.437587
0.437708
0.435754
0.431908
0.426567
0.420151
0.413007
0.405407
0.397553
0.389594
0.381647
0.373802
0.366113
0.358537
0.351015
0.343975
0.338646
0.483987
0.473787
0.471432
0.47088
0.46879
0.46473
0.458949
0.451856
0.443854
0.435274
0.426368
0.417321
0.408268
0.39931
0.390525
0.381958
0.37357
0.365313
0.357552
0.351287
0.518876
0.507594
0.503634
0.501123
0.497003
0.491014
0.483466
0.474772
0.465324
0.455434
0.445336
0.435201
0.42515
0.415272
0.405633
0.396269
0.387146
0.378227
0.369807
0.362686
0.550045
0.537788
0.532372
0.528092
0.522145
0.514427
0.505294
0.495167
0.484424
0.473362
0.462199
0.451091
0.440148
0.429448
0.419047
0.408973
0.399199
0.389692
0.380681
0.372791
0.577242
0.564126
0.557426
0.551588
0.544039
0.534805
0.524288
0.512908
0.501034
0.488948
0.476854
0.464897
0.453177
0.44176
0.430695
0.420003
0.409664
0.399646
0.390118
0.381553
0.600246
0.586401
0.578603
0.571437
0.562527
0.552008
0.540317
0.527877
0.515045
0.502093
0.489212
0.476537
0.464158
0.452136
0.440509
0.429297
0.418481
0.408033
0.398066
0.388926
0.618875
0.604436
0.595742
0.587495
0.577478
0.565917
0.553274
0.539974
0.526367
0.512712
0.499194
0.485937
0.473026
0.460513
0.448433
0.4368
0.425599
0.414804
0.40448
0.394873
0.632979
0.618088
0.608713
0.599644
0.588786
0.576434
0.563071
0.54912
0.534925
0.520739
0.506737
0.493041
0.479726
0.466843
0.45442
0.442468
0.430977
0.419919
0.409324
0.399361
0.642446
0.627251
0.617415
0.607793
0.596371
0.583488
0.56964
0.555252
0.540663
0.52612
0.511794
0.497802
0.484217
0.471085
0.458432
0.446266
0.434581
0.423348
0.412569
0.402367
0.6472
0.631851
0.621785
0.611884
0.600178
0.587028
0.572938
0.55833
0.543542
0.52882
0.514332
0.500192
0.486471
0.473214
0.460445
0.448172
0.436389
0.425068
0.414197
0.403875
0.647203
0.631854
0.621788
0.611887
0.600181
0.587031
0.57294
0.558332
0.543545
0.528822
0.514334
0.500194
0.486473
0.473216
0.460447
0.448174
0.436391
0.42507
0.414199
0.403877
0.642455
0.627259
0.617424
0.607801
0.596379
0.583495
0.569648
0.555259
0.54067
0.526126
0.511801
0.497809
0.484224
0.471092
0.458438
0.446272
0.434586
0.423353
0.412575
0.402373
0.632994
0.618103
0.608727
0.599657
0.5888
0.576447
0.563083
0.549132
0.534936
0.52075
0.506748
0.493051
0.479737
0.466853
0.45443
0.442478
0.430986
0.419929
0.409333
0.39937
0.618896
0.604456
0.595762
0.587515
0.577497
0.565934
0.553291
0.539991
0.526383
0.512728
0.499209
0.485952
0.473041
0.460528
0.448448
0.436814
0.425613
0.414818
0.404493
0.394886
0.600273
0.586427
0.578629
0.571462
0.56255
0.552031
0.540339
0.527898
0.515066
0.502113
0.489232
0.476556
0.464177
0.452154
0.440527
0.429315
0.418498
0.40805
0.398083
0.388942
0.577274
0.564159
0.557457
0.551618
0.544068
0.534833
0.524315
0.512934
0.50106
0.488973
0.476879
0.464921
0.4532
0.441783
0.430717
0.420025
0.409685
0.399667
0.390139
0.381573
0.550084
0.537826
0.532409
0.528127
0.52218
0.51446
0.505326
0.495198
0.484455
0.473392
0.462228
0.451119
0.440176
0.429475
0.419074
0.408999
0.399225
0.389717
0.380706
0.372815
0.518921
0.507638
0.503676
0.501164
0.497042
0.491053
0.483503
0.474808
0.465359
0.455468
0.44537
0.435234
0.425182
0.415303
0.405663
0.396298
0.387176
0.378256
0.369835
0.362713
0.484038
0.473837
0.47148
0.470927
0.468835
0.464773
0.458991
0.451896
0.443894
0.435313
0.426406
0.417358
0.408304
0.399345
0.39056
0.381991
0.373603
0.365346
0.357584
0.351318
0.445717
0.436693
0.43607
0.43764
0.437759
0.435803
0.431955
0.426613
0.420195
0.41305
0.405449
0.397594
0.389635
0.381686
0.373841
0.366151
0.358574
0.351051
0.344011
0.338681
0.404272
0.396506
0.39772
0.401552
0.404036
0.404342
0.402575
0.399121
0.39441
0.388813
0.382619
0.376051
0.369273
0.362417
0.355587
0.348849
0.342158
0.335436
0.329176
0.324854
0.360044
0.353605
0.356734
0.362933
0.36791
0.370609
0.371047
0.369597
0.366699
0.362745
0.358046
0.352844
0.347322
0.341625
0.335878
0.330158
0.324418
0.318561
0.313133
0.309887
0.3134
0.308341
0.313435
0.322076
0.329642
0.334837
0.337583
0.33823
0.337231
0.334997
0.331863
0.328091
0.323883
0.319402
0.314789
0.310139
0.305407
0.300471
0.295922
0.293815
0.264732
0.261091
0.26817
0.279293
0.289511
0.297277
0.302405
0.305221
0.306185
0.305729
0.304211
0.301913
0.299059
0.295829
0.292385
0.288843
0.285161
0.281191
0.277559
0.276655
0.214451
0.212252
0.221307
0.234915
0.247814
0.258193
0.265752
0.270783
0.273752
0.275109
0.275235
0.274435
0.272952
0.270988
0.268725
0.266304
0.263691
0.260714
0.258024
0.258384
0.162988
0.162239
0.173232
0.189292
0.204863
0.217867
0.227876
0.235142
0.240132
0.243315
0.245091
0.245787
0.245667
0.244952
0.243846
0.242518
0.240951
0.238948
0.237197
0.238895
0.110789
0.111484
0.124345
0.142785
0.160985
0.176593
0.189042
0.198538
0.205543
0.210539
0.213946
0.216111
0.217316
0.217802
0.217797
0.2175
0.216905
0.21579
0.214902
0.217996
0.0583089
0.0604293
0.0750597
0.0957742
0.116522
0.134678
0.14953
0.161226
0.170217
0.176995
0.181994
0.185579
0.188043
0.18964
0.19062
0.191203
0.191371
0.190831
0.190493
0.195086
0.00601244
0.00952488
0.0257999
0.0486453
0.0718242
0.0924441
0.109635
0.123477
0.134405
0.142913
0.149446
0.154376
0.158005
0.160587
0.162383
0.163656
0.164393
0.164122
0.16374
0.169446
-0.0456355
-0.0407766
-0.0230071
0.00179268
0.027253
0.0502213
0.0696624
0.0855807
0.0983844
0.108565
0.116575
0.122792
0.127518
0.130996
0.13347
0.135217
0.136211
0.135468
0.132729
0.13628
-0.0961725
-0.0900245
-0.0709332
-0.0443868
-0.0168271
0.00834686
0.0299289
0.0478371
0.0624451
0.0742361
0.0836601
0.0910914
0.0968178
0.101044
0.10393
0.105626
0.106033
0.1043
0.099726
0.0951154
-0.145155
-0.137782
-0.117559
-0.0895009
-0.0600534
-0.0328421
-0.00924773
0.0105524
0.0268908
0.0402379
0.051043
0.059682
0.0664457
0.0715401
0.0751129
0.0772956
0.078115
0.077214
0.0741269
0.0698712
-0.192148
-0.183626
-0.162477
-0.133166
-0.10207
-0.0730147
-0.047555
-0.0259709
-0.00797703
0.00688381
0.0190648
0.0289554
0.0368691
0.0430464
0.0476721
0.0509093
0.0528995
0.0536824
0.0531485
0.0510202
-0.236747
-0.227156
-0.205299
-0.175016
-0.142537
-0.111855
-0.084697
-0.061452
-0.0418881
-0.0255646
-0.0120242
-0.000861883
0.00825955
0.0156132
0.0214183
0.0258593
0.0291183
0.0314108
0.0328573
0.0328039
-0.278576
-0.268005
-0.245663
-0.214707
-0.181135
-0.149069
-0.120403
-0.095641
-0.0746129
-0.0569014
-0.0420499
-0.0296425
-0.019325
-0.0108025
-0.00383285
0.00178448
0.00624822
0.00982945
0.0127133
0.0141651
-0.317304
-0.305845
-0.283243
-0.251923
-0.217569
-0.184389
-0.15443
-0.128318
-0.105955
-0.0869558
-0.0708703
-0.0572784
-0.0458147
-0.0361705
-0.0280887
-0.0213562
-0.0157621
-0.0110185
-0.00696275
-0.00445275
-0.352644
-0.340392
-0.317753
-0.286384
-0.251578
-0.217575
-0.186562
-0.159292
-0.135747
-0.115582
-0.0983629
-0.0836715
-0.0711367
-0.0604419
-0.0513218
-0.0435569
-0.0369295
-0.0311419
-0.0260526
-0.0226525
-0.384367
-0.371417
-0.348952
-0.31785
-0.282932
-0.248418
-0.216614
-0.188399
-0.163844
-0.142656
-0.124426
-0.108742
-0.0952333
-0.0835812
-0.0735165
-0.0648181
-0.0572673
-0.0505596
-0.0445508
-0.0403048
-0.412296
-0.398745
-0.376651
-0.346121
-0.311439
-0.276741
-0.244428
-0.2155
-0.190128
-0.16808
-0.148978
-0.132425
-0.118058
-0.105557
-0.094655
-0.0851295
-0.0767653
-0.0692579
-0.0624476
-0.0574099
-0.436322
-0.422263
-0.400718
-0.371049
-0.336946
-0.302399
-0.269874
-0.240485
-0.214505
-0.191773
-0.171953
-0.154669
-0.139569
-0.12634
-0.114714
-0.104472
-0.0954041
-0.0872116
-0.079719
-0.0739764
-0.456397
-0.441924
-0.421079
-0.392532
-0.359339
-0.325284
-0.292853
-0.263265
-0.2369
-0.213674
-0.1933
-0.175433
-0.159735
-0.145901
-0.13367
-0.122825
-0.113163
-0.104395
-0.0963327
-0.0899807
-0.472539
-0.457744
-0.437721
-0.410523
-0.378551
-0.345319
-0.313294
-0.28378
-0.257261
-0.233739
-0.212985
-0.194687
-0.178528
-0.164218
-0.151502
-0.140167
-0.130019
-0.120782
-0.112252
-0.105379
-0.484831
-0.469805
-0.450695
-0.425033
-0.39456
-0.362468
-0.331156
-0.301992
-0.275558
-0.251944
-0.230985
-0.212413
-0.195935
-0.181278
-0.168195
-0.156482
-0.145953
-0.136346
-0.127445
-0.120131
-0.493417
-0.478251
-0.460114
-0.436125
-0.407389
-0.376728
-0.346428
-0.317887
-0.291777
-0.268278
-0.247295
-0.228605
-0.21195
-0.197073
-0.183742
-0.171761
-0.160951
-0.151068
-0.141889
-0.134212
-0.498501
-0.483287
-0.46615
-0.443921
-0.417109
-0.388138
-0.359127
-0.331475
-0.305927
-0.28275
-0.261921
-0.243271
-0.226577
-0.211607
-0.198144
-0.186
-0.175008
-0.164942
-0.155571
-0.147611
-0.500336
-0.485166
-0.469032
-0.448596
-0.423841
-0.396772
-0.369301
-0.34279
-0.318034
-0.295382
-0.274884
-0.25643
-0.239835
-0.224895
-0.211412
-0.199209
-0.18813
-0.177968
-0.168489
-0.160324
-0.49922
-0.48419
-0.469035
-0.450377
-0.427752
-0.402745
-0.377029
-0.351887
-0.328143
-0.306213
-0.28622
-0.268111
-0.251749
-0.236959
-0.223565
-0.211403
-0.200328
-0.190155
-0.180651
-0.172359
-0.495486
-0.480694
-0.466479
-0.449536
-0.429051
-0.406211
-0.382419
-0.358847
-0.336316
-0.315295
-0.295972
-0.278357
-0.262357
-0.247833
-0.234632
-0.222606
-0.211625
-0.201521
-0.19207
-0.183728
-0.489492
-0.475035
-0.461712
-0.446383
-0.42799
-0.407358
-0.38561
-0.363771
-0.342632
-0.322692
-0.304198
-0.287217
-0.271703
-0.257556
-0.244648
-0.232851
-0.222048
-0.212091
-0.202767
-0.194451
-0.481609
-0.467585
-0.455101
-0.441259
-0.424857
-0.406411
-0.386767
-0.366783
-0.347185
-0.328482
-0.310963
-0.294747
-0.279839
-0.266174
-0.253655
-0.242175
-0.231631
-0.221895
-0.212769
-0.204552
-0.472209
-0.458715
-0.447018
-0.434517
-0.419963
-0.403623
-0.386086
-0.368029
-0.350085
-0.33275
-0.316338
-0.301012
-0.28682
-0.273739
-0.2617
-0.25062
-0.240411
-0.230967
-0.222107
-0.214062
-0.46166
-0.448787
-0.437831
-0.426522
-0.41364
-0.399274
-0.383788
-0.367675
-0.35146
-0.335595
-0.320403
-0.306077
-0.292706
-0.280302
-0.26883
-0.258229
-0.24843
-0.239346
-0.230817
-0.223012
-0.450307
-0.438139
-0.427889
-0.417626
-0.406225
-0.39366
-0.380115
-0.36591
-0.35145
-0.337123
-0.323241
-0.310013
-0.297557
-0.285918
-0.275094
-0.265047
-0.255727
-0.247067
-0.23893
-0.231434
-0.438472
-0.427081
-0.41751
-0.408162
-0.398047
-0.387084
-0.375324
-0.36294
-0.350213
-0.337455
-0.324944
-0.31289
-0.301431
-0.290639
-0.280537
-0.271115
-0.26234
-0.254166
-0.246479
-0.239355
-0.426442
-0.415886
-0.406978
-0.398432
-0.389419
-0.379845
-0.369682
-0.358985
-0.347922
-0.33672
-0.32561
-0.314785
-0.304388
-0.294512
-0.285202
-0.27647
-0.268303
-0.260674
-0.253491
-0.2468
-0.414465
-0.404788
-0.396535
-0.388698
-0.380621
-0.37223
-0.363456
-0.354276
-0.344764
-0.335062
-0.325344
-0.315773
-0.306487
-0.297584
-0.289126
-0.281144
-0.273643
-0.266612
-0.259985
-0.25378
-0.402752
-0.393979
-0.386375
-0.379179
-0.371896
-0.364496
-0.356902
-0.349047
-0.340935
-0.332636
-0.324263
-0.31594
-0.307786
-0.299896
-0.29234
-0.285161
-0.278379
-0.271998
-0.265972
-0.260303
-0.39147
-0.383607
-0.37665
-0.370045
-0.363444
-0.356867
-0.350254
-0.343525
-0.336638
-0.329609
-0.322495
-0.315379
-0.30835
-0.301492
-0.294872
-0.28854
-0.282523
-0.276839
-0.271458
-0.266363
-0.380748
-0.373785
-0.367469
-0.361419
-0.355415
-0.349523
-0.343716
-0.337918
-0.332071
-0.326154
-0.32018
-0.314193
-0.30825
-0.302416
-0.296749
-0.291293
-0.286082
-0.281137
-0.276443
-0.271954
-0.370677
-0.364588
-0.358903
-0.353384
-0.347915
-0.342602
-0.337451
-0.332411
-0.327422
-0.322445
-0.317467
-0.312499
-0.30757
-0.302723
-0.297999
-0.293435
-0.289059
-0.284892
-0.280926
-0.277072
-0.361317
-0.356059
-0.350991
-0.345984
-0.341006
-0.336194
-0.331585
-0.327154
-0.322855
-0.318649
-0.314508
-0.310424
-0.306407
-0.302477
-0.298661
-0.294983
-0.29146
-0.288105
-0.284914
-0.28173
-0.352697
-0.348218
-0.343744
-0.339234
-0.334718
-0.330351
-0.326199
-0.32226
-0.318509
-0.314915
-0.311451
-0.308102
-0.304867
-0.301755
-0.298781
-0.295958
-0.293292
-0.290781
-0.288423
-0.285969
-0.344824
-0.341062
-0.337153
-0.333123
-0.329047
-0.32509
-0.321335
-0.317802
-0.314486
-0.311369
-0.308432
-0.305666
-0.303068
-0.300648
-0.298419
-0.296391
-0.294565
-0.292925
-0.291474
-0.289868
-0.337683
-0.33457
-0.331193
-0.327624
-0.323971
-0.320401
-0.317004
-0.313818
-0.310852
-0.308103
-0.305564
-0.303235
-0.301125
-0.299252
-0.29764
-0.296313
-0.295282
-0.29453
-0.294067
-0.293513
-0.331242
-0.328709
-0.325826
-0.322697
-0.319452
-0.316251
-0.313189
-0.310311
-0.307638
-0.305177
-0.302933
-0.300914
-0.299146
-0.297663
-0.296514
-0.295754
-0.295427
-0.295549
-0.296148
-0.29697
-0.32546
-0.323437
-0.321007
-0.318295
-0.315441
-0.312596
-0.309852
-0.307261
-0.304845
-0.302619
-0.300591
-0.298781
-0.297222
-0.295971
-0.295107
-0.294732
-0.294953
-0.295863
-0.297548
-0.300152
-0.320282
-0.318704
-0.316685
-0.314362
-0.311881
-0.309379
-0.306944
-0.304624
-0.302446
-0.300422
-0.298561
-0.296882
-0.295425
-0.294257
-0.293485
-0.293261
-0.293783
-0.295271
-0.297956
-0.302822
-0.315649
-0.314456
-0.312807
-0.310844
-0.308713
-0.306539
-0.304401
-0.302345
-0.300393
-0.298554
-0.296831
-0.295237
-0.293802
-0.29259
-0.291715
-0.291364
-0.291823
-0.293464
-0.296819
-0.30422
-0.311501
-0.310639
-0.309319
-0.307685
-0.305879
-0.304013
-0.302159
-0.300356
-0.298623
-0.296961
-0.295365
-0.293832
-0.292374
-0.291028
-0.289885
-0.289122
-0.289053
-0.29016
-0.293499
-0.303484
-0.307778
-0.3072
-0.30617
-0.304833
-0.303324
-0.301743
-0.300153
-0.298589
-0.297064
-0.295573
-0.294099
-0.292623
-0.291126
-0.289603
-0.288078
-0.286647
-0.285513
-0.285024
-0.286532
-0.296749
-0.304426
-0.30409
-0.303314
-0.30224
-0.300998
-0.299674
-0.298325
-0.296981
-0.295649
-0.294319
-0.292964
-0.291549
-0.290021
-0.288318
-0.286356
-0.284029
-0.281175
-0.277293
-0.271105
-0.263753
-0.301394
-0.301267
-0.300712
-0.299869
-0.298861
-0.297765
-0.29663
-0.295481
-0.294323
-0.293143
-0.291909
-0.290577
-0.289084
-0.287347
-0.285254
-0.282666
-0.279414
-0.27511
-0.268885
-0.262387
-0.298642
-0.298695
-0.29833
-0.297686
-0.296883
-0.295985
-0.295037
-0.294058
-0.293054
-0.292008
-0.290892
-0.289662
-0.288262
-0.286618
-0.28464
-0.282236
-0.279315
-0.275655
-0.270834
-0.266651
-0.296136
-0.296344
-0.296142
-0.29567
-0.295043
-0.294316
-0.293528
-0.292697
-0.291825
-0.290898
-0.289892
-0.288768
-0.28748
-0.285971
-0.284177
-0.282046
-0.279535
-0.276503
-0.272774
-0.270107
-0.293851
-0.29419
-0.294128
-0.293804
-0.293328
-0.292749
-0.292099
-0.291396
-0.290641
-0.289822
-0.288919
-0.287901
-0.286734
-0.285376
-0.283791
-0.281957
-0.279869
-0.27745
-0.274667
-0.273057
-0.291764
-0.292216
-0.292273
-0.292075
-0.29173
-0.29128
-0.290753
-0.290164
-0.289516
-0.288799
-0.287998
-0.287092
-0.286055
-0.284864
-0.283503
-0.281975
-0.280303
-0.278454
-0.276462
-0.275588
-0.289858
-0.290406
-0.290565
-0.290477
-0.290247
-0.289911
-0.289494
-0.289011
-0.288465
-0.287851
-0.287156
-0.286369
-0.285474
-0.284461
-0.283329
-0.282098
-0.280804
-0.279438
-0.278054
-0.277665
-0.288119
-0.288749
-0.288996
-0.289004
-0.288875
-0.288642
-0.288327
-0.287945
-0.2875
-0.28699
-0.286408
-0.285747
-0.285002
-0.28417
-0.283263
-0.282306
-0.281341
-0.280367
-0.279427
-0.279347
-0.286535
-0.287235
-0.287558
-0.28765
-0.287612
-0.287473
-0.287254
-0.286969
-0.286624
-0.28622
-0.285754
-0.285224
-0.28463
-0.283978
-0.28328
-0.282569
-0.281881
-0.281215
-0.280595
-0.280707
-0.285094
-0.285856
-0.286246
-0.286412
-0.286455
-0.286402
-0.286273
-0.286081
-0.285835
-0.285536
-0.285185
-0.284785
-0.284338
-0.283853
-0.283346
-0.282846
-0.282385
-0.281958
-0.281568
-0.281805
-0.28379
-0.284606
-0.285054
-0.285286
-0.285402
-0.285428
-0.285382
-0.285278
-0.285125
-0.284927
-0.284687
-0.284409
-0.284099
-0.283765
-0.283425
-0.283102
-0.282825
-0.282582
-0.282361
-0.282682
-0.282614
-0.283479
-0.28398
-0.28427
-0.284451