/*--------------------------------*- C++ -*----------------------------------*\
  =========                 |
  \\      /  F ield         | OpenFOAM: The Open Source CFD Toolbox
   \\    /   O peration     | Website:  https://openfoam.org
    \\  /    A nd           | Version:  6.0
     \\/     M anipulation  |
\*---------------------------------------------------------------------------*/
FoamFile
{
    version     2.0;
    format      ascii;
    class       volVectorField;
    location    "59";
    object      U;
}
// * * * * * * * * * * * * * * * * * * * * * * * * * * * * * * * * * * * * * //

dimensions      [0 1 -1 0 0 0 0];

internalField   nonuniform List<vector> 
8000
(
(-0.000473274 0.00523263 -3.61629e-21)
(-0.00233824 0.0128514 1.93388e-20)
(-0.00565279 0.0183236 -2.35064e-20)
(-0.00966645 0.0221601 1.78954e-20)
(-0.0139736 0.024773 8.70775e-21)
(-0.0183368 0.0264995 -2.61602e-20)
(-0.0225851 0.0276114 -2.30831e-21)
(-0.0266079 0.0283235 -8.12896e-22)
(-0.0303454 0.0288026 -1.35717e-20)
(-0.0337757 0.0291755 -7.34853e-21)
(-0.0369059 0.0295366 5.48141e-21)
(-0.0397643 0.0299543 2.08036e-20)
(-0.0423949 0.0304765 -1.55631e-21)
(-0.0448512 0.0311348 2.23501e-21)
(-0.0471936 0.0319472 -2.09581e-20)
(-0.0494914 0.0329209 1.29157e-20)
(-0.0518157 0.0340531 -1.84913e-20)
(-0.0541707 0.0353336 2.79991e-20)
(-0.0564681 0.0367474 -3.19111e-23)
(-0.0591898 0.0382641 6.02782e-21)
(-0.000709196 0.00607948 1.20354e-20)
(-0.00286968 0.0149947 -6.15688e-20)
(-0.00631356 0.0213846 -4.2495e-20)
(-0.0103485 0.0258265 -2.88204e-20)
(-0.014603 0.0287919 -3.70837e-20)
(-0.0188613 0.0306715 8.12155e-21)
(-0.0229682 0.031786 -4.2786e-20)
(-0.0268242 0.0323941 -9.60053e-21)
(-0.0303768 0.0327011 3.03203e-21)
(-0.0336089 0.0328676 3.19147e-20)
(-0.0365308 0.0330172 -3.48438e-20)
(-0.039173 0.0332438 4.84748e-20)
(-0.0415812 0.0336165 -3.63093e-20)
(-0.043811 0.0341842 -4.3054e-20)
(-0.0459249 0.0349788 -5.93137e-20)
(-0.0479949 0.0360167 3.78847e-20)
(-0.0500962 0.0373009 -1.22909e-20)
(-0.0522356 0.0388251 -4.4624e-20)
(-0.0543229 0.0405794 4.21732e-20)
(-0.0568525 0.0425148 -3.12541e-20)
(-0.00101115 0.00687156 1.18071e-19)
(-0.00357517 0.0170099 6.10266e-20)
(-0.0072337 0.024271 6.86233e-20)
(-0.0113504 0.0292889 5.71365e-21)
(-0.0155885 0.0325882 3.79095e-20)
(-0.0197561 0.0346085 4.71809e-20)
(-0.0237156 0.0357159 -8.60022e-20)
(-0.0273804 0.0362105 -4.54597e-20)
(-0.0307065 0.0363343 -5.92778e-20)
(-0.033683 0.0362806 6.3141e-20)
(-0.0363241 0.0362024 -4.82602e-20)
(-0.0386633 0.0362187 -6.21793e-20)
(-0.040749 0.0364211 -2.27214e-20)
(-0.0426398 0.0368773 2.15058e-20)
(-0.044402 0.0376346 -5.97274e-21)
(-0.0461125 0.0387212 8.57828e-21)
(-0.0478527 0.0401474 9.97515e-20)
(-0.049635 0.0419135 -1.40605e-20)
(-0.0513676 0.0440172 -1.01509e-19)
(-0.0535621 0.0463913 1.33311e-19)
(-0.00137464 0.00761106 4.12043e-20)
(-0.00444434 0.0188977 -5.79449e-20)
(-0.00839942 0.0269781 -1.449e-20)
(-0.0126564 0.0325356 2.7298e-20)
(-0.0169138 0.0361426 7.72512e-20)
(-0.021005 0.0382829 1.68924e-19)
(-0.0248121 0.0393647 1.65044e-19)
(-0.0282627 0.0397264 1.37642e-20)
(-0.0313231 0.0396448 1.01171e-19)
(-0.0339888 0.0393448 1.54867e-19)
(-0.0362789 0.0390079 -1.23647e-19)
(-0.0382305 0.0387791 1.83075e-19)
(-0.0398952 0.0387735 -4.16118e-20)
(-0.0413355 0.0390797 1.04318e-20)
(-0.0426227 0.0397632 4.33408e-20)
(-0.0438406 0.0408666 5.76624e-20)
(-0.0450797 0.0424112 -9.07928e-20)
(-0.0463606 0.0444068 -7.58831e-20)
(-0.0475909 0.046863 -1.34241e-19)
(-0.0493051 0.0496952 1.94707e-19)
(-0.00179597 0.00830101 -2.15337e-20)
(-0.00546766 0.0206603 -2.2012e-19)
(-0.00979679 0.0295036 -6.504e-20)
(-0.0142493 0.0355584 -1.5843e-19)
(-0.0185593 0.0394399 5.99828e-20)
(-0.0225872 0.0416724 -9.4383e-20)
(-0.0262367 0.0427024 3.25855e-20)
(-0.0294513 0.0429035 -1.99897e-19)
(-0.0322081 0.0425848 1.05548e-19)
(-0.0345106 0.042001 -1.2572e-19)
(-0.0363827 0.0413614 -1.11778e-19)
(-0.0378651 0.0408374 -1.25296e-19)
(-0.0390132 0.0405689 1.13686e-19)
(-0.0398938 0.0406679 -1.02264e-19)
(-0.0405839 0.0412214 1.42276e-19)
(-0.041176 0.0422911 4.11742e-20)
(-0.0417726 0.0439134 1.02018e-19)
(-0.0424056 0.0461129 4.47331e-20)
(-0.0429842 0.048916 -1.77568e-19)
(-0.0440726 0.0522232 2.88174e-19)
(-0.00227217 0.00894493 9.51151e-20)
(-0.00663618 0.0223012 7.23244e-21)
(-0.0114111 0.031847 3.91088e-20)
(-0.0161091 0.0383512 1.36285e-19)
(-0.0205006 0.0424688 -2.07324e-20)
(-0.0244752 0.0447604 2.21211e-19)
(-0.0279598 0.045707 9.82586e-20)
(-0.0309156 0.0457137 8.27684e-21)
(-0.0333322 0.0451191 2.52421e-19)
(-0.035221 0.0442052 8.27209e-20)
(-0.0366111 0.0432079 3.92877e-20)
(-0.0375468 0.0423247 1.24527e-19)
(-0.0380865 0.0417215 1.14214e-19)
(-0.0383012 0.0415367 2.08638e-19)
(-0.0382745 0.041883 -1.86499e-19)
(-0.0381086 0.0428464 2.64024e-19)
(-0.0379207 0.0444849 3.77654e-21)
(-0.0377581 0.0468447 -3.37902e-19)
(-0.0375347 0.0499774 4.38663e-19)
(-0.0378535 0.0537715 1.81679e-19)
(-0.00280092 0.00954633 -5.60711e-20)
(-0.00794109 0.0238236 -1.01776e-19)
(-0.0132256 0.0340082 -2.11387e-19)
(-0.0182112 0.0409101 -6.23411e-21)
(-0.0227059 0.0452214 3.61255e-20)
(-0.0266308 0.0475359 -2.69635e-19)
(-0.0299386 0.0483649 -1.99986e-19)
(-0.0326099 0.0481413 -2.85844e-20)
(-0.0346479 0.0472287 -2.52903e-19)
(-0.0360729 0.0459337 -1.75127e-19)
(-0.036919 0.0445161 -5.10275e-20)
(-0.0372334 0.0431987 -1.64396e-19)
(-0.0370769 0.0421743 -2.65917e-21)
(-0.0365237 0.0416099 -2.18525e-19)
(-0.0356636 0.041649 9.19719e-20)
(-0.0346093 0.0424086 -1.04922e-19)
(-0.0334954 0.0439767 8.06958e-20)
(-0.0323885 0.0464305 -1.02375e-19)
(-0.0312125 0.0498587 -2.93541e-19)
(-0.0306215 0.0541435 -8.89258e-20)
(-0.00338025 0.0101081 -2.06954e-20)
(-0.00937283 0.0252296 -2.24563e-20)
(-0.0152207 0.0359864 1.7734e-19)
(-0.0205248 0.0432312 -2.88643e-19)
(-0.0251333 0.047692 4.23451e-20)
(-0.0290018 0.049993 -1.66702e-19)
(-0.0321116 0.0506716 7.8667e-20)
(-0.0344651 0.0501835 3.53762e-19)
(-0.0360809 0.0489131 -2.26964e-20)
(-0.0369887 0.0471867 -2.63969e-19)
(-0.0372276 0.0452848 4.78522e-20)
(-0.0368471 0.043453 9.28448e-21)
(-0.0359088 0.0419105 -5.4369e-20)
(-0.0344888 0.0408549 5.30474e-21)
(-0.0326815 0.0404648 4.77134e-19)
(-0.0306105 0.0408962 -6.7767e-20)
(-0.0284292 0.0422773 -1.32859e-19)
(-0.0262286 0.0447301 -2.38913e-19)
(-0.0239495 0.0483968 2.43564e-19)
(-0.022314 0.0531637 1.04936e-19)
(-0.00400816 0.0106318 1.04243e-19)
(-0.0109201 0.0265188 -1.36416e-19)
(-0.0173715 0.037778 1.92797e-19)
(-0.0230099 0.045309 1.94002e-19)
(-0.027727 0.0498757 1.7875e-19)
(-0.0315168 0.0521295 3.62264e-19)
(-0.0343926 0.05263 2.34208e-19)
(-0.0363816 0.0518507 -5.03256e-19)
(-0.0375195 0.0501912 2.57393e-19)
(-0.037847 0.047992 2.02021e-19)
(-0.0374086 0.045549 -2.94084e-21)
(-0.036255 0.0431264 2.26321e-19)
(-0.0344474 0.0409669 1.76577e-19)
(-0.0320613 0.0392991 -9.59436e-20)
(-0.0291939 0.0383402 3.24915e-19)
(-0.025978 0.0382928 -4.02794e-19)
(-0.0225874 0.0393383 1.61532e-19)
(-0.0191415 0.0416609 2.07975e-19)
(-0.0156073 0.0454793 -4.85295e-20)
(-0.0127983 0.0507011 4.18188e-19)
(-0.00468205 0.011117 2.09813e-19)
(-0.0125687 0.0276868 1.08467e-20)
(-0.0196466 0.0393753 -7.52139e-20)
(-0.0256152 0.0471346 -7.93428e-20)
(-0.0304144 0.0517651 -3.67459e-19)
(-0.034081 0.0539436 5.21144e-20)
(-0.0366644 0.0542478 1.47366e-19)
(-0.0382197 0.0531639 -7.09547e-20)
(-0.038803 0.0511004 5.85147e-20)
(-0.0384676 0.0484054 -1.5446e-20)
(-0.0372644 0.0453833 -7.63939e-20)
(-0.0352457 0.0423101 7.26049e-20)
(-0.0324703 0.0394469 -3.1567e-19)
(-0.0290114 0.0370497 3.02697e-19)
(-0.0249655 0.0353755 -2.62492e-19)
(-0.0204725 0.0346798 8.1016e-20)
(-0.0157263 0.0352099 1.84981e-19)
(-0.0108782 0.0372348 -3.82836e-20)
(-0.00593155 0.0410813 -1.28092e-19)
(-0.0018239 0.0467054 -8.70945e-20)
(-0.00539817 0.0115609 -2.61403e-19)
(-0.0143 0.0287241 -1.70827e-20)
(-0.0220064 0.0407645 5.50189e-20)
(-0.028276 0.0486931 1.41271e-19)
(-0.0331031 0.0533482 -1.99445e-19)
(-0.0365721 0.0554307 -1.73968e-19)
(-0.0387728 0.0555334 4.05969e-19)
(-0.0397923 0.05415 -2.24352e-19)
(-0.0397103 0.0516919 -1.44706e-19)
(-0.038596 0.0485075 -2.07675e-19)
(-0.0365086 0.0449011 1.37511e-19)
(-0.033503 0.0411518 -3.61327e-21)
(-0.0296361 0.0375298 -2.56853e-19)
(-0.0249762 0.0343112 -4.20618e-19)
(-0.0196166 0.0317886 3.20514e-19)
(-0.0137007 0.0302723 -2.60163e-19)
(-0.00744075 0.0300872 3.68986e-19)
(-0.00102141 0.0316108 -1.03261e-19)
(0.00550743 0.0353201 2.1862e-19)
(0.0110413 0.0412611 -7.38407e-19)
(-0.00615105 0.0119579 -5.29623e-19)
(-0.0160904 0.0296158 3.47082e-19)
(-0.0244016 0.0419249 4.71764e-20)
(-0.0309127 0.0499616 9.12963e-21)
(-0.0356788 0.0546046 -2.13676e-19)
(-0.0388371 0.0565789 3.14183e-19)
(-0.0405223 0.0564895 3.42551e-20)
(-0.0408577 0.0548342 -6.4396e-20)
(-0.0399507 0.052022 -2.06762e-19)
(-0.0378897 0.0483941 2.23475e-19)
(-0.0347465 0.0442462 5.66737e-19)
(-0.0305813 0.0398496 -1.25173e-19)
(-0.0254508 0.0354715 2.83087e-19)
(-0.0194191 0.0313951 -3.34579e-19)
(-0.0125741 0.0279373 -3.21092e-19)
(-0.0050594 0.0254574 1.93031e-19)
(0.00289799 0.0243618 3.19659e-19)
(0.0110806 0.0251592 -1.03606e-18)
(0.019386 0.0285275 1.21388e-19)
(0.0264891 0.0346617 1.65037e-19)
(-0.00693313 0.0123 3.9224e-19)
(-0.0179102 0.0303412 1.29005e-19)
(-0.0267727 0.0428278 6.71291e-19)
(-0.0334299 0.0509077 3.4506e-20)
(-0.0380046 0.0555031 -7.45932e-20)
(-0.0406915 0.0573637 -3.55139e-19)
(-0.0416745 0.0571065 3.02022e-19)
(-0.041117 0.0552308 5.41837e-19)
(-0.039158 0.0521392 3.60953e-19)
(-0.03591 0.048161 2.6068e-19)
(-0.0314622 0.0435755 2.24805e-19)
(-0.0258854 0.0386352 -4.03594e-19)
(-0.0192412 0.0335901 -1.26475e-19)
(-0.0115932 0.0287132 -9.32158e-20)
(-0.00302542 0.024326 9.99065e-19)
(0.00632017 0.0208186 -3.27088e-21)
(0.0162046 0.0186695 -2.49373e-19)
(0.0263821 0.0185305 -7.90179e-20)
(0.0367006 0.0213336 7.16022e-19)
(0.0455527 0.027502 9.25901e-20)
(-0.00773461 0.0125772 -1.93546e-20)
(-0.0197233 0.0308751 -3.70782e-19)
(-0.0290495 0.0434377 -5.51318e-19)
(-0.0357162 0.0514895 -1.53319e-19)
(-0.0399206 0.0559999 8.46832e-20)
(-0.0419192 0.0577457 1.82397e-20)
(-0.0419483 0.0573562 4.83321e-19)
(-0.0402144 0.0553324 -5.99364e-19)
(-0.0368916 0.0520698 -2.27978e-19)
(-0.0321212 0.0478833 -4.59469e-19)
(-0.0260157 0.0430314 -3.91399e-19)
(-0.0186642 0.0377403 -3.46684e-19)
(-0.010142 0.0322299 8.66879e-20)
(-0.00052092 0.0267429 -1.12595e-19)
(0.0101118 0.0215795 4.82654e-19)
(0.0216118 0.0171291 -2.64552e-19)
(0.0337286 0.0139111 -8.29925e-19)
(0.0461939 0.0127081 -1.67659e-19)
(0.0588245 0.0147494 4.09727e-19)
(0.0696749 0.0207774 -3.56629e-19)
(-0.00854355 0.0127787 -6.25598e-20)
(-0.0214872 0.0311893 4.53458e-19)
(-0.0311511 0.0437138 -5.78108e-19)
(-0.0376445 0.0516571 1.33627e-19)
(-0.0412449 0.0560399 -2.75034e-19)
(-0.042274 0.057669 6.12606e-19)
(-0.0410224 0.0571887 -4.37784e-19)
(-0.0377412 0.0551037 5.00831e-19)
(-0.032642 0.0518046 -4.74871e-19)
(-0.0258988 0.0475942 2.02638e-19)
(-0.0176531 0.0427111 -9.83246e-20)
(-0.00802186 0.0373532 -2.46974e-19)
(0.00289404 0.0317033 -3.05232e-19)
(0.0149995 0.0259592 3.04191e-19)
(0.0281884 0.020372 -2.54786e-19)
(0.0423016 0.0152892 -5.57219e-19)
(0.0570682 0.0112163 5.80253e-19)
(0.0721998 0.00901456 -7.39945e-19)
(0.0875224 0.0102187 3.33315e-19)
(0.10073 0.0159716 1.0129e-20)
(-0.00934622 0.0128935 -5.67212e-19)
(-0.0231535 0.031255 -6.12096e-19)
(-0.0329861 0.043613 7.05378e-20)
(-0.0390713 0.0513563 -5.89822e-19)
(-0.0417733 0.0555605 -5.24129e-20)
(-0.0414804 0.0570663 -4.33716e-19)
(-0.038538 0.0565359 -9.94916e-20)
(-0.0332419 0.0544816 -2.90763e-19)
(-0.0258415 0.0512948 2.58239e-21)
(-0.0165454 0.0472722 -1.27237e-19)
(-0.00552963 0.0426396 9.05698e-21)
(0.00705217 0.0375735 -3.66737e-19)
(0.0210588 0.0322235 4.04306e-19)
(0.0363521 0.0267387 -5.73596e-19)
(0.0527825 0.0213046 2.03279e-19)
(0.0701501 0.0161879 7.68329e-21)
(0.0881397 0.0118105 -3.23359e-19)
(0.10643 0.00901302 8.02129e-19)
(0.124913 0.009573 -1.91061e-19)
(0.140989 0.0150636 -1.24366e-19)
(-0.0101274 0.0129124 6.36584e-19)
(-0.0246673 0.0310454 3.4359e-19)
(-0.034451 0.0430944 3.1948e-19)
(-0.0398358 0.0505346 4.76702e-20)
(-0.0412774 0.0544999 4.31829e-19)
(-0.0392324 0.0558677 6.22299e-19)
(-0.0340996 0.0553219 5.09422e-19)
(-0.026218 0.0533872 4.56099e-20)
(-0.0158733 0.0504619 3.7309e-19)
(-0.00330905 0.0468462 5.76524e-19)
(0.0112609 0.0427654 -1.49564e-19)
(0.0276383 0.0383893 2.5104e-19)
(0.0456278 0.0338504 2.02721e-19)
(0.0650256 0.0292637 2.06342e-19)
(0.085608 0.024755 1.2199e-18)
(0.107096 0.0204949 -4.57249e-19)
(0.129088 0.0167611 -2.77293e-20)
(0.151181 0.0142392 5.29281e-19)
(0.173384 0.0147919 -2.99891e-19)
(0.193024 0.0203616 1.48608e-19)
(-0.0108707 0.0128279 -5.14681e-19)
(-0.0259669 0.0305378 3.29093e-20)
(-0.0354284 0.0421238 -4.11591e-19)
(-0.0397557 0.049149 -5.35147e-20)
(-0.0395008 0.0528077 3.01194e-19)
(-0.0351891 0.0540168 -8.96605e-19)
(-0.0272717 0.0534838 -6.69291e-22)
(-0.0161278 0.0517498 4.17242e-19)
(-0.00207743 0.0492266 3.92019e-19)
(0.0146018 0.046227 -1.72613e-19)
(0.0336561 0.0429895 5.69288e-20)
(0.0548369 0.0396967 1.32021e-19)
(0.0778826 0.0364903 -6.25595e-20)
(0.102503 0.0334841 -7.01193e-19)
(0.128365 0.0307812 1.77529e-19)
(0.155062 0.0284881 4.88101e-19)
(0.18204 0.026734 -6.95296e-19)
(0.208719 0.0259425 3.38796e-19)
(0.235213 0.0278641 9.06854e-20)
(0.259236 0.0346587 4.59262e-19)
(-0.0115576 0.0126345 -7.58891e-20)
(-0.0269813 0.0297156 -3.60377e-19)
(-0.0357834 0.0406783 1.65801e-19)
(-0.0386217 0.047174 7.59235e-22)
(-0.0361512 0.0504585 -7.22283e-19)
(-0.0289669 0.0514885 1.12731e-19)
(-0.017571 0.0509965 -2.13935e-20)
(-0.00238124 0.0495415 1.45777e-19)
(0.0162492 0.0475516 -6.67311e-19)
(0.0380082 0.0453588 -4.68176e-20)
(0.062601 0.0432249 -1.56829e-19)
(0.0897251 0.0413624 1.3946e-19)
(0.119047 0.0399495 4.70903e-19)
(0.150177 0.039144 -7.28281e-20)
(0.182649 0.0390955 2.82556e-20)
(0.215873 0.0399469 1.85046e-19)
(0.249036 0.0418063 -4.58703e-20)
(0.281181 0.044957 3.72317e-19)
(0.312259 0.0511188 -2.17045e-19)
(0.340834 0.0624253 -3.4007e-19)
(-0.012167 0.0123288 7.0461e-20)
(-0.0276274 0.0285692 1.72331e-20)
(-0.0353578 0.0387497 1.44477e-19)
(-0.0361914 0.044609 3.53751e-19)
(-0.0308933 0.0474633 1.98471e-19)
(-0.0201312 0.0483084 2.06892e-20)
(-0.00445962 0.0478995 -2.36862e-19)
(0.015663 0.0468118 6.07276e-20)
(0.0398468 0.0454883 3.19373e-19)
(0.0677406 0.0442783 -5.41196e-19)
(0.0990037 0.0434661 4.08385e-19)
(0.13328 0.0432956 -3.07742e-19)
(0.170171 0.0439909 2.61106e-19)
(0.209218 0.0457781 -5.63142e-19)
(0.24987 0.0489105 6.19366e-19)
(0.291431 0.0536856 -6.62311e-19)
(0.332917 0.0604426 -1.71997e-19)
(0.372969 0.0698422 5.38943e-19)
(0.410533 0.0842939 -1.82494e-19)
(0.442617 0.105464 8.1065e-20)
(-0.012673 0.011908 -5.32923e-20)
(-0.027806 0.0270954 5.02861e-19)
(-0.0339654 0.0363469 -2.14562e-21)
(-0.032182 0.041484 -3.12097e-19)
(-0.0233418 0.0438798 -2.09796e-19)
(-0.00819119 0.0445663 3.84392e-19)
(0.0126557 0.0443172 -1.52238e-19)
(0.0386895 0.0437178 -1.91737e-20)
(0.0694688 0.0432176 3.17288e-19)
(0.104584 0.0431707 -3.94138e-19)
(0.143629 0.0438656 4.32053e-20)
(0.186174 0.045551 -5.12401e-19)
(0.231759 0.0484592 2.69778e-19)
(0.279883 0.0528335 -7.7178e-19)
(0.330018 0.0589646 1.22897e-18)
(0.381623 0.0672386 -2.25341e-19)
(0.434173 0.078245 2.34107e-19)
(0.487434 0.0933153 -6.08104e-19)
(0.541832 0.115557 4.67861e-21)
(0.589282 0.141631 6.84513e-19)
(-0.0130423 0.0113694 -1.61396e-19)
(-0.0273975 0.0252973 1.39372e-19)
(-0.0313869 0.0334966 -5.13402e-19)
(-0.0262675 0.0378617 7.59295e-19)
(-0.0130605 0.0398166 -5.48121e-19)
(0.00739618 0.0404243 2.83e-20)
(0.0344121 0.0404699 -5.9096e-19)
(0.0674026 0.0405391 4.2253e-19)
(0.105841 0.041074 -6.03485e-20)
(0.149215 0.0424124 -3.72839e-19)
(0.196998 0.044816 -2.17555e-19)
(0.248632 0.0484925 2.29996e-19)
(0.303519 0.0536131 1.51993e-19)
(0.361042 0.0603294 -6.7225e-19)
(0.42059 0.0687896 2.42805e-19)
(0.481605 0.0791497 -3.57615e-19)
(0.54365 0.0915924 4.3316e-20)
(0.606617 0.106511 -3.02708e-19)
(0.671241 0.125064 1.22694e-19)
(0.730496 0.143873 -4.51796e-19)
(-0.0132321 0.0107092 4.59478e-19)
(-0.0262582 0.0231837 -2.78285e-19)
(-0.0273682 0.0302435 2.29266e-19)
(-0.0180793 0.0338383 -2.89388e-19)
(0.000430838 0.0354333 4.84996e-19)
(0.0272107 0.0361145 -8.4556e-21)
(0.0614624 0.0366689 -5.90236e-20)
(0.102482 0.0376693 -4.37586e-20)
(0.149598 0.0395314 2.69416e-19)
(0.202128 0.0425517 4.58097e-19)
(0.259344 0.0469327 -2.70532e-19)
(0.320462 0.0528012 2.63024e-19)
(0.384656 0.0602213 4.80167e-19)
(0.451078 0.0692054 -3.36651e-19)
(0.518903 0.0797193 -6.82703e-19)
(0.587373 0.0916809 1.24762e-18)
(0.655848 0.104944 -2.22835e-19)
(0.723887 0.119335 -7.21151e-20)
(0.791605 0.135135 7.73594e-19)
(0.854155 0.151796 -1.64808e-19)
(-0.0131886 0.00992328 -7.47882e-19)
(-0.0242189 0.0207698 -4.97785e-19)
(-0.0216216 0.0266504 -1.91049e-19)
(-0.00721412 0.0295421 3.68578e-19)
(0.0176395 0.0309359 -8.3209e-19)
(0.0518377 0.03193 4.30899e-19)
(0.0944242 0.0332987 5.46092e-20)
(0.144508 0.0355824 5.52295e-20)
(0.201192 0.039146 -5.64314e-19)
(0.263525 0.0442139 -1.99233e-19)
(0.330478 0.0508939 -3.5111e-19)
(0.40095 0.0591953 3.39061e-19)
(0.473795 0.0690431 9.60282e-20)
(0.547866 0.0802898 1.86689e-20)
(0.622068 0.0927247 4.40412e-19)
(0.695405 0.106077 -4.4652e-19)
(0.767023 0.120008 -1.8404e-20)
(0.836247 0.134127 1.18573e-20)
(0.902717 0.14825 6.14811e-20)
(0.96388 0.164054 3.42248e-19)
(-0.0128455 0.00900819 2.38111e-19)
(-0.0210861 0.0180794 6.13136e-19)
(-0.013832 0.0227994 4.91958e-19)
(0.00675177 0.0251319 -1.69574e-19)
(0.0390724 0.0265717 5.89771e-19)
(0.0818228 0.0282118 -4.97014e-20)
(0.133813 0.0307917 -6.99866e-20)
(0.19387 0.0347919 4.16856e-20)
(0.260764 0.0404916 5.7003e-19)
(0.333165 0.0480043 3.34909e-19)
(0.409642 0.057303 9.78292e-20)
(0.488698 0.0682434 6.11878e-21)
(0.568824 0.0805865 -6.47651e-19)
(0.648567 0.0940194 5.62805e-19)
(0.726599 0.108176 9.61871e-20)
(0.801767 0.122651 -1.58777e-19)
(0.873134 0.137012 -6.85603e-19)
(0.939997 0.150828 -5.73119e-20)
(1.00185 0.163645 2.69602e-19)
(1.05815 0.178535 -5.45702e-20)
(-0.012125 0.00796315 -6.04008e-19)
(-0.016645 0.0151485 2.52684e-19)
(-0.00366717 0.0187949 -1.23369e-18)
(0.024242 0.0207979 5.05277e-19)
(0.0652012 0.0226244 -4.02949e-19)
(0.117618 0.0253357 2.97054e-19)
(0.179965 0.0296041 -4.6148e-19)
(0.250668 0.0358093 4.23912e-20)
(0.328038 0.0440992 -2.37767e-20)
(0.410256 0.0544279 1.24059e-19)
(0.495414 0.0665898 1.79002e-19)
(0.581585 0.0802552 -3.38265e-19)
(0.666919 0.0950068 1.79237e-19)
(0.749736 0.110376 1.64331e-19)
(0.828602 0.125878 7.07862e-19)
(0.902378 0.141033 -3.07905e-19)
(0.970242 0.155393 -2.03406e-19)
(1.03169 0.168583 3.41681e-19)
(1.0864 0.180083 1.80829e-19)
(1.13509 0.193542 -3.42488e-19)
(-0.0109395 0.00679297 5.28981e-19)
(-0.0106669 0.0120305 5.0999e-19)
(0.00920867 0.0147685 1.47172e-19)
(0.0456556 0.016763 6.19774e-19)
(0.0964234 0.0194102 3.04471e-19)
(0.159526 0.0237005 -5.48898e-19)
(0.232966 0.0301913 8.31302e-19)
(0.314628 0.0391069 -4.09064e-19)
(0.402242 0.0504054 4.08244e-19)
(0.493415 0.0638277 5.27967e-19)
(0.58573 0.0789489 -3.01689e-19)
(0.676876 0.0952337 5.73436e-20)
(0.764772 0.112093 3.18976e-19)
(0.847674 0.128934 2.24415e-19)
(0.924245 0.145206 5.1574e-19)
(0.993578 0.160427 -2.06961e-19)
(1.05518 0.174205 -2.59915e-20)
(1.10893 0.186273 3.23132e-19)
(1.15493 0.196219 -6.97989e-20)
(1.1946 0.20767 1.34031e-22)
(-0.00919388 0.00551099 -2.73055e-19)
(-0.00291671 0.00880185 -1.00347e-18)
(0.025118 0.0108836 2.36314e-19)
(0.0713394 0.0132852 -1.79907e-19)
(0.133021 0.0172742 -4.15314e-19)
(0.207645 0.0237147 -2.96538e-19)
(0.292591 0.0329844 -1.83144e-19)
(0.38506 0.0450821 4.44789e-19)
(0.482097 0.05971 -2.64108e-19)
(0.580708 0.0763445 -2.70499e-19)
(0.678023 0.0943149 -3.41659e-19)
(0.771479 0.112885 -5.63773e-20)
(0.858963 0.131327 -3.85074e-20)
(0.938903 0.148985 -7.87576e-19)
(1.01029 0.165315 3.80766e-19)
(1.07267 0.179909 -5.0086e-19)
(1.12605 0.192499 1.56243e-19)
(1.17081 0.202964 -1.19049e-18)
(1.20754 0.211103 3.59045e-19)
(1.23799 0.220162 4.51737e-19)
(-0.00678916 0.00414178 -6.85736e-20)
(0.00683581 0.00556721 4.89434e-19)
(0.0443516 0.00734047 3.13877e-20)
(0.101559 0.0106586 7.55115e-20)
(0.175123 0.0165847 -1.53521e-19)
(0.261828 0.0257815 -2.55121e-21)
(0.358269 0.0383643 -3.91238e-21)
(0.46084 0.0540253 -9.25491e-20)
(0.56586 0.0721454 3.28429e-19)
(0.669788 0.091901 1.26864e-19)
(0.769458 0.112377 5.75431e-19)
(0.862285 0.132674 -1.56789e-19)
(0.946387 0.151996 1.09259e-19)
(1.02062 0.169704 -1.39724e-20)
(1.08453 0.185347 3.0213e-19)
(1.13826 0.198662 1.84279e-19)
(1.1824 0.209556 4.42583e-19)
(1.21786 0.218074 -7.14123e-19)
(1.24567 0.22425 8.96692e-19)
(1.2677 0.230809 -2.83912e-19)
(-0.00362634 0.00272325 -6.37823e-19)
(0.0188049 0.00246295 -1.99155e-19)
(0.0671476 0.00437784 1.55615e-19)
(0.136469 0.00921014 9.81199e-20)
(0.222666 0.0177218 1.00604e-19)
(0.321647 0.0302782 1.01908e-19)
(0.42907 0.0466342 -2.55169e-19)
(0.540454 0.0660918 -1.05332e-19)
(0.651441 0.0876609 3.27838e-20)
(0.758105 0.110213 -3.12031e-19)
(0.857239 0.13263 -1.40892e-19)
(0.946531 0.153925 8.51163e-19)
(1.02461 0.173328 -2.19685e-19)
(1.091 0.190313 -3.01886e-19)
(1.14595 0.204601 -1.42613e-19)
(1.19025 0.216127 9.91166e-20)
(1.22506 0.224992 1.20005e-19)
(1.25172 0.23141 -5.75165e-19)
(1.27159 0.235618 8.3047e-19)
(1.28652 0.239816 -7.19203e-19)
(0.00038953 0.00130792 -7.21149e-20)
(0.0331761 -0.000341497 2.06458e-20)
(0.0936715 0.00227134 -2.63868e-20)
(0.176088 0.00929164 3.85262e-19)
(0.275373 0.0210611 2.12607e-20)
(0.386382 0.0375318 1.41447e-19)
(0.503733 0.0579926 -2.93942e-19)
(0.62209 0.0812844 -1.06697e-20)
(0.736573 0.106028 4.07902e-19)
(0.843151 0.130829 5.67126e-20)
(0.938899 0.15445 -3.54746e-19)
(1.02209 0.175926 -3.11656e-20)
(1.09213 0.194617 -2.90377e-19)
(1.14932 0.2102 2.89448e-19)
(1.19467 0.222623 4.00653e-19)
(1.22959 0.232041 -4.40952e-20)
(1.25569 0.238746 -5.35221e-20)
(1.2746 0.243089 1.62972e-19)
(1.28785 0.245453 -5.2265e-19)
(1.29717 0.247586 4.60606e-19)
(0.00534493 -3.67571e-05 7.24996e-20)
(0.0500932 -0.00264499 -4.6746e-19)
(0.123995 0.00132721 1.2509e-19)
(0.220271 0.0112661 -3.88153e-19)
(0.332733 0.0269514 1.33491e-19)
(0.455036 0.0477922 -4.95566e-19)
(0.580733 0.0725124 1.99846e-19)
(0.703768 0.0994512 -6.3645e-20)
(0.819022 0.126869 -2.59603e-21)
(0.922708 0.153194 6.49126e-20)
(1.01254 0.17719 -2.36308e-19)
(1.08764 0.198034 -3.36858e-19)
(1.14834 0.215317 -6.88299e-20)
(1.1958 0.22898 -3.08984e-20)
(1.23169 0.239222 -7.83074e-20)
(1.25792 0.246409 -2.54297e-20)
(1.27638 0.250989 -7.61453e-20)
(1.28884 0.253411 -6.59449e-20)
(1.29684 0.254142 -1.95443e-19)
(1.30196 0.254567 3.09361e-19)
(0.0113132 -0.00122888 1.74216e-19)
(0.0696451 -0.00421887 -1.93481e-19)
(0.158078 0.00187169 4.16425e-19)
(0.268697 0.015489 -1.79789e-19)
(0.394003 0.0356903 4.80483e-19)
(0.526373 0.0612097 6.93102e-21)
(0.658377 0.0901323 2.4116e-19)
(0.783505 0.120303 -6.46459e-20)
(0.896774 0.149706 2.69099e-19)
(0.995036 0.176723 1.92697e-20)
(1.07694 0.200257 6.39031e-19)
(1.14268 0.219745 -4.40748e-19)
(1.19351 0.235079 5.95313e-20)
(1.23139 0.246491 1.1328e-19)
(1.25852 0.254422 5.90216e-19)
(1.27712 0.259412 -2.11918e-19)
(1.28922 0.26202 -4.1923e-20)
(1.29655 0.262744 -2.21045e-19)
(1.30057 0.262086 -2.29532e-20)
(1.30266 0.26115 1.10372e-19)
(0.0183494 -0.00217355 -8.35334e-20)
(0.0918535 -0.00481381 2.41415e-19)
(0.195754 0.00423677 -2.47312e-19)
(0.32086 0.0222867 9.76042e-20)
(0.458235 0.0475005 -1.16802e-19)
(0.598986 0.07782 4.28476e-19)
(0.734926 0.110662 -5.97412e-20)
(0.859471 0.143447 1.46695e-19)
(0.968203 0.174018 -8.64839e-20)
(1.05897 0.200869 -2.31326e-21)
(1.1316 0.223177 9.83197e-20)
(1.18738 0.240725 -7.60932e-20)
(1.22847 0.253746 1.9717e-19)
(1.25744 0.262752 -9.8365e-20)
(1.27686 0.26839 -4.31168e-19)
(1.28907 0.271325 4.28211e-19)
(1.29607 0.272173 -1.92445e-19)
(1.29948 0.27144 1.53546e-19)
(1.30058 0.269632 2.65501e-19)
(1.30055 0.267633 1.08852e-19)
(0.0264859 -0.0027651 2.07901e-19)
(0.116662 -0.00416885 -4.28436e-19)
(0.236723 0.00874342 8.1937e-20)
(0.376083 0.0319349 -5.94856e-20)
(0.524312 0.0625111 -2.39991e-19)
(0.671391 0.0975407 -1.88236e-19)
(0.808727 0.133806 -3.7039e-20)
(0.930122 0.168431 -3.35147e-19)
(1.03215 0.199298 -2.03811e-20)
(1.11394 0.225169 -6.21703e-20)
(1.17659 0.24561 -1.68523e-19)
(1.22244 0.260801 -3.74896e-20)
(1.2544 0.271312 -1.28678e-19)
(1.27546 0.277901 -2.14129e-19)
(1.28836 0.281365 2.18855e-19)
(1.29541 0.282442 2.98387e-20)
(1.29847 0.281757 5.94283e-20)
(1.29896 0.279796 -2.50971e-19)
(1.29798 0.277044 -6.4925e-21)
(1.29651 0.274214 -3.85451e-19)
(0.035727 -0.00289025 2.2775e-19)
(0.143931 -0.00202238 1.51939e-19)
(0.280547 0.0156838 -2.45095e-19)
(0.433532 0.0446391 3.82675e-19)
(0.591008 0.0807476 -4.1308e-20)
(0.742114 0.120181 1.42858e-19)
(0.878313 0.159192 4.94419e-20)
(0.994281 0.194793 1.74915e-19)
(1.08794 0.225094 -1.36961e-19)
(1.15988 0.249272 4.55383e-20)
(1.21244 0.267356 -4.36842e-20)
(1.24887 0.279933 -1.90782e-20)
(1.27262 0.287876 3.6428e-20)
(1.28691 0.292135 -6.69321e-20)
(1.29447 0.293599 -2.04539e-20)
(1.29748 0.293028 -6.26401e-20)
(1.29757 0.291025 -1.01692e-19)
(1.29596 0.288028 6.57257e-20)
(1.29354 0.2845 -8.96751e-20)
(1.2911 0.281006 3.87595e-19)
(0.0460459 -0.00243194 -1.13663e-19)
(0.173428 0.00187577 -3.22121e-19)
(0.326665 0.0253037 -4.28665e-20)
(0.492257 0.06052 -1.17288e-20)
(0.657062 0.102131 -1.44284e-19)
(0.809789 0.14546 -2.36809e-19)
(0.94249 0.186407 7.74196e-20)
(1.05117 0.222092 -1.06365e-19)
(1.13535 0.251034 -1.18991e-19)
(1.19711 0.272938 6.61932e-20)
(1.23994 0.288325 -4.9967e-20)
(1.26777 0.298167 -1.00859e-19)
(1.2844 0.303586 -3.22716e-21)
(1.29308 0.30566 6.82876e-20)
(1.2964 0.305318 -6.93243e-20)
(1.29632 0.303302 9.62632e-20)
(1.29424 0.300162 2.59738e-20)
(1.29114 0.296282 6.50651e-20)
(1.28774 0.292103 1.26302e-19)
(1.28466 0.288057 -1.08084e-19)
(0.0573812 -0.00127395 1.08532e-19)
(0.204836 0.00775169 -9.52245e-21)
(0.374406 0.0377879 4.8763e-20)
(0.551235 0.0796049 -6.61158e-20)
(0.721239 0.126483 5.50067e-21)
(0.873223 0.173033 2.2926e-19)
(1.00037 0.215031 -1.50518e-19)
(1.10037 0.249934 6.36772e-20)
(1.1745 0.276832 5.60946e-20)
(1.22624 0.29602 -1.57431e-19)
(1.26002 0.308508 1.47768e-19)
(1.28027 0.315601 1.32397e-21)
(1.2909 0.318605 -1.03744e-19)
(1.29505 0.318667 1.24975e-19)
(1.29508 0.316708 -4.94621e-20)
(1.2927 0.313419 3.77874e-20)
(1.28905 0.309288 -4.23142e-20)
(1.28493 0.30464 -1.69546e-20)
(1.28089 0.299896 -1.47159e-19)
(1.27741 0.295365 4.50234e-20)
(0.0696364 0.0006941 -3.6543e-20)
(0.237755 0.0157951 9.81707e-20)
(0.423011 0.0532474 1.53256e-20)
(0.609417 0.101826 6.4196e-20)
(0.782398 0.153546 3.06283e-20)
(0.931446 0.202516 1.43606e-20)
(1.05137 0.244659 8.12748e-20)
(1.1418 0.277988 -9.86147e-21)
(1.20577 0.302278 3.57564e-20)
(1.248 0.318443 5.73764e-20)
(1.27364 0.327942 2.76274e-20)
(1.28738 0.332348 1.98034e-20)
(1.29308 0.333083 8.02287e-20)
(1.29366 0.331308 -7.7626e-20)
(1.2912 0.327899 1.66376e-20)
(1.28714 0.32348 -1.5507e-20)
(1.2824 0.318466 2.40619e-20)
(1.2776 0.31313 2.0129e-20)
(1.27315 0.30788 4.1874e-20)
(1.26943 0.302897 1.7503e-21)
(0.0826798 0.00357153 2.16699e-20)
(0.271713 0.0261485 1.9787e-20)
(0.47167 0.0717116 -2.73972e-20)
(0.665778 0.127025 1.71182e-20)
(0.839537 0.182995 9.66163e-21)
(0.983727 0.233508 -3.00681e-20)
(1.09518 0.274916 9.90554e-21)
(1.17562 0.305977 1.79918e-21)
(1.2297 0.327226 1.70486e-20)
(1.26319 0.34018 -4.56869e-20)
(1.2817 0.346687 -1.28679e-22)
(1.28999 0.348515 1.26106e-20)
(1.29173 0.347139 -1.00491e-20)
(1.28956 0.343689 1.01675e-20)
(1.28526 0.338971 2.64431e-20)
(1.28002 0.333532 -1.50117e-20)
(1.27454 0.327713 4.20011e-21)
(1.26931 0.321743 1.63932e-20)
(1.26463 0.316018 -2.69836e-20)
(1.26077 0.310596 1.29654e-20)
(0.0963476 0.00744154 6.0311e-20)
(0.306183 0.0388974 -3.28189e-20)
(0.51955 0.0931254 3.86514e-20)
(0.719359 0.154961 -2.87562e-20)
(0.891822 0.214456 -1.28851e-20)
(1.02957 0.265606 3.90634e-21)
(1.13174 0.305464 -1.26293e-20)
(1.20215 0.333678 4.53789e-20)
(1.2469 0.351573 -3.77492e-20)
(1.27256 0.361227 8.85852e-21)
(1.28498 0.364802 -6.59792e-21)
(1.28882 0.364187 -4.28297e-20)
(1.28746 0.360856 4.15017e-20)
(1.28322 0.355874 1.57586e-20)
(1.27761 0.34996 -1.56701e-20)
(1.27156 0.343581 3.67144e-20)
(1.26562 0.33701 -5.64234e-22)
(1.26015 0.330438 -3.54917e-20)
(1.25535 0.324257 2.62461e-20)
(1.25145 0.318391 8.23299e-21)
(0.110447 0.0123667 -2.11405e-20)
(0.340601 0.054065 6.12582e-20)
(0.565828 0.11735 7.07936e-20)
(0.769301 0.185325 -3.34004e-20)
(0.938602 0.247529 5.80871e-20)
(1.06868 0.298422 9.18482e-20)
(1.16116 0.336002 -5.06881e-21)
(1.22183 0.360907 -1.57314e-20)
(1.25802 0.375246 7.76752e-20)
(1.27684 0.381588 3.78322e-20)
(1.28417 0.382331 -6.83129e-21)
(1.28445 0.379418 5.62655e-20)
(1.28073 0.374277 -6.01824e-20)
(1.275 0.367882 9.36737e-20)
(1.26848 0.36086 -1.56053e-20)
(1.26191 0.353599 4.45663e-20)
(1.25571 0.34631 7.97545e-21)
(1.25014 0.339155 3.17529e-20)
(1.24533 0.332522 -3.0226e-20)
(1.24146 0.326201 7.26469e-21)
(0.124761 0.0183845 -3.28889e-20)
(0.374379 0.0716069 7.79013e-20)
(0.609722 0.144167 5.78848e-20)
(0.814865 0.217748 -8.7677e-21)
(0.9794 0.281794 9.01321e-20)
(1.10096 0.331582 -6.73673e-20)
(1.18369 0.366258 -5.20431e-21)
(1.23516 0.387508 5.9328e-20)
(1.26368 0.398181 1.88191e-20)
(1.27664 0.401258 2.63133e-20)
(1.27983 0.399294 -3.88214e-20)
(1.27734 0.394228 1.01023e-19)
(1.27188 0.387405 1.8782e-20)
(1.26512 0.379696 -8.92621e-20)
(1.25802 0.371634 1.30108e-19)
(1.25116 0.36353 -1.5328e-19)
(1.24486 0.355543 -7.01243e-20)
(1.23931 0.347816 1.17122e-20)
(1.23456 0.340732 6.79423e-20)
(1.23078 0.333942 -1.27867e-19)
(0.139054 0.0255049 -7.38819e-20)
(0.406935 0.0914113 -1.74336e-19)
(0.650512 0.173288 -1.5082e-19)
(0.855449 0.251822 -2.05153e-19)
(1.01391 0.316827 -1.16379e-19)
(1.12645 0.364732 -2.41122e-19)
(1.19965 0.395989 3.06481e-20)
(1.24264 0.413343 -1.27793e-19)
(1.26443 0.420318 -1.40356e-20)
(1.27251 0.42022 2.0999e-20)